977 TIP4P/2005f water molecules t=   1.82000 step= 1820
 3908
    1SOL     OW    1   0.385   0.767   0.097  0.2017  0.1645  0.1686
    1SOL    HW1    2   0.321   0.710   0.058  0.6588  0.3825  2.7782
    1SOL    HW2    3   0.421   0.714   0.169 -0.2006 -3.1973  0.3302
    1SOL     MW    4   0.381   0.752   0.101  0.2090 -0.2503  0.5343
    2SOL     OW    5   0.284   2.989   1.097 -0.5897 -0.3266  0.0341
    2SOL    HW1    6   0.339   3.064   1.071 -0.5275  1.3084 -0.2724
    2SOL    HW2    7   0.194   3.020   1.113  0.8795 -0.7850  1.2378
    2SOL     MW    8   0.279   3.003   1.096 -0.3876 -0.1713  0.1524
    3SOL     OW    9   2.692   0.336   0.952  0.6386 -0.6338 -0.8731
    3SOL    HW1   10   2.720   0.414   0.892  1.1854  0.0061  0.7862
    3SOL    HW2   11   2.677   0.375   1.049 -0.6303  1.5346  3.6163
    3SOL     MW   12   2.694   0.352   0.957  0.5433 -0.2633 -0.0619
    4SOL     OW   13   2.936   1.702   0.540  0.0967  0.2171  0.2795
    4SOL    HW1   14   2.884   1.781   0.543  1.4770  2.3916 -1.4603
    4SOL    HW2   15   3.002   1.724   0.474  2.0697 -0.0362  0.3387
    4SOL     MW   16   2.938   1.715   0.532  0.5391  0.4706  0.0578
    5SOL     OW   17   1.609   1.431   0.611  0.0919  0.6110  0.0053
    5SOL    HW1   18   1.651   1.446   0.695  2.5268  0.8080  0.0441
    5SOL    HW2   19   1.523   1.462   0.630 -0.8738  2.5851  0.1075
    5SOL     MW   20   1.603   1.437   0.625  0.2858  0.8975  0.0239
    6SOL     OW   21   0.788   1.424   0.605 -0.4119 -0.0597 -0.1229
    6SOL    HW1   22   0.697   1.420   0.603  1.4989 -1.6044 -2.5443
    6SOL    HW2   23   0.822   1.341   0.646 -1.1372 -1.4436  0.6056
    6SOL     MW   24   0.781   1.412   0.610 -0.2555 -0.4461 -0.3462
    7SOL     OW   25   1.956   1.032   0.028  0.6511  0.3278  0.0838
    7SOL    HW1   26   2.029   1.091   0.045 -0.7740 -1.2660  0.2375
    7SOL    HW2   27   1.924   1.014   0.120 -2.3724 -3.0599  3.3633
    7SOL     MW   28   1.962   1.037   0.042  0.0641 -0.3294  0.5368
    8SOL     OW   29   0.822   1.407   1.006  0.1647 -0.5797 -0.5168
    8SOL    HW1   30   0.893   1.465   1.046  1.9746 -0.3788 -1.5722
    8SOL    HW2   31   0.802   1.338   1.063 -0.3354 -1.0406 -1.1224
    8SOL     MW   32   0.829   1.406   1.019  0.3375 -0.6140 -0.7360
    9SOL     OW   33   0.903   0.535   1.312 -0.8157  0.5370 -0.4420
    9SOL    HW1   34   0.842   0.462   1.290  0.1142  0.5974  0.2974
    9SOL    HW2   35   0.970   0.505   1.374 -1.7444  0.2526  0.9831
    9SOL     MW   36   0.904   0.522   1.317 -0.8156  0.5074 -0.1564
   10SOL     OW   37   0.313   0.817   0.498 -0.1392 -0.4290  0.4707
   10SOL    HW1   38   0.405   0.847   0.478  0.3846  1.5790 -0.3738
   10SOL    HW2   39   0.274   0.870   0.574  1.4329  0.5558 -0.9123
   10SOL     MW   40   0.320   0.828   0.506  0.1374 -0.0341  0.1768
   11SOL     OW   41   0.756   1.121   1.486 -0.6408  0.2046  1.0338
   11SOL    HW1   42   0.844   1.125   1.522  1.9226  2.3830 -0.9769
   11SOL    HW2   43   0.768   1.028   1.454 -0.4947 -1.5710 -0.3555
   11SOL     MW   44   0.769   1.109   1.486 -0.2833  0.2578  0.5852
   12SOL     OW   45   0.057   1.084   0.917 -0.6186  0.2225 -0.0470
   12SOL    HW1   46   0.086   1.158   0.967 -2.1987  0.4568  0.7571
   12SOL    HW2   47  -0.003   1.130   0.848 -0.3223  1.1501  0.5282
   12SOL     MW   48   0.053   1.100   0.915 -0.7880  0.3758  0.1350
   13SOL     OW   49   1.834   1.408   1.330  0.6033 -0.1837  0.1432
   13SOL    HW1   50   1.873   1.343   1.267  1.2193  1.6554 -0.4488
   13SOL    HW2   51   1.893   1.486   1.324  0.7048 -0.4413 -0.6498
   13SOL     MW   52   1.847   1.410   1.321  0.6980  0.0249 -0.0396
   14SOL     OW   53   0.584   0.276   1.822  0.1515 -0.6235 -0.0931
   14SOL    HW1   54   0.569   0.249   1.731  0.9866 -0.3014  0.9442
   14SOL    HW2   55   0.672   0.318   1.816 -2.1924  1.6097  0.9077
   14SOL     MW   56   0.594   0.278   1.809 -0.0476 -0.2863  0.1758
   15SOL     OW   57   2.052   0.440   0.954  0.3525 -0.1215 -0.3692
   15SOL    HW1   58   2.083   0.503   1.022 -0.9631 -0.9373 -0.0996
   15SOL    HW2   59   2.081   0.469   0.866 -1.1811 -2.6794 -2.8877
   15SOL     MW   60   2.060   0.453   0.951 -0.0234 -0.5666 -0.6659
   16SOL     OW   61   0.207   1.840   0.258 -0.7726 -0.2707 -0.3513
   16SOL    HW1   62   0.289   1.800   0.253 -2.9215 -1.8294 -0.4290
   16SOL    HW2   63   0.224   1.917   0.315 -0.7120 -0.8284  1.2016
   16SOL     MW   64   0.221   1.845   0.265 -1.0481 -0.5499 -0.1566
   17SOL     OW   65   1.118   0.893   1.415 -0.0061  0.4432 -0.3058
   17SOL    HW1   66   1.131   0.869   1.505  0.9995  0.6569  0.5409
   17SOL    HW2   67   1.019   0.883   1.401  0.5552 -0.1897 -1.5337
   17SOL     MW   68   1.107   0.889   1.425  0.2006  0.3879 -0.3561
   18SOL     OW   69   0.056   1.653   0.361  0.1796 -0.1195 -0.0395
   18SOL    HW1   70   0.114   1.728   0.330 -0.3400 -1.4401  0.2638
   18SOL    HW2   71   0.026   1.633   0.271  0.2163  2.2835  0.6899
   18SOL     MW   72   0.060   1.660   0.345  0.1159  0.0233  0.0967
   19SOL     OW   73   0.090   1.357   0.963 -0.4896  0.1445 -0.2073
   19SOL    HW1   74   0.104   1.377   0.871  1.3019  1.1685 -1.1890
   19SOL    HW2   75  -0.004   1.372   0.975 -1.7505  2.5045  0.5875
   19SOL     MW   76   0.080   1.361   0.953 -0.4196  0.5910 -0.2320
   20SOL     OW   77   0.449   2.119   1.267 -0.1706 -0.1091  0.3656
   20SOL    HW1   78   0.407   2.049   1.218 -0.0363 -0.0915 -1.4834
   20SOL    HW2   79   0.391   2.121   1.344  2.2792  2.5090  0.3011
   20SOL     MW   80   0.436   2.110   1.271  0.1703  0.2387  0.1131
   21SOL     OW   81   0.559   0.915   0.442  0.2908  0.4171  0.3637
   21SOL    HW1   82   0.625   0.941   0.507 -0.7129 -4.8639 -2.8533
   21SOL    HW2   83   0.591   0.936   0.353 -1.3464  2.5802 -1.0812
   21SOL     MW   84   0.572   0.921   0.439 -0.0576  0.0058 -0.2514
   22SOL     OW   85   1.547   0.722   1.003  0.1591  0.4529 -0.9159
   22SOL    HW1   86   1.562   0.692   0.913 -0.4366 -2.1342 -0.7227
   22SOL    HW2   87   1.451   0.742   1.006 -2.4992 -1.9976  0.8652
   22SOL     MW   88   1.537   0.721   0.991 -0.2702 -0.2118 -0.6554
   23SOL     OW   89   3.073   0.813   0.685  0.3721 -0.2748 -0.3111
   23SOL    HW1   90   3.105   0.767   0.766  1.3047  1.3729  2.6163
   23SOL    HW2   91   3.133   0.889   0.669  0.4722  1.9381  1.7812
   23SOL     MW   92   3.085   0.817   0.694  0.5084  0.2346  0.3512
   24SOL     OW   93   2.082   2.129   0.070 -0.6407  0.1167 -0.0847
   24SOL    HW1   94   2.046   2.137   0.161  0.2417  1.0865 -0.9155
   24SOL    HW2   95   2.073   2.046   0.028 -0.7469  0.8755  0.9676
   24SOL     MW   96   2.076   2.119   0.076 -0.5383  0.3448 -0.0554
   25SOL     OW   97   0.237   1.450   0.397 -0.1624  0.2187 -0.4877
   25SOL    HW1   98   0.180   1.543   0.386 -0.8346 -0.1325 -2.4127
   25SOL    HW2   99   0.230   1.418   0.308  0.1461  1.6211  3.0509
   25SOL     MW  100   0.228   1.458   0.384 -0.2104  0.3574 -0.2748
   26SOL     OW  101   1.977   1.029   0.307 -0.2598 -0.1067 -0.0324
   26SOL    HW1  102   1.936   1.067   0.389  0.1849  2.2034 -0.8518
   26SOL    HW2  103   2.041   1.094   0.279  0.8543 -0.1852  1.8498
   26SOL     MW  104   1.980   1.042   0.314 -0.0541  0.1878  0.1078
   27SOL     OW  105   1.860   1.368   0.126 -0.0461  0.2425 -0.5544
   27SOL    HW1  106   1.800   1.439   0.141 -1.6239 -1.0213 -0.2778
   27SOL    HW2  107   1.918   1.365   0.202 -1.2851 -1.2041 -1.1209
   27SOL     MW  108   1.860   1.377   0.138 -0.4178 -0.1151 -0.5926
   28SOL     OW  109   0.441   0.934   2.050 -0.1531 -0.2968  0.0156
   28SOL    HW1  110   0.494   0.913   2.124 -0.0240  2.0208  2.0089
   28SOL    HW2  111   0.349   0.936   2.073  1.0202  0.9397 -0.7263
   28SOL     MW  112   0.436   0.932   2.063  0.0187  0.1721  0.1807
   29SOL     OW  113   0.167   1.442   0.705  0.2363 -0.3659 -0.3059
   29SOL    HW1  114   0.184   1.532   0.673 -0.5049 -1.2203  0.2899
   29SOL    HW2  115   0.216   1.392   0.642  0.6501 -0.8821  1.0013
   29SOL     MW  116   0.175   1.447   0.692  0.1931 -0.5468 -0.0548
   30SOL     OW  117   0.729   1.272   1.238 -0.3386 -0.0561 -0.3135
   30SOL    HW1  118   0.642   1.259   1.273  0.1335  0.3457 -2.3834
   30SOL    HW2  119   0.781   1.204   1.282 -3.0543  0.2447 -0.7696
   30SOL     MW  120   0.724   1.261   1.249 -0.6346  0.0366 -0.6468
   31SOL     OW  121   0.492   0.243   0.202 -0.3454  0.3796 -0.2971
   31SOL    HW1  122   0.504   0.173   0.267 -1.8280  2.9161 -2.1408
   31SOL    HW2  123   0.496   0.201   0.113  2.0110  1.4932  0.4007
   31SOL     MW  124   0.494   0.228   0.199 -0.2301  0.8612 -0.4483
   32SOL     OW  125   2.747   0.988   1.078  0.8249  0.3376  0.3249
   32SOL    HW1  126   2.677   0.937   1.106 -1.6736 -0.1115 -1.9751
   32SOL    HW2  127   2.833   0.933   1.105  1.0352 -0.7063  2.3981
   32SOL     MW  128   2.749   0.974   1.085  0.5230  0.1406  0.2950
   33SOL     OW  129   1.613   1.222   0.416  0.4027 -0.1637 -0.3478
   33SOL    HW1  130   1.691   1.212   0.467 -2.4173 -0.8212  0.5603
   33SOL    HW2  131   1.564   1.279   0.473  0.4036  1.4428 -0.3444
   33SOL     MW  132   1.617   1.228   0.430  0.0307 -0.0385 -0.2275
   34SOL     OW  133   1.128   1.988   1.179  0.2813  0.5387  0.5915
   34SOL    HW1  134   1.083   2.010   1.261 -2.2322 -1.1315  2.1179
   34SOL    HW2  135   1.215   1.992   1.201  1.4692 -1.2336 -0.2798
   34SOL     MW  136   1.133   1.991   1.193  0.1064  0.0845  0.6779
   35SOL     OW  137   0.322   0.143   1.675 -0.4676  0.3691 -0.2922
   35SOL    HW1  138   0.299   0.115   1.762  1.6769  2.2645  0.4049
   35SOL    HW2  139   0.274   0.074   1.623  2.0627 -3.3645  2.5861
   35SOL     MW  140   0.312   0.130   1.679  0.1492  0.1265  0.1795
   36SOL     OW  141   1.948   1.995   0.591  0.4241  0.1318 -0.3741
   36SOL    HW1  142   1.920   1.976   0.506  0.0417 -1.3936 -1.2806
   36SOL    HW2  143   1.959   1.899   0.614  0.7540  0.9772  0.0753
   36SOL     MW  144   1.946   1.980   0.583  0.4172  0.0420 -0.4344
   37SOL     OW  145   1.739   2.076   0.947 -0.5525  0.2795 -0.1200
   37SOL    HW1  146   1.693   2.012   0.883 -1.8159  0.2048  0.3530
   37SOL    HW2  147   1.671   2.112   0.995  4.4287  2.0647  0.2325
   37SOL     MW  148   1.724   2.072   0.945 -0.0619  0.5052 -0.0111
   38SOL     OW  149   2.804   0.982   0.026  0.1434  0.8391  0.3357
   38SOL    HW1  150   2.823   0.992   0.119  2.5769 -0.1018 -1.2932
   38SOL    HW2  151   2.896   0.975  -0.020  0.6254 -1.6045 -0.4596
   38SOL     MW  152   2.818   0.982   0.032  0.5281  0.3925  0.0159
   39SOL     OW  153   1.547   0.661   0.731  0.4887 -0.4444  0.0531
   39SOL    HW1  154   1.532   0.565   0.727  0.7978  1.2168 -2.1029
   39SOL    HW2  155   1.461   0.697   0.720  2.9191 -0.5571  1.1936
   39SOL     MW  156   1.534   0.653   0.729  0.8501 -0.2401 -0.0809
   40SOL     OW  157   1.276   1.871   0.241  0.0967  0.2766 -0.1770
   40SOL    HW1  158   1.315   1.795   0.285 -0.1407  0.5144 -0.6348
   40SOL    HW2  159   1.240   1.928   0.312 -2.9218 -1.9170 -1.0976
   40SOL     MW  160   1.277   1.868   0.256 -0.3329  0.0186 -0.3589
   41SOL     OW  161   0.514   0.491   1.584 -0.2838  0.1574  0.5162
   41SOL    HW1  162   0.573   0.567   1.557  1.7348  2.5180 -0.7477
   41SOL    HW2  163   0.441   0.544   1.607 -1.2629  1.0255  0.7946
   41SOL     MW  164   0.512   0.508   1.584 -0.1466  0.5834  0.3862
   42SOL     OW  165   1.239   2.895   1.999  0.1261  0.5162  0.0486
   42SOL    HW1  166   1.175   2.899   2.065  1.8074 -2.1894 -2.8539
   42SOL    HW2  167   1.303   2.839   2.052  0.0187 -1.5505 -0.3282
   42SOL     MW  168   1.239   2.888   2.015  0.3337 -0.1134 -0.3841
   43SOL     OW  169   1.391   0.122   1.700 -0.3209  0.2450 -0.1019
   43SOL    HW1  170   1.457   0.071   1.650  1.6144 -0.5416  0.3849
   43SOL    HW2  171   1.314   0.085   1.659 -0.7295  0.3657  0.8865
   43SOL     MW  172   1.389   0.110   1.688 -0.1195  0.1572  0.0927
   44SOL     OW  173   1.214   0.839   0.960 -0.4558 -0.2025  0.1964
   44SOL    HW1  174   1.196   0.931   0.975  1.6381  0.1509 -2.4507
   44SOL    HW2  175   1.153   0.789   1.012 -1.4067  1.1156 -0.1844
   44SOL     MW  176   1.203   0.845   0.969 -0.3050  0.0180 -0.2031
   45SOL     OW  177   1.300   0.805   0.696  0.6910  0.1605 -0.4622
   45SOL    HW1  178   1.251   0.816   0.778 -0.7488  0.4322 -0.0322
   45SOL    HW2  179   1.229   0.747   0.649 -2.2858 -1.6240  1.4311
   45SOL     MW  180   1.284   0.799   0.701  0.1083 -0.0391 -0.1557
   46SOL     OW  181   0.421   1.128   0.673  0.0235  0.1397 -0.0641
   46SOL    HW1  182   0.468   1.154   0.596  0.3451 -0.2538  0.5918
   46SOL    HW2  183   0.401   1.206   0.731 -2.4225  1.5171 -1.4087
   46SOL     MW  184   0.424   1.142   0.671 -0.2568  0.2695 -0.1550
   47SOL     OW  185   0.094   1.968   1.961  0.4252 -0.0337 -0.0787
   47SOL    HW1  186   0.095   1.889   1.911  0.5366  1.7235 -1.5055
   47SOL    HW2  187   0.128   1.952   2.051 -0.6880 -1.6868  2.8748
   47SOL     MW  188   0.099   1.955   1.966  0.2930 -0.0200  0.1228
   48SOL     OW  189   1.256   0.494   1.031  0.6232 -0.1155  0.8136
   48SOL    HW1  190   1.196   0.444   0.975  0.4321  0.8654 -0.7977
   48SOL    HW2  191   1.191   0.555   1.064  0.7094  0.6970 -0.1953
   48SOL     MW  192   1.239   0.495   1.028  0.6094  0.1212  0.4679
   49SOL     OW  193   1.714   0.735   1.547  0.4806  0.0781  0.0128
   49SOL    HW1  194   1.765   0.677   1.608 -3.3325 -0.1825  0.8057
   49SOL    HW2  195   1.740   0.716   1.458 -0.3291  1.8113 -0.0419
   49SOL     MW  196   1.724   0.725   1.543 -0.1294  0.2724  0.1102
   50SOL     OW  197   1.320   1.198   0.646 -0.0868 -0.1310 -0.0714
   50SOL    HW1  198   1.222   1.184   0.676 -0.3469  1.2316 -1.9730
   50SOL    HW2  199   1.363   1.118   0.670  0.3437  0.1419  0.0323
   50SOL     MW  200   1.313   1.186   0.653 -0.0643  0.0848 -0.3086
   51SOL     OW  201   0.349   2.888   0.851  0.0397  0.5319 -0.1628
   51SOL    HW1  202   0.434   2.843   0.869  3.3670  0.9323 -2.8354
   51SOL    HW2  203   0.321   2.913   0.942  1.3870  3.5451 -0.2430
   51SOL     MW  204   0.356   2.885   0.865  0.6564  0.9823 -0.5260
   52SOL     OW  205   0.790   1.832   0.487  0.2973  0.2480  0.0002
   52SOL    HW1  206   0.767   1.924   0.478  2.0560  0.4036 -1.0086
   52SOL    HW2  207   0.799   1.807   0.395  2.7793  1.3668 -1.0097
   52SOL     MW  208   0.788   1.841   0.474  0.8568  0.4161 -0.2662
   53SOL     OW  209   0.491   2.162   0.584 -0.0280 -0.3738  0.0991
   53SOL    HW1  210   0.423   2.122   0.524  2.1530 -0.5840 -2.4318
   53SOL    HW2  211   0.478   2.257   0.566 -0.6948  1.6346 -0.4110
   53SOL     MW  212   0.480   2.169   0.574  0.1718 -0.1365 -0.3022
   54SOL     OW  213   2.034   0.993   0.723  0.3741  0.2515 -0.5462
   54SOL    HW1  214   2.120   0.976   0.684  0.3277  0.8451 -0.0097
   54SOL    HW2  215   1.997   0.907   0.741  2.1187 -0.0570  2.8501
   54SOL     MW  216   2.040   0.979   0.720  0.5982  0.2891 -0.0273
   55SOL     OW  217   0.424   1.527   1.733  0.2181 -0.1209  0.3339
   55SOL    HW1  218   0.373   1.555   1.653  0.4100 -0.2623 -2.1607
   55SOL    HW2  219   0.497   1.476   1.707 -1.1514  1.0048  1.4352
   55SOL     MW  220   0.427   1.524   1.719  0.0627  0.0090  0.1501
   56SOL     OW  221   0.657   0.916   0.166  0.1989 -0.1302  0.4995
   56SOL    HW1  222   0.664   1.001   0.119  1.0637  2.1752  0.4573
   56SOL    HW2  223   0.578   0.887   0.124  1.6030 -0.6517  1.3812
   56SOL     MW  224   0.648   0.923   0.154  0.4983  0.1052  0.6103
   57SOL     OW  225   1.110   1.313   1.172 -0.1611  0.3809  0.3217
   57SOL    HW1  226   1.199   1.344   1.198 -2.7855  2.9996  2.0319
   57SOL    HW2  227   1.074   1.261   1.248 -0.5316 -1.5149  0.1134
   57SOL     MW  228   1.117   1.310   1.185 -0.5563  0.4763  0.5199
   58SOL     OW  229   0.426   1.250   1.289  0.2426 -0.6070 -0.1921
   58SOL    HW1  230   0.413   1.348   1.284 -1.4264 -1.4405  2.1355
   58SOL    HW2  231   0.427   1.226   1.377  2.1909  0.0960 -0.3085
   58SOL     MW  232   0.424   1.260   1.300  0.2795 -0.6242  0.0997
   59SOL     OW  233   1.453   1.684   0.379  1.1304 -0.4018  0.1205
   59SOL    HW1  234   1.503   1.737   0.441  1.7529  3.5565  2.3400
   59SOL    HW2  235   1.370   1.674   0.431 -0.9411 -1.9172  0.9055
   59SOL     MW  236   1.448   1.690   0.394  0.9392 -0.0795  0.5169
   60SOL     OW  237   3.086   0.168   1.638 -0.2057 -0.2388 -0.2745
   60SOL    HW1  238   3.005   0.211   1.661  0.4661  1.3135 -1.1393
   60SOL    HW2  239   3.132   0.151   1.727 -1.2500  1.8486 -1.4123
   60SOL     MW  240   3.081   0.171   1.653 -0.2548  0.2414 -0.5387
   61SOL     OW  241   1.987   1.350   2.983  0.1400 -0.3888  0.7795
   61SOL    HW1  242   1.953   1.347   3.077  0.3076 -0.4847 -0.3743
   61SOL    HW2  243   2.046   1.277   2.971 -2.0668  3.2782 -0.1273
   61SOL     MW  244   1.990   1.340   2.994 -0.1291  0.0824  0.5076
   62SOL     OW  245   0.577   1.744   0.618 -0.2686  0.4948 -0.9503
   62SOL    HW1  246   0.668   1.762   0.604  0.3867 -1.0272  0.1217
   62SOL    HW2  247   0.552   1.652   0.598 -0.2285 -0.9841 -1.3332
   62SOL     MW  248   0.586   1.734   0.613 -0.1768  0.0989 -0.8593
   63SOL     OW  249   1.731   0.693   0.537 -0.4425 -1.0443 -0.5079
   63SOL    HW1  250   1.725   0.772   0.481  0.0167 -0.9514  0.0860
   63SOL    HW2  251   1.659   0.707   0.603 -2.3728  1.7505  0.9780
   63SOL     MW  252   1.720   0.705   0.538 -0.6366 -0.6633 -0.2335
   64SOL     OW  253   0.233   1.694   0.657 -0.5661  0.1424 -0.5088
   64SOL    HW1  254   0.310   1.749   0.661  0.8194  1.1457  1.0336
   64SOL    HW2  255   0.163   1.731   0.710 -2.8417  2.9593 -0.8807
   64SOL     MW  256   0.234   1.706   0.665 -0.6835  0.6464 -0.3543
   65SOL     OW  257   1.487   2.307   0.396  0.3043  0.2528 -0.1716
   65SOL    HW1  258   1.577   2.334   0.417  1.0824  1.3765  1.3491
   65SOL    HW2  259   1.432   2.345   0.470  0.5624  1.4711  0.7082
   65SOL     MW  260   1.491   2.315   0.409  0.4410  0.5618  0.1451
   66SOL     OW  261   0.390   0.533   0.535 -0.4202 -0.0221  0.0099
   66SOL    HW1  262   0.434   0.518   0.448  0.6498  1.4193  1.4383
   66SOL    HW2  263   0.371   0.624   0.527  0.9344 -1.2591 -0.8887
   66SOL     MW  264   0.393   0.543   0.523 -0.1003  0.0048  0.0798
   67SOL     OW  265   1.348   0.056   1.989 -0.7533 -0.4834  0.2987
   67SOL    HW1  266   1.355   0.096   1.898  1.1167  0.3541  0.0189
   67SOL    HW2  267   1.311  -0.029   1.968 -1.8058  2.2300 -0.3537
   67SOL     MW  268   1.344   0.050   1.974 -0.6454 -0.0149  0.1757
   68SOL     OW  269   0.768   0.098   2.884  0.3382 -0.1745 -0.1128
   68SOL    HW1  270   0.743   0.175   2.830  3.3854  2.2168 -0.6682
   68SOL    HW2  271   0.844   0.121   2.937 -1.6313 -1.1047 -1.3688
   68SOL     MW  272   0.775   0.111   2.884  0.4804  0.0183 -0.3518
   69SOL     OW  273   1.100   0.264   1.978  0.3433 -0.0659 -0.3366
   69SOL    HW1  274   1.194   0.294   2.002 -0.1054  0.0830  1.3603
   69SOL    HW2  275   1.084   0.176   2.020 -2.5365 -0.5576  2.4996
   69SOL     MW  276   1.111   0.256   1.987 -0.0958 -0.1111  0.2615
   70SOL     OW  277   0.546   1.718   1.138 -0.4164 -0.1885  0.2667
   70SOL    HW1  278   0.627   1.772   1.127  2.3170 -5.5162  0.5138
   70SOL    HW2  279   0.557   1.646   1.077  2.2179  0.5070  1.2311
   70SOL     MW  280   0.558   1.716   1.128  0.2918 -0.7997  0.4265
   71SOL     OW  281   1.567   0.577   1.235  0.2354  0.2313 -0.7450
   71SOL    HW1  282   1.508   0.626   1.304  0.0966  0.3327 -1.7537
   71SOL    HW2  283   1.539   0.631   1.157 -1.7063 -1.9565 -2.1421
   71SOL     MW  284   1.556   0.591   1.234 -0.0391 -0.0440 -1.0624
   72SOL     OW  285   0.779   1.831   1.034  0.3037  0.7871  0.1393
   72SOL    HW1  286   0.788   1.907   0.980 -0.1889 -1.7699  0.8151
   72SOL    HW2  287   0.810   1.766   0.972  0.1556 -1.7227  0.9183
   72SOL     MW  288   0.784   1.832   1.019  0.2191  0.1186  0.3312
   73SOL     OW  289   1.081   0.691   1.149 -0.1939 -0.0647 -0.4432
   73SOL    HW1  290   1.008   0.636   1.180 -0.8243 -5.2012 -2.1425
   73SOL    HW2  291   1.079   0.760   1.221 -0.4077 -1.1703 -1.9661
   73SOL     MW  292   1.071   0.693   1.163 -0.3053 -0.8883 -0.8683
   74SOL     OW  293   2.813   0.076   0.966  0.5877  0.4110  0.0785
   74SOL    HW1  294   2.907   0.071   0.951  1.0238  0.0515 -0.0294
   74SOL    HW2  295   2.779   0.165   0.945 -2.1293  1.3262  1.0853
   74SOL     MW  296   2.821   0.087   0.961  0.2867  0.4844  0.1971
   75SOL     OW  297   1.492   1.315   0.174 -0.4078 -0.0997 -0.0192
   75SOL    HW1  298   1.562   1.260   0.138  1.7230  0.8130 -0.9472
   75SOL    HW2  299   1.535   1.338   0.258 -2.3594  2.0583 -0.2972
   75SOL     MW  300   1.507   1.311   0.180 -0.3842  0.3054 -0.1783
   76SOL     OW  301   3.069   0.702   0.445 -0.3143 -0.0610 -0.7430
   76SOL    HW1  302   3.072   0.745   0.538  3.5630 -0.2148  0.1460
   76SOL    HW2  303   3.142   0.644   0.433  0.1966 -1.3549 -1.4124
   76SOL     MW  304   3.079   0.700   0.455  0.2647 -0.2520 -0.7140
   77SOL     OW  305   0.887   0.622   0.457  0.6342 -0.4928  0.4106
   77SOL    HW1  306   0.870   0.654   0.364 -2.2738  0.0545  0.0750
   77SOL    HW2  307   0.864   0.529   0.452  0.1547  1.9411 -2.0435
   77SOL     MW  308   0.882   0.614   0.444  0.1872 -0.0995  0.0425
   78SOL     OW  309   0.828   0.879   1.080  0.0610  0.0299 -0.0681
   78SOL    HW1  310   0.825   0.972   1.048 -3.1474 -0.6647  2.7671
   78SOL    HW2  311   0.736   0.862   1.109  1.6044  0.8588  1.4262
   78SOL     MW  312   0.815   0.889   1.080 -0.1587  0.0476  0.5031
   79SOL     OW  313   1.873   1.509   0.531 -0.0042 -0.2183  0.0017
   79SOL    HW1  314   1.777   1.503   0.535  0.4863  2.0603 -0.5633
   79SOL    HW2  315   1.906   1.463   0.605  1.6064  0.3762  0.3558
   79SOL     MW  316   1.865   1.502   0.541  0.2730  0.1608 -0.0261
   80SOL     OW  317   0.220   0.999   0.284  0.4464  0.0115  0.1111
   80SOL    HW1  318   0.169   0.937   0.226 -0.9598 -0.0334 -0.4462
   80SOL    HW2  319   0.253   0.940   0.352  0.1901 -0.4354 -0.0622
   80SOL     MW  320   0.217   0.983   0.286  0.2271 -0.0534  0.0147
   81SOL     OW  321   1.829   1.832   0.370 -0.1962 -0.5634 -0.6567
   81SOL    HW1  322   1.798   1.749   0.336 -3.5976 -3.0629  0.0382
   81SOL    HW2  323   1.800   1.895   0.306 -2.9033 -0.1648 -1.4232
   81SOL     MW  324   1.821   1.830   0.357 -1.0022 -0.8406 -0.6661
   82SOL     OW  325   0.974   1.016   0.569  0.1381 -0.2322  0.0122
   82SOL    HW1  326   0.910   1.056   0.509 -0.0703  1.4786 -1.6123
   82SOL    HW2  327   0.922   0.941   0.595  0.3422  1.4628  2.1066
   82SOL     MW  328   0.959   1.012   0.565  0.1375  0.2171  0.0742
   83SOL     OW  329   3.083   0.737   1.560 -0.1336  0.1696 -0.5702
   83SOL    HW1  330   3.099   0.803   1.485 -1.1134  0.3952 -1.3871
   83SOL    HW2  331   3.161   0.680   1.543  2.5714 -1.8703 -0.0270
   83SOL     MW  332   3.095   0.738   1.548  0.0940 -0.0698 -0.6063
   84SOL     OW  333   3.085   0.173   0.903 -0.5134 -0.4428 -0.0114
   84SOL    HW1  334   3.077   0.267   0.941  0.6689  0.1637  0.0018
   84SOL    HW2  335   3.093   0.118   0.978 -1.3276  3.7539 -0.5142
   84SOL     MW  336   3.085   0.178   0.918 -0.4648  0.1909 -0.0760
   85SOL     OW  337   0.356   0.483   0.808  0.0122 -0.5518 -0.3911
   85SOL    HW1  338   0.368   0.506   0.712 -0.2752  2.2831  0.3543
   85SOL    HW2  339   0.298   0.403   0.811 -0.8579  1.0188 -0.7033
   85SOL     MW  340   0.350   0.476   0.795 -0.1405  0.0295 -0.3340
   86SOL     OW  341   1.292   0.275   1.207 -0.4723 -0.4328  0.3718
   86SOL    HW1  342   1.267   0.337   1.142  1.9859  1.1128  0.9650
   86SOL    HW2  343   1.382   0.301   1.228 -1.1943  1.3461  0.2861
   86SOL     MW  344   1.301   0.287   1.201 -0.2432  0.0058  0.4388
   87SOL     OW  345   1.029   1.580   1.174 -0.2210  0.0507  0.0940
   87SOL    HW1  346   1.078   1.656   1.138 -1.9883  2.6104  1.6173
   87SOL    HW2  347   1.076   1.497   1.156  1.5907 -2.5887  0.6438
   87SOL     MW  348   1.042   1.579   1.167 -0.2151  0.0402  0.3676
   88SOL     OW  349   1.148   1.116   0.976  0.2169  0.1667  0.6564
   88SOL    HW1  350   1.242   1.101   0.986 -0.9117  0.8734  2.4923
   88SOL    HW2  351   1.128   1.176   1.047  0.0517  1.6236  1.3233
   88SOL     MW  352   1.157   1.122   0.987  0.0462  0.4521  0.9866
   89SOL     OW  353   1.796   0.710   0.234  0.0728  0.6224 -0.3821
   89SOL    HW1  354   1.750   0.639   0.277 -1.3019 -1.7012 -0.0978
   89SOL    HW2  355   1.879   0.720   0.280 -0.1250  2.1095  0.9147
   89SOL     MW  356   1.801   0.702   0.246 -0.1347  0.5120 -0.1735
   90SOL     OW  357   0.766   1.200   2.807 -0.5086 -0.3166 -0.8884
   90SOL    HW1  358   0.795   1.114   2.842 -0.9171  0.8812 -1.3328
   90SOL    HW2  359   0.781   1.267   2.872  0.1001 -3.1290 -1.0113
   90SOL     MW  360   0.772   1.197   2.820 -0.4822 -0.5296 -0.9632
   91SOL     OW  361   2.254   0.597   0.522  0.1207 -0.7045  0.2555
   91SOL    HW1  362   2.303   0.656   0.460  1.9401 -0.5472  1.6721
   91SOL    HW2  363   2.267   0.505   0.481 -1.7897  0.0244 -0.2388
   91SOL     MW  364   2.262   0.593   0.508  0.1087 -0.5876  0.3772
   92SOL     OW  365   1.644   0.949   0.479  0.0157  0.3707 -0.3826
   92SOL    HW1  366   1.596   0.945   0.561  2.2437 -3.1611  0.9342
   92SOL    HW2  367   1.614   1.029   0.431  3.7020  0.6856  1.9257
   92SOL     MW  368   1.634   0.959   0.484  0.7960 -0.0537  0.0957
   93SOL     OW  369   1.087   0.259   0.409  0.2857 -0.4252 -0.0642
   93SOL    HW1  370   0.994   0.282   0.403  0.7861 -4.0774  1.7632
   93SOL    HW2  371   1.117   0.280   0.318 -1.2453  0.4865 -0.7095
   93SOL     MW  372   1.079   0.265   0.396  0.1497 -0.7868  0.0917
   94SOL     OW  373   1.909   1.391   1.572  0.4686  0.3738 -0.1336
   94SOL    HW1  374   1.890   1.378   1.480  0.4100 -1.3408 -0.5572
   94SOL    HW2  375   1.916   1.298   1.603  0.0650  0.2458 -2.5167
   94SOL     MW  376   1.907   1.377   1.564  0.4076  0.1307 -0.5039
   95SOL     OW  377   0.587   1.536   0.925  0.4056 -0.2509  0.1510
   95SOL    HW1  378   0.659   1.473   0.948 -1.1714  1.2509  2.1552
   95SOL    HW2  379   0.527   1.483   0.875 -0.8396 -3.4014 -0.2604
   95SOL     MW  380   0.589   1.520   0.922  0.0332 -0.4684  0.3611
   96SOL     OW  381   1.351   1.837   1.708  0.0539  0.1700  0.4217
   96SOL    HW1  382   1.260   1.853   1.743 -0.7036 -1.5210  0.8116
   96SOL    HW2  383   1.353   1.761   1.654  2.0140  0.3415  0.3459
   96SOL     MW  384   1.340   1.829   1.706  0.2126 -0.0305  0.4631
   97SOL     OW  385   1.093   1.577   0.837 -0.2295 -0.5714 -0.4334
   97SOL    HW1  386   1.118   1.641   0.906 -1.3618  1.6684 -0.9532
   97SOL    HW2  387   0.995   1.591   0.825 -1.0865 -1.8972  1.6907
   97SOL     MW  388   1.084   1.587   0.844 -0.4920 -0.4508 -0.2218
   98SOL     OW  389   1.355   1.397   1.227  0.3717 -0.0861 -0.2965
   98SOL    HW1  390   1.419   1.420   1.294  2.5422  1.3667  0.9688
   98SOL    HW2  391   1.400   1.380   1.141  0.6673 -0.8825  0.6703
   98SOL     MW  392   1.369   1.397   1.224  0.6971  0.0005 -0.0020
   99SOL     OW  393   1.550   0.327   1.302  0.5908  0.3524 -0.2780
   99SOL    HW1  394   1.560   0.418   1.268 -0.8338  0.7964 -0.2113
   99SOL    HW2  395   1.508   0.340   1.393 -0.6080 -0.6018  1.2694
   99SOL     MW  396   1.546   0.341   1.309  0.2447  0.2851 -0.0650
  100SOL     OW  397   1.079   1.160   1.392  0.3129 -0.3532  0.0657
  100SOL    HW1  398   1.143   1.197   1.448  1.3611 -0.1778 -1.8061
  100SOL    HW2  399   1.099   1.068   1.388  0.5067  1.1244  0.0087
  100SOL     MW  400   1.090   1.152   1.399  0.4768 -0.1351 -0.1888
  101SOL     OW  401   0.552   1.222   0.440 -0.3352  0.2480  0.5595
  101SOL    HW1  402   0.498   1.169   0.373 -2.5198 -2.5094  0.8711
  101SOL    HW2  403   0.640   1.199   0.406  1.5237 -0.4308 -0.4883
  101SOL     MW  404   0.557   1.212   0.427 -0.3781 -0.2054  0.4623
  102SOL     OW  405   2.901   0.605   1.084 -0.7517  0.0996 -0.3948
  102SOL    HW1  406   2.915   0.698   1.091 -0.4538 -0.6062  1.1829
  102SOL    HW2  407   2.890   0.591   1.171 -0.2708 -0.2140 -1.6877
  102SOL     MW  408   2.902   0.615   1.096 -0.6490 -0.0349 -0.3572
  103SOL     OW  409   1.857   0.282   1.761  0.2503  0.2100  0.0046
  103SOL    HW1  410   1.833   0.192   1.731  1.3658 -0.9385 -0.7982
  103SOL    HW2  411   1.836   0.282   1.856  1.6715 -0.9552 -1.5991
  103SOL     MW  412   1.851   0.270   1.769  0.5850 -0.0953 -0.3129
  104SOL     OW  413   0.058   1.520   1.677  0.3371  0.0171 -0.1961
  104SOL    HW1  414   0.109   1.456   1.736 -0.9019  0.3028 -2.3721
  104SOL    HW2  415  -0.037   1.488   1.679 -1.1988  3.0161 -0.1244
  104SOL     MW  416   0.052   1.507   1.685 -0.0290  0.4505 -0.4738
  105SOL     OW  417   0.085   1.201   0.432  0.5119 -0.1040  0.2127
  105SOL    HW1  418   0.132   1.119   0.415 -1.9417 -1.3999 -1.0098
  105SOL    HW2  419   0.135   1.278   0.415 -0.5881 -1.1100  1.0319
  105SOL     MW  420   0.098   1.200   0.428  0.0430 -0.4077  0.1595
  106SOL     OW  421   0.806   0.249   0.832  0.0725 -0.2024  0.4437
  106SOL    HW1  422   0.753   0.332   0.813 -0.8278  0.6393 -0.1698
  106SOL    HW2  423   0.861   0.267   0.905  1.6262  2.9065 -1.8465
  106SOL     MW  424   0.806   0.263   0.839  0.1587  0.3189  0.0606
  107SOL     OW  425   0.793   2.211   2.881  0.6398 -0.5002  0.0374
  107SOL    HW1  426   0.701   2.221   2.884 -0.3229 -0.2163  0.2616
  107SOL    HW2  427   0.808   2.145   2.949  1.3885 -2.1308 -3.1816
  107SOL     MW  428   0.783   2.203   2.890  0.6115 -0.6779 -0.3577
  108SOL     OW  429   1.305   1.559   1.642 -0.1890 -0.6096 -0.4248
  108SOL    HW1  430   1.249   1.547   1.558 -3.2518  0.7279 -0.4161
  108SOL    HW2  431   1.387   1.513   1.645  3.0392 -1.7813 -0.4097
  108SOL     MW  432   1.308   1.551   1.631 -0.1672 -0.5877 -0.4217
  109SOL     OW  433   2.035   0.774   0.340  0.1556 -0.0120  0.4432
  109SOL    HW1  434   2.011   0.863   0.315  1.4842 -2.7732 -0.5070
  109SOL    HW2  435   2.067   0.784   0.428 -0.3733 -0.6570 -0.5924
  109SOL     MW  436   2.036   0.787   0.348  0.2611 -0.4614  0.1812
  110SOL     OW  437   0.406   1.905   0.787 -0.3267 -0.1669  0.7895
  110SOL    HW1  438   0.480   1.848   0.761 -0.1169 -2.2827 -0.8568
  110SOL    HW2  439   0.416   1.979   0.730  1.1311 -1.1329 -3.1580
  110SOL     MW  440   0.417   1.907   0.776 -0.1067 -0.5735  0.0514
  111SOL     OW  441   0.837   0.882   1.364  0.2058 -0.5306 -0.0617
  111SOL    HW1  442   0.829   0.878   1.268 -0.6552  2.7511 -1.0551
  111SOL    HW2  443   0.782   0.820   1.408  2.0972  0.5070  0.1356
  111SOL     MW  444   0.829   0.873   1.357  0.3418  0.0393 -0.1667
  112SOL     OW  445   1.353   1.150   1.635 -0.7677  0.0194  1.0618
  112SOL    HW1  446   1.269   1.195   1.653  0.1336  0.7560  0.0959
  112SOL    HW2  447   1.347   1.055   1.630 -1.0073  0.8333  1.4359
  112SOL     MW  448   1.341   1.143   1.636 -0.6804  0.2240  0.9837
  113SOL     OW  449   1.224   2.983   1.720  0.2563 -0.3762  0.5189
  113SOL    HW1  450   1.207   2.919   1.789 -3.3902  0.0171 -0.6414
  113SOL    HW2  451   1.183   2.949   1.642 -1.0881  1.9071  1.1649
  113SOL     MW  452   1.217   2.970   1.719 -0.4022 -0.0230  0.4510
  114SOL     OW  453   0.371   2.897   1.784 -0.1050  0.2488  0.4045
  114SOL    HW1  454   0.460   2.922   1.778 -0.0563  0.5238 -0.4702
  114SOL    HW2  455   0.329   2.954   1.844 -3.6952 -0.4929 -0.3608
  114SOL     MW  456   0.377   2.908   1.791 -0.5722  0.1872  0.1882
  115SOL     OW  457   0.560   0.873   1.179  0.2807  0.6155  0.0731
  115SOL    HW1  458   0.551   0.778   1.165  0.5750  2.5436 -0.9141
  115SOL    HW2  459   0.479   0.897   1.214 -0.9688  1.4495 -2.9222
  115SOL     MW  460   0.549   0.864   1.182  0.1547  0.9800 -0.4523
  116SOL     OW  461   0.683   1.114   1.000 -0.1396 -0.0872  0.2749
  116SOL    HW1  462   0.707   1.161   0.917  2.9715 -0.5254  2.1980
  116SOL    HW2  463   0.691   1.167   1.081  0.4497 -0.1122 -1.1049
  116SOL     MW  464   0.687   1.127   1.000  0.3486 -0.1483  0.3466
  117SOL     OW  465   1.108   1.300   0.793 -0.0712  0.1084 -0.4808
  117SOL    HW1  466   1.117   1.254   0.873 -2.3942  1.1130  0.0247
  117SOL    HW2  467   1.123   1.394   0.823  0.8582  0.9045 -1.0489
  117SOL     MW  468   1.111   1.306   0.808 -0.2551  0.3460 -0.4891
  118SOL     OW  469   3.064   2.956   1.805  0.5044  0.7298  0.4077
  118SOL    HW1  470   3.105   3.042   1.814  1.6388 -1.4410 -0.1827
  118SOL    HW2  471   2.967   2.959   1.782  1.2939 -0.6252  0.9543
  118SOL     MW  472   3.057   2.967   1.803  0.7582  0.2646  0.4020
  119SOL     OW  473   0.366   1.537   1.278  0.7691 -0.2535  0.1731
  119SOL    HW1  474   0.401   1.591   1.210  0.7107 -2.7706 -1.2884
  119SOL    HW2  475   0.270   1.538   1.259  0.2152 -0.5439 -0.2433
  119SOL     MW  476   0.358   1.545   1.267  0.6883 -0.6239 -0.0747
  120SOL     OW  477   0.297   0.898   0.981  0.1067 -0.1280 -0.1697
  120SOL    HW1  478   0.289   0.991   1.007 -0.0794  0.6307 -1.7604
  120SOL    HW2  479   0.390   0.901   0.957 -0.3038 -0.9042 -0.3806
  120SOL     MW  480   0.308   0.911   0.981  0.0280 -0.1303 -0.4074
  121SOL     OW  481   1.751   1.113   1.591  0.0558 -0.1116  0.3994
  121SOL    HW1  482   1.671   1.146   1.544 -1.1551 -2.3395 -0.0141
  121SOL    HW2  483   1.777   1.037   1.542 -0.6885 -1.6134 -1.6996
  121SOL     MW  484   1.744   1.107   1.578 -0.2022 -0.6037  0.0679
  122SOL     OW  485   0.163   0.663   0.879  0.0921  0.6774 -0.0438
  122SOL    HW1  486   0.243   0.604   0.866  0.4963 -0.9469  2.1250
  122SOL    HW2  487   0.203   0.741   0.925 -0.6073  0.1268 -4.9796
  122SOL     MW  488   0.179   0.666   0.883  0.0531  0.3905 -0.4089
  123SOL     OW  489   1.867   1.113   0.534 -0.5915  0.2049  0.1681
  123SOL    HW1  490   1.803   1.041   0.547  0.4300  1.0610 -0.0506
  123SOL    HW2  491   1.943   1.079   0.582 -0.5452 -1.2055 -0.1674
  123SOL     MW  492   1.868   1.099   0.542 -0.4506  0.1318  0.0950
  124SOL     OW  493   0.615   0.457   0.864  1.3175 -0.3235 -0.8977
  124SOL    HW1  494   0.515   0.452   0.850 -1.0162  1.8920 -1.7666
  124SOL    HW2  495   0.648   0.546   0.851  1.9068 -1.6483  0.2250
  124SOL     MW  496   0.606   0.468   0.860  1.0873 -0.2060 -0.8642
  125SOL     OW  497   0.684   1.705   1.729  0.0085  0.3599 -0.3552
  125SOL    HW1  498   0.679   1.695   1.638  1.1728  0.4261 -0.7509
  125SOL    HW2  499   0.609   1.763   1.751 -1.4298  2.4600  1.0187
  125SOL     MW  500   0.674   1.711   1.720 -0.0276  0.6457 -0.2261
  126SOL     OW  501   2.118   1.544   1.898 -0.0127  0.2512 -0.6100
  126SOL    HW1  502   2.162   1.628   1.905  1.1594  1.2383  1.7281
  126SOL    HW2  503   2.187   1.481   1.919  1.9136  1.8718 -1.0036
  126SOL     MW  504   2.133   1.547   1.902  0.3961  0.5953 -0.3535
  127SOL     OW  505   0.492   0.788   1.837  0.0101 -0.0537  0.3425
  127SOL    HW1  506   0.582   0.756   1.846  3.3424 -2.5374 -0.7789
  127SOL    HW2  507   0.487   0.852   1.908  1.8618  1.7362  1.6137
  127SOL     MW  508   0.503   0.792   1.848  0.6941 -0.1452  0.3623
  128SOL     OW  509   1.753   0.736   2.873  0.2168  0.5582 -0.5656
  128SOL    HW1  510   1.797   0.700   2.793  1.0431  0.7419  1.9307
  128SOL    HW2  511   1.761   0.832   2.868  0.0316  2.4388  1.2540
  128SOL     MW  512   1.760   0.744   2.862  0.3014  0.8305  0.0038
  129SOL     OW  513   1.579   0.911   0.164  0.4685  0.8098 -0.3008
  129SOL    HW1  514   1.529   0.833   0.134  1.9044 -0.0585 -0.0629
  129SOL    HW2  515   1.643   0.871   0.226  0.5233  0.9260  1.1178
  129SOL     MW  516   1.581   0.895   0.168  0.6652  0.7106 -0.0823
  130SOL     OW  517   0.858   1.438   0.331  0.8323  0.0359 -0.0404
  130SOL    HW1  518   0.845   1.482   0.412  2.4093  2.1651 -3.6400
  130SOL    HW2  519   0.947   1.449   0.307 -0.7090  0.8513  2.1736
  130SOL     MW  520   0.868   1.446   0.339  0.8370  0.4244 -0.2232
  131SOL     OW  521   0.065   0.797   0.095 -0.2010  0.7457 -0.7763
  131SOL    HW1  522   0.045   0.807   0.004  1.4754  0.3424  1.5448
  131SOL    HW2  523   0.109   0.708   0.099  1.8304 -0.9854 -0.4116
  131SOL     MW  524   0.068   0.786   0.084  0.2882  0.4641 -0.4219
  132SOL     OW  525   2.726   0.084   1.249  0.2109 -0.0722 -0.4711
  132SOL    HW1  526   2.758   0.094   1.161  1.1177  0.7652 -1.3160
  132SOL    HW2  527   2.635   0.051   1.231  0.8636 -0.0383  1.2298
  132SOL     MW  528   2.718   0.081   1.235  0.4167  0.0427 -0.3582
  133SOL     OW  529   1.061   0.107   1.745  0.2097  0.2013  0.0313
  133SOL    HW1  530   1.099   0.022   1.765 -0.4345  1.2482  0.3693
  133SOL    HW2  531   1.061   0.155   1.831  2.0745  0.7615 -1.3087
  133SOL     MW  532   1.066   0.102   1.759  0.3707  0.4133 -0.1009
  134SOL     OW  533   1.408   2.505   1.446 -0.0125  0.1452  0.0450
  134SOL    HW1  534   1.382   2.595   1.421  2.0350 -0.7897 -0.8588
  134SOL    HW2  535   1.442   2.516   1.538 -1.5492  0.4972  4.4611
  134SOL     MW  536   1.409   2.518   1.455  0.0549  0.0683  0.5084
  135SOL     OW  537   3.020   1.014   2.949  0.1542  0.1981 -0.4015
  135SOL    HW1  538   3.098   1.064   2.964 -1.2282 -0.3895 -0.9231
  135SOL    HW2  539   2.951   1.064   2.894 -1.1873  1.6074 -1.2987
  135SOL     MW  540   3.021   1.027   2.943 -0.2052  0.3065 -0.5887
  136SOL     OW  541   0.153   1.996   0.866 -0.0254  0.1553 -0.0007
  136SOL    HW1  542   0.087   1.927   0.835  1.2475 -1.4202 -2.1969
  136SOL    HW2  543   0.235   1.972   0.819 -2.1919  0.6682 -2.2219
  136SOL     MW  544   0.155   1.984   0.856 -0.1433  0.0151 -0.5836
  137SOL     OW  545   0.742   2.087   0.591 -0.1333 -0.3809  0.2011
  137SOL    HW1  546   0.752   2.073   0.689  1.0232  2.6889  0.4624
  137SOL    HW2  547   0.647   2.109   0.584  1.0474  0.2713  0.4861
  137SOL     MW  548   0.731   2.088   0.603  0.1750  0.1101  0.2732
  138SOL     OW  549   0.498   0.598   1.083  0.4380 -0.0260 -0.6270
  138SOL    HW1  550   0.415   0.567   1.103  1.1961  0.2264 -0.6831
  138SOL    HW2  551   0.531   0.539   1.020  0.3307  2.5068  0.8881
  138SOL     MW  552   0.491   0.586   1.077  0.5239  0.3415 -0.4345
  139SOL     OW  553   2.856   0.497   1.356 -0.1287 -0.3776 -0.4964
  139SOL    HW1  554   2.952   0.472   1.346  2.0897 -1.1216  0.0799
  139SOL    HW2  555   2.850   0.552   1.436  0.5876 -0.7517 -0.0542
  139SOL     MW  556   2.868   0.501   1.365  0.2585 -0.5251 -0.3620
  140SOL     OW  557   0.899   0.496   1.970  0.4358  0.3901 -0.8988
  140SOL    HW1  558   0.956   0.419   1.967  1.7085  2.0685  1.3422
  140SOL    HW2  559   0.858   0.484   2.055 -1.4674 -1.4745  0.4828
  140SOL     MW  560   0.901   0.484   1.981  0.3526  0.3655 -0.4208
  141SOL     OW  561   1.115   0.646   1.700  0.0379  0.4500  0.6880
  141SOL    HW1  562   1.106   0.571   1.637  1.2132  0.0590  0.5504
  141SOL    HW2  563   1.117   0.619   1.787  0.0741  0.4002 -0.7143
  141SOL     MW  564   1.114   0.632   1.703  0.1977  0.3918  0.4848
  142SOL     OW  565   0.853   1.183   0.756 -0.5221 -0.8712  0.2923
  142SOL    HW1  566   0.883   1.114   0.690 -1.0398  0.7043 -0.1907
  142SOL    HW2  567   0.931   1.239   0.777  0.1821  3.5401  0.3126
  142SOL     MW  568   0.867   1.181   0.750 -0.4975 -0.0813  0.2312
  143SOL     OW  569   1.837   0.726   1.060  0.1179  0.1368  0.0711
  143SOL    HW1  570   1.894   0.674   0.996  0.4596 -2.4728  0.5855
  143SOL    HW2  571   1.750   0.704   1.030 -1.3246 -1.2887  0.1225
  143SOL     MW  572   1.833   0.716   1.047 -0.0273 -0.3956  0.1457
  144SOL     OW  573   0.244   1.323   1.759  0.3457 -0.0226  0.3899
  144SOL    HW1  574   0.322   1.384   1.757 -1.6796 -0.8044 -2.3417
  144SOL    HW2  575   0.282   1.262   1.822 -0.3997 -0.7536  1.1525
  144SOL     MW  576   0.259   1.323   1.767 -0.0199 -0.2222  0.1301
  145SOL     OW  577   0.230   0.492   1.182 -0.0235 -0.1091 -0.1530
  145SOL    HW1  578   0.255   0.400   1.200 -3.1423  1.6565 -0.6024
  145SOL    HW2  579   0.154   0.496   1.121 -2.4128  1.4472 -0.9731
  145SOL     MW  580   0.223   0.480   1.176 -0.7502  0.3292 -0.3205
  146SOL     OW  581   0.798   1.961   1.536  0.0315  0.0565  0.4740
  146SOL    HW1  582   0.828   1.983   1.451  1.7748 -0.3631 -0.2638
  146SOL    HW2  583   0.724   1.898   1.511 -0.5819 -1.2313 -0.6137
  146SOL     MW  584   0.792   1.956   1.522  0.1805 -0.1688  0.2332
  147SOL     OW  585   0.435   0.526   3.001 -0.1870  0.1675  0.4392
  147SOL    HW1  586   0.371   0.541   3.070 -1.9980  1.2949 -1.8154
  147SOL    HW2  587   0.412   0.591   2.931 -0.0326  1.6299  0.9454
  147SOL     MW  588   0.423   0.537   3.001 -0.4056  0.5092  0.2085
  148SOL     OW  589   0.017   0.892   1.319 -0.4307 -0.5697 -0.4828
  148SOL    HW1  590   0.113   0.894   1.309 -0.1641 -1.0715  0.3645
  148SOL    HW2  591  -0.014   0.979   1.297 -1.0240  0.1735 -2.3918
  148SOL     MW  592   0.026   0.904   1.315 -0.4738 -0.5378 -0.6229
  149SOL     OW  593   1.544   1.200   1.444 -0.1172  0.5882 -0.3430
  149SOL    HW1  594   1.458   1.204   1.499 -3.3782  0.2385  1.9832
  149SOL    HW2  595   1.551   1.285   1.402 -1.6219  0.5814 -0.5554
  149SOL     MW  596   1.534   1.212   1.446 -0.7460  0.5412 -0.0641
  150SOL     OW  597   1.717   1.455   0.874 -0.2181  0.2023  0.3451
  150SOL    HW1  598   1.764   1.375   0.897 -3.1113 -2.7256  1.3476
  150SOL    HW2  599   1.773   1.528   0.856 -0.3787  1.2718  0.3453
  150SOL     MW  600   1.731   1.454   0.875 -0.6210 -0.0429  0.4774
  151SOL     OW  601   1.600   1.877   0.831 -0.4254 -0.8658 -0.3712
  151SOL    HW1  602   1.582   1.851   0.737 -1.5452  1.4087 -0.6699
  151SOL    HW2  603   1.551   1.822   0.897 -0.2003  0.1044  1.2680
  151SOL     MW  604   1.591   1.866   0.827 -0.5435 -0.4377 -0.1943
  152SOL     OW  605   0.654   1.413   1.594  0.3542  0.2974 -0.1307
  152SOL    HW1  606   0.723   1.453   1.541 -1.7366 -1.0052  3.2043
  152SOL    HW2  607   0.607   1.345   1.539 -3.2485 -1.0771  1.5290
  152SOL     MW  608   0.657   1.409   1.580 -0.3970 -0.0558  0.5283
  153SOL     OW  609   2.605   1.224   0.722  0.3252 -0.3030  0.1099
  153SOL    HW1  610   2.689   1.177   0.723  0.0818 -0.3572  1.2718
  153SOL    HW2  611   2.551   1.147   0.730 -2.2366 -2.6066 -0.5424
  153SOL     MW  612   2.609   1.208   0.723 -0.0449 -0.6141  0.1771
  154SOL     OW  613   0.128   1.782   1.754 -0.1214  0.2248  0.0355
  154SOL    HW1  614   0.092   1.682   1.754  0.9104 -1.9053  0.6358
  154SOL    HW2  615   0.224   1.765   1.783  0.5844  0.3013 -1.6117
  154SOL     MW  616   0.136   1.767   1.758  0.1079 -0.0462 -0.1026
  155SOL     OW  617   1.175   0.685   0.294 -0.9386 -0.1765  0.2614
  155SOL    HW1  618   1.183   0.658   0.386  0.4164  0.7361 -5.0078
  155SOL    HW2  619   1.173   0.784   0.303 -0.3904  2.7217  0.3344
  155SOL     MW  620   1.176   0.695   0.307 -0.6875  0.3263 -0.4242
  156SOL     OW  621   1.560   0.011   1.101  0.2408 -0.0926  0.0125
  156SOL    HW1  622   1.605   0.067   1.167  0.0857  2.8497  3.2379
  156SOL    HW2  623   1.605  -0.077   1.116 -0.4699  0.7507  1.3381
  156SOL     MW  624   1.572   0.007   1.112  0.1265  0.4069  0.6130
  157SOL     OW  625   1.267   1.144   0.174 -0.6943  0.2809 -0.5311
  157SOL    HW1  626   1.284   1.049   0.194 -2.5584 -2.3632 -1.7098
  157SOL    HW2  627   1.343   1.199   0.190  0.9038  0.9618  0.5809
  157SOL     MW  628   1.279   1.139   0.179 -0.7294  0.0219 -0.5399
  158SOL     OW  629   0.374   1.651   2.294 -0.4169 -0.0779  0.8210
  158SOL    HW1  630   0.403   1.735   2.253 -2.9898  0.8566 -2.7199
  158SOL    HW2  631   0.283   1.657   2.316 -0.5626  0.2864  1.9885
  158SOL     MW  632   0.366   1.663   2.292 -0.7756  0.0935  0.5079
  159SOL     OW  633   1.207   1.717   0.507  0.1367  0.2851 -0.2739
  159SOL    HW1  634   1.146   1.674   0.448 -0.1497  2.3073 -1.4553
  159SOL    HW2  635   1.156   1.769   0.566  0.3990 -1.0721 -2.0152
  159SOL     MW  636   1.192   1.718   0.507  0.1335  0.3728 -0.6595
  160SOL     OW  637   0.491   1.147   1.538 -0.0592  0.2640 -0.2624
  160SOL    HW1  638   0.453   1.057   1.538 -4.5536 -1.8006  1.4670
  160SOL    HW2  639   0.586   1.126   1.535  2.3489  0.9643  0.9801
  160SOL     MW  640   0.499   1.133   1.537 -0.3345  0.0840  0.1297
  161SOL     OW  641   0.483   2.300   2.675  0.4159  0.2547 -0.2937
  161SOL    HW1  642   0.390   2.296   2.663 -2.3050  2.0811 -0.9429
  161SOL    HW2  643   0.519   2.215   2.653 -0.2352  1.5073 -0.6773
  161SOL     MW  644   0.475   2.288   2.671 -0.0290  0.6610 -0.4300
  162SOL     OW  645   1.087   1.799   1.814  0.5889  0.3167  0.4229
  162SOL    HW1  646   1.083   1.887   1.861 -0.9712  1.2600  0.9978
  162SOL    HW2  647   1.006   1.744   1.831 -0.9795 -3.5570 -0.4691
  162SOL     MW  648   1.076   1.804   1.822  0.1761 -0.0699  0.3811
  163SOL     OW  649   2.135   3.046   0.807  0.1649 -0.2303 -0.1821
  163SOL    HW1  650   2.106   3.116   0.747 -2.0659  0.4785  0.7134
  163SOL    HW2  651   2.066   2.978   0.800 -0.8390 -3.3202  2.2790
  163SOL     MW  652   2.122   3.046   0.798 -0.2619 -0.5445  0.2608
  164SOL     OW  653   0.237   0.252   0.816 -0.5421 -0.0444 -0.7577
  164SOL    HW1  654   0.145   0.215   0.846 -0.1239 -0.2756  1.1628
  164SOL    HW2  655   0.270   0.177   0.768 -1.5858 -1.1962 -0.1700
  164SOL     MW  656   0.229   0.237   0.814 -0.6246 -0.2269 -0.4268
  165SOL     OW  657   1.160   1.285   0.374 -0.1984  0.0957  0.0920
  165SOL    HW1  658   1.215   1.257   0.442 -3.8205  0.4360 -1.7632
  165SOL    HW2  659   1.169   1.216   0.302  1.6976 -1.0274 -2.7459
  165SOL     MW  660   1.168   1.272   0.373 -0.4262 -0.0076 -0.5272
  166SOL     OW  661   0.360   1.139   1.048 -0.4943  0.3757  0.6450
  166SOL    HW1  662   0.363   1.192   1.128 -1.6050  2.9621  1.1724
  166SOL    HW2  663   0.439   1.092   1.057 -1.2264  1.6972 -1.5872
  166SOL     MW  664   0.371   1.140   1.059 -0.7374  0.8913  0.4201
  167SOL     OW  665   0.811   1.184   0.379 -0.8343 -0.3418  0.3908
  167SOL    HW1  666   0.837   1.283   0.375  2.0259  0.7293  1.6188
  167SOL    HW2  667   0.825   1.139   0.295 -0.6556 -0.0316  1.3654
  167SOL     MW  668   0.817   1.191   0.368 -0.4334 -0.1595  0.6814
  168SOL     OW  669   1.706   1.622   3.032 -0.7159 -0.0467  0.3069
  168SOL    HW1  670   1.644   1.699   3.030  0.5974  2.6198  1.7754
  168SOL    HW2  671   1.664   1.546   2.988 -2.3758 -0.0818  1.3108
  168SOL     MW  672   1.692   1.622   3.026 -0.7616  0.3005  0.6331
  169SOL     OW  673   0.299   0.942   1.339  0.1583 -0.4913  0.2256
  169SOL    HW1  674   0.326   0.926   1.424  0.9243 -1.0590  0.4520
  169SOL    HW2  675   0.311   1.032   1.327 -1.1719 -1.9686  2.3617
  169SOL     MW  676   0.304   0.952   1.348  0.0838 -0.7611  0.5373
  170SOL     OW  677   1.107   1.550   1.459 -0.2782  0.5387  0.3313
  170SOL    HW1  678   1.071   1.632   1.488  0.7510  3.2835 -3.5889
  170SOL    HW2  679   1.071   1.549   1.373 -0.7354  0.6546  0.6592
  170SOL     MW  680   1.098   1.561   1.451 -0.2028  0.9162 -0.1427
  171SOL     OW  681   0.479   1.501   0.529  0.1637  0.6243 -0.4946
  171SOL    HW1  682   0.395   1.524   0.504  2.1133 -1.1085  1.5239
  171SOL    HW2  683   0.474   1.426   0.469 -0.0944  1.8462  0.5549
  171SOL     MW  684   0.467   1.494   0.518  0.3868  0.5569 -0.0898
  172SOL     OW  685   0.757   0.294   1.274  0.2463 -0.0257 -0.0367
  172SOL    HW1  686   0.734   0.254   1.187  0.2050 -0.0268 -3.7934
  172SOL    HW2  687   0.814   0.232   1.328  0.6036 -2.8411 -2.0096
  172SOL     MW  688   0.761   0.280   1.270  0.2880 -0.3973 -0.7927
  173SOL     OW  689   0.499   1.773   0.320  0.0294  0.1918 -0.5315
  173SOL    HW1  690   0.516   1.674   0.310 -1.5776 -3.2096 -0.6097
  173SOL    HW2  691   0.526   1.783   0.410  1.3132 -0.2678 -0.6295
  173SOL     MW  692   0.505   1.761   0.330 -0.0132 -0.3176 -0.5547
  174SOL     OW  693   1.914   0.889   1.513 -0.3851 -0.3280  0.0875
  174SOL    HW1  694   1.844   0.828   1.543  0.8354 -1.1979  1.8450
  174SOL    HW2  695   1.926   0.869   1.424  0.5743 -1.9140 -0.5306
  174SOL     MW  696   1.906   0.879   1.505 -0.0975 -0.6520  0.2379
  175SOL     OW  697   0.599   1.476   0.226 -0.0393  0.4091 -0.2360
  175SOL    HW1  698   0.565   1.387   0.233 -1.1921  1.7992  2.7104
  175SOL    HW2  699   0.690   1.452   0.239  0.3423 -2.2389 -1.1369
  175SOL     MW  700   0.606   1.461   0.228 -0.1411  0.2432  0.0339
  176SOL     OW  701   0.105   1.506   1.228 -0.5071 -0.1001  0.4374
  176SOL    HW1  702   0.106   1.477   1.134  1.6135  1.6709 -1.1315
  176SOL    HW2  703   0.018   1.493   1.259 -0.3677 -2.5913 -2.5239
  176SOL     MW  704   0.093   1.501   1.220 -0.2089 -0.1952 -0.1603
  177SOL     OW  705   0.504   0.257   1.426 -0.0739 -0.0226 -0.4195
  177SOL    HW1  706   0.588   0.262   1.380  0.5879  2.4958  0.4164
  177SOL    HW2  707   0.496   0.331   1.486  0.3386 -0.3236  0.1512
  177SOL     MW  708   0.514   0.267   1.428  0.0678  0.2699 -0.2339
  178SOL     OW  709   3.088   0.590   2.961  0.8817  0.7947 -0.5611
  178SOL    HW1  710   3.030   0.528   2.993  2.3320  5.1531  0.9557
  178SOL    HW2  711   3.063   0.614   2.872 -1.5656 -0.2778  3.5274
  178SOL     MW  712   3.077   0.585   2.953  0.7502  1.2283  0.1785
  179SOL     OW  713   1.562   1.486   1.373 -0.1373 -0.2127  0.4431
  179SOL    HW1  714   1.548   1.504   1.471  3.3455  0.3373  0.9330
  179SOL    HW2  715   1.656   1.462   1.350 -1.7571 -0.3122 -1.6742
  179SOL     MW  716   1.573   1.485   1.383  0.1085 -0.1533  0.2283
  180SOL     OW  717   0.033   0.252   0.420  0.7817 -0.4431  0.4616
  180SOL    HW1  718  -0.052   0.270   0.373 -0.1261 -0.8282 -1.7943
  180SOL    HW2  719   0.064   0.332   0.459 -0.0357  0.5168  1.3633
  180SOL     MW  720   0.026   0.265   0.419  0.5541 -0.3673  0.2830
  181SOL     OW  721   1.077   1.335   0.034  0.1931 -0.0297  0.5510
  181SOL    HW1  722   1.147   1.392   0.062  2.6024 -4.8085 -0.5564
  181SOL    HW2  723   1.103   1.303  -0.049  1.3075  1.2640  0.3429
  181SOL     MW  724   1.089   1.338   0.027  0.6581 -0.4895  0.3775
  182SOL     OW  725   0.358   0.868   1.614 -0.1144  0.4406  0.2645
  182SOL    HW1  726   0.274   0.887   1.661 -1.3345 -0.7144 -2.3374
  182SOL    HW2  727   0.424   0.850   1.677  0.8563  0.4602 -1.0464
  182SOL     MW  728   0.356   0.868   1.628 -0.1473  0.2908 -0.2518
  183SOL     OW  729   1.546   1.745   1.281 -0.2240 -0.0354  0.1324
  183SOL    HW1  730   1.636   1.769   1.295 -1.2073 -1.3658 -2.9017
  183SOL    HW2  731   1.543   1.646   1.305 -2.2376 -1.2863  0.3101
  183SOL     MW  732   1.558   1.735   1.286 -0.6194 -0.3760 -0.2445
  184SOL     OW  733   0.830   0.625   1.735  0.5732  0.1472 -0.4537
  184SOL    HW1  734   0.926   0.641   1.718 -0.8570  0.1272 -0.7133
  184SOL    HW2  735   0.829   0.566   1.811 -0.6131 -0.8344 -1.5084
  184SOL     MW  736   0.843   0.619   1.743  0.2280  0.0150 -0.6271
  185SOL     OW  737   1.096   0.965   1.876 -0.6853  0.1307 -0.0792
  185SOL    HW1  738   1.050   0.882   1.908  1.1234 -0.0692  0.6723
  185SOL    HW2  739   1.119   1.007   1.956  1.9459 -2.7246  0.5472
  185SOL     MW  740   1.093   0.960   1.891 -0.0995 -0.2724  0.1026
  186SOL     OW  741   0.255   1.614   1.531 -0.2412  0.2363  0.2750
  186SOL    HW1  742   0.270   1.591   1.437 -1.2896  1.7170  0.3822
  186SOL    HW2  743   0.170   1.574   1.562  0.2313  0.4943 -1.6247
  186SOL     MW  744   0.246   1.606   1.523 -0.3171  0.4657  0.0385
  187SOL     OW  745   1.411   0.811   1.345 -0.1347  0.6534  0.3412
  187SOL    HW1  746   1.458   0.819   1.430 -0.0123  0.7796  0.6528
  187SOL    HW2  747   1.317   0.834   1.357 -0.1615 -0.8200  2.8702
  187SOL     MW  748   1.405   0.815   1.358 -0.1221  0.4757  0.7160
  188SOL     OW  749   1.845   1.230   0.932  0.1939 -0.3274 -0.0271
  188SOL    HW1  750   1.890   1.231   1.019  1.1416  0.5676 -0.4659
  188SOL    HW2  751   1.829   1.141   0.907  0.3178 -1.3095  1.0649
  188SOL     MW  752   1.848   1.218   0.940  0.3353 -0.3389  0.0591
  189SOL     OW  753   0.723   0.718   0.852  0.0584 -0.1376 -0.0885
  189SOL    HW1  754   0.647   0.771   0.855  1.7621 -2.6434  0.8414
  189SOL    HW2  755   0.785   0.755   0.916 -0.4392 -0.3282  3.2139
  189SOL     MW  756   0.721   0.730   0.861  0.2175 -0.4933  0.4699
  190SOL     OW  757   1.874   0.266   2.045 -0.1163  0.5269 -0.2069
  190SOL    HW1  758   1.905   0.240   2.133  3.4205 -2.1323  0.5256
  190SOL    HW2  759   1.945   0.326   2.022  1.6443 -2.3908 -1.3168
  190SOL     MW  760   1.888   0.270   2.054  0.5826 -0.2089 -0.2567
  191SOL     OW  761   1.541   1.032   1.227 -0.8622  0.7477 -0.0076
  191SOL    HW1  762   1.550   1.087   1.310  0.1666  1.9603  1.4573
  191SOL    HW2  763   1.499   0.951   1.253 -0.2590  0.3789 -0.2506
  191SOL     MW  764   1.536   1.029   1.242 -0.6469  0.8590  0.1536
  192SOL     OW  765   0.510   2.197   2.952 -0.6133 -0.0097  0.0330
  192SOL    HW1  766   0.472   2.272   2.909 -0.3845  0.9516 -0.2369
  192SOL    HW2  767   0.493   2.114   2.902 -0.4812  1.3677 -1.2580
  192SOL     MW  768   0.503   2.196   2.939 -0.5657  0.2989 -0.1729
  193SOL     OW  769   0.835   1.645   0.792  0.5890  0.9337 -0.2382
  193SOL    HW1  770   0.748   1.659   0.840 -3.6695  1.0821  1.0108
  193SOL    HW2  771   0.822   1.580   0.729 -0.4212  2.9386  2.9013
  193SOL     MW  772   0.822   1.639   0.790 -0.1061  1.2178  0.3408
  194SOL     OW  773   0.385   1.344   0.843 -0.2305 -0.2775 -0.4770
  194SOL    HW1  774   0.363   1.296   0.917 -0.2161  0.2531  0.8544
  194SOL    HW2  775   0.308   1.395   0.818 -0.3422 -2.5802 -1.0538
  194SOL     MW  776   0.372   1.344   0.850 -0.2434 -0.5113 -0.3774
  195SOL     OW  777   1.217   1.117   3.006  0.5873  0.3024 -0.5872
  195SOL    HW1  778   1.240   1.154   3.092  1.4698 -2.8780  1.3046
  195SOL    HW2  779   1.159   1.039   3.022 -3.0459 -0.8510  1.8756
  195SOL     MW  780   1.212   1.112   3.019  0.2244 -0.2694 -0.0127
  196SOL     OW  781   2.247   1.000   0.516  0.0220 -0.4040  0.1644
  196SOL    HW1  782   2.289   0.982   0.436  2.3634 -4.5926  1.1402
  196SOL    HW2  783   2.238   1.093   0.522 -3.0035 -1.4621  1.2303
  196SOL     MW  784   2.251   1.010   0.506 -0.0682 -1.0963  0.4338
  197SOL     OW  785   0.613   1.335   2.171  0.0174 -0.5209  0.4271
  197SOL    HW1  786   0.632   1.248   2.138  1.2255 -1.3825 -0.6822
  197SOL    HW2  787   0.664   1.398   2.123 -0.7103  2.3991 -0.4630
  197SOL     MW  788   0.622   1.332   2.161  0.0808 -0.2493  0.1633
  198SOL     OW  789   2.925   1.408   1.017 -0.4457  0.5084 -0.2463
  198SOL    HW1  790   2.921   1.499   0.986  0.8752 -0.2795  1.1343
  198SOL    HW2  791   2.846   1.361   0.971  0.5180 -0.5399  0.6348
  198SOL     MW  792   2.914   1.413   1.007 -0.1443  0.2661  0.0521
  199SOL     OW  793   0.655   1.255   1.809 -0.3057 -0.4953 -0.0727
  199SOL    HW1  794   0.560   1.228   1.813  0.3487  1.2161  0.7061
  199SOL    HW2  795   0.668   1.306   1.721 -0.7641  3.1958  0.3761
  199SOL     MW  796   0.644   1.259   1.798 -0.2798  0.2175  0.0893
  200SOL     OW  797   1.839   2.968   1.287  0.1715  0.0340  0.0143
  200SOL    HW1  798   1.885   2.966   1.198 -0.1988  0.5291 -1.8089
  200SOL    HW2  799   1.793   3.048   1.296  1.1258 -2.8313  0.7010
  200SOL     MW  800   1.839   2.978   1.276  0.2485 -0.2787 -0.1356
  201SOL     OW  801   1.184   0.295   0.846 -0.2920 -0.2689  0.5034
  201SOL    HW1  802   1.148   0.214   0.821 -0.2962  0.6905  0.2812
  201SOL    HW2  803   1.278   0.291   0.829  1.0033  2.1442 -0.5157
  201SOL     MW  804   1.192   0.284   0.840 -0.1217  0.1761  0.3396
  202SOL     OW  805   1.469   1.727   1.013 -0.2743 -0.3598 -0.3278
  202SOL    HW1  806   1.479   1.626   1.022  0.3207 -2.1345 -0.4652
  202SOL    HW2  807   1.504   1.763   1.094  0.9321  1.2507  0.0956
  202SOL     MW  808   1.475   1.718   1.025 -0.0366 -0.3815 -0.2901
  203SOL     OW  809   0.008   0.400   1.332  0.4319  0.6229  0.4520
  203SOL    HW1  810   0.020   0.312   1.366  0.3689  2.5425 -2.0487
  203SOL    HW2  811   0.096   0.439   1.317  1.6158 -1.0823 -0.8584
  203SOL     MW  812   0.021   0.393   1.334  0.5798  0.6512 -0.0508
  204SOL     OW  813   1.006   1.840   0.658 -0.2027  0.2330 -0.1507
  204SOL    HW1  814   0.972   1.764   0.704  0.5359 -0.7146  1.0617
  204SOL    HW2  815   0.936   1.849   0.591 -2.5246 -0.6534  0.5806
  204SOL     MW  816   0.992   1.831   0.655 -0.4116 -0.0090  0.1057
  205SOL     OW  817   1.411   3.007   1.291 -0.5232  0.2691  0.2211
  205SOL    HW1  818   1.439   3.042   1.207 -2.5358 -1.9057 -0.5249
  205SOL    HW2  819   1.340   3.064   1.322  1.9909  1.6820  1.4860
  205SOL     MW  820   1.405   3.019   1.284 -0.4571  0.1686  0.2895
  206SOL     OW  821   0.370   2.904   1.360  0.0290 -0.7951  0.4540
  206SOL    HW1  822   0.347   2.910   1.269 -0.7126 -1.1261  0.5770
  206SOL    HW2  823   0.460   2.883   1.373 -0.3530 -0.7780  0.3662
  206SOL     MW  824   0.379   2.902   1.350 -0.1192 -0.8365  0.4586
  207SOL     OW  825   0.876   1.744   0.217 -0.7232 -0.3473  0.1441
  207SOL    HW1  826   0.955   1.799   0.196  2.5169 -2.8566  0.1574
  207SOL    HW2  827   0.918   1.669   0.251 -1.1998  0.2282  0.6600
  207SOL     MW  828   0.892   1.741   0.219 -0.3586 -0.6025  0.2139
  208SOL     OW  829   0.792   1.526   1.348  0.2181 -0.3930  0.4032
  208SOL    HW1  830   0.859   1.559   1.279  0.1294 -1.0313  2.6732
  208SOL    HW2  831   0.758   1.438   1.321 -2.8859 -1.0812 -0.2290
  208SOL     MW  832   0.796   1.519   1.335 -0.2032 -0.5680  0.6193
  209SOL     OW  833   1.622   0.474   2.824 -0.5181  0.0815  0.2475
  209SOL    HW1  834   1.653   0.559   2.839 -1.1127  0.2238 -0.5846
  209SOL    HW2  835   1.702   0.419   2.820  0.3550 -0.9106 -4.3205
  209SOL     MW  836   1.637   0.478   2.825 -0.4813 -0.0306 -0.4650
  210SOL     OW  837   1.477   1.413   0.985 -0.6037  0.0851 -0.4133
  210SOL    HW1  838   1.563   1.436   0.955 -0.7929 -2.1909 -1.6642
  210SOL    HW2  839   1.418   1.427   0.911 -0.3785 -0.5374 -0.3735
  210SOL     MW  840   1.481   1.418   0.971 -0.5989 -0.2974 -0.5731
  211SOL     OW  841   1.747   0.480   0.901  0.2192 -0.0751 -0.3409
  211SOL    HW1  842   1.751   0.458   0.811 -2.0567 -1.6121  2.4582
  211SOL    HW2  843   1.839   0.457   0.920 -2.7414  0.8034 -0.1714
  211SOL     MW  844   1.760   0.474   0.892 -0.4717 -0.1620  0.0508
  212SOL     OW  845   0.382   1.200   0.203  0.6320 -0.1798  0.2921
  212SOL    HW1  846   0.315   1.134   0.222  0.5830  4.1563 -0.6490
  212SOL    HW2  847   0.462   1.168   0.153  1.2326  1.2776  2.1814
  212SOL     MW  848   0.384   1.187   0.198  0.7048  0.5846  0.4172
  213SOL     OW  849   0.415   1.801   3.034  0.4125 -0.8367  0.7011
  213SOL    HW1  850   0.461   1.848   3.105  1.6533  0.4507 -0.9513
  213SOL    HW2  851   0.432   1.846   2.946  1.0535 -1.9170 -2.2734
  213SOL     MW  852   0.423   1.813   3.032  0.6608 -0.8093  0.0907
  214SOL     OW  853   0.574   0.348   2.113 -0.0918  0.8755  0.5847
  214SOL    HW1  854   0.500   0.413   2.124 -0.5708 -2.8529 -1.2466
  214SOL    HW2  855   0.567   0.303   2.024 -0.3441  1.2464 -1.9963
  214SOL     MW  856   0.563   0.350   2.103 -0.1883  0.4325  0.0026
  215SOL     OW  857   0.495   0.483   2.491  0.1342  0.5035 -0.1244
  215SOL    HW1  858   0.471   0.571   2.454  0.7484 -1.1284 -2.9806
  215SOL    HW2  859   0.434   0.414   2.462  1.0114  0.7683 -2.4350
  215SOL     MW  860   0.484   0.486   2.482  0.3310  0.3231 -0.8061
  216SOL     OW  861   2.917   3.094   2.827  0.2095  0.3138  0.6176
  216SOL    HW1  862   2.834   3.054   2.811 -0.3506 -1.5467  3.2213
  216SOL    HW2  863   2.930   3.149   2.754 -3.2034 -2.4359  1.2347
  216SOL     MW  864   2.908   3.096   2.816 -0.3147 -0.2945  1.0426
  217SOL     OW  865   0.947   1.094   0.152 -0.0554 -0.1458 -0.1714
  217SOL    HW1  866   0.954   1.015   0.098 -0.3600  0.1206  1.5638
  217SOL    HW2  867   1.004   1.161   0.124  1.7798  0.5670  0.5428
  217SOL     MW  868   0.955   1.092   0.141  0.1465 -0.0166  0.1518
  218SOL     OW  869   0.846   1.369   2.611 -0.5373  0.2108  0.2530
  218SOL    HW1  870   0.807   1.298   2.658  0.2143  0.4575 -1.4988
  218SOL    HW2  871   0.924   1.397   2.661  1.8716  1.4361 -0.8300
  218SOL     MW  872   0.851   1.363   2.624 -0.1203  0.4050 -0.1210
  219SOL     OW  873   1.038   0.472   2.571 -0.1064  0.3646 -0.5945
  219SOL    HW1  874   1.104   0.535   2.616 -0.6091 -0.9750 -1.3971
  219SOL    HW2  875   0.965   0.530   2.554  1.2612  2.0142 -0.2055
  219SOL     MW  876   1.037   0.488   2.575  0.0077  0.4055 -0.6491
  220SOL     OW  877   1.692   0.507   2.202 -0.4215 -0.6914  0.5342
  220SOL    HW1  878   1.620   0.571   2.185 -0.0212  0.0671  1.0206
  220SOL    HW2  879   1.667   0.431   2.155 -1.0755  0.3169 -0.7002
  220SOL     MW  880   1.679   0.506   2.194 -0.4550 -0.4582  0.4355
  221SOL     OW  881   0.378   1.383   2.945 -0.6252 -0.0688  0.0996
  221SOL    HW1  882   0.433   1.304   2.918  0.7087 -1.1709 -0.0655
  221SOL    HW2  883   0.447   1.447   2.988  1.4070 -0.8910  0.6379
  221SOL     MW  884   0.394   1.381   2.947 -0.1810 -0.3227  0.1488
  222SOL     OW  885   0.523   0.911   2.736 -0.0889  0.2903 -0.1117
  222SOL    HW1  886   0.430   0.883   2.740 -0.2095 -0.8953  2.8615
  222SOL    HW2  887   0.570   0.826   2.709 -1.2954 -1.6124 -0.0219
  222SOL     MW  888   0.517   0.896   2.733 -0.2640 -0.1171  0.2924
  223SOL     OW  889   3.053   2.026   2.511 -1.1148  0.5361 -0.1962
  223SOL    HW1  890   3.026   1.976   2.589 -0.9098 -0.7302 -2.8645
  223SOL    HW2  891   3.109   2.098   2.545 -1.4631 -1.2057  0.7581
  223SOL     MW  892   3.057   2.029   2.526 -1.1337  0.1392 -0.4223
  224SOL     OW  893   1.470   0.651   2.423 -0.1368  0.0341 -0.0738
  224SOL    HW1  894   1.554   0.603   2.455  0.7896 -2.3785 -0.4786
  224SOL    HW2  895   1.459   0.736   2.462  1.9691 -1.5464 -0.1929
  224SOL     MW  896   1.480   0.656   2.432  0.2633 -0.4927 -0.1429
  225SOL     OW  897   2.942   1.494   2.198  0.1156  0.1474 -0.9729
  225SOL    HW1  898   2.989   1.580   2.188  0.7209 -0.2687  0.4295
  225SOL    HW2  899   2.882   1.529   2.264 -1.6327 -0.2757 -1.7144
  225SOL     MW  900   2.940   1.510   2.205 -0.0352  0.0367 -0.8857
  226SOL     OW  901   0.451   1.570   2.694  0.1088 -0.1074 -0.0025
  226SOL    HW1  902   0.540   1.595   2.674 -0.5505  0.5106 -1.7490
  226SOL    HW2  903   0.396   1.646   2.671  2.1565 -0.2781  0.2680
  226SOL     MW  904   0.455   1.584   2.689  0.2920 -0.0484 -0.1972
  227SOL     OW  905   0.517   1.148   2.882  0.8518  0.2653 -0.4764
  227SOL    HW1  906   0.599   1.168   2.838  0.4183 -2.9614  0.9482
  227SOL    HW2  907   0.496   1.070   2.835  0.1078 -1.6287  0.9427
  227SOL     MW  908   0.525   1.140   2.870  0.6964 -0.4104 -0.1012
  228SOL     OW  909   0.775   1.102   2.026  0.5766 -0.4006 -0.3092
  228SOL    HW1  910   0.754   1.147   1.950  0.3544  0.5991  2.2104
  228SOL    HW2  911   0.841   1.153   2.070  0.4099  0.8976  0.0517
  228SOL     MW  912   0.781   1.114   2.021  0.5253 -0.0974  0.0709
  229SOL     OW  913   0.206   0.554   0.035 -0.7234 -0.1332 -0.2338
  229SOL    HW1  914   0.150   0.528  -0.042  1.8021 -0.2439  0.6093
  229SOL    HW2  915   0.227   0.469   0.084  1.5545 -1.4010 -4.1035
  229SOL     MW  916   0.202   0.539   0.031 -0.0897 -0.3151 -0.6332
  230SOL     OW  917   1.749   1.359   2.115  0.3199 -0.2513  0.5310
  230SOL    HW1  918   1.724   1.344   2.206  1.2075 -0.8098  2.3769
  230SOL    HW2  919   1.768   1.264   2.098  3.5491 -1.4909  3.3223
  230SOL     MW  920   1.748   1.345   2.125  0.8631 -0.4885  1.1429
  231SOL     OW  921   2.729   1.289   2.214 -0.1291  0.1360  0.1450
  231SOL    HW1  922   2.791   1.357   2.190  2.0973 -1.2456  2.5846
  231SOL    HW2  923   2.661   1.277   2.144 -2.8576 -2.0656 -1.2487
  231SOL     MW  924   2.728   1.296   2.201 -0.1954 -0.3368  0.2830
  232SOL     OW  925   2.290   0.887   1.955 -0.0298 -0.3344  0.5278
  232SOL    HW1  926   2.212   0.944   1.956 -1.6489  0.1205 -0.2590
  232SOL    HW2  927   2.274   0.824   2.028 -0.0883 -0.4213 -1.2013
  232SOL     MW  928   2.277   0.886   1.964 -0.2511 -0.2858  0.1958
  233SOL     OW  929   2.102   0.442   2.050  0.1584  0.1204  0.6301
  233SOL    HW1  930   2.162   0.377   2.035 -2.9555  2.0980  0.6264
  233SOL    HW2  931   2.112   0.476   2.136 -0.4121 -2.3310 -1.3838
  233SOL     MW  932   2.111   0.438   2.060 -0.3277  0.0579  0.3639
  234SOL     OW  933   0.255   1.054   2.659  0.2535  0.1141 -0.9262
  234SOL    HW1  934   0.190   1.052   2.592 -0.5851 -0.8660 -0.2294
  234SOL    HW2  935   0.293   1.137   2.643  0.8443 -2.3815  2.9991
  234SOL     MW  936   0.251   1.065   2.648  0.2208 -0.3445 -0.3164
  235SOL     OW  937   1.149   0.018   2.837  0.0729  0.0053 -0.4170
  235SOL    HW1  938   1.186   0.016   2.927  3.1280  1.2163 -0.8013
  235SOL    HW2  939   1.119   0.107   2.811 -1.7376  1.7231 -0.8587
  235SOL     MW  940   1.150   0.030   2.845  0.2371  0.3917 -0.5259
  236SOL     OW  941   2.965   0.592   0.173 -0.3976  0.3171 -0.0631
  236SOL    HW1  942   2.977   0.633   0.258  0.2200  0.1419 -1.0270
  236SOL    HW2  943   3.033   0.647   0.130 -0.1127 -2.3345  0.3928
  236SOL     MW  944   2.976   0.604   0.178 -0.2785 -0.0559 -0.1301
  237SOL     OW  945   1.899   1.091   2.109  0.4860  0.9152 -0.0215
  237SOL    HW1  946   1.812   1.038   2.120 -2.4482 -1.3684  1.9181
  237SOL    HW2  947   1.909   1.100   2.013  0.6535  1.9085  0.7803
  237SOL     MW  948   1.889   1.085   2.098  0.1210  0.7450  0.3402
  238SOL     OW  949   1.085   1.718   2.909  0.1783 -0.1647 -0.6780
  238SOL    HW1  950   1.033   1.638   2.884 -0.7736 -0.6990  4.2638
  238SOL    HW2  951   1.179   1.693   2.906  1.7037  1.8529 -0.0873
  238SOL     MW  952   1.091   1.704   2.905  0.2540  0.0310  0.0519
  239SOL     OW  953   1.176   1.302   2.349 -0.3908 -0.2067  0.3169
  239SOL    HW1  954   1.131   1.387   2.351 -1.8771 -2.3290 -2.8199
  239SOL    HW2  955   1.150   1.258   2.430  2.6278 -2.0533  1.0154
  239SOL     MW  956   1.166   1.307   2.360 -0.1886 -0.7304 -0.0048
  240SOL     OW  957   0.583   0.858   2.312 -0.2635 -0.6085  0.4889
  240SOL    HW1  958   0.597   0.900   2.398 -2.6058 -0.7641  1.3229
  240SOL    HW2  959   0.663   0.852   2.271 -1.0282  3.1789  1.0503
  240SOL     MW  960   0.595   0.863   2.318 -0.6735 -0.1294  0.6730
  241SOL     OW  961   0.709   0.452   0.005 -0.6472  0.4091 -0.0319
  241SOL    HW1  962   0.733   0.533   0.051  1.6213 -1.0257  1.5076
  241SOL    HW2  963   0.617   0.466  -0.024  2.7832 -2.8888 -0.1032
  241SOL     MW  964   0.700   0.465   0.007  0.1047 -0.2153  0.1618
  242SOL     OW  965   1.492   1.611   2.301  0.1268 -0.0344 -0.4236
  242SOL    HW1  966   1.445   1.692   2.315 -0.1064  0.4621  2.3919
  242SOL    HW2  967   1.439   1.557   2.245 -1.5333  1.3140  3.6008
  242SOL     MW  968   1.479   1.614   2.296 -0.1230  0.2091  0.4789
  243SOL     OW  969   0.982   0.255   2.390 -0.6119 -0.4341  0.3022
  243SOL    HW1  970   1.074   0.223   2.376 -0.8955  1.5011 -1.0635
  243SOL    HW2  971   0.989   0.334   2.450  0.2008 -1.1207  0.4624
  243SOL     MW  972   0.995   0.261   2.396 -0.5421 -0.2693  0.1431
  244SOL     OW  973   0.097   0.788   2.384  0.3025  0.1365  0.4229
  244SOL    HW1  974   0.071   0.876   2.376  0.0637 -1.9024  1.9695
  244SOL    HW2  975   0.187   0.784   2.349  1.5252 -3.1767 -1.9865
  244SOL     MW  976   0.106   0.799   2.378  0.4323 -0.5697  0.3090
  245SOL     OW  977   1.259   0.129   2.419  0.5012 -0.8606 -0.5749
  245SOL    HW1  978   1.335   0.103   2.375 -0.4247  1.9534  2.4282
  245SOL    HW2  979   1.256   0.071   2.496  1.4577  1.9789 -1.1056
  245SOL     MW  980   1.269   0.118   2.423  0.5052 -0.1147 -0.2487
  246SOL     OW  981   1.191   1.125   2.085 -0.5948 -0.6114 -0.3629
  246SOL    HW1  982   1.109   1.108   2.139 -2.0473 -0.8867  0.7107
  246SOL    HW2  983   1.265   1.080   2.132  2.4055 -0.8927  0.7942
  246SOL     MW  984   1.190   1.117   2.098 -0.3906 -0.6848 -0.0685
  247SOL     OW  985   0.767   0.646   0.184  0.1792 -0.4400 -0.1891
  247SOL    HW1  986   0.753   0.739   0.157 -0.8136  1.1621 -1.4905
  247SOL    HW2  987   0.865   0.633   0.168  2.4313 -1.2447  2.3514
  247SOL     MW  988   0.778   0.656   0.178  0.3454 -0.3348 -0.0256
  248SOL     OW  989   0.314   1.326   2.615  0.6384  0.4263  0.1399
  248SOL    HW1  990   0.351   1.342   2.529 -0.0995  0.0819 -0.6693
  248SOL    HW2  991   0.357   1.391   2.669  1.8337 -0.9678  0.2664
  248SOL     MW  992   0.324   1.337   2.611  0.6987  0.1969  0.0498
  249SOL     OW  993   3.025   1.926   2.793  0.0950 -0.1285  0.2140
  249SOL    HW1  994   2.996   1.840   2.769  0.1901  0.7970 -1.0580
  249SOL    HW2  995   3.093   1.909   2.859 -0.8451  2.1378  2.9356
  249SOL     MW  996   3.030   1.912   2.798 -0.0165  0.2926  0.4053
  250SOL     OW  997   2.262   0.732   2.183  0.3198 -0.6053  0.3917
  250SOL    HW1  998   2.205   0.667   2.225  4.0650  1.7747 -0.2068
  250SOL    HW2  999   2.348   0.709   2.232  0.4544 -2.7868 -1.6512
  250SOL     MW 1000   2.266   0.721   2.195  0.8317 -0.5791  0.0432
  251SOL     OW 1001   0.170   0.871   2.035  0.1792 -0.1054 -0.2378
  251SOL    HW1 1002   0.103   0.805   2.061  3.9013  0.0758 -0.7785
  251SOL    HW2 1003   0.174   0.856   1.943 -2.5295  0.8609 -0.1233
  251SOL     MW 1004   0.161   0.860   2.026  0.3129  0.0460 -0.2940
  252SOL     OW 1005   1.707   1.041   2.886 -0.0352  0.0386 -0.3745
  252SOL    HW1 1006   1.718   1.072   2.976 -1.4583 -0.9061  0.0116
  252SOL    HW2 1007   1.778   1.050   2.832 -0.0110 -0.8775  2.0186
  252SOL     MW 1008   1.718   1.046   2.891 -0.2198 -0.2069 -0.0078
  253SOL     OW 1009   1.146   1.679   2.543  0.0922  0.0610  0.3731
  253SOL    HW1 1010   1.104   1.639   2.460 -1.7266 -2.7296 -0.7429
  253SOL    HW2 1011   1.080   1.745   2.578 -0.7142 -1.4893 -1.7547
  253SOL     MW 1012   1.132   1.682   2.536 -0.2542 -0.5117 -0.0549
  254SOL     OW 1013   0.978   1.063   2.248  0.0210 -0.7752  0.1646
  254SOL    HW1 1014   0.939   0.976   2.231 -0.7960 -2.3041 -0.5899
  254SOL    HW2 1015   0.920   1.102   2.318 -0.0668  0.4683  1.8785
  254SOL     MW 1016   0.965   1.057   2.255 -0.0984 -0.8128  0.2912
  255SOL     OW 1017   0.853   2.493   2.144  0.0938 -0.2818 -0.4008
  255SOL    HW1 1018   0.765   2.461   2.155  2.3551  1.0922  1.4883
  255SOL    HW2 1019   0.904   2.437   2.206 -2.1999 -2.4392  2.1295
  255SOL     MW 1020   0.848   2.481   2.153  0.0895 -0.3851  0.1823
  256SOL     OW 1021   1.340   2.780   3.068  0.4075  0.2877 -0.1493
  256SOL    HW1 1022   1.331   2.689   3.092  1.1734  1.3201  2.0675
  256SOL    HW2 1023   1.387   2.783   2.986 -0.1678  1.1905  1.3851
  256SOL     MW 1024   1.345   2.768   3.060  0.4326  0.5430  0.3457
  257SOL     OW 1025   0.062   1.943   0.070 -0.0728  0.8750 -0.1784
  257SOL    HW1 1026   0.131   1.931   0.133  1.1306 -0.8210  0.6947
  257SOL    HW2 1027   0.085   1.868   0.013  1.9383  0.3386 -0.0649
  257SOL     MW 1028   0.074   1.931   0.071  0.3513  0.5804 -0.0483
  258SOL     OW 1029   0.687   0.998   2.503 -0.1050 -0.6817  0.0011
  258SOL    HW1 1030   0.718   1.084   2.479 -0.3746  0.8542 -1.7715
  258SOL    HW2 1031   0.635   1.019   2.585  0.0998 -0.4099  4.0197
  258SOL     MW 1032   0.684   1.012   2.511 -0.1135 -0.4432  0.2975
  259SOL     OW 1033   0.811   0.428   2.233 -0.4517 -0.8151  0.4563
  259SOL    HW1 1034   0.731   0.384   2.197  0.4457 -0.1242  3.8063
  259SOL    HW2 1035   0.879   0.366   2.267  0.7043  0.0851  1.3818
  259SOL     MW 1036   0.809   0.414   2.233 -0.1808 -0.6052  1.0204
  260SOL     OW 1037   0.633   0.097   1.606  0.3538 -0.6447  0.0456
  260SOL    HW1 1038   0.562   0.144   1.569  0.9407 -1.4258  3.0638
  260SOL    HW2 1039   0.716   0.136   1.573 -1.4321 -2.6061  0.8734
  260SOL     MW 1040   0.635   0.108   1.597  0.1956 -1.0066  0.5531
  261SOL     OW 1041   1.013   0.723   2.008  0.1103  0.2906  0.1480
  261SOL    HW1 1042   1.076   0.691   2.072 -1.7074 -1.2422 -1.6447
  261SOL    HW2 1043   0.978   0.634   1.983  0.4396 -3.0091  0.0963
  261SOL     MW 1044   1.017   0.707   2.013 -0.0861 -0.3470 -0.0954
  262SOL     OW 1045   1.137   0.303   0.129  0.0684 -0.0033  0.2958
  262SOL    HW1 1046   1.229   0.299   0.092 -0.8108 -0.7101 -1.0555
  262SOL    HW2 1047   1.082   0.245   0.071  0.7099 -1.2864  1.2288
  262SOL     MW 1048   1.142   0.295   0.116  0.0370 -0.2658  0.2406
  263SOL     OW 1049   0.428   3.094   2.457 -0.2910  0.3600 -0.0677
  263SOL    HW1 1050   0.358   3.148   2.488  1.1293 -1.2253  2.2956
  263SOL    HW2 1051   0.458   3.145   2.381 -0.7135  1.9105 -1.4611
  263SOL     MW 1052   0.422   3.108   2.451 -0.1593  0.3554  0.0602
  264SOL     OW 1053   1.553   1.493   1.908  0.2725 -0.4582 -0.1777
  264SOL    HW1 1054   1.479   1.430   1.900 -1.1051  0.0000  0.2320
  264SOL    HW2 1055   1.608   1.452   1.982 -2.1822  0.0504  1.1011
  264SOL     MW 1056   1.550   1.479   1.917 -0.2332 -0.3306  0.0451
  265SOL     OW 1057   0.716   2.791   2.300 -0.3647 -0.3542  0.7118
  265SOL    HW1 1058   0.802   2.760   2.270 -0.8002 -2.1437  1.2247
  265SOL    HW2 1059   0.720   2.791   2.396  1.5327 -1.8547  0.5620
  265SOL     MW 1060   0.728   2.787   2.308 -0.1718 -0.7883  0.7597
  266SOL     OW 1061   0.817   0.868   2.171  0.2956  0.0377 -0.0434
  266SOL    HW1 1062   0.791   0.945   2.118 -1.2932  0.9564  0.6780
  266SOL    HW2 1063   0.870   0.799   2.118  1.0341 -0.8668 -1.8892
  266SOL     MW 1064   0.821   0.869   2.157  0.1834  0.0396 -0.1918
  267SOL     OW 1065   1.383   1.741   2.667  0.1600  0.4444  0.1231
  267SOL    HW1 1066   1.441   1.672   2.635 -2.7831  0.5742  0.8889
  267SOL    HW2 1067   1.307   1.730   2.605 -1.9617  1.0478 -3.3043
  267SOL     MW 1068   1.380   1.730   2.654 -0.5083  0.5411 -0.2281
  268SOL     OW 1069   0.117   0.920   1.746 -0.5361  0.3588 -0.2067
  268SOL    HW1 1070   0.034   0.954   1.775  0.2615  1.7043 -1.0650
  268SOL    HW2 1071   0.087   0.854   1.680 -3.5231 -3.1013 -0.6436
  268SOL     MW 1072   0.102   0.916   1.741 -0.8250  0.0798 -0.3776
  269SOL     OW 1073   1.378   1.858   2.375 -0.1271 -0.3301  0.8219
  269SOL    HW1 1074   1.434   1.932   2.398  1.8775 -0.4264 -0.8881
  269SOL    HW2 1075   1.287   1.870   2.395  0.6669 -4.8762 -0.6049
  269SOL     MW 1076   1.373   1.869   2.381  0.2421 -0.9426  0.4080
  270SOL     OW 1077   1.086   0.443   1.513  0.6581  0.2466  0.2093
  270SOL    HW1 1078   1.058   0.354   1.524 -2.1431  1.5362  0.0717
  270SOL    HW2 1079   1.175   0.433   1.492 -1.2400 -0.1915  2.6730
  270SOL     MW 1080   1.094   0.430   1.511  0.0381  0.3590  0.5162
  271SOL     OW 1081   0.816   0.080   2.518 -1.0432 -0.0395  0.4380
  271SOL    HW1 1082   0.871   0.010   2.557 -1.6495 -0.8849  0.5944
  271SOL    HW2 1083   0.886   0.132   2.486 -3.5365 -0.3643  1.8534
  271SOL     MW 1084   0.833   0.078   2.519 -1.4522 -0.1939  0.6454
  272SOL     OW 1085   1.469   2.769   2.807 -0.3942 -0.2978  0.2108
  272SOL    HW1 1086   1.433   2.761   2.725 -0.3634 -0.0148  0.2801
  272SOL    HW2 1087   1.497   2.865   2.818 -1.0573  2.2675  1.3064
  272SOL     MW 1088   1.468   2.780   2.798 -0.4776  0.0780  0.3645
  273SOL     OW 1089   1.466   0.820   2.820 -0.2720  0.2418 -0.4433
  273SOL    HW1 1090   1.554   0.795   2.841 -2.7110 -1.7958 -0.0788
  273SOL    HW2 1091   1.467   0.914   2.795  0.9675  1.6923 -0.1223
  273SOL     MW 1092   1.477   0.829   2.819 -0.4302  0.1643 -0.3529
  274SOL     OW 1093   1.401   0.623   0.120  0.2091 -0.0658 -0.3038
  274SOL    HW1 1094   1.472   0.597   0.179 -0.0266 -1.4133  1.3912
  274SOL    HW2 1095   1.328   0.651   0.179 -1.0418 -0.9470  0.7032
  274SOL     MW 1096   1.401   0.624   0.136  0.0130 -0.3598  0.0527
  275SOL     OW 1097   1.836   0.556   1.701  0.2847 -0.0725 -0.4343
  275SOL    HW1 1098   1.916   0.565   1.753 -2.9312  0.4161 -0.3517
  275SOL    HW2 1099   1.810   0.464   1.709  0.2019  2.0030  1.6231
  275SOL     MW 1100   1.843   0.545   1.709 -0.1505  0.2658 -0.1519
  276SOL     OW 1101   0.361   1.171   1.929  0.2512 -0.2785 -0.1077
  276SOL    HW1 1102   0.396   1.084   1.955 -0.8118 -0.2794  1.5652
  276SOL    HW2 1103   0.328   1.224   2.005  0.2545  2.3851  0.8044
  276SOL     MW 1104   0.362   1.166   1.943  0.1114  0.0728  0.2333
  277SOL     OW 1105   1.964   1.130   2.477 -0.6516  0.2883 -0.3577
  277SOL    HW1 1106   1.976   1.220   2.505 -1.4689 -0.3802 -2.2195
  277SOL    HW2 1107   2.010   1.123   2.390  1.7216 -1.1106  1.1864
  277SOL     MW 1108   1.972   1.141   2.469 -0.4463  0.0155 -0.3996
  278SOL     OW 1109   1.464   0.605   1.617  0.1763  0.3685 -0.7337
  278SOL    HW1 1110   1.463   0.577   1.711 -0.1287 -0.5270  1.9178
  278SOL    HW2 1111   1.557   0.634   1.605  2.4997 -0.5224 -2.1961
  278SOL     MW 1112   1.476   0.605   1.628  0.4426  0.1328 -0.5768
  279SOL     OW 1113   0.507   0.115   2.242 -0.1406 -0.5941 -0.0543
  279SOL    HW1 1114   0.594   0.071   2.267  3.5205 -1.3483 -2.3781
  279SOL    HW2 1115   0.506   0.211   2.242 -2.1064  0.9713 -0.5840
  279SOL     MW 1116   0.518   0.122   2.245  0.0831 -0.4871 -0.4308
  280SOL     OW 1117   1.419   0.990   2.244 -0.4704  0.0213  0.6602
  280SOL    HW1 1118   1.511   0.965   2.220 -0.5033  0.0275 -0.3813
  280SOL    HW2 1119   1.418   0.953   2.332 -1.4307 -0.5069  0.8971
  280SOL     MW 1120   1.431   0.982   2.252 -0.6015 -0.0476  0.5540
  281SOL     OW 1121   1.365   1.069   2.757  1.0253 -0.6026  0.1076
  281SOL    HW1 1122   1.424   1.147   2.752 -2.5326  1.6796  0.8697
  281SOL    HW2 1123   1.340   1.068   2.851  0.3367  0.4177 -0.0204
  281SOL     MW 1124   1.369   1.079   2.769  0.4650 -0.1669  0.1913
  282SOL     OW 1125   1.133   1.292   1.644 -0.9338  0.4173 -0.0172
  282SOL    HW1 1126   1.109   1.385   1.614 -0.6065  1.9692  0.6940
  282SOL    HW2 1127   1.055   1.246   1.666  1.7904  0.2191 -0.7073
  282SOL     MW 1128   1.119   1.298   1.643 -0.5311  0.5959 -0.0144
  283SOL     OW 1129   0.819   1.356   3.036 -0.1878 -0.3933 -0.6082
  283SOL    HW1 1130   0.901   1.358   3.085  0.4700  0.4134  1.3246
  283SOL    HW2 1131   0.794   1.451   3.028  2.1557  0.1460 -0.0117
  283SOL     MW 1132   0.826   1.369   3.042  0.2082 -0.2157 -0.2745
  284SOL     OW 1133   0.372   0.694   2.328 -0.0358 -0.2710 -0.3633
  284SOL    HW1 1134   0.457   0.740   2.317 -0.8719  0.4427  2.6229
  284SOL    HW2 1135   0.354   0.625   2.265  0.6572 -0.5661  1.3261
  284SOL     MW 1136   0.381   0.691   2.318 -0.0547 -0.2158  0.2536
  285SOL     OW 1137   0.851   0.864   2.818 -0.0119  0.8496 -0.3179
  285SOL    HW1 1138   0.900   0.888   2.743 -0.2193 -0.0386  0.2881
  285SOL    HW2 1139   0.781   0.809   2.776  0.1904  0.3281 -0.4766
  285SOL     MW 1140   0.848   0.860   2.803 -0.0126  0.6636 -0.2589
  286SOL     OW 1141   1.067   1.476   2.711 -0.2402 -0.6670  0.4706
  286SOL    HW1 1142   1.117   1.395   2.709  0.4306  1.9918  1.5501
  286SOL    HW2 1143   1.113   1.548   2.656  0.7985 -1.1810 -2.1858
  286SOL     MW 1144   1.080   1.475   2.704 -0.0147 -0.3840  0.2626
  287SOL     OW 1145   1.108   0.950   0.330 -0.5813  0.0946 -0.0498
  287SOL    HW1 1146   1.076   0.965   0.423 -0.7685 -2.1650 -1.5325
  287SOL    HW2 1147   1.064   1.017   0.281  0.7954  0.9916  0.5082
  287SOL     MW 1148   1.098   0.961   0.336 -0.4244 -0.0852 -0.1718
  288SOL     OW 1149   1.502   0.695   2.117 -0.1597  0.4476 -0.6450
  288SOL    HW1 1150   1.411   0.693   2.164  0.8154 -0.2147  0.3925
  288SOL    HW2 1151   1.516   0.795   2.116 -1.2463  0.5805 -0.0620
  288SOL     MW 1152   1.492   0.708   2.123 -0.1744  0.3777 -0.4312
  289SOL     OW 1153   0.964   0.963   2.587  1.0682  0.2385 -0.2347
  289SOL    HW1 1154   1.007   0.907   2.521  4.2691 -0.7237 -2.6541
  289SOL    HW2 1155   0.867   0.966   2.556 -2.5003 -0.5511 -1.4553
  289SOL     MW 1156   0.957   0.956   2.574  1.0197  0.0074 -0.7150
  290SOL     OW 1157   0.724   0.666   1.465 -0.4345 -0.4257 -0.1374
  290SOL    HW1 1158   0.794   0.638   1.406 -0.5511  1.3256 -0.9639
  290SOL    HW2 1159   0.770   0.679   1.543 -1.0917 -0.7165 -1.9773
  290SOL     MW 1160   0.739   0.664   1.468 -0.5366 -0.2330 -0.4892
  291SOL     OW 1161   0.247   0.341   0.194  0.2040 -0.0197  0.2830
  291SOL    HW1 1162   0.340   0.321   0.200 -1.6306  0.3996  0.7263
  291SOL    HW2 1163   0.204   0.254   0.194  2.5494  0.0087  0.9640
  291SOL     MW 1164   0.253   0.327   0.195  0.2714  0.0393  0.4314
  292SOL     OW 1165   1.029   0.586   0.098  0.2499  0.3805  0.2214
  292SOL    HW1 1166   1.085   0.627   0.164 -1.0183  1.4415 -1.4263
  292SOL    HW2 1167   1.019   0.494   0.123 -0.6905 -2.3417 -2.1109
  292SOL     MW 1168   1.035   0.579   0.110 -0.0415  0.1613 -0.3037
  293SOL     OW 1169   0.158   0.126   2.534  0.0125  0.9475 -0.2009
  293SOL    HW1 1170   0.160   0.084   2.452  2.5091  0.6284  1.1568
  293SOL    HW2 1171   0.066   0.119   2.562  1.0913 -1.3362 -2.8371
  293SOL     MW 1172   0.146   0.120   2.527  0.4842  0.6041 -0.3696
  294SOL     OW 1173   1.319   0.440   2.337 -0.9583 -0.5202 -1.0027
  294SOL    HW1 1174   1.380   0.510   2.374 -0.8103  3.1126 -0.8705
  294SOL    HW2 1175   1.246   0.429   2.397 -2.0669  0.4793 -0.4850
  294SOL     MW 1176   1.318   0.448   2.350 -1.0850  0.0910 -0.9170
  295SOL     OW 1177   0.852   0.631   2.482  0.1254  0.1861  0.3069
  295SOL    HW1 1178   0.796   0.579   2.423  0.7462  1.4760  1.2190
  295SOL    HW2 1179   0.789   0.666   2.546 -0.1208 -0.2310  1.4793
  295SOL     MW 1180   0.837   0.629   2.483  0.1748  0.3013  0.5820
  296SOL     OW 1181   1.358   0.329   2.061  0.0332  0.3422  0.2610
  296SOL    HW1 1182   1.390   0.240   2.078  1.0274 -0.4445 -0.5668
  296SOL    HW2 1183   1.351   0.372   2.145 -1.2100  0.4319 -2.0083
  296SOL     MW 1184   1.362   0.323   2.075  0.0004  0.2503 -0.1476
  297SOL     OW 1185   1.352   0.369   1.535 -0.1940  0.0864 -0.6192
  297SOL    HW1 1186   1.402   0.445   1.565  1.3522  1.1802  1.9331
  297SOL    HW2 1187   1.362   0.307   1.609 -1.7545  1.6241  3.2007
  297SOL     MW 1188   1.360   0.371   1.549 -0.1959  0.4336  0.2215
  298SOL     OW 1189   1.663   0.928   2.123  0.9499  0.0260  0.4579
  298SOL    HW1 1190   1.670   0.961   2.027 -0.5249 -2.3787  0.9807
  298SOL    HW2 1191   1.717   0.846   2.131  0.4563  0.1380  1.3930
  298SOL     MW 1192   1.671   0.921   2.112  0.6902 -0.2765  0.6503
  299SOL     OW 1193   0.618   1.184   0.065 -0.5009 -0.1280 -0.0838
  299SOL    HW1 1194   0.594   1.164  -0.034 -0.7905 -1.1784 -1.1508
  299SOL    HW2 1195   0.704   1.233   0.060 -0.4941  2.8935 -0.0839
  299SOL     MW 1196   0.626   1.187   0.051 -0.5382  0.1321 -0.2246
  300SOL     OW 1197   1.165   1.179   2.614  0.0617  0.3895  1.0773
  300SOL    HW1 1198   1.101   1.109   2.612  3.5010 -0.0798  2.5717
  300SOL    HW2 1199   1.242   1.142   2.661 -0.5338 -0.2735  0.8151
  300SOL     MW 1200   1.167   1.165   2.620  0.4369  0.2401  1.2399
  301SOL     OW 1201   1.492   0.984   0.718 -0.6848  0.2566 -0.6272
  301SOL    HW1 1202   1.474   1.015   0.808 -1.2399 -0.2548 -1.3749
  301SOL    HW2 1203   1.427   0.910   0.708 -0.8271 -1.2631 -1.9516
  301SOL     MW 1204   1.481   0.978   0.728 -0.7768 -0.0114 -0.9006
  302SOL     OW 1205   0.185   1.612   2.045  0.3103  0.0109 -0.2512
  302SOL    HW1 1206   0.185   1.522   2.062  1.1256  0.7234  0.6619
  302SOL    HW2 1207   0.098   1.653   2.068  0.6442  0.6086  0.7363
  302SOL     MW 1208   0.174   1.606   2.051  0.4619  0.1837 -0.0004
  303SOL     OW 1209   0.281   1.794   2.691 -0.4634 -0.2501 -0.9017
  303SOL    HW1 1210   0.255   1.805   2.601  1.4832  0.9781  1.6953
  303SOL    HW2 1211   0.207   1.756   2.735  1.5405  2.0003  1.8746
  303SOL     MW 1212   0.268   1.791   2.685  0.0578  0.2089 -0.1928
  304SOL     OW 1213   0.528   2.087   2.474 -0.1691  0.0684  0.2201
  304SOL    HW1 1214   0.565   2.155   2.420 -1.7031  1.2672 -1.0776
  304SOL    HW2 1215   0.572   2.010   2.442  1.6506 -0.9726  1.8338
  304SOL     MW 1216   0.539   2.086   2.463 -0.1314  0.0892  0.2618
  305SOL     OW 1217   1.123   0.649   0.553 -0.8764 -0.3295 -0.1435
  305SOL    HW1 1218   1.037   0.637   0.510 -1.0230 -1.5735 -1.3904
  305SOL    HW2 1219   1.155   0.557   0.578 -0.0447  2.9134 -2.1646
  305SOL     MW 1220   1.116   0.635   0.550 -0.7860 -0.0658 -0.5747
  306SOL     OW 1221   1.114   1.556   0.292 -0.3074 -0.5102  0.0473
  306SOL    HW1 1222   1.134   1.470   0.324  0.6479 -0.2364 -0.5786
  306SOL    HW2 1223   1.165   1.564   0.209  0.1863 -0.5129  0.2329
  306SOL     MW 1224   1.124   1.545   0.285 -0.1162 -0.4744 -0.0108
  307SOL     OW 1225   1.465   0.529   1.874  0.1094  0.5758 -0.2747
  307SOL    HW1 1226   1.408   0.460   1.908 -0.3487  0.2920 -0.3733
  307SOL    HW2 1227   1.466   0.596   1.945 -0.2360 -1.3262  2.3658
  307SOL     MW 1228   1.458   0.529   1.888  0.0034  0.2874  0.0607
  308SOL     OW 1229   2.286   0.579   2.763  0.9382  0.0378 -0.1382
  308SOL    HW1 1230   2.380   0.605   2.776 -0.6532  0.2953  1.2100
  308SOL    HW2 1231   2.238   0.663   2.771  1.8151  0.8843 -0.8487
  308SOL     MW 1232   2.292   0.594   2.766  0.8439  0.1835 -0.0541
  309SOL     OW 1233   0.507   0.529   0.283  0.2154 -0.4041  0.3043
  309SOL    HW1 1234   0.601   0.552   0.272 -0.0633 -3.0140  0.1138
  309SOL    HW2 1235   0.516   0.429   0.276  4.3076  0.9838 -3.6261
  309SOL     MW 1236   0.521   0.519   0.280  0.7185 -0.5653 -0.2394
  310SOL     OW 1237   0.369   0.532   1.830  0.3373 -0.0397 -0.2088
  310SOL    HW1 1238   0.440   0.478   1.791  1.9093 -0.9608  3.0496
  310SOL    HW2 1239   0.396   0.626   1.840  0.5331  1.9840  2.2191
  310SOL     MW 1240   0.382   0.537   1.826  0.5706  0.1058  0.5414
  311SOL     OW 1241   2.006   0.679   1.930  0.2348  0.6613 -0.4503
  311SOL    HW1 1242   1.937   0.677   1.999 -1.3212  2.6293  1.7281
  311SOL    HW2 1243   2.073   0.612   1.962 -2.4470  1.3521  0.7380
  311SOL     MW 1244   2.005   0.670   1.944 -0.3243  1.0121 -0.0061
  312SOL     OW 1245   1.722   2.479   0.161  0.1054 -0.2481 -0.0700
  312SOL    HW1 1246   1.751   2.466   0.255  0.1941  3.2501  1.2323
  312SOL    HW2 1247   1.651   2.542   0.166 -1.2625  0.9130  1.0959
  312SOL     MW 1248   1.717   2.486   0.174 -0.0633  0.3666  0.2557
  313SOL     OW 1249   0.140   1.149   3.035 -0.6833 -0.5452  0.6173
  313SOL    HW1 1250   0.092   1.181   3.110 -0.8235 -0.2327  0.7156
  313SOL    HW2 1251   0.142   1.217   2.962 -1.3395  0.1617  0.4994
  313SOL     MW 1252   0.134   1.162   3.035 -0.7884 -0.4107  0.6147
  314SOL     OW 1253   2.206   2.893   3.097  0.4631 -0.1103 -0.3160
  314SOL    HW1 1254   2.138   2.907   3.025  0.7227  0.2129 -1.7556
  314SOL    HW2 1255   2.263   2.966   3.087  2.7413  3.6557  0.1967
  314SOL     MW 1256   2.204   2.905   3.086  0.7979  0.4292 -0.4383
  315SOL     OW 1257   1.529   1.849   3.015 -0.5309 -0.3023  0.2602
  315SOL    HW1 1258   1.466   1.913   3.058 -5.3761 -0.2018  1.0396
  315SOL    HW2 1259   1.568   1.902   2.942  0.4346 -1.3305 -1.8729
  315SOL     MW 1260   1.526   1.865   3.011 -1.0428 -0.4247  0.0816
  316SOL     OW 1261   1.216   0.714   2.699  0.0853  0.0680  0.0464
  316SOL    HW1 1262   1.306   0.735   2.700 -0.9253  0.6699  3.4038
  316SOL    HW2 1263   1.187   0.707   2.787  1.2367  1.2316  1.4537
  316SOL     MW 1264   1.224   0.716   2.711  0.1039  0.3009  0.6751
  317SOL     OW 1265   0.704   1.643   2.588 -0.4351  0.3756 -0.5597
  317SOL    HW1 1266   0.759   1.559   2.600  0.9804 -1.6759 -2.2621
  317SOL    HW2 1267   0.691   1.647   2.497 -1.8807 -3.4076 -1.9446
  317SOL     MW 1268   0.709   1.632   2.577 -0.4391 -0.3942 -0.9670
  318SOL     OW 1269   1.352   0.412   2.878  0.1310  0.0848 -0.4932
  318SOL    HW1 1270   1.292   0.487   2.862 -0.7966  1.8800 -0.9002
  318SOL    HW2 1271   1.441   0.439   2.872  0.5663  0.8306 -0.0546
  318SOL     MW 1272   1.356   0.425   2.875  0.0660  0.4201 -0.4890
  319SOL     OW 1273   0.823   0.509   2.857  0.4209  0.0443  0.1408
  319SOL    HW1 1274   0.815   0.422   2.810  1.1758 -0.6239 -0.3646
  319SOL    HW2 1275   0.785   0.493   2.940 -0.4172  1.5211  0.1300
  319SOL     MW 1276   0.817   0.496   2.861  0.4099  0.1510  0.0727
  320SOL     OW 1277   1.005   1.326   1.981 -0.1322 -0.2306  0.4867
  320SOL    HW1 1278   1.073   1.277   2.028 -0.0525  0.1349 -2.0437
  320SOL    HW2 1279   1.059   1.390   1.932 -1.9739  1.9909  0.2641
  320SOL     MW 1280   1.021   1.328   1.981 -0.3647  0.1107  0.1235
  321SOL     OW 1281   1.037   0.904   3.045 -0.1202  0.1834 -0.0872
  321SOL    HW1 1282   0.993   0.872   2.965 -0.6265 -2.6765  0.9038
  321SOL    HW2 1283   1.111   0.843   3.048 -0.2258  3.0021  0.3845
  321SOL     MW 1284   1.041   0.892   3.035 -0.2009  0.1779  0.1058
  322SOL     OW 1285   1.335   0.868   1.645  0.4886  0.0304 -0.2091
  322SOL    HW1 1286   1.360   0.773   1.646  2.5345  0.1604  1.5841
  322SOL    HW2 1287   1.284   0.884   1.723  0.6844  0.3754  0.5044
  322SOL     MW 1288   1.332   0.858   1.655  0.7843  0.0931  0.1216
  323SOL     OW 1289   1.188   1.529   1.885 -0.4142  0.0053  0.1950
  323SOL    HW1 1290   1.239   1.543   1.806 -0.7796 -1.0083 -0.3317
  323SOL    HW2 1291   1.180   1.618   1.923 -1.3527  1.2137 -1.9522
  323SOL     MW 1292   1.194   1.543   1.880 -0.5862  0.0310 -0.1578
  324SOL     OW 1293   1.442   0.920   2.503  0.0554 -0.3874 -0.5544
  324SOL    HW1 1294   1.391   0.977   2.572 -0.6993 -0.2468  1.4748
  324SOL    HW2 1295   1.525   0.963   2.510 -3.4969 -1.3906  0.6894
  324SOL     MW 1296   1.446   0.933   2.513 -0.5129 -0.5012 -0.1226
  325SOL     OW 1297   1.092   0.520   2.906  0.0063  0.0487  0.1171
  325SOL    HW1 1298   1.097   0.556   2.997  0.5289 -0.7144 -0.4147
  325SOL    HW2 1299   0.999   0.536   2.883  1.2517 -0.4938 -2.6541
  325SOL     MW 1300   1.081   0.526   2.915  0.2396 -0.1236 -0.3187
  326SOL     OW 1301   0.403   1.364   2.353 -0.3930 -0.6366  0.5995
  326SOL    HW1 1302   0.490   1.355   2.313  0.1149  0.7954  0.1670
  326SOL    HW2 1303   0.391   1.462   2.341  0.0168  2.5899  1.3546
  326SOL     MW 1304   0.413   1.376   2.346 -0.2719 -0.0220  0.6420
  327SOL     OW 1305   1.956   0.753   2.430 -0.3140 -0.2807 -0.5103
  327SOL    HW1 1306   1.924   0.735   2.519  1.8609  0.5760  1.0880
  327SOL    HW2 1307   1.986   0.843   2.431 -0.2086 -1.7260 -1.4494
  327SOL     MW 1308   1.956   0.762   2.442 -0.0131 -0.3583 -0.4233
  328SOL     OW 1309   0.258   1.343   2.115  0.2395 -0.0908 -0.4476
  328SOL    HW1 1310   0.172   1.301   2.138  2.4271  1.4681  0.6268
  328SOL    HW2 1311   0.299   1.344   2.204 -1.0598 -1.1475  3.4368
  328SOL     MW 1312   0.252   1.337   2.130  0.3567 -0.0245  0.2066
  329SOL     OW 1313   0.060   0.112   1.362 -0.3354  0.3275  0.4343
  329SOL    HW1 1314   0.073   0.078   1.453 -1.8968 -0.5669 -3.0767
  329SOL    HW2 1315   0.149   0.145   1.338  0.2384 -1.9780 -2.9534
  329SOL     MW 1316   0.073   0.112   1.371 -0.4657 -0.0947 -0.4759
  330SOL     OW 1317   0.348   0.067   1.981 -0.4877  0.2729 -0.6418
  330SOL    HW1 1318   0.441   0.045   1.989 -1.0045 -0.3424 -1.3009
  330SOL    HW2 1319   0.305  -0.004   2.028 -1.8266  2.2813  0.6971
  330SOL     MW 1320   0.355   0.055   1.988 -0.7326  0.4567 -0.5521
  331SOL     OW 1321   0.769   1.236   2.371  0.2080  0.5015  0.2904
  331SOL    HW1 1322   0.729   1.301   2.309 -0.6740  1.9162 -1.1130
  331SOL    HW2 1323   0.793   1.298   2.432 -1.8781 -2.5082 -1.7179
  331SOL     MW 1324   0.767   1.252   2.371 -0.1836  0.2910 -0.1597
  332SOL     OW 1325   1.346   1.649   2.926  0.4774  0.0130  0.6729
  332SOL    HW1 1326   1.389   1.664   2.838 -2.0357  0.3347 -0.0938
  332SOL    HW2 1327   1.375   1.728   2.974  1.4742 -0.2720  3.4429
  332SOL     MW 1328   1.356   1.662   2.921  0.2773  0.0178  0.9372
  333SOL     OW 1329   1.695   1.372   2.924 -0.1225 -0.4156 -0.1781
  333SOL    HW1 1330   1.788   1.385   2.955  0.5734  0.5678 -1.6392
  333SOL    HW2 1331   1.657   1.316   2.985  1.9056 -2.1496 -1.0001
  333SOL     MW 1332   1.702   1.366   2.936  0.2369 -0.5147 -0.4793
  334SOL     OW 1333   1.330   3.065   2.642 -0.5285  0.0166  0.5806
  334SOL    HW1 1334   1.262   3.088   2.702  1.9105 -0.2771 -1.4060
  334SOL    HW2 1335   1.402   3.122   2.673 -0.4766 -1.0563  4.3508
  334SOL     MW 1336   1.330   3.076   2.654 -0.1999 -0.1637  0.8160
  335SOL     OW 1337   1.270   0.769   3.001 -0.1440  0.1287  0.3879
  335SOL    HW1 1338   1.317   0.700   3.050 -3.0375  4.0945 -2.5456
  335SOL    HW2 1339   1.344   0.802   2.948 -0.8817 -0.6821  3.9179
  335SOL     MW 1340   1.286   0.765   3.001 -0.6231  0.5450  0.4666
  336SOL     OW 1341   0.926   1.141   1.707  0.0245 -0.6109 -0.4417
  336SOL    HW1 1342   0.842   1.157   1.754  1.2676 -0.8584  0.0778
  336SOL    HW2 1343   0.988   1.097   1.776  0.7403 -0.9641  1.3325
  336SOL     MW 1344   0.923   1.137   1.722  0.2830 -0.6902 -0.1391
  337SOL     OW 1345   0.479   1.944   2.811  0.4868  0.4704  0.8356
  337SOL    HW1 1346   0.410   1.914   2.750  1.4059 -1.5924 -0.4375
  337SOL    HW2 1347   0.565   1.922   2.782  1.5896  1.5819  1.6238
  337SOL     MW 1348   0.481   1.937   2.799  0.7536  0.3449  0.7717
  338SOL     OW 1349   1.099   0.759   2.454  0.0720  0.5940  0.4895
  338SOL    HW1 1350   1.010   0.714   2.456 -0.1286  0.7801  0.3298
  338SOL    HW2 1351   1.147   0.755   2.538  1.2543 -1.0425  0.7139
  338SOL     MW 1352   1.094   0.752   2.465  0.2016  0.4026  0.4980
  339SOL     OW 1353   1.355   1.278   1.922 -0.3966 -0.0473 -0.1915
  339SOL    HW1 1354   1.365   1.221   1.847  1.9546  0.4051 -1.4164
  339SOL    HW2 1355   1.315   1.218   1.983  0.7972  0.1414  0.7560
  339SOL     MW 1356   1.351   1.263   1.920  0.0711  0.0373 -0.2281
  340SOL     OW 1357   1.312   1.530   0.090  0.0360  0.3491  0.2934
  340SOL    HW1 1358   1.331   1.567   0.003 -1.9637  3.1286 -2.8460
  340SOL    HW2 1359   1.391   1.474   0.116  1.4394 -0.3809 -1.0026
  340SOL     MW 1360   1.325   1.527   0.082 -0.0426  0.6195 -0.2918
  341SOL     OW 1361   0.131   1.368   2.824 -0.4590  0.2134 -0.4056
  341SOL    HW1 1362   0.222   1.399   2.849  0.5141  1.4215  0.8237
  341SOL    HW2 1363   0.138   1.323   2.742 -3.4912  1.3140 -0.0953
  341SOL     MW 1364   0.144   1.366   2.817 -0.7307  0.5180 -0.2025
  342SOL     OW 1365   1.376   0.335   0.036 -0.3508  0.0102  0.0354
  342SOL    HW1 1366   1.452   0.371   0.092  2.0490 -0.5505  0.1601
  342SOL    HW2 1367   1.381   0.379  -0.049  2.4228  0.5950 -1.4990
  342SOL     MW 1368   1.387   0.346   0.033  0.3318  0.0134 -0.1506
  343SOL     OW 1369   0.236   0.259   2.162  0.7942  0.2674 -0.0010
  343SOL    HW1 1370   0.297   0.194   2.120 -0.4921 -1.7807  0.0375
  343SOL    HW2 1371   0.147   0.223   2.159 -1.1553 -0.0425 -0.3515
  343SOL     MW 1372   0.232   0.246   2.156  0.3673 -0.0437 -0.0422
  344SOL     OW 1373   1.700   2.033   0.178 -0.2216  0.6457  0.1338
  344SOL    HW1 1374   1.706   2.086   0.103 -1.3906 -3.8324 -0.7735
  344SOL    HW2 1375   1.622   1.988   0.175 -2.9361 -2.2823  1.3474
  344SOL     MW 1376   1.691   2.034   0.168 -0.7340 -0.3315  0.1742
  345SOL     OW 1377   0.649   1.623   2.322 -0.3454 -0.0892  0.1249
  345SOL    HW1 1378   0.556   1.617   2.295  0.6662 -0.5611 -2.3185
  345SOL    HW2 1379   0.702   1.589   2.251  4.4196  0.3880  0.5854
  345SOL     MW 1380   0.643   1.618   2.309  0.4168 -0.0885 -0.1367
  346SOL     OW 1381   1.685   1.161   0.043 -0.4566  0.5026  0.1522
  346SOL    HW1 1382   1.781   1.179   0.066 -0.2955 -2.0282 -1.1937
  346SOL    HW2 1383   1.662   1.072   0.081  4.6251 -0.9408  3.1178
  346SOL     MW 1384   1.695   1.152   0.051  0.2351 -0.0218  0.3659
  347SOL     OW 1385   1.179   0.651   2.222  0.3604  0.4053 -0.3932
  347SOL    HW1 1386   1.221   0.572   2.264 -1.0084  1.2578  0.0323
  347SOL    HW2 1387   1.165   0.700   2.305  2.1527  1.7575 -1.5239
  347SOL     MW 1388   1.183   0.647   2.239  0.4163  0.6962 -0.4862
  348SOL     OW 1389   1.303   2.582   1.960 -0.2629 -0.1175 -0.0514
  348SOL    HW1 1390   1.307   2.512   2.036 -0.6845 -2.1297 -1.5110
  348SOL    HW2 1391   1.359   2.653   2.001  0.7975  1.9301  2.2592
  348SOL     MW 1392   1.311   2.582   1.975 -0.1786 -0.1129  0.0609
  349SOL     OW 1393   1.482   0.174   2.762 -0.5083  0.0601 -0.3945
  349SOL    HW1 1394   1.432   0.245   2.811  0.8034 -1.8140  3.5636
  349SOL    HW2 1395   1.490   0.109   2.832 -2.5121 -1.8904  0.2444
  349SOL     MW 1396   1.477   0.175   2.778 -0.5996 -0.4445  0.2120
  350SOL     OW 1397   1.865   0.635   2.648  0.0618 -0.0336 -0.2133
  350SOL    HW1 1398   1.804   0.575   2.604 -0.4913  2.0387 -0.4244
  350SOL    HW2 1399   1.948   0.580   2.676  1.0900 -0.2386 -0.0395
  350SOL     MW 1400   1.868   0.620   2.646  0.1245  0.2128 -0.2183
  351SOL     OW 1401   0.090   1.194   1.558  0.6712 -0.1141  0.4829
  351SOL    HW1 1402   0.079   1.113   1.609 -3.0462 -0.5304 -0.6809
  351SOL    HW2 1403   0.152   1.247   1.614 -0.0575  2.6792  0.4200
  351SOL     MW 1404   0.097   1.190   1.572  0.0846  0.1995  0.3210
  352SOL     OW 1405   0.744   1.816   2.783  0.0447 -0.5401  0.5756
  352SOL    HW1 1406   0.761   1.767   2.865  2.5120 -1.1506  0.5885
  352SOL    HW2 1407   0.741   1.753   2.710 -2.0894 -0.0766 -1.1172
  352SOL     MW 1408   0.746   1.801   2.784  0.0886 -0.5595  0.3539
  353SOL     OW 1409   3.085   2.565   2.632  0.2517 -0.2442  0.2871
  353SOL    HW1 1410   3.179   2.551   2.633  1.7419 -0.7443 -0.2202
  353SOL    HW2 1411   3.078   2.648   2.588 -0.8927 -1.0633  2.0823
  353SOL     MW 1412   3.096   2.574   2.627  0.2973 -0.4183  0.4570
  354SOL     OW 1413   0.375   2.412   0.825 -0.4805 -0.1152 -0.5338
  354SOL    HW1 1414   0.424   2.408   0.911  0.6329 -0.4393 -0.2690
  354SOL    HW2 1415   0.292   2.358   0.843  0.3992  1.4713 -2.1775
  354SOL     MW 1416   0.371   2.404   0.838 -0.2175  0.0514 -0.7157
  355SOL     OW 1417   0.123   2.223   0.394  0.2912  0.4045  0.5711
  355SOL    HW1 1418   0.029   2.177   0.385 -1.8280  2.9792 -0.6110
  355SOL    HW2 1419   0.125   2.276   0.472 -1.3021  0.4038 -2.2661
  355SOL     MW 1420   0.111   2.224   0.403 -0.1987  0.7441  0.0408
  356SOL     OW 1421   0.748   2.961   1.043 -0.2832  0.6846 -0.5543
  356SOL    HW1 1422   0.822   2.947   0.984  0.1810  1.8508  0.9847
  356SOL    HW2 1423   0.673   2.943   0.984 -1.7087 -1.9467 -2.1324
  356SOL     MW 1424   0.748   2.957   1.028 -0.4100  0.4913 -0.5594
  357SOL     OW 1425   1.841   2.790   0.470  0.1765  0.0229  0.4443
  357SOL    HW1 1426   1.874   2.751   0.552 -0.0972 -0.6981  0.7926
  357SOL    HW2 1427   1.918   2.767   0.419 -1.4105  0.5804 -0.4213
  357SOL     MW 1428   1.856   2.782   0.474 -0.0690  0.0013  0.3761
  358SOL     OW 1429   0.421   0.148   1.065  0.0682 -0.1274  0.0920
  358SOL    HW1 1430   0.520   0.140   1.056  0.8337 -0.2500 -1.7165
  358SOL    HW2 1431   0.385   0.182   0.983 -1.8621 -0.1731  0.0138
  358SOL     MW 1432   0.429   0.152   1.053 -0.0855 -0.1496 -0.1569
  359SOL     OW 1433   0.883   2.968   1.876  0.6418 -0.9474  0.5692
  359SOL    HW1 1434   0.889   2.872   1.906  1.9591 -1.6339 -3.1816
  359SOL    HW2 1435   0.888   2.955   1.778  3.3476 -0.3977 -2.7810
  359SOL     MW 1436   0.885   2.954   1.867  1.1726 -0.9654 -0.3677
  360SOL     OW 1437   0.582   2.763   0.930 -0.5322 -0.1025 -0.4152
  360SOL    HW1 1438   0.598   2.718   0.850  1.0151  0.4963 -1.7352
  360SOL    HW2 1439   0.613   2.698   0.998 -0.8116  1.3875 -0.1605
  360SOL     MW 1440   0.588   2.748   0.928 -0.3649  0.1731 -0.5557
  361SOL     OW 1441   0.164   2.701   1.391 -0.4808  0.5708 -0.3521
  361SOL    HW1 1442   0.095   2.754   1.439 -1.7719 -1.2879 -1.7565
  361SOL    HW2 1443   0.237   2.756   1.383 -1.5368 -0.2483 -1.1028
  361SOL     MW 1444   0.165   2.715   1.396 -0.7905  0.2175 -0.6364
  362SOL     OW 1445   1.370   2.427   0.619  0.1819  0.0755 -0.1997
  362SOL    HW1 1446   1.415   2.372   0.685  0.6641 -0.7195  1.0820
  362SOL    HW2 1447   1.427   2.493   0.574  0.0121  1.7518 -2.3682
  362SOL     MW 1448   1.383   2.428   0.622  0.2231  0.1918 -0.3167
  363SOL     OW 1449   0.316   3.097   0.675  0.1585 -0.2932 -0.5375
  363SOL    HW1 1450   0.311   3.026   0.740 -1.7981  0.6638  1.7949
  363SOL    HW2 1451   0.233   3.087   0.629 -1.4415 -1.2261  0.2143
  363SOL     MW 1452   0.304   3.087   0.678 -0.3108 -0.2901 -0.1306
  364SOL     OW 1453   0.787   0.207   0.151 -0.7263  0.1280  0.4021
  364SOL    HW1 1454   0.726   0.152   0.195 -2.3694  0.6188 -2.0618
  364SOL    HW2 1455   0.734   0.287   0.113 -1.2067  1.8763 -0.7767
  364SOL     MW 1456   0.772   0.210   0.152 -1.0065  0.4234 -0.0785
  365SOL     OW 1457   0.882   2.027   1.286 -0.0277 -0.0421 -0.1828
  365SOL    HW1 1458   0.858   2.110   1.245 -0.1662  0.7216  1.0638
  365SOL    HW2 1459   0.892   1.968   1.210 -2.0443 -0.4858 -4.2298
  365SOL     MW 1460   0.880   2.030   1.271 -0.3120  0.0001 -0.5523
  366SOL     OW 1461   2.892   2.659   0.957 -0.6051 -0.0804 -0.3232
  366SOL    HW1 1462   2.968   2.631   1.006  2.8918  0.4588  2.0052
  366SOL    HW2 1463   2.924   2.705   0.875  1.9817 -0.4576  1.1319
  366SOL     MW 1464   2.906   2.662   0.953  0.1976 -0.0590  0.1760
  367SOL     OW 1465   1.286   3.022   1.016  0.5033  0.7217 -0.0935
  367SOL    HW1 1466   1.372   3.058   1.004 -2.5571 -0.9827  1.9596
  367SOL    HW2 1467   1.264   3.013   0.926 -0.6217  0.4671  1.3128
  367SOL     MW 1468   1.295   3.025   1.002 -0.0489  0.4632  0.3629
  368SOL     OW 1469   1.701   0.424   0.598  0.2001 -0.4576 -0.3206
  368SOL    HW1 1470   1.777   0.381   0.560  2.8100  2.0864  1.0760
  368SOL    HW2 1471   1.708   0.515   0.568  0.3290 -2.0975  1.6966
  368SOL     MW 1472   1.712   0.430   0.589  0.5615 -0.3383  0.1298
  369SOL     OW 1473   0.155   2.405   1.756  0.1201  0.4631  0.0943
  369SOL    HW1 1474   0.250   2.395   1.767  2.0538 -1.8356  0.6143
  369SOL    HW2 1475   0.146   2.499   1.745  2.4148  0.0439  0.6537
  369SOL     MW 1476   0.166   2.416   1.756  0.6780  0.1045  0.2367
  370SOL     OW 1477   0.716   0.127   1.072 -0.2189 -0.2661  0.5295
  370SOL    HW1 1478   0.741   0.150   0.982  2.9402  3.3877  0.8405
  370SOL    HW2 1479   0.734   0.027   1.071 -1.1211  0.4933 -1.8077
  370SOL     MW 1480   0.722   0.117   1.060  0.0789  0.3162  0.2622
  371SOL     OW 1481   1.120   2.896   1.468 -0.0732 -0.4135 -0.4178
  371SOL    HW1 1482   1.131   2.804   1.439 -2.4716  0.4666 -0.4425
  371SOL    HW2 1483   1.154   2.960   1.405  2.9619  1.1679  0.6607
  371SOL     MW 1484   1.126   2.892   1.456  0.0108 -0.0887 -0.2788
  372SOL     OW 1485   0.801   2.312   0.464  0.2093 -0.2283  0.0055
  372SOL    HW1 1486   0.765   2.233   0.506 -1.0297  0.8365 -0.8410
  372SOL    HW2 1487   0.861   2.285   0.394  1.6041  0.1416  1.5284
  372SOL     MW 1488   0.804   2.298   0.461  0.2298 -0.0390  0.0947
  373SOL     OW 1489   2.812   2.978   1.410 -0.6187 -0.5415 -0.0727
  373SOL    HW1 1490   2.902   2.953   1.401 -2.9547  0.7288 -0.1071
  373SOL    HW2 1491   2.801   3.057   1.368  0.0454 -0.8005 -2.3518
  373SOL     MW 1492   2.822   2.985   1.404 -0.8393 -0.4081 -0.3779
  374SOL     OW 1493   1.596   0.481   0.254 -0.2167 -0.2605 -0.1612
  374SOL    HW1 1494   1.683   0.440   0.243  1.7580 -0.4959 -0.7487
  374SOL    HW2 1495   1.556   0.432   0.322  1.7792 -0.3519 -0.7316
  374SOL     MW 1496   1.602   0.469   0.262  0.3072 -0.3036 -0.3139
  375SOL     OW 1497   1.104   2.059   2.221  0.2045 -0.4125 -0.2021
  375SOL    HW1 1498   1.135   2.048   2.314  1.4488  0.3984 -1.2611
  375SOL    HW2 1499   1.019   2.018   2.208 -0.2623 -0.9856 -0.2129
  375SOL     MW 1500   1.097   2.052   2.232  0.3071 -0.3811 -0.3432
  376SOL     OW 1501   0.829   2.520   0.139  0.7486 -0.1878  0.1931
  376SOL    HW1 1502   0.755   2.496   0.201 -1.3657  1.2329  3.4445
  376SOL    HW2 1503   0.832   2.457   0.064 -0.2992 -2.4063 -1.5593
  376SOL     MW 1504   0.820   2.509   0.138  0.3314 -0.2931  0.3909
  377SOL     OW 1505   1.342   2.090   0.932  0.0944  0.0341  0.4907
  377SOL    HW1 1506   1.257   2.083   0.887  0.5476  2.0878  0.0547
  377SOL    HW2 1507   1.360   2.006   0.977 -1.0718  1.2081 -0.5559
  377SOL     MW 1508   1.333   2.078   0.932  0.0003  0.4600  0.2951
  378SOL     OW 1509   0.883   2.872   1.620 -0.4955  0.2366  1.1904
  378SOL    HW1 1510   0.890   2.775   1.606  1.3124 -3.4570 -0.3332
  378SOL    HW2 1511   0.951   2.909   1.565  2.4650  2.2064  1.9147
  378SOL     MW 1512   0.893   2.864   1.611  0.1337  0.0092  1.0849
  379SOL     OW 1513   1.060   1.559   2.295  0.0211  0.0111  0.1685
  379SOL    HW1 1514   0.979   1.528   2.248 -0.7017 -1.8144  2.5070
  379SOL    HW2 1515   1.121   1.549   2.221  0.4171  0.1707 -1.5665
  379SOL     MW 1516   1.057   1.553   2.279 -0.0220 -0.2087  0.2481
  380SOL     OW 1517   0.903   0.132   1.503  0.6742  0.1573  0.8497
  380SOL    HW1 1518   0.929   0.067   1.435  1.6519  0.6262  1.5612
  380SOL    HW2 1519   0.948   0.113   1.586 -1.6065 -1.2470 -0.2751
  380SOL     MW 1520   0.912   0.121   1.505  0.5023  0.0339  0.7952
  381SOL     OW 1521   0.836   2.057   0.897 -0.0332  0.1101  0.6758
  381SOL    HW1 1522   0.928   2.070   0.864  0.7391  1.3815  0.3060
  381SOL    HW2 1523   0.822   2.118   0.967 -0.1429 -1.9939 -0.0445
  381SOL     MW 1524   0.846   2.067   0.902  0.0542  0.0002  0.5320
  382SOL     OW 1525   0.864   0.121   0.601  0.1367 -0.2734 -0.2603
  382SOL    HW1 1526   0.858   0.161   0.692  2.4352 -0.2392  1.9746
  382SOL    HW2 1527   0.819   0.039   0.604 -0.2259  1.1539  0.7441
  382SOL     MW 1528   0.857   0.116   0.613  0.3922 -0.0806  0.1671
  383SOL     OW 1529   0.646   0.011   0.311  0.1255 -0.5054  0.1003
  383SOL    HW1 1530   0.685  -0.063   0.267 -2.7243  1.7897 -1.6786
  383SOL    HW2 1531   0.600  -0.032   0.381  3.0887 -0.0064 -1.2487
  383SOL     MW 1532   0.645  -0.005   0.315  0.1405 -0.1367 -0.3124
  384SOL     OW 1533   0.771   2.969   0.607  0.3915 -0.1280  0.2340
  384SOL    HW1 1534   0.826   2.958   0.690 -4.6857 -2.5863  0.5155
  384SOL    HW2 1535   0.715   2.890   0.607  1.8516  0.9441 -1.6339
  384SOL     MW 1536   0.770   2.957   0.618 -0.0858 -0.3109  0.0247
  385SOL     OW 1537   1.366   2.061   1.532  0.4222 -0.2549  0.2402
  385SOL    HW1 1538   1.448   2.077   1.587  1.5201  2.5375  2.2172
  385SOL    HW2 1539   1.330   1.979   1.566 -0.6494 -1.2916 -1.0775
  385SOL     MW 1540   1.372   2.053   1.544  0.4257 -0.0232  0.3272
  386SOL     OW 1541   1.463   0.395   0.848 -0.0066 -0.6179 -0.1550
  386SOL    HW1 1542   1.405   0.434   0.915 -0.5613 -1.9983 -0.8825
  386SOL    HW2 1543   1.555   0.415   0.865 -0.6354  0.0123 -3.1795
  386SOL     MW 1544   1.468   0.403   0.859 -0.1628 -0.7169 -0.6500
  387SOL     OW 1545   0.790   2.263   1.569  0.4608  0.5311  0.0528
  387SOL    HW1 1546   0.869   2.281   1.513  2.3450  0.1619 -0.5728
  387SOL    HW2 1547   0.783   2.167   1.569 -0.8283  3.9377  0.6897
  387SOL     MW 1548   0.799   2.253   1.561  0.5393  0.9318  0.0543
  388SOL     OW 1549   1.454   2.804   1.487  0.0980 -0.1346  0.6312
  388SOL    HW1 1550   1.405   2.841   1.412  0.6094  1.2622  3.5925
  388SOL    HW2 1551   1.530   2.767   1.446  1.3787  1.4097  1.1740
  388SOL     MW 1552   1.457   2.804   1.472  0.3344  0.2535  1.0935
  389SOL     OW 1553   0.460   0.121   3.060 -0.4627 -0.4781 -0.2101
  389SOL    HW1 1554   0.521   0.046   3.057  0.1779 -1.5238  1.6941
  389SOL    HW2 1555   0.467   0.170   2.972  0.2916 -0.2848  0.6551
  389SOL     MW 1556   0.469   0.117   3.048 -0.2786 -0.5906  0.1553
  390SOL     OW 1557   1.374   0.012   0.716  0.0034 -0.2095 -0.3161
  390SOL    HW1 1558   1.412   0.002   0.630  0.0935 -0.0872 -0.1344
  390SOL    HW2 1559   1.448   0.059   0.772 -1.3903 -2.6957  2.7133
  390SOL     MW 1560   1.388   0.017   0.712 -0.1686 -0.5214  0.1075
  391SOL     OW 1561   0.310   2.158   1.516  0.0186 -0.2506 -0.2620
  391SOL    HW1 1562   0.293   2.169   1.613 -0.9889 -0.9714  0.3354
  391SOL    HW2 1563   0.269   2.232   1.467 -2.1350 -1.6538 -0.7920
  391SOL     MW 1564   0.303   2.169   1.522 -0.3985 -0.5309 -0.2531
  392SOL     OW 1565   1.941   2.148   0.317  0.3520 -0.3876  0.2754
  392SOL    HW1 1566   2.002   2.214   0.351  0.7774 -0.3992  2.3757
  392SOL    HW2 1567   1.858   2.187   0.308  1.0015 -0.6683 -1.5395
  392SOL     MW 1568   1.938   2.162   0.320  0.4938 -0.4261  0.3131
  393SOL     OW 1569   0.237   2.952   2.814 -0.4313 -0.1382 -0.5015
  393SOL    HW1 1570   0.326   2.942   2.776 -0.1165 -2.5723  0.0156
  393SOL    HW2 1571   0.229   3.045   2.836 -0.2191  0.9557 -0.1764
  393SOL     MW 1572   0.247   2.963   2.812 -0.3617 -0.3151 -0.3904
  394SOL     OW 1573   0.992   1.781   1.558 -0.5584 -0.4433  0.2048
  394SOL    HW1 1574   1.038   1.792   1.644 -2.1399  0.5489 -0.5656
  394SOL    HW2 1575   0.916   1.838   1.563 -1.1460 -4.0117  2.1475
  394SOL     MW 1576   0.988   1.790   1.570 -0.8446 -0.7832  0.3595
  395SOL     OW 1577   0.956   2.947   2.714  0.0393  0.5148  0.3623
  395SOL    HW1 1578   1.014   3.003   2.776 -0.3808 -2.6367  0.4483
  395SOL    HW2 1579   1.016   2.883   2.674  1.1777 -1.9322 -0.2869
  395SOL     MW 1580   0.971   2.946   2.717  0.1340 -0.2239  0.2880
  396SOL     OW 1581   0.717   1.871   2.354 -0.4114 -0.0761 -0.1141
  396SOL    HW1 1582   0.775   1.867   2.432  1.2358 -5.0575 -0.6902
  396SOL    HW2 1583   0.691   1.777   2.345 -3.5586 -0.5862  1.1774
  396SOL     MW 1584   0.721   1.858   2.363 -0.6093 -0.8007 -0.0197
  397SOL     OW 1585   1.015   2.287   1.379  0.2747 -0.1871  0.1695
  397SOL    HW1 1586   1.061   2.300   1.300  0.7739  0.5391  2.0397
  397SOL    HW2 1587   1.093   2.298   1.434  1.5115  1.7568 -0.0803
  397SOL     MW 1588   1.031   2.290   1.375  0.5037  0.1652  0.3833
  398SOL     OW 1589   0.653   2.729   0.657  0.4198 -0.3966  0.3500
  398SOL    HW1 1590   0.610   2.721   0.570 -0.5172  0.2980 -0.9817
  398SOL    HW2 1591   0.713   2.655   0.679  2.3132  1.0195 -1.0254
  398SOL     MW 1592   0.655   2.718   0.648  0.5460 -0.1181 -0.0072
  399SOL     OW 1593   0.316   2.059   0.374 -0.0593 -0.1769  0.8851
  399SOL    HW1 1594   0.239   2.114   0.369 -0.9283 -1.0920  0.3987
  399SOL    HW2 1595   0.379   2.105   0.316  1.2645  1.3888 -1.3970
  399SOL     MW 1596   0.314   2.072   0.366  0.0007 -0.0911  0.5198
  400SOL     OW 1597   0.595   1.933   0.103  0.2655 -0.1713  0.4396
  400SOL    HW1 1598   0.560   2.022   0.142 -1.9863  2.2714  3.2608
  400SOL    HW2 1599   0.580   1.880   0.183 -0.0483 -1.3804  1.6972
  400SOL     MW 1600   0.588   1.938   0.119 -0.0730 -0.0085  0.9778
  401SOL     OW 1601   0.856   2.031   3.089 -0.3283 -0.2832 -0.4619
  401SOL    HW1 1602   0.939   1.984   3.112 -1.4478 -1.9954 -1.8648
  401SOL    HW2 1603   0.779   1.979   3.115  0.3978  1.3500  1.2206
  401SOL     MW 1604   0.857   2.018   3.095 -0.3802 -0.2937 -0.4250
  402SOL     OW 1605   0.611   3.005   1.823 -0.5968  0.0663  0.4754
  402SOL    HW1 1606   0.699   2.989   1.852  0.7698 -1.8375 -2.3570
  402SOL    HW2 1607   0.622   3.060   1.750 -0.8751  1.2707  2.1264
  402SOL     MW 1608   0.624   3.010   1.817 -0.4532 -0.0260  0.3195
  403SOL     OW 1609   0.147   0.496   0.407  0.3075  0.0911  0.7440
  403SOL    HW1 1610   0.219   0.488   0.473 -1.4619 -2.0479  1.0121
  403SOL    HW2 1611   0.176   0.445   0.337 -1.4921  0.4144  0.3808
  403SOL     MW 1612   0.160   0.488   0.406 -0.1634 -0.1485  0.7314
  404SOL     OW 1613   0.937   2.959   0.831  0.4501  0.2340 -0.2814
  404SOL    HW1 1614   1.010   2.890   0.829 -0.3202  0.5251 -0.4448
  404SOL    HW2 1615   0.982   3.034   0.792  0.5466  0.1895 -0.4009
  404SOL     MW 1616   0.953   2.960   0.826  0.3612  0.2665 -0.3187
  405SOL     OW 1617   0.526   2.464   1.514  0.1816  0.0429  0.0803
  405SOL    HW1 1618   0.553   2.552   1.475 -2.0388 -0.5717 -0.0836
  405SOL    HW2 1619   0.567   2.392   1.469 -0.9059  1.3298 -0.1367
  405SOL     MW 1620   0.535   2.466   1.503 -0.2548  0.1316  0.0300
  406SOL     OW 1621   0.463   2.352   1.089  0.5452  0.2572 -0.1489
  406SOL    HW1 1622   0.374   2.344   1.125 -0.9310 -2.1608 -1.5263
  406SOL    HW2 1623   0.499   2.271   1.129 -1.2472 -1.4224  3.1749
  406SOL     MW 1624   0.456   2.340   1.099  0.1139 -0.2834  0.1079
  407SOL     OW 1625   0.050   2.638   1.093  0.2985 -0.2427 -0.4070
  407SOL    HW1 1626   0.092   2.663   1.175  1.9979  2.1336  0.9367
  407SOL    HW2 1627   0.109   2.662   1.019  0.6446 -0.9335  0.6841
  407SOL     MW 1628   0.063   2.645   1.094  0.5684 -0.0203 -0.0858
  408SOL     OW 1629   2.135   2.152   0.700 -0.1277  0.5310 -0.2412
  408SOL    HW1 1630   2.100   2.161   0.795 -1.7857 -0.1954  1.0485
  408SOL    HW2 1631   2.080   2.094   0.635  0.0116  0.2730  0.3985
  408SOL     MW 1632   2.123   2.146   0.704 -0.3281  0.4011  0.0134
  409SOL     OW 1633   1.600   0.094   0.836 -0.2952  0.1866  0.3107
  409SOL    HW1 1634   1.659   0.168   0.818  1.8193 -0.4177 -2.2145
  409SOL    HW2 1635   1.596   0.083   0.931 -0.3617 -2.0509  0.5661
  409SOL     MW 1636   1.607   0.102   0.846 -0.0250 -0.1883  0.0112
  410SOL     OW 1637   1.098   2.426   1.154 -0.5771  0.3977  0.3204
  410SOL    HW1 1638   1.034   2.476   1.106  0.3119  1.3423 -0.0285
  410SOL    HW2 1639   1.162   2.389   1.092  0.3481  0.4798  0.8715
  410SOL     MW 1640   1.098   2.427   1.139 -0.3378  0.5332  0.3471
  411SOL     OW 1641   1.989   2.936   2.914  0.1728  0.1286  0.2762
  411SOL    HW1 1642   1.989   2.925   2.818 -0.8918 -0.6309 -1.0709
  411SOL    HW2 1643   1.948   3.021   2.933  0.4132 -1.7112 -1.5894
  411SOL     MW 1644   1.984   2.945   2.904  0.0640 -0.2144 -0.1477
  412SOL     OW 1645   1.034   2.241   0.628 -0.9331 -0.3441 -0.6052
  412SOL    HW1 1646   1.088   2.319   0.652  2.5240 -0.7974 -0.4493
  412SOL    HW2 1647   0.951   2.278   0.615 -0.4867  0.7453 -1.1003
  412SOL     MW 1648   1.030   2.256   0.630 -0.4181 -0.2602 -0.6500
  413SOL     OW 1649   0.629   2.694   0.035 -0.4222  0.0826 -0.3492
  413SOL    HW1 1650   0.699   2.642   0.081  2.5049  0.6423  0.4231
  413SOL    HW2 1651   0.626   2.671  -0.061 -1.6937  0.0664  0.0872
  413SOL     MW 1652   0.638   2.684   0.028 -0.2038  0.1543 -0.1898
  414SOL     OW 1653   2.037   2.988   1.103  0.2612 -0.5333  0.2877
  414SOL    HW1 1654   2.056   3.081   1.097 -3.0676 -0.4503 -0.6859
  414SOL    HW2 1655   2.052   2.966   1.014  1.5186  1.1063 -0.5364
  414SOL     MW 1656   2.042   2.997   1.090 -0.0121 -0.3060  0.0505
  415SOL     OW 1657   1.645   2.840   1.136  0.5527 -0.1541  0.4428
  415SOL    HW1 1658   1.718   2.846   1.199 -1.5900 -0.3712  1.1465
  415SOL    HW2 1659   1.669   2.778   1.068 -0.1299  2.6408 -0.4528
  415SOL     MW 1660   1.658   2.832   1.136  0.1799  0.1860  0.4175
  416SOL     OW 1661   0.630   1.782   1.430 -0.0029  0.6787 -0.1994
  416SOL    HW1 1662   0.539   1.773   1.445 -1.3307  0.3451  2.3715
  416SOL    HW2 1663   0.659   1.712   1.368  0.1136  0.2089 -0.0859
  416SOL     MW 1664   0.622   1.772   1.424 -0.1627  0.5727  0.1548
  417SOL     OW 1665   0.940   0.057   2.050 -0.5683 -0.0491  0.4940
  417SOL    HW1 1666   0.864   0.068   2.102  0.3227 -0.3371 -3.4474
  417SOL    HW2 1667   0.912   0.007   1.975  0.5672 -0.9892  0.7368
  417SOL     MW 1668   0.926   0.052   2.047 -0.3009 -0.2111  0.0060
  418SOL     OW 1669   0.792   2.883   0.179  0.2923 -0.1176  0.0529
  418SOL    HW1 1670   0.865   2.855   0.121 -0.2743 -1.7386 -0.1614
  418SOL    HW2 1671   0.715   2.835   0.136 -1.2077 -0.9917  2.8350
  418SOL     MW 1672   0.791   2.873   0.165  0.0197 -0.4468  0.3917
  419SOL     OW 1673   0.633   2.687   1.326  0.4168 -0.0729 -0.4972
  419SOL    HW1 1674   0.645   2.772   1.361 -2.1544 -1.1173  0.6638
  419SOL    HW2 1675   0.720   2.654   1.346  1.2872 -0.9350  1.2894
  419SOL     MW 1676   0.646   2.694   1.333  0.1924 -0.3245 -0.1083
  420SOL     OW 1677   0.814   2.237   1.104  0.6009 -0.3510 -0.0043
  420SOL    HW1 1678   0.768   2.275   1.183 -0.0823  0.5126 -1.3293
  420SOL    HW2 1679   0.852   2.311   1.060  3.5264 -2.4672  2.0767
  420SOL     MW 1680   0.813   2.252   1.108  0.8967 -0.5162  0.0955
  421SOL     OW 1681   2.900   0.157   0.094  0.8321 -0.7623 -0.1550
  421SOL    HW1 1682   2.828   0.142   0.035  1.1201  0.7533  2.2000
  421SOL    HW2 1683   2.961   0.084   0.104 -1.1713 -0.8820  0.1297
  421SOL     MW 1684   2.899   0.145   0.088  0.6057 -0.5782  0.1933
  422SOL     OW 1685   0.870   2.464   0.976  0.3995 -0.7507  0.1724
  422SOL    HW1 1686   0.783   2.494   1.000  1.8514 -2.6709 -1.8897
  422SOL    HW2 1687   0.878   2.494   0.888  0.6369  0.7022  1.2729
  422SOL     MW 1688   0.860   2.472   0.968  0.6224 -0.8124  0.0456
  423SOL     OW 1689   1.521   0.031   0.484  0.3638  0.0865  0.2722
  423SOL    HW1 1690   1.539  -0.006   0.395  1.8400  0.8322 -1.7111
  423SOL    HW2 1691   1.509   0.122   0.468 -1.7904 -0.0776 -2.1007
  423SOL     MW 1692   1.522   0.038   0.470  0.2743  0.1633 -0.3026
  424SOL     OW 1693   0.656   2.289   1.346 -0.6935  0.5686  0.4035
  424SOL    HW1 1694   0.580   2.232   1.339  0.6059 -1.8785 -2.0248
  424SOL    HW2 1695   0.705   2.263   1.425  1.5196 -2.7860 -2.1138
  424SOL     MW 1696   0.652   2.278   1.356 -0.2301 -0.1969 -0.2491
  425SOL     OW 1697   1.709   2.797   2.051  0.2415 -0.4189  0.1168
  425SOL    HW1 1698   1.733   2.823   1.957  3.0893 -0.0897 -1.2484
  425SOL    HW2 1699   1.748   2.711   2.071  1.6336  0.6257  2.3492
  425SOL     MW 1700   1.718   2.789   2.042  0.8009 -0.2377  0.2312
  426SOL     OW 1701   0.866   1.678   1.934 -0.7801  0.3485 -0.2962
  426SOL    HW1 1702   0.792   1.670   1.866 -3.1373  0.3911  1.4179
  426SOL    HW2 1703   0.829   1.744   1.987  2.0387 -3.0439  1.6560
  426SOL     MW 1704   0.851   1.686   1.932 -0.7192 -0.0935  0.1875
  427SOL     OW 1705   0.372   1.761   1.861 -0.1620 -0.3981 -0.1608
  427SOL    HW1 1706   0.404   1.683   1.815  0.3064  3.9995  1.6376
  427SOL    HW2 1707   0.341   1.721   1.946 -1.8644 -0.8398  0.0360
  427SOL     MW 1708   0.372   1.745   1.866 -0.3248  0.1239  0.1025
  428SOL     OW 1709   0.656   2.553   1.090 -0.0457 -0.4151  0.6384
  428SOL    HW1 1710   0.592   2.478   1.099 -0.8009 -1.5301  0.0360
  428SOL    HW2 1711   0.654   2.585   1.177 -2.3840  0.5707  0.1133
  428SOL     MW 1712   0.647   2.548   1.103 -0.4539 -0.4321  0.4896
  429SOL     OW 1713   1.194   2.765   1.087 -0.0302  0.5617  0.1051
  429SOL    HW1 1714   1.124   2.769   1.152  0.0483  0.8026  0.5367
  429SOL    HW2 1715   1.210   2.856   1.078 -1.1437  0.3687 -1.1028
  429SOL     MW 1716   1.187   2.778   1.094 -0.1668  0.5680  0.0027
  430SOL     OW 1717   1.167   2.826   0.813  0.5465  0.0972 -0.2406
  430SOL    HW1 1718   1.186   2.765   0.885  0.2541  0.4400 -0.7024
  430SOL    HW2 1719   1.146   2.769   0.741 -2.9347  0.0772 -0.9094
  430SOL     MW 1720   1.167   2.811   0.813  0.0486  0.1398 -0.3897
  431SOL     OW 1721   0.323   1.914   1.109 -0.3398 -0.0777  0.3168
  431SOL    HW1 1722   0.396   1.851   1.112  3.4619 -0.4324  0.2092
  431SOL    HW2 1723   0.312   1.932   1.019  0.4105 -1.6649 -0.5680
  431SOL     MW 1724   0.331   1.908   1.098  0.2608 -0.3339  0.1859
  432SOL     OW 1725   0.023   3.094   1.118 -0.3706  0.1448 -0.0447
  432SOL    HW1 1726   0.040   3.149   1.196 -2.2899  1.3586  1.8887
  432SOL    HW2 1727  -0.031   3.021   1.138  3.2053  2.6361  0.9345
  432SOL     MW 1728   0.018   3.092   1.131 -0.1521  0.6336  0.3396
  433SOL     OW 1729   0.636   2.925   1.493 -0.0359  0.3774  0.0813
  433SOL    HW1 1730   0.641   3.019   1.510  0.5641  1.8546 -0.5997
  433SOL    HW2 1731   0.710   2.876   1.529  2.1485 -1.3895  3.8629
  433SOL     MW 1732   0.646   2.931   1.500  0.3315  0.3391  0.4904
  434SOL     OW 1733   1.489   2.831   1.741 -0.4033 -0.3416  0.8118
  434SOL    HW1 1734   1.404   2.874   1.765  0.4443  2.3743  1.3594
  434SOL    HW2 1735   1.465   2.813   1.646 -0.0249 -1.0223  1.8136
  434SOL     MW 1736   1.474   2.834   1.732 -0.2415 -0.0731  1.0162
  435SOL     OW 1737   2.702   1.782   0.256  0.1334  0.6047  1.2362
  435SOL    HW1 1738   2.761   1.839   0.200 -0.9550 -0.1154  2.5164
  435SOL    HW2 1739   2.621   1.812   0.232  0.8040 -0.0943 -0.7711
  435SOL     MW 1740   2.699   1.794   0.246  0.0783  0.4175  1.1402
  436SOL     OW 1741   1.345   2.742   0.358  0.3052  0.7952  0.0859
  436SOL    HW1 1742   1.407   2.717   0.424 -1.7846  1.2720 -2.5104
  436SOL    HW2 1743   1.317   2.834   0.363  2.3786  2.5560 -2.3045
  436SOL     MW 1744   1.349   2.751   0.368  0.3030  1.0904 -0.5721
  437SOL     OW 1745   0.927   3.042   1.297 -0.4086  0.0996  0.1880
  437SOL    HW1 1746   0.961   3.103   1.233  0.4072  2.7980  1.9171
  437SOL    HW2 1747   0.941   2.952   1.263 -3.1555  2.3691 -1.7494
  437SOL     MW 1748   0.933   3.038   1.284 -0.6634  0.7551  0.1605
  438SOL     OW 1749   0.875   2.714   1.967 -0.5896  0.0875 -0.0628
  438SOL    HW1 1750   0.884   2.635   2.024 -1.3404 -2.6252  2.7412
  438SOL    HW2 1751   0.846   2.664   1.887  3.0304  0.1868  0.8605
  438SOL     MW 1752   0.872   2.697   1.964 -0.2111 -0.2573  0.4290
  439SOL     OW 1753   1.183   2.064   0.444 -0.5584 -0.0704  0.1842
  439SOL    HW1 1754   1.118   2.089   0.508  1.2427  0.3754  3.2829
  439SOL    HW2 1755   1.178   2.139   0.379 -0.2804  0.4742  1.2012
  439SOL     MW 1756   1.173   2.077   0.444 -0.2841  0.0603  0.7272
  440SOL     OW 1757   1.767   2.787   3.007  0.0831 -1.0519 -0.0453
  440SOL    HW1 1758   1.781   2.826   3.095  2.2875 -4.0521  2.8657
  440SOL    HW2 1759   1.837   2.816   2.954  0.2932 -2.6020  1.3990
  440SOL     MW 1760   1.778   2.796   3.012  0.4017 -1.6523  0.5293
  441SOL     OW 1761   0.506   2.717   0.415 -0.4721  0.9508  0.1431
  441SOL    HW1 1762   0.466   2.687   0.333 -1.0519  1.3817 -1.5699
  441SOL    HW2 1763   0.482   2.806   0.416  3.8720 -0.9813 -2.7454
  441SOL     MW 1764   0.497   2.725   0.404  0.0246  0.7527 -0.4640
  442SOL     OW 1765   0.022   2.366   0.634 -0.1153  0.4922 -0.4618
  442SOL    HW1 1766   0.023   2.465   0.620 -1.1747 -0.8011  1.2000
  442SOL    HW2 1767  -0.065   2.338   0.656  1.1067 -1.2252 -0.0229
  442SOL     MW 1768   0.011   2.375   0.635 -0.0938  0.0950 -0.1846
  443SOL     OW 1769   1.466   1.770   1.931  0.1418  0.8601  0.0765
  443SOL    HW1 1770   1.434   1.806   1.848 -0.1235  0.4824 -1.3668
  443SOL    HW2 1771   1.497   1.682   1.910 -2.6152  1.7304  2.5780
  443SOL     MW 1772   1.466   1.763   1.918 -0.2570  0.9251  0.2161
  444SOL     OW 1773   0.934   2.591   1.604 -0.2493 -0.4334 -0.1032
  444SOL    HW1 1774   0.992   2.561   1.670 -0.3534  1.8200  1.3255
  444SOL    HW2 1775   0.853   2.578   1.651 -0.9278  2.8531  0.0414
  444SOL     MW 1776   0.931   2.585   1.619 -0.3526  0.2975  0.1044
  445SOL     OW 1777   1.203   0.078   1.395 -0.0544 -0.0861 -0.6276
  445SOL    HW1 1778   1.165   0.116   1.474 -0.0481  2.6619 -1.1988
  445SOL    HW2 1779   1.224   0.156   1.346 -0.0916 -0.3148 -0.0176
  445SOL     MW 1780   1.201   0.093   1.399 -0.0585  0.2463 -0.6225
  446SOL     OW 1781   2.712   2.854   1.060 -0.5911 -0.3202  0.7838
  446SOL    HW1 1782   2.693   2.919   0.996 -1.5721 -1.7020 -1.0433
  446SOL    HW2 1783   2.776   2.800   1.012 -1.7431  2.4127 -2.7292
  446SOL     MW 1784   2.718   2.855   1.045 -0.8725 -0.1419  0.0793
  447SOL     OW 1785   0.038   1.946   1.566  0.3124  0.1180 -0.1896
  447SOL    HW1 1786   0.079   1.883   1.629  0.9379  0.9701  0.6519
  447SOL    HW2 1787  -0.034   1.895   1.526  0.1990  2.8251  1.7269
  447SOL     MW 1788   0.034   1.931   1.569  0.3800  0.5876  0.1743
  448SOL     OW 1789   1.708   2.344   1.669 -0.3668 -0.0846  0.3581
  448SOL    HW1 1790   1.664   2.263   1.678 -1.0092 -0.1632 -1.4858
  448SOL    HW2 1791   1.644   2.411   1.690 -2.0810 -0.7423 -0.3336
  448SOL     MW 1792   1.693   2.342   1.673 -0.6777 -0.1818  0.0235
  449SOL     OW 1793   0.943   2.902   0.404  0.8052 -0.4372  0.0360
  449SOL    HW1 1794   0.889   2.883   0.327 -0.6295 -2.4301  0.4097
  449SOL    HW2 1795   0.885   2.929   0.479 -0.9035 -1.9606  0.3192
  449SOL     MW 1796   0.928   2.903   0.404  0.3904 -0.9012  0.1227
  450SOL     OW 1797   1.147   2.520   0.730  0.3501  0.7731 -0.0613
  450SOL    HW1 1798   1.174   2.502   0.825  1.5405  1.6768 -2.1053
  450SOL    HW2 1799   1.233   2.508   0.685  1.9323  0.0482 -0.1426
  450SOL     MW 1800   1.162   2.516   0.737  0.7159  0.7967 -0.3417
  451SOL     OW 1801   0.552   2.002   1.697 -0.1615  0.2270 -0.0735
  451SOL    HW1 1802   0.641   1.996   1.671  0.4242 -1.2309  1.3278
  451SOL    HW2 1803   0.491   1.952   1.639  0.5051  1.0704  0.0734
  451SOL     MW 1804   0.556   1.994   1.686  0.0038  0.1459  0.1308
  452SOL     OW 1805   0.329   2.632   3.085 -0.7341 -0.5727  0.1784
  452SOL    HW1 1806   0.422   2.654   3.076  0.9838  1.8694 -2.4799
  452SOL    HW2 1807   0.266   2.703   3.071 -0.7739 -1.2703  0.1300
  452SOL     MW 1808   0.333   2.644   3.082 -0.5127 -0.3426 -0.1788
  453SOL     OW 1809   0.216   3.005   1.571 -0.4768 -0.2715  0.2063
  453SOL    HW1 1810   0.252   2.954   1.641  0.8314 -0.9733 -0.4172
  453SOL    HW2 1811   0.271   2.992   1.496 -3.5167 -0.2485  0.1270
  453SOL     MW 1812   0.228   2.997   1.570 -0.7053 -0.3610  0.1136
  454SOL     OW 1813   0.928   2.776   1.186  1.3079 -0.0000 -0.1026
  454SOL    HW1 1814   0.915   2.693   1.221  0.2895  0.6977  0.4595
  454SOL    HW2 1815   0.851   2.797   1.134  2.1205 -1.6505 -1.1723
  454SOL     MW 1816   0.916   2.768   1.184  1.2808 -0.1257 -0.1696
  455SOL     OW 1817   1.761   2.856   0.178 -0.7343 -0.2736 -0.0615
  455SOL    HW1 1818   1.792   2.834   0.269  0.4656  0.8068  2.6347
  455SOL    HW2 1819   1.686   2.790   0.167 -3.1766 -0.3472 -1.1393
  455SOL     MW 1820   1.755   2.844   0.189 -0.8982 -0.1407  0.1520
  456SOL     OW 1821   2.759   0.267   1.459 -0.0077 -0.2365  0.1020
  456SOL    HW1 1822   2.735   0.205   1.389  1.2377 -1.9848 -0.3398
  456SOL    HW2 1823   2.816   0.332   1.415 -0.9018 -0.4885  0.5572
  456SOL     MW 1824   2.764   0.267   1.444  0.0387 -0.5004  0.1038
  457SOL     OW 1825   0.796   1.656   3.050  0.7197  0.5294  0.3834
  457SOL    HW1 1826   0.700   1.631   3.048  0.9428 -0.6855 -0.2145
  457SOL    HW2 1827   0.817   1.678   3.139  3.2708 -0.3689 -0.1450
  457SOL     MW 1828   0.786   1.656   3.061  1.0857  0.2506  0.2348
  458SOL     OW 1829   1.358   1.471   0.704  0.5677 -0.3391  0.5637
  458SOL    HW1 1830   1.280   1.524   0.705 -2.0753  2.2546 -1.3209
  458SOL    HW2 1831   1.327   1.381   0.692 -1.9640  0.7739  1.0027
  458SOL     MW 1832   1.344   1.466   0.702 -0.1151  0.1500  0.3730
  459SOL     OW 1833   1.602   3.049   0.255  0.3119 -0.4067 -0.1061
  459SOL    HW1 1834   1.646   2.968   0.219 -0.0445 -0.3287 -0.7520
  459SOL    HW2 1835   1.539   3.082   0.190  0.2541 -1.0978  1.9736
  459SOL     MW 1836   1.600   3.042   0.242  0.2572 -0.4876  0.0831
  460SOL     OW 1837   1.770   2.235   0.634 -0.3673 -0.0329  0.4869
  460SOL    HW1 1838   1.688   2.220   0.683  1.2489  0.2733 -0.3096
  460SOL    HW2 1839   1.821   2.150   0.639  0.2619  1.7468 -0.0147
  460SOL     MW 1840   1.766   2.222   0.641 -0.0710  0.2423  0.3157
  461SOL     OW 1841   0.399   2.432   0.520  0.0858  0.5060  0.0436
  461SOL    HW1 1842   0.397   2.516   0.484  0.1161 -0.1974 -0.5829
  461SOL    HW2 1843   0.398   2.441   0.613  0.2394  2.8352 -2.4212
  461SOL     MW 1844   0.399   2.444   0.527  0.1101  0.7205 -0.3642
  462SOL     OW 1845   0.284   0.243   1.288  0.3187  0.3774  0.1735
  462SOL    HW1 1846   0.329   0.195   1.217 -0.7798 -3.3587  2.8929
  462SOL    HW2 1847   0.359   0.269   1.344 -1.3219 -1.6528  0.1711
  462SOL     MW 1848   0.300   0.240   1.286 -0.0427 -0.3834  0.5320
  463SOL     OW 1849   1.100   0.060   0.728  0.3084  0.5135 -0.2983
  463SOL    HW1 1850   1.191   0.040   0.699 -2.4364 -2.8434 -2.6407
  463SOL    HW2 1851   1.039   0.068   0.652 -0.1899 -0.0963  1.4846
  463SOL     MW 1852   1.104   0.059   0.714 -0.1195 -0.0099 -0.3721
  464SOL     OW 1853   0.736   3.076   2.281  0.2575  0.2490  0.1690
  464SOL    HW1 1854   0.727   2.976   2.278  0.1342 -0.5099 -2.6294
  464SOL    HW2 1855   0.760   3.116   2.372 -2.5865  0.1223  0.3534
  464SOL     MW 1856   0.738   3.068   2.293 -0.1340  0.1322 -0.1759
  465SOL     OW 1857   0.833   0.338   0.367  0.0788  0.2971  0.1738
  465SOL    HW1 1858   0.799   0.280   0.433  0.6389 -1.2904 -0.5464
  465SOL    HW2 1859   0.818   0.289   0.282  1.5034  4.1159  0.6188
  465SOL     MW 1860   0.826   0.324   0.365  0.3407  0.5915  0.1375
  466SOL     OW 1861   1.123   2.057   0.789  0.1497 -0.0912  0.0350
  466SOL    HW1 1862   1.091   1.975   0.763 -2.8347  2.2125 -1.4604
  466SOL    HW2 1863   1.080   2.114   0.721 -1.6027 -3.5924 -1.0628
  466SOL     MW 1864   1.113   2.054   0.777 -0.4753 -0.2492 -0.3072
  467SOL     OW 1865   1.277   2.347   0.977 -0.1429  0.1826  0.3856
  467SOL    HW1 1866   1.364   2.370   1.006 -0.0718 -1.3938  0.5992
  467SOL    HW2 1867   1.278   2.253   0.953  0.7960 -0.8441 -2.1113
  467SOL     MW 1868   1.289   2.338   0.977 -0.0096 -0.1608  0.0843
  468SOL     OW 1869   0.515   2.663   1.912 -0.5588 -0.0150  0.2132
  468SOL    HW1 1870   0.446   2.609   1.861 -4.4493 -0.4385 -1.3438
  468SOL    HW2 1871   0.498   2.759   1.895 -3.3367 -2.6854 -1.5768
  468SOL     MW 1872   0.504   2.669   1.903 -1.4386 -0.4232 -0.2284
  469SOL     OW 1873   0.324   2.149   1.807 -0.2201  0.3620 -0.1530
  469SOL    HW1 1874   0.250   2.093   1.818  0.8687  1.3355 -0.9639
  469SOL    HW2 1875   0.397   2.088   1.810 -0.0164  1.0089 -2.1950
  469SOL     MW 1876   0.324   2.133   1.809 -0.0496  0.5758 -0.5294
  470SOL     OW 1877   3.039   2.583   0.092 -0.3084  0.0414  0.1948
  470SOL    HW1 1878   2.956   2.584   0.144 -0.7577 -0.1137  1.0828
  470SOL    HW2 1879   3.019   2.583  -0.003  0.7038 -0.2986 -0.6321
  470SOL     MW 1880   3.026   2.583   0.086 -0.2342 -0.0239  0.2029
  471SOL     OW 1881   1.156   2.648   1.363 -0.2810  0.3491  0.3661
  471SOL    HW1 1882   1.090   2.615   1.424 -0.5863 -2.5854 -2.7988
  471SOL    HW2 1883   1.167   2.567   1.316  0.1449  0.0832  0.9892
  471SOL     MW 1884   1.148   2.633   1.365 -0.2651 -0.0732  0.0307
  472SOL     OW 1885   2.972   2.130   0.353 -0.0203  0.2350  0.2324
  472SOL    HW1 1886   2.957   2.109   0.262  0.8881 -0.3737  0.5870
  472SOL    HW2 1887   2.915   2.069   0.412 -0.6261 -0.5651  3.5080
  472SOL     MW 1888   2.962   2.119   0.349  0.0196  0.0491  0.7114
  473SOL     OW 1889   0.864   2.546   1.325 -0.0022  0.0536 -0.1723
  473SOL    HW1 1890   0.887   2.459   1.302  1.1651  0.5699  1.4569
  473SOL    HW2 1891   0.843   2.539   1.417  0.3764  2.2004 -1.8245
  473SOL     MW 1892   0.864   2.534   1.334  0.2018  0.4049 -0.1754
  474SOL     OW 1893   0.687   2.287   1.841  0.9389 -0.1949 -0.0647
  474SOL    HW1 1894   0.777   2.276   1.866  1.0649 -1.9872 -3.2697
  474SOL    HW2 1895   0.687   2.245   1.762  1.8185  1.5001  0.0640
  474SOL     MW 1896   0.699   2.280   1.834  1.0715 -0.2077 -0.4706
  475SOL     OW 1897   1.600   3.073   1.528  0.2535  0.2194 -0.6487
  475SOL    HW1 1898   1.551   3.025   1.463 -0.7558  0.7991 -0.9085
  475SOL    HW2 1899   1.638   3.017   1.595  0.7279  2.4941  1.2171
  475SOL     MW 1900   1.598   3.060   1.528  0.1829  0.5960 -0.4368
  476SOL     OW 1901   1.420   2.662   1.180  0.0057  0.7688  0.2401
  476SOL    HW1 1902   1.335   2.685   1.161  1.7131  1.9787 -0.6130
  476SOL    HW2 1903   1.477   2.739   1.166 -0.0920  0.1969 -0.1433
  476SOL     MW 1904   1.417   2.675   1.176  0.2181  0.8530  0.0770
  477SOL     OW 1905   0.850   2.536   0.708  0.1077 -0.0055  0.0165
  477SOL    HW1 1906   0.931   2.583   0.686  1.9079  0.3355  1.5417
  477SOL    HW2 1907   0.829   2.466   0.641  0.8402 -1.5308 -0.8690
  477SOL     MW 1908   0.858   2.533   0.696  0.4418 -0.1618  0.1009
  478SOL     OW 1909   0.230   2.656   0.897 -0.3081 -0.1456 -0.6146
  478SOL    HW1 1910   0.278   2.734   0.859 -1.9679  0.4670  1.7428
  478SOL    HW2 1911   0.282   2.575   0.880 -1.0556 -0.2151 -0.2856
  478SOL     MW 1912   0.243   2.655   0.890 -0.6257 -0.0739 -0.2602
  479SOL     OW 1913   1.408   1.967   1.268 -0.3689  0.1580 -0.0345
  479SOL    HW1 1914   1.395   2.015   1.352  0.1802 -0.8603 -0.9081
  479SOL    HW2 1915   1.464   1.890   1.285 -1.1136 -0.8822 -0.5688
  479SOL     MW 1916   1.414   1.963   1.281 -0.3947 -0.1136 -0.2203
  480SOL     OW 1917   1.999   2.452   1.375 -0.5048  0.3059 -0.0765
  480SOL    HW1 1918   1.997   2.354   1.376 -1.3263 -2.0135 -0.4258
  480SOL    HW2 1919   1.959   2.480   1.292  1.2576  1.3868  3.1969
  480SOL     MW 1920   1.994   2.443   1.364 -0.3807  0.1425  0.3093
  481SOL     OW 1921   1.068   0.104   1.067  0.5750 -0.4197  0.1542
  481SOL    HW1 1922   1.133   0.032   1.063 -0.1910 -0.9813  0.0846
  481SOL    HW2 1923   1.116   0.185   1.068  0.0458 -0.6832 -0.1021
  481SOL     MW 1924   1.083   0.105   1.067  0.4041 -0.5286  0.1112
  482SOL     OW 1925   1.056   0.015   0.257 -0.7325 -0.5199 -0.0203
  482SOL    HW1 1926   1.020  -0.054   0.313  1.8724 -1.5487  2.3793
  482SOL    HW2 1927   1.048   0.089   0.316 -0.9347  2.2860 -0.6980
  482SOL     MW 1928   1.050   0.015   0.272 -0.4155 -0.2855  0.2069
  483SOL     OW 1929   0.451   2.994   0.463  0.9016 -0.5552 -0.2873
  483SOL    HW1 1930   0.364   2.981   0.421 -0.2739 -1.2510 -1.8224
  483SOL    HW2 1931   0.434   3.046   0.546 -3.3102  2.0797  1.7480
  483SOL     MW 1932   0.437   2.999   0.468  0.1908 -0.2993 -0.2213
  484SOL     OW 1933   1.823   2.013   1.418  0.0065  0.2974  0.0662
  484SOL    HW1 1934   1.898   2.076   1.417 -0.1841  4.4103  1.2991
  484SOL    HW2 1935   1.787   2.025   1.509  0.7192  2.1920 -0.4789
  484SOL     MW 1936   1.828   2.023   1.430  0.0754  1.0900  0.1569
  485SOL     OW 1937   0.621   2.417   0.289  0.3302 -0.0820  0.2663
  485SOL    HW1 1938   0.655   2.376   0.376  0.0587  0.9209  4.4471
  485SOL    HW2 1939   0.537   2.457   0.308  1.6407  1.2179 -0.1094
  485SOL     MW 1940   0.614   2.417   0.303  0.4673  0.2219  0.7684
  486SOL     OW 1941   0.185   2.400   1.429 -0.2920 -0.6016  0.5645
  486SOL    HW1 1942   0.208   2.484   1.395  1.1715 -0.4578  2.7755
  486SOL    HW2 1943   0.135   2.416   1.510  0.2989  0.5294  0.4935
  486SOL     MW 1944   0.182   2.413   1.435 -0.0209 -0.4334  0.8469
  487SOL     OW 1945   1.185   1.755   1.026 -0.2623  0.3103  0.3039
  487SOL    HW1 1946   1.152   1.830   1.070 -0.1817  0.3040  2.2967
  487SOL    HW2 1947   1.278   1.747   1.046  1.4938 -2.6439  0.8056
  487SOL     MW 1948   1.193   1.764   1.034 -0.0200 -0.0803  0.6330
  488SOL     OW 1949   1.594   1.835   0.554 -0.0864  0.2993 -0.2935
  488SOL    HW1 1950   1.670   1.869   0.511 -0.6820  2.0745 -2.5598
  488SOL    HW2 1951   1.523   1.901   0.537  0.5419  2.4487 -0.3469
  488SOL     MW 1952   1.595   1.848   0.546 -0.0820  0.8171 -0.5996
  489SOL     OW 1953   0.787   0.832   0.607  0.1939 -0.0484 -0.5548
  489SOL    HW1 1954   0.795   0.753   0.550 -1.8480  1.3372 -2.1260
  489SOL    HW2 1955   0.768   0.787   0.691  0.1402 -1.1649 -2.2288
  489SOL     MW 1956   0.785   0.816   0.610 -0.0826 -0.0129 -0.9830
  490SOL     OW 1957   1.439   2.063   0.530 -0.0882 -0.2506 -0.6307
  490SOL    HW1 1958   1.464   2.143   0.476  0.2036  0.0551 -2.9450
  490SOL    HW2 1959   1.347   2.054   0.515  0.2413 -1.9825 -1.0281
  490SOL     MW 1960   1.430   2.072   0.521 -0.0062 -0.4388 -0.9885
  491SOL     OW 1961   1.264   2.995   0.406  0.8080 -0.3880  0.0832
  491SOL    HW1 1962   1.317   3.062   0.438  1.6242  2.0808  1.2694
  491SOL    HW2 1963   1.187   3.041   0.367  1.4277  2.8446 -1.4206
  491SOL     MW 1964   1.261   3.010   0.405  0.9974  0.3642  0.0413
  492SOL     OW 1965   1.530   2.200   0.733 -0.1540 -0.0275  0.1576
  492SOL    HW1 1966   1.493   2.147   0.663  1.1405  0.3880  2.1311
  492SOL    HW2 1967   1.482   2.179   0.813  1.2303 -1.4782  3.1643
  492SOL     MW 1968   1.519   2.190   0.734  0.1994 -0.1641  0.8147
  493SOL     OW 1969   0.245   2.952   0.285  1.1926  0.2754  0.3153
  493SOL    HW1 1970   0.184   2.976   0.358  0.1455 -0.3424 -2.3841
  493SOL    HW2 1971   0.236   3.020   0.213 -2.1158 -0.2809 -3.5705
  493SOL     MW 1972   0.236   2.964   0.285  0.6180  0.1205 -0.5535
  494SOL     OW 1973   0.436   2.443   1.776  0.2452 -0.1049 -0.2498
  494SOL    HW1 1974   0.469   2.374   1.830  0.1031 -1.6178 -1.1617
  494SOL    HW2 1975   0.473   2.432   1.692  1.9069  2.8415  3.2944
  494SOL     MW 1976   0.446   2.432   1.772  0.4457  0.0842  0.0975
  495SOL     OW 1977   2.829   1.733   2.564 -0.3359 -0.2626 -0.4752
  495SOL    HW1 1978   2.829   1.825   2.523 -0.7523  0.2444  0.0177
  495SOL    HW2 1979   2.789   1.718   2.652  0.6553  0.0688 -0.9768
  495SOL     MW 1980   2.824   1.743   2.570 -0.2601 -0.1520 -0.4763
  496SOL     OW 1981   2.929   2.356   2.652 -0.0101 -0.5996 -0.3857
  496SOL    HW1 1982   2.968   2.299   2.716 -3.0167  0.3808  1.2922
  496SOL    HW2 1983   2.989   2.431   2.636  0.2242  0.7022  0.5984
  496SOL     MW 1984   2.942   2.358   2.658 -0.3759 -0.2985 -0.0345
  497SOL     OW 1985   1.544   2.220   2.663 -0.4217  0.2687  0.2832
  497SOL    HW1 1986   1.452   2.219   2.678  1.1423  0.7563  0.0560
  497SOL    HW2 1987   1.565   2.141   2.717  0.3787 -1.1590 -0.8653
  497SOL     MW 1988   1.535   2.209   2.672 -0.1097  0.1447  0.1017
  498SOL     OW 1989   1.486   2.679   2.357  0.1656  0.5925  0.0848
  498SOL    HW1 1990   1.469   2.590   2.388  0.2151  0.1267 -3.2465
  498SOL    HW2 1991   1.578   2.683   2.362 -0.3492 -1.2999 -1.3456
  498SOL     MW 1992   1.496   2.668   2.362  0.1042  0.2813 -0.5434
  499SOL     OW 1993   0.974   0.148   3.073 -0.7858  0.1800 -0.3257
  499SOL    HW1 1994   0.895   0.151   3.137 -2.7399 -2.6883  1.0294
  499SOL    HW2 1995   1.029   0.065   3.074  2.9754 -1.0431  0.2042
  499SOL     MW 1996   0.971   0.137   3.081 -0.5473 -0.3598 -0.0770
  500SOL     OW 1997   1.054   2.486   2.776 -0.0049 -0.4370  0.0304
  500SOL    HW1 1998   1.124   2.469   2.845 -1.4652  1.6724  0.6680
  500SOL    HW2 1999   0.981   2.509   2.835 -0.5823  1.7122  1.3283
  500SOL     MW 2000   1.053   2.487   2.793 -0.2738  0.1249  0.2858
  501SOL     OW 2001   1.766   2.215   3.074 -0.0037  0.0228 -0.3545
  501SOL    HW1 2002   1.708   2.290   3.069 -0.6064 -0.5835  1.5306
  501SOL    HW2 2003   1.847   2.248   3.117 -0.3924  1.6271 -0.9339
  501SOL     MW 2004   1.769   2.230   3.079 -0.1345  0.1545 -0.1822
  502SOL     OW 2005   0.133   2.823   3.037 -0.2677  0.1843 -0.7773
  502SOL    HW1 2006   0.063   2.771   3.001 -2.9739 -0.0836  0.0363
  502SOL    HW2 2007   0.165   2.876   2.963  2.5531  2.7124 -0.3736
  502SOL     MW 2008   0.128   2.824   3.022 -0.2526  0.4825 -0.6167
  503SOL     OW 2009   1.005   2.889   2.167  0.9606  0.5518 -0.0332
  503SOL    HW1 2010   0.996   2.842   2.084 -0.1197  3.7010 -0.7613
  503SOL    HW2 2011   0.984   2.976   2.143  0.3128  0.7109 -3.8078
  503SOL     MW 2012   1.001   2.894   2.153  0.7326  0.9883 -0.6273
  504SOL     OW 2013   0.075   2.730   2.138  0.6373 -0.5337 -0.2881
  504SOL    HW1 2014   0.094   2.634   2.134 -0.1194  1.3405  0.6792
  504SOL    HW2 2015   0.039   2.727   2.223  3.1910  1.1522 -2.7225
  504SOL     MW 2016   0.073   2.717   2.149  0.8744 -0.0640 -0.4817
  505SOL     OW 2017   1.717   2.731   2.678 -0.2064 -0.1364  0.4505
  505SOL    HW1 2018   1.704   2.761   2.587  2.6188 -2.7742  0.0378
  505SOL    HW2 2019   1.635   2.741   2.724 -0.3217  1.5052 -3.3995
  505SOL     MW 2020   1.705   2.736   2.672  0.1511 -0.2678 -0.1119
  506SOL     OW 2021   1.626   2.995   2.833  0.6325  0.2095  0.4379
  506SOL    HW1 2022   1.680   2.924   2.869  1.4516 -0.0161 -0.5038
  506SOL    HW2 2023   1.677   3.010   2.752  0.9344  1.0710  1.4789
  506SOL     MW 2024   1.640   2.987   2.827  0.7804  0.2934  0.4510
  507SOL     OW 2025   0.815   2.776   2.893 -0.1742  0.9642  0.1016
  507SOL    HW1 2026   0.863   2.826   2.832 -1.4770  1.5428  1.4993
  507SOL    HW2 2027   0.743   2.834   2.931  1.5180 -0.5752  1.6304
  507SOL     MW 2028   0.812   2.790   2.890 -0.1228  0.8374  0.4877
  508SOL     OW 2029   1.139   2.037   2.507 -0.1655  0.4727 -0.9149
  508SOL    HW1 2030   1.219   2.023   2.558 -1.8100  0.3578 -1.7196
  508SOL    HW2 2031   1.121   2.126   2.535  1.8604  0.2923 -0.5226
  508SOL     MW 2032   1.147   2.047   2.517 -0.1152  0.4338 -0.9693
  509SOL     OW 2033   0.563   2.526   2.886 -0.3505 -0.5907 -0.0400
  509SOL    HW1 2034   0.609   2.561   2.803 -0.4910  4.0822 -2.2147
  509SOL    HW2 2035   0.472   2.509   2.855 -1.4006  4.0544 -1.3643
  509SOL     MW 2036   0.557   2.529   2.871 -0.5076  0.6387 -0.5016
  510SOL     OW 2037   1.507   2.521   1.712 -0.0793 -0.1273 -0.1939
  510SOL    HW1 2038   1.515   2.617   1.705 -0.8609  0.0699 -0.4788
  510SOL    HW2 2039   1.452   2.509   1.789 -0.8052 -0.6474  2.8021
  510SOL     MW 2040   1.501   2.532   1.721 -0.2782 -0.1699  0.1638
  511SOL     OW 2041   0.407   2.596   2.462  0.8472 -0.2091  0.2351
  511SOL    HW1 2042   0.491   2.575   2.495  0.5080 -0.0690 -2.1330
  511SOL    HW2 2043   0.427   2.606   2.371  0.7592 -0.2834  3.8853
  511SOL     MW 2044   0.421   2.595   2.454  0.7908 -0.2004  0.4043
  512SOL     OW 2045   1.003   1.977   2.846 -0.2534  0.0221  0.1643
  512SOL    HW1 2046   0.921   1.974   2.894 -0.2385 -1.5470  0.0736
  512SOL    HW2 2047   1.030   1.885   2.846  1.5671  0.1514  1.5636
  512SOL     MW 2048   0.996   1.965   2.852 -0.0113 -0.1679  0.3370
  513SOL     OW 2049   1.459   2.409   2.400  0.0354 -0.5165  0.0043
  513SOL    HW1 2050   1.557   2.400   2.422  1.5538 -3.3245  0.5304
  513SOL    HW2 2051   1.425   2.319   2.409  0.5727 -0.3040 -0.9091
  513SOL     MW 2052   1.468   2.396   2.404  0.3066 -0.8589 -0.0468
  514SOL     OW 2053   0.221   2.435   2.630 -0.2580 -0.1677 -0.0957
  514SOL    HW1 2054   0.288   2.506   2.609 -0.7575  1.7438 -1.0519
  514SOL    HW2 2055   0.215   2.427   2.730  2.0274  2.3908  1.9743
  514SOL     MW 2056   0.229   2.443   2.640 -0.0224  0.4221  0.0512
  515SOL     OW 2057   1.151   2.057   1.935  0.7061  0.5060 -0.2479
  515SOL    HW1 2058   1.096   2.131   1.934  0.3342 -2.3061 -1.1296
  515SOL    HW2 2059   1.149   2.035   2.026  0.0901  0.0911 -3.6515
  515SOL     MW 2060   1.143   2.064   1.947  0.5757  0.0802 -0.8133
  516SOL     OW 2061   1.453   2.529   3.034 -0.3799 -0.3011 -0.1101
  516SOL    HW1 2062   1.511   2.509   2.962 -0.0936 -0.7322  3.6642
  516SOL    HW2 2063   1.376   2.486   3.008  0.0004 -0.5525  1.8161
  516SOL     MW 2064   1.450   2.521   3.021 -0.2920 -0.3911  0.6420
  517SOL     OW 2065   0.595   2.408   2.131 -0.1869  0.6653  0.0593
  517SOL    HW1 2066   0.560   2.495   2.170  2.0345 -1.8789 -2.6243
  517SOL    HW2 2067   0.518   2.391   2.076 -1.6560  0.4736 -0.4290
  517SOL     MW 2068   0.580   2.417   2.129 -0.0877  0.3043 -0.3592
  518SOL     OW 2069   1.894   0.080   2.962  0.1262 -0.1251  0.6826
  518SOL    HW1 2070   1.848   0.128   2.889 -1.6604 -1.6056 -1.8084
  518SOL    HW2 2071   1.842   0.090   3.045 -0.1724 -2.5744  1.5526
  518SOL     MW 2072   1.881   0.088   2.964 -0.1489 -0.6436  0.4687
  519SOL     OW 2073   0.731   2.559   1.782  0.4302 -0.6020 -0.0798
  519SOL    HW1 2074   0.703   2.462   1.792  0.8982 -0.8732  1.2735
  519SOL    HW2 2075   0.662   2.606   1.817  1.1160 -0.1989  0.8749
  519SOL     MW 2076   0.719   2.553   1.788  0.5825 -0.5846  0.2247
  520SOL     OW 2077   1.224   2.153   2.927 -0.1360 -0.1685  0.3915
  520SOL    HW1 2078   1.137   2.127   2.898  1.8213 -0.6184 -1.0775
  520SOL    HW2 2079   1.246   2.077   2.981 -0.7838 -3.1082 -0.5488
  520SOL     MW 2080   1.216   2.140   2.930  0.0368 -0.6157  0.0736
  521SOL     OW 2081   1.765   2.018   2.235  0.5819 -0.0509  0.2908
  521SOL    HW1 2082   1.779   2.042   2.143 -1.5736 -1.0354  0.3379
  521SOL    HW2 2083   1.758   1.922   2.229  0.7155 -0.4431  0.6537
  521SOL     MW 2084   1.766   2.008   2.222  0.3152 -0.2325  0.3449
  522SOL     OW 2085   2.836   2.591   2.211  0.3752  0.4489  0.3336
  522SOL    HW1 2086   2.903   2.531   2.241  3.0951 -0.9346  0.1002
  522SOL    HW2 2087   2.773   2.588   2.283  0.2711 -1.0007  0.8912
  522SOL     MW 2088   2.837   2.583   2.224  0.7203  0.0751  0.3764
  523SOL     OW 2089   0.843   1.499   2.134  0.4926 -0.0268 -0.2151
  523SOL    HW1 2090   0.861   1.559   2.058 -0.3202 -0.4952 -0.2056
  523SOL    HW2 2091   0.895   1.423   2.101 -1.2705 -1.3121 -1.9727
  523SOL     MW 2092   0.852   1.497   2.120  0.1528 -0.2582 -0.4458
  524SOL     OW 2093   0.846   2.460   2.960 -0.5687  0.2663 -0.1454
  524SOL    HW1 2094   0.755   2.480   2.975  1.3666 -2.0484 -0.9985
  524SOL    HW2 2095   0.837   2.371   2.930 -3.1011  0.4827  0.2077
  524SOL     MW 2096   0.833   2.451   2.958 -0.6475 -0.0106 -0.2113
  525SOL     OW 2097   0.355   2.310   2.028 -0.4888  0.0320 -0.1409
  525SOL    HW1 2098   0.350   2.244   2.106 -2.6382 -0.0927  0.1111
  525SOL    HW2 2099   0.334   2.249   1.953  2.2847  1.9718 -1.8001
  525SOL     MW 2100   0.351   2.293   2.029 -0.4065  0.2715 -0.3265
  526SOL     OW 2101   0.637   2.118   2.072 -0.0587  0.1836  0.3990
  526SOL    HW1 2102   0.643   2.188   2.009 -1.4474  0.9318  1.5938
  526SOL    HW2 2103   0.659   2.154   2.156 -0.7151 -2.5115 -0.0512
  526SOL     MW 2104   0.641   2.132   2.075 -0.3285 -0.0733  0.4973
  527SOL     OW 2105   1.395   1.965   2.124  0.1495 -0.4325  0.5332
  527SOL    HW1 2106   1.383   1.899   2.199 -1.0524 -2.7452  0.3411
  527SOL    HW2 2107   1.407   1.907   2.049 -0.2575  0.2868  0.2658
  527SOL     MW 2108   1.395   1.949   2.124 -0.0628 -0.6428  0.4726
  528SOL     OW 2109   0.631   2.982   2.944 -0.5522  1.0559 -0.4854
  528SOL    HW1 2110   0.686   3.056   2.919  0.5998 -0.1239 -2.1488
  528SOL    HW2 2111   0.570   2.978   2.869 -0.5341  3.1063  0.1723
  528SOL     MW 2112   0.630   2.991   2.931 -0.3978  1.1708 -0.6181
  529SOL     OW 2113   0.971   2.276   1.953  0.1458  0.5152  0.1511
  529SOL    HW1 2114   0.991   2.301   2.045  1.2014  0.8520 -1.5838
  529SOL    HW2 2115   1.017   2.338   1.900  1.7220 -1.3357 -0.0322
  529SOL     MW 2116   0.980   2.287   1.958  0.4931  0.3154 -0.1020
  530SOL     OW 2117   1.218   2.421   2.958 -0.2378  0.8380  0.0925
  530SOL    HW1 2118   1.165   2.449   3.030 -1.9456 -2.4411 -2.3774
  530SOL    HW2 2119   1.207   2.324   2.954 -0.8140  1.2859 -0.3939
  530SOL     MW 2120   1.209   2.412   2.967 -0.5392  0.4644 -0.2975
  531SOL     OW 2121   0.930   1.848   2.571  0.0249 -0.0311 -0.1645
  531SOL    HW1 2122   0.987   1.923   2.552 -0.9299  2.4176  3.3722
  531SOL    HW2 2123   0.893   1.871   2.649  2.3216  2.4374 -1.7090
  531SOL     MW 2124   0.933   1.861   2.579  0.2019  0.6176  0.0983
  532SOL     OW 2125   1.746   0.206   2.764  0.3553 -0.6620 -0.1973
  532SOL    HW1 2126   1.648   0.189   2.753  0.9051  3.1030  0.3084
  532SOL    HW2 2127   1.781   0.183   2.680 -2.1982  0.5122  0.2549
  532SOL     MW 2128   1.738   0.201   2.751  0.0909 -0.0103 -0.0709
  533SOL     OW 2129   1.944   2.574   0.005  0.7992 -0.1775 -0.2362
  533SOL    HW1 2130   1.878   2.534   0.064  0.5436 -1.5043 -0.3090
  533SOL    HW2 2131   1.891   2.638  -0.054  1.0711 -0.2200  0.5945
  533SOL     MW 2132   1.928   2.577   0.005  0.8014 -0.3582 -0.1362
  534SOL     OW 2133   1.713   2.366   2.493  0.2494  0.0286  0.4556
  534SOL    HW1 2134   1.650   2.320   2.547  0.4196 -0.5088  0.6709
  534SOL    HW2 2135   1.776   2.402   2.564 -0.1705 -0.5357  2.3266
  534SOL     MW 2136   1.713   2.365   2.509  0.2165 -0.1167  0.7309
  535SOL     OW 2137   1.884   2.398   1.865 -0.2386 -0.7619 -0.1515
  535SOL    HW1 2138   1.820   2.396   1.792  1.3213  1.2160  0.5195
  535SOL    HW2 2139   1.970   2.366   1.838 -0.6352  0.0757  1.8891
  535SOL     MW 2140   1.887   2.393   1.852 -0.0851 -0.3904  0.2063
  536SOL     OW 2141   0.484   1.857   2.139  0.0098  0.2370 -0.1233
  536SOL    HW1 2142   0.480   1.842   2.049  0.2361  2.9588  2.8347
  536SOL    HW2 2143   0.497   1.950   2.146 -0.9957  2.9348 -0.0235
  536SOL     MW 2144   0.485   1.867   2.128 -0.0930  0.9521  0.2801
  537SOL     OW 2145   1.073   0.278   2.776 -0.2200  0.3555 -0.2225
  537SOL    HW1 2146   1.106   0.352   2.834  1.3844  2.0398  0.7531
  537SOL    HW2 2147   1.054   0.322   2.691 -0.7418  0.7387  1.5479
  537SOL     MW 2148   1.075   0.294   2.772 -0.0772  0.6283  0.1398
  538SOL     OW 2149   1.424   0.047   0.064 -0.1629  0.5399 -0.2930
  538SOL    HW1 2150   1.414   0.140   0.067 -0.6958 -0.3907 -0.1882
  538SOL    HW2 2151   1.339   0.001   0.045 -0.1675 -2.4430 -1.0820
  538SOL     MW 2152   1.411   0.053   0.062 -0.2338  0.0236 -0.3833
  539SOL     OW 2153   0.700   2.794   2.595  0.2610  0.7433 -0.2336
  539SOL    HW1 2154   0.763   2.844   2.648 -1.6311  0.5545  0.8902
  539SOL    HW2 2155   0.694   2.701   2.637  2.0801  0.9398  1.6445
  539SOL     MW 2156   0.708   2.789   2.607  0.2514  0.7443  0.1625
  540SOL     OW 2157   0.277   2.459   2.885  0.6273 -0.1039 -0.0143
  540SOL    HW1 2158   0.291   2.515   2.964 -0.5475 -0.7956 -1.8452
  540SOL    HW2 2159   0.242   2.375   2.925  3.9212 -0.7661 -0.9665
  540SOL     MW 2160   0.275   2.455   2.901  0.9069 -0.2825 -0.3815
  541SOL     OW 2161   0.253   2.955   2.144 -0.0786 -0.0846 -0.2603
  541SOL    HW1 2162   0.186   2.887   2.131  0.4871 -1.8844 -0.4858
  541SOL    HW2 2163   0.286   2.916   2.228  0.7307 -0.7846  0.3007
  541SOL     MW 2164   0.248   2.941   2.154  0.1028 -0.4144 -0.2160
  542SOL     OW 2165   0.976   2.284   2.589 -0.0537  0.3759  0.1194
  542SOL    HW1 2166   0.908   2.240   2.643  0.5875  0.4141  2.2602
  542SOL    HW2 2167   1.008   2.359   2.648 -0.3038 -1.1526  0.5214
  542SOL     MW 2168   0.971   2.288   2.604 -0.0021  0.1793  0.4549
  543SOL     OW 2169   1.577   2.436   2.827 -0.0833 -0.0461 -0.3049
  543SOL    HW1 2170   1.550   2.364   2.771  0.9403  2.6257  1.4876
  543SOL    HW2 2171   1.649   2.485   2.789  0.5482 -1.0932  2.8988
  543SOL     MW 2172   1.583   2.433   2.815  0.1351  0.1682  0.3543
  544SOL     OW 2173   0.697   0.305   2.720 -0.3911  0.3235  0.3635
  544SOL    HW1 2174   0.603   0.310   2.710  1.0499 -0.2769 -2.9202
  544SOL    HW2 2175   0.731   0.262   2.640 -0.8924  0.7029 -1.6899
  544SOL     MW 2176   0.689   0.300   2.708 -0.2671  0.2943 -0.3407
  545SOL     OW 2177   1.496   2.132   2.333  0.7154  0.1826  0.3000
  545SOL    HW1 2178   1.463   2.077   2.262  0.1076 -2.3498  2.6206
  545SOL    HW2 2179   1.587   2.103   2.337 -2.5410  2.5295 -1.0130
  545SOL     MW 2180   1.504   2.121   2.324  0.2056  0.1581  0.4330
  546SOL     OW 2181   2.877   1.952   0.133  0.2871  0.1997  0.3052
  546SOL    HW1 2182   2.869   2.035   0.079  2.3571  1.6886 -1.1684
  546SOL    HW2 2183   2.959   1.909   0.107 -0.8010  0.3659 -1.5804
  546SOL     MW 2184   2.887   1.957   0.122  0.4167  0.4181 -0.1380
  547SOL     OW 2185   0.221   0.089   0.108 -0.3194 -0.1196  0.2514
  547SOL    HW1 2186   0.291   0.096   0.039 -0.7028  0.8690 -3.5335
  547SOL    HW2 2187   0.152   0.047   0.061  0.3818 -1.5045  1.7909
  547SOL     MW 2188   0.221   0.084   0.092 -0.2775 -0.1719 -0.0449
  548SOL     OW 2189   0.343   2.531   0.252  0.7152  1.1123  0.1140
  548SOL    HW1 2190   0.317   2.541   0.161 -0.5441 -1.7509  0.7361
  548SOL    HW2 2191   0.302   2.446   0.284  1.3966 -1.3696  1.2287
  548SOL     MW 2192   0.334   2.521   0.244  0.6390  0.4070  0.3431
  549SOL     OW 2193   0.841   1.940   2.111 -0.1754  0.1277  0.0506
  549SOL    HW1 2194   0.781   2.005   2.090  0.7370 -1.1969  1.8354
  549SOL    HW2 2195   0.799   1.909   2.192 -1.0808  1.0935  1.6032
  549SOL     MW 2196   0.828   1.944   2.119 -0.1745  0.0803  0.4909
  550SOL     OW 2197   1.864   1.672   2.503 -1.0363 -0.8110  0.1510
  550SOL    HW1 2198   1.827   1.692   2.416  0.9400  1.2482  2.5746
  550SOL    HW2 2199   1.857   1.757   2.540 -0.1878 -3.1682 -1.3113
  550SOL     MW 2200   1.858   1.686   2.496 -0.6636 -0.8503  0.2778
  551SOL     OW 2201   0.923   2.216   0.197  0.1889  0.1170 -0.2440
  551SOL    HW1 2202   1.012   2.239   0.212 -1.8235  2.4021  0.9821
  551SOL    HW2 2203   0.915   2.152   0.119 -1.5918  0.5135 -2.4331
  551SOL     MW 2204   0.934   2.211   0.189 -0.3116  0.4708 -0.3711
  552SOL     OW 2205   1.763   1.735   2.256  0.1464 -0.2964  0.1173
  552SOL    HW1 2206   1.691   1.682   2.272 -0.9612  3.0372  1.1391
  552SOL    HW2 2207   1.814   1.695   2.180  0.1583  4.0233  0.1820
  552SOL     MW 2208   1.760   1.723   2.248  0.0018  0.7134  0.2606
  553SOL     OW 2209   1.234   2.305   1.572  0.4170 -0.3136  0.3123
  553SOL    HW1 2210   1.290   2.225   1.570 -0.1166  1.5684 -1.2388
  553SOL    HW2 2211   1.284   2.361   1.514 -3.1551 -2.4973  2.2465
  553SOL     MW 2212   1.248   2.302   1.564 -0.1247 -0.3534  0.3629
  554SOL     OW 2213   0.496   2.962   2.696  0.5219  0.5001 -0.1151
  554SOL    HW1 2214   0.487   3.016   2.622  1.1547  0.1380 -0.7807
  554SOL    HW2 2215   0.562   2.901   2.661  0.8679 -0.1503  0.5653
  554SOL     MW 2216   0.503   2.961   2.681  0.6511  0.3665 -0.1131
  555SOL     OW 2217   0.632   2.530   2.632  0.0685 -0.2688 -0.1862
  555SOL    HW1 2218   0.593   2.440   2.656 -1.0813 -0.7008 -0.8501
  555SOL    HW2 2219   0.712   2.511   2.573 -0.9536  0.5293 -0.8641
  555SOL     MW 2220   0.638   2.516   2.627 -0.2181 -0.2205 -0.3633
  556SOL     OW 2221   1.077   1.865   0.051  0.1430 -0.0520 -0.3698
  556SOL    HW1 2222   1.086   1.798  -0.015 -0.9743  0.6749 -0.5470
  556SOL    HW2 2223   1.156   1.853   0.102  0.9567 -2.8354  0.9941
  556SOL     MW 2224   1.089   1.854   0.049  0.1030 -0.3233 -0.2132
  557SOL     OW 2225   1.056   2.715   0.569  0.0474 -0.1768  0.1852
  557SOL    HW1 2226   1.094   2.650   0.515 -0.5095 -1.5880 -0.8031
  557SOL    HW2 2227   1.013   2.772   0.506 -0.5903 -0.2556  4.1077
  557SOL     MW 2228   1.055   2.714   0.553 -0.1103 -0.3734  0.5723
  558SOL     OW 2229   0.223   2.235   3.028  0.7102 -0.2814 -0.3528
  558SOL    HW1 2230   0.247   2.163   3.081  0.5901  0.0080  0.3228
  558SOL    HW2 2231   0.163   2.283   3.088 -2.1606  1.6630  2.2763
  558SOL     MW 2232   0.218   2.232   3.043  0.3155  0.0133  0.0832
  559SOL     OW 2233   1.062   2.328   2.231 -0.0130 -1.1173  0.7743
  559SOL    HW1 2234   1.138   2.385   2.215 -0.0339  2.1779  0.3949
  559SOL    HW2 2235   1.097   2.240   2.228  1.0668  2.0132  0.3553
  559SOL     MW 2236   1.076   2.324   2.228  0.1267 -0.2695  0.6690
  560SOL     OW 2237   2.161   2.667   0.162  0.4874 -0.0349 -0.2907
  560SOL    HW1 2238   2.177   2.743   0.109 -2.7321 -1.2925  0.1531
  560SOL    HW2 2239   2.083   2.628   0.117 -0.0829 -1.1773  0.0365
  560SOL     MW 2240   2.153   2.672   0.149 -0.0126 -0.3516 -0.1890
  561SOL     OW 2241   0.486   2.189   0.194 -0.0390  0.5008 -0.0685
  561SOL    HW1 2242   0.477   2.194   0.097  1.6953  1.0769 -1.1510
  561SOL    HW2 2243   0.542   2.264   0.223 -2.3227  0.8452  1.4833
  561SOL     MW 2244   0.492   2.199   0.185 -0.1115  0.6222 -0.0066
  562SOL     OW 2245   0.657   2.290   2.350 -0.2045  0.8412 -0.3300
  562SOL    HW1 2246   0.624   2.338   2.273 -1.2659  3.4915  4.1787
  562SOL    HW2 2247   0.709   2.361   2.374 -0.0893 -2.7061 -0.7472
  562SOL     MW 2248   0.660   2.306   2.343 -0.3293  0.7229  0.2098
  563SOL     OW 2249   1.250   0.401   0.579  0.6719  0.4191  0.0509
  563SOL    HW1 2250   1.186   0.355   0.516  1.5897 -0.6600  3.4884
  563SOL    HW2 2251   1.226   0.369   0.661  0.9855 -0.1505 -2.5578
  563SOL     MW 2252   1.239   0.391   0.581  0.8344  0.2016  0.1602
  564SOL     OW 2253   0.999   2.670   2.342 -0.3591  0.4495 -0.5774
  564SOL    HW1 2254   1.022   2.758   2.308 -1.3196 -2.5575  2.8851
  564SOL    HW2 2255   1.046   2.677   2.430 -0.9332 -0.7552 -2.0588
  564SOL     MW 2256   1.008   2.683   2.349 -0.5616 -0.1062 -0.3160
  565SOL     OW 2257   2.750   2.800   2.618 -0.1751 -0.2537  0.4485
  565SOL    HW1 2258   2.752   2.879   2.567 -1.8855 -0.1728  1.3491
  565SOL    HW2 2259   2.746   2.735   2.547  0.7690  0.6184  4.4388
  565SOL     MW 2260   2.750   2.802   2.602 -0.2762 -0.1280  1.0938
  566SOL     OW 2261   2.182   1.958   2.362 -0.0385 -0.2986  0.6535
  566SOL    HW1 2262   2.189   1.923   2.276 -2.2647  1.0788 -0.1373
  566SOL    HW2 2263   2.235   2.035   2.363 -2.0658 -2.1522 -0.3355
  566SOL     MW 2264   2.190   1.963   2.351 -0.5997 -0.3614  0.4187
  567SOL     OW 2265   1.167   3.070   0.013  0.0056 -0.1704 -0.4293
  567SOL    HW1 2266   1.142   3.085   0.104  0.8730  0.6676 -2.4350
  567SOL    HW2 2267   1.203   2.979   0.005 -0.2112 -0.3626 -0.0198
  567SOL     MW 2268   1.169   3.060   0.024  0.0914 -0.0852 -0.6399
  568SOL     OW 2269   1.654   2.027   2.850  0.2769  0.1744  0.2647
  568SOL    HW1 2270   1.701   2.081   2.910 -1.6065  0.1508 -1.6304
  568SOL    HW2 2271   1.711   1.980   2.788  1.7570  0.2684 -1.6794
  568SOL     MW 2272   1.668   2.028   2.850  0.2237  0.1837 -0.2419
  569SOL     OW 2273   0.125   2.247   2.444 -0.0940 -0.0320 -0.3096
  569SOL    HW1 2274   0.068   2.292   2.379  2.6761 -1.0778 -0.1496
  569SOL    HW2 2275   0.153   2.316   2.501  0.8947 -1.6399  1.9696
  569SOL     MW 2276   0.121   2.262   2.443  0.4019 -0.3822  0.0122
  570SOL     OW 2277   1.490   0.312   0.453 -0.0223 -0.4301 -0.1093
  570SOL    HW1 2278   1.410   0.353   0.495 -1.4084 -1.8943  2.3495
  570SOL    HW2 2279   1.567   0.334   0.509 -2.9545  0.6042 -2.0328
  570SOL     MW 2280   1.490   0.321   0.466 -0.5921 -0.4868 -0.0387
  571SOL     OW 2281   1.351   2.378   2.136  0.0267 -0.1788  0.0828
  571SOL    HW1 2282   1.370   2.380   2.230  1.2035 -0.4937 -0.4802
  571SOL    HW2 2283   1.428   2.333   2.091  1.9481  0.5749 -0.1126
  571SOL     MW 2284   1.364   2.372   2.142  0.4355 -0.1209 -0.0172
  572SOL     OW 2285   1.106   2.592   0.091  0.5172  0.5457  0.2075
  572SOL    HW1 2286   1.116   2.686   0.098 -0.8595 -5.2473 -1.4153
  572SOL    HW2 2287   1.008   2.568   0.093  0.5520  0.4660  0.8450
  572SOL     MW 2288   1.094   2.601   0.092  0.3402 -0.2291  0.0775
  573SOL     OW 2289   1.190   2.281   0.269  0.3190  0.1490  0.4550
  573SOL    HW1 2290   1.266   2.296   0.213  1.2727  1.7402  0.3075
  573SOL    HW2 2291   1.165   2.369   0.305  0.1726  2.8915 -1.2969
  573SOL     MW 2292   1.197   2.295   0.266  0.4255  0.7208  0.2044
  574SOL     OW 2293   1.151   2.545   0.367 -0.4183  0.5627  0.3804
  574SOL    HW1 2294   1.231   2.598   0.366  1.0545  1.8348  1.7160
  574SOL    HW2 2295   1.098   2.579   0.298  1.7903  0.1308  2.0150
  574SOL     MW 2296   1.155   2.556   0.358  0.0674  0.6736  0.7723
  575SOL     OW 2297   3.070   2.198   1.607 -0.1796  0.1740  0.2119
  575SOL    HW1 2298   3.101   2.106   1.596  1.6036  0.7927 -0.5833
  575SOL    HW2 2299   3.142   2.228   1.662  2.3808  0.6716 -0.6716
  575SOL     MW 2300   3.083   2.190   1.613  0.3935  0.3213 -0.0096
  576SOL     OW 2301   2.907   1.883   1.945  0.5743 -0.0852 -0.3843
  576SOL    HW1 2302   2.897   1.977   1.934  1.3383  0.8480 -1.0247
  576SOL    HW2 2303   2.870   1.833   1.873  2.7950 -0.2467 -4.8825
  576SOL     MW 2304   2.900   1.889   1.934  0.9681  0.0166 -1.0623
  577SOL     OW 2305   2.120   0.140   0.013  0.6299  0.2359  0.1269
  577SOL    HW1 2306   2.049   0.128  -0.056 -0.6376  0.5875 -1.2094
  577SOL    HW2 2307   2.084   0.103   0.090 -0.2749  0.2521 -2.1309
  577SOL     MW 2308   2.106   0.134   0.014  0.3433  0.2844 -0.3473
  578SOL     OW 2309   1.984   2.133   2.341 -0.4043 -0.4245 -0.6000
  578SOL    HW1 2310   1.902   2.092   2.305  0.8289 -0.2444 -0.8448
  578SOL    HW2 2311   2.044   2.048   2.341 -0.4733 -1.6885 -1.5532
  578SOL     MW 2312   1.981   2.116   2.336 -0.2507 -0.5675 -0.7581
  579SOL     OW 2313   0.848   2.512   2.484  0.5543  0.5556  0.1064
  579SOL    HW1 2314   0.902   2.440   2.498 -2.1657 -0.6648 -0.5179
  579SOL    HW2 2315   0.899   2.563   2.422 -0.0651  1.3350  1.0804
  579SOL     MW 2316   0.862   2.509   2.478  0.1137  0.4974  0.1525
  580SOL     OW 2317   0.977   2.859   3.103  0.4314 -0.1570  0.2112
  580SOL    HW1 2318   0.940   2.935   3.063 -2.0936 -1.9246 -0.1579
  580SOL    HW2 2319   0.922   2.790   3.049  0.1293 -1.0995  0.0150
  580SOL     MW 2320   0.965   2.860   3.091  0.0584 -0.5146  0.1366
  581SOL     OW 2321   1.111   2.450   1.783 -0.4293  0.2571  0.1298
  581SOL    HW1 2322   1.180   2.500   1.830  0.1903  2.3183  0.2776
  581SOL    HW2 2323   1.150   2.389   1.724 -0.8314  0.2745 -0.4938
  581SOL     MW 2324   1.125   2.449   1.782 -0.4006  0.5313  0.0670
  582SOL     OW 2325   3.096   2.954   2.651  0.2968  0.0759  0.5382
  582SOL    HW1 2326   3.038   3.005   2.703  2.6956  0.0764 -2.4587
  582SOL    HW2 2327   3.184   2.962   2.696  2.0970  2.5759 -4.5690
  582SOL     MW 2328   3.100   2.962   2.664  0.8508  0.4058 -0.5311
  583SOL     OW 2329   1.934   2.409   2.657 -0.5593 -0.4302  0.1097
  583SOL    HW1 2330   1.997   2.440   2.591 -1.4479 -0.6890 -0.0749
  583SOL    HW2 2331   1.920   2.310   2.651 -2.0684 -0.6153 -0.3266
  583SOL     MW 2332   1.941   2.400   2.647 -0.8756 -0.4888  0.0278
  584SOL     OW 2333   0.191   1.904   2.211  0.2416 -0.3589  0.5025
  584SOL    HW1 2334   0.169   1.862   2.292 -1.8387 -1.8288 -1.5800
  584SOL    HW2 2335   0.258   1.976   2.230 -0.5534  0.1290 -1.4470
  584SOL     MW 2336   0.197   1.908   2.224 -0.1378 -0.4884 -0.0295
  585SOL     OW 2337   1.554   2.700   0.167 -0.3432 -0.2629  0.1834
  585SOL    HW1 2338   1.517   2.709   0.078  0.4161 -0.5983 -1.6057
  585SOL    HW2 2339   1.480   2.718   0.225  0.8629  0.4208 -1.9406
  585SOL     MW 2340   1.540   2.704   0.163 -0.0839 -0.2170 -0.3329
  586SOL     OW 2341   1.340   2.797   2.554  0.3473 -0.7255  0.2539
  586SOL    HW1 2342   1.393   2.777   2.476 -2.4388  0.2502  0.4556
  586SOL    HW2 2343   1.331   2.890   2.575 -1.5872  0.4618  0.5149
  586SOL     MW 2344   1.345   2.807   2.547 -0.2756 -0.4401  0.3149
  587SOL     OW 2345   1.317   1.447   2.155 -0.2870  0.2421 -0.3932
  587SOL    HW1 2346   1.292   1.392   2.228 -0.1134 -0.2679 -2.4836
  587SOL    HW2 2347   1.341   1.391   2.080 -4.4695  1.2621  0.3854
  587SOL     MW 2348   1.317   1.433   2.155 -0.8160  0.3094 -0.5662
  588SOL     OW 2349   1.332   2.024   2.697 -0.1396  0.1444 -0.2538
  588SOL    HW1 2350   1.347   1.931   2.693 -1.1782  0.4879  0.1243
  588SOL    HW2 2351   1.301   2.042   2.787 -1.2634  0.4754  0.6591
  588SOL     MW 2352   1.330   2.014   2.708 -0.4249  0.2334 -0.0834
  589SOL     OW 2353   1.341   2.024   0.033 -0.3493  0.4624 -0.7848
  589SOL    HW1 2354   1.382   2.114   0.040  0.1716 -1.0127  0.8703
  589SOL    HW2 2355   1.332   1.987   0.120  1.0417  0.3718  0.4087
  589SOL     MW 2356   1.345   2.031   0.045 -0.0970  0.2559 -0.4090
  590SOL     OW 2357   0.502   2.658   2.197 -0.5299 -0.5026  1.1457
  590SOL    HW1 2358   0.508   2.674   2.101  1.7159 -1.5248 -2.4149
  590SOL    HW2 2359   0.581   2.710   2.225 -1.2520  0.0504  0.2882
  590SOL     MW 2360   0.513   2.667   2.188 -0.3289 -0.5645  0.5628
  591SOL     OW 2361   2.200   0.668   0.154 -0.0051 -0.1422 -0.4433
  591SOL    HW1 2362   2.148   0.697   0.232 -1.1810 -1.5637  0.2245
  591SOL    HW2 2363   2.169   0.688   0.065 -0.6738 -0.2756 -2.1020
  591SOL     MW 2364   2.189   0.675   0.153 -0.2485 -0.3473 -0.5740
  592SOL     OW 2365   1.658   2.902   0.780 -0.2186 -0.3308 -0.7154
  592SOL    HW1 2366   1.633   2.992   0.796 -0.3189  1.6191 -1.0587
  592SOL    HW2 2367   1.749   2.909   0.757 -1.3524 -1.9516 -1.0277
  592SOL     MW 2368   1.667   2.915   0.779 -0.3814 -0.2874 -0.8019
  593SOL     OW 2369   1.932   0.711   0.743  0.2385 -0.1273 -0.2798
  593SOL    HW1 2370   1.856   0.697   0.686 -2.8733 -1.0597 -0.8821
  593SOL    HW2 2371   1.994   0.640   0.733  1.0330  3.1059 -0.8168
  593SOL     MW 2372   1.930   0.700   0.734 -0.0672  0.1763 -0.4301
  594SOL     OW 2373   2.815   1.008   1.373  0.2953  0.6432 -0.8200
  594SOL    HW1 2374   2.899   1.056   1.385  2.5297  1.0664  2.9747
  594SOL    HW2 2375   2.775   1.053   1.299 -1.6842 -0.7083 -3.4510
  594SOL     MW 2376   2.821   1.020   1.364  0.3289  0.5207 -0.6664
  595SOL     OW 2377   0.532   0.933   0.849  0.3629  0.5963  0.2372
  595SOL    HW1 2378   0.511   1.010   0.793  1.2412  2.2556  1.0183
  595SOL    HW2 2379   0.597   0.975   0.912 -2.5747 -0.7341  0.9423
  595SOL     MW 2380   0.537   0.949   0.850  0.0912  0.6397  0.4333
  596SOL     OW 2381   2.445   1.369   0.479 -0.1378 -0.3707  0.1313
  596SOL    HW1 2382   2.408   1.426   0.413 -0.9800 -1.6551  1.3193
  596SOL    HW2 2383   2.525   1.400   0.516 -0.7571  0.6966 -0.9655
  596SOL     MW 2384   2.450   1.381   0.475 -0.3306 -0.3993  0.1434
  597SOL     OW 2385   2.233   0.640   1.563 -0.3401 -0.2116 -0.0108
  597SOL    HW1 2386   2.234   0.563   1.616  0.0384 -0.1126 -0.5288
  597SOL    HW2 2387   2.164   0.615   1.500  4.8496  0.2646  1.3224
  597SOL     MW 2388   2.224   0.626   1.562  0.3945 -0.1357  0.0968
  598SOL     OW 2389   2.590   1.025   2.901 -0.2871 -0.2935  0.0128
  598SOL    HW1 2390   2.612   0.949   2.849  1.3007  0.2592 -0.7780
  598SOL    HW2 2391   2.669   1.073   2.892 -2.2066  0.6852  0.7039
  598SOL     MW 2392   2.603   1.021   2.893 -0.3309 -0.0915 -0.0003
  599SOL     OW 2393   3.063   0.482   2.266 -0.3897  0.2315 -0.1523
  599SOL    HW1 2394   3.106   0.525   2.337 -5.5077 -0.5549 -1.4056
  599SOL    HW2 2395   3.072   0.543   2.184 -0.2672  1.3555 -3.0229
  599SOL     MW 2396   3.070   0.496   2.264 -1.0488  0.2760 -0.6964
  600SOL     OW 2397   1.821   1.709   0.838  0.1150  0.0593  0.1148
  600SOL    HW1 2398   1.857   1.751   0.916 -0.7342  0.0013 -0.2203
  600SOL    HW2 2399   1.740   1.760   0.830  0.1091 -1.6805  1.1363
  600SOL     MW 2400   1.815   1.721   0.847  0.0021 -0.1779  0.2054
  601SOL     OW 2401   2.543   0.766   0.867 -0.1217  0.1843  0.4412
  601SOL    HW1 2402   2.548   0.745   0.958 -0.1993 -1.3337 -2.7459
  601SOL    HW2 2403   2.527   0.681   0.831 -1.5371 -1.0177  2.2286
  601SOL     MW 2404   2.541   0.752   0.874 -0.3187 -0.1746  0.2565
  602SOL     OW 2405   2.264   1.918   0.762 -0.2878  0.5493  0.1692
  602SOL    HW1 2406   2.205   1.856   0.716 -1.2642 -0.5464 -0.6321
  602SOL    HW2 2407   2.217   2.002   0.745  4.8460 -2.8549 -1.4649
  602SOL     MW 2408   2.250   1.921   0.754  0.2607 -0.0444 -0.1522
  603SOL     OW 2409   2.990   1.370   1.959  0.1012  0.2864 -0.3016
  603SOL    HW1 2410   2.965   1.408   2.040 -0.9310  0.1622  0.1884
  603SOL    HW2 2411   3.033   1.291   1.976 -0.8490 -1.4381  1.8920
  603SOL     MW 2412   2.992   1.365   1.972 -0.1603  0.0425  0.0525
  604SOL     OW 2413   2.023   1.387   0.355  0.2477  0.2691  0.5690
  604SOL    HW1 2414   2.067   1.320   0.407  2.0655  1.6985 -1.1444
  604SOL    HW2 2415   1.968   1.433   0.422 -1.1197  2.5900  0.2501
  604SOL     MW 2416   2.022   1.384   0.371  0.3071  0.7639  0.3009
  605SOL     OW 2417   2.438   1.453   0.818  0.0273  0.0453 -0.3317
  605SOL    HW1 2418   2.433   1.517   0.745  1.1547  2.5493  1.0476
  605SOL    HW2 2419   2.479   1.374   0.787  0.4017  0.6788 -1.3808
  605SOL     MW 2420   2.443   1.451   0.804  0.2254  0.4592 -0.2881
  606SOL     OW 2421   2.695   1.758   1.794 -0.2350  0.0006 -0.2810
  606SOL    HW1 2422   2.627   1.790   1.853  0.5595  1.2957 -0.0017
  606SOL    HW2 2423   2.671   1.673   1.761 -0.6232  2.2394  3.0559
  606SOL     MW 2424   2.683   1.751   1.798 -0.1814  0.4669  0.1961
  607SOL     OW 2425   2.379   0.989   3.077  0.3176  0.1888  0.2450
  607SOL    HW1 2426   2.459   1.018   3.028 -0.1720  0.0588  0.4341
  607SOL    HW2 2427   2.401   1.006   3.173  0.5986  4.6710 -2.9672
  607SOL     MW 2428   2.392   0.995   3.083  0.2901  0.7630 -0.1538
  608SOL     OW 2429   1.878   0.253   0.495  0.4925  0.1001 -0.3896
  608SOL    HW1 2430   1.906   0.290   0.405 -0.5727  1.9509 -2.1181
  608SOL    HW2 2431   1.899   0.157   0.488  1.5824  0.2589  0.1104
  608SOL     MW 2432   1.884   0.245   0.482  0.4958  0.3652 -0.5517
  609SOL     OW 2433   2.128   1.889   3.069 -0.1339  0.2983  0.5331
  609SOL    HW1 2434   2.047   1.839   3.039 -0.9251  0.1962  0.8233
  609SOL    HW2 2435   2.141   1.871   3.162  0.1729 -0.7438 -0.2914
  609SOL     MW 2436   2.119   1.880   3.077 -0.1978  0.1474  0.4626
  610SOL     OW 2437   1.809   0.948   1.204  0.3823  0.4777  0.1339
  610SOL    HW1 2438   1.824   0.890   1.132 -2.4168  1.5430 -1.6885
  610SOL    HW2 2439   1.705   0.965   1.200 -3.8062 -0.4111  2.5435
  610SOL     MW 2440   1.797   0.943   1.194 -0.5396  0.5010  0.2114
  611SOL     OW 2441   2.468   1.640   0.593  0.2884 -0.5111  0.1030
  611SOL    HW1 2442   2.429   1.633   0.508 -0.0876  0.5905 -1.8480
  611SOL    HW2 2443   2.483   1.730   0.597 -0.9707 -0.6718 -1.3773
  611SOL     MW 2444   2.465   1.651   0.582  0.0727 -0.3869 -0.3497
  612SOL     OW 2445   2.870   2.898   0.376  0.0679 -0.9449  0.7060
  612SOL    HW1 2446   2.894   2.932   0.466  0.8128  1.7321 -1.8761
  612SOL    HW2 2447   2.952   2.857   0.340  0.3346  0.9014 -0.3784
  612SOL     MW 2448   2.884   2.897   0.383  0.2013 -0.3481  0.2222
  613SOL     OW 2449   1.419   1.106   0.995  0.0617  0.3712 -0.4914
  613SOL    HW1 2450   1.452   1.195   0.987 -3.3521 -0.5699 -0.9622
  613SOL    HW2 2451   1.468   1.061   1.069  0.1496 -0.9973 -0.8935
  613SOL     MW 2452   1.430   1.112   1.003 -0.3771  0.0665 -0.6065
  614SOL     OW 2453   2.054   0.475   1.434  0.6426  0.0533  0.8318
  614SOL    HW1 2454   2.036   0.448   1.523  1.3046  2.4109 -1.5744
  614SOL    HW2 2455   1.973   0.521   1.411 -1.3770  0.4052  0.7095
  614SOL     MW 2456   2.041   0.478   1.443  0.4635  0.4108  0.4982
  615SOL     OW 2457   2.405   0.734   0.329 -0.0609  0.3171 -0.2272
  615SOL    HW1 2458   2.478   0.675   0.317 -3.4474 -0.2311 -1.0534
  615SOL    HW2 2459   2.345   0.698   0.269 -1.3331 -0.5222 -0.6799
  615SOL     MW 2460   2.407   0.721   0.320 -0.6756  0.1340 -0.3959
  616SOL     OW 2461   2.582   0.403   1.640 -0.1537 -0.2919  0.4550
  616SOL    HW1 2462   2.599   0.328   1.577  0.8473 -0.7127  1.1527
  616SOL    HW2 2463   2.573   0.486   1.593 -1.5115  0.8728  2.2359
  616SOL     MW 2464   2.583   0.404   1.626 -0.2008 -0.1938  0.7820
  617SOL     OW 2465   2.827   0.552   1.845 -0.2960  0.2453 -0.0859
  617SOL    HW1 2466   2.744   0.547   1.887 -1.8808  0.6683  0.6006
  617SOL    HW2 2467   2.833   0.462   1.802 -2.0607  2.4924  0.6395
  617SOL     MW 2468   2.817   0.540   1.845 -0.7379  0.5976  0.1004
  618SOL     OW 2469   2.820   0.250   2.005  0.0022 -0.2870  0.2013
  618SOL    HW1 2470   2.760   0.295   2.067 -0.6067 -0.3486 -1.1487
  618SOL    HW2 2471   2.903   0.251   2.059  1.3525 -3.0382 -0.6453
  618SOL     MW 2472   2.823   0.256   2.020  0.1001 -0.6581 -0.0885
  619SOL     OW 2473   2.721   0.723   0.082  0.4950  0.2177 -0.2272
  619SOL    HW1 2474   2.751   0.802   0.042 -0.4888 -0.4451 -0.8925
  619SOL    HW2 2475   2.766   0.717   0.166  0.3932 -0.1530  1.8614
  619SOL     MW 2476   2.731   0.733   0.088  0.3518  0.0813 -0.0394
  620SOL     OW 2477   2.230   1.021   0.926 -0.1929 -0.2615 -0.5640
  620SOL    HW1 2478   2.315   1.015   0.881  0.1088 -0.0383 -1.3106
  620SOL    HW2 2479   2.158   1.013   0.863 -1.0917 -1.3453  1.3277
  620SOL     MW 2480   2.231   1.019   0.912 -0.2717 -0.3750 -0.4129
  621SOL     OW 2481   1.514   2.206   1.988  0.0383 -0.2170 -0.5623
  621SOL    HW1 2482   1.459   2.140   2.037  1.8756  0.2980 -0.6823
  621SOL    HW2 2483   1.606   2.192   2.013 -0.7889  4.8666 -0.6959
  621SOL     MW 2484   1.519   2.195   1.998  0.1716  0.5217 -0.5958
  622SOL     OW 2485   2.641   0.287   0.211  0.1617 -0.3336 -0.3594
  622SOL    HW1 2486   2.736   0.311   0.199 -1.3728 -1.7540 -1.5237
  622SOL    HW2 2487   2.650   0.193   0.215  0.2412 -0.8853  1.1595
  622SOL     MW 2488   2.655   0.278   0.210 -0.0303 -0.5938 -0.3126
  623SOL     OW 2489   2.351   2.773   0.820 -0.5719  0.0846 -0.0544
  623SOL    HW1 2490   2.416   2.838   0.812 -2.8644 -0.6971 -0.4820
  623SOL    HW2 2491   2.305   2.810   0.899  0.6076 -2.8394 -0.3594
  623SOL     MW 2492   2.354   2.786   0.829 -0.7188 -0.4043 -0.1511
  624SOL     OW 2493   2.116   1.587   3.040  0.0959  0.4580 -0.3227
  624SOL    HW1 2494   2.058   1.514   3.020 -1.4472 -0.5114  0.1353
  624SOL    HW2 2495   2.063   1.657   3.058  2.7836  0.5098  1.1683
  624SOL     MW 2496   2.102   1.587   3.040  0.2469  0.3370 -0.0656
  625SOL     OW 2497   2.163   1.882   1.018 -0.4167  1.2347  0.1663
  625SOL    HW1 2498   2.208   1.812   1.073  0.6856  3.0936  0.1858
  625SOL    HW2 2499   2.204   1.882   0.932  0.2259  1.4292  2.0287
  625SOL     MW 2500   2.175   1.873   1.014 -0.1865  1.5056  0.4146
  626SOL     OW 2501   0.144   1.848   2.459 -0.1139 -0.0817 -0.3804
  626SOL    HW1 2502   0.091   1.769   2.487  2.6442  4.0681 -0.7995
  626SOL    HW2 2503   0.081   1.925   2.462 -3.0456 -1.4921  0.9077
  626SOL     MW 2504   0.128   1.848   2.463 -0.1368  0.2797 -0.2657
  627SOL     OW 2505   2.605   0.802   2.595 -0.5728 -0.3658  0.5085
  627SOL    HW1 2506   2.519   0.854   2.591 -1.9434 -1.5163 -0.1885
  627SOL    HW2 2507   2.624   0.764   2.508  1.9606  0.9342 -0.0214
  627SOL     MW 2508   2.596   0.804   2.583 -0.4194 -0.3461  0.3466
  628SOL     OW 2509   2.354   1.420   1.291 -0.2086 -0.9522 -0.0980
  628SOL    HW1 2510   2.377   1.345   1.234  0.2512 -0.4973  0.3901
  628SOL    HW2 2511   2.396   1.498   1.256  0.0488 -0.4844  0.7898
  628SOL     MW 2512   2.363   1.420   1.279 -0.1140 -0.8304  0.0836
  629SOL     OW 2513   1.830   0.627   1.315  0.3837 -0.2320 -0.1967
  629SOL    HW1 2514   1.868   0.678   1.242  2.4371  0.1314  0.6631
  629SOL    HW2 2515   1.742   0.605   1.286  1.8179 -0.3399 -0.7906
  629SOL     MW 2516   1.823   0.631   1.302  0.8438 -0.1983 -0.1616
  630SOL     OW 2517   2.397   1.924   3.064  0.6672  0.1161  0.4298
  630SOL    HW1 2518   2.380   1.996   3.001 -1.9998  0.5760 -1.9955
  630SOL    HW2 2519   2.302   1.900   3.069  0.2396 -0.4922 -0.0489
  630SOL     MW 2520   2.382   1.930   3.056  0.2589  0.0965  0.0467
  631SOL     OW 2521   2.102   1.846   1.493  0.0286  0.3392 -0.2675
  631SOL    HW1 2522   2.071   1.767   1.543  1.2510 -0.1314 -0.6399
  631SOL    HW2 2523   2.027   1.907   1.481 -1.0011 -0.7019  1.0423
  631SOL     MW 2524   2.088   1.844   1.498  0.0540  0.1397 -0.1439
  632SOL     OW 2525   0.370   1.871   1.475  0.9137  0.4940 -0.4294
  632SOL    HW1 2526   0.304   1.946   1.462  0.4549  0.8331  2.1253
  632SOL    HW2 2527   0.319   1.788   1.489  1.3540 -3.8013 -0.5398
  632SOL     MW 2528   0.355   1.870   1.475  0.9113 -0.0280 -0.1069
  633SOL     OW 2529   2.607   0.527   0.360  0.6179  0.6402  0.4465
  633SOL    HW1 2530   2.681   0.527   0.416  0.4285 -0.3122 -1.4556
  633SOL    HW2 2531   2.615   0.444   0.317  1.0062  0.4482 -1.5511
  633SOL     MW 2532   2.618   0.516   0.362  0.6441  0.4892 -0.0680
  634SOL     OW 2533   2.707   3.065   0.587 -0.1660  0.0704  0.2003
  634SOL    HW1 2534   2.726   3.160   0.575  1.1933 -1.2158  1.4102
  634SOL    HW2 2535   2.683   3.035   0.499  1.9722  1.0564  0.3039
  634SOL     MW 2536   2.707   3.074   0.574  0.2954  0.0308  0.3736
  635SOL     OW 2537   2.649   0.020   1.874  0.8181  0.2119 -0.9679
  635SOL    HW1 2538   2.712  -0.029   1.823 -0.7161  4.3415  0.8199
  635SOL    HW2 2539   2.683   0.114   1.878 -0.6326 -0.4569 -0.4733
  635SOL     MW 2540   2.662   0.026   1.868  0.4243  0.6685 -0.6668
  636SOL     OW 2541   2.705   1.672   0.760 -0.3637 -0.8541 -0.1858
  636SOL    HW1 2542   2.634   1.621   0.720 -0.0215  0.5258  0.0969
  636SOL    HW2 2543   2.674   1.751   0.805  1.3613  0.1067 -0.7772
  636SOL     MW 2544   2.691   1.676   0.761 -0.0910 -0.5453 -0.2265
  637SOL     OW 2545   2.911   1.452   0.714  0.5350 -0.3956  0.3863
  637SOL    HW1 2546   2.973   1.513   0.678  0.3669 -2.1370  1.8953
  637SOL    HW2 2547   2.837   1.505   0.732 -0.7477 -0.3492 -0.5373
  637SOL     MW 2548   2.910   1.467   0.712  0.3436 -0.6192  0.4635
  638SOL     OW 2549   2.825   0.540   0.538 -0.4313  0.2365  0.3206
  638SOL    HW1 2550   2.907   0.591   0.521  1.5500 -1.7641 -1.9338
  638SOL    HW2 2551   2.799   0.552   0.627  0.3726 -3.0002  0.4458
  638SOL     MW 2552   2.832   0.549   0.547 -0.0638 -0.4545  0.0397
  639SOL     OW 2553   1.831   3.090   0.544  0.5135 -0.1639 -0.0309
  639SOL    HW1 2554   1.737   3.115   0.549 -3.4280  0.9650 -0.4782
  639SOL    HW2 2555   1.810   2.998   0.521  0.2710 -0.1554 -2.2838
  639SOL     MW 2556   1.816   3.081   0.542 -0.0385 -0.0139 -0.3872
  640SOL     OW 2557   0.288   1.444   0.092 -0.3452  0.3546  0.1944
  640SOL    HW1 2558   0.312   1.416   0.006  3.4603  1.3562  0.9092
  640SOL    HW2 2559   0.305   1.361   0.141  0.4452  1.8298  1.6522
  640SOL     MW 2560   0.293   1.429   0.087  0.2612  0.6814  0.4811
  641SOL     OW 2561   2.294   0.361   0.419  0.2322  0.7111 -0.1860
  641SOL    HW1 2562   2.302   0.292   0.358  0.4175 -0.2131  1.4532
  641SOL    HW2 2563   2.358   0.330   0.484  3.0083  3.3130 -1.8239
  641SOL     MW 2564   2.303   0.348   0.420  0.6230  0.9324 -0.1858
  642SOL     OW 2565   0.097   3.083   0.475  0.3252  0.0634 -0.2877
  642SOL    HW1 2566   0.101   3.180   0.465 -0.2828  0.7403  0.3366
  642SOL    HW2 2567   0.014   3.086   0.522  1.7702 -0.6385 -0.3878
  642SOL     MW 2568   0.086   3.097   0.480  0.4356  0.0601 -0.2186
  643SOL     OW 2569   2.141   0.341   1.676  0.3120  0.8016  0.0290
  643SOL    HW1 2570   2.060   0.316   1.721  0.6125  0.2622  1.2092
  643SOL    HW2 2571   2.158   0.268   1.612  0.3311 -1.5238 -0.3080
  643SOL     MW 2572   2.133   0.328   1.674  0.3542  0.4236  0.1403
  644SOL     OW 2573   2.699   1.903   0.950 -0.1386  0.5916  0.3612
  644SOL    HW1 2574   2.699   1.866   1.038  0.2022  4.1305 -0.5366
  644SOL    HW2 2575   2.616   1.957   0.933  0.5531  2.2585  0.4628
  644SOL     MW 2576   2.688   1.905   0.959 -0.0024  1.2785  0.2561
  645SOL     OW 2577   2.802   0.966   0.786  0.4806  1.0918 -0.4708
  645SOL    HW1 2578   2.880   0.914   0.798 -0.8010  0.5700  0.5905
  645SOL    HW2 2579   2.776   0.983   0.873  0.5573 -0.2053 -1.6184
  645SOL     MW 2580   2.809   0.961   0.799  0.3216  0.8518 -0.4822
  646SOL     OW 2581   0.127   2.276   0.889 -0.2099  0.3094  0.4410
  646SOL    HW1 2582   0.148   2.173   0.874  1.3574 -0.3070  1.1581
  646SOL    HW2 2583   0.084   2.311   0.810  0.7160  0.1804 -0.8274
  646SOL     MW 2584   0.124   2.267   0.877  0.1190  0.2110  0.3683
  647SOL     OW 2585   2.794   0.513   3.004  0.0708 -0.4076  0.3755
  647SOL    HW1 2586   2.706   0.483   3.017 -0.8777  1.1901 -2.0794
  647SOL    HW2 2587   2.784   0.585   3.065 -0.2838  0.8764  0.1548
  647SOL     MW 2588   2.781   0.519   3.014 -0.1012 -0.0274  0.0225
  648SOL     OW 2589   2.133   0.633   1.123 -0.7595  0.0860 -0.0782
  648SOL    HW1 2590   2.198   0.582   1.169  2.0794  0.5082 -0.8297
  648SOL    HW2 2591   2.183   0.689   1.069 -0.1814 -0.9228  0.6505
  648SOL     MW 2592   2.148   0.634   1.122 -0.3087  0.0086 -0.0812
  649SOL     OW 2593   2.403   2.690   1.314  0.2433 -0.2553 -0.2683
  649SOL    HW1 2594   2.495   2.706   1.320  0.6655 -0.7699  0.4452
  649SOL    HW2 2595   2.409   2.594   1.295  1.8944  0.4778  3.1382
  649SOL     MW 2596   2.416   2.680   1.312  0.5169 -0.2265  0.2753
  650SOL     OW 2597   2.731   0.238   0.496 -0.2806 -0.4215 -0.1417
  650SOL    HW1 2598   2.782   0.318   0.500 -0.7037  0.7897 -2.5998
  650SOL    HW2 2599   2.720   0.228   0.401 -2.7512  1.5695 -0.7563
  650SOL     MW 2600   2.736   0.247   0.484 -0.6624  0.0010 -0.5471
  651SOL     OW 2601   0.019   0.440   1.002 -0.3181 -0.0049  0.1481
  651SOL    HW1 2602   0.065   0.516   0.958 -0.6019  1.1844  2.7366
  651SOL    HW2 2603  -0.067   0.482   1.031 -1.4047  1.7605 -0.7719
  651SOL     MW 2604   0.014   0.455   1.000 -0.4989  0.3850  0.3683
  652SOL     OW 2605   2.356   1.441   2.946 -0.8214 -0.2945 -1.1096
  652SOL    HW1 2606   2.421   1.489   2.893 -1.5094  1.2873 -2.0714
  652SOL    HW2 2607   2.272   1.487   2.943  0.5006 -0.6158  1.7721
  652SOL     MW 2608   2.354   1.453   2.938 -0.7378 -0.1282 -0.8563
  653SOL     OW 2609   1.854   0.367   0.225  0.0215  0.3171 -0.0608
  653SOL    HW1 2610   1.838   0.280   0.184 -1.4360  2.7644  0.3153
  653SOL    HW2 2611   1.912   0.408   0.162  0.7186  1.1918 -0.8486
  653SOL     MW 2612   1.859   0.361   0.211 -0.0789  0.7554 -0.1151
  654SOL     OW 2613   2.426   1.003   0.726  0.3070  0.2330 -0.3064
  654SOL    HW1 2614   2.397   0.979   0.639  1.7404  2.8552  1.3268
  654SOL    HW2 2615   2.459   0.914   0.760 -0.3383 -1.6492 -0.8068
  654SOL     MW 2616   2.427   0.988   0.719  0.4110  0.3306 -0.1569
  655SOL     OW 2617   2.883   0.940   0.284  0.2019  0.5005  0.4087
  655SOL    HW1 2618   2.843   0.985   0.358 -0.0350 -1.0620 -0.1926
  655SOL    HW2 2619   2.962   0.894   0.315  0.5568  0.4832  0.2921
  655SOL     MW 2620   2.888   0.940   0.298  0.2174  0.2921  0.3140
  656SOL     OW 2621   1.782   2.651   1.421 -0.4666  0.1456  0.2020
  656SOL    HW1 2622   1.867   2.692   1.416 -0.0750  0.8580  0.9071
  656SOL    HW2 2623   1.799   2.560   1.447 -0.2374 -0.7107 -0.3359
  656SOL     MW 2624   1.795   2.645   1.424 -0.3847  0.1266  0.2240
  657SOL     OW 2625   0.085   1.777   1.110  0.4625  0.1586 -0.2938
  657SOL    HW1 2626   0.172   1.801   1.125  0.1928 -1.4617  1.6002
  657SOL    HW2 2627   0.074   1.697   1.159  0.6880  0.6582 -0.2034
  657SOL     MW 2628   0.095   1.770   1.118  0.4567  0.0107 -0.0320
  658SOL     OW 2629   2.650   1.341   0.214  0.3654  0.2014  0.0002
  658SOL    HW1 2630   2.654   1.269   0.275  2.0219  1.3937 -0.5592
  658SOL    HW2 2631   2.666   1.413   0.271  2.1293 -1.8405 -1.7382
  658SOL     MW 2632   2.653   1.341   0.230  0.8167  0.0893 -0.3030
  659SOL     OW 2633   2.101   1.404   1.034 -0.3373 -0.4895  0.0992
  659SOL    HW1 2634   2.147   1.321   1.069  0.9869 -0.2635  0.9017
  659SOL    HW2 2635   2.081   1.452   1.110  0.3171  0.6621 -0.5256
  659SOL     MW 2636   2.104   1.399   1.049 -0.0763 -0.3077  0.1227
  660SOL     OW 2637   2.080   1.590   1.594 -0.0391  0.5917  0.0244
  660SOL    HW1 2638   2.075   1.609   1.689 -2.0048  0.6665  0.7092
  660SOL    HW2 2639   2.015   1.513   1.598 -1.6349 -0.5601  1.3673
  660SOL     MW 2640   2.070   1.583   1.607 -0.5090  0.4496  0.2920
  661SOL     OW 2641   2.420   0.989   0.252 -0.0814 -0.0242  0.4990
  661SOL    HW1 2642   2.489   1.036   0.302 -0.7894 -1.2639 -1.5107
  661SOL    HW2 2643   2.427   0.896   0.263  0.2878  2.3921 -0.3917
  661SOL     MW 2644   2.430   0.983   0.260 -0.1261  0.1311  0.1164
  662SOL     OW 2645   2.534   2.984   0.805 -0.2231  0.8066 -0.5355
  662SOL    HW1 2646   2.487   3.047   0.860  0.2127 -2.1233  0.6512
  662SOL    HW2 2647   2.583   3.028   0.741 -2.3841 -0.3641 -1.5562
  662SOL     MW 2648   2.534   2.998   0.804 -0.4507  0.2656 -0.5136
  663SOL     OW 2649   2.710   1.551   0.403  0.0602 -0.0664 -0.1159
  663SOL    HW1 2650   2.691   1.629   0.355  0.2538 -1.8709 -1.0925
  663SOL    HW2 2651   2.806   1.563   0.425 -1.2913 -1.1496 -1.3971
  663SOL     MW 2652   2.720   1.563   0.399 -0.0926 -0.4474 -0.4138
  664SOL     OW 2653   2.531   1.449   1.522  0.1452  0.6489  0.9730
  664SOL    HW1 2654   2.491   1.529   1.490  1.2101  0.3266  0.9344
  664SOL    HW2 2655   2.460   1.390   1.556 -1.7123 -1.4104 -2.3660
  664SOL     MW 2656   2.516   1.452   1.522  0.0407  0.3347  0.5274
  665SOL     OW 2657   2.863   0.782   2.120 -0.0056 -0.3474 -0.0792
  665SOL    HW1 2658   2.827   0.827   2.041 -0.2144  0.6453  0.7889
  665SOL    HW2 2659   2.933   0.730   2.080  1.3687  1.8786  0.0733
  665SOL     MW 2660   2.867   0.781   2.104  0.1482  0.0773  0.0555
  666SOL     OW 2661   2.825   2.984   1.705 -0.5540 -0.1811  0.1664
  666SOL    HW1 2662   2.815   3.020   1.615  3.0163 -2.2809 -1.2067
  666SOL    HW2 2663   2.761   2.911   1.720 -3.5917 -0.1169 -0.9944
  666SOL     MW 2664   2.816   2.979   1.695 -0.4837 -0.4497 -0.1679
  667SOL     OW 2665   2.022   2.719   1.732  0.3568 -0.5536  0.1449
  667SOL    HW1 2666   2.067   2.665   1.794 -1.8180 -0.7930  2.4472
  667SOL    HW2 2667   2.079   2.798   1.715 -1.4168 -0.3002  0.5426
  667SOL     MW 2668   2.035   2.722   1.738 -0.1641 -0.5518  0.5011
  668SOL     OW 2669   2.792   0.582   0.822  0.0533  0.7651 -0.0128
  668SOL    HW1 2670   2.851   0.586   0.892  0.5191 -0.3731 -0.1610
  668SOL    HW2 2671   2.721   0.644   0.838  1.2334  0.0505 -0.7954
  668SOL     MW 2672   2.790   0.591   0.833  0.2704  0.5206 -0.1356
  669SOL     OW 2673   0.170   0.998   0.676  0.4261  0.2593 -0.3327
  669SOL    HW1 2674   0.140   1.013   0.765 -1.5159 -0.1179  0.0689
  669SOL    HW2 2675   0.253   1.052   0.678 -2.3117  0.1979  0.0758
  669SOL     MW 2676   0.177   1.007   0.688 -0.1914  0.2014 -0.2258
  670SOL     OW 2677   2.917   0.342   0.278 -0.3194 -0.4756 -0.5483
  670SOL    HW1 2678   2.934   0.281   0.209  1.7779  0.5816  0.9656
  670SOL    HW2 2679   2.931   0.429   0.240 -2.4109  1.6924 -2.8149
  670SOL     MW 2680   2.921   0.345   0.264 -0.3186 -0.0501 -0.6476
  671SOL     OW 2681   2.052   3.047   1.467  0.0627 -0.4222 -0.4432
  671SOL    HW1 2682   1.991   3.006   1.402  0.3754 -0.9118 -0.0313
  671SOL    HW2 2683   2.002   3.063   1.545 -0.3415 -1.0719 -1.6034
  671SOL     MW 2684   2.037   3.043   1.469  0.0506 -0.5725 -0.5419
  672SOL     OW 2685   1.836   1.778   1.299 -0.2065 -0.1204  0.0320
  672SOL    HW1 2686   1.849   1.869   1.349 -1.1923 -0.9104  0.2683
  672SOL    HW2 2687   1.856   1.802   1.210 -0.7278  0.9649  0.4804
  672SOL     MW 2688   1.840   1.793   1.294 -0.4054 -0.0814  0.1223
  673SOL     OW 2689   2.814   1.096   0.531  0.4220  0.0897  0.0451
  673SOL    HW1 2690   2.803   1.024   0.586  0.6310 -0.3347  0.1776
  673SOL    HW2 2691   2.908   1.113   0.550  2.5495 -1.2904  1.9037
  673SOL     MW 2692   2.825   1.089   0.541  0.7303 -0.1484  0.3078
  674SOL     OW 2693   2.460   3.071   1.205 -0.4490 -0.2542 -0.1194
  674SOL    HW1 2694   2.400   3.091   1.131 -1.6300 -3.4628  1.6272
  674SOL    HW2 2695   2.472   2.976   1.196  3.0619 -1.3635 -1.6065
  674SOL     MW 2696   2.454   3.061   1.194 -0.1416 -0.8239 -0.0851
  675SOL     OW 2697   2.985   0.868   1.098 -0.2459 -0.1053 -0.1618
  675SOL    HW1 2698   3.032   0.857   1.183 -3.5706 -1.8267  1.5147
  675SOL    HW2 2699   3.031   0.934   1.050 -0.8464 -2.3992 -2.5652
  675SOL     MW 2700   2.998   0.875   1.103 -0.7638 -0.6351 -0.2577
  676SOL     OW 2701   2.893   1.446   1.716 -0.1752 -0.2561  0.8787
  676SOL    HW1 2702   2.870   1.360   1.675  2.1431 -1.1215  1.0111
  676SOL    HW2 2703   2.930   1.430   1.805 -1.3438 -4.2053 -1.8428
  676SOL     MW 2704   2.895   1.433   1.723 -0.0235 -0.8913  0.5371
  677SOL     OW 2705   2.473   0.696   1.899 -0.5786  0.7425 -0.8372
  677SOL    HW1 2706   2.419   0.634   1.847 -0.2885  2.5733 -0.5018
  677SOL    HW2 2707   2.415   0.766   1.924  2.6038  0.7457  4.5010
  677SOL     MW 2708   2.458   0.697   1.895 -0.1204  0.9845 -0.0886
  678SOL     OW 2709   2.377   1.572   0.327 -0.2636  0.2623 -0.0557
  678SOL    HW1 2710   2.289   1.589   0.365 -1.1504 -2.5943  2.0797
  678SOL    HW2 2711   2.369   1.510   0.246  0.5036 -0.3782 -0.3560
  678SOL     MW 2712   2.364   1.566   0.321 -0.2794 -0.1991  0.1865
  679SOL     OW 2713   2.291   0.421   1.292 -0.4236  0.0242 -0.1063
  679SOL    HW1 2714   2.274   0.347   1.234  0.1743  0.5897 -0.0906
  679SOL    HW2 2715   2.207   0.430   1.343  1.6558  3.0053  1.5960
  679SOL     MW 2716   2.278   0.413   1.291 -0.0704  0.4922  0.1204
  680SOL     OW 2717   2.467   0.145   1.479 -0.4592  0.3988 -0.3202
  680SOL    HW1 2718   2.373   0.155   1.458  2.6295  1.0040 -0.5241
  680SOL    HW2 2719   2.494   0.082   1.420  1.4098 -1.8571  3.1128
  680SOL     MW 2720   2.459   0.138   1.468  0.1949  0.1810  0.1059
  681SOL     OW 2721   0.228   0.597   1.449 -0.0728 -0.3917 -0.1815
  681SOL    HW1 2722   0.228   0.514   1.496 -0.0202 -2.1013  0.7870
  681SOL    HW2 2723   0.256   0.580   1.362 -0.8665 -5.3480  0.3811
  681SOL     MW 2724   0.232   0.584   1.444 -0.1706 -1.2712  0.0205
  682SOL     OW 2725   3.076   2.860   1.526 -0.1963  0.0132 -0.3679
  682SOL    HW1 2726   3.142   2.923   1.517 -3.7682  0.1698  2.3595
  682SOL    HW2 2727   3.050   2.902   1.611 -1.2402 -1.0624  1.6252
  682SOL     MW 2728   3.081   2.874   1.536 -0.8053 -0.1080  0.2549
  683SOL     OW 2729   2.096   0.780   3.017  0.3986 -0.7576  0.2193
  683SOL    HW1 2730   2.023   0.719   3.039  1.8018 -2.0396  0.7374
  683SOL    HW2 2731   2.048   0.858   3.041 -0.6621 -0.0158  1.1190
  683SOL     MW 2732   2.080   0.782   3.023  0.4438 -0.8289  0.4064
  684SOL     OW 2733   2.056   1.752   0.652  0.0493 -0.2398  0.3734
  684SOL    HW1 2734   2.085   1.701   0.572  0.2361  2.0758 -0.8610
  684SOL    HW2 2735   1.989   1.702   0.697  1.1170  1.6565  0.6958
  684SOL     MW 2736   2.051   1.738   0.647  0.2148  0.3159  0.2531
  685SOL     OW 2737   2.652   1.749   1.171 -0.6102  0.4310 -0.5031
  685SOL    HW1 2738   2.696   1.720   1.252  0.4385 -2.2546 -0.1153
  685SOL    HW2 2739   2.640   1.674   1.116  0.2603 -0.7195 -2.3016
  685SOL     MW 2740   2.656   1.735   1.174 -0.3570 -0.0751 -0.6892
  686SOL     OW 2741   2.822   0.641   1.591 -0.5519 -0.2791 -0.7968
  686SOL    HW1 2742   2.814   0.599   1.674 -1.2908  0.0311 -3.5646
  686SOL    HW2 2743   2.919   0.666   1.585  1.0722 -1.5962 -0.1646
  686SOL     MW 2744   2.834   0.639   1.601 -0.4351 -0.4120 -1.0786
  687SOL     OW 2745   2.120   0.176   1.108  0.7047  0.4168 -0.4068
  687SOL    HW1 2746   2.200   0.153   1.064 -2.6673 -5.1069 -2.1554
  687SOL    HW2 2747   2.096   0.249   1.052  2.1478  3.1037 -0.2065
  687SOL     MW 2748   2.128   0.183   1.095  0.4502  0.0425 -0.6111
  688SOL     OW 2749   2.462   0.580   1.442 -0.1793  0.3956  1.1577
  688SOL    HW1 2750   2.438   0.530   1.363  0.0016  1.5553 -1.6160
  688SOL    HW2 2751   2.379   0.598   1.490 -0.6089 -0.3738  0.3514
  688SOL     MW 2752   2.448   0.576   1.438 -0.2121  0.4471  0.6853
  689SOL     OW 2753   2.503   0.737   2.994 -0.1318 -0.2553 -0.3980
  689SOL    HW1 2754   2.440   0.807   3.021 -1.1317  0.2261  2.5409
  689SOL    HW2 2755   2.573   0.729   3.059 -0.4933  2.3282  1.7605
  689SOL     MW 2756   2.504   0.745   3.006 -0.3114  0.1491  0.2745
  690SOL     OW 2757   2.029   0.944   1.841 -0.2952  0.6987 -0.0400
  690SOL    HW1 2758   2.013   0.851   1.868 -2.7221  1.5140 -2.8872
  690SOL    HW2 2759   2.089   0.937   1.770 -1.5747  2.9851 -0.3516
  690SOL     MW 2760   2.035   0.931   1.835 -0.7843  1.1080 -0.4568
  691SOL     OW 2761   2.434   0.300   0.884 -0.4187  0.2224 -0.1139
  691SOL    HW1 2762   2.528   0.304   0.901  0.1995 -0.7217 -0.2601
  691SOL    HW2 2763   2.418   0.389   0.861  2.4515 -1.2435 -0.9419
  691SOL     MW 2764   2.444   0.312   0.883  0.0415 -0.0955 -0.2424
  692SOL     OW 2765   2.776   1.627   1.399 -0.6521  0.1979  0.1567
  692SOL    HW1 2766   2.751   1.594   1.487 -2.6065 -0.8982 -1.2519
  692SOL    HW2 2767   2.819   1.711   1.426  2.0796 -0.8303 -3.0954
  692SOL     MW 2768   2.778   1.634   1.414 -0.5495 -0.0824 -0.4582
  693SOL     OW 2769   2.277   0.459   0.006 -1.1712  0.7507  0.1703
  693SOL    HW1 2770   2.224   0.376   0.018  2.4286  1.2542  0.9198
  693SOL    HW2 2771   2.267   0.517   0.079 -0.0137 -0.4325  0.6677
  693SOL     MW 2772   2.269   0.456   0.017 -0.5435  0.6610  0.3348
  694SOL     OW 2773   1.929   1.194   1.197  0.1842  0.1212 -0.3363
  694SOL    HW1 2774   2.022   1.184   1.208  0.2620  0.3147  1.9503
  694SOL    HW2 2775   1.890   1.101   1.213  1.8985 -0.1487  0.6654
  694SOL     MW 2776   1.936   1.180   1.200  0.4207  0.1111  0.0975
  695SOL     OW 2777   2.927   1.416   1.278  0.3479  0.4504 -0.2565
  695SOL    HW1 2778   2.911   1.431   1.184 -0.4119  0.5036  1.1335
  695SOL    HW2 2779   2.875   1.483   1.331  0.9792 -1.5967  1.5970
  695SOL     MW 2780   2.918   1.426   1.273  0.3310  0.1873  0.1715
  696SOL     OW 2781   2.048   1.398   0.736  0.3343 -0.6280  0.2374
  696SOL    HW1 2782   2.083   1.452   0.807 -1.8205 -0.0589 -1.2400
  696SOL    HW2 2783   1.982   1.341   0.777  0.0533  0.1411  1.1101
  696SOL     MW 2784   2.044   1.397   0.751  0.0129 -0.4514  0.1576
  697SOL     OW 2785   2.901   1.041   2.226  0.0687  0.0759  0.2024
  697SOL    HW1 2786   2.834   1.109   2.235  2.0089 -0.1487 -0.6229
  697SOL    HW2 2787   2.865   0.956   2.203 -0.8724 -2.8476  0.6916
  697SOL     MW 2788   2.887   1.039   2.224  0.2006 -0.3395  0.1581
  698SOL     OW 2789   2.540   0.395   3.069 -0.5404  0.1292  0.3643
  698SOL    HW1 2790   2.447   0.427   3.079  0.2247 -2.2104  0.6867
  698SOL    HW2 2791   2.571   0.385   3.160 -2.5938  1.1459 -2.4762
  698SOL     MW 2792   2.532   0.398   3.082 -0.7104 -0.0454  0.0321
  699SOL     OW 2793   1.871   1.583   2.017  0.0905 -0.5914 -0.4796
  699SOL    HW1 2794   1.828   1.496   2.035  1.1137 -2.4755 -0.2447
  699SOL    HW2 2795   1.956   1.565   1.977 -0.9538 -0.3596 -1.9026
  699SOL     MW 2796   1.877   1.569   2.014  0.0877 -0.8094 -0.6364
  700SOL     OW 2797   2.689   0.883   1.610  0.1814  0.4116  0.1063
  700SOL    HW1 2798   2.755   0.947   1.580 -1.1054 -0.5974 -1.5595
  700SOL    HW2 2799   2.733   0.797   1.606  2.3453 -0.1932 -1.3244
  700SOL     MW 2800   2.704   0.880   1.606  0.2971  0.1987 -0.3023
  701SOL     OW 2801   1.667   1.072   2.556 -0.0744  0.3102  0.8373
  701SOL    HW1 2802   1.738   1.018   2.590 -3.7757 -1.4071 -0.5444
  701SOL    HW2 2803   1.646   1.145   2.621 -2.9954 -1.9808  1.6503
  701SOL     MW 2804   1.674   1.075   2.569 -0.9482 -0.2187  0.7623
  702SOL     OW 2805   2.058   0.475   0.681  0.0360 -0.0455  0.1545
  702SOL    HW1 2806   2.083   0.384   0.679  0.2251  4.0892  0.5709
  702SOL    HW2 2807   2.108   0.519   0.608 -0.3940  1.4865  1.1570
  702SOL     MW 2808   2.068   0.469   0.671  0.0042  0.7022  0.3417
  703SOL     OW 2809   2.701   1.244   0.994  0.0315  0.0353  0.4579
  703SOL    HW1 2810   2.666   1.235   0.907  2.1609 -1.5845 -0.7295
  703SOL    HW2 2811   2.712   1.147   1.018 -1.1556 -1.7303 -0.3915
  703SOL     MW 2812   2.698   1.230   0.985  0.1558 -0.4114  0.1892
  704SOL     OW 2813   3.060   1.281   0.159 -0.0753  0.6193  0.1138
  704SOL    HW1 2814   2.973   1.260   0.119 -1.1433  1.1499  1.9204
  704SOL    HW2 2815   3.068   1.216   0.228 -0.7517 -0.0963  0.0545
  704SOL     MW 2816   3.049   1.270   0.163 -0.3055  0.5949  0.3443
  705SOL     OW 2817   2.031   1.600   1.303 -0.2249  0.4375 -0.0737
  705SOL    HW1 2818   1.976   1.674   1.288  3.5034  2.9415  1.5020
  705SOL    HW2 2819   2.075   1.624   1.387  1.1873  1.5878 -0.6749
  705SOL     MW 2820   2.030   1.613   1.312  0.4533  0.9197  0.0549
  706SOL     OW 2821   3.001   1.200   0.693  0.5485 -0.6331 -0.2430
  706SOL    HW1 2822   3.076   1.218   0.637  1.5616 -0.0342 -1.9449
  706SOL    HW2 2823   2.953   1.286   0.697 -0.8310 -1.0862  0.2448
  706SOL     MW 2824   3.005   1.213   0.686  0.5001 -0.6138 -0.4032
  707SOL     OW 2825   2.341   0.061   0.955 -0.2220 -0.0079 -0.3804
  707SOL    HW1 2826   2.372   0.150   0.920 -2.1697  4.5217 -2.1788
  707SOL    HW2 2827   2.266   0.028   0.907  1.4212 -2.4215  1.5023
  707SOL     MW 2828   2.335   0.068   0.944 -0.2622  0.2713 -0.3693
  708SOL     OW 2829   2.403   1.414   0.119 -0.1317  0.5225 -0.3497
  708SOL    HW1 2830   2.493   1.386   0.143 -0.2701  0.8746 -0.5646
  708SOL    HW2 2831   2.408   1.435   0.022 -2.8824 -1.1474 -0.2946
  708SOL     MW 2832   2.416   1.413   0.109 -0.5129  0.3486 -0.3708
  709SOL     OW 2833   1.698   1.623   0.209 -0.1023 -0.2716  0.2520
  709SOL    HW1 2834   1.681   1.629   0.115 -1.3369 -0.3027  0.0532
  709SOL    HW2 2835   1.610   1.606   0.250 -2.1023 -2.3417  0.8461
  709SOL     MW 2836   1.684   1.621   0.202 -0.5291 -0.5488  0.3042
  710SOL     OW 2837   2.232   1.164   1.171  0.8100 -0.1256 -0.0726
  710SOL    HW1 2838   2.218   1.102   1.097  1.1597  1.5428 -2.6294
  710SOL    HW2 2839   2.279   1.097   1.229  1.7825 -0.9998  0.9194
  710SOL     MW 2840   2.236   1.147   1.169  0.9845 -0.0208 -0.2791
  711SOL     OW 2841   2.375   0.097   1.792  0.0065 -0.2443 -0.1039
  711SOL    HW1 2842   2.462   0.070   1.825 -0.5568 -3.0076  2.1355
  711SOL    HW2 2843   2.398   0.120   1.704 -1.1520  0.6999 -1.0921
  711SOL     MW 2844   2.389   0.097   1.785 -0.2207 -0.4843  0.0612
  712SOL     OW 2845   1.891   0.620   3.076  0.2649  0.3480 -0.0512
  712SOL    HW1 2846   1.835   0.665   3.008  0.0189 -1.8877  3.5791
  712SOL    HW2 2847   1.838   0.632   3.159  0.0186 -0.5376  0.5518
  712SOL     MW 2848   1.877   0.627   3.078  0.1999 -0.0638  0.5074
  713SOL     OW 2849   2.566   0.683   1.124  0.5261  0.1628  0.2767
  713SOL    HW1 2850   2.587   0.591   1.136  0.6507 -1.6350 -1.5342
  713SOL    HW2 2851   2.560   0.730   1.210 -1.4982 -0.3969  0.6278
  713SOL     MW 2852   2.568   0.677   1.137  0.2754 -0.1483  0.0841
  714SOL     OW 2853   2.242   0.199   2.007 -0.0153  0.0893 -0.3104
  714SOL    HW1 2854   2.281   0.147   2.074 -1.0601  0.5176  0.4292
  714SOL    HW2 2855   2.287   0.167   1.930  1.1342 -0.1267  0.8290
  714SOL     MW 2856   2.253   0.188   2.006 -0.0015  0.1173 -0.0625
  715SOL     OW 2857   1.824   1.993   1.702  0.0887  0.0697 -0.3528
  715SOL    HW1 2858   1.914   2.026   1.722 -1.6443 -0.6914 -2.3627
  715SOL    HW2 2859   1.803   1.913   1.756  0.2622 -2.1602 -0.5633
  715SOL     MW 2860   1.833   1.987   1.712 -0.1171 -0.3250 -0.6458
  716SOL     OW 2861   2.455   0.547   0.721  0.0173 -0.6190  0.5202
  716SOL    HW1 2862   2.485   0.469   0.673 -0.6336  1.3350  1.0579
  716SOL    HW2 2863   2.388   0.583   0.669  0.6430 -0.2308 -0.7523
  716SOL     MW 2864   2.450   0.541   0.708  0.0139 -0.3100  0.4233
  717SOL     OW 2865   2.788   1.645   2.823 -0.5725  0.8215  0.2511
  717SOL    HW1 2866   2.872   1.605   2.849  3.4553  0.2763  2.3400
  717SOL    HW2 2867   2.772   1.716   2.884  0.3914 -1.4001 -0.9417
  717SOL     MW 2868   2.797   1.649   2.835  0.0861  0.4565  0.3694
  718SOL     OW 2869   2.641   1.335   1.298 -0.0833 -0.6259 -0.1280
  718SOL    HW1 2870   2.589   1.367   1.377 -1.8571  0.3630  1.0803
  718SOL    HW2 2871   2.737   1.338   1.317 -1.0028 -0.3771  2.5062
  718SOL     MW 2872   2.646   1.340   1.311 -0.4387 -0.4626  0.3790
  719SOL     OW 2873   2.202   1.277   0.543  0.0267 -0.1535 -0.5374
  719SOL    HW1 2874   2.282   1.335   0.535 -0.4763  0.2874 -2.0910
  719SOL    HW2 2875   2.146   1.300   0.622 -1.2158 -2.4062  0.4837
  719SOL     MW 2876   2.205   1.288   0.553 -0.2036 -0.3926 -0.6077
  720SOL     OW 2877   2.811   1.256   0.018  0.5196 -0.8712  0.1500
  720SOL    HW1 2878   2.781   1.162   0.025 -0.9848 -0.8738  0.2850
  720SOL    HW2 2879   2.757   1.296   0.084 -0.3687 -1.3556  0.5940
  720SOL     MW 2880   2.800   1.249   0.028  0.2039 -0.9354  0.2264
  721SOL     OW 2881   2.565   0.838   1.342  0.7284 -0.4558 -0.0010
  721SOL    HW1 2882   2.530   0.756   1.387 -0.6420 -2.5943  0.3744
  721SOL    HW2 2883   2.619   0.873   1.408 -0.5234 -0.4350 -1.6591
  721SOL     MW 2884   2.568   0.832   1.356  0.3825 -0.7352 -0.1703
  722SOL     OW 2885   2.581   1.147   0.400 -0.7172 -0.1244  0.1188
  722SOL    HW1 2886   2.531   1.223   0.430  0.8266 -2.0299  1.6040
  722SOL    HW2 2887   2.651   1.139   0.466  0.8599 -0.5934 -0.5052
  722SOL     MW 2888   2.583   1.156   0.412 -0.3054 -0.4377  0.2325
  723SOL     OW 2889   2.290   1.332   1.558 -0.1555  0.0587 -0.2576
  723SOL    HW1 2890   2.310   1.346   1.467  0.7821 -0.5592 -0.5885
  723SOL    HW2 2891   2.228   1.399   1.584  2.7858 -1.4640  0.7493
  723SOL     MW 2892   2.285   1.342   1.549  0.3563 -0.2237 -0.1684
  724SOL     OW 2893   2.455   0.279   0.604  0.2570 -0.4922  0.1332
  724SOL    HW1 2894   2.441   0.261   0.696  1.5775  1.5699  0.5175
  724SOL    HW2 2895   2.540   0.244   0.581  0.6013 -2.5248  1.5189
  724SOL     MW 2896   2.464   0.272   0.613  0.4766 -0.4883  0.3667
  725SOL     OW 2897   2.625   0.426   1.211  0.5893 -0.1607 -0.2957
  725SOL    HW1 2898   2.699   0.467   1.251 -0.1380  0.0765 -1.1056
  725SOL    HW2 2899   2.590   0.376   1.280  1.0313  2.6966 -0.5466
  725SOL     MW 2900   2.630   0.425   1.226  0.5516  0.2476 -0.4357
  726SOL     OW 2901   2.509   2.476   0.429 -0.1333 -0.3408  0.4074
  726SOL    HW1 2902   2.469   2.539   0.372 -0.5542 -2.3198 -0.8228
  726SOL    HW2 2903   2.519   2.516   0.513  1.0454 -0.4310 -3.7395
  726SOL     MW 2904   2.505   2.489   0.432 -0.0333 -0.6138 -0.3020
  727SOL     OW 2905   2.863   0.314   1.740 -0.0109 -0.1607 -0.1237
  727SOL    HW1 2906   2.784   0.304   1.690  1.7856  0.3321 -1.6391
  727SOL    HW2 2907   2.848   0.283   1.826 -1.2280  2.7544 -2.4956
  727SOL     MW 2908   2.850   0.309   1.745  0.0655  0.2890 -0.6366
  728SOL     OW 2909   2.823   1.179   2.859 -0.4028  0.3066 -0.2447
  728SOL    HW1 2910   2.822   1.252   2.799  0.5924 -0.3111  3.0549
  728SOL    HW2 2911   2.814   1.219   2.949 -0.1686 -1.2122 -0.1780
  728SOL     MW 2912   2.821   1.194   2.863 -0.2406  0.0247  0.1995
  729SOL     OW 2913   2.533   1.516   1.051  0.4365  0.1212  0.0229
  729SOL    HW1 2914   2.580   1.436   1.074  1.9702  1.0596 -2.4166
  729SOL    HW2 2915   2.476   1.491   0.979 -1.1176 -2.3144  1.7115
  729SOL     MW 2916   2.532   1.502   1.045  0.4338 -0.0763 -0.0762
  730SOL     OW 2917   2.185   1.170   0.187 -0.8784 -0.2825  0.4096
  730SOL    HW1 2918   2.251   1.101   0.208  2.3082 -2.2394 -0.7548
  730SOL    HW2 2919   2.236   1.244   0.158 -0.7950 -1.6673 -0.6469
  730SOL     MW 2920   2.201   1.170   0.186 -0.4469 -0.7234  0.1166
  731SOL     OW 2921   2.762   2.002   2.901  0.1923 -0.6851  0.3116
  731SOL    HW1 2922   2.713   2.002   2.825  1.6857 -1.2339  1.9577
  731SOL    HW2 2923   2.845   2.035   2.869  1.1956 -0.1310  2.3316
  731SOL     MW 2924   2.767   2.007   2.887  0.5217 -0.6844  0.7953
  732SOL     OW 2925   2.316   0.975   1.345 -0.3043  0.5601 -0.3996
  732SOL    HW1 2926   2.286   0.938   1.424  1.9946  0.3486 -1.0795
  732SOL    HW2 2927   2.411   0.954   1.348  2.0336  0.0790 -0.6717
  732SOL     MW 2928   2.325   0.967   1.356  0.3074  0.4687 -0.5252
  733SOL     OW 2929   2.400   2.707   2.995 -0.0376 -0.6377 -0.0988
  733SOL    HW1 2930   2.325   2.754   3.021  1.4424  1.5818  3.3917
  733SOL    HW2 2931   2.369   2.616   2.990  1.4046  0.9534 -1.8524
  733SOL     MW 2932   2.386   2.701   2.998  0.3480 -0.1350  0.1304
  734SOL     OW 2933   1.493   0.260   2.508  0.2324  0.0671 -0.1041
  734SOL    HW1 2934   1.457   0.240   2.594 -2.1375 -1.4057 -0.4568
  734SOL    HW2 2935   1.415   0.268   2.450 -0.0217 -0.6588  0.6108
  734SOL     MW 2936   1.478   0.259   2.511 -0.1138 -0.2230 -0.0563
  735SOL     OW 2937   3.008   0.880   2.671  0.0850 -0.2257  0.5337
  735SOL    HW1 2938   2.983   0.786   2.655 -0.1084 -1.3861 -1.0193
  735SOL    HW2 2939   3.026   0.890   2.765  1.0316 -0.4628  0.5134
  735SOL     MW 2940   3.007   0.869   2.681  0.1844 -0.4101  0.3261
  736SOL     OW 2941   0.124   0.561   2.541 -0.1951  0.3885 -0.5413
  736SOL    HW1 2942   0.121   0.651   2.490  0.7065 -0.1492  0.7908
  736SOL    HW2 2943   0.203   0.513   2.509  0.8194 -1.7009 -1.2567
  736SOL     MW 2944   0.134   0.567   2.530  0.0577  0.0419 -0.4600
  737SOL     OW 2945   2.978   0.598   2.648  0.6129 -0.6522 -0.3169
  737SOL    HW1 2946   2.921   0.592   2.566 -0.3638  1.2328 -0.6874
  737SOL    HW2 2947   3.061   0.582   2.610 -1.0137 -1.1314 -1.1869
  737SOL     MW 2948   2.982   0.595   2.632  0.2694 -0.4667 -0.4806
  738SOL     OW 2949   0.118   0.421   1.850 -0.4752 -0.4785 -0.1320
  738SOL    HW1 2950   0.209   0.446   1.861 -0.3426 -2.2627 -0.2641
  738SOL    HW2 2951   0.121   0.414   1.755 -0.0461 -0.1697 -1.4719
  738SOL     MW 2952   0.131   0.424   1.839 -0.4011 -0.6731 -0.3262
  739SOL     OW 2953   2.511   0.986   2.104  0.3203 -0.2637 -0.3799
  739SOL    HW1 2954   2.430   0.995   2.060  5.7221  3.1279  0.8154
  739SOL    HW2 2955   2.545   0.899   2.087 -1.4966 -0.1495  1.6969
  739SOL     MW 2956   2.505   0.975   2.096  0.7933  0.1989  0.0518
  740SOL     OW 2957   0.114   1.763   2.965  0.4133  0.0753 -0.1380
  740SOL    HW1 2958   0.067   1.681   2.955 -0.4646 -1.7557 -1.9725
  740SOL    HW2 2959   0.202   1.746   2.994  2.0030 -0.4839  0.0690
  740SOL     MW 2960   0.120   1.750   2.968  0.5072 -0.2400 -0.3527
  741SOL     OW 2961   2.247   1.145   2.711  0.4556  0.4912  0.2614
  741SOL    HW1 2962   2.194   1.209   2.668  2.1124 -2.4421 -1.6423
  741SOL    HW2 2963   2.233   1.160   2.813 -0.1393  1.1024 -0.6477
  741SOL     MW 2964   2.238   1.156   2.719  0.5957  0.1848 -0.1097
  742SOL     OW 2965   1.563   1.223   2.283 -0.6813 -0.2151  0.4998
  742SOL    HW1 2966   1.479   1.193   2.253 -2.3261  0.2124  1.0258
  742SOL    HW2 2967   1.580   1.156   2.350 -2.1032 -1.1334  0.9890
  742SOL     MW 2968   1.554   1.210   2.288 -1.0859 -0.2799  0.6337
  743SOL     OW 2969   2.486   1.226   2.719  0.5330  0.0344 -0.3671
  743SOL    HW1 2970   2.383   1.213   2.705 -2.4177  1.2421  1.2728
  743SOL    HW2 2971   2.516   1.152   2.772  2.1151 -0.3339 -2.8302
  743SOL     MW 2972   2.476   1.215   2.724  0.3524  0.1451 -0.4757
  744SOL     OW 2973   2.696   0.852   1.932  1.1858 -0.3970  0.6904
  744SOL    HW1 2974   2.694   0.938   1.894 -0.7145  0.6443  3.1336
  744SOL    HW2 2975   2.625   0.801   1.885 -0.1186  0.0155 -0.9869
  744SOL     MW 2976   2.686   0.856   1.920  0.7630 -0.2052  0.7915
  745SOL     OW 2977   1.680   0.494   2.497  0.4196 -0.3826 -0.4217
  745SOL    HW1 2978   1.684   0.487   2.401 -1.4997  0.8637  1.2425
  745SOL    HW2 2979   1.617   0.431   2.531  1.9853 -1.6790  1.3640
  745SOL     MW 2980   1.672   0.485   2.489  0.3730 -0.3892  0.0335
  746SOL     OW 2981   1.594   1.473   1.624 -0.8213  0.5456  0.0550
  746SOL    HW1 2982   1.680   1.434   1.604 -1.6976  4.0124 -0.0151
  746SOL    HW2 2983   1.610   1.497   1.714 -0.1918 -1.9600 -1.2646
  746SOL     MW 2984   1.608   1.471   1.633 -0.8539  0.6724 -0.1284
  747SOL     OW 2985   2.613   1.125   1.811  0.3708  0.4345  0.0726
  747SOL    HW1 2986   2.528   1.093   1.769 -0.8554  1.2065 -2.0876
  747SOL    HW2 2987   2.584   1.164   1.895 -0.4440 -0.4544 -1.0777
  747SOL     MW 2988   2.598   1.126   1.816  0.1015  0.4191 -0.3642
  748SOL     OW 2989   0.077   0.122   1.899  0.6748  0.0343 -0.0669
  748SOL    HW1 2990   0.159   0.114   1.946 -3.0961 -1.0453 -1.8321
  748SOL    HW2 2991   0.016   0.166   1.959  1.4254  0.6618 -1.7821
  748SOL     MW 2992   0.080   0.127   1.913  0.2763 -0.0254 -0.5261
  749SOL     OW 2993   2.544   0.583   2.784  0.0515  0.1118  0.1190
  749SOL    HW1 2994   2.580   0.652   2.728  0.5087  0.1765  1.2636
  749SOL    HW2 2995   2.524   0.622   2.874  0.5351  0.1984 -0.6513
  749SOL     MW 2996   2.546   0.597   2.788  0.1756  0.1318  0.1684
  750SOL     OW 2997   2.025   3.078   1.979  0.2611 -0.0629 -0.1387
  750SOL    HW1 2998   2.063   3.158   2.018  1.4356  0.6880 -0.8118
  750SOL    HW2 2999   2.103   3.017   1.960 -0.1587  1.4651 -1.6108
  750SOL     MW 3000   2.040   3.081   1.981  0.3607  0.2378 -0.4217
  751SOL     OW 3001   0.306   0.337   2.424 -0.3554 -0.0684 -0.1332
  751SOL    HW1 3002   0.283   0.269   2.480  0.4566 -0.7380 -1.8609
  751SOL    HW2 3003   0.260   0.312   2.345  1.4619  1.0883 -1.0050
  751SOL     MW 3004   0.297   0.325   2.421 -0.0085 -0.0042 -0.4762
  752SOL     OW 3005   2.143   0.830   2.728  0.2485  0.5590  0.3239
  752SOL    HW1 3006   2.230   0.848   2.691 -1.0150 -0.5194  0.9870
  752SOL    HW2 3007   2.143   0.867   2.817 -1.4645 -0.9347  0.9361
  752SOL     MW 3008   2.154   0.837   2.735 -0.1442  0.2197  0.4922
  753SOL     OW 3009   2.784   0.160   2.405 -0.1687 -0.6548 -0.1952
  753SOL    HW1 3010   2.768   0.062   2.394 -1.1347 -1.6458  0.1422
  753SOL    HW2 3011   2.739   0.200   2.332  1.8456 -0.3399 -0.3243
  753SOL     MW 3012   2.776   0.153   2.394 -0.0304 -0.7440 -0.1677
  754SOL     OW 3013   2.262   2.945   2.610  0.3371  0.3197  0.7873
  754SOL    HW1 3014   2.278   2.946   2.514  2.4312 -4.0146  0.7305
  754SOL    HW2 3015   2.342   2.911   2.650  1.1210  1.2138  0.1843
  754SOL     MW 3016   2.275   2.941   2.602  0.7168 -0.1342  0.7002
  755SOL     OW 3017   2.748   1.538   2.400  0.0851  0.2396  0.0910
  755SOL    HW1 3018   2.741   1.448   2.434  0.7672  1.1311  1.8890
  755SOL    HW2 3019   2.778   1.599   2.474 -1.5652  0.2434  1.6784
  755SOL     MW 3020   2.751   1.534   2.414 -0.0426  0.3577  0.5377
  756SOL     OW 3021   2.229   1.181   2.986  0.0393  0.1616 -0.0279
  756SOL    HW1 3022   2.291   1.254   2.978  0.1582  0.6654  1.0670
  756SOL    HW2 3023   2.280   1.108   3.028  0.0471 -0.1030 -1.6853
  756SOL     MW 3024   2.244   1.181   2.991  0.0560  0.1932 -0.1021
  757SOL     OW 3025   2.168   0.916   1.604  0.8316  0.3726  0.3914
  757SOL    HW1 3026   2.186   0.821   1.598 -1.7182  1.9170 -0.0618
  757SOL    HW2 3027   2.069   0.908   1.580 -1.7857  1.7125 -1.6109
  757SOL     MW 3028   2.157   0.903   1.600  0.1498  0.7532  0.0674
  758SOL     OW 3029   2.211   1.816   2.624  0.1591 -0.8054  0.1806
  758SOL    HW1 3030   2.215   1.870   2.548 -1.3672  1.4387 -1.1084
  758SOL    HW2 3031   2.292   1.765   2.618  3.1642  1.9395 -0.2961
  758SOL     MW 3032   2.222   1.816   2.613  0.3542 -0.1472 -0.0524
  759SOL     OW 3033   1.542   1.288   2.717  0.2932 -0.0101  0.0974
  759SOL    HW1 3034   1.525   1.345   2.642  2.1816 -1.1691  2.1692
  759SOL    HW2 3035   1.610   1.337   2.768 -0.6984 -1.2583 -1.1354
  759SOL     MW 3036   1.549   1.302   2.714  0.4115 -0.3277  0.2081
  760SOL     OW 3037   2.556   1.991   2.722  0.7667  0.1444 -0.5034
  760SOL    HW1 3038   2.541   1.899   2.685 -2.0818 -1.2742  1.2268
  760SOL    HW2 3039   2.571   2.050   2.648 -2.8343 -0.0631  0.5124
  760SOL     MW 3040   2.556   1.987   2.707 -0.0843 -0.0701 -0.1411
  761SOL     OW 3041   2.183   0.417   2.558  0.3229  0.0162 -0.1273
  761SOL    HW1 3042   2.125   0.360   2.599  0.2804 -2.1341 -0.6910
  761SOL    HW2 3043   2.198   0.476   2.635  1.5321  1.0292 -1.5959
  761SOL     MW 3044   2.178   0.417   2.573  0.4768 -0.1338 -0.3955
  762SOL     OW 3045   3.054   0.222   2.146 -0.0359  0.4259  0.3615
  762SOL    HW1 3046   3.055   0.142   2.197 -0.2121  2.3264  0.1994
  762SOL    HW2 3047   3.081   0.293   2.210 -0.9818  0.7439 -0.4403
  762SOL     MW 3048   3.058   0.221   2.161 -0.1840  0.7186  0.2343
  763SOL     OW 3049   2.330   1.030   2.341  0.2818  0.0888  0.0173
  763SOL    HW1 3050   2.375   0.988   2.269 -2.5650  0.2111 -1.6442
  763SOL    HW2 3051   2.390   1.105   2.376 -0.0333  1.1992 -0.0917
  763SOL     MW 3052   2.344   1.034   2.336 -0.1354  0.2514 -0.2163
  764SOL     OW 3053   0.420   0.282   2.826 -0.4024  0.0532  0.0018
  764SOL    HW1 3054   0.337   0.235   2.831  0.3387 -1.2511  0.3113
  764SOL    HW2 3055   0.395   0.374   2.848 -2.6718  0.4149  4.8417
  764SOL     MW 3056   0.406   0.288   2.830 -0.6041 -0.0711  0.6812
  765SOL     OW 3057   2.725   3.007   2.389  0.0013 -0.4497  0.4275
  765SOL    HW1 3058   2.683   3.006   2.305  1.1793 -0.6964  0.5343
  765SOL    HW2 3059   2.802   2.955   2.359  0.7588 -0.6123  0.4056
  765SOL     MW 3060   2.730   3.000   2.374  0.2567 -0.5037  0.4387
  766SOL     OW 3061   1.890   2.949   2.187  0.6969  0.3962  0.0149
  766SOL    HW1 3062   1.938   3.000   2.118 -1.0282  0.6570 -0.4393
  766SOL    HW2 3063   1.813   2.908   2.138  1.8410  0.6537 -0.2339
  766SOL     MW 3064   1.886   2.950   2.171  0.6202  0.4646 -0.0778
  767SOL     OW 3065   2.646   0.607   2.121 -0.5857  0.0046  0.7545
  767SOL    HW1 3066   2.728   0.660   2.116  0.7233 -1.7184  3.2412
  767SOL    HW2 3067   2.585   0.623   2.049 -2.0695  0.2092  1.2665
  767SOL     MW 3068   2.649   0.616   2.111 -0.6088 -0.1957  1.1502
  768SOL     OW 3069   3.053   1.559   2.925 -0.9467 -0.1884  0.2647
  768SOL    HW1 3070   3.058   1.550   3.025  1.2129 -0.7646  4.3431
  768SOL    HW2 3071   3.105   1.487   2.877 -1.1046 -1.3529  1.5614
  768SOL     MW 3072   3.060   1.548   2.932 -0.6826 -0.4181  0.9739
  769SOL     OW 3073   2.483   0.668   2.327  0.1830 -0.4715 -0.4273
  769SOL    HW1 3074   2.474   0.594   2.392  1.5312  0.0403  2.4375
  769SOL    HW2 3075   2.565   0.655   2.278 -0.3917  0.9763 -3.5285
  769SOL     MW 3076   2.492   0.657   2.329  0.2850 -0.2130 -0.4585
  770SOL     OW 3077   0.006   1.641   2.529 -0.2629 -0.4881 -0.4142
  770SOL    HW1 3078  -0.084   1.657   2.503  3.0257  2.6842  3.5472
  770SOL    HW2 3079   0.029   1.544   2.536 -1.6360 -3.4150 -1.5513
  770SOL     MW 3080  -0.003   1.630   2.526 -0.0102 -0.4557 -0.0416
  771SOL     OW 3081   3.046   0.616   1.987  0.2062  0.1559 -0.1197
  771SOL    HW1 3082   2.972   0.586   1.932  0.6487 -1.3427 -1.7161
  771SOL    HW2 3083   3.107   0.549   1.945  2.8243  1.1253 -0.7827
  771SOL     MW 3084   3.044   0.603   1.975  0.6100  0.0861 -0.4179
  772SOL     OW 3085   0.071   3.080   2.288  0.1319  0.1247 -0.3142
  772SOL    HW1 3086  -0.004   3.018   2.295  1.0576  0.6679  0.1044
  772SOL    HW2 3087   0.138   3.035   2.236 -1.1974  1.5524  0.9826
  772SOL     MW 3088   0.070   3.066   2.282  0.0786  0.3848 -0.0878
  773SOL     OW 3089   2.456   2.824   2.746  0.7516 -0.2550  0.1091
  773SOL    HW1 3090   2.463   2.757   2.679 -0.7259 -1.0405  0.4357
  773SOL    HW2 3091   2.423   2.782   2.828 -2.0032 -0.1774  1.0929
  773SOL     MW 3092   2.453   2.809   2.748  0.1932 -0.3484  0.2820
  774SOL     OW 3093   2.337   1.143   1.740 -1.2195 -0.3805  0.2180
  774SOL    HW1 3094   2.324   1.207   1.667 -0.1024 -0.0216 -1.1281
  774SOL    HW2 3095   2.298   1.070   1.696  0.7355  1.1745  0.1405
  774SOL     MW 3096   2.330   1.142   1.725 -0.8141 -0.1280  0.0301
  775SOL     OW 3097   2.305   2.930   2.340 -0.2916 -0.1659  0.1986
  775SOL    HW1 3098   2.328   3.006   2.284  0.3019  0.7918  1.0485
  775SOL    HW2 3099   2.368   2.867   2.311  0.9461 -2.7359 -0.3713
  775SOL     MW 3100   2.316   2.932   2.328 -0.0500 -0.3786  0.2356
  776SOL     OW 3101   0.034   1.536   0.083 -0.1387 -0.4021  0.0333
  776SOL    HW1 3102   0.126   1.526   0.084 -0.8818  0.1062 -1.6362
  776SOL    HW2 3103   0.002   1.456   0.117 -1.7180  1.2100 -0.7457
  776SOL     MW 3104   0.042   1.524   0.088 -0.4451 -0.1224 -0.2897
  777SOL     OW 3105   2.953   0.978   1.753 -0.3503 -0.2263  0.0152
  777SOL    HW1 3106   2.914   1.066   1.742 -0.1483 -3.3351  0.3142
  777SOL    HW2 3107   2.879   0.920   1.758  0.0406  0.8814  2.6627
  777SOL     MW 3108   2.938   0.982   1.752 -0.2721 -0.4903  0.4040
  778SOL     OW 3109   2.885   0.357   2.774 -0.2757 -0.3899  0.3209
  778SOL    HW1 3110   2.852   0.370   2.866  4.3393  1.3737  0.2666
  778SOL    HW2 3111   2.904   0.453   2.750 -0.3000 -1.1049  1.9959
  778SOL     MW 3112   2.883   0.372   2.783  0.3300 -0.2516  0.5347
  779SOL     OW 3113   2.108   0.539   2.315  0.0074 -0.0737  0.3712
  779SOL    HW1 3114   2.077   0.613   2.357 -1.6123 -1.9415 -2.3754
  779SOL    HW2 3115   2.152   0.489   2.378  0.6559  0.1735 -1.2556
  779SOL     MW 3116   2.110   0.542   2.329 -0.1207 -0.2875 -0.2059
  780SOL     OW 3117   0.174   0.118   2.834  0.2595  0.0361 -0.4265
  780SOL    HW1 3118   0.116   0.182   2.879 -0.3490 -0.3916 -1.7329
  780SOL    HW2 3119   0.151   0.140   2.747 -0.9793  0.6103  1.3851
  780SOL     MW 3120   0.164   0.130   2.828  0.0157  0.0554 -0.3599
  781SOL     OW 3121   3.037   1.379   2.444 -0.4037  0.1409 -0.6037
  781SOL    HW1 3122   3.025   1.423   2.361  0.5966  0.2378 -2.3006
  781SOL    HW2 3123   3.118   1.329   2.420 -0.4432  0.3797  2.1093
  781SOL     MW 3124   3.046   1.378   2.430 -0.2770  0.1852 -0.4697
  782SOL     OW 3125   0.543   1.572   3.069 -0.3564 -0.4824  0.8386
  782SOL    HW1 3126   0.490   1.650   3.042  0.1014  1.2936 -0.9955
  782SOL    HW2 3127   0.536   1.540   3.160 -0.0762  2.9875 -1.2215
  782SOL     MW 3128   0.535   1.578   3.077 -0.2590  0.2097  0.3248
  783SOL     OW 3129   2.812   0.571   2.439  0.4000 -0.0928 -0.3026
  783SOL    HW1 3130   2.851   0.538   2.356  2.3413  0.2722 -2.0586
  783SOL    HW2 3131   2.772   0.496   2.480 -1.1746  0.4316  0.8082
  783SOL     MW 3132   2.812   0.556   2.434  0.4484  0.0246 -0.3878
  784SOL     OW 3133   0.208   0.916   2.889 -0.2081 -0.0931 -0.0978
  784SOL    HW1 3134   0.197   0.968   2.974  1.3863 -3.0022 -1.2500
  784SOL    HW2 3135   0.242   0.979   2.821 -0.8641 -0.8304  2.0420
  784SOL     MW 3136   0.211   0.931   2.891 -0.0843 -0.5742  0.0325
  785SOL     OW 3137   0.349   0.503   2.122  0.2895  0.8565 -0.2135
  785SOL    HW1 3138   0.370   0.509   2.029  0.1317  2.1265  0.5700
  785SOL    HW2 3139   0.309   0.416   2.131 -0.1674  2.5132  4.8136
  785SOL     MW 3140   0.347   0.492   2.111  0.2084  1.2426  0.5532
  786SOL     OW 3141   2.030   0.493   2.836  0.1245 -0.6348  0.4589
  786SOL    HW1 3142   1.990   0.488   2.919 -0.6485  0.8381 -1.3751
  786SOL    HW2 3143   2.119   0.506   2.857  1.0579 -0.1887 -1.0128
  786SOL     MW 3144   2.036   0.494   2.850  0.1456 -0.3816  0.0228
  787SOL     OW 3145   2.433   0.167   2.933 -0.4021 -0.3582  0.1741
  787SOL    HW1 3146   2.500   0.116   2.887  0.4537 -2.4317  1.0905
  787SOL    HW2 3147   2.476   0.244   2.967 -0.2008 -1.9664 -0.5967
  787SOL     MW 3148   2.447   0.171   2.932 -0.2626 -0.8440  0.1933
  788SOL     OW 3149   2.960   2.901   2.279 -0.4680 -0.4047  0.1326
  788SOL    HW1 3150   2.971   2.857   2.195 -3.0906 -3.1150 -1.2677
  788SOL    HW2 3151   2.975   2.831   2.342  1.4092  0.4817 -1.2466
  788SOL     MW 3152   2.963   2.886   2.276 -0.5663 -0.6453 -0.2341
  789SOL     OW 3153   0.036   0.269   3.016  0.2486  0.4389 -0.1257
  789SOL    HW1 3154  -0.039   0.220   3.055 -0.9635  0.4121  3.0504
  789SOL    HW2 3155   0.103   0.273   3.079  0.6491  0.1030 -0.1885
  789SOL     MW 3156   0.035   0.263   3.029  0.1415  0.3910  0.2850
  790SOL     OW 3157   0.021   1.061   2.503 -0.1309 -0.1512 -0.3815
  790SOL    HW1 3158  -0.021   0.992   2.551  1.9031  1.1892 -0.8893
  790SOL    HW2 3159  -0.046   1.102   2.446 -0.3442  2.0867 -0.9077
  790SOL     MW 3160   0.007   1.057   2.501  0.1093  0.3209 -0.5179
  791SOL     OW 3161   2.663   0.399   2.633  0.2604  0.4961 -0.0437
  791SOL    HW1 3162   2.620   0.460   2.695  2.0407 -0.0662 -2.6446
  791SOL    HW2 3163   2.744   0.379   2.685 -1.5604  0.9044 -0.3011
  791SOL     MW 3164   2.668   0.404   2.648  0.2550  0.4758 -0.4208
  792SOL     OW 3165   2.445   0.251   2.361  0.1700  0.3246  0.3034
  792SOL    HW1 3166   2.354   0.272   2.397 -1.1034  3.4150 -0.6118
  792SOL    HW2 3167   2.498   0.220   2.435 -0.0223  2.8860 -2.7095
  792SOL     MW 3168   2.440   0.250   2.376 -0.0234  1.0703 -0.2149
  793SOL     OW 3169   1.749   1.035   1.879  0.1691 -0.2609 -0.2410
  793SOL    HW1 3170   1.755   1.099   1.804 -1.1377  0.0394  1.1842
  793SOL    HW2 3171   1.826   0.972   1.864  2.5870  0.0471 -0.4749
  793SOL     MW 3172   1.760   1.035   1.867  0.3157 -0.1806 -0.0838
  794SOL     OW 3173   1.442   2.303   0.111  0.0472 -0.1282  0.1038
  794SOL    HW1 3174   1.456   2.392   0.077  0.0342 -2.3458 -2.2575
  794SOL    HW2 3175   1.483   2.300   0.198  1.5038  1.5792  1.0201
  794SOL     MW 3176   1.450   2.315   0.118  0.2377 -0.1955 -0.0868
  795SOL     OW 3177   2.366   0.933   2.606  0.3349 -0.0614  0.1163
  795SOL    HW1 3178   2.326   0.998   2.663 -1.1957 -1.6120  0.0575
  795SOL    HW2 3179   2.330   0.950   2.519  0.8587  0.7700 -1.4369
  795SOL     MW 3180   2.356   0.944   2.602  0.2021 -0.1563 -0.0964
  796SOL     OW 3181   0.319   0.689   2.791  0.0576 -0.2706  0.2664
  796SOL    HW1 3182   0.290   0.775   2.822 -1.3549 -1.0521  1.0123
  796SOL    HW2 3183   0.252   0.658   2.728 -0.5386  0.0706  0.9970
  796SOL     MW 3184   0.306   0.696   2.786 -0.2074 -0.3287  0.4612
  797SOL     OW 3185   2.584   0.145   2.582 -0.6743  0.0293  0.1682
  797SOL    HW1 3186   2.580   0.235   2.619  1.5224  2.3882  0.8007
  797SOL    HW2 3187   2.665   0.150   2.530 -0.6888  1.0199 -1.0507
  797SOL     MW 3188   2.594   0.158   2.580 -0.3864  0.4713  0.0909
  798SOL     OW 3189   2.370   0.055   2.189  0.0248  0.0545 -0.5011
  798SOL    HW1 3190   2.409   0.125   2.244  3.8239 -3.2673  1.1789
  798SOL    HW2 3191   2.436   0.025   2.127  0.7515  0.5528  1.2535
  798SOL     MW 3192   2.384   0.060   2.189  0.6219 -0.3180 -0.0479
  799SOL     OW 3193   2.522   2.944   0.204  0.1167 -0.4565 -0.1059
  799SOL    HW1 3194   2.568   2.892   0.140 -0.6343 -0.2446  0.7911
  799SOL    HW2 3195   2.457   2.998   0.151  1.2603 -2.4221 -3.3735
  799SOL     MW 3196   2.520   2.945   0.189  0.1685 -0.6879 -0.4187
  800SOL     OW 3197   1.918   3.088   1.711 -0.1309 -0.1811  0.2577
  800SOL    HW1 3198   1.876   3.000   1.711 -0.8761  0.0031 -1.1453
  800SOL    HW2 3199   1.966   3.087   1.795 -0.4014  2.0128 -0.9968
  800SOL     MW 3200   1.919   3.076   1.722 -0.2649  0.1327 -0.0929
  801SOL     OW 3201   2.826   1.298   2.623  0.0065  0.2408  0.0917
  801SOL    HW1 3202   2.799   1.207   2.592 -0.4659  0.6099 -1.6263
  801SOL    HW2 3203   2.902   1.321   2.568  2.2039  0.9333  0.2639
  801SOL     MW 3204   2.833   1.289   2.612  0.2341  0.3809 -0.1122
  802SOL     OW 3205   2.568   1.510   2.761 -0.3409  0.1579 -0.7684
  802SOL    HW1 3206   2.584   1.414   2.765  1.1510 -0.1037  4.2719
  802SOL    HW2 3207   2.651   1.541   2.783 -2.1572 -1.0983  0.9273
  802SOL     MW 3208   2.581   1.501   2.764 -0.3837 -0.0423  0.1204
  803SOL     OW 3209   2.285   1.328   1.955 -0.1090 -0.5451 -0.1105
  803SOL    HW1 3210   2.243   1.275   2.023 -0.7976 -0.6796  0.9517
  803SOL    HW2 3211   2.303   1.274   1.881  0.5691  2.7823  0.3749
  803SOL     MW 3212   2.282   1.314   1.954 -0.1104 -0.1238  0.0937
  804SOL     OW 3213   2.355   0.015   0.038  0.1069 -0.4850  0.1119
  804SOL    HW1 3214   2.268   0.061   0.018  0.0155 -1.3360 -0.9861
  804SOL    HW2 3215   2.416   0.045  -0.031 -0.3773 -0.5907  1.0573
  804SOL     MW 3216   2.351   0.025   0.026  0.0310 -0.6113  0.0917
  805SOL     OW 3217   2.814   1.033   2.543  0.9161  0.1526  0.5715
  805SOL    HW1 3218   2.736   0.973   2.546 -2.1093  2.7000 -0.0430
  805SOL    HW2 3219   2.880   0.985   2.592  1.4579  1.1430 -0.8263
  805SOL     MW 3220   2.812   1.019   2.550  0.5884  0.6194  0.3060
  806SOL     OW 3221   2.645   0.328   2.215 -0.4619  0.1278 -0.4150
  806SOL    HW1 3222   2.573   0.298   2.270  0.2659  2.6598 -1.6371
  806SOL    HW2 3223   2.634   0.416   2.196 -0.2598 -0.5208 -0.3026
  806SOL     MW 3224   2.634   0.335   2.220 -0.3392  0.3763 -0.5614
  807SOL     OW 3225   0.034   1.157   2.090 -0.0191 -0.0920  0.4297
  807SOL    HW1 3226   0.104   1.095   2.075  1.8694  0.4623  2.3729
  807SOL    HW2 3227  -0.043   1.108   2.120  0.9680 -1.4401  1.1507
  807SOL     MW 3228   0.033   1.142   2.092  0.3603 -0.1967  0.7812
  808SOL     OW 3229   2.603   3.078   2.787  0.7396 -0.3430  0.1822
  808SOL    HW1 3230   2.573   2.998   2.743  0.5090  0.5634  1.5280
  808SOL    HW2 3231   2.608   3.144   2.711  1.9384 -2.0835  0.2099
  808SOL     MW 3232   2.600   3.076   2.771  0.8673 -0.4530  0.3634
  809SOL     OW 3233   2.498   1.245   2.407 -0.0477  0.0541 -0.1167
  809SOL    HW1 3234   2.536   1.268   2.491  3.0274  1.1584  3.6218
  809SOL    HW2 3235   2.574   1.248   2.349  2.0389 -1.1687 -0.8788
  809SOL     MW 3236   2.513   1.249   2.410  0.6333  0.0384  0.2760
  810SOL     OW 3237   2.138   1.174   2.174 -0.0034  0.0414  0.1877
  810SOL    HW1 3238   2.205   1.122   2.225  3.4292  1.1783 -0.5079
  810SOL    HW2 3239   2.061   1.119   2.146  0.1567  0.6839 -1.2771
  810SOL     MW 3240   2.137   1.160   2.177  0.4706  0.2762 -0.0974
  811SOL     OW 3241   1.513   0.085   2.241 -0.5094 -0.0250 -0.0450
  811SOL    HW1 3242   1.590   0.038   2.285  0.1502 -0.4736  0.0016
  811SOL    HW2 3243   1.477   0.015   2.189 -1.4715 -0.9742 -3.3688
  811SOL     MW 3244   1.518   0.070   2.240 -0.5493 -0.2094 -0.4774
  812SOL     OW 3245   1.444   2.755   2.107 -0.0502 -0.0109 -0.5981
  812SOL    HW1 3246   1.540   2.761   2.081 -1.1465 -2.4583  0.4970
  812SOL    HW2 3247   1.447   2.714   2.195 -0.2912  2.8854 -0.4091
  812SOL     MW 3248   1.457   2.751   2.115 -0.2266  0.0484 -0.4287
  813SOL     OW 3249   1.868   0.731   2.174  0.3348  0.1516 -0.1233
  813SOL    HW1 3250   1.820   0.649   2.175 -0.4650 -0.6226  0.9608
  813SOL    HW2 3251   1.901   0.734   2.265 -3.0399 -0.8822  0.0743
  813SOL     MW 3252   1.866   0.721   2.186 -0.2160 -0.0869  0.0458
  814SOL     OW 3253   2.824   1.199   1.650  0.2553 -0.5642  0.3473
  814SOL    HW1 3254   2.751   1.184   1.719 -1.8974 -1.9864  2.0432
  814SOL    HW2 3255   2.775   1.180   1.568  1.5890  2.3607 -1.2281
  814SOL     MW 3256   2.808   1.195   1.648  0.1472 -0.3659  0.3632
  815SOL     OW 3257   2.486   1.624   2.352  0.3052  0.4856  0.2574
  815SOL    HW1 3258   2.423   1.549   2.343  2.0021  0.7673  0.9177
  815SOL    HW2 3259   2.572   1.589   2.349  1.1341 -2.7120 -1.4354
  815SOL     MW 3260   2.489   1.610   2.350  0.6385  0.1009  0.1212
  816SOL     OW 3261   0.671   0.680   2.678  0.3345 -0.2829  0.7849
  816SOL    HW1 3262   0.719   0.624   2.736  1.1838  0.6300 -0.7270
  816SOL    HW2 3263   0.601   0.616   2.646  0.0533 -0.5388 -1.9598
  816SOL     MW 3264   0.668   0.664   2.682  0.4094 -0.1962  0.2233
  817SOL     OW 3265   3.043   1.165   1.307  0.0437  0.2720 -0.3251
  817SOL    HW1 3266   3.077   1.183   1.394  1.3877  2.4507 -3.7733
  817SOL    HW2 3267   3.006   1.254   1.278  0.3572  0.1472 -0.4589
  817SOL     MW 3268   3.043   1.179   1.315  0.2624  0.5430 -0.7977
  818SOL     OW 3269   1.905   0.963   2.696 -0.2002  0.2859 -0.0586
  818SOL    HW1 3270   1.938   1.027   2.630  2.0462  2.3950  0.0406
  818SOL    HW2 3271   1.970   0.893   2.691 -1.1785 -1.9477  2.0403
  818SOL     MW 3272   1.918   0.962   2.686 -0.0329  0.2695  0.2314
  819SOL     OW 3273   1.930   0.245   2.327  0.1882 -0.4251 -0.2447
  819SOL    HW1 3274   1.903   0.327   2.355  3.5796  1.9554 -0.9976
  819SOL    HW2 3275   1.974   0.208   2.402 -0.2160  1.4826  0.1555
  819SOL     MW 3276   1.932   0.251   2.341  0.5823  0.1407 -0.2912
  820SOL     OW 3277   2.476   1.731   2.601 -0.1333 -0.2420  0.1358
  820SOL    HW1 3278   2.477   1.668   2.678  1.4873 -0.8981  1.2377
  820SOL    HW2 3279   2.476   1.687   2.518 -1.2185 -2.6827  2.2296
  820SOL     MW 3280   2.476   1.717   2.600 -0.0627 -0.6506  0.5575
  821SOL     OW 3281   2.552   1.316   2.009 -0.4837 -0.1935 -0.4479
  821SOL    HW1 3282   2.585   1.381   1.944 -2.3244  2.6592  2.0341
  821SOL    HW2 3283   2.460   1.322   1.991 -2.7481  1.1627 -0.0272
  821SOL     MW 3284   2.544   1.326   1.998 -1.0253  0.3618 -0.0649
  822SOL     OW 3285   2.905   2.626   1.451 -0.3656 -0.2877 -0.0416
  822SOL    HW1 3286   2.834   2.667   1.396 -2.4185 -1.0880 -0.6150
  822SOL    HW2 3287   2.965   2.697   1.473 -3.0899  0.1046 -1.1621
  822SOL     MW 3288   2.903   2.641   1.447 -0.9959 -0.3415 -0.2651
  823SOL     OW 3289   2.363   0.465   1.788  0.0285 -0.3224 -0.1501
  823SOL    HW1 3290   2.427   0.420   1.727  0.2162  0.7514 -2.7133
  823SOL    HW2 3291   2.282   0.414   1.776  0.6317  1.3612  3.4928
  823SOL     MW 3292   2.361   0.452   1.778  0.1329  0.0414 -0.0077
  824SOL     OW 3293   2.125   1.360   2.574  0.3842 -0.1482 -0.4528
  824SOL    HW1 3294   2.186   1.393   2.503  0.8925 -1.2804  0.7958
  824SOL    HW2 3295   2.104   1.439   2.630  0.3028 -1.7339 -0.7837
  824SOL     MW 3296   2.131   1.375   2.572  0.4405 -0.5068 -0.3317
  825SOL     OW 3297   2.129   2.353   0.357  0.0237 -0.9450 -0.1945
  825SOL    HW1 3298   2.196   2.336   0.291 -1.8876 -0.4053  1.9789
  825SOL    HW2 3299   2.182   2.343   0.441 -1.3668 -0.2930  3.0088
  825SOL     MW 3300   2.145   2.349   0.360 -0.4120 -0.7878  0.5149
  826SOL     OW 3301   1.759   2.416   0.425  0.4471  0.5324  0.0567
  826SOL    HW1 3302   1.763   2.363   0.502 -1.3739 -1.3230  0.4987
  826SOL    HW2 3303   1.822   2.481   0.451 -0.9007  0.4014 -0.1616
  826SOL     MW 3304   1.768   2.418   0.439  0.0290  0.2703  0.0862
  827SOL     OW 3305   1.923   2.257   0.861 -0.1953 -0.3440 -0.0616
  827SOL    HW1 3306   1.891   2.274   0.773  0.6760  0.0062  2.0093
  827SOL    HW2 3307   1.866   2.196   0.904 -0.0251 -0.3313  0.5543
  827SOL     MW 3308   1.911   2.251   0.855 -0.0579 -0.2961  0.2929
  828SOL     OW 3309   0.099   2.632   0.547 -0.1957  0.4379 -0.2054
  828SOL    HW1 3310   0.180   2.661   0.581  0.2551  1.6048 -1.2526
  828SOL    HW2 3311   0.090   2.673   0.463  0.4760 -1.4856  1.5914
  828SOL     MW 3312   0.108   2.641   0.541 -0.0476  0.3380 -0.1065
  829SOL     OW 3313   2.996   2.856   1.196 -0.3852  0.1446 -0.3782
  829SOL    HW1 3314   2.907   2.857   1.172  3.9743  1.3855  1.8758
  829SOL    HW2 3315   3.036   2.786   1.146 -1.4304  0.0298  0.3973
  829SOL     MW 3316   2.989   2.847   1.186  0.0521  0.2932  0.0215
  830SOL     OW 3317   2.494   2.808   1.991 -0.3413  0.4516 -0.0679
  830SOL    HW1 3318   2.404   2.858   1.969 -1.4607  2.6854 -0.4263
  830SOL    HW2 3319   2.535   2.796   1.907 -1.8042 -0.1986  0.8915
  830SOL     MW 3320   2.487   2.813   1.977 -0.6820  0.6606  0.0114
  831SOL     OW 3321   2.465   2.428   1.233 -0.1418  0.0584 -0.0929
  831SOL    HW1 3322   2.437   2.360   1.290 -0.9812  1.9627  1.1906
  831SOL    HW2 3323   2.559   2.404   1.217  1.2236  0.3794 -0.6322
  831SOL     MW 3324   2.474   2.416   1.238 -0.0724  0.3520  0.0053
  832SOL     OW 3325   2.427   2.103   1.919 -0.3615  0.0853  0.2748
  832SOL    HW1 3326   2.445   2.199   1.930 -1.1553 -1.0178  0.5135
  832SOL    HW2 3327   2.498   2.083   1.855  2.2358 -1.7346  0.7129
  832SOL     MW 3328   2.439   2.113   1.912 -0.1235 -0.3004  0.3641
  833SOL     OW 3329   1.611   2.489   0.796  0.0316 -0.0627 -0.2971
  833SOL    HW1 3330   1.577   2.409   0.829 -2.3373  1.9884  2.1492
  833SOL    HW2 3331   1.538   2.554   0.813  0.8430 -2.4756 -2.8581
  833SOL     MW 3332   1.597   2.487   0.803 -0.1739 -0.1104 -0.3122
  834SOL     OW 3333   2.199   2.412   0.617 -0.0350  0.1204 -1.0961
  834SOL    HW1 3334   2.174   2.321   0.648 -0.1214 -0.9960 -0.1242
  834SOL    HW2 3335   2.298   2.429   0.629  0.5353 -0.2821  0.5617
  834SOL     MW 3336   2.209   2.402   0.622  0.0289 -0.0800 -0.7491
  835SOL     OW 3337   1.866   2.606   0.670 -0.3055  0.6336 -0.0159
  835SOL    HW1 3338   1.792   2.583   0.738 -4.3306  2.0912  1.0998
  835SOL    HW2 3339   1.933   2.546   0.688  0.7373 -1.2513 -1.2434
  835SOL     MW 3340   1.865   2.595   0.681 -0.6990  0.5772 -0.0307
  836SOL     OW 3341   2.090   2.061   1.767 -0.0449 -0.2574  0.2086
  836SOL    HW1 3342   2.161   1.996   1.761 -1.2597  1.0326 -0.8943
  836SOL    HW2 3343   2.125   2.138   1.816 -1.0379  0.2924  0.3329
  836SOL     MW 3344   2.104   2.062   1.773 -0.3362 -0.0146  0.0794
  837SOL     OW 3345   2.113   0.201   0.657 -0.7894  0.6596  0.1721
  837SOL    HW1 3346   2.029   0.202   0.625  1.7819  2.0834  1.9467
  837SOL    HW2 3347   2.172   0.176   0.590 -0.2034 -0.9969  0.7835
  837SOL     MW 3348   2.109   0.198   0.644 -0.3728  0.6289  0.4869
  838SOL     OW 3349   2.929   2.035   0.913 -0.0744 -0.0514 -0.1201
  838SOL    HW1 3350   2.860   1.976   0.899  1.2850  0.2742  0.4660
  838SOL    HW2 3351   2.957   2.021   1.003 -0.9571 -2.3739 -0.9223
  838SOL     MW 3352   2.924   2.025   0.923 -0.0115 -0.3149 -0.1486
  839SOL     OW 3353   1.523   2.398   1.054  0.0921  0.3722 -0.4969
  839SOL    HW1 3354   1.502   2.474   1.109 -2.6428 -0.4534 -0.7572
  839SOL    HW2 3355   1.526   2.315   1.111 -2.5125  3.3911 -3.1797
  839SOL     MW 3356   1.521   2.397   1.069 -0.6124  0.6616 -0.8852
  840SOL     OW 3357   2.398   2.119   2.311 -0.4616  0.3502 -0.1042
  840SOL    HW1 3358   2.360   2.205   2.291  1.1469 -1.0866 -1.5681
  840SOL    HW2 3359   2.441   2.141   2.397 -0.1395  0.7681  1.1249
  840SOL     MW 3360   2.399   2.133   2.320 -0.2069  0.2157 -0.1352
  841SOL     OW 3361   2.286   2.283   0.132  0.1391  0.0150  0.5529
  841SOL    HW1 3362   2.293   2.358   0.069 -0.3900 -1.0588 -0.6814
  841SOL    HW2 3363   2.221   2.220   0.096 -1.5600 -1.3869  2.5894
  841SOL     MW 3364   2.279   2.285   0.119 -0.1549 -0.3116  0.6588
  842SOL     OW 3365   2.666   1.952   1.484 -0.4610  0.5569 -0.2440
  842SOL    HW1 3366   2.603   1.883   1.491  2.3295 -0.7259 -0.3088
  842SOL    HW2 3367   2.651   1.990   1.400 -0.8096  0.9397 -0.2420
  842SOL     MW 3368   2.656   1.948   1.474 -0.1388  0.4382 -0.2523
  843SOL     OW 3369   2.666   2.757   1.761  0.9942 -0.6022  0.0125
  843SOL    HW1 3370   2.749   2.726   1.787 -1.3651 -1.3744  2.5443
  843SOL    HW2 3371   2.627   2.685   1.704 -0.3702  0.8614  1.6081
  843SOL     MW 3372   2.672   2.744   1.757  0.5029 -0.5110  0.5571
  844SOL     OW 3373   2.676   2.335   1.089  0.2551 -0.2414  0.1916
  844SOL    HW1 3374   2.677   2.399   1.015 -1.5398  1.3041 -0.2869
  844SOL    HW2 3375   2.740   2.372   1.149 -0.3847  0.6200 -0.3681
  844SOL     MW 3376   2.685   2.348   1.087 -0.0662  0.0762  0.0546
  845SOL     OW 3377   2.840   2.617   0.277 -0.1140  0.0103 -0.0275
  845SOL    HW1 3378   2.825   2.547   0.348 -1.7942  1.7062 -0.3212
  845SOL    HW2 3379   2.833   2.701   0.325  0.6903 -2.5163  0.4125
  845SOL     MW 3380   2.837   2.619   0.292 -0.2295 -0.0993 -0.0082
  846SOL     OW 3381   1.434   2.724   0.783 -0.1906 -0.1834  0.2919
  846SOL    HW1 3382   1.488   2.797   0.809 -1.4083 -0.0890  0.3360
  846SOL    HW2 3383   1.344   2.763   0.779 -0.9736  0.6058  0.9261
  846SOL     MW 3384   1.430   2.739   0.786 -0.4546 -0.0668  0.3814
  847SOL     OW 3385   2.423   1.814   0.218 -0.5109 -0.0684 -0.0847
  847SOL    HW1 3386   2.410   1.726   0.243 -0.9863 -0.8933 -3.3354
  847SOL    HW2 3387   2.423   1.813   0.119 -1.6121  0.8531  1.3577
  847SOL     MW 3388   2.421   1.802   0.208 -0.7189 -0.0557 -0.3233
  848SOL     OW 3389   2.713   2.070   1.201 -0.5032  0.3208  0.4397
  848SOL    HW1 3390   2.720   2.152   1.149  2.3875  2.0541 -0.6560
  848SOL    HW2 3391   2.758   2.002   1.152  3.8639  4.0258 -0.4012
  848SOL     MW 3392   2.720   2.072   1.187  0.4544  1.0383  0.1842
  849SOL     OW 3393   1.930   2.848   0.825 -0.2102 -0.0789  0.3002
  849SOL    HW1 3394   1.870   2.814   0.895 -2.4581  0.8385  0.4402
  849SOL    HW2 3395   1.944   2.765   0.785 -1.2269  0.4948 -2.1600
  849SOL     MW 3396   1.924   2.833   0.829 -0.6410  0.1178 -0.0060
  850SOL     OW 3397   2.316   1.945   1.610  0.0453 -0.1157  0.0560
  850SOL    HW1 3398   2.232   1.920   1.565  2.1705 -0.7346 -0.7381
  850SOL    HW2 3399   2.332   2.037   1.606 -1.9150  2.7802  1.6260
  850SOL     MW 3400   2.307   1.954   1.604  0.0671  0.1848  0.1584
  851SOL     OW 3401   2.565   2.218   0.422  0.3343  0.3267 -0.1729
  851SOL    HW1 3402   2.586   2.180   0.333  2.1706  2.7646 -1.1195
  851SOL    HW2 3403   2.540   2.312   0.408  2.4686  3.4108 -1.9730
  851SOL     MW 3404   2.564   2.225   0.408  0.8582  1.0553 -0.5353
  852SOL     OW 3405   2.324   2.016   0.363  0.3087  0.4726  0.0395
  852SOL    HW1 3406   2.376   2.091   0.343  1.8734 -0.3112  1.6779
  852SOL    HW2 3407   2.353   1.943   0.302 -0.2059 -0.4254  0.1573
  852SOL     MW 3408   2.335   2.016   0.353  0.4472  0.2507  0.2712
  853SOL     OW 3409   2.511   2.405   1.904 -0.3134  0.2221  0.3329
  853SOL    HW1 3410   2.494   2.421   1.809  0.5074  0.3957 -2.0836
  853SOL    HW2 3411   2.602   2.422   1.911 -0.5718 -0.1091  0.2055
  853SOL     MW 3412   2.521   2.409   1.892 -0.2392  0.2013 -0.0027
  854SOL     OW 3413   2.885   2.270   0.735  0.6075  0.2617  0.1086
  854SOL    HW1 3414   2.825   2.224   0.678  1.1413 -1.3402  0.5260
  854SOL    HW2 3415   2.899   2.202   0.808  2.3561  0.9980  0.2364
  854SOL     MW 3416   2.879   2.255   0.737  0.9086  0.1475  0.1805
  855SOL     OW 3417   2.810   2.380   0.422  0.5735 -0.0412 -0.0412
  855SOL    HW1 3418   2.727   2.329   0.425 -0.9043  0.7506 -1.2255
  855SOL    HW2 3419   2.876   2.312   0.399  0.9768 -2.1141 -1.0673
  855SOL     MW 3420   2.808   2.364   0.419  0.4317 -0.2102 -0.3328
  856SOL     OW 3421   2.105   1.827   0.241  0.1444 -0.8776  0.2262
  856SOL    HW1 3422   2.020   1.853   0.272  0.1198 -0.5346  1.9267
  856SOL    HW2 3423   2.162   1.894   0.281  0.0569  2.6860 -2.0140
  856SOL     MW 3424   2.101   1.840   0.250  0.1296 -0.3622  0.1550
  857SOL     OW 3425   2.453   1.929   0.571  0.2193  0.6146 -0.4057
  857SOL    HW1 3426   2.401   1.963   0.498  0.9601 -1.5146  0.5192
  857SOL    HW2 3427   2.400   1.938   0.654  1.5306 -0.0717  1.2009
  857SOL     MW 3428   2.440   1.935   0.572  0.4901  0.2431 -0.0717
  858SOL     OW 3429   2.925   2.676   1.830 -0.2005  0.0443  0.4990
  858SOL    HW1 3430   3.011   2.706   1.858  0.2128 -0.4298 -0.8591
  858SOL    HW2 3431   2.947   2.600   1.781  0.1217  1.3393  2.1250
  858SOL     MW 3432   2.939   2.670   1.827 -0.1035  0.1526  0.5344
  859SOL     OW 3433   1.752   2.650   0.985 -0.3938  0.1726  0.0912
  859SOL    HW1 3434   1.691   2.591   0.937 -1.3818 -2.0679  1.2646
  859SOL    HW2 3435   1.800   2.584   1.024 -0.1176  1.3594 -0.6251
  859SOL     MW 3436   1.750   2.634   0.984 -0.4877  0.0335  0.1515
  860SOL     OW 3437   2.634   2.583   0.079  0.1561 -0.1383 -0.7490
  860SOL    HW1 3438   2.683   2.586   0.164  0.3954  1.4948 -0.6620
  860SOL    HW2 3439   2.640   2.674   0.036 -1.9683 -0.5880 -0.4110
  860SOL     MW 3440   2.641   2.595   0.085 -0.0926  0.0179 -0.6930
  861SOL     OW 3441   1.611   2.156   1.190 -0.1753 -0.3511  0.1405
  861SOL    HW1 3442   1.630   2.214   1.270  2.9198  2.2557  1.3608
  861SOL    HW2 3443   1.543   2.094   1.227  0.2568  0.5545  1.9795
  861SOL     MW 3444   1.604   2.155   1.205  0.2901  0.1123  0.5441
  862SOL     OW 3445   2.421   1.711   1.441  0.2281 -0.1767  0.3863
  862SOL    HW1 3446   2.378   1.772   1.508 -1.3347  1.2107  0.9484
  862SOL    HW2 3447   2.381   1.729   1.353  3.8742  3.2167 -1.4358
  862SOL     MW 3448   2.410   1.721   1.438  0.5030  0.4541  0.2201
  863SOL     OW 3449   2.894   1.663   0.959 -0.2949 -1.4773 -0.2592
  863SOL    HW1 3450   2.869   1.737   1.012  0.9017 -1.3707 -0.6346
  863SOL    HW2 3451   2.836   1.660   0.881 -0.7996 -1.5678  0.5483
  863SOL     MW 3452   2.883   1.672   0.956 -0.2036 -1.4752 -0.2022
  864SOL     OW 3453   3.084   1.755   0.774 -0.7142 -0.0579  0.0311
  864SOL    HW1 3454   3.042   1.740   0.860 -0.1026  1.1989  1.1865
  864SOL    HW2 3455   3.021   1.737   0.701  1.8161  2.2051 -0.9637
  864SOL     MW 3456   3.070   1.751   0.776 -0.2997  0.4065  0.0523
  865SOL     OW 3457   2.526   2.148   0.134 -1.1121  0.2916  0.0389
  865SOL    HW1 3458   2.505   2.062   0.091  2.3712 -0.1617  0.8449
  865SOL    HW2 3459   2.441   2.208   0.130 -0.8735 -0.4723  1.5236
  865SOL     MW 3460   2.512   2.144   0.128 -0.6210  0.1310  0.3411
  866SOL     OW 3461   2.739   2.368   1.514 -0.2006  0.2586  0.2597
  866SOL    HW1 3462   2.718   2.279   1.524  0.0081  3.4475 -0.0987
  866SOL    HW2 3463   2.786   2.378   1.432  0.7545 -2.3671  0.6446
  866SOL     MW 3464   2.742   2.357   1.504 -0.0470  0.3329  0.2632
  867SOL     OW 3465   0.142   2.666   1.727  0.5510  0.6560 -0.2138
  867SOL    HW1 3466   0.228   2.706   1.740  0.6098  0.6714  0.9571
  867SOL    HW2 3467   0.086   2.737   1.723  0.3514 -0.0262  0.3977
  867SOL     MW 3468   0.146   2.680   1.728  0.5324  0.5680  0.0214
  868SOL     OW 3469   2.745   2.671   0.601 -0.3963 -0.1332 -0.4017
  868SOL    HW1 3470   2.753   2.577   0.588  0.2195 -3.6759  0.3610
  868SOL    HW2 3471   2.669   2.708   0.554  0.6797 -1.5867  0.3992
  868SOL     MW 3472   2.736   2.663   0.593 -0.1731 -0.7924 -0.1954
  869SOL     OW 3473   1.928   2.465   1.078  0.0175 -0.4377  0.2210
  869SOL    HW1 3474   2.011   2.503   1.057 -0.6609  1.4451  2.7570
  869SOL    HW2 3475   1.898   2.399   1.012 -0.8427 -1.9325  0.3018
  869SOL     MW 3476   1.935   2.462   1.067 -0.1855 -0.3865  0.5663
  870SOL     OW 3477   2.175   3.090   0.458 -0.4731  0.4999 -0.0265
  870SOL    HW1 3478   2.255   3.125   0.420  1.6043  1.8835 -0.0881
  870SOL    HW2 3479   2.190   2.996   0.486 -2.3528 -1.9279  1.6011
  870SOL     MW 3480   2.187   3.083   0.457 -0.4470  0.3621  0.1801
  871SOL     OW 3481   2.480   2.061   0.912 -0.1088 -0.7804 -0.2718
  871SOL    HW1 3482   2.403   2.003   0.902  1.0572 -1.0071  0.1423
  871SOL    HW2 3483   2.464   2.145   0.958  2.7525  1.0821  0.1023
  871SOL     MW 3484   2.468   2.064   0.917  0.4226 -0.5646 -0.1678
  872SOL     OW 3485   2.099   2.484   1.612 -0.0908 -0.3122 -0.5054
  872SOL    HW1 3486   2.046   2.559   1.641 -1.0794 -0.3805 -2.9868
  872SOL    HW2 3487   2.076   2.466   1.518 -0.3786  0.0761  1.0762
  872SOL     MW 3488   2.089   2.492   1.604 -0.2592 -0.2700 -0.6241
  873SOL     OW 3489   2.856   2.138   1.840  0.1396 -0.3618  0.1167
  873SOL    HW1 3490   2.848   2.221   1.884  1.0139  0.2575  1.2330
  873SOL    HW2 3491   2.928   2.149   1.781 -0.1976 -2.2321  0.4163
  873SOL     MW 3492   2.864   2.151   1.838  0.2105 -0.5269  0.3035
  874SOL     OW 3493   2.306   1.418   2.365  0.2994 -0.0415  0.7770
  874SOL    HW1 3494   2.266   1.391   2.284  0.8676 -1.2451 -0.0882
  874SOL    HW2 3495   2.375   1.355   2.372  1.9599 -1.9361  0.2546
  874SOL     MW 3496   2.310   1.406   2.355  0.5935 -0.4503  0.5939
  875SOL     OW 3497   2.369   2.336   0.991 -0.5098 -0.7622  0.2871
  875SOL    HW1 3498   2.408   2.376   0.911  0.5684  1.0692  1.4627
  875SOL    HW2 3499   2.419   2.370   1.068 -2.4766  1.0366 -1.1779
  875SOL     MW 3500   2.381   2.345   0.990 -0.6270 -0.2833  0.2489
  876SOL     OW 3501   3.094   2.207   1.315 -0.2895 -0.3503 -0.0269
  876SOL    HW1 3502   3.160   2.276   1.318  2.2040 -2.0989 -2.7010
  876SOL    HW2 3503   3.068   2.205   1.407  1.7778  3.3842 -1.9698
  876SOL     MW 3504   3.099   2.216   1.327  0.3123 -0.0883 -0.6361
  877SOL     OW 3505   0.024   2.788   0.284 -0.3118  0.0185 -0.3947
  877SOL    HW1 3506   0.111   2.818   0.269  0.9790  2.0063 -0.9910
  877SOL    HW2 3507   0.008   2.727   0.210  0.3506  1.2048  1.8091
  877SOL     MW 3508   0.033   2.784   0.272 -0.0541  0.4373 -0.1826
  878SOL     OW 3509   2.265   1.673   1.153  0.0973  0.1739 -0.2421
  878SOL    HW1 3510   2.177   1.647   1.210 -1.7104  0.6611  2.0693
  878SOL    HW2 3511   2.275   1.588   1.109 -0.0482  1.3500  1.6788
  878SOL     MW 3512   2.255   1.658   1.155 -0.1604  0.3933  0.3163
  879SOL     OW 3513   2.717   2.459   0.848 -0.3868 -0.3534 -0.0031
  879SOL    HW1 3514   2.790   2.518   0.866 -1.3901 -0.1064 -1.6971
  879SOL    HW2 3515   2.751   2.374   0.806 -0.7398  0.4243  2.1146
  879SOL     MW 3516   2.731   2.455   0.845 -0.5658 -0.2182  0.0528
  880SOL     OW 3517   2.596   2.204   0.686 -0.4215 -0.1742  0.3998
  880SOL    HW1 3518   2.546   2.152   0.753 -1.9552 -3.1995  2.0058
  880SOL    HW2 3519   2.560   2.166   0.602  1.1338  0.5703  1.6221
  880SOL     MW 3520   2.584   2.192   0.684 -0.4186 -0.4751  0.7730
  881SOL     OW 3521   2.992   2.743   0.679  0.4345 -0.5292  0.0672
  881SOL    HW1 3522   2.901   2.716   0.640 -1.8309 -1.1951  0.5874
  881SOL    HW2 3523   3.059   2.716   0.619 -1.3051  1.9575 -0.9540
  881SOL     MW 3524   2.989   2.736   0.666 -0.0939 -0.2890  0.0011
  882SOL     OW 3525   2.247   2.909   1.941  0.4452  0.3443  0.0137
  882SOL    HW1 3526   2.245   2.933   1.846  2.1469 -0.7993 -0.0522
  882SOL    HW2 3527   2.201   2.827   1.946  0.5451  2.2905 -0.1413
  882SOL     MW 3528   2.240   2.901   1.929  0.6829  0.4502 -0.0154
  883SOL     OW 3529   2.456   2.150   1.297  0.1670  0.2226  0.1541
  883SOL    HW1 3530   2.540   2.115   1.262  2.3339 -1.1863 -0.9993
  883SOL    HW2 3531   2.397   2.125   1.226  0.2034  2.0368 -0.8512
  883SOL     MW 3532   2.459   2.142   1.283  0.4577  0.2761 -0.1307
  884SOL     OW 3533   1.892   1.855   1.058 -0.4604 -0.0496 -0.3795
  884SOL    HW1 3534   1.843   1.936   1.029  0.6654 -1.0370  0.0393
  884SOL    HW2 3535   1.986   1.866   1.031 -0.2193 -0.8099  1.7965
  884SOL     MW 3536   1.898   1.867   1.051 -0.2801 -0.2802 -0.0371
  885SOL     OW 3537   2.939   2.445   1.698 -0.0390 -0.0677  0.2860
  885SOL    HW1 3538   3.012   2.384   1.679  0.7762 -0.8687  0.9944
  885SOL    HW2 3539   2.877   2.435   1.621 -1.6724 -0.0489 -0.7618
  885SOL     MW 3540   2.941   2.435   1.685 -0.1469 -0.1709  0.2412
  886SOL     OW 3541   2.859   2.403   1.285  0.2296 -0.0295  0.2161
  886SOL    HW1 3542   2.942   2.352   1.293  1.9003 -4.0974  3.3217
  886SOL    HW2 3543   2.875   2.487   1.334  1.0478 -0.6674  0.4919
  886SOL     MW 3544   2.872   2.407   1.292  0.5580 -0.6503  0.6622
  887SOL     OW 3545   2.310   2.659   1.579 -0.2308 -0.3634  0.1606
  887SOL    HW1 3546   2.322   2.686   1.486  1.8663 -1.0454 -1.4002
  887SOL    HW2 3547   2.237   2.597   1.588 -1.3163 -3.0535  1.1459
  887SOL     MW 3548   2.302   2.654   1.568 -0.0973 -0.8083  0.0847
  888SOL     OW 3549   2.065   2.172   1.435  0.3154  0.0633  0.4485
  888SOL    HW1 3550   2.121   2.153   1.360 -2.2980 -0.3167 -1.7968
  888SOL    HW2 3551   2.120   2.176   1.508  1.9652 -0.0041 -1.5557
  888SOL     MW 3552   2.079   2.170   1.435  0.1882  0.0043 -0.1122
  889SOL     OW 3553   2.263   1.922   2.091 -0.1833  0.3611 -0.3528
  889SOL    HW1 3554   2.358   1.896   2.107 -0.3636  0.2559 -0.1275
  889SOL    HW2 3555   2.277   2.000   2.038  1.3907 -0.2769 -2.9893
  889SOL     MW 3556   2.278   1.929   2.086  0.0005  0.2631 -0.6709
  890SOL     OW 3557   0.079   2.337   0.143 -0.0804  0.5052 -0.2135
  890SOL    HW1 3558   0.050   2.431   0.155 -0.0012 -0.2694 -1.1481
  890SOL    HW2 3559   0.097   2.303   0.233  1.4827  0.5842 -2.8009
  890SOL     MW 3560   0.077   2.345   0.157  0.1363  0.4134 -0.6782
  891SOL     OW 3561   2.996   1.977   1.179  0.4462  0.0993  0.7198
  891SOL    HW1 3562   3.080   1.940   1.176 -1.4727 -0.7004 -1.4792
  891SOL    HW2 3563   3.007   2.059   1.234 -0.2078 -1.3342  0.0051
  891SOL     MW 3564   3.008   1.983   1.186  0.1068 -0.1954  0.3354
  892SOL     OW 3565   2.460   2.354   2.745 -0.6177 -0.5698 -0.6088
  892SOL    HW1 3566   2.444   2.268   2.784  1.2497  2.3987 -0.3552
  892SOL    HW2 3567   2.554   2.378   2.784  0.6227  3.4887 -0.1506
  892SOL     MW 3568   2.470   2.346   2.755 -0.2076  0.3573 -0.5149
  893SOL     OW 3569   1.628   2.324   1.397 -0.3300 -0.1145 -0.3477
  893SOL    HW1 3570   1.553   2.383   1.393  3.1436  0.0133 -0.3962
  893SOL    HW2 3571   1.670   2.337   1.483  2.7244 -4.3822 -0.9772
  893SOL     MW 3572   1.624   2.334   1.408  0.5313 -0.6607 -0.4372
  894SOL     OW 3573   2.758   1.970   0.457  0.3338 -0.0411 -0.8025
  894SOL    HW1 3574   2.668   1.983   0.500 -0.9586  0.9178  2.3323
  894SOL    HW2 3575   2.735   1.914   0.382 -0.5101 -2.5335  1.9305
  894SOL     MW 3576   2.743   1.964   0.453  0.0519 -0.2435 -0.0283
  895SOL     OW 3577   2.214   2.142   1.168 -0.6872 -0.0385  0.5889
  895SOL    HW1 3578   2.230   2.217   1.105  0.9091  2.5827 -0.6029
  895SOL    HW2 3579   2.173   2.068   1.117 -1.7795 -0.4518 -1.7660
  895SOL     MW 3580   2.211   2.142   1.153 -0.6207  0.2528  0.1210
  896SOL     OW 3581   2.247   2.828   1.065  0.7708 -0.0967 -0.0112
  896SOL    HW1 3582   2.285   2.791   1.146  1.8707 -0.6881  0.4943
  896SOL    HW2 3583   2.185   2.893   1.095  1.3634 -1.2888 -0.7206
  896SOL     MW 3584   2.244   2.831   1.080  0.9941 -0.3320 -0.0381
  897SOL     OW 3585   3.087   3.066   3.071 -0.2739  0.9118 -0.4215
  897SOL    HW1 3586   3.135   2.984   3.059 -0.1381 -1.4785 -0.1831
  897SOL    HW2 3587   3.033   3.070   2.996 -2.1003 -2.8525 -0.2808
  897SOL     MW 3588   3.086   3.055   3.060 -0.4970  0.0998 -0.3715
  898SOL     OW 3589   2.201   0.169   1.435 -0.1908  0.6320 -0.2866
  898SOL    HW1 3590   2.138   0.098   1.434  0.5864  0.1124  0.5364
  898SOL    HW2 3591   2.161   0.226   1.364 -1.7225 -0.6721 -0.8471
  898SOL     MW 3592   2.187   0.167   1.425 -0.2904  0.3914 -0.2520
  899SOL     OW 3593   2.971   3.008   0.635  0.9794 -0.5265 -0.1693
  899SOL    HW1 3594   2.999   2.919   0.657 -2.9498 -2.6752 -0.0019
  899SOL    HW2 3595   2.877   3.014   0.642 -0.2200  1.6113  0.3128
  899SOL     MW 3596   2.962   2.997   0.639  0.3028 -0.5279 -0.0836
  900SOL     OW 3597   0.167   2.366   1.132  0.1055 -0.2339 -0.1761
  900SOL    HW1 3598   0.133   2.450   1.103  1.1580 -0.6220 -1.2816
  900SOL    HW2 3599   0.143   2.305   1.057  0.2009 -0.2526 -1.2760
  900SOL     MW 3600   0.159   2.369   1.118  0.2570 -0.2875 -0.4671
  901SOL     OW 3601   1.759   2.867   1.789 -0.3485  0.1618 -0.0250
  901SOL    HW1 3602   1.820   2.788   1.782  0.7630  4.9096 -2.1697
  901SOL    HW2 3603   1.671   2.843   1.750 -1.7566 -2.8358 -2.5496
  901SOL     MW 3604   1.755   2.854   1.783 -0.3876  0.3927 -0.6410
  902SOL     OW 3605   2.622   2.093   1.717  0.1760 -0.3024  0.2708
  902SOL    HW1 3606   2.641   2.039   1.643 -2.6449  0.9538 -1.2175
  902SOL    HW2 3607   2.705   2.103   1.763  1.0133 -1.7334 -0.6004
  902SOL     MW 3608   2.635   2.087   1.713 -0.0857 -0.3255 -0.0405
  903SOL     OW 3609   1.539   2.638   0.532  0.8008 -0.3996  0.0660
  903SOL    HW1 3610   1.633   2.652   0.533 -0.3022  0.6046  3.3884
  903SOL    HW2 3611   1.520   2.681   0.613  1.0619 -1.3401 -1.1645
  903SOL     MW 3612   1.549   2.645   0.542  0.6897 -0.3912  0.3420
  904SOL     OW 3613   2.556   2.529   1.655  0.7084 -0.4066 -0.3732
  904SOL    HW1 3614   2.477   2.568   1.611 -0.5833  2.0787  0.0616
  904SOL    HW2 3615   2.606   2.478   1.586  0.1144  0.5417 -0.2617
  904SOL     MW 3616   2.552   2.528   1.640  0.4596  0.0465 -0.3012
  905SOL     OW 3617   2.336   2.500   2.090  0.2348  0.6859 -0.4960
  905SOL    HW1 3618   2.394   2.468   2.012  0.6275 -1.2055 -0.6287
  905SOL    HW2 3619   2.305   2.428   2.154 -0.6263 -0.0659 -0.6152
  905SOL     MW 3620   2.340   2.487   2.088  0.1730  0.3371 -0.5293
  906SOL     OW 3621   2.460   2.507   0.753 -0.1606 -0.5490  0.6523
  906SOL    HW1 3622   2.552   2.513   0.771 -0.7258  0.0054 -0.6545
  906SOL    HW2 3623   2.435   2.591   0.784 -0.4835 -1.4753 -0.8696
  906SOL     MW 3624   2.469   2.519   0.760 -0.2778 -0.5981  0.2791
  907SOL     OW 3625   2.690   2.770   1.313  0.4195 -0.0119  0.2834
  907SOL    HW1 3626   2.716   2.848   1.357 -1.3673 -2.3526  2.3967
  907SOL    HW2 3627   2.682   2.798   1.223 -0.7699 -1.3229 -2.5233
  907SOL     MW 3628   2.692   2.784   1.307  0.0268 -0.4937  0.1919
  908SOL     OW 3629   2.674   2.336   3.075  0.1085 -0.5768 -0.5671
  908SOL    HW1 3630   2.623   2.269   3.110  1.8443  0.5159  2.0304
  908SOL    HW2 3631   2.651   2.425   3.115  0.4178  0.2048  2.6697
  908SOL     MW 3632   2.664   2.339   3.085  0.3783 -0.3295  0.2027
  909SOL     OW 3633   1.710   0.113   1.314 -0.4965 -0.3051  0.3636
  909SOL    HW1 3634   1.664   0.202   1.317  0.9895 -0.9545  1.0824
  909SOL    HW2 3635   1.666   0.073   1.387  3.4972 -0.8043 -2.7609
  909SOL     MW 3636   1.698   0.120   1.324  0.2265 -0.4566  0.0462
  910SOL     OW 3637   2.129   1.622   0.424 -0.2242  0.0850 -0.2272
  910SOL    HW1 3638   2.105   1.532   0.395  3.3962  1.7681 -0.7540
  910SOL    HW2 3639   2.092   1.677   0.352 -0.4442  1.0237  1.6221
  910SOL     MW 3640   2.121   1.618   0.411  0.2245  0.4309 -0.0527
  911SOL     OW 3641   2.411   2.212   1.564 -0.2521  0.3960 -0.0937
  911SOL    HW1 3642   2.495   2.197   1.611  1.9489 -1.1424  0.4881
  911SOL    HW2 3643   2.419   2.183   1.477 -0.5399 -0.3336  2.5602
  911SOL     MW 3644   2.424   2.207   1.559  0.0003  0.0967  0.3332
  912SOL     OW 3645   2.922   1.861   1.421  0.6948  0.1073  0.4650
  912SOL    HW1 3646   2.967   1.893   1.337 -0.0791 -1.3699 -1.9246
  912SOL    HW2 3647   2.837   1.901   1.436  1.5475 -1.8945  0.0084
  912SOL     MW 3648   2.917   1.871   1.412  0.7052 -0.3518  0.0895
  913SOL     OW 3649   2.699   0.021   0.306 -0.1028  0.2859  0.5992
  913SOL    HW1 3650   2.782  -0.020   0.332  2.3332  1.8520  2.4454
  913SOL    HW2 3651   2.648  -0.051   0.272 -0.1055  2.4762  1.5554
  913SOL     MW 3652   2.703   0.006   0.305  0.2182  0.7815  0.9689
  914SOL     OW 3653   2.638   1.797   3.019 -0.1898 -0.2390  0.5277
  914SOL    HW1 3654   2.695   1.873   2.998 -0.3211 -0.1993  0.6854
  914SOL    HW2 3655   2.556   1.843   3.043 -2.8568  2.0371 -1.7202
  914SOL     MW 3656   2.635   1.813   3.020 -0.5590  0.0666  0.2519
  915SOL     OW 3657   1.813   0.098   0.149 -1.0931 -0.1746  0.6425
  915SOL    HW1 3658   1.893   0.050   0.184  0.2228 -2.1987  0.2809
  915SOL    HW2 3659   1.738   0.045   0.167  1.5310  2.5555  0.6812
  915SOL     MW 3660   1.813   0.085   0.156 -0.5732 -0.0814  0.5999
  916SOL     OW 3661   1.796   2.168   1.979  0.1799  0.0126 -0.1770
  916SOL    HW1 3662   1.827   2.254   1.954 -0.6926  0.3357 -0.5208
  916SOL    HW2 3663   1.798   2.116   1.903  0.1331  1.3347  1.0022
  916SOL     MW 3664   1.801   2.172   1.966  0.0586  0.2296 -0.0668
  917SOL     OW 3665   2.532   2.189   2.537 -0.1461  0.1540 -0.1405
  917SOL    HW1 3666   2.499   2.239   2.611 -3.8917  1.1678  1.0290
  917SOL    HW2 3667   2.604   2.243   2.502  2.6684  2.0413  0.4461
  917SOL     MW 3668   2.537   2.202   2.542 -0.2690  0.5368  0.0912
  918SOL     OW 3669   2.052   1.614   2.700 -0.0709  0.5004 -0.4962
  918SOL    HW1 3670   1.981   1.626   2.639  1.0175 -1.8849 -0.6834
  918SOL    HW2 3671   2.115   1.691   2.688  0.2881  0.8511 -0.5771
  918SOL     MW 3672   2.051   1.626   2.691  0.1200  0.2320 -0.5316
  919SOL     OW 3673   3.029   2.398   2.281 -0.2024 -0.0813  0.1116
  919SOL    HW1 3674   2.953   2.340   2.249 -0.0997  2.6025  0.9902
  919SOL    HW2 3675   3.087   2.383   2.210  0.6645 -2.5252  1.6044
  919SOL     MW 3676   3.026   2.388   2.268 -0.0745 -0.0497  0.4245
  920SOL     OW 3677   2.634   2.836   3.069 -0.6840  0.3848 -0.4798
  920SOL    HW1 3678   2.548   2.811   3.030  0.1172 -2.7818 -1.9965
  920SOL    HW2 3679   2.694   2.804   3.001 -2.6280  3.7032  0.3774
  920SOL     MW 3680   2.631   2.828   3.055 -0.8347  0.4048 -0.5668
  921SOL     OW 3681   2.444   2.600   2.596 -0.2681 -0.5240  0.1818
  921SOL    HW1 3682   2.521   2.602   2.534 -1.4882  2.9398 -0.9136
  921SOL    HW2 3683   2.463   2.546   2.675  0.7651  0.1220 -0.1520
  921SOL     MW 3684   2.457   2.593   2.598 -0.2927  0.0183 -0.0068
  922SOL     OW 3685   2.088   2.636   0.424 -0.0821 -0.2254 -0.0758
  922SOL    HW1 3686   2.124   2.653   0.333  1.1893  2.7343 -1.2442
  922SOL    HW2 3687   2.086   2.540   0.427  0.3654 -4.2106  0.5945
  922SOL     MW 3688   2.093   2.626   0.413  0.1447 -0.3607 -0.1416
  923SOL     OW 3689   2.210   2.904   1.658  0.2121 -0.5315 -0.1436
  923SOL    HW1 3690   2.249   2.822   1.625  1.4064  0.1976  0.2449
  923SOL    HW2 3691   2.179   2.943   1.576  1.2800  0.7458 -0.1625
  923SOL     MW 3692   2.211   2.899   1.643  0.5106 -0.2668 -0.0949
  924SOL     OW 3693   1.096   2.709   2.615  0.1284 -0.1018  0.3370
  924SOL    HW1 3694   1.189   2.727   2.594 -2.0663 -2.7770  0.5596
  924SOL    HW2 3695   1.091   2.631   2.671  1.2482 -1.7145 -0.5879
  924SOL     MW 3696   1.108   2.701   2.620 -0.0134 -0.6675  0.2443
  925SOL     OW 3697   2.990   0.163   2.620  0.6715 -0.8735  0.0514
  925SOL    HW1 3698   2.940   0.168   2.544  2.1393  0.2018  1.0835
  925SOL    HW2 3699   2.975   0.240   2.682 -1.9240  0.4317 -0.3355
  925SOL     MW 3700   2.982   0.174   2.618  0.5227 -0.5594  0.1366
  926SOL     OW 3701   2.819   2.415   1.943  0.1100  0.3440 -0.0488
  926SOL    HW1 3702   2.842   2.492   1.998 -1.2297 -2.5315 -0.5216
  926SOL    HW2 3703   2.855   2.440   1.859  0.4878  0.2401  0.1686
  926SOL     MW 3704   2.827   2.429   1.940 -0.0169 -0.0491 -0.0825
  927SOL     OW 3705   2.388   0.103   0.313 -0.3368  0.2923 -0.4222
  927SOL    HW1 3706   2.477   0.142   0.312  1.3593 -0.3756 -1.2209
  927SOL    HW2 3707   2.384   0.072   0.218  0.6159  0.0187  2.6500
  927SOL     MW 3708   2.399   0.104   0.300  0.0127  0.1681 -0.1222
  928SOL     OW 3709   2.156   2.309   1.844  0.1432 -0.0422  0.5036
  928SOL    HW1 3710   2.192   2.330   1.755 -0.3767 -3.5103 -0.2058
  928SOL    HW2 3711   2.175   2.379   1.909  1.5257  2.5080 -0.1899
  928SOL     MW 3712   2.164   2.321   1.841  0.2570 -0.1633  0.3185
  929SOL     OW 3713   2.735   2.357   2.455 -0.2764 -0.3644  0.0819
  929SOL    HW1 3714   2.775   2.318   2.376 -1.8002  0.6619 -2.2397
  929SOL    HW2 3715   2.802   2.338   2.530  1.0232 -1.6667  3.1215
  929SOL     MW 3716   2.749   2.349   2.455 -0.3060 -0.4008  0.1767
  930SOL     OW 3717   2.012   2.841   2.667 -0.0851  0.0331 -0.2486
  930SOL    HW1 3718   2.019   2.763   2.724  1.7053  1.4146 -1.7663
  930SOL    HW2 3719   2.108   2.860   2.642  0.3110  0.4130  3.1719
  930SOL     MW 3720   2.025   2.833   2.671  0.2034  0.2655  0.0024
  931SOL     OW 3721   0.040   2.787   2.455  0.1213  0.0366  0.2222
  931SOL    HW1 3722   0.023   2.868   2.513  0.3016 -2.4649  0.5995
  931SOL    HW2 3723   0.135   2.793   2.434 -2.6423 -2.3932 -2.3570
  931SOL     MW 3724   0.050   2.799   2.460 -0.2195 -0.6141 -0.0684
  932SOL     OW 3725   2.787   2.038   2.454  0.4265  0.2501 -0.4033
  932SOL    HW1 3726   2.880   2.065   2.459  2.8171 -2.1733 -2.4961
  932SOL    HW2 3727   2.783   2.011   2.361 -1.0390  1.1274 -1.5977
  932SOL     MW 3728   2.799   2.038   2.443  0.5485  0.0461 -0.8370
  933SOL     OW 3729   2.101   2.791   2.231 -0.3699 -0.1506  0.2568
  933SOL    HW1 3730   2.174   2.829   2.272  0.2893 -1.4417 -3.9438
  933SOL    HW2 3731   2.033   2.853   2.227  3.0086 -2.9408  2.4396
  933SOL     MW 3732   2.101   2.804   2.236  0.1629 -0.6891 -0.0094
  934SOL     OW 3733   2.013   2.678   2.456 -0.1033  0.1052  0.1283
  934SOL    HW1 3734   2.006   2.734   2.531 -0.7783  2.2751 -0.0669
  934SOL    HW2 3735   2.062   2.730   2.381  2.0932 -0.8690 -0.4087
  934SOL     MW 3736   2.018   2.692   2.456  0.0975  0.2630  0.0317
  935SOL     OW 3737   2.628   1.481   1.779  0.0251  0.3100 -0.0625
  935SOL    HW1 3738   2.728   1.462   1.771  1.8837 -0.1166 -0.0632
  935SOL    HW2 3739   2.597   1.477   1.689  1.3295 -1.3604  0.2343
  935SOL     MW 3740   2.637   1.478   1.766  0.4424  0.0333 -0.0234
  936SOL     OW 3741   2.921   2.212   0.031  0.0206 -0.4606 -0.4996
  936SOL    HW1 3742   2.990   2.267   0.073  1.0993  1.0683  3.0732
  936SOL    HW2 3743   2.838   2.259   0.027 -0.4578  4.1914 -1.8615
  936SOL     MW 3744   2.919   2.225   0.036  0.0998  0.3549 -0.2079
  937SOL     OW 3745   1.905   2.128   2.615 -0.3673  0.6007 -0.1363
  937SOL    HW1 3746   1.988   2.121   2.667  0.5289  0.4574 -1.0002
  937SOL    HW2 3747   1.932   2.150   2.525 -2.0932  0.6096  0.0391
  937SOL     MW 3748   1.920   2.130   2.610 -0.4768  0.5830 -0.2271
  938SOL     OW 3749   2.243   1.785   1.838 -0.5089  0.4116 -0.0322
  938SOL    HW1 3750   2.276   1.842   1.773  0.6561 -2.0785 -3.2417
  938SOL    HW2 3751   2.214   1.844   1.908 -1.1783 -1.7337  1.5961
  938SOL     MW 3752   2.243   1.801   1.838 -0.4435 -0.2000 -0.2408
  939SOL     OW 3753   2.794   1.963   2.190  0.1495  0.2229  0.3652
  939SOL    HW1 3754   2.837   1.918   2.117  2.0561  0.8033  1.1808
  939SOL    HW2 3755   2.705   1.928   2.178 -0.1718  2.6778 -1.1898
  939SOL     MW 3756   2.788   1.952   2.178  0.3587  0.6234  0.2676
  940SOL     OW 3757   2.179   0.098   2.777  0.5127 -0.4029 -0.0133
  940SOL    HW1 3758   2.205   0.034   2.714  2.2237  0.7639 -1.1502
  940SOL    HW2 3759   2.262   0.108   2.822 -0.6964 -1.1799 -2.1502
  940SOL     MW 3760   2.193   0.091   2.774  0.5789 -0.3515 -0.4452
  941SOL     OW 3761   0.111   2.446   2.089  0.5891  0.0728 -0.1470
  941SOL    HW1 3762   0.198   2.400   2.075 -0.4310  0.7137 -3.2621
  941SOL    HW2 3763   0.075   2.417   2.001 -0.0804 -1.8419  0.7559
  941SOL     MW 3764   0.118   2.436   2.075  0.3662 -0.0953 -0.4389
  942SOL     OW 3765   2.834   2.256   2.185 -0.4705  0.2968 -0.5985
  942SOL    HW1 3766   2.791   2.288   2.103 -0.4503 -0.9844  0.2315
  942SOL    HW2 3767   2.801   2.168   2.170 -0.5858  0.5040 -0.9326
  942SOL     MW 3768   2.824   2.249   2.172 -0.4831  0.1551 -0.5330
  943SOL     OW 3769   0.326   2.131   2.256  0.4285  1.0197 -0.1937
  943SOL    HW1 3770   0.263   2.146   2.321  1.6735  0.1502 -0.5227
  943SOL    HW2 3771   0.403   2.120   2.310  2.6680 -0.8645 -2.8853
  943SOL     MW 3772   0.328   2.131   2.272  0.8883  0.6564 -0.5922
  944SOL     OW 3773   2.141   2.644   1.963 -0.0271 -0.2260  0.0584
  944SOL    HW1 3774   2.226   2.611   1.993 -2.0382 -1.9201  0.3149
  944SOL    HW2 3775   2.102   2.666   2.052 -0.1262  1.2362  2.6320
  944SOL     MW 3776   2.147   2.642   1.979 -0.3055 -0.2566  0.4318
  945SOL     OW 3777   2.748   2.714   2.865 -0.2279 -0.7412 -0.0132
  945SOL    HW1 3778   2.715   2.618   2.871 -2.8206 -0.0090  0.8162
  945SOL    HW2 3779   2.741   2.750   2.776  3.5693  0.0803  1.1147
  945SOL     MW 3780   2.743   2.706   2.854 -0.0690 -0.5362  0.2450
  946SOL     OW 3781   2.453   2.692   2.240 -0.4388  0.5489  0.0312
  946SOL    HW1 3782   2.477   2.731   2.162 -0.4760 -0.6771 -0.8916
  946SOL    HW2 3783   2.383   2.635   2.201 -1.6723 -0.6988 -1.2229
  946SOL     MW 3784   2.447   2.690   2.224 -0.6064  0.2225 -0.2560
  947SOL     OW 3785   2.040   3.078   0.224 -0.0500 -0.7273 -0.1540
  947SOL    HW1 3786   2.060   2.995   0.171  1.6859 -3.3568  1.1900
  947SOL    HW2 3787   2.089   3.060   0.311 -1.2814 -2.7260 -0.9962
  947SOL     MW 3788   2.049   3.065   0.228  0.0166 -1.3379 -0.0878
  948SOL     OW 3789   1.810   3.040   2.630  0.1224  0.0117  0.5847
  948SOL    HW1 3790   1.876   2.974   2.641 -0.6154 -0.6060  0.7248
  948SOL    HW2 3791   1.783   3.027   2.537 -0.1690 -1.1193 -0.0128
  948SOL     MW 3792   1.815   3.030   2.619 -0.0134 -0.2190  0.5244
  949SOL     OW 3793   2.519   1.871   2.225 -0.1132  0.0275  0.3998
  949SOL    HW1 3794   2.514   1.787   2.270  1.1994 -0.9980  0.7630
  949SOL    HW2 3795   2.468   1.936   2.273 -1.3217  1.1255 -0.4229
  949SOL     MW 3796   2.511   1.868   2.237 -0.0994  0.0371  0.3392
  950SOL     OW 3797   2.310   2.438   2.976 -0.2100 -0.0658 -0.7355
  950SOL    HW1 3798   2.366   2.396   2.906  0.7604  0.5581  0.5644
  950SOL    HW2 3799   2.226   2.463   2.934 -2.5800  1.5272  2.0555
  950SOL     MW 3800   2.307   2.436   2.961 -0.3947  0.2267 -0.1958
  951SOL     OW 3801   3.031   2.230   2.873 -0.3476 -0.0848 -0.0262
  951SOL    HW1 3802   2.981   2.228   2.954 -1.8137  0.5445 -2.7867
  951SOL    HW2 3803   3.088   2.151   2.874 -0.6037  0.8547  1.6292
  951SOL     MW 3804   3.032   2.219   2.884 -0.5748  0.1222 -0.1720
  952SOL     OW 3805   3.066   1.730   2.113 -0.1372 -0.0513 -0.1783
  952SOL    HW1 3806   3.002   1.779   2.056  0.1480  0.4279 -1.5774
  952SOL    HW2 3807   3.129   1.798   2.135  2.6057 -1.6283  0.9083
  952SOL     MW 3808   3.066   1.745   2.108  0.2623 -0.1961 -0.2195
  953SOL     OW 3809   1.933   1.771   2.926 -0.3780  0.2896 -0.9636
  953SOL    HW1 3810   1.856   1.718   2.941 -1.8948  0.1500  0.1338
  953SOL    HW2 3811   1.991   1.725   2.860 -1.2497 -0.6624 -1.2630
  953SOL     MW 3812   1.931   1.758   2.919 -0.6932  0.1456 -0.8583
  954SOL     OW 3813   2.380   2.124   2.903  0.5922  0.0312 -0.7174
  954SOL    HW1 3814   2.289   2.110   2.870  1.1555 -0.8757 -0.3932
  954SOL    HW2 3815   2.440   2.067   2.857 -0.3883  2.4113 -1.1770
  954SOL     MW 3816   2.376   2.115   2.893  0.5371  0.2255 -0.7352
  955SOL     OW 3817   1.571   1.523   2.555  0.0252  0.4690  0.1166
  955SOL    HW1 3818   1.538   1.504   2.462  1.5087 -0.0499  2.1381
  955SOL    HW2 3819   1.661   1.541   2.558 -1.4553 -2.0875  0.5798
  955SOL     MW 3820   1.578   1.522   2.543  0.0256  0.0632  0.4445
  956SOL     OW 3821   2.703   2.438   2.812 -0.6036 -0.4612  0.2500
  956SOL    HW1 3822   2.724   2.396   2.891  1.2610  1.0813 -1.7023
  956SOL    HW2 3823   2.783   2.419   2.754  0.4786  0.7533  2.1403
  956SOL     MW 3824   2.716   2.430   2.815 -0.2148 -0.0974  0.2418
  957SOL     OW 3825   2.263   2.839   0.529  0.0948  0.2948  0.2044
  957SOL    HW1 3826   2.226   2.753   0.515  3.1647  1.8754  0.6390
  957SOL    HW2 3827   2.276   2.844   0.626  0.3536 -2.4394 -3.1593
  957SOL     MW 3828   2.260   2.828   0.540  0.5340  0.1426 -0.1821
  958SOL     OW 3829   2.073   2.542   2.841 -0.1126 -0.1309 -0.1930
  958SOL    HW1 3830   2.049   2.478   2.770 -0.1511  1.2318  1.4179
  958SOL    HW2 3831   2.022   2.525   2.923  0.9187  1.3071  1.2755
  958SOL     MW 3832   2.063   2.531   2.842  0.0184  0.2387  0.2133
  959SOL     OW 3833   2.515   2.780   0.431  0.6374 -0.5221 -0.1953
  959SOL    HW1 3834   2.504   2.825   0.345  0.9718  0.2436 -1.6393
  959SOL    HW2 3835   2.434   2.805   0.478  1.0419  0.1288 -2.5128
  959SOL     MW 3836   2.503   2.790   0.426  0.7349 -0.3352 -0.6916
  960SOL     OW 3837   1.922   2.389   2.299 -0.1275 -0.3662  0.3406
  960SOL    HW1 3838   1.937   2.294   2.289 -1.2966  0.0547  2.8289
  960SOL    HW2 3839   1.860   2.396   2.371  0.7654 -0.5845 -0.9086
  960SOL     MW 3840   1.916   2.378   2.307 -0.1640 -0.3394  0.5041
  961SOL     OW 3841   2.229   2.332   2.287 -0.1526 -0.3536 -0.2652
  961SOL    HW1 3842   2.144   2.338   2.247  0.6846 -0.0671 -0.4144
  961SOL    HW2 3843   2.227   2.373   2.379  1.8613  0.0642  1.0037
  961SOL     MW 3844   2.217   2.338   2.294  0.2236 -0.2607 -0.1175
  962SOL     OW 3845   2.128   2.037   2.812  0.2648  0.0010 -0.1070
  962SOL    HW1 3846   2.119   1.985   2.892 -2.6448  0.9684  2.9716
  962SOL    HW2 3847   2.176   1.969   2.753  2.7246 -1.1307 -2.9054
  962SOL     MW 3848   2.133   2.021   2.815  0.2055 -0.0207 -0.0700
  963SOL     OW 3849   1.845   2.563   2.074 -0.3061 -0.2249 -0.1820
  963SOL    HW1 3850   1.838   2.514   2.154 -0.1489  2.2276  0.8778
  963SOL    HW2 3851   1.890   2.503   2.009 -0.0038 -0.8859  0.5832
  963SOL     MW 3852   1.850   2.549   2.076 -0.2455  0.0115  0.0588
  964SOL     OW 3853   1.818   1.863   2.696 -0.4319  0.1404 -0.9392
  964SOL    HW1 3854   1.845   1.955   2.674 -2.7735 -0.8193  0.7990
  964SOL    HW2 3855   1.870   1.853   2.774  1.4543 -0.0721  0.0857
  964SOL     MW 3856   1.829   1.874   2.704 -0.4920 -0.0142 -0.5746
  965SOL     OW 3857   2.120   2.583   0.824  0.7138  0.2543  1.1054
  965SOL    HW1 3858   2.146   2.529   0.748  0.2445  0.5776  0.2891
  965SOL    HW2 3859   2.189   2.651   0.832  0.9839  2.3238 -0.8555
  965SOL     MW 3860   2.133   2.585   0.815  0.6875  0.5700  0.7390
  966SOL     OW 3861   2.657   2.616   2.441 -0.0464  0.5219 -0.0505
  966SOL    HW1 3862   2.598   2.645   2.366  3.1074 -3.2422 -1.5611
  966SOL    HW2 3863   2.668   2.520   2.436  1.1478 -0.2634 -0.0330
  966SOL     MW 3864   2.651   2.607   2.430  0.5273 -0.0784 -0.2475
  967SOL     OW 3865   2.680   0.042   3.069 -0.8380  0.7333  0.2249
  967SOL    HW1 3866   2.667  -0.047   3.105  0.3151 -3.8327  0.7229
  967SOL    HW2 3867   2.689   0.034   2.974 -0.4647 -0.9715  1.8820
  967SOL     MW 3868   2.680   0.029   3.061 -0.6366 -0.0941  0.5093
  968SOL     OW 3869   3.016   2.678   2.895 -0.2880 -0.4571  0.3963
  968SOL    HW1 3870   2.921   2.691   2.895  2.2462  1.0413  0.0537
  968SOL    HW2 3871   3.037   2.647   2.809 -3.7436  1.6670 -0.0124
  968SOL     MW 3872   3.006   2.676   2.884 -0.4096  0.0208  0.2972
  969SOL     OW 3873   1.570   2.103   1.717  0.5435 -0.4386  0.5866
  969SOL    HW1 3874   1.644   2.040   1.729 -1.3499 -1.9959 -0.6829
  969SOL    HW2 3875   1.536   2.123   1.800  2.7898  1.2363 -1.2507
  969SOL     MW 3876   1.575   2.097   1.729  0.5901 -0.4231  0.1767
  970SOL     OW 3877   1.741   1.808   1.876 -0.7032  0.2107 -0.3290
  970SOL    HW1 3878   1.785   1.731   1.910  0.4914  0.2807 -3.0407
  970SOL    HW2 3879   1.654   1.791   1.913 -0.0048 -2.2189  0.7837
  970SOL     MW 3880   1.735   1.796   1.885 -0.4534 -0.1006 -0.5400
  971SOL     OW 3881   1.748  -0.001   2.357  0.2469 -0.1822  0.0340
  971SOL    HW1 3882   1.818  -0.027   2.292 -0.4379 -0.8546 -1.8015
  971SOL    HW2 3883   1.776   0.092   2.385  0.9155  0.5457  0.9081
  971SOL     MW 3884   1.761   0.008   2.353  0.2448 -0.1749 -0.0928
  972SOL     OW 3885   0.312   2.854   2.387 -0.1562 -0.9635  0.1314
  972SOL    HW1 3886   0.361   2.775   2.414 -0.3412  2.3379  2.4939
  972SOL    HW2 3887   0.357   2.930   2.419 -0.9695  0.9323  1.7893
  972SOL     MW 3888   0.324   2.854   2.395 -0.2879 -0.2778  0.6618
  973SOL     OW 3889   2.626   3.016   2.118 -0.0992 -0.1905  0.3083
  973SOL    HW1 3890   2.571   2.938   2.098  1.3891  3.4619 -0.2938
  973SOL    HW2 3891   2.633   3.061   2.036 -2.5305  1.3111  2.3762
  973SOL     MW 3892   2.620   3.012   2.105 -0.2236  0.4895  0.5017
  974SOL     OW 3893   1.991   0.154   2.575  0.5568 -0.1440  0.4723
  974SOL    HW1 3894   2.042   0.147   2.656 -1.0945  1.6808 -0.8358
  974SOL    HW2 3895   1.933   0.078   2.584  1.8263 -0.3259  1.4664
  974SOL     MW 3896   1.990   0.143   2.587  0.5064  0.0728  0.4309
  975SOL     OW 3897   2.192   2.483   2.510 -0.1010 -0.2509 -0.2353
  975SOL    HW1 3898   2.265   2.535   2.548 -1.1134 -2.7981 -0.2209
  975SOL    HW2 3899   2.130   2.558   2.475 -1.5148 -0.5781  0.6024
  975SOL     MW 3900   2.193   2.500   2.511 -0.4211 -0.6301 -0.1229
  976SOL     OW 3901   0.180   0.361   1.588 -0.2630 -0.4515  0.2597
  976SOL    HW1 3902   0.239   0.294   1.625  2.7261 -0.1680 -1.7298
  976SOL    HW2 3903   0.101   0.324   1.555  1.0547  1.3755 -1.2637
  976SOL     MW 3904   0.178   0.348   1.588  0.3052 -0.1730 -0.2038
  977SOL     OW 3905   1.767   2.747   2.386  0.0603 -0.0528 -0.2695
  977SOL    HW1 3906   1.857   2.716   2.388  1.5275 -1.8166  1.8806
  977SOL    HW2 3907   1.757   2.818   2.318 -3.2937  1.9701  1.4848
  977SOL     MW 3908   1.777   2.753   2.377 -0.1886 -0.0186  0.2457
   3.10000   3.10000   3.10000
