977 TIP4P/2005f water molecules t=   1.94000 step= 1940
 3908
    1SOL     OW    1   0.447   0.736   0.170 -0.1100 -0.8162  0.3518
    1SOL    HW1    2   0.400   0.702   0.098 -1.2357  1.5911 -0.3385
    1SOL    HW2    3   0.486   0.666   0.223  1.8566 -2.7607 -1.3949
    1SOL     MW    4   0.446   0.723   0.168  0.0009 -0.7551  0.0303
    2SOL     OW    5   0.274   2.982   1.147 -0.0691 -0.5610  0.4640
    2SOL    HW1    6   0.321   3.057   1.105  1.0269 -1.4700 -0.1819
    2SOL    HW2    7   0.185   3.011   1.164  2.2391  1.3607  2.1861
    2SOL     MW    8   0.268   2.996   1.144  0.3801 -0.4274  0.6060
    3SOL     OW    9   2.691   0.357   0.879 -0.0450  0.2590 -0.3853
    3SOL    HW1   10   2.732   0.434   0.841  0.7315  2.3726 -1.9868
    3SOL    HW2   11   2.691   0.374   0.970 -0.3491 -1.0537 -5.2302
    3SOL     MW   12   2.697   0.369   0.886  0.0173  0.3646 -1.2358
    4SOL     OW   13   2.926   1.741   0.546 -0.0623 -0.4943  0.5574
    4SOL    HW1   14   2.899   1.834   0.531  1.6693 -1.7785 -0.7919
    4SOL    HW2   15   2.984   1.723   0.463  0.1381 -0.1503  0.5408
    4SOL     MW   16   2.930   1.751   0.533  0.1926 -0.6183  0.3772
    5SOL     OW   17   1.615   1.464   0.623 -0.0794  0.1178 -0.2780
    5SOL    HW1   18   1.633   1.447   0.715  0.9426  1.2886  0.5619
    5SOL    HW2   19   1.524   1.502   0.634  1.4138 -1.0762  1.0572
    5SOL     MW   20   1.606   1.467   0.637  0.2525  0.1147  0.0090
    6SOL     OW   21   0.761   1.433   0.620 -0.1040  0.1979  0.3845
    6SOL    HW1   22   0.691   1.430   0.560  1.4082  0.3797 -0.1246
    6SOL    HW2   23   0.775   1.347   0.661 -1.8292 -1.4875 -0.9764
    6SOL     MW   24   0.753   1.421   0.618 -0.1321 -0.0005  0.1378
    7SOL     OW   25   2.001   1.020   0.037 -0.6500  0.4038  0.5752
    7SOL    HW1   26   2.068   1.083   0.082  3.0299  1.0660  1.1813
    7SOL    HW2   27   1.945   1.004   0.108 -0.4171  0.5954  1.7633
    7SOL     MW   28   2.002   1.026   0.053 -0.1337  0.5165  0.8120
    8SOL     OW   29   0.864   1.396   0.988  0.7008  0.5610  0.3180
    8SOL    HW1   30   0.874   1.494   1.003 -1.9006  1.5964 -2.6639
    8SOL    HW2   31   0.900   1.351   1.062 -0.0878 -1.7363 -0.5472
    8SOL     MW   32   0.870   1.403   1.000  0.2535  0.3945 -0.1896
    9SOL     OW   33   0.872   0.539   1.298  0.2415 -0.0812  0.3882
    9SOL    HW1   34   0.833   0.454   1.284 -0.5310  2.1407 -0.5085
    9SOL    HW2   35   0.964   0.529   1.316 -1.1691 -3.5992  0.3283
    9SOL     MW   36   0.879   0.527   1.299 -0.0465 -0.2522  0.2620
   10SOL     OW   37   0.320   0.846   0.504 -0.1544 -0.2112 -0.1396
   10SOL    HW1   38   0.411   0.876   0.483  0.3990  1.8569 -2.3038
   10SOL    HW2   39   0.289   0.901   0.575  0.1778 -1.5486 -0.6122
   10SOL     MW   40   0.328   0.858   0.510 -0.0376 -0.1148 -0.4875
   11SOL     OW   41   0.734   1.096   1.457 -0.3530 -0.1404 -0.4997
   11SOL    HW1   42   0.766   1.102   1.548  0.9622  0.9879 -0.8278
   11SOL    HW2   43   0.776   1.018   1.422  0.4496  1.7787 -0.3477
   11SOL     MW   44   0.744   1.087   1.464 -0.0735  0.2617 -0.5229
   12SOL     OW   45   3.089   1.066   0.907  0.2068  0.2241 -0.1256
   12SOL    HW1   46   3.146   1.128   0.949 -2.0279  0.9029 -1.7653
   12SOL    HW2   47   3.053   1.102   0.824  1.8968 -1.0385 -0.4328
   12SOL     MW   48   3.092   1.079   0.902  0.1349  0.1471 -0.3825
   13SOL     OW   49   1.861   1.419   1.287  0.4965 -0.4486  0.1436
   13SOL    HW1   50   1.918   1.356   1.240  1.3879  2.0866 -1.1445
   13SOL    HW2   51   1.908   1.501   1.292 -0.7368  0.4577 -1.2174
   13SOL     MW   52   1.875   1.421   1.282  0.4514  0.0055 -0.2059
   14SOL     OW   53   0.580   0.248   1.870 -0.5998 -0.1951  0.0774
   14SOL    HW1   54   0.634   0.232   1.789  1.7974 -1.4205  0.7503
   14SOL    HW2   55   0.502   0.297   1.836  2.0154  1.1808 -1.0290
   14SOL     MW   56   0.577   0.253   1.855  0.0615 -0.1752  0.0202
   15SOL     OW   57   1.999   0.409   0.968 -0.6203  0.3353  0.2417
   15SOL    HW1   58   1.988   0.485   1.023 -1.4876  0.6955  2.4499
   15SOL    HW2   59   2.040   0.456   0.888  1.5754 -0.8133 -1.4808
   15SOL     MW   60   2.003   0.425   0.964 -0.4451  0.2313  0.3058
   16SOL     OW   61   0.221   1.830   0.257 -0.3269 -0.1122 -0.2635
   16SOL    HW1   62   0.304   1.783   0.223 -1.5026 -0.3439  1.0257
   16SOL    HW2   63   0.253   1.911   0.297  2.0750 -0.1329  1.3202
   16SOL     MW   64   0.236   1.834   0.257 -0.1651 -0.1455  0.1156
   17SOL     OW   65   1.130   0.846   1.388 -0.1204 -0.8060 -0.0230
   17SOL    HW1   66   1.136   0.810   1.474  0.9007 -1.5790  1.0204
   17SOL    HW2   67   1.035   0.863   1.383 -1.6891  2.3523 -1.4480
   17SOL     MW   68   1.118   0.844   1.398 -0.1927 -0.4913 -0.0733
   18SOL     OW   69   0.002   1.645   0.353  0.2835  0.7507 -0.0772
   18SOL    HW1   70   0.074   1.702   0.333  0.0326 -0.1843  0.6927
   18SOL    HW2   71  -0.011   1.594   0.272 -1.4680  0.3266  1.7702
   18SOL     MW   72   0.009   1.646   0.340  0.0193  0.5714  0.2682
   19SOL     OW   73   0.083   1.390   0.942  0.0670  0.0567 -0.3986
   19SOL    HW1   74   0.112   1.392   0.851 -0.8124 -1.6651  1.2964
   19SOL    HW2   75  -0.011   1.374   0.936 -2.5180 -1.2250  0.6868
   19SOL     MW   76   0.075   1.388   0.929 -0.3901 -0.3396 -0.0317
   20SOL     OW   77   0.454   2.121   1.264  0.5118  0.0954  0.0197
   20SOL    HW1   78   0.434   2.034   1.219 -0.9859 -1.2336 -2.2594
   20SOL    HW2   79   0.390   2.128   1.334 -0.5241  4.0424  2.3179
   20SOL     MW   80   0.443   2.110   1.267  0.1775  0.4408  0.0222
   21SOL     OW   81   0.574   0.935   0.462  0.8380  0.4971 -0.1225
   21SOL    HW1   82   0.648   0.911   0.514 -2.1309 -1.6530  1.6021
   21SOL    HW2   83   0.606   0.954   0.372  0.1473 -0.6266  2.5682
   21SOL     MW   84   0.588   0.934   0.457  0.3551  0.0652  0.4601
   22SOL     OW   85   1.540   0.770   0.947  0.0111  0.0744 -0.2514
   22SOL    HW1   86   1.565   0.755   0.857 -0.9997  1.5320  0.3329
   22SOL    HW2   87   1.455   0.817   0.947 -0.9976  0.0007  0.0603
   22SOL     MW   88   1.532   0.774   0.935 -0.2554  0.2570 -0.1332
   23SOL     OW   89  -0.004   0.821   0.680 -0.5023  0.2719  0.7043
   23SOL    HW1   90   0.038   0.738   0.718  2.1855  0.4400  0.5480
   23SOL    HW2   91   0.063   0.895   0.684  2.3454  2.9380  2.2076
   23SOL     MW   92   0.011   0.819   0.686  0.2280  0.6458  0.8820
   24SOL     OW   93   2.007   2.180   0.042 -0.0009 -0.0952 -0.5454
   24SOL    HW1   94   1.987   2.162   0.138  0.6984  0.9696 -3.1073
   24SOL    HW2   95   2.057   2.102   0.007  2.2158 -0.5361  0.1345
   24SOL     MW   96   2.011   2.167   0.050  0.3838 -0.0129 -0.7937
   25SOL     OW   97   0.215   1.467   0.400  0.1261  1.2206  0.0565
   25SOL    HW1   98   0.148   1.518   0.432 -0.9839 -1.6537  0.6904
   25SOL    HW2   99   0.228   1.480   0.313 -3.3596 -1.5621  0.1341
   25SOL     MW  100   0.208   1.476   0.393 -0.4803  0.4742  0.1503
   26SOL     OW  101   1.947   1.012   0.334  0.3578  0.0088  0.0022
   26SOL    HW1  102   1.906   1.069   0.401  0.4832 -2.0101  0.5455
   26SOL    HW2  103   2.029   1.065   0.313  0.7147  0.7940  1.2630
   26SOL     MW  104   1.952   1.026   0.340  0.4214 -0.1540  0.2403
   27SOL     OW  105   1.848   1.343   0.149  0.7901 -0.3320  0.1653
   27SOL    HW1  106   1.798   1.424   0.173 -2.3292 -1.4803  1.6482
   27SOL    HW2  107   1.894   1.330   0.231 -0.5512 -1.7687  0.7743
   27SOL     MW  108   1.848   1.352   0.163  0.2016 -0.6731  0.4413
   28SOL     OW  109   0.436   0.912   2.068  0.0076  0.0426 -0.6824
   28SOL    HW1  110   0.476   0.921   2.151 -1.5357 -1.5637 -2.3851
   28SOL    HW2  111   0.341   0.916   2.073 -2.9850 -1.2387  1.1267
   28SOL     MW  112   0.429   0.914   2.079 -0.5909 -0.3384 -0.6684
   29SOL     OW  113   0.178   1.441   0.688  0.4071  0.4428  0.0906
   29SOL    HW1  114   0.197   1.534   0.697  0.5873 -0.6257 -0.6777
   29SOL    HW2  115   0.166   1.438   0.596  1.0415 -2.0303  0.7482
   29SOL     MW  116   0.179   1.453   0.677  0.5146 -0.0245  0.0760
   30SOL     OW  117   0.729   1.268   1.238  0.2481 -0.3818  0.3205
   30SOL    HW1  118   0.635   1.272   1.261  0.6701 -4.2515 -0.5112
   30SOL    HW2  119   0.755   1.188   1.292  1.2740 -2.5817 -0.6693
   30SOL     MW  120   0.720   1.258   1.248  0.4392 -1.1826  0.0802
   31SOL     OW  121   0.454   0.251   0.182 -0.4244  0.0718  0.4628
   31SOL    HW1  122   0.507   0.182   0.227 -1.7998  0.3821 -1.3754
   31SOL    HW2  123   0.439   0.209   0.095 -1.9628  0.5221  2.4638
   31SOL     MW  124   0.459   0.236   0.177 -0.8088  0.1721  0.4843
   32SOL     OW  125   2.723   0.986   1.061 -0.3532 -0.3848 -0.3657
   32SOL    HW1  126   2.684   0.916   1.104  2.3315 -0.7787 -2.1832
   32SOL    HW2  127   2.808   0.994   1.116 -2.1507  0.8459 -0.0412
   32SOL     MW  128   2.729   0.978   1.074 -0.2361 -0.2744 -0.5627
   33SOL     OW  129   1.628   1.315   0.394  0.2568  1.1421  0.1668
   33SOL    HW1  130   1.696   1.251   0.402 -0.4830  2.6646 -1.1100
   33SOL    HW2  131   1.624   1.363   0.480 -2.9516 -0.7340  1.0304
   33SOL     MW  132   1.637   1.313   0.407 -0.2641  1.0955  0.1123
   34SOL     OW  133   1.147   1.998   1.175 -0.1596 -0.1612 -0.2936
   34SOL    HW1  134   1.082   2.029   1.238  3.3175 -1.5236  3.1115
   34SOL    HW2  135   1.229   2.001   1.232  3.7458 -1.8530  0.6062
   34SOL     MW  136   1.149   2.002   1.191  0.8145 -0.5641  0.2744
   35SOL     OW  137   0.357   0.124   1.668  0.0462 -0.4149  0.1967
   35SOL    HW1  138   0.384   0.077   1.747  0.8255 -1.3670  0.1336
   35SOL    HW2  139   0.293   0.060   1.633 -1.5931 -1.3808  1.9775
   35SOL     MW  140   0.352   0.109   1.674 -0.0672 -0.6680  0.4233
   36SOL     OW  141   1.939   2.015   0.603 -0.4444 -0.0689  0.4220
   36SOL    HW1  142   1.931   2.000   0.509 -1.3479 -3.2593 -0.1462
   36SOL    HW2  143   1.962   1.928   0.626 -0.0712  2.5805  0.3497
   36SOL     MW  144   1.941   2.001   0.593 -0.5144 -0.1403  0.3375
   37SOL     OW  145   1.712   2.048   0.946 -0.3757 -0.6001 -0.1609
   37SOL    HW1  146   1.666   1.990   0.885 -0.4829  1.0617  0.7291
   37SOL    HW2  147   1.658   2.065   1.026  1.0979 -0.2412 -1.1774
   37SOL     MW  148   1.699   2.043   0.948 -0.1954 -0.3335 -0.1776
   38SOL     OW  149   2.852   0.977   0.062 -0.3458  0.2589  0.5206
   38SOL    HW1  150   2.894   0.959   0.145  0.3816  1.2105 -1.8709
   38SOL    HW2  151   2.910   0.979  -0.021 -1.8347 -0.9126  1.2281
   38SOL     MW  152   2.865   0.975   0.062 -0.4463  0.2299  0.2984
   39SOL     OW  153   1.513   0.582   0.679 -0.3282 -0.7182 -0.6396
   39SOL    HW1  154   1.520   0.515   0.746  1.6998  2.5564  1.1263
   39SOL    HW2  155   1.428   0.625   0.685  2.7734 -1.5022 -1.9438
   39SOL     MW  156   1.503   0.579   0.688  0.3486 -0.3896 -0.5787
   40SOL     OW  157   1.273   1.873   0.223 -0.1614 -0.4169  0.0562
   40SOL    HW1  158   1.333   1.814   0.269 -1.8485 -0.6985  0.5189
   40SOL    HW2  159   1.226   1.924   0.291 -1.5838  0.2240  0.8293
   40SOL     MW  160   1.275   1.872   0.238 -0.5717 -0.3695  0.2193
   41SOL     OW  161   0.461   0.500   1.556  0.4376  0.2108 -0.4598
   41SOL    HW1  162   0.537   0.564   1.553  2.3406 -2.2455 -1.2035
   41SOL    HW2  163   0.394   0.541   1.497  1.6647 -0.5363 -2.6309
   41SOL     MW  164   0.462   0.514   1.548  0.8506 -0.2118 -0.8444
   42SOL     OW  165   1.277   2.895   1.987  0.2269  0.5247 -0.2179
   42SOL    HW1  166   1.198   2.888   2.037  2.7006 -0.1689 -0.4135
   42SOL    HW2  167   1.345   2.842   2.035  3.3026 -1.9326  0.9680
   42SOL     MW  168   1.276   2.888   2.000  0.9591  0.1090 -0.0872
   43SOL     OW  169   1.399   0.145   1.690  0.2898  0.2585  0.1302
   43SOL    HW1  170   1.479   0.105   1.662  1.9201  1.0141  2.3539
   43SOL    HW2  171   1.346   0.076   1.654 -0.1290  1.5866 -0.3622
   43SOL     MW  172   1.403   0.130   1.681  0.4497  0.5334  0.3586
   44SOL     OW  173   1.188   0.859   0.944 -0.2057  0.3777  0.4358
   44SOL    HW1  174   1.161   0.944   0.981  0.4160  0.6387 -0.6007
   44SOL    HW2  175   1.153   0.791   1.003 -1.2280 -1.2249  0.2049
   44SOL     MW  176   1.180   0.861   0.956 -0.2586  0.2007  0.2686
   45SOL     OW  177   1.310   0.781   0.708 -0.3703  0.3344 -0.0472
   45SOL    HW1  178   1.272   0.788   0.795 -0.4899  0.6825  0.8418
   45SOL    HW2  179   1.240   0.733   0.653 -1.2609 -0.4327 -3.0692
   45SOL     MW  180   1.296   0.776   0.712 -0.5036  0.2791 -0.3287
   46SOL     OW  181   0.447   1.126   0.697 -0.0124  0.4116  0.5264
   46SOL    HW1  182   0.470   1.159   0.611 -0.7501 -0.5368 -3.2971
   46SOL    HW2  183   0.430   1.207   0.756  2.1927  0.4616  0.3939
   46SOL     MW  184   0.448   1.141   0.694  0.1812  0.2931  0.0045
   47SOL     OW  185   0.140   2.021   1.933 -0.5614  0.2098  0.4953
   47SOL    HW1  186   0.136   1.932   1.889  0.6002 -2.2254 -2.3657
   47SOL    HW2  187   0.148   2.002   2.022  1.8825 -0.3692 -1.3774
   47SOL     MW  188   0.141   2.007   1.939 -0.0857 -0.1879 -0.1293
   48SOL     OW  189   1.286   0.510   1.035  0.0650  0.2388 -0.3199
   48SOL    HW1  190   1.240   0.454   0.969 -0.6040  0.1240  2.3754
   48SOL    HW2  191   1.215   0.561   1.068  1.8393  1.8334 -0.5029
   48SOL     MW  192   1.270   0.509   1.031  0.2108  0.4341  0.0116
   49SOL     OW  193   1.755   0.701   1.530  0.7779  0.0858  0.1130
   49SOL    HW1  194   1.802   0.644   1.594 -2.1275 -1.8663  1.8479
   49SOL    HW2  195   1.790   0.673   1.446  1.1021 -0.4036 -1.4066
   49SOL     MW  196   1.766   0.690   1.527  0.4374 -0.2364  0.1414
   50SOL     OW  197   1.281   1.240   0.606 -0.5999 -0.0661  0.6218
   50SOL    HW1  198   1.213   1.209   0.671 -0.3724  2.6616 -2.6493
   50SOL    HW2  199   1.348   1.168   0.606  0.4101 -1.1200 -1.5934
   50SOL     MW  200   1.281   1.226   0.614 -0.4366  0.1548 -0.1021
   51SOL     OW  201   0.326   2.907   0.861 -0.3558 -0.4763  0.0850
   51SOL    HW1  202   0.405   2.852   0.872  0.2929  0.3014  1.2153
   51SOL    HW2  203   0.289   2.908   0.950  1.3756  0.6452  0.7842
   51SOL     MW  204   0.332   2.900   0.874 -0.0418 -0.2257  0.3264
   52SOL     OW  205   0.801   1.850   0.456 -0.1114 -0.3290  0.0628
   52SOL    HW1  206   0.798   1.946   0.450  1.2450  0.8017  0.0248
   52SOL    HW2  207   0.821   1.816   0.366 -1.0643  1.8449 -1.6693
   52SOL     MW  208   0.803   1.859   0.443 -0.0582  0.1070 -0.1707
   53SOL     OW  209   0.472   2.155   0.631 -0.4495  0.0339  0.3765
   53SOL    HW1  210   0.415   2.118   0.561 -2.0348  0.2605  2.1299
   53SOL    HW2  211   0.478   2.248   0.615  2.1803 -1.3831 -1.7040
   53SOL     MW  212   0.465   2.163   0.620 -0.3117 -0.1232  0.3334
   54SOL     OW  213   2.041   0.981   0.682 -0.0951 -0.1515 -0.0455
   54SOL    HW1  214   2.103   0.964   0.612 -0.9573 -0.2408  0.3875
   54SOL    HW2  215   1.987   0.907   0.701  0.1188  0.3478 -1.2169
   54SOL     MW  216   2.042   0.969   0.675 -0.1806 -0.0974 -0.1430
   55SOL     OW  217   0.427   1.535   1.724 -0.0987 -0.0692  0.4490
   55SOL    HW1  218   0.383   1.582   1.648 -0.5780  0.4198 -0.4734
   55SOL    HW2  219   0.513   1.511   1.692  1.4643  1.5674  0.5311
   55SOL     MW  220   0.433   1.538   1.710  0.0443  0.2112  0.3381
   56SOL     OW  221   0.690   0.920   0.200  0.6569  0.4024 -0.0309
   56SOL    HW1  222   0.688   0.992   0.135 -1.6387 -0.2557  1.2478
   56SOL    HW2  223   0.602   0.883   0.183  2.5903 -0.1221  2.3638
   56SOL     MW  224   0.678   0.925   0.190  0.6091  0.2464  0.4538
   57SOL     OW  225   1.081   1.338   1.200 -0.2740 -0.1235  0.3324
   57SOL    HW1  226   1.174   1.364   1.218 -0.8126 -1.9968 -1.4296
   57SOL    HW2  227   1.065   1.279   1.276 -1.9763 -2.0001 -1.1452
   57SOL     MW  228   1.091   1.333   1.213 -0.5697 -0.6183 -0.0950
   58SOL     OW  229   0.427   1.234   1.301 -0.5187 -0.1949 -0.0043
   58SOL    HW1  230   0.417   1.334   1.306 -0.2200  0.2757  2.6617
   58SOL    HW2  231   0.437   1.216   1.392  2.7424  0.7698 -0.1862
   58SOL     MW  232   0.427   1.245   1.314 -0.0490 -0.0056  0.3235
   59SOL     OW  233   1.477   1.664   0.392  0.1617  0.2468  0.2205
   59SOL    HW1  234   1.532   1.724   0.432 -2.6994 -0.4289 -1.3307
   59SOL    HW2  235   1.391   1.673   0.441  2.6425 -1.8558 -0.5883
   59SOL     MW  236   1.473   1.673   0.404  0.1115 -0.1198 -0.0909
   60SOL     OW  237   3.047   0.150   1.609 -0.2487 -0.0591 -0.1527
   60SOL    HW1  238   2.962   0.196   1.624  1.4861 -0.3556 -1.4270
   60SOL    HW2  239   3.082   0.132   1.692 -1.4251  1.8988 -2.9480
   60SOL     MW  240   3.040   0.154   1.622 -0.1750  0.1601 -0.6897
   61SOL     OW  241   1.971   1.377   3.010 -0.0258  0.0329  0.6483
   61SOL    HW1  242   1.926   1.383   3.099  4.5206  1.2457  0.1504
   61SOL    HW2  243   2.016   1.295   3.016  0.6432 -1.1539 -1.1960
   61SOL     MW  244   1.971   1.367   3.023  0.6623  0.0364  0.3392
   62SOL     OW  245   0.540   1.804   0.540 -0.3137  0.2358 -0.5630
   62SOL    HW1  246   0.631   1.827   0.509  3.2715  0.0690  0.4804
   62SOL    HW2  247   0.534   1.710   0.542 -0.0047 -0.3228 -0.0624
   62SOL     MW  248   0.551   1.795   0.536  0.2001  0.1401 -0.3593
   63SOL     OW  249   1.705   0.670   0.510 -0.3356 -0.1308  0.1388
   63SOL    HW1  250   1.684   0.763   0.490  1.0924  0.8377  1.4191
   63SOL    HW2  251   1.637   0.658   0.578 -0.9066  0.6835  0.1520
   63SOL     MW  252   1.693   0.681   0.516 -0.2225  0.1044  0.3095
   64SOL     OW  253   0.190   1.699   0.626 -0.0442 -0.1449 -0.1172
   64SOL    HW1  254   0.258   1.741   0.674  0.8267  0.7702 -0.4395
   64SOL    HW2  255   0.118   1.747   0.669 -0.1500  2.8921  2.1083
   64SOL     MW  256   0.189   1.711   0.638  0.0568  0.3766  0.1339
   65SOL     OW  257   1.572   2.331   0.384  0.3195 -0.0248  0.5657
   65SOL    HW1  258   1.655   2.379   0.395 -1.2735 -0.0355  1.7504
   65SOL    HW2  259   1.510   2.385   0.434 -1.4978  1.5369  2.2655
   65SOL     MW  260   1.575   2.345   0.392 -0.1304  0.1799  0.9463
   66SOL     OW  261   0.404   0.578   0.522 -0.2393  0.1460 -0.1463
   66SOL    HW1  262   0.460   0.563   0.443  1.1568  2.6514  2.1882
   66SOL    HW2  263   0.375   0.671   0.522  0.6362  0.5526  0.4978
   66SOL     MW  264   0.408   0.588   0.512  0.0604  0.5302  0.2467
   67SOL     OW  265   1.349   0.094   1.961  0.3579  0.1277 -0.7540
   67SOL    HW1  266   1.381   0.089   1.872 -1.1312  1.7137 -2.4277
   67SOL    HW2  267   1.308   0.010   1.977 -1.6192  1.9207 -2.0174
   67SOL     MW  268   1.348   0.082   1.951 -0.0995  0.5735 -1.1415
   68SOL     OW  269   0.800   0.100   2.831 -0.1367  0.0804  0.1180
   68SOL    HW1  270   0.778   0.191   2.811  1.9559 -0.8764 -1.2770
   68SOL    HW2  271   0.887   0.096   2.869  1.0919 -0.4543  1.7889
   68SOL     MW  272   0.808   0.112   2.834  0.3015 -0.1164  0.1544
   69SOL     OW  273   1.088   0.264   1.968 -0.3058 -0.6124  0.3740
   69SOL    HW1  274   1.176   0.248   1.999  1.9599  1.7961 -1.5673
   69SOL    HW2  275   1.025   0.195   2.008  1.4339  0.9159 -0.2988
   69SOL     MW  276   1.091   0.253   1.977  0.2227 -0.0930  0.0291
   70SOL     OW  277   0.543   1.665   1.131  0.3111 -0.6115  0.2862
   70SOL    HW1  278   0.598   1.739   1.098  0.7075 -1.0927  0.4989
   70SOL    HW2  279   0.561   1.609   1.051  3.5291 -0.5748 -3.5116
   70SOL     MW  280   0.552   1.668   1.116  0.7880 -0.6702 -0.1868
   71SOL     OW  281   1.580   0.638   1.220 -0.5195  0.2516  0.0025
   71SOL    HW1  282   1.542   0.697   1.282 -1.8009  1.6772  1.7193
   71SOL    HW2  283   1.530   0.653   1.147  2.2250  2.6762  1.8138
   71SOL     MW  284   1.568   0.648   1.219 -0.3265  0.7596  0.4680
   72SOL     OW  285   0.789   1.831   1.090 -0.0880 -0.3941 -0.0894
   72SOL    HW1  286   0.799   1.892   1.019 -1.1837 -1.6237  0.1263
   72SOL    HW2  287   0.853   1.764   1.068 -2.3330 -2.1149 -0.2792
   72SOL     MW  288   0.799   1.830   1.077 -0.5288 -0.7833 -0.0860
   73SOL     OW  289   1.085   0.664   1.129  0.1372  0.4542  0.2206
   73SOL    HW1  290   0.992   0.649   1.147 -0.0360  1.5498 -0.0554
   73SOL    HW2  291   1.112   0.710   1.217  0.3488  2.6394  1.2102
   73SOL     MW  292   1.076   0.668   1.143  0.1423  0.8871  0.3148
   74SOL     OW  293   2.818   0.102   0.980 -0.1094  0.5168  0.0229
   74SOL    HW1  294   2.909   0.107   0.952 -0.8685  0.1597 -0.2843
   74SOL    HW2  295   2.774   0.170   0.929 -1.6730 -1.0428  0.0133
   74SOL     MW  296   2.824   0.111   0.970 -0.4158  0.2639 -0.0189
   75SOL     OW  297   1.457   1.314   0.185 -0.0545  0.0806  0.2875
   75SOL    HW1  298   1.518   1.286   0.117  1.3475  1.5410  3.1925
   75SOL    HW2  299   1.521   1.334   0.252 -0.8632  0.9143  1.0432
   75SOL     MW  300   1.473   1.313   0.185  0.0237  0.3833  0.7705
   76SOL     OW  301   3.025   0.681   0.461 -0.6569 -0.5405 -0.3518
   76SOL    HW1  302   3.048   0.737   0.540  0.6216  1.2733 -2.2263
   76SOL    HW2  303   3.086   0.608   0.455 -0.6180  0.0115  0.5977
   76SOL     MW  304   3.036   0.679   0.471 -0.4831 -0.2283 -0.4739
   77SOL     OW  305   0.851   0.591   0.444  0.1591 -0.2765  0.0745
   77SOL    HW1  306   0.858   0.633   0.358  1.2047 -2.1510  0.3461
   77SOL    HW2  307   0.878   0.497   0.423  1.6348 -0.2654 -0.7111
   77SOL     MW  308   0.856   0.584   0.430  0.4918 -0.5224  0.0066
   78SOL     OW  309   0.777   0.869   1.108 -0.8164 -0.0255  0.2161
   78SOL    HW1  310   0.775   0.958   1.071  0.3548  1.3153 -0.4539
   78SOL    HW2  311   0.685   0.848   1.132 -0.9330  1.2295 -1.4750
   78SOL     MW  312   0.765   0.878   1.106 -0.6773  0.3170 -0.0954
   79SOL     OW  313   1.921   1.495   0.578  0.5062 -0.0527  0.5071
   79SOL    HW1  314   1.832   1.515   0.604 -0.5493  0.1638  3.1075
   79SOL    HW2  315   1.949   1.427   0.644  1.8971  2.8904  0.8063
   79SOL     MW  316   1.913   1.488   0.590  0.5505  0.3642  0.8897
   80SOL     OW  317   0.224   0.995   0.296  0.2050  0.4405 -0.6192
   80SOL    HW1  318   0.168   0.942   0.238 -1.3602 -0.9928 -0.4952
   80SOL    HW2  319   0.263   0.932   0.364  0.9643  2.0468  0.5414
   80SOL     MW  320   0.222   0.980   0.297  0.0987  0.4633 -0.4497
   81SOL     OW  321   1.771   1.821   0.267 -0.8355 -0.3523 -0.1575
   81SOL    HW1  322   1.748   1.728   0.252 -0.6255  3.0442 -0.6567
   81SOL    HW2  323   1.717   1.871   0.208 -0.4890 -0.6073 -0.4431
   81SOL     MW  324   1.761   1.816   0.257 -0.7621  0.0622 -0.2611
   82SOL     OW  325   0.942   1.019   0.561 -0.4356 -0.1399 -0.4290
   82SOL    HW1  326   0.894   1.061   0.486 -0.4016  0.4741 -0.4060
   82SOL    HW2  327   0.893   0.937   0.576  0.1687 -0.2836 -1.1946
   82SOL     MW  328   0.929   1.014   0.553 -0.3514 -0.0779 -0.5270
   83SOL     OW  329   0.013   0.712   1.497  0.3187  0.3404 -0.7564
   83SOL    HW1  330   0.005   0.760   1.416 -1.6869  0.9787 -1.7397
   83SOL    HW2  331   0.089   0.654   1.476  1.0600  0.9190  0.1435
   83SOL     MW  332   0.022   0.711   1.484  0.1519  0.5010 -0.7674
   84SOL     OW  333   3.096   0.203   0.931  0.2215 -0.0495 -0.1138
   84SOL    HW1  334   3.102   0.301   0.960  0.7787 -0.2057  0.9368
   84SOL    HW2  335   3.109   0.147   1.009 -1.3295  0.2798  2.4686
   84SOL     MW  336   3.099   0.208   0.945  0.0904 -0.0266  0.3656
   85SOL     OW  337   0.368   0.457   0.776  0.3037 -0.0597 -0.3372
   85SOL    HW1  338   0.385   0.493   0.683 -2.8859  1.0814 -2.0351
   85SOL    HW2  339   0.320   0.370   0.773  1.7896 -1.8772  0.1518
   85SOL     MW  340   0.364   0.450   0.763  0.0789 -0.1490 -0.4967
   86SOL     OW  341   1.295   0.252   1.209 -0.1327 -0.9010  0.0214
   86SOL    HW1  342   1.261   0.335   1.175 -1.2000  0.8269 -0.8206
   86SOL    HW2  343   1.386   0.279   1.238 -0.1061  2.6169  1.2194
   86SOL     MW  344   1.302   0.267   1.208 -0.2700 -0.2089  0.0684
   87SOL     OW  345   0.964   1.588   1.190 -0.4979 -0.1263 -0.0759
   87SOL    HW1  346   1.039   1.644   1.156 -1.5897  1.7281  3.4436
   87SOL    HW2  347   0.993   1.499   1.202 -1.0526  0.2251  0.1582
   87SOL     MW  348   0.978   1.584   1.187 -0.7151  0.1647  0.4193
   88SOL     OW  349   1.172   1.124   1.010  0.4975 -0.3089  0.1131
   88SOL    HW1  350   1.258   1.117   0.975  0.4334 -1.1203 -0.9019
   88SOL    HW2  351   1.167   1.192   1.076  2.0969  0.3494  0.1340
   88SOL     MW  352   1.183   1.132   1.014  0.7001 -0.3291 -0.0181
   89SOL     OW  353   1.789   0.734   0.219  0.1970 -0.2320  0.0700
   89SOL    HW1  354   1.725   0.689   0.268  0.2629  0.3201  0.9987
   89SOL    HW2  355   1.871   0.728   0.278  1.3385 -1.4592 -0.5531
   89SOL     MW  356   1.792   0.728   0.233  0.3563 -0.3211  0.1103
   90SOL     OW  357   0.773   1.195   2.764 -0.9165 -0.3482  0.1805
   90SOL    HW1  358   0.790   1.107   2.791  0.4742  3.0336  1.5976
   90SOL    HW2  359   0.768   1.243   2.845 -3.1090 -2.1490  1.3604
   90SOL     MW  360   0.774   1.190   2.778 -1.0223 -0.1396  0.5231
   91SOL     OW  361   2.262   0.618   0.526 -0.7388  0.2991 -0.0394
   91SOL    HW1  362   2.320   0.682   0.482 -0.5354  0.8749  3.3187
   91SOL    HW2  363   2.279   0.536   0.480 -1.1522 -1.0521  0.8729
   91SOL     MW  364   2.272   0.616   0.514 -0.7665  0.1968  0.5241
   92SOL     OW  365   1.650   0.933   0.493  0.2028 -0.1001  0.1685
   92SOL    HW1  366   1.577   0.970   0.547  1.5099  1.4133  1.5569
   92SOL    HW2  367   1.634   0.966   0.403 -0.0909  0.7453 -2.2928
   92SOL     MW  368   1.638   0.942   0.488  0.3365  0.2111  0.0269
   93SOL     OW  369   1.104   0.217   0.396 -0.4666 -0.1445 -0.0598
   93SOL    HW1  370   1.017   0.263   0.405 -1.7816  1.6380 -4.7645
   93SOL    HW2  371   1.141   0.265   0.319 -1.5813 -1.7967 -2.0182
   93SOL     MW  372   1.097   0.229   0.387 -0.7872 -0.1273 -0.9389
   94SOL     OW  373   1.904   1.379   1.570 -0.1164  0.4795 -0.6855
   94SOL    HW1  374   1.887   1.366   1.474  0.5326 -2.6339 -1.0579
   94SOL    HW2  375   1.860   1.294   1.603  0.9585 -4.0791 -0.7301
   94SOL     MW  376   1.896   1.366   1.561  0.1110 -0.5328 -0.7406
   95SOL     OW  377   0.612   1.502   0.931  0.2079  0.0151  0.0821
   95SOL    HW1  378   0.684   1.446   0.953  1.3624 -0.2483  0.8578
   95SOL    HW2  379   0.540   1.445   0.889  0.0943 -0.7589 -0.6999
   95SOL     MW  380   0.612   1.487   0.928  0.3453 -0.1218  0.0813
   96SOL     OW  381   1.315   1.820   1.712 -0.3040  0.6170  0.7886
   96SOL    HW1  382   1.232   1.832   1.755 -1.3593 -2.5767  2.6038
   96SOL    HW2  383   1.315   1.736   1.667 -1.0348  0.9252 -2.2556
   96SOL     MW  384   1.304   1.811   1.712 -0.5397  0.2363  0.6264
   97SOL     OW  385   1.083   1.558   0.845 -0.3887 -0.3189  0.0023
   97SOL    HW1  386   1.115   1.605   0.922 -2.1283  0.2455 -1.7624
   97SOL    HW2  387   0.995   1.591   0.836  0.6301  0.3211  2.1523
   97SOL     MW  388   1.075   1.569   0.854 -0.4838 -0.1600  0.0531
   98SOL     OW  389   1.366   1.403   1.213  0.3864  0.3513  0.4093
   98SOL    HW1  390   1.435   1.424   1.271 -1.0149 -0.2809 -1.6641
   98SOL    HW2  391   1.395   1.399   1.122  1.5239  0.2299  0.0602
   98SOL     MW  392   1.379   1.405   1.209  0.3516  0.2519  0.0896
   99SOL     OW  393   1.542   0.339   1.296  0.4682  0.2810 -0.5412
   99SOL    HW1  394   1.560   0.432   1.277 -0.3498 -1.0511  1.7509
   99SOL    HW2  395   1.503   0.344   1.389 -0.7708 -3.4799 -0.0870
   99SOL     MW  396   1.539   0.352   1.306  0.1968 -0.3909 -0.1789
  100SOL     OW  397   1.077   1.156   1.404 -0.2513  0.1968 -0.0042
  100SOL    HW1  398   1.055   1.192   1.490  0.5034 -3.1907 -0.0756
  100SOL    HW2  399   1.131   1.073   1.416 -0.4771 -0.8994 -2.2523
  100SOL     MW  400   1.081   1.150   1.417 -0.1815 -0.3948 -0.3102
  101SOL     OW  401   0.553   1.248   0.472  0.6558 -0.1352  0.1091
  101SOL    HW1  402   0.509   1.224   0.391 -1.2075  2.5327 -1.9646
  101SOL    HW2  403   0.628   1.190   0.460  1.2865 -1.5304  0.0159
  101SOL     MW  404   0.557   1.237   0.460  0.4932  0.0327 -0.1768
  102SOL     OW  405   2.893   0.595   1.055  0.4321  0.5071 -0.7954
  102SOL    HW1  406   2.911   0.692   1.060  1.2390 -3.4885 -0.1050
  102SOL    HW2  407   2.867   0.587   1.151 -0.3485  1.1797  1.9309
  102SOL     MW  408   2.892   0.607   1.069  0.4356  0.0686 -0.3446
  103SOL     OW  409   1.896   0.261   1.778 -0.3634  0.1669  0.5687
  103SOL    HW1  410   1.888   0.172   1.745  0.7843  2.7459 -2.1492
  103SOL    HW2  411   1.867   0.263   1.871  2.0738 -2.7672 -0.5056
  103SOL     MW  412   1.891   0.249   1.786  0.1096  0.1201  0.0683
  104SOL     OW  413   0.048   1.543   1.671  0.0361  0.0006 -0.0596
  104SOL    HW1  414   0.103   1.486   1.722  2.3475  1.7807 -0.2663
  104SOL    HW2  415  -0.039   1.506   1.686  1.0460  1.9435 -0.5009
  104SOL     MW  416   0.044   1.530   1.680  0.4743  0.4918 -0.1451
  105SOL     OW  417   0.130   1.206   0.407  0.5308 -0.1275  0.2792
  105SOL    HW1  418   0.158   1.120   0.367 -1.5202 -2.2398  1.7503
  105SOL    HW2  419   0.205   1.262   0.403  1.0453 -1.2373 -1.0335
  105SOL     MW  420   0.143   1.202   0.401  0.3281 -0.5527  0.3001
  106SOL     OW  421   0.862   0.233   0.862 -0.1199 -0.1156  0.3710
  106SOL    HW1  422   0.834   0.321   0.830  0.8543  0.5248 -1.8313
  106SOL    HW2  423   0.942   0.239   0.912  1.5717  1.4659 -1.1747
  106SOL     MW  424   0.869   0.245   0.865  0.2318  0.1775 -0.1235
  107SOL     OW  425   0.796   2.178   2.877  0.5138 -0.4908  0.1129
  107SOL    HW1  426   0.696   2.184   2.894 -0.9836  2.6881 -0.8772
  107SOL    HW2  427   0.825   2.130   2.956 -0.8887 -4.9651  1.2202
  107SOL     MW  428   0.786   2.173   2.890  0.1312 -0.6617  0.1283
  108SOL     OW  429   1.321   1.549   1.642  0.3524 -0.6850 -0.1237
  108SOL    HW1  430   1.266   1.518   1.566 -2.3370  0.1338  4.8658
  108SOL    HW2  431   1.414   1.542   1.623 -0.7946 -0.4098  3.1196
  108SOL     MW  432   1.326   1.544   1.629 -0.1538 -0.5407  0.9625
  109SOL     OW  433   2.016   0.753   0.383 -0.0767  0.0742 -0.0320
  109SOL    HW1  434   1.998   0.845   0.377 -1.0388 -0.3769 -2.4724
  109SOL    HW2  435   2.075   0.747   0.454 -2.3159 -0.3366 -0.3585
  109SOL     MW  436   2.021   0.764   0.392 -0.4990 -0.0395 -0.3971
  110SOL     OW  437   0.394   1.896   0.758 -0.1540  0.3288 -0.9618
  110SOL    HW1  438   0.445   1.853   0.688  0.3005  1.6561 -0.3605
  110SOL    HW2  439   0.428   1.984   0.754  0.9629 -2.6228  0.2275
  110SOL     MW  440   0.405   1.902   0.748  0.0533  0.1145 -0.7255
  111SOL     OW  441   0.855   0.861   1.366 -0.3419 -0.5079  0.2274
  111SOL    HW1  442   0.832   0.851   1.268  2.1714 -1.6374 -2.1389
  111SOL    HW2  443   0.806   0.795   1.412  1.5441 -3.8155 -0.2534
  111SOL     MW  444   0.846   0.851   1.359  0.2386 -1.0933 -0.1482
  112SOL     OW  445   1.321   1.159   1.654 -0.7081  0.0572  0.0944
  112SOL    HW1  446   1.241   1.208   1.651 -1.5444  1.6447 -0.2556
  112SOL    HW2  447   1.300   1.062   1.659  0.7313 -1.8451  0.0606
  112SOL     MW  448   1.307   1.152   1.654 -0.6286  0.0156  0.0438
  113SOL     OW  449   1.240   2.993   1.712  0.7750  0.0819  0.0216
  113SOL    HW1  450   1.211   2.954   1.796 -1.8727 -1.7528 -0.0707
  113SOL    HW2  451   1.199   2.933   1.646 -2.3151  1.1831 -0.8622
  113SOL     MW  452   1.231   2.980   1.714  0.0180 -0.0149 -0.1072
  114SOL     OW  453   0.335   2.900   1.855  0.0209 -0.2443  0.0485
  114SOL    HW1  454   0.423   2.936   1.860  0.1499 -2.1984  0.2527
  114SOL    HW2  455   0.295   2.899   1.949 -3.2826 -3.9251 -2.6270
  114SOL     MW  456   0.341   2.905   1.868 -0.3980 -0.9878 -0.2776
  115SOL     OW  457   0.498   0.866   1.178 -0.3573 -0.0887 -0.0413
  115SOL    HW1  458   0.507   0.773   1.157 -0.9971  1.1488 -1.7497
  115SOL    HW2  459   0.416   0.876   1.234  0.2360  0.1700  0.2160
  115SOL     MW  460   0.489   0.855   1.182 -0.3635  0.1087 -0.2327
  116SOL     OW  461   0.715   1.104   0.984  0.3681 -0.6825  0.0845
  116SOL    HW1  462   0.754   1.148   0.906 -0.7590  0.8458 -0.5752
  116SOL    HW2  463   0.710   1.174   1.047 -0.7618  1.8506 -1.2290
  116SOL     MW  464   0.719   1.119   0.982  0.0703 -0.1467 -0.1758
  117SOL     OW  465   1.086   1.256   0.806  0.4077  0.2545  0.1521
  117SOL    HW1  466   1.116   1.210   0.882 -0.6036 -0.9405  1.2780
  117SOL    HW2  467   1.100   1.346   0.829  0.6518 -1.6578  1.3039
  117SOL     MW  468   1.091   1.262   0.819  0.3065 -0.1555  0.4526
  118SOL     OW  469   3.090   2.938   1.850 -0.5099 -0.5083  0.2441
  118SOL    HW1  470   3.134   3.016   1.845  0.1943 -1.8809  2.3802
  118SOL    HW2  471   3.010   2.946   1.796 -1.7702 -0.8475 -1.2646
  118SOL     MW  472   3.085   2.949   1.842 -0.5832 -0.7342  0.3269
  119SOL     OW  473   0.369   1.516   1.294 -0.1039  0.0384 -0.7300
  119SOL    HW1  474   0.421   1.574   1.235  0.3505  1.6839 -0.9107
  119SOL    HW2  475   0.287   1.495   1.245 -0.8980 -0.8328  0.0437
  119SOL     MW  476   0.365   1.521   1.280 -0.1487  0.1406 -0.6517
  120SOL     OW  477   0.295   0.876   0.953 -0.0250 -0.1110 -0.1401
  120SOL    HW1  478   0.330   0.835   1.034  0.5169 -1.0614 -0.6051
  120SOL    HW2  479   0.384   0.888   0.916 -0.1504 -0.5273 -1.9236
  120SOL     MW  480   0.311   0.872   0.959  0.0300 -0.2913 -0.4368
  121SOL     OW  481   1.765   1.142   1.619 -0.1134  0.6404  0.1324
  121SOL    HW1  482   1.692   1.148   1.557 -2.2854 -2.1241  1.5227
  121SOL    HW2  483   1.820   1.067   1.587 -1.1393 -0.0106  0.6839
  121SOL     MW  484   1.763   1.133   1.607 -0.5353  0.1897  0.3886
  122SOL     OW  485   0.156   0.626   0.830  0.6730  0.1049 -0.7226
  122SOL    HW1  486   0.237   0.568   0.804 -2.2288 -3.3067 -0.6636
  122SOL    HW2  487   0.190   0.705   0.871  0.9634 -1.6302 -0.1687
  122SOL     MW  488   0.171   0.629   0.832  0.3285 -0.5742 -0.6418
  123SOL     OW  489   1.839   1.130   0.564 -0.7582 -0.2148 -0.0304
  123SOL    HW1  490   1.768   1.068   0.575 -1.1666  1.1981 -0.3655
  123SOL    HW2  491   1.914   1.092   0.616  1.6090 -0.0196 -1.8561
  123SOL     MW  492   1.840   1.117   0.572 -0.4997 -0.0026 -0.3155
  124SOL     OW  493   0.675   0.481   0.808  0.1800 -0.0215 -0.0387
  124SOL    HW1  494   0.585   0.468   0.797  1.1207  0.7048  1.7157
  124SOL    HW2  495   0.696   0.569   0.779 -1.1928  2.2995  0.7739
  124SOL     MW  496   0.666   0.491   0.803  0.1230  0.3805  0.3000
  125SOL     OW  497   0.650   1.776   1.726  0.4688 -0.3639  0.4777
  125SOL    HW1  498   0.667   1.745   1.637 -0.9452  0.0242  2.3756
  125SOL    HW2  499   0.608   1.868   1.712  1.6610  1.8977  2.3811
  125SOL     MW  500   0.647   1.784   1.713  0.4396 -0.0143  0.9792
  126SOL     OW  501   2.111   1.544   1.862 -0.7184  0.3774 -0.1201
  126SOL    HW1  502   2.167   1.618   1.891  0.8759  0.3096  0.0663
  126SOL    HW2  503   2.155   1.467   1.903  0.6947  0.5580 -0.9543
  126SOL     MW  504   2.124   1.543   1.871 -0.3216  0.3923 -0.2056
  127SOL     OW  505   0.540   0.789   1.840 -0.0529  0.4133  0.0326
  127SOL    HW1  506   0.626   0.750   1.823  3.6105  0.2965 -0.5316
  127SOL    HW2  507   0.547   0.828   1.931 -1.0527  0.5187  2.4421
  127SOL     MW  508   0.552   0.789   1.850  0.2985  0.4118  0.2760
  128SOL     OW  509   1.738   0.736   2.860  0.4085 -0.1701 -0.0412
  128SOL    HW1  510   1.787   0.701   2.784 -0.1969 -0.6765  0.4988
  128SOL    HW2  511   1.766   0.827   2.876  1.3950 -0.3955  0.9610
  128SOL     MW  512   1.748   0.743   2.852  0.4588 -0.2667  0.1623
  129SOL     OW  513   1.628   0.953   0.161  0.0763 -0.0030  0.2934
  129SOL    HW1  514   1.571   0.880   0.144 -0.3391  1.8316  0.7936
  129SOL    HW2  515   1.709   0.908   0.167 -1.0710 -1.1463  1.3389
  129SOL     MW  516   1.631   0.938   0.160 -0.1299  0.0882  0.4973
  130SOL     OW  517   0.867   1.463   0.367  0.2257 -0.0566  0.4351
  130SOL    HW1  518   0.860   1.456   0.464  1.3697  2.1380  3.1922
  130SOL    HW2  519   0.960   1.461   0.348  2.7156 -1.4963  2.6663
  130SOL     MW  520   0.878   1.462   0.378  0.7052  0.0430  1.0932
  131SOL     OW  521   0.061   0.840   0.050 -0.2561 -0.0014 -0.1523
  131SOL    HW1  522   0.017   0.866  -0.030  1.3995  0.7835  1.5893
  131SOL    HW2  523   0.103   0.750   0.039 -1.4988  1.0014  0.0479
  131SOL     MW  524   0.061   0.832   0.038 -0.2016  0.2344  0.1039
  132SOL     OW  525   2.698   0.063   1.240 -0.7400  0.2221 -0.4355
  132SOL    HW1  526   2.752   0.075   1.162  1.8560 -0.4650  1.8693
  132SOL    HW2  527   2.611   0.027   1.214  0.5405  1.5291  1.5496
  132SOL     MW  528   2.693   0.060   1.226 -0.2285  0.3038  0.1305
  133SOL     OW  529   1.080   0.129   1.715 -0.0625  0.5995  0.0584
  133SOL    HW1  530   1.149   0.066   1.736  1.3686 -0.4465 -1.0607
  133SOL    HW2  531   1.074   0.176   1.799 -2.0901 -1.3550 -1.2613
  133SOL     MW  532   1.089   0.127   1.729 -0.1412  0.2036 -0.2633
  134SOL     OW  533   1.410   2.472   1.475  0.0431  0.1074  0.1091
  134SOL    HW1  534   1.335   2.536   1.458 -1.4864  0.9554  1.9388
  134SOL    HW2  535   1.442   2.506   1.568  1.3212  0.7027  2.3351
  134SOL     MW  536   1.405   2.485   1.485  0.0099  0.2978  0.6442
  135SOL     OW  537   2.983   1.011   2.929  0.4204  0.1346 -0.2106
  135SOL    HW1  538   3.037   1.075   2.967 -2.7471  0.5903 -0.4501
  135SOL    HW2  539   2.897   1.053   2.904 -1.3931 -0.7207 -0.4631
  135SOL     MW  540   2.979   1.025   2.930 -0.2368  0.0819 -0.2755
  136SOL     OW  541   0.136   1.995   0.844  0.0162 -0.1086 -0.1172
  136SOL    HW1  542   0.066   1.933   0.839  2.0957 -1.8175 -2.6871
  136SOL    HW2  543   0.216   1.960   0.806 -1.1001  0.2846  0.5551
  136SOL     MW  544   0.137   1.982   0.838  0.1432 -0.2822 -0.3676
  137SOL     OW  545   0.740   2.097   0.625 -0.0647  0.3870  0.0980
  137SOL    HW1  546   0.764   2.093   0.716  0.4526 -0.2322 -0.0608
  137SOL    HW2  547   0.643   2.116   0.619  0.0474  0.2380  1.0689
  137SOL     MW  548   0.731   2.099   0.636  0.0183  0.2857  0.2052
  138SOL     OW  549   0.526   0.631   1.051  0.0760 -0.3936 -0.5706
  138SOL    HW1  550   0.463   0.567   1.024  2.1561 -0.4243 -0.9450
  138SOL    HW2  551   0.590   0.625   0.979 -2.3160 -0.1401  2.1000
  138SOL     MW  552   0.526   0.621   1.038  0.0348 -0.3642 -0.2676
  139SOL     OW  553   2.831   0.478   1.319 -0.5108  0.0887  0.2002
  139SOL    HW1  554   2.930   0.465   1.310 -1.4875  0.2125 -2.2134
  139SOL    HW2  555   2.820   0.547   1.387 -1.5418 -2.1988  0.1283
  139SOL     MW  556   2.842   0.485   1.326 -0.7757 -0.1968 -0.1278
  140SOL     OW  557   0.894   0.493   1.951 -0.4721  0.2380  0.1913
  140SOL    HW1  558   0.962   0.426   1.944 -0.2553 -1.6362  1.6507
  140SOL    HW2  559   0.857   0.472   2.034  1.2606  2.1437 -1.7380
  140SOL     MW  560   0.898   0.482   1.961 -0.2149  0.2422  0.1293
  141SOL     OW  561   1.136   0.684   1.712 -0.1866 -0.0057 -0.1524
  141SOL    HW1  562   1.116   0.609   1.647  0.7234  0.7707  0.6919
  141SOL    HW2  563   1.169   0.646   1.788  0.2887 -0.2658 -1.2903
  141SOL     MW  564   1.138   0.669   1.714 -0.0038  0.0625 -0.1911
  142SOL     OW  565   0.817   1.188   0.731 -0.2653  0.6561 -0.7762
  142SOL    HW1  566   0.841   1.115   0.678  0.0068 -0.2178  0.3372
  142SOL    HW2  567   0.902   1.213   0.776  1.0796  0.3315  1.3675
  142SOL     MW  568   0.831   1.181   0.730 -0.0520  0.4980 -0.3465
  143SOL     OW  569   1.816   0.796   1.029 -0.2553  1.2639 -0.1722
  143SOL    HW1  570   1.873   0.785   0.950 -0.3650  0.1240  1.2515
  143SOL    HW2  571   1.728   0.808   1.000  0.1678  0.2765 -3.2855
  143SOL     MW  572   1.812   0.796   1.015 -0.2140  0.9832 -0.3951
  144SOL     OW  573   0.238   1.345   1.755  0.3602 -0.2942 -0.0323
  144SOL    HW1  574   0.310   1.401   1.736 -2.4819  1.0470 -1.1596
  144SOL    HW2  575   0.273   1.297   1.830 -3.5668  2.6367  0.7175
  144SOL     MW  576   0.252   1.346   1.763 -0.5329  0.2695 -0.0821
  145SOL     OW  577   0.220   0.488   1.187  0.3046 -0.0118  0.1680
  145SOL    HW1  578   0.252   0.401   1.210 -1.4380  1.0004 -2.0819
  145SOL    HW2  579   0.163   0.481   1.106 -0.7574 -1.3385  0.8128
  145SOL     MW  580   0.217   0.476   1.179 -0.0655 -0.0533 -0.0438
  146SOL     OW  581   0.806   1.982   1.555 -0.2494 -0.6346  0.2604
  146SOL    HW1  582   0.857   1.998   1.471  0.3934  0.9196  2.4078
  146SOL    HW2  583   0.740   1.921   1.525  1.2293 -2.2294 -1.3825
  146SOL     MW  584   0.804   1.976   1.540  0.0305 -0.6399  0.3270
  147SOL     OW  585   0.391   0.517   3.013 -0.2706 -0.0864  0.1069
  147SOL    HW1  586   0.313   0.520   3.078 -1.7670  1.4417 -0.1934
  147SOL    HW2  587   0.361   0.588   2.952 -0.0023 -0.1598 -1.8328
  147SOL     MW  588   0.377   0.527   3.013 -0.4327  0.1055 -0.1886
  148SOL     OW  589   0.036   0.906   1.276 -0.0654  0.2789 -0.3865
  148SOL    HW1  590   0.131   0.894   1.291  2.6302  1.2293 -0.2679
  148SOL    HW2  591   0.022   1.003   1.270  1.1623 -0.8812 -0.6088
  148SOL     MW  592   0.046   0.917   1.278  0.4523  0.2513 -0.4002
  149SOL     OW  593   1.515   1.199   1.459  0.7104 -0.4873 -0.4918
  149SOL    HW1  594   1.452   1.179   1.531 -1.9490 -1.8332  2.1782
  149SOL    HW2  595   1.511   1.295   1.448  1.2997  0.8860  0.1437
  149SOL     MW  596   1.506   1.209   1.467  0.4372 -0.4837 -0.0557
  150SOL     OW  597   1.716   1.435   0.888  0.4294 -0.2663  0.0078
  150SOL    HW1  598   1.764   1.350   0.889  0.1321 -1.3846 -1.3860
  150SOL    HW2  599   1.782   1.509   0.892  1.1694  0.1848 -1.3681
  150SOL     MW  600   1.731   1.434   0.889  0.4878 -0.3544 -0.3576
  151SOL     OW  601   1.610   1.832   0.803 -0.2493  0.1740 -0.2296
  151SOL    HW1  602   1.589   1.808   0.711  2.7465 -2.8996  1.1880
  151SOL    HW2  603   1.535   1.821   0.857  2.8073  0.9300 -0.6734
  151SOL     MW  604   1.597   1.827   0.798  0.5493 -0.1318 -0.1011
  152SOL     OW  605   0.639   1.386   1.629 -0.2870 -0.9537  0.1456
  152SOL    HW1  606   0.679   1.415   1.548  2.5797  1.2320 -0.0235
  152SOL    HW2  607   0.580   1.320   1.600 -0.4507 -1.1129  1.9548
  152SOL     MW  608   0.636   1.381   1.614  0.0696 -0.6863  0.3620
  153SOL     OW  609   2.625   1.236   0.721 -0.1158 -0.1814 -0.2156
  153SOL    HW1  610   2.699   1.191   0.676 -0.0894  0.5215 -0.9749
  153SOL    HW2  611   2.570   1.162   0.728  3.3360  1.7963 -1.9822
  153SOL     MW  612   2.628   1.220   0.716  0.3431  0.1723 -0.5489
  154SOL     OW  613   0.129   1.794   1.776  0.6743  0.5332  0.1262
  154SOL    HW1  614   0.081   1.710   1.735  1.3376 -3.3434 -1.0695
  154SOL    HW2  615   0.220   1.777   1.808 -0.1923  0.5482  1.8213
  154SOL     MW  616   0.134   1.780   1.775  0.6475  0.0237  0.1921
  155SOL     OW  617   1.172   0.702   0.282 -0.3213  0.0271  0.3173
  155SOL    HW1  618   1.181   0.667   0.365  1.9171  2.2358 -1.7220
  155SOL    HW2  619   1.134   0.794   0.297 -1.3790  2.2231 -1.2829
  155SOL     MW  620   1.168   0.709   0.295 -0.1655  0.6083 -0.1629
  156SOL     OW  621   1.559   3.094   1.114  0.4267 -0.1836 -0.0185
  156SOL    HW1  622   1.601   3.143   1.188  0.2989  1.5294  4.9424
  156SOL    HW2  623   1.595   3.006   1.130 -1.0723  1.2788 -0.0387
  156SOL     MW  624   1.569   3.089   1.126  0.2121  0.2354  0.6334
  157SOL     OW  625   1.284   1.111   0.161  0.1560 -0.3701  0.1731
  157SOL    HW1  626   1.231   1.068   0.227 -0.3126 -3.5425 -0.5758
  157SOL    HW2  627   1.357   1.164   0.190  0.7599  0.4833 -0.4557
  157SOL     MW  628   1.287   1.112   0.173  0.1739 -0.6761 -0.0086
  158SOL     OW  629   0.307   1.630   2.361 -0.6132  0.0594  0.0819
  158SOL    HW1  630   0.302   1.632   2.267  2.3546  1.5447  2.0691
  158SOL    HW2  631   0.231   1.657   2.408 -2.5354 -1.5951 -1.5031
  158SOL     MW  632   0.296   1.633   2.355 -0.4752  0.0371  0.1350
  159SOL     OW  633   1.236   1.723   0.483  0.0973  0.2979  0.3487
  159SOL    HW1  634   1.185   1.659   0.428  1.5737 -0.8773 -1.0811
  159SOL    HW2  635   1.170   1.751   0.552 -2.4616  0.6867  0.7337
  159SOL     MW  636   1.220   1.718   0.485 -0.0455  0.1942  0.2108
  160SOL     OW  637   0.484   1.174   1.567  0.3253  0.2385 -0.0715
  160SOL    HW1  638   0.445   1.097   1.612  0.5937  2.5924  0.4713
  160SOL    HW2  639   0.565   1.136   1.523  3.4642  1.3081 -3.7628
  160SOL     MW  640   0.490   1.159   1.567  0.7749  0.6902 -0.4869
  161SOL     OW  641   0.492   2.279   2.672  0.2729 -0.0802  0.5924
  161SOL    HW1  642   0.400   2.300   2.642  1.9098  2.6941  2.6812
  161SOL    HW2  643   0.524   2.205   2.619  2.0697 -1.5773 -1.6252
  161SOL     MW  644   0.484   2.272   2.661  0.7259  0.0883  0.5754
  162SOL     OW  645   1.069   1.811   1.873 -0.1020 -0.2881  0.1306
  162SOL    HW1  646   1.106   1.899   1.863 -0.6205  0.7964  2.8516
  162SOL    HW2  647   0.979   1.808   1.915 -0.5111  1.1197  2.1325
  162SOL     MW  648   1.062   1.822   1.877 -0.2244  0.0407  0.7537
  163SOL     OW  649   2.072   3.052   0.801 -0.6585  0.3915  0.5993
  163SOL    HW1  650   2.048   3.134   0.752  0.2421 -1.3772 -2.2689
  163SOL    HW2  651   1.985   3.010   0.813  1.0630  1.2132 -1.7207
  163SOL     MW  652   2.057   3.057   0.796 -0.3125  0.2665 -0.0852
  164SOL     OW  653   0.237   0.226   0.789  0.6402  0.6366  0.5764
  164SOL    HW1  654   0.144   0.204   0.819  1.2346  1.0663  0.1301
  164SOL    HW2  655   0.264   0.144   0.747  1.4059  0.4644 -1.7963
  164SOL     MW  656   0.228   0.212   0.787  0.8197  0.6706  0.2044
  165SOL     OW  657   1.125   1.272   0.351 -0.6691 -0.3810 -1.4935
  165SOL    HW1  658   1.183   1.244   0.421 -0.2801 -2.1197  0.0002
  165SOL    HW2  659   1.152   1.252   0.267 -0.8894  1.5644  0.7643
  165SOL     MW  660   1.136   1.265   0.349 -0.6468 -0.3537 -0.9985
  166SOL     OW  661   0.326   1.184   1.045  0.0788 -0.4515 -0.3184
  166SOL    HW1  662   0.363   1.181   1.137  1.0043  0.1013  0.2011
  166SOL    HW2  663   0.297   1.096   1.032 -2.0097  2.3310  1.6690
  166SOL     MW  664   0.327   1.172   1.056 -0.0747 -0.0115  0.0124
  167SOL     OW  665   0.785   1.168   0.373  0.1158  0.6835 -0.4352
  167SOL    HW1  666   0.789   1.257   0.351 -0.0142  2.8646 -0.0818
  167SOL    HW2  667   0.820   1.120   0.297  0.6313 -1.8120  0.9039
  167SOL     MW  668   0.790   1.173   0.360  0.1667  0.6420 -0.2119
  168SOL     OW  669   1.694   1.659   3.062  0.4462 -0.0116 -0.0936
  168SOL    HW1  670   1.620   1.714   3.031  1.3176  0.7237  0.4254
  168SOL    HW2  671   1.684   1.578   3.011 -0.3006 -1.2552  0.9897
  168SOL     MW  672   1.683   1.656   3.051  0.4626 -0.0786  0.1178
  169SOL     OW  673   0.301   0.868   1.348 -0.1865 -0.6392  0.4148
  169SOL    HW1  674   0.304   0.799   1.421 -1.8739  2.0056  1.1267
  169SOL    HW2  675   0.290   0.953   1.393 -1.1359 -3.0740  1.9990
  169SOL     MW  676   0.300   0.870   1.364 -0.5344 -0.6115  0.7177
  170SOL     OW  677   1.068   1.562   1.461 -0.4965  0.4097  0.3299
  170SOL    HW1  678   1.024   1.630   1.512 -0.0341 -0.5524 -1.0642
  170SOL    HW2  679   1.059   1.604   1.377 -2.2001  0.5196  4.6551
  170SOL     MW  680   1.061   1.576   1.457 -0.6603  0.2972  0.7166
  171SOL     OW  681   0.471   1.536   0.508 -0.6257  0.0694  0.3480
  171SOL    HW1  682   0.379   1.511   0.478 -2.0293  0.6875  2.3972
  171SOL    HW2  683   0.476   1.463   0.565  1.2896  4.3209  2.1318
  171SOL     MW  684   0.459   1.523   0.512 -0.5582  0.7119  0.8537
  172SOL     OW  685   0.791   0.278   1.302  0.2035  0.0998 -0.6351
  172SOL    HW1  686   0.807   0.210   1.236 -0.5431  1.2316  0.2037
  172SOL    HW2  687   0.831   0.252   1.385  0.4171  2.9144  3.0704
  172SOL     MW  688   0.798   0.266   1.304  0.1332  0.6205 -0.0355
  173SOL     OW  689   0.477   1.755   0.269 -0.3050  0.6246 -0.2467
  173SOL    HW1  690   0.535   1.680   0.270 -1.9770  1.5076 -0.4563
  173SOL    HW2  691   0.478   1.783   0.362  1.7482 -0.0889  0.0130
  173SOL     MW  692   0.484   1.749   0.281 -0.2547  0.6469 -0.2401
  174SOL     OW  693   1.921   0.943   1.471 -0.3982  0.3179 -0.0402
  174SOL    HW1  694   1.870   0.871   1.515 -0.4260 -2.5399  2.2438
  174SOL    HW2  695   1.865   0.951   1.389 -1.8350  0.4422 -0.9384
  174SOL     MW  696   1.907   0.935   1.466 -0.5914 -0.0427  0.1426
  175SOL     OW  697   0.602   1.508   0.248 -0.0142 -0.1232 -0.2972
  175SOL    HW1  698   0.552   1.478   0.326  0.8091  0.8177 -1.2954
  175SOL    HW2  699   0.687   1.472   0.274 -0.6192  2.1712 -1.4553
  175SOL     MW  700   0.607   1.499   0.262  0.0146  0.3036 -0.5817
  176SOL     OW  701   0.134   1.515   1.187  0.4220 -0.3024 -0.2371
  176SOL    HW1  702   0.141   1.458   1.110  0.7077  0.5232  0.9334
  176SOL    HW2  703   0.052   1.489   1.234  1.4594 -0.8853 -1.3752
  176SOL     MW  704   0.124   1.504   1.183  0.5965 -0.2704 -0.2328
  177SOL     OW  705   0.557   0.266   1.456 -0.2165 -0.5144  0.0693
  177SOL    HW1  706   0.621   0.287   1.389 -0.0524 -2.2669  1.0047
  177SOL    HW2  707   0.529   0.347   1.496 -1.9696 -0.7981 -1.2380
  177SOL     MW  708   0.562   0.279   1.453 -0.4261 -0.7831  0.0203
  178SOL     OW  709  -0.001   0.665   2.901  0.5056  0.6882 -0.3280
  178SOL    HW1  710  -0.009   0.624   2.810  0.5312 -0.3617  1.6952
  178SOL    HW2  711   0.073   0.736   2.888  0.7750  1.0024 -0.0016
  178SOL     MW  712   0.008   0.669   2.887  0.5445  0.5911 -0.0180
  179SOL     OW  713   1.593   1.469   1.396 -0.3580  0.0936  0.0395
  179SOL    HW1  714   1.601   1.513   1.478  1.8458 -1.1920  0.1237
  179SOL    HW2  715   1.681   1.439   1.374 -0.4064 -0.9276  3.8919
  179SOL     MW  716   1.605   1.471   1.404 -0.0736 -0.2107  0.5589
  180SOL     OW  717   0.025   0.221   0.414 -0.4790 -0.0383 -0.3777
  180SOL    HW1  718  -0.060   0.247   0.380 -0.3644 -0.9439 -3.0477
  180SOL    HW2  719   0.061   0.291   0.470 -0.7798 -3.2126  0.0620
  180SOL     MW  720   0.019   0.234   0.417 -0.5036 -0.5766 -0.6720
  181SOL     OW  721   1.049   1.324   0.014 -0.2030  0.3402 -0.2339
  181SOL    HW1  722   1.086   1.410   0.008  0.0582 -1.9679 -1.0403
  181SOL    HW2  723   1.122   1.256  -0.001  2.3115 -0.5177 -2.5921
  181SOL     MW  724   1.064   1.326   0.011  0.1632 -0.0776 -0.6514
  182SOL     OW  725   0.366   0.948   1.691  0.5259  0.2911  1.0647
  182SOL    HW1  726   0.276   0.958   1.724 -0.6988  1.0217 -0.4734
  182SOL    HW2  727   0.420   0.887   1.748  0.4288  0.7362 -0.4140
  182SOL     MW  728   0.361   0.941   1.703  0.3515  0.4462  0.6667
  183SOL     OW  729   1.517   1.738   1.243 -0.0601  0.0043 -0.0836
  183SOL    HW1  730   1.600   1.782   1.257  1.0063 -1.1770  1.9634
  183SOL    HW2  731   1.530   1.657   1.280  0.3003 -0.4977 -1.9241
  183SOL     MW  732   1.530   1.733   1.250  0.1282 -0.2178 -0.0564
  184SOL     OW  733   0.862   0.639   1.705  0.1830  0.1253  0.5191
  184SOL    HW1  734   0.953   0.662   1.711 -0.5846 -3.9451  2.1046
  184SOL    HW2  735   0.852   0.593   1.786 -0.1194 -0.0960 -0.5209
  184SOL     MW  736   0.872   0.636   1.716  0.0419 -0.4410  0.5911
  185SOL     OW  737   1.085   0.951   1.842 -0.0246 -0.0107 -0.7730
  185SOL    HW1  738   1.063   0.862   1.852  2.0636 -0.2225  1.3873
  185SOL    HW2  739   1.117   0.975   1.934 -1.5170  0.5323  2.5111
  185SOL     MW  740   1.086   0.943   1.856  0.0540  0.0330 -0.0546
  186SOL     OW  741   0.293   1.643   1.519 -0.5643 -0.1236  0.4062
  186SOL    HW1  742   0.307   1.589   1.443 -1.6189  1.9728  1.2778
  186SOL    HW2  743   0.201   1.628   1.540 -1.5297 -0.7712 -1.2868
  186SOL     MW  744   0.283   1.634   1.511 -0.8309  0.0676  0.2978
  187SOL     OW  745   1.414   0.862   1.352  0.2942  0.0093 -0.4802
  187SOL    HW1  746   1.420   0.898   1.441 -0.5020  2.1456  0.4569
  187SOL    HW2  747   1.324   0.849   1.334  2.5950 -0.0440 -1.2408
  187SOL     MW  748   1.403   0.865   1.361  0.4927  0.2841 -0.4569
  188SOL     OW  749   1.866   1.213   0.924 -0.2941 -0.3415  0.5756
  188SOL    HW1  750   1.890   1.198   1.015  1.8394 -0.1718  0.0101
  188SOL    HW2  751   1.870   1.127   0.880  0.0255 -0.1839 -2.3291
  188SOL     MW  752   1.870   1.200   0.930  0.0296 -0.2983  0.1178
  189SOL     OW  753   0.740   0.758   0.848  0.5791  0.0938  0.0180
  189SOL    HW1  754   0.668   0.820   0.845  1.5223  0.1799 -0.0299
  189SOL    HW2  755   0.782   0.780   0.927 -3.3437 -0.2621 -0.3863
  189SOL     MW  756   0.736   0.769   0.858  0.1860  0.0582 -0.0417
  190SOL     OW  757   1.853   0.318   2.051 -0.6891  0.6601  0.4874
  190SOL    HW1  758   1.854   0.286   2.140  1.5602 -0.7060  0.6125
  190SOL    HW2  759   1.948   0.348   2.048  0.3880 -2.3078 -0.2815
  190SOL     MW  760   1.865   0.318   2.063 -0.2502  0.0883  0.4024
  191SOL     OW  761   1.501   1.079   1.199  0.2541  0.4511 -0.5964
  191SOL    HW1  762   1.506   1.125   1.288  1.1529  1.1065  1.9521
  191SOL    HW2  763   1.457   0.998   1.227 -0.1130 -1.3763  2.2913
  191SOL     MW  764   1.496   1.075   1.215  0.3242  0.2965  0.1209
  192SOL     OW  765   0.537   2.209   2.928 -0.1894 -0.0618 -0.2972
  192SOL    HW1  766   0.512   2.234   2.836 -1.7079 -0.1628  1.0583
  192SOL    HW2  767   0.524   2.116   2.944  2.9319  1.3963  0.3312
  192SOL     MW  768   0.532   2.200   2.918  0.0221  0.1172 -0.0354
  193SOL     OW  769   0.826   1.667   0.781  0.6782 -0.1965 -0.1418
  193SOL    HW1  770   0.738   1.695   0.790 -4.1862 -1.1996  0.2670
  193SOL    HW2  771   0.821   1.583   0.724  1.8388 -2.4942  1.5170
  193SOL     MW  772   0.814   1.660   0.774  0.1895 -0.6320  0.1310
  194SOL     OW  773   0.406   1.355   0.830 -0.2880 -0.0698 -0.1170
  194SOL    HW1  774   0.382   1.323   0.918  0.3813  0.7561 -3.6910
  194SOL    HW2  775   0.328   1.392   0.791 -1.1017 -1.4108  0.8986
  194SOL     MW  776   0.393   1.356   0.836 -0.3070 -0.1378 -0.4545
  195SOL     OW  777   1.209   1.134   3.006 -0.1050  0.2689  0.5899
  195SOL    HW1  778   1.245   1.115   3.095  2.2624  0.3942  2.0656
  195SOL    HW2  779   1.124   1.084   2.993 -1.0223  3.9766  2.5716
  195SOL     MW  780   1.202   1.125   3.016  0.0863  0.7746  1.0460
  196SOL     OW  781   2.259   0.967   0.527  0.4538  0.1891  0.4591
  196SOL    HW1  782   2.299   0.962   0.434 -1.6328 -2.2395 -0.3799
  196SOL    HW2  783   2.251   1.058   0.544 -2.0718 -1.3903 -0.3956
  196SOL     MW  784   2.263   0.978   0.517 -0.1547 -0.3397  0.2356
  197SOL     OW  785   0.641   1.253   2.215  0.4539 -0.7348  0.6383
  197SOL    HW1  786   0.688   1.190   2.159  1.8083  2.6577  0.6187
  197SOL    HW2  787   0.649   1.336   2.174 -1.0334 -1.1876  2.9077
  197SOL     MW  788   0.648   1.256   2.202  0.4364 -0.3469  0.9351
  198SOL     OW  789   2.907   1.384   1.054 -0.1369  0.3976 -0.0106
  198SOL    HW1  790   2.894   1.476   1.029  0.7928  1.3642  1.8946
  198SOL    HW2  791   2.818   1.340   1.040 -3.5178 -1.7559  0.3316
  198SOL     MW  792   2.893   1.391   1.049 -0.4603  0.2410  0.2859
  199SOL     OW  793   0.658   1.200   1.808  0.3528  0.0217  0.0106
  199SOL    HW1  794   0.563   1.194   1.828  3.7204 -0.7991  0.3650
  199SOL    HW2  795   0.667   1.287   1.767 -2.7363 -3.7851  1.3349
  199SOL     MW  796   0.647   1.211   1.805  0.3896 -0.5889  0.2321
  200SOL     OW  797   1.885   2.957   1.301  0.4357  0.0653 -0.0234
  200SOL    HW1  798   1.953   2.955   1.225  2.5350  2.0260  0.0254
  200SOL    HW2  799   1.839   3.044   1.307 -0.1496  0.2840  1.2675
  200SOL     MW  800   1.888   2.968   1.292  0.6355  0.3528  0.1534
  201SOL     OW  801   1.210   0.327   0.858  0.3295  0.0171 -0.7848
  201SOL    HW1  802   1.176   0.244   0.829 -0.0113  1.5875  0.4446
  201SOL    HW2  803   1.307   0.320   0.872 -0.7670  1.5001  2.0604
  201SOL     MW  804   1.219   0.316   0.856  0.1398  0.4200 -0.2472
  202SOL     OW  805   1.392   1.664   1.000 -0.5640  0.1944 -0.6219
  202SOL    HW1  806   1.418   1.574   0.991 -1.3516 -1.3153  2.6774
  202SOL    HW2  807   1.442   1.708   1.075  0.3244  0.3921  1.3804
  202SOL     MW  808   1.402   1.658   1.009 -0.5507  0.0213  0.0776
  203SOL     OW  809   0.001   0.434   1.331 -0.7146  0.7667 -0.2622
  203SOL    HW1  810   0.013   0.339   1.334  2.0208  0.6580  0.2528
  203SOL    HW2  811   0.074   0.453   1.270  1.5101 -3.4938  1.2578
  203SOL     MW  812   0.012   0.424   1.324 -0.0601  0.1902  0.0063
  204SOL     OW  813   1.030   1.812   0.637  0.1394 -0.0655 -0.4034
  204SOL    HW1  814   0.977   1.756   0.691 -0.3400 -1.5283 -1.7770
  204SOL    HW2  815   0.969   1.834   0.566 -1.0789  0.5431  1.2181
  204SOL     MW  816   1.015   1.808   0.635 -0.0846 -0.1782 -0.3707
  205SOL     OW  817   1.382   2.996   1.376 -0.3880 -0.1446  0.1092
  205SOL    HW1  818   1.352   2.959   1.296 -1.7319  1.7621  0.4979
  205SOL    HW2  819   1.324   3.067   1.400  0.1640  0.4441 -1.2068
  205SOL     MW  820   1.370   3.001   1.368 -0.4925  0.1846 -0.0132
  206SOL     OW  821   0.333   2.872   1.381 -0.3156  0.1195  0.0629
  206SOL    HW1  822   0.313   2.918   1.298 -1.7822  1.5809  0.8246
  206SOL    HW2  823   0.424   2.854   1.383 -1.3908  0.3542  0.1370
  206SOL     MW  824   0.342   2.876   1.371 -0.6510  0.3433  0.1732
  207SOL     OW  825   0.844   1.713   0.214 -0.8239 -0.2831  0.2337
  207SOL    HW1  826   0.923   1.762   0.187 -1.2247  0.7810  2.1792
  207SOL    HW2  827   0.870   1.633   0.262  1.8931  0.5438 -0.6924
  207SOL     MW  828   0.858   1.709   0.217 -0.5183 -0.0336  0.3682
  208SOL     OW  829   0.762   1.509   1.370 -0.6455  0.2214  0.0164
  208SOL    HW1  830   0.821   1.574   1.328  2.4791  0.7204 -2.2269
  208SOL    HW2  831   0.751   1.442   1.297 -0.1758  2.1817  2.6406
  208SOL     MW  832   0.768   1.509   1.355 -0.1713  0.5459  0.0667
  209SOL     OW  833   1.606   0.493   2.815 -0.6213 -0.6720 -0.0233
  209SOL    HW1  834   1.635   0.567   2.868 -2.4766 -3.0555  0.2567
  209SOL    HW2  835   1.686   0.445   2.788 -0.0292  0.9519 -1.8061
  209SOL     MW  836   1.620   0.497   2.818 -0.7880 -0.7722 -0.2216
  210SOL     OW  837   1.448   1.412   0.920 -0.1332  0.1392 -0.8005
  210SOL    HW1  838   1.548   1.428   0.923  0.3686  0.6000 -0.2462
  210SOL    HW2  839   1.413   1.448   0.834 -1.2398  2.1164 -0.2533
  210SOL     MW  840   1.456   1.419   0.909 -0.2130  0.4609 -0.6552
  211SOL     OW  841   1.749   0.360   0.859 -0.1427 -1.7616 -0.0057
  211SOL    HW1  842   1.761   0.367   0.766  1.3900 -0.9760  2.0956
  211SOL    HW2  843   1.837   0.388   0.883  3.3631  0.0207  2.4441
  211SOL     MW  844   1.762   0.364   0.850  0.5221 -1.4228  0.5948
  212SOL     OW  845   0.401   1.202   0.229 -0.4501 -0.6143 -0.2042
  212SOL    HW1  846   0.345   1.125   0.232 -1.4759 -1.1288  0.3529
  212SOL    HW2  847   0.481   1.176   0.172  6.7222 -0.9443 -1.6475
  212SOL     MW  848   0.404   1.189   0.222  0.3609 -0.7257 -0.3211
  213SOL     OW  849   0.418   1.807   3.080 -0.3516 -0.3819  0.0877
  213SOL    HW1  850   0.475   1.831   3.155  0.5893  0.4086  0.0436
  213SOL    HW2  851   0.457   1.841   2.994 -3.0307 -1.8639 -0.8649
  213SOL     MW  852   0.431   1.815   3.079 -0.5810 -0.4732 -0.0438
  214SOL     OW  853   0.585   0.342   2.120  0.4189 -0.4743  0.3202
  214SOL    HW1  854   0.517   0.403   2.137  0.3791  0.6681 -1.4205
  214SOL    HW2  855   0.590   0.306   2.025 -0.3101  0.1613  1.7591
  214SOL     MW  856   0.577   0.345   2.110  0.3175 -0.2397  0.2804
  215SOL     OW  857   0.580   0.585   2.507  0.8439  0.1230 -0.0559
  215SOL    HW1  858   0.499   0.617   2.474  0.0162 -0.4307  1.2130
  215SOL    HW2  859   0.604   0.503   2.474 -1.2519 -0.1745  1.3989
  215SOL     MW  860   0.572   0.578   2.499  0.4582  0.0107  0.3035
  216SOL     OW  861   2.934   3.069   2.823 -0.0508 -0.5825 -0.8494
  216SOL    HW1  862   2.841   3.050   2.810  1.9554 -1.8197  2.0628
  216SOL    HW2  863   2.949   3.143   2.766 -2.1547  0.1431 -4.1009
  216SOL     MW  864   2.924   3.076   2.814 -0.0637 -0.6500 -0.8942
  217SOL     OW  865   0.913   1.103   0.140 -0.2137 -0.0423 -0.2545
  217SOL    HW1  866   0.928   1.040   0.070 -1.1396 -2.0278  3.4153
  217SOL    HW2  867   0.945   1.191   0.106 -0.8826  1.4892 -1.8795
  217SOL     MW  868   0.919   1.106   0.126 -0.4241 -0.1022  0.0153
  218SOL     OW  869   0.827   1.410   2.608  0.0328  0.4979 -0.7575
  218SOL    HW1  870   0.794   1.338   2.667 -0.8246  0.3614 -1.4885
  218SOL    HW2  871   0.911   1.443   2.653  0.3919  1.5571  1.9227
  218SOL     MW  872   0.834   1.405   2.621 -0.0330  0.6196 -0.5003
  219SOL     OW  873   1.080   0.437   2.509 -0.2204 -0.5453 -0.5571
  219SOL    HW1  874   1.131   0.467   2.432  1.8214  2.0871 -2.1982
  219SOL    HW2  875   1.019   0.505   2.528  0.2304 -0.5145 -1.4477
  219SOL     MW  876   1.079   0.450   2.502  0.1084 -0.1939 -0.8911
  220SOL     OW  877   1.658   0.501   2.185 -0.7946 -0.1525 -0.4033
  220SOL    HW1  878   1.573   0.544   2.185  0.0729 -1.9337 -0.3655
  220SOL    HW2  879   1.661   0.438   2.117  0.1192 -0.1636  0.3758
  220SOL     MW  880   1.647   0.498   2.176 -0.5596 -0.3890 -0.2955
  221SOL     OW  881   0.336   1.365   2.937 -0.0192  0.1758  0.4919
  221SOL    HW1  882   0.391   1.287   2.943 -1.9619  0.8361 -0.9662
  221SOL    HW2  883   0.386   1.430   2.891  0.8175  0.3088 -1.6670
  221SOL     MW  884   0.350   1.363   2.932 -0.1651  0.2804  0.0146
  222SOL     OW  885   0.504   0.917   2.719 -0.0473 -0.2800 -0.7730
  222SOL    HW1  886   0.419   0.884   2.690 -1.3149 -0.2904  1.6291
  222SOL    HW2  887   0.553   0.841   2.749 -1.5870  0.2443  0.5086
  222SOL     MW  888   0.499   0.902   2.719 -0.4177 -0.2122 -0.2870
  223SOL     OW  889   3.039   2.062   2.559 -0.4053 -0.1809  0.4787
  223SOL    HW1  890   3.066   2.046   2.650 -0.7302  1.0266  2.6092
  223SOL    HW2  891   3.097   2.117   2.508  0.0935 -0.3922 -1.2535
  223SOL     MW  892   3.050   2.067   2.564 -0.3824 -0.0495  0.5312
  224SOL     OW  893   1.436   0.573   2.412  0.0816 -0.2958  0.2131
  224SOL    HW1  894   1.492   0.544   2.481 -0.0427 -2.6275  1.5017
  224SOL    HW2  895   1.436   0.670   2.416 -0.3680 -0.1671  0.7187
  224SOL     MW  896   1.443   0.582   2.422  0.0059 -0.5865  0.4498
  225SOL     OW  897   2.907   1.506   2.185  0.0902 -0.0714 -0.3045
  225SOL    HW1  898   2.963   1.580   2.165 -0.9974 -2.5570 -1.7292
  225SOL    HW2  899   2.861   1.533   2.263 -1.0442  0.1353  0.9090
  225SOL     MW  900   2.908   1.519   2.192 -0.2029 -0.3721 -0.3324
  226SOL     OW  901   0.445   1.562   2.740 -0.2934 -0.5260  0.7916
  226SOL    HW1  902   0.515   1.574   2.674  0.1286 -0.5821  1.1649
  226SOL    HW2  903   0.394   1.639   2.715  2.2240  0.3557 -1.5046
  226SOL     MW  904   0.447   1.574   2.728  0.0944 -0.4170  0.5379
  227SOL     OW  905   0.498   1.138   2.870 -0.0476  0.7035  0.2268
  227SOL    HW1  906   0.581   1.161   2.827  2.9621 -1.9758 -1.1784
  227SOL    HW2  907   0.475   1.059   2.816 -2.2907 -1.7799 -0.2212
  227SOL     MW  908   0.506   1.131   2.857  0.0535  0.0223 -0.0177
  228SOL     OW  909   0.802   1.112   2.038 -0.2404  0.2730  0.1115
  228SOL    HW1  910   0.751   1.135   1.965 -0.3784  1.5673  2.7433
  228SOL    HW2  911   0.864   1.184   2.049 -0.5836 -0.3634 -1.3348
  228SOL     MW  912   0.804   1.124   2.030 -0.3039  0.3598  0.2679
  229SOL     OW  913   0.167   0.578   0.029 -0.5146 -0.4227  0.2253
  229SOL    HW1  914   0.104   0.572  -0.049 -1.3730 -0.2062  0.5514
  229SOL    HW2  915   0.135   0.530   0.103 -1.8961  1.7146  0.3547
  229SOL     MW  916   0.154   0.571   0.028 -0.8102 -0.1121  0.2854
  230SOL     OW  917   1.749   1.394   2.182 -0.4519  0.3811  0.3079
  230SOL    HW1  918   1.678   1.366   2.233 -1.9466 -0.4681 -1.2294
  230SOL    HW2  919   1.786   1.307   2.162  1.0378  1.6696  2.8621
  230SOL     MW  920   1.744   1.379   2.186 -0.4526  0.4391  0.4421
  231SOL     OW  921   2.715   1.223   2.197  0.0422 -0.2783 -0.2882
  231SOL    HW1  922   2.768   1.301   2.214  2.9892 -1.3794 -1.4026
  231SOL    HW2  923   2.647   1.260   2.134  1.3503 -2.3412 -2.8044
  231SOL     MW  924   2.713   1.238   2.191  0.6036 -0.6957 -0.7672
  232SOL     OW  925   2.272   0.885   2.014  0.4830 -0.4060  0.2192
  232SOL    HW1  926   2.209   0.888   1.941  1.1007  0.6754 -3.1984
  232SOL    HW2  927   2.250   0.808   2.072  0.9256  1.5241  1.7469
  232SOL     MW  928   2.261   0.876   2.012  0.6229 -0.0086 -0.0301
  233SOL     OW  929   2.108   0.456   2.037  0.3475 -0.2461 -0.4877
  233SOL    HW1  930   2.167   0.391   2.023 -0.9998  4.3251 -1.1525
  233SOL    HW2  931   2.105   0.476   2.130 -1.1540  2.5615 -0.2441
  233SOL     MW  932   2.115   0.450   2.048 -0.0284  0.7275 -0.5433
  234SOL     OW  933   0.265   1.048   2.627 -0.0513 -0.1412 -0.0726
  234SOL    HW1  934   0.220   1.046   2.544 -0.4085 -2.7792  1.9785
  234SOL    HW2  935   0.309   1.127   2.628 -1.1049 -0.8047  0.9363
  234SOL     MW  936   0.265   1.058   2.616 -0.2375 -0.5768  0.3311
  235SOL     OW  937   1.107   0.038   2.813  0.7171  0.7252 -0.1008
  235SOL    HW1  938   1.162   0.034   2.890  0.7378  0.3201  2.3919
  235SOL    HW2  939   1.088   0.131   2.789  0.1282  0.8075  1.7328
  235SOL     MW  940   1.112   0.050   2.820  0.6421  0.6826  0.4700
  236SOL     OW  941   2.958   0.626   0.151  0.5426 -0.1766 -0.0241
  236SOL    HW1  942   2.966   0.642   0.244 -0.6508  0.0042  2.2052
  236SOL    HW2  943   3.016   0.698   0.113 -0.0562  1.1527  0.8346
  236SOL     MW  944   2.967   0.638   0.158  0.3062  0.0227  0.3834
  237SOL     OW  945   1.930   1.126   2.134  0.2466 -0.1302  0.0048
  237SOL    HW1  946   1.855   1.069   2.166  0.7485  3.2837  1.9891
  237SOL    HW2  947   1.991   1.056   2.101  0.8181 -0.4633  2.6274
  237SOL     MW  948   1.928   1.109   2.134  0.3882  0.2763  0.6126
  238SOL     OW  949   1.105   1.697   2.906  0.3321 -0.2814  0.3851
  238SOL    HW1  950   1.042   1.622   2.890 -1.7817  0.5621 -2.0418
  238SOL    HW2  951   1.191   1.658   2.889 -1.3518  0.4461  0.5065
  238SOL     MW  952   1.108   1.682   2.902 -0.1689 -0.0741  0.0809
  239SOL     OW  953   1.181   1.282   2.386  0.1822  0.4222  0.4536
  239SOL    HW1  954   1.096   1.322   2.392  0.8106 -1.8821 -0.9899
  239SOL    HW2  955   1.195   1.248   2.474  1.3842  1.2805 -0.0765
  239SOL     MW  956   1.172   1.283   2.399  0.4237  0.2314  0.1932
  240SOL     OW  957   0.598   0.846   2.314  0.6125  0.3371  0.4493
  240SOL    HW1  958   0.633   0.879   2.399 -1.5634  2.0438  0.3303
  240SOL    HW2  959   0.663   0.844   2.245 -1.9292 -0.5160 -0.2289
  240SOL     MW  960   0.611   0.850   2.316 -0.0099  0.4497  0.3441
  241SOL     OW  961   0.672   0.460   3.097 -0.1405  0.1798  0.2621
  241SOL    HW1  962   0.708   0.544   3.138  0.8049 -0.0356  1.1922
  241SOL    HW2  963   0.586   0.480   3.062 -0.4780 -3.8926  0.6450
  241SOL     MW  964   0.666   0.474   3.098 -0.0603 -0.3860  0.4354
  242SOL     OW  965   1.498   1.611   2.289 -0.8254  0.0157  0.0659
  242SOL    HW1  966   1.454   1.689   2.324 -0.2214  0.3450 -2.0341
  242SOL    HW2  967   1.432   1.569   2.231 -1.3330 -0.2875 -1.6077
  242SOL     MW  968   1.483   1.615   2.286 -0.8127  0.0191 -0.4320
  243SOL     OW  969   0.961   0.187   2.456 -0.0922 -0.4190  0.5509
  243SOL    HW1  970   1.041   0.142   2.426  1.2647  1.9582  1.0044
  243SOL    HW2  971   0.993   0.263   2.498 -1.3871 -2.2356 -2.5369
  243SOL     MW  972   0.976   0.191   2.457 -0.0841 -0.3450  0.2034
  244SOL     OW  973   0.100   0.771   2.374 -0.4713 -1.1426 -0.4642
  244SOL    HW1  974   0.081   0.862   2.393  0.3197  0.0928  0.9091
  244SOL    HW2  975   0.195   0.770   2.351  4.0531 -2.0251 -1.9633
  244SOL     MW  976   0.110   0.783   2.374  0.2300 -1.0960 -0.4808
  245SOL     OW  977   1.221   0.103   2.398 -0.5225  0.1154 -0.0647
  245SOL    HW1  978   1.276   0.088   2.325 -3.2051 -0.3952 -1.2607
  245SOL    HW2  979   1.259   0.057   2.468 -1.4976  1.2670 -1.9752
  245SOL     MW  980   1.234   0.095   2.398 -1.0051  0.2000 -0.4746
  246SOL     OW  981   1.165   1.072   2.091  0.0911 -0.0122  0.5111
  246SOL    HW1  982   1.086   1.055   2.141 -1.1010 -2.1192 -1.7094
  246SOL    HW2  983   1.235   1.034   2.146 -0.9349 -0.9875  1.4597
  246SOL     MW  984   1.164   1.065   2.105 -0.2016 -0.4189  0.3432
  247SOL     OW  985   0.771   0.648   0.154 -0.0082 -0.0623 -0.3399
  247SOL    HW1  986   0.757   0.745   0.140 -1.2711  0.1912  0.5190
  247SOL    HW2  987   0.858   0.631   0.131 -3.1180  0.5904  1.3331
  247SOL     MW  988   0.781   0.659   0.149 -0.5851  0.0573 -0.0059
  248SOL     OW  989   0.359   1.308   2.611  0.1790 -0.0563 -0.5993
  248SOL    HW1  990   0.367   1.322   2.517  1.8014 -1.5408 -1.3125
  248SOL    HW2  991   0.391   1.385   2.650  0.4237 -0.4894 -0.1503
  248SOL     MW  992   0.364   1.320   2.604  0.4254 -0.3093 -0.6342
  249SOL     OW  993   3.028   1.867   2.794  0.1341 -0.4995 -0.2107
  249SOL    HW1  994   2.956   1.810   2.796 -1.1839  1.1212  0.4460
  249SOL    HW2  995   3.093   1.811   2.836  0.5527 -0.4720 -1.2374
  249SOL     MW  996   3.027   1.852   2.800  0.0154 -0.2821 -0.2595
  250SOL     OW  997   2.288   0.697   2.221  0.8295  0.3170  0.3001
  250SOL    HW1  998   2.222   0.649   2.271  1.1665 -0.8632  2.9086
  250SOL    HW2  999   2.337   0.741   2.284 -4.1621 -1.1168  0.2795
  250SOL     MW 1000   2.286   0.696   2.236  0.2154 -0.0279  0.6415
  251SOL     OW 1001   0.141   0.887   1.974 -0.4793  0.1458 -0.2905
  251SOL    HW1 1002   0.104   0.795   1.989 -0.2779  1.1882 -1.6849
  251SOL    HW2 1003   0.137   0.889   1.876 -0.3915 -0.8250 -1.0300
  251SOL     MW 1004   0.136   0.876   1.963 -0.4411  0.1553 -0.5721
  252SOL     OW 1005   1.728   1.023   2.905  0.2611 -0.2384  0.3570
  252SOL    HW1 1006   1.731   1.074   2.986  1.6330 -0.7396  1.8763
  252SOL    HW2 1007   1.788   1.057   2.831  0.6548 -0.0787 -2.2865
  252SOL     MW 1008   1.736   1.034   2.906  0.4941 -0.2835  0.2087
  253SOL     OW 1009   1.136   1.674   2.561 -0.5835  0.3232  0.4469
  253SOL    HW1 1010   1.101   1.626   2.487  0.3855 -0.8239 -1.6601
  253SOL    HW2 1011   1.076   1.740   2.579  0.2269 -0.6742 -1.8379
  253SOL     MW 1012   1.123   1.677   2.554 -0.3487  0.0402 -0.1325
  254SOL     OW 1013   0.973   1.018   2.280 -0.0558 -0.6854 -0.2725
  254SOL    HW1 1014   0.905   0.957   2.244  3.7324 -1.7028 -0.3885
  254SOL    HW2 1015   0.927   1.088   2.324 -2.0695 -1.0100 -1.5258
  254SOL     MW 1016   0.958   1.019   2.281  0.1783 -0.8625 -0.4532
  255SOL     OW 1017   0.863   2.437   2.160  0.0437  0.0088 -0.4715
  255SOL    HW1 1018   0.781   2.388   2.127 -0.3796 -1.2933 -1.2197
  255SOL    HW2 1019   0.922   2.366   2.200 -1.8509 -2.9861  0.2580
  255SOL     MW 1020   0.860   2.421   2.161 -0.2621 -0.5581 -0.4740
  256SOL     OW 1021   1.318   2.813   3.065  0.4942 -1.1319 -0.1062
  256SOL    HW1 1022   1.352   2.764   3.139 -1.6381  0.9387  1.2733
  256SOL    HW2 1023   1.380   2.807   2.988 -1.2631 -0.7598 -1.5363
  256SOL     MW 1024   1.331   2.805   3.065 -0.0190 -0.8096 -0.1129
  257SOL     OW 1025   0.090   1.963   0.046  0.8017 -0.4188  0.6277
  257SOL    HW1 1026   0.125   1.917   0.126 -0.6087 -0.6327  0.5562
  257SOL    HW2 1027   0.129   1.904  -0.022 -0.8350 -4.3798  1.5782
  257SOL     MW 1028   0.099   1.949   0.048  0.3997 -0.9696  0.7437
  258SOL     OW 1029   0.709   0.968   2.521 -0.2213 -0.2311 -0.3535
  258SOL    HW1 1030   0.735   1.065   2.505  1.1275 -1.5963 -1.2586
  258SOL    HW2 1031   0.639   0.985   2.580  4.1213 -1.8796  1.0376
  258SOL     MW 1032   0.703   0.983   2.527  0.5296 -0.6287 -0.2894
  259SOL     OW 1033   0.807   0.430   2.262 -0.1741  0.2749 -0.0014
  259SOL    HW1 1034   0.733   0.395   2.214  1.2129  0.6476 -0.5320
  259SOL    HW2 1035   0.861   0.363   2.294  0.9525  1.0248 -0.0228
  259SOL     MW 1036   0.804   0.416   2.260  0.1575  0.4230 -0.0743
  260SOL     OW 1037   0.664   0.086   1.622 -0.2274  0.1655  0.3534
  260SOL    HW1 1038   0.603   0.129   1.565 -4.0426 -1.5406  1.6414
  260SOL    HW2 1039   0.743   0.129   1.595 -0.7539  1.8255  3.2059
  260SOL     MW 1040   0.667   0.098   1.611 -0.8003  0.1594  0.8997
  261SOL     OW 1041   1.006   0.715   2.016 -0.0242 -0.0863  0.3290
  261SOL    HW1 1042   1.082   0.708   2.076  2.2505  0.3454 -2.0665
  261SOL    HW2 1043   0.979   0.617   2.001 -1.6736 -2.0831 -2.4134
  261SOL     MW 1044   1.013   0.701   2.022  0.0583 -0.2928 -0.3489
  262SOL     OW 1045   1.135   0.326   0.145  0.9336  0.1883  0.2051
  262SOL    HW1 1046   1.213   0.354   0.094 -0.4013 -0.2792 -0.5724
  262SOL    HW2 1047   1.082   0.288   0.078  0.6156  0.3543 -0.1350
  262SOL     MW 1048   1.138   0.324   0.130  0.7155  0.1485  0.0576
  263SOL     OW 1049   0.357   0.018   2.468 -0.2044  0.0780 -0.1886
  263SOL    HW1 1050   0.263   0.043   2.468 -0.8632  1.0752 -2.5965
  263SOL    HW2 1051   0.389   0.040   2.374  1.2669 -1.1123 -2.5591
  263SOL     MW 1052   0.349   0.024   2.455 -0.0972  0.0525 -0.8190
  264SOL     OW 1053   1.539   1.468   1.969 -0.0517  0.1584  0.7641
  264SOL    HW1 1054   1.506   1.379   1.980 -0.5310  2.0388  0.4936
  264SOL    HW2 1055   1.609   1.481   2.040  2.7357 -0.1379 -1.2730
  264SOL     MW 1056   1.544   1.458   1.980  0.2529  0.3674  0.4596
  265SOL     OW 1057   0.723   2.779   2.327  0.0225  0.3140 -0.3798
  265SOL    HW1 1058   0.820   2.760   2.339 -0.2734 -2.2600  0.9012
  265SOL    HW2 1059   0.686   2.804   2.415  1.9361 -0.3781  2.1501
  265SOL     MW 1060   0.731   2.780   2.340  0.2360 -0.1170  0.1230
  266SOL     OW 1061   0.786   0.861   2.120  0.0868  0.1659 -0.6832
  266SOL    HW1 1062   0.778   0.942   2.072 -0.4683 -1.5340 -0.5338
  266SOL    HW2 1063   0.857   0.810   2.075 -0.0559  0.9909  0.1302
  266SOL     MW 1064   0.794   0.865   2.108 -0.0053  0.0505 -0.5561
  267SOL     OW 1065   1.356   1.736   2.710 -0.8133  0.4196  0.2144
  267SOL    HW1 1066   1.418   1.686   2.657 -1.6746  1.9056 -0.1429
  267SOL    HW2 1067   1.271   1.699   2.673  0.7128 -1.4037  0.7290
  267SOL     MW 1068   1.353   1.725   2.698 -0.7256  0.3751  0.2352
  268SOL     OW 1069   0.089   0.890   1.683  0.2474 -0.2795 -0.2191
  268SOL    HW1 1070   0.010   0.924   1.729  0.0611 -0.5491 -2.3140
  268SOL    HW2 1071   0.042   0.832   1.616 -1.4523  0.0169 -2.1118
  268SOL     MW 1072   0.072   0.887   1.680 -0.0014 -0.2760 -0.7452
  269SOL     OW 1073   1.332   1.805   2.398 -0.8211 -0.3495 -0.0854
  269SOL    HW1 1074   1.346   1.886   2.446  2.3948  1.0771 -2.2274
  269SOL    HW2 1075   1.289   1.752   2.465  3.2379 -2.0698 -1.0450
  269SOL     MW 1076   1.328   1.809   2.413  0.1387 -0.3882 -0.4946
  270SOL     OW 1077   1.105   0.486   1.541  0.4706  0.0660  0.0228
  270SOL    HW1 1078   1.046   0.419   1.572  1.1897 -0.1131  0.2260
  270SOL    HW2 1079   1.181   0.441   1.518 -2.5495  2.1471 -1.9757
  270SOL     MW 1080   1.107   0.471   1.542  0.1670  0.3170 -0.2141
  271SOL     OW 1081   0.721   0.108   2.560 -0.1101  0.1832 -0.6412
  271SOL    HW1 1082   0.737   0.060   2.640 -1.8186  0.8051 -0.6942
  271SOL    HW2 1083   0.805   0.122   2.521 -0.1886  0.2983 -0.8230
  271SOL     MW 1084   0.734   0.103   2.565 -0.3459  0.2804 -0.6721
  272SOL     OW 1085   1.488   2.799   2.845 -0.1381 -0.3202  0.4153
  272SOL    HW1 1086   1.443   2.789   2.762 -0.6063  1.6472 -2.8249
  272SOL    HW2 1087   1.536   2.888   2.848 -2.0324  0.4719  0.2931
  272SOL     MW 1088   1.488   2.809   2.835 -0.4498  0.0439 -0.0284
  273SOL     OW 1089   1.439   0.787   2.830 -0.4672  0.1366  0.3745
  273SOL    HW1 1090   1.534   0.781   2.816 -0.6128 -1.6974  2.2112
  273SOL    HW2 1091   1.416   0.876   2.800 -0.9307 -1.0023 -0.3695
  273SOL     MW 1092   1.448   0.798   2.824 -0.5475 -0.2556  0.5187
  274SOL     OW 1093   1.408   0.666   0.158  0.5552  0.6642  0.4802
  274SOL    HW1 1094   1.444   0.579   0.189  0.6767  1.0117 -0.2442
  274SOL    HW2 1095   1.329   0.690   0.218 -0.2474  1.0539 -0.5530
  274SOL     MW 1096   1.402   0.658   0.170  0.4653  0.7614  0.2483
  275SOL     OW 1097   1.890   0.555   1.714  0.4636 -0.2354 -0.2525
  275SOL    HW1 1098   1.927   0.603   1.788 -0.8611  2.4417  0.8932
  275SOL    HW2 1099   1.880   0.463   1.736 -0.7499 -0.7628  1.9762
  275SOL     MW 1100   1.894   0.549   1.727  0.1287  0.0482  0.1927
  276SOL     OW 1101   0.424   1.169   1.962  0.2799 -0.4755 -0.1333
  276SOL    HW1 1102   0.444   1.086   2.003  0.4055  2.1547  0.7083
  276SOL    HW2 1103   0.377   1.219   2.031  0.7637  1.0207  1.4218
  276SOL     MW 1104   0.421   1.164   1.977  0.3603  0.0689  0.1829
  277SOL     OW 1105   1.988   1.159   2.439  0.4065  0.0837 -0.0108
  277SOL    HW1 1106   2.023   1.237   2.487 -0.2847  3.5525 -1.3113
  277SOL    HW2 1107   1.892   1.167   2.446  1.7275  1.2752 -1.5726
  277SOL     MW 1108   1.980   1.170   2.446  0.4896  0.6986 -0.3885
  278SOL     OW 1109   1.450   0.621   1.609  0.4402  0.4165 -0.1671
  278SOL    HW1 1110   1.451   0.608   1.712 -1.6795  1.1987 -1.1445
  278SOL    HW2 1111   1.542   0.636   1.583  1.1137 -0.7826 -0.9145
  278SOL     MW 1112   1.462   0.621   1.619  0.2494  0.3615 -0.3946
  279SOL     OW 1113   0.508   0.077   2.206  0.3441 -0.1296  0.1971
  279SOL    HW1 1114   0.590   0.023   2.236 -1.0679  1.2526  3.2444
  279SOL    HW2 1115   0.534   0.168   2.191 -1.3327 -1.0512  2.7372
  279SOL     MW 1116   0.523   0.082   2.208 -0.0635 -0.0688  0.9343
  280SOL     OW 1117   1.420   0.986   2.247  0.8562  0.2218  0.1995
  280SOL    HW1 1118   1.514   1.000   2.234  1.9955 -1.4405 -0.1342
  280SOL    HW2 1119   1.428   0.931   2.325 -0.0403 -0.7412  0.1714
  280SOL     MW 1120   1.433   0.980   2.256  0.8882 -0.1245  0.1518
  281SOL     OW 1121   1.387   1.075   2.775 -0.3616  0.0156  0.3491
  281SOL    HW1 1122   1.468   1.120   2.760 -0.7173  1.4206 -0.0079
  281SOL    HW2 1123   1.345   1.100   2.855  2.2352 -0.1724  0.5071
  281SOL     MW 1124   1.392   1.084   2.784 -0.0659  0.1761  0.3228
  282SOL     OW 1125   1.067   1.320   1.615 -0.2166 -0.3555 -0.1757
  282SOL    HW1 1126   1.057   1.388   1.555  1.2945 -0.6222  0.5079
  282SOL    HW2 1127   0.981   1.304   1.649 -0.2794  0.4263  1.3928
  282SOL     MW 1128   1.054   1.327   1.611 -0.0255 -0.2876  0.1215
  283SOL     OW 1129   0.801   1.304   2.994 -0.6470 -0.5274 -0.0101
  283SOL    HW1 1130   0.890   1.301   3.037 -0.5538  1.7927  1.6537
  283SOL    HW2 1131   0.783   1.400   2.982  0.3036 -0.7397  0.8853
  283SOL     MW 1132   0.810   1.317   2.998 -0.5093 -0.2493  0.3276
  284SOL     OW 1133   0.380   0.700   2.357  0.4347  0.5456  0.0258
  284SOL    HW1 1134   0.455   0.765   2.339 -1.2705  1.8699 -1.0163
  284SOL    HW2 1135   0.382   0.638   2.285 -1.6135 -1.7543  1.7039
  284SOL     MW 1136   0.390   0.700   2.345 -0.0605  0.4169  0.1097
  285SOL     OW 1137   0.881   0.928   2.787  0.0654 -0.1248 -0.4395
  285SOL    HW1 1138   0.922   0.954   2.700 -0.9315 -1.9766  0.1153
  285SOL    HW2 1139   0.811   0.863   2.758 -1.1142 -1.5440 -2.7344
  285SOL     MW 1140   0.877   0.923   2.772 -0.2217 -0.5564 -0.6691
  286SOL     OW 1141   1.053   1.481   2.741  0.3483  1.0908  0.1217
  286SOL    HW1 1142   1.098   1.399   2.732  0.0430  2.4164 -0.5200
  286SOL    HW2 1143   1.084   1.540   2.677 -1.3876 -0.5460  1.3415
  286SOL     MW 1144   1.063   1.478   2.731  0.0790  1.0498  0.1980
  287SOL     OW 1145   1.094   0.967   0.329  0.1063 -0.1026  0.2306
  287SOL    HW1 1146   1.074   0.976   0.420  1.9939 -0.0325 -1.5598
  287SOL    HW2 1147   1.032   1.022   0.278 -0.9491 -0.0009 -0.2551
  287SOL     MW 1148   1.083   0.975   0.334  0.2161 -0.0799 -0.0697
  288SOL     OW 1149   1.501   0.727   2.094  0.0574  0.0736  0.0750
  288SOL    HW1 1150   1.411   0.758   2.114  3.4337 -1.3826 -3.2195
  288SOL    HW2 1151   1.551   0.805   2.103 -0.1555  0.7435  1.4237
  288SOL     MW 1152   1.496   0.741   2.098  0.4747 -0.0302 -0.1817
  289SOL     OW 1153   1.022   1.025   2.573  0.3124 -0.1178 -0.2189
  289SOL    HW1 1154   1.065   0.962   2.515 -0.9470 -1.5347 -1.9803
  289SOL    HW2 1155   0.974   1.074   2.515  1.3663 -0.4849 -0.2758
  289SOL     MW 1156   1.021   1.023   2.558  0.2853 -0.3532 -0.4588
  290SOL     OW 1157   0.693   0.658   1.464  0.1375  0.1713 -0.0216
  290SOL    HW1 1158   0.758   0.627   1.402 -1.1153  1.8072 -0.8084
  290SOL    HW2 1159   0.739   0.641   1.548 -2.4533  1.1334 -1.3175
  290SOL     MW 1160   0.708   0.651   1.467 -0.3696  0.5141 -0.2964
  291SOL     OW 1161   0.172   0.345   0.212 -0.5988  0.1908 -0.3816
  291SOL    HW1 1162   0.256   0.309   0.191  0.2986 -1.2169  1.8133
  291SOL    HW2 1163   0.121   0.271   0.243  0.3226 -0.3399 -0.3093
  291SOL     MW 1164   0.177   0.331   0.213 -0.3588 -0.0650 -0.0825
  292SOL     OW 1165   1.024   0.589   0.084  0.2227  0.7584  0.3793
  292SOL    HW1 1166   1.067   0.639   0.151 -1.4302  1.7083 -0.8837
  292SOL    HW2 1167   1.043   0.495   0.104  0.1241 -1.0069 -1.2021
  292SOL     MW 1168   1.032   0.583   0.095 -0.0084  0.6508  0.0040
  293SOL     OW 1169   0.100   0.117   2.514 -0.7698  0.1974  0.1326
  293SOL    HW1 1170   0.059   0.072   2.439 -2.5325  2.6197 -0.8113
  293SOL    HW2 1171   0.022   0.148   2.562  1.5131 -0.1047 -1.6017
  293SOL     MW 1172   0.084   0.115   2.510 -0.7012  0.4771 -0.2207
  294SOL     OW 1173   1.251   0.436   2.295 -0.0818 -0.3672 -0.0881
  294SOL    HW1 1174   1.319   0.488   2.342 -0.6998 -1.3238 -0.2325
  294SOL    HW2 1175   1.243   0.346   2.322 -2.5370 -1.2883  0.0617
  294SOL     MW 1176   1.259   0.431   2.305 -0.4873 -0.6150 -0.0874
  295SOL     OW 1177   0.890   0.659   2.475  0.5937 -0.2457 -0.1886
  295SOL    HW1 1178   0.855   0.631   2.389 -0.0247 -0.8938  0.6412
  295SOL    HW2 1179   0.815   0.684   2.529  0.7008  0.2783 -1.2832
  295SOL     MW 1180   0.876   0.658   2.471  0.5262 -0.2621 -0.2235
  296SOL     OW 1181   1.375   0.372   2.039 -0.0654  0.1208 -0.0450
  296SOL    HW1 1182   1.388   0.283   2.020  0.5104  1.5162 -1.4321
  296SOL    HW2 1183   1.331   0.385   2.122 -1.3556  0.4610 -0.5239
  296SOL     MW 1184   1.371   0.362   2.048 -0.1597  0.3498 -0.2912
  297SOL     OW 1185   1.362   0.374   1.531 -0.4230 -0.0258  0.6076
  297SOL    HW1 1186   1.392   0.459   1.567 -2.4315 -1.6004  2.0793
  297SOL    HW2 1187   1.367   0.311   1.603  1.3029 -0.8052 -3.4391
  297SOL     MW 1188   1.367   0.377   1.545 -0.4603 -0.3364  0.2678
  298SOL     OW 1189   1.679   0.931   2.131 -0.2931 -0.0720  0.0382
  298SOL    HW1 1190   1.696   0.963   2.038 -0.7180 -1.4198 -2.1584
  298SOL    HW2 1191   1.737   0.852   2.138  1.6641 -0.7025 -0.2147
  298SOL     MW 1192   1.689   0.925   2.120 -0.0909 -0.3330 -0.2850
  299SOL     OW 1193   0.617   1.140   0.056  0.1020 -0.2396  0.2206
  299SOL    HW1 1194   0.575   1.136  -0.036  1.0219 -2.1837 -1.1211
  299SOL    HW2 1195   0.689   1.195   0.030  0.5681  0.4409  0.7430
  299SOL     MW 1196   0.621   1.147   0.041  0.2849 -0.4063  0.1125
  300SOL     OW 1197   1.190   1.229   2.671  0.5884  0.4188 -0.3025
  300SOL    HW1 1198   1.147   1.151   2.640  1.8694  2.4698  0.5274
  300SOL    HW2 1199   1.272   1.195   2.703 -0.2089  1.1634  0.3904
  300SOL     MW 1200   1.195   1.214   2.671  0.6522  0.7876 -0.1016
  301SOL     OW 1201   1.441   1.039   0.669 -0.7480  0.2174 -0.3052
  301SOL    HW1 1202   1.440   1.073   0.756 -0.4731  0.1563  0.3111
  301SOL    HW2 1203   1.401   0.951   0.671  0.4971 -2.8890 -1.6189
  301SOL     MW 1204   1.436   1.032   0.681 -0.5475 -0.2005 -0.3972
  302SOL     OW 1205   0.235   1.581   2.073  0.0560  0.2645  0.6704
  302SOL    HW1 1206   0.232   1.488   2.061  0.0774 -0.1226 -0.0686
  302SOL    HW2 1207   0.144   1.613   2.063 -0.9533  0.8846  1.1835
  302SOL     MW 1208   0.223   1.573   2.070 -0.0743  0.2953  0.6406
  303SOL     OW 1209   0.308   1.809   2.692  0.1570  0.5841  0.1913
  303SOL    HW1 1210   0.252   1.812   2.615  1.6026  3.8151 -2.9292
  303SOL    HW2 1211   0.255   1.808   2.779  0.5213 -2.1530  1.1531
  303SOL     MW 1212   0.294   1.809   2.694  0.3958  0.6492 -0.0936
  304SOL     OW 1213   0.551   2.125   2.447  0.4696  0.5167 -0.2450
  304SOL    HW1 1214   0.602   2.202   2.413  0.3288 -1.3980  3.3897
  304SOL    HW2 1215   0.615   2.053   2.429  2.5166  1.1446  2.8073
  304SOL     MW 1216   0.566   2.126   2.440  0.7211  0.3469  0.6373
  305SOL     OW 1217   1.123   0.615   0.531 -0.1052 -0.1256 -0.6870
  305SOL    HW1 1218   1.027   0.614   0.517  0.5816  2.4918  0.5853
  305SOL    HW2 1219   1.150   0.522   0.565 -1.2973 -5.8861 -0.6273
  305SOL     MW 1220   1.114   0.602   0.533 -0.1719 -0.5403 -0.5113
  306SOL     OW 1221   1.132   1.530   0.307 -0.5186 -0.1506  0.0252
  306SOL    HW1 1222   1.128   1.434   0.341  0.4544  1.0177 -0.2824
  306SOL    HW2 1223   1.198   1.531   0.232  0.9669 -0.9836  1.0400
  306SOL     MW 1224   1.140   1.517   0.302 -0.1942 -0.1064  0.1185
  307SOL     OW 1225   1.429   0.561   1.873 -0.4223  0.5368  0.5259
  307SOL    HW1 1226   1.401   0.484   1.927 -0.9020  0.1921 -0.4948
  307SOL    HW2 1227   1.477   0.609   1.944 -1.5077 -2.6723 -0.5765
  307SOL     MW 1228   1.432   0.557   1.890 -0.6288  0.0679  0.2458
  308SOL     OW 1229   2.263   0.585   2.719 -0.2975 -0.0138 -0.2168
  308SOL    HW1 1230   2.349   0.603   2.749 -0.4146  0.4901 -0.8532
  308SOL    HW2 1231   2.217   0.672   2.720  1.2905  0.5250  1.4489
  308SOL     MW 1232   2.268   0.599   2.723 -0.1034  0.1238 -0.0810
  309SOL     OW 1233   0.555   0.525   0.297  0.1018  0.1440  0.3296
  309SOL    HW1 1234   0.629   0.558   0.242 -0.7196 -3.0088 -2.2920
  309SOL    HW2 1235   0.542   0.437   0.258  0.8894  1.4079 -4.0604
  309SOL     MW 1236   0.563   0.518   0.285  0.0973 -0.1052 -0.5955
  310SOL     OW 1237   0.403   0.537   1.823 -0.1450  0.3855  0.1717
  310SOL    HW1 1238   0.415   0.510   1.731  1.8424 -1.2100  0.3760
  310SOL    HW2 1239   0.457   0.618   1.829  3.1479 -2.2039 -0.2510
  310SOL     MW 1240   0.412   0.544   1.812  0.5517 -0.1667  0.1429
  311SOL     OW 1241   1.994   0.708   1.907  0.0114 -0.3236  0.2987
  311SOL    HW1 1242   1.952   0.718   1.996  0.5512 -0.6776  0.4681
  311SOL    HW2 1243   2.052   0.630   1.922  1.6939 -2.9172  2.6840
  311SOL     MW 1244   1.996   0.699   1.921  0.3046 -0.7125  0.6358
  312SOL     OW 1245   1.767   2.428   0.161  0.2242 -1.0893  0.3277
  312SOL    HW1 1246   1.797   2.423   0.253  0.0498  0.9920  2.4736
  312SOL    HW2 1247   1.681   2.482   0.160 -0.3815 -1.7030  1.2470
  312SOL     MW 1248   1.760   2.434   0.173  0.1213 -0.8957  0.7321
  313SOL     OW 1249   0.063   1.146   3.061 -0.1590  0.1710 -0.5260
  313SOL    HW1 1250   0.037   1.188   3.142  0.4204 -1.1985 -1.0442
  313SOL    HW2 1251   0.100   1.214   3.000 -1.7866  2.2613 -1.7270
  313SOL     MW 1252   0.064   1.161   3.063 -0.2973  0.2661 -0.7528
  314SOL     OW 1253   2.225   2.872   3.069  0.0049 -0.1328 -0.1034
  314SOL    HW1 1254   2.150   2.911   3.017 -0.3933 -2.5941  1.7421
  314SOL    HW2 1255   2.275   2.938   3.099 -0.0896 -2.9326 -3.6695
  314SOL     MW 1256   2.222   2.886   3.066 -0.0601 -0.8270 -0.3304
  315SOL     OW 1257   1.520   1.861   3.024 -0.2707 -0.4722  0.0281
  315SOL    HW1 1258   1.473   1.919   3.081 -2.3812  0.8894  1.2910
  315SOL    HW2 1259   1.563   1.917   2.962  1.4102 -1.7801  1.5995
  315SOL     MW 1260   1.520   1.876   3.024 -0.3274 -0.4651  0.4020
  316SOL     OW 1261   1.213   0.691   2.697  0.0409 -0.1831 -0.6075
  316SOL    HW1 1262   1.291   0.713   2.743  1.0077  2.1719  2.1762
  316SOL    HW2 1263   1.154   0.668   2.768  1.7022  2.1514  0.4449
  316SOL     MW 1264   1.216   0.691   2.713  0.3876  0.4356 -0.1014
  317SOL     OW 1265   0.653   1.646   2.549 -0.5124  0.1215 -0.0523
  317SOL    HW1 1266   0.722   1.579   2.560  0.7222 -0.6265 -2.0766
  317SOL    HW2 1267   0.621   1.620   2.467  1.1793  0.5920 -4.2951
  317SOL     MW 1268   0.658   1.634   2.540 -0.1263  0.0849 -0.8792
  318SOL     OW 1269   1.362   0.395   2.854  0.4027 -0.1235 -0.2167
  318SOL    HW1 1270   1.294   0.453   2.827 -0.7196  1.2839 -0.8974
  318SOL    HW2 1271   1.444   0.436   2.835 -1.3518 -0.0895 -0.1663
  318SOL     MW 1272   1.364   0.408   2.848  0.0231  0.0667 -0.2999
  319SOL     OW 1273   0.829   0.486   2.868 -0.3453 -0.2377 -0.3569
  319SOL    HW1 1274   0.815   0.421   2.806  1.1482  2.5624  0.0477
  319SOL    HW2 1275   0.780   0.448   2.938  1.0805 -1.1359  0.8449
  319SOL     MW 1276   0.820   0.473   2.869  0.0399  0.0132 -0.1449
  320SOL     OW 1277   1.007   1.283   2.033 -0.1530 -0.1301  0.6516
  320SOL    HW1 1278   1.072   1.211   2.036  1.6575  0.4442  0.3958
  320SOL    HW2 1279   1.057   1.350   1.985 -1.0158  1.2825 -0.7903
  320SOL     MW 1280   1.022   1.282   2.027 -0.0279  0.1320  0.4276
  321SOL     OW 1281   1.017   0.948   3.018  0.0528 -0.3725  0.0583
  321SOL    HW1 1282   0.952   0.922   2.946  0.1764  2.3217 -0.7590
  321SOL    HW2 1283   1.071   0.877   3.053  1.5878  1.8257  1.9452
  321SOL     MW 1284   1.015   0.935   3.013  0.2716  0.2730  0.1994
  322SOL     OW 1285   1.320   0.877   1.643 -0.3310  0.4019 -0.3308
  322SOL    HW1 1286   1.387   0.810   1.649 -1.0270  2.3275  0.9076
  322SOL    HW2 1287   1.249   0.833   1.690  0.5086  1.2175  0.5171
  322SOL     MW 1288   1.319   0.863   1.650 -0.3121  0.7636 -0.0555
  323SOL     OW 1289   1.128   1.521   1.910 -0.4235 -0.1097 -0.1554
  323SOL    HW1 1290   1.204   1.482   1.868  1.0497  1.0806  3.3683
  323SOL    HW2 1291   1.109   1.603   1.859  1.9858  0.4554 -1.6407
  323SOL     MW 1292   1.136   1.527   1.897  0.0888  0.1219  0.1136
  324SOL     OW 1293   1.426   0.854   2.489  0.1428 -0.7673 -0.5718
  324SOL    HW1 1294   1.335   0.856   2.538 -3.1578  1.1096  0.6880
  324SOL    HW2 1295   1.481   0.928   2.517 -3.3833 -0.7834 -0.0997
  324SOL     MW 1296   1.421   0.864   2.499 -0.7579 -0.5218 -0.3433
  325SOL     OW 1297   1.098   0.543   2.904 -0.3298 -0.3204 -0.0826
  325SOL    HW1 1298   1.117   0.580   2.992  2.0699  0.5850  1.3451
  325SOL    HW2 1299   1.000   0.542   2.905 -2.3040 -1.4424 -1.6537
  325SOL     MW 1300   1.088   0.548   2.915 -0.2737 -0.3489 -0.1015
  326SOL     OW 1301   0.382   1.358   2.341  0.2595 -0.6106  0.2386
  326SOL    HW1 1302   0.476   1.365   2.316  1.7839  1.2586  1.6961
  326SOL    HW2 1303   0.356   1.448   2.352 -0.6459  0.4822 -2.2264
  326SOL     MW 1304   0.391   1.371   2.339  0.3412 -0.2198  0.1057
  327SOL     OW 1305   1.959   0.742   2.421 -0.1155 -0.0270 -0.1812
  327SOL    HW1 1306   1.911   0.704   2.496  1.0652 -0.9623  1.4442
  327SOL    HW2 1307   1.983   0.827   2.451 -0.5815 -0.9941  0.9397
  327SOL     MW 1308   1.956   0.749   2.435 -0.0212 -0.2780  0.1812
  328SOL     OW 1309   0.259   1.311   2.102  0.1245 -0.2877  0.0181
  328SOL    HW1 1310   0.212   1.233   2.118  0.9288  2.5636  0.5037
  328SOL    HW2 1311   0.315   1.313   2.179 -0.8522 -1.6828  2.5431
  328SOL     MW 1312   0.261   1.301   2.114  0.1017 -0.0956  0.4154
  329SOL     OW 1313   0.026   0.156   1.338  0.0726  0.2986  0.1804
  329SOL    HW1 1314  -0.030   0.137   1.420  1.4104  0.4688 -1.7228
  329SOL    HW2 1315   0.120   0.149   1.365 -0.3752 -3.6115 -3.6127
  329SOL     MW 1316   0.031   0.152   1.353  0.1900 -0.1948 -0.5712
  330SOL     OW 1317   0.338   0.082   1.961 -0.2334  0.8599 -0.4180
  330SOL    HW1 1318   0.434   0.092   1.963 -0.0052  2.7182 -0.2441
  330SOL    HW2 1319   0.313   0.014   2.024 -1.1053  2.0375 -0.1264
  330SOL     MW 1320   0.347   0.074   1.969 -0.3183  1.2605 -0.3566
  331SOL     OW 1321   0.814   1.204   2.424  0.0931  0.2351  0.7115
  331SOL    HW1 1322   0.735   1.237   2.367  1.0588 -2.5571 -1.5373
  331SOL    HW2 1323   0.820   1.288   2.487 -0.4897 -4.0131  1.5790
  331SOL     MW 1324   0.804   1.219   2.425  0.1436 -0.6938  0.5293
  332SOL     OW 1325   1.377   1.630   2.951  0.5380  0.0912  0.1332
  332SOL    HW1 1326   1.395   1.631   2.859  2.8379 -0.0927  1.0172
  332SOL    HW2 1327   1.385   1.724   2.978  0.1936  1.3235  0.2596
  332SOL     MW 1328   1.381   1.642   2.943  0.7960  0.2295  0.2665
  333SOL     OW 1329   1.714   1.380   2.908 -0.2594  0.8993 -0.6866
  333SOL    HW1 1330   1.812   1.381   2.911  0.7296  3.7811  3.3325
  333SOL    HW2 1331   1.678   1.326   2.984 -2.7107  0.7997  0.0285
  333SOL     MW 1332   1.722   1.373   2.918 -0.4523  1.2664 -0.0620
  334SOL     OW 1333   1.320   3.050   2.611 -0.2647 -0.0511 -0.1610
  334SOL    HW1 1334   1.239   3.042   2.657 -2.7393  2.4449  0.6728
  334SOL    HW2 1335   1.376   3.110   2.666 -1.8784 -1.6433  1.2056
  334SOL     MW 1336   1.317   3.057   2.624 -0.8041  0.0681  0.1293
  335SOL     OW 1337   1.259   0.800   3.046 -0.2957  0.4973  0.3645
  335SOL    HW1 1338   1.307   0.757   3.126  0.8263 -0.0541 -2.8109
  335SOL    HW2 1339   1.324   0.786   2.972  2.3810 -0.7674  0.6191
  335SOL     MW 1340   1.274   0.792   3.047  0.2055  0.2577 -0.0209
  336SOL     OW 1341   0.872   1.116   1.700 -0.4105  0.3556 -0.7985
  336SOL    HW1 1342   0.791   1.147   1.745 -0.8791  0.1335  2.4631
  336SOL    HW2 1343   0.927   1.063   1.762  1.7252 -1.3324  1.5954
  336SOL     MW 1344   0.868   1.113   1.714 -0.1905  0.1035 -0.0523
  337SOL     OW 1345   0.529   1.922   2.870 -0.1910 -0.2240 -0.2001
  337SOL    HW1 1346   0.475   1.939   2.793 -0.8023  1.3089  0.6827
  337SOL    HW2 1347   0.610   1.882   2.843  0.9854  0.2995  0.2189
  337SOL     MW 1348   0.532   1.919   2.857 -0.1165  0.0473 -0.0283
  338SOL     OW 1349   1.133   0.781   2.461 -0.0281  0.3173  0.0465
  338SOL    HW1 1350   1.042   0.746   2.456  3.3563  0.3777 -1.5155
  338SOL    HW2 1351   1.164   0.736   2.540  0.6952  1.1830 -1.8292
  338SOL     MW 1352   1.125   0.771   2.470  0.5139  0.4395 -0.4071
  339SOL     OW 1353   1.321   1.264   1.956 -0.5728 -0.7288  0.7632
  339SOL    HW1 1354   1.320   1.221   1.869 -2.9543  0.7943 -0.5111
  339SOL    HW2 1355   1.274   1.202   2.009  1.0011  0.7878  0.8762
  339SOL     MW 1356   1.315   1.250   1.951 -0.6793 -0.3278  0.6100
  340SOL     OW 1357   1.340   1.545   0.110  0.2410 -0.1860  0.5759
  340SOL    HW1 1358   1.358   1.559   0.009 -1.9004  2.1634 -1.3183
  340SOL    HW2 1359   1.394   1.470   0.138  0.1620 -1.6111 -1.4945
  340SOL     MW 1360   1.350   1.537   0.101 -0.0519 -0.0640  0.0528
  341SOL     OW 1361   0.073   1.401   2.843 -0.5207  0.1218 -0.0253
  341SOL    HW1 1362   0.168   1.374   2.868  1.7320 -4.1549  1.5361
  341SOL    HW2 1363   0.066   1.396   2.749 -1.8240  2.3321 -0.7325
  341SOL     MW 1364   0.085   1.396   2.834 -0.3954 -0.1509  0.0874
  342SOL     OW 1365   1.371   0.351   0.036 -0.4857  0.1288  0.2698
  342SOL    HW1 1366   1.436   0.396   0.092  0.5551  2.7883  2.6467
  342SOL    HW2 1367   1.396   0.368  -0.055  1.2479 -0.2031  1.3116
  342SOL     MW 1368   1.383   0.359   0.031 -0.1196  0.4359  0.7209
  343SOL     OW 1369   0.240   0.298   2.093  0.1997 -0.1641 -0.1465
  343SOL    HW1 1370   0.283   0.229   2.040 -0.9176 -1.5828 -2.4536
  343SOL    HW2 1371   0.143   0.285   2.085 -0.4664 -0.6057 -2.6151
  343SOL     MW 1372   0.233   0.287   2.085 -0.0356 -0.4096 -0.7766
  344SOL     OW 1373   1.671   2.065   0.185 -0.1131  0.7633 -0.1703
  344SOL    HW1 1374   1.710   2.092   0.097  2.7227 -0.6307 -2.2540
  344SOL    HW2 1375   1.590   2.107   0.190 -2.6699  3.8431 -0.6440
  344SOL     MW 1376   1.665   2.074   0.174 -0.0763  0.9857 -0.5077
  345SOL     OW 1377   0.614   1.572   2.276 -0.1806  0.2882 -0.3245
  345SOL    HW1 1378   0.572   1.658   2.272 -1.0573 -0.7925  0.2362
  345SOL    HW2 1379   0.674   1.572   2.203 -2.2686  0.9061  0.4155
  345SOL     MW 1380   0.616   1.583   2.266 -0.5717  0.2271 -0.1528
  346SOL     OW 1381   1.661   1.195   0.033 -0.3925 -0.3107 -0.2329
  346SOL    HW1 1382   1.728   1.250   0.073 -4.1980 -0.3524 -0.3975
  346SOL    HW2 1383   1.652   1.121   0.087  3.1367 -2.4862 -2.0825
  346SOL     MW 1384   1.669   1.193   0.045 -0.4289 -0.6032 -0.4987
  347SOL     OW 1385   1.247   0.737   2.199 -0.0822  0.4411  0.3049
  347SOL    HW1 1386   1.283   0.653   2.219  0.9583  0.2471 -0.5743
  347SOL    HW2 1387   1.217   0.766   2.285  0.0829 -1.1617 -1.3572
  347SOL     MW 1388   1.248   0.730   2.213  0.0769  0.2040 -0.0304
  348SOL     OW 1389   1.289   2.531   1.942 -0.3625  0.5822 -0.0917
  348SOL    HW1 1390   1.309   2.472   2.021 -0.2317 -3.5850  0.4659
  348SOL    HW2 1391   1.326   2.610   1.970  0.2429 -2.9990  0.4179
  348SOL     MW 1392   1.297   2.533   1.956 -0.2654 -0.4401  0.0491
  349SOL     OW 1393   1.442   0.118   2.775 -0.0678 -0.0626 -0.5230
  349SOL    HW1 1394   1.393   0.199   2.809  1.3206 -2.7958  2.3329
  349SOL    HW2 1395   1.501   0.096   2.843 -1.1853 -2.6388  0.0644
  349SOL     MW 1396   1.444   0.126   2.788 -0.0320 -0.7631 -0.0687
  350SOL     OW 1397   1.884   0.610   2.660  0.1404  0.3847  0.1969
  350SOL    HW1 1398   1.823   0.556   2.607 -3.0071  0.2587 -0.5618
  350SOL    HW2 1399   1.930   0.546   2.726 -0.3616  1.9514  2.4853
  350SOL     MW 1400   1.882   0.595   2.662 -0.3411  0.5748  0.3987
  351SOL     OW 1401   0.144   1.121   1.552  0.7595 -0.8981  0.5600
  351SOL    HW1 1402   0.120   1.049   1.612  1.2113 -1.8269  0.1657
  351SOL    HW2 1403   0.153   1.199   1.606  1.4491  0.4943 -1.6967
  351SOL     MW 1404   0.142   1.122   1.567  0.9101 -0.8370  0.2103
  352SOL     OW 1405   0.768   1.794   2.819  0.5239 -0.0929 -0.3505
  352SOL    HW1 1406   0.785   1.759   2.909  1.6180  2.0606  0.3499
  352SOL    HW2 1407   0.736   1.723   2.764  0.1055  0.8589 -0.5896
  352SOL     MW 1408   0.766   1.780   2.824  0.6131  0.3168 -0.2896
  353SOL     OW 1409   3.088   2.554   2.683 -0.0550 -0.8702  0.1769
  353SOL    HW1 1410   3.147   2.483   2.655  0.4297  0.8171 -2.0187
  353SOL    HW2 1411   3.110   2.613   2.607  1.2289  2.5324  0.6564
  353SOL     MW 1412   3.099   2.552   2.669  0.1784 -0.1987 -0.0495
  354SOL     OW 1413   0.342   2.430   0.809  0.3603  0.3992  0.2005
  354SOL    HW1 1414   0.409   2.375   0.851  1.4804  1.0657  4.2534
  354SOL    HW2 1415   0.262   2.377   0.827 -0.4602  1.1102  1.1023
  354SOL     MW 1416   0.340   2.416   0.817  0.3998  0.5809  0.8542
  355SOL     OW 1417   0.114   2.263   0.362  0.3227  0.0522 -0.4365
  355SOL    HW1 1418   0.028   2.219   0.361 -1.0159  2.0202  1.7450
  355SOL    HW2 1419   0.122   2.316   0.436 -2.5239  0.6191  0.8028
  355SOL     MW 1420   0.103   2.264   0.372 -0.2295  0.3866  0.0148
  356SOL     OW 1421   0.755   2.949   0.999  0.2196 -0.4251  0.2544
  356SOL    HW1 1422   0.832   2.972   0.942  0.2070  4.3410 -0.4862
  356SOL    HW2 1423   0.697   2.897   0.945  2.1801 -0.0330  2.4665
  356SOL     MW 1424   0.758   2.945   0.984  0.4766  0.2554  0.4486
  357SOL     OW 1425   1.883   2.813   0.435 -0.0716  0.0636 -0.2136
  357SOL    HW1 1426   1.841   2.793   0.517  1.2851  0.9970  0.4701
  357SOL    HW2 1427   1.968   2.770   0.445  0.4482  0.2709 -0.7484
  357SOL     MW 1428   1.889   2.804   0.447  0.1760  0.2141 -0.1939
  358SOL     OW 1429   0.378   0.120   1.021 -0.5164  0.4061 -0.7652
  358SOL    HW1 1430   0.478   0.118   1.024  1.0292 -1.9268  0.4683
  358SOL    HW2 1431   0.350   0.152   0.936 -1.9469  0.6607 -0.8618
  358SOL     MW 1432   0.387   0.124   1.010 -0.5012  0.1319 -0.6152
  359SOL     OW 1433   0.904   2.937   1.913 -0.3879  0.3122  0.0173
  359SOL    HW1 1434   0.886   2.842   1.927  0.3286 -1.3822 -0.4392
  359SOL    HW2 1435   0.899   2.943   1.814 -2.3437 -0.2823  1.8425
  359SOL     MW 1436   0.901   2.926   1.902 -0.5514  0.0102  0.1979
  360SOL     OW 1437   0.560   2.760   0.898  0.0616  0.1077 -0.4928
  360SOL    HW1 1438   0.609   2.746   0.818  1.2350  1.6845  0.9221
  360SOL    HW2 1439   0.582   2.689   0.955 -2.5686  0.2223  1.4956
  360SOL     MW 1440   0.570   2.749   0.895 -0.1306  0.3309 -0.0438
  361SOL     OW 1441   0.104   2.719   1.335 -0.4341 -0.1009 -0.1496
  361SOL    HW1 1442   0.057   2.744   1.413 -0.9702  1.5354  2.8889
  361SOL    HW2 1443   0.194   2.748   1.352  1.6790  0.5491 -1.6184
  361SOL     MW 1444   0.110   2.726   1.348 -0.2261  0.2007  0.0575
  362SOL     OW 1445   1.407   2.421   0.581  0.4008  0.0772 -0.3850
  362SOL    HW1 1446   1.432   2.353   0.648 -1.7772 -1.3099 -0.0481
  362SOL    HW2 1447   1.469   2.499   0.584  1.8395  0.9005 -1.2951
  362SOL     MW 1448   1.419   2.422   0.590  0.3032  0.0028 -0.4606
  363SOL     OW 1449   0.341   3.096   0.648  0.2762 -0.5513  0.4689
  363SOL    HW1 1450   0.342   3.054   0.731 -0.9443  0.7914  1.5299
  363SOL    HW2 1451   0.257   3.073   0.613  1.6274  1.2418 -2.1249
  363SOL     MW 1452   0.330   3.087   0.654  0.2934 -0.1375  0.2667
  364SOL     OW 1453   0.789   0.254   0.156  0.0726  0.5593 -0.5714
  364SOL    HW1 1454   0.733   0.177   0.185 -2.4738 -0.3198  0.7001
  364SOL    HW2 1455   0.735   0.307   0.099  1.7232 -1.0940  0.9328
  364SOL     MW 1456   0.774   0.251   0.153 -0.0456  0.2252 -0.2052
  365SOL     OW 1457   0.890   1.998   1.293  0.6811  0.5844 -0.5381
  365SOL    HW1 1458   0.859   2.076   1.238 -1.6913 -0.3494  0.2191
  365SOL    HW2 1459   0.855   1.922   1.240  1.1119  2.8431  0.3899
  365SOL     MW 1460   0.881   1.999   1.279  0.4249  0.7592 -0.3157
  366SOL     OW 1461   2.876   2.644   0.970  0.1478 -0.1719  0.0184
  366SOL    HW1 1462   2.961   2.628   1.023 -0.9912 -2.1592 -2.2120
  366SOL    HW2 1463   2.905   2.648   0.880  2.4654 -1.3477  0.9727
  366SOL     MW 1464   2.891   2.643   0.965  0.3033 -0.5892 -0.1500
  367SOL     OW 1465   1.319   3.065   0.991 -0.4719 -0.0074  0.1962
  367SOL    HW1 1466   1.408   3.070   1.012 -2.4326 -0.2400 -0.8555
  367SOL    HW2 1467   1.330   3.072   0.897 -1.4226  1.1538  3.2867
  367SOL     MW 1468   1.332   3.066   0.981 -0.8561  0.1151  0.4652
  368SOL     OW 1469   1.750   0.370   0.589  0.3644  0.4593 -0.1621
  368SOL    HW1 1470   1.804   0.315   0.534  2.7268  0.8690 -1.1505
  368SOL    HW2 1471   1.758   0.455   0.559  1.9930  0.3523  0.1712
  368SOL     MW 1472   1.758   0.374   0.578  0.8910  0.4992 -0.2485
  369SOL     OW 1473   0.179   2.452   1.769  0.8254  0.2053  0.1365
  369SOL    HW1 1474   0.275   2.442   1.771 -1.3883 -1.2612  1.5793
  369SOL    HW2 1475   0.158   2.544   1.754  0.6972 -0.7128 -0.4297
  369SOL     MW 1476   0.189   2.463   1.767  0.5164 -0.1093  0.2522
  370SOL     OW 1477   0.665   0.132   1.054 -0.2404 -0.4038 -0.1135
  370SOL    HW1 1478   0.714   0.160   0.972  2.7363  2.6291  1.3972
  370SOL    HW2 1479   0.690   0.041   1.060  1.3654 -0.5300 -3.8536
  370SOL     MW 1480   0.674   0.124   1.044  0.3642 -0.0203 -0.4077
  371SOL     OW 1481   1.109   2.899   1.489  0.2355 -0.2786 -0.4843
  371SOL    HW1 1482   1.151   2.824   1.446 -1.9207 -0.5599  0.3444
  371SOL    HW2 1483   1.115   2.977   1.436  0.1864  1.7024  0.3992
  371SOL     MW 1484   1.115   2.899   1.476 -0.0555 -0.0543 -0.2584
  372SOL     OW 1485   0.824   2.294   0.470  0.4044  0.0988  0.5272
  372SOL    HW1 1486   0.799   2.217   0.525 -0.0984  1.6592  1.3354
  372SOL    HW2 1487   0.847   2.269   0.379  0.4234 -0.2099  0.5297
  372SOL     MW 1488   0.824   2.281   0.465  0.3406  0.2639  0.6342
  373SOL     OW 1489   2.794   2.961   1.400  0.1847 -0.1145  0.0156
  373SOL    HW1 1490   2.891   2.952   1.389  0.9412 -1.5375 -0.1173
  373SOL    HW2 1491   2.769   3.036   1.350  2.0880 -1.3676  0.7934
  373SOL     MW 1492   2.803   2.970   1.392  0.5356 -0.4676  0.1007
  374SOL     OW 1493   1.560   0.449   0.215 -0.3907 -0.0034 -0.6711
  374SOL    HW1 1494   1.656   0.436   0.209 -0.7311 -0.3719 -1.2678
  374SOL    HW2 1495   1.533   0.407   0.292  0.4415 -2.2580  0.2137
  374SOL     MW 1496   1.569   0.442   0.224 -0.3258 -0.3495 -0.6331
  375SOL     OW 1497   1.094   2.008   2.174 -0.0789 -0.2698  0.3429
  375SOL    HW1 1498   1.096   2.025   2.265  1.5969  1.2650 -1.8601
  375SOL    HW2 1499   1.004   1.974   2.151  0.5499  0.4836  1.7609
  375SOL     MW 1500   1.082   2.005   2.183  0.2252  0.0321  0.2393
  376SOL     OW 1501   0.811   2.535   0.096 -0.6943  0.0755  0.1176
  376SOL    HW1 1502   0.780   2.462   0.165 -2.1718 -0.9551  1.8207
  376SOL    HW2 1503   0.817   2.484   0.014  0.0924 -0.3054 -2.2383
  376SOL     MW 1504   0.808   2.519   0.094 -0.7855 -0.1107  0.0315
  377SOL     OW 1505   1.322   2.087   0.973 -0.4731 -0.1405  0.0013
  377SOL    HW1 1506   1.258   2.074   0.904 -0.1336 -0.6518 -1.1980
  377SOL    HW2 1507   1.266   2.064   1.055  0.8289  2.0247  2.0187
  377SOL     MW 1508   1.306   2.082   0.974 -0.2566  0.0777  0.1093
  378SOL     OW 1509   0.860   2.861   1.625 -0.0752  0.2892  0.9178
  378SOL    HW1 1510   0.854   2.766   1.626 -1.2055  2.3890  0.9370
  378SOL    HW2 1511   0.935   2.886   1.568 -0.4200 -0.3169 -3.8270
  378SOL     MW 1512   0.869   2.852   1.617 -0.2698  0.4863  0.2943
  379SOL     OW 1513   1.047   1.541   2.337 -0.3522 -0.1928  0.2874
  379SOL    HW1 1514   0.981   1.536   2.267 -1.9838 -0.2811  0.1112
  379SOL    HW2 1515   1.119   1.544   2.277 -0.9364 -3.5337  2.3470
  379SOL     MW 1516   1.048   1.541   2.320 -0.6446 -0.6453  0.5359
  380SOL     OW 1517   0.924   0.175   1.525  0.2334  0.5990 -0.4094
  380SOL    HW1 1518   0.920   0.087   1.481 -1.8629 -0.6596 -1.0777
  380SOL    HW2 1519   0.976   0.151   1.606  0.4764  0.0200  1.4430
  380SOL     MW 1520   0.930   0.160   1.530 -0.0111  0.3565 -0.2532
  381SOL     OW 1521   0.833   2.052   0.890 -0.5516 -0.4680  0.2287
  381SOL    HW1 1522   0.925   2.044   0.855 -0.2768 -0.0191  3.4241
  381SOL    HW2 1523   0.832   2.117   0.957  0.3814 -0.3750 -0.1687
  381SOL     MW 1524   0.845   2.059   0.894 -0.3922 -0.3965  0.5979
  382SOL     OW 1525   0.838   0.098   0.625  0.0068 -0.2692  0.9104
  382SOL    HW1 1526   0.835   0.124   0.717  0.3314  1.5481 -0.6276
  382SOL    HW2 1527   0.792   0.009   0.622 -2.8290 -2.0302  0.5014
  382SOL     MW 1528   0.831   0.089   0.636 -0.3245 -0.2618  0.6535
  383SOL     OW 1529   0.669   0.029   0.245 -0.3579 -0.0421 -0.5564
  383SOL    HW1 1530   0.702  -0.052   0.207  2.8365 -0.4629 -0.8409
  383SOL    HW2 1531   0.618   0.002   0.318  2.6507  2.8347 -1.0905
  383SOL     MW 1532   0.667   0.015   0.250  0.4605  0.2820 -0.6644
  384SOL     OW 1533   0.803   2.939   0.645  0.1332 -0.5106  1.0664
  384SOL    HW1 1534   0.868   2.948   0.719  0.7000  1.2983 -1.7344
  384SOL    HW2 1535   0.782   2.844   0.647  1.4674 -1.2492 -0.2729
  384SOL     MW 1536   0.809   2.928   0.655  0.3840 -0.3694  0.5202
  385SOL     OW 1537   1.372   2.043   1.576 -0.7314 -0.0612  0.0631
  385SOL    HW1 1538   1.452   2.060   1.631  1.2838  2.3576  3.1224
  385SOL    HW2 1539   1.347   1.956   1.615 -1.0767 -1.9043  0.3399
  385SOL     MW 1540   1.379   2.034   1.589 -0.5111  0.0148  0.5032
  386SOL     OW 1541   1.486   0.406   0.883  0.5213  0.1385  0.8375
  386SOL    HW1 1542   1.448   0.456   0.957  0.9069  0.8784 -0.6363
  386SOL    HW2 1543   1.582   0.389   0.889 -0.1506 -0.6270 -2.5132
  386SOL     MW 1544   1.494   0.411   0.893  0.4835  0.1352  0.2010
  387SOL     OW 1545   0.821   2.278   1.564 -0.4828  0.0855 -0.6418
  387SOL    HW1 1546   0.902   2.327   1.525  1.1992  1.6071  0.1262
  387SOL    HW2 1547   0.836   2.179   1.546  0.4853  1.2448  0.9367
  387SOL     MW 1548   0.834   2.271   1.557 -0.1332  0.4392 -0.3322
  388SOL     OW 1549   1.509   2.782   1.540 -0.2943  0.1576 -0.2594
  388SOL    HW1 1550   1.465   2.840   1.477 -1.2219  1.1454 -1.7733
  388SOL    HW2 1551   1.581   2.738   1.491  0.7733 -0.8439  1.1743
  388SOL     MW 1552   1.512   2.784   1.525 -0.2759  0.1558 -0.2700
  389SOL     OW 1553   0.412   0.115   3.050  0.0994 -0.0079  0.0660
  389SOL    HW1 1554   0.482   0.049   3.022  2.0908 -1.5024 -1.1876
  389SOL    HW2 1555   0.413   0.186   2.980 -0.4289 -0.5185 -0.1799
  389SOL     MW 1556   0.421   0.115   3.037  0.2925 -0.2724 -0.1318
  390SOL     OW 1557   1.350   3.080   0.705  0.2414 -0.0772 -0.7753
  390SOL    HW1 1558   1.330   3.027   0.627 -1.5245  3.3812 -0.7557
  390SOL    HW2 1559   1.439   3.095   0.702 -3.5139 -1.0720 -1.3597
  390SOL     MW 1560   1.359   3.075   0.695 -0.4871  0.2478 -0.8499
  391SOL     OW 1561   0.320   2.178   1.509  0.3023  0.9780 -0.1913
  391SOL    HW1 1562   0.307   2.159   1.601 -2.9959  3.2826 -1.5851
  391SOL    HW2 1563   0.257   2.256   1.504  0.0762 -0.3978  0.4195
  391SOL     MW 1564   0.310   2.186   1.520 -0.1627  1.1006 -0.2946
  392SOL     OW 1565   1.954   2.092   0.292 -0.3497  0.4969 -0.4515
  392SOL    HW1 1566   1.990   2.170   0.342 -1.1825 -0.6432  1.3476
  392SOL    HW2 1567   1.856   2.110   0.286  0.3596 -0.3432  2.7547
  392SOL     MW 1568   1.946   2.105   0.298 -0.3660  0.2357  0.2089
  393SOL     OW 1569   0.258   2.960   2.795 -0.3599  0.1571 -0.2403
  393SOL    HW1 1570   0.328   2.952   2.735 -2.9667  0.5748  0.1350
  393SOL    HW2 1571   0.240   3.055   2.805  1.7755  0.4093  3.2236
  393SOL     MW 1572   0.265   2.971   2.788 -0.4221  0.2455  0.2662
  394SOL     OW 1573   0.959   1.769   1.631  0.3041 -0.4461 -0.0077
  394SOL    HW1 1574   0.981   1.777   1.724 -0.1225  0.7620  2.4488
  394SOL    HW2 1575   0.906   1.847   1.612  1.4206  1.7038  0.9925
  394SOL     MW 1576   0.955   1.780   1.641  0.3951 -0.0030  0.4484
  395SOL     OW 1577   0.954   2.952   2.705 -0.3765 -0.0777 -0.2102
  395SOL    HW1 1578   1.001   3.023   2.763 -1.1289 -2.0497 -0.6550
  395SOL    HW2 1579   1.015   2.884   2.678  0.9556 -1.3886  0.9722
  395SOL     MW 1580   0.968   2.953   2.709 -0.3000 -0.5108 -0.1129
  396SOL     OW 1581   0.724   1.906   2.408  0.5886 -0.6015  0.7437
  396SOL    HW1 1582   0.808   1.902   2.460  1.0919  0.8463  1.5655
  396SOL    HW2 1583   0.668   1.846   2.455  3.9495 -2.0282  2.5494
  396SOL     MW 1584   0.728   1.898   2.421  1.0984 -0.5987  1.0904
  397SOL     OW 1585   1.054   2.311   1.417  0.0827  0.1242  0.1007
  397SOL    HW1 1586   1.083   2.339   1.331  0.7370  2.4762  0.2476
  397SOL    HW2 1587   1.141   2.276   1.443 -1.6093  1.3020  0.1495
  397SOL     MW 1588   1.069   2.310   1.409 -0.0542  0.5900  0.1265
  398SOL     OW 1589   0.714   2.699   0.674  0.7457 -0.1504  0.6973
  398SOL    HW1 1590   0.630   2.681   0.629  1.5260 -1.2655  4.1190
  398SOL    HW2 1591   0.762   2.616   0.687  0.1316  0.8261 -1.9915
  398SOL     MW 1592   0.709   2.685   0.670  0.7676 -0.1687  0.7940
  399SOL     OW 1593   0.309   2.095   0.375  0.0901  0.8724 -0.5420
  399SOL    HW1 1594   0.231   2.152   0.369 -0.9997  3.0587 -2.5328
  399SOL    HW2 1595   0.367   2.135   0.316  0.5205 -0.1509  2.0436
  399SOL     MW 1596   0.306   2.108   0.367  0.0031  1.0258 -0.4635
  400SOL     OW 1597   0.602   1.959   0.147  0.2376  0.0600  0.3736
  400SOL    HW1 1598   0.556   2.044   0.168 -0.0927 -0.7146 -1.5708
  400SOL    HW2 1599   0.558   1.903   0.215  0.4983 -3.0159  1.0273
  400SOL     MW 1600   0.590   1.963   0.159  0.2284 -0.4480  0.2033
  401SOL     OW 1601   0.842   2.020   0.017  0.4593  0.9515  0.1916
  401SOL    HW1 1602   0.914   1.963   0.042 -1.5226 -2.0821  2.0269
  401SOL    HW2 1603   0.763   1.996   0.073 -0.1976 -2.7308  1.8794
  401SOL     MW 1604   0.841   2.010   0.028  0.1111  0.0654  0.6565
  402SOL     OW 1605   0.579   3.036   1.866 -0.1851  0.3554 -0.1117
  402SOL    HW1 1606   0.648   2.974   1.855  0.4002  0.4502 -0.2630
  402SOL    HW2 1607   0.606   3.109   1.802  4.1323 -0.2815  1.0672
  402SOL     MW 1608   0.592   3.038   1.856  0.4618  0.2838  0.0239
  403SOL     OW 1609   0.138   0.508   0.444  0.5084  0.3365  0.2174
  403SOL    HW1 1610   0.226   0.524   0.476 -3.3958 -1.0316  1.0244
  403SOL    HW2 1611   0.145   0.458   0.366 -2.1786  0.6417  0.2467
  403SOL     MW 1612   0.150   0.503   0.438 -0.3612  0.1963  0.3277
  404SOL     OW 1613   0.999   2.985   0.833  0.6322  0.1434  0.1890
  404SOL    HW1 1614   1.067   2.917   0.832  0.1182  1.3455 -0.5076
  404SOL    HW2 1615   1.043   3.062   0.783  2.7392 -1.7271 -1.6573
  404SOL     MW 1616   1.014   2.986   0.827  0.8424  0.0552 -0.1465
  405SOL     OW 1617   0.504   2.512   1.489 -0.1922 -0.4132  0.1127
  405SOL    HW1 1618   0.544   2.588   1.455 -3.8229 -0.5187 -0.8962
  405SOL    HW2 1619   0.545   2.438   1.449 -1.9110  1.2535 -0.8744
  405SOL     MW 1620   0.515   2.512   1.479 -0.8980 -0.2072 -0.1507
  406SOL     OW 1621   0.420   2.321   1.059  0.2463  0.0597 -0.4819
  406SOL    HW1 1622   0.324   2.344   1.081 -0.5786  0.3733  2.4960
  406SOL    HW2 1623   0.443   2.249   1.117 -1.9899 -0.7875 -2.9462
  406SOL     MW 1624   0.411   2.314   1.069 -0.1576 -0.0107 -0.4142
  407SOL     OW 1625   0.016   2.618   1.062 -0.4026 -0.1220 -0.7677
  407SOL    HW1 1626   0.047   2.655   1.144 -1.8392  0.1172  0.6217
  407SOL    HW2 1627   0.072   2.645   0.986 -1.3923  3.2356 -0.5921
  407SOL     MW 1628   0.027   2.626   1.063 -0.7227  0.3526 -0.5612
  408SOL     OW 1629   2.106   2.202   0.715  0.0456  0.7877  0.1248
  408SOL    HW1 1630   2.089   2.205   0.811 -0.1967  1.1467  0.0716
  408SOL    HW2 1631   2.039   2.146   0.672 -1.3634 -1.2893  1.7463
  408SOL     MW 1632   2.095   2.195   0.722 -0.1723  0.5610  0.3317
  409SOL     OW 1633   1.625   0.063   0.822  0.1778  0.0477 -0.4053
  409SOL    HW1 1634   1.657   0.152   0.806 -0.9296  0.6360 -0.0857
  409SOL    HW2 1635   1.640   0.051   0.920  2.1928 -0.6724  1.9351
  409SOL     MW 1636   1.631   0.073   0.833  0.2975  0.0303 -0.0544
  410SOL     OW 1637   1.101   2.453   1.186  0.3653  0.2321 -0.1334
  410SOL    HW1 1638   1.036   2.458   1.120 -0.4576 -0.8131  0.0460
  410SOL    HW2 1639   1.174   2.404   1.151 -0.7817  1.0668 -0.3834
  410SOL     MW 1640   1.102   2.447   1.173  0.1054  0.2043 -0.1427
  411SOL     OW 1641   1.988   2.944   2.946 -0.1501  0.4129 -0.2585
  411SOL    HW1 1642   2.006   2.946   2.850  2.5461  1.5554  1.7341
  411SOL    HW2 1643   1.963   3.034   2.974  2.1690  0.2933 -0.6309
  411SOL     MW 1644   1.987   2.956   2.937  0.5116  0.5479 -0.0448
  412SOL     OW 1645   1.090   2.255   0.643  0.8004  0.0598  0.4430
  412SOL    HW1 1646   1.119   2.329   0.698  2.0003 -1.9383  1.6805
  412SOL    HW2 1647   1.000   2.292   0.623 -0.3081  2.2395  2.2251
  412SOL     MW 1648   1.082   2.270   0.648  0.8125  0.0838  0.8414
  413SOL     OW 1649   0.591   2.672   0.067 -0.5429 -0.0848  0.7626
  413SOL    HW1 1650   0.672   2.621   0.088 -1.6447  2.1716 -1.3249
  413SOL    HW2 1651   0.588   2.689  -0.027 -0.4351 -2.2953 -0.7002
  413SOL     MW 1652   0.602   2.667   0.057 -0.6740 -0.0787  0.2941
  414SOL     OW 1653   2.071   3.015   1.089  0.3509  0.5102 -0.1214
  414SOL    HW1 1654   2.089   3.107   1.109  2.8192 -1.6577  0.1186
  414SOL    HW2 1655   2.090   3.011   0.996 -3.0220  2.3624 -0.0033
  414SOL     MW 1656   2.076   3.026   1.080  0.2315  0.4686 -0.0742
  415SOL     OW 1657   1.661   2.840   1.183  0.0696  0.0480  0.7213
  415SOL    HW1 1658   1.731   2.860   1.250 -0.4639 -1.1260  1.9997
  415SOL    HW2 1659   1.702   2.776   1.116 -1.4074 -1.1484 -0.5270
  415SOL     MW 1660   1.675   2.834   1.183 -0.1957 -0.2647  0.7253
  416SOL     OW 1661   0.681   1.755   1.437  0.1673 -0.4188  0.6131
  416SOL    HW1 1662   0.584   1.769   1.410 -0.5702 -0.8170 -0.3011
  416SOL    HW2 1663   0.708   1.660   1.435  2.9728 -2.3415 -2.4337
  416SOL     MW 1664   0.672   1.744   1.433  0.4402 -0.7250  0.0905
  417SOL     OW 1665   0.937   0.077   2.096  0.2603  0.6512 -0.0641
  417SOL    HW1 1666   0.873   0.069   2.163  0.4850 -0.6593  0.8711
  417SOL    HW2 1667   0.911  -0.000   2.047  0.0666 -2.5170 -0.9342
  417SOL     MW 1668   0.925   0.066   2.098  0.2644  0.0603 -0.0555
  418SOL     OW 1669   0.750   2.857   0.179 -0.0398  0.2561 -0.7172
  418SOL    HW1 1670   0.810   2.828   0.109 -2.3995 -1.1866 -0.0936
  418SOL    HW2 1671   0.681   2.799   0.153  2.1488  0.8667  2.2326
  418SOL     MW 1672   0.748   2.846   0.166 -0.0624  0.1463 -0.2457
  419SOL     OW 1673   0.630   2.698   1.327 -0.2026  0.5175 -1.0507
  419SOL    HW1 1674   0.646   2.780   1.372 -0.9980 -0.3516  2.0047
  419SOL    HW2 1675   0.717   2.662   1.322 -3.9678 -1.9923  0.1561
  419SOL     MW 1676   0.644   2.704   1.332 -0.8043  0.0717 -0.4883
  420SOL     OW 1677   0.825   2.231   1.151  0.1139 -0.1707  0.1332
  420SOL    HW1 1678   0.768   2.265   1.220  2.5483 -0.1559 -0.8981
  420SOL    HW2 1679   0.828   2.297   1.085 -1.9069 -1.6162 -0.6512
  420SOL     MW 1680   0.818   2.244   1.152  0.1685 -0.3595 -0.1064
  421SOL     OW 1681   2.918   0.124   0.056  0.0330 -0.2076 -0.2498
  421SOL    HW1 1682   2.829   0.089   0.044  0.1677  2.4648 -0.4850
  421SOL    HW2 1683   2.985   0.069   0.028 -3.5429  3.3032 -2.2537
  421SOL     MW 1684   2.915   0.112   0.051 -0.4210  0.6082 -0.5452
  422SOL     OW 1685   0.887   2.452   0.968 -0.4770  0.2262  0.1793
  422SOL    HW1 1686   0.802   2.491   0.983 -2.9776 -0.3038 -2.0585
  422SOL    HW2 1687   0.892   2.440   0.875  1.6630 -0.2917  1.7013
  422SOL     MW 1688   0.876   2.456   0.958 -0.5245  0.0879  0.0849
  423SOL     OW 1689   1.576   0.059   0.475  0.1273  0.4043 -0.6674
  423SOL    HW1 1690   1.594   0.041   0.385  3.9490 -0.6589 -0.3208
  423SOL    HW2 1691   1.550   0.148   0.484 -0.1860 -0.1081 -0.7180
  423SOL     MW 1692   1.575   0.068   0.465  0.5902  0.1964 -0.6283
  424SOL     OW 1693   0.659   2.316   1.355  0.0746  0.1175  0.6725
  424SOL    HW1 1694   0.594   2.245   1.341  1.7456 -0.0303 -2.4725
  424SOL    HW2 1695   0.705   2.303   1.443 -1.3062  0.5304  1.6395
  424SOL     MW 1696   0.656   2.305   1.364  0.1129  0.1524  0.3852
  425SOL     OW 1697   1.747   2.809   2.035  0.2145 -0.1489  0.1436
  425SOL    HW1 1698   1.764   2.834   1.941  2.4391 -0.4974  0.1888
  425SOL    HW2 1699   1.763   2.713   2.031 -0.0300 -1.8897 -3.9079
  425SOL     MW 1700   1.751   2.799   2.022  0.4757 -0.4245 -0.3850
  426SOL     OW 1701   0.819   1.755   1.945 -0.7688 -0.0432 -0.1418
  426SOL    HW1 1702   0.748   1.765   1.879  0.6540  1.6242  1.2934
  426SOL    HW2 1703   0.806   1.839   1.980  0.4519  1.9085 -1.9667
  426SOL     MW 1704   0.808   1.767   1.941 -0.4200  0.4343 -0.1932
  427SOL     OW 1705   0.400   1.769   1.883 -0.1810 -0.2032  0.0664
  427SOL    HW1 1706   0.464   1.738   1.828 -0.0176  3.1621 -0.6553
  427SOL    HW2 1707   0.374   1.695   1.940 -1.2585 -1.7658  0.6705
  427SOL     MW 1708   0.405   1.755   1.884 -0.3016  0.0346  0.0509
  428SOL     OW 1709   0.635   2.540   1.046  0.0113 -0.2085 -0.3631
  428SOL    HW1 1710   0.583   2.460   1.059 -2.3718  1.2609 -3.8910
  428SOL    HW2 1711   0.607   2.596   1.122 -0.6623 -0.3254  2.9281
  428SOL     MW 1712   0.624   2.537   1.058 -0.3920 -0.0301 -0.3943
  429SOL     OW 1713   1.259   2.818   1.068  0.2843  0.1145  0.3437
  429SOL    HW1 1714   1.172   2.825   1.104  1.0864  0.7187 -1.9713
  429SOL    HW2 1715   1.278   2.906   1.028 -1.0902 -2.4700 -0.7422
  429SOL     MW 1716   1.250   2.830   1.068  0.2087 -0.1468 -0.1050
  430SOL     OW 1717   1.199   2.811   0.780  0.0119 -0.3912 -0.1094
  430SOL    HW1 1718   1.215   2.787   0.875  1.7306  2.7232  1.0531
  430SOL    HW2 1719   1.153   2.740   0.730  1.0487 -1.7032 -3.1547
  430SOL     MW 1720   1.195   2.799   0.786  0.3754 -0.1534 -0.3578
  431SOL     OW 1721   0.360   1.880   1.119  0.0353 -0.1438 -0.4601
  431SOL    HW1 1722   0.406   1.795   1.110 -1.1010 -1.9496 -1.6978
  431SOL    HW2 1723   0.351   1.904   1.031  0.9444 -0.3176  1.7870
  431SOL     MW 1724   0.365   1.872   1.106  0.0054 -0.4050 -0.3269
  432SOL     OW 1725   0.025   0.005   1.120 -0.0505 -0.5553 -0.5195
  432SOL    HW1 1726   0.031   0.042   1.216 -0.0120 -3.3656  3.8494
  432SOL    HW2 1727  -0.025  -0.074   1.133  1.2497  3.4436 -0.3220
  432SOL     MW 1728   0.019  -0.000   1.134  0.1261 -0.3985  0.0830
  433SOL     OW 1729   0.641   2.925   1.489 -0.2317  0.6676 -0.0638
  433SOL    HW1 1730   0.613   3.007   1.523 -0.3652  0.8855 -0.7651
  433SOL    HW2 1731   0.713   2.887   1.544 -3.5377  0.7394  0.7872
  433SOL     MW 1732   0.647   2.931   1.501 -0.6855  0.7058 -0.0440
  434SOL     OW 1733   1.486   2.807   1.796  0.1384  0.3368  0.8727
  434SOL    HW1 1734   1.415   2.873   1.794 -0.4357 -0.4458 -0.6388
  434SOL    HW2 1735   1.494   2.797   1.700  0.6441 -3.3713  1.2971
  434SOL     MW 1736   1.478   2.815   1.783  0.1294 -0.2557  0.7292
  435SOL     OW 1737   2.713   1.795   0.288  0.5544  0.5021  0.5687
  435SOL    HW1 1738   2.767   1.802   0.213  1.8805 -1.0460 -1.0733
  435SOL    HW2 1739   2.631   1.818   0.249  2.6730  0.3234 -1.2370
  435SOL     MW 1740   2.709   1.799   0.273  1.0089  0.2743  0.1138
  436SOL     OW 1741   1.375   2.773   0.353  0.4798  0.6546 -0.3226
  436SOL    HW1 1742   1.446   2.743   0.420 -1.4558  2.4237 -1.8625
  436SOL    HW2 1743   1.347   2.860   0.374 -1.3347 -0.0055  1.0005
  436SOL     MW 1744   1.381   2.780   0.365 -0.0150  0.8009 -0.3512
  437SOL     OW 1745   0.885   0.008   1.307 -0.6337 -0.5093 -0.0010
  437SOL    HW1 1746   0.952   0.018   1.234  0.1504  0.8427 -0.6987
  437SOL    HW2 1747   0.870  -0.084   1.319  2.4585  2.1298  2.2259
  437SOL     MW 1748   0.892  -0.003   1.299 -0.1223  0.0173  0.2008
  438SOL     OW 1749   0.843   2.693   2.023 -0.3865 -0.1672  0.5786
  438SOL    HW1 1750   0.866   2.641   2.105 -0.6745 -0.3146  1.3612
  438SOL    HW2 1751   0.808   2.628   1.967  0.3574 -0.5727 -0.1693
  438SOL     MW 1752   0.842   2.677   2.027 -0.3264 -0.2402  0.5832
  439SOL     OW 1753   1.169   2.083   0.412  0.6772  0.1210 -0.2759
  439SOL    HW1 1754   1.137   2.113   0.495 -0.9561  0.8023 -2.6413
  439SOL    HW2 1755   1.166   2.166   0.359  0.2963 -3.1517 -1.2804
  439SOL     MW 1756   1.164   2.098   0.416  0.4114 -0.2209 -0.7206
  440SOL     OW 1757   1.816   2.748   3.043  0.2523  0.0664  0.7210
  440SOL    HW1 1758   1.811   2.768   3.138 -0.4588  1.8425 -1.0357
  440SOL    HW2 1759   1.878   2.803   3.006 -1.1392 -1.2705 -0.1483
  440SOL     MW 1760   1.823   2.758   3.050 -0.0251  0.1243  0.3745
  441SOL     OW 1761   0.505   2.698   0.466 -0.1949  0.0293  0.0089
  441SOL    HW1 1762   0.466   2.663   0.382 -2.5484  1.5805  2.0363
  441SOL    HW2 1763   0.517   2.791   0.446  0.8341  2.7702 -2.1239
  441SOL     MW 1764   0.502   2.706   0.453 -0.3696  0.5956 -0.0050
  442SOL     OW 1765   0.025   2.427   0.624 -0.4097  0.1969 -0.3302
  442SOL    HW1 1766   0.036   2.510   0.586 -1.3461 -1.2184 -1.7413
  442SOL    HW2 1767  -0.067   2.416   0.642 -0.0717 -0.7744  1.4605
  442SOL     MW 1768   0.014   2.437   0.622 -0.4887 -0.1180 -0.2801
  443SOL     OW 1769   1.475   1.775   1.938 -0.1943 -0.4239 -0.1533
  443SOL    HW1 1770   1.425   1.805   1.865  0.5130 -0.0162 -0.5805
  443SOL    HW2 1771   1.468   1.676   1.931  3.2231 -0.4900 -1.0527
  443SOL     MW 1772   1.467   1.766   1.928  0.3499 -0.3788 -0.3283
  444SOL     OW 1773   0.889   2.591   1.630 -0.7058 -0.0864  0.1995
  444SOL    HW1 1774   0.967   2.557   1.672 -1.7928 -2.8362 -0.0925
  444SOL    HW2 1775   0.824   2.573   1.699 -0.5270 -0.5373 -1.0966
  444SOL     MW 1776   0.890   2.584   1.645 -0.8256 -0.5087 -0.0100
  445SOL     OW 1777   1.171   0.093   1.413  0.5801  0.0105  0.6730
  445SOL    HW1 1778   1.110   0.139   1.472  0.3063  0.4782  0.1262
  445SOL    HW2 1779   1.176   0.153   1.340 -1.6234  0.4709  1.0340
  445SOL     MW 1780   1.164   0.107   1.411  0.2532  0.1330  0.6485
  446SOL     OW 1781   2.681   2.813   1.058 -0.0626 -0.0974  0.3182
  446SOL    HW1 1782   2.630   2.813   0.980  0.2216 -0.9644 -1.9469
  446SOL    HW2 1783   2.736   2.734   1.046 -1.1258 -2.7708 -1.5823
  446SOL     MW 1784   2.682   2.802   1.046 -0.1654 -0.5645 -0.2314
  447SOL     OW 1785   0.070   1.969   1.572 -0.1623 -0.1929  0.3173
  447SOL    HW1 1786   0.100   1.913   1.651  0.0611  1.0473  2.3301
  447SOL    HW2 1787   0.000   1.919   1.531 -2.5643 -2.1070  0.0706
  447SOL     MW 1788   0.065   1.955   1.577 -0.4497 -0.2818  0.5503
  448SOL     OW 1789   1.700   2.370   1.673  0.4019  0.4044  0.0526
  448SOL    HW1 1790   1.656   2.287   1.676  3.3955  0.2544  0.0567
  448SOL    HW2 1791   1.637   2.437   1.709 -1.1756 -1.4815  1.5783
  448SOL     MW 1792   1.686   2.368   1.678  0.5888  0.1358  0.2544
  449SOL     OW 1793   0.932   2.905   0.381  0.0009 -0.0326 -0.3787
  449SOL    HW1 1794   0.864   2.883   0.314 -1.8674  3.7241 -0.9384
  449SOL    HW2 1795   0.884   2.930   0.464  0.5126 -2.1279  0.3237
  449SOL     MW 1796   0.917   2.906   0.383 -0.1781  0.1866 -0.3599
  450SOL     OW 1797   1.193   2.467   0.748  0.2148 -0.5324 -0.4476
  450SOL    HW1 1798   1.236   2.458   0.829  0.3202  1.6857 -2.5358
  450SOL    HW2 1799   1.265   2.439   0.683 -0.5805  0.5294  0.0244
  450SOL     MW 1800   1.208   2.462   0.750  0.1238 -0.0997 -0.6609
  451SOL     OW 1801   0.533   2.013   1.682  0.9427  0.4308 -0.2112
  451SOL    HW1 1802   0.614   2.041   1.645 -0.3771 -1.3870 -0.1694
  451SOL    HW2 1803   0.471   1.979   1.611  0.0063  1.7642 -0.6791
  451SOL     MW 1804   0.535   2.012   1.668  0.6450  0.3669 -0.2674
  452SOL     OW 1805   0.290   2.646   0.004  0.5099 -0.1384  0.0534
  452SOL    HW1 1806   0.351   2.712   0.020  2.7891 -2.4271  0.1828
  452SOL    HW2 1807   0.208   2.677  -0.028  3.5869 -0.4658  0.8736
  452SOL     MW 1808   0.287   2.659   0.002  1.2166 -0.4836  0.1787
  453SOL     OW 1809   0.191   2.990   1.584  0.2053  0.1755  0.0935
  453SOL    HW1 1810   0.226   2.963   1.669 -1.2605  2.1866  0.1195
  453SOL    HW2 1811   0.246   2.953   1.515 -0.4786 -0.2810 -0.9576
  453SOL     MW 1812   0.203   2.982   1.586 -0.0783  0.3806 -0.0418
  454SOL     OW 1813   0.950   2.808   1.171  0.0487  0.6623 -0.2865
  454SOL    HW1 1814   0.906   2.742   1.233  0.3248 -2.1561 -1.1396
  454SOL    HW2 1815   0.879   2.853   1.121 -0.6864  1.1261  0.3237
  454SOL     MW 1816   0.934   2.805   1.172 -0.0119  0.3516 -0.3185
  455SOL     OW 1817   1.757   2.802   0.199  0.1718  0.1775  0.4505
  455SOL    HW1 1818   1.787   2.795   0.289 -2.6378  1.0386 -1.3752
  455SOL    HW2 1819   1.689   2.736   0.179  1.4611  0.6308 -0.8456
  455SOL     MW 1820   1.752   2.793   0.208 -0.0288  0.3509  0.0386
  456SOL     OW 1821   2.785   0.228   1.452  0.4490 -0.1033 -0.2387
  456SOL    HW1 1822   2.753   0.185   1.375 -3.2954  0.5159  1.2460
  456SOL    HW2 1823   2.808   0.319   1.425  1.4080 -1.0472 -1.8674
  456SOL     MW 1824   2.784   0.234   1.439  0.0815 -0.1462 -0.2577
  457SOL     OW 1825   0.814   1.632   3.041  0.3146 -0.4581  0.0388
  457SOL    HW1 1826   0.726   1.595   3.072 -0.5415 -1.5587  0.5535
  457SOL    HW2 1827   0.853   1.666   3.124  1.2657 -1.1547 -0.3139
  457SOL     MW 1828   0.807   1.631   3.056  0.3272 -0.6952  0.0602
  458SOL     OW 1829   1.326   1.506   0.689  0.1361  0.9442 -0.1507
  458SOL    HW1 1830   1.242   1.540   0.684  1.5569 -2.0302  1.4278
  458SOL    HW2 1831   1.301   1.413   0.658 -1.4631 -1.5655  1.0665
  458SOL     MW 1832   1.312   1.498   0.684  0.1126  0.2207  0.2181
  459SOL     OW 1833   1.591   3.049   0.225  0.5614  0.0071 -0.0436
  459SOL    HW1 1834   1.634   2.965   0.210  0.9579  2.8214 -2.4127
  459SOL    HW2 1835   1.543   3.080   0.144 -0.1213  0.1714  0.1517
  459SOL     MW 1836   1.591   3.042   0.213  0.5237  0.4001 -0.3304
  460SOL     OW 1837   1.774   2.229   0.651 -0.5626 -0.1800  0.2364
  460SOL    HW1 1838   1.689   2.214   0.683  3.0444  2.1682  1.1873
  460SOL    HW2 1839   1.807   2.146   0.622 -1.5199  2.5493  0.4117
  460SOL     MW 1840   1.767   2.216   0.651 -0.2130  0.4899  0.3850
  461SOL     OW 1841   0.454   2.435   0.546  0.6636 -0.5647  0.2953
  461SOL    HW1 1842   0.448   2.526   0.519 -0.2940 -3.1391  0.1187
  461SOL    HW2 1843   0.411   2.437   0.630 -1.7366  0.4760  0.8786
  461SOL     MW 1844   0.447   2.448   0.553  0.2206 -0.7671  0.3490
  462SOL     OW 1845   0.324   0.238   1.275  0.5255  0.0821  0.2196
  462SOL    HW1 1846   0.342   0.185   1.194  1.0612  1.0716  0.6157
  462SOL    HW2 1847   0.398   0.238   1.331  0.6091  1.9498 -0.7828
  462SOL     MW 1848   0.336   0.231   1.272  0.6072  0.4591  0.1396
  463SOL     OW 1849   1.116   0.109   0.724  0.1136  0.3589  0.3682
  463SOL    HW1 1850   1.190   0.050   0.707 -0.9886 -0.2175 -1.2276
  463SOL    HW2 1851   1.058   0.115   0.650  0.4009  0.5905 -1.4864
  463SOL     MW 1852   1.118   0.102   0.712  0.0061  0.3134 -0.0871
  464SOL     OW 1853   0.731   3.042   2.307 -0.2510 -0.4061  0.8778
  464SOL    HW1 1854   0.709   2.944   2.300 -2.6000  1.2642 -2.5906
  464SOL    HW2 1855   0.749   3.057   2.396 -2.4584  3.1692 -2.7372
  464SOL     MW 1856   0.731   3.031   2.318 -0.8522  0.2860 -0.0568
  465SOL     OW 1857   0.857   0.323   0.394  0.5729  0.1887  0.1774
  465SOL    HW1 1858   0.812   0.272   0.465  0.3853  1.4897  3.0814
  465SOL    HW2 1859   0.837   0.290   0.305 -0.0490  0.8520  1.4230
  465SOL     MW 1860   0.848   0.312   0.392  0.4661  0.4479  0.7249
  466SOL     OW 1861   1.113   2.044   0.816  0.0750  0.2152  0.1364
  466SOL    HW1 1862   1.098   1.952   0.775 -0.8164 -2.9027 -1.0750
  466SOL    HW2 1863   1.114   2.108   0.736 -0.4475 -3.1293 -3.3558
  466SOL     MW 1864   1.111   2.040   0.800 -0.1115 -0.6374 -0.4842
  467SOL     OW 1865   1.287   2.339   1.040  0.7771 -0.6554  1.0804
  467SOL    HW1 1866   1.380   2.371   1.057 -0.3703  0.3276 -0.9620
  467SOL    HW2 1867   1.299   2.248   1.005 -1.8684  0.3553 -0.1972
  467SOL     MW 1868   1.301   2.331   1.037  0.2767 -0.3923  0.6424
  468SOL     OW 1869   0.421   2.661   1.961 -0.5504 -0.8697  0.9638
  468SOL    HW1 1870   0.395   2.588   1.906  0.8652  3.0269 -0.5373
  468SOL    HW2 1871   0.406   2.748   1.915 -0.8467  3.8566 -0.6813
  468SOL     MW 1872   0.415   2.663   1.947 -0.4027  0.2680  0.5487
  469SOL     OW 1873   0.341   2.159   1.776 -0.1380  0.8064  0.2744
  469SOL    HW1 1874   0.278   2.090   1.795  0.7291  2.4406 -3.8951
  469SOL    HW2 1875   0.423   2.121   1.732  0.9422  1.9218  1.1328
  469SOL     MW 1876   0.343   2.145   1.773  0.1189  1.1692 -0.1625
  470SOL     OW 1877   3.040   2.604   0.115  0.2794 -0.0474  0.1894
  470SOL    HW1 1878   2.954   2.583   0.166 -2.6758 -0.4296 -0.5752
  470SOL    HW2 1879   3.023   2.604   0.019  0.8884 -0.2718  0.4647
  470SOL     MW 1880   3.027   2.601   0.109 -0.0302 -0.1275  0.1249
  471SOL     OW 1881   1.227   2.668   1.367  1.3696  0.7355  0.0105
  471SOL    HW1 1882   1.158   2.616   1.319  3.1732  0.1869 -2.0177
  471SOL    HW2 1883   1.301   2.680   1.306  1.0203 -2.9433 -0.9152
  471SOL     MW 1884   1.227   2.663   1.353  1.5615  0.1777 -0.3793
  472SOL     OW 1885   2.979   2.132   0.361  0.0845 -0.2474  0.4353
  472SOL    HW1 1886   2.971   2.085   0.277  1.5646 -0.9485 -1.4025
  472SOL    HW2 1887   2.931   2.082   0.437 -0.2964 -1.6878  1.7442
  472SOL     MW 1888   2.971   2.119   0.360  0.2295 -0.5300  0.3655
  473SOL     OW 1889   0.875   2.576   1.353  0.4050  0.2101  0.4201
  473SOL    HW1 1890   0.901   2.499   1.305  1.8725  0.7006  0.2101
  473SOL    HW2 1891   0.886   2.548   1.449 -1.2373  1.6883 -0.5046
  473SOL     MW 1892   0.880   2.562   1.360  0.3820  0.4698  0.2704
  474SOL     OW 1893   0.784   2.256   1.838  0.4643 -0.1998  0.5889
  474SOL    HW1 1894   0.864   2.257   1.892 -0.2539  0.4346 -0.9865
  474SOL    HW2 1895   0.820   2.262   1.750  1.1565  1.5966 -1.0229
  474SOL     MW 1896   0.799   2.257   1.833  0.4609  0.1209  0.1684
  475SOL     OW 1897   1.573   3.083   1.547  0.3956  0.1926  0.3191
  475SOL    HW1 1898   1.505   3.034   1.493 -2.0781 -0.3324 -1.8700
  475SOL    HW2 1899   1.613   3.017   1.603  2.4216  0.9721  0.1589
  475SOL     MW 1900   1.569   3.068   1.547  0.3365  0.2262  0.0091
  476SOL     OW 1901   1.428   2.669   1.212 -0.0638  0.2975  0.2974
  476SOL    HW1 1902   1.376   2.703   1.142  0.3980  1.6915  2.0508
  476SOL    HW2 1903   1.503   2.726   1.219 -1.3415 -1.7979 -0.8303
  476SOL     MW 1904   1.431   2.681   1.203 -0.1715  0.2050  0.3800
  477SOL     OW 1905   0.869   2.481   0.663 -0.3489 -0.9786 -0.3378
  477SOL    HW1 1906   0.941   2.541   0.630  1.1720 -2.4645 -0.1995
  477SOL    HW2 1907   0.844   2.422   0.592 -1.3476 -3.2664 -0.1413
  477SOL     MW 1908   0.875   2.481   0.650 -0.2800 -1.4765 -0.2936
  478SOL     OW 1909   0.183   2.668   0.841 -0.5315  0.2557 -0.1296
  478SOL    HW1 1910   0.230   2.752   0.836 -0.9093  2.6817  1.6564
  478SOL    HW2 1911   0.249   2.598   0.827 -1.5698  0.7244  0.2228
  478SOL     MW 1912   0.198   2.670   0.838 -0.7183  0.6376  0.1526
  479SOL     OW 1913   1.408   1.984   1.300 -0.2223 -0.2251  0.1669
  479SOL    HW1 1914   1.414   2.006   1.396  2.2891 -1.0458 -0.3255
  479SOL    HW2 1915   1.430   1.890   1.286 -0.4476  1.7814 -0.4088
  479SOL     MW 1916   1.412   1.974   1.311  0.0794 -0.0687  0.0260
  480SOL     OW 1917   1.906   2.450   1.350 -0.5984  0.1185  0.0899
  480SOL    HW1 1918   1.943   2.370   1.370  0.0470  0.4351 -1.6560
  480SOL    HW2 1919   1.910   2.459   1.253  0.8223  3.3772  0.1882
  480SOL     MW 1920   1.911   2.440   1.340 -0.3258  0.5902 -0.1275
  481SOL     OW 1921   1.077   0.066   1.108  0.1025  0.1388 -0.2163
  481SOL    HW1 1922   1.070  -0.003   1.045 -0.3390 -1.6067 -0.6083
  481SOL    HW2 1923   1.169   0.083   1.122 -0.6816 -0.6047 -0.2232
  481SOL     MW 1924   1.088   0.059   1.102 -0.0592 -0.1896 -0.2689
  482SOL     OW 1925   1.087   3.094   0.244  0.5204 -0.1898  0.3829
  482SOL    HW1 1926   1.022   3.040   0.282  0.3415 -0.0822 -1.4107
  482SOL    HW2 1927   1.094   3.175   0.303  2.8565  0.7890 -1.0355
  482SOL     MW 1928   1.079   3.097   0.257  0.8050 -0.0464 -0.0409
  483SOL     OW 1929   0.503   3.018   0.434  0.4161 -0.1387 -0.9310
  483SOL    HW1 1930   0.443   3.012   0.362  0.2849  1.4774 -0.7830
  483SOL    HW2 1931   0.459   3.072   0.502 -0.5170  0.9254 -2.0027
  483SOL     MW 1932   0.489   3.025   0.433  0.2757  0.2149 -1.0529
  484SOL     OW 1933   1.884   2.035   1.439  0.6326 -0.1090  0.2813
  484SOL    HW1 1934   1.938   2.117   1.444 -1.3539  1.5917  0.3421
  484SOL    HW2 1935   1.845   2.011   1.525  0.7903  0.1019  2.6667
  484SOL     MW 1936   1.886   2.043   1.451  0.3913  0.1432  0.6040
  485SOL     OW 1937   0.630   2.414   0.260 -0.0284 -0.1334 -0.5308
  485SOL    HW1 1938   0.659   2.428   0.354 -2.5981  1.2566 -1.2957
  485SOL    HW2 1939   0.571   2.490   0.239  0.0675 -0.4161 -0.6648
  485SOL     MW 1940   0.626   2.426   0.270 -0.3548  0.0127 -0.6494
  486SOL     OW 1941   0.145   2.394   1.479 -0.0086  0.3112 -0.4473
  486SOL    HW1 1942   0.189   2.464   1.434 -0.3639  3.2236  1.2874
  486SOL    HW2 1943   0.129   2.421   1.571 -4.3628  1.4599 -0.3269
  486SOL     MW 1944   0.149   2.407   1.485 -0.6300  0.8470 -0.2025
  487SOL     OW 1945   1.144   1.732   1.059 -0.5904 -0.1791  0.0984
  487SOL    HW1 1946   1.136   1.819   1.074 -0.9972 -2.9534 -0.4693
  487SOL    HW2 1947   1.240   1.714   1.047  1.3640  1.6284 -0.2132
  487SOL     MW 1948   1.156   1.741   1.059 -0.3862 -0.3067 -0.0176
  488SOL     OW 1949   1.640   1.876   0.495  0.1363  0.3417 -0.6260
  488SOL    HW1 1950   1.689   1.865   0.409 -0.3188  1.2299  0.2654
  488SOL    HW2 1951   1.570   1.939   0.473  0.3711  0.0505 -1.6404
  488SOL     MW 1952   1.637   1.883   0.481  0.1073  0.4205 -0.6422
  489SOL     OW 1953   0.781   0.819   0.598 -0.2554 -0.2913  0.3946
  489SOL    HW1 1954   0.799   0.741   0.544  3.2551  2.9643  2.2073
  489SOL    HW2 1955   0.762   0.780   0.686  0.2451 -0.0681 -2.4045
  489SOL     MW 1956   0.781   0.804   0.603  0.2738  0.1677  0.2645
  490SOL     OW 1957   1.450   2.089   0.452  0.6041  0.1588 -0.0905
  490SOL    HW1 1958   1.490   2.174   0.433 -0.1120 -1.7676  0.6957
  490SOL    HW2 1959   1.356   2.091   0.427 -1.2447 -0.8066 -0.5058
  490SOL     MW 1960   1.443   2.101   0.446  0.2657 -0.2228 -0.0416
  491SOL     OW 1961   1.329   3.031   0.442 -0.1410 -0.5388  0.4530
  491SOL    HW1 1962   1.415   3.081   0.421  0.2302  2.8384  0.5434
  491SOL    HW2 1963   1.266   3.053   0.372  0.4839 -0.2976 -0.7332
  491SOL     MW 1964   1.332   3.040   0.430 -0.0096 -0.0614  0.3084
  492SOL     OW 1965   1.482   2.192   0.723 -0.1672 -0.2006 -0.5430
  492SOL    HW1 1966   1.463   2.139   0.638  1.5589 -2.6111 -2.4141
  492SOL    HW2 1967   1.423   2.167   0.793  2.7445 -0.6594 -0.3356
  492SOL     MW 1968   1.471   2.182   0.721  0.4447 -0.5792 -0.7625
  493SOL     OW 1969   0.288   2.977   0.263  0.0429 -0.5195 -0.1176
  493SOL    HW1 1970   0.228   2.984   0.341  2.1972  2.0737  0.6750
  493SOL    HW2 1971   0.258   3.034   0.190 -0.6085  0.6950  1.6811
  493SOL     MW 1972   0.276   2.985   0.264  0.2412 -0.0171  0.2243
  494SOL     OW 1973   0.459   2.443   1.745 -0.4115  0.4834 -0.7622
  494SOL    HW1 1974   0.435   2.350   1.755 -0.4064  0.9082  1.7611
  494SOL    HW2 1975   0.474   2.460   1.643 -3.5922 -1.0575 -0.4691
  494SOL     MW 1976   0.458   2.433   1.733 -0.8305  0.3361 -0.3906
  495SOL     OW 1977   2.822   1.759   2.570 -0.3188 -0.6480  0.6198
  495SOL    HW1 1978   2.785   1.847   2.555  0.5787  1.9359 -3.5394
  495SOL    HW2 1979   2.809   1.725   2.655  1.3182  1.2892 -2.0505
  495SOL     MW 1980   2.815   1.766   2.579  0.0156 -0.0515 -0.2813
  496SOL     OW 1981   2.882   2.341   2.640 -0.2438  0.4257 -0.1683
  496SOL    HW1 1982   2.932   2.285   2.697 -1.4921  1.9223 -1.6189
  496SOL    HW2 1983   2.924   2.428   2.654  1.6631 -0.7751  0.2221
  496SOL     MW 1984   2.894   2.345   2.649 -0.1569  0.4647 -0.3082
  497SOL     OW 1985   1.550   2.219   2.681  0.2451  0.4386 -0.0908
  497SOL    HW1 1986   1.487   2.161   2.635 -0.9382  3.0572 -0.6227
  497SOL    HW2 1987   1.575   2.166   2.755  0.4147  2.0706 -1.6604
  497SOL     MW 1988   1.545   2.204   2.684  0.1113  0.9994 -0.3680
  498SOL     OW 1989   1.463   2.669   2.350 -0.3887 -0.5616  0.3880
  498SOL    HW1 1990   1.468   2.573   2.360 -0.3219  0.1456  0.3164
  498SOL    HW2 1991   1.548   2.702   2.372 -0.8107 -2.6851 -0.8949
  498SOL     MW 1992   1.475   2.661   2.354 -0.4355 -0.7484  0.2093
  499SOL     OW 1993   0.981   0.159   3.075  0.6867 -0.2199 -0.2403
  499SOL    HW1 1994   0.900   0.163   3.125 -1.9469  0.8493 -2.0450
  499SOL    HW2 1995   1.036   0.102   3.120 -1.4375 -0.9663 -1.1964
  499SOL     MW 1996   0.977   0.152   3.088  0.0590 -0.1773 -0.6045
  500SOL     OW 1997   1.005   2.523   2.778 -0.0853  0.5834 -0.3775
  500SOL    HW1 1998   1.080   2.506   2.839 -0.8713 -2.1436  0.3903
  500SOL    HW2 1999   0.931   2.502   2.841 -0.0536  0.6310  1.5927
  500SOL     MW 2000   1.005   2.518   2.795 -0.1849  0.2299 -0.0163
  501SOL     OW 2001   1.760   2.184   3.053 -0.2084 -0.3932  0.2161
  501SOL    HW1 2002   1.734   2.271   3.082 -1.2538  1.4519 -0.9980
  501SOL    HW2 2003   1.851   2.176   3.077  0.9891  2.7150  0.5155
  501SOL     MW 2004   1.769   2.194   3.060 -0.1883  0.2603  0.0954
  502SOL     OW 2005   0.121   2.802   2.954 -0.2530 -0.1423 -1.1144
  502SOL    HW1 2006   0.062   2.746   2.907 -0.3701 -0.6704  0.6547
  502SOL    HW2 2007   0.182   2.849   2.896 -1.1368  1.4491  2.4479
  502SOL     MW 2008   0.122   2.801   2.940 -0.3851 -0.0020 -0.4110
  503SOL     OW 2009   1.075   2.936   2.171  0.8517  0.1258  0.0440
  503SOL    HW1 2010   0.987   2.908   2.138 -0.1545  2.0048  0.6353
  503SOL    HW2 2011   1.076   3.032   2.164 -1.7820 -1.6237  0.4658
  503SOL     MW 2012   1.063   2.945   2.166  0.3714  0.1429  0.1777
  504SOL     OW 2013   0.134   2.706   2.112 -0.2897  0.0368 -0.2438
  504SOL    HW1 2014   0.168   2.621   2.101 -3.1094  1.7435 -0.4446
  504SOL    HW2 2015   0.043   2.696   2.093  3.3722 -2.2930 -0.4903
  504SOL     MW 2016   0.127   2.693   2.108 -0.1786 -0.0454 -0.3028
  505SOL     OW 2017   1.713   2.694   2.708 -0.1172 -0.4987  0.3337
  505SOL    HW1 2018   1.729   2.655   2.621  1.9179  0.6283  1.3448
  505SOL    HW2 2019   1.650   2.766   2.694  0.1268  0.5738 -1.6638
  505SOL     MW 2020   1.707   2.698   2.695  0.1835 -0.2085  0.2035
  506SOL     OW 2021   1.661   3.006   2.872  0.7585  0.4211 -0.0808
  506SOL    HW1 2022   1.716   2.962   2.935  2.1063  0.3270 -1.7493
  506SOL    HW2 2023   1.716   3.019   2.794  0.1568  1.7992 -0.3816
  506SOL     MW 2024   1.675   3.002   2.870  0.8569  0.5905 -0.3406
  507SOL     OW 2025   0.788   2.865   2.927 -0.1105  0.1185  0.1346
  507SOL    HW1 2026   0.841   2.894   2.852  1.5392  1.0215 -0.2523
  507SOL    HW2 2027   0.732   2.942   2.939  3.3993 -1.9132  2.4280
  507SOL     MW 2028   0.788   2.879   2.919  0.5702 -0.0304  0.3862
  508SOL     OW 2029   1.101   2.081   2.452  0.3146 -0.1669 -0.8919
  508SOL    HW1 2030   1.178   2.062   2.505  0.1855  1.5955 -1.3648
  508SOL    HW2 2031   1.074   2.163   2.496  1.8770 -2.3598  1.1972
  508SOL     MW 2032   1.108   2.089   2.465  0.5037 -0.2237 -0.6787
  509SOL     OW 2033   0.568   2.568   2.893  0.0150  0.4216  0.3811
  509SOL    HW1 2034   0.586   2.577   2.797  0.3383  0.2066 -0.4953
  509SOL    HW2 2035   0.498   2.502   2.910 -0.8625  1.1754 -3.8594
  509SOL     MW 2036   0.561   2.560   2.883 -0.0581  0.4927 -0.2940
  510SOL     OW 2037   1.480   2.509   1.728  0.0667 -0.5334 -0.5281
  510SOL    HW1 2038   1.483   2.603   1.752  0.9282 -0.1508 -0.0784
  510SOL    HW2 2039   1.414   2.471   1.791  3.2667  0.5428  1.4757
  510SOL     MW 2040   1.472   2.516   1.739  0.6026 -0.3410 -0.2044
  511SOL     OW 2041   0.415   2.614   2.491  0.2037  0.4763  0.0649
  511SOL    HW1 2042   0.498   2.604   2.536 -1.0258 -0.6583 -1.1721
  511SOL    HW2 2043   0.445   2.605   2.394  2.4894  0.9302  0.8334
  511SOL     MW 2044   0.430   2.612   2.484  0.3430  0.3865  0.0031
  512SOL     OW 2045   0.994   1.930   2.806 -0.1609 -0.6136 -0.0389
  512SOL    HW1 2046   0.905   1.899   2.828 -0.5047 -1.3175 -0.8480
  512SOL    HW2 2047   1.050   1.854   2.826 -0.3259 -0.6761  1.7805
  512SOL     MW 2048   0.990   1.916   2.811 -0.2280 -0.7147  0.0944
  513SOL     OW 2049   1.468   2.390   2.364  0.4020  0.5287 -0.1673
  513SOL    HW1 2050   1.544   2.417   2.413 -0.7369 -0.3012  2.3017
  513SOL    HW2 2051   1.469   2.295   2.377  3.1652  0.0032  1.3149
  513SOL     MW 2052   1.478   2.381   2.372  0.6163  0.3499  0.3540
  514SOL     OW 2053   0.238   2.406   2.613 -0.2345 -0.2234  0.4078
  514SOL    HW1 2054   0.287   2.466   2.559 -1.4985 -0.2733 -0.3594
  514SOL    HW2 2055   0.258   2.423   2.703  2.2469 -0.9429  1.0094
  514SOL     MW 2056   0.247   2.416   2.618 -0.0739 -0.3249  0.3860
  515SOL     OW 2057   1.192   2.059   1.920  0.2357 -0.5150 -0.0459
  515SOL    HW1 2058   1.129   2.132   1.922  0.4530  2.5551  0.8150
  515SOL    HW2 2059   1.203   2.045   2.016  1.4176  0.2506  3.0035
  515SOL     MW 2060   1.185   2.067   1.933  0.4203 -0.0089  0.4700
  516SOL     OW 2061   1.435   2.480   3.046 -0.2320 -0.1356 -0.5799
  516SOL    HW1 2062   1.502   2.484   2.975 -1.8414  0.7964  0.3164
  516SOL    HW2 2063   1.348   2.464   3.006  1.8531 -2.1391  1.4339
  516SOL     MW 2064   1.432   2.478   3.032 -0.1692 -0.2770 -0.1959
  517SOL     OW 2065   0.595   2.411   2.077  0.3832 -0.0059  0.1199
  517SOL    HW1 2066   0.591   2.501   2.093 -0.3005 -2.5462 -1.4291
  517SOL    HW2 2067   0.497   2.387   2.073 -0.8700  2.4399 -0.4317
  517SOL     MW 2068   0.582   2.420   2.078  0.1276 -0.0184 -0.1572
  518SOL     OW 2069   1.894   0.079   3.019  0.4229  0.5201 -0.4388
  518SOL    HW1 2070   1.846   0.117   2.941 -0.9721 -2.6270  0.7788
  518SOL    HW2 2071   1.836   0.088   3.099  1.9636 -0.8507  0.9178
  518SOL     MW 2072   1.880   0.085   3.020  0.4421 -0.0760 -0.0992
  519SOL     OW 2073   0.713   2.530   1.823 -0.3353 -0.4661  0.4999
  519SOL    HW1 2074   0.725   2.445   1.878 -0.3742  3.0372  0.4243
  519SOL    HW2 2075   0.615   2.526   1.799  1.6724 -1.7662  4.0275
  519SOL     MW 2076   0.702   2.519   1.827 -0.0755 -0.1754  0.9553
  520SOL     OW 2077   1.173   2.163   2.899 -0.3559 -0.2611  0.0880
  520SOL    HW1 2078   1.102   2.107   2.874  0.6952  0.6268  0.5590
  520SOL    HW2 2079   1.203   2.116   2.976 -0.7029  1.2729 -1.8398
  520SOL     MW 2080   1.167   2.150   2.906 -0.2630  0.0584 -0.1042
  521SOL     OW 2081   1.774   1.984   2.236  0.8394 -0.6015  0.3243
  521SOL    HW1 2082   1.765   2.030   2.154  0.3545 -2.5762  0.3502
  521SOL    HW2 2083   1.774   1.893   2.212  1.5086  1.0473  1.3736
  521SOL     MW 2084   1.773   1.978   2.222  0.8637 -0.6445  0.4661
  522SOL     OW 2085   2.885   2.603   2.236 -0.1398 -0.1172 -0.2243
  522SOL    HW1 2086   2.939   2.522   2.261 -2.4204 -0.7797  0.7013
  522SOL    HW2 2087   2.819   2.592   2.305  0.4247  0.7577  0.7340
  522SOL     MW 2088   2.883   2.591   2.249 -0.3662 -0.0892  0.0242
  523SOL     OW 2089   0.832   1.515   2.096 -0.2050 -0.0336 -0.2433
  523SOL    HW1 2090   0.841   1.582   2.027  0.9166  0.7544  1.4467
  523SOL    HW2 2091   0.883   1.439   2.062  1.9132  1.9540 -0.4015
  523SOL     MW 2092   0.840   1.513   2.083  0.2225  0.3326 -0.0412
  524SOL     OW 2093   0.824   2.429   2.958 -0.0940 -0.5257 -0.2703
  524SOL    HW1 2094   0.736   2.459   2.943 -1.6806 -2.5952 -2.3902
  524SOL    HW2 2095   0.806   2.339   2.934 -0.4354  0.6665 -0.8612
  524SOL     MW 2096   0.810   2.421   2.953 -0.3484 -0.6414 -0.6279
  525SOL     OW 2097   0.337   2.274   2.020 -0.0883 -0.1585  0.5070
  525SOL    HW1 2098   0.329   2.225   2.100 -0.4082 -1.2773  1.0646
  525SOL    HW2 2099   0.359   2.205   1.957  0.0842 -0.7672 -2.5876
  525SOL     MW 2100   0.339   2.259   2.022 -0.1078 -0.3864  0.1723
  526SOL     OW 2101   0.652   2.128   2.079  0.5108 -0.0521 -0.1796
  526SOL    HW1 2102   0.668   2.195   2.010  1.3932 -1.0889 -1.5144
  526SOL    HW2 2103   0.619   2.173   2.155 -1.5053 -0.3092 -2.6797
  526SOL     MW 2104   0.650   2.142   2.080  0.3612 -0.2228 -0.6856
  527SOL     OW 2105   1.402   1.975   2.157 -0.2050 -0.5840 -0.1445
  527SOL    HW1 2106   1.320   1.945   2.187 -0.8241  0.4347 -0.7479
  527SOL    HW2 2107   1.433   1.902   2.102 -0.9942 -0.0956  0.9852
  527SOL     MW 2108   1.396   1.961   2.154 -0.3908 -0.3851 -0.0750
  528SOL     OW 2109   0.589   3.066   2.929 -0.3785  0.7089 -0.1211
  528SOL    HW1 2110   0.661   3.128   2.904 -1.5542  2.8202  0.9621
  528SOL    HW2 2111   0.535   3.059   2.850  1.2773 -0.4936 -0.0936
  528SOL     MW 2112   0.592   3.073   2.916 -0.3151  0.8288  0.0255
  529SOL     OW 2113   1.043   2.298   1.943  0.2696  0.1756 -0.3730
  529SOL    HW1 2114   1.043   2.356   2.022  2.8156  1.8289  0.1029
  529SOL    HW2 2115   1.050   2.358   1.868 -0.0296  0.6073  2.4375
  529SOL     MW 2116   1.044   2.313   1.944  0.5660  0.4507  0.0606
  530SOL     OW 2117   1.166   2.436   2.991  0.1404  0.1177 -0.3341
  530SOL    HW1 2118   1.138   2.491   3.067 -0.6929  0.6138  1.1152
  530SOL    HW2 2119   1.134   2.346   2.999  0.5369 -0.7124  0.2767
  530SOL     MW 2120   1.158   2.431   3.002  0.0828  0.0736 -0.0623
  531SOL     OW 2121   0.957   1.887   2.545 -0.1609 -0.1229 -0.4724
  531SOL    HW1 2122   1.012   1.952   2.504  0.0160 -0.7490 -2.4674
  531SOL    HW2 2123   0.977   1.893   2.644  1.2670 -1.2882  3.3658
  531SOL     MW 2124   0.967   1.896   2.553  0.0508 -0.3592 -0.2292
  532SOL     OW 2125   1.789   0.225   2.800  0.5896  0.5972  0.6631
  532SOL    HW1 2126   1.755   0.172   2.724  0.0653  1.3266  1.5572
  532SOL    HW2 2127   1.876   0.253   2.780  1.4936 -2.8414  3.1677
  532SOL     MW 2128   1.796   0.222   2.787  0.6397  0.2398  1.1115
  533SOL     OW 2129   1.968   2.523   0.009  0.2042 -0.0837 -0.4124
  533SOL    HW1 2130   1.918   2.463   0.066 -0.3776 -0.0388 -1.2135
  533SOL    HW2 2131   1.904   2.590  -0.012 -1.4739  0.5999 -1.8986
  533SOL     MW 2132   1.953   2.524   0.014 -0.0940  0.0124 -0.7142
  534SOL     OW 2133   1.703   2.393   2.539  0.1784  0.5496  0.4422
  534SOL    HW1 2134   1.653   2.316   2.570 -0.7674 -0.9377  1.5102
  534SOL    HW2 2135   1.774   2.417   2.599 -0.7440 -0.0573  1.5862
  534SOL     MW 2136   1.706   2.386   2.551 -0.0681  0.2733  0.7341
  535SOL     OW 2137   1.880   2.340   1.886 -0.0689 -0.7417  0.3292
  535SOL    HW1 2138   1.829   2.349   1.804 -1.5554 -0.7782  4.4050
  535SOL    HW2 2139   1.975   2.339   1.863 -1.3962 -0.6860  0.5640
  535SOL     MW 2140   1.886   2.341   1.872 -0.4402 -0.7392  0.8979
  536SOL     OW 2141   0.485   1.886   2.110 -0.1489  0.3029  0.2809
  536SOL    HW1 2142   0.462   1.849   2.022 -0.5528  0.4690 -2.9890
  536SOL    HW2 2143   0.537   1.961   2.091  0.6459 -0.7528  1.2157
  536SOL     MW 2144   0.489   1.891   2.096 -0.0973  0.1855 -0.0272
  537SOL     OW 2145   1.044   0.300   2.770 -0.0749 -0.1587 -0.0284
  537SOL    HW1 2146   1.033   0.374   2.822 -0.1525  0.9322 -1.9895
  537SOL    HW2 2147   1.069   0.340   2.690 -0.3008 -1.1341  0.7080
  537SOL     MW 2148   1.046   0.315   2.766 -0.1149 -0.1434 -0.1900
  538SOL     OW 2149   1.423   0.069   0.023  0.1163  0.0501 -0.7529
  538SOL    HW1 2150   1.422   0.163   0.042  0.4895 -0.6317  3.1587
  538SOL    HW2 2151   1.339   0.045  -0.013 -0.0567  1.0436  2.6275
  538SOL     MW 2152   1.412   0.078   0.021  0.1427  0.0912  0.2092
  539SOL     OW 2153   0.726   2.856   2.594 -0.4544 -0.3138 -0.5621
  539SOL    HW1 2154   0.809   2.892   2.624 -1.4754  0.3032 -0.0840
  539SOL    HW2 2155   0.702   2.782   2.652 -0.6834 -2.2987  2.9887
  539SOL     MW 2156   0.733   2.851   2.606 -0.6193 -0.4943 -0.0305
  540SOL     OW 2157   0.299   2.456   2.874 -0.1790  0.6668 -0.0312
  540SOL    HW1 2158   0.300   2.526   2.936 -0.0762 -0.2801  0.6160
  540SOL    HW2 2159   0.264   2.380   2.921  1.4857  1.4154  1.9809
  540SOL     MW 2160   0.295   2.455   2.888  0.0542  0.6406  0.3196
  541SOL     OW 2161   0.275   2.945   2.113  0.0518  0.4417  0.6042
  541SOL    HW1 2162   0.224   2.862   2.123  1.2750 -1.1188 -0.9304
  541SOL    HW2 2163   0.312   2.955   2.199 -0.3210 -0.4156  1.7566
  541SOL     MW 2164   0.273   2.935   2.125  0.1640  0.1227  0.5538
  542SOL     OW 2165   0.949   2.254   2.647 -0.3536  0.2385  0.7022
  542SOL    HW1 2166   0.885   2.219   2.713 -1.7067  0.6733  2.6340
  542SOL    HW2 2167   1.000   2.323   2.692 -0.9853 -1.0578  1.8979
  542SOL     MW 2168   0.947   2.259   2.662 -0.6154  0.1248  1.1148
  543SOL     OW 2169   1.630   2.463   2.858  0.7177  0.1931  0.5427
  543SOL    HW1 2170   1.600   2.405   2.786 -2.7303 -2.4184 -0.1446
  543SOL    HW2 2171   1.657   2.544   2.816 -1.0411  0.4600  0.9230
  543SOL     MW 2172   1.630   2.466   2.843  0.0307 -0.1162  0.5022
  544SOL     OW 2173   0.651   0.318   2.724  0.3918  0.3886 -0.0211
  544SOL    HW1 2174   0.567   0.310   2.771 -2.7902 -1.9106 -0.6343
  544SOL    HW2 2175   0.655   0.254   2.654 -0.8389  0.7928  1.2958
  544SOL     MW 2176   0.641   0.308   2.721 -0.1904  0.1386  0.0718
  545SOL     OW 2177   1.548   2.119   2.380 -0.2424 -0.0036  0.6139
  545SOL    HW1 2178   1.493   2.085   2.311  0.5460 -1.9899  3.2227
  545SOL    HW2 2179   1.626   2.071   2.358  2.0448 -1.4599 -0.7368
  545SOL     MW 2180   1.551   2.108   2.368  0.1634 -0.4578  0.7799
  546SOL     OW 2181   2.918   1.971   0.156 -0.0155  0.0291 -0.1135
  546SOL    HW1 2182   2.891   2.036   0.091  1.3933 -1.9153 -0.8915
  546SOL    HW2 2183   3.009   1.955   0.133  1.0731 -0.6440 -0.9164
  546SOL     MW 2184   2.927   1.977   0.144  0.3140 -0.3162 -0.3221
  547SOL     OW 2185   0.182   0.063   0.096 -0.6235  0.0247  0.0435
  547SOL    HW1 2186   0.269   0.084   0.052  0.1400  3.6625  0.7057
  547SOL    HW2 2187   0.120   0.040   0.032 -0.6978  2.5975  1.3616
  547SOL     MW 2188   0.186   0.062   0.082 -0.5326  0.8441  0.3048
  548SOL     OW 2189   0.370   2.573   0.263  0.0581 -0.0399  0.3308
  548SOL    HW1 2190   0.346   2.599   0.171 -1.7752 -0.4445 -0.3929
  548SOL    HW2 2191   0.299   2.508   0.290  0.7365 -2.6172 -0.7228
  548SOL     MW 2192   0.358   2.568   0.254 -0.0943 -0.4333  0.0963
  549SOL     OW 2193   0.828   1.938   2.161 -0.4292  0.3797  0.5847
  549SOL    HW1 2194   0.763   2.009   2.138 -3.5658  1.0836 -1.3634
  549SOL    HW2 2195   0.779   1.896   2.232 -2.0090  0.5419 -0.7160
  549SOL     MW 2196   0.813   1.942   2.167 -1.0515  0.4939  0.1561
  550SOL     OW 2197   1.788   1.646   2.526 -0.3370  0.5892 -0.1799
  550SOL    HW1 2198   1.793   1.640   2.431 -2.5011  1.8416 -2.5800
  550SOL    HW2 2199   1.760   1.740   2.534 -1.6779 -0.8200 -3.3332
  550SOL     MW 2200   1.785   1.657   2.514 -0.7995  0.5685 -0.9126
  551SOL     OW 2201   0.915   2.232   0.226  0.3083  0.0407  0.1669
  551SOL    HW1 2202   1.007   2.260   0.221 -1.8749  0.9420  2.3613
  551SOL    HW2 2203   0.907   2.158   0.163 -2.1151 -4.0388 -0.0166
  551SOL     MW 2204   0.926   2.226   0.217 -0.2995 -0.3787  0.4322
  552SOL     OW 2205   1.772   1.696   2.217  0.2798 -0.1973 -0.1281
  552SOL    HW1 2206   1.678   1.686   2.244 -1.5036  2.3837  2.9351
  552SOL    HW2 2207   1.808   1.638   2.147  2.3044  0.7253 -1.9693
  552SOL     MW 2208   1.765   1.687   2.211  0.3116  0.2649  0.0332
  553SOL     OW 2209   1.255   2.283   1.616  0.3052 -1.0269  0.4552
  553SOL    HW1 2210   1.286   2.194   1.604  0.4253 -0.9590  0.5400
  553SOL    HW2 2211   1.316   2.339   1.557  1.5921 -0.8874  0.4104
  553SOL     MW 2212   1.267   2.278   1.607  0.4908 -0.9995  0.4605
  554SOL     OW 2213   0.507   2.979   2.671  0.0192  0.2029 -0.1219
  554SOL    HW1 2214   0.472   3.029   2.600 -0.6446  2.0436  0.1226
  554SOL    HW2 2215   0.590   2.938   2.637 -0.6146  0.9919  0.2550
  554SOL     MW 2216   0.513   2.980   2.657 -0.1520  0.5499 -0.0399
  555SOL     OW 2217   0.661   2.533   2.638  0.4514  0.1566 -0.4382
  555SOL    HW1 2218   0.617   2.445   2.629 -2.3847 -2.5129 -0.3273
  555SOL    HW2 2219   0.738   2.519   2.583  0.0031 -1.9891 -1.2146
  555SOL     MW 2220   0.665   2.519   2.629  0.0180 -0.4787 -0.5260
  556SOL     OW 2221   1.041   1.818   0.064  0.3386 -0.2941  0.0490
  556SOL    HW1 2222   1.048   1.756  -0.010  1.7860 -1.6340 -0.0192
  556SOL    HW2 2223   1.121   1.799   0.112 -1.2825  2.1962 -0.5659
  556SOL     MW 2224   1.052   1.807   0.061  0.3157 -0.1423 -0.0411
  557SOL     OW 2225   1.041   2.698   0.580  0.1937 -0.1953 -0.5168
  557SOL    HW1 2226   1.088   2.647   0.514 -1.2878 -3.2748 -2.2788
  557SOL    HW2 2227   1.033   2.778   0.533  0.9278  2.1703 -1.6199
  557SOL     MW 2228   1.046   2.701   0.565  0.0951 -0.2895 -0.8949
  558SOL     OW 2229   0.191   2.218   2.999 -0.4711 -0.2773 -0.1903
  558SOL    HW1 2230   0.215   2.139   3.047 -1.6288 -2.1730  0.0508
  558SOL    HW2 2231   0.130   2.263   3.066 -2.5441  1.5607  1.9742
  558SOL     MW 2232   0.186   2.213   3.014 -0.8974 -0.2849  0.1271
  559SOL     OW 2233   1.065   2.270   2.240  0.5597 -0.3851 -0.3252
  559SOL    HW1 2234   1.156   2.279   2.218  1.6196  0.1263 -0.6674
  559SOL    HW2 2235   1.056   2.178   2.218  0.7968 -0.6752 -0.7607
  559SOL     MW 2236   1.076   2.259   2.234  0.7309 -0.3559 -0.4278
  560SOL     OW 2237   2.156   2.651   0.151 -0.2323 -0.2624  0.0459
  560SOL    HW1 2238   2.218   2.675   0.082  0.4425 -1.1513 -0.2288
  560SOL    HW2 2239   2.089   2.601   0.104  1.0805 -0.3650  0.4155
  560SOL     MW 2240   2.155   2.648   0.136  0.0300 -0.3932  0.0584
  561SOL     OW 2241   0.496   2.204   0.155  0.0059 -0.0136 -0.4907
  561SOL    HW1 2242   0.467   2.218   0.064 -4.4910  2.0582  0.6921
  561SOL    HW2 2243   0.554   2.276   0.189  1.9837  0.2634 -1.1340
  561SOL     MW 2244   0.500   2.216   0.147 -0.3264  0.2963 -0.4195
  562SOL     OW 2245   0.648   2.350   2.354 -0.3688  0.3235 -0.4061
  562SOL    HW1 2246   0.608   2.402   2.282 -0.8299  1.4443 -2.4205
  562SOL    HW2 2247   0.733   2.404   2.364 -2.1004  3.0928 -3.4773
  562SOL     MW 2248   0.654   2.364   2.346 -0.6581  0.8368 -1.0771
  563SOL     OW 2249   1.256   0.358   0.579 -0.1174 -0.2934  0.2668
  563SOL    HW1 2250   1.215   0.295   0.523 -0.0136 -1.6345  0.3237
  563SOL    HW2 2251   1.233   0.345   0.679 -3.4025 -1.8565  0.8538
  563SOL     MW 2252   1.248   0.348   0.585 -0.5372 -0.6766  0.3518
  564SOL     OW 2253   0.973   2.743   2.354 -0.5742  0.0665 -0.1076
  564SOL    HW1 2254   1.027   2.807   2.312  0.7859  1.0174  1.5852
  564SOL    HW2 2255   1.014   2.734   2.451  0.1333 -0.5403 -1.7497
  564SOL     MW 2256   0.985   2.750   2.361 -0.3014  0.1119 -0.1009
  565SOL     OW 2257   2.758   2.762   2.617  0.4325 -0.9148  0.2399
  565SOL    HW1 2258   2.763   2.846   2.574  0.4691 -0.2687  0.0018
  565SOL    HW2 2259   2.722   2.710   2.542 -5.6748 -3.1611 -1.7690
  565SOL     MW 2260   2.754   2.766   2.601 -0.3684 -1.1260 -0.0566
  566SOL     OW 2261   2.174   1.905   2.359 -0.5234 -0.4015 -0.8573
  566SOL    HW1 2262   2.165   1.871   2.272  2.0617 -0.2686  1.6920
  566SOL    HW2 2263   2.249   1.972   2.357 -1.9658 -1.2127 -0.4740
  566SOL     MW 2264   2.183   1.909   2.347 -0.3727 -0.4910 -0.4704
  567SOL     OW 2265   1.184   3.060  -0.004 -0.7132  1.2209 -0.4258
  567SOL    HW1 2266   1.156   3.074   0.087  0.5363  0.5871 -1.1864
  567SOL    HW2 2267   1.227   2.971  -0.008  2.7743 -0.0240 -1.0341
  567SOL     MW 2268   1.186   3.050   0.007 -0.0882  0.9730 -0.6064
  568SOL     OW 2269   1.648   2.031   2.858  0.3142 -0.2945 -0.5463
  568SOL    HW1 2270   1.689   2.090   2.922 -2.3123  1.2188  0.2126
  568SOL    HW2 2271   1.701   2.023   2.780 -0.9946  1.2193  0.0523
  568SOL     MW 2272   1.660   2.037   2.856 -0.2050  0.1049 -0.3672
  569SOL     OW 2273   0.129   2.251   2.426 -0.4931  0.5583  0.2859
  569SOL    HW1 2274   0.084   2.303   2.363  3.6764 -2.1786 -0.8060
  569SOL    HW2 2275   0.179   2.311   2.486 -1.1923 -3.5198  3.5176
  569SOL     MW 2276   0.129   2.265   2.425 -0.0353 -0.3409  0.5682
  570SOL     OW 2277   1.511   0.321   0.453  0.0628 -0.0297 -0.0503
  570SOL    HW1 2278   1.431   0.346   0.507 -0.2097  2.2765 -0.8668
  570SOL    HW2 2279   1.591   0.349   0.509  0.6033  0.6496  1.7572
  570SOL     MW 2280   1.511   0.328   0.467  0.0982  0.3642  0.0805
  571SOL     OW 2281   1.328   2.332   2.128 -0.7386 -0.9880  0.0913
  571SOL    HW1 2282   1.379   2.372   2.201  1.5818  0.0618 -0.1016
  571SOL    HW2 2283   1.392   2.287   2.070 -1.2844  1.9255  1.0407
  571SOL     MW 2284   1.343   2.331   2.130 -0.5044 -0.4651  0.1911
  572SOL     OW 2285   1.096   2.588   0.122 -0.3509 -0.2064  0.4658
  572SOL    HW1 2286   1.098   2.664   0.064 -1.2449 -4.4227  3.3470
  572SOL    HW2 2287   0.999   2.562   0.114 -1.9454 -0.6385 -3.0714
  572SOL     MW 2288   1.084   2.595   0.113 -0.6792 -0.8197  0.3792
  573SOL     OW 2289   1.191   2.318   0.291 -0.8412  0.6535 -0.1590
  573SOL    HW1 2290   1.273   2.316   0.235  1.4759 -0.9950  0.4836
  573SOL    HW2 2291   1.190   2.399   0.345  2.0553  1.0454 -0.3822
  573SOL     MW 2292   1.202   2.329   0.291 -0.1534  0.4877 -0.1036
  574SOL     OW 2293   1.179   2.579   0.373  0.0626  0.0364  0.3552
  574SOL    HW1 2294   1.251   2.643   0.370  0.2290 -2.4893 -0.2049
  574SOL    HW2 2295   1.133   2.590   0.291  2.0772 -0.0665 -2.4086
  574SOL     MW 2296   1.183   2.589   0.362  0.3504 -0.3104 -0.0834
  575SOL     OW 2297   0.027   2.209   1.704  0.9632 -0.4240  0.8690
  575SOL    HW1 2298   0.036   2.128   1.653  0.3043 -0.1938 -0.1131
  575SOL    HW2 2299   0.094   2.197   1.769  0.0226  0.7470  1.1352
  575SOL     MW 2300   0.037   2.197   1.706  0.7522 -0.2391  0.7745
  576SOL     OW 2301   2.907   1.854   1.919 -0.2447 -0.0691  0.2552
  576SOL    HW1 2302   2.907   1.948   1.897  1.0155  0.9699  0.0106
  576SOL    HW2 2303   2.837   1.805   1.868  0.3187  2.2465  2.6424
  576SOL     MW 2304   2.897   1.860   1.909 -0.0041  0.3735  0.5379
  577SOL     OW 2305   2.137   0.164   0.059 -0.4794 -0.5250  0.3850
  577SOL    HW1 2306   2.078   0.136  -0.009 -0.1910 -1.6712 -0.8067
  577SOL    HW2 2307   2.121   0.096   0.128 -1.7753  0.8861 -0.1277
  577SOL     MW 2308   2.127   0.152   0.059 -0.6123 -0.4900  0.1601
  578SOL     OW 2309   1.975   2.103   2.359 -0.3226 -0.4698  0.2323
  578SOL    HW1 2310   1.913   2.061   2.294 -2.1395 -0.2428 -2.9178
  578SOL    HW2 2311   2.060   2.044   2.347  4.1013  0.9901  0.3460
  578SOL     MW 2312   1.978   2.090   2.349  0.0214 -0.2473 -0.1683
  579SOL     OW 2313   0.875   2.460   2.450  0.1806 -0.3611  0.2912
  579SOL    HW1 2314   0.918   2.391   2.501  2.3476 -2.5135  2.9422
  579SOL    HW2 2315   0.930   2.486   2.379 -0.4230  0.2698 -1.3530
  579SOL     MW 2316   0.888   2.454   2.447  0.3869 -0.5618  0.4240
  580SOL     OW 2317   0.988   2.802   3.091 -0.5992  0.0166 -0.2199
  580SOL    HW1 2318   1.004   2.895   3.090  1.1375 -0.7220  3.0356
  580SOL    HW2 2319   0.921   2.809   3.012  0.5562  3.0494  2.4686
  580SOL     MW 2320   0.981   2.815   3.081 -0.2176  0.3193  0.5643
  581SOL     OW 2321   1.111   2.454   1.744  0.4923 -0.1314  0.0631
  581SOL    HW1 2322   1.183   2.480   1.806  1.1429  0.7100 -0.4179
  581SOL    HW2 2323   1.150   2.386   1.686  0.2231  0.6340 -0.9011
  581SOL     MW 2324   1.126   2.448   1.745  0.5426  0.0806 -0.1276
  582SOL     OW 2325   3.093   2.936   2.653 -0.2880  0.3067  0.6047
  582SOL    HW1 2326   3.021   2.975   2.707  0.0090 -2.2383 -0.2759
  582SOL    HW2 2327   3.160   2.921   2.718  1.4437 -0.1028  1.7249
  582SOL     MW 2328   3.092   2.939   2.669 -0.0203 -0.0831  0.6363
  583SOL     OW 2329   1.961   2.382   2.667  0.2520 -0.2743 -0.2536
  583SOL    HW1 2330   2.032   2.393   2.604 -0.3057 -0.4630 -0.7799
  583SOL    HW2 2331   1.960   2.284   2.688  1.4591 -2.4277 -1.0237
  583SOL     MW 2332   1.970   2.371   2.662  0.3377 -0.5833 -0.4247
  584SOL     OW 2333   0.203   1.872   2.180  0.2989  0.1231  0.0907
  584SOL    HW1 2334   0.166   1.870   2.273 -0.0407 -0.3241 -1.1752
  584SOL    HW2 2335   0.295   1.897   2.179  1.2520 -1.4801 -3.0795
  584SOL     MW 2336   0.211   1.875   2.192  0.3798 -0.1474 -0.4946
  585SOL     OW 2337   1.554   2.608   0.179 -0.1653 -1.0899  0.3670
  585SOL    HW1 2338   1.512   2.609   0.089  1.7049 -0.4635 -1.2427
  585SOL    HW2 2339   1.487   2.649   0.236  2.1126 -1.0479 -0.8706
  585SOL     MW 2340   1.539   2.614   0.175  0.3820 -1.0017 -0.0087
  586SOL     OW 2341   1.342   2.768   2.587  0.4059  0.1701 -0.1388
  586SOL    HW1 2342   1.369   2.754   2.497 -1.8094  0.0053  2.9765
  586SOL    HW2 2343   1.336   2.867   2.604  0.7235 -1.0406  1.3784
  586SOL     MW 2344   1.345   2.779   2.577  0.1555 -0.0114  0.4724
  587SOL     OW 2345   1.281   1.515   2.156  0.2559  0.4803  0.0535
  587SOL    HW1 2346   1.263   1.422   2.148  0.4267  0.3817 -1.2162
  587SOL    HW2 2347   1.258   1.554   2.077  0.9051  1.3606  1.7046
  587SOL     MW 2348   1.275   1.508   2.144  0.3641  0.5834  0.1039
  588SOL     OW 2349   1.299   2.046   2.645 -0.2687 -0.0679 -0.2971
  588SOL    HW1 2350   1.315   1.964   2.694 -1.9019  0.2062 -1.0558
  588SOL    HW2 2351   1.257   2.105   2.708  3.7611  1.7601 -0.4601
  588SOL     MW 2352   1.295   2.043   2.660  0.0475  0.2095 -0.4187
  589SOL     OW 2353   1.334   2.050   0.032 -0.6611  0.2834 -0.5677
  589SOL    HW1 2354   1.355   2.134   0.072  3.0228 -2.4216  0.3758
  589SOL    HW2 2355   1.312   1.989   0.099 -1.0037 -0.0246 -1.2058
  589SOL     MW 2356   1.334   2.053   0.046 -0.2203 -0.1141 -0.5274
  590SOL     OW 2357   0.477   2.677   2.220  0.0243 -0.0787 -0.5459
  590SOL    HW1 2358   0.457   2.683   2.120  0.8538  0.3181  0.9095
  590SOL    HW2 2359   0.553   2.742   2.236  1.5457  0.4708  0.5599
  590SOL     MW 2360   0.484   2.686   2.209  0.3345  0.0461 -0.2080
  591SOL     OW 2361   2.206   0.676   0.168  0.0043 -0.3481  0.3091
  591SOL    HW1 2362   2.135   0.696   0.222  1.2749 -1.6430 -3.2687
  591SOL    HW2 2363   2.184   0.703   0.081 -0.3539  0.2309  1.6866
  591SOL     MW 2364   2.194   0.682   0.164  0.1246 -0.4425  0.0188
  592SOL     OW 2365   1.641   2.924   0.720  0.6001  0.4874 -0.1768
  592SOL    HW1 2366   1.639   3.016   0.744  1.1898 -0.6020 -0.8266
  592SOL    HW2 2367   1.724   2.897   0.770 -1.1810 -0.8824  1.9357
  592SOL     MW 2368   1.652   2.933   0.730  0.4429  0.1629  0.0162
  593SOL     OW 2369   1.904   0.724   0.684 -0.6859 -0.5280 -0.5298
  593SOL    HW1 2370   1.846   0.710   0.612 -0.8470 -2.2943  2.3603
  593SOL    HW2 2371   1.958   0.642   0.695  1.2885  0.8986  0.9518
  593SOL     MW 2372   1.904   0.712   0.676 -0.4467 -0.5728  0.0470
  594SOL     OW 2373   2.841   1.104   1.374 -0.2973  0.7624 -0.1630
  594SOL    HW1 2374   2.935   1.129   1.354  1.9543 -0.1067 -1.0889
  594SOL    HW2 2375   2.784   1.183   1.356  0.6847 -0.1495  1.7842
  594SOL     MW 2376   2.846   1.117   1.369  0.1293  0.5274 -0.0283
  595SOL     OW 2377   0.544   0.934   0.856 -0.4440  0.0201  0.4425
  595SOL    HW1 2378   0.514   0.989   0.778 -1.8591 -1.6113 -0.8347
  595SOL    HW2 2379   0.579   1.005   0.919 -1.6135  0.0234  0.3969
  595SOL     MW 2380   0.544   0.951   0.854 -0.7850 -0.1947  0.2680
  596SOL     OW 2381   2.431   1.321   0.497 -0.4647 -0.1760  0.0830
  596SOL    HW1 2382   2.448   1.399   0.446  0.6847 -1.7184 -1.4473
  596SOL    HW2 2383   2.429   1.339   0.590 -2.4772 -3.4853 -0.6464
  596SOL     MW 2384   2.433   1.334   0.503 -0.5785 -0.8162 -0.2151
  597SOL     OW 2385   2.241   0.681   1.654 -0.1827  0.4917 -0.1326
  597SOL    HW1 2386   2.285   0.616   1.717 -0.3038 -3.6202  0.9230
  597SOL    HW2 2387   2.190   0.626   1.601  3.0591  2.8505  0.9462
  597SOL     MW 2388   2.240   0.665   1.655  0.2291  0.2604  0.1490
  598SOL     OW 2389   2.580   0.994   2.862  0.2014 -0.0700  0.0527
  598SOL    HW1 2390   2.626   0.940   2.797 -0.1807 -0.6152 -1.5607
  598SOL    HW2 2391   2.647   1.061   2.885  0.8934  0.5434  0.4623
  598SOL     MW 2392   2.595   0.996   2.856  0.2423 -0.0610 -0.1061
  599SOL     OW 2393   2.998   0.536   2.220 -0.0841  0.4394  0.4623
  599SOL    HW1 2394   3.065   0.590   2.268  0.7400 -0.8021 -2.8249
  599SOL    HW2 2395   3.031   0.561   2.129  1.4465 -0.4996 -4.0480
  599SOL     MW 2396   3.011   0.546   2.215  0.2266  0.1517 -0.5665
  600SOL     OW 2397   1.837   1.679   0.834  0.1849 -0.3716  0.7244
  600SOL    HW1 2398   1.856   1.717   0.921  0.8551  1.3440 -0.8319
  600SOL    HW2 2399   1.746   1.702   0.827 -0.4083 -1.8389 -0.2682
  600SOL     MW 2400   1.827   1.687   0.845  0.1951 -0.3388  0.3881
  601SOL     OW 2401   2.543   0.777   0.853  0.3123  0.4103  0.4550
  601SOL    HW1 2402   2.544   0.749   0.951 -1.3833 -1.2344 -0.4147
  601SOL    HW2 2403   2.492   0.701   0.813 -2.0530 -1.1398 -0.0054
  601SOL     MW 2404   2.537   0.763   0.861 -0.2235 -0.0112  0.2795
  602SOL     OW 2405   2.233   1.962   0.768  0.4600  0.3752  0.4780
  602SOL    HW1 2406   2.182   1.893   0.733 -0.4680  0.0052 -1.4594
  602SOL    HW2 2407   2.190   2.049   0.747 -0.0399 -1.1719  0.4941
  602SOL     MW 2408   2.220   1.964   0.761  0.2716  0.1223  0.2245
  603SOL     OW 2409   3.031   1.334   1.982  0.0107 -0.1408 -0.2583
  603SOL    HW1 2410   2.989   1.389   2.054 -2.8118  2.6425  0.2208
  603SOL    HW2 2411   3.076   1.259   2.027  0.2920  0.0322  0.8127
  603SOL     MW 2412   3.031   1.331   1.997 -0.3246  0.2492 -0.0538
  604SOL     OW 2413   2.029   1.376   0.360  0.2925 -0.2983 -0.0271
  604SOL    HW1 2414   2.080   1.304   0.403 -0.3451 -2.5053 -0.5965
  604SOL    HW2 2415   1.970   1.401   0.430 -3.2298 -3.2007 -2.4780
  604SOL     MW 2416   2.028   1.370   0.375 -0.2563 -0.9724 -0.4256
  605SOL     OW 2417   2.438   1.443   0.790  0.4115  0.2646  0.3635
  605SOL    HW1 2418   2.483   1.521   0.756  0.2966 -0.3311 -1.3029
  605SOL    HW2 2419   2.502   1.372   0.778 -2.8399 -1.6313 -3.3207
  605SOL     MW 2420   2.452   1.444   0.784 -0.0326 -0.0642 -0.3425
  606SOL     OW 2421   2.688   1.798   1.773 -0.0596  0.4344 -0.4839
  606SOL    HW1 2422   2.614   1.846   1.740 -0.4844 -1.1924  1.8994
  606SOL    HW2 2423   2.671   1.708   1.770 -0.4856  1.5874  1.7167
  606SOL     MW 2424   2.676   1.792   1.768 -0.1718  0.3719  0.1209
  607SOL     OW 2425   2.393   1.028   3.082  0.0407  0.4646 -0.3431
  607SOL    HW1 2426   2.456   0.992   3.011  1.5053 -1.0374  2.3915
  607SOL    HW2 2427   2.437   0.998   3.164  0.4332  1.5147  1.8941
  607SOL     MW 2428   2.407   1.020   3.084  0.2857  0.4050  0.3129
  608SOL     OW 2429   1.911   0.239   0.433  0.1296 -0.5719 -0.6988
  608SOL    HW1 2430   1.886   0.268   0.344  1.1050  0.4175  1.3069
  608SOL    HW2 2431   1.875   0.146   0.435 -1.5636 -0.1418  1.7413
  608SOL     MW 2432   1.903   0.231   0.421  0.0349 -0.3846 -0.1122
  609SOL     OW 2433   2.086   1.910   3.071  0.0087  0.4755 -0.2173
  609SOL    HW1 2434   2.079   1.824   3.034  0.6606  0.6899  1.8637
  609SOL    HW2 2435   2.079   1.888   3.166 -0.0695 -1.8803 -1.5827
  609SOL     MW 2436   2.084   1.896   3.079  0.0844  0.1930 -0.1229
  610SOL     OW 2437   1.780   0.971   1.251 -0.3105  0.1669 -0.2916
  610SOL    HW1 2438   1.806   0.887   1.198 -1.6745 -4.1946 -0.9118
  610SOL    HW2 2439   1.695   0.981   1.214  0.3799  0.5827  1.6367
  610SOL     MW 2440   1.772   0.961   1.239 -0.3993 -0.3537 -0.1190
  611SOL     OW 2441   2.469   1.670   0.559  0.2053  0.2015  0.0461
  611SOL    HW1 2442   2.464   1.642   0.469  0.1034 -2.3106  0.5666
  611SOL    HW2 2443   2.448   1.765   0.557 -0.6834  2.3144 -0.6796
  611SOL     MW 2444   2.466   1.679   0.547  0.0746  0.1488  0.0190
  612SOL     OW 2445   2.899   2.844   0.379  0.1531  0.3043 -0.4382
  612SOL    HW1 2446   2.933   2.880   0.457  0.2545  0.4105 -2.6733
  612SOL    HW2 2447   2.972   2.848   0.314 -1.4229  0.2400  0.0509
  612SOL     MW 2448   2.913   2.849   0.381 -0.0415  0.3098 -0.6685
  613SOL     OW 2449   1.452   1.128   0.928  0.2677 -0.4959  0.1060
  613SOL    HW1 2450   1.487   1.216   0.908  0.6023  0.6547 -1.6555
  613SOL    HW2 2451   1.470   1.113   1.024 -2.5083  0.4494 -1.2645
  613SOL     MW 2452   1.459   1.138   0.938 -0.0544 -0.2194 -0.3072
  614SOL     OW 2453   2.092   0.526   1.442  0.7128  0.7496  0.1793
  614SOL    HW1 2454   2.071   0.460   1.512 -0.0150 -0.4658  0.4923
  614SOL    HW2 2455   2.007   0.547   1.393  1.7887 -0.4787  0.4994
  614SOL     MW 2456   2.078   0.520   1.445  0.7587  0.4272  0.2628
  615SOL     OW 2457   2.417   0.742   0.343  0.4535 -0.1115  0.0417
  615SOL    HW1 2458   2.485   0.666   0.353 -1.1381 -2.9273 -0.0763
  615SOL    HW2 2459   2.346   0.710   0.280  0.3312 -0.4049 -1.9910
  615SOL     MW 2460   2.416   0.728   0.336  0.2274 -0.5217 -0.2421
  616SOL     OW 2461   2.563   0.375   1.657 -0.1187 -0.2755  0.3122
  616SOL    HW1 2462   2.541   0.309   1.596 -1.3204 -0.2849  0.4077
  616SOL    HW2 2463   2.558   0.463   1.614 -0.8938 -1.1389  0.3311
  616SOL     MW 2464   2.560   0.378   1.643 -0.3795 -0.3907  0.3273
  617SOL     OW 2465   2.808   0.582   1.785  0.3583  0.9657 -0.7127
  617SOL    HW1 2466   2.737   0.581   1.852 -0.8025  0.9243  1.5502
  617SOL    HW2 2467   2.820   0.483   1.761 -0.2373 -1.6235  0.8391
  617SOL     MW 2468   2.800   0.569   1.790  0.1266  0.6186 -0.2094
  618SOL     OW 2469   2.856   0.200   1.997  0.6011  0.1395  0.2583
  618SOL    HW1 2470   2.786   0.219   2.058 -0.4439 -4.4872 -0.3994
  618SOL    HW2 2471   2.933   0.236   2.041  1.2214  1.1895 -2.3374
  618SOL     MW 2472   2.857   0.207   2.011  0.5451 -0.3324 -0.1710
  619SOL     OW 2473   2.732   0.722   0.043  0.2945  0.2161 -0.0453
  619SOL    HW1 2474   2.753   0.810   0.022  1.0672 -0.5256  0.8227
  619SOL    HW2 2475   2.799   0.690   0.098 -1.7052 -0.2419 -1.9015
  619SOL     MW 2476   2.744   0.729   0.048  0.1326  0.0578 -0.1757
  620SOL     OW 2477   2.225   0.997   0.879  0.0521 -0.2608 -0.5470
  620SOL    HW1 2478   2.309   1.009   0.835 -1.3715 -4.2221 -3.0250
  620SOL    HW2 2479   2.158   0.977   0.812 -2.1825  0.6790  1.8469
  620SOL     MW 2480   2.227   0.996   0.865 -0.4306 -0.6595 -0.5581
  621SOL     OW 2481   1.502   2.167   2.000  0.2583 -0.2262  0.1043
  621SOL    HW1 2482   1.472   2.107   2.069 -4.0715  2.5182  0.7389
  621SOL    HW2 2483   1.592   2.186   2.020 -0.2504 -1.8907  0.1029
  621SOL     MW 2484   1.510   2.162   2.012 -0.3801 -0.0837  0.1879
  622SOL     OW 2485   2.632   0.293   0.187 -0.1198  0.2265  0.1253
  622SOL    HW1 2486   2.722   0.317   0.180 -2.4716 -1.6846  1.3003
  622SOL    HW2 2487   2.629   0.199   0.197 -0.9212  2.6969 -1.5324
  622SOL     MW 2488   2.644   0.284   0.188 -0.5358  0.3003  0.0616
  623SOL     OW 2489   2.339   2.758   0.821  0.0696 -0.8104  0.2182
  623SOL    HW1 2490   2.410   2.808   0.782 -0.4790 -3.9477 -2.9991
  623SOL    HW2 2491   2.342   2.782   0.922 -5.0363  0.3134  1.2867
  623SOL     MW 2492   2.349   2.768   0.829 -0.6765 -1.0761 -0.0653
  624SOL     OW 2493   2.133   1.600   3.014 -0.0027  0.7324 -0.0633
  624SOL    HW1 2494   2.067   1.529   3.016 -0.0371 -0.5864 -0.9756
  624SOL    HW2 2495   2.210   1.561   3.052  2.6014 -0.2636  1.0572
  624SOL     MW 2496   2.134   1.585   3.019  0.3363  0.4270 -0.0359
  625SOL     OW 2497   2.134   1.947   1.032 -0.1902  0.4882 -0.2123
  625SOL    HW1 2498   2.181   1.880   1.080  0.5686  0.0344 -1.8736
  625SOL    HW2 2499   2.172   1.956   0.943 -0.8088 -1.0443 -1.8006
  625SOL     MW 2500   2.145   1.939   1.027 -0.1717  0.2261 -0.6411
  626SOL     OW 2501   0.126   1.852   2.467  0.2104  0.0803 -0.2974
  626SOL    HW1 2502   0.084   1.766   2.479 -0.4610 -2.5448  2.3690
  626SOL    HW2 2503   0.073   1.919   2.510 -0.0582  2.1775  2.1342
  626SOL     MW 2504   0.113   1.850   2.474  0.0864  0.0107  0.3752
  627SOL     OW 2505   2.613   0.832   2.601 -0.1073  0.8473  0.2091
  627SOL    HW1 2506   2.533   0.889   2.605 -1.1582 -0.2566 -1.9598
  627SOL    HW2 2507   2.590   0.772   2.530  1.7063 -2.2077 -0.2909
  627SOL     MW 2508   2.599   0.832   2.592 -0.0067  0.2985 -0.1430
  628SOL     OW 2509   2.345   1.365   1.270 -0.0829  0.1700 -0.1995
  628SOL    HW1 2510   2.331   1.275   1.246  2.2438 -0.6644  1.1648
  628SOL    HW2 2511   2.391   1.394   1.194  2.4758 -0.9462  0.6573
  628SOL     MW 2512   2.349   1.357   1.257  0.5616 -0.0874  0.0935
  629SOL     OW 2513   1.843   0.586   1.283  0.2050 -0.4576 -0.9240
  629SOL    HW1 2514   1.895   0.617   1.208  0.1813  1.7396 -0.4108
  629SOL    HW2 2515   1.750   0.586   1.254 -0.1231  1.7979  0.1244
  629SOL     MW 2516   1.838   0.590   1.269  0.1586  0.1299 -0.7179
  630SOL     OW 2517   2.365   1.958   3.065 -0.6238 -0.0594  0.2797
  630SOL    HW1 2518   2.389   2.012   2.988  0.3846  0.9903  0.0583
  630SOL    HW2 2519   2.274   1.959   3.052  2.0624  0.6242  0.2811
  630SOL     MW 2520   2.356   1.965   3.053 -0.1363  0.1693  0.2507
  631SOL     OW 2521   2.100   1.887   1.480  0.2922 -0.2569  0.3768
  631SOL    HW1 2522   2.069   1.801   1.503 -0.6538  1.0454 -2.0261
  631SOL    HW2 2523   2.022   1.947   1.482  0.7980  1.9863  0.0494
  631SOL     MW 2524   2.086   1.884   1.483  0.2341  0.2109  0.0166
  632SOL     OW 2525   0.387   1.890   1.483 -0.0034 -0.1111 -0.5917
  632SOL    HW1 2526   0.314   1.945   1.458 -0.4520  2.8846 -0.5801
  632SOL    HW2 2527   0.337   1.806   1.497 -1.8411 -2.1994 -0.8635
  632SOL     MW 2528   0.371   1.886   1.482 -0.3051  0.0086 -0.6260
  633SOL     OW 2529   2.633   0.582   0.364  0.4038 -0.0370  0.0058
  633SOL    HW1 2530   2.688   0.544   0.432  1.1060 -0.9310  0.1027
  633SOL    HW2 2531   2.624   0.509   0.306  2.3473 -1.0849 -0.2813
  633SOL     MW 2532   2.639   0.567   0.366  0.7529 -0.2932 -0.0193
  634SOL     OW 2533   2.734   0.010   0.637  0.4355  0.4109  0.0143
  634SOL    HW1 2534   2.757   0.100   0.612  2.3922  1.2689 -0.4555
  634SOL    HW2 2535   2.721  -0.030   0.551  2.4423  0.4692  0.3790
  634SOL     MW 2536   2.735   0.017   0.622  0.9585  0.5318  0.0004
  635SOL     OW 2537   2.660   0.062   1.816  0.3411 -0.4483 -0.3144
  635SOL    HW1 2538   2.707   0.001   1.766  3.5294  0.9309  1.3831
  635SOL    HW2 2539   2.729   0.106   1.865  0.4442 -1.1075 -2.6635
  635SOL     MW 2540   2.676   0.060   1.816  0.7753 -0.3533 -0.4004
  636SOL     OW 2541   2.698   1.632   0.738  0.1267  0.0379 -0.1535
  636SOL    HW1 2542   2.640   1.623   0.661  0.5242 -2.0979 -1.9093
  636SOL    HW2 2543   2.691   1.723   0.764 -1.2120  0.7944  0.4172
  636SOL     MW 2544   2.690   1.643   0.732  0.0025 -0.1441 -0.3099
  637SOL     OW 2545   2.959   1.438   0.703  0.2521  0.6183 -0.4720
  637SOL    HW1 2546   3.009   1.492   0.648 -0.9303 -0.9764  0.8051
  637SOL    HW2 2547   2.873   1.478   0.702 -0.0168  1.2013  0.5134
  637SOL     MW 2548   2.954   1.450   0.695  0.0606  0.4848 -0.1735
  638SOL     OW 2549   2.832   0.527   0.556  0.0255  0.2682 -0.0409
  638SOL    HW1 2550   2.910   0.579   0.539  0.1563 -1.0252  1.0222
  638SOL    HW2 2551   2.783   0.564   0.632 -0.7684 -0.7470 -0.7321
  638SOL     MW 2552   2.836   0.539   0.564 -0.0620 -0.0364  0.0081
  639SOL     OW 2553   1.839   3.092   0.499  0.5484  0.1930 -0.5134
  639SOL    HW1 2554   1.751   3.083   0.531  5.5513 -0.6994 -0.5869
  639SOL    HW2 2555   1.866   3.001   0.492 -1.7824  0.5294 -1.7900
  639SOL     MW 2556   1.831   3.079   0.502  0.9009  0.1196 -0.6916
  640SOL     OW 2557   0.301   1.438   0.114  0.2296 -0.6537 -0.5359
  640SOL    HW1 2558   0.322   1.424   0.019  1.2565  2.4042  1.3765
  640SOL    HW2 2559   0.337   1.363   0.160 -0.7538  2.2296 -1.0550
  640SOL     MW 2560   0.309   1.427   0.108  0.2353  0.1302 -0.3521
  641SOL     OW 2561   2.355   0.398   0.415  0.8351  0.1012  0.0652
  641SOL    HW1 2562   2.334   0.345   0.342  0.6409  1.5514  0.2498
  641SOL    HW2 2563   2.366   0.332   0.486 -3.0432 -1.5814  1.6995
  641SOL     MW 2564   2.354   0.382   0.414  0.2978  0.0705  0.3052
  642SOL     OW 2565   0.113   3.057   0.472 -0.4883  0.1511  0.4790
  642SOL    HW1 2566   0.070   3.139   0.441  1.1286 -0.0718 -0.0811
  642SOL    HW2 2567   0.053   3.025   0.538  0.5854 -3.0129 -1.0454
  642SOL     MW 2568   0.100   3.063   0.477 -0.1333 -0.2958  0.2040
  643SOL     OW 2569   2.142   0.337   1.650  0.3356  0.0443 -0.5303
  643SOL    HW1 2570   2.054   0.302   1.681 -0.4044 -1.2283  0.1040
  643SOL    HW2 2571   2.165   0.288   1.572  0.6551  0.7675  1.0614
  643SOL     MW 2572   2.133   0.326   1.644  0.2801 -0.0282 -0.2366
  644SOL     OW 2573   2.691   1.896   0.941 -0.2977 -0.2698  0.2071
  644SOL    HW1 2574   2.663   1.841   1.009 -0.5848  0.3641 -1.8852
  644SOL    HW2 2575   2.618   1.950   0.919  0.4720 -1.4025  1.7948
  644SOL     MW 2576   2.678   1.896   0.947 -0.2340 -0.3356  0.1406
  645SOL     OW 2577   2.831   0.981   0.791 -0.3490 -0.4152 -0.1755
  645SOL    HW1 2578   2.877   0.898   0.806 -1.3260  0.0363  2.9044
  645SOL    HW2 2579   2.793   1.001   0.876  2.4573 -1.2322  0.4802
  645SOL     MW 2580   2.832   0.973   0.804 -0.1076 -0.4634  0.3173
  646SOL     OW 2581   0.122   2.265   0.859 -0.2870  0.1977  0.5523
  646SOL    HW1 2582   0.103   2.175   0.866 -0.0293 -3.7420  0.3396
  646SOL    HW2 2583   0.078   2.305   0.781 -1.2997  1.8107 -0.1950
  646SOL     MW 2584   0.114   2.259   0.850 -0.3866 -0.1093  0.4256
  647SOL     OW 2585   2.793   0.436   3.017 -0.5243 -0.8431 -0.0241
  647SOL    HW1 2586   2.707   0.451   2.981  0.6758 -0.5436  2.6924
  647SOL    HW2 2587   2.818   0.527   3.030  0.6136 -1.7455 -2.4137
  647SOL     MW 2588   2.785   0.450   3.014 -0.2158 -0.9226  0.0191
  648SOL     OW 2589   2.091   0.634   1.107 -0.9337 -0.0844 -0.5715
  648SOL    HW1 2590   2.165   0.593   1.159  0.6339  1.7901  0.1542
  648SOL    HW2 2591   2.141   0.671   1.037  0.3409  0.8301 -0.9300
  648SOL     MW 2592   2.108   0.634   1.105 -0.5587  0.2836 -0.5231
  649SOL     OW 2593   2.397   2.644   1.294 -0.0057 -0.9334 -0.3025
  649SOL    HW1 2594   2.488   2.669   1.316 -0.4236  1.4672 -3.2799
  649SOL    HW2 2595   2.412   2.551   1.258  0.9070 -0.9422 -0.1665
  649SOL     MW 2596   2.411   2.635   1.292  0.0596 -0.6178 -0.6774
  650SOL     OW 2597   2.765   0.272   0.528  0.5022  0.0426  0.2694
  650SOL    HW1 2598   2.778   0.368   0.541  0.9042 -0.7692 -0.5473
  650SOL    HW2 2599   2.801   0.259   0.441  2.0615  1.6307  0.4312
  650SOL     MW 2600   2.771   0.283   0.518  0.7610  0.1450  0.1830
  651SOL     OW 2601   0.024   0.455   0.998  0.6482 -0.3514  0.4556
  651SOL    HW1 2602   0.061   0.515   0.930 -0.3878 -0.6494 -2.8322
  651SOL    HW2 2603  -0.070   0.488   1.007 -1.3637  0.2023  0.5908
  651SOL     MW 2604   0.016   0.467   0.990  0.2460 -0.3177  0.0396
  652SOL     OW 2605   2.334   1.420   2.891  0.3300 -0.0661  0.1000
  652SOL    HW1 2606   2.420   1.436   2.851 -0.1323 -0.6993  1.0564
  652SOL    HW2 2607   2.275   1.485   2.859 -0.7058 -1.6768  1.9621
  652SOL     MW 2608   2.337   1.431   2.882  0.1324 -0.3622  0.4719
  653SOL     OW 2609   1.836   0.387   0.189 -0.3896  0.2827 -0.3629
  653SOL    HW1 2610   1.851   0.298   0.155  0.7375  0.6884  0.2096
  653SOL    HW2 2611   1.890   0.440   0.132 -0.2388  0.4024 -2.1101
  653SOL     MW 2612   1.845   0.382   0.177 -0.2210  0.3520 -0.5179
  654SOL     OW 2613   2.459   1.006   0.735  0.3107  0.9065 -0.3711
  654SOL    HW1 2614   2.411   0.981   0.654 -0.7467  1.2988 -2.4366
  654SOL    HW2 2615   2.493   0.912   0.767 -3.2998 -0.1327  0.9975
  654SOL     MW 2616   2.457   0.990   0.729 -0.3052  0.8211 -0.4630
  655SOL     OW 2617   2.986   0.947   0.328  1.3224 -0.2467  0.6929
  655SOL    HW1 2618   2.932   0.983   0.395 -0.4318 -1.0387  0.2560
  655SOL    HW2 2619   3.013   0.860   0.359  1.5302 -1.2846 -0.7180
  655SOL     MW 2620   2.983   0.941   0.341  1.1184 -0.4882  0.4491
  656SOL     OW 2621   1.731   2.670   1.437  0.3934 -0.3795 -0.3859
  656SOL    HW1 2622   1.818   2.695   1.406  1.1553 -1.4453  0.0709
  656SOL    HW2 2623   1.717   2.587   1.393  0.9922 -0.5458 -1.4459
  656SOL     MW 2624   1.741   2.662   1.427  0.5729 -0.5421 -0.4655
  657SOL     OW 2625   0.100   1.784   1.132  0.2807  0.5045  0.3117
  657SOL    HW1 2626   0.191   1.814   1.117  2.4640 -0.4323 -0.6274
  657SOL    HW2 2627   0.094   1.705   1.083  0.3405  0.7865 -0.7533
  657SOL     MW 2628   0.111   1.778   1.124  0.5767  0.4181  0.0473
  658SOL     OW 2629   2.621   1.342   0.210 -0.5686  0.4772 -0.3153
  658SOL    HW1 2630   2.626   1.258   0.262  1.3113 -0.0414  0.7054
  658SOL    HW2 2631   2.659   1.411   0.268 -1.5868 -2.8232 -0.3962
  658SOL     MW 2632   2.627   1.340   0.225 -0.4549 -0.0267 -0.1913
  659SOL     OW 2633   2.136   1.427   1.011  0.6578  0.4561 -0.7582
  659SOL    HW1 2634   2.164   1.344   1.051  2.5710 -1.6293  0.8511
  659SOL    HW2 2635   2.140   1.491   1.082 -1.5880  4.0761 -0.1963
  659SOL     MW 2636   2.140   1.424   1.025  0.6139  0.6586 -0.4717
  660SOL     OW 2637   2.060   1.600   1.575 -0.3166 -0.4073 -0.3008
  660SOL    HW1 2638   2.088   1.622   1.662 -1.8360 -1.2040 -0.6642
  660SOL    HW2 2639   1.994   1.530   1.608 -0.0043 -0.3315 -1.7435
  660SOL     MW 2640   2.055   1.594   1.591 -0.4759 -0.5024 -0.5391
  661SOL     OW 2641   2.393   1.001   0.283  0.0756  0.9010 -0.4502
  661SOL    HW1 2642   2.472   1.052   0.321  3.5924  0.5263  1.2154
  661SOL    HW2 2643   2.427   0.909   0.285  0.4769 -1.4712 -0.7627
  661SOL     MW 2644   2.408   0.995   0.288  0.5926  0.5386 -0.2717
  662SOL     OW 2645   2.520   2.994   0.781  0.4996 -0.0088 -0.1190
  662SOL    HW1 2646   2.470   3.047   0.845 -0.0071 -1.6408  2.1879
  662SOL    HW2 2647   2.587   3.051   0.738  1.5019  1.4828 -0.8643
  662SOL     MW 2648   2.522   3.008   0.783  0.5650 -0.0273  0.0870
  663SOL     OW 2649   2.745   1.542   0.397  0.5124  0.0707 -0.3129
  663SOL    HW1 2650   2.731   1.631   0.366 -0.2522 -1.7957  1.5290
  663SOL    HW2 2651   2.816   1.558   0.467 -2.7436 -0.3939  1.6603
  663SOL     MW 2652   2.752   1.556   0.402 -0.0181 -0.2368  0.1905
  664SOL     OW 2653   2.528   1.501   1.580 -0.0896  0.1584  0.7309
  664SOL    HW1 2654   2.499   1.578   1.531  1.1842  0.3786 -0.4294
  664SOL    HW2 2655   2.450   1.473   1.625 -2.4549  1.9008 -2.5007
  664SOL     MW 2656   2.514   1.507   1.580 -0.2336  0.4174  0.1515
  665SOL     OW 2657   2.855   0.782   2.177 -0.4921  0.7029  0.2400
  665SOL    HW1 2658   2.880   0.777   2.085 -1.6082 -0.8508  0.9041
  665SOL    HW2 2659   2.897   0.699   2.211 -0.2803 -0.5957 -0.3692
  665SOL     MW 2660   2.864   0.771   2.169 -0.6114  0.3266  0.2472
  666SOL     OW 2661   2.827   2.960   1.682  0.4101 -0.0152 -0.0672
  666SOL    HW1 2662   2.782   2.992   1.604  2.3458  0.3947  0.5912
  666SOL    HW2 2663   2.771   2.889   1.731 -0.4486 -0.8513  2.8365
  666SOL     MW 2664   2.814   2.955   1.678  0.5522 -0.0714  0.4028
  667SOL     OW 2665   1.979   2.693   1.727 -0.3309  0.1562 -0.1994
  667SOL    HW1 2666   2.015   2.663   1.815 -0.3507 -0.4879  0.1687
  667SOL    HW2 2667   2.038   2.757   1.693 -2.3615 -3.9598 -0.7619
  667SOL     MW 2668   1.991   2.697   1.734 -0.6014 -0.4719 -0.2251
  668SOL     OW 2669   2.745   0.611   0.809  0.0491 -0.4006  0.1237
  668SOL    HW1 2670   2.807   0.611   0.882  1.1723 -1.8341 -0.9955
  668SOL    HW2 2671   2.683   0.682   0.822 -0.9914 -0.6850 -1.3024
  668SOL     MW 2672   2.745   0.620   0.820  0.0600 -0.6272 -0.2121
  669SOL     OW 2673   0.209   0.980   0.713  0.5609 -0.0781  0.8569
  669SOL    HW1 2674   0.217   0.950   0.808  2.1195 -0.7981 -0.4245
  669SOL    HW2 2675   0.260   1.064   0.699 -0.2548 -1.5287  1.2462
  669SOL     MW 2676   0.216   0.987   0.724  0.6589 -0.3645  0.7392
  670SOL     OW 2677   2.926   0.337   0.241  0.3526 -0.1170 -0.3532
  670SOL    HW1 2678   2.922   0.257   0.182  0.3243  1.5970  0.3973
  670SOL    HW2 2679   2.926   0.416   0.182 -1.4214 -1.0202  0.9056
  670SOL     MW 2680   2.925   0.337   0.225  0.1148 -0.0100 -0.0881
  671SOL     OW 2681   2.073   3.031   1.520  0.3100  0.0171  0.0004
  671SOL    HW1 2682   2.010   2.997   1.458  0.1761  1.9917  0.9590
  671SOL    HW2 2683   2.017   3.049   1.596  0.0178  1.2079 -0.6706
  671SOL     MW 2684   2.057   3.029   1.522  0.2538  0.4348  0.0384
  672SOL     OW 2685   1.799   1.822   1.289 -0.1492  0.0087  0.0184
  672SOL    HW1 2686   1.822   1.900   1.351  0.7599  0.0721 -0.2721
  672SOL    HW2 2687   1.824   1.844   1.201 -1.8326  0.7787  0.2359
  672SOL     MW 2688   1.805   1.836   1.285 -0.2514  0.1186  0.0088
  673SOL     OW 2689   2.829   1.092   0.538 -0.1155 -0.1604 -0.1120
  673SOL    HW1 2690   2.821   1.037   0.615  1.7040 -0.3646  3.9509
  673SOL    HW2 2691   2.914   1.136   0.557 -2.3619  1.4568  3.5739
  673SOL     MW 2692   2.839   1.090   0.551 -0.1718  0.0260  0.9104
  674SOL     OW 2693   2.477   3.045   1.164 -0.1689  0.2262 -0.8602
  674SOL    HW1 2694   2.430   3.073   1.083 -1.2780 -2.2357 -0.0079
  674SOL    HW2 2695   2.494   2.953   1.146  0.8397 -1.5131 -1.0876
  674SOL     MW 2696   2.473   3.037   1.151 -0.1822 -0.3281 -0.7778
  675SOL     OW 2697   3.020   0.839   1.035 -0.1555 -0.3787  0.3523
  675SOL    HW1 2698   3.079   0.845   1.114  5.7987 -1.0182 -2.0680
  675SOL    HW2 2699   3.037   0.924   0.984  1.7620  1.7967 -1.2735
  675SOL     MW 2700   3.030   0.851   1.039  0.8831 -0.1760 -0.1816
  676SOL     OW 2701   2.902   1.400   1.750  0.3756 -0.2263  0.5826
  676SOL    HW1 2702   2.874   1.321   1.705 -0.0169 -3.5587 -0.1981
  676SOL    HW2 2703   2.949   1.372   1.825 -1.7565 -3.3024  0.1938
  676SOL     MW 2704   2.904   1.386   1.754  0.0425 -1.0718  0.4283
  677SOL     OW 2705   2.497   0.724   1.883 -0.2476  0.1131  0.4093
  677SOL    HW1 2706   2.448   0.642   1.865 -0.1101 -2.4999  1.5777
  677SOL    HW2 2707   2.426   0.783   1.925  1.6767  1.4303  1.6227
  677SOL     MW 2708   2.481   0.721   1.886  0.0244 -0.0579  0.7235
  678SOL     OW 2709   2.387   1.561   0.319 -0.2678 -0.2095 -0.0967
  678SOL    HW1 2710   2.300   1.569   0.359  0.4099  1.3146 -1.1929
  678SOL    HW2 2711   2.376   1.514   0.233  0.2791 -0.1040 -0.2213
  678SOL     MW 2712   2.374   1.556   0.313 -0.1062  0.0055 -0.2578
  679SOL     OW 2713   2.280   0.471   1.250  0.1592 -0.1140  0.1812
  679SOL    HW1 2714   2.259   0.382   1.218  1.1529 -0.1446  1.1644
  679SOL    HW2 2715   2.216   0.494   1.315  1.2515  1.9275  0.1887
  679SOL     MW 2716   2.269   0.462   1.254  0.4344  0.1514  0.3119
  680SOL     OW 2717   2.401   0.183   1.495 -0.5353  0.4139  0.0846
  680SOL    HW1 2718   2.317   0.172   1.459  0.1451  1.5649  1.6188
  680SOL    HW2 2719   2.453   0.119   1.455 -0.5654 -3.2106  0.4428
  680SOL     MW 2720   2.397   0.173   1.485 -0.4495  0.0875  0.3343
  681SOL     OW 2721   0.240   0.588   1.451 -0.6992 -0.1751 -0.4313
  681SOL    HW1 2722   0.220   0.516   1.503  0.3774  1.6714 -0.3657
  681SOL    HW2 2723   0.225   0.556   1.357 -2.0051 -1.7956 -1.0486
  681SOL     MW 2724   0.235   0.574   1.446 -0.7294 -0.1453 -0.5041
  682SOL     OW 2725   3.041   2.845   1.546  0.5443 -0.0150  0.2571
  682SOL    HW1 2726   3.101   2.916   1.571 -4.7751 -0.2757  2.1259
  682SOL    HW2 2727   2.965   2.879   1.590  2.2372  1.6588 -0.4080
  682SOL     MW 2728   3.039   2.859   1.555  0.0658  0.1714  0.4159
  683SOL     OW 2729   2.125   0.783   3.033  0.3237 -0.9031 -0.0063
  683SOL    HW1 2730   2.041   0.736   3.040  1.4566  0.6413  0.1929
  683SOL    HW2 2731   2.080   0.870   3.055 -3.7682 -0.9844  2.0575
  683SOL     MW 2732   2.108   0.789   3.037 -0.0667 -0.7100  0.2923
  684SOL     OW 2733   2.050   1.780   0.684 -0.4623  0.1571 -0.4130
  684SOL    HW1 2734   2.096   1.729   0.612  1.3392  2.7099  0.0098
  684SOL    HW2 2735   1.981   1.721   0.720 -1.4108 -0.9595  0.6461
  684SOL     MW 2736   2.047   1.765   0.680 -0.3497  0.3466 -0.2175
  685SOL     OW 2737   2.616   1.742   1.153 -0.2045 -0.0742 -0.4517
  685SOL    HW1 2738   2.651   1.720   1.238  0.4096 -1.2616 -1.0535
  685SOL    HW2 2739   2.594   1.658   1.116  0.3071 -3.1055  0.2000
  685SOL     MW 2740   2.618   1.728   1.159 -0.0559 -0.6308 -0.4452
  686SOL     OW 2741   2.857   0.647   1.532  0.5291 -0.1089 -0.1832
  686SOL    HW1 2742   2.830   0.638   1.626  1.0789 -0.2145  2.9026
  686SOL    HW2 2743   2.954   0.661   1.532  0.5948 -2.9038 -1.2112
  686SOL     MW 2744   2.866   0.648   1.544  0.6103 -0.4916  0.0883
  687SOL     OW 2745   2.186   0.230   1.135  0.2194  0.4094  0.8912
  687SOL    HW1 2746   2.242   0.192   1.067  2.5329  0.2280 -0.6419
  687SOL    HW2 2747   2.140   0.283   1.075  0.5606 -0.0819  1.6072
  687SOL     MW 2748   2.187   0.232   1.118  0.5696  0.3207  0.7834
  688SOL     OW 2749   2.456   0.579   1.498 -0.6722  0.1416 -0.4508
  688SOL    HW1 2750   2.409   0.527   1.436  0.1250 -1.4632  0.1111
  688SOL    HW2 2751   2.390   0.627   1.553 -2.2420 -0.5481  0.7016
  688SOL     MW 2752   2.441   0.579   1.497 -0.7741 -0.1611 -0.2246
  689SOL     OW 2753   2.484   0.755   3.009 -0.5140 -0.3352 -0.4953
  689SOL    HW1 2754   2.401   0.779   3.045 -0.9547 -1.8088  0.3520
  689SOL    HW2 2755   2.541   0.722   3.076 -1.8831 -2.0393  0.6241
  689SOL     MW 2756   2.481   0.754   3.022 -0.7528 -0.7544 -0.2359
  690SOL     OW 2757   2.046   0.970   1.843  0.3559 -0.1801  0.2120
  690SOL    HW1 2758   2.012   0.884   1.858 -0.3330 -0.6677  0.3299
  690SOL    HW2 2759   2.068   0.966   1.748 -0.6534  2.8861  1.6816
  690SOL     MW 2760   2.045   0.958   1.833  0.1319  0.1601  0.4215
  691SOL     OW 2761   2.435   0.282   0.883 -0.1304 -0.3491 -0.4937
  691SOL    HW1 2762   2.530   0.312   0.888 -1.5961 -0.9786 -2.3560
  691SOL    HW2 2763   2.399   0.367   0.879  2.2158  2.4317 -0.3156
  691SOL     MW 2764   2.443   0.297   0.883 -0.0142 -0.0653 -0.7159
  692SOL     OW 2765   2.767   1.650   1.382 -0.2333  0.3871  0.0501
  692SOL    HW1 2766   2.701   1.616   1.446  1.0173 -2.6646 -1.4190
  692SOL    HW2 2767   2.802   1.728   1.419  2.0715  1.0425  0.4532
  692SOL     MW 2768   2.763   1.656   1.395  0.2358  0.0709 -0.0905
  693SOL     OW 2769   2.199   0.414   3.078 -0.2426  0.0931 -0.1293
  693SOL    HW1 2770   2.168   0.332   3.114  0.2779 -2.3021  2.3783
  693SOL    HW2 2771   2.233   0.465   3.153 -0.2471  1.4840 -0.2209
  693SOL     MW 2772   2.199   0.410   3.093 -0.1745 -0.0394  0.1895
  694SOL     OW 2773   1.971   1.176   1.181 -0.0855 -0.1085 -0.2369
  694SOL    HW1 2774   2.064   1.143   1.176 -0.3689 -1.8201  0.6635
  694SOL    HW2 2775   1.909   1.107   1.216 -1.4524  0.5150 -0.3099
  694SOL     MW 2776   1.975   1.163   1.185 -0.3033 -0.2521 -0.1278
  695SOL     OW 2777   2.923   1.431   1.320  0.2825 -0.5464  0.5654
  695SOL    HW1 2778   2.917   1.419   1.221 -3.6115 -0.5908 -1.3883
  695SOL    HW2 2779   2.888   1.521   1.331  3.2091 -1.2560 -1.9651
  695SOL     MW 2780   2.918   1.441   1.308  0.1548 -0.6458 -0.0262
  696SOL     OW 2781   2.054   1.323   0.743  0.3545 -0.3249 -0.3383
  696SOL    HW1 2782   2.129   1.366   0.789  0.7846  0.2006  0.1938
  696SOL    HW2 2783   1.999   1.274   0.804  0.6413 -0.1396  0.9760
  696SOL     MW 2784   2.057   1.322   0.757  0.4491 -0.2311 -0.0947
  697SOL     OW 2785   2.928   1.039   2.262 -0.3361 -0.3663 -0.0072
  697SOL    HW1 2786   2.848   1.099   2.253 -1.1015  1.8773  0.4919
  697SOL    HW2 2787   2.906   0.953   2.221 -0.9355  1.3895  2.1141
  697SOL     MW 2788   2.914   1.036   2.255 -0.5162  0.1614  0.3385
  698SOL     OW 2789   2.494   0.362   3.066 -0.3721  0.2332  0.1030
  698SOL    HW1 2790   2.399   0.370   3.077  4.3346  1.5118  1.0889
  698SOL    HW2 2791   2.528   0.338   3.154 -1.5577  0.0942  1.8440
  698SOL     MW 2792   2.486   0.360   3.079  0.0925  0.3836  0.4628
  699SOL     OW 2793   1.854   1.566   1.991  0.4628 -0.6884  0.4091
  699SOL    HW1 2794   1.820   1.492   2.047  1.6994 -0.8271 -0.4954
  699SOL    HW2 2795   1.921   1.522   1.938  1.1579 -1.4610 -1.0675
  699SOL     MW 2796   1.858   1.551   1.992  0.7177 -0.8087  0.0950
  700SOL     OW 2797   2.729   0.890   1.577 -0.0175  0.1537 -0.0823
  700SOL    HW1 2798   2.764   0.961   1.521  0.8670 -3.3178 -0.8686
  700SOL    HW2 2799   2.785   0.816   1.558  1.4071  0.1729  1.5600
  700SOL     MW 2800   2.741   0.889   1.567  0.2872 -0.3018  0.0307
  701SOL     OW 2801   1.637   1.054   2.561  0.3786  0.1463 -0.0416
  701SOL    HW1 2802   1.723   1.019   2.598 -0.2841  0.1149 -1.9473
  701SOL    HW2 2803   1.636   1.150   2.582  0.3484 -2.7842 -2.0630
  701SOL     MW 2804   1.648   1.062   2.569  0.2872 -0.2445 -0.5597
  702SOL     OW 2805   2.083   0.497   0.710  0.1511 -0.2290  0.5417
  702SOL    HW1 2806   2.078   0.399   0.696  0.6144  2.5755 -1.7348
  702SOL    HW2 2807   2.140   0.535   0.640 -1.4158 -1.4917 -0.6944
  702SOL     MW 2808   2.090   0.489   0.699  0.0055 -0.0256  0.0782
  703SOL     OW 2809   2.654   1.244   1.011 -0.0932 -0.4462  0.2231
  703SOL    HW1 2810   2.653   1.236   0.916  2.1752  0.0422  0.3751
  703SOL    HW2 2811   2.672   1.151   1.036 -1.3663  0.0487  0.5206
  703SOL     MW 2812   2.656   1.231   1.002  0.0382 -0.3165  0.2824
  704SOL     OW 2813   3.080   1.268   0.205  0.0696 -0.1796  0.1480
  704SOL    HW1 2814   3.013   1.200   0.226 -0.0965  2.2359  1.8776
  704SOL    HW2 2815   3.146   1.241   0.271  0.5854 -0.0334 -1.8331
  704SOL     MW 2816   3.080   1.255   0.216  0.1157  0.1584  0.1148
  705SOL     OW 2817   2.052   1.629   1.308  0.1313  0.2468 -0.1168
  705SOL    HW1 2818   1.981   1.701   1.297 -2.5642  2.0292  0.5458
  705SOL    HW2 2819   2.051   1.604   1.402 -1.8018  1.6968  1.8432
  705SOL     MW 2820   2.043   1.635   1.319 -0.4794  0.6733  0.2292
  706SOL     OW 2821   3.050   1.198   0.638 -0.1600  0.0245  0.0841
  706SOL    HW1 2822   3.122   1.215   0.575 -0.1149  1.8734 -3.6154
  706SOL    HW2 2823   3.020   1.288   0.658 -0.9653  0.3594  0.9082
  706SOL     MW 2824   3.055   1.212   0.632 -0.2603  0.3126 -0.2953
  707SOL     OW 2825   2.329   0.043   0.940 -0.3351 -0.2291 -0.0066
  707SOL    HW1 2826   2.374   0.127   0.908  0.3781  1.1379  2.2009
  707SOL    HW2 2827   2.259   0.032   0.884  0.4498  3.4135  1.2624
  707SOL     MW 2828   2.326   0.053   0.929 -0.1374  0.4318  0.4521
  708SOL     OW 2829   2.385   1.424   0.072  0.1085 -0.0356 -0.0530
  708SOL    HW1 2830   2.468   1.384   0.092 -0.4355  0.1900  0.2598
  708SOL    HW2 2831   2.377   1.411  -0.021 -1.3213 -0.1172 -0.9355
  708SOL     MW 2832   2.395   1.417   0.062 -0.1520 -0.0166 -0.1282
  709SOL     OW 2833   1.684   1.581   0.227 -0.6342 -0.0835 -0.2582
  709SOL    HW1 2834   1.670   1.617   0.138  0.6839 -0.0603 -0.6810
  709SOL    HW2 2835   1.600   1.601   0.278  0.7240  0.9588 -0.5618
  709SOL     MW 2836   1.671   1.588   0.222 -0.2811  0.0571 -0.3540
  710SOL     OW 2837   2.243   1.142   1.129 -0.4434 -0.7028  0.4856
  710SOL    HW1 2838   2.227   1.101   1.044 -2.1727  1.3326 -0.7314
  710SOL    HW2 2839   2.274   1.069   1.187  0.7457 -0.9676  3.3985
  710SOL     MW 2840   2.245   1.127   1.125 -0.5147 -0.4692  0.7093
  711SOL     OW 2841   2.391   0.105   1.755 -0.4408  0.2531 -0.2431
  711SOL    HW1 2842   2.479   0.075   1.783 -0.1553  2.7812  1.2678
  711SOL    HW2 2843   2.384   0.120   1.661 -2.1659  3.4946  1.1480
  711SOL     MW 2844   2.401   0.103   1.746 -0.6308  1.0143  0.1398
  712SOL     OW 2845   1.885   0.632   3.072  0.0203  0.4300 -0.1967
  712SOL    HW1 2846   1.824   0.660   3.007  0.7735  0.4746 -0.9272
  712SOL    HW2 2847   1.839   0.668   3.154  0.1248 -0.8573 -0.4978
  712SOL     MW 2848   1.871   0.640   3.074  0.1335  0.2661 -0.3328
  713SOL     OW 2849   2.595   0.700   1.105 -0.2759  0.2380 -0.0677
  713SOL    HW1 2850   2.585   0.608   1.120 -0.1295  2.6976  0.6683
  713SOL    HW2 2851   2.577   0.747   1.188  1.5335  0.2929  0.9439
  713SOL     MW 2852   2.591   0.694   1.118 -0.0179  0.5698  0.1629
  714SOL     OW 2853   2.261   0.202   1.980  0.7238  0.0903 -0.1343
  714SOL    HW1 2854   2.307   0.153   2.047  1.1506  0.4607  0.1215
  714SOL    HW2 2855   2.325   0.192   1.909  1.2360 -0.3056  1.4884
  714SOL     MW 2856   2.276   0.194   1.979  0.8477  0.0869  0.1136
  715SOL     OW 2857   1.831   1.975   1.714  0.2186  0.0423  0.2059
  715SOL    HW1 2858   1.918   2.011   1.748  0.0622  0.5503  0.8023
  715SOL    HW2 2859   1.815   1.886   1.741  1.6768 -0.9732  0.3177
  715SOL     MW 2860   1.840   1.968   1.722  0.3903 -0.0246  0.2994
  716SOL     OW 2861   2.437   0.547   0.732 -0.0891 -0.3757 -0.1034
  716SOL    HW1 2862   2.521   0.514   0.695 -1.6666  0.7841  0.1127
  716SOL    HW2 2863   2.384   0.587   0.669  1.1047  1.3576  1.5830
  716SOL     MW 2864   2.441   0.548   0.719 -0.1397  0.0060  0.1476
  717SOL     OW 2865   2.773   1.667   2.824 -0.1036 -0.3582 -0.5331
  717SOL    HW1 2866   2.835   1.619   2.877 -0.7628 -0.4969  0.9740
  717SOL    HW2 2867   2.757   1.741   2.874 -0.6137 -2.5284  0.5138
  717SOL     MW 2868   2.779   1.671   2.837 -0.2579 -0.6628 -0.1961
  718SOL     OW 2869   2.642   1.304   1.346  0.9124 -0.0031  0.8168
  718SOL    HW1 2870   2.559   1.343   1.378 -3.3600  1.2011 -1.8867
  718SOL    HW2 2871   2.709   1.367   1.368 -2.6335  2.0669  1.0213
  718SOL     MW 2872   2.640   1.317   1.353 -0.1191  0.4289  0.4871
  719SOL     OW 2873   2.178   1.223   0.527  0.0319  0.0949  0.2129
  719SOL    HW1 2874   2.250   1.286   0.532  0.0825 -3.2120  0.0336
  719SOL    HW2 2875   2.118   1.239   0.609  1.8700 -0.1077  1.6915
  719SOL     MW 2876   2.180   1.234   0.539  0.2811 -0.3682  0.3843
  720SOL     OW 2877   2.826   1.254   0.035 -0.4311 -0.2160  0.3508
  720SOL    HW1 2878   2.827   1.160   0.067  0.6294 -1.5421  1.0204
  720SOL    HW2 2879   2.756   1.300   0.080 -0.3035  0.5258  0.9868
  720SOL     MW 2880   2.817   1.248   0.045 -0.2743 -0.2931  0.5231
  721SOL     OW 2881   2.546   0.812   1.360 -0.3059 -0.4979 -0.2324
  721SOL    HW1 2882   2.505   0.739   1.410 -2.0500  0.0777  1.0585
  721SOL    HW2 2883   2.614   0.851   1.409  1.1431  1.7443  0.8511
  721SOL     MW 2884   2.550   0.808   1.373 -0.3448 -0.1261  0.0808
  722SOL     OW 2885   2.595   1.132   0.373  0.3428  0.1642 -0.2273
  722SOL    HW1 2886   2.542   1.209   0.402  0.2877 -0.8637 -0.9401
  722SOL    HW2 2887   2.676   1.136   0.426 -0.3450  0.9062  0.4844
  722SOL     MW 2888   2.599   1.142   0.384  0.2448  0.1265 -0.2275
  723SOL     OW 2889   2.266   1.357   1.554 -0.3099  0.6656  0.0204
  723SOL    HW1 2890   2.313   1.349   1.472  1.0159  0.1722  0.6724
  723SOL    HW2 2891   2.203   1.432   1.555  0.2183 -1.5869 -0.3227
  723SOL     MW 2892   2.264   1.366   1.543 -0.0653  0.3033  0.0612
  724SOL     OW 2893   2.441   0.232   0.598 -0.3424 -0.5062  0.0925
  724SOL    HW1 2894   2.444   0.276   0.681 -1.8394  1.5752 -0.0011
  724SOL    HW2 2895   2.535   0.210   0.579  0.8621  1.9153 -1.1482
  724SOL     MW 2896   2.454   0.235   0.606 -0.3810  0.0879 -0.0835
  725SOL     OW 2897   2.632   0.391   1.152 -0.1611 -0.3049 -0.0851
  725SOL    HW1 2898   2.703   0.415   1.210 -2.0238 -0.4806 -1.8505
  725SOL    HW2 2899   2.606   0.306   1.174 -0.4834  1.0055 -1.6191
  725SOL     MW 2900   2.638   0.383   1.162 -0.4494 -0.1552 -0.5205
  726SOL     OW 2901   2.467   2.469   0.428 -0.5718 -0.5642 -0.0901
  726SOL    HW1 2902   2.486   2.560   0.460  1.5417 -0.7261 -1.1961
  726SOL    HW2 2903   2.378   2.456   0.445  2.1089  1.8135 -1.8606
  726SOL     MW 2904   2.458   2.480   0.435  0.0608 -0.2718 -0.4696
  727SOL     OW 2905   2.854   0.323   1.737 -0.3473 -0.4283 -0.1198
  727SOL    HW1 2906   2.781   0.288   1.688 -1.9639 -0.9348  0.5684
  727SOL    HW2 2907   2.864   0.276   1.824  1.0666 -1.5993  3.7986
  727SOL     MW 2908   2.846   0.313   1.742 -0.3740 -0.6496  0.4880
  728SOL     OW 2909   2.801   1.221   2.871 -0.1135  0.5833  0.0098
  728SOL    HW1 2910   2.848   1.278   2.804  4.1243  1.6487  1.6629
  728SOL    HW2 2911   2.822   1.254   2.958 -1.2925 -2.4328 -0.9174
  728SOL     MW 2912   2.810   1.233   2.874  0.2901  0.3259  0.1056
  729SOL     OW 2913   2.535   1.499   1.057 -1.0652  0.3825 -0.0766
  729SOL    HW1 2914   2.579   1.412   1.058  2.9492  1.2260 -1.5365
  729SOL    HW2 2915   2.483   1.499   0.974 -1.1861 -2.0110 -0.8412
  729SOL     MW 2916   2.534   1.488   1.046 -0.5515  0.1780 -0.3701
  730SOL     OW 2917   2.164   1.159   0.201 -0.5051  0.2718 -0.0348
  730SOL    HW1 2918   2.250   1.118   0.232  1.6170 -1.5232  0.2232
  730SOL    HW2 2919   2.186   1.224   0.137 -0.1633 -0.3475 -1.1832
  730SOL     MW 2920   2.179   1.162   0.196 -0.1800 -0.0468 -0.1523
  731SOL     OW 2921   2.779   1.971   2.935 -0.0918 -0.1433  0.1600
  731SOL    HW1 2922   2.742   1.971   2.842  0.1281 -0.9477 -3.0110
  731SOL    HW2 2923   2.868   1.997   2.918  1.4725  1.4334  2.4698
  731SOL     MW 2924   2.786   1.975   2.920  0.1436 -0.0414  0.0463
  732SOL     OW 2925   2.340   0.982   1.339 -0.2163  0.5723 -0.3680
  732SOL    HW1 2926   2.302   1.001   1.428  0.7766 -2.7382 -1.7670
  732SOL    HW2 2927   2.416   0.925   1.361 -0.1322  0.7951 -1.2223
  732SOL     MW 2928   2.345   0.977   1.354 -0.0742  0.1649 -0.6653
  733SOL     OW 2929   2.400   2.685   2.977  0.0789 -0.1030  0.0341
  733SOL    HW1 2930   2.325   2.743   2.999 -0.7144  2.2448 -0.4096
  733SOL    HW2 2931   2.381   2.594   2.986  2.4713  1.7179 -0.8825
  733SOL     MW 2932   2.387   2.680   2.981  0.2899  0.4470 -0.1454
  734SOL     OW 2933   1.521   0.267   2.529  0.4104 -0.3363  0.2986
  734SOL    HW1 2934   1.485   0.222   2.604 -0.3975 -0.0542  0.5051
  734SOL    HW2 2935   1.495   0.225   2.446 -2.2065  0.0755  1.2617
  734SOL     MW 2936   1.513   0.256   2.528 -0.0415 -0.2447  0.4529
  735SOL     OW 2937   3.033   0.868   2.670  0.3250  0.3096 -0.4347
  735SOL    HW1 2938   2.985   0.789   2.651 -1.5084  0.8023 -1.1373
  735SOL    HW2 2939   3.036   0.880   2.762  1.0002 -0.7405 -1.2037
  735SOL     MW 2940   3.027   0.859   2.679  0.1722  0.2361 -0.6289
  736SOL     OW 2941   0.144   0.572   2.544  0.5266  0.6624  0.4148
  736SOL    HW1 2942   0.135   0.646   2.475 -0.1404  1.2043 -2.1898
  736SOL    HW2 2943   0.193   0.505   2.491  0.1653 -0.7939  1.0154
  736SOL     MW 2944   0.149   0.573   2.528  0.3909  0.5417  0.1504
  737SOL     OW 2945   2.998   0.571   2.643 -0.1141  0.8041 -0.2496
  737SOL    HW1 2946   2.939   0.571   2.563 -2.0830 -2.7566  0.5342
  737SOL    HW2 2947   3.085   0.576   2.599 -2.1818 -1.1925  0.2531
  737SOL     MW 2948   3.001   0.572   2.626 -0.6467  0.0708 -0.0799
  738SOL     OW 2949   0.130   0.410   1.872  0.7871  0.5292 -0.0829
  738SOL    HW1 2950   0.211   0.459   1.871 -0.1323 -0.4000  0.9531
  738SOL    HW2 2951   0.132   0.398   1.773 -1.1675  2.8330 -0.7470
  738SOL     MW 2952   0.141   0.415   1.859  0.4079  0.7106 -0.0338
  739SOL     OW 2953   2.513   0.964   2.107 -0.3042 -0.3217  0.1052
  739SOL    HW1 2954   2.425   0.966   2.063 -3.8912  0.0689 -1.8655
  739SOL    HW2 2955   2.562   0.923   2.037  0.0501 -0.6032 -0.7718
  739SOL     MW 2956   2.508   0.959   2.092 -0.7307 -0.3073 -0.2706
  740SOL     OW 2957   0.183   1.811   2.933  0.5388  0.2000  0.1084
  740SOL    HW1 2958   0.135   1.727   2.941  2.5968  2.3942  0.3449
  740SOL    HW2 2959   0.259   1.792   2.996  0.9546  0.2510  1.0184
  740SOL     MW 2960   0.187   1.797   2.942  0.8652  0.4962  0.2596
  741SOL     OW 2961   2.292   1.175   2.707  0.5627  0.3861  0.2625
  741SOL    HW1 2962   2.248   1.251   2.666 -1.3643  1.1346 -1.1688
  741SOL    HW2 2963   2.262   1.185   2.801  0.8912  0.4735 -1.2851
  741SOL     MW 2964   2.283   1.186   2.714  0.3518  0.4964 -0.1305
  742SOL     OW 2965   1.528   1.245   2.377 -0.0358  0.5745  0.3555
  742SOL    HW1 2966   1.435   1.232   2.375 -1.6791 -1.8445  3.9404
  742SOL    HW2 2967   1.563   1.166   2.416  2.5142  1.1094 -1.4574
  742SOL     MW 2968   1.520   1.233   2.382  0.0838  0.3259  0.5893
  743SOL     OW 2969   2.566   1.224   2.689  0.1885  0.3816  0.1060
  743SOL    HW1 2970   2.464   1.214   2.708 -0.9289 -2.9665 -1.2257
  743SOL    HW2 2971   2.611   1.188   2.767 -1.0776 -1.1316  1.0761
  743SOL     MW 2972   2.559   1.218   2.702 -0.1260 -0.2598  0.0583
  744SOL     OW 2973   2.692   0.906   1.933 -0.3920  0.4622 -0.2261
  744SOL    HW1 2974   2.666   0.986   1.878  1.0175  2.6336  0.3100
  744SOL    HW2 2975   2.635   0.836   1.902  0.8921  1.3081 -4.6034
  744SOL     MW 2976   2.681   0.907   1.922 -0.0366  0.8603 -0.7329
  745SOL     OW 2977   1.727   0.460   2.477 -0.0165 -0.3324 -0.5237
  745SOL    HW1 2978   1.702   0.463   2.386  1.1590 -0.8240 -0.7162
  745SOL    HW2 2979   1.665   0.398   2.522 -0.0629 -0.7787  2.4157
  745SOL     MW 2980   1.716   0.452   2.471  0.1325 -0.4561 -0.1613
  746SOL     OW 2981   1.608   1.540   1.673  0.2429  0.9236  0.4324
  746SOL    HW1 2982   1.640   1.607   1.737 -0.0118 -0.3567 -0.7041
  746SOL    HW2 2983   1.600   1.460   1.726  0.8353 -0.3265  1.2431
  746SOL     MW 2984   1.611   1.538   1.688  0.2874  0.5897  0.3894
  747SOL     OW 2985   2.588   1.117   1.811 -0.5757  0.0313 -0.1444
  747SOL    HW1 2986   2.497   1.105   1.789 -1.1908 -1.1869 -0.6349
  747SOL    HW2 2987   2.583   1.178   1.880 -2.8984 -1.5399 -2.5618
  747SOL     MW 2988   2.575   1.123   1.817 -0.9633 -0.3367 -0.5281
  748SOL     OW 2989   0.070   0.136   1.852 -0.0262 -0.2598 -0.2102
  748SOL    HW1 2990   0.154   0.123   1.889 -0.7723 -0.4869  2.9258
  748SOL    HW2 2991   0.059   0.230   1.852  0.1003 -1.3508 -0.4110
  748SOL     MW 2992   0.080   0.147   1.857 -0.1080 -0.4337  0.1770
  749SOL     OW 2993   2.571   0.593   2.796 -0.4214  0.2164 -0.1169
  749SOL    HW1 2994   2.583   0.666   2.732 -0.3281  2.0810 -0.2208
  749SOL    HW2 2995   2.548   0.635   2.881  0.7366  0.4507 -1.6540
  749SOL     MW 2996   2.570   0.608   2.799 -0.2563  0.4934 -0.3334
  750SOL     OW 2997   2.057   3.097   1.943  0.1497 -0.1787 -0.3090
  750SOL    HW1 2998   2.099   3.181   1.964  1.4344 -0.4251  1.0246
  750SOL    HW2 2999   2.135   3.041   1.922  2.7049 -2.0430  2.2177
  750SOL     MW 3000   2.073   3.100   1.943  0.6563 -0.4572  0.2003
  751SOL     OW 3001   0.282   0.355   2.384  0.1046 -0.4890 -0.4701
  751SOL    HW1 3002   0.241   0.272   2.420 -1.5977 -1.2892  1.6215
  751SOL    HW2 3003   0.292   0.333   2.288 -1.7056  2.4306 -3.3168
  751SOL     MW 3004   0.278   0.342   2.376 -0.3589 -0.2093 -0.5697
  752SOL     OW 3005   2.135   0.828   2.742 -0.1323  0.0036 -0.6700
  752SOL    HW1 3006   2.211   0.880   2.709  1.2191  0.6788 -3.5712
  752SOL    HW2 3007   2.136   0.829   2.839 -1.3122 -0.3158  0.4044
  752SOL     MW 3008   2.145   0.835   2.751 -0.1096  0.0506 -0.9110
  753SOL     OW 3009   2.787   0.107   2.433 -0.1967 -0.1834  0.1965
  753SOL    HW1 3010   2.777   0.014   2.413 -0.9088  0.3716  2.1194
  753SOL    HW2 3011   2.752   0.155   2.358  0.0428 -0.6387  0.5729
  753SOL     MW 3012   2.781   0.101   2.421 -0.2591 -0.1703  0.4998
  754SOL     OW 3013   2.294   2.943   2.633 -0.5409  0.3222 -0.0801
  754SOL    HW1 3014   2.324   2.931   2.541 -2.2169 -3.3841 -0.3880
  754SOL    HW2 3015   2.357   2.892   2.681 -0.9620 -0.3856 -1.6078
  754SOL     MW 3016   2.306   2.934   2.627 -0.8176 -0.2602 -0.3223
  755SOL     OW 3017   2.741   1.546   2.423 -0.1166  0.8813  0.5910
  755SOL    HW1 3018   2.757   1.468   2.475 -2.2448 -0.6017  1.7513
  755SOL    HW2 3019   2.745   1.615   2.489 -0.9912 -2.1345  1.0670
  755SOL     MW 3020   2.744   1.545   2.439 -0.5128  0.2877  0.8069
  756SOL     OW 3021   2.198   1.189   2.977 -0.1765  0.2276 -0.6651
  756SOL    HW1 3022   2.225   1.283   2.969  2.8471  0.7760  1.6822
  756SOL    HW2 3023   2.280   1.142   3.004 -1.7301 -1.4654 -1.2979
  756SOL     MW 3024   2.213   1.195   2.980  0.0175  0.0766 -0.4389
  757SOL     OW 3025   2.176   0.942   1.573 -0.3391  0.2081 -0.0730
  757SOL    HW1 3026   2.192   0.846   1.586 -1.3398  0.3024 -2.4798
  757SOL    HW2 3027   2.091   0.949   1.520 -1.5547  1.1321 -0.9786
  757SOL     MW 3028   2.167   0.931   1.568 -0.6316  0.3424 -0.5101
  758SOL     OW 3029   2.211   1.801   2.615 -0.3995 -1.0956 -0.0781
  758SOL    HW1 3030   2.186   1.803   2.521  0.6507  0.6428 -2.7230
  758SOL    HW2 3031   2.302   1.783   2.622 -0.9421 -0.4990 -0.2272
  758SOL     MW 3032   2.220   1.799   2.604 -0.3325 -0.7875 -0.4468
  759SOL     OW 3033   1.560   1.308   2.709 -0.0488 -0.6352  0.1802
  759SOL    HW1 3034   1.533   1.392   2.664  2.8018 -1.2926 -4.1936
  759SOL    HW2 3035   1.625   1.338   2.782  0.0969  2.0713 -0.6935
  759SOL     MW 3036   1.565   1.323   2.713  0.3465 -0.3648 -0.5122
  760SOL     OW 3037   2.661   1.957   2.693  1.0513 -0.0503 -0.0858
  760SOL    HW1 3038   2.597   1.883   2.660  1.1540 -1.0508 -1.2794
  760SOL    HW2 3039   2.674   2.018   2.623  0.1891  1.5002  2.5229
  760SOL     MW 3040   2.654   1.956   2.680  0.9511  0.0223  0.1009
  761SOL     OW 3041   2.220   0.380   2.536 -0.3326 -0.6681  0.3404
  761SOL    HW1 3042   2.196   0.313   2.593 -0.8130  0.9371  0.3514
  761SOL    HW2 3043   2.247   0.448   2.599 -1.3909  1.4147 -2.6374
  761SOL     MW 3044   2.221   0.380   2.552 -0.5356 -0.1815 -0.0511
  762SOL     OW 3045   3.082   0.264   2.149 -0.1980  0.2467 -0.4979
  762SOL    HW1 3046   3.123   0.194   2.203  2.9261  1.0141  0.2028
  762SOL    HW2 3047   3.066   0.341   2.201 -1.7892  0.9227 -0.6782
  762SOL     MW 3048   3.085   0.265   2.163  0.0043  0.4371 -0.4293
  763SOL     OW 3049   2.377   1.033   2.330  0.0386 -0.1243  0.3044
  763SOL    HW1 3050   2.429   0.992   2.262 -1.5559 -2.7893  1.0673
  763SOL    HW2 3051   2.437   1.102   2.356 -0.7998 -0.6427  0.5986
  763SOL     MW 3052   2.392   1.037   2.324 -0.2824 -0.5443  0.4439
  764SOL     OW 3053   0.440   0.287   2.860  0.1247  0.6474 -0.1989
  764SOL    HW1 3054   0.362   0.250   2.811 -0.2737 -1.5664  1.0958
  764SOL    HW2 3055   0.395   0.365   2.892 -0.5205 -1.0060 -0.0001
  764SOL     MW 3056   0.424   0.293   2.858 -0.0130  0.1372 -0.0018
  765SOL     OW 3057   2.727   2.962   2.394  0.3592 -0.2744 -0.0987
  765SOL    HW1 3058   2.676   2.983   2.314 -0.4166  1.0907 -1.3063
  765SOL    HW2 3059   2.808   2.919   2.366  1.8384  2.1281 -1.7086
  765SOL     MW 3060   2.731   2.959   2.379  0.4520  0.2227 -0.4704
  766SOL     OW 3061   1.919   2.994   2.150 -0.1095  0.5432 -0.0622
  766SOL    HW1 3062   1.975   3.033   2.079  0.6685  0.0628 -3.0238
  766SOL    HW2 3063   1.860   2.937   2.105 -1.3783 -0.9603 -0.8702
  766SOL     MW 3064   1.919   2.991   2.134 -0.1742  0.2814 -0.5595
  767SOL     OW 3065   2.650   0.606   2.080  0.3428  0.0053 -0.2222
  767SOL    HW1 3066   2.700   0.681   2.114 -1.2549 -1.0302  1.4023
  767SOL    HW2 3067   2.590   0.635   2.010  0.1927 -2.3331 -0.0535
  767SOL     MW 3068   2.649   0.620   2.075  0.1122 -0.4399  0.0144
  768SOL     OW 3069   2.984   1.550   2.951 -0.2595  0.2938 -0.1527
  768SOL    HW1 3070   3.022   1.550   3.043  0.4418 -2.3196  2.2026
  768SOL    HW2 3071   3.036   1.490   2.906 -1.0901  0.9120  2.7686
  768SOL     MW 3072   2.996   1.542   2.957 -0.2766  0.0305  0.5435
  769SOL     OW 3073   2.515   0.637   2.422  0.3786 -0.3814  0.5233
  769SOL    HW1 3074   2.471   0.579   2.355  0.0266  1.0957  0.6780
  769SOL    HW2 3075   2.598   0.652   2.372  0.7733  0.9809  1.9996
  769SOL     MW 3076   2.520   0.631   2.407  0.3842 -0.0068  0.7385
  770SOL     OW 3077   3.058   1.614   2.525 -0.3596 -0.1330 -0.0553
  770SOL    HW1 3078   2.977   1.671   2.509  0.7420  0.4313 -3.2840
  770SOL    HW2 3079   3.048   1.541   2.473  0.3583 -1.1679  0.6032
  770SOL     MW 3080   3.046   1.612   2.516 -0.1195 -0.1951 -0.3944
  771SOL     OW 3081   3.073   0.613   1.973 -0.1728  0.2802 -0.6797
  771SOL    HW1 3082   3.008   0.602   1.906  1.0903  4.3888 -0.9921
  771SOL    HW2 3083   3.130   0.541   1.944 -3.4341 -1.7694  2.0636
  771SOL     MW 3084   3.072   0.602   1.960 -0.4364  0.5519 -0.3590
  772SOL     OW 3085   0.035   3.101   2.273 -0.6411 -0.4098 -0.5329
  772SOL    HW1 3086  -0.039   3.043   2.258 -0.2706 -3.6009 -0.6467
  772SOL    HW2 3087   0.108   3.053   2.231  3.0791 -2.3950  0.7894
  772SOL     MW 3088   0.035   3.087   2.266 -0.1013 -1.0928 -0.3734
  773SOL     OW 3089   2.495   2.802   2.754  0.7039 -0.5215 -0.2606
  773SOL    HW1 3090   2.494   2.734   2.682 -0.1194 -0.0062 -1.1612
  773SOL    HW2 3091   2.452   2.764   2.832 -0.8889 -0.3476 -3.8191
  773SOL     MW 3092   2.489   2.788   2.755  0.3851 -0.4306 -0.8489
  774SOL     OW 3093   2.303   1.151   1.721  0.6345  0.2197 -0.3435
  774SOL    HW1 3094   2.283   1.228   1.664 -0.6929 -0.8022 -0.4660
  774SOL    HW2 3095   2.243   1.085   1.684  1.2117  1.9956 -1.6807
  774SOL     MW 3096   2.292   1.153   1.709  0.5355  0.3191 -0.5361
  775SOL     OW 3097   2.297   2.923   2.363  0.3850 -0.0500 -0.5088
  775SOL    HW1 3098   2.309   3.007   2.319 -0.1309  0.4274  2.0025
  775SOL    HW2 3099   2.370   2.875   2.342 -0.9577  2.3451  1.1806
  775SOL     MW 3100   2.308   2.928   2.354  0.1397  0.3290  0.0454
  776SOL     OW 3101   0.021   1.522   0.096 -0.0421 -0.7132 -0.0986
  776SOL    HW1 3102   0.120   1.518   0.101  2.7119 -1.7560 -0.4014
  776SOL    HW2 3103  -0.015   1.431   0.124  0.0341  0.9112 -3.1497
  776SOL     MW 3104   0.029   1.510   0.100  0.3314 -0.6364 -0.5412
  777SOL     OW 3105   2.956   0.983   1.792  0.1427  0.8328 -0.0121
  777SOL    HW1 3106   2.913   1.047   1.744 -0.2885 -3.3344 -0.7572
  777SOL    HW2 3107   2.880   0.926   1.812  2.0901  1.2517  0.8007
  777SOL     MW 3108   2.940   0.984   1.788  0.3427  0.3382 -0.0031
  778SOL     OW 3109   2.897   0.367   2.794 -0.0007  0.0555  0.3773
  778SOL    HW1 3110   2.883   0.387   2.887 -1.4050  0.9284  0.8171
  778SOL    HW2 3111   2.950   0.445   2.758  1.5563  2.4028 -1.6835
  778SOL     MW 3112   2.902   0.380   2.801  0.0194  0.4803  0.1634
  779SOL     OW 3113   2.095   0.521   2.321 -0.3662 -0.3112 -0.0312
  779SOL    HW1 3114   2.023   0.576   2.350 -0.4098 -0.5651 -1.4720
  779SOL    HW2 3115   2.136   0.471   2.391  4.3250  1.7166 -2.7970
  779SOL     MW 3116   2.091   0.522   2.334  0.2470 -0.0771 -0.5862
  780SOL     OW 3117   0.204   0.149   2.793  0.1452  0.3402 -0.2342
  780SOL    HW1 3118   0.146   0.186   2.859 -0.3011 -0.2056  1.1988
  780SOL    HW2 3119   0.145   0.117   2.724 -0.1584  1.2235  1.5296
  780SOL     MW 3120   0.189   0.149   2.792  0.0462  0.3847  0.1876
  781SOL     OW 3121   3.042   1.344   2.369  0.4605 -0.3777 -0.3815
  781SOL    HW1 3122   3.043   1.368   2.275  1.4162  0.6820  1.6581
  781SOL    HW2 3123   3.133   1.309   2.377 -0.2683  1.2534 -0.1918
  781SOL     MW 3124   3.054   1.343   2.358  0.4904 -0.0227 -0.0874
  782SOL     OW 3125   0.567   1.520   3.070 -0.7471 -0.3962  0.3544
  782SOL    HW1 3126   0.513   1.601   3.057 -0.2349 -0.5617 -0.5626
  782SOL    HW2 3127   0.571   1.502   3.164 -2.3338  1.8440 -2.4720
  782SOL     MW 3128   0.560   1.528   3.081 -0.8888 -0.1225 -0.1395
  783SOL     OW 3129   2.821   0.582   2.441 -0.2326  0.3944  0.6369
  783SOL    HW1 3130   2.842   0.507   2.387  0.9967 -0.4961 -0.8134
  783SOL    HW2 3131   2.754   0.530   2.495 -1.6097 -0.0431  0.4411
  783SOL     MW 3132   2.815   0.565   2.441 -0.2521  0.2192  0.4197
  784SOL     OW 3133   0.211   0.922   2.867  0.0370  0.0222 -0.4665
  784SOL    HW1 3134   0.190   0.970   2.952  1.8209  0.1613  0.9114
  784SOL    HW2 3135   0.228   0.981   2.801  1.0740 -2.6443 -1.6962
  784SOL     MW 3136   0.210   0.936   2.869  0.4092 -0.3113 -0.4469
  785SOL     OW 3137   0.340   0.544   2.127  0.2285  0.3257  0.2410
  785SOL    HW1 3138   0.385   0.558   2.045  1.3641 -2.1983 -1.6548
  785SOL    HW2 3139   0.303   0.462   2.098 -0.8523  1.4253  0.8892
  785SOL     MW 3140   0.341   0.535   2.112  0.2357  0.1377  0.0764
  786SOL     OW 3141   2.032   0.466   2.828  0.0554 -0.1208 -0.2637
  786SOL    HW1 3142   2.061   0.467   2.918  1.1574 -1.9571 -1.0488
  786SOL    HW2 3143   2.123   0.496   2.789  1.2532  0.4194  0.0300
  786SOL     MW 3144   2.048   0.470   2.835  0.3588 -0.2918 -0.3286
  787SOL     OW 3145   2.466   0.152   2.908  0.6986 -0.3279 -0.2890
  787SOL    HW1 3146   2.520   0.165   2.829  1.3841 -0.1864 -2.3323
  787SOL    HW2 3147   2.480   0.232   2.967 -0.6997  1.1701 -0.9729
  787SOL     MW 3148   2.475   0.165   2.906  0.6046 -0.1116 -0.6488
  788SOL     OW 3149   2.973   2.875   2.294  0.0540  0.4426  0.1617
  788SOL    HW1 3150   2.938   2.802   2.240  2.9636 -1.0918 -0.4517
  788SOL    HW2 3151   3.025   2.843   2.365  1.0181 -1.2091 -1.0991
  788SOL     MW 3152   2.975   2.861   2.296  0.5651  0.0222 -0.0856
  789SOL     OW 3153   0.067   0.284   3.035  0.5493 -0.0581  0.1282
  789SOL    HW1 3154  -0.026   0.280   3.050  0.2040 -1.9084 -0.6008
  789SOL    HW2 3155   0.107   0.267   3.115 -0.4811 -0.5746 -1.6716
  789SOL     MW 3156   0.060   0.281   3.048  0.3677 -0.3703 -0.2054
  790SOL     OW 3157   0.026   1.029   2.444  0.2341 -0.1060  0.3284
  790SOL    HW1 3158  -0.002   1.008   2.535 -1.6466  0.1784  1.1638
  790SOL    HW2 3159  -0.052   1.021   2.394  1.6089 -0.2399 -0.9286
  790SOL     MW 3160   0.012   1.025   2.449  0.1673 -0.0862  0.2728
  791SOL     OW 3161   2.697   0.408   2.630 -0.1143  0.1941  0.7690
  791SOL    HW1 3162   2.638   0.464   2.684  1.0708  0.7413 -1.8160
  791SOL    HW2 3163   2.760   0.382   2.698  0.2538  2.4580 -0.4608
  791SOL     MW 3164   2.697   0.412   2.646  0.0906  0.5650  0.2657
  792SOL     OW 3165   2.432   0.267   2.368  0.8620 -0.2392  0.0926
  792SOL    HW1 3166   2.361   0.326   2.407  0.8768 -0.3606 -3.0690
  792SOL    HW2 3167   2.475   0.225   2.442  2.0390 -1.5901 -1.7149
  792SOL     MW 3168   2.428   0.269   2.383  1.0193 -0.4335 -0.5631
  793SOL     OW 3169   1.749   1.008   1.888  0.3352  0.1779 -0.2087
  793SOL    HW1 3170   1.725   1.031   1.794 -2.2158  0.5217 -2.1212
  793SOL    HW2 3171   1.850   1.018   1.897 -0.1994  0.4421 -0.6520
  793SOL     MW 3172   1.760   1.012   1.876 -0.0719  0.2581 -0.5195
  794SOL     OW 3173   1.425   2.300   0.155 -0.4385  0.1940  0.1208
  794SOL    HW1 3174   1.427   2.365   0.077  0.3846 -2.5256 -0.7405
  794SOL    HW2 3175   1.485   2.334   0.225  0.9541  3.7768 -1.0465
  794SOL     MW 3176   1.433   2.313   0.154 -0.1461  0.3079 -0.1469
  795SOL     OW 3177   2.349   0.938   2.583 -0.3011 -0.1582  0.0067
  795SOL    HW1 3178   2.335   1.029   2.606  1.3798  0.1101 -1.0241
  795SOL    HW2 3179   2.347   0.949   2.485  0.0363 -1.8330 -0.5651
  795SOL     MW 3180   2.347   0.952   2.573 -0.0348 -0.3438 -0.2047
  796SOL     OW 3181   0.294   0.655   2.778 -0.6392  0.2856 -0.5839
  796SOL    HW1 3182   0.291   0.746   2.804 -1.1609 -1.1765  1.0441
  796SOL    HW2 3183   0.239   0.645   2.700 -2.6872  0.8188  1.1849
  796SOL     MW 3184   0.286   0.666   2.771 -0.9782  0.1631 -0.1358
  797SOL     OW 3185   2.582   0.166   2.604  0.2119 -0.6457  0.0504
  797SOL    HW1 3186   2.606   0.257   2.624 -1.0793  3.1464  1.1581
  797SOL    HW2 3187   2.669   0.139   2.568  0.4312  1.8328 -0.5557
  797SOL     MW 3188   2.597   0.175   2.602  0.0705  0.1817  0.1166
  798SOL     OW 3189   2.351   0.066   2.224 -0.5784  0.0480  0.3942
  798SOL    HW1 3190   2.370   0.152   2.270  0.2665 -0.3081  0.5797
  798SOL    HW2 3191   2.433   0.046   2.178 -1.3576  0.6899 -1.3988
  798SOL     MW 3192   2.364   0.075   2.224 -0.5697  0.0857  0.1821
  799SOL     OW 3193   2.530   2.887   0.194 -0.0912 -0.2547 -0.0736
  799SOL    HW1 3194   2.573   2.868   0.110 -0.6066 -1.4491 -0.6823
  799SOL    HW2 3195   2.449   2.933   0.171 -1.5433 -0.9223 -1.2771
  799SOL     MW 3196   2.525   2.891   0.180 -0.3508 -0.5003 -0.3127
  800SOL     OW 3197   1.914   3.091   1.721 -0.5376 -0.4167  0.4806
  800SOL    HW1 3198   1.870   3.005   1.731 -0.7183 -0.6967 -1.7186
  800SOL    HW2 3199   1.968   3.104   1.798  0.8474  2.5134 -0.5597
  800SOL     MW 3200   1.915   3.081   1.732 -0.3787 -0.0671  0.0532
  801SOL     OW 3201   2.841   1.328   2.571  0.1551 -0.5222 -0.5030
  801SOL    HW1 3202   2.819   1.236   2.594  0.7292  1.1405  1.8291
  801SOL    HW2 3203   2.913   1.317   2.505  2.2184  0.0938  0.7775
  801SOL     MW 3204   2.847   1.315   2.565  0.5031 -0.2215 -0.0264
  802SOL     OW 3205   2.564   1.512   2.755  0.4129  0.3507  0.0426
  802SOL    HW1 3206   2.591   1.426   2.717  1.7227  0.2351  1.1245
  802SOL    HW2 3207   2.652   1.541   2.797  2.1122  0.6891  0.6103
  802SOL     MW 3208   2.579   1.504   2.755  0.8100  0.3801  0.2603
  803SOL     OW 3209   2.240   1.325   1.956  0.2158  0.1495  0.2299
  803SOL    HW1 3210   2.201   1.298   2.046 -0.3783  1.7769  2.1295
  803SOL    HW2 3211   2.242   1.251   1.895  3.1107  1.5296  0.3919
  803SOL     MW 3212   2.235   1.312   1.960  0.5194  0.5463  0.5019
  804SOL     OW 3213   2.367   3.079   0.051  0.3781  0.2076 -0.1086
  804SOL    HW1 3214   2.289   3.144   0.035 -0.8528 -0.6046  1.4580
  804SOL    HW2 3215   2.441   3.110   0.001  0.0648 -3.2064 -0.4992
  804SOL     MW 3216   2.366   3.092   0.043  0.1744 -0.3500  0.0466
  805SOL     OW 3217   2.814   1.040   2.623 -0.6859 -0.2929  0.2945
  805SOL    HW1 3218   2.748   0.971   2.599 -3.8058  0.3133  1.2030
  805SOL    HW2 3219   2.886   0.991   2.669  2.0235  0.5914  0.7908
  805SOL     MW 3220   2.815   1.024   2.626 -0.7401 -0.0963  0.4799
  806SOL     OW 3221   2.653   0.329   2.187  0.2070 -0.0584  0.1207
  806SOL    HW1 3222   2.572   0.314   2.242 -2.7413  0.7584  0.7109
  806SOL    HW2 3223   2.645   0.412   2.147  0.4015  1.2205 -0.2651
  806SOL     MW 3224   2.641   0.338   2.189 -0.1563  0.2181  0.1477
  807SOL     OW 3225   0.065   1.117   2.126 -0.0728 -1.2284 -0.1195
  807SOL    HW1 3226   0.079   1.041   2.071 -1.1288 -0.6174 -1.7197
  807SOL    HW2 3227  -0.016   1.104   2.175  0.3843 -1.3668  1.9731
  807SOL     MW 3228   0.056   1.106   2.125 -0.1518 -1.1661 -0.0545
  808SOL     OW 3229   2.652   3.058   2.781  0.0355 -0.2020 -0.8344
  808SOL    HW1 3230   2.605   2.975   2.773 -0.3904  0.3188 -0.3779
  808SOL    HW2 3231   2.610   3.109   2.713 -2.3362  1.2845 -0.6468
  808SOL     MW 3232   2.640   3.053   2.771 -0.3336  0.0629 -0.7494
  809SOL     OW 3233   2.531   1.233   2.409  0.4062  0.4157 -0.1301
  809SOL    HW1 3234   2.553   1.222   2.497 -0.8153  0.1015  1.1269
  809SOL    HW2 3235   2.611   1.229   2.360  1.9731 -1.9229  0.3958
  809SOL     MW 3236   2.544   1.231   2.414  0.4518  0.0657  0.1051
  810SOL     OW 3237   2.209   1.240   2.241 -0.0123  0.4033  0.6296
  810SOL    HW1 3238   2.272   1.162   2.252  0.5344 -1.8887 -1.5631
  810SOL    HW2 3239   2.126   1.211   2.286  0.1963  0.9250  1.2748
  810SOL     MW 3240   2.207   1.226   2.248  0.0874  0.1697  0.4254
  811SOL     OW 3241   1.482   0.060   2.231  0.2594 -0.1623  0.3005
  811SOL    HW1 3242   1.575   0.052   2.253  1.4249 -0.2033  1.1656
  811SOL    HW2 3243   1.491   0.046   2.141 -1.6371  0.8869  3.1153
  811SOL     MW 3244   1.495   0.057   2.222  0.1629 -0.0293  0.7861
  812SOL     OW 3245   1.477   2.752   2.097  0.4302 -0.3273  0.3288
  812SOL    HW1 3246   1.567   2.778   2.092  0.4019 -0.8694  0.7054
  812SOL    HW2 3247   1.463   2.730   2.190  1.0002 -0.0886  1.0295
  812SOL     MW 3248   1.487   2.752   2.109  0.5017 -0.3673  0.4710
  813SOL     OW 3249   1.848   0.691   2.138  0.3339  0.7942 -0.1708
  813SOL    HW1 3250   1.785   0.627   2.172 -0.2293 -1.3720  1.1574
  813SOL    HW2 3251   1.907   0.688   2.215  0.9235 -1.8366  0.8246
  813SOL     MW 3252   1.847   0.682   2.153  0.3374  0.1613  0.1358
  814SOL     OW 3253   2.810   1.167   1.623 -0.0080  0.3557  0.5652
  814SOL    HW1 3254   2.722   1.142   1.647 -0.9953 -3.3032  1.3662
  814SOL    HW2 3255   2.824   1.159   1.529  0.5051 -0.7134  1.7930
  814SOL     MW 3256   2.800   1.162   1.613 -0.0705 -0.2681  0.8329
  815SOL     OW 3257   2.498   1.666   2.370 -0.4639  0.3971 -0.2949
  815SOL    HW1 3258   2.439   1.590   2.363  3.4628  1.8664  1.9414
  815SOL    HW2 3259   2.580   1.616   2.387  0.7435 -3.3203 -1.1522
  815SOL     MW 3260   2.501   1.649   2.371  0.2135  0.1005 -0.1129
  816SOL     OW 3261   0.675   0.700   2.742  0.6258  1.0227  0.7148
  816SOL    HW1 3262   0.723   0.625   2.776 -0.1496 -0.1148  2.1818
  816SOL    HW2 3263   0.620   0.661   2.664 -1.9081  1.2978  1.5769
  816SOL     MW 3264   0.674   0.685   2.736  0.1892  0.9089  1.0221
  817SOL     OW 3265   3.094   1.179   1.333  0.4086  0.0742 -0.0302
  817SOL    HW1 3266   3.142   1.167   1.412 -1.7008  1.5660 -0.8565
  817SOL    HW2 3267   3.051   1.261   1.347  2.2766  3.0405  0.5936
  817SOL     MW 3268   3.095   1.188   1.345  0.3768  0.6624 -0.0569
  818SOL     OW 3269   1.910   1.022   2.671  0.1352  0.1332 -0.1444
  818SOL    HW1 3270   1.964   1.074   2.608  0.2931  1.9530 -1.6881
  818SOL    HW2 3271   1.969   0.951   2.701  1.0469  0.1554  1.4218
  818SOL     MW 3272   1.925   1.019   2.666  0.2763  0.3762 -0.1414
  819SOL     OW 3273   1.958   0.191   2.328  0.1912 -0.5101  0.4201
  819SOL    HW1 3274   2.021   0.132   2.295  1.8354 -1.0583 -0.9571
  819SOL    HW2 3275   1.989   0.218   2.419  3.4415 -0.2094 -1.1521
  819SOL     MW 3276   1.970   0.187   2.336  0.8370 -0.5428  0.0310
  820SOL     OW 3277   2.477   1.745   2.630 -0.1744 -0.2354  0.2568
  820SOL    HW1 3278   2.497   1.663   2.681 -1.6823 -1.6741 -2.7566
  820SOL    HW2 3279   2.487   1.724   2.538  1.6308  2.4356  0.6824
  820SOL     MW 3280   2.481   1.732   2.625 -0.1352 -0.0728 -0.0846
  821SOL     OW 3281   2.525   1.333   2.005  0.0259 -0.1705  0.1997
  821SOL    HW1 3282   2.563   1.406   1.960 -1.5029 -0.3087  0.7264
  821SOL    HW2 3283   2.427   1.343   1.991 -1.9489 -0.8027  0.8853
  821SOL     MW 3284   2.517   1.344   1.997 -0.4364 -0.2721  0.3597
  822SOL     OW 3285   2.903   2.620   1.434  0.1747  0.3048  0.0925
  822SOL    HW1 3286   2.828   2.671   1.400  0.8787 -0.6768 -0.4420
  822SOL    HW2 3287   2.976   2.684   1.439 -2.5982  0.4489 -1.1102
  822SOL     MW 3288   2.903   2.635   1.430 -0.0983  0.1943 -0.1367
  823SOL     OW 3289   2.360   0.492   1.810  0.1432 -0.2458  0.4143
  823SOL    HW1 3290   2.445   0.459   1.774  1.8571  0.9678  2.5247
  823SOL    HW2 3291   2.302   0.418   1.776  1.1312 -4.2426 -0.0840
  823SOL     MW 3292   2.364   0.478   1.801  0.4997 -0.6130  0.6270
  824SOL     OW 3293   2.114   1.357   2.567  0.5884  0.0400 -0.2466
  824SOL    HW1 3294   2.183   1.382   2.501 -3.7985 -1.4377 -0.0480
  824SOL    HW2 3295   2.091   1.428   2.624  0.8736 -1.0866  0.5831
  824SOL     MW 3296   2.120   1.370   2.566  0.0472 -0.3036 -0.1110
  825SOL     OW 3297   2.095   2.317   0.370 -0.3197  0.1049 -0.1410
  825SOL    HW1 3298   2.155   2.321   0.300 -1.1473  0.5780  0.9293
  825SOL    HW2 3299   2.144   2.278   0.440 -1.4215 -0.2272 -1.7911
  825SOL     MW 3300   2.109   2.312   0.370 -0.5742  0.1235 -0.2175
  826SOL     OW 3301   1.795   2.447   0.454  0.8831  0.0533  0.0252
  826SOL    HW1 3302   1.798   2.389   0.526  0.0890 -0.7788 -0.8240
  826SOL    HW2 3303   1.885   2.463   0.437 -0.7319  0.3059 -0.2732
  826SOL     MW 3304   1.808   2.442   0.461  0.5652 -0.0232 -0.1262
  827SOL     OW 3305   1.896   2.242   0.892 -0.7509 -0.2453  0.1070
  827SOL    HW1 3306   1.851   2.266   0.810  1.4622  0.8073 -0.0628
  827SOL    HW2 3307   1.835   2.172   0.925 -1.8390 -0.3579  0.8676
  827SOL     MW 3308   1.882   2.236   0.885 -0.6025 -0.1213  0.1850
  828SOL     OW 3309   0.059   2.666   0.511 -0.2747 -0.0857  0.0982
  828SOL    HW1 3310   0.128   2.709   0.563 -1.1395  3.1803  2.0870
  828SOL    HW2 3311   0.057   2.714   0.430  0.2654 -0.3380  1.5714
  828SOL     MW 3312   0.068   2.678   0.507 -0.3175  0.3119  0.5550
  829SOL     OW 3313   2.946   2.884   1.152 -0.6356  0.4352 -0.2515
  829SOL    HW1 3314   2.859   2.889   1.100 -0.4852  0.8208 -0.1654
  829SOL    HW2 3315   2.992   2.807   1.116  0.7114 -1.0287 -1.9635
  829SOL     MW 3316   2.941   2.875   1.141 -0.4381  0.2929 -0.4660
  830SOL     OW 3317   2.525   2.851   2.005 -0.3303  0.5823  0.4399
  830SOL    HW1 3318   2.431   2.849   1.968 -0.7906  0.5558  2.0073
  830SOL    HW2 3319   2.581   2.821   1.933  0.1922  0.1605  0.0475
  830SOL     MW 3320   2.520   2.847   1.991 -0.3221  0.5232  0.5950
  831SOL     OW 3321   2.448   2.415   1.189 -0.3062  0.3907 -0.4356
  831SOL    HW1 3322   2.432   2.356   1.268 -0.9502 -3.4007  1.2150
  831SOL    HW2 3323   2.548   2.414   1.178  1.1065 -5.4900 -1.3305
  831SOL     MW 3324   2.459   2.407   1.198 -0.2048 -0.8854 -0.3359
  832SOL     OW 3325   2.403   2.142   1.897 -0.1041 -0.0286 -0.5935
  832SOL    HW1 3326   2.439   2.235   1.909 -0.3949  1.9275  1.2093
  832SOL    HW2 3327   2.478   2.105   1.858  1.6268 -0.0555  2.3731
  832SOL     MW 3328   2.417   2.149   1.893  0.0859  0.2260  0.0357
  833SOL     OW 3329   1.619   2.497   0.823  0.0335 -0.1613  0.5842
  833SOL    HW1 3330   1.594   2.463   0.913  0.1636  1.6261 -0.2592
  833SOL    HW2 3331   1.548   2.559   0.807  0.3524 -0.9404  2.1115
  833SOL     MW 3332   1.606   2.501   0.833  0.0927 -0.0283  0.6744
  834SOL     OW 3333   2.227   2.415   0.614  0.1497  0.0349  0.4754
  834SOL    HW1 3334   2.181   2.336   0.643 -0.6878  1.6803  2.8154
  834SOL    HW2 3335   2.301   2.439   0.676 -1.5264  0.1150 -3.0492
  834SOL     MW 3336   2.231   2.408   0.626 -0.1819  0.2626  0.3191
  835SOL     OW 3337   1.855   2.625   0.696  0.9847  0.2466  0.3615
  835SOL    HW1 3338   1.782   2.588   0.748 -3.5668 -0.4293  1.7721
  835SOL    HW2 3339   1.925   2.574   0.726 -0.9263  1.8299 -2.5935
  835SOL     MW 3340   1.855   2.614   0.707  0.1320  0.3663  0.1577
  836SOL     OW 3341   2.074   2.061   1.807 -0.0483  0.2746  0.4802
  836SOL    HW1 3342   2.107   1.971   1.824  0.0517  0.3119  2.3026
  836SOL    HW2 3343   2.131   2.129   1.842 -2.3293  3.9708 -1.9184
  836SOL     MW 3344   2.086   2.058   1.814 -0.3361  0.7672  0.4042
  837SOL     OW 3345   2.076   0.192   0.662  0.1082 -0.3163 -0.5544
  837SOL    HW1 3346   2.009   0.214   0.599  0.9276  0.8189  0.9912
  837SOL    HW2 3347   2.132   0.136   0.607 -0.6193 -0.4361  1.2823
  837SOL     MW 3348   2.075   0.188   0.646  0.1203 -0.1823 -0.1081
  838SOL     OW 3349   2.949   2.054   0.941 -0.2111  0.1651  0.5208
  838SOL    HW1 3350   2.873   1.991   0.927 -0.7702 -0.3485  0.3214
  838SOL    HW2 3351   2.984   2.026   1.026 -2.9983 -3.0450  0.0419
  838SOL     MW 3352   2.944   2.042   0.950 -0.6526 -0.3262  0.4313
  839SOL     OW 3353   1.517   2.454   1.080  0.4038  0.0683  0.4544
  839SOL    HW1 3354   1.480   2.526   1.140 -1.3429 -1.6362 -2.4641
  839SOL    HW2 3355   1.539   2.379   1.132 -2.3913 -2.1071  4.2490
  839SOL     MW 3356   1.515   2.454   1.095 -0.1955 -0.4436  0.5700
  840SOL     OW 3357   2.363   2.098   2.328  0.1492  0.1536  0.1061
  840SOL    HW1 3358   2.337   2.172   2.272 -2.5370 -0.1637 -1.9443
  840SOL    HW2 3359   2.417   2.133   2.400 -1.8345 -0.8669  0.3252
  840SOL     MW 3360   2.367   2.112   2.330 -0.4670 -0.0229 -0.1355
  841SOL     OW 3361   2.242   2.332   0.114 -0.6262  0.2303 -0.5000
  841SOL    HW1 3362   2.266   2.381   0.035 -2.0111  2.3023 -1.2694
  841SOL    HW2 3363   2.169   2.275   0.085  1.0185 -1.2648 -0.5600
  841SOL     MW 3364   2.236   2.331   0.100 -0.5919  0.3064 -0.6095
  842SOL     OW 3365   2.671   1.965   1.479  0.5572 -0.1406  0.9862
  842SOL    HW1 3366   2.609   1.889   1.477 -1.9403  2.4553  1.4260
  842SOL    HW2 3367   2.676   1.994   1.389 -0.8404  1.0517  1.2270
  842SOL     MW 3368   2.664   1.959   1.467  0.0433  0.3592  1.0760
  843SOL     OW 3369   2.696   2.750   1.816  0.7694 -0.0654  0.0112
  843SOL    HW1 3370   2.779   2.722   1.849  1.2799  1.0490  0.4691
  843SOL    HW2 3371   2.646   2.671   1.774  2.3408 -0.5804  1.3461
  843SOL     MW 3372   2.700   2.736   1.815  1.0441  0.0137  0.2477
  844SOL     OW 3373   2.701   2.366   1.120  0.1618  0.0264  0.4295
  844SOL    HW1 3374   2.697   2.389   1.023 -0.8477  0.1738 -0.4958
  844SOL    HW2 3375   2.780   2.402   1.151 -1.4660  0.2280 -0.7917
  844SOL     MW 3376   2.711   2.373   1.112 -0.1861  0.0724  0.1463
  845SOL     OW 3377   2.814   2.613   0.270  0.2370  0.3338 -0.8759
  845SOL    HW1 3378   2.818   2.532   0.329 -0.5438 -1.2764  1.1733
  845SOL    HW2 3379   2.822   2.694   0.325  2.6081 -0.2694  2.8696
  845SOL     MW 3380   2.815   2.613   0.285  0.4469  0.0418 -0.1113
  846SOL     OW 3381   1.461   2.732   0.783 -0.0353  0.5265 -0.0882
  846SOL    HW1 3382   1.512   2.812   0.783  1.1740 -0.4000  0.2569
  846SOL    HW2 3383   1.368   2.763   0.776  1.1144  0.6427 -0.3294
  846SOL     MW 3384   1.455   2.746   0.782  0.2760  0.4196 -0.0745
  847SOL     OW 3385   2.429   1.830   0.237  0.1110  0.1484  0.0977
  847SOL    HW1 3386   2.419   1.741   0.265 -1.8962 -2.2481 -2.0425
  847SOL    HW2 3387   2.404   1.826   0.148 -3.0669 -0.8986 -1.8776
  847SOL     MW 3388   2.424   1.818   0.229 -0.5731 -0.3059 -0.4453
  848SOL     OW 3389   2.730   2.105   1.240 -0.3314 -0.1732 -0.1575
  848SOL    HW1 3390   2.715   2.191   1.197 -1.1903  2.2532 -1.7826
  848SOL    HW2 3391   2.769   2.051   1.173  4.1461  4.1012 -0.4550
  848SOL     MW 3392   2.733   2.109   1.225  0.1461  0.7109 -0.4112
  849SOL     OW 3393   1.872   2.848   0.843 -0.6107  0.1793 -0.7026
  849SOL    HW1 3394   1.865   2.810   0.928  0.3242  0.2374  1.0691
  849SOL    HW2 3395   1.863   2.760   0.790  0.5996 -0.0802  0.1385
  849SOL     MW 3396   1.870   2.831   0.847 -0.3277  0.1527 -0.3579
  850SOL     OW 3397   2.329   1.925   1.608 -0.3745  0.0906 -0.0294
  850SOL    HW1 3398   2.239   1.918   1.566 -0.1458  0.9408 -0.2416
  850SOL    HW2 3399   2.342   2.023   1.627 -1.3726  1.0949  2.9757
  850SOL     MW 3400   2.319   1.937   1.605 -0.4760  0.3353  0.3391
  851SOL     OW 3401   2.599   2.235   0.383 -0.2270 -0.1442 -0.0728
  851SOL    HW1 3402   2.629   2.223   0.294 -2.1415  1.5740 -0.3410
  851SOL    HW2 3403   2.564   2.326   0.381 -1.3377  2.8226 -0.4365
  851SOL     MW 3404   2.598   2.245   0.371 -0.6261  0.4739 -0.1562
  852SOL     OW 3405   2.339   2.044   0.381  0.3314  0.1905  0.6674
  852SOL    HW1 3406   2.404   2.111   0.368  0.4690 -0.2665  1.7047
  852SOL    HW2 3407   2.356   1.972   0.312 -0.4235 -0.6148  0.4350
  852SOL     MW 3408   2.350   2.043   0.370  0.2500  0.0239  0.7736
  853SOL     OW 3409   2.515   2.384   1.914 -0.3335 -0.3222  0.6290
  853SOL    HW1 3410   2.504   2.437   1.835 -0.9780  0.3997 -0.6047
  853SOL    HW2 3411   2.611   2.380   1.922  0.1557  2.2389  0.2912
  853SOL     MW 3412   2.526   2.390   1.905 -0.3540  0.1110  0.4217
  854SOL     OW 3413   2.879   2.278   0.747  0.1684  0.2661 -0.1950
  854SOL    HW1 3414   2.783   2.252   0.727  0.5568 -0.9234 -0.9775
  854SOL    HW2 3415   2.914   2.202   0.802 -0.1396  1.1852 -0.0023
  854SOL     MW 3416   2.871   2.265   0.752  0.1790  0.2304 -0.2728
  855SOL     OW 3417   2.819   2.380   0.404  0.1423  0.2378  0.2588
  855SOL    HW1 3418   2.744   2.317   0.413 -1.7272  1.4842 -0.4128
  855SOL    HW2 3419   2.894   2.328   0.431 -1.8763 -1.7293  0.1753
  855SOL     MW 3420   2.819   2.365   0.408 -0.3707  0.1427  0.1592
  856SOL     OW 3421   2.056   1.841   0.253  0.1370 -0.4142  0.0725
  856SOL    HW1 3422   1.966   1.812   0.238  1.2662  2.9900 -1.2052
  856SOL    HW2 3423   2.036   1.930   0.284  1.3095  0.0289 -3.1167
  856SOL     MW 3424   2.042   1.849   0.256  0.4407  0.0934 -0.5169
  857SOL     OW 3425   2.484   1.954   0.593 -0.5701  0.7631  0.1073
  857SOL    HW1 3426   2.439   1.982   0.514  1.4856 -0.0245 -2.4286
  857SOL    HW2 3427   2.423   1.971   0.659  0.6454  1.0949  1.0854
  857SOL     MW 3428   2.470   1.960   0.591 -0.1385  0.7030 -0.0983
  858SOL     OW 3429   2.974   2.682   1.910  0.1009 -0.2442  0.5284
  858SOL    HW1 3430   3.021   2.758   1.875  1.0597 -0.2248 -1.2290
  858SOL    HW2 3431   3.002   2.612   1.848  2.4983  0.6687 -0.5242
  858SOL     MW 3432   2.984   2.683   1.897  0.5437 -0.1212  0.1576
  859SOL     OW 3433   1.773   2.658   1.032  0.2252 -0.0881  0.6286
  859SOL    HW1 3434   1.713   2.590   1.016  1.4746 -2.3171  0.3948
  859SOL    HW2 3435   1.854   2.605   1.041  2.0787 -2.2246  2.1456
  859SOL     MW 3436   1.776   2.642   1.031  0.6346 -0.6641  0.7979
  860SOL     OW 3437   2.651   2.550   0.052 -0.2772 -0.0080 -0.3541
  860SOL    HW1 3438   2.705   2.558   0.133 -1.4668 -0.2804 -0.9302
  860SOL    HW2 3439   2.681   2.604  -0.027  1.2624  0.8556  1.4376
  860SOL     MW 3440   2.662   2.558   0.052 -0.2310  0.0700 -0.1937
  861SOL     OW 3441   1.571   2.185   1.174 -0.2423  0.5722 -0.2999
  861SOL    HW1 3442   1.619   2.236   1.248 -1.6441  2.6419  0.2615
  861SOL    HW2 3443   1.521   2.124   1.230 -0.6709  0.6734 -1.2452
  861SOL     MW 3444   1.571   2.183   1.191 -0.4838  0.8586 -0.3505
  862SOL     OW 3445   2.489   1.766   1.461  0.8463 -0.1552 -0.4840
  862SOL    HW1 3446   2.434   1.830   1.519  2.2891  0.4883  0.2465
  862SOL    HW2 3447   2.487   1.810   1.375  1.7680  2.3175 -0.3361
  862SOL     MW 3448   2.482   1.780   1.457  1.1583  0.2559 -0.3681
  863SOL     OW 3449   2.881   1.627   0.972  0.3442 -0.1199  0.1292
  863SOL    HW1 3450   2.848   1.714   0.991 -0.8814 -2.2696  1.8506
  863SOL    HW2 3451   2.831   1.598   0.894  0.5451 -0.7166  0.9613
  863SOL     MW 3452   2.870   1.635   0.964  0.2090 -0.4822  0.4661
  864SOL     OW 3453   3.061   1.783   0.787 -0.4935 -0.1663  0.2531
  864SOL    HW1 3454   3.032   1.735   0.862  0.1617  0.7981 -0.5582
  864SOL    HW2 3455   3.023   1.746   0.705  2.3948 -0.3330 -0.1043
  864SOL     MW 3456   3.052   1.771   0.786 -0.0260 -0.0610  0.0989
  865SOL     OW 3457   2.480   2.165   0.112 -1.0323 -0.0596 -0.1745
  865SOL    HW1 3458   2.443   2.092   0.065 -0.9576 -1.5400 -1.7871
  865SOL    HW2 3459   2.411   2.227   0.139 -3.2643  2.6649 -0.2475
  865SOL     MW 3460   2.466   2.164   0.109 -1.3170  0.1046 -0.3969
  866SOL     OW 3461   2.720   2.328   1.524 -0.3670 -0.2327  0.3920
  866SOL    HW1 3462   2.692   2.245   1.548  0.5037  0.8402 -1.2288
  866SOL    HW2 3463   2.777   2.325   1.443  3.2201  0.0733 -1.1557
  866SOL     MW 3464   2.724   2.317   1.517  0.2212 -0.0508 -0.0260
  867SOL     OW 3465   0.139   2.703   1.703 -0.4995  0.5886 -0.3527
  867SOL    HW1 3466   0.205   2.765   1.737 -3.7302  1.7379  0.7755
  867SOL    HW2 3467   0.081   2.753   1.653 -1.9893 -2.1058 -1.3933
  867SOL     MW 3468   0.140   2.718   1.701 -1.1223  0.3848 -0.3411
  868SOL     OW 3469   2.744   2.597   0.563 -0.2900 -0.5408 -0.0814
  868SOL    HW1 3470   2.752   2.518   0.515  0.8769 -2.4882 -0.7642
  868SOL    HW2 3471   2.687   2.658   0.519  0.7150 -1.1923 -0.3763
  868SOL     MW 3472   2.737   2.595   0.551 -0.0034 -0.8837 -0.2104
  869SOL     OW 3473   1.953   2.470   1.050 -0.2799  0.0092 -0.0546
  869SOL    HW1 3474   2.030   2.511   1.008  1.8321  1.4376  3.9666
  869SOL    HW2 3475   1.946   2.393   0.992 -1.3767 -2.2460  3.1600
  869SOL     MW 3476   1.962   2.465   1.037 -0.1460 -0.0999  0.9001
  870SOL     OW 3477   2.172   0.007   0.462  0.0325 -0.6979  0.2248
  870SOL    HW1 3478   2.234   0.050   0.406  1.5178  1.4704 -2.4929
  870SOL    HW2 3479   2.208  -0.074   0.498 -2.0576 -0.1015 -1.3778
  870SOL     MW 3480   2.185   0.002   0.459 -0.0473 -0.3332 -0.3452
  871SOL     OW 3481   2.459   2.057   0.913  0.8753  0.0482  0.1585
  871SOL    HW1 3482   2.389   1.994   0.878  0.4030 -0.0249 -0.3746
  871SOL    HW2 3483   2.423   2.146   0.948  1.0706  0.0910 -0.8080
  871SOL     MW 3484   2.445   2.061   0.913  0.8387  0.0442 -0.0393
  872SOL     OW 3485   2.110   2.470   1.617  0.0391  0.3103  0.0418
  872SOL    HW1 3486   2.052   2.533   1.658  0.5809  0.6161 -0.9996
  872SOL    HW2 3487   2.070   2.444   1.535 -0.5438 -0.2700 -0.8619
  872SOL     MW 3488   2.097   2.475   1.612  0.0337  0.2741 -0.2148
  873SOL     OW 3489   2.883   2.119   1.827 -0.5408 -0.6566  0.2773
  873SOL    HW1 3490   2.889   2.140   1.919 -0.8421  0.4159  1.1033
  873SOL    HW2 3491   2.963   2.152   1.794 -0.9810 -0.7893  0.2833
  873SOL     MW 3492   2.894   2.126   1.835 -0.6386 -0.5326  0.3871
  874SOL     OW 3493   2.343   1.422   2.377  0.1534  0.3045  0.1506
  874SOL    HW1 3494   2.291   1.372   2.306  1.0309  0.3429  1.2708
  874SOL    HW2 3495   2.425   1.373   2.371 -3.1521  1.3912 -1.0594
  874SOL     MW 3496   2.347   1.409   2.367 -0.1670  0.4529  0.1387
  875SOL     OW 3497   2.329   2.288   0.993 -0.0706  0.1835 -0.2176
  875SOL    HW1 3498   2.361   2.347   0.923  0.8101  0.2325  0.6466
  875SOL    HW2 3499   2.373   2.333   1.065 -1.4140  0.4282  0.9869
  875SOL     MW 3500   2.339   2.302   0.993 -0.1317  0.2222  0.0553
  876SOL     OW 3501   0.043   2.197   1.288  0.3255 -0.6530  0.1042
  876SOL    HW1 3502   0.048   2.236   1.202 -1.5917  1.6625  0.4188
  876SOL    HW2 3503   0.105   2.260   1.332  0.5257  1.3493 -0.4009
  876SOL     MW 3504   0.051   2.211   1.282  0.0989 -0.0833  0.0790
  877SOL     OW 3505   0.066   2.798   0.273  1.0537  0.4270 -0.3005
  877SOL    HW1 3506   0.142   2.841   0.234 -1.2200 -2.5177  0.1882
  877SOL    HW2 3507   0.029   2.741   0.204 -0.2666  1.5987  2.0171
  877SOL     MW 3508   0.071   2.796   0.259  0.5795  0.1931  0.0697
  878SOL     OW 3509   2.256   1.747   1.144  0.3803  0.2689  0.4300
  878SOL    HW1 3510   2.200   1.681   1.196 -1.0794 -0.2554 -0.6348
  878SOL    HW2 3511   2.327   1.686   1.141 -1.8528  1.5451 -0.2595
  878SOL     MW 3512   2.258   1.730   1.151 -0.1069  0.3681  0.1986
  879SOL     OW 3513   2.699   2.454   0.867 -0.4064  0.4269 -0.0380
  879SOL    HW1 3514   2.746   2.537   0.894  1.6212 -0.4619 -0.0926
  879SOL    HW2 3515   2.768   2.399   0.828 -4.0265 -2.7687  0.1514
  879SOL     MW 3516   2.714   2.458   0.866 -0.6165 -0.1120 -0.0202
  880SOL     OW 3517   2.625   2.189   0.703  0.2207 -0.4646 -0.0699
  880SOL    HW1 3518   2.586   2.128   0.758 -2.9753 -1.4426 -3.5533
  880SOL    HW2 3519   2.599   2.167   0.609  0.7318  0.9545  1.0787
  880SOL     MW 3520   2.617   2.178   0.698 -0.1335 -0.4064 -0.3780
  881SOL     OW 3521   2.953   2.697   0.693 -0.4220 -0.5551  0.3082
  881SOL    HW1 3522   2.881   2.659   0.643  0.4828 -0.7899 -0.8748
  881SOL    HW2 3523   3.034   2.669   0.653  3.1802 -0.2456  0.3308
  881SOL     MW 3524   2.954   2.688   0.681  0.1727 -0.5453  0.1551
  882SOL     OW 3525   2.259   2.899   1.904  0.6126  0.3732 -0.3152
  882SOL    HW1 3526   2.264   2.900   1.810  1.4298 -1.1127 -0.1459
  882SOL    HW2 3527   2.223   2.815   1.918 -0.1327 -0.2264 -1.3799
  882SOL     MW 3528   2.255   2.888   1.894  0.6220  0.0980 -0.4333
  883SOL     OW 3529   2.431   2.178   1.331 -0.1369  0.1481  0.2911
  883SOL    HW1 3530   2.473   2.119   1.272  0.4936  0.5261  0.9276
  883SOL    HW2 3531   2.335   2.171   1.311 -0.7116 -0.2917 -2.6199
  883SOL     MW 3532   2.424   2.169   1.320 -0.1295  0.1400 -0.0090
  884SOL     OW 3533   1.887   1.842   1.047  0.1594 -0.7659 -0.5158
  884SOL    HW1 3534   1.825   1.907   0.994 -0.3891  0.6666 -1.8324
  884SOL    HW2 3535   1.976   1.881   1.034  0.3134  0.5269  0.1645
  884SOL     MW 3536   1.890   1.855   1.038  0.1073 -0.4063 -0.5998
  885SOL     OW 3537   2.909   2.459   1.721 -0.0745  0.2911 -0.0817
  885SOL    HW1 3538   2.981   2.393   1.713 -1.1956  1.3773  0.9955
  885SOL    HW2 3539   2.854   2.440   1.647 -0.7195  0.1182  0.6820
  885SOL     MW 3540   2.911   2.448   1.710 -0.3075  0.4116  0.1612
  886SOL     OW 3541   2.897   2.376   1.302  0.3443 -0.2714  0.3684
  886SOL    HW1 3542   2.985   2.335   1.307  1.2652 -0.0071  1.1201
  886SOL    HW2 3543   2.911   2.458   1.351  0.4722 -3.4355  1.4323
  886SOL     MW 3544   2.911   2.381   1.309  0.4827 -0.6540  0.6080
  887SOL     OW 3545   2.330   2.609   1.556 -0.3060 -0.5416  0.0758
  887SOL    HW1 3546   2.344   2.603   1.460 -0.1247 -0.5947  0.9678
  887SOL    HW2 3547   2.255   2.557   1.580  0.7777 -1.2041  1.1575
  887SOL     MW 3548   2.322   2.601   1.546 -0.1391 -0.6360  0.3362
  888SOL     OW 3549   2.065   2.241   1.454 -0.1412  0.9421  0.6829
  888SOL    HW1 3550   2.113   2.210   1.379  0.3631 -1.2213  0.7264
  888SOL    HW2 3551   2.103   2.209   1.529 -0.7499  1.2025 -1.6320
  888SOL     MW 3552   2.076   2.233   1.454 -0.1550  0.6911  0.3832
  889SOL     OW 3553   2.301   1.929   2.070 -0.0349  0.0304 -0.5708
  889SOL    HW1 3554   2.386   1.897   2.095 -1.3132  0.9889  0.9867
  889SOL    HW2 3555   2.328   2.016   2.033  0.9181  0.2612  0.5713
  889SOL     MW 3556   2.316   1.937   2.069 -0.0778  0.1873 -0.2146
  890SOL     OW 3557   0.045   2.349   0.111  0.0087  0.4515 -0.5288
  890SOL    HW1 3558   0.030   2.443   0.124 -0.7611  0.3124  1.5645
  890SOL    HW2 3559   0.082   2.319   0.194 -0.5372 -2.3069  0.2920
  890SOL     MW 3560   0.048   2.358   0.124 -0.1649  0.0692 -0.1443
  891SOL     OW 3561   3.002   1.964   1.205 -0.1526  0.1623  0.4309
  891SOL    HW1 3562   3.064   1.894   1.173 -0.6684  1.1070 -2.1911
  891SOL    HW2 3563   3.052   2.034   1.257  1.1900 -0.9815 -2.0285
  891SOL     MW 3564   3.017   1.964   1.208 -0.0435  0.1360 -0.2395
  892SOL     OW 3565   2.429   2.345   2.745 -0.3673 -0.1968  0.5470
  892SOL    HW1 3566   2.440   2.248   2.773  1.0328 -1.1663 -1.1166
  892SOL    HW2 3567   2.509   2.372   2.788  0.6438 -2.5717 -1.9665
  892SOL     MW 3568   2.441   2.336   2.754 -0.0492 -0.6380 -0.0041
  893SOL     OW 3569   1.635   2.343   1.377  0.2020  0.3617  0.0960
  893SOL    HW1 3570   1.549   2.363   1.413 -2.2614 -0.4816 -0.3623
  893SOL    HW2 3571   1.706   2.376   1.432  1.5191  2.0304 -1.8510
  893SOL     MW 3572   1.633   2.350   1.389  0.0508  0.4706 -0.2214
  894SOL     OW 3573   2.795   1.969   0.528 -0.0483  0.2393  0.2680
  894SOL    HW1 3574   2.746   1.996   0.610 -0.7032  2.0076  2.3963
  894SOL    HW2 3575   2.728   1.949   0.463  0.1108 -0.8663 -0.3504
  894SOL     MW 3576   2.780   1.970   0.530 -0.1137  0.3267  0.4672
  895SOL     OW 3577   2.184   2.173   1.200 -0.3760  0.0037  0.4623
  895SOL    HW1 3578   2.219   2.228   1.128 -0.6830  0.3760  3.7633
  895SOL    HW2 3579   2.138   2.102   1.145  1.5622 -0.2839 -2.6781
  895SOL     MW 3580   2.182   2.171   1.183 -0.1608  0.0149  0.4835
  896SOL     OW 3581   2.352   2.806   1.075  0.0976  0.4592 -0.2155
  896SOL    HW1 3582   2.372   2.758   1.160  1.8349 -0.6845 -0.4197
  896SOL    HW2 3583   2.292   2.878   1.102  4.1703  1.4232  1.6641
  896SOL     MW 3584   2.347   2.809   1.090  0.8642  0.4355  0.0055
  897SOL     OW 3585   0.014   3.056   3.015  0.0483 -0.3284 -0.0630
  897SOL    HW1 3586   0.040   2.962   3.004 -2.3805  1.2994 -1.1037
  897SOL    HW2 3587  -0.059   3.063   2.951  1.7277 -0.9753  1.4670
  897SOL     MW 3588   0.008   3.045   3.005 -0.0506 -0.1990  0.0015
  898SOL     OW 3589   2.141   0.171   1.435 -0.1622 -0.4732 -0.0101
  898SOL    HW1 3590   2.096   0.087   1.463 -1.7172 -0.3977 -2.8233
  898SOL    HW2 3591   2.116   0.180   1.340 -0.8451 -1.0067 -0.3465
  898SOL     MW 3592   2.132   0.161   1.427 -0.4575 -0.5336 -0.4257
  899SOL     OW 3593   2.993   2.951   0.631 -0.7645  0.1839  0.4526
  899SOL    HW1 3594   2.990   2.857   0.656 -0.0486  1.4978 -1.2650
  899SOL    HW2 3595   2.920   2.996   0.665  2.2449 -0.9558 -2.2259
  899SOL     MW 3596   2.983   2.944   0.638 -0.2730  0.2069 -0.1274
  900SOL     OW 3597   0.152   2.384   1.113 -0.5726  0.3144 -1.0338
  900SOL    HW1 3598   0.102   2.468   1.099 -1.4009  0.7870 -3.7122
  900SOL    HW2 3599   0.135   2.339   1.027 -0.2251 -0.4952 -2.0188
  900SOL     MW 3600   0.143   2.389   1.100 -0.6360  0.2700 -1.5171
  901SOL     OW 3601   1.761   2.862   1.764  0.5766  0.0148 -0.1450
  901SOL    HW1 3602   1.796   2.779   1.741 -0.0653 -2.6211 -3.0374
  901SOL    HW2 3603   1.662   2.840   1.779 -1.1054  0.7447  1.1718
  901SOL     MW 3604   1.752   2.848   1.763  0.2700 -0.2367 -0.3529
  902SOL     OW 3605   2.625   2.092   1.714  0.2791  0.2084 -0.1716
  902SOL    HW1 3606   2.631   2.046   1.628 -1.1021 -0.2361 -2.5320
  902SOL    HW2 3607   2.718   2.091   1.749  2.5953  0.2928 -3.4573
  902SOL     MW 3608   2.638   2.086   1.708  0.4024  0.1609 -0.9166
  903SOL     OW 3609   1.563   2.650   0.535  0.3125 -0.2862 -0.1635
  903SOL    HW1 3610   1.651   2.614   0.524  0.2001 -0.6660  2.0624
  903SOL    HW2 3611   1.553   2.681   0.625  4.0239 -0.5720  3.0739
  903SOL     MW 3612   1.573   2.649   0.545  0.7873 -0.3740  0.5573
  904SOL     OW 3613   2.566   2.533   1.681  0.6700 -0.2072  0.1405
  904SOL    HW1 3614   2.485   2.552   1.637 -0.6982 -0.1260 -1.0155
  904SOL    HW2 3615   2.620   2.495   1.613  1.5153  0.2641  1.3237
  904SOL     MW 3616   2.563   2.531   1.666  0.6010 -0.1343  0.1441
  905SOL     OW 3617   2.334   2.518   2.070 -0.1513  0.1296 -0.4379
  905SOL    HW1 3618   2.405   2.471   2.024 -0.1724  0.1749 -1.4562
  905SOL    HW2 3619   2.276   2.455   2.115 -0.1284 -0.2263 -0.2193
  905SOL     MW 3620   2.336   2.504   2.070 -0.1510  0.0886 -0.5434
  906SOL     OW 3621   2.409   2.457   0.819  0.3734  0.2513  0.4695
  906SOL    HW1 3622   2.502   2.451   0.796  0.8161 -0.7034 -0.9269
  906SOL    HW2 3623   2.406   2.552   0.843  1.3359 -0.8728 -1.8077
  906SOL     MW 3624   2.421   2.469   0.819  0.5588 -0.0230 -0.0152
  907SOL     OW 3625   2.660   2.756   1.317 -0.2602  0.3257  0.0315
  907SOL    HW1 3626   2.686   2.835   1.358 -1.3249 -3.6299 -1.1478
  907SOL    HW2 3627   2.677   2.772   1.223  1.1535 -1.7398 -4.3506
  907SOL     MW 3628   2.666   2.769   1.310 -0.2141 -0.4687 -0.7023
  908SOL     OW 3629   2.677   2.297   3.069  0.0429 -0.3410 -0.1489
  908SOL    HW1 3630   2.628   2.246   3.121  2.3010  2.4985 -1.7382
  908SOL    HW2 3631   2.655   2.389   3.099  2.0811 -1.5381  0.3350
  908SOL     MW 3632   2.668   2.302   3.080  0.6098 -0.1243 -0.2948
  909SOL     OW 3633   1.714   0.098   1.318 -0.2584 -0.0364  0.8483
  909SOL    HW1 3634   1.663   0.177   1.312  2.6827  0.8590 -1.1159
  909SOL    HW2 3635   1.681   0.061   1.401 -0.9948 -0.0619 -2.4784
  909SOL     MW 3636   1.703   0.103   1.328  0.0325  0.0784  0.1502
  910SOL     OW 3637   2.151   1.648   0.462  0.3035  0.6569 -0.0150
  910SOL    HW1 3638   2.094   1.573   0.477  1.2744 -1.3842  0.9361
  910SOL    HW2 3639   2.100   1.710   0.406  0.8417 -2.2345  0.8679
  910SOL     MW 3640   2.136   1.646   0.456  0.5026  0.0061  0.2270
  911SOL     OW 3641   2.349   2.187   1.602 -0.9380 -0.3142  0.4973
  911SOL    HW1 3642   2.392   2.218   1.679 -0.2133  1.8578  0.9906
  911SOL    HW2 3643   2.406   2.187   1.532 -2.0790  0.0351  0.9100
  911SOL     MW 3644   2.362   2.191   1.603 -0.9929  0.0184  0.6168
  912SOL     OW 3645   2.928   1.853   1.452  0.1963  0.5168  0.1635
  912SOL    HW1 3646   2.948   1.888   1.359  1.6515 -0.3479 -0.8377
  912SOL    HW2 3647   2.863   1.918   1.489 -0.9720  1.6201 -1.6672
  912SOL     MW 3648   2.922   1.866   1.444  0.2341  0.5482 -0.2102
  913SOL     OW 3649   2.698   3.085   0.337  0.1965 -0.5993  0.6813
  913SOL    HW1 3650   2.782   3.047   0.349  1.9161  0.3768 -0.1467
  913SOL    HW2 3651   2.649   3.023   0.287 -0.0451  1.3630  1.2363
  913SOL     MW 3652   2.702   3.072   0.332  0.3915 -0.2116  0.6453
  914SOL     OW 3653   2.646   1.781   3.073 -0.0546  0.1742  0.1913
  914SOL    HW1 3654   2.707   1.854   3.045 -1.4786  1.1878  3.4792
  914SOL    HW2 3655   2.563   1.822   3.074  0.9287  3.1922  2.0162
  914SOL     MW 3656   2.643   1.796   3.069 -0.1128  0.7062  0.8659
  915SOL     OW 3657   1.813   0.096   0.179 -0.1439 -0.2077  0.1661
  915SOL    HW1 3658   1.905   0.048   0.183  0.4524 -1.9176  3.9253
  915SOL    HW2 3659   1.748   0.036   0.216  1.4445 -1.1009  0.6293
  915SOL     MW 3660   1.817   0.082   0.184  0.1444 -0.5512  0.7232
  916SOL     OW 3661   1.787   2.090   1.975  0.1468 -0.5408 -0.3780
  916SOL    HW1 3662   1.829   2.168   1.937 -1.0593 -0.3069 -0.4532
  916SOL    HW2 3663   1.800   2.015   1.921  0.1575  0.5202  1.9007
  916SOL     MW 3664   1.794   2.091   1.963 -0.0109 -0.3699 -0.0873
  917SOL     OW 3665   2.504   2.201   2.529 -0.1804  0.0905 -0.2790
  917SOL    HW1 3666   2.456   2.258   2.594 -0.5495  2.2464  1.5378
  917SOL    HW2 3667   2.584   2.246   2.507  3.8031 -1.3707  1.9008
  917SOL     MW 3668   2.508   2.215   2.535  0.2965  0.1822  0.2483
  918SOL     OW 3669   2.023   1.593   2.676 -0.1160  0.1069 -0.0698
  918SOL    HW1 3670   1.940   1.619   2.631 -0.3248 -0.2772 -0.2208
  918SOL    HW2 3671   2.084   1.654   2.641 -0.0741 -2.3709  1.6859
  918SOL     MW 3672   2.020   1.605   2.666 -0.1380 -0.2707  0.1419
  919SOL     OW 3673   3.049   2.391   2.245 -0.0260 -0.4237 -0.9757
  919SOL    HW1 3674   2.990   2.323   2.227 -1.9071  0.5168  0.8594
  919SOL    HW2 3675   3.086   2.423   2.161  0.4346  0.6052 -2.3656
  919SOL     MW 3676   3.046   2.386   2.232 -0.2134 -0.1638 -0.9169
  920SOL     OW 3677   2.607   2.875   3.036  0.4164 -0.2321  0.3170
  920SOL    HW1 3678   2.540   2.808   3.027  3.2095 -0.9492 -1.3692
  920SOL    HW2 3679   2.667   2.856   2.964  2.0983  1.4475 -0.1660
  920SOL     MW 3680   2.606   2.863   3.026  1.0068 -0.1051  0.0308
  921SOL     OW 3681   2.398   2.595   2.574 -0.4252  0.0903 -0.5766
  921SOL    HW1 3682   2.471   2.604   2.511  3.3239  0.2811  2.2868
  921SOL    HW2 3683   2.421   2.516   2.617 -0.0989  2.0527  0.4129
  921SOL     MW 3684   2.411   2.586   2.572  0.1125  0.3744 -0.0682
  922SOL     OW 3685   2.117   2.655   0.414  0.7486 -0.3008  0.7247
  922SOL    HW1 3686   2.130   2.656   0.320 -1.2832  4.9620  0.2905
  922SOL    HW2 3687   2.135   2.576   0.452  1.5376  0.8438 -0.1602
  922SOL     MW 3688   2.122   2.645   0.407  0.5847  0.5446  0.5507
  923SOL     OW 3689   2.203   2.818   1.643 -0.4234 -0.6401 -0.0338
  923SOL    HW1 3690   2.254   2.749   1.595 -2.2262 -0.4435  0.1976
  923SOL    HW2 3691   2.215   2.898   1.592 -0.5842 -1.0063  1.9394
  923SOL     MW 3692   2.212   2.820   1.630 -0.6825 -0.6625  0.2571
  924SOL     OW 3693   1.081   2.722   2.603  0.2333  0.1092  0.1445
  924SOL    HW1 3694   1.179   2.727   2.603  0.2865 -1.0991  1.6732
  924SOL    HW2 3695   1.056   2.644   2.656  1.5298 -2.0504  2.4536
  924SOL     MW 3696   1.091   2.713   2.610  0.4114 -0.3351  0.6509
  925SOL     OW 3697   2.953   0.149   2.633 -0.0801  0.2590  0.0328
  925SOL    HW1 3698   2.887   0.130   2.563 -2.5219 -1.5470 -1.3337
  925SOL    HW2 3699   2.917   0.218   2.691 -0.2064 -1.5086 -0.9905
  925SOL     MW 3700   2.940   0.156   2.631 -0.4189 -0.2125 -0.2825
  926SOL     OW 3701   2.786   2.414   1.971 -0.0615 -0.0663  0.7028
  926SOL    HW1 3702   2.834   2.491   2.012  1.2159  2.8509  1.0258
  926SOL    HW2 3703   2.823   2.417   1.882 -1.0349  1.3336  0.5023
  926SOL     MW 3704   2.797   2.425   1.964 -0.0214  0.5033  0.7190
  927SOL     OW 3705   2.365   0.118   0.302  0.0709  0.1458  0.1295
  927SOL    HW1 3706   2.445   0.130   0.354  2.0992 -0.5825 -0.6927
  927SOL    HW2 3707   2.388   0.064   0.227  1.2817  0.9500  2.0911
  927SOL     MW 3708   2.379   0.113   0.299  0.4983  0.1558  0.2798
  928SOL     OW 3709   2.174   2.345   1.857 -0.1151  0.6014 -0.2197
  928SOL    HW1 3710   2.161   2.347   1.762 -3.6870 -2.6824  1.2084
  928SOL    HW2 3711   2.219   2.428   1.878  2.2656 -1.0639  0.8337
  928SOL     MW 3712   2.178   2.356   1.847 -0.2722 -0.0516  0.1077
  929SOL     OW 3713   2.699   2.361   2.423 -0.4569  0.2218  0.1995
  929SOL    HW1 3714   2.731   2.315   2.343 -3.8119 -2.1257 -0.1776
  929SOL    HW2 3715   2.769   2.350   2.492  0.7658 -2.1484  2.2136
  929SOL     MW 3716   2.712   2.353   2.421 -0.7382 -0.4006  0.4155
  930SOL     OW 3717   2.049   2.817   2.694 -0.0108 -0.1267 -0.0309
  930SOL    HW1 3718   2.048   2.753   2.764 -0.3846 -1.9740 -0.8445
  930SOL    HW2 3719   2.141   2.841   2.684  0.7076 -0.2177  1.6941
  930SOL     MW 3720   2.061   2.812   2.702  0.0347 -0.3824  0.0893
  931SOL     OW 3721   0.031   2.746   2.476  0.1762 -0.9011  0.1807
  931SOL    HW1 3722   0.020   2.814   2.547 -1.6375  0.0057  2.8259
  931SOL    HW2 3723   0.114   2.775   2.438 -0.9251 -2.1057 -0.4765
  931SOL     MW 3724   0.040   2.759   2.481 -0.2084 -0.9404  0.4430
  932SOL     OW 3725   2.758   2.023   2.453  0.6219 -0.4911  0.0441
  932SOL    HW1 3726   2.846   2.019   2.489 -0.8204  0.8498 -0.3824
  932SOL    HW2 3727   2.771   2.005   2.361 -1.2309 -0.3826 -0.7234
  932SOL     MW 3728   2.771   2.020   2.445  0.1872 -0.2998 -0.1134
  933SOL     OW 3729   2.087   2.794   2.245 -0.0847  0.4131  0.5038
  933SOL    HW1 3730   2.167   2.846   2.252 -0.5341  4.0394 -0.6932
  933SOL    HW2 3731   2.017   2.863   2.225 -1.2222 -2.4749  2.0467
  933SOL     MW 3732   2.088   2.810   2.243 -0.2941  0.5105  0.5494
  934SOL     OW 3733   1.994   2.657   2.460 -0.2722  0.0573  0.0168
  934SOL    HW1 3734   2.014   2.696   2.541 -0.7860 -0.3872  2.6833
  934SOL    HW2 3735   2.027   2.709   2.389  1.8157  0.3659  1.9494
  934SOL     MW 3736   2.001   2.669   2.462 -0.0645  0.0394  0.6236
  935SOL     OW 3737   2.657   1.532   1.824  0.2602  0.1525 -0.2457
  935SOL    HW1 3738   2.746   1.495   1.821  0.2045 -0.6880 -0.2152
  935SOL    HW2 3739   2.625   1.512   1.737  0.0731  0.1957  1.2045
  935SOL     MW 3740   2.665   1.524   1.812  0.2282  0.0473 -0.0503
  936SOL     OW 3741   2.929   2.210   0.026 -0.1028 -0.2692 -0.4241
  936SOL    HW1 3742   2.997   2.270   0.066 -2.2269 -4.2782  0.7603
  936SOL    HW2 3743   2.848   2.257   0.028 -0.4957  2.5371  1.3223
  936SOL     MW 3744   2.928   2.224   0.031 -0.4349 -0.4279 -0.0374
  937SOL     OW 3745   1.957   2.116   2.633 -0.4006  0.0429 -0.0957
  937SOL    HW1 3746   2.043   2.080   2.668  0.8567  2.6823 -0.2383
  937SOL    HW2 3747   1.968   2.120   2.537  0.7240  0.6421 -1.7654
  937SOL     MW 3748   1.970   2.112   2.625 -0.0864  0.4702 -0.3348
  938SOL     OW 3749   2.217   1.821   1.837  0.1804 -0.3494  0.4318
  938SOL    HW1 3750   2.268   1.846   1.765 -2.5555  0.3935 -2.0685
  938SOL    HW2 3751   2.244   1.865   1.919 -3.3654  0.1489 -2.6690
  938SOL     MW 3752   2.228   1.830   1.838 -0.6484 -0.1857 -0.3072
  939SOL     OW 3753   2.758   1.991   2.106 -0.2088  0.4096 -0.8671
  939SOL    HW1 3754   2.799   1.926   2.048  0.4050  0.5886  0.0700
  939SOL    HW2 3755   2.680   1.947   2.132 -0.4885  1.4459 -0.2932
  939SOL     MW 3756   2.753   1.977   2.102 -0.1647  0.5699 -0.6678
  940SOL     OW 3757   2.207   0.089   2.779  0.0222 -0.0919  0.2532
  940SOL    HW1 3758   2.232   0.002   2.740  0.8648  2.8743 -0.9695
  940SOL    HW2 3759   2.293   0.104   2.813 -0.9163 -0.5024 -1.5565
  940SOL     MW 3760   2.222   0.080   2.778  0.0095  0.2453 -0.1469
  941SOL     OW 3761   0.093   2.422   2.017 -0.3539 -0.7136 -0.2078
  941SOL    HW1 3762   0.162   2.360   2.057  0.3890  1.1480 -0.3315
  941SOL    HW2 3763   0.128   2.429   1.925  0.4058 -2.0459 -2.8353
  941SOL     MW 3764   0.107   2.415   2.010 -0.1556 -0.6437 -0.5708
  942SOL     OW 3765   2.802   2.248   2.188  0.5521 -0.4739 -0.8334
  942SOL    HW1 3766   2.804   2.308   2.109  1.3483 -1.9894  3.9619
  942SOL    HW2 3767   2.780   2.163   2.144  2.4263  1.7217  1.2465
  942SOL     MW 3768   2.799   2.244   2.172  0.9045 -0.3842  0.0737
  943SOL     OW 3769   0.352   2.197   2.277  0.0320  0.2721 -0.6619
  943SOL    HW1 3770   0.279   2.213   2.335 -1.0500  1.5633  0.5341
  943SOL    HW2 3771   0.417   2.163   2.339 -0.7855  0.3621 -0.4270
  943SOL     MW 3772   0.351   2.194   2.293 -0.2186  0.4544 -0.4731
  944SOL     OW 3773   2.124   2.674   1.979 -0.2318 -0.5274  0.3894
  944SOL    HW1 3774   2.190   2.608   1.994  2.2008 -1.1291 -0.3266
  944SOL    HW2 3775   2.090   2.688   2.072 -0.3448  0.7516 -1.2110
  944SOL     MW 3776   2.128   2.667   1.993  0.0742 -0.4380  0.0837
  945SOL     OW 3777   2.745   2.674   2.883 -0.1569  0.0789 -0.2854
  945SOL    HW1 3778   2.723   2.572   2.860 -0.6908 -0.8777 -0.5631
  945SOL    HW2 3779   2.767   2.708   2.792 -0.5480 -0.7214 -0.3662
  945SOL     MW 3780   2.745   2.665   2.868 -0.2790 -0.1529 -0.3327
  946SOL     OW 3781   2.469   2.702   2.219  0.1239 -0.0621 -0.5427
  946SOL    HW1 3782   2.508   2.757   2.150 -0.8215 -4.2007  3.5383
  946SOL    HW2 3783   2.421   2.631   2.166  1.3311  0.7043  0.6370
  946SOL     MW 3784   2.468   2.700   2.203  0.1584 -0.5070  0.1514
  947SOL     OW 3785   2.029   3.049   0.207  0.0640  0.7529  0.4394
  947SOL    HW1 3786   1.976   2.963   0.200  0.8351 -0.8906  1.5028
  947SOL    HW2 3787   2.060   3.064   0.299 -0.7384 -2.3083  1.3169
  947SOL     MW 3788   2.026   3.040   0.218  0.0598  0.1322  0.6955
  948SOL     OW 3789   1.825   3.028   2.622  0.2925 -0.1294  0.1158
  948SOL    HW1 3790   1.880   2.949   2.640 -0.7184 -0.4142  0.5308
  948SOL    HW2 3791   1.807   3.039   2.527 -0.3599 -1.6350 -0.8023
  948SOL     MW 3792   1.830   3.019   2.612  0.0730 -0.3656  0.0494
  949SOL     OW 3793   2.529   1.890   2.199  0.4905 -0.3525  0.2325
  949SOL    HW1 3794   2.523   1.811   2.256  0.3160 -0.3128  0.1373
  949SOL    HW2 3795   2.485   1.961   2.247  1.0572 -0.4029  0.7185
  949SOL     MW 3796   2.523   1.889   2.213  0.5422 -0.3539  0.2840
  950SOL     OW 3797   2.262   2.438   2.954 -0.2873 -0.0594  0.1377
  950SOL    HW1 3798   2.304   2.404   2.876  0.4888 -0.5155  0.6514
  950SOL    HW2 3799   2.184   2.489   2.925 -3.4047 -1.1469 -0.2223
  950SOL     MW 3800   2.258   2.440   2.940 -0.5962 -0.2631  0.1580
  951SOL     OW 3801   3.041   2.224   2.854  0.2100 -0.2952 -0.1785
  951SOL    HW1 3802   2.999   2.237   2.935 -0.8997 -1.6189 -1.1965
  951SOL    HW2 3803   3.116   2.168   2.873  0.7992  3.7905  0.9276
  951SOL     MW 3804   3.045   2.218   2.867  0.1413  0.0692 -0.1669
  952SOL     OW 3805   3.074   1.715   2.111  0.2246 -0.5535 -0.2466
  952SOL    HW1 3806   3.008   1.759   2.052 -0.6802 -0.7213 -1.0721
  952SOL    HW2 3807   3.154   1.770   2.106 -0.4134 -0.2195 -0.5057
  952SOL     MW 3808   3.076   1.728   2.103  0.0211 -0.5316 -0.3897
  953SOL     OW 3809   1.884   1.764   2.840 -0.5269 -0.0649 -0.5159
  953SOL    HW1 3810   1.832   1.737   2.918  0.8251 -0.2354 -1.8038
  953SOL    HW2 3811   1.946   1.695   2.817  1.2022 -0.0166  2.4081
  953SOL     MW 3812   1.885   1.751   2.847 -0.1204 -0.0810 -0.3000
  954SOL     OW 3813   2.417   2.084   2.809  0.6602 -0.0175 -0.6025
  954SOL    HW1 3814   2.324   2.075   2.784  0.3092  0.5259  0.9418
  954SOL    HW2 3815   2.475   2.029   2.750 -1.1335 -1.5585 -1.1167
  954SOL     MW 3816   2.412   2.075   2.798  0.3772 -0.1492 -0.4666
  955SOL     OW 3817   1.502   1.553   2.571 -0.6193  0.0150 -0.3169
  955SOL    HW1 3818   1.484   1.542   2.484  4.5135 -1.0409 -0.1481
  955SOL    HW2 3819   1.596   1.581   2.562 -1.2154 -2.5987 -0.2096
  955SOL     MW 3820   1.512   1.555   2.558 -0.0207 -0.4692 -0.2805
  956SOL     OW 3821   2.684   2.401   2.818  0.1067  0.2287  0.2001
  956SOL    HW1 3822   2.693   2.352   2.902 -0.5909 -2.0153 -1.9762
  956SOL    HW2 3823   2.762   2.371   2.769  1.5626  1.5691  4.5903
  956SOL     MW 3824   2.695   2.390   2.822  0.2068  0.1095  0.4922
  957SOL     OW 3825   2.283   2.841   0.523  0.2510  0.5072 -0.1453
  957SOL    HW1 3826   2.238   2.769   0.470 -0.6238 -0.6900  0.3675
  957SOL    HW2 3827   2.261   2.824   0.610 -3.2800 -2.7680 -1.1263
  957SOL     MW 3828   2.274   2.829   0.527 -0.3303 -0.0829 -0.2071
  958SOL     OW 3829   2.051   2.599   2.838 -0.2930  0.5303 -0.0203
  958SOL    HW1 3830   2.014   2.535   2.780  1.9566  0.9250  3.2461
  958SOL    HW2 3831   2.011   2.578   2.923 -1.1460 -0.5381 -1.5257
  958SOL     MW 3832   2.041   2.588   2.841 -0.1087  0.4414  0.2121
  959SOL     OW 3833   2.524   2.757   0.444 -0.2224 -0.3529  0.6835
  959SOL    HW1 3834   2.531   2.770   0.347 -1.9141 -0.6184  1.9065
  959SOL    HW2 3835   2.447   2.807   0.468 -0.7370 -0.6087 -0.2207
  959SOL     MW 3836   2.515   2.765   0.435 -0.5135 -0.4217  0.7255
  960SOL     OW 3837   1.876   2.369   2.323 -0.2753 -0.2297 -0.1781
  960SOL    HW1 3838   1.905   2.277   2.310 -0.3354 -1.9577  0.9332
  960SOL    HW2 3839   1.819   2.357   2.401 -1.0899 -3.0530  2.8351
  960SOL     MW 3840   1.872   2.355   2.332 -0.3907 -0.8302  0.3661
  961SOL     OW 3841   2.202   2.323   2.245 -0.3000 -0.2574  0.0624
  961SOL    HW1 3842   2.120   2.298   2.209  0.9088 -2.3274 -0.7311
  961SOL    HW2 3843   2.194   2.347   2.344  0.4523  0.3997  0.4316
  961SOL     MW 3844   2.190   2.323   2.253 -0.0412 -0.4438  0.0064
  962SOL     OW 3845   2.156   2.034   2.768  0.3861 -0.6036  0.4148
  962SOL    HW1 3846   2.091   2.021   2.833  1.3216 -0.1508  2.5762
  962SOL    HW2 3847   2.155   1.944   2.727 -1.5189  3.2709 -2.3110
  962SOL     MW 3848   2.148   2.020   2.771  0.2582 -0.0326  0.3403
  963SOL     OW 3849   1.837   2.541   2.090 -0.1323  0.3110 -0.2028
  963SOL    HW1 3850   1.833   2.496   2.176  0.2849  1.3275  0.6755
  963SOL    HW2 3851   1.864   2.476   2.027 -1.8080  0.6886  0.0362
  963SOL     MW 3852   1.840   2.527   2.093 -0.2984  0.4949 -0.0554
  964SOL     OW 3853   1.767   1.888   2.635 -0.1354  0.2933  0.2871
  964SOL    HW1 3854   1.827   1.953   2.606  0.0742 -3.4593  1.0533
  964SOL    HW2 3855   1.820   1.836   2.701 -0.3795 -0.6126  1.6486
  964SOL     MW 3856   1.782   1.890   2.640 -0.1400 -0.3214  0.5678
  965SOL     OW 3857   2.118   2.560   0.862 -0.0178  0.3718 -1.1485
  965SOL    HW1 3858   2.170   2.506   0.803 -0.3540 -1.5478  0.2838
  965SOL    HW2 3859   2.181   2.626   0.884  1.8739 -1.9661 -0.2898
  965SOL     MW 3860   2.133   2.561   0.857  0.1874 -0.1900 -0.8463
  966SOL     OW 3861   2.647   2.619   2.406 -0.1139  0.3505 -0.2635
  966SOL    HW1 3862   2.602   2.640   2.323  3.7224 -1.3025  0.6232
  966SOL    HW2 3863   2.655   2.521   2.404 -2.4379  0.5937  1.8327
  966SOL     MW 3864   2.642   2.609   2.395  0.0856  0.1645  0.1300
  967SOL     OW 3865   2.647   0.042   0.009 -0.3362 -0.2337 -0.2039
  967SOL    HW1 3866   2.657  -0.052  -0.007 -0.2845  3.3653  1.0185
  967SOL    HW2 3867   2.635   0.091  -0.075  0.4018 -1.7771  0.2544
  967SOL     MW 3868   2.647   0.036  -0.004 -0.2320  0.0375  0.0178
  968SOL     OW 3869   3.007   2.609   2.936 -0.0630 -0.7755  0.3160
  968SOL    HW1 3870   2.917   2.648   2.933 -2.6448 -1.2575 -2.7805
  968SOL    HW2 3871   3.025   2.592   2.841 -0.5735  1.0329 -2.5866
  968SOL     MW 3872   2.998   2.612   2.923 -0.4710 -0.6005 -0.4755
  969SOL     OW 3873   1.596   2.110   1.726  0.1295  0.8439  0.2552
  969SOL    HW1 3874   1.679   2.064   1.726 -2.0977 -0.6261 -0.0155
  969SOL    HW2 3875   1.573   2.122   1.819  1.1960 -0.6003 -2.4639
  969SOL     MW 3876   1.604   2.106   1.739 -0.0236  0.4594 -0.1393
  970SOL     OW 3877   1.738   1.762   1.854 -0.6096 -0.2188 -0.5904
  970SOL    HW1 3878   1.770   1.689   1.908 -1.3017 -0.9617 -0.2732
  970SOL    HW2 3879   1.649   1.770   1.883  1.4100  1.2147 -0.4011
  970SOL     MW 3880   1.730   1.753   1.865 -0.4345 -0.1277 -0.5235
  971SOL     OW 3881   1.777   3.093   2.357  0.2123 -0.3160 -0.0542
  971SOL    HW1 3882   1.831   3.059   2.281 -0.0120 -0.8591 -0.5789
  971SOL    HW2 3883   1.810   3.180   2.365 -2.4901 -0.9172 -1.7539
  971SOL     MW 3884   1.788   3.100   2.348 -0.1738 -0.4670 -0.3477
  972SOL     OW 3885   0.280   2.862   2.434 -0.4901  0.9171  0.1855
  972SOL    HW1 3886   0.338   2.791   2.455 -0.7966  1.5608  0.5381
  972SOL    HW2 3887   0.316   2.945   2.467 -0.6010 -1.5394 -0.0551
  972SOL     MW 3888   0.292   2.863   2.441 -0.5451  0.6779  0.2003
  973SOL     OW 3889   2.621   3.055   2.153 -0.1193  1.0492 -0.0862
  973SOL    HW1 3890   2.577   2.990   2.091 -0.5345  1.3652  0.1322
  973SOL    HW2 3891   2.690   3.082   2.097  0.0368 -1.1357  1.1958
  973SOL     MW 3892   2.624   3.050   2.138 -0.1535  0.8026  0.1117
  974SOL     OW 3893   2.005   0.153   2.606 -0.1823  0.3806 -0.1382
  974SOL    HW1 3894   2.068   0.138   2.680 -1.2236  0.0256 -1.1465
  974SOL    HW2 3895   1.958   0.068   2.605  0.1825 -0.1190 -1.4375
  974SOL     MW 3896   2.007   0.140   2.615 -0.2716  0.2678 -0.4427
  975SOL     OW 3897   2.156   2.435   2.490 -0.2926 -0.2396 -0.4197
  975SOL    HW1 3898   2.228   2.484   2.531  1.7279 -0.2558  1.2259
  975SOL    HW2 3899   2.105   2.511   2.468  0.5342 -1.2525  0.5557
  975SOL     MW 3900   2.159   2.451   2.493  0.0831 -0.3754 -0.0739
  976SOL     OW 3901   0.159   0.352   1.605  0.0055 -0.2853  0.1986
  976SOL    HW1 3902   0.228   0.285   1.620  2.5250  2.5001 -2.0861
  976SOL    HW2 3903   0.076   0.309   1.575  0.0821  0.3673 -0.5666
  976SOL     MW 3904   0.157   0.337   1.603  0.3480  0.1683 -0.2038
  977SOL     OW 3905   1.738   2.743   2.405 -0.6782  0.3143  0.4588
  977SOL    HW1 3906   1.826   2.699   2.393  0.5970 -3.2994  0.3939
  977SOL    HW2 3907   1.753   2.837   2.407 -2.2827 -0.9168 -1.3145
  977SOL     MW 3908   1.752   2.750   2.404 -0.7217 -0.3250  0.2163
   3.10000   3.10000   3.10000
