977 TIP4P/2005f water molecules t=   0.93000 step= 930
 3908
    1SOL     OW    1   0.369   0.808   3.080  0.2785 -0.1551  0.2740
    1SOL    HW1    2   0.371   0.826   2.987 -2.9112 -0.5480  2.6185
    1SOL    HW2    3   0.311   0.736   3.086  3.8400 -0.1680  0.1475
    1SOL     MW    4   0.362   0.801   3.068  0.3276 -0.2087  0.5667
    2SOL     OW    5   0.317   3.022   1.165 -0.5241  0.0532  0.3342
    2SOL    HW1    6   0.373   3.100   1.149  4.4440 -0.0248  0.6124
    2SOL    HW2    7   0.230   3.065   1.173  0.7150  2.6181 -0.5908
    2SOL     MW    8   0.313   3.038   1.164  0.2949  0.3813  0.2489
    3SOL     OW    9   2.641   0.413   0.949  0.1013 -0.1201 -0.0380
    3SOL    HW1   10   2.668   0.487   0.901 -1.6294 -1.5768  1.9464
    3SOL    HW2   11   2.608   0.457   1.038 -0.1499  2.9079  2.2014
    3SOL     MW   12   2.640   0.428   0.955 -0.1602  0.0872  0.5193
    4SOL     OW   13   2.980   1.662   0.607 -0.9983 -0.3573 -0.1730
    4SOL    HW1   14   2.916   1.734   0.579 -0.5756  0.1272  0.6827
    4SOL    HW2   15   3.045   1.635   0.534  2.6059  0.3472 -0.9136
    4SOL     MW   16   2.980   1.668   0.594 -0.4670 -0.2004 -0.1578
    5SOL     OW   17   1.745   1.511   0.514  0.5048  0.0106 -0.0007
    5SOL    HW1   18   1.785   1.437   0.564 -0.4163 -1.7609 -0.4899
    5SOL    HW2   19   1.655   1.510   0.527  3.0704  0.6033  0.8500
    5SOL     MW   20   1.738   1.501   0.522  0.7218 -0.1450  0.0470
    6SOL     OW   21   0.800   1.435   0.608  0.1294 -0.2158  0.1115
    6SOL    HW1   22   0.702   1.431   0.614  0.7548  1.9593 -1.6364
    6SOL    HW2   23   0.841   1.357   0.637  1.3096  0.4573 -2.9896
    6SOL     MW   24   0.793   1.424   0.612  0.3677  0.1600 -0.5282
    7SOL     OW   25   2.051   1.097   3.046  0.4814 -0.8091  0.1680
    7SOL    HW1   26   2.086   1.167   2.995 -1.8470 -2.3798  1.2231
    7SOL    HW2   27   2.090   1.119   3.130 -1.2666  0.8477 -0.4375
    7SOL     MW   28   2.061   1.109   3.050 -0.0564 -0.7977  0.2273
    8SOL     OW   29   0.913   1.406   1.057  0.1283  0.0549  0.8447
    8SOL    HW1   30   1.012   1.414   1.066  0.3420  0.3237 -1.2140
    8SOL    HW2   31   0.890   1.322   1.106 -0.3543 -2.0065  0.1870
    8SOL     MW   32   0.923   1.396   1.065  0.0928 -0.1817  0.4863
    9SOL     OW   33   1.019   0.526   1.408 -0.0027  0.4173  0.1042
    9SOL    HW1   34   0.970   0.462   1.354 -3.4355 -0.1559 -0.7516
    9SOL    HW2   35   1.055   0.483   1.489  1.0308 -0.5741  1.5270
    9SOL     MW   36   1.017   0.512   1.412 -0.3192  0.2109  0.1790
   10SOL     OW   37   0.250   0.771   0.453 -1.1801 -0.0930 -0.1855
   10SOL    HW1   38   0.344   0.781   0.428  0.3284  0.1358  2.5230
   10SOL    HW2   39   0.248   0.822   0.535  2.2513 -0.7658  2.1655
   10SOL     MW   40   0.263   0.779   0.460 -0.5283 -0.1516  0.4821
   11SOL     OW   41   0.807   1.145   1.734  0.0443  0.0591  0.0315
   11SOL    HW1   42   0.870   1.125   1.798  0.4114  0.9253 -1.5262
   11SOL    HW2   43   0.815   1.096   1.653  2.8369  0.3423  1.6719
   11SOL     MW   44   0.817   1.136   1.732  0.4612  0.2108  0.0424
   12SOL     OW   45   0.060   1.087   0.860 -0.3910 -0.1856 -0.2172
   12SOL    HW1   46   0.098   1.143   0.931  2.4747  0.7948  3.1082
   12SOL    HW2   47  -0.020   1.134   0.837 -0.5660  1.3160  0.4945
   12SOL     MW   48   0.055   1.101   0.866 -0.0360  0.1419  0.3154
   13SOL     OW   49   1.864   1.433   1.338  0.7852 -0.4264 -0.4440
   13SOL    HW1   50   1.914   1.375   1.281  0.0367  0.5815  1.4668
   13SOL    HW2   51   1.878   1.524   1.311 -1.7852 -0.0662 -1.1227
   13SOL     MW   52   1.872   1.437   1.327  0.3473 -0.2459 -0.2815
   14SOL     OW   53   0.643   0.419   1.882 -0.0247 -0.1027  0.0553
   14SOL    HW1   54   0.587   0.347   1.859 -2.2311  0.7069 -0.3113
   14SOL    HW2   55   0.691   0.408   1.971 -1.0086  2.0152 -0.3957
   14SOL     MW   56   0.642   0.408   1.891 -0.4456  0.2835 -0.0526
   15SOL     OW   57   1.947   0.356   1.004 -0.4410 -0.4344 -0.2294
   15SOL    HW1   58   1.928   0.420   1.075  2.8185 -0.3490  0.4389
   15SOL    HW2   59   2.005   0.397   0.937 -0.7289  0.0905 -0.3403
   15SOL     MW   60   1.952   0.370   1.005 -0.0489 -0.3539 -0.1559
   16SOL     OW   61   0.182   1.815   0.321  0.5784 -0.1653 -0.0746
   16SOL    HW1   62   0.267   1.781   0.347  1.5380 -0.6420 -2.0583
   16SOL    HW2   63   0.183   1.907   0.346  0.1289 -2.1034  0.7954
   16SOL     MW   64   0.193   1.823   0.328  0.6457 -0.4839 -0.2215
   17SOL     OW   65   1.134   0.906   1.448 -0.2132 -0.0286 -0.6860
   17SOL    HW1   66   1.197   0.881   1.513  0.1734 -1.0720  0.6767
   17SOL    HW2   67   1.048   0.879   1.483  2.5800 -1.0956 -0.6677
   17SOL     MW   68   1.131   0.899   1.461  0.2063 -0.3070 -0.5038
   18SOL     OW   69   0.042   1.583   0.410 -0.2425  0.3880  0.0709
   18SOL    HW1   70   0.077   1.664   0.369  0.1242 -0.7305  1.0706
   18SOL    HW2   71   0.036   1.531   0.333  1.2268 -1.3819 -0.0337
   18SOL     MW   72   0.046   1.587   0.394 -0.0003  0.0069  0.1890
   19SOL     OW   73   0.114   1.298   1.022 -0.1598 -0.3053  0.4017
   19SOL    HW1   74   0.140   1.348   0.946 -6.3582  0.8551  0.7389
   19SOL    HW2   75   0.018   1.320   1.020 -2.8678  0.9770 -1.9584
   19SOL     MW   76   0.105   1.308   1.012 -1.3349  0.0170  0.1348
   20SOL     OW   77   0.459   2.130   1.182  0.1586  0.5105  0.5726
   20SOL    HW1   78   0.418   2.054   1.134 -1.3078 -0.5843 -1.4800
   20SOL    HW2   79   0.394   2.157   1.252  2.4884  0.1287 -1.1265
   20SOL     MW   80   0.445   2.123   1.185  0.2725  0.3157  0.0776
   21SOL     OW   81   0.496   0.833   0.373 -0.2283  0.1398  0.4658
   21SOL    HW1   82   0.562   0.804   0.437  0.9900  1.6089  2.3654
   21SOL    HW2   83   0.519   0.804   0.286 -3.0312 -0.7550  1.2961
   21SOL     MW   84   0.508   0.825   0.370 -0.4374  0.2156  0.8260
   22SOL     OW   85   1.552   0.707   1.056  0.6431 -0.6167 -0.4575
   22SOL    HW1   86   1.515   0.671   0.970  3.1069  0.4002 -0.3457
   22SOL    HW2   87   1.529   0.802   1.066  0.0078  0.6657  0.6085
   22SOL     MW   88   1.544   0.715   1.046  0.8843 -0.3134 -0.3021
   23SOL     OW   89   0.008   0.770   0.659  0.1337 -0.2565  0.1124
   23SOL    HW1   90   0.039   0.700   0.720 -4.1846 -1.9496  1.4753
   23SOL    HW2   91   0.069   0.842   0.667 -1.7538 -0.4203 -1.6378
   23SOL     MW   92   0.020   0.770   0.668 -0.6851 -0.5015  0.0613
   24SOL     OW   93   1.997   2.225   0.079 -0.1669  0.1976 -0.6956
   24SOL    HW1   94   1.981   2.188   0.167 -2.5606 -2.9771  0.5548
   24SOL    HW2   95   2.009   2.140   0.031 -0.2737 -1.1993 -1.2230
   24SOL     MW   96   1.996   2.209   0.084 -0.4968 -0.4056 -0.6002
   25SOL     OW   97   0.268   1.410   0.516  0.0139 -0.2923  0.3485
   25SOL    HW1   98   0.197   1.468   0.489  1.5181 -0.2903  0.6213
   25SOL    HW2   99   0.346   1.446   0.487 -0.4102  3.3849  1.2820
   25SOL     MW  100   0.269   1.422   0.509  0.1564  0.1931  0.5077
   26SOL     OW  101   2.037   0.992   0.347  0.1585  0.2888 -0.0068
   26SOL    HW1  102   1.978   1.032   0.405  1.5918 -0.5050 -0.4150
   26SOL    HW2  103   2.102   1.052   0.313  1.5825 -1.4273  0.0197
   26SOL     MW  104   2.038   1.005   0.350  0.5355 -0.0424 -0.0571
   27SOL     OW  105   2.041   1.420   0.262 -0.0093  0.4043 -0.3421
   27SOL    HW1  106   1.952   1.427   0.294 -0.2056 -1.4443  0.7195
   27SOL    HW2  107   2.097   1.486   0.309 -2.5054  1.5781 -1.2134
   27SOL     MW  108   2.037   1.430   0.272 -0.3645  0.3153 -0.3170
   28SOL     OW  109   0.442   0.980   1.981  0.3191  0.1229 -0.3530
   28SOL    HW1  110   0.531   0.966   2.028  0.2175 -4.1283 -3.3588
   28SOL    HW2  111   0.400   0.903   2.011  3.7088  1.9092 -2.1022
   28SOL     MW  112   0.448   0.968   1.991  0.7529 -0.2024 -0.9803
   29SOL     OW  113   0.268   1.439   0.809  0.3826  0.0503  0.0939
   29SOL    HW1  114   0.231   1.528   0.791 -0.9174 -0.3083  1.1104
   29SOL    HW2  115   0.294   1.405   0.726  0.5841  0.9211  0.3541
   29SOL     MW  116   0.266   1.446   0.796  0.2377  0.1179  0.2623
   30SOL     OW  117   0.832   1.185   1.218 -0.2684  0.5559 -0.3072
   30SOL    HW1  118   0.744   1.201   1.246  2.1803  0.9251  1.3599
   30SOL    HW2  119   0.888   1.173   1.298  0.6018 -1.3981  2.7664
   30SOL     MW  120   0.828   1.186   1.232  0.1695  0.3468  0.3183
   31SOL     OW  121   0.391   0.142   0.190 -0.2198  0.5470  0.2147
   31SOL    HW1  122   0.400   0.070   0.247 -0.8771 -0.0979  0.4116
   31SOL    HW2  123   0.397   0.092   0.109 -0.1723  3.1578  1.7680
   31SOL     MW  124   0.393   0.126   0.187 -0.3003  0.8064  0.4456
   32SOL     OW  125   2.810   0.978   1.124  0.0971 -0.0585  0.5759
   32SOL    HW1  126   2.729   0.933   1.122  0.2616 -1.9569  1.6467
   32SOL    HW2  127   2.879   0.934   1.078  0.6460 -0.4535  0.4657
   32SOL     MW  128   2.808   0.966   1.117  0.1912 -0.3611  0.7026
   33SOL     OW  129   1.757   1.291   0.327 -0.5238  0.1136 -0.1355
   33SOL    HW1  130   1.795   1.229   0.390  0.7471 -1.7249 -0.4487
   33SOL    HW2  131   1.738   1.373   0.371 -0.5340 -1.0860  1.3492
   33SOL     MW  132   1.759   1.294   0.341 -0.3575 -0.2872  0.0191
   34SOL     OW  133   1.233   1.851   1.080 -0.0026 -0.0427  0.5359
   34SOL    HW1  134   1.144   1.884   1.087 -0.8459  2.3087  0.4830
   34SOL    HW2  135   1.283   1.897   1.143 -0.8085 -1.7113  0.8513
   34SOL     MW  136   1.228   1.862   1.089 -0.2202  0.0474  0.5705
   35SOL     OW  137   0.436   0.221   1.819 -0.5641 -0.2533  0.1762
   35SOL    HW1  138   0.433   0.141   1.871 -0.7808 -0.6365 -2.3105
   35SOL    HW2  139   0.452   0.196   1.730 -0.3516  3.6797 -1.3815
   35SOL     MW  140   0.438   0.207   1.814 -0.5646  0.2151 -0.3574
   36SOL     OW  141   1.942   1.976   0.542 -0.2923  0.0794  0.7323
   36SOL    HW1  142   1.946   1.978   0.445 -0.3476  0.6227  2.3318
   36SOL    HW2  143   1.960   1.880   0.569 -0.2288  0.2580 -1.4588
   36SOL     MW  144   1.945   1.963   0.533 -0.2912  0.1747  0.6542
   37SOL     OW  145   1.777   1.992   0.987  0.0321 -0.4656  0.0727
   37SOL    HW1  146   1.716   1.935   0.933 -0.5876 -1.6776 -1.1400
   37SOL    HW2  147   1.722   2.026   1.053 -1.9605 -2.0495 -0.1297
   37SOL     MW  148   1.762   1.989   0.988 -0.3125 -0.8345 -0.1140
   38SOL     OW  149   2.822   0.898   0.115 -0.2116 -0.1836  0.1694
   38SOL    HW1  150   2.828   0.886   0.210 -1.5233 -2.2408  0.7791
   38SOL    HW2  151   2.912   0.871   0.081 -0.7900 -2.4403  2.5975
   38SOL     MW  152   2.835   0.893   0.123 -0.4610 -0.7528  0.5702
   39SOL     OW  153   1.438   0.624   0.792 -0.3343  0.2178  0.1218
   39SOL    HW1  154   1.419   0.532   0.808  1.0277 -0.9519  0.1397
   39SOL    HW2  155   1.352   0.669   0.788 -3.4058  1.9048  0.2427
   39SOL     MW  156   1.424   0.618   0.794 -0.5599  0.2860  0.1401
   40SOL     OW  157   1.152   1.910   0.325 -0.1859 -0.2670 -0.1069
   40SOL    HW1  158   1.192   1.835   0.374 -2.9293  1.0352  2.6218
   40SOL    HW2  159   1.148   1.975   0.394  0.6662 -0.8749 -1.1623
   40SOL     MW  160   1.157   1.909   0.340 -0.4354 -0.1754  0.1139
   41SOL     OW  161   0.555   0.567   1.643 -0.7271  0.1976  0.9784
   41SOL    HW1  162   0.627   0.628   1.644 -0.7460  0.5520  0.9160
   41SOL    HW2  163   0.565   0.504   1.709 -0.9236 -1.6044 -2.3456
   41SOL     MW  164   0.566   0.566   1.652 -0.7555  0.0066  0.5316
   42SOL     OW  165   1.287   3.003   1.988 -0.3296  0.1014 -0.1892
   42SOL    HW1  166   1.204   2.997   2.036  0.8121 -1.4362 -2.0721
   42SOL    HW2  167   1.360   2.977   2.047  0.9959  1.6167  1.2217
   42SOL     MW  168   1.286   2.999   2.002 -0.0041  0.0985 -0.2514
   43SOL     OW  169   1.560   0.118   1.703 -0.7998  0.4865  0.0062
   43SOL    HW1  170   1.607   0.060   1.640 -1.8460 -0.1308  2.4776
   43SOL    HW2  171   1.471   0.080   1.702  0.0801 -0.3422  0.9900
   43SOL     MW  172   1.555   0.106   1.695 -0.8217  0.2957  0.4621
   44SOL     OW  173   1.044   0.799   1.009 -0.4393 -0.1073 -0.1333
   44SOL    HW1  174   1.103   0.870   0.984 -0.5026 -0.1690 -0.3015
   44SOL    HW2  175   1.064   0.784   1.102  4.5326  1.3078  0.5063
   44SOL     MW  176   1.054   0.806   1.018  0.2083  0.0712 -0.0711
   45SOL     OW  177   1.221   0.763   0.664 -0.0482  0.2081 -0.0459
   45SOL    HW1  178   1.139   0.804   0.673 -0.2244 -1.2080  0.4638
   45SOL    HW2  179   1.200   0.699   0.599 -4.1335  1.0565  0.0439
   45SOL     MW  180   1.208   0.760   0.656 -0.6105  0.1332  0.0332
   46SOL     OW  181   0.546   1.182   0.617  0.4161  0.3302 -0.9306
   46SOL    HW1  182   0.509   1.165   0.528 -1.5558  1.2955  0.1209
   46SOL    HW2  183   0.638   1.152   0.611 -2.7557  2.0181  1.3128
   46SOL     MW  184   0.553   1.176   0.604 -0.2626  0.6803 -0.4959
   47SOL     OW  185   0.170   1.981   1.941  0.4239  0.2269  0.7545
   47SOL    HW1  186   0.261   1.955   1.959  0.1012 -0.4738 -0.4849
   47SOL    HW2  187   0.130   2.003   2.023 -1.0839 -1.6100 -1.8449
   47SOL     MW  188   0.177   1.981   1.954  0.1824 -0.1079  0.2480
   48SOL     OW  189   1.078   0.510   0.974 -0.1652  0.5786  0.6538
   48SOL    HW1  190   0.990   0.470   0.963 -1.8332  1.4675 -0.6118
   48SOL    HW2  191   1.068   0.598   0.976 -0.0612 -0.9869 -0.6397
   48SOL     MW  192   1.065   0.516   0.973 -0.3716  0.4893  0.3162
   49SOL     OW  193   1.811   0.724   1.559 -0.5661 -0.3505 -0.2101
   49SOL    HW1  194   1.770   0.683   1.636  1.1968  2.0386 -0.4974
   49SOL    HW2  195   1.885   0.668   1.537  2.0896  0.6892 -0.1929
   49SOL     MW  196   1.816   0.711   1.566  0.0169  0.1019 -0.2457
   50SOL     OW  197   1.267   1.059   0.511  0.3605 -0.2935 -0.5529
   50SOL    HW1  198   1.242   1.116   0.587  2.6867  2.6474  1.8070
   50SOL    HW2  199   1.333   1.000   0.545  1.4299 -0.6176  0.5648
   50SOL     MW  200   1.272   1.059   0.525  0.8085  0.0517 -0.0941
   51SOL     OW  201   0.309   2.891   0.916  0.7418 -0.1869 -0.2605
   51SOL    HW1  202   0.388   2.837   0.926 -2.4205  1.5406  2.5149
   51SOL    HW2  203   0.301   2.941   1.001  2.5305 -0.7611 -0.4641
   51SOL     MW  204   0.318   2.890   0.928  0.5606 -0.0347  0.0788
   52SOL     OW  205   0.796   1.802   0.473 -0.1316  0.1532 -0.4184
   52SOL    HW1  206   0.765   1.892   0.493 -1.3441 -1.7632  0.2490
   52SOL    HW2  207   0.729   1.779   0.408  0.3533 -3.1558  1.0945
   52SOL     MW  208   0.783   1.811   0.467 -0.2276 -0.5363 -0.1307
   53SOL     OW  209   0.452   2.115   0.564 -0.0838  0.0849 -0.9266
   53SOL    HW1  210   0.386   2.093   0.496  1.3105 -0.7072 -0.4040
   53SOL    HW2  211   0.447   2.210   0.561  1.6220  0.3678  0.2497
   53SOL     MW  212   0.442   2.124   0.554  0.3252  0.0177 -0.7024
   54SOL     OW  213   2.043   0.943   0.804 -0.5321  0.1160 -0.4434
   54SOL    HW1  214   2.090   0.945   0.721 -1.4545 -1.8314 -0.1764
   54SOL    HW2  215   1.980   0.871   0.800 -3.1859  1.8938  0.7066
   54SOL     MW  216   2.040   0.934   0.793 -1.0039  0.0936 -0.2564
   55SOL     OW  217   0.526   1.558   1.630 -0.2761  0.4679 -0.4793
   55SOL    HW1  218   0.473   1.616   1.573  2.9682 -0.0009 -1.8856
   55SOL    HW2  219   0.564   1.493   1.574  0.0088  0.4862 -0.9227
   55SOL     MW  220   0.524   1.557   1.615  0.1896  0.4085 -0.7234
   56SOL     OW  221   0.596   0.786   0.117  0.4288 -0.0997  0.8024
   56SOL    HW1  222   0.630   0.872   0.097  2.4181  0.4974  0.0295
   56SOL    HW2  223   0.513   0.781   0.064 -0.9400 -0.0071  0.6104
   56SOL     MW  224   0.589   0.797   0.108  0.5106 -0.0087  0.6751
   57SOL     OW  225   1.166   1.266   1.118  0.2241  0.6286  0.4938
   57SOL    HW1  226   1.260   1.283   1.087  0.4317  1.6259  0.7830
   57SOL    HW2  227   1.167   1.221   1.198 -1.4466  1.3922 -1.5345
   57SOL     MW  228   1.178   1.263   1.124  0.0311  0.8610  0.2643
   58SOL     OW  229   0.559   1.167   1.337  0.5040 -0.0370  0.4881
   58SOL    HW1  230   0.490   1.231   1.304 -0.2969 -0.3100  0.1797
   58SOL    HW2  231   0.572   1.182   1.427  1.3587  0.0971 -0.4534
   58SOL     MW  232   0.552   1.177   1.345  0.5111 -0.0553  0.3232
   59SOL     OW  233   1.552   1.713   0.355 -0.2419  0.1416  0.1180
   59SOL    HW1  234   1.585   1.779   0.419  0.4276  0.3607  1.6070
   59SOL    HW2  235   1.458   1.707   0.370  2.9994 -0.1986  0.8839
   59SOL     MW  236   1.544   1.721   0.366  0.2741  0.1256  0.4155
   60SOL     OW  237   0.065   0.214   1.578  0.2123  0.0533  0.2477
   60SOL    HW1  238  -0.025   0.236   1.589  3.5284  0.9973 -2.4755
   60SOL    HW2  239   0.079   0.142   1.644  2.1202 -2.7018 -0.0547
   60SOL     MW  240   0.055   0.208   1.588  0.9016 -0.1856 -0.1515
   61SOL     OW  241   2.043   1.497   3.085  0.2420 -0.3458  0.0555
   61SOL    HW1  242   2.044   1.476   3.182 -3.8796  0.2931  0.5510
   61SOL    HW2  243   2.120   1.441   3.060  1.7586  1.3277  0.2940
   61SOL     MW  244   2.053   1.487   3.095 -0.1017 -0.0407  0.1523
   62SOL     OW  245   0.581   1.732   0.622 -0.8726 -0.3857 -0.1338
   62SOL    HW1  246   0.669   1.750   0.575  1.4804  2.0430 -1.9603
   62SOL    HW2  247   0.584   1.639   0.629 -0.2941  0.1400 -1.0011
   62SOL     MW  248   0.593   1.722   0.617 -0.4858  0.0041 -0.4892
   63SOL     OW  249   1.708   0.686   0.708 -0.2511  0.0981 -0.8210
   63SOL    HW1  250   1.722   0.772   0.662 -1.0625  0.6565 -0.0018
   63SOL    HW2  251   1.612   0.684   0.711 -0.5089 -0.6573 -0.8279
   63SOL     MW  252   1.697   0.697   0.702 -0.3921  0.0721 -0.7138
   64SOL     OW  253   0.173   1.695   0.817  0.4520 -0.1380  0.3221
   64SOL    HW1  254   0.254   1.752   0.807  0.2143 -0.4627  2.4026
   64SOL    HW2  255   0.097   1.760   0.821 -0.1394 -2.3406 -0.4125
   64SOL     MW  256   0.174   1.711   0.816  0.3426 -0.4715  0.4997
   65SOL     OW  257   1.597   2.292   0.391  0.3935 -0.0726  0.3226
   65SOL    HW1  258   1.646   2.247   0.456  2.9115  2.7693  0.9506
   65SOL    HW2  259   1.555   2.365   0.437 -0.9623  0.5950  0.9707
   65SOL     MW  260   1.598   2.296   0.405  0.5468  0.3904  0.4909
   66SOL     OW  261   0.276   0.517   0.541 -0.3013  0.4007  0.7139
   66SOL    HW1  262   0.344   0.484   0.473 -0.2565  0.9198 -0.9129
   66SOL    HW2  263   0.262   0.603   0.509  0.2736  1.3450  0.6961
   66SOL     MW  264   0.283   0.524   0.528 -0.2196  0.5938  0.4969
   67SOL     OW  265   1.548   0.062   2.039 -0.2797  0.1991 -0.4373
   67SOL    HW1  266   1.614   0.050   1.972 -0.4404  0.5897  1.9650
   67SOL    HW2  267   1.528  -0.031   2.069 -1.1992 -0.2226  2.1087
   67SOL     MW  268   1.554   0.048   2.034 -0.4222  0.1950  0.2156
   68SOL     OW  269   0.729   0.069   2.919  0.3908 -0.2796 -0.0776
   68SOL    HW1  270   0.738   0.142   2.856 -1.1902  0.4882  0.1339
   68SOL    HW2  271   0.790   0.090   2.989 -0.8025  1.4949 -2.7306
   68SOL     MW  272   0.738   0.081   2.920  0.0248  0.0558 -0.3997
   69SOL     OW  273   1.046   0.239   1.976  0.5319 -0.5531 -0.3860
   69SOL    HW1  274   1.136   0.252   2.000 -1.1413  0.6872 -0.6775
   69SOL    HW2  275   1.035   0.154   2.021 -1.2883 -2.2690  1.6047
   69SOL     MW  276   1.056   0.229   1.985  0.0710 -0.6159 -0.1618
   70SOL     OW  277   0.541   1.739   1.127  0.4768  0.0826 -0.3051
   70SOL    HW1  278   0.562   1.750   1.222 -1.8720 -0.0192  0.6740
   70SOL    HW2  279   0.619   1.756   1.079  0.2212 -0.2435 -0.2298
   70SOL     MW  280   0.554   1.742   1.133  0.1332  0.0261 -0.1660
   71SOL     OW  281   1.583   0.494   1.243  0.0141 -0.3145 -0.0320
   71SOL    HW1  282   1.552   0.565   1.298  1.9701  0.2850  0.8047
   71SOL    HW2  283   1.574   0.531   1.156  0.2696  0.0062 -0.2755
   71SOL     MW  284   1.577   0.508   1.239  0.3059 -0.1931  0.0462
   72SOL     OW  285   0.749   1.843   0.955 -0.3613 -0.2823 -0.1354
   72SOL    HW1  286   0.742   1.889   0.869  0.5557  0.4297 -0.4050
   72SOL    HW2  287   0.753   1.744   0.941  1.7562 -3.6891  1.8142
   72SOL     MW  288   0.749   1.836   0.942  0.0391 -0.6378  0.0863
   73SOL     OW  289   1.196   0.708   1.269  0.5938 -0.5358 -0.2361
   73SOL    HW1  290   1.131   0.643   1.294  1.0164 -0.1040 -0.3272
   73SOL    HW2  291   1.164   0.795   1.302 -1.3302  0.3253 -0.6569
   73SOL     MW  292   1.183   0.711   1.276  0.3957 -0.3652 -0.3037
   74SOL     OW  293   2.708   0.137   0.966 -0.2799  0.1936 -0.1637
   74SOL    HW1  294   2.781   0.132   0.908  1.6811  1.3609 -0.1776
   74SOL    HW2  295   2.683   0.229   0.951 -0.4833 -1.2211 -0.0255
   74SOL     MW  296   2.715   0.149   0.957 -0.0480  0.1609 -0.1473
   75SOL     OW  297   1.615   1.385   0.107  0.4712  0.7916  0.2120
   75SOL    HW1  298   1.658   1.471   0.099 -0.5313  1.8835 -0.9228
   75SOL    HW2  299   1.671   1.338   0.170 -1.0513  1.2712 -1.6263
   75SOL     MW  300   1.628   1.390   0.114  0.1380  0.9990 -0.1803
   76SOL     OW  301   2.987   0.568   0.481 -0.6769 -0.4016 -0.0637
   76SOL    HW1  302   3.036   0.620   0.544  0.6545 -0.9920  0.0121
   76SOL    HW2  303   3.053   0.538   0.411 -0.2554 -2.7190 -0.4118
   76SOL     MW  304   3.002   0.571   0.480 -0.4456 -0.7853 -0.0996
   77SOL     OW  305   0.813   0.536   0.473  0.0058  0.4066  0.2524
   77SOL    HW1  306   0.790   0.556   0.379  0.9736  0.2502 -1.0371
   77SOL    HW2  307   0.754   0.466   0.497  0.7668  2.8398  0.3863
   77SOL     MW  308   0.802   0.530   0.464  0.2339  0.7070  0.1000
   78SOL     OW  309   0.727   0.900   1.295  0.1357 -0.2648 -0.3867
   78SOL    HW1  310   0.681   0.984   1.294 -1.5540  1.3730 -1.2724
   78SOL    HW2  311   0.676   0.836   1.240  1.2168 -1.1534 -1.1022
   78SOL     MW  312   0.714   0.903   1.288  0.0554 -0.1659 -0.5980
   79SOL     OW  313   1.964   1.684   0.595 -0.1327 -0.0258  0.2114
   79SOL    HW1  314   1.882   1.643   0.563  0.3007  0.7535 -1.7387
   79SOL    HW2  315   1.957   1.665   0.692  1.8107  0.1390  0.1827
   79SOL     MW  316   1.952   1.676   0.604  0.1809  0.0987 -0.0497
   80SOL     OW  317   0.083   0.944   0.331  0.1531  0.2773 -0.2500
   80SOL    HW1  318  -0.005   0.909   0.364  0.0506  0.0922  0.1277
   80SOL    HW2  319   0.151   0.886   0.367  1.9566  0.6727  0.7287
   80SOL     MW  320   0.081   0.931   0.340  0.3775  0.3051 -0.0710
   81SOL     OW  321   1.917   1.881   0.276 -0.5915 -0.6316  0.1394
   81SOL    HW1  322   1.881   1.795   0.246  1.6656 -1.5743 -2.0386
   81SOL    HW2  323   1.846   1.942   0.253 -2.4387  2.2279  0.4817
   81SOL     MW  324   1.903   1.878   0.269 -0.5374 -0.3787 -0.1028
   82SOL     OW  325   0.786   1.012   0.554 -0.5710  0.0441  0.4642
   82SOL    HW1  326   0.807   1.014   0.453  0.4228  0.8317  0.8075
   82SOL    HW2  327   0.769   0.923   0.578  0.1235  0.0470 -1.5300
   82SOL     MW  328   0.787   1.001   0.544 -0.3482  0.1484  0.2464
   83SOL     OW  329   0.063   0.641   1.455 -0.1351 -0.2188 -0.3739
   83SOL    HW1  330   0.109   0.696   1.384  0.3105 -2.0398 -0.2260
   83SOL    HW2  331   0.140   0.604   1.501 -0.1220 -1.6392  1.1426
   83SOL     MW  332   0.079   0.643   1.451 -0.0746 -0.6464 -0.1543
   84SOL     OW  333   0.116   0.245   1.024 -0.4384 -0.5586  0.3774
   84SOL    HW1  334   0.023   0.274   1.017  2.0163 -0.4912  0.1330
   84SOL    HW2  335   0.120   0.184   1.097  0.3494  0.7552  1.0667
   84SOL     MW  336   0.104   0.241   1.033 -0.0105 -0.3764  0.4361
   85SOL     OW  337   0.470   0.444   0.732  0.4156 -0.1889  0.6393
   85SOL    HW1  338   0.400   0.472   0.673 -1.8886  1.0550 -0.2129
   85SOL    HW2  339   0.445   0.357   0.773 -1.0571 -0.4637  1.7207
   85SOL     MW  340   0.458   0.436   0.730 -0.0827 -0.0611  0.6695
   86SOL     OW  341   1.171   0.262   1.133  0.1782 -0.2989  0.3200
   86SOL    HW1  342   1.137   0.341   1.093 -1.3380  0.9432 -0.5939
   86SOL    HW2  343   1.200   0.280   1.223  3.1365  1.4305 -1.3744
   86SOL     MW  344   1.170   0.275   1.140  0.3685  0.0932 -0.0241
   87SOL     OW  345   1.277   1.474   1.319  0.2237  0.0300 -0.6952
   87SOL    HW1  346   1.282   1.533   1.244  1.7836  1.1901 -0.5276
   87SOL    HW2  347   1.245   1.394   1.280  0.2757  1.1707  0.8323
   87SOL     MW  348   1.273   1.471   1.304  0.4364  0.3335 -0.4716
   88SOL     OW  349   1.184   1.028   0.982 -0.1040  0.3511  0.0418
   88SOL    HW1  350   1.279   1.020   0.988 -0.4326  2.6511  0.2925
   88SOL    HW2  351   1.172   1.107   1.038 -0.9680 -2.7734  0.0468
   88SOL     MW  352   1.195   1.038   0.990 -0.2613  0.2423  0.0756
   89SOL     OW  353   1.754   0.709   0.362 -0.3344  0.2488 -0.1456
   89SOL    HW1  354   1.748   0.614   0.393 -0.0201 -0.3472 -1.1579
   89SOL    HW2  355   1.818   0.714   0.291 -1.4598  3.6427 -1.8186
   89SOL     MW  356   1.762   0.697   0.357 -0.4414  0.6179 -0.4999
   90SOL     OW  357   0.750   1.138   2.731  0.6991 -0.4176 -0.0212
   90SOL    HW1  358   0.820   1.080   2.746  0.3181 -3.0741  1.3098
   90SOL    HW2  359   0.752   1.198   2.798  1.2878  3.4833 -1.9524
   90SOL     MW  360   0.759   1.138   2.742  0.7265 -0.2534 -0.1004
   91SOL     OW  361   2.195   0.670   0.434  0.5110 -0.0529  0.0473
   91SOL    HW1  362   2.273   0.701   0.388  0.3660  0.6386  1.4072
   91SOL    HW2  363   2.195   0.577   0.418  2.4771 -0.0254 -0.4794
   91SOL     MW  364   2.205   0.662   0.426  0.7513  0.0420  0.1573
   92SOL     OW  365   1.719   0.900   0.559  0.1039 -0.0360  0.4734
   92SOL    HW1  366   1.625   0.929   0.577  0.5964 -3.6048  0.9954
   92SOL    HW2  367   1.724   0.841   0.484 -1.8084  1.5994  2.1660
   92SOL     MW  368   1.707   0.896   0.551 -0.0834 -0.2911  0.7656
   93SOL     OW  369   0.973   0.238   0.395  0.4028  0.1557  0.2112
   93SOL    HW1  370   0.904   0.293   0.433 -1.4091 -1.5734  1.2887
   93SOL    HW2  371   0.996   0.271   0.308  1.5842 -1.1534  0.1450
   93SOL     MW  372   0.967   0.250   0.389  0.3196 -0.2452  0.3446
   94SOL     OW  373   1.821   1.423   1.644  0.3924 -0.3290 -0.4040
   94SOL    HW1  374   1.863   1.402   1.562  0.8634 -1.7171 -2.8524
   94SOL    HW2  375   1.793   1.340   1.689 -0.0228 -0.5965  2.7322
   94SOL     MW  376   1.823   1.409   1.639  0.3997 -0.5474 -0.3133
   95SOL     OW  377   0.743   1.579   0.918  0.4965  0.6954  0.4942
   95SOL    HW1  378   0.807   1.520   0.955  0.8727 -0.0215 -3.2233
   95SOL    HW2  379   0.654   1.539   0.925  0.2703 -0.1016 -1.0658
   95SOL     MW  380   0.740   1.566   0.924  0.5163  0.4956 -0.2021
   96SOL     OW  381   1.276   1.866   1.656  0.1635 -0.3192 -0.6313
   96SOL    HW1  382   1.176   1.869   1.651 -1.7002  0.1704 -1.8020
   96SOL    HW2  383   1.288   1.781   1.634 -2.5608  2.7563  1.4415
   96SOL     MW  384   1.264   1.855   1.653 -0.4419  0.1512 -0.5123
   97SOL     OW  385   1.258   1.451   0.743 -0.4760  0.5748  0.5148
   97SOL    HW1  386   1.282   1.495   0.825  2.1960  1.6574  0.5392
   97SOL    HW2  387   1.171   1.486   0.718 -0.5633  1.1176 -1.0611
   97SOL     MW  388   1.250   1.462   0.751 -0.1350  0.7893  0.3101
   98SOL     OW  389   1.432   1.275   1.043 -0.6483 -0.7187  0.1656
   98SOL    HW1  390   1.461   1.369   1.067 -1.4972 -0.1363  0.1011
   98SOL    HW2  391   1.471   1.257   0.956 -1.3011  1.7780 -0.7279
   98SOL     MW  392   1.441   1.285   1.035 -0.8465 -0.3125  0.0392
   99SOL     OW  393   1.340   0.339   1.345 -0.6362 -0.5085  0.0868
   99SOL    HW1  394   1.405   0.365   1.281 -1.1303  1.1661  3.4144
   99SOL    HW2  395   1.390   0.329   1.423  0.8468 -0.1940 -0.3995
   99SOL     MW  396   1.355   0.341   1.347 -0.5057 -0.2460  0.4617
  100SOL     OW  397   1.004   1.179   1.447 -0.3094 -0.1865  0.2617
  100SOL    HW1  398   1.038   1.227   1.527 -0.5802  0.3478 -0.0141
  100SOL    HW2  399   1.019   1.089   1.474  3.4123  1.9180  0.8112
  100SOL     MW  400   1.011   1.174   1.461  0.1459  0.1617  0.2978
  101SOL     OW  401   0.484   1.106   0.352  0.2668  0.4525  0.6692
  101SOL    HW1  402   0.473   1.011   0.352 -1.6791 -1.6803  1.0774
  101SOL    HW2  403   0.461   1.127   0.260 -2.7387  1.1557 -1.8449
  101SOL     MW  404   0.480   1.096   0.340 -0.3865  0.2638  0.3914
  102SOL     OW  405   2.928   0.648   1.080 -0.3188  0.2258 -0.3337
  102SOL    HW1  406   3.000   0.713   1.075  0.3795 -2.3581  1.6142
  102SOL    HW2  407   2.929   0.611   1.168  1.6543  0.8801 -1.7701
  102SOL     MW  408   2.938   0.652   1.091  0.0337 -0.0288 -0.2662
  103SOL     OW  409   1.785   0.288   1.802 -1.0851  1.0467  0.7043
  103SOL    HW1  410   1.725   0.215   1.762 -0.7714  2.4207  0.6753
  103SOL    HW2  411   1.800   0.268   1.890  0.9171  0.2933 -2.4315
  103SOL     MW  412   1.779   0.276   1.808 -0.7795  1.1286  0.2867
  104SOL     OW  413   0.132   1.620   1.488  0.6145 -0.4967  0.2259
  104SOL    HW1  414   0.124   1.637   1.583  3.9105 -3.4155 -2.3162
  104SOL    HW2  415   0.054   1.570   1.454 -3.4586 -1.6637 -2.2332
  104SOL     MW  416   0.120   1.616   1.496  0.5120 -1.0358 -0.4340
  105SOL     OW  417   0.027   1.218   0.433  0.6011  0.3842  0.0019
  105SOL    HW1  418   0.051   1.124   0.410  0.9314 -1.9949  0.9035
  105SOL    HW2  419   0.116   1.249   0.460 -1.0681  1.3825 -0.7038
  105SOL     MW  420   0.042   1.210   0.433  0.4245  0.2020  0.0277
  106SOL     OW  421   0.857   0.356   0.992  0.1280 -0.2172 -0.3871
  106SOL    HW1  422   0.785   0.406   0.950  0.5900 -0.8098 -1.7702
  106SOL    HW2  423   0.897   0.302   0.921  0.8964  0.1614  0.5177
  106SOL     MW  424   0.853   0.355   0.977  0.2904 -0.2454 -0.4502
  107SOL     OW  425   0.799   2.177   2.992  0.1798  0.4298 -0.1521
  107SOL    HW1  426   0.724   2.149   2.937  0.1756  2.2189 -1.4031
  107SOL    HW2  427   0.797   2.129   3.078 -2.0072 -1.3157  0.3170
  107SOL     MW  428   0.789   2.167   2.996 -0.1093  0.4356 -0.2552
  108SOL     OW  429   1.323   1.598   1.641 -0.0010  0.8822  0.3396
  108SOL    HW1  430   1.281   1.524   1.588  1.0011  1.7982  1.1280
  108SOL    HW2  431   1.411   1.560   1.635 -0.4283  3.0153 -0.8194
  108SOL     MW  432   1.329   1.583   1.633  0.0748  1.2845  0.2907
  109SOL     OW  433   1.961   0.789   0.191 -0.0185  0.3279  0.8844
  109SOL    HW1  434   1.903   0.867   0.195 -0.6053  0.7932  0.2092
  109SOL    HW2  435   2.037   0.804   0.248  0.2225  1.6424  2.9419
  109SOL     MW  436   1.964   0.801   0.199 -0.0641  0.5627  1.0668
  110SOL     OW  437   0.371   1.891   0.705 -0.4611 -0.7255 -0.7887
  110SOL    HW1  438   0.438   1.822   0.694  0.5258 -1.9041  0.1369
  110SOL    HW2  439   0.408   1.962   0.650 -2.4181 -0.5985 -2.7841
  110SOL     MW  440   0.385   1.891   0.696 -0.5891 -0.8643 -0.9298
  111SOL     OW  441   0.859   0.917   1.541  0.1124 -0.5526  0.1486
  111SOL    HW1  442   0.806   0.916   1.458 -1.7921 -3.1061 -3.0541
  111SOL    HW2  443   0.845   0.828   1.578  0.3590 -0.0993 -0.0238
  111SOL     MW  444   0.850   0.905   1.535 -0.1063 -0.8297 -0.2967
  112SOL     OW  445   1.345   1.114   1.613  0.1844  0.3995  0.0467
  112SOL    HW1  446   1.277   1.177   1.648 -0.1935  0.4327  2.9235
  112SOL    HW2  447   1.322   1.024   1.635 -2.0996  0.0806  0.6553
  112SOL     MW  448   1.333   1.111   1.620 -0.1669  0.3618  0.5066
  113SOL     OW  449   1.289   0.013   1.716  0.1580 -0.6903 -0.0511
  113SOL    HW1  450   1.278  -0.040   1.797 -2.2323 -0.2884  1.0166
  113SOL    HW2  451   1.259  -0.025   1.634 -0.4358 -0.6510 -2.3919
  113SOL     MW  452   1.284   0.001   1.716 -0.2357 -0.6321 -0.2191
  114SOL     OW  453   0.272   2.860   1.947  0.4258  0.1773  0.1317
  114SOL    HW1  454   0.346   2.907   1.986  3.0511  0.5678  1.7100
  114SOL    HW2  455   0.284   2.866   1.849  2.8022  1.8054  1.8682
  114SOL     MW  456   0.284   2.867   1.939  1.0857  0.4437  0.5690
  115SOL     OW  457   0.494   0.853   1.105  0.2671  0.3868 -0.0740
  115SOL    HW1  458   0.528   0.762   1.100 -0.7982  0.3211  1.8659
  115SOL    HW2  459   0.465   0.866   1.196 -2.6189  1.2068  2.0352
  115SOL     MW  460   0.495   0.843   1.116 -0.2543  0.4863  0.4603
  116SOL     OW  461   0.781   1.082   0.928  0.2743  0.5977 -0.3118
  116SOL    HW1  462   0.828   1.125   0.854  0.5834  0.0012 -1.2443
  116SOL    HW2  463   0.831   1.093   1.016 -1.4583 -0.7950  2.2970
  116SOL     MW  464   0.794   1.089   0.930  0.0865  0.3352 -0.0907
  117SOL     OW  465   1.172   1.176   0.743  0.0814 -0.1543 -0.4819
  117SOL    HW1  466   1.180   1.131   0.829  2.0714 -1.1964 -0.8175
  117SOL    HW2  467   1.198   1.264   0.759 -1.0377 -2.3203  1.2697
  117SOL     MW  468   1.176   1.182   0.757  0.1963 -0.5776 -0.2951
  118SOL     OW  469   3.056   2.979   1.721  0.0341 -0.1172 -0.5199
  118SOL    HW1  470   3.096   3.051   1.776  1.9534 -2.2368  1.5075
  118SOL    HW2  471   2.965   3.003   1.694 -1.0333  0.8450 -0.9043
  118SOL     MW  472   3.050   2.992   1.725  0.1465 -0.2699 -0.3032
  119SOL     OW  473   0.431   1.481   1.277 -0.2657  0.4468  0.8213
  119SOL    HW1  474   0.466   1.524   1.197 -1.4421  0.2735 -0.1339
  119SOL    HW2  475   0.336   1.459   1.262 -0.1607  1.4617 -2.2058
  119SOL     MW  476   0.423   1.484   1.264 -0.4070  0.5578  0.2959
  120SOL     OW  477   0.250   0.692   0.983  0.1613 -0.0230  0.5183
  120SOL    HW1  478   0.240   0.643   1.065  0.4419  1.0308  1.8134
  120SOL    HW2  479   0.294   0.776   1.008  1.9096 -0.5217 -0.4146
  120SOL     MW  480   0.254   0.697   0.997  0.4290  0.0503  0.5661
  121SOL     OW  481   1.720   1.187   1.733 -0.2184 -0.6367 -0.0871
  121SOL    HW1  482   1.657   1.130   1.781 -1.5563 -3.6959  2.4729
  121SOL    HW2  483   1.748   1.124   1.666 -2.2804 -0.0988  1.6679
  121SOL     MW  484   1.716   1.171   1.730 -0.6670 -0.9694  0.4822
  122SOL     OW  485   0.137   0.552   0.786 -0.0254  0.2167 -0.7624
  122SOL    HW1  486   0.194   0.522   0.716 -0.1099  0.1503 -0.4409
  122SOL    HW2  487   0.190   0.616   0.843 -0.9599  0.4513 -1.8775
  122SOL     MW  488   0.151   0.556   0.784 -0.1598  0.2389 -0.8671
  123SOL     OW  489   1.887   1.131   0.508  0.4986  0.2917 -0.6017
  123SOL    HW1  490   1.845   1.055   0.547  1.3707 -1.0938 -0.1546
  123SOL    HW2  491   1.940   1.172   0.572 -1.9319  1.4571  0.9619
  123SOL     MW  492   1.889   1.126   0.522  0.2930  0.2627 -0.3364
  124SOL     OW  493   0.685   0.540   0.873 -0.1664  0.3877  0.8146
  124SOL    HW1  494   0.607   0.497   0.823 -0.0040  0.1285 -0.2240
  124SOL    HW2  495   0.682   0.634   0.859 -0.4053  0.4137  0.9551
  124SOL     MW  496   0.675   0.547   0.865 -0.1765  0.3569  0.6961
  125SOL     OW  497   0.662   1.787   1.708 -0.3478 -0.5264 -0.5952
  125SOL    HW1  498   0.616   1.704   1.686 -2.5484  3.2370  1.2054
  125SOL    HW2  499   0.616   1.867   1.675 -2.0108  1.6130 -1.4972
  125SOL     MW  500   0.650   1.787   1.701 -0.8576  0.2524 -0.4766
  126SOL     OW  501   2.074   1.594   1.945 -0.2660  0.1756  0.2354
  126SOL    HW1  502   2.140   1.667   1.955  0.5561 -2.0181  1.9622
  126SOL    HW2  503   2.121   1.512   1.948 -2.3735  0.7726 -0.1594
  126SOL     MW  504   2.089   1.593   1.947 -0.4356 -0.0351  0.4111
  127SOL     OW  505   0.687   0.794   1.840 -0.6471  0.1652 -0.0735
  127SOL    HW1  506   0.768   0.738   1.843  0.0551  0.9014  0.1824
  127SOL    HW2  507   0.692   0.856   1.917 -0.5702  1.4525  0.5081
  127SOL     MW  508   0.698   0.795   1.850 -0.5443  0.4322  0.0370
  128SOL     OW  509   1.793   0.718   2.935 -0.2420 -0.2560 -0.1412
  128SOL    HW1  510   1.806   0.686   2.844  0.2723  2.4852 -0.7753
  128SOL    HW2  511   1.749   0.805   2.916 -0.6169  0.5244  0.2674
  128SOL     MW  512   1.789   0.725   2.921 -0.2236  0.2087 -0.1710
  129SOL     OW  513   1.605   0.947   0.185 -0.3785 -0.0989  0.0459
  129SOL    HW1  514   1.573   0.860   0.157  0.0123  2.6336 -0.6532
  129SOL    HW2  515   1.630   0.933   0.274 -1.9653  2.0187 -1.1536
  129SOL     MW  516   1.604   0.934   0.193 -0.5363  0.5410 -0.2046
  130SOL     OW  517   0.760   1.377   0.343  0.3483  0.1888 -0.6669
  130SOL    HW1  518   0.776   1.416   0.430 -1.0208  2.2934  0.9444
  130SOL    HW2  519   0.811   1.421   0.276 -3.5356  1.0581  3.3248
  130SOL     MW  520   0.769   1.388   0.346 -0.3448  0.5812  0.0724
  131SOL     OW  521   3.050   0.812   3.099  0.7732 -0.3702  0.3202
  131SOL    HW1  522   3.043   0.874   3.019  1.5602 -2.2647 -1.2340
  131SOL    HW2  523   3.140   0.775   3.116  0.2025  2.0184  1.0135
  131SOL     MW  524   3.061   0.815   3.091  0.8018 -0.3050  0.2066
  132SOL     OW  525   2.681   0.122   1.254 -0.0441 -0.2909  0.3695
  132SOL    HW1  526   2.714   0.125   1.158  1.1662  1.1577 -0.7934
  132SOL    HW2  527   2.593   0.075   1.255  1.9931 -0.6227  0.3774
  132SOL     MW  528   2.674   0.116   1.241  0.3844 -0.1435  0.2171
  133SOL     OW  529   1.020   0.153   1.726  0.5742  0.6376 -0.1029
  133SOL    HW1  530   1.112   0.132   1.714  0.4520  0.2741 -1.9476
  133SOL    HW2  531   1.017   0.194   1.814  1.2882  1.8409 -1.9241
  133SOL     MW  532   1.032   0.155   1.736  0.6523  0.7484 -0.5866
  134SOL     OW  533   1.361   2.521   1.454 -0.3744 -0.1782 -0.5053
  134SOL    HW1  534   1.313   2.595   1.416 -1.1470  0.9421  1.2614
  134SOL    HW2  535   1.396   2.549   1.541 -0.9449  2.7150  0.2445
  134SOL     MW  536   1.360   2.535   1.460 -0.5516  0.3514 -0.1733
  135SOL     OW  537   3.019   0.966   2.870 -0.0023 -0.1046 -0.4005
  135SOL    HW1  538   3.084   1.025   2.907 -2.4590 -3.1418  0.0336
  135SOL    HW2  539   2.940   1.022   2.861  3.1270  4.3314  0.8743
  135SOL     MW  540   3.017   0.981   2.874  0.0865  0.0800 -0.1750
  136SOL     OW  541   0.183   2.030   0.842 -0.1443  0.0718 -0.2203
  136SOL    HW1  542   0.096   1.997   0.814 -0.0796  0.0411 -1.2056
  136SOL    HW2  543   0.241   1.979   0.788 -1.4154  2.0464 -2.2227
  136SOL     MW  544   0.179   2.019   0.831 -0.3035  0.3283 -0.6145
  137SOL     OW  545   0.705   2.048   0.501 -0.3344 -0.7562 -0.1123
  137SOL    HW1  546   0.724   2.067   0.598  0.6788 -3.9083 -0.7272
  137SOL    HW2  547   0.611   2.072   0.494  5.6675  1.4404 -2.8066
  137SOL     MW  548   0.696   2.053   0.513  0.5912 -0.8823 -0.5489
  138SOL     OW  549   0.552   0.564   1.131 -0.4228  0.0075 -0.3517
  138SOL    HW1  550   0.461   0.537   1.126  1.6050  0.2023  0.4156
  138SOL    HW2  551   0.588   0.565   1.041 -0.4312  0.8097  1.6250
  138SOL     MW  552   0.544   0.561   1.118 -0.1564  0.1391  0.0103
  139SOL     OW  553   2.783   0.605   1.352  0.2515  0.6280 -0.0338
  139SOL    HW1  554   2.833   0.523   1.379  0.4480 -2.3348  1.0487
  139SOL    HW2  555   2.805   0.670   1.413 -2.2430 -1.3910 -0.1470
  139SOL     MW  556   2.793   0.603   1.363 -0.0517 -0.0293  0.0941
  140SOL     OW  557   0.838   0.388   2.079  0.6613  0.0120 -0.2217
  140SOL    HW1  558   0.898   0.328   2.032 -2.7825 -1.8946  1.6690
  140SOL    HW2  559   0.858   0.370   2.171 -1.4197  1.0744 -1.8973
  140SOL     MW  560   0.849   0.378   2.085 -0.0677 -0.0994 -0.1933
  141SOL     OW  561   1.070   0.662   1.730 -0.0636  0.2643  0.1165
  141SOL    HW1  562   1.095   0.577   1.694 -1.8291 -0.4623  0.6806
  141SOL    HW2  563   1.140   0.724   1.702 -1.2372 -1.0350  0.0896
  141SOL     MW  564   1.082   0.659   1.722 -0.4514 -0.0030  0.1874
  142SOL     OW  565   0.907   1.217   0.718  0.7252 -0.5853  0.2789
  142SOL    HW1  566   0.895   1.150   0.648  2.3196  0.9848 -0.8136
  142SOL    HW2  567   1.003   1.212   0.730 -0.5307  0.7043  1.1651
  142SOL     MW  568   0.918   1.207   0.710  0.7699 -0.2080  0.2517
  143SOL     OW  569   1.809   0.794   1.105 -0.3787  0.7966  0.4556
  143SOL    HW1  570   1.864   0.759   1.037 -0.1294 -1.4499  3.8868
  143SOL    HW2  571   1.719   0.774   1.081 -1.0165  1.3277 -2.8142
  143SOL     MW  572   1.804   0.787   1.093 -0.4300  0.5702  0.4769
  144SOL     OW  573   0.248   1.182   1.591  0.4587  0.3679  0.2346
  144SOL    HW1  574   0.336   1.186   1.556  2.2985  1.1254  1.9834
  144SOL    HW2  575   0.251   1.180   1.688 -0.8921  0.3400  0.6062
  144SOL     MW  576   0.260   1.182   1.599  0.5232  0.4642  0.5143
  145SOL     OW  577   0.218   0.471   1.170 -0.2441  0.0952  0.6227
  145SOL    HW1  578   0.254   0.431   1.253  3.2418 -1.7203  3.7074
  145SOL    HW2  579   0.199   0.402   1.094 -1.0086 -1.5088 -1.7429
  145SOL     MW  580   0.220   0.457   1.171  0.1150 -0.3560  0.7176
  146SOL     OW  581   0.872   1.942   1.340  0.3026  0.4285  0.5270
  146SOL    HW1  582   0.900   1.976   1.251 -1.7126 -2.1316 -0.4658
  146SOL    HW2  583   0.796   1.886   1.315  0.9107  0.7505 -0.3323
  146SOL     MW  584   0.866   1.939   1.325  0.1169  0.1332  0.2826
  147SOL     OW  585   0.430   0.441   2.946  0.3372  0.9246 -0.7253
  147SOL    HW1  586   0.383   0.445   3.030 -1.6108 -1.7496  0.1897
  147SOL    HW2  587   0.374   0.484   2.878  0.2040  1.4746 -0.8320
  147SOL     MW  588   0.417   0.447   2.948  0.0626  0.6443 -0.6186
  148SOL     OW  589   0.139   0.831   1.285 -0.0033  0.3439  0.3134
  148SOL    HW1  590   0.234   0.831   1.314  2.4115 -1.0970  0.2302
  148SOL    HW2  591   0.096   0.893   1.351 -1.2869  1.5260 -0.8372
  148SOL     MW  592   0.146   0.839   1.297  0.1459  0.3097  0.1506
  149SOL     OW  593   1.331   1.126   1.339 -0.8888  0.6690 -0.4169
  149SOL    HW1  594   1.314   1.126   1.436  1.0855  0.3838  0.2740
  149SOL    HW2  595   1.398   1.194   1.334  2.1488 -1.4614  1.9782
  149SOL     MW  596   1.338   1.135   1.351 -0.2275  0.3503 -0.0097
  150SOL     OW  597   1.835   1.344   0.718 -0.2613 -0.2751 -0.3702
  150SOL    HW1  598   1.858   1.286   0.786 -0.7339  1.7754 -0.6830
  150SOL    HW2  599   1.859   1.431   0.750 -0.6397 -1.3695  0.8923
  150SOL     MW  600   1.841   1.348   0.731 -0.3736 -0.1489 -0.2449
  151SOL     OW  601   1.668   1.786   0.801 -0.4884  0.3314  0.1930
  151SOL    HW1  602   1.664   1.823   0.710  0.8968  2.5739  1.5750
  151SOL    HW2  603   1.608   1.706   0.822 -1.5549 -3.7841  0.6549
  151SOL     MW  604   1.660   1.781   0.792 -0.4464  0.0843  0.4363
  152SOL     OW  605   0.749   1.375   1.499  0.2223 -0.4247 -0.1806
  152SOL    HW1  606   0.766   1.286   1.479  0.3588  0.2462  2.0584
  152SOL    HW2  607   0.838   1.406   1.504 -0.3680 -2.1788  0.7602
  152SOL     MW  608   0.763   1.368   1.497  0.1624 -0.5676  0.2390
  153SOL     OW  609   2.622   1.220   0.775  0.1944  0.2967 -0.1423
  153SOL    HW1  610   2.686   1.185   0.708 -2.7364 -0.0977  2.0499
  153SOL    HW2  611   2.567   1.140   0.793  0.3884 -0.4669  1.6233
  153SOL     MW  612   2.623   1.205   0.768 -0.1667  0.1439  0.3799
  154SOL     OW  613   0.242   1.815   1.704 -0.6569 -0.0608 -0.0699
  154SOL    HW1  614   0.317   1.827   1.640 -1.9903 -0.6795 -2.1360
  154SOL    HW2  615   0.277   1.743   1.758 -0.0306  0.0910 -1.8520
  154SOL     MW  616   0.257   1.807   1.702 -0.7502 -0.1224 -0.5776
  155SOL     OW  617   1.228   0.694   0.243 -0.6152 -0.1029 -0.1947
  155SOL    HW1  618   1.206   0.656   0.333 -3.5559  1.0105  2.3888
  155SOL    HW2  619   1.183   0.783   0.241  0.2798  0.7952 -1.0426
  155SOL     MW  620   1.219   0.701   0.254 -0.8851  0.1625  0.0343
  156SOL     OW  621   1.487   3.084   1.127 -0.2788  0.0623 -0.2241
  156SOL    HW1  622   1.580   3.122   1.128  0.4771 -0.1405  0.5924
  156SOL    HW2  623   1.511   2.993   1.148 -0.2437  0.7357  0.9894
  156SOL     MW  624   1.502   3.077   1.130 -0.1744  0.1244  0.0438
  157SOL     OW  625   1.445   1.158   0.097 -0.2393 -0.4537  0.1508
  157SOL    HW1  626   1.504   1.073   0.107  1.8855 -0.8279 -1.8479
  157SOL    HW2  627   1.506   1.237   0.095  1.7412  1.6248  1.4181
  157SOL     MW  628   1.461   1.157   0.098  0.3023 -0.2288  0.0543
  158SOL     OW  629   0.536   1.660   2.215 -0.4345 -0.0026  0.0601
  158SOL    HW1  630   0.512   1.706   2.137  0.3438 -1.2220 -0.0517
  158SOL    HW2  631   0.455   1.638   2.257  2.1096  1.4736  0.5212
  158SOL     MW  632   0.522   1.663   2.210  0.0039  0.0313  0.1062
  159SOL     OW  633   1.287   1.681   0.414  0.5359  0.0713  0.1845
  159SOL    HW1  634   1.259   1.617   0.347 -1.9417  2.2565  0.7553
  159SOL    HW2  635   1.209   1.693   0.469 -0.3391  0.7314  1.6656
  159SOL     MW  636   1.273   1.674   0.412  0.0936  0.4467  0.4553
  160SOL     OW  637   0.551   1.135   1.629 -0.5288 -0.7390  0.0087
  160SOL    HW1  638   0.516   1.046   1.637  0.4219  1.3586 -1.0772
  160SOL    HW2  639   0.625   1.145   1.686 -0.9201 -1.9095  3.0379
  160SOL     MW  640   0.556   1.125   1.637 -0.4550 -0.6167  0.2651
  161SOL     OW  641   0.485   2.238   2.564  0.4572  0.7108  0.0164
  161SOL    HW1  642   0.395   2.244   2.582  2.0396 -1.3585 -0.0982
  161SOL    HW2  643   0.490   2.164   2.504 -0.4481 -2.0321 -1.9614
  161SOL     MW  644   0.474   2.229   2.558  0.5465  0.0759 -0.2597
  162SOL     OW  645   1.061   1.758   1.854 -0.3903 -0.2686  0.6243
  162SOL    HW1  646   1.059   1.844   1.896  3.1128 -0.4168 -0.2858
  162SOL    HW2  647   0.974   1.721   1.872  1.2685 -1.8931 -0.9625
  162SOL     MW  648   1.049   1.765   1.862  0.2908 -0.5025  0.2949
  163SOL     OW  649   2.153   3.103   0.934 -0.2787  0.6473 -0.0334
  163SOL    HW1  650   2.133   3.130   0.846 -1.2338 -1.1436 -0.8750
  163SOL    HW2  651   2.126   3.012   0.928  1.5840 -2.0066 -0.3726
  163SOL     MW  652   2.147   3.095   0.922 -0.1589  0.0608 -0.1892
  164SOL     OW  653   0.357   0.182   0.860 -0.0057  0.0037 -0.5347
  164SOL    HW1  654   0.269   0.206   0.888 -1.4590 -1.1320  1.6031
  164SOL    HW2  655   0.346   0.104   0.808  0.2528  1.2178  1.8091
  164SOL     MW  656   0.344   0.175   0.857 -0.1633  0.0141  0.0566
  165SOL     OW  657   1.340   1.263   0.335  0.1142 -0.2890  0.5528
  165SOL    HW1  658   1.309   1.196   0.400 -0.8332  0.3984  2.8776
  165SOL    HW2  659   1.373   1.216   0.255 -0.0414  0.7658 -1.6267
  165SOL     MW  660   1.341   1.248   0.333 -0.0313 -0.0591  0.5720
  166SOL     OW  661   0.533   1.168   1.044 -0.0692  0.0783 -0.1793
  166SOL    HW1  662   0.517   1.124   1.123 -4.4387  2.4184 -0.0345
  166SOL    HW2  663   0.613   1.143   0.997  0.0947  0.5788  0.2368
  166SOL     MW  664   0.541   1.159   1.048 -0.6241  0.4531 -0.1053
  167SOL     OW  665   0.794   1.011   0.266  0.2389  0.2099  0.1915
  167SOL    HW1  666   0.710   1.042   0.255 -0.2816  0.7044  2.3678
  167SOL    HW2  667   0.838   1.030   0.184  1.5332 -1.2618 -2.0185
  167SOL     MW  668   0.789   1.017   0.254  0.3410  0.0810  0.1871
  168SOL     OW  669   1.716   1.652   3.039 -0.2618 -0.2057 -0.0084
  168SOL    HW1  670   1.639   1.664   2.982 -2.4879 -0.5732  2.3934
  168SOL    HW2  671   1.743   1.566   3.021  0.6847 -1.1656 -1.1078
  168SOL     MW  672   1.709   1.642   3.029 -0.4306 -0.3808  0.1635
  169SOL     OW  673   0.411   0.925   1.354  0.1716  0.1781 -0.3661
  169SOL    HW1  674   0.437   0.872   1.431 -1.2411  3.4753 -1.0798
  169SOL    HW2  675   0.463   1.003   1.345 -1.2255 -0.1700  0.2424
  169SOL     MW  676   0.421   0.928   1.363 -0.1991  0.5672 -0.3799
  170SOL     OW  677   1.028   1.489   1.507  0.2463 -0.1102  0.3187
  170SOL    HW1  678   0.991   1.578   1.528  1.1504  1.7150  1.3064
  170SOL    HW2  679   1.040   1.487   1.414  0.3077 -1.2526 -1.6354
  170SOL     MW  680   1.025   1.501   1.498  0.3736 -0.0201  0.1912
  171SOL     OW  681   0.538   1.458   0.639 -0.6248  0.1030 -0.6616
  171SOL    HW1  682   0.523   1.465   0.732 -2.7218 -1.2165  1.3876
  171SOL    HW2  683   0.523   1.361   0.632  0.3157  1.8513  3.0879
  171SOL     MW  684   0.534   1.446   0.650 -0.7774  0.1596  0.1034
  172SOL     OW  685   0.851   0.321   1.272 -0.3671 -0.0133 -0.1507
  172SOL    HW1  686   0.849   0.345   1.178 -0.0015  0.5193 -2.8342
  172SOL    HW2  687   0.763   0.360   1.299  1.9669  2.2081 -0.3463
  172SOL     MW  688   0.839   0.329   1.263 -0.0109  0.3501 -0.5305
  173SOL     OW  689   0.446   1.723   0.380 -0.5814 -0.1088  0.5963
  173SOL    HW1  690   0.472   1.646   0.330 -0.0870  0.9013  0.3280
  173SOL    HW2  691   0.490   1.700   0.465  0.4632 -4.7456  0.6913
  173SOL     MW  692   0.455   1.710   0.385 -0.3783 -0.5873  0.5734
  174SOL     OW  693   1.815   1.004   1.564  0.1717 -0.0209 -0.2741
  174SOL    HW1  694   1.812   0.906   1.572 -1.4996 -1.4060 -0.9928
  174SOL    HW2  695   1.779   1.020   1.478 -0.3260 -0.9585  1.8415
  174SOL     MW  696   1.810   0.993   1.554 -0.1144 -0.3273 -0.0898
  175SOL     OW  697   0.526   1.476   0.261 -0.1755 -0.0829 -0.4814
  175SOL    HW1  698   0.486   1.404   0.215  1.5737  1.0150  2.9731
  175SOL    HW2  699   0.607   1.434   0.293 -0.7076 -0.2642  1.4764
  175SOL     MW  700   0.532   1.461   0.259 -0.0149  0.0381  0.2327
  176SOL     OW  701   0.173   1.471   1.225  0.1415  0.5475  0.4215
  176SOL    HW1  702   0.157   1.407   1.158  0.5638  0.8364 -0.0344
  176SOL    HW2  703   0.076   1.502   1.240 -1.1213 -1.6759  0.9667
  176SOL     MW  704   0.158   1.467   1.218  0.0306  0.2923  0.4333
  177SOL     OW  705   0.622   0.439   1.372  0.1854 -0.3425  0.0371
  177SOL    HW1  706   0.592   0.506   1.309  0.1615 -1.3954  0.3244
  177SOL    HW2  707   0.617   0.475   1.467  1.8099 -1.1170  1.5125
  177SOL     MW  708   0.617   0.453   1.376  0.3966 -0.5836  0.2697
  178SOL     OW  709   3.068   0.499   2.953  0.1326  0.5028  0.1668
  178SOL    HW1  710   2.995   0.539   3.002 -0.0219 -1.4076  0.4346
  178SOL    HW2  711   3.015   0.470   2.874 -0.4059  0.5772 -0.6501
  178SOL     MW  712   3.052   0.500   2.949  0.0412  0.2606  0.0943
  179SOL     OW  713   1.589   1.335   1.358 -0.0974 -0.1715 -0.1919
  179SOL    HW1  714   1.552   1.382   1.437 -0.0847  0.6231 -0.6918
  179SOL    HW2  715   1.687   1.347   1.357  0.5758 -0.8437  0.5770
  179SOL     MW  716   1.597   1.343   1.368 -0.0069 -0.1554 -0.1564
  180SOL     OW  717   3.065   0.198   0.435 -0.7448  0.2666 -0.3250
  180SOL    HW1  718   3.002   0.195   0.357 -1.5714 -2.3661  1.1456
  180SOL    HW2  719   3.124   0.276   0.426 -0.4590  0.0703  0.1388
  180SOL     MW  720   3.064   0.208   0.423 -0.8161 -0.1067 -0.0698
  181SOL     OW  721   1.121   1.311   3.084 -0.0864 -0.1340  0.1374
  181SOL    HW1  722   1.149   1.398   3.115 -2.6189 -3.1455 -0.1274
  181SOL    HW2  723   1.200   1.261   3.050  0.5649 -1.5169  0.8932
  181SOL     MW  724   1.135   1.316   3.084 -0.3346 -0.7138  0.2022
  182SOL     OW  725   0.456   0.885   1.642 -0.1066  0.6319 -0.5344
  182SOL    HW1  726   0.367   0.879   1.683  2.4514 -1.1994  1.4478
  182SOL    HW2  727   0.510   0.852   1.711  0.7373 -0.5369 -0.5832
  182SOL     MW  728   0.451   0.880   1.656  0.3422  0.2361 -0.2793
  183SOL     OW  729   1.588   1.512   1.143  0.1249  0.3325 -0.4357
  183SOL    HW1  730   1.551   1.593   1.173 -0.1067  0.9814 -0.4236
  183SOL    HW2  731   1.599   1.457   1.226  0.6854  0.2244 -1.0102
  183SOL     MW  732   1.585   1.516   1.158  0.1683  0.4038 -0.5099
  184SOL     OW  733   0.905   0.637   1.956 -0.5027  0.1781 -0.3178
  184SOL    HW1  734   0.984   0.633   1.907  0.6762  1.6458  2.1839
  184SOL    HW2  735   0.901   0.555   2.008 -1.1978  0.8604  2.2703
  184SOL     MW  736   0.915   0.626   1.956 -0.4388  0.4618  0.3538
  185SOL     OW  737   1.239   1.017   1.935 -0.3810 -0.2320 -0.0501
  185SOL    HW1  738   1.225   0.934   1.986 -1.8003 -1.2720  1.5133
  185SOL    HW2  739   1.275   1.087   1.993 -2.4830 -3.3463  1.3146
  185SOL     MW  740   1.242   1.015   1.950 -0.8456 -0.7801  0.3363
  186SOL     OW  741   0.377   1.692   1.440  0.2465  0.2494  0.3640
  186SOL    HW1  742   0.404   1.628   1.373 -1.4320  0.1464 -2.4161
  186SOL    HW2  743   0.283   1.664   1.460  0.6542  2.4047  2.1992
  186SOL     MW  744   0.368   1.680   1.434  0.0788  0.5202  0.2393
  187SOL     OW  745   1.436   0.700   1.401 -0.2829 -0.1170 -0.3541
  187SOL    HW1  746   1.434   0.666   1.489  1.0114 -1.2098 -0.5277
  187SOL    HW2  747   1.354   0.681   1.357 -0.1115 -1.0158 -1.3228
  187SOL     MW  748   1.425   0.693   1.407 -0.0895 -0.3797 -0.5048
  188SOL     OW  749   1.900   1.159   0.912  0.3019 -0.1761  0.9194
  188SOL    HW1  750   1.901   1.166   1.016 -2.9642 -0.3656  1.3015
  188SOL    HW2  751   1.948   1.076   0.891 -0.7476 -2.1796  2.4305
  188SOL     MW  752   1.906   1.149   0.923 -0.2675 -0.4655  1.1692
  189SOL     OW  753   0.654   0.823   0.853  0.0464 -0.3209 -0.9158
  189SOL    HW1  754   0.579   0.879   0.855 -1.0508 -1.0640  3.0866
  189SOL    HW2  755   0.730   0.883   0.866  2.1712  0.3789  0.2769
  189SOL     MW  756   0.655   0.838   0.855  0.1820 -0.3266 -0.2304
  190SOL     OW  757   1.874   0.265   2.132  0.6768 -0.7748  0.4427
  190SOL    HW1  758   1.928   0.221   2.196  1.7584  2.3367 -0.2183
  190SOL    HW2  759   1.936   0.328   2.087 -0.5096  1.0037 -0.5811
  190SOL     MW  760   1.889   0.268   2.135  0.6630 -0.1296  0.2204
  191SOL     OW  761   1.515   0.933   1.239 -0.2890 -0.0391  0.0596
  191SOL    HW1  762   1.448   1.002   1.265  0.7021  1.5946  0.2110
  191SOL    HW2  763   1.506   0.856   1.299  0.1601  0.1402 -1.6467
  191SOL     MW  764   1.505   0.932   1.250 -0.0990  0.2001 -0.1456
  192SOL     OW  765   0.606   2.099   2.799  0.1128  0.2993 -0.2633
  192SOL    HW1  766   0.598   2.156   2.724  0.3234  0.2571  2.0951
  192SOL    HW2  767   0.599   2.008   2.769 -2.2843 -2.3959 -1.4941
  192SOL     MW  768   0.604   2.095   2.785 -0.1757 -0.0619 -0.1145
  193SOL     OW  769   0.996   1.570   0.738 -0.0731 -0.2655 -0.5591
  193SOL    HW1  770   0.945   1.588   0.826 -0.5847  0.4556  1.5978
  193SOL    HW2  771   0.924   1.535   0.680  0.2722 -0.2609 -1.4494
  193SOL     MW  772   0.980   1.568   0.742 -0.0951 -0.1698 -0.3920
  194SOL     OW  773   0.513   1.438   0.942 -0.2419  0.5211 -0.1165
  194SOL    HW1  774   0.538   1.351   0.977  1.1171 -0.5996 -0.8487
  194SOL    HW2  775   0.420   1.426   0.909  2.6793 -1.3172 -3.2693
  194SOL     MW  776   0.504   1.425   0.942  0.3228  0.1307 -0.6291
  195SOL     OW  777   1.293   1.139   2.985  0.5431 -0.2417  0.0303
  195SOL    HW1  778   1.343   1.135   3.071 -0.0109 -0.9066  0.1076
  195SOL    HW2  779   1.237   1.056   2.995 -2.7335 -2.3063  0.2747
  195SOL     MW  780   1.292   1.127   2.997  0.0377 -0.6018  0.0728
  196SOL     OW  781   2.202   1.003   0.576  0.1205  0.0046  0.1455
  196SOL    HW1  782   2.155   0.956   0.503 -0.5394 -2.1815  1.6500
  196SOL    HW2  783   2.197   1.097   0.563  1.4129  1.4487 -1.2381
  196SOL     MW  784   2.195   1.009   0.565  0.2040 -0.0933  0.1615
  197SOL     OW  785   0.654   1.226   2.093 -0.8893 -0.0814  0.2905
  197SOL    HW1  786   0.677   1.143   2.060 -0.3800  1.4364  2.6440
  197SOL    HW2  787   0.630   1.287   2.025 -2.7616  0.5794 -0.9554
  197SOL     MW  788   0.654   1.223   2.080 -1.0692  0.2061  0.4366
  198SOL     OW  789   2.960   1.373   1.098  0.2961 -0.0683 -0.2339
  198SOL    HW1  790   2.914   1.447   1.058 -1.6111 -1.8579 -3.1184
  198SOL    HW2  791   2.888   1.312   1.084  2.5522  1.3458 -1.8492
  198SOL     MW  792   2.944   1.375   1.091  0.3421 -0.1179 -0.8276
  199SOL     OW  793   0.548   1.384   1.899  0.1682  0.7823  0.2241
  199SOL    HW1  794   0.471   1.330   1.888  3.2203  1.1008  0.4162
  199SOL    HW2  795   0.550   1.434   1.819 -0.4649 -2.3652 -4.0741
  199SOL     MW  796   0.538   1.384   1.887  0.4873  0.4090 -0.3177
  200SOL     OW  797   1.871   3.017   1.309 -0.1582 -0.6301  0.1206
  200SOL    HW1  798   1.864   2.999   1.215  0.3742  1.7700  1.9756
  200SOL    HW2  799   1.788   3.055   1.332  2.1369  0.0735 -2.7792
  200SOL     MW  800   1.860   3.020   1.300  0.2149 -0.2206 -0.0172
  201SOL     OW  801   1.021   0.195   0.845  0.5699  0.3847  0.0388
  201SOL    HW1  802   0.993   0.136   0.770  0.9139 -3.1710 -0.0137
  201SOL    HW2  803   1.095   0.236   0.812 -2.0747 -0.2142  0.8777
  201SOL     MW  804   1.027   0.193   0.831  0.2663 -0.1635  0.1426
  202SOL     OW  805   1.513   1.559   0.881 -0.0556  0.4156 -0.1119
  202SOL    HW1  806   1.527   1.475   0.833 -0.1214 -0.7204 -0.4767
  202SOL    HW2  807   1.540   1.545   0.971 -0.9542  0.5026  0.2749
  202SOL     MW  808   1.518   1.546   0.887 -0.1828  0.2772 -0.1090
  203SOL     OW  809   3.074   0.453   1.281 -0.1593 -0.6117  0.2835
  203SOL    HW1  810   3.161   0.463   1.245  3.2564  0.3449  1.4463
  203SOL    HW2  811   3.088   0.510   1.358  2.3569 -0.4210 -1.0257
  203SOL     MW  812   3.088   0.462   1.286  0.6233 -0.4603  0.2642
  204SOL     OW  813   1.051   1.742   0.541 -0.4077 -0.1240 -0.0425
  204SOL    HW1  814   1.030   1.684   0.622  3.3945 -1.8279 -1.5874
  204SOL    HW2  815   0.962   1.754   0.496  0.2531  3.0664 -1.1303
  204SOL     MW  816   1.036   1.736   0.546  0.1812  0.0722 -0.3899
  205SOL     OW  817   1.362   0.066   1.362  0.0214  0.2230 -0.1387
  205SOL    HW1  818   1.357   0.048   1.270  0.5358  2.4181 -1.5379
  205SOL    HW2  819   1.326   0.157   1.366  1.4789  1.6066 -1.7464
  205SOL     MW  820   1.357   0.076   1.350  0.2816  0.6952 -0.5354
  206SOL     OW  821   0.422   3.005   1.432 -0.2031  0.0475 -0.7556
  206SOL    HW1  822   0.377   3.008   1.341 -0.7307  0.7461  0.9987
  206SOL    HW2  823   0.483   2.934   1.442  1.9085  0.5566  1.4623
  206SOL     MW  824   0.424   2.996   1.421  0.0059  0.2069 -0.2315
  207SOL     OW  825   0.917   1.529   0.197 -0.0800  0.2291 -0.5295
  207SOL    HW1  826   0.938   1.623   0.181 -2.2358  1.3752  1.4387
  207SOL    HW2  827   1.003   1.505   0.236 -0.1625  2.2677  5.2122
  207SOL     MW  828   0.931   1.538   0.200 -0.3753  0.6493  0.4877
  208SOL     OW  829   0.689   1.668   1.370 -0.0076  0.3087  0.1471
  208SOL    HW1  830   0.758   1.684   1.435 -0.8189 -0.2118 -0.0692
  208SOL    HW2  831   0.667   1.578   1.368 -1.2966 -0.0056  1.9677
  208SOL     MW  832   0.695   1.659   1.379 -0.2847  0.1985  0.3588
  209SOL     OW  833   1.543   0.506   3.015 -0.1554 -0.1400 -0.0760
  209SOL    HW1  834   1.557   0.592   2.972  0.1249 -0.1053 -0.2842
  209SOL    HW2  835   1.591   0.441   2.970 -2.6090 -2.5548 -0.5450
  209SOL     MW  836   1.551   0.509   3.004 -0.4421 -0.4540 -0.1654
  210SOL     OW  837   1.567   1.293   0.807 -0.4651 -0.6252 -0.0338
  210SOL    HW1  838   1.659   1.309   0.770 -1.7884  1.5704 -1.9108
  210SOL    HW2  839   1.510   1.313   0.733 -0.8808 -2.6037 -0.3589
  210SOL     MW  840   1.572   1.297   0.792 -0.6946 -0.5966 -0.3243
  211SOL     OW  841   1.661   0.341   0.949  0.3677 -0.4881 -0.2404
  211SOL    HW1  842   1.640   0.380   0.860 -1.4100 -0.8025 -1.6344
  211SOL    HW2  843   1.748   0.372   0.973  2.7131 -1.2989 -1.2114
  211SOL     MW  844   1.670   0.350   0.941  0.4426 -0.6365 -0.5524
  212SOL     OW  845   0.250   1.023   0.120  0.0014 -0.0440  0.2057
  212SOL    HW1  846   0.178   0.998   0.180  2.2260 -3.5965 -0.5396
  212SOL    HW2  847   0.296   0.942   0.098  1.9880 -0.3623 -0.7517
  212SOL     MW  848   0.247   1.009   0.125  0.5570 -0.5547 -0.0190
  213SOL     OW  849   0.534   1.719   3.028  0.0710 -0.3975  0.1072
  213SOL    HW1  850   0.520   1.768   3.116 -0.6227 -0.7349  2.0458
  213SOL    HW2  851   0.544   1.791   2.966  0.8652 -1.0331 -0.5549
  213SOL     MW  852   0.533   1.735   3.032  0.0843 -0.5258  0.2756
  214SOL     OW  853   0.592   0.296   2.224  0.8250  0.4920 -0.4197
  214SOL    HW1  854   0.553   0.381   2.194  1.3035 -0.1523  1.6556
  214SOL    HW2  855   0.681   0.321   2.245 -0.8487 -0.7085 -4.1201
  214SOL     MW  856   0.599   0.310   2.223  0.6673  0.2486 -0.6341
  215SOL     OW  857   0.516   0.711   2.666 -0.5529 -0.1883 -0.1262
  215SOL    HW1  858   0.545   0.682   2.582 -0.0991  1.1159 -0.3317
  215SOL    HW2  859   0.443   0.656   2.694  1.4132  3.3003  5.1984
  215SOL     MW  860   0.510   0.700   2.659 -0.2336  0.4440  0.5493
  216SOL     OW  861   2.904   3.046   2.656  0.1968 -0.1674  0.5404
  216SOL    HW1  862   2.840   3.027   2.727  2.8015 -2.7167 -2.6475
  216SOL    HW2  863   2.911   3.142   2.654  1.0916 -2.3974 -1.2073
  216SOL     MW  864   2.897   3.056   2.665  0.6585 -0.7980 -0.1108
  217SOL     OW  865   0.973   1.089   0.069  0.5496 -0.2723  0.4030
  217SOL    HW1  866   1.031   1.012   0.050  0.8648  1.0081  2.1266
  217SOL    HW2  867   1.038   1.163   0.073  0.1983  2.7220 -0.7252
  217SOL     MW  868   0.990   1.088   0.067  0.5448  0.2917  0.4815
  218SOL     OW  869   0.970   1.312   2.545 -0.1544 -0.2209  0.3498
  218SOL    HW1  870   0.998   1.226   2.572  4.0555 -0.0419  0.4556
  218SOL    HW2  871   1.023   1.371   2.599 -1.6147  1.7544  0.5230
  218SOL     MW  872   0.981   1.308   2.556  0.2084  0.0634  0.3866
  219SOL     OW  873   1.134   0.428   2.640  0.5378 -0.1529  0.1884
  219SOL    HW1  874   1.207   0.483   2.673  1.7871  1.9448 -0.6058
  219SOL    HW2  875   1.058   0.479   2.620 -1.7522  0.3110 -1.0925
  219SOL     MW  876   1.133   0.442   2.642  0.4005  0.1851 -0.0854
  220SOL     OW  877   1.747   0.474   2.223  0.1303  0.2029  0.2752
  220SOL    HW1  878   1.661   0.504   2.181 -2.8196 -0.2363 -3.1543
  220SOL    HW2  879   1.777   0.394   2.168  3.2125 -0.5429 -1.3993
  220SOL     MW  880   1.740   0.467   2.210  0.1478  0.0466 -0.3982
  221SOL     OW  881   0.406   1.342   2.948  0.1114 -0.6005  0.3349
  221SOL    HW1  882   0.425   1.257   2.905 -1.6042  2.4878  1.9953
  221SOL    HW2  883   0.443   1.400   2.883 -0.8055 -0.7174  1.9890
  221SOL     MW  884   0.413   1.338   2.933 -0.2359 -0.2085  0.7722
  222SOL     OW  885   0.362   0.936   2.673 -0.2649  0.7758  0.3698
  222SOL    HW1  886   0.345   0.952   2.581  1.4158 -1.1214  2.0445
  222SOL    HW2  887   0.427   0.864   2.672  0.9390 -1.4201  1.1672
  222SOL     MW  888   0.368   0.929   2.660  0.1157  0.2358  0.6959
  223SOL     OW  889   0.009   2.030   2.524  0.1010 -0.1454 -0.1457
  223SOL    HW1  890   0.052   1.977   2.590 -1.6601 -2.2236 -1.7345
  223SOL    HW2  891   0.073   2.103   2.509  0.6872 -1.1941 -1.8099
  223SOL     MW  892   0.023   2.033   2.531 -0.0540 -0.5580 -0.5749
  224SOL     OW  893   1.498   0.797   2.627 -0.0535 -0.2354 -0.3754
  224SOL    HW1  894   1.475   0.861   2.694  2.8917 -2.9458  0.0573
  224SOL    HW2  895   1.535   0.852   2.549  0.8930 -0.5802 -2.9421
  224SOL     MW  896   1.500   0.813   2.626  0.4600 -0.6385 -0.6570
  225SOL     OW  897   2.897   1.444   2.302  0.2044 -0.1710 -0.5664
  225SOL    HW1  898   2.957   1.496   2.259 -2.9796 -1.7164 -0.6110
  225SOL    HW2  899   2.833   1.501   2.347  0.6048  2.3366  0.3707
  225SOL     MW  900   2.897   1.458   2.302 -0.1629 -0.0440 -0.4486
  226SOL     OW  901   0.475   1.480   2.700 -0.0308  0.4554 -0.3693
  226SOL    HW1  902   0.572   1.458   2.686 -0.4361 -1.3728  3.2484
  226SOL    HW2  903   0.464   1.568   2.661 -1.6174  1.4672  1.1896
  226SOL     MW  904   0.487   1.489   2.693 -0.2936  0.3477  0.3137
  227SOL     OW  905   0.486   1.109   2.836  0.0599 -0.3944 -0.4623
  227SOL    HW1  906   0.565   1.131   2.785  2.6651  0.9089 -0.5891
  227SOL    HW2  907   0.437   1.041   2.783  0.5902 -1.0642  0.1863
  227SOL     MW  908   0.490   1.103   2.823  0.4736 -0.3108 -0.3935
  228SOL     OW  909   0.716   0.962   2.047  0.5803  0.1043 -0.0323
  228SOL    HW1  910   0.808   0.971   2.016  0.5210  0.6540  1.7927
  228SOL    HW2  911   0.715   0.905   2.131  0.8087 -1.4540  2.2118
  228SOL     MW  912   0.728   0.955   2.054  0.6026 -0.0288  0.5046
  229SOL     OW  913   0.170   0.619   0.021 -0.6720 -0.0506 -0.7538
  229SOL    HW1  914   0.116   0.589  -0.051 -0.9556  1.9511  0.9154
  229SOL    HW2  915   0.181   0.539   0.071 -0.2873  1.0554 -0.2173
  229SOL     MW  916   0.164   0.604   0.018 -0.6587  0.3594 -0.4628
  230SOL     OW  917   1.694   1.353   2.034 -0.5852  0.0488  0.1756
  230SOL    HW1  918   1.630   1.332   2.105  0.2669 -1.4900  0.9449
  230SOL    HW2  919   1.736   1.268   2.025 -1.4959  0.4240 -0.1496
  230SOL     MW  920   1.691   1.339   2.042 -0.5930 -0.1047  0.2342
  231SOL     OW  921   2.738   1.256   2.189 -0.3622  0.4682  0.2921
  231SOL    HW1  922   2.797   1.328   2.206 -1.0580 -3.5241 -1.8413
  231SOL    HW2  923   2.677   1.264   2.118 -0.0819 -3.1498 -3.8869
  231SOL     MW  924   2.738   1.266   2.182 -0.4170 -0.5359 -0.5408
  232SOL     OW  925   2.295   0.834   2.016 -0.2845  0.3024 -0.0285
  232SOL    HW1  926   2.221   0.854   1.961 -0.8301  1.3160 -0.8576
  232SOL    HW2  927   2.267   0.837   2.104  0.1959 -2.8764 -1.7596
  232SOL     MW  928   2.282   0.837   2.020 -0.2931  0.0167 -0.3663
  233SOL     OW  929   2.046   0.440   2.033 -0.4346  0.1296  0.5258
  233SOL    HW1  930   2.124   0.381   2.032 -1.0237 -3.6865  2.7971
  233SOL    HW2  931   2.062   0.502   2.103 -1.5649  0.7889 -0.7400
  233SOL     MW  932   2.059   0.441   2.042 -0.6614 -0.2869  0.6585
  234SOL     OW  933   0.286   1.069   2.418 -0.3561  0.0025 -0.3180
  234SOL    HW1  934   0.191   1.096   2.426  0.6467  1.1485  0.4780
  234SOL    HW2  935   0.326   1.154   2.434  0.5265 -0.9456 -1.8746
  234SOL     MW  936   0.279   1.083   2.421 -0.1074  0.0286 -0.4183
  235SOL     OW  937   1.116   3.059   2.707  0.2917 -0.2266  0.4252
  235SOL    HW1  938   1.140   3.021   2.791 -0.0366  0.5824  3.0089
  235SOL    HW2  939   1.078   3.143   2.724  1.6756 -0.5734  1.3334
  235SOL     MW  940   1.114   3.065   2.720  0.4310 -0.1656  0.8859
  236SOL     OW  941   2.928   0.570   0.066  0.4974 -0.0081  1.1036
  236SOL    HW1  942   2.830   0.563   0.048  1.0954 -1.1432  0.4679
  236SOL    HW2  943   2.941   0.660   0.043 -1.3449  0.5145  1.0066
  236SOL     MW  944   2.917   0.581   0.061  0.3332 -0.0889  1.0069
  237SOL     OW  945   2.009   1.109   2.185  0.5686  0.2260  0.5152
  237SOL    HW1  946   1.974   1.097   2.098 -1.9610  1.9356 -1.0373
  237SOL    HW2  947   2.024   1.020   2.210  0.2276  0.0909 -2.1097
  237SOL     MW  948   2.006   1.096   2.177  0.1898  0.4337 -0.0360
  238SOL     OW  949   1.045   1.824   2.978  0.4355  0.5618  0.6561
  238SOL    HW1  950   1.028   1.729   2.964  1.0072  0.4277 -0.3998
  238SOL    HW2  951   1.137   1.821   2.987 -3.1201  1.9529 -0.3716
  238SOL     MW  952   1.055   1.811   2.977  0.0418  0.7277  0.3812
  239SOL     OW  953   1.264   1.355   2.371  0.4546 -0.0198 -0.4094
  239SOL    HW1  954   1.216   1.409   2.436 -0.1413  3.4418 -1.2019
  239SOL    HW2  955   1.312   1.294   2.430 -0.1074  0.0620 -1.3171
  239SOL     MW  956   1.264   1.354   2.387  0.3018  0.4477 -0.6338
  240SOL     OW  957   0.693   0.816   2.279  0.0662  0.0218 -0.5211
  240SOL    HW1  958   0.709   0.898   2.320  0.1558 -1.2717  0.5694
  240SOL    HW2  959   0.776   0.769   2.264  0.3692 -1.0538  2.3204
  240SOL     MW  960   0.706   0.821   2.283  0.1180 -0.2908 -0.0023
  241SOL     OW  961   0.641   0.375   0.020  0.5894 -0.1126  0.6882
  241SOL    HW1  962   0.694   0.441   0.063 -0.5207  0.5905 -1.1320
  241SOL    HW2  963   0.579   0.419  -0.042 -0.7371 -0.1657 -1.5471
  241SOL     MW  964   0.640   0.390   0.018  0.2679 -0.0268  0.1531
  242SOL     OW  965   1.508   1.680   2.335 -0.1598  0.0835 -0.2682
  242SOL    HW1  966   1.456   1.757   2.363 -1.7834  0.7024  0.5680
  242SOL    HW2  967   1.463   1.631   2.267  2.6121 -0.6670 -2.6693
  242SOL     MW  968   1.495   1.684   2.330 -0.0083  0.0662 -0.4747
  243SOL     OW  969   1.043   0.219   2.498  0.0259 -0.4568  0.5002
  243SOL    HW1  970   1.117   0.207   2.432  2.1469 -0.6118 -0.8898
  243SOL    HW2  971   1.082   0.276   2.564  0.0426  0.0180  1.3515
  243SOL     MW  972   1.058   0.225   2.498  0.3079 -0.4146  0.4291
  244SOL     OW  973   0.275   0.792   2.431 -0.1811  0.0799  0.1976
  244SOL    HW1  974   0.274   0.883   2.404 -1.0639  0.3226  2.2627
  244SOL    HW2  975   0.359   0.755   2.406 -0.2268 -1.3402 -1.6247
  244SOL     MW  976   0.286   0.799   2.424 -0.3036 -0.0755  0.2297
  245SOL     OW  977   1.235   0.221   2.322  0.1531 -0.0583 -0.1688
  245SOL    HW1  978   1.266   0.132   2.346 -1.1317 -0.1901 -2.1404
  245SOL    HW2  979   1.295   0.272   2.373  0.8595 -3.2857 -3.5937
  245SOL     MW  980   1.247   0.216   2.332  0.0768 -0.5015 -0.8808
  246SOL     OW  981   1.227   1.211   2.140  0.3913 -0.1927  0.4652
  246SOL    HW1  982   1.198   1.122   2.177  1.9978  1.8774 -1.1122
  246SOL    HW2  983   1.246   1.257   2.218  0.4998  2.8751  3.1222
  246SOL     MW  984   1.225   1.205   2.155  0.6176  0.4852  0.6076
  247SOL     OW  985   0.747   0.574   0.197  0.2562  0.6100 -0.0529
  247SOL    HW1  986   0.697   0.648   0.168 -2.7169  0.9620  0.7392
  247SOL    HW2  987   0.837   0.580   0.158  1.4979 -1.1227  1.2788
  247SOL     MW  988   0.752   0.584   0.188  0.0277  0.4278  0.2273
  248SOL     OW  989   0.341   1.345   2.488 -0.9288  0.6493  0.5366
  248SOL    HW1  990   0.402   1.367   2.417 -0.4694 -0.4001 -0.3516
  248SOL    HW2  991   0.385   1.380   2.569 -1.9752  1.3002  0.3615
  248SOL     MW  992   0.355   1.352   2.489 -1.0062  0.5967  0.3963
  249SOL     OW  993   0.180   1.911   2.730 -0.2081  0.1387 -0.2648
  249SOL    HW1  994   0.144   1.836   2.690  2.4225  0.6302 -0.8094
  249SOL    HW2  995   0.210   1.875   2.818  0.0978 -0.5380  1.7584
  249SOL     MW  996   0.179   1.897   2.736  0.1794  0.1143 -0.0697
  250SOL     OW  997   2.171   0.887   2.284  0.0079  0.0300 -0.4621
  250SOL    HW1  998   2.235   0.809   2.284 -0.7443  2.7574  0.6770
  250SOL    HW2  999   2.220   0.962   2.317 -3.1386  1.8587 -0.1778
  250SOL     MW 1000   2.186   0.887   2.288 -0.5065  0.6311 -0.2743
  251SOL     OW 1001   0.151   0.867   1.983 -0.2433 -0.1742  0.1701
  251SOL    HW1 1002   0.070   0.810   1.997  0.9766 -1.0968  0.2011
  251SOL    HW2 1003   0.159   0.895   1.891 -0.3854 -1.0904  0.9499
  251SOL     MW 1004   0.141   0.863   1.973 -0.1011 -0.4168  0.2771
  252SOL     OW 1005   1.716   1.000   2.844  0.2460 -0.0540  0.2849
  252SOL    HW1 1006   1.741   1.028   2.935 -0.9387  3.0141  2.1536
  252SOL    HW2 1007   1.785   1.037   2.789 -0.4348  2.1891 -0.4236
  252SOL     MW 1008   1.729   1.009   2.849 -0.0001  0.6468  0.4380
  253SOL     OW 1009   1.239   1.779   2.556 -0.4380 -0.4193  0.4684
  253SOL    HW1 1010   1.234   1.800   2.460 -3.2133  0.6319 -0.7119
  253SOL    HW2 1011   1.163   1.819   2.602 -1.6710  0.5942 -2.3684
  253SOL     MW 1012   1.228   1.787   2.549 -0.9668 -0.1469 -0.0616
  254SOL     OW 1013   1.072   1.004   2.245  0.3504  0.1159 -0.4398
  254SOL    HW1 1014   1.042   0.912   2.240 -0.8803  0.6431  2.2938
  254SOL    HW2 1015   0.997   1.059   2.237 -0.1793  2.3861 -0.3208
  254SOL     MW 1016   1.058   0.999   2.243  0.1182  0.4850 -0.0634
  255SOL     OW 1017   0.764   2.584   2.148  0.3478 -0.3989  0.3350
  255SOL    HW1 1018   0.691   2.534   2.180 -0.6413  0.7083  0.0165
  255SOL    HW2 1019   0.847   2.559   2.189  1.5257 -0.1471  1.2150
  255SOL     MW 1020   0.765   2.574   2.157  0.3727 -0.2196  0.4091
  256SOL     OW 1021   1.320   2.664   2.949  0.3446  0.0456  0.1419
  256SOL    HW1 1022   1.324   2.581   2.895  0.6983  1.8338  0.3756
  256SOL    HW2 1023   1.405   2.703   2.936  0.8496 -0.7794 -0.8586
  256SOL     MW 1024   1.332   2.658   2.940  0.4579  0.1727  0.0408
  257SOL     OW 1025   0.115   1.898   0.063  0.3393 -0.4075 -0.2443
  257SOL    HW1 1026   0.137   1.839   0.139 -1.6878 -2.7367  0.4353
  257SOL    HW2 1027   0.154   1.844  -0.006  0.7274 -1.5790  1.9146
  257SOL     MW 1028   0.123   1.883   0.064  0.1230 -0.8694  0.1302
  258SOL     OW 1029   0.755   1.030   2.448  0.3755  0.4638 -0.3784
  258SOL    HW1 1030   0.776   1.109   2.387  0.2841  2.2598  0.2199
  258SOL    HW2 1031   0.713   1.084   2.514  0.9447  1.9850 -0.2944
  258SOL     MW 1032   0.752   1.047   2.449  0.4386  0.9015 -0.2884
  259SOL     OW 1033   0.837   0.363   2.365 -0.4813  0.3173  0.0917
  259SOL    HW1 1034   0.761   0.343   2.416 -0.6434 -2.4135 -0.0723
  259SOL    HW2 1035   0.916   0.321   2.404  1.1622  2.3074 -1.9336
  259SOL     MW 1036   0.837   0.355   2.377 -0.2858  0.2196 -0.1972
  260SOL     OW 1037   0.484   0.141   1.563  0.0232  0.1268 -0.4092
  260SOL    HW1 1038   0.446   0.061   1.521 -0.6350  0.3236 -0.1351
  260SOL    HW2 1039   0.577   0.137   1.533  3.4989 -2.8737 -0.2005
  260SOL     MW 1040   0.491   0.130   1.553  0.3950 -0.2431 -0.3455
  261SOL     OW 1041   1.205   0.763   2.013 -1.3885 -0.3641  0.2437
  261SOL    HW1 1042   1.212   0.771   2.108 -1.3251  2.6342 -0.3190
  261SOL    HW2 1043   1.252   0.686   1.995 -1.3080 -0.6889 -0.4436
  261SOL     MW 1044   1.212   0.754   2.023 -1.3695 -0.0113  0.0788
  262SOL     OW 1045   1.042   0.338   0.160 -0.2066  0.0550 -0.4977
  262SOL    HW1 1046   1.137   0.328   0.129 -0.8140 -1.4471 -1.0963
  262SOL    HW2 1047   0.991   0.271   0.110 -1.2275 -1.2296  0.1915
  262SOL     MW 1048   1.047   0.328   0.149 -0.4214 -0.3127 -0.4858
  263SOL     OW 1049   0.408   3.090   2.503  0.1052  0.0503 -0.0120
  263SOL    HW1 1050   0.337   3.154   2.497  0.4748  2.5885  0.2289
  263SOL    HW2 1051   0.458   3.099   2.420  2.2601 -0.1428  0.1950
  263SOL     MW 1052   0.405   3.100   2.491  0.4383  0.3597  0.0471
  264SOL     OW 1053   1.478   1.342   1.884  0.0553  0.1505 -0.1914
  264SOL    HW1 1054   1.413   1.358   1.950 -0.7463 -0.2533 -2.1123
  264SOL    HW2 1055   1.564   1.351   1.925  1.9850 -0.7357  1.7610
  264SOL     MW 1056   1.481   1.345   1.898  0.2042 -0.0197 -0.1873
  265SOL     OW 1057   0.706   2.811   2.284 -0.0725  0.6662 -0.3353
  265SOL    HW1 1058   0.742   2.728   2.243 -0.5183 -0.2868  0.9481
  265SOL    HW2 1059   0.728   2.812   2.378  0.9985 -2.7168  1.2415
  265SOL     MW 1060   0.713   2.800   2.291  0.0100  0.0941  0.0421
  266SOL     OW 1061   0.982   0.736   2.227 -0.1023  0.1810 -0.0754
  266SOL    HW1 1062   0.992   0.724   2.130  1.3315  4.3648  0.8536
  266SOL    HW2 1063   1.063   0.699   2.262 -0.7200  2.0726 -1.7885
  266SOL     MW 1064   0.994   0.730   2.219  0.0054  0.9826 -0.1789
  267SOL     OW 1065   1.439   1.776   2.779  0.0237  0.2021 -0.6339
  267SOL    HW1 1066   1.488   1.731   2.713  0.6753 -0.7329  0.8573
  267SOL    HW2 1067   1.379   1.827   2.722  1.3903 -1.9030  0.2011
  267SOL     MW 1068   1.438   1.777   2.763  0.2900 -0.1990 -0.3270
  268SOL     OW 1069   0.186   0.813   1.671  0.0725  0.1458 -0.4913
  268SOL    HW1 1070   0.132   0.854   1.605  1.3130  1.6985 -2.1218
  268SOL    HW2 1071   0.166   0.719   1.664  0.6914 -1.3586 -1.1052
  268SOL     MW 1072   0.176   0.806   1.661  0.3178  0.1522 -0.7874
  269SOL     OW 1073   1.414   1.937   2.371  0.1205  0.3133 -0.1776
  269SOL    HW1 1074   1.486   2.003   2.372 -0.7339  0.9121  1.5087
  269SOL    HW2 1075   1.347   1.984   2.411  0.6305 -2.1995 -1.2440
  269SOL     MW 1076   1.415   1.952   2.376  0.0750  0.0608 -0.0958
  270SOL     OW 1077   1.118   0.408   1.648  0.4822 -0.1868  0.4468
  270SOL    HW1 1078   1.068   0.327   1.664 -0.7650 -2.7021 -0.1532
  270SOL    HW2 1079   1.209   0.386   1.625  0.2652 -1.4606 -2.4262
  270SOL     MW 1080   1.123   0.394   1.647  0.2890 -0.6867 -0.0115
  271SOL     OW 1081   0.884   0.018   2.542 -0.5679 -0.1141  0.1066
  271SOL    HW1 1082   0.939  -0.029   2.608 -1.3381 -0.4293  0.0523
  271SOL    HW2 1083   0.937   0.101   2.516  1.1753  1.1551 -1.1666
  271SOL     MW 1084   0.898   0.023   2.547 -0.4395  0.0118 -0.0685
  272SOL     OW 1085   1.491   2.871   2.829 -0.3341 -0.2509 -0.0453
  272SOL    HW1 1086   1.428   2.891   2.764  1.1878 -3.6788  0.0772
  272SOL    HW2 1087   1.534   2.953   2.846  0.0399  3.1468 -1.6595
  272SOL     MW 1088   1.489   2.884   2.823 -0.0840 -0.2549 -0.2421
  273SOL     OW 1089   1.452   0.993   2.817  0.1211 -0.1376  0.0061
  273SOL    HW1 1090   1.547   1.000   2.827 -1.1752  0.2251  0.9555
  273SOL    HW2 1091   1.412   1.055   2.880 -3.2933 -1.3545  1.7776
  273SOL     MW 1092   1.459   1.002   2.827 -0.5004 -0.2503  0.3651
  274SOL     OW 1093   1.481   0.723   0.120 -0.2584 -0.5864 -0.0381
  274SOL    HW1 1094   1.502   0.631   0.100  1.1213  0.9954  1.0515
  274SOL    HW2 1095   1.417   0.716   0.197  2.2580  1.9255 -1.7059
  274SOL     MW 1096   1.475   0.710   0.128  0.2557 -0.0463 -0.1144
  275SOL     OW 1097   1.726   0.543   1.752 -0.0914 -0.2519 -0.2898
  275SOL    HW1 1098   1.772   0.584   1.825 -1.5393  0.4722  0.4235
  275SOL    HW2 1099   1.740   0.448   1.771 -0.1658 -2.9354  0.2380
  275SOL     MW 1100   1.734   0.536   1.764 -0.2923 -0.5104 -0.1260
  276SOL     OW 1101   0.315   1.213   1.900  0.4775 -0.2176  0.0752
  276SOL    HW1 1102   0.370   1.135   1.932 -1.1160 -1.8971  2.2545
  276SOL    HW2 1103   0.224   1.192   1.927 -0.5899 -1.5987  1.1744
  276SOL     MW 1104   0.310   1.200   1.907  0.1264 -0.6214  0.5078
  277SOL     OW 1105   1.884   1.276   2.412  0.1162 -0.4640 -0.2333
  277SOL    HW1 1106   1.965   1.307   2.463  1.2977  4.0232  0.4378
  277SOL    HW2 1107   1.900   1.302   2.322 -0.9144 -2.0289 -2.1631
  277SOL     MW 1108   1.897   1.284   2.407  0.1361 -0.0784 -0.3994
  278SOL     OW 1109   1.451   0.609   1.734  0.1459 -0.1903  0.1346
  278SOL    HW1 1110   1.409   0.582   1.822 -1.1903 -1.5747 -1.2463
  278SOL    HW2 1111   1.547   0.599   1.735  1.7356  0.3275 -2.0455
  278SOL     MW 1112   1.458   0.604   1.746  0.1793 -0.3047 -0.3352
  279SOL     OW 1113   0.561   0.031   2.266  0.3605  0.3498 -0.3916
  279SOL    HW1 1114   0.651  -0.001   2.259  2.1641 -3.4562 -0.8376
  279SOL    HW2 1115   0.563   0.125   2.266 -0.2375 -0.2771 -2.0362
  279SOL     MW 1116   0.573   0.039   2.265  0.5196 -0.2351 -0.6674
  280SOL     OW 1117   1.471   0.963   2.137  0.8292 -0.1542  0.7844
  280SOL    HW1 1118   1.506   0.886   2.085  0.4139  0.7008 -0.9413
  280SOL    HW2 1119   1.478   0.940   2.231 -0.1987  0.2437  0.1368
  280SOL     MW 1120   1.477   0.949   2.143  0.6388  0.0111  0.4712
  281SOL     OW 1121   1.287   1.344   2.779  0.2017  0.7902 -0.2884
  281SOL    HW1 1122   1.381   1.353   2.761 -3.0490 -0.5464  0.4987
  281SOL    HW2 1123   1.278   1.296   2.863  1.0750 -0.1816  0.2576
  281SOL     MW 1124   1.298   1.339   2.788 -0.1119  0.4856 -0.1125
  282SOL     OW 1125   1.100   1.296   1.694 -0.1128  0.3719 -0.0831
  282SOL    HW1 1126   1.060   1.380   1.652  2.4815 -0.1640 -1.2574
  282SOL    HW2 1127   1.088   1.312   1.787 -1.0614 -3.0962  0.8279
  282SOL     MW 1128   1.093   1.309   1.701  0.1043 -0.1564 -0.1178
  283SOL     OW 1129   0.805   1.196   2.998  0.7972 -0.2571 -0.3013
  283SOL    HW1 1130   0.888   1.168   3.035  2.7451 -2.6284  1.7065
  283SOL    HW2 1131   0.791   1.287   3.021 -0.4559  0.6409  0.4940
  283SOL     MW 1132   0.814   1.205   3.006  0.8889 -0.4515  0.0686
  284SOL     OW 1133   0.522   0.656   2.385  0.3004  0.3369  0.2249
  284SOL    HW1 1134   0.597   0.705   2.337 -2.1746 -0.4784 -1.3180
  284SOL    HW2 1135   0.491   0.593   2.321  1.7033  2.4688  0.2029
  284SOL     MW 1136   0.527   0.654   2.370  0.1589  0.5106  0.0184
  285SOL     OW 1137   0.942   0.937   2.822  0.0940  0.0108 -0.1679
  285SOL    HW1 1138   0.994   0.964   2.747  1.0294  0.0832  0.9600
  285SOL    HW2 1139   0.900   0.851   2.795  0.1846 -1.8994 -1.6621
  285SOL     MW 1140   0.943   0.929   2.809  0.2293 -0.2317 -0.2163
  286SOL     OW 1141   1.176   1.493   2.588 -0.3343 -0.0898  0.0755
  286SOL    HW1 1142   1.227   1.441   2.652  3.0141  0.4441 -2.3872
  286SOL    HW2 1143   1.184   1.585   2.584  0.0398 -0.7293  1.3328
  286SOL     MW 1144   1.184   1.499   2.596  0.1569 -0.1038 -0.0836
  287SOL     OW 1145   1.113   0.942   0.291  0.6866 -0.4281  0.4027
  287SOL    HW1 1146   1.127   0.991   0.375 -1.7396 -1.5104  0.0157
  287SOL    HW2 1147   1.022   0.917   0.288  1.6522 -0.7096  1.7792
  287SOL     MW 1148   1.103   0.945   0.301  0.4939 -0.6081  0.5333
  288SOL     OW 1149   1.534   0.572   2.101  0.0237  0.2616 -0.2348
  288SOL    HW1 1150   1.519   0.592   2.195 -1.5239  1.6160  1.5351
  288SOL    HW2 1151   1.570   0.654   2.062  1.5398 -0.7802  1.1854
  288SOL     MW 1152   1.537   0.586   2.108  0.0195  0.3029  0.1861
  289SOL     OW 1153   1.012   1.038   2.570  1.0967 -0.3724  0.0868
  289SOL    HW1 1154   1.057   0.961   2.538 -0.0059 -1.8846  1.1146
  289SOL    HW2 1155   0.921   1.031   2.539  2.4405 -1.6267  0.1107
  289SOL     MW 1156   1.006   1.027   2.562  1.1285 -0.7374  0.2256
  290SOL     OW 1157   0.821   0.656   1.598  0.4736  0.4964 -0.4229
  290SOL    HW1 1158   0.871   0.611   1.530 -1.9189 -1.4902  1.2517
  290SOL    HW2 1159   0.872   0.632   1.674  0.0192  0.7615 -0.0543
  290SOL     MW 1160   0.834   0.647   1.599  0.0980  0.2693 -0.1533
  291SOL     OW 1161   0.220   0.352   0.117  0.2106  1.1492 -0.2495
  291SOL    HW1 1162   0.269   0.268   0.123  1.9375 -0.1668  2.5807
  291SOL    HW2 1163   0.148   0.307   0.073 -1.9055 -1.9720  1.6906
  291SOL     MW 1164   0.217   0.335   0.112  0.1592  0.5638  0.3799
  292SOL     OW 1165   1.012   0.596   0.096 -0.2271 -0.4460 -0.0434
  292SOL    HW1 1166   1.096   0.626   0.135  2.0505  0.8807  1.6554
  292SOL    HW2 1167   1.025   0.501   0.122  0.4095 -0.4302  0.1089
  292SOL     MW 1168   1.025   0.587   0.104  0.1574 -0.2689  0.2009
  293SOL     OW 1169   0.174   0.130   2.436 -0.4398  0.2521 -0.0902
  293SOL    HW1 1170   0.111   0.093   2.371 -2.3919 -1.6107  1.1877
  293SOL    HW2 1171   0.122   0.187   2.489  0.0425 -0.5326 -1.0723
  293SOL     MW 1172   0.159   0.132   2.434 -0.6337 -0.0972 -0.0512
  294SOL     OW 1173   1.500   0.637   2.369 -0.2143 -0.0700 -0.4190
  294SOL    HW1 1174   1.510   0.676   2.452 -2.7258 -1.3232  2.8654
  294SOL    HW2 1175   1.483   0.550   2.397  1.1304  0.7908  3.2001
  294SOL     MW 1176   1.499   0.631   2.383 -0.3683 -0.1217  0.4919
  295SOL     OW 1177   0.916   0.601   2.527  0.1595 -0.3302  0.0741
  295SOL    HW1 1178   0.865   0.542   2.474 -1.0103 -1.4297 -3.9803
  295SOL    HW2 1179   0.850   0.631   2.591  2.3557 -0.2558  2.4118
  295SOL     MW 1180   0.901   0.597   2.528  0.2949 -0.4655 -0.1524
  296SOL     OW 1181   1.309   0.259   2.057  0.2023  0.1614  0.1460
  296SOL    HW1 1182   1.373   0.197   2.024 -0.0969  2.2926 -0.5802
  296SOL    HW2 1183   1.281   0.235   2.150  0.6329  0.0498 -0.9716
  296SOL     MW 1184   1.314   0.247   2.065  0.2197  0.4279 -0.0973
  297SOL     OW 1185   1.380   0.362   1.630 -0.5269 -0.2591 -0.1502
  297SOL    HW1 1186   1.398   0.447   1.672 -0.1310  1.5941  0.4021
  297SOL    HW2 1187   1.439   0.298   1.674 -0.3300  1.1189  1.5417
  297SOL     MW 1188   1.390   0.365   1.641 -0.4487  0.1672  0.1459
  298SOL     OW 1189   1.651   0.800   1.983 -0.1468 -0.1800 -0.3170
  298SOL    HW1 1190   1.650   0.870   1.917  0.1465 -0.2591  0.7551
  298SOL    HW2 1191   1.726   0.831   2.037 -0.1622 -2.0714  1.6017
  298SOL     MW 1192   1.661   0.813   1.981 -0.1102 -0.4400  0.0776
  299SOL     OW 1193   0.579   1.092   0.047 -0.3606 -0.4852  0.1249
  299SOL    HW1 1194   0.660   1.121   0.002 -1.7387  0.1069  2.9599
  299SOL    HW2 1195   0.519   1.117  -0.021 -1.3575  1.6530  1.9705
  299SOL     MW 1196   0.582   1.100   0.032 -0.6739 -0.1249  0.7425
  300SOL     OW 1197   1.302   1.145   2.535  0.5515 -0.6677 -0.5706
  300SOL    HW1 1198   1.215   1.126   2.516  1.1500  0.9083  1.1213
  300SOL    HW2 1199   1.296   1.195   2.618 -1.5036 -1.3458 -0.8609
  300SOL     MW 1200   1.290   1.149   2.543  0.3593 -0.5492 -0.3857
  301SOL     OW 1201   1.465   0.916   0.644  0.7908 -0.1764 -0.1183
  301SOL    HW1 1202   1.456   0.951   0.735 -1.4078  0.1118 -2.3326
  301SOL    HW2 1203   1.396   0.850   0.644  0.9387  3.5376 -1.6927
  301SOL     MW 1204   1.455   0.912   0.656  0.5202  0.3517 -0.6182
  302SOL     OW 1205   0.126   1.492   2.014 -0.4313  0.8568 -0.6993
  302SOL    HW1 1206   0.151   1.435   2.083 -1.6217  1.9200  0.0060
  302SOL    HW2 1207   0.044   1.537   2.056 -1.1217 -0.6508  0.6636
  302SOL     MW 1208   0.118   1.490   2.029 -0.6795  0.7982 -0.4264
  303SOL     OW 1209   0.379   1.726   2.627  0.3242  0.0083 -0.6518
  303SOL    HW1 1210   0.335   1.725   2.540 -0.4630  0.9961 -2.3347
  303SOL    HW2 1211   0.359   1.813   2.654 -0.7126  1.8653 -0.1892
  303SOL     MW 1212   0.370   1.737   2.619  0.0836  0.3837 -0.8128
  304SOL     OW 1213   0.552   2.072   2.352 -0.0233 -0.0037 -0.0861
  304SOL    HW1 1214   0.611   2.141   2.314 -2.6342 -0.5316  0.5433
  304SOL    HW2 1215   0.611   1.997   2.378  0.1350  0.7108  2.6865
  304SOL     MW 1216   0.568   2.071   2.350 -0.3469  0.0209  0.3627
  305SOL     OW 1217   1.125   0.585   0.472  0.0575  0.0392 -1.0874
  305SOL    HW1 1218   1.030   0.579   0.477 -1.6281 -1.6392 -0.5263
  305SOL    HW2 1219   1.167   0.500   0.489  3.0953  0.0269  0.5473
  305SOL     MW 1220   1.118   0.573   0.475  0.2359 -0.1839 -0.7977
  306SOL     OW 1221   1.164   1.471   0.268 -0.3777 -0.5778 -0.5145
  306SOL    HW1 1222   1.218   1.395   0.299  0.2496  0.5536  0.5921
  306SOL    HW2 1223   1.209   1.506   0.196 -3.6512  2.0226  1.9201
  306SOL     MW 1224   1.177   1.466   0.263 -0.7268 -0.0854 -0.0472
  307SOL     OW 1225   1.323   0.509   1.954 -0.1786  0.2091  0.1970
  307SOL    HW1 1226   1.316   0.414   1.972  0.5640 -2.6142  0.4766
  307SOL    HW2 1227   1.409   0.515   2.009  0.1388  0.2945  0.2958
  307SOL     MW 1228   1.333   0.497   1.964 -0.0388 -0.1521  0.2469
  308SOL     OW 1229   2.142   0.546   2.726  0.3128  0.0753 -0.1016
  308SOL    HW1 1230   2.230   0.537   2.762 -3.6536 -2.9056 -0.4406
  308SOL    HW2 1231   2.140   0.643   2.721  1.5297  0.7119  1.4859
  308SOL     MW 1232   2.153   0.557   2.730 -0.0499 -0.2340  0.0631
  309SOL     OW 1233   0.454   0.413   0.367  0.3514  0.3415 -0.4813
  309SOL    HW1 1234   0.535   0.382   0.406 -0.9224 -2.1706 -0.7162
  309SOL    HW2 1235   0.435   0.363   0.289  2.4433  0.8075 -1.5638
  309SOL     MW 1236   0.463   0.402   0.362  0.4594  0.0715 -0.6551
  310SOL     OW 1237   0.491   0.620   1.945 -0.8353  0.0717  0.1841
  310SOL    HW1 1238   0.533   0.531   1.915 -1.3311  1.0905 -1.5532
  310SOL    HW2 1239   0.536   0.680   1.892  1.4968 -0.4377 -1.0489
  310SOL     MW 1240   0.503   0.616   1.934 -0.5931  0.1389 -0.2078
  311SOL     OW 1241   1.930   0.675   1.894 -0.0918 -1.0639 -0.1175
  311SOL    HW1 1242   1.883   0.720   1.960 -0.6445  0.9158  0.9828
  311SOL    HW2 1243   1.990   0.608   1.936 -0.3824 -1.2588  0.1926
  311SOL     MW 1244   1.932   0.672   1.908 -0.2030 -0.8284  0.0686
  312SOL     OW 1245   1.761   2.551   0.132 -0.3621 -0.5188  0.0837
  312SOL    HW1 1246   1.834   2.583   0.189 -0.7132 -1.9755  1.5080
  312SOL    HW2 1247   1.673   2.591   0.170 -1.5641 -0.8346  0.8194
  312SOL     MW 1248   1.759   2.561   0.145 -0.5670 -0.7527  0.3687
  313SOL     OW 1249   0.093   1.125   2.991  0.6762 -0.7612  0.0779
  313SOL    HW1 1250   0.102   1.125   3.084 -1.0242  0.2301 -0.4406
  313SOL    HW2 1251   0.142   1.202   2.957 -0.1658  0.0303 -1.1757
  313SOL     MW 1252   0.101   1.135   2.999  0.3407 -0.5260 -0.1559
  314SOL     OW 1253   2.161   2.933   2.980  0.5658  0.0839 -0.6309
  314SOL    HW1 1254   2.102   2.968   2.916  3.2776 -0.1817  0.7155
  314SOL    HW2 1255   2.204   3.016   2.995 -0.9506 -0.8526 -0.3509
  314SOL     MW 1256   2.159   2.948   2.974  0.7235 -0.0747 -0.4163
  315SOL     OW 1257   1.520   1.971   0.009 -0.3373 -0.0698  0.3851
  315SOL    HW1 1258   1.443   2.000   0.056  0.2210 -1.2595  1.7316
  315SOL    HW2 1259   1.530   2.040  -0.048 -2.3115 -0.9703  1.6192
  315SOL     MW 1260   1.511   1.984   0.008 -0.5241 -0.3456  0.7256
  316SOL     OW 1261   1.278   0.675   2.719 -0.6534 -0.4875 -0.0428
  316SOL    HW1 1262   1.351   0.711   2.672  0.2432 -1.9417  1.3621
  316SOL    HW2 1263   1.292   0.697   2.811  0.9521  0.7272  1.7066
  316SOL     MW 1264   1.290   0.682   2.725 -0.3233 -0.5191  0.3734
  317SOL     OW 1265   0.726   1.446   2.585  0.0079 -0.6126 -0.0213
  317SOL    HW1 1266   0.795   1.376   2.596 -1.0814 -0.6323  1.9063
  317SOL    HW2 1267   0.730   1.482   2.490  0.2358 -0.0711 -1.2742
  317SOL     MW 1268   0.736   1.441   2.574 -0.1058 -0.5437  0.0677
  318SOL     OW 1269   1.320   0.355   2.911  0.0978 -0.0314  0.4815
  318SOL    HW1 1270   1.225   0.395   2.910 -1.8846  1.2116 -1.9026
  318SOL    HW2 1271   1.381   0.431   2.934  2.1993 -1.3474 -0.3862
  318SOL     MW 1272   1.316   0.371   2.914  0.1135 -0.0410  0.0525
  319SOL     OW 1273   0.786   0.423   2.874  0.2930  0.2529  0.4814
  319SOL    HW1 1274   0.760   0.351   2.818  0.2401  1.1001  1.5722
  319SOL    HW2 1275   0.758   0.396   2.961  1.5591 -0.5261 -2.3301
  319SOL     MW 1276   0.779   0.410   2.878  0.4531  0.2619  0.2544
  320SOL     OW 1277   1.074   1.348   1.962 -0.3597 -0.0083  0.8997
  320SOL    HW1 1278   1.124   1.292   2.024 -1.7328  1.4345  1.7950
  320SOL    HW2 1279   1.122   1.428   1.932 -3.5602  1.2047 -2.9350
  320SOL     MW 1280   1.087   1.351   1.966 -0.9631  0.3421  0.5119
  321SOL     OW 1281   1.125   0.911   3.031  0.6787  0.0897  0.4939
  321SOL    HW1 1282   1.050   0.897   2.978  3.1364 -0.0050 -1.4005
  321SOL    HW2 1283   1.186   0.850   2.990  2.8252  1.6201  0.1065
  321SOL     MW 1284   1.123   0.901   3.019  1.2862  0.2791  0.1928
  322SOL     OW 1285   1.278   0.854   1.687 -0.2969  0.4890  0.0023
  322SOL    HW1 1286   1.348   0.784   1.690 -0.7747  1.6260 -0.6030
  322SOL    HW2 1287   1.262   0.870   1.782 -1.0782 -2.1807  0.6120
  322SOL     MW 1288   1.285   0.847   1.700 -0.4630  0.2868  0.0028
  323SOL     OW 1289   1.241   1.564   1.908 -0.3602  0.5365 -0.0990
  323SOL    HW1 1290   1.270   1.573   1.812  1.7805  1.8528 -1.1089
  323SOL    HW2 1291   1.167   1.633   1.911 -1.2435 -0.5020  1.5811
  323SOL     MW 1292   1.235   1.575   1.896 -0.1943  0.5731 -0.0106
  324SOL     OW 1293   1.484   0.966   2.420 -0.6710  0.5558  0.2094
  324SOL    HW1 1294   1.421   1.014   2.468  5.7884 -1.1503 -0.3895
  324SOL    HW2 1295   1.545   1.037   2.396 -3.4234  0.6480 -0.3109
  324SOL     MW 1296   1.483   0.982   2.423 -0.1819  0.3429  0.0617
  325SOL     OW 1297   1.070   0.434   2.972 -0.4245  0.7884  0.4613
  325SOL    HW1 1298   1.050   0.499   3.039  1.6449  4.0293 -1.3677
  325SOL    HW2 1299   0.986   0.449   2.915 -2.1833 -1.1535  2.2534
  325SOL     MW 1300   1.056   0.445   2.973 -0.3835  0.9598  0.4564
  326SOL     OW 1301   0.492   1.373   2.223  0.3458  0.1020  0.3938
  326SOL    HW1 1302   0.553   1.310   2.180  1.6906  0.0367 -0.5362
  326SOL    HW2 1303   0.491   1.456   2.177  2.4452 -1.5639  2.0097
  326SOL     MW 1304   0.500   1.376   2.212  0.8002 -0.1264  0.4843
  327SOL     OW 1305   1.932   0.791   2.420  0.1828  0.0142  0.0258
  327SOL    HW1 1306   1.904   0.783   2.508 -0.8153  2.4165 -0.3238
  327SOL    HW2 1307   2.024   0.822   2.419 -1.2525 -1.0950  1.4247
  327SOL     MW 1308   1.940   0.794   2.431 -0.1383  0.1848  0.1642
  328SOL     OW 1309   0.162   1.308   2.228  0.3765  0.4319  0.8607
  328SOL    HW1 1310   0.123   1.233   2.176  1.1299  1.2355  1.5886
  328SOL    HW2 1311   0.252   1.301   2.215  1.0433  0.9828  1.5705
  328SOL     MW 1312   0.168   1.297   2.220  0.5639  0.6106  1.0504
  329SOL     OW 1313   0.152   0.201   1.314 -0.0467  0.9226  0.3377
  329SOL    HW1 1314   0.109   0.209   1.399 -0.5560 -0.0874 -2.1912
  329SOL    HW2 1315   0.239   0.237   1.316 -2.0176 -3.8346  0.6464
  329SOL     MW 1316   0.158   0.206   1.325 -0.3740  0.1617  0.0448
  330SOL     OW 1317   0.390   3.101   2.065  0.4036  0.4656  0.2660
  330SOL    HW1 1318   0.465   3.095   2.129  2.1534 -1.3227  0.5386
  330SOL    HW2 1319   0.313   3.069   2.118 -1.7150 -0.8140  2.9252
  330SOL     MW 1320   0.389   3.096   2.080  0.3550  0.0609  0.6528
  331SOL     OW 1321   0.867   1.216   2.277  0.2108 -0.1175  0.1744
  331SOL    HW1 1322   0.818   1.286   2.225  0.2236  0.2532 -3.9446
  331SOL    HW2 1323   0.922   1.263   2.347 -0.1984  1.2721  3.0700
  331SOL     MW 1324   0.868   1.231   2.279  0.1585  0.1147  0.0130
  332SOL     OW 1325   1.328   1.763   3.024 -0.0455 -0.5992 -0.2994
  332SOL    HW1 1326   1.374   1.759   2.938  1.8714  2.8283 -0.9301
  332SOL    HW2 1327   1.398   1.802   3.081 -1.4894 -0.7782 -0.4581
  332SOL     MW 1328   1.343   1.767   3.020  0.0169 -0.1706 -0.4036
  333SOL     OW 1329   1.749   1.390   2.979  0.4600  0.1394  0.4854
  333SOL    HW1 1330   1.842   1.388   2.990 -3.2078 -0.0422  1.8674
  333SOL    HW2 1331   1.708   1.339   3.046 -0.5410 -1.8712  1.3868
  333SOL     MW 1332   1.756   1.383   2.989 -0.1560 -0.1498  0.7867
  334SOL     OW 1333   1.389   0.000   2.622 -0.3501  0.0197 -0.0750
  334SOL    HW1 1334   1.317   0.032   2.672  1.8735  0.8340  0.8141
  334SOL    HW2 1335   1.467   0.049   2.647 -0.1431  0.8890 -0.2165
  334SOL     MW 1336   1.390   0.011   2.632 -0.0294  0.2418  0.0237
  335SOL     OW 1337   1.361   0.766   2.958  0.0994 -0.4599 -0.7526
  335SOL    HW1 1338   1.385   0.749   3.048  0.8958  1.4830 -0.9698
  335SOL    HW2 1339   1.401   0.849   2.935  1.3016  1.8467 -1.5089
  335SOL     MW 1340   1.369   0.774   2.967  0.3631  0.1008 -0.8810
  336SOL     OW 1341   0.953   1.065   1.978 -0.0130  0.1404 -0.3841
  336SOL    HW1 1342   0.969   1.159   1.969 -0.0623  2.4680 -0.5100
  336SOL    HW2 1343   1.008   1.022   1.913 -0.6477  2.4957 -1.7496
  336SOL     MW 1344   0.962   1.072   1.968 -0.1032  0.7583 -0.5809
  337SOL     OW 1345   0.593   1.834   2.791 -0.3691  0.7269  0.3839
  337SOL    HW1 1346   0.541   1.784   2.730  0.9086  2.2384  2.2532
  337SOL    HW2 1347   0.683   1.800   2.775  0.5602 -2.8007 -1.3316
  337SOL     MW 1348   0.598   1.823   2.781 -0.0779  0.4609  0.4042
  338SOL     OW 1349   1.119   0.795   2.522  0.0645  0.3603  0.3733
  338SOL    HW1 1350   1.038   0.737   2.530 -1.8823 -1.0175  1.5776
  338SOL    HW2 1351   1.170   0.752   2.598 -1.1957 -1.6566  2.8788
  338SOL     MW 1352   1.115   0.782   2.533 -0.3587 -0.0876  0.8628
  339SOL     OW 1353   1.519   1.034   1.815 -0.8423  0.1450  0.2378
  339SOL    HW1 1354   1.469   1.082   1.751 -0.6730  0.5978  0.4896
  339SOL    HW2 1355   1.449   1.006   1.873  0.3295 -0.6635 -1.4090
  339SOL     MW 1356   1.503   1.036   1.814 -0.6654  0.0980  0.0538
  340SOL     OW 1357   1.333   1.528   0.073 -0.7029  0.8870 -0.2047
  340SOL    HW1 1358   1.348   1.609   0.032 -0.7278  2.5705  0.7533
  340SOL    HW2 1359   1.416   1.487   0.101 -0.0265 -1.2266 -0.7728
  340SOL     MW 1360   1.346   1.533   0.071 -0.6169  0.8303 -0.1533
  341SOL     OW 1361   0.161   1.422   2.740  0.3095  0.0845  0.4398
  341SOL    HW1 1362   0.222   1.407   2.669  0.2193 -0.6907  3.0971
  341SOL    HW2 1363   0.077   1.390   2.708 -1.5157  0.4126  1.4712
  341SOL     MW 1364   0.158   1.416   2.726  0.0568  0.0255  0.9265
  342SOL     OW 1365   1.290   0.350   0.086  0.1296  0.0317 -0.2080
  342SOL    HW1 1366   1.364   0.395   0.122 -0.3694 -0.5949 -0.7739
  342SOL    HW2 1367   1.293   0.354  -0.011  3.0310 -0.7527 -0.3074
  342SOL     MW 1368   1.300   0.356   0.078  0.4466 -0.1545 -0.2958
  343SOL     OW 1369   0.219   0.292   2.148 -0.1906 -0.2546 -0.0553
  343SOL    HW1 1370   0.257   0.214   2.190 -0.4264 -2.9106  2.6159
  343SOL    HW2 1371   0.210   0.272   2.054  2.8429  0.6824 -0.8631
  343SOL     MW 1372   0.223   0.279   2.141  0.1785 -0.4814  0.1906
  344SOL     OW 1373   1.721   2.072   0.179  0.5352 -0.1540 -0.0563
  344SOL    HW1 1374   1.704   2.151   0.126  0.4816 -1.1120  0.8975
  344SOL    HW2 1375   1.655   2.007   0.150  3.4943  1.3829 -2.7971
  344SOL     MW 1376   1.710   2.074   0.168  0.9185 -0.0777 -0.2921
  345SOL     OW 1377   0.769   1.594   2.355  0.3738  0.1459 -0.4120
  345SOL    HW1 1378   0.688   1.586   2.304  4.0962 -1.9568  0.5145
  345SOL    HW2 1379   0.844   1.573   2.304 -1.1309 -2.3516  0.6574
  345SOL     MW 1380   0.768   1.590   2.341  0.6664 -0.4611 -0.1487
  346SOL     OW 1381   1.765   1.047   0.008 -0.1540 -0.2340  0.4333
  346SOL    HW1 1382   1.854   1.057   0.037  0.7765 -3.4036 -3.2778
  346SOL    HW2 1383   1.714   1.007   0.077 -1.1648 -0.9035 -1.1291
  346SOL     MW 1384   1.770   1.043   0.021 -0.1646 -0.7405 -0.2625
  347SOL     OW 1385   1.244   0.726   2.281 -0.7184 -0.3633 -0.5610
  347SOL    HW1 1386   1.330   0.702   2.308 -0.1684 -1.2352 -0.1183
  347SOL    HW2 1387   1.204   0.763   2.362  0.3296 -1.0529  2.0727
  347SOL     MW 1388   1.250   0.727   2.295 -0.5076 -0.5693 -0.1551
  348SOL     OW 1389   1.425   2.676   1.904 -0.2636 -0.0037  0.6760
  348SOL    HW1 1390   1.444   2.584   1.934 -1.4482  0.9062 -0.9864
  348SOL    HW2 1391   1.440   2.735   1.980  0.4891  0.0518 -1.5531
  348SOL     MW 1392   1.430   2.671   1.918 -0.3206  0.1237  0.1625
  349SOL     OW 1393   1.497   0.282   2.699 -0.5604 -0.2508  0.4129
  349SOL    HW1 1394   1.422   0.293   2.756 -0.0537 -1.0829  0.0411
  349SOL    HW2 1395   1.574   0.294   2.759  4.2279  4.3443 -1.1192
  349SOL     MW 1396   1.497   0.285   2.714  0.1382  0.2457  0.1617
  350SOL     OW 1397   1.860   0.642   2.690 -0.5005  0.0012 -0.1227
  350SOL    HW1 1398   1.809   0.594   2.618 -3.0936  0.9826 -0.9994
  350SOL    HW2 1399   1.945   0.608   2.696 -1.4370 -0.6827 -0.8233
  350SOL     MW 1400   1.865   0.631   2.682 -0.9662  0.0404 -0.3308
  351SOL     OW 1401   0.058   0.989   1.481  0.0696  0.5400  0.1253
  351SOL    HW1 1402  -0.023   1.016   1.532 -2.2771 -3.5789  0.1202
  351SOL    HW2 1403   0.116   1.059   1.503  2.7170 -0.7156  0.5957
  351SOL     MW 1404   0.055   1.002   1.491  0.1092 -0.1691  0.1867
  352SOL     OW 1405   0.825   1.667   2.689 -0.1986 -0.8275 -0.9310
  352SOL    HW1 1406   0.854   1.634   2.776 -0.2993 -2.1093  1.0244
  352SOL    HW2 1407   0.779   1.594   2.646  0.8068  2.2226  0.7545
  352SOL     MW 1408   0.822   1.653   2.695 -0.0793 -0.5942 -0.4506
  353SOL     OW 1409   3.066   2.491   2.638 -0.1682  0.3099 -0.1154
  353SOL    HW1 1410   3.161   2.498   2.615 -2.3954  0.5862 -0.8155
  353SOL    HW2 1411   3.034   2.581   2.630  0.9306  3.4291  0.2674
  353SOL     MW 1412   3.075   2.504   2.634 -0.3171  0.7579 -0.1573
  354SOL     OW 1413   0.287   2.525   0.809 -0.0662 -0.3166 -0.2300
  354SOL    HW1 1414   0.346   2.496   0.882  1.4720 -0.9386  0.6604
  354SOL    HW2 1415   0.221   2.456   0.796  0.4222 -1.2053 -2.8816
  354SOL     MW 1416   0.286   2.512   0.817  0.2012 -0.5159 -0.4624
  355SOL     OW 1417   0.076   2.278   0.379  0.0986  0.0078 -0.1627
  355SOL    HW1 1418   0.000   2.217   0.381  1.7454 -0.7311 -1.0147
  355SOL    HW2 1419   0.057   2.342   0.446  0.1277  0.3249  0.6548
  355SOL     MW 1420   0.064   2.278   0.388  0.3198 -0.0479 -0.1673
  356SOL     OW 1421   0.805   2.806   0.964 -0.1460 -0.6852 -0.3949
  356SOL    HW1 1422   0.832   2.840   0.874  2.3065 -1.4623 -0.9564
  356SOL    HW2 1423   0.712   2.787   0.965  2.1839  1.4604 -0.1137
  356SOL     MW 1424   0.796   2.808   0.952  0.4850 -0.5047 -0.4319
  357SOL     OW 1425   1.787   2.930   0.417 -0.2857  0.2964 -0.0823
  357SOL    HW1 1426   1.730   2.859   0.456 -0.3569 -3.0257 -1.2075
  357SOL    HW2 1427   1.865   2.876   0.404  1.2250 -3.2428  0.1790
  357SOL     MW 1428   1.790   2.914   0.420 -0.0957 -0.6089 -0.1963
  358SOL     OW 1429   0.475   0.130   1.105 -0.3724  0.6875 -0.3902
  358SOL    HW1 1430   0.568   0.138   1.077  0.5535  0.3906 -0.5195
  358SOL    HW2 1431   0.420   0.154   1.021  1.6582 -0.3212 -0.3100
  358SOL     MW 1432   0.480   0.134   1.090  0.0177  0.5152 -0.3967
  359SOL     OW 1433   0.875   2.956   1.861 -0.1134 -0.0238  0.6055
  359SOL    HW1 1434   0.860   2.881   1.919  1.1773  1.4397 -1.6249
  359SOL    HW2 1435   0.924   2.907   1.797 -1.0691 -1.5742  0.6469
  359SOL     MW 1436   0.880   2.939   1.860 -0.0692 -0.0352  0.3167
  360SOL     OW 1437   0.532   2.750   0.965  0.2076  0.6468 -0.5382
  360SOL    HW1 1438   0.538   2.696   0.888  1.3132 -2.0434 -0.2375
  360SOL    HW2 1439   0.556   2.691   1.041 -2.1325 -0.6349  2.2108
  360SOL     MW 1440   0.536   2.735   0.965  0.0447  0.1227 -0.1358
  361SOL     OW 1441   0.153   2.684   1.336  0.4942 -0.2336  0.9694
  361SOL    HW1 1442   0.123   2.763   1.384  1.0045  0.2452  0.9164
  361SOL    HW2 1443   0.245   2.669   1.356 -1.3610  0.0722  1.8568
  361SOL     MW 1444   0.161   2.693   1.345  0.3168 -0.1301  1.0795
  362SOL     OW 1445   1.488   2.432   0.609 -0.1119 -0.3133 -0.0999
  362SOL    HW1 1446   1.515   2.373   0.680  4.2266  0.6564 -0.2142
  362SOL    HW2 1447   1.497   2.519   0.653  1.4948 -1.7307  0.4078
  362SOL     MW 1448   1.493   2.436   0.624  0.6726 -0.3724 -0.0480
  363SOL     OW 1449   0.333   3.067   0.695  0.4652 -0.1759 -0.3346
  363SOL    HW1 1450   0.324   2.998   0.768  0.4760 -0.7722  0.5704
  363SOL    HW2 1451   0.250   3.080   0.657  0.4873 -0.0527  1.4689
  363SOL     MW 1452   0.321   3.060   0.699  0.4696 -0.2383  0.0228
  364SOL     OW 1453   0.701   0.177   0.212  0.5129  0.7070 -0.0777
  364SOL    HW1 1454   0.639   0.099   0.215  1.3091 -2.6861  0.1028
  364SOL    HW2 1455   0.666   0.237   0.147  2.8398 -1.3106 -2.9460
  364SOL     MW 1456   0.688   0.175   0.204  0.9249 -0.0069 -0.4323
  365SOL     OW 1457   0.966   1.983   1.091  0.1083  0.2116  0.1963
  365SOL    HW1 1458   0.964   2.070   1.063 -0.5800  0.4219  0.7484
  365SOL    HW2 1459   0.903   1.937   1.032  1.0470  0.2355 -1.0005
  365SOL     MW 1460   0.958   1.989   1.079  0.1414  0.2425  0.1112
  366SOL     OW 1461   2.822   2.641   1.010 -0.1338  0.3980 -0.0301
  366SOL    HW1 1462   2.913   2.656   1.050 -1.1130  1.5116  0.6324
  366SOL    HW2 1463   2.849   2.657   0.922  0.7984 -0.4687  2.0628
  366SOL     MW 1464   2.838   2.645   1.003 -0.1400  0.4306  0.3334
  367SOL     OW 1465   1.263   2.939   0.858  0.1535 -0.0203 -1.0887
  367SOL    HW1 1466   1.231   3.001   0.798  0.6882  0.4107  3.0597
  367SOL    HW2 1467   1.224   2.856   0.820  0.4758  0.7044 -0.7317
  367SOL     MW 1468   1.254   2.936   0.845  0.2666  0.1322 -0.4943
  368SOL     OW 1469   1.651   0.409   0.690 -0.0992  0.5304 -0.0453
  368SOL    HW1 1470   1.733   0.353   0.693  1.5368 -2.0182  0.4944
  368SOL    HW2 1471   1.679   0.501   0.694  1.0289 -2.7074 -0.6808
  368SOL     MW 1472   1.665   0.414   0.691  0.2655 -0.2330 -0.0579
  369SOL     OW 1473   0.114   2.515   1.663 -0.1552  0.4789  0.3481
  369SOL    HW1 1474   0.213   2.499   1.660 -1.8460 -1.8559 -2.7695
  369SOL    HW2 1475   0.092   2.595   1.700  0.9953 -2.6173  1.7092
  369SOL     MW 1476   0.124   2.524   1.667 -0.2265 -0.2377  0.1164
  370SOL     OW 1477   0.733   0.080   0.966 -0.5092 -0.0282  0.9577
  370SOL    HW1 1478   0.818   0.123   0.982 -0.2263  1.9594 -0.9382
  370SOL    HW2 1479   0.727  -0.007   1.007 -0.6754  2.0882  1.8890
  370SOL     MW 1480   0.744   0.074   0.973 -0.4938  0.5133  0.8304
  371SOL     OW 1481   1.342   2.923   1.514  0.3052 -0.9943  0.9124
  371SOL    HW1 1482   1.288   2.849   1.486  0.4520 -1.1057 -1.2546
  371SOL    HW2 1483   1.336   2.988   1.440  0.2042  1.0791 -0.2348
  371SOL     MW 1484   1.334   2.922   1.501  0.3112 -0.7354  0.4751
  372SOL     OW 1485   0.757   2.302   0.474  0.0607 -0.2338 -0.1939
  372SOL    HW1 1486   0.740   2.207   0.490 -2.2174  1.5836 -2.5929
  372SOL    HW2 1487   0.782   2.299   0.382  0.2227  0.3352 -2.7780
  372SOL     MW 1488   0.758   2.289   0.464 -0.2185  0.0811 -0.8514
  373SOL     OW 1489   2.751   3.029   1.427  0.1491 -0.2018 -0.2869
  373SOL    HW1 1490   2.832   2.990   1.408 -1.0178 -1.2570 -1.0045
  373SOL    HW2 1491   2.749   3.107   1.372  0.7065 -0.6257  2.0386
  373SOL     MW 1492   2.761   3.034   1.417  0.0687 -0.3970 -0.0748
  374SOL     OW 1493   1.493   0.464   0.216 -0.1688  0.2510  0.5075
  374SOL    HW1 1494   1.566   0.407   0.221  0.3247 -0.2873  0.2929
  374SOL    HW2 1495   1.453   0.475   0.303  0.7535 -0.3783  2.2118
  374SOL     MW 1496   1.498   0.458   0.228  0.0180  0.0970  0.7040
  375SOL     OW 1497   1.019   2.081   2.309 -0.5415  0.2440 -0.1932
  375SOL    HW1 1498   1.054   2.062   2.396 -1.0403 -0.9250  3.4127
  375SOL    HW2 1499   1.013   1.996   2.273 -2.6047 -1.1778  1.7749
  375SOL     MW 1500   1.023   2.067   2.316 -0.8795 -0.0978  0.5422
  376SOL     OW 1501   0.650   2.582   0.067  0.5707 -0.3151  0.2618
  376SOL    HW1 1502   0.623   2.549   0.154 -0.8214  2.0653 -5.9115
  376SOL    HW2 1503   0.626   2.519   0.002  3.2324  0.5362  1.9284
  376SOL     MW 1504   0.643   2.569   0.070  0.7383  0.1113 -0.3328
  377SOL     OW 1505   1.287   2.030   0.865 -0.3737  0.3190  0.4671
  377SOL    HW1 1506   1.226   1.984   0.808  0.9505  2.0775 -1.5937
  377SOL    HW2 1507   1.286   1.967   0.940  1.7813 -1.2761 -2.1628
  377SOL     MW 1508   1.279   2.016   0.867  0.0854  0.3406 -0.1518
  378SOL     OW 1509   0.981   2.794   1.630 -0.6963 -0.2041 -0.3892
  378SOL    HW1 1510   0.950   2.706   1.649 -0.8775  1.1265  0.0344
  378SOL    HW2 1511   0.937   2.822   1.549 -2.2367 -1.7552 -2.3173
  378SOL     MW 1512   0.971   2.786   1.622 -0.9234 -0.2332 -0.5877
  379SOL     OW 1513   1.157   1.776   2.269  0.2686 -0.1095 -0.2312
  379SOL    HW1 1514   1.087   1.752   2.209 -0.9301 -1.0176  2.1580
  379SOL    HW2 1515   1.232   1.725   2.239  0.7646  0.7892  1.1140
  379SOL     MW 1516   1.158   1.766   2.257  0.1759 -0.1108  0.2615
  380SOL     OW 1517   0.772   0.066   1.560  0.1565  0.3996  0.0044
  380SOL    HW1 1518   0.850   0.082   1.501  1.5944  2.5838 -1.9221
  380SOL    HW2 1519   0.804   0.080   1.652 -0.2389 -0.5775  1.2858
  380SOL     MW 1520   0.786   0.070   1.564  0.2940  0.5588 -0.0807
  381SOL     OW 1521   0.811   2.048   0.776 -0.0218 -0.2246 -0.0003
  381SOL    HW1 1522   0.902   2.018   0.759 -0.7735  0.7636  2.7960
  381SOL    HW2 1523   0.819   2.124   0.833 -0.1491  0.0500  2.9616
  381SOL     MW 1524   0.824   2.054   0.781 -0.1378 -0.0580  0.7595
  382SOL     OW 1525   0.643   0.118   0.700  0.6405 -0.0637  0.2804
  382SOL    HW1 1526   0.675   0.104   0.799  1.0624  0.1213  1.1808
  382SOL    HW2 1527   0.580   0.051   0.678  0.8349  0.4652  2.5341
  382SOL     MW 1528   0.639   0.107   0.710  0.7219  0.0305  0.6965
  383SOL     OW 1529   0.571   3.042   0.310 -0.3163 -0.6090 -0.3457
  383SOL    HW1 1530   0.615   2.981   0.252  2.0496  0.3566 -2.0932
  383SOL    HW2 1531   0.514   2.993   0.361 -0.5219  2.7514 -1.6051
  383SOL     MW 1532   0.570   3.028   0.309 -0.0313 -0.0382 -0.7425
  384SOL     OW 1533   0.635   2.921   0.616 -0.2462 -0.5785  0.1720
  384SOL    HW1 1534   0.726   2.920   0.654  2.2334 -2.2812 -1.5158
  384SOL    HW2 1535   0.587   2.843   0.651 -2.7693 -0.9888 -0.5249
  384SOL     MW 1536   0.641   2.911   0.626 -0.2520 -0.8573 -0.1427
  385SOL     OW 1537   1.338   2.102   1.529 -0.4542 -0.1315  0.1274
  385SOL    HW1 1538   1.433   2.107   1.560  1.0684 -2.1025  1.4529
  385SOL    HW2 1539   1.295   2.027   1.565  1.0534  0.5197 -1.6504
  385SOL     MW 1540   1.345   2.093   1.538 -0.0544 -0.3056  0.0677
  386SOL     OW 1541   1.304   0.382   0.856  0.3566  0.6514  0.4295
  386SOL    HW1 1542   1.243   0.439   0.904 -2.3940  0.5288 -0.4361
  386SOL    HW2 1543   1.325   0.296   0.898  0.1056 -1.5493 -0.5437
  386SOL     MW 1544   1.299   0.378   0.868 -0.0394  0.3449  0.1869
  387SOL     OW 1545   0.854   2.171   1.483 -0.4772 -0.0595 -0.1510
  387SOL    HW1 1546   0.910   2.232   1.440 -2.4816  0.4479 -0.5383
  387SOL    HW2 1547   0.850   2.094   1.427  1.0728  0.0722  1.1955
  387SOL     MW 1548   0.861   2.169   1.470 -0.5371  0.0248 -0.0244
  388SOL     OW 1549   1.568   2.808   1.238 -0.0526 -0.0555 -0.1526
  388SOL    HW1 1550   1.490   2.800   1.186  2.1115  0.3225  0.8633
  388SOL    HW2 1551   1.633   2.781   1.175 -0.0822 -1.1892 -0.8627
  388SOL     MW 1552   1.566   2.803   1.223  0.2290 -0.1552 -0.1123
  389SOL     OW 1553   0.459   0.062   3.044  0.0093  0.3079 -0.5451
  389SOL    HW1 1554   0.553   0.045   3.020 -2.3667  0.1016  0.9947
  389SOL    HW2 1555   0.413   0.100   2.966  2.1147 -0.3362 -0.6636
  389SOL     MW 1556   0.466   0.065   3.030 -0.0264  0.1957 -0.3576
  390SOL     OW 1557   1.286   0.104   0.665  0.1512 -0.0037  0.7995
  390SOL    HW1 1558   1.346   0.094   0.591 -2.8922 -0.2502 -2.8118
  390SOL    HW2 1559   1.349   0.101   0.736 -0.8929 -0.6372 -1.1166
  390SOL     MW 1560   1.302   0.102   0.665 -0.3881 -0.1198  0.0702
  391SOL     OW 1561   0.318   2.204   1.401 -0.1360  0.9103  0.2271
  391SOL    HW1 1562   0.266   2.114   1.411  1.5960 -2.4392  2.0751
  391SOL    HW2 1563   0.242   2.265   1.398 -1.0457 -0.4660 -0.5666
  391SOL     MW 1564   0.301   2.200   1.402 -0.0275  0.2868  0.3662
  392SOL     OW 1565   2.068   2.181   0.346  0.4833  0.2693 -0.7436
  392SOL    HW1 1566   2.160   2.163   0.326 -0.4132 -2.4216  0.0557
  392SOL    HW2 1567   2.078   2.261   0.399  1.6735  2.3722  1.2949
  392SOL     MW 1568   2.081   2.189   0.350  0.5221  0.1917 -0.3692
  393SOL     OW 1569   0.154   3.024   2.754  0.3652 -0.2377 -0.4984
  393SOL    HW1 1570   0.213   3.002   2.679  0.5745 -0.7983  1.3338
  393SOL    HW2 1571   0.144   3.118   2.755 -2.3195 -0.8319  1.3865
  393SOL     MW 1572   0.161   3.033   2.744  0.0386 -0.3900 -0.0080
  394SOL     OW 1573   0.876   1.768   1.547 -0.9974  0.3073  0.4081
  394SOL    HW1 1574   0.810   1.792   1.610  1.2975  1.4797 -2.2992
  394SOL    HW2 1575   0.888   1.851   1.500  0.4434  2.1758  1.5823
  394SOL     MW 1576   0.869   1.782   1.549 -0.5045  0.7085  0.2058
  395SOL     OW 1577   1.039   2.792   2.590 -0.0593 -0.1589  0.1046
  395SOL    HW1 1578   1.077   2.882   2.599  0.6061  1.9527  0.9272
  395SOL    HW2 1579   1.111   2.743   2.556 -0.5827 -1.0212 -0.3748
  395SOL     MW 1580   1.053   2.797   2.587 -0.0405  0.0059  0.1499
  396SOL     OW 1581   0.738   1.859   2.394 -0.0027  0.4107 -0.0381
  396SOL    HW1 1582   0.815   1.879   2.449 -1.1667 -3.4732  0.8196
  396SOL    HW2 1583   0.743   1.758   2.390 -0.0961 -1.9041 -0.0839
  396SOL     MW 1584   0.749   1.848   2.401 -0.1686 -0.4071  0.0690
  397SOL     OW 1585   1.011   2.309   1.250 -0.1852 -0.2284  0.3472
  397SOL    HW1 1586   1.035   2.361   1.164 -0.8502 -1.4949 -2.4616
  397SOL    HW2 1587   1.090   2.315   1.313  2.0573 -1.1053 -1.7924
  397SOL     MW 1588   1.024   2.317   1.247  0.0229 -0.5112 -0.3057
  398SOL     OW 1589   0.531   2.666   0.705 -0.3446 -0.1716 -0.6360
  398SOL    HW1 1590   0.448   2.637   0.676  1.5995  1.1009  0.0186
  398SOL    HW2 1591   0.598   2.600   0.673  2.4466  1.2383 -0.7169
  398SOL     MW 1592   0.529   2.654   0.697  0.2802  0.1823 -0.5603
  399SOL     OW 1593   0.251   2.070   0.392  0.4803 -0.7187  0.3350
  399SOL    HW1 1594   0.196   2.145   0.403  0.3443  0.2729 -1.9658
  399SOL    HW2 1595   0.312   2.110   0.336 -1.3154  3.4632  0.2393
  399SOL     MW 1596   0.252   2.085   0.386  0.2254 -0.0361  0.0188
  400SOL     OW 1597   0.507   1.903   0.183 -0.7684  0.5563 -0.2752
  400SOL    HW1 1598   0.452   1.982   0.189 -2.7330 -0.1844 -0.7154
  400SOL    HW2 1599   0.469   1.849   0.253  1.9724  0.3907 -0.4814
  400SOL     MW 1600   0.495   1.906   0.193 -0.6660  0.4367 -0.3605
  401SOL     OW 1601   0.785   2.018   0.111  0.0929  0.3761 -0.1948
  401SOL    HW1 1602   0.852   1.948   0.136  2.6273 -0.0768  1.6651
  401SOL    HW2 1603   0.696   1.982   0.133 -0.9800  0.1344 -1.3561
  401SOL     MW 1604   0.782   2.004   0.117  0.2857  0.2845 -0.1027
  402SOL     OW 1605   0.616   3.003   1.783 -0.1780 -0.3975  0.8377
  402SOL    HW1 1606   0.699   2.974   1.822 -0.4407 -1.0228 -1.0730
  402SOL    HW2 1607   0.644   3.060   1.711  0.1408 -2.2939  1.7520
  402SOL     MW 1608   0.631   3.007   1.779 -0.1706 -0.7302  0.7062
  403SOL     OW 1609   0.095   0.413   0.360 -0.3723  0.0842 -0.7084
  403SOL    HW1 1610   0.156   0.424   0.430 -1.2776 -2.4334 -1.2463
  403SOL    HW2 1611   0.142   0.388   0.280 -3.3814 -1.9878 -1.6023
  403SOL     MW 1612   0.109   0.411   0.359 -0.8887 -0.5213 -0.8973
  404SOL     OW 1613   0.884   2.895   0.710  0.4305  0.7901  0.2745
  404SOL    HW1 1614   0.936   2.828   0.669  0.5648  0.2415  2.4684
  404SOL    HW2 1615   0.916   2.982   0.683 -0.7640  2.3789  1.6125
  404SOL     MW 1616   0.895   2.898   0.701  0.2906  0.9273  0.7405
  405SOL     OW 1617   0.511   2.374   1.487 -0.1310  0.3411  0.4370
  405SOL    HW1 1618   0.497   2.455   1.446  1.1960 -1.3169  0.5831
  405SOL    HW2 1619   0.452   2.312   1.448 -0.0533 -3.2721  0.0835
  405SOL     MW 1620   0.501   2.377   1.477  0.0543 -0.3544  0.4096
  406SOL     OW 1621   0.382   2.384   1.024  0.0969  0.4656 -0.7371
  406SOL    HW1 1622   0.293   2.403   1.051  1.4080 -0.4015 -3.1506
  406SOL    HW2 1623   0.404   2.299   1.067 -0.4720  0.3544  1.9414
  406SOL     MW 1624   0.373   2.375   1.033  0.1948  0.3365 -0.7021
  407SOL     OW 1625   3.065   2.704   1.151 -0.5721 -0.0835 -0.2656
  407SOL    HW1 1626   3.139   2.685   1.218  2.1249 -2.0049 -0.7273
  407SOL    HW2 1627   3.112   2.714   1.067  0.1282  0.4947  0.3177
  407SOL     MW 1628   3.081   2.703   1.149 -0.1238 -0.2607 -0.2496
  408SOL     OW 1629   2.141   2.077   0.774  0.0853  0.1680 -0.6173
  408SOL    HW1 1630   2.056   2.065   0.820 -1.0851  1.1296  0.2848
  408SOL    HW2 1631   2.125   2.091   0.682  3.1064 -1.5785  0.8679
  408SOL     MW 1632   2.127   2.078   0.768  0.3295  0.0644 -0.3023
  409SOL     OW 1633   1.454   0.121   0.894  0.6330  0.0507  0.1569
  409SOL    HW1 1634   1.526   0.182   0.914  1.4883 -0.8098  1.9421
  409SOL    HW2 1635   1.438   0.065   0.968 -0.0114 -1.9096 -0.4999
  409SOL     MW 1636   1.461   0.122   0.906  0.6609 -0.3215  0.3058
  410SOL     OW 1637   1.102   2.469   1.050 -0.1137  0.1644  0.0347
  410SOL    HW1 1638   1.025   2.488   0.993 -1.9095  1.9125 -1.9333
  410SOL    HW2 1639   1.157   2.409   0.998  0.0512 -0.2337  0.4669
  410SOL     MW 1640   1.099   2.464   1.035 -0.3289  0.3425 -0.1679
  411SOL     OW 1641   1.972   0.033   2.886  0.0622 -0.2436  0.2036
  411SOL    HW1 1642   1.920  -0.002   2.815 -0.2729  0.4828  1.3848
  411SOL    HW2 1643   1.917   0.092   2.935  0.7773 -1.9557  0.0542
  411SOL     MW 1644   1.958   0.036   2.883  0.1123 -0.3736  0.3397
  412SOL     OW 1645   0.998   2.264   0.612 -0.1495  0.2953 -0.2820
  412SOL    HW1 1646   1.059   2.330   0.649 -0.7653  3.3100  3.3850
  412SOL    HW2 1647   0.923   2.298   0.570  3.3568  2.1867  0.8885
  412SOL     MW 1648   0.996   2.277   0.612  0.2319  0.9426  0.3563
  413SOL     OW 1649   0.521   2.812   3.046 -0.0100  0.0603  0.0847
  413SOL    HW1 1650   0.558   2.731   3.077  0.6435 -1.5924 -2.5228
  413SOL    HW2 1651   0.571   2.832   2.970  3.0601  0.5724 -2.4384
  413SOL     MW 1652   0.533   2.804   3.040  0.4813 -0.0902 -0.5922
  414SOL     OW 1653   1.923   2.852   1.067 -0.1662 -0.0803  0.1584
  414SOL    HW1 1654   1.902   2.887   0.979 -1.1486 -0.5898 -0.9785
  414SOL    HW2 1655   2.018   2.828   1.074 -1.5327 -0.9067  0.3158
  414SOL     MW 1656   1.933   2.854   1.056 -0.4761 -0.2566  0.0292
  415SOL     OW 1657   1.770   2.635   1.097  0.2557  0.0807 -0.0489
  415SOL    HW1 1658   1.775   2.607   1.184  1.5691  0.6867 -0.4204
  415SOL    HW2 1659   1.828   2.714   1.088  0.4657 -0.5315 -5.7206
  415SOL     MW 1660   1.778   2.641   1.107  0.4567  0.0799 -0.8462
  416SOL     OW 1661   0.515   1.929   1.360  0.4400 -0.3803  0.9497
  416SOL    HW1 1662   0.472   1.996   1.307  1.9881 -0.5120 -0.7099
  416SOL    HW2 1663   0.448   1.855   1.382  0.7904 -3.7438  0.3457
  416SOL     MW 1664   0.500   1.928   1.356  0.6905 -0.8415  0.6511
  417SOL     OW 1665   1.036   3.080   2.077 -0.5652  0.4596  0.3832
  417SOL    HW1 1666   0.977   3.068   2.154  3.0641  1.9374 -0.3224
  417SOL    HW2 1667   0.979   3.029   2.008 -1.5982 -2.5859 -1.9342
  417SOL     MW 1668   1.021   3.071   2.078 -0.2226  0.2527 -0.0157
  418SOL     OW 1669   0.728   2.896   0.146  0.1306  0.2994 -0.0644
  418SOL    HW1 1670   0.795   2.935   0.089  2.4793  0.6043  2.3128
  418SOL    HW2 1671   0.660   2.869   0.084  1.9297  1.3599 -0.5181
  418SOL     MW 1672   0.728   2.897   0.130  0.6779  0.4795  0.1894
  419SOL     OW 1673   0.436   2.657   1.400 -0.1744 -0.1735 -0.6347
  419SOL    HW1 1674   0.498   2.717   1.456 -0.3989 -0.3849 -0.5276
  419SOL    HW2 1675   0.483   2.635   1.320  0.2324  0.1654  2.7527
  419SOL     MW 1676   0.450   2.662   1.397 -0.1504 -0.1567 -0.1737
  420SOL     OW 1677   0.893   2.258   0.966  0.0506  0.7272  0.2968
  420SOL    HW1 1678   0.836   2.266   1.044 -1.7005  1.2405 -1.4487
  420SOL    HW2 1679   0.848   2.315   0.900  0.9910  3.3323 -1.0127
  420SOL     MW 1680   0.880   2.266   0.967 -0.0564  1.1386 -0.1063
  421SOL     OW 1681   2.943   0.045   3.092 -0.9693 -0.0996 -0.8329
  421SOL    HW1 1682   2.902   0.013   3.009 -0.2168  0.2826 -3.4465
  421SOL    HW2 1683   2.969  -0.039   3.139  1.3236  1.6916  0.7089
  421SOL     MW 1684   2.941   0.030   3.087 -0.5675  0.1872 -0.9743
  422SOL     OW 1685   0.887   2.568   0.887 -0.4471  0.3123  0.1077
  422SOL    HW1 1686   0.872   2.660   0.912 -0.2075  0.5639 -2.1886
  422SOL    HW2 1687   0.840   2.553   0.803  4.4636  0.4474  0.9233
  422SOL     MW 1688   0.879   2.578   0.879  0.2324  0.3633 -0.0877
  423SOL     OW 1689   1.491   0.108   0.501 -0.6359 -0.2748  0.1124
  423SOL    HW1 1690   1.493   0.087   0.406 -1.4938  1.6305  0.5269
  423SOL    HW2 1691   1.500   0.206   0.516  3.8232 -0.2043  2.4081
  423SOL     MW 1692   1.493   0.118   0.491 -0.1607 -0.0141  0.4700
  424SOL     OW 1693   0.702   2.269   1.185  0.5475 -0.0476  0.0685
  424SOL    HW1 1694   0.632   2.209   1.189  1.5141  0.1448 -0.1894
  424SOL    HW2 1695   0.758   2.250   1.260  1.1655  1.5915  3.1411
  424SOL     MW 1696   0.700   2.259   1.196  0.7565  0.1940  0.4398
  425SOL     OW 1697   1.739   2.823   2.001  0.2652  0.3092  0.3663
  425SOL    HW1 1698   1.726   2.836   1.906  0.4680  0.1408  0.6809
  425SOL    HW2 1699   1.781   2.740   2.024 -0.3491 -1.9481 -0.0448
  425SOL     MW 1700   1.743   2.814   1.991  0.2109 -0.0108  0.3536
  426SOL     OW 1701   0.801   1.698   1.950  0.2771 -0.2605 -0.0432
  426SOL    HW1 1702   0.759   1.744   1.870 -0.1058  2.0894  1.6475
  426SOL    HW2 1703   0.821   1.770   2.015 -3.2921  0.7275 -2.6316
  426SOL     MW 1704   0.798   1.714   1.948 -0.2443  0.1799 -0.1617
  427SOL     OW 1705   0.376   1.638   1.918 -0.3575  0.4804  0.6595
  427SOL    HW1 1706   0.427   1.554   1.920  1.8796  0.4437 -3.8184
  427SOL    HW2 1707   0.292   1.616   1.961 -0.0317  0.0802  3.2429
  427SOL     MW 1708   0.372   1.624   1.923 -0.0193  0.4227  0.4096
  428SOL     OW 1709   0.582   2.581   1.171 -0.4792  0.7468 -0.2247
  428SOL    HW1 1710   0.665   2.553   1.228  1.9085 -1.5621 -0.1739
  428SOL    HW2 1711   0.544   2.501   1.139  2.1076 -1.2816  0.8779
  428SOL     MW 1712   0.588   2.567   1.174  0.1771  0.1745 -0.0725
  429SOL     OW 1713   1.317   2.760   1.101 -0.6702  0.4102 -0.3678
  429SOL    HW1 1714   1.245   2.702   1.121  0.5275  0.8310 -0.3564
  429SOL    HW2 1715   1.279   2.835   1.053  0.7276  2.7763 -0.2842
  429SOL     MW 1716   1.303   2.762   1.097 -0.3278  0.7779 -0.3553
  430SOL     OW 1717   1.153   2.729   0.736 -0.0007  0.5124  0.3705
  430SOL    HW1 1718   1.184   2.645   0.766  1.3836  1.0564 -0.3744
  430SOL    HW2 1719   1.113   2.708   0.647 -1.7995  0.9996 -1.5009
  430SOL     MW 1720   1.152   2.715   0.728 -0.0554  0.6485  0.0253
  431SOL     OW 1721   0.340   1.921   1.077  0.5025  0.0296 -0.3074
  431SOL    HW1 1722   0.414   1.858   1.075 -0.6454 -3.6220  0.0608
  431SOL    HW2 1723   0.317   1.943   0.983  2.3017 -0.8041 -3.5054
  431SOL     MW 1724   0.347   1.916   1.064  0.5884 -0.5622 -0.6807
  432SOL     OW 1725   0.054   3.086   1.174  0.3687  0.4259  0.6827
  432SOL    HW1 1726   0.047   3.153   1.241  0.6658 -1.1860 -0.3339
  432SOL    HW2 1727  -0.026   3.039   1.194  2.8170 -0.8317  1.3575
  432SOL     MW 1728   0.042   3.089   1.186  0.7309  0.0473  0.6376
  433SOL     OW 1729   0.625   2.849   1.537  0.7637 -0.2941  0.2906
  433SOL    HW1 1730   0.638   2.908   1.611 -1.6607  0.9387 -4.6011
  433SOL    HW2 1731   0.711   2.859   1.490  1.0373 -2.4932 -2.9263
  433SOL     MW 1732   0.638   2.858   1.541  0.4799 -0.4216 -0.7793
  434SOL     OW 1733   1.594   2.837   1.515 -1.1582 -0.0541  0.5383
  434SOL    HW1 1734   1.498   2.861   1.516 -0.0760 -1.7162  2.3779
  434SOL    HW2 1735   1.624   2.803   1.428  0.9706 -0.4768  0.8323
  434SOL     MW 1736   1.585   2.836   1.504 -0.7345 -0.3292  0.8198
  435SOL     OW 1737   2.832   1.814   0.227  0.3400 -0.2226  0.0049
  435SOL    HW1 1738   2.876   1.892   0.180  2.2560 -0.1897 -0.2806
  435SOL    HW2 1739   2.781   1.760   0.160  0.0684 -0.9260  0.9024
  435SOL     MW 1740   2.831   1.817   0.212  0.5570 -0.3111  0.0856
  436SOL     OW 1741   1.344   2.772   0.390  0.0867 -0.6218  0.2869
  436SOL    HW1 1742   1.432   2.779   0.439 -0.5477  0.0602  2.5433
  436SOL    HW2 1743   1.289   2.855   0.420 -0.8460 -0.4154  1.3092
  436SOL     MW 1744   1.348   2.784   0.400 -0.1201 -0.5046  0.7195
  437SOL     OW 1745   0.856   2.901   1.398 -0.9862  0.9430  0.0322
  437SOL    HW1 1746   0.863   2.998   1.404  2.2565  0.6551 -1.3684
  437SOL    HW2 1747   0.903   2.877   1.318 -0.4710 -1.3546  0.1916
  437SOL     MW 1748   0.863   2.910   1.388 -0.4904  0.6019 -0.1315
  438SOL     OW 1749   0.855   2.669   1.912  0.0937  0.2560 -0.3174
  438SOL    HW1 1750   0.820   2.647   1.993 -0.0800  4.3839 -2.1037
  438SOL    HW2 1751   0.820   2.603   1.850  0.1643  1.2507 -0.6463
  438SOL     MW 1752   0.845   2.658   1.915  0.0801  0.9319 -0.5965
  439SOL     OW 1753   1.156   2.139   0.439  1.0010 -0.1013  0.5875
  439SOL    HW1 1754   1.090   2.186   0.503 -0.7987  2.8045 -0.1143
  439SOL    HW2 1755   1.147   2.202   0.362  0.1018 -0.5735 -0.1032
  439SOL     MW 1756   1.146   2.154   0.437  0.6449  0.2198  0.4038
  440SOL     OW 1757   1.716   2.986   0.011  0.3021 -0.4617  0.4615
  440SOL    HW1 1758   1.663   2.951   0.079  0.2638  2.4466 -1.9284
  440SOL    HW2 1759   1.804   2.944   0.022 -0.3983  0.9354  1.8070
  440SOL     MW 1760   1.721   2.976   0.022  0.2046  0.1064  0.3237
  441SOL     OW 1761   0.330   2.643   0.489  0.4728 -0.3150 -0.3331
  441SOL    HW1 1762   0.307   2.626   0.401 -1.3253  0.3973  2.1958
  441SOL    HW2 1763   0.362   2.738   0.487  0.5066 -0.6244 -0.9386
  441SOL     MW 1764   0.331   2.653   0.477  0.2400 -0.2618 -0.0793
  442SOL     OW 1765   3.071   2.397   0.623 -0.4089  0.6035 -0.2782
  442SOL    HW1 1766   3.095   2.483   0.604 -0.3349 -2.2387  2.0331
  442SOL    HW2 1767   2.984   2.402   0.653  0.1352  0.3021 -0.7343
  442SOL     MW 1768   3.063   2.409   0.624 -0.3274  0.1887 -0.0334
  443SOL     OW 1769   1.411   1.800   1.932 -0.1743 -0.6047  0.0786
  443SOL    HW1 1770   1.384   1.828   1.845 -3.6968 -1.5183  0.5391
  443SOL    HW2 1771   1.352   1.727   1.942  0.3085 -3.5776 -0.6643
  443SOL     MW 1772   1.400   1.794   1.922 -0.5754 -1.1175  0.0413
  444SOL     OW 1773   0.887   2.535   1.590  0.3920 -0.2500 -0.2678
  444SOL    HW1 1774   0.956   2.476   1.623  0.1062 -0.7922  0.3900
  444SOL    HW2 1775   0.803   2.510   1.634 -2.8622 -1.5928 -0.4358
  444SOL     MW 1776   0.885   2.524   1.600 -0.0751 -0.4987 -0.2032
  445SOL     OW 1777   0.924   0.082   1.338  0.5463  0.3106  0.5490
  445SOL    HW1 1778   0.906   0.178   1.326  1.8388  0.6475 -1.3903
  445SOL    HW2 1779   1.004   0.071   1.296  0.7846 -1.3759 -0.2968
  445SOL     MW 1780   0.932   0.093   1.331  0.7483  0.1325  0.1816
  446SOL     OW 1781   2.725   2.889   1.088  0.2392  0.0085  0.2065
  446SOL    HW1 1782   2.689   2.929   1.011 -0.6050 -1.1024  1.9295
  446SOL    HW2 1783   2.768   2.809   1.051 -1.2303 -0.3922  1.0233
  446SOL     MW 1784   2.726   2.884   1.073 -0.0661 -0.1910  0.5416
  447SOL     OW 1785   0.053   2.036   1.669  0.7063  0.1096 -0.4341
  447SOL    HW1 1786   0.112   1.965   1.705  1.7480 -2.4280 -0.3631
  447SOL    HW2 1787  -0.028   1.996   1.644 -0.8354 -2.1738  1.8222
  447SOL     MW 1788   0.050   2.022   1.670  0.6403 -0.5265 -0.1270
  448SOL     OW 1789   1.699   2.394   1.655  0.0120  0.1444 -0.8096
  448SOL    HW1 1790   1.650   2.314   1.649  0.5604  3.0860 -0.7410
  448SOL    HW2 1791   1.635   2.470   1.659 -2.5113  1.4892  0.1025
  448SOL     MW 1792   1.684   2.394   1.655 -0.2486  0.7100 -0.6802
  449SOL     OW 1793   0.771   2.826   0.412  0.3951 -0.4723 -0.3418
  449SOL    HW1 1794   0.731   2.805   0.327  0.3309  0.2494 -1.5777
  449SOL    HW2 1795   0.706   2.848   0.478  2.2246  0.7529  0.2049
  449SOL     MW 1796   0.757   2.826   0.409  0.6280 -0.2154 -0.4327
  450SOL     OW 1797   1.213   2.440   0.682  0.0825 -0.2383  0.5044
  450SOL    HW1 1798   1.228   2.388   0.759  1.0695  2.3737 -3.3292
  450SOL    HW2 1799   1.293   2.440   0.625 -2.3541 -0.2786 -0.8330
  450SOL     MW 1800   1.226   2.433   0.685 -0.1087  0.1010 -0.1779
  451SOL     OW 1801   0.548   2.028   1.623  0.5381  0.0925 -0.2543
  451SOL    HW1 1802   0.609   2.106   1.611  1.4934  2.0494 -0.6911
  451SOL    HW2 1803   0.537   2.002   1.531 -1.8073  0.0591 -0.4411
  451SOL     MW 1804   0.554   2.035   1.609  0.3546  0.3463 -0.3366
  452SOL     OW 1805   0.257   2.735   0.015  0.1241  0.8362 -0.0399
  452SOL    HW1 1806   0.344   2.770  -0.008  1.8758  3.2165  0.0592
  452SOL    HW2 1807   0.195   2.777  -0.046  2.1223 -0.0963  1.3639
  452SOL     MW 1808   0.260   2.745   0.004  0.6188  1.0272  0.1584
  453SOL     OW 1809   0.353   2.888   1.689 -0.3144 -0.1609  0.2735
  453SOL    HW1 1810   0.440   2.913   1.727 -2.0356  1.1059  1.5383
  453SOL    HW2 1811   0.345   2.926   1.605  1.0536 -2.6022 -0.9418
  453SOL     MW 1812   0.364   2.896   1.683 -0.3610 -0.3158  0.2800
  454SOL     OW 1813   1.005   2.749   1.188 -0.0068 -0.2419  0.2433
  454SOL    HW1 1814   0.978   2.664   1.223  1.7194 -2.8281 -0.1793
  454SOL    HW2 1815   0.953   2.759   1.106  0.3611 -0.6066  0.9599
  454SOL     MW 1816   0.995   2.739   1.182  0.2695 -0.6312  0.2820
  455SOL     OW 1817   1.596   2.910   0.231  0.3447  0.1839 -0.2574
  455SOL    HW1 1818   1.660   2.919   0.300 -2.4752  1.1571 -0.7514
  455SOL    HW2 1819   1.567   2.811   0.223  2.0108 -0.1870 -1.5466
  455SOL     MW 1820   1.601   2.898   0.239  0.1925  0.2634 -0.4927
  456SOL     OW 1821   2.833   0.335   1.375 -0.0719  0.3440  0.3618
  456SOL    HW1 1822   2.778   0.264   1.334  1.0198  2.0611  1.4449
  456SOL    HW2 1823   2.926   0.336   1.341 -0.1756  1.9564  0.5963
  456SOL     MW 1824   2.838   0.326   1.365  0.0585  0.7833  0.5357
  457SOL     OW 1825   0.961   1.579   2.916  0.3399  0.0014 -0.1933
  457SOL    HW1 1826   0.908   1.515   2.965  1.7071 -1.2142  0.0415
  457SOL    HW2 1827   1.038   1.527   2.908 -1.7280 -0.7333  1.9336
  457SOL     MW 1828   0.964   1.564   2.921  0.2474 -0.2559  0.1183
  458SOL     OW 1829   1.498   1.406   0.548  0.0746  0.1532 -0.3042
  458SOL    HW1 1830   1.430   1.472   0.564  1.9263  0.2112  1.4710
  458SOL    HW2 1831   1.462   1.359   0.470 -1.0888  0.1636 -1.7283
  458SOL     MW 1832   1.484   1.408   0.540  0.1654  0.1622 -0.2579
  459SOL     OW 1833   1.479   0.055   0.236 -0.3501 -0.1348 -0.1497
  459SOL    HW1 1834   1.507  -0.038   0.245  0.2981 -0.1565  1.4876
  459SOL    HW2 1835   1.400   0.035   0.193  0.6962 -0.5848 -1.4807
  459SOL     MW 1836   1.472   0.040   0.232 -0.1265 -0.1971 -0.1093
  460SOL     OW 1837   1.780   2.201   0.602  0.0665  0.3171 -0.5129
  460SOL    HW1 1838   1.701   2.155   0.633 -0.0550 -0.4308 -2.5277
  460SOL    HW2 1839   1.848   2.133   0.581 -0.2288 -0.8056  2.9801
  460SOL     MW 1840   1.778   2.186   0.603  0.0115  0.0703 -0.3179
  461SOL     OW 1841   0.394   2.384   0.582 -0.6927 -0.2371 -0.1801
  461SOL    HW1 1842   0.375   2.464   0.535  2.9870  2.1927  1.9332
  461SOL    HW2 1843   0.353   2.405   0.666  1.0546  2.9544  2.8354
  461SOL     MW 1844   0.386   2.397   0.587  0.0233  0.5046  0.4966
  462SOL     OW 1845   0.403   0.309   1.311  0.5231  1.1655 -0.1655
  462SOL    HW1 1846   0.427   0.244   1.248  1.5734  3.4558 -0.0135
  462SOL    HW2 1847   0.488   0.352   1.337 -0.1680 -2.2488 -0.4972
  462SOL     MW 1848   0.417   0.306   1.306  0.5705  1.0172 -0.1892
  463SOL     OW 1849   0.907   0.062   0.641 -0.1964  0.0156 -0.4714
  463SOL    HW1 1850   0.936   0.066   0.547  0.6764  0.3593 -1.6346
  463SOL    HW2 1851   0.818   0.101   0.645 -0.4843  1.4529  1.5120
  463SOL     MW 1852   0.899   0.067   0.629 -0.1193  0.2506 -0.3632
  464SOL     OW 1853   0.853   3.026   2.281 -0.4069 -0.4112 -0.0267
  464SOL    HW1 1854   0.806   2.944   2.261  2.0058 -0.9394  0.8006
  464SOL    HW2 1855   0.852   3.043   2.378 -0.2647  2.9933  3.8504
  464SOL     MW 1856   0.847   3.018   2.291 -0.0698 -0.0317  0.5940
  465SOL     OW 1857   0.663   0.296   0.500  0.0201 -0.0705 -0.5147
  465SOL    HW1 1858   0.638   0.241   0.576 -0.9018 -1.1274 -1.8556
  465SOL    HW2 1859   0.663   0.247   0.417  0.8735 -1.5974 -0.8441
  465SOL     MW 1860   0.660   0.282   0.499  0.0110 -0.4114 -0.7351
  466SOL     OW 1861   1.074   1.977   0.694 -0.0333 -0.3662  0.0606
  466SOL    HW1 1862   1.053   1.888   0.660  1.6200 -2.5204  0.6472
  466SOL    HW2 1863   1.084   2.041   0.619 -1.7936  1.3233 -1.4012
  466SOL     MW 1864   1.073   1.974   0.680 -0.0474 -0.4275 -0.0549
  467SOL     OW 1865   1.269   2.291   0.893 -0.3899  0.0781  0.1878
  467SOL    HW1 1866   1.361   2.293   0.899 -1.2995 -1.5078  1.2437
  467SOL    HW2 1867   1.254   2.194   0.887  0.6694  0.3222 -2.6065
  467SOL     MW 1868   1.279   2.279   0.893 -0.3701 -0.0989 -0.0415
  468SOL     OW 1869   0.389   2.624   1.986  0.2292  0.2295  0.2216
  468SOL    HW1 1870   0.388   2.583   1.904 -0.7714  1.0315  0.1906
  468SOL    HW2 1871   0.337   2.701   1.959  0.4192 -0.8725  1.0772
  468SOL     MW 1872   0.382   2.629   1.972  0.1222  0.1899  0.3304
  469SOL     OW 1873   0.375   2.175   1.798 -0.5149  0.0471 -0.1030
  469SOL    HW1 1874   0.307   2.108   1.792  1.9146 -0.3231 -2.4325
  469SOL    HW2 1875   0.443   2.148   1.735  1.3918  0.2414 -1.3550
  469SOL     MW 1876   0.375   2.163   1.789  0.0573  0.0239 -0.5756
  470SOL     OW 1877   3.035   2.578   0.092 -0.0625  0.8988 -0.4335
  470SOL    HW1 1878   2.954   2.527   0.104  1.1724  0.6735 -2.8508
  470SOL    HW2 1879   3.021   2.623   0.007  1.9055  2.9738 -0.5336
  470SOL     MW 1880   3.023   2.577   0.082  0.3601  1.1429 -0.7656
  471SOL     OW 1881   1.166   2.720   1.422  0.0058 -0.3933  0.1147
  471SOL    HW1 1882   1.113   2.736   1.500  0.2222  0.1061  0.5298
  471SOL    HW2 1883   1.115   2.752   1.347  0.1920 -3.6476  0.8740
  471SOL     MW 1884   1.153   2.726   1.422  0.0589 -0.7567  0.2697
  472SOL     OW 1885   2.955   2.102   0.390 -0.0034 -0.2053 -0.6489
  472SOL    HW1 1886   2.979   2.065   0.298  0.4764  0.5386 -2.9589
  472SOL    HW2 1887   2.919   2.027   0.441  2.8362 -0.4456  1.0321
  472SOL     MW 1888   2.953   2.087   0.384  0.4346 -0.1389 -0.7319
  473SOL     OW 1889   0.865   2.547   1.310  0.6991  0.6816  0.2746
  473SOL    HW1 1890   0.905   2.466   1.273 -1.6335 -0.6374 -1.3641
  473SOL    HW2 1891   0.889   2.542   1.402 -0.5046  0.6180 -0.5349
  473SOL     MW 1892   0.873   2.535   1.317  0.2325  0.4992 -0.0484
  474SOL     OW 1893   0.820   2.166   1.768 -0.0496 -0.2655  0.1259
  474SOL    HW1 1894   0.890   2.218   1.821 -1.3395  1.1763  2.9201
  474SOL    HW2 1895   0.845   2.174   1.677  0.2186  2.2610  2.6690
  474SOL     MW 1896   0.833   2.174   1.763 -0.1844  0.2581  0.8301
  475SOL     OW 1897   1.632   0.011   1.450  0.6959  0.3697 -0.5280
  475SOL    HW1 1898   1.551   0.056   1.443  2.3288 -0.5786 -2.3651
  475SOL    HW2 1899   1.619  -0.077   1.480 -0.4706  2.8593  0.5413
  475SOL     MW 1900   1.619   0.005   1.453  0.7575  0.5731 -0.6293
  476SOL     OW 1901   1.448   2.609   0.877 -0.5331 -0.1858  0.0390
  476SOL    HW1 1902   1.438   2.628   0.977  0.3935  2.2111  3.2682
  476SOL    HW2 1903   1.481   2.692   0.839 -0.4060  0.2236  0.5722
  476SOL     MW 1904   1.451   2.622   0.886 -0.3941  0.1845  0.5354
  477SOL     OW 1905   0.761   2.535   0.640  0.3375  0.0396  0.1213
  477SOL    HW1 1906   0.809   2.574   0.570  0.0768 -0.0889  0.2455
  477SOL    HW2 1907   0.739   2.446   0.613  1.3136 -0.7563  0.9838
  477SOL     MW 1908   0.764   2.528   0.627  0.4319 -0.0824  0.2515
  478SOL     OW 1909   0.114   2.702   0.929  0.1004  0.0407  0.0455
  478SOL    HW1 1910   0.196   2.752   0.949  2.8710  1.9925 -0.2927
  478SOL    HW2 1911   0.160   2.650   0.853 -0.0236  2.5687 -2.1983
  478SOL     MW 1912   0.131   2.702   0.922  0.4496  0.6318 -0.2952
  479SOL     OW 1913   1.419   1.961   1.295 -0.0095  0.2571  0.3077
  479SOL    HW1 1914   1.394   2.012   1.373  2.8528  0.0817 -2.3782
  479SOL    HW2 1915   1.489   1.895   1.324 -0.0894 -1.2260  0.6483
  479SOL     MW 1916   1.425   1.959   1.309  0.3576  0.0383 -0.0017
  480SOL     OW 1917   1.893   2.335   1.355  0.2889 -0.2556  0.0673
  480SOL    HW1 1918   1.909   2.240   1.367  2.0420 -0.6241 -1.2832
  480SOL    HW2 1919   1.969   2.362   1.295 -0.5454  2.5467  0.3910
  480SOL     MW 1920   1.905   2.326   1.349  0.4101  0.0655 -0.0682
  481SOL     OW 1921   1.144   3.071   1.119 -1.2021 -0.2179 -0.3447
  481SOL    HW1 1922   1.224   3.061   1.066 -1.1013 -0.4629  0.8682
  481SOL    HW2 1923   1.134   3.167   1.121 -1.0488 -2.2550 -1.2803
  481SOL     MW 1924   1.153   3.083   1.112 -1.1686 -0.5190 -0.3081
  482SOL     OW 1925   0.941   3.051   0.363  0.4319 -0.1562 -0.6119
  482SOL    HW1 1926   0.856   3.001   0.362  0.9558 -1.2337 -1.3051
  482SOL    HW2 1927   0.924   3.139   0.324  0.3102  0.0376 -0.7457
  482SOL     MW 1928   0.928   3.056   0.358  0.4849 -0.2728 -0.7210
  483SOL     OW 1929   0.359   2.915   0.469  0.3639 -0.4994  0.1332
  483SOL    HW1 1930   0.264   2.915   0.436 -0.1224  1.1441  0.4856
  483SOL    HW2 1931   0.357   2.965   0.556  1.0001 -0.1760  0.9809
  483SOL     MW 1932   0.347   2.922   0.476  0.3836 -0.2399  0.2915
  484SOL     OW 1933   1.677   1.816   1.394 -0.5973  0.4495  0.4420
  484SOL    HW1 1934   1.724   1.890   1.353 -1.1335  0.4264 -0.1233
  484SOL    HW2 1935   1.688   1.844   1.485  0.1211 -0.3306 -0.0449
  484SOL     MW 1936   1.685   1.830   1.400 -0.5732  0.3435  0.3032
  485SOL     OW 1937   0.534   2.443   0.302  0.0402  0.5270 -0.3725
  485SOL    HW1 1938   0.556   2.428   0.400  1.4262 -1.2191  2.5990
  485SOL    HW2 1939   0.450   2.485   0.308  0.3267  0.3122 -2.2042
  485SOL     MW 1940   0.526   2.447   0.316  0.2609  0.2683 -0.2221
  486SOL     OW 1941   0.125   2.411   1.418  0.0895 -0.3460  0.4823
  486SOL    HW1 1942   0.131   2.492   1.367 -0.3650  0.1829 -0.0602
  486SOL    HW2 1943   0.132   2.442   1.512  1.4108 -4.4823 -0.2197
  486SOL     MW 1944   0.127   2.426   1.424  0.2039 -0.8220  0.3181
  487SOL     OW 1945   1.271   1.576   1.067 -0.0282  0.1120 -0.0760
  487SOL    HW1 1946   1.271   1.673   1.071 -0.7787 -0.4324  1.7594
  487SOL    HW2 1947   1.352   1.562   1.008  1.9060  0.5378 -3.2507
  487SOL     MW 1948   1.282   1.587   1.060  0.1280  0.0963 -0.2527
  488SOL     OW 1949   1.683   1.876   0.553  0.4942  0.3563 -0.1937
  488SOL    HW1 1950   1.768   1.920   0.568 -1.1814 -1.9529  1.8817
  488SOL    HW2 1951   1.624   1.950   0.573  0.6549  1.8001 -1.9807
  488SOL     MW 1952   1.687   1.891   0.558  0.2943  0.2421 -0.1556
  489SOL     OW 1953   0.685   0.756   0.569 -0.0543  0.1878 -0.3941
  489SOL    HW1 1954   0.733   0.673   0.559 -2.0575 -2.6364 -0.6161
  489SOL    HW2 1955   0.648   0.761   0.654 -1.7966 -3.2354 -0.8194
  489SOL     MW 1956   0.687   0.746   0.579 -0.5485 -0.6365 -0.4795
  490SOL     OW 1957   1.423   2.061   0.412 -0.0504 -0.8490 -0.2817
  490SOL    HW1 1958   1.477   2.124   0.364  0.7019  1.2803 -3.2652
  490SOL    HW2 1959   1.335   2.092   0.396  1.5466 -3.7700 -1.8000
  490SOL     MW 1960   1.419   2.073   0.403  0.2596 -0.9534 -0.8757
  491SOL     OW 1961   1.186   2.983   0.474 -0.4558 -0.3030 -0.1614
  491SOL    HW1 1962   1.211   3.028   0.551  2.2337 -0.9797 -0.2732
  491SOL    HW2 1963   1.111   3.030   0.435  2.1388 -1.1991  0.3388
  491SOL     MW 1964   1.179   2.995   0.479  0.2414 -0.5105 -0.1101
  492SOL     OW 1965   1.547   2.073   0.668 -0.3324 -1.0278  0.0770
  492SOL    HW1 1966   1.470   2.081   0.616  1.7704  1.5796  2.0038
  492SOL    HW2 1967   1.518   2.043   0.757  1.5647 -0.3479  1.9211
  492SOL     MW 1968   1.533   2.070   0.673  0.1953 -0.5941  0.5745
  493SOL     OW 1969   0.115   2.913   0.350  0.0157  0.0901 -0.4359
  493SOL    HW1 1970   0.100   2.985   0.415  0.9491 -0.2013  0.5707
  493SOL    HW2 1971   0.156   2.959   0.278  0.0679 -0.0622  1.9879
  493SOL     MW 1972   0.119   2.928   0.349  0.1457  0.0316  0.0167
  494SOL     OW 1973   0.388   2.446   1.722  0.1808  0.3274 -0.0470
  494SOL    HW1 1974   0.381   2.347   1.731  1.8164 -0.7609  0.4021
  494SOL    HW2 1975   0.444   2.458   1.642  0.4666  0.4601 -4.1373
  494SOL     MW 1976   0.395   2.435   1.713  0.4343  0.2013 -0.5274
  495SOL     OW 1977   2.916   1.703   2.690  0.3907 -0.0094 -0.9196
  495SOL    HW1 1978   2.899   1.796   2.707 -0.2314 -0.3742  0.5484
  495SOL    HW2 1979   2.894   1.664   2.779 -2.0776  1.1295 -0.0395
  495SOL     MW 1980   2.911   1.710   2.704 -0.0171  0.0927 -0.6098
  496SOL     OW 1981   2.873   2.311   2.663 -0.0236 -0.7657  0.2765
  496SOL    HW1 1982   2.904   2.228   2.703 -1.6966 -0.5493 -2.2773
  496SOL    HW2 1983   2.947   2.383   2.643  1.0242  1.9431 -0.4319
  496SOL     MW 1984   2.887   2.309   2.665 -0.1061 -0.3798 -0.1539
  497SOL     OW 1985   1.572   2.283   2.610  0.1052  0.0571  0.6177
  497SOL    HW1 1986   1.506   2.240   2.558  1.2672 -1.1263 -0.4078
  497SOL    HW2 1987   1.577   2.230   2.693  1.1474 -1.5504  0.1884
  497SOL     MW 1988   1.564   2.270   2.614  0.3960 -0.3111  0.4257
  498SOL     OW 1989   1.541   2.729   2.355 -0.5203 -0.1783  0.5369
  498SOL    HW1 1990   1.554   2.652   2.303  0.1898  4.9223 -1.0104
  498SOL    HW2 1991   1.604   2.718   2.432  2.6468  1.7421  2.0959
  498SOL     MW 1992   1.551   2.717   2.358 -0.0087  0.7481  0.5384
  499SOL     OW 1993   0.888   0.113   0.036 -0.1600 -0.6347  0.3468
  499SOL    HW1 1994   0.829   0.126   0.108  0.2224  1.1817  1.9861
  499SOL    HW2 1995   0.914   0.015   0.041  1.6370 -0.7749  0.2212
  499SOL     MW 1996   0.884   0.102   0.046  0.1275 -0.4135  0.5465
  500SOL     OW 1997   1.087   2.449   2.783  0.6977  0.4772 -0.4368
  500SOL    HW1 1998   1.146   2.447   2.856 -1.5696  0.5212  0.7873
  500SOL    HW2 1999   1.038   2.527   2.791  2.5973 -0.7900  1.2366
  500SOL     MW 2000   1.088   2.459   2.794  0.6492  0.3158 -0.0545
  501SOL     OW 2001   1.719   2.304   0.006  0.1207 -0.4794  0.2291
  501SOL    HW1 2002   1.695   2.387   0.053  1.4079 -0.4235  4.1336
  501SOL    HW2 2003   1.809   2.302   0.029 -1.0753  2.5079  0.4198
  501SOL     MW 2004   1.728   2.315   0.015  0.1327 -0.0779  0.7694
  502SOL     OW 2005   0.081   2.862   2.950  0.0641 -0.7283  0.3285
  502SOL    HW1 2006   0.020   2.795   2.910 -0.3802 -1.7592 -1.9657
  502SOL    HW2 2007   0.106   2.923   2.878  2.3682  0.4795 -0.9225
  502SOL     MW 2008   0.077   2.861   2.935  0.3095 -0.7050 -0.1392
  503SOL     OW 2009   1.148   2.628   1.982 -0.4913  0.3204 -0.0556
  503SOL    HW1 2010   1.226   2.640   1.936 -1.5512  1.4877 -3.3593
  503SOL    HW2 2011   1.069   2.635   1.931 -0.5045  0.7361 -0.1014
  503SOL     MW 2012   1.148   2.630   1.969 -0.6329  0.5292 -0.4975
  504SOL     OW 2013   0.066   2.657   2.090 -0.7024  1.0364  0.2472
  504SOL    HW1 2014   0.125   2.579   2.069 -1.5393  0.3172  0.9454
  504SOL    HW2 2015  -0.011   2.604   2.102  0.1051  1.5250  2.2862
  504SOL     MW 2016   0.064   2.640   2.089 -0.7063  1.0060  0.6083
  505SOL     OW 2017   1.648   2.662   2.762 -0.0963 -0.0695  0.1540
  505SOL    HW1 2018   1.677   2.665   2.672 -0.1483  1.5448  1.0347
  505SOL    HW2 2019   1.617   2.750   2.784 -1.3218 -0.0098  0.8966
  505SOL     MW 2020   1.648   2.674   2.753 -0.2649  0.1514  0.3682
  506SOL     OW 2021   1.636   3.098   2.865 -0.5165 -0.1897 -0.3939
  506SOL    HW1 2022   1.652   3.066   2.956  0.3246 -0.2323 -1.6293
  506SOL    HW2 2023   1.714   3.054   2.813  2.9924  1.7925 -0.4670
  506SOL     MW 2024   1.648   3.088   2.870  0.0575  0.0662 -0.5666
  507SOL     OW 2025   0.941   2.715   2.853 -0.0695 -0.3760  0.3939
  507SOL    HW1 2026   0.964   2.748   2.767 -0.4996  2.4879 -0.1085
  507SOL    HW2 2027   0.845   2.716   2.857  0.0450  1.6833 -0.9738
  507SOL     MW 2028   0.932   2.719   2.842 -0.1111  0.2736  0.1471
  508SOL     OW 2029   1.244   2.115   2.500 -0.4384  0.2206 -0.3843
  508SOL    HW1 2030   1.280   2.086   2.593  0.4217  1.4978  0.5094
  508SOL    HW2 2031   1.171   2.166   2.510  0.2305 -2.0505  0.6870
  508SOL     MW 2032   1.239   2.118   2.514 -0.2367  0.0894 -0.1250
  509SOL     OW 2033   0.638   2.586   2.804 -0.4648  0.1986 -0.1219
  509SOL    HW1 2034   0.644   2.541   2.723  1.8088 -0.2265  0.7800
  509SOL    HW2 2035   0.554   2.621   2.800 -1.5745 -1.3904  1.3578
  509SOL     MW 2036   0.628   2.585   2.793 -0.3112 -0.0672  0.1924
  510SOL     OW 2037   1.536   2.608   1.661 -0.2178  0.4229  0.7347
  510SOL    HW1 2038   1.542   2.703   1.622  2.3261  0.7375 -1.5986
  510SOL    HW2 2039   1.502   2.618   1.753 -1.6400 -0.5621 -2.3762
  510SOL     MW 2040   1.532   2.622   1.668 -0.0698  0.3344  0.0164
  511SOL     OW 2041   0.428   2.637   2.446 -0.1940  0.7182 -0.7819
  511SOL    HW1 2042   0.520   2.598   2.452  3.8286  0.7594 -0.7891
  511SOL    HW2 2043   0.429   2.673   2.360  1.3270 -2.1229  1.2309
  511SOL     MW 2044   0.440   2.637   2.435  0.5374  0.3488 -0.5173
  512SOL     OW 2045   0.971   2.022   2.812 -0.4185 -0.2285 -0.5976
  512SOL    HW1 2046   0.887   2.052   2.854  1.8839  0.7168  1.4891
  512SOL    HW2 2047   0.994   1.954   2.879  0.2915  0.8466 -1.0374
  512SOL     MW 2048   0.963   2.017   2.826 -0.0211  0.0380 -0.3803
  513SOL     OW 2049   1.630   2.470   2.222 -0.2752  0.4511  0.5884
  513SOL    HW1 2050   1.706   2.511   2.183 -0.8461 -2.6756  1.2379
  513SOL    HW2 2051   1.675   2.403   2.268 -1.0974 -0.0867 -1.2237
  513SOL     MW 2052   1.646   2.467   2.223 -0.4590 -0.0324  0.4350
  514SOL     OW 2053   0.235   2.487   2.601  0.4807 -0.2030 -0.0209
  514SOL    HW1 2054   0.289   2.536   2.538  0.0904  0.6426 -2.7532
  514SOL    HW2 2055   0.284   2.476   2.686  1.1625  3.3731 -3.7657
  514SOL     MW 2056   0.249   2.492   2.604  0.5191  0.3804 -0.8755
  515SOL     OW 2057   1.125   2.016   2.003  0.3198 -0.1396  0.3886
  515SOL    HW1 2058   1.128   2.070   1.926 -0.5784 -0.6947  0.2365
  515SOL    HW2 2059   1.209   2.026   2.043  2.1214  2.1790 -0.0187
  515SOL     MW 2060   1.137   2.024   1.998  0.4390  0.0931  0.3148
  516SOL     OW 2061   1.474   2.454   3.072  0.3238 -0.2361  0.5584
  516SOL    HW1 2062   1.495   2.436   2.983 -1.1561 -0.8917  2.1011
  516SOL    HW2 2063   1.382   2.473   3.063  1.9424  1.5005  1.6284
  516SOL     MW 2064   1.464   2.454   3.059  0.3421 -0.0935  0.9031
  517SOL     OW 2065   0.550   2.446   2.258 -0.1845  0.7035  0.1694
  517SOL    HW1 2066   0.476   2.419   2.314  0.6298 -1.0597 -1.3107
  517SOL    HW2 2067   0.502   2.428   2.171 -0.6669 -0.0790  0.8654
  517SOL     MW 2068   0.534   2.440   2.254 -0.1407  0.3677  0.0659
  518SOL     OW 2069   1.798   0.150   3.075 -0.0268  0.2250  0.3876
  518SOL    HW1 2070   1.786   0.192   3.163 -4.5453 -0.4047  0.5967
  518SOL    HW2 2071   1.764   0.060   3.087  2.3670 -0.7953  0.3055
  518SOL     MW 2072   1.792   0.144   3.088 -0.3071  0.0073  0.4044
  519SOL     OW 2073   0.704   2.424   1.762  0.4776 -1.2047 -0.1861
  519SOL    HW1 2074   0.751   2.343   1.758  1.6658 -0.0668 -0.2550
  519SOL    HW2 2075   0.626   2.409   1.811  1.0639  1.1877  0.6162
  519SOL     MW 2076   0.700   2.412   1.768  0.7117 -0.7389 -0.0893
  520SOL     OW 2077   1.168   2.153   2.970  0.0264 -0.8796 -0.2052
  520SOL    HW1 2078   1.099   2.106   2.918 -0.3625 -1.2008 -0.2296
  520SOL    HW2 2079   1.193   2.097   3.041  2.0009 -1.6119 -2.0260
  520SOL     MW 2080   1.162   2.140   2.972  0.2356 -1.0186 -0.4486
  521SOL     OW 2081   1.741   2.000   2.179  0.3018 -0.7049 -0.6131
  521SOL    HW1 2082   1.780   2.029   2.100  0.3243 -0.3964  0.8121
  521SOL    HW2 2083   1.727   1.910   2.155  3.9461 -0.0052  0.9815
  521SOL     MW 2084   1.744   1.992   2.166  0.7856 -0.5719 -0.2147
  522SOL     OW 2085   2.928   2.512   2.251 -0.6344  0.3717  0.0145
  522SOL    HW1 2086   3.005   2.451   2.282 -0.7960 -0.7149 -1.5815
  522SOL    HW2 2087   2.938   2.599   2.286  1.8314 -1.4668 -3.4794
  522SOL     MW 2088   2.940   2.515   2.260 -0.3304 -0.0142 -0.6571
  523SOL     OW 2089   0.937   1.516   2.135 -0.0080  0.4640  0.2080
  523SOL    HW1 2090   0.891   1.572   2.079  2.6009 -0.1498  0.5894
  523SOL    HW2 2091   0.976   1.449   2.076  1.4593 -0.2631  0.4024
  523SOL     MW 2092   0.936   1.514   2.120  0.5298  0.2871  0.2840
  524SOL     OW 2093   0.616   2.376   2.966  0.4616 -0.0243 -0.1138
  524SOL    HW1 2094   0.647   2.444   2.908 -1.1728 -0.4024 -0.1570
  524SOL    HW2 2095   0.703   2.332   2.983  0.5873  2.7759 -1.8164
  524SOL     MW 2096   0.632   2.379   2.961  0.2625  0.2953 -0.3442
  525SOL     OW 2097   0.432   2.279   2.044  0.4803  0.4246 -0.2154
  525SOL    HW1 2098   0.422   2.205   2.107  0.0568  0.9570  0.1568
  525SOL    HW2 2099   0.406   2.249   1.956  0.6408 -0.2903 -5.3505
  525SOL     MW 2100   0.427   2.265   2.041  0.4456  0.4005 -0.8438
  526SOL     OW 2101   0.656   2.063   1.985  0.1906 -0.7377 -0.4103
  526SOL    HW1 2102   0.694   2.096   1.905 -3.7127 -0.1728  3.1889
  526SOL    HW2 2103   0.669   2.129   2.053 -1.0893  1.1869 -0.2572
  526SOL     MW 2104   0.663   2.076   1.983 -0.4933 -0.4092  0.0848
  527SOL     OW 2105   1.395   2.006   2.093  0.7637  0.3182  0.4098
  527SOL    HW1 2106   1.395   1.977   2.189 -1.1873 -1.2326  2.5293
  527SOL    HW2 2107   1.427   1.934   2.036 -0.0984  1.0575  0.4357
  527SOL     MW 2108   1.399   1.992   2.098  0.3925  0.2111  0.6929
  528SOL     OW 2109   0.713   2.890   2.858 -0.2583 -1.0359 -0.1497
  528SOL    HW1 2110   0.714   2.981   2.886  0.4596 -0.6410  2.6948
  528SOL    HW2 2111   0.654   2.903   2.781  1.0466 -0.6166 -2.5028
  528SOL     MW 2112   0.705   2.904   2.852  0.0086 -0.9285 -0.0849
  529SOL     OW 2113   1.059   2.276   1.856  0.7542  0.0344  0.3414
  529SOL    HW1 2114   1.053   2.309   1.948  0.2143 -3.2833  2.1947
  529SOL    HW2 2115   1.106   2.344   1.813  3.7281  2.2433 -0.5840
  529SOL     MW 2116   1.064   2.289   1.862  1.0754 -0.1119  0.4638
  530SOL     OW 2117   1.165   2.430   3.057 -0.6388  0.5476  0.1295
  530SOL    HW1 2118   1.079   2.462   3.089 -2.1137 -1.5886  0.7999
  530SOL    HW2 2119   1.163   2.333   3.045  5.5229  0.2440 -0.4594
  530SOL     MW 2120   1.153   2.421   3.060 -0.0204  0.2257  0.1402
  531SOL     OW 2121   0.967   1.861   2.574 -0.4234  0.0634 -0.4400
  531SOL    HW1 2122   0.956   1.911   2.654  0.6555 -1.2274  1.2746
  531SOL    HW2 2123   0.925   1.774   2.591  0.1904  0.2697 -1.9937
  531SOL     MW 2124   0.960   1.856   2.587 -0.2001 -0.0797 -0.4188
  532SOL     OW 2125   1.708   0.323   2.884 -0.6904  0.4799 -0.7235
  532SOL    HW1 2126   1.741   0.254   2.947 -1.4472  1.7020 -1.3455
  532SOL    HW2 2127   1.792   0.375   2.867  2.8043  2.3415 -1.2660
  532SOL     MW 2128   1.723   0.321   2.890 -0.3292  0.8868 -0.8771
  533SOL     OW 2129   1.817   2.675   2.982  1.0156  0.4664 -0.5270
  533SOL    HW1 2130   1.794   2.613   3.049  4.0249 -1.4342  1.2815
  533SOL    HW2 2131   1.750   2.659   2.912 -0.0110  0.3649  0.3715
  533SOL     MW 2132   1.805   2.664   2.982  1.2772  0.2022 -0.1699
  534SOL     OW 2133   1.807   2.352   2.466  0.4918 -0.0884 -0.1978
  534SOL    HW1 2134   1.722   2.308   2.492 -2.3979  1.5154  0.6692
  534SOL    HW2 2135   1.858   2.337   2.550  1.2777 -2.0316  0.4840
  534SOL     MW 2136   1.802   2.344   2.480  0.2142 -0.1332  0.0065
  535SOL     OW 2137   1.865   2.355   1.890  0.4132  0.4570 -0.4943
  535SOL    HW1 2138   1.814   2.406   1.823 -1.1618 -0.4966  1.0967
  535SOL    HW2 2139   1.959   2.382   1.896  0.2883 -2.0714  0.8159
  535SOL     MW 2140   1.871   2.365   1.882  0.1889 -0.0024 -0.1115
  536SOL     OW 2141   0.440   1.886   2.022 -0.0946 -0.1647  0.2645
  536SOL    HW1 2142   0.437   1.827   1.950 -1.3711  1.0888 -1.9251
  536SOL    HW2 2143   0.517   1.949   2.007  1.4089  0.1712 -1.7533
  536SOL     MW 2144   0.450   1.886   2.011 -0.0646  0.0450 -0.2906
  537SOL     OW 2145   1.018   0.164   2.894 -0.6307 -0.3480 -0.1654
  537SOL    HW1 2146   0.980   0.106   2.964 -0.1571  0.0243 -1.2343
  537SOL    HW2 2147   1.036   0.244   2.943 -2.2520  1.6869  2.1759
  537SOL     MW 2148   1.015   0.167   2.910 -0.7822 -0.0304  0.0025
  538SOL     OW 2149   1.369   0.074   2.976  0.0726 -0.1802  0.1031
  538SOL    HW1 2150   1.333   0.161   2.958 -0.1084 -1.1176 -1.6224
  538SOL    HW2 2151   1.452   0.068   2.929 -0.2437  1.1632  1.3854
  538SOL     MW 2152   1.375   0.084   2.967  0.0070 -0.1266  0.0446
  539SOL     OW 2153   0.757   2.782   2.551 -0.1757  0.0711 -0.1647
  539SOL    HW1 2154   0.857   2.806   2.562  0.2740 -0.0401  2.6710
  539SOL    HW2 2155   0.748   2.698   2.599  0.3490 -1.4080 -0.8573
  539SOL     MW 2156   0.769   2.774   2.558 -0.0472 -0.1387  0.1180
  540SOL     OW 2157   0.363   2.393   2.839  0.3216  0.1392 -0.1201
  540SOL    HW1 2158   0.455   2.390   2.877 -2.0230  0.5481  1.4662
  540SOL    HW2 2159   0.316   2.325   2.887  2.0160  0.0548 -0.4688
  540SOL     MW 2160   0.369   2.384   2.851  0.2358  0.1820  0.0432
  541SOL     OW 2161   0.181   2.926   2.216 -0.1241  0.4001  0.1107
  541SOL    HW1 2162   0.220   2.873   2.149 -1.0614 -1.4474 -0.0378
  541SOL    HW2 2163   0.220   2.899   2.295  0.6996  0.6459 -0.4820
  541SOL     MW 2164   0.191   2.916   2.217 -0.1391  0.1888  0.0129
  542SOL     OW 2165   0.997   2.243   2.587 -0.3291 -0.3578  0.2869
  542SOL    HW1 2166   0.983   2.163   2.641  1.9314  2.9113  1.6198
  542SOL    HW2 2167   1.026   2.313   2.650  1.4224  0.4731  1.1462
  542SOL     MW 2168   0.999   2.242   2.602  0.2003  0.1831  0.5761
  543SOL     OW 2169   1.448   2.476   2.773 -0.5642 -0.2168  0.7767
  543SOL    HW1 2170   1.487   2.419   2.709  0.5552 -2.1451  1.5922
  543SOL    HW2 2171   1.516   2.548   2.772  1.9170 -0.0708 -2.5704
  543SOL     MW 2172   1.462   2.478   2.764 -0.0892 -0.4520  0.4427
  544SOL     OW 2173   0.698   0.229   2.678  0.6658 -0.5408  0.2310
  544SOL    HW1 2174   0.609   0.234   2.673  3.8534 -0.3562 -0.5271
  544SOL    HW2 2175   0.719   0.139   2.654  0.7314 -0.2251 -3.2409
  544SOL     MW 2176   0.689   0.218   2.674  1.0950 -0.4748 -0.3271
  545SOL     OW 2177   1.585   2.165   2.318 -0.2940  0.1653  0.1277
  545SOL    HW1 2178   1.507   2.180   2.268 -0.9926  1.2856  0.7186
  545SOL    HW2 2179   1.649   2.106   2.268 -0.4356  0.7502  1.1169
  545SOL     MW 2180   1.583   2.159   2.304 -0.4049  0.3903  0.3362
  546SOL     OW 2181   2.992   2.011   0.132  0.3689  0.4357  0.1329
  546SOL    HW1 2182   2.975   2.073   0.057  1.0812 -2.0365  0.6299
  546SOL    HW2 2183   3.081   1.981   0.102  2.5261 -0.7311  2.2626
  546SOL     MW 2184   3.001   2.015   0.118  0.7475 -0.0444  0.4795
  547SOL     OW 2185   0.298   2.983   0.130  0.2360 -0.6094 -0.5449
  547SOL    HW1 2186   0.308   3.033   0.055 -0.2327 -0.8309 -2.7779
  547SOL    HW2 2187   0.266   2.893   0.100  0.2984  1.0084 -1.4027
  547SOL     MW 2188   0.295   2.978   0.116  0.1824 -0.4252 -0.9527
  548SOL     OW 2189   0.277   2.562   0.247  0.0993  0.0697 -0.4264
  548SOL    HW1 2190   0.244   2.623   0.180 -0.9546 -1.1292  0.9787
  548SOL    HW2 2191   0.291   2.482   0.199 -1.6750 -3.0811  0.3812
  548SOL     MW 2192   0.275   2.560   0.232 -0.2739 -0.5042 -0.1345
  549SOL     OW 2193   0.844   1.882   2.138  0.3338 -0.4380  0.3815
  549SOL    HW1 2194   0.817   1.966   2.104  2.8525  3.2138  1.7299
  549SOL    HW2 2195   0.803   1.882   2.223 -1.0402  2.7288 -0.0205
  549SOL     MW 2196   0.835   1.893   2.145  0.4849  0.4616  0.5064
  550SOL     OW 2197   1.800   1.713   2.547 -0.0463  0.1798  0.2298
  550SOL    HW1 2198   1.789   1.705   2.448 -1.2553  0.6304  0.9908
  550SOL    HW2 2199   1.767   1.793   2.591 -1.5089 -1.4511 -0.0036
  550SOL     MW 2200   1.794   1.722   2.539 -0.3988  0.0241  0.2994
  551SOL     OW 2201   0.878   2.243   0.213  0.0955 -0.0118  0.2237
  551SOL    HW1 2202   0.971   2.264   0.209 -0.1248 -0.4339  1.2886
  551SOL    HW2 2203   0.855   2.160   0.166 -0.1213 -3.6151  1.9623
  551SOL     MW 2204   0.887   2.235   0.206  0.0378 -0.5429  0.5936
  552SOL     OW 2205   1.768   1.741   2.272 -0.2583  0.0333  0.8024
  552SOL    HW1 2206   1.674   1.714   2.287  4.1810  0.8892 -0.3407
  552SOL    HW2 2207   1.800   1.682   2.194  0.7095 -1.2359 -0.9965
  552SOL     MW 2208   1.760   1.729   2.264  0.4551 -0.0212  0.4142
  553SOL     OW 2209   1.191   2.312   1.444  0.2099 -0.0584  0.0248
  553SOL    HW1 2210   1.230   2.235   1.484  1.8925  3.1512 -1.3163
  553SOL    HW2 2211   1.254   2.383   1.420 -2.3536  1.2401 -3.5159
  553SOL     MW 2212   1.204   2.312   1.446  0.0936  0.5364 -0.6193
  554SOL     OW 2213   0.550   2.925   2.655 -0.3443  0.1987 -0.7659
  554SOL    HW1 2214   0.500   2.997   2.610  0.5755 -1.5386  0.4795
  554SOL    HW2 2215   0.615   2.907   2.589 -1.9081  0.2695  0.3919
  554SOL     MW 2216   0.552   2.932   2.640 -0.4293 -0.0212 -0.4488
  555SOL     OW 2217   0.626   2.466   2.562  0.1968  0.3246 -0.7137
  555SOL    HW1 2218   0.586   2.387   2.537 -1.8517  3.2025  0.5029
  555SOL    HW2 2219   0.708   2.462   2.513 -2.3955  0.3547 -0.1430
  555SOL     MW 2220   0.632   2.455   2.552 -0.4155  0.7083 -0.4779
  556SOL     OW 2221   0.947   1.816   0.165  0.7462  0.1912  0.0157
  556SOL    HW1 2222   0.967   1.838   0.074  1.7007  0.0098 -2.1440
  556SOL    HW2 2223   1.023   1.841   0.216 -1.6240  1.2999  1.5650
  556SOL     MW 2224   0.959   1.822   0.160  0.5594  0.3136 -0.0649
  557SOL     OW 2225   0.978   2.673   0.503 -0.1236 -0.1223  0.0221
  557SOL    HW1 2226   1.041   2.666   0.429  0.8586 -1.3865  1.4938
  557SOL    HW2 2227   0.908   2.738   0.475  0.3883  0.6315  1.8001
  557SOL     MW 2228   0.977   2.680   0.490  0.0736 -0.1897  0.4509
  558SOL     OW 2229   0.269   2.192   3.046  0.2171  1.1570 -0.8591
  558SOL    HW1 2230   0.240   2.102   3.032  1.8215 -0.6645  1.5261
  558SOL    HW2 2231   0.190   2.230   3.082 -1.1064  0.8297  1.0160
  558SOL     MW 2232   0.255   2.185   3.049  0.2542  0.8735 -0.2970
  559SOL     OW 2233   1.021   2.327   2.126 -0.3011  0.8798 -0.2266
  559SOL    HW1 2234   1.060   2.390   2.189 -1.9476 -0.1087  2.2068
  559SOL    HW2 2235   1.038   2.233   2.159  0.6960 -2.9008 -0.1406
  559SOL     MW 2236   1.028   2.323   2.139 -0.3867  0.2506  0.1058
  560SOL     OW 2237   1.960   2.849   0.035  0.3090  0.0110 -0.1603
  560SOL    HW1 2238   2.033   2.883  -0.016  2.1462 -2.5365  1.3589
  560SOL    HW2 2239   1.930   2.779  -0.021 -1.5149  0.4855 -3.5275
  560SOL     MW 2240   1.966   2.844   0.021  0.3107 -0.2625 -0.4041
  561SOL     OW 2241   0.420   2.193   0.195 -0.0305  0.3473 -0.3267
  561SOL    HW1 2242   0.401   2.219   0.104 -1.5644  0.1882 -5.2980
  561SOL    HW2 2243   0.472   2.261   0.238 -1.5655 -2.0827  0.2746
  561SOL     MW 2244   0.425   2.206   0.188 -0.4354  0.0057 -0.9033
  562SOL     OW 2245   0.766   2.214   2.207 -0.8306 -0.4127 -0.2005
  562SOL    HW1 2246   0.794   2.294   2.161 -2.0030 -1.6202 -1.1257
  562SOL    HW2 2247   0.838   2.191   2.263  0.9109 -0.5572 -0.3383
  562SOL     MW 2248   0.779   2.222   2.208 -0.7555 -0.5911 -0.3407
  563SOL     OW 2249   1.174   0.332   0.561  0.2271 -0.6392 -0.2995
  563SOL    HW1 2250   1.098   0.289   0.523  1.5045 -1.6022 -1.3106
  563SOL    HW2 2251   1.222   0.253   0.593 -0.5025  0.1786  2.7644
  563SOL     MW 2252   1.170   0.316   0.560  0.2994 -0.6584 -0.0287
  564SOL     OW 2253   1.038   2.623   2.226  0.3785 -0.3302  0.0276
  564SOL    HW1 2254   1.093   2.620   2.141 -1.1570  0.2321  2.8579
  564SOL    HW2 2255   1.098   2.634   2.297 -0.4133  3.0872 -0.9817
  564SOL     MW 2256   1.053   2.624   2.224  0.0714  0.1948  0.2679
  565SOL     OW 2257   2.897   2.730   2.665 -0.1405  0.1819  0.1896
  565SOL    HW1 2258   2.972   2.787   2.638 -0.0732  1.9618  2.2492
  565SOL    HW2 2259   2.839   2.731   2.592  0.1178  1.7867 -0.5414
  565SOL     MW 2260   2.899   2.738   2.652 -0.0976  0.6285  0.3649
  566SOL     OW 2261   2.148   1.887   2.367 -0.0474 -0.0936 -0.2257
  566SOL    HW1 2262   2.182   1.852   2.284  1.1065  0.5698 -0.2531
  566SOL    HW2 2263   2.209   1.964   2.389 -3.1809 -0.1325  1.0631
  566SOL     MW 2264   2.161   1.892   2.359 -0.3086 -0.0112 -0.0592
  567SOL     OW 2265   1.184   2.896   2.935  0.3027  0.0642 -0.7358
  567SOL    HW1 2266   1.264   2.948   2.952 -1.8184 -1.0974  0.5583
  567SOL    HW2 2267   1.191   2.805   2.944 -0.2346 -2.0269 -0.3921
  567SOL     MW 2268   1.196   2.891   2.938 -0.0480 -0.3650 -0.5197
  568SOL     OW 2269   1.606   2.145   2.882  0.3085  0.3413 -0.0998
  568SOL    HW1 2270   1.653   2.189   2.956  0.7108 -0.9967  1.2244
  568SOL    HW2 2271   1.656   2.063   2.859 -3.8468  0.7393 -0.3735
  568SOL     MW 2272   1.619   2.140   2.889 -0.1866  0.2173  0.0388
  569SOL     OW 2273   0.180   2.247   2.488  0.5518  0.5293  0.3320
  569SOL    HW1 2274   0.124   2.269   2.413  0.2984 -0.4139 -2.8096
  569SOL    HW2 2275   0.191   2.335   2.533 -0.8504 -0.2623  3.8151
  569SOL     MW 2276   0.174   2.261   2.484  0.3333  0.3004  0.3771
  570SOL     OW 2277   1.419   0.380   0.488  0.3431  0.0108 -0.1212
  570SOL    HW1 2278   1.333   0.359   0.530 -1.4868 -0.0996  1.9465
  570SOL    HW2 2279   1.470   0.410   0.567 -2.4100  0.5715  2.0598
  570SOL     MW 2280   1.414   0.381   0.504 -0.2616  0.0702  0.4394
  571SOL     OW 2281   1.491   2.429   1.991  0.4736  0.4406  0.3825
  571SOL    HW1 2282   1.535   2.425   2.079  0.5105  1.2817  1.9651
  571SOL    HW2 2283   1.517   2.342   1.960 -0.4482  2.0601  0.6650
  571SOL     MW 2284   1.500   2.417   1.998  0.3568  0.7652  0.6286
  572SOL     OW 2285   0.952   2.654   0.037  0.6683  0.4820 -0.0039
  572SOL    HW1 2286   0.993   2.668  -0.046 -0.2469  3.4283  0.0429
  572SOL    HW2 2287   0.862   2.626   0.024  2.9759 -0.7595  1.1364
  572SOL     MW 2288   0.946   2.652   0.025  0.8520  0.7069  0.1527
  573SOL     OW 2289   1.158   2.319   0.240 -0.4345 -0.2785 -0.9179
  573SOL    HW1 2290   1.245   2.324   0.215 -0.0666 -1.1096  0.9818
  573SOL    HW2 2291   1.144   2.415   0.270  0.3037 -0.6229  1.5648
  573SOL     MW 2292   1.168   2.333   0.241 -0.2886 -0.4336 -0.3397
  574SOL     OW 2293   1.127   2.609   0.277 -0.3457 -0.3026  0.6823
  574SOL    HW1 2294   1.190   2.674   0.293  0.9234 -1.8039 -1.2277
  574SOL    HW2 2295   1.073   2.638   0.202 -0.2313  2.5293 -2.8802
  574SOL     MW 2296   1.129   2.621   0.269 -0.1632 -0.1270 -0.0397
  575SOL     OW 2297   0.048   2.302   1.797  0.3043 -0.6271  0.4936
  575SOL    HW1 2298   0.051   2.244   1.724  3.5454  2.7817 -0.6841
  575SOL    HW2 2299   0.079   2.383   1.753 -1.3566  2.1788  1.4234
  575SOL     MW 2300   0.053   2.305   1.782  0.5128  0.1928  0.4609
  576SOL     OW 2301   2.815   1.825   2.087 -0.7025 -0.2481  0.8256
  576SOL    HW1 2302   2.850   1.906   2.042 -1.1533 -1.5475  1.4884
  576SOL    HW2 2303   2.723   1.803   2.063 -0.6947  0.5656 -1.1173
  576SOL     MW 2304   2.807   1.833   2.078 -0.7610 -0.3122  0.6567
  577SOL     OW 2305   2.083   0.199   0.101 -0.2334 -0.0913  0.2063
  577SOL    HW1 2306   2.019   0.234   0.039  1.4662  0.6504  3.2055
  577SOL    HW2 2307   2.031   0.169   0.172  0.3836 -0.4609  0.6618
  577SOL     MW 2308   2.068   0.200   0.102  0.0723 -0.0422  0.6621
  578SOL     OW 2309   1.930   2.023   2.385  0.6881 -0.2725 -0.4653
  578SOL    HW1 2310   1.856   1.990   2.334  0.7197 -1.4189  2.5402
  578SOL    HW2 2311   2.003   1.954   2.379 -0.4471 -2.9964  1.2971
  578SOL     MW 2312   1.930   2.010   2.378  0.5425 -0.7831  0.1638
  579SOL     OW 2313   0.875   2.453   2.414 -0.2301 -0.3474 -0.5439
  579SOL    HW1 2314   0.916   2.375   2.464 -0.5397 -0.6969  0.6866
  579SOL    HW2 2315   0.951   2.502   2.394 -0.3312 -1.0109 -0.0251
  579SOL     MW 2316   0.890   2.449   2.418 -0.2843 -0.4811 -0.3131
  580SOL     OW 2317   0.930   2.960   3.058  0.0854 -0.9512  0.1885
  580SOL    HW1 2318   1.023   2.960   3.026  1.4904 -0.7925  0.8787
  580SOL    HW2 2319   0.888   2.904   2.994  1.3489  1.7732 -0.8238
  580SOL     MW 2320   0.937   2.953   3.045  0.4375 -0.5708  0.1460
  581SOL     OW 2321   1.177   2.481   1.698 -0.9005  0.2395  0.0791
  581SOL    HW1 2322   1.264   2.515   1.713 -2.3265 -5.2635 -0.3945
  581SOL    HW2 2323   1.183   2.454   1.609  3.1425 -0.3068  0.1421
  581SOL     MW 2324   1.190   2.482   1.689 -0.5552 -0.5587  0.0249
  582SOL     OW 2325   0.007   2.865   2.561  0.1592  0.0162  0.7545
  582SOL    HW1 2326   0.005   2.946   2.612  1.4544  2.5012  0.4910
  582SOL    HW2 2327   0.098   2.869   2.541  0.5035 -0.5226 -1.8858
  582SOL     MW 2328   0.019   2.876   2.565  0.3755  0.2730  0.3714
  583SOL     OW 2329   2.026   2.372   2.686 -0.6032  0.5896  0.0322
  583SOL    HW1 2330   2.071   2.408   2.608 -0.8102  1.9955  0.7817
  583SOL    HW2 2331   2.007   2.276   2.661 -1.6981 -1.4850 -2.4192
  583SOL     MW 2332   2.029   2.364   2.672 -0.7750  0.5014 -0.1924
  584SOL     OW 2333   0.240   1.828   2.219 -0.0402  0.6304  0.4035
  584SOL    HW1 2334   0.309   1.814   2.152 -0.7756  0.8429 -3.9078
  584SOL    HW2 2335   0.257   1.914   2.249  1.0841 -0.2202  0.7026
  584SOL     MW 2336   0.251   1.837   2.214  0.0111  0.5462 -0.1259
  585SOL     OW 2337   1.530   2.665   0.162  0.7765 -0.2181  0.3533
  585SOL    HW1 2338   1.509   2.609   0.087  2.0664  1.4951  0.7310
  585SOL    HW2 2339   1.460   2.662   0.227  1.2471 -0.0617 -2.5787
  585SOL     MW 2340   1.518   2.657   0.160  1.0088  0.0286  0.0162
  586SOL     OW 2341   1.351   2.845   2.522 -0.5104  0.0185 -0.0401
  586SOL    HW1 2342   1.429   2.808   2.470  2.0715 -0.8502 -0.2850
  586SOL    HW2 2343   1.360   2.942   2.536 -0.5968 -2.0089 -0.2880
  586SOL     MW 2344   1.362   2.853   2.517 -0.1811 -0.3636 -0.1051
  587SOL     OW 2345   1.328   1.556   2.190  0.1346  0.1409  0.5335
  587SOL    HW1 2346   1.315   1.482   2.254  1.4161 -0.4423  0.1682
  587SOL    HW2 2347   1.294   1.522   2.106 -1.4382  1.7162  1.3947
  587SOL     MW 2348   1.322   1.542   2.187  0.0962  0.2718  0.5989
  588SOL     OW 2349   1.359   2.106   2.749 -0.5452 -0.5826  0.0994
  588SOL    HW1 2350   1.442   2.120   2.791 -4.2563  2.4093 -0.2444
  588SOL    HW2 2351   1.291   2.127   2.821 -0.6898  0.2941 -0.0705
  588SOL     MW 2352   1.361   2.111   2.764 -1.0539 -0.0722  0.0316
  589SOL     OW 2353   1.255   2.039   0.106  0.0219  0.0271  0.2360
  589SOL    HW1 2354   1.305   2.111   0.146  1.9594  0.1897 -1.4542
  589SOL    HW2 2355   1.219   1.992   0.181  1.0726 -0.8490 -1.3328
  589SOL     MW 2356   1.257   2.042   0.121  0.4161 -0.0670 -0.1940
  590SOL     OW 2357   0.447   2.772   2.204  0.8161  0.1545  0.3386
  590SOL    HW1 2358   0.431   2.717   2.131 -0.4281  0.3124  4.2539
  590SOL    HW2 2359   0.537   2.774   2.228  0.1587 -0.3739 -2.5155
  590SOL     MW 2360   0.457   2.765   2.197  0.5652  0.1056  0.4786
  591SOL     OW 2361   2.263   0.669   3.102 -0.8223 -0.6819  0.2849
  591SOL    HW1 2362   2.186   0.726   3.080 -0.8235  0.6636  1.0356
  591SOL    HW2 2363   2.336   0.727   3.056  2.9519  2.2108 -2.5930
  591SOL     MW 2364   2.263   0.684   3.093 -0.3245 -0.1227  0.0042
  592SOL     OW 2365   1.762   2.957   0.819 -0.3783 -0.1864  0.3026
  592SOL    HW1 2366   1.745   3.022   0.746  1.1989  1.2424 -3.6538
  592SOL    HW2 2367   1.823   2.891   0.782 -0.9674 -0.4975 -0.2747
  592SOL     MW 2368   1.768   2.957   0.805 -0.2480 -0.0389 -0.2955
  593SOL     OW 2369   1.946   0.687   0.854  0.9517 -0.5437 -0.5634
  593SOL    HW1 2370   1.862   0.681   0.811 -0.7254 -2.4549  1.5565
  593SOL    HW2 2371   2.013   0.662   0.792  1.5539  0.0345  0.1065
  593SOL     MW 2372   1.944   0.683   0.840  0.8099 -0.7196 -0.1953
  594SOL     OW 2373   2.825   1.142   1.358  0.4191 -0.0247  0.0729
  594SOL    HW1 2374   2.913   1.153   1.400  0.2379  1.2975  0.2632
  594SOL    HW2 2375   2.821   1.086   1.279 -0.2074  0.0839  2.3854
  594SOL     MW 2376   2.836   1.136   1.353  0.3125  0.1641  0.4031
  595SOL     OW 2377   0.442   1.008   0.823 -0.9981 -0.2301  0.6412
  595SOL    HW1 2378   0.470   1.078   0.762 -2.8329  1.6263 -0.3151
  595SOL    HW2 2379   0.476   1.055   0.906  1.5234  2.1487  0.5851
  595SOL     MW 2380   0.450   1.024   0.826 -0.9075  0.3287  0.5076
  596SOL     OW 2381   2.447   1.325   0.601 -0.0585 -0.2437  0.1259
  596SOL    HW1 2382   2.502   1.400   0.580  0.4297  0.1011  0.5325
  596SOL    HW2 2383   2.512   1.277   0.653  0.9299 -3.8319 -0.6064
  596SOL     MW 2384   2.463   1.329   0.605  0.1363 -0.6716  0.0829
  597SOL     OW 2385   2.199   0.728   1.608  0.4746 -0.6323 -0.1175
  597SOL    HW1 2386   2.231   0.673   1.682 -0.6561 -0.9622  1.0047
  597SOL    HW2 2387   2.142   0.669   1.550  1.0161 -1.3477 -0.1299
  597SOL     MW 2388   2.196   0.713   1.610  0.3969 -0.7702  0.0289
  598SOL     OW 2389   2.603   1.008   2.870 -0.0658 -0.3935 -0.0009
  598SOL    HW1 2390   2.613   0.996   2.775  1.2269  0.6034 -0.7410
  598SOL    HW2 2391   2.684   1.060   2.883  1.0863  3.0801 -0.8678
  598SOL     MW 2392   2.615   1.013   2.859  0.2568  0.1963 -0.2129
  599SOL     OW 2393   2.969   0.414   2.067 -0.3639 -0.4176  0.3087
  599SOL    HW1 2394   3.000   0.413   2.161  0.9205 -1.1389  0.3859
  599SOL    HW2 2395   2.998   0.501   2.026 -0.2300  0.1271  1.1685
  599SOL     MW 2396   2.977   0.425   2.074 -0.1768 -0.4409  0.4323
  600SOL     OW 2397   1.886   1.608   0.842 -0.3703 -0.5516 -0.3924
  600SOL    HW1 2398   1.951   1.641   0.904 -0.6897  1.1755 -1.5625
  600SOL    HW2 2399   1.817   1.675   0.837  1.9729  1.7956 -2.0551
  600SOL     MW 2400   1.886   1.621   0.849 -0.1033 -0.0141 -0.7662
  601SOL     OW 2401   2.472   0.770   0.828 -0.0995 -0.5669 -0.1865
  601SOL    HW1 2402   2.481   0.788   0.924  1.1940  2.3296  2.7435
  601SOL    HW2 2403   2.399   0.712   0.806  2.1144 -0.1721 -0.9630
  601SOL     MW 2404   2.464   0.765   0.838  0.3633 -0.1326  0.0977
  602SOL     OW 2405   2.347   1.928   0.829 -0.0272  0.8138 -0.7216
  602SOL    HW1 2406   2.332   1.838   0.800  0.0453 -0.0377  0.2286
  602SOL    HW2 2407   2.268   1.975   0.800 -1.0939  0.6991 -0.9503
  602SOL     MW 2408   2.334   1.923   0.822 -0.1584  0.6863 -0.6264
  603SOL     OW 2409   3.090   1.366   1.812  0.0925 -0.3885  0.1770
  603SOL    HW1 2410   3.122   1.394   1.899 -0.4323 -1.3360 -0.4223
  603SOL    HW2 2411   3.092   1.274   1.827  1.2030  1.6172  1.5352
  603SOL     MW 2412   3.094   1.357   1.826  0.1698 -0.2489  0.2771
  604SOL     OW 2413   2.168   1.589   0.451  0.1658 -0.2854 -0.2431
  604SOL    HW1 2414   2.182   1.509   0.504  0.6355  1.6067  2.4734
  604SOL    HW2 2415   2.099   1.639   0.510  0.6859  1.1576  1.5195
  604SOL     MW 2416   2.161   1.585   0.466  0.2964  0.1546  0.3479
  605SOL     OW 2417   2.608   1.515   0.838 -0.0167 -0.5225  0.3578
  605SOL    HW1 2418   2.585   1.610   0.811  0.1265  0.7031  0.2393
  605SOL    HW2 2419   2.575   1.451   0.771 -2.9807 -0.9075 -0.4747
  605SOL     MW 2420   2.600   1.519   0.826 -0.3889 -0.4116  0.2323
  606SOL     OW 2421   2.561   1.754   1.999  0.8821 -1.1164  0.3501
  606SOL    HW1 2422   2.469   1.770   1.978 -0.4380 -1.6661 -0.8395
  606SOL    HW2 2423   2.597   1.713   1.921  1.9816  0.2002 -1.0467
  606SOL     MW 2424   2.554   1.751   1.986  0.8530 -1.0152  0.0088
  607SOL     OW 2425   2.389   1.126   3.048 -0.2216  0.2774  0.0198
  607SOL    HW1 2426   2.438   1.076   2.985  0.3000  0.2226 -0.7351
  607SOL    HW2 2427   2.412   1.082   3.133  1.9869 -0.2957  2.2935
  607SOL     MW 2428   2.398   1.114   3.051  0.1386  0.1946  0.2202
  608SOL     OW 2429   1.866   0.264   0.631 -0.5734  0.3828 -0.1955
  608SOL    HW1 2430   1.843   0.317   0.549 -0.8693 -1.1648  0.2869
  608SOL    HW2 2431   1.831   0.174   0.629 -0.5437 -0.9418 -1.9815
  608SOL     MW 2432   1.859   0.259   0.620 -0.6085  0.0039 -0.3675
  609SOL     OW 2433   2.041   2.011   3.038 -0.1009  0.3157 -0.5377
  609SOL    HW1 2434   1.992   1.941   3.006  2.9205 -0.7121  1.4627
  609SOL    HW2 2435   2.095   1.968   3.114  1.9531 -2.9943 -0.5969
  609SOL     MW 2436   2.042   1.996   3.044  0.5688 -0.2567 -0.2816
  610SOL     OW 2437   1.775   1.002   1.288  0.5783 -0.4878 -0.5266
  610SOL    HW1 2438   1.798   0.916   1.262  0.8135  0.1581  0.3952
  610SOL    HW2 2439   1.680   0.994   1.284  1.8525  0.6895 -0.6895
  610SOL     MW 2440   1.765   0.989   1.284  0.7774 -0.2473 -0.4265
  611SOL     OW 2441   2.531   1.727   0.698  0.3556 -0.6957  0.1899
  611SOL    HW1 2442   2.542   1.814   0.725  0.3632 -1.1163 -1.5071
  611SOL    HW2 2443   2.487   1.747   0.615 -2.3141  1.6053 -0.0462
  611SOL     MW 2444   2.527   1.741   0.691  0.0044 -0.4476 -0.0652
  612SOL     OW 2445   2.787   2.840   0.418  0.2037  0.3707  0.1485
  612SOL    HW1 2446   2.833   2.880   0.496 -1.2523 -1.9670 -0.0758
  612SOL    HW2 2447   2.860   2.801   0.364  1.2272 -0.7003  1.7214
  612SOL     MW 2448   2.803   2.840   0.421  0.1467 -0.0790  0.3264
  613SOL     OW 2449   1.471   0.994   0.926  0.0059  0.5044 -0.5291
  613SOL    HW1 2450   1.546   1.043   0.896 -1.8477  0.5864  1.7272
  613SOL    HW2 2451   1.492   0.999   1.023  2.1733  1.1154 -1.0861
  613SOL     MW 2452   1.483   1.001   0.935  0.0473  0.5958 -0.3049
  614SOL     OW 2453   2.014   0.562   1.461  0.0776  0.0424 -0.5865
  614SOL    HW1 2454   1.991   0.485   1.520 -0.7270  4.4231  2.4837
  614SOL    HW2 2455   1.967   0.538   1.386  3.0276  0.2638  1.7005
  614SOL     MW 2456   2.005   0.549   1.459  0.3607  0.6496  0.1203
  615SOL     OW 2457   2.387   0.740   0.252 -0.5103  0.3232 -0.0701
  615SOL    HW1 2458   2.468   0.692   0.245 -0.3109 -1.4102  1.5946
  615SOL    HW2 2459   2.346   0.703   0.173  2.1310 -3.0447 -3.9409
  615SOL     MW 2460   2.392   0.729   0.241 -0.1355 -0.3499 -0.3612
  616SOL     OW 2461   2.531   0.407   1.647  0.5195 -0.1794  0.1546
  616SOL    HW1 2462   2.535   0.312   1.636  2.7090  1.4664 -0.0056
  616SOL    HW2 2463   2.499   0.438   1.562  0.2038  1.8538 -0.1576
  616SOL     MW 2464   2.528   0.399   1.634  0.7668  0.3060  0.0923
  617SOL     OW 2465   2.843   0.657   1.748 -1.0265  0.0323 -0.1964
  617SOL    HW1 2466   2.774   0.675   1.808 -1.8715  2.1924 -1.1722
  617SOL    HW2 2467   2.817   0.566   1.733 -0.2302  0.1021  3.3702
  617SOL     MW 2468   2.830   0.647   1.754 -1.0329  0.3265  0.1454
  618SOL     OW 2469   2.715   0.359   1.908  0.5924 -0.5706  0.5805
  618SOL    HW1 2470   2.689   0.453   1.921 -0.2646  1.7386 -2.8395
  618SOL    HW2 2471   2.807   0.361   1.937  0.4201  1.1114  3.0896
  618SOL     MW 2472   2.723   0.372   1.914  0.4566 -0.0440  0.4603
  619SOL     OW 2473   2.670   0.656   0.082  0.0925  0.8475  0.0021
  619SOL    HW1 2474   2.722   0.737   0.107 -0.0048  0.8141  0.1387
  619SOL    HW2 2475   2.663   0.589   0.152 -3.1794  1.3473  1.0509
  619SOL     MW 2476   2.676   0.658   0.094 -0.3520  0.9090  0.1585
  620SOL     OW 2477   2.224   1.063   1.003 -0.3982 -0.0893 -0.8961
  620SOL    HW1 2478   2.312   1.061   0.959 -0.0839  1.2523  2.0843
  620SOL    HW2 2479   2.175   1.000   0.955  1.2649  0.3225  1.5740
  620SOL     MW 2480   2.229   1.054   0.991 -0.1373  0.1420 -0.1770
  621SOL     OW 2481   1.550   2.168   1.919  0.0711  0.3942 -0.3410
  621SOL    HW1 2482   1.515   2.124   2.003 -1.8352 -0.8391  0.7743
  621SOL    HW2 2483   1.646   2.144   1.921  4.0898 -1.0462 -2.1413
  621SOL     MW 2484   1.558   2.159   1.930  0.3498  0.0414 -0.4314
  622SOL     OW 2485   2.628   0.169   0.237 -0.0214  0.2142 -0.4395
  622SOL    HW1 2486   2.715   0.211   0.235 -0.3621  0.6977  1.5367
  622SOL    HW2 2487   2.640   0.081   0.275 -1.1076  0.8268  0.8245
  622SOL     MW 2488   2.641   0.163   0.242 -0.2097  0.3588 -0.0119
  623SOL     OW 2489   2.351   2.775   0.843  0.5007 -0.6340  0.3943
  623SOL    HW1 2490   2.431   2.832   0.843  1.3355 -3.8159 -2.3733
  623SOL    HW2 2491   2.300   2.785   0.923  1.8261 -0.2936 -1.7205
  623SOL     MW 2492   2.355   2.784   0.853  0.7857 -1.0089 -0.2499
  624SOL     OW 2493   2.180   1.721   2.987 -0.3472 -0.0126  0.0229
  624SOL    HW1 2494   2.144   1.638   3.014  1.7521  0.5738 -3.5661
  624SOL    HW2 2495   2.112   1.777   2.953  1.2693 -4.0404 -0.7475
  624SOL     MW 2496   2.166   1.717   2.986  0.1430 -0.4667 -0.5523
  625SOL     OW 2497   2.206   1.914   1.089  0.7612 -0.8210  0.3090
  625SOL    HW1 2498   2.266   1.888   1.160 -1.9738  1.3575 -0.9385
  625SOL    HW2 2499   2.267   1.936   1.017 -0.1412 -1.7963  0.6082
  625SOL     MW 2500   2.222   1.913   1.089  0.2813 -0.6623  0.1839
  626SOL     OW 2501   0.316   1.599   2.345  0.2981 -0.1396  0.2901
  626SOL    HW1 2502   0.266   1.525   2.365  0.5140  0.5527 -1.4385
  626SOL    HW2 2503   0.265   1.658   2.290 -1.3404 -3.3859  0.7643
  626SOL     MW 2504   0.303   1.597   2.340  0.1104 -0.4766  0.1246
  627SOL     OW 2505   2.444   0.706   2.559 -0.3068 -0.1625  0.4709
  627SOL    HW1 2506   2.403   0.791   2.582  2.6383  1.0988  0.7579
  627SOL    HW2 2507   2.425   0.703   2.465 -2.7877  0.3312  2.0980
  627SOL     MW 2508   2.436   0.717   2.550 -0.2456  0.0691  0.7234
  628SOL     OW 2509   2.339   1.413   1.354 -0.1074 -0.2522 -0.6598
  628SOL    HW1 2510   2.309   1.344   1.297  1.0704  0.2931  0.5173
  628SOL    HW2 2511   2.436   1.423   1.335  1.0916  1.4814 -1.7156
  628SOL     MW 2512   2.348   1.405   1.344  0.2062  0.0485 -0.6438
  629SOL     OW 2513   1.861   0.514   1.246  0.4688  0.4071  0.3274
  629SOL    HW1 2514   1.875   0.598   1.202 -0.3415 -0.9640 -2.1116
  629SOL    HW2 2515   1.766   0.519   1.270 -2.9810 -0.3275 -0.4079
  629SOL     MW 2516   1.850   0.526   1.244 -0.0933  0.1293 -0.0914
  630SOL     OW 2517   2.415   1.835   2.995 -0.4652 -0.4256  1.1257
  630SOL    HW1 2518   2.409   1.932   2.974 -1.8810 -1.8635 -0.4677
  630SOL    HW2 2519   2.322   1.798   2.989 -1.2809 -2.7776  0.0343
  630SOL     MW 2520   2.402   1.843   2.991 -0.7596 -0.9256  0.7714
  631SOL     OW 2521   1.997   1.819   1.596  0.3860  0.6190  0.4848
  631SOL    HW1 2522   2.011   1.735   1.635 -0.2746  1.7189 -2.5120
  631SOL    HW2 2523   1.968   1.801   1.502 -1.4722 -0.4165 -0.4356
  631SOL     MW 2524   1.995   1.805   1.589  0.0537  0.6275 -0.0321
  632SOL     OW 2525   0.182   1.952   1.413  0.0608 -0.4685 -0.5984
  632SOL    HW1 2526   0.136   1.949   1.495 -1.4847 -1.5019  0.2450
  632SOL    HW2 2527   0.200   1.855   1.395 -0.6071  1.1370  0.0786
  632SOL     MW 2528   0.178   1.939   1.421 -0.2312 -0.3930 -0.3978
  633SOL     OW 2529   2.559   0.489   0.322 -0.1293  0.0512 -0.4231
  633SOL    HW1 2530   2.601   0.469   0.404  1.8953 -0.7860  0.2300
  633SOL    HW2 2531   2.512   0.408   0.304 -0.8711  1.0370  0.8207
  633SOL     MW 2532   2.558   0.476   0.330  0.0400  0.0708 -0.1728
  634SOL     OW 2533   2.645   0.029   0.663 -0.3407  0.8900  0.2257
  634SOL    HW1 2534   2.712   0.100   0.661  2.3472 -1.8520 -2.1811
  634SOL    HW2 2535   2.600   0.030   0.582  0.8852 -3.0360  0.0449
  634SOL     MW 2536   2.648   0.039   0.652  0.1757  0.0102 -0.1157
  635SOL     OW 2537   2.613   0.129   1.848 -0.1832 -0.7732  0.0613
  635SOL    HW1 2538   2.671   0.072   1.797  0.1444  3.8929 -1.2039
  635SOL    HW2 2539   2.663   0.201   1.874  0.1443 -0.1502  1.0836
  635SOL     MW 2540   2.627   0.131   1.844 -0.0967 -0.0754  0.0293
  636SOL     OW 2541   2.842   1.605   1.053 -0.1588  0.3525 -1.1491
  636SOL    HW1 2542   2.754   1.620   1.082  0.0571  0.1712  0.7837
  636SOL    HW2 2543   2.880   1.694   1.041  0.0033 -1.4419  3.2974
  636SOL     MW 2544   2.835   1.619   1.055 -0.1090  0.0918 -0.3074
  637SOL     OW 2545   2.874   1.452   0.755  0.0853  0.8036 -0.1815
  637SOL    HW1 2546   2.915   1.519   0.702 -2.8771 -0.9433 -1.8820
  637SOL    HW2 2547   2.803   1.496   0.807  0.3046  1.1546  0.9149
  637SOL     MW 2548   2.870   1.467   0.755 -0.2767  0.6195 -0.2612
  638SOL     OW 2549   2.713   0.521   0.585 -0.4887  0.1744  0.2548
  638SOL    HW1 2550   2.809   0.504   0.567 -0.2955 -1.4414 -0.9237
  638SOL    HW2 2551   2.714   0.578   0.662 -0.5172 -2.6419 -0.3021
  638SOL     MW 2552   2.726   0.526   0.593 -0.4669 -0.4104  0.0258
  639SOL     OW 2553   1.761   0.018   0.604 -0.3117  0.1743 -0.2907
  639SOL    HW1 2554   1.677   0.051   0.587 -0.2720  0.2468 -3.4065
  639SOL    HW2 2555   1.777  -0.059   0.546 -0.3219 -1.9538  0.3249
  639SOL     MW 2556   1.752   0.012   0.594 -0.3078 -0.0969 -0.6206
  640SOL     OW 2557   0.336   1.297   0.140  0.0583  0.3888  0.0345
  640SOL    HW1 2558   0.363   1.329   0.049 -2.8713 -1.0797 -1.7640
  640SOL    HW2 2559   0.305   1.204   0.121 -3.5128 -1.0149 -1.0214
  640SOL     MW 2560   0.336   1.289   0.125 -0.7994  0.0099 -0.3421
  641SOL     OW 2561   2.167   0.389   0.380  0.0638 -0.1319  0.5534
  641SOL    HW1 2562   2.194   0.408   0.286 -0.3465  0.4053 -0.0783
  641SOL    HW2 2563   2.222   0.313   0.408  0.2260  0.5616 -1.5876
  641SOL     MW 2564   2.178   0.382   0.371  0.0311  0.0305  0.1876
  642SOL     OW 2565   0.073   3.087   0.562 -0.4213  0.1038  0.0587
  642SOL    HW1 2566   0.022   3.159   0.513 -3.1049  0.6765 -0.4734
  642SOL    HW2 2567   0.000   3.053   0.618 -0.2857  1.7952 -1.5168
  642SOL     MW 2568   0.057   3.092   0.563 -0.7575  0.4026 -0.2194
  643SOL     OW 2569   1.976   0.338   1.616  0.0170  0.1450 -0.0141
  643SOL    HW1 2570   1.918   0.300   1.683 -1.8325 -1.4023  1.4938
  643SOL    HW2 2571   1.999   0.262   1.552  0.7730  2.4021 -1.9908
  643SOL     MW 2572   1.972   0.323   1.616 -0.1273  0.2386 -0.0760
  644SOL     OW 2573   2.753   2.014   1.048  0.1696 -0.5953  0.3188
  644SOL    HW1 2574   2.742   1.975   1.133  2.5658 -1.5103  1.5092
  644SOL    HW2 2575   2.666   2.059   1.029 -2.0047 -1.2204 -0.9407
  644SOL     MW 2576   2.740   2.015   1.057  0.1989 -0.7985  0.3097
  645SOL     OW 2577   2.849   0.840   0.627 -0.3050  0.6947 -0.5347
  645SOL    HW1 2578   2.943   0.831   0.639  0.2611 -0.0972  0.3352
  645SOL    HW2 2579   2.815   0.775   0.687 -0.5381 -0.7832  1.1191
  645SOL     MW 2580   2.857   0.830   0.637 -0.2610  0.3952 -0.2017
  646SOL     OW 2581   0.112   2.312   0.821 -0.7300 -0.5666  0.8671
  646SOL    HW1 2582   0.142   2.217   0.804 -2.1338  0.5126  2.2616
  646SOL    HW2 2583   0.049   2.341   0.747  4.2990 -2.9257 -2.7198
  646SOL     MW 2584   0.108   2.303   0.809 -0.2517 -0.7355  0.5778
  647SOL     OW 2585   2.684   0.466   2.918  0.5303 -0.2295 -0.6784
  647SOL    HW1 2586   2.632   0.397   2.956  3.0364  0.5813 -0.5295
  647SOL    HW2 2587   2.629   0.545   2.913  1.7029  0.4923 -3.9280
  647SOL     MW 2588   2.670   0.467   2.922  1.0157 -0.0273 -1.0875
  648SOL     OW 2589   2.091   0.735   1.188  0.5986 -0.3733 -0.1330
  648SOL    HW1 2590   2.174   0.709   1.154 -0.9571  0.1898  2.1006
  648SOL    HW2 2591   2.104   0.816   1.233  0.4864  3.9015 -0.9598
  648SOL     MW 2592   2.104   0.742   1.190  0.3786  0.2650  0.0526
  649SOL     OW 2593   2.391   2.668   1.268 -0.1578  0.0169 -0.0319
  649SOL    HW1 2594   2.462   2.719   1.306  1.0214  1.2294  1.8094
  649SOL    HW2 2595   2.406   2.575   1.275 -0.9908 -2.9979  0.1493
  649SOL     MW 2596   2.402   2.662   1.274 -0.1121 -0.2209  0.2349
  650SOL     OW 2597   2.851   0.220   0.615  0.3696  0.4083 -0.0471
  650SOL    HW1 2598   2.865   0.292   0.676 -1.7382 -0.7145  1.6293
  650SOL    HW2 2599   2.928   0.212   0.551 -0.0682 -0.3568 -3.7258
  650SOL     MW 2600   2.863   0.228   0.614  0.0337  0.1592 -0.3112
  651SOL     OW 2601   3.026   0.426   0.923  0.6957 -0.1347  0.6202
  651SOL    HW1 2602   3.097   0.481   0.891  0.9485  1.6331 -0.3052
  651SOL    HW2 2603   2.992   0.473   1.000  1.9052  2.6266  0.6323
  651SOL     MW 2604   3.031   0.440   0.929  0.8887  0.4629  0.4997
  652SOL     OW 2605   2.462   1.511   3.008 -0.2494  0.7499  0.5944
  652SOL    HW1 2606   2.540   1.498   2.948  0.7856 -1.6724 -0.2712
  652SOL    HW2 2607   2.439   1.610   2.994 -1.9458  0.7820 -0.0860
  652SOL     MW 2608   2.469   1.522   2.998 -0.3367  0.4345  0.3904
  653SOL     OW 2609   1.795   0.419   0.399  0.0041  0.2822 -0.0887
  653SOL    HW1 2610   1.751   0.347   0.357 -3.5107 -0.1649  2.9401
  653SOL    HW2 2611   1.890   0.424   0.367  0.7990  0.8024 -1.7369
  653SOL     MW 2612   1.802   0.410   0.390 -0.3548  0.2918  0.0934
  654SOL     OW 2613   2.408   1.024   0.777  0.2717  0.0327 -0.2383
  654SOL    HW1 2614   2.348   1.020   0.701  1.7805  1.8135  0.1446
  654SOL    HW2 2615   2.441   0.932   0.802 -0.5699  2.3422  0.6602
  654SOL     MW 2616   2.405   1.012   0.771  0.3597  0.5724 -0.0693
  655SOL     OW 2617   2.920   0.843   0.368  0.3951  0.0843  0.3404
  655SOL    HW1 2618   2.879   0.850   0.456 -0.3739 -0.2370  1.0905
  655SOL    HW2 2619   2.959   0.759   0.376  0.1686  1.7813 -0.2017
  655SOL     MW 2620   2.920   0.833   0.381  0.2638  0.2658  0.3678
  656SOL     OW 2621   1.884   2.736   1.329  0.2915  0.1211  0.3091
  656SOL    HW1 2622   1.892   2.830   1.326 -3.7197 -0.3111  0.8221
  656SOL    HW2 2623   1.906   2.709   1.411  0.4509  2.2168 -2.1165
  656SOL     MW 2624   1.888   2.745   1.339 -0.2167  0.3406  0.0568
  657SOL     OW 2625   0.158   1.758   1.171 -0.0469  0.3957 -0.0833
  657SOL    HW1 2626   0.224   1.806   1.123 -2.1797  1.2541  0.4317
  657SOL    HW2 2627   0.187   1.668   1.161 -0.0546 -2.0700  2.3158
  657SOL     MW 2628   0.171   1.753   1.163 -0.3293  0.1837  0.3012
  658SOL     OW 2629   2.688   1.366   0.251 -0.1280 -0.1467 -0.1167
  658SOL    HW1 2630   2.676   1.275   0.301 -0.8765 -1.7818 -0.0656
  658SOL    HW2 2631   2.708   1.418   0.326 -1.2483 -0.6214  1.7069
  658SOL     MW 2632   2.689   1.361   0.267 -0.3746 -0.4251  0.1307
  659SOL     OW 2633   2.281   1.542   1.057 -0.3596  0.4077 -0.9477
  659SOL    HW1 2634   2.379   1.521   1.074  1.7548  0.3502  1.1088
  659SOL    HW2 2635   2.259   1.575   1.141 -1.1054 -2.2569 -3.0002
  659SOL     MW 2636   2.291   1.543   1.071 -0.1790  0.0485 -0.9472
  660SOL     OW 2637   2.036   1.564   1.670  0.8644 -0.2352 -0.3816
  660SOL    HW1 2638   2.047   1.576   1.768  0.5096 -3.7768 -0.1588
  660SOL    HW2 2639   1.947   1.517   1.664  0.7020 -0.2053  1.3345
  660SOL     MW 2640   2.026   1.559   1.682  0.7962 -0.6986 -0.1258
  661SOL     OW 2641   2.451   1.024   0.191  0.2938  0.1568 -0.1558
  661SOL    HW1 2642   2.510   1.060   0.260 -1.4134  2.2813  0.7485
  661SOL    HW2 2643   2.450   0.925   0.203  1.2506  0.3956  1.7073
  661SOL     MW 2644   2.459   1.016   0.202  0.1948  0.4686  0.2093
  662SOL     OW 2645   2.563   2.979   0.873 -0.2168  0.2585  0.7344
  662SOL    HW1 2646   2.507   3.043   0.923 -0.6388  0.3647 -2.2312
  662SOL    HW2 2647   2.591   3.036   0.798  1.0491 -0.3031  0.9010
  662SOL     MW 2648   2.560   2.995   0.870 -0.1055  0.1984  0.3651
  663SOL     OW 2649   2.650   1.486   0.515 -0.2530  0.1553  0.1523
  663SOL    HW1 2650   2.637   1.556   0.459 -1.5130  1.0846  1.5862
  663SOL    HW2 2651   2.729   1.515   0.561  0.1590  1.1199 -1.7110
  663SOL     MW 2652   2.659   1.499   0.514 -0.3649  0.4052  0.0956
  664SOL     OW 2653   2.539   1.509   1.558 -0.0411  0.1372 -0.4922
  664SOL    HW1 2654   2.542   1.603   1.547  0.2678 -1.1361 -1.1829
  664SOL    HW2 2655   2.449   1.483   1.550  1.2839 -1.3074  1.9494
  664SOL     MW 2656   2.528   1.518   1.555  0.1745 -0.2214 -0.2612
  665SOL     OW 2657   2.852   0.858   2.013 -0.1095 -0.0510 -0.3982
  665SOL    HW1 2658   2.815   0.870   1.930  3.7195 -1.7416  0.4778
  665SOL    HW2 2659   2.922   0.797   1.996  0.8565  2.6088  1.4038
  665SOL     MW 2660   2.857   0.852   2.000  0.5232  0.0769 -0.0449
  666SOL     OW 2661   2.767   3.041   1.722  0.1723  0.3912  0.3710
  666SOL    HW1 2662   2.756   3.052   1.628  0.5519  2.0001  0.8968
  666SOL    HW2 2663   2.728   2.961   1.748  4.0250  0.9192  1.1389
  666SOL     MW 2664   2.760   3.032   1.713  0.7307  0.6731  0.5417
  667SOL     OW 2665   1.961   2.691   1.774  0.1709 -0.3359  0.4278
  667SOL    HW1 2666   1.989   2.658   1.858 -1.9827  0.5763  2.1244
  667SOL    HW2 2667   2.035   2.744   1.737  1.3413 -1.3470  0.4921
  667SOL     MW 2668   1.975   2.694   1.781  0.0412 -0.3490  0.6602
  668SOL     OW 2669   2.760   0.651   0.826 -0.3048  0.2249  0.1129
  668SOL    HW1 2670   2.821   0.648   0.906 -1.9528 -0.6333  0.0297
  668SOL    HW2 2671   2.697   0.714   0.851  4.4311 -1.4169 -0.9544
  668SOL     MW 2672   2.760   0.659   0.840  0.1026 -0.1049 -0.0389
  669SOL     OW 2673   0.197   0.958   0.688  0.2631 -0.6662 -0.0789
  669SOL    HW1 2674   0.156   1.017   0.748 -1.8068  0.8694 -0.6852
  669SOL    HW2 2675   0.284   0.957   0.723 -1.4130  1.7202 -3.3078
  669SOL     MW 2676   0.204   0.966   0.700 -0.2311 -0.1487 -0.5850
  670SOL     OW 2677   2.881   0.233   0.205  0.2828  0.4542  0.1141
  670SOL    HW1 2678   2.903   0.176   0.129 -2.5214 -0.9244 -0.8864
  670SOL    HW2 2679   2.930   0.314   0.183 -1.1705  1.9308  2.4928
  670SOL     MW 2680   2.891   0.236   0.192 -0.2790  0.4671  0.2959
  671SOL     OW 2681   2.036   3.022   1.523  0.4952  0.9490 -0.0233
  671SOL    HW1 2682   1.984   3.016   1.440  0.6453 -1.2673 -1.4941
  671SOL    HW2 2683   1.977   3.063   1.597  1.3097  0.4465  1.7603
  671SOL     MW 2684   2.021   3.026   1.521  0.6224  0.5903  0.0180
  672SOL     OW 2685   1.917   1.711   1.310  0.4341  0.2814  0.6892
  672SOL    HW1 2686   1.827   1.719   1.338  0.5901  0.8243 -1.1776
  672SOL    HW2 2687   1.911   1.743   1.219  1.9256 -1.3802 -1.4776
  672SOL     MW 2688   1.904   1.717   1.302  0.6515  0.1338  0.1570
  673SOL     OW 2689   2.771   1.098   0.587  0.1029 -0.2908  0.6335
  673SOL    HW1 2690   2.765   1.007   0.610  0.7081  1.3851  1.3563
  673SOL    HW2 2691   2.856   1.131   0.606  1.8690 -2.1934 -0.9915
  673SOL     MW 2692   2.781   1.090   0.592  0.4157 -0.3207  0.5144
  674SOL     OW 2693   2.436   3.101   1.280 -0.0837 -0.8778  0.2746
  674SOL    HW1 2694   2.407   3.116   1.185 -1.4400 -0.4084  1.6337
  674SOL    HW2 2695   2.488   3.021   1.283  1.1115 -0.0565  2.2912
  674SOL     MW 2696   2.439   3.092   1.268 -0.1049 -0.7075  0.7200
  675SOL     OW 2697   3.062   0.899   1.070  0.3091  0.3392 -0.0267
  675SOL    HW1 2698   3.117   0.882   1.148 -0.2852  1.5883 -3.4605
  675SOL    HW2 2699   3.111   0.954   1.007 -0.5754  0.3487 -0.4635
  675SOL     MW 2700   3.076   0.904   1.072  0.1140  0.5052 -0.5374
  676SOL     OW 2701   2.897   1.506   1.661  0.3646 -0.2997  0.3268
  676SOL    HW1 2702   2.869   1.427   1.612  1.8972 -2.0273  1.5486
  676SOL    HW2 2703   2.963   1.457   1.705  0.1480  1.9377  0.0398
  676SOL     MW 2704   2.902   1.489   1.660  0.5382 -0.2324  0.4502
  677SOL     OW 2705   2.406   0.555   1.989 -0.4288  0.2761 -0.0774
  677SOL    HW1 2706   2.362   0.512   1.911 -0.8449  0.9464 -2.4418
  677SOL    HW2 2707   2.362   0.636   1.996 -2.9434 -0.7472 -2.7773
  677SOL     MW 2708   2.394   0.560   1.980 -0.8155  0.2295 -0.7455
  678SOL     OW 2709   2.567   1.679   0.300 -0.1651 -0.1263 -0.2882
  678SOL    HW1 2710   2.483   1.719   0.342 -2.3136  2.0204 -2.5233
  678SOL    HW2 2711   2.521   1.601   0.258 -3.2307 -1.4464 -0.5381
  678SOL     MW 2712   2.550   1.674   0.300 -0.8531 -0.0173 -0.6161
  679SOL     OW 2713   2.215   0.464   1.256 -0.3464  0.0806  0.7267
  679SOL    HW1 2714   2.198   0.371   1.233 -0.2905 -1.1150  2.1515
  679SOL    HW2 2715   2.162   0.472   1.336 -1.4061 -1.2342 -0.0764
  679SOL     MW 2716   2.206   0.453   1.263 -0.4788 -0.2506  0.8087
  680SOL     OW 2717   2.347   0.177   1.519  0.3359  0.0387 -0.3154
  680SOL    HW1 2718   2.250   0.187   1.486  2.7420 -1.9836  0.0159
  680SOL    HW2 2719   2.385   0.124   1.452  1.0547 -1.2657 -0.7776
  680SOL     MW 2720   2.340   0.171   1.506  0.7482 -0.4002 -0.3327
  681SOL     OW 2721   0.319   0.541   1.544  0.4179 -0.8237  0.0790
  681SOL    HW1 2722   0.294   0.469   1.593  0.9447  2.0451 -1.5964
  681SOL    HW2 2723   0.413   0.549   1.564 -0.4196 -2.0176 -0.9494
  681SOL     MW 2724   0.328   0.532   1.553  0.3769 -0.6027 -0.2777
  682SOL     OW 2725   0.069   2.890   1.499  0.3377 -0.1266 -0.0415
  682SOL    HW1 2726   0.159   2.879   1.520 -0.9970 -2.0005  0.4388
  682SOL    HW2 2727   0.021   2.939   1.571 -0.1989  0.7880 -1.2338
  682SOL     MW 2728   0.075   2.895   1.511  0.0908 -0.2532 -0.1355
  683SOL     OW 2729   2.058   0.833   2.991  0.8000  0.2007 -0.2906
  683SOL    HW1 2730   1.971   0.793   2.979  0.9863 -1.2024 -1.6374
  683SOL    HW2 2731   2.050   0.909   3.047  0.3978  0.3738  0.4069
  683SOL     MW 2732   2.046   0.837   2.997  0.7715  0.0385 -0.3762
  684SOL     OW 2733   2.219   1.672   0.813  0.0014 -0.4077 -0.3755
  684SOL    HW1 2734   2.146   1.626   0.782  1.4047  0.4965  0.1709
  684SOL    HW2 2735   2.236   1.643   0.907 -1.1382 -0.8683  0.6560
  684SOL     MW 2736   2.212   1.662   0.822  0.0362 -0.3492 -0.1673
  685SOL     OW 2737   2.623   1.750   1.210 -0.4791  0.1096  0.5153
  685SOL    HW1 2738   2.701   1.745   1.265  0.2069  0.0002 -0.1029
  685SOL    HW2 2739   2.594   1.660   1.189 -0.6354  1.8665  0.4007
  685SOL     MW 2740   2.630   1.737   1.214 -0.4092  0.3270  0.4186
  686SOL     OW 2741   2.893   0.803   1.514 -0.2808  0.5963 -0.0168
  686SOL    HW1 2742   2.889   0.748   1.594  2.1190  1.2492  0.0090
  686SOL    HW2 2743   2.985   0.803   1.488  0.7844 -1.5225  0.9100
  686SOL     MW 2744   2.904   0.796   1.521  0.1764  0.4029  0.1089
  687SOL     OW 2745   2.150   0.211   1.164  0.6317 -0.7158  0.7123
  687SOL    HW1 2746   2.182   0.148   1.103 -2.6488  1.0783 -0.3595
  687SOL    HW2 2747   2.072   0.242   1.117 -0.2302 -0.4464 -0.5320
  687SOL     MW 2748   2.144   0.207   1.149  0.0851 -0.4435  0.4067
  688SOL     OW 2749   2.391   0.586   1.459 -0.1630  0.1730  0.2447
  688SOL    HW1 2750   2.333   0.564   1.378 -0.5019 -2.0501 -2.8690
  688SOL    HW2 2751   2.337   0.642   1.522 -0.4894  1.1801  1.6492
  688SOL     MW 2752   2.377   0.591   1.457 -0.2508  0.0126  0.0192
  689SOL     OW 2753   2.512   0.765   2.998 -0.2463  0.3631  0.0868
  689SOL    HW1 2754   2.539   0.848   2.960 -2.2112 -0.8165 -2.4677
  689SOL    HW2 2755   2.572   0.731   3.068 -4.5631 -0.3143 -2.0227
  689SOL     MW 2756   2.523   0.772   3.002 -1.0751  0.1181 -0.5286
  690SOL     OW 2757   2.038   0.932   1.897 -0.0994 -0.0077  0.0434
  690SOL    HW1 2758   2.018   0.839   1.878 -0.0991 -1.2187  1.9708
  690SOL    HW2 2759   2.032   0.968   1.805  1.0075 -1.9719 -2.4807
  690SOL     MW 2760   2.035   0.925   1.882  0.0467 -0.4266 -0.0353
  691SOL     OW 2761   2.393   0.309   0.904  0.0593  0.2056  0.0204
  691SOL    HW1 2762   2.462   0.372   0.922  0.9343  0.7747  0.0865
  691SOL    HW2 2763   2.308   0.352   0.918  0.7973  2.4172  0.6491
  691SOL     MW 2764   2.391   0.323   0.908  0.2721  0.5725  0.1120
  692SOL     OW 2765   2.849   1.700   1.401  0.4320 -0.0724 -0.7134
  692SOL    HW1 2766   2.839   1.647   1.482 -2.8984  0.1424 -1.2513
  692SOL    HW2 2767   2.906   1.775   1.431  2.8000  1.5935 -0.3015
  692SOL     MW 2768   2.855   1.703   1.415  0.3050  0.1758 -0.7300
  693SOL     OW 2769   2.298   0.410   0.125 -0.4723 -0.0827  0.5804
  693SOL    HW1 2770   2.222   0.347   0.120  0.6359  1.0230  0.9937
  693SOL    HW2 2771   2.260   0.490   0.099  0.0722  1.8369  0.8395
  693SOL     MW 2772   2.283   0.412   0.121 -0.2542  0.3164  0.6691
  694SOL     OW 2773   1.940   1.186   1.181 -0.4769  0.3227  0.7285
  694SOL    HW1 2774   2.031   1.168   1.196 -1.7286 -1.3798 -0.9484
  694SOL    HW2 2775   1.881   1.124   1.227 -1.3438 -0.6614 -0.0355
  694SOL     MW 2776   1.944   1.175   1.189 -0.7564 -0.0318  0.4064
  695SOL     OW 2777   3.016   1.508   1.348  0.2010  0.4198  0.0957
  695SOL    HW1 2778   2.976   1.463   1.274  0.4201  1.1041  0.7062
  695SOL    HW2 2779   2.962   1.586   1.341  2.7766 -1.6039 -1.5086
  695SOL     MW 2780   3.003   1.512   1.337  0.5698  0.2431 -0.0354
  696SOL     OW 2781   2.144   1.326   0.845 -0.5629 -0.7003 -0.4280
  696SOL    HW1 2782   2.199   1.387   0.892  1.3953  2.0830  3.1415
  696SOL    HW2 2783   2.091   1.270   0.903  2.0478 -0.9509  1.0244
  696SOL     MW 2784   2.144   1.327   0.859  0.0399 -0.3662  0.2346
  697SOL     OW 2785   2.933   1.048   2.207 -0.0850 -0.6549  0.5852
  697SOL    HW1 2786   2.855   1.106   2.231 -0.1377  0.3101  1.1182
  697SOL    HW2 2787   2.907   0.988   2.141 -0.3266  2.3972  0.5058
  697SOL     MW 2788   2.920   1.048   2.202 -0.1238 -0.1249  0.6450
  698SOL     OW 2789   2.520   0.299   0.012  0.7812  0.0593 -0.0782
  698SOL    HW1 2790   2.440   0.341   0.051  0.9583  0.0195  0.3195
  698SOL    HW2 2791   2.562   0.255   0.087 -2.5887  1.5938 -0.6178
  698SOL     MW 2792   2.515   0.299   0.027  0.3599  0.2565 -0.0969
  699SOL     OW 2793   1.824   1.625   2.023 -0.2939 -0.4716  0.0666
  699SOL    HW1 2794   1.785   1.531   2.013  0.8528 -1.3802  2.3231
  699SOL    HW2 2795   1.918   1.609   1.982 -1.9240 -0.6250 -3.0956
  699SOL     MW 2796   1.831   1.611   2.016 -0.3577 -0.6117 -0.0529
  700SOL     OW 2797   2.665   0.974   1.492 -0.0292  0.1258  0.0255
  700SOL    HW1 2798   2.693   1.056   1.452  1.1080 -0.3843  0.5119
  700SOL    HW2 2799   2.737   0.911   1.463  2.0900  1.2265  0.9259
  700SOL     MW 2800   2.678   0.976   1.483  0.4005  0.2037  0.2085
  701SOL     OW 2801   1.643   1.186   2.463  0.2632 -0.3546 -0.7997
  701SOL    HW1 2802   1.725   1.232   2.450 -1.3859 -1.9867 -0.6251
  701SOL    HW2 2803   1.620   1.192   2.558 -0.7799  1.5603  0.7194
  701SOL     MW 2804   1.651   1.193   2.474 -0.0920 -0.3173 -0.5762
  702SOL     OW 2805   2.158   0.456   0.824 -0.8055  0.2607  0.5373
  702SOL    HW1 2806   2.154   0.365   0.780 -0.7236  0.9562  0.2501
  702SOL    HW2 2807   2.215   0.518   0.774 -0.4675 -2.0472  0.1527
  702SOL     MW 2808   2.165   0.452   0.812 -0.7501  0.0480  0.4487
  703SOL     OW 2809   2.743   1.219   1.021 -0.4758 -0.1569  0.3757
  703SOL    HW1 2810   2.713   1.203   0.929  0.1057  0.5109 -3.2153
  703SOL    HW2 2811   2.758   1.129   1.063  0.8829 -1.1061 -1.9447
  703SOL     MW 2812   2.741   1.205   1.014 -0.2198 -0.1940 -0.4042
  704SOL     OW 2813   3.037   1.198   0.122 -0.2967 -0.4512 -0.7806
  704SOL    HW1 2814   2.944   1.200   0.103 -3.1735 -2.2889  1.8334
  704SOL    HW2 2815   3.033   1.171   0.218 -1.7263 -0.4431 -0.6208
  704SOL     MW 2816   3.024   1.195   0.132 -0.8649 -0.6926 -0.4146
  705SOL     OW 2817   2.177   1.657   1.292 -0.1443  0.1422 -0.3551
  705SOL    HW1 2818   2.087   1.684   1.274 -3.7682  0.1743 -3.1996
  705SOL    HW2 2819   2.172   1.566   1.329 -0.8109 -0.8823  2.3230
  705SOL     MW 2820   2.164   1.649   1.295 -0.7104  0.0113 -0.3770
  706SOL     OW 2821   2.999   1.217   0.673  0.4795 -0.4077  0.0912
  706SOL    HW1 2822   3.057   1.233   0.593 -0.1550  1.4028 -3.2959
  706SOL    HW2 2823   2.967   1.303   0.702  0.6157 -2.7964  0.3242
  706SOL     MW 2824   3.002   1.231   0.666  0.4137 -0.4840 -0.3250
  707SOL     OW 2825   2.412   0.046   1.020 -0.7735  0.3644 -0.2456
  707SOL    HW1 2826   2.430   0.135   1.000 -0.4714  1.3989  1.4152
  707SOL    HW2 2827   2.320   0.018   0.985  0.8176 -0.5983 -4.4104
  707SOL     MW 2828   2.402   0.054   1.012 -0.5237  0.3739 -0.5760
  708SOL     OW 2829   2.438   1.449   0.182 -0.2764  0.2319  0.6196
  708SOL    HW1 2830   2.518   1.400   0.206  1.6053 -1.0895  1.3004
  708SOL    HW2 2831   2.458   1.459   0.090 -0.6685  0.7774 -0.0804
  708SOL     MW 2832   2.451   1.444   0.173 -0.0798  0.1295  0.6171
  709SOL     OW 2833   1.779   1.647   0.208  0.2810  0.3713  0.7936
  709SOL    HW1 2834   1.730   1.656   0.123  0.7710 -0.9964  2.8091
  709SOL    HW2 2835   1.710   1.657   0.275 -0.9544  2.8971  0.1336
  709SOL     MW 2836   1.764   1.649   0.206  0.1827  0.5241  0.9725
  710SOL     OW 2837   2.207   1.236   1.203  0.6768 -0.0875  0.5937
  710SOL    HW1 2838   2.198   1.205   1.110 -1.5107 -1.3533  0.1584
  710SOL    HW2 2839   2.228   1.148   1.250 -0.6275  0.1789  2.2911
  710SOL     MW 2840   2.209   1.220   1.197  0.2161 -0.2194  0.7602
  711SOL     OW 2841   2.343   0.124   1.785 -0.3205  0.0274 -0.0337
  711SOL    HW1 2842   2.439   0.125   1.796  0.3170  1.3794  3.1727
  711SOL    HW2 2843   2.314   0.158   1.695 -2.8115  2.5391  0.2842
  711SOL     MW 2844   2.352   0.129   1.774 -0.5650  0.5372  0.4313
  712SOL     OW 2845   1.932   0.517   0.099 -0.4582 -0.3993  0.3744
  712SOL    HW1 2846   1.846   0.539   0.069  1.1207 -1.6134  2.1731
  712SOL    HW2 2847   1.962   0.610   0.113  0.5301  2.2838 -0.1551
  712SOL     MW 2848   1.925   0.532   0.097 -0.1195 -0.2055  0.5419
  713SOL     OW 2849   2.556   0.842   1.078  0.0735 -0.4264  0.0367
  713SOL    HW1 2850   2.575   0.757   1.115 -1.9483  1.6644  0.6758
  713SOL    HW2 2851   2.481   0.858   1.139  1.9841  0.2519 -0.4850
  713SOL     MW 2852   2.549   0.833   1.091  0.0589 -0.0610  0.0522
  714SOL     OW 2853   2.223   0.224   2.004  0.7830 -0.3230 -0.0436
  714SOL    HW1 2854   2.283   0.202   2.076 -2.2847  2.2174  0.0614
  714SOL    HW2 2855   2.279   0.208   1.925 -1.0321  1.6263 -1.8046
  714SOL     MW 2856   2.238   0.219   2.003  0.1388  0.2694 -0.2621
  715SOL     OW 2857   1.760   1.914   1.645  0.4227 -0.6698  0.1341
  715SOL    HW1 2858   1.851   1.881   1.626  1.6785 -3.2743 -0.7433
  715SOL    HW2 2859   1.720   1.855   1.711 -0.8327 -1.2538 -0.1521
  715SOL     MW 2860   1.767   1.902   1.651  0.4227 -1.0905 -0.0194
  716SOL     OW 2861   2.305   0.618   0.691 -0.3064  0.1225 -0.7600
  716SOL    HW1 2862   2.357   0.539   0.663 -2.5008 -0.2356 -0.4758
  716SOL    HW2 2863   2.254   0.651   0.615 -0.3084 -0.1167  0.0180
  716SOL     MW 2864   2.305   0.612   0.677 -0.5962  0.0437 -0.6199
  717SOL     OW 2865   2.868   1.551   2.931 -0.1224  0.1597 -0.0394
  717SOL    HW1 2866   2.962   1.532   2.950  0.6920 -0.2799 -0.5491
  717SOL    HW2 2867   2.833   1.627   2.979  0.0791  1.9565 -3.1831
  717SOL     MW 2868   2.875   1.559   2.940  0.0116  0.3388 -0.5214
  718SOL     OW 2869   2.693   1.387   1.325  0.0751 -0.0101 -0.2692
  718SOL    HW1 2870   2.675   1.410   1.416 -1.1496 -0.6658 -0.3109
  718SOL    HW2 2871   2.750   1.307   1.331 -1.5939  1.7313  0.4718
  718SOL     MW 2872   2.698   1.379   1.338 -0.3067  0.1332 -0.1769
  719SOL     OW 2873   2.180   1.289   0.579  0.1029  0.1123 -0.3016
  719SOL    HW1 2874   2.273   1.295   0.585  0.5559  1.3301 -0.2515
  719SOL    HW2 2875   2.164   1.287   0.676 -0.8916 -0.0267 -1.2572
  719SOL     MW 2876   2.190   1.289   0.593  0.0315  0.2546 -0.4211
  720SOL     OW 2877   2.755   1.217   0.020 -0.4994  0.3598  0.0565
  720SOL    HW1 2878   2.736   1.128   0.057  1.0045 -2.2153  0.6369
  720SOL    HW2 2879   2.712   1.273   0.089 -1.2137  1.5237  2.1663
  720SOL     MW 2880   2.747   1.212   0.034 -0.3952  0.1736  0.4115
  721SOL     OW 2881   2.445   0.855   1.371 -0.4475 -0.1498  0.0844
  721SOL    HW1 2882   2.444   0.761   1.382 -1.2296 -1.2155 -4.4350
  721SOL    HW2 2883   2.522   0.888   1.428  0.9034 -3.0509  1.1728
  721SOL     MW 2884   2.455   0.847   1.380 -0.3725 -0.6732 -0.3683
  722SOL     OW 2885   2.589   1.142   0.376 -0.4246 -0.0835 -0.0524
  722SOL    HW1 2886   2.548   1.205   0.442  1.8702 -0.1964  0.2970
  722SOL    HW2 2887   2.664   1.104   0.430  0.6529 -0.0413 -1.8150
  722SOL     MW 2888   2.593   1.145   0.392  0.0203 -0.0928 -0.2389
  723SOL     OW 2889   2.234   1.399   1.616 -0.1096 -0.0039 -0.1401
  723SOL    HW1 2890   2.226   1.397   1.518 -0.7121 -1.3634  0.8006
  723SOL    HW2 2891   2.142   1.428   1.646 -1.6243  1.1280 -1.1054
  723SOL     MW 2892   2.221   1.403   1.607 -0.3889 -0.0339 -0.1434
  724SOL     OW 2893   2.448   0.383   0.640  0.3917 -0.2009 -0.0180
  724SOL    HW1 2894   2.446   0.334   0.719 -0.5598 -2.4860 -0.3111
  724SOL    HW2 2895   2.540   0.388   0.611 -0.2986  0.9033 -0.3916
  724SOL     MW 2896   2.460   0.377   0.647  0.1751 -0.3567 -0.1059
  725SOL     OW 2897   2.546   0.598   1.200 -0.5338  0.5871 -0.7157
  725SOL    HW1 2898   2.626   0.613   1.246 -1.5054  1.6073  0.8721
  725SOL    HW2 2899   2.485   0.555   1.262 -2.6375  0.6117  0.5580
  725SOL     MW 2900   2.549   0.595   1.214 -0.9396  0.7250 -0.3381
  726SOL     OW 2901   2.595   2.452   0.547  0.6481  0.2786  0.1539
  726SOL    HW1 2902   2.575   2.505   0.467 -2.1040 -1.2621 -0.6593
  726SOL    HW2 2903   2.513   2.429   0.581 -1.0361  1.8999 -1.1073
  726SOL     MW 2904   2.581   2.456   0.541  0.0627  0.2893 -0.1198
  727SOL     OW 2905   2.870   0.325   1.649  0.0040  0.7346  0.5242
  727SOL    HW1 2906   2.841   0.322   1.553 -0.0703 -2.8874 -0.2224
  727SOL    HW2 2907   2.785   0.311   1.688  0.1441 -0.4030 -1.3769
  727SOL     MW 2908   2.855   0.323   1.641  0.0127  0.1066  0.1749
  728SOL     OW 2909   2.818   1.171   2.841  0.2520  0.1820 -0.2824
  728SOL    HW1 2910   2.827   1.249   2.785  0.5899 -1.0527  1.3880
  728SOL    HW2 2911   2.809   1.203   2.935 -1.8487 -1.1901 -0.3887
  728SOL     MW 2912   2.818   1.186   2.846  0.0194 -0.1619 -0.0760
  729SOL     OW 2913   2.557   1.497   1.093 -0.1330 -0.5724 -0.1513
  729SOL    HW1 2914   2.612   1.428   1.140  0.5572 -1.3906  2.3611
  729SOL    HW2 2915   2.577   1.482   0.997 -1.5230 -0.6940 -0.5409
  729SOL     MW 2916   2.567   1.486   1.087 -0.2254 -0.6964  0.1288
  730SOL     OW 2917   2.177   1.171   0.214  0.5898 -0.4825 -0.3525
  730SOL    HW1 2918   2.270   1.202   0.219  2.6881  1.0391 -1.6637
  730SOL    HW2 2919   2.130   1.252   0.219 -0.4746 -1.0776  2.4606
  730SOL     MW 2920   2.183   1.186   0.215  0.7262 -0.3602 -0.1544
  731SOL     OW 2921   2.811   1.917   2.870 -0.7303 -0.0304 -0.3031
  731SOL    HW1 2922   2.738   1.953   2.815 -1.7002  0.3211 -2.2088
  731SOL    HW2 2923   2.880   1.982   2.846  0.7991  2.8327  0.1544
  731SOL     MW 2924   2.810   1.930   2.860 -0.6565  0.3937 -0.4942
  732SOL     OW 2925   2.213   1.002   1.329  0.0822  0.7804  0.0776
  732SOL    HW1 2926   2.166   1.010   1.410  1.2365  0.2088 -0.0177
  732SOL    HW2 2927   2.293   0.956   1.347 -0.4273 -1.6114  0.0095
  732SOL     MW 2928   2.217   0.997   1.342  0.1673  0.3894  0.0560
  733SOL     OW 2929   2.351   2.738   3.037 -0.0194 -0.1693 -0.7898
  733SOL    HW1 2930   2.268   2.791   3.051 -1.3683  0.3590  1.3649
  733SOL    HW2 2931   2.317   2.652   3.009  2.2595 -0.6979 -0.8308
  733SOL     MW 2932   2.336   2.734   3.035  0.1033 -0.1693 -0.5110
  734SOL     OW 2933   1.456   0.392   2.443 -0.1834 -0.1249  0.1284
  734SOL    HW1 2934   1.451   0.364   2.533  0.4156 -1.1782 -0.6903
  734SOL    HW2 2935   1.489   0.309   2.400  0.2706 -0.5749 -0.4221
  734SOL     MW 2936   1.460   0.377   2.449 -0.0444 -0.3233 -0.0523
  735SOL     OW 2937   2.915   0.882   2.604  0.0802 -0.1046  0.0286
  735SOL    HW1 2938   2.935   0.796   2.569  1.3219  0.2600  1.2975
  735SOL    HW2 2939   2.961   0.885   2.691 -3.6270 -0.4637  1.0941
  735SOL     MW 2940   2.923   0.871   2.611 -0.2451 -0.1039  0.3366
  736SOL     OW 2941   0.123   0.571   2.512 -0.5507 -0.0943 -0.5100
  736SOL    HW1 2942   0.144   0.651   2.472  1.2310  0.6147  0.5968
  736SOL    HW2 2943   0.112   0.507   2.444  0.1623  1.0898 -0.9699
  736SOL     MW 2944   0.124   0.573   2.498 -0.2216  0.1554 -0.4247
  737SOL     OW 2945   2.933   0.620   2.547 -0.4625 -0.1467  0.0319
  737SOL    HW1 2946   2.870   0.573   2.489 -0.2583 -1.2212  2.4985
  737SOL    HW2 2947   3.027   0.606   2.533 -1.3879  1.2494 -2.1007
  737SOL     MW 2948   2.937   0.612   2.537 -0.5576 -0.1043  0.0760
  738SOL     OW 2949   0.208   0.589   1.876  0.3814 -0.5309 -0.5931
  738SOL    HW1 2950   0.293   0.623   1.865 -1.6381 -0.3919 -1.4840
  738SOL    HW2 2951   0.208   0.499   1.838 -0.2375  0.7407  0.6924
  738SOL     MW 2952   0.219   0.581   1.870  0.0333 -0.3448 -0.5410
  739SOL     OW 2953   2.436   1.060   2.069 -0.1638 -0.7708 -0.5332
  739SOL    HW1 2954   2.372   0.994   2.032  0.0567  0.1183 -0.1039
  739SOL    HW2 2955   2.485   1.088   1.991  1.7248  0.0928  0.2483
  739SOL     MW 2956   2.434   1.055   2.054  0.1145 -0.5396 -0.3734
  740SOL     OW 2957   0.253   1.760   2.983  0.5648  0.1558  0.4281
  740SOL    HW1 2958   0.187   1.688   2.975  0.7775  1.2160  1.0530
  740SOL    HW2 2959   0.345   1.728   2.991  1.2143 -0.4074 -1.0590
  740SOL     MW 2960   0.257   1.746   2.983  0.6785  0.2213  0.3144
  741SOL     OW 2961   2.268   1.222   2.726 -0.1287 -0.8614  0.3194
  741SOL    HW1 2962   2.222   1.283   2.671  0.8055  2.0053  1.1376
  741SOL    HW2 2963   2.215   1.224   2.804 -1.5484 -0.4941  0.6621
  741SOL     MW 2964   2.255   1.230   2.729 -0.1927 -0.4347  0.4725
  742SOL     OW 2965   1.517   1.261   2.214 -0.3773 -0.2239  0.2097
  742SOL    HW1 2966   1.450   1.198   2.186  0.0625  0.0600  1.3081
  742SOL    HW2 2967   1.551   1.226   2.296  0.5208 -0.5099 -1.8415
  742SOL     MW 2968   1.513   1.248   2.221 -0.2007 -0.2242  0.0840
  743SOL     OW 2969   2.537   1.260   2.768  0.2209 -0.2682 -0.6695
  743SOL    HW1 2970   2.438   1.259   2.756 -2.2976 -0.2741 -0.5411
  743SOL    HW2 2971   2.549   1.174   2.819 -0.7236  3.4734 -0.7928
  743SOL     MW 2972   2.526   1.248   2.773 -0.2360  0.2247 -0.6689
  744SOL     OW 2973   2.761   0.955   1.747 -0.0315 -0.0469  0.4693
  744SOL    HW1 2974   2.700   1.028   1.772  1.6212  0.7470 -1.8503
  744SOL    HW2 2975   2.745   0.938   1.651 -0.6614  1.0620 -0.9271
  744SOL     MW 2976   2.751   0.962   1.738  0.1034  0.2042 -0.0210
  745SOL     OW 2977   1.734   0.445   2.499  0.2903  0.2435 -0.2988
  745SOL    HW1 2978   1.763   0.459   2.411  1.0491  1.1384  2.6485
  745SOL    HW2 2979   1.639   0.439   2.482  1.6011 -3.3689  0.1425
  745SOL     MW 2980   1.726   0.446   2.485  0.5634 -0.1151  0.1483
  746SOL     OW 2981   1.539   1.434   1.608  0.1149 -0.1316 -0.5232
  746SOL    HW1 2982   1.634   1.425   1.615  1.6227 -1.4775  1.9033
  746SOL    HW2 2983   1.503   1.388   1.686  1.3255 -0.3039  1.2951
  746SOL     MW 2984   1.547   1.427   1.619  0.4736 -0.3319  0.0369
  747SOL     OW 2985   2.539   1.124   1.825  0.3385  0.1343 -0.7589
  747SOL    HW1 2986   2.452   1.108   1.801  0.7512 -1.8215  1.3068
  747SOL    HW2 2987   2.549   1.217   1.843  1.0651  0.3837 -0.7244
  747SOL     MW 2988   2.528   1.135   1.824  0.4888 -0.0909 -0.4818
  748SOL     OW 2989   0.121   0.063   1.820  0.2388 -0.1670 -0.4708
  748SOL    HW1 2990   0.203   0.021   1.853  1.0716 -0.0726 -0.3468
  748SOL    HW2 2991   0.086   0.117   1.889 -0.5899 -0.9201 -0.5230
  748SOL     MW 2992   0.127   0.065   1.833  0.2393 -0.2539 -0.4614
  749SOL     OW 2993   2.426   0.575   2.796  0.2980  0.3763 -0.7018
  749SOL    HW1 2994   2.452   0.627   2.721  0.5726 -0.8579 -0.6492
  749SOL    HW2 2995   2.412   0.626   2.881 -0.7722  2.0805  0.7966
  749SOL     MW 2996   2.428   0.588   2.797  0.1930  0.4383 -0.4972
  750SOL     OW 2997   2.068   0.019   1.949 -0.1769  0.1163  0.2678
  750SOL    HW1 2998   2.120   0.093   1.976 -0.3346 -1.1173 -2.3519
  750SOL    HW2 2999   2.138  -0.048   1.941 -0.6755 -0.6628  0.0658
  750SOL     MW 3000   2.084   0.020   1.952 -0.2635 -0.1493 -0.1045
  751SOL     OW 3001   0.013   0.401   2.297  0.1887 -0.6096 -0.3941
  751SOL    HW1 3002  -0.052   0.331   2.319  0.1369  0.0193 -3.9801
  751SOL    HW2 3003   0.072   0.355   2.235 -1.4612 -0.8780 -1.8824
  751SOL     MW 3004   0.012   0.386   2.292 -0.0358 -0.5620 -1.0636
  752SOL     OW 3005   2.110   0.833   2.719 -0.2044 -0.7564  0.2105
  752SOL    HW1 3006   2.202   0.862   2.716  0.5999 -1.1167 -1.6504
  752SOL    HW2 3007   2.097   0.831   2.812  1.5161 -0.8999 -0.3730
  752SOL     MW 3008   2.120   0.836   2.731  0.1287 -0.8228 -0.1120
  753SOL     OW 3009   2.899   0.250   2.357  0.5273  0.1419  0.0599
  753SOL    HW1 3010   2.838   0.201   2.299 -0.2790  1.6599  0.5210
  753SOL    HW2 3011   2.843   0.330   2.374 -0.1438  3.3375  1.3409
  753SOL     MW 3012   2.883   0.254   2.352  0.3324  0.7638  0.2898
  754SOL     OW 3013   2.237   3.001   2.673 -0.1038 -0.3830  0.1148
  754SOL    HW1 3014   2.248   2.973   2.575  2.8819  0.8502 -1.4793
  754SOL    HW2 3015   2.297   2.949   2.729 -0.1160 -0.9950  1.0457
  754SOL     MW 3016   2.246   2.990   2.667  0.2885 -0.3010  0.0273
  755SOL     OW 3017   2.730   1.585   2.444 -0.3075  0.2518  0.2561
  755SOL    HW1 3018   2.743   1.515   2.509  2.4988  1.5841 -0.3528
  755SOL    HW2 3019   2.766   1.652   2.496 -1.4146 -0.0314 -0.3581
  755SOL     MW 3020   2.736   1.585   2.460 -0.0833  0.3902  0.0947
  756SOL     OW 3021   2.235   1.347   3.018 -0.3613  0.1817 -0.6458
  756SOL    HW1 3022   2.309   1.404   2.993  0.3326  1.1477 -0.6920
  756SOL    HW2 3023   2.292   1.267   3.037  1.5080  1.1152  1.5209
  756SOL     MW 3024   2.252   1.344   3.017 -0.0231  0.4323 -0.3660
  757SOL     OW 3025   2.086   0.983   1.611 -0.3647  0.2101 -0.8742
  757SOL    HW1 3026   2.116   0.893   1.605 -1.3055  1.6552  0.2259
  757SOL    HW2 3027   1.997   0.983   1.581  0.8283 -1.3485  0.9004
  757SOL     MW 3028   2.078   0.971   1.606 -0.3314  0.1952 -0.4949
  758SOL     OW 3029   2.177   1.790   2.645  0.0229 -0.1313 -0.8690
  758SOL    HW1 3030   2.178   1.813   2.553  0.0806  1.6306  0.0266
  758SOL    HW2 3031   2.266   1.758   2.645 -1.5862  2.2082 -1.5292
  758SOL     MW 3032   2.189   1.789   2.633 -0.1818  0.4098 -0.8379
  759SOL     OW 3033   1.560   1.329   2.716  0.3037  0.6788  0.0385
  759SOL    HW1 3034   1.583   1.402   2.662 -1.5698  0.8438  0.7476
  759SOL    HW2 3035   1.606   1.343   2.804  1.7184 -0.9472  1.4843
  759SOL     MW 3036   1.569   1.340   2.720  0.2432  0.4860  0.3228
  760SOL     OW 3037   2.565   1.956   2.712 -0.5304  0.4808  0.4818
  760SOL    HW1 3038   2.524   1.870   2.680 -3.9172 -5.0466 -0.3058
  760SOL    HW2 3039   2.590   2.010   2.638  0.8467 -1.7118 -3.5454
  760SOL     MW 3040   2.563   1.952   2.698 -0.7956 -0.5377 -0.1535
  761SOL     OW 3041   2.073   0.422   2.459 -0.1498  0.3858  0.2412
  761SOL    HW1 3042   2.008   0.347   2.448  0.2023 -5.1394 -3.5230
  761SOL    HW2 3043   2.092   0.415   2.549 -0.7477 -0.1993 -1.8049
  761SOL     MW 3044   2.067   0.411   2.470 -0.1823 -0.4204 -0.5254
  762SOL     OW 3045   3.091   0.182   2.017 -0.2192 -0.1317 -0.3591
  762SOL    HW1 3046   3.079   0.125   2.090  0.2896  2.3202  0.9080
  762SOL    HW2 3047   3.044   0.266   2.027  0.8130 -0.0852  2.9526
  762SOL     MW 3048   3.083   0.186   2.028 -0.0159  0.1980  0.2450
  763SOL     OW 3049   2.407   1.067   2.343  0.0590 -0.7181 -0.0717
  763SOL    HW1 3050   2.445   1.061   2.250  0.8167 -0.2595 -0.4850
  763SOL    HW2 3051   2.450   1.150   2.369  3.4771 -1.6156 -1.1558
  763SOL     MW 3052   2.418   1.077   2.334  0.6100 -0.7760 -0.2693
  764SOL     OW 3053   0.377   0.229   2.773  0.2972  0.3492  0.0004
  764SOL    HW1 3054   0.284   0.216   2.785 -0.4422 -1.0063 -3.5377
  764SOL    HW2 3055   0.404   0.304   2.832  0.7676 -0.6129  0.6192
  764SOL     MW 3056   0.368   0.237   2.782  0.2617  0.0434 -0.3847
  765SOL     OW 3057   2.698   0.098   2.271  0.2269 -0.1928 -0.4929
  765SOL    HW1 3058   2.643   0.074   2.194 -1.1289  0.4732  0.5651
  765SOL    HW2 3059   2.737   0.012   2.297 -1.1614 -1.0521 -1.4606
  765SOL     MW 3060   2.696   0.083   2.264 -0.1352 -0.2183 -0.4810
  766SOL     OW 3061   1.843   3.031   2.149 -0.0473  0.2991  0.4950
  766SOL    HW1 3062   1.905   3.059   2.078  0.3485 -2.6195 -1.2233
  766SOL    HW2 3063   1.799   2.952   2.112  0.4099 -1.3646  1.9145
  766SOL     MW 3064   1.845   3.024   2.135  0.0652 -0.3055  0.4556
  767SOL     OW 3065   2.655   0.647   1.948 -0.3252  0.1184  0.2757
  767SOL    HW1 3066   2.668   0.700   2.025 -0.0598  1.9997 -2.2110
  767SOL    HW2 3067   2.561   0.622   1.954 -2.4059 -1.5519  1.2873
  767SOL     MW 3068   2.644   0.651   1.959 -0.5647  0.1463  0.0810
  768SOL     OW 3069   0.078   1.555   2.971 -0.8564  0.1055 -0.4191
  768SOL    HW1 3070   0.096   1.509   3.054  1.6602 -1.3415 -0.2055
  768SOL    HW2 3071   0.114   1.501   2.894  0.3294 -1.8823  0.1649
  768SOL     MW 3072   0.085   1.542   2.972 -0.3679 -0.3477 -0.3139
  769SOL     OW 3073   2.357   0.690   2.319  0.1325 -0.0447 -0.6806
  769SOL    HW1 3074   2.280   0.640   2.329  1.1936  3.4789  1.2420
  769SOL    HW2 3075   2.429   0.624   2.310 -0.0604  0.5766 -2.6211
  769SOL     MW 3076   2.356   0.675   2.319  0.2470  0.5022 -0.6829
  770SOL     OW 3077   0.082   1.701   2.595  0.5765 -0.1384  0.2295
  770SOL    HW1 3078  -0.017   1.708   2.609 -1.6496  0.7767  0.3691
  770SOL    HW2 3079   0.102   1.622   2.635 -2.8205  1.7941  0.7651
  770SOL     MW 3080   0.072   1.692   2.602 -0.1654  0.2373  0.3186
  771SOL     OW 3081   3.030   0.645   1.932 -0.4117 -0.2775  0.4850
  771SOL    HW1 3082   2.964   0.653   1.853 -2.5260  0.5265 -1.9225
  771SOL    HW2 3083   3.114   0.615   1.897 -2.1457  0.2498  0.3882
  771SOL     MW 3084   3.032   0.642   1.917 -0.9195 -0.1018  0.1546
  772SOL     OW 3085   3.072   0.018   2.246 -0.0281 -0.0982 -0.0554
  772SOL    HW1 3086   2.990  -0.015   2.291 -0.4113  0.1817 -0.4793
  772SOL    HW2 3087   3.126  -0.052   2.214 -3.0284 -0.7698 -2.1643
  772SOL     MW 3088   3.068   0.005   2.248 -0.4745 -0.1499 -0.3896
  773SOL     OW 3089   2.413   2.794   2.769  0.0967 -0.1495  0.1686
  773SOL    HW1 3090   2.386   2.720   2.712  0.8068  2.0980  1.5655
  773SOL    HW2 3091   2.390   2.758   2.856 -1.9819  2.7783 -0.1657
  773SOL     MW 3092   2.406   2.780   2.773 -0.0839  0.5334  0.3088
  774SOL     OW 3093   2.278   1.187   1.777  0.0008 -0.0789 -0.1516
  774SOL    HW1 3094   2.261   1.269   1.733  2.0207  0.1527  1.2666
  774SOL    HW2 3095   2.230   1.115   1.731 -0.7084 -2.2490 -0.8345
  774SOL     MW 3096   2.270   1.188   1.765  0.1738 -0.3347 -0.0546
  775SOL     OW 3097   2.266   2.971   2.392  0.4222 -0.3137 -0.6704
  775SOL    HW1 3098   2.296   3.045   2.340  1.8422  2.5622 -0.0127
  775SOL    HW2 3099   2.335   2.909   2.367 -0.0568  0.2785  2.4937
  775SOL     MW 3100   2.279   2.973   2.382  0.5463  0.1439 -0.1662
  776SOL     OW 3101   0.099   1.445   0.170 -0.1444 -0.0577  0.1507
  776SOL    HW1 3102   0.189   1.411   0.180 -3.3468 -2.0532  0.1176
  776SOL    HW2 3103   0.040   1.376   0.145  0.6529  0.9748  3.4640
  776SOL     MW 3104   0.103   1.432   0.168 -0.4617 -0.1847  0.5835
  777SOL     OW 3105   2.980   1.077   1.687  0.0062  0.8019 -0.2124
  777SOL    HW1 3106   2.953   1.158   1.651  0.1202 -0.4511  0.9312
  777SOL    HW2 3107   2.906   1.035   1.726  0.3728  0.7605  0.6621
  777SOL     MW 3108   2.966   1.082   1.687  0.0696  0.6311  0.0539
  778SOL     OW 3109   2.888   0.448   2.740 -0.1729 -0.2929 -0.0018
  778SOL    HW1 3110   2.821   0.466   2.809  1.6395 -0.5317 -1.4286
  778SOL    HW2 3111   2.904   0.536   2.684 -0.9918  0.5206 -1.0767
  778SOL     MW 3112   2.882   0.462   2.742 -0.0418 -0.2170 -0.3319
  779SOL     OW 3113   2.089   0.597   2.263 -0.0285 -0.0733  0.3968
  779SOL    HW1 3114   2.011   0.649   2.271 -1.2741  2.2813  3.0031
  779SOL    HW2 3115   2.085   0.537   2.334  1.0518  2.5502 -3.2216
  779SOL     MW 3116   2.078   0.596   2.274 -0.0503  0.5835  0.2632
  780SOL     OW 3117   0.097   0.210   2.763  0.5172 -0.2260 -0.3123
  780SOL    HW1 3118   0.063   0.217   2.853  0.2659  0.7363  0.4829
  780SOL    HW2 3119   0.026   0.212   2.699  1.2200 -3.1681 -0.7418
  780SOL     MW 3120   0.083   0.211   2.766  0.5768 -0.4872 -0.2641
  781SOL     OW 3121   3.049   1.319   2.560 -0.6133 -0.0630 -0.5624
  781SOL    HW1 3122   3.026   1.376   2.485  1.7247  0.1563 -0.1150
  781SOL    HW2 3123   3.081   1.237   2.523  0.8917 -1.4956  1.9234
  781SOL     MW 3124   3.050   1.316   2.546 -0.1063 -0.2231 -0.1754
  782SOL     OW 3125   0.769   1.462   3.068  0.0736  0.5600  0.3448
  782SOL    HW1 3126   0.691   1.508   3.052 -1.0904  0.9949  1.3877
  782SOL    HW2 3127   0.805   1.499   3.152  0.8984  1.8660  0.1940
  782SOL     MW 3128   0.764   1.473   3.077  0.0289  0.7897  0.4625
  783SOL     OW 3129   2.755   0.474   2.394  0.2805 -0.4503  0.0169
  783SOL    HW1 3130   2.685   0.478   2.330  0.5293 -0.3226  0.0528
  783SOL    HW2 3131   2.707   0.453   2.475  1.5986 -0.4874 -0.6540
  783SOL     MW 3132   2.739   0.472   2.396  0.4873 -0.4383 -0.0669
  784SOL     OW 3133   0.202   0.821   2.844 -0.0485 -0.3565  0.7982
  784SOL    HW1 3134   0.160   0.895   2.880  0.2361  1.7155  0.9894
  784SOL    HW2 3135   0.255   0.856   2.774  2.5025 -2.3371 -1.3293
  784SOL     MW 3136   0.204   0.835   2.840  0.3256 -0.3444  0.5427
  785SOL     OW 3137   0.422   0.505   2.169 -0.0120 -0.2079 -0.0810
  785SOL    HW1 3138   0.445   0.566   2.096 -1.0235 -0.7788 -1.2095
  785SOL    HW2 3139   0.340   0.460   2.150 -2.9424 -0.1814 -1.2143
  785SOL     MW 3140   0.414   0.507   2.157 -0.5321 -0.2797 -0.3794
  786SOL     OW 3141   2.010   0.383   2.930  0.3495  0.1167 -0.7071
  786SOL    HW1 3142   2.005   0.434   3.006 -3.5363  1.0066  2.4096
  786SOL    HW2 3143   2.047   0.436   2.862  3.6485  0.4743  2.0685
  786SOL     MW 3144   2.014   0.397   2.931  0.2721  0.2813  0.0703
  787SOL     OW 3145   2.420   0.215   2.881  0.1376 -0.5551 -0.0977
  787SOL    HW1 3146   2.484   0.164   2.843 -2.7969  0.4035  0.9713
  787SOL    HW2 3147   2.456   0.261   2.960  0.0224  1.2013  2.6176
  787SOL     MW 3148   2.433   0.215   2.886 -0.2648 -0.1969  0.4016
  788SOL     OW 3149   2.849   2.989   2.373  0.8090 -0.4437  0.0947
  788SOL    HW1 3150   2.887   3.010   2.454 -4.1246 -0.1386 -2.2279
  788SOL    HW2 3151   2.893   2.904   2.350 -1.3289 -3.7566 -2.7913
  788SOL     MW 3152   2.860   2.980   2.381 -0.1240 -0.8406 -0.5925
  789SOL     OW 3153   0.021   0.230   3.046 -0.5250  0.9170 -0.3536
  789SOL    HW1 3154  -0.062   0.175   3.045  1.2845  0.3700 -2.6492
  789SOL    HW2 3155  -0.004   0.320   3.029 -1.0425  3.2117 -1.2803
  789SOL     MW 3156   0.007   0.234   3.043 -0.3545  1.1476 -0.7787
  790SOL     OW 3157   3.070   1.065   2.440 -0.6061 -0.1954  0.2774
  790SOL    HW1 3158   3.031   1.005   2.514 -0.7791  0.9273  1.1159
  790SOL    HW2 3159   3.022   1.050   2.356  1.3949 -1.1696 -2.1624
  790SOL     MW 3160   3.058   1.055   2.439 -0.3649 -0.1758  0.0661
  791SOL     OW 3161   2.628   0.379   2.612  0.3533  0.1339 -0.1964
  791SOL    HW1 3162   2.542   0.393   2.656  0.5461 -0.5740  1.0860
  791SOL    HW2 3163   2.693   0.398   2.681  0.2191 -0.8868  3.3390
  791SOL     MW 3164   2.625   0.383   2.627  0.3611 -0.0942  0.4392
  792SOL     OW 3165   2.327   0.314   2.390  0.1196 -0.1503 -0.6191
  792SOL    HW1 3166   2.250   0.369   2.410 -1.3350 -2.3447  1.8882
  792SOL    HW2 3167   2.336   0.272   2.474 -0.1440 -0.3825  0.9954
  792SOL     MW 3168   2.318   0.316   2.404 -0.1071 -0.4704 -0.0753
  793SOL     OW 3169   1.795   1.062   1.959 -0.1926 -0.9314  0.1059
  793SOL    HW1 3170   1.762   1.103   1.880  1.4031 -1.2495  0.9084
  793SOL    HW2 3171   1.859   0.995   1.923  1.3594 -5.1043 -2.5745
  793SOL     MW 3172   1.799   1.059   1.944  0.2227 -1.5240 -0.1419
  794SOL     OW 3173   1.422   2.259   0.180  0.0115  0.6844 -0.0188
  794SOL    HW1 3174   1.442   2.318   0.102 -0.7092  0.7140 -0.1874
  794SOL    HW2 3175   1.495   2.271   0.235  0.3356 -1.3901 -1.7416
  794SOL     MW 3176   1.434   2.269   0.177 -0.0408  0.4146 -0.2683
  795SOL     OW 3177   2.342   0.950   2.637  0.2545 -0.3407 -0.0497
  795SOL    HW1 3178   2.314   1.042   2.660 -2.7228 -1.8559 -0.6490
  795SOL    HW2 3179   2.401   0.973   2.568  0.9859 -0.5442  1.2323
  795SOL     MW 3180   2.346   0.965   2.631 -0.0418 -0.5674  0.0404
  796SOL     OW 3181   0.281   0.573   2.747  0.2748 -0.0741  0.3800
  796SOL    HW1 3182   0.227   0.636   2.789 -0.4953 -1.3548  0.5891
  796SOL    HW2 3183   0.234   0.569   2.660  0.2280  1.5441  0.0444
  796SOL     MW 3184   0.268   0.581   2.741  0.1670 -0.0296  0.3633
  797SOL     OW 3185   2.592   0.127   2.540 -0.2641 -0.0707 -0.3375
  797SOL    HW1 3186   2.601   0.220   2.556  0.3666  3.5888 -1.9061
  797SOL    HW2 3187   2.630   0.128   2.447  0.3136 -0.5695  1.9341
  797SOL     MW 3188   2.598   0.140   2.530 -0.1047  0.3464 -0.2448
  798SOL     OW 3189   2.323   0.086   2.230  0.4887 -0.9362  0.0263
  798SOL    HW1 3190   2.349   0.156   2.292 -2.1430  1.8419 -3.2041
  798SOL    HW2 3191   2.404   0.042   2.196  1.3796 -0.3853  0.7441
  798SOL     MW 3192   2.337   0.090   2.234  0.2590 -0.4970 -0.3052
  799SOL     OW 3193   2.515   2.979   0.013  0.0624  0.0382  0.4393
  799SOL    HW1 3194   2.472   2.896  -0.017  0.4921 -0.6280  3.0816
  799SOL    HW2 3195   2.450   3.045   0.014 -1.2836  0.0251 -0.4994
  799SOL     MW 3196   2.501   2.977   0.009 -0.0585 -0.0514  0.6641
  800SOL     OW 3197   1.918   0.024   1.724 -0.9031 -0.6753 -0.0705
  800SOL    HW1 3198   1.846  -0.033   1.753  0.4885 -1.4513  2.6643
  800SOL    HW2 3199   1.964   0.035   1.805  2.2434 -1.0777  0.4476
  800SOL     MW 3200   1.914   0.018   1.738 -0.3043 -0.8308  0.3587
  801SOL     OW 3201   2.782   1.299   2.563  0.1238 -0.3798 -0.3076
  801SOL    HW1 3202   2.754   1.210   2.584 -1.6645 -1.7372  0.3504
  801SOL    HW2 3203   2.881   1.302   2.555 -1.3213 -0.8572  0.0271
  801SOL     MW 3204   2.791   1.288   2.564 -0.3028 -0.6219 -0.1767
  802SOL     OW 3205   2.621   1.535   2.767  0.1537  0.8726  0.1308
  802SOL    HW1 3206   2.619   1.437   2.757 -0.4157 -1.0075  1.3190
  802SOL    HW2 3207   2.692   1.561   2.824  0.5489  0.1925 -3.1249
  802SOL     MW 3208   2.630   1.525   2.774  0.1307  0.5348 -0.1420
  803SOL     OW 3209   2.249   1.375   1.964  0.2393  0.6080  0.6883
  803SOL    HW1 3210   2.242   1.369   2.061 -0.8404  0.3995 -0.8260
  803SOL    HW2 3211   2.282   1.291   1.928 -0.8672 -1.8263  1.7816
  803SOL     MW 3212   2.252   1.363   1.972 -0.0492  0.2593  0.6328
  804SOL     OW 3213   2.310   0.054   3.074  0.1071  0.5406  0.0218
  804SOL    HW1 3214   2.221   0.087   3.098 -2.8917 -1.0717  0.5826
  804SOL    HW2 3215   2.343   0.114   3.011  0.4178  0.9931 -0.6153
  804SOL     MW 3216   2.303   0.066   3.069 -0.2476  0.3875  0.0117
  805SOL     OW 3217   2.678   1.032   2.570  0.5511 -0.2701 -0.1270
  805SOL    HW1 3218   2.636   1.032   2.485  0.7159  0.6409 -0.6055
  805SOL    HW2 3219   2.750   0.965   2.558 -0.1460 -0.4851  1.3236
  805SOL     MW 3220   2.682   1.023   2.557  0.4809 -0.1783  0.0013
  806SOL     OW 3221   2.518   0.494   2.245  0.3724 -0.2075  0.8237
  806SOL    HW1 3222   2.476   0.412   2.279  0.3091 -1.4954 -2.1276
  806SOL    HW2 3223   2.468   0.507   2.164 -0.3030  0.8752  3.1333
  806SOL     MW 3224   2.506   0.485   2.239  0.2749 -0.2346  0.7391
  807SOL     OW 3225   0.057   1.121   2.069  0.5290  0.6265  0.2236
  807SOL    HW1 3226   0.091   1.036   2.062 -0.9886  0.2376 -1.8035
  807SOL    HW2 3227  -0.028   1.097   2.111 -1.7942  0.9374  2.2134
  807SOL     MW 3228   0.050   1.107   2.073  0.0222  0.6162  0.2187
  808SOL     OW 3229   2.551   3.079   2.758 -0.1831 -0.4369 -0.1058
  808SOL    HW1 3230   2.533   2.989   2.732 -0.2493 -1.1314 -1.3176
  808SOL    HW2 3231   2.574   3.121   2.675  0.2466 -1.6907  0.5461
  808SOL     MW 3232   2.552   3.073   2.743 -0.1351 -0.6939 -0.1797
  809SOL     OW 3233   2.547   1.309   2.417 -0.3832  0.5572  0.2042
  809SOL    HW1 3234   2.601   1.288   2.497  1.0843 -0.4395 -0.9733
  809SOL    HW2 3235   2.609   1.315   2.345 -3.4378  1.9265  0.1786
  809SOL     MW 3236   2.562   1.307   2.418 -0.5926  0.6064  0.0455
  810SOL     OW 3237   2.212   1.285   2.256  0.1480  0.0517 -0.3474
  810SOL    HW1 3238   2.287   1.223   2.260 -0.5726 -0.8780 -1.7003
  810SOL    HW2 3239   2.136   1.227   2.228 -2.7106 -2.8272  2.1807
  810SOL     MW 3240   2.212   1.269   2.253 -0.3242 -0.4508 -0.1923
  811SOL     OW 3241   1.553   0.154   2.312 -0.2949  0.3998 -0.2065
  811SOL    HW1 3242   1.617   0.100   2.360  1.6847 -1.0204  3.6606
  811SOL    HW2 3243   1.555   0.121   2.222  0.6185  1.7375 -1.3944
  811SOL     MW 3244   1.562   0.142   2.307  0.0868  0.3889  0.1470
  812SOL     OW 3245   1.496   2.873   2.124 -0.3768 -0.2400  0.1601
  812SOL    HW1 3246   1.591   2.841   2.104  2.4063 -0.8641  0.5318
  812SOL    HW2 3247   1.480   2.844   2.214 -0.9211 -0.5192  2.2115
  812SOL     MW 3248   1.507   2.865   2.133 -0.0814 -0.3591  0.4798
  813SOL     OW 3249   1.874   0.747   2.165 -0.1171  0.1692  0.3120
  813SOL    HW1 3250   1.818   0.670   2.193  0.1290  1.1794  0.6394
  813SOL    HW2 3251   1.884   0.798   2.249 -2.3126 -0.0000  1.7169
  813SOL     MW 3252   1.868   0.744   2.180 -0.3743  0.2802  0.5406
  814SOL     OW 3253   2.751   1.270   1.600  0.4999 -0.0782  0.0445
  814SOL    HW1 3254   2.663   1.237   1.613 -0.2926 -0.1307 -1.2787
  814SOL    HW2 3255   2.787   1.222   1.518 -0.0801  0.6281  2.0531
  814SOL     MW 3256   2.744   1.259   1.591  0.3188  0.0081  0.1349
  815SOL     OW 3257   2.472   1.661   2.331 -0.4922 -0.6732  0.6669
  815SOL    HW1 3258   2.395   1.600   2.340  1.6891  0.1429 -1.3684
  815SOL    HW2 3259   2.552   1.607   2.359  3.7294 -0.1542  1.0136
  815SOL     MW 3260   2.472   1.646   2.336  0.3526 -0.4970  0.4441
  816SOL     OW 3261   0.780   0.675   2.745 -0.0758  0.5127 -0.5808
  816SOL    HW1 3262   0.789   0.604   2.810 -0.0684 -1.8048  0.3772
  816SOL    HW2 3263   0.691   0.676   2.716  1.4688 -1.6246 -1.0186
  816SOL     MW 3264   0.770   0.666   2.750  0.1290 -0.0750 -0.5122
  817SOL     OW 3265   3.053   1.269   1.489 -0.8522  0.1579 -0.2232
  817SOL    HW1 3266   3.127   1.276   1.548 -0.6181  0.0442 -0.3241
  817SOL    HW2 3267   3.048   1.349   1.440  0.0891  0.4717 -1.7080
  817SOL     MW 3268   3.062   1.280   1.490 -0.6971  0.1843 -0.4324
  818SOL     OW 3269   1.924   1.058   2.677  0.1502  0.2603 -0.1626
  818SOL    HW1 3270   1.936   1.083   2.583  0.7363 -0.1124 -0.9670
  818SOL    HW2 3271   1.967   0.973   2.686 -0.0043  0.7861  1.9041
  818SOL     MW 3272   1.932   1.050   2.666  0.2071  0.2805  0.0040
  819SOL     OW 3273   1.891   0.211   2.468 -0.2114  1.1534  0.5153
  819SOL    HW1 3274   1.823   0.264   2.513  0.8657  0.9663 -2.5738
  819SOL    HW2 3275   1.956   0.188   2.544  2.7292 -2.0051  0.1853
  819SOL     MW 3276   1.891   0.215   2.484  0.3187  0.7120  0.0642
  820SOL     OW 3277   2.447   1.725   2.614  0.3437  0.3209  0.2395
  820SOL    HW1 3278   2.481   1.658   2.673 -2.7589  2.6267  1.5708
  820SOL    HW2 3279   2.469   1.701   2.523 -4.0743 -1.1724 -0.3475
  820SOL     MW 3280   2.454   1.713   2.610 -0.6486  0.4281  0.3377
  821SOL     OW 3281   2.586   1.340   1.965  0.5174  0.0198  0.1537
  821SOL    HW1 3282   2.627   1.395   1.895 -1.4022  1.6720  2.8773
  821SOL    HW2 3283   2.503   1.387   1.987  0.9040 -0.4066 -1.4681
  821SOL     MW 3284   2.581   1.353   1.959  0.3151  0.1815  0.2990
  822SOL     OW 3285   2.758   2.604   1.494  0.1744  0.4959  0.2141
  822SOL    HW1 3286   2.813   2.648   1.555  1.6243 -0.2183  0.2242
  822SOL    HW2 3287   2.712   2.671   1.436 -0.0264  0.1073  0.5779
  822SOL     MW 3288   2.759   2.619   1.494  0.3392  0.3504  0.2634
  823SOL     OW 3289   2.268   0.504   1.767 -0.3897 -0.2247  0.4981
  823SOL    HW1 3290   2.333   0.448   1.721  0.7362 -0.5979  1.2076
  823SOL    HW2 3291   2.178   0.471   1.770  0.5368  1.9721 -1.1002
  823SOL     MW 3292   2.265   0.492   1.762 -0.1189  0.0159  0.3808
  824SOL     OW 3293   2.081   1.381   2.575 -0.1451 -0.3750  0.0191
  824SOL    HW1 3294   2.147   1.413   2.512  0.3994  0.7659  0.3123
  824SOL    HW2 3295   2.052   1.461   2.618  0.3395 -3.6465  0.9417
  824SOL     MW 3296   2.086   1.395   2.573 -0.0093 -0.6561  0.1795
  825SOL     OW 3297   1.993   2.571   0.267  1.0841  0.5768  0.1567
  825SOL    HW1 3298   1.966   2.506   0.329  1.0720  0.8171  1.0199
  825SOL    HW2 3299   2.064   2.523   0.220  3.1267  2.0257 -0.0052
  825SOL     MW 3300   1.999   2.556   0.269  1.3520  0.7997  0.2492
  826SOL     OW 3301   1.892   2.428   0.508 -0.2619  0.5008  0.6054
  826SOL    HW1 3302   1.842   2.355   0.546 -0.9723 -0.8625  3.6337
  826SOL    HW2 3303   1.840   2.504   0.537  0.0593  1.8279 -1.1603
  826SOL     MW 3304   1.879   2.428   0.517 -0.3133  0.4960  0.7720
  827SOL     OW 3305   1.934   2.189   0.958  0.1600 -0.0887 -0.8805
  827SOL    HW1 3306   1.896   2.251   0.894 -1.0098 -1.7642  1.4936
  827SOL    HW2 3307   1.855   2.129   0.957 -2.1890  0.2128 -1.5618
  827SOL     MW 3308   1.918   2.189   0.949 -0.3043 -0.2700 -0.6572
  828SOL     OW 3309   0.047   2.653   0.584 -0.5291  1.0424  0.2626
  828SOL    HW1 3310   0.141   2.655   0.574 -0.5879  0.2014  3.4953
  828SOL    HW2 3311   0.003   2.688   0.506 -1.1792 -1.0670 -2.5417
  828SOL     MW 3312   0.054   2.658   0.573 -0.6226  0.6532  0.3191
  829SOL     OW 3313   2.938   2.942   1.256 -0.0224 -0.1396  0.3688
  829SOL    HW1 3314   2.865   2.916   1.195 -0.5469  0.4316 -0.1099
  829SOL    HW2 3315   2.990   2.861   1.263  2.2528  0.7878  1.7970
  829SOL     MW 3316   2.935   2.928   1.249  0.2086  0.0581  0.4941
  830SOL     OW 3317   2.507   2.854   2.020  0.1057 -0.3760  0.4622
  830SOL    HW1 3318   2.419   2.843   1.984  2.3102  0.3940 -0.2147
  830SOL    HW2 3319   2.568   2.826   1.953 -3.3933 -1.1084  1.1900
  830SOL     MW 3320   2.504   2.849   2.006 -0.0651 -0.3710  0.4689
  831SOL     OW 3321   2.417   2.386   1.313  0.2100 -0.4157  0.1213
  831SOL    HW1 3322   2.380   2.340   1.388 -0.5362  1.6620  1.4829
  831SOL    HW2 3323   2.509   2.355   1.298  0.6035  1.0772 -1.3484
  831SOL     MW 3324   2.424   2.376   1.321  0.1635  0.0554  0.1070
  832SOL     OW 3325   2.436   2.204   1.907 -0.2321  0.2596 -0.1211
  832SOL    HW1 3326   2.464   2.298   1.939 -1.6889  0.1514  1.8205
  832SOL    HW2 3327   2.516   2.158   1.868  0.7297  0.9232 -0.0721
  832SOL     MW 3328   2.450   2.210   1.906 -0.2974  0.3329  0.1416
  833SOL     OW 3329   1.799   2.455   0.877  0.4708 -0.5841 -0.4832
  833SOL    HW1 3330   1.703   2.424   0.872 -0.6416 -0.2999  3.1048
  833SOL    HW2 3331   1.794   2.512   0.966 -2.5267  0.5504  1.1994
  833SOL     MW 3332   1.786   2.459   0.888 -0.0714 -0.3969  0.2122
  834SOL     OW 3333   2.244   2.485   0.607  0.1107  0.2544 -0.3600
  834SOL    HW1 3334   2.174   2.443   0.654 -0.8123 -0.9040 -0.6012
  834SOL    HW2 3335   2.259   2.433   0.520 -0.0531 -3.4569 -2.4402
  834SOL     MW 3336   2.236   2.473   0.602 -0.0326 -0.3881 -0.6663
  835SOL     OW 3337   1.734   2.611   0.657  0.2556 -0.4166  0.0433
  835SOL    HW1 3338   1.740   2.557   0.734  0.5571 -1.1070  0.3202
  835SOL    HW2 3339   1.813   2.676   0.662  2.1873  1.1274  0.6699
  835SOL     MW 3340   1.745   2.613   0.668  0.5503 -0.3040  0.1625
  836SOL     OW 3341   1.962   2.181   1.622  0.2419 -0.6534  0.1241
  836SOL    HW1 3342   2.045   2.194   1.667  1.9101  0.0188 -2.8070
  836SOL    HW2 3343   1.910   2.251   1.655  3.6782  1.0731 -0.7752
  836SOL     MW 3344   1.966   2.192   1.632  0.9154 -0.3369 -0.3813
  837SOL     OW 3345   2.120   0.206   0.693  0.1121 -0.2760  0.3510
  837SOL    HW1 3346   2.030   0.230   0.682  1.3439 -3.0896  0.8136
  837SOL    HW2 3347   2.128   0.138   0.625 -1.1737  1.0765  0.9099
  837SOL     MW 3348   2.109   0.200   0.682  0.1050 -0.4687  0.4858
  838SOL     OW 3349   2.941   2.131   0.886  0.2440 -0.3089  0.1936
  838SOL    HW1 3350   2.869   2.095   0.944  1.7448 -1.3776 -0.5272
  838SOL    HW2 3351   2.967   2.048   0.842  0.7327  0.5576  0.5467
  838SOL     MW 3352   2.935   2.115   0.888  0.5065 -0.3356  0.1451
  839SOL     OW 3353   1.547   2.350   0.923 -0.0480  0.0525 -0.1217
  839SOL    HW1 3354   1.502   2.435   0.909 -2.1010  0.1756  0.5253
  839SOL    HW2 3355   1.564   2.337   1.013 -0.1915  0.5733 -0.0060
  839SOL     MW 3356   1.543   2.360   0.933 -0.3378  0.1375 -0.0211
  840SOL     OW 3357   2.321   2.101   2.397  0.1149  0.3901  0.1366
  840SOL    HW1 3358   2.282   2.184   2.362  0.8822 -1.5757 -0.7277
  840SOL    HW2 3359   2.395   2.113   2.455 -1.2997  1.7422 -1.1317
  840SOL     MW 3360   2.325   2.114   2.400  0.0295  0.3091 -0.1447
  841SOL     OW 3361   2.177   2.424   0.122  0.2467 -0.0775  0.6025
  841SOL    HW1 3362   2.204   2.455   0.036 -0.7037  0.6325 -2.2043
  841SOL    HW2 3363   2.102   2.366   0.114  0.2873  0.4524  2.5121
  841SOL     MW 3364   2.171   2.421   0.110  0.1266  0.0861  0.4841
  842SOL     OW 3365   2.667   1.984   1.567 -0.0492  0.5165 -0.3459
  842SOL    HW1 3366   2.627   1.897   1.588 -3.0826  0.0450  1.3100
  842SOL    HW2 3367   2.622   2.015   1.495  3.4127  1.0706  1.2065
  842SOL     MW 3368   2.655   1.977   1.560  0.0073  0.5274  0.0774
  843SOL     OW 3369   2.669   2.772   1.799  0.1450  0.4432  0.1482
  843SOL    HW1 3370   2.753   2.728   1.815 -1.0030 -1.1313  0.6005
  843SOL    HW2 3371   2.625   2.706   1.752  0.4942  3.5356  0.2874
  843SOL     MW 3372   2.674   2.758   1.795  0.0396  0.6435  0.2263
  844SOL     OW 3373   2.642   2.244   1.227  0.2992  0.0498  0.0154
  844SOL    HW1 3374   2.670   2.293   1.145  0.5134  1.6718 -1.8726
  844SOL    HW2 3375   2.711   2.277   1.282  2.0399 -1.8766  2.1175
  844SOL     MW 3376   2.654   2.255   1.223  0.5571  0.0097  0.0436
  845SOL     OW 3377   2.876   2.476   0.289  0.1508 -0.0224 -0.2361
  845SOL    HW1 3378   2.830   2.394   0.290 -0.0861 -0.2582  0.4040
  845SOL    HW2 3379   2.928   2.490   0.369  0.8015 -0.5958  2.0650
  845SOL     MW 3380   2.877   2.467   0.300  0.2054 -0.1292  0.1520
  846SOL     OW 3381   1.523   2.857   0.785 -0.1402  0.1763  0.1486
  846SOL    HW1 3382   1.598   2.913   0.812 -0.8231  2.7523  2.0558
  846SOL    HW2 3383   1.447   2.900   0.821 -0.2627 -2.1378  0.8922
  846SOL     MW 3384   1.522   2.870   0.793 -0.2465  0.2108  0.4983
  847SOL     OW 3385   2.494   1.922   0.145 -0.0346  0.3285 -0.1701
  847SOL    HW1 3386   2.550   1.857   0.178 -1.1334  1.2398 -0.1482
  847SOL    HW2 3387   2.433   1.889   0.083  0.9028  2.1194  3.0582
  847SOL     MW 3388   2.494   1.909   0.142 -0.0559  0.6850  0.2588
  848SOL     OW 3389   2.523   2.055   1.364  0.2154 -0.1497 -0.2498
  848SOL    HW1 3390   2.589   2.107   1.310 -0.5689  0.4348 -2.9093
  848SOL    HW2 3391   2.487   1.987   1.307  1.8536 -1.4569  2.5528
  848SOL     MW 3392   2.527   2.053   1.349  0.3281 -0.2450 -0.2309
  849SOL     OW 3393   1.965   2.751   0.740  0.9047 -0.3979  0.1983
  849SOL    HW1 3394   1.985   2.689   0.810  0.2512 -0.5136 -2.3343
  849SOL    HW2 3395   2.051   2.767   0.706 -1.3026 -0.4788 -0.9047
  849SOL     MW 3396   1.979   2.745   0.745  0.5272 -0.4238 -0.2814
  850SOL     OW 3397   2.227   1.929   1.683  0.4547 -0.0559  0.5242
  850SOL    HW1 3398   2.144   1.894   1.644 -1.2517 -0.0954 -0.3789
  850SOL    HW2 3399   2.196   2.017   1.704 -3.1955  0.2068 -3.4300
  850SOL     MW 3400   2.212   1.936   1.681 -0.2520 -0.0265 -0.1167
  851SOL     OW 3401   2.328   2.371   0.354  0.1679 -0.6519  0.0245
  851SOL    HW1 3402   2.283   2.399   0.273  0.3347 -0.8657  0.3315
  851SOL    HW2 3403   2.402   2.442   0.361  1.0423  0.6756  2.2218
  851SOL     MW 3404   2.332   2.384   0.344  0.3053 -0.5050  0.3549
  852SOL     OW 3405   2.340   2.097   0.300 -0.1317  0.5965 -0.2550
  852SOL    HW1 3406   2.380   2.182   0.297  0.4714  0.0891 -0.6059
  852SOL    HW2 3407   2.391   2.025   0.254 -2.9293 -3.1193 -2.3800
  852SOL     MW 3408   2.352   2.098   0.293 -0.4213  0.0393 -0.5816
  853SOL     OW 3409   2.501   2.458   1.987  0.3789  0.0477 -0.5405
  853SOL    HW1 3410   2.499   2.507   1.899 -0.8153  1.3370  2.2581
  853SOL    HW2 3411   2.588   2.423   2.009  0.3339  3.1323  0.8800
  853SOL     MW 3412   2.512   2.460   1.978  0.2154  0.6248  0.0161
  854SOL     OW 3413   2.825   2.350   0.759  0.1269 -0.2365  0.2692
  854SOL    HW1 3414   2.751   2.305   0.715 -1.7055 -2.6305  1.4557
  854SOL    HW2 3415   2.879   2.273   0.785 -1.5556 -0.5881 -0.2545
  854SOL     MW 3416   2.823   2.334   0.756 -0.3369 -0.5988  0.3566
  855SOL     OW 3417   2.688   2.228   0.376 -0.6875  0.3070  0.2921
  855SOL    HW1 3418   2.679   2.290   0.448 -0.9701 -0.9721 -3.6973
  855SOL    HW2 3419   2.765   2.170   0.389  0.0638  0.1098 -1.4689
  855SOL     MW 3420   2.697   2.229   0.387 -0.6257  0.1122 -0.4666
  856SOL     OW 3421   2.164   1.938   0.165 -0.5012 -0.4571  0.5917
  856SOL    HW1 3422   2.082   1.922   0.214  0.4263 -1.4731  1.5704
  856SOL    HW2 3423   2.202   2.012   0.211 -0.2469  0.3741 -1.9692
  856SOL     MW 3424   2.158   1.946   0.178 -0.3453 -0.4815  0.3829
  857SOL     OW 3425   2.513   2.003   0.512 -0.1573  0.6043  0.4987
  857SOL    HW1 3426   2.534   2.059   0.442 -3.3141 -2.7515  2.5331
  857SOL    HW2 3427   2.442   1.947   0.493 -1.5219 -1.6537 -0.5557
  857SOL     MW 3428   2.507   2.003   0.500 -0.7539 -0.1364  0.6280
  858SOL     OW 3429   2.895   2.651   1.747 -0.2068  0.0334  0.0299
  858SOL    HW1 3430   2.983   2.670   1.773 -1.1682  0.0503 -0.5863
  858SOL    HW2 3431   2.877   2.562   1.782  0.1586 -0.2351  0.5329
  858SOL     MW 3432   2.904   2.642   1.755 -0.2854  0.0002  0.0149
  859SOL     OW 3433   2.080   2.563   0.964 -0.3682  0.1551 -0.0967
  859SOL    HW1 3434   2.060   2.509   1.040  0.1895  1.1914  0.8253
  859SOL    HW2 3435   2.148   2.517   0.918 -0.1047  0.2673  2.9382
  859SOL     MW 3436   2.086   2.549   0.968 -0.2598  0.3066  0.4254
  860SOL     OW 3437   2.677   2.615   0.143 -0.6528 -0.3900 -0.2512
  860SOL    HW1 3438   2.746   2.581   0.208  2.3594  2.1266  0.5125
  860SOL    HW2 3439   2.709   2.692   0.091  0.7648  3.3260 -0.9763
  860SOL     MW 3440   2.691   2.621   0.145 -0.0683  0.4324 -0.2461
  861SOL     OW 3441   1.589   2.127   1.156  0.6860 -0.1995 -0.6786
  861SOL    HW1 3442   1.616   2.202   1.205  0.1865  1.3462 -3.4056
  861SOL    HW2 3443   1.520   2.081   1.202  1.6868  0.0259  0.9967
  861SOL     MW 3444   1.584   2.131   1.168  0.7521  0.0342 -0.8173
  862SOL     OW 3445   2.467   1.793   1.550  0.2223  0.0268  0.5820
  862SOL    HW1 3446   2.402   1.822   1.619 -2.0303 -0.6797 -3.3155
  862SOL    HW2 3447   2.453   1.848   1.471  1.2749  1.7747  1.1376
  862SOL     MW 3448   2.457   1.804   1.549  0.0640  0.1642  0.1411
  863SOL     OW 3449   2.986   1.817   1.050 -0.4250 -0.3050 -0.0081
  863SOL    HW1 3450   3.067   1.807   1.101 -2.7043 -0.8135 -1.2826
  863SOL    HW2 3451   2.949   1.898   1.092  1.0274  1.1084 -1.6762
  863SOL     MW 3452   2.992   1.827   1.062 -0.5341 -0.1856 -0.3963
  864SOL     OW 3453   3.060   1.857   0.787  0.0535 -0.1847 -0.7705
  864SOL    HW1 3454   3.021   1.834   0.875  0.6576 -2.4938 -1.3541
  864SOL    HW2 3455   3.029   1.779   0.732 -2.4515 -2.0919 -0.6846
  864SOL     MW 3456   3.050   1.844   0.791 -0.1973 -0.7410 -0.8361
  865SOL     OW 3457   2.575   2.154   0.028 -0.3666  0.2777  0.0102
  865SOL    HW1 3458   2.574   2.068   0.074 -3.6951  2.0599  1.3338
  865SOL    HW2 3459   2.502   2.146  -0.035 -0.7701  2.8510 -0.9724
  865SOL     MW 3460   2.566   2.141   0.026 -0.8590  0.8523  0.0552
  866SOL     OW 3461   2.675   2.379   1.676 -0.0620  0.1704 -0.0200
  866SOL    HW1 3462   2.616   2.309   1.702 -0.4783 -0.4912 -3.4239
  866SOL    HW2 3463   2.712   2.349   1.597 -0.5960  2.4603  1.2868
  866SOL     MW 3464   2.672   2.366   1.669 -0.1874  0.3852 -0.2967
  867SOL     OW 3465   0.037   2.738   1.815  0.0821  0.2446 -0.1063
  867SOL    HW1 3466   0.058   2.733   1.913 -0.8561  0.0288 -1.0972
  867SOL    HW2 3467   0.014   2.829   1.795 -0.9448 -2.2664  0.5844
  867SOL     MW 3468   0.037   2.750   1.825 -0.1772 -0.1152 -0.1459
  868SOL     OW 3469   2.851   2.601   0.552 -0.6913  0.1764 -0.5057
  868SOL    HW1 3470   2.774   2.541   0.551 -1.2356  0.2620 -0.0633
  868SOL    HW2 3471   2.826   2.676   0.497 -0.2082 -0.2404  0.3820
  868SOL     MW 3472   2.837   2.603   0.544 -0.6994  0.1327 -0.3302
  869SOL     OW 3473   2.075   2.354   1.148  0.2668 -0.3655  0.0409
  869SOL    HW1 3474   2.172   2.346   1.126  1.5028  2.3435  0.8739
  869SOL    HW2 3475   2.035   2.306   1.072  1.1058 -0.5771 -0.3140
  869SOL     MW 3476   2.083   2.346   1.135  0.5406 -0.0360  0.1040
  870SOL     OW 3477   2.180   0.029   0.458  0.2315  0.1087 -0.1646
  870SOL    HW1 3478   2.258   0.057   0.412 -2.7566 -1.0102  1.5588
  870SOL    HW2 3479   2.204  -0.061   0.474  1.3801  1.8475 -0.7936
  870SOL     MW 3480   2.193   0.021   0.454 -0.0112  0.1904 -0.0202
  871SOL     OW 3481   2.524   2.113   0.948 -0.1779 -0.6562  0.0985
  871SOL    HW1 3482   2.468   2.040   0.925 -1.6336 -3.0041  2.1897
  871SOL    HW2 3483   2.471   2.185   0.985 -0.1447 -0.1273 -1.8568
  871SOL     MW 3484   2.510   2.113   0.950 -0.3656 -0.8962  0.1164
  872SOL     OW 3485   1.977   2.532   1.524  0.0955 -0.3739 -0.1321
  872SOL    HW1 3486   1.951   2.555   1.611  0.7900 -0.0790 -0.9569
  872SOL    HW2 3487   1.947   2.439   1.504 -1.9519 -1.2611  2.0558
  872SOL     MW 3488   1.970   2.523   1.532 -0.0830 -0.4521  0.0477
  873SOL     OW 3489   2.932   2.032   1.942  0.2910  0.0994 -0.3456
  873SOL    HW1 3490   2.931   2.100   2.010 -2.0712 -0.4938  1.7295
  873SOL    HW2 3491   3.019   2.021   1.911 -1.8148 -3.2400  1.0737
  873SOL     MW 3492   2.944   2.039   1.947 -0.2985 -0.4195  0.1155
  874SOL     OW 3493   2.277   1.489   2.424  0.3874 -0.0147  0.7037
  874SOL    HW1 3494   2.251   1.415   2.356 -1.0887 -4.0572  0.8353
  874SOL    HW2 3495   2.363   1.462   2.457  0.3364  0.5005 -2.2136
  874SOL     MW 3496   2.285   1.476   2.419  0.1859 -0.4801  0.3362
  875SOL     OW 3497   2.347   2.328   1.046 -0.2424  0.1058 -0.4491
  875SOL    HW1 3498   2.376   2.398   0.984 -1.4068  0.4283 -1.9681
  875SOL    HW2 3499   2.391   2.356   1.126 -0.0423 -0.1729  1.1342
  875SOL     MW 3500   2.357   2.341   1.049 -0.3697  0.1116 -0.4406
  876SOL     OW 3501   3.045   2.247   1.277  0.4206  0.2228  0.4933
  876SOL    HW1 3502   3.084   2.261   1.192 -1.4828 -4.2096  0.4651
  876SOL    HW2 3503   3.111   2.297   1.325 -0.2536  2.4262 -0.0846
  876SOL     MW 3504   3.059   2.255   1.272  0.0805 -0.0713  0.4133
  877SOL     OW 3505   3.039   2.717   0.335  0.4440 -0.3082  0.7537
  877SOL    HW1 3506   3.097   2.793   0.327 -1.7330 -0.0862  0.8852
  877SOL    HW2 3507   3.035   2.675   0.245 -0.3182 -0.2555  0.2769
  877SOL     MW 3508   3.046   2.721   0.322  0.0562 -0.2719  0.7081
  878SOL     OW 3509   2.368   1.842   1.276 -0.6485 -0.4123 -0.3092
  878SOL    HW1 3510   2.316   1.777   1.315  0.6475  1.2070 -1.3849
  878SOL    HW2 3511   2.450   1.811   1.242 -0.0767  5.2726 -1.3854
  878SOL     MW 3512   2.372   1.830   1.277 -0.4021  0.5514 -0.5931
  879SOL     OW 3513   2.675   2.407   1.009  0.0960  0.4908 -0.1693
  879SOL    HW1 3514   2.727   2.488   1.016  0.0831  1.9665 -1.0422
  879SOL    HW2 3515   2.708   2.362   0.936  2.4408 -1.1040 -0.4337
  879SOL     MW 3516   2.686   2.412   1.000  0.4037  0.4751 -0.3194
  880SOL     OW 3517   2.624   2.174   0.682  0.2736 -0.1894 -0.3707
  880SOL    HW1 3518   2.583   2.168   0.773  0.2379  0.9686  2.5165
  880SOL    HW2 3519   2.589   2.092   0.649 -1.1997 -0.7428 -3.0114
  880SOL     MW 3520   2.614   2.162   0.689  0.0745 -0.1096 -0.3382
  881SOL     OW 3521   2.913   2.732   0.766 -0.5021  0.1309 -0.2623
  881SOL    HW1 3522   2.897   2.665   0.688  1.2139 -1.8261 -1.4378
  881SOL    HW2 3523   3.004   2.709   0.784 -0.1227 -1.4805  2.8099
  881SOL     MW 3524   2.923   2.720   0.758 -0.2256 -0.3399 -0.0121
  882SOL     OW 3525   2.225   2.865   1.940  0.0639  0.2738  0.1347
  882SOL    HW1 3526   2.200   2.871   1.846  0.1044  0.1943  1.7583
  882SOL    HW2 3527   2.169   2.814   1.992  1.5690 -1.5628 -1.4362
  882SOL     MW 3528   2.214   2.859   1.934  0.2678  0.0210  0.1417
  883SOL     OW 3529   2.302   2.181   1.477 -0.4040  0.1259 -0.4035
  883SOL    HW1 3530   2.383   2.138   1.440 -2.4299  0.1635 -1.8780
  883SOL    HW2 3531   2.234   2.148   1.417  1.3409 -2.9651  0.8095
  883SOL     MW 3532   2.304   2.171   1.465 -0.4411 -0.2770 -0.4380
  884SOL     OW 3533   1.953   1.796   1.053 -0.5518  0.4728 -0.5857
  884SOL    HW1 3534   1.908   1.874   1.027 -0.1861  0.3605 -0.0802
  884SOL    HW2 3535   2.046   1.834   1.075  3.0828 -0.9007  1.7840
  884SOL     MW 3536   1.959   1.811   1.053 -0.0240  0.2767 -0.2063
  885SOL     OW 3537   2.888   2.386   1.865  0.3721 -0.3871  0.4825
  885SOL    HW1 3538   2.973   2.341   1.848 -1.0715 -0.2760 -0.0430
  885SOL    HW2 3539   2.824   2.344   1.803  0.3347  1.6310  0.9502
  885SOL     MW 3540   2.891   2.374   1.854  0.1767 -0.1062  0.4749
  886SOL     OW 3541   2.803   2.344   1.410  0.1821 -0.5007  0.5732
  886SOL    HW1 3542   2.883   2.343   1.354  0.1777 -0.8570 -1.1215
  886SOL    HW2 3543   2.799   2.438   1.429  2.3179 -0.0443 -0.7217
  886SOL     MW 3544   2.813   2.357   1.405  0.4633 -0.4875  0.1788
  887SOL     OW 3545   2.240   2.634   1.508  0.2417 -0.0878  0.4402
  887SOL    HW1 3546   2.272   2.677   1.429  0.1263 -0.2692 -2.0196
  887SOL    HW2 3547   2.173   2.571   1.479  0.8590 -0.8367  0.1900
  887SOL     MW 3548   2.235   2.631   1.494  0.3079 -0.2105  0.0827
  888SOL     OW 3549   1.874   2.018   1.392  0.1113  0.3221 -0.5260
  888SOL    HW1 3550   1.962   2.023   1.351  0.0243  3.6449  0.6611
  888SOL    HW2 3551   1.884   2.053   1.480 -1.0712  0.4899 -1.5314
  888SOL     MW 3552   1.887   2.024   1.398 -0.0562  0.7826 -0.5020
  889SOL     OW 3553   2.291   2.022   2.080  0.3692 -0.1387  0.0209
  889SOL    HW1 3554   2.362   1.979   2.120  0.0587  0.0548 -0.7719
  889SOL    HW2 3555   2.339   2.077   2.021  1.3395 -0.0476  1.8889
  889SOL     MW 3556   2.306   2.023   2.078  0.4562 -0.1012  0.1627
  890SOL     OW 3557   0.080   2.341   0.107 -0.5857 -0.4763  0.2966
  890SOL    HW1 3558   0.043   2.428   0.120 -0.0526 -0.3085 -0.3227
  890SOL    HW2 3559   0.097   2.318   0.200  1.6911  0.6333  0.8906
  890SOL     MW 3560   0.077   2.350   0.121 -0.2150 -0.3078  0.2933
  891SOL     OW 3561   3.018   1.990   1.266  0.0121 -0.2382  0.3509
  891SOL    HW1 3562   3.110   1.964   1.294 -0.0101 -1.5849  2.0763
  891SOL    HW2 3563   3.012   2.091   1.249  0.0634  0.8607  0.3966
  891SOL     MW 3564   3.030   2.000   1.268  0.0159 -0.2709  0.5846
  892SOL     OW 3565   2.439   2.328   2.772  0.2140 -0.0645 -0.8598
  892SOL    HW1 3566   2.413   2.258   2.831  0.9734 -0.4390 -0.2408
  892SOL    HW2 3567   2.530   2.332   2.800 -4.2840 -3.1726 -0.1753
  892SOL     MW 3568   2.448   2.320   2.783 -0.2793 -0.5240 -0.6878
  893SOL     OW 3569   1.637   2.370   1.294 -0.1533  0.2799 -0.5162
  893SOL    HW1 3570   1.585   2.424   1.358  0.6301 -1.0330  0.2543
  893SOL    HW2 3571   1.728   2.360   1.325  0.4621 -2.3836 -1.8237
  893SOL     MW 3572   1.642   2.376   1.307  0.0313 -0.2448 -0.5870
  894SOL     OW 3573   2.793   1.880   0.494 -0.1690 -0.2063 -0.1356
  894SOL    HW1 3574   2.704   1.881   0.499  1.2639 -0.2404 -1.7373
  894SOL    HW2 3575   2.807   1.852   0.405 -1.7667  0.4322  3.0785
  894SOL     MW 3576   2.783   1.877   0.483 -0.1907 -0.1266  0.0772
  895SOL     OW 3577   2.138   2.117   1.264 -0.1681  0.2927  0.2340
  895SOL    HW1 3578   2.103   2.197   1.214  0.4600 -0.5471 -0.7293
  895SOL    HW2 3579   2.161   2.050   1.190 -1.2966  3.3441 -0.9511
  895SOL     MW 3580   2.137   2.119   1.247 -0.2341  0.5845 -0.0495
  896SOL     OW 3581   2.205   2.789   1.071  0.5110  0.2748 -0.1146
  896SOL    HW1 3582   2.291   2.770   1.124  3.3522 -1.6851 -1.9040
  896SOL    HW2 3583   2.159   2.699   1.073 -0.0904 -4.8496  1.6037
  896SOL     MW 3584   2.211   2.775   1.078  0.8065 -0.6599 -0.1240
  897SOL     OW 3585   2.988   2.921   0.111 -0.2850  0.0684 -0.5209
  897SOL    HW1 3586   3.062   2.885   0.056 -3.4984  1.3764  0.1784
  897SOL    HW2 3587   2.914   2.868   0.099  0.3956  2.6568  1.4695
  897SOL     MW 3588   2.988   2.909   0.102 -0.6192  0.5825 -0.1660
  898SOL     OW 3589   2.077   0.163   1.437 -0.2719  0.0537 -0.2225
  898SOL    HW1 3590   2.071   0.069   1.468 -1.9634  2.1077  1.7885
  898SOL    HW2 3591   2.077   0.157   1.339 -0.9419 -1.5886 -0.8498
  898SOL     MW 3592   2.076   0.150   1.428 -0.5835  0.1080 -0.0400
  899SOL     OW 3593   2.904   2.961   0.622  0.0945  0.0015 -0.1467
  899SOL    HW1 3594   2.909   2.889   0.688  0.4392  1.8046  0.8121
  899SOL    HW2 3595   2.844   3.017   0.665  0.9038 -0.9687  0.9642
  899SOL     MW 3596   2.897   2.959   0.636  0.2467  0.1114  0.1264
  900SOL     OW 3597   0.113   2.402   1.084 -0.1407 -0.1786 -0.1257
  900SOL    HW1 3598   0.066   2.480   1.065  0.8279 -2.0539  1.4796
  900SOL    HW2 3599   0.119   2.362   0.996 -0.2485  0.1672  0.4639
  900SOL     MW 3600   0.108   2.407   1.070 -0.0272 -0.3804  0.1639
  901SOL     OW 3601   1.739   2.908   1.734  0.0527  0.3152  0.3863
  901SOL    HW1 3602   1.824   2.855   1.730  1.5170  0.0845 -0.4460
  901SOL    HW2 3603   1.688   2.868   1.661  0.5201 -1.1248  2.0531
  901SOL     MW 3604   1.743   2.896   1.723  0.3076  0.0947  0.4964
  902SOL     OW 3605   2.673   2.110   1.823  0.0330 -0.1304  0.1627
  902SOL    HW1 3606   2.673   2.073   1.739  1.4830  1.2011  1.4643
  902SOL    HW2 3607   2.752   2.080   1.864 -0.5413 -2.1101 -0.5938
  902SOL     MW 3608   2.683   2.101   1.817  0.1485 -0.2159  0.2346
  903SOL     OW 3609   1.572   2.782   0.521 -0.4642  0.4404  0.4023
  903SOL    HW1 3610   1.620   2.699   0.556  0.4756 -2.2431  0.7103
  903SOL    HW2 3611   1.548   2.839   0.596  1.0653 -1.0056  0.0274
  903SOL     MW 3612   1.575   2.779   0.536 -0.1384 -0.1045  0.3935
  904SOL     OW 3613   2.483   2.573   1.728 -0.1632  0.8647  0.0170
  904SOL    HW1 3614   2.403   2.577   1.675  1.2746  3.6658  2.1115
  904SOL    HW2 3615   2.539   2.513   1.675 -3.5894 -3.0668 -1.4086
  904SOL     MW 3616   2.480   2.566   1.714 -0.4255  0.7155  0.1052
  905SOL     OW 3617   2.330   2.577   2.178 -0.4061  0.1231  0.2420
  905SOL    HW1 3618   2.388   2.532   2.115 -2.3123 -1.1142 -2.0820
  905SOL    HW2 3619   2.293   2.498   2.221 -0.7799 -0.0851  0.9737
  905SOL     MW 3620   2.333   2.561   2.175 -0.7069 -0.0676  0.0319
  906SOL     OW 3621   2.420   2.524   0.878  0.2231 -0.0068  0.2802
  906SOL    HW1 3622   2.512   2.505   0.897 -2.2789 -0.2495 -0.3348
  906SOL    HW2 3623   2.415   2.625   0.855 -0.2840 -0.4946  0.9689
  906SOL     MW 3624   2.431   2.535   0.877 -0.1739 -0.1032  0.2899
  907SOL     OW 3625   2.625   2.801   1.343  0.4138 -0.7443 -0.1569
  907SOL    HW1 3626   2.648   2.870   1.403  3.2049 -1.5534 -0.3763
  907SOL    HW2 3627   2.658   2.831   1.257 -0.3207  0.9956 -1.9071
  907SOL     MW 3628   2.632   2.814   1.339  0.6852 -0.6215 -0.4168
  908SOL     OW 3629   2.756   2.379   3.082 -0.1636  0.0166 -0.1067
  908SOL    HW1 3630   2.684   2.310   3.092 -2.2011 -4.0049 -0.2546
  908SOL    HW2 3631   2.721   2.457   3.128  1.8548  0.3644  0.5660
  908SOL     MW 3632   2.742   2.380   3.089 -0.1661 -0.4681 -0.0375
  909SOL     OW 3633   1.720   0.145   1.123 -0.2973  0.0042 -0.0896
  909SOL    HW1 3634   1.686   0.210   1.060  1.8531 -0.2972 -1.8049
  909SOL    HW2 3635   1.771   0.191   1.180 -0.6708 -1.1387 -0.9228
  909SOL     MW 3636   1.722   0.160   1.122 -0.0629 -0.1864 -0.4258
  910SOL     OW 3637   2.366   1.778   0.433 -0.0178 -1.1558  0.5618
  910SOL    HW1 3638   2.295   1.713   0.445 -0.4444  1.2094  0.8373
  910SOL    HW2 3639   2.325   1.845   0.379  0.2764  0.1022  1.7122
  910SOL     MW 3640   2.351   1.778   0.427 -0.0353 -0.6777  0.7499
  911SOL     OW 3641   2.227   2.241   1.722  0.3501 -0.1267  0.1465
  911SOL    HW1 3642   2.293   2.214   1.786  0.7492 -1.2945 -0.6559
  911SOL    HW2 3643   2.260   2.225   1.631 -2.5202 -1.2553 -1.3993
  911SOL     MW 3644   2.240   2.236   1.719  0.0240 -0.4297 -0.1633
  912SOL     OW 3645   2.932   1.934   1.515 -0.2993  0.1927  0.0929
  912SOL    HW1 3646   2.963   1.965   1.425  2.5709 -1.8442 -1.1824
  912SOL    HW2 3647   2.837   1.960   1.519 -1.5328  0.8616 -2.5181
  912SOL     MW 3648   2.923   1.941   1.504 -0.0833  0.0122 -0.4199
  913SOL     OW 3649   2.611   3.025   0.367  0.6487  0.0128 -0.1893
  913SOL    HW1 3650   2.688   2.971   0.384  0.1792 -0.9085 -1.4281
  913SOL    HW2 3651   2.538   2.977   0.336  2.3112  3.1467  0.8664
  913SOL     MW 3652   2.611   3.012   0.365  0.8061  0.3047 -0.2135
  914SOL     OW 3653   2.686   1.745   3.048 -0.2168 -0.1268  0.1993
  914SOL    HW1 3654   2.714   1.825   2.997 -1.2105  0.6242  0.5126
  914SOL    HW2 3655   2.587   1.760   3.062 -1.4890  2.9449 -0.3500
  914SOL     MW 3656   2.677   1.757   3.043 -0.5158  0.3776  0.1682
  915SOL     OW 3657   1.706   0.229   0.219  0.1126  0.0313 -0.0084
  915SOL    HW1 3658   1.773   0.180   0.262 -0.6382 -0.6297 -0.3936
  915SOL    HW2 3659   1.630   0.167   0.211  0.8151  2.6014 -1.9822
  915SOL     MW 3660   1.705   0.214   0.224  0.1062  0.2832 -0.3197
  916SOL     OW 3661   1.812   2.096   1.936 -0.1187  0.4848 -0.0981
  916SOL    HW1 3662   1.847   2.188   1.921 -1.3436  0.9536 -2.2593
  916SOL    HW2 3663   1.823   2.049   1.854 -0.4627 -1.5802  0.4472
  916SOL     MW 3664   1.818   2.102   1.923 -0.3257  0.2742 -0.3113
  917SOL     OW 3665   2.532   2.183   2.543  0.4284  0.0884 -0.1747
  917SOL    HW1 3666   2.482   2.244   2.597  2.8910  0.3143  0.4045
  917SOL    HW2 3667   2.592   2.239   2.503  0.0224 -1.2681 -0.1157
  917SOL     MW 3668   2.534   2.199   2.544  0.6997 -0.0607 -0.0905
  918SOL     OW 3669   1.992   1.622   2.724  0.4885 -0.1688  0.0432
  918SOL    HW1 3670   1.920   1.644   2.662  2.9156  3.8213  0.7118
  918SOL    HW2 3671   2.064   1.682   2.700  1.4457 -1.9100  1.7591
  918SOL     MW 3672   1.992   1.633   2.713  0.9350  0.1279  0.3578
  919SOL     OW 3673   0.030   2.309   2.268 -0.5807 -0.2877 -0.0822
  919SOL    HW1 3674  -0.038   2.250   2.230 -2.6465  0.0442 -0.3254
  919SOL    HW2 3675   0.083   2.330   2.192  0.2901 -0.3404 -0.5465
  919SOL     MW 3676   0.028   2.304   2.253 -0.7383 -0.2509 -0.1755
  920SOL     OW 3677   2.742   2.829   3.092  0.0152  0.3422 -0.7609
  920SOL    HW1 3678   2.673   2.893   3.121 -0.3440 -0.4075  3.0501
  920SOL    HW2 3679   2.699   2.785   3.012 -3.6478  2.6233  0.2627
  920SOL     MW 3680   2.727   2.832   3.085 -0.5155  0.5443 -0.1231
  921SOL     OW 3681   2.430   2.571   2.602 -0.0480  0.0629 -0.0213
  921SOL    HW1 3682   2.510   2.605   2.571 -0.2212 -0.4437  3.4452
  921SOL    HW2 3683   2.447   2.500   2.668  1.5195 -2.6795  1.5184
  921SOL     MW 3684   2.442   2.566   2.607  0.1360 -0.3658  0.6392
  922SOL     OW 3685   2.029   2.840   0.330  0.2364 -0.4457  0.0424
  922SOL    HW1 3686   2.011   2.849   0.236  2.3938 -1.3997  0.2084
  922SOL    HW2 3687   2.047   2.746   0.332  0.9380  1.7690  0.2852
  922SOL     MW 3688   2.029   2.829   0.318  0.6136 -0.2793  0.0963
  923SOL     OW 3689   2.156   2.838   1.674 -0.0923 -0.2916  0.1313
  923SOL    HW1 3690   2.202   2.782   1.613 -2.4599 -0.5491  0.7817
  923SOL    HW2 3691   2.119   2.909   1.623  1.1430 -0.5175  1.4879
  923SOL     MW 3692   2.157   2.840   1.659 -0.2417 -0.3553  0.3961
  924SOL     OW 3693   1.207   2.611   2.491 -0.3514  0.5037 -0.2868
  924SOL    HW1 3694   1.260   2.686   2.510 -0.6458 -1.9713  1.2405
  924SOL    HW2 3695   1.203   2.562   2.573  0.5921  0.5936  1.7457
  924SOL     MW 3696   1.214   2.614   2.504 -0.2658  0.1890  0.1829
  925SOL     OW 3697   2.963   0.217   2.617  0.0983 -0.0435  0.8803
  925SOL    HW1 3698   2.927   0.214   2.518 -2.1849 -3.7008 -0.0406
  925SOL    HW2 3699   2.939   0.300   2.655 -1.2822  0.9946  0.5232
  925SOL     MW 3700   2.955   0.228   2.609 -0.3851 -0.3891  0.7117
  926SOL     OW 3701   2.756   2.386   2.085 -0.6435 -0.0577  0.0046
  926SOL    HW1 3702   2.798   2.466   2.118 -0.0244  1.2842 -1.1341
  926SOL    HW2 3703   2.805   2.386   1.997  2.6703  3.2139 -2.3827
  926SOL     MW 3704   2.768   2.397   2.078 -0.1246  0.5510 -0.4606
  927SOL     OW 3705   2.364   0.139   0.306 -0.3512  0.0072 -0.1773
  927SOL    HW1 3706   2.460   0.148   0.301  2.9939  0.0936 -1.5071
  927SOL    HW2 3707   2.337   0.144   0.214  0.6715  0.6514 -1.4612
  927SOL     MW 3708   2.373   0.141   0.293  0.2251  0.1036 -0.5221
  928SOL     OW 3709   2.104   2.433   1.936  0.5615  0.0331 -0.0021
  928SOL    HW1 3710   2.143   2.493   1.882 -1.5947  0.5089  1.0182
  928SOL    HW2 3711   2.157   2.355   1.920  0.5931 -0.8242 -0.3526
  928SOL     MW 3712   2.116   2.430   1.927  0.2812 -0.0172  0.0863
  929SOL     OW 3713   2.717   2.380   2.448  0.1129  0.1411  0.0529
  929SOL    HW1 3714   2.771   2.406   2.370  0.3523  0.9955  1.0800
  929SOL    HW2 3715   2.785   2.351   2.506  1.2557 -2.8420 -3.1571
  929SOL     MW 3716   2.733   2.380   2.445  0.2953 -0.1398 -0.2351
  930SOL     OW 3717   2.013   2.838   2.693  0.3610  0.6540  0.1038
  930SOL    HW1 3718   2.028   2.766   2.754 -1.7638 -0.8018  0.9769
  930SOL    HW2 3719   2.089   2.907   2.703  2.1008  0.2632 -1.6990
  930SOL     MW 3720   2.025   2.838   2.702  0.3102  0.4103 -0.0189
  931SOL     OW 3721   3.012   2.778   2.297 -0.2881  0.0284 -0.2373
  931SOL    HW1 3722   3.062   2.817   2.364 -0.5765  3.0290 -1.6401
  931SOL    HW2 3723   3.077   2.741   2.235  0.8239  1.5619  4.9460
  931SOL     MW 3724   3.027   2.778   2.298 -0.1794  0.6267  0.2615
  932SOL     OW 3725   2.831   1.990   2.559  0.3359 -0.3364  0.5186
  932SOL    HW1 3726   2.921   2.023   2.534  0.5345 -1.2257 -2.0727
  932SOL    HW2 3727   2.793   1.973   2.472  0.2649  1.1003  1.1627
  932SOL     MW 3728   2.838   1.992   2.544  0.3527 -0.2642  0.2617
  933SOL     OW 3729   2.010   2.881   2.297 -0.1315 -0.0166  0.3273
  933SOL    HW1 3730   2.089   2.923   2.326  0.0570 -1.1332  2.6414
  933SOL    HW2 3731   1.964   2.942   2.238  0.2846 -0.4355  0.7989
  933SOL     MW 3732   2.014   2.895   2.293 -0.0517 -0.2192  0.6948
  934SOL     OW 3733   2.013   2.668   2.474  0.3747 -0.4195 -0.5433
  934SOL    HW1 3734   1.992   2.723   2.551 -1.1332 -0.3154  0.1373
  934SOL    HW2 3735   2.020   2.737   2.406  1.0115 -0.0939  0.2517
  934SOL     MW 3736   2.011   2.685   2.475  0.2597 -0.3628 -0.3486
  935SOL     OW 3737   2.666   1.581   1.807 -0.0800 -0.1876  0.5269
  935SOL    HW1 3738   2.757   1.557   1.767  2.7155 -3.0864  0.2537
  935SOL    HW2 3739   2.594   1.556   1.748  1.2391 -1.8959 -0.5621
  935SOL     MW 3740   2.668   1.574   1.794  0.4629 -0.7954  0.3472
  936SOL     OW 3741   2.976   2.221   3.069  0.5075 -0.6538  0.1120
  936SOL    HW1 3742   3.038   2.278   3.120  1.8737 -0.2810 -0.2547
  936SOL    HW2 3743   2.895   2.276   3.076 -1.5379  1.9399 -0.9783
  936SOL     MW 3744   2.973   2.236   3.077  0.4179 -0.2624 -0.0802
  937SOL     OW 3745   1.946   2.126   2.632 -0.3691  0.3548 -0.8358
  937SOL    HW1 3746   2.024   2.081   2.672 -0.3278 -0.2052 -0.3143
  937SOL    HW2 3747   1.936   2.081   2.544  1.1358  0.1467 -3.0395
  937SOL     MW 3748   1.955   2.114   2.626 -0.1651  0.2534 -1.0577
  938SOL     OW 3749   2.237   1.793   1.946 -0.0360 -0.1874  0.6912
  938SOL    HW1 3750   2.231   1.827   1.856  0.5248 -1.6544 -1.1999
  938SOL    HW2 3751   2.253   1.872   1.994 -0.3776  0.8365  0.0410
  938SOL     MW 3752   2.238   1.808   1.940 -0.0071 -0.2459  0.3559
  939SOL     OW 3753   2.748   1.969   2.305 -0.1231 -0.3436  0.2474
  939SOL    HW1 3754   2.776   1.901   2.246 -4.1796  1.3236 -0.6714
  939SOL    HW2 3755   2.653   1.969   2.292 -0.8888 -0.9927 -3.2309
  939SOL     MW 3756   2.739   1.960   2.296 -0.7593 -0.2093 -0.3327
  940SOL     OW 3757   2.315   0.185   2.638 -0.3226  0.0325  0.2804
  940SOL    HW1 3758   2.309   0.089   2.639 -3.3282 -2.8019  0.6804
  940SOL    HW2 3759   2.337   0.204   2.725 -1.3193 -3.1490 -0.3620
  940SOL     MW 3760   2.317   0.175   2.650 -0.8506 -0.7613  0.2484
  941SOL     OW 3761   0.178   2.374   2.044 -0.7236  0.2909 -0.4138
  941SOL    HW1 3762   0.265   2.344   2.053  0.2745  1.4887 -0.3618
  941SOL    HW2 3763   0.158   2.327   1.964  0.1867  2.0730  1.7084
  941SOL     MW 3764   0.187   2.364   2.035 -0.4718  0.6841 -0.1269
  942SOL     OW 3765   2.888   2.166   2.175 -0.1992 -0.0902  0.4328
  942SOL    HW1 3766   2.826   2.238   2.153 -0.8863 -0.1515  0.0577
  942SOL    HW2 3767   2.838   2.102   2.221  3.1356 -0.7490 -1.1835
  942SOL     MW 3768   2.873   2.167   2.178  0.1502 -0.1852  0.1700
  943SOL     OW 3769   0.316   2.102   2.267 -0.0542 -0.3062  0.3443
  943SOL    HW1 3770   0.276   2.140   2.349 -1.0365  1.7404  0.2849
  943SOL    HW2 3771   0.405   2.073   2.297 -0.4055  0.5752  1.4386
  943SOL     MW 3772   0.322   2.103   2.282 -0.2302  0.0802  0.4808
  944SOL     OW 3773   2.082   2.709   2.095 -0.4379 -0.3135  0.2468
  944SOL    HW1 3774   2.173   2.683   2.120  1.6558  1.7524 -3.3621
  944SOL    HW2 3775   2.029   2.751   2.173 -0.0835 -1.7532  2.1047
  944SOL     MW 3776   2.087   2.711   2.109 -0.1149 -0.2309  0.0158
  945SOL     OW 3777   2.653   2.678   2.874 -0.3913  0.6767  0.3537
  945SOL    HW1 3778   2.646   2.584   2.854  0.2161  2.9341  0.2143
  945SOL    HW2 3779   2.584   2.722   2.824 -1.3406 -0.2669  1.5430
  945SOL     MW 3780   2.643   2.671   2.865 -0.4364  0.8500  0.4922
  946SOL     OW 3781   2.440   2.809   2.300  0.1773 -0.0447 -0.5510
  946SOL    HW1 3782   2.473   2.840   2.212 -1.1444  1.7532 -0.6253
  946SOL    HW2 3783   2.404   2.725   2.287  3.8417  2.5327 -1.8190
  946SOL     MW 3784   2.439   2.802   2.287  0.4864  0.5326 -0.7281
  947SOL     OW 3785   1.929   0.088   0.323 -0.7552 -0.7478  0.1165
  947SOL    HW1 3786   1.879   0.014   0.340 -1.4236  4.0720  1.9660
  947SOL    HW2 3787   2.015   0.084   0.367  0.8348  0.5901 -3.6501
  947SOL     MW 3788   1.934   0.078   0.331 -0.6336  0.0646 -0.1364
  948SOL     OW 3789   1.821   3.024   2.679  0.4555  1.1969 -0.1025
  948SOL    HW1 3790   1.894   2.958   2.684 -0.9171 -0.7396 -1.5252
  948SOL    HW2 3791   1.806   3.031   2.585 -1.8833  1.4015 -1.4428
  948SOL     MW 3792   1.829   3.016   2.667 -0.0342  0.9684 -0.4670
  949SOL     OW 3793   2.484   1.929   2.283 -0.6941  0.0711 -0.6150
  949SOL    HW1 3794   2.478   1.828   2.292 -0.8107  1.3183 -1.7940
  949SOL    HW2 3795   2.427   1.980   2.342 -1.7283  1.0130  0.8455
  949SOL     MW 3796   2.476   1.923   2.292 -0.8460  0.3599 -0.5778
  950SOL     OW 3797   2.270   2.509   2.952  0.2612 -0.4967  0.0418
  950SOL    HW1 3798   2.328   2.456   2.895  1.1732 -1.9474  1.1841
  950SOL    HW2 3799   2.190   2.521   2.905  0.6942  2.2285  0.3950
  950SOL     MW 3800   2.267   2.504   2.939  0.4387 -0.3285  0.2391
  951SOL     OW 3801   2.995   2.096   2.826 -0.1117 -0.0846  0.0559
  951SOL    HW1 3802   2.980   2.163   2.899 -1.1140  2.7707  0.5312
  951SOL    HW2 3803   3.087   2.090   2.812 -0.0959 -2.8754 -1.4065
  951SOL     MW 3804   3.005   2.104   2.834 -0.2419 -0.0761 -0.0743
  952SOL     OW 3805   3.051   1.657   2.149 -0.5347 -0.2073 -0.3557
  952SOL    HW1 3806   2.969   1.701   2.121 -2.0609 -0.9637  0.8624
  952SOL    HW2 3807   3.107   1.729   2.172 -0.9891 -0.8582  1.6531
  952SOL     MW 3808   3.047   1.672   2.149 -0.7960 -0.3930  0.0701
  953SOL     OW 3809   1.917   1.781   2.910 -0.0106 -0.2483  0.5179
  953SOL    HW1 3810   1.853   1.740   2.967 -0.2312  0.7124 -0.6501
  953SOL    HW2 3811   1.950   1.716   2.840 -1.7612  0.0661 -0.7316
  953SOL     MW 3812   1.913   1.767   2.909 -0.2707 -0.0800  0.1989
  954SOL     OW 3813   2.390   2.083   2.886  0.2722 -0.2399 -0.0374
  954SOL    HW1 3814   2.302   2.082   2.849  2.3384 -0.0115  2.9515
  954SOL    HW2 3815   2.459   2.047   2.823  0.9239 -0.2323 -0.4678
  954SOL     MW 3816   2.387   2.078   2.873  0.6308 -0.2088  0.3002
  955SOL     OW 3817   1.527   1.572   2.592 -0.4706 -0.1796 -0.0676
  955SOL    HW1 3818   1.478   1.597   2.517 -0.4649  2.2587 -1.8497
  955SOL    HW2 3819   1.617   1.600   2.563 -0.8050 -1.9900  0.3928
  955SOL     MW 3820   1.532   1.579   2.578 -0.5140 -0.0968 -0.2420
  956SOL     OW 3821   2.681   2.412   2.825 -0.2656  0.2834  0.2706
  956SOL    HW1 3822   2.716   2.399   2.911 -0.7915 -2.1310  0.1583
  956SOL    HW2 3823   2.740   2.372   2.763 -0.1233 -0.6137  0.4798
  956SOL     MW 3824   2.693   2.405   2.828 -0.3162 -0.1536  0.2834
  957SOL     OW 3825   2.357   2.841   0.357 -0.2925 -0.1845 -0.2534
  957SOL    HW1 3826   2.278   2.849   0.310 -0.4637  0.7033 -1.7161
  957SOL    HW2 3827   2.347   2.823   0.453  0.7254 -1.2887  0.0543
  957SOL     MW 3828   2.345   2.840   0.364 -0.1808 -0.2130 -0.4058
  958SOL     OW 3829   2.032   2.601   2.833 -0.1625  0.5563 -0.1996
  958SOL    HW1 3830   2.016   2.516   2.781  1.1101 -1.9606  1.0571
  958SOL    HW2 3831   1.958   2.597   2.892 -1.0085 -0.8649 -0.4081
  958SOL     MW 3832   2.020   2.589   2.834 -0.1062  0.0367 -0.0613
  959SOL     OW 3833   2.484   2.597   0.342  0.4252  0.2435  0.0092
  959SOL    HW1 3834   2.534   2.608   0.261  1.4517 -3.3221 -2.6423
  959SOL    HW2 3835   2.431   2.678   0.345 -1.8282  2.2022  0.8697
  959SOL     MW 3836   2.483   2.609   0.331  0.2633  0.0315 -0.2271
  960SOL     OW 3837   1.926   2.250   2.219 -0.4264 -0.3075  0.1039
  960SOL    HW1 3838   1.940   2.159   2.230 -2.1568  0.1203  2.1140
  960SOL    HW2 3839   1.874   2.261   2.300 -1.9450  1.6076  1.1906
  960SOL     MW 3840   1.921   2.240   2.231 -0.8551  0.0016  0.5125
  961SOL     OW 3841   2.199   2.326   2.260  0.1038 -0.0330  0.5564
  961SOL    HW1 3842   2.114   2.282   2.231  0.2405 -1.7385 -0.5417
  961SOL    HW2 3843   2.172   2.376   2.345  0.5074 -1.2403 -0.3380
  961SOL     MW 3844   2.184   2.327   2.267  0.1751 -0.4173  0.2935
  962SOL     OW 3845   2.146   2.029   2.788 -0.7742 -0.0306 -0.5845
  962SOL    HW1 3846   2.096   2.044   2.864  2.0962 -1.0901 -0.7431
  962SOL    HW2 3847   2.141   1.933   2.764 -0.8621 -2.2696 -0.5742
  962SOL     MW 3848   2.139   2.018   2.794 -0.4071 -0.4658 -0.6041
  963SOL     OW 3849   1.835   2.578   2.064  0.4309 -0.6976 -0.4034
  963SOL    HW1 3850   1.930   2.592   2.090 -0.7101 -1.8316  0.5689
  963SOL    HW2 3851   1.840   2.496   2.014  0.8580 -0.2875 -0.2391
  963SOL     MW 3852   1.848   2.569   2.061  0.3367 -0.7931 -0.2534
  964SOL     OW 3853   1.777   1.924   2.722 -0.3598 -0.1490 -0.0102
  964SOL    HW1 3854   1.831   1.999   2.697  5.3725  2.4547  3.1193
  964SOL    HW2 3855   1.825   1.890   2.799  0.0957 -1.2404 -1.9246
  964SOL     MW 3856   1.790   1.930   2.729  0.4566  0.0506  0.1501
  965SOL     OW 3857   2.216   2.769   0.614 -0.5719 -0.1411 -0.5345
  965SOL    HW1 3858   2.219   2.674   0.612 -0.0663  1.6381  1.3847
  965SOL    HW2 3859   2.267   2.787   0.693  1.2854 -1.6501  0.0861
  965SOL     MW 3860   2.223   2.759   0.624 -0.2601 -0.1055 -0.1994
  966SOL     OW 3861   2.684   2.674   2.471  0.0589 -0.0874 -0.5051
  966SOL    HW1 3862   2.648   2.739   2.414  1.3273  0.6315 -0.5902
  966SOL    HW2 3863   2.705   2.596   2.421  2.3173  0.2111  1.5058
  966SOL     MW 3864   2.682   2.672   2.457  0.5242  0.0468 -0.2510
  967SOL     OW 3865   2.783   3.052   2.902  0.3989  0.6592  0.1448
  967SOL    HW1 3866   2.761   2.980   2.964  0.9385 -0.3035  1.2666
  967SOL    HW2 3867   2.694   3.078   2.871 -2.2105  0.8035  1.9802
  967SOL     MW 3868   2.769   3.046   2.906  0.1258  0.5513  0.5350
  968SOL     OW 3869   3.020   2.628   2.911 -0.8176 -0.3026 -0.3275
  968SOL    HW1 3870   2.951   2.673   2.854  1.2540 -1.1699  1.1298
  968SOL    HW2 3871   3.042   2.544   2.867 -1.9742  2.4082 -2.6912
  968SOL     MW 3872   3.014   2.623   2.898 -0.6969 -0.0593 -0.4471
  969SOL     OW 3873   1.585   2.121   1.634  1.0193 -0.6109 -0.1388
  969SOL    HW1 3874   1.647   2.046   1.638 -1.0679  0.2782 -1.4994
  969SOL    HW2 3875   1.559   2.120   1.728  0.5095  1.1476 -0.2905
  969SOL     MW 3876   1.590   2.111   1.647  0.6767 -0.2616 -0.3383
  970SOL     OW 3877   1.677   1.776   1.850  0.6876  0.7371  0.4467
  970SOL    HW1 3878   1.733   1.733   1.910 -1.1828 -2.2618  1.2300
  970SOL    HW2 3879   1.591   1.761   1.884  0.9048 -0.5134  3.0290
  970SOL     MW 3880   1.673   1.768   1.863  0.4695  0.1764  0.8908
  971SOL     OW 3881   1.762   3.082   2.402  0.0367 -0.3378 -0.0322
  971SOL    HW1 3882   1.791   3.059   2.313  2.1435 -1.3521  4.3856
  971SOL    HW2 3883   1.815   3.157   2.425 -2.2543 -0.6511  0.9817
  971SOL     MW 3884   1.773   3.089   2.393  0.0124 -0.5130  0.6844
  972SOL     OW 3885   0.267   2.855   2.479 -0.0957 -1.0328  0.2662
  972SOL    HW1 3886   0.302   2.766   2.491  0.7330 -0.4256  1.7714
  972SOL    HW2 3887   0.340   2.917   2.490  1.1905 -0.5240  3.2554
  972SOL     MW 3888   0.281   2.852   2.482  0.1833 -0.8856  0.8592
  973SOL     OW 3889   2.521   0.021   2.076 -0.1622  0.1754  0.5180
  973SOL    HW1 3890   2.507  -0.068   2.052  1.0589 -1.0058 -0.1944
  973SOL    HW2 3891   2.563   0.058   1.996  1.0223 -0.6715  0.9265
  973SOL     MW 3892   2.525   0.014   2.062  0.1552 -0.0922  0.4779
  974SOL     OW 3893   2.055   0.208   2.689 -0.2455 -0.1576 -0.2310
  974SOL    HW1 3894   2.148   0.192   2.680 -0.5422 -0.6575  3.0510
  974SOL    HW2 3895   2.031   0.151   2.763  0.3033  0.3182 -1.6094
  974SOL     MW 3896   2.064   0.198   2.697 -0.2122 -0.1608  0.0202
  975SOL     OW 3897   2.205   2.480   2.487 -0.0207  0.7437 -0.5284
  975SOL    HW1 3898   2.300   2.498   2.505  1.8936 -0.4903 -1.0155
  975SOL    HW2 3899   2.167   2.571   2.474  1.9521  1.0208  0.5595
  975SOL     MW 3900   2.212   2.495   2.488  0.4922  0.6174 -0.4491
  976SOL     OW 3901   0.204   0.355   1.739  0.0113  0.5920  0.3768
  976SOL    HW1 3902   0.277   0.294   1.775 -0.0693  0.2308 -0.0236
  976SOL    HW2 3903   0.144   0.296   1.675  1.2609  2.8742  0.7719
  976SOL     MW 3904   0.206   0.339   1.735  0.1655  0.8455  0.3761
  977SOL     OW 3905   1.744   2.616   2.519  0.4170  0.3877 -0.0066
  977SOL    HW1 3906   1.735   2.526   2.492  1.3630 -1.3866  3.0209
  977SOL    HW2 3907   1.834   2.633   2.505 -1.4163  1.8833  2.3492
  977SOL     MW 3908   1.755   2.606   2.514  0.3000  0.3509  0.7037
   3.10000   3.10000   3.10000
