977 TIP4P/2005f water molecules t=   0.97000 step= 970
 3908
    1SOL     OW    1   0.371   0.800   3.091 -0.0820 -0.0905  0.2844
    1SOL    HW1    2   0.344   0.799   3.004  1.0269 -1.2809  1.6798
    1SOL    HW2    3   0.319   0.730   3.119 -1.4971  0.1599 -1.3834
    1SOL     MW    4   0.361   0.791   3.084 -0.1224 -0.2146  0.2485
    2SOL     OW    5   0.322   3.020   1.168  0.0487 -0.3595 -0.2310
    2SOL    HW1    6   0.323   3.113   1.144  0.1088  2.7669 -1.4201
    2SOL    HW2    7   0.226   3.021   1.188  1.2699  0.4901  1.2833
    2SOL     MW    8   0.309   3.033   1.168  0.2178  0.1651 -0.1881
    3SOL     OW    9   2.639   0.424   0.963  0.0588  0.3513  0.4905
    3SOL    HW1   10   2.699   0.481   0.919  1.7306  2.4047  2.2580
    3SOL    HW2   11   2.623   0.472   1.054 -1.3203  0.5011 -1.5152
    3SOL     MW   12   2.645   0.438   0.969  0.0974  0.6420  0.4591
    4SOL     OW   13   2.938   1.672   0.591 -1.1609  0.6554 -0.5363
    4SOL    HW1   14   2.873   1.740   0.553  0.9576  1.4527  0.0746
    4SOL    HW2   15   2.996   1.629   0.523  1.3404  2.0667 -3.3004
    4SOL     MW   16   2.937   1.675   0.577 -0.5514  0.9468 -0.8204
    5SOL     OW   17   1.775   1.502   0.510  0.5343 -0.3192 -0.1725
    5SOL    HW1   18   1.784   1.456   0.594 -0.0580 -1.6084 -1.8736
    5SOL    HW2   19   1.688   1.525   0.495  0.7140  2.0478  0.1635
    5SOL     MW   20   1.764   1.499   0.519  0.4798 -0.1770 -0.3526
    6SOL     OW   21   0.808   1.426   0.600  0.0585 -0.5866  0.1639
    6SOL    HW1   22   0.726   1.457   0.636  0.2136 -0.7241 -1.7116
    6SOL    HW2   23   0.835   1.348   0.641  0.8872 -0.4388 -2.5041
    6SOL     MW   24   0.801   1.420   0.610  0.1883 -0.5852 -0.4355
    7SOL     OW   25   2.061   1.075   3.070  0.2705 -0.4948  0.7914
    7SOL    HW1   26   2.035   1.155   3.030 -1.7352  0.7087  0.8301
    7SOL    HW2   27   2.119   1.108   3.138 -0.8319  0.2114  0.0949
    7SOL     MW   28   2.065   1.090   3.074 -0.1396 -0.2428  0.7046
    8SOL     OW   29   0.922   1.410   1.082  0.4906  0.2423  0.7140
    8SOL    HW1   30   1.011   1.377   1.097 -1.3153  2.0749  0.4702
    8SOL    HW2   31   0.863   1.345   1.130 -0.3479 -1.2126 -1.2596
    8SOL     MW   32   0.926   1.397   1.091  0.1417  0.2921  0.4215
    9SOL     OW   33   1.011   0.531   1.411 -0.1056 -0.0084 -0.1278
    9SOL    HW1   34   0.963   0.463   1.355 -2.0806 -1.4536 -0.2053
    9SOL    HW2   35   1.029   0.491   1.499 -1.9083  0.2516  1.3651
    9SOL     MW   36   1.007   0.516   1.415 -0.6040 -0.1648  0.0589
   10SOL     OW   37   0.221   0.771   0.465 -0.5570 -0.0343  0.2352
   10SOL    HW1   38   0.309   0.788   0.428 -0.2314  1.5181  0.5143
   10SOL    HW2   39   0.223   0.843   0.534  2.6288  1.1842  0.0232
   10SOL     MW   40   0.233   0.783   0.469 -0.0937  0.3313  0.2441
   11SOL     OW   41   0.810   1.140   1.725 -0.2518 -0.2227 -0.6982
   11SOL    HW1   42   0.849   1.128   1.810  3.3000 -0.3678 -0.8998
   11SOL    HW2   43   0.836   1.075   1.668  0.2175 -0.0469  0.9406
   11SOL     MW   44   0.818   1.130   1.729  0.2787 -0.2186 -0.5085
   12SOL     OW   45   0.041   1.081   0.869 -0.6589 -0.1899 -0.1790
   12SOL    HW1   46   0.065   1.147   0.935  4.3190 -0.3706  3.5216
   12SOL    HW2   47  -0.019   1.126   0.808 -3.1738 -1.0416  1.3784
   12SOL     MW   48   0.036   1.096   0.869 -0.3339 -0.3261  0.5148
   13SOL     OW   49   1.880   1.413   1.340 -0.0669 -0.2240  0.4310
   13SOL    HW1   50   1.894   1.335   1.281  0.3909 -0.1391  3.5123
   13SOL    HW2   51   1.915   1.489   1.294  0.8344 -1.1648  0.9542
   13SOL     MW   52   1.886   1.413   1.327  0.1124 -0.3369  0.9066
   14SOL     OW   53   0.628   0.405   1.878 -0.0425 -0.5168 -0.0419
   14SOL    HW1   54   0.567   0.326   1.878 -3.5660  0.4441 -3.1500
   14SOL    HW2   55   0.721   0.383   1.871 -3.8615  0.5416 -1.4907
   14SOL     MW   56   0.632   0.392   1.877 -1.0113 -0.2504 -0.6431
   15SOL     OW   57   1.938   0.348   1.009 -0.0630 -0.1111  0.5708
   15SOL    HW1   58   1.901   0.421   1.058 -0.0104  0.8382 -0.6656
   15SOL    HW2   59   2.013   0.383   0.956 -0.4732  0.8697  0.5990
   15SOL     MW   60   1.943   0.363   1.008 -0.1102  0.1436  0.4114
   16SOL     OW   61   0.199   1.798   0.319  0.1302 -0.0914  0.0562
   16SOL    HW1   62   0.281   1.752   0.344  0.8577 -0.3809  0.3395
   16SOL    HW2   63   0.210   1.888   0.345 -1.5315 -1.5532 -1.5377
   16SOL     MW   64   0.211   1.804   0.326  0.0069 -0.3224 -0.1167
   17SOL     OW   65   1.124   0.902   1.430 -0.4447  0.1770 -0.5430
   17SOL    HW1   66   1.159   0.883   1.521 -0.8680 -1.6825  1.8872
   17SOL    HW2   67   1.032   0.917   1.444  1.1271 -3.0671  1.6668
   17SOL     MW   68   1.117   0.902   1.444 -0.2932 -0.4963  0.0692
   18SOL     OW   69   0.052   1.591   0.410  0.5398  0.3783  0.1070
   18SOL    HW1   70   0.080   1.678   0.385 -0.6692 -2.0862 -0.1832
   18SOL    HW2   71   0.054   1.548   0.326 -0.2350 -2.6971 -0.3719
   18SOL     MW   72   0.056   1.597   0.396  0.2781 -0.3527  0.0055
   19SOL     OW   73   0.107   1.300   1.031  0.4162 -0.0802  0.3438
   19SOL    HW1   74   0.145   1.330   0.951 -0.5035 -0.7336 -1.4593
   19SOL    HW2   75   0.016   1.324   1.017  0.0949  4.6155 -3.0678
   19SOL     MW   76   0.100   1.307   1.019  0.2525  0.4531 -0.3442
   20SOL     OW   77   0.467   2.154   1.191  0.2754  0.7428  0.0958
   20SOL    HW1   78   0.421   2.080   1.149 -0.5883 -1.2886 -1.1493
   20SOL    HW2   79   0.417   2.173   1.274  0.2439  0.3476 -1.7966
   20SOL     MW   80   0.454   2.147   1.196  0.1573  0.4226 -0.3182
   21SOL     OW   81   0.483   0.840   0.392 -0.4059  0.2308  0.0659
   21SOL    HW1   82   0.528   0.787   0.457 -1.3141 -0.0439  1.8838
   21SOL    HW2   83   0.526   0.826   0.309 -3.1150 -0.2167 -0.6069
   21SOL     MW   84   0.494   0.831   0.389 -0.8832  0.1355  0.2170
   22SOL     OW   85   1.573   0.682   1.028  0.0996 -0.8943 -0.7021
   22SOL    HW1   86   1.521   0.661   0.950  0.2756 -0.5792  2.0812
   22SOL    HW2   87   1.516   0.716   1.097  2.1395 -0.2398 -2.0891
   22SOL     MW   88   1.559   0.683   1.027  0.3920 -0.7663 -0.5178
   23SOL     OW   89   3.091   0.753   0.662 -0.4103 -0.3020 -0.0917
   23SOL    HW1   90   3.137   0.677   0.709 -2.0384 -1.8829  2.2977
   23SOL    HW2   91   3.154   0.822   0.653 -3.6813  0.8111 -0.5184
   23SOL     MW   92   3.106   0.752   0.667 -1.0567 -0.3637  0.1673
   24SOL     OW   93   1.980   2.238   0.059  0.2429  0.2536 -0.4328
   24SOL    HW1   94   2.017   2.210   0.148  1.1395 -0.0958  1.2789
   24SOL    HW2   95   2.011   2.160   0.013  0.8843 -0.5969  0.4172
   24SOL     MW   96   1.989   2.224   0.065  0.4458  0.0953 -0.0948
   25SOL     OW   97   0.252   1.410   0.530 -1.0093  0.0996  0.4620
   25SOL    HW1   98   0.236   1.487   0.481  2.8555 -1.2968 -1.2448
   25SOL    HW2   99   0.345   1.409   0.559  3.0416 -0.2084 -0.3126
   25SOL     MW  100   0.262   1.420   0.527  0.0351 -0.1253  0.1346
   26SOL     OW  101   2.067   0.992   0.352  0.8769  0.1752  0.2068
   26SOL    HW1  102   2.005   1.028   0.415  3.3849 -3.3438 -1.1341
   26SOL    HW2  103   2.113   1.061   0.306  1.9433 -0.2536  3.2549
   26SOL     MW  104   2.065   1.006   0.354  1.3485 -0.3457  0.4321
   27SOL     OW  105   2.034   1.430   0.250 -0.0135 -0.0607  0.0666
   27SOL    HW1  106   1.942   1.413   0.270 -0.7848  2.6047 -1.1337
   27SOL    HW2  107   2.068   1.489   0.317 -1.8073  1.3203 -1.5423
   27SOL     MW  108   2.027   1.436   0.262 -0.3520  0.4732 -0.3041
   28SOL     OW  109   0.454   0.979   1.966  0.3920 -0.0411 -0.4260
   28SOL    HW1  110   0.536   0.935   1.967 -4.5280 -0.7796  0.9302
   28SOL    HW2  111   0.388   0.912   1.963  0.6509 -2.8191 -0.4761
   28SOL     MW  112   0.456   0.965   1.966 -0.2230 -0.5051 -0.2537
   29SOL     OW  113   0.271   1.436   0.811 -0.4745  0.0151  0.1011
   29SOL    HW1  114   0.244   1.531   0.806 -2.6124 -0.3346 -0.9814
   29SOL    HW2  115   0.251   1.396   0.728  0.9859 -2.9856  0.2407
   29SOL     MW  116   0.265   1.443   0.799 -0.5639 -0.4269 -0.0233
   30SOL     OW  117   0.826   1.200   1.218 -0.3157  0.1963  0.0584
   30SOL    HW1  118   0.745   1.203   1.265 -1.0896 -2.4274  0.8803
   30SOL    HW2  119   0.900   1.201   1.287  0.7347  1.5641  3.3930
   30SOL     MW  120   0.825   1.201   1.233 -0.2792  0.0306  0.6068
   31SOL     OW  121   0.388   0.179   0.201  0.2596  0.9320 -0.3969
   31SOL    HW1  122   0.375   0.088   0.233 -1.4094  0.4292  2.7610
   31SOL    HW2  123   0.389   0.164   0.110 -0.8707 -0.4735  2.7372
   31SOL     MW  124   0.387   0.165   0.194 -0.1098  0.6802  0.4333
   32SOL     OW  125   2.809   0.967   1.154  0.3252 -0.3559  0.7245
   32SOL    HW1  126   2.765   0.892   1.113 -1.8267 -1.0463 -0.3358
   32SOL    HW2  127   2.901   0.963   1.132  0.5927  0.5163 -1.5859
   32SOL     MW  128   2.816   0.957   1.146  0.0766 -0.3319  0.2798
   33SOL     OW  129   1.741   1.300   0.328 -0.2315  0.4177  0.1793
   33SOL    HW1  130   1.788   1.226   0.370  0.8217 -0.1921  1.3464
   33SOL    HW2  131   1.763   1.379   0.376  0.6854 -0.1375 -1.1409
   33SOL     MW  132   1.750   1.301   0.340  0.0284  0.2640  0.1591
   34SOL     OW  133   1.228   1.860   1.104 -0.0956  0.4287  0.4676
   34SOL    HW1  134   1.141   1.897   1.120 -1.4544 -0.5902  2.3352
   34SOL    HW2  135   1.288   1.896   1.168 -0.4634  2.2432  1.5522
   34SOL     MW  136   1.224   1.870   1.115 -0.3234  0.5337  0.8571
   35SOL     OW  137   0.422   0.212   1.819  0.0958 -0.5656 -0.0091
   35SOL    HW1  138   0.409   0.145   1.884 -2.8131  1.1395  1.6999
   35SOL    HW2  139   0.436   0.175   1.736 -1.2022 -0.8688  1.1809
   35SOL     MW  140   0.422   0.198   1.817 -0.4592 -0.3806  0.3734
   36SOL     OW  141   1.942   1.974   0.573  0.2283 -0.1433  0.5728
   36SOL    HW1  142   1.978   1.978   0.484  2.8766 -1.9334  2.9143
   36SOL    HW2  143   1.944   1.876   0.602 -0.2296  0.9641 -0.5154
   36SOL     MW  144   1.947   1.961   0.565  0.5173 -0.2334  0.7382
   37SOL     OW  145   1.756   1.964   0.983 -0.2456 -0.4091 -0.2953
   37SOL    HW1  146   1.690   1.921   0.923 -2.6912  0.9349  0.2396
   37SOL    HW2  147   1.708   2.027   1.031  1.2466 -1.1032  0.6539
   37SOL     MW  148   1.741   1.967   0.982 -0.3714 -0.3234 -0.0995
   38SOL     OW  149   2.811   0.891   0.134 -0.2285  0.4406  0.2773
   38SOL    HW1  150   2.863   0.872   0.213  1.0796 -1.4253  0.5934
   38SOL    HW2  151   2.879   0.897   0.065  0.7561 -0.8977  2.6480
   38SOL     MW  152   2.827   0.890   0.135  0.0740  0.0178  0.6318
   39SOL     OW  153   1.425   0.639   0.801 -0.2925  0.5038  0.2659
   39SOL    HW1  154   1.394   0.551   0.824  1.8135 -1.9006 -0.8998
   39SOL    HW2  155   1.359   0.674   0.733 -1.2089  2.1523 -1.3889
   39SOL     MW  156   1.412   0.632   0.795 -0.1356  0.4041 -0.1062
   40SOL     OW  157   1.147   1.905   0.313  0.3195  0.1283 -0.1446
   40SOL    HW1  158   1.204   1.835   0.351  0.1324  1.9282 -0.1979
   40SOL    HW2  159   1.148   1.966   0.387  2.7419 -1.9624 -0.0721
   40SOL     MW  160   1.155   1.904   0.328  0.6144  0.0899 -0.1421
   41SOL     OW  161   0.562   0.570   1.670  0.7183  0.1393  0.2550
   41SOL    HW1  162   0.647   0.608   1.642  1.4476 -1.1149 -1.2701
   41SOL    HW2  163   0.577   0.503   1.735 -0.9441 -2.2708  0.0080
   41SOL     MW  164   0.575   0.566   1.675  0.5952 -0.3442  0.0212
   42SOL     OW  165   1.274   3.006   1.974 -0.5694  0.1213 -0.0836
   42SOL    HW1  166   1.197   3.043   2.016 -0.3004 -0.2607 -1.2229
   42SOL    HW2  167   1.299   2.928   2.024 -0.5132  0.8406 -1.5986
   42SOL     MW  168   1.267   3.001   1.986 -0.5265  0.1658 -0.4338
   43SOL     OW  169   1.529   0.141   1.712 -0.8490  0.7325 -0.0695
   43SOL    HW1  170   1.556   0.151   1.623  0.9406  0.3153  2.5019
   43SOL    HW2  171   1.440   0.099   1.712 -0.4503  0.5355 -0.7378
   43SOL     MW  172   1.521   0.137   1.700 -0.5603  0.6514  0.1816
   44SOL     OW  173   1.044   0.786   1.013  0.1838 -0.3648  0.2246
   44SOL    HW1  174   1.042   0.881   1.005  1.5582 -0.1899  0.8560
   44SOL    HW2  175   1.099   0.762   1.089 -0.9073  1.2816  1.3059
   44SOL     MW  176   1.051   0.796   1.022  0.2212 -0.1245  0.4506
   45SOL     OW  177   1.218   0.768   0.659  0.4644  0.1775  0.0104
   45SOL    HW1  178   1.159   0.778   0.736 -2.4868 -2.3657 -0.4244
   45SOL    HW2  179   1.162   0.736   0.590 -2.4038 -1.2292 -0.2059
   45SOL     MW  180   1.203   0.765   0.660 -0.3034 -0.3437 -0.0755
   46SOL     OW  181   0.555   1.196   0.598  0.7096 -0.1595  0.0726
   46SOL    HW1  182   0.515   1.178   0.509 -2.2208  1.2579  0.0883
   46SOL    HW2  183   0.635   1.149   0.594  0.0151  4.7424 -0.6099
   46SOL     MW  184   0.561   1.187   0.586  0.2313  0.6742 -0.0154
   47SOL     OW  185   0.186   1.994   1.972  0.6882  0.5549  0.8560
   47SOL    HW1  186   0.273   1.961   1.949 -1.9561 -0.8058 -1.8847
   47SOL    HW2  187   0.175   1.966   2.061 -1.3139 -1.0074  1.6791
   47SOL     MW  188   0.196   1.986   1.981  0.0752  0.1692  0.6030
   48SOL     OW  189   1.077   0.527   0.995  0.1537  0.2066  0.6948
   48SOL    HW1  190   0.995   0.475   1.004 -0.2683 -0.4976 -2.3165
   48SOL    HW2  191   1.052   0.612   0.988 -1.1578 -2.4317 -1.0997
   48SOL     MW  192   1.063   0.531   0.995 -0.0750 -0.2344  0.0607
   49SOL     OW  193   1.796   0.723   1.550 -0.4652 -0.0949 -0.4891
   49SOL    HW1  194   1.756   0.650   1.594 -0.8542  3.3100  1.0729
   49SOL    HW2  195   1.875   0.689   1.500  1.4458 -1.4736  1.9806
   49SOL     MW  196   1.801   0.709   1.549 -0.2644  0.1725  0.0429
   50SOL     OW  197   1.283   1.056   0.501  0.3950 -0.3687 -0.3013
   50SOL    HW1  198   1.219   1.086   0.568 -1.0405  2.2721  1.4559
   50SOL    HW2  199   1.357   1.014   0.551  0.3187 -2.2741  1.8391
   50SOL     MW  200   1.284   1.054   0.516  0.1955 -0.2717  0.2129
   51SOL     OW  201   0.327   2.906   0.915  0.0795  0.6524 -0.1366
   51SOL    HW1  202   0.412   2.858   0.924 -1.3793  2.1045  3.4225
   51SOL    HW2  203   0.314   2.944   1.003  2.9207  0.7156  0.6998
   51SOL     MW  204   0.336   2.904   0.928  0.2619  0.8523  0.4433
   52SOL     OW  205   0.789   1.775   0.455 -0.0754 -1.3428 -0.6097
   52SOL    HW1  206   0.756   1.865   0.447 -0.3128 -1.6572  2.2031
   52SOL    HW2  207   0.795   1.748   0.365  1.3727  1.4600 -1.8249
   52SOL     MW  208   0.786   1.783   0.442  0.0844 -1.0145 -0.3989
   53SOL     OW  209   0.457   2.120   0.543  0.1195  0.2429 -0.0908
   53SOL    HW1  210   0.386   2.094   0.480  0.1259 -4.1850  2.5514
   53SOL    HW2  211   0.444   2.215   0.552  1.0875  1.6063  0.7034
   53SOL     MW  212   0.446   2.129   0.536  0.2481 -0.1614  0.3626
   54SOL     OW  213   2.019   0.948   0.797 -0.2125  0.0819 -0.0410
   54SOL    HW1  214   2.065   0.972   0.718 -1.0879 -0.2408 -0.4758
   54SOL    HW2  215   2.033   0.853   0.802 -1.6511 -0.3260 -0.2740
   54SOL     MW  216   2.027   0.938   0.787 -0.5178 -0.0145 -0.1291
   55SOL     OW  217   0.525   1.561   1.618  0.1151 -0.2975  0.0133
   55SOL    HW1  218   0.461   1.604   1.559  1.4786  0.3100  1.7566
   55SOL    HW2  219   0.587   1.512   1.561 -1.3519  0.0928 -3.0447
   55SOL     MW  220   0.525   1.560   1.603  0.1014 -0.1659 -0.1602
   56SOL     OW  221   0.609   0.794   0.149  0.3251  0.6720  0.8101
   56SOL    HW1  222   0.654   0.881   0.153  0.4499  1.3095  1.2268
   56SOL    HW2  223   0.542   0.809   0.080 -0.9673 -0.2881  1.4001
   56SOL     MW  224   0.606   0.808   0.141  0.1710  0.6295  0.9429
   57SOL     OW  225   1.164   1.282   1.146 -0.2886 -0.1350  0.8270
   57SOL    HW1  226   1.236   1.325   1.087 -1.6745  4.0391 -0.9148
   57SOL    HW2  227   1.207   1.220   1.202  0.1216 -1.0850  0.3789
   57SOL     MW  228   1.179   1.279   1.146 -0.4173  0.2904  0.5381
   58SOL     OW  229   0.570   1.167   1.356  0.3114  0.3175  0.7152
   58SOL    HW1  230   0.578   1.261   1.370 -0.0678 -2.4658 -1.0356
   58SOL    HW2  231   0.556   1.134   1.442 -1.2574 -0.8771  0.1709
   58SOL     MW  232   0.569   1.175   1.369  0.0544 -0.2074  0.4124
   59SOL     OW  233   1.560   1.721   0.363  0.0712  0.0100 -0.0504
   59SOL    HW1  234   1.597   1.794   0.420  0.0615  0.8318  0.1492
   59SOL    HW2  235   1.468   1.723   0.373  2.7753  0.1373  0.6132
   59SOL     MW  236   1.553   1.731   0.372  0.4267  0.1352  0.0635
   60SOL     OW  237   0.063   0.211   1.583 -0.3278  0.0353  0.5336
   60SOL    HW1  238  -0.023   0.231   1.609 -2.2426  0.0612 -1.3097
   60SOL    HW2  239   0.092   0.145   1.654  1.0191 -1.8671  1.0102
   60SOL     MW  240   0.056   0.205   1.596 -0.4027 -0.2123  0.3532
   61SOL     OW  241   2.020   1.494   3.095 -0.7208 -0.3097  0.2222
   61SOL    HW1  242   2.038   1.459   3.186 -2.7702 -1.3376  0.2893
   61SOL    HW2  243   2.092   1.458   3.042 -0.6928  2.3399 -3.2526
   61SOL     MW  244   2.032   1.484   3.100 -0.9875 -0.0957 -0.2274
   62SOL     OW  245   0.565   1.719   0.620  0.0081 -0.2356  0.0239
   62SOL    HW1  246   0.648   1.714   0.564  1.6737 -1.2930 -1.3183
   62SOL    HW2  247   0.539   1.630   0.608 -3.0324  0.4296  0.6029
   62SOL     MW  248   0.573   1.707   0.611 -0.1733 -0.2873 -0.0768
   63SOL     OW  249   1.695   0.669   0.694 -0.1581 -0.3835  0.1041
   63SOL    HW1  250   1.723   0.761   0.672 -0.4785  0.2251  0.0230
   63SOL    HW2  251   1.612   0.683   0.740 -0.2574  0.3511 -0.2447
   63SOL     MW  252   1.688   0.683   0.698 -0.2135 -0.2063  0.0474
   64SOL     OW  253   0.196   1.691   0.832  0.6325  0.1551 -0.1083
   64SOL    HW1  254   0.244   1.731   0.760 -1.5335 -1.4414  1.3356
   64SOL    HW2  255   0.103   1.705   0.808  1.6537  0.2820  3.7020
   64SOL     MW  256   0.190   1.698   0.820  0.4814 -0.0388  0.5849
   65SOL     OW  257   1.603   2.295   0.393 -0.4150  0.0998 -0.5943
   65SOL    HW1  258   1.698   2.313   0.384  1.3536  0.0425 -0.3452
   65SOL    HW2  259   1.567   2.351   0.465 -0.3024  1.8871 -0.5589
   65SOL     MW  260   1.611   2.305   0.401 -0.1668  0.3281 -0.5568
   66SOL     OW  261   0.280   0.527   0.552  0.4353  0.3001 -0.2093
   66SOL    HW1  262   0.336   0.484   0.481 -1.1148  0.0105 -1.7845
   66SOL    HW2  263   0.274   0.616   0.524  1.3358 -3.7146  1.4456
   66SOL     MW  264   0.287   0.533   0.539  0.3496 -0.2678 -0.1988
   67SOL     OW  265   1.532   0.074   2.039 -0.4098  0.1942  0.2897
   67SOL    HW1  266   1.608   0.067   1.984  0.4970  1.6153 -1.0712
   67SOL    HW2  267   1.507  -0.018   2.056 -2.4382  2.5127 -1.3292
   67SOL     MW  268   1.539   0.061   2.034 -0.5578  0.6876 -0.1035
   68SOL     OW  269   0.722   0.048   2.915 -0.5518 -0.8408 -0.1963
   68SOL    HW1  270   0.742   0.094   2.831 -0.8041  1.7479  2.3792
   68SOL    HW2  271   0.774   0.093   2.976  0.4848 -2.3017 -0.2128
   68SOL     MW  272   0.732   0.060   2.912 -0.4483 -0.6920  0.1413
   69SOL     OW  273   1.057   0.217   1.975  0.4203 -0.0924  0.1182
   69SOL    HW1  274   1.150   0.223   1.992 -0.4788 -0.5584 -0.4745
   69SOL    HW2  275   1.033   0.153   2.038 -1.3927 -0.3054  0.4330
   69SOL     MW  276   1.067   0.210   1.986  0.0625 -0.1820  0.0816
   70SOL     OW  277   0.555   1.741   1.121  0.7967 -0.0386 -0.1238
   70SOL    HW1  278   0.611   1.703   1.191 -2.4750 -0.1470  1.7013
   70SOL    HW2  279   0.615   1.781   1.060  1.0904 -0.3636 -0.1314
   70SOL     MW  280   0.570   1.741   1.122  0.4038 -0.0958  0.1160
   71SOL     OW  281   1.582   0.489   1.248  0.0984  0.0096  0.2196
   71SOL    HW1  282   1.549   0.562   1.301 -2.4790  0.6024 -0.1315
   71SOL    HW2  283   1.570   0.519   1.157  0.2870 -1.4356 -1.2145
   71SOL     MW  284   1.576   0.503   1.243 -0.2168 -0.1029 -0.0159
   72SOL     OW  285   0.745   1.848   0.965  0.0606  0.7907  0.3455
   72SOL    HW1  286   0.757   1.918   0.897 -0.8524  1.5144  2.1692
   72SOL    HW2  287   0.769   1.760   0.939  0.8096 -1.4363  1.2051
   72SOL     MW  288   0.750   1.846   0.953  0.0390  0.5923  0.6995
   73SOL     OW  289   1.203   0.691   1.259 -0.2498 -0.3130 -0.1900
   73SOL    HW1  290   1.142   0.622   1.280  0.3283 -0.6609 -0.3503
   73SOL    HW2  291   1.164   0.773   1.298  0.1370  1.1260 -0.5350
   73SOL     MW  292   1.190   0.693   1.267 -0.1225 -0.1690 -0.2567
   74SOL     OW  293   2.707   0.151   0.972  0.1438  0.4162  0.4873
   74SOL    HW1  294   2.798   0.136   0.942 -0.8631  0.2218  0.1664
   74SOL    HW2  295   2.700   0.246   0.963  0.9715 -0.0482  0.7390
   74SOL     MW  296   2.718   0.161   0.967  0.1202  0.3293  0.4782
   75SOL     OW  297   1.614   1.416   0.123 -0.1046  0.8860  0.5710
   75SOL    HW1  298   1.649   1.500   0.154 -0.0254  0.0430  0.3098
   75SOL    HW2  299   1.662   1.355   0.184 -1.0720 -0.0577 -2.3618
   75SOL     MW  300   1.625   1.419   0.135 -0.2218  0.6502  0.1496
   76SOL     OW  301   2.963   0.555   0.476 -0.6409 -0.1840 -0.2146
   76SOL    HW1  302   3.014   0.623   0.526 -0.6436  0.2333  0.8941
   76SOL    HW2  303   3.027   0.502   0.422 -1.5542  1.7880 -0.6957
   76SOL     MW  304   2.978   0.557   0.475 -0.7617  0.1312 -0.1318
   77SOL     OW  305   0.820   0.545   0.468  0.3495 -0.0501 -0.4531
   77SOL    HW1  306   0.795   0.563   0.375  0.3384  0.5522 -0.6405
   77SOL    HW2  307   0.772   0.469   0.488 -0.5840  1.4091 -0.3051
   77SOL     MW  308   0.810   0.538   0.458  0.2248  0.2219 -0.4583
   78SOL     OW  309   0.734   0.894   1.285  0.2611  0.1637 -0.3791
   78SOL    HW1  310   0.721   0.991   1.277  1.9540 -0.4570  0.6603
   78SOL    HW2  311   0.721   0.857   1.201  0.7804  0.3509  0.9548
   78SOL     MW  312   0.730   0.902   1.273  0.5530  0.1065 -0.0660
   79SOL     OW  313   1.961   1.696   0.587 -0.1284  0.5124 -0.3765
   79SOL    HW1  314   1.882   1.652   0.548 -0.0381 -0.9212 -1.8992
   79SOL    HW2  315   1.949   1.683   0.684  2.5831  0.9237  1.0306
   79SOL     MW  316   1.949   1.689   0.595  0.2413  0.3775 -0.3918
   80SOL     OW  317   0.084   0.960   0.329 -0.3247  0.5072 -0.1420
   80SOL    HW1  318  -0.010   0.933   0.324  1.6284  0.2169  2.3309
   80SOL    HW2  319   0.132   0.887   0.366  2.0361  0.1028 -0.1167
   80SOL     MW  320   0.078   0.947   0.333  0.2444  0.4155  0.1876
   81SOL     OW  321   1.900   1.881   0.285 -0.1312  0.5381  0.7899
   81SOL    HW1  322   1.853   1.796   0.289  1.6365 -1.2417 -2.1658
   81SOL    HW2  323   1.842   1.944   0.241 -0.0595  3.2422 -1.4479
   81SOL     MW  324   1.886   1.878   0.280  0.1115  0.6600  0.1047
   82SOL     OW  325   0.771   1.023   0.565 -0.4372  0.2895  0.1050
   82SOL    HW1  326   0.791   1.035   0.465  0.4001  0.3116  2.1732
   82SOL    HW2  327   0.752   0.930   0.572  0.3257 -0.0546 -1.0274
   82SOL     MW  328   0.771   1.012   0.553 -0.2261  0.2470  0.2285
   83SOL     OW  329   0.061   0.628   1.452  0.0678  0.1512 -0.1915
   83SOL    HW1  330   0.093   0.701   1.391  0.5991 -0.7638 -0.9361
   83SOL    HW2  331   0.148   0.579   1.462  0.2629 -1.3004  3.7464
   83SOL     MW  332   0.077   0.632   1.445  0.1637 -0.1610  0.2298
   84SOL     OW  333   0.121   0.235   1.031  0.1558  0.3280 -0.1737
   84SOL    HW1  334   0.055   0.303   1.006  0.8493 -1.4347  1.8721
   84SOL    HW2  335   0.075   0.166   1.081  2.3561 -3.5564 -2.5168
   84SOL     MW  336   0.106   0.235   1.034  0.5376 -0.4171 -0.2129
   85SOL     OW  337   0.476   0.431   0.759  0.0654 -0.4023  0.7856
   85SOL    HW1  338   0.412   0.479   0.698 -1.5196  0.1453 -0.2105
   85SOL    HW2  339   0.438   0.345   0.786  0.5593 -0.3267  0.0309
   85SOL     MW  340   0.463   0.426   0.755 -0.0785 -0.3201  0.5546
   86SOL     OW  341   1.174   0.255   1.135  0.1834 -0.1739  0.0431
   86SOL    HW1  342   1.120   0.335   1.118 -0.0404 -0.9508 -0.6361
   86SOL    HW2  343   1.216   0.260   1.218 -1.5569 -0.4267 -0.0007
   86SOL     MW  344   1.172   0.266   1.143 -0.0757 -0.3098 -0.0523
   87SOL     OW  345   1.283   1.478   1.303  0.0260  0.0247 -0.2038
   87SOL    HW1  346   1.281   1.529   1.219 -0.1008  3.0684  0.4489
   87SOL    HW2  347   1.245   1.397   1.275 -2.1826  0.2450 -0.8768
   87SOL     MW  348   1.278   1.474   1.288 -0.2821  0.4553 -0.2065
   88SOL     OW  349   1.185   1.048   0.972  0.0076  0.8810 -0.2367
   88SOL    HW1  350   1.280   1.031   0.959 -1.0117 -0.0977 -1.1033
   88SOL    HW2  351   1.189   1.128   1.020  2.7312 -2.1724 -1.1057
   88SOL     MW  352   1.198   1.057   0.976  0.2324  0.3490 -0.4657
   89SOL     OW  353   1.735   0.721   0.359 -0.4673  0.2163  0.3586
   89SOL    HW1  354   1.739   0.634   0.402 -2.3545  2.0045  0.8392
   89SOL    HW2  355   1.812   0.732   0.299 -1.5144 -0.6239 -2.9485
   89SOL     MW  356   1.746   0.711   0.357 -0.8544  0.3414 -0.0144
   90SOL     OW  357   0.773   1.116   2.724  0.3334 -0.8328 -0.2887
   90SOL    HW1  358   0.803   1.030   2.757  2.8139 -3.5966 -1.0174
   90SOL    HW2  359   0.790   1.179   2.795 -0.5566  2.7508  3.0433
   90SOL     MW  360   0.780   1.113   2.738  0.5432 -0.7247  0.0548
   91SOL     OW  361   2.208   0.668   0.433 -0.3751  0.0439 -0.4097
   91SOL    HW1  362   2.229   0.700   0.348  1.4955  0.3438 -0.1715
   91SOL    HW2  363   2.166   0.583   0.417  0.2596 -1.1662 -2.1028
   91SOL     MW  364   2.205   0.661   0.420 -0.0445 -0.0762 -0.6016
   92SOL     OW  365   1.737   0.912   0.560  0.7438  0.4774 -0.5402
   92SOL    HW1  366   1.645   0.948   0.575  0.9274  0.0228  0.2149
   92SOL    HW2  367   1.742   0.857   0.480 -0.3902  1.6574  0.6014
   92SOL     MW  368   1.726   0.909   0.551  0.6184  0.5731 -0.2900
   93SOL     OW  369   0.977   0.240   0.405 -0.4302  0.0876 -0.0099
   93SOL    HW1  370   0.899   0.292   0.421  0.3733  0.1999  0.7893
   93SOL    HW2  371   0.992   0.241   0.311  0.7049 -0.4002 -0.2080
   93SOL     MW  372   0.969   0.247   0.395 -0.1744  0.0380  0.0694
   94SOL     OW  373   1.827   1.399   1.621  0.1351 -0.4836 -0.6599
   94SOL    HW1  374   1.854   1.408   1.526  2.5605  0.7682 -3.1525
   94SOL    HW2  375   1.783   1.315   1.638 -0.9856 -2.1138 -1.1295
   94SOL     MW  376   1.825   1.389   1.611  0.3073 -0.5335 -1.0507
   95SOL     OW  377   0.771   1.577   0.925  0.6594 -0.1468  0.0830
   95SOL    HW1  378   0.827   1.533   0.988  1.3622 -3.4482 -1.9631
   95SOL    HW2  379   0.685   1.532   0.925  2.7037 -3.3353 -0.8359
   95SOL     MW  380   0.767   1.566   0.934  1.0218 -1.0031 -0.3082
   96SOL     OW  381   1.259   1.870   1.639 -0.7691  0.1191  0.1091
   96SOL    HW1  382   1.184   1.851   1.698  3.0084  0.1738 -1.1823
   96SOL    HW2  383   1.308   1.785   1.643 -3.0410  3.7811  0.7516
   96SOL     MW  384   1.256   1.856   1.647 -0.5704  0.6095  0.0235
   97SOL     OW  385   1.244   1.468   0.760  0.1409  0.1903  0.5304
   97SOL    HW1  386   1.291   1.515   0.828 -1.3127 -1.2679  1.0049
   97SOL    HW2  387   1.148   1.496   0.760 -1.2898 -0.5464 -3.2821
   97SOL     MW  388   1.238   1.478   0.769 -0.2396 -0.0993  0.0900
   98SOL     OW  389   1.411   1.261   1.049 -0.1577 -0.1045  0.3290
   98SOL    HW1  390   1.464   1.280   1.125  0.5417 -1.9541 -3.5555
   98SOL    HW2  391   1.457   1.302   0.974 -0.2263  0.4886  0.8935
   98SOL     MW  392   1.424   1.269   1.049 -0.0745 -0.2703 -0.1091
   99SOL     OW  393   1.332   0.339   1.351 -0.1905  0.4273 -0.0567
   99SOL    HW1  394   1.418   0.370   1.362  0.2623 -3.1527  0.2066
   99SOL    HW2  395   1.302   0.349   1.442  1.2006  0.4329  1.7137
   99SOL     MW  396   1.340   0.344   1.364  0.0528 -0.0443  0.2116
  100SOL     OW  397   0.999   1.171   1.453  0.1068 -0.1937 -0.0525
  100SOL    HW1  398   1.016   1.176   1.547  0.0387 -2.2529 -1.8795
  100SOL    HW2  399   1.067   1.110   1.427  0.4941 -0.7161  0.4766
  100SOL     MW  400   1.010   1.164   1.462  0.1489 -0.5343 -0.2237
  101SOL     OW  401   0.487   1.118   0.363  0.0395  0.2380 -0.3037
  101SOL    HW1  402   0.479   1.022   0.364 -2.4731 -2.0388  0.3578
  101SOL    HW2  403   0.451   1.136   0.274  1.1877 -0.7086 -0.0615
  101SOL     MW  404   0.481   1.108   0.351 -0.1406 -0.1873 -0.1845
  102SOL     OW  405   2.920   0.653   1.059 -0.3710  0.3580 -0.8263
  102SOL    HW1  406   2.974   0.733   1.063  1.2908 -1.4146  2.4042
  102SOL    HW2  407   2.893   0.632   1.147  0.5915  2.6439 -0.1818
  102SOL     MW  408   2.924   0.661   1.071 -0.0248  0.4257 -0.3150
  103SOL     OW  409   1.742   0.297   1.832 -1.4187 -0.4614  0.6468
  103SOL    HW1  410   1.662   0.243   1.807  1.8277  1.1827  0.6786
  103SOL    HW2  411   1.809   0.233   1.860  2.1059 -1.7455  0.4327
  103SOL     MW  412   1.740   0.281   1.832 -0.5253 -0.4139  0.6228
  104SOL     OW  413   0.141   1.596   1.504  0.1129 -0.6153  0.4078
  104SOL    HW1  414   0.118   1.523   1.556 -0.1133 -2.1877  1.6793
  104SOL    HW2  415   0.059   1.615   1.444 -0.6319  1.3296 -0.1210
  104SOL     MW  416   0.127   1.589   1.503 -0.0152 -0.5662  0.5058
  105SOL     OW  417   0.055   1.225   0.428  0.9110  0.2470 -0.0598
  105SOL    HW1  418   0.095   1.143   0.388  0.2731  0.3515 -1.4835
  105SOL    HW2  419   0.132   1.277   0.443 -1.0656 -0.9548  0.2353
  105SOL     MW  420   0.071   1.221   0.425  0.5660  0.1022 -0.2087
  106SOL     OW  421   0.856   0.345   0.979 -0.2199 -0.2434 -0.1376
  106SOL    HW1  422   0.807   0.411   0.929 -0.4305 -0.1494 -0.7515
  106SOL    HW2  423   0.916   0.298   0.918 -0.8395 -0.3849 -0.0090
  106SOL     MW  424   0.857   0.348   0.965 -0.3295 -0.2497 -0.2016
  107SOL     OW  425   0.808   2.181   2.963  0.3920 -0.2876 -1.0234
  107SOL    HW1  426   0.723   2.157   2.920 -1.6701  2.5637  0.3244
  107SOL    HW2  427   0.812   2.143   3.054 -0.7284 -0.1503 -0.1496
  107SOL     MW  428   0.797   2.173   2.969 -0.0279  0.1067 -0.7303
  108SOL     OW  429   1.328   1.615   1.650  0.3991 -0.2946 -0.3385
  108SOL    HW1  430   1.285   1.615   1.569  2.9961  0.2783  3.3280
  108SOL    HW2  431   1.397   1.553   1.629 -2.4153 -1.3691  0.5351
  108SOL     MW  432   1.331   1.607   1.636  0.3704 -0.3608  0.2605
  109SOL     OW  433   1.951   0.784   0.215 -0.1192 -0.3018  0.2020
  109SOL    HW1  434   1.956   0.824   0.131  0.3810 -5.2598 -0.5917
  109SOL    HW2  435   1.990   0.839   0.286 -0.9317  1.6609  0.5407
  109SOL     MW  436   1.957   0.796   0.213 -0.1604 -0.6970  0.1419
  110SOL     OW  437   0.352   1.870   0.675 -0.5307 -0.0745 -0.7358
  110SOL    HW1  438   0.426   1.807   0.670  0.1916 -1.7367  0.7260
  110SOL    HW2  439   0.388   1.946   0.630 -0.1255  0.2284 -0.4666
  110SOL     MW  440   0.367   1.872   0.669 -0.3820 -0.2539 -0.5074
  111SOL     OW  441   0.863   0.910   1.532  0.2699  0.3156 -0.1535
  111SOL    HW1  442   0.810   0.937   1.452 -2.6947 -0.4018 -3.1446
  111SOL    HW2  443   0.844   0.816   1.546  0.9161  1.1026 -0.3015
  111SOL     MW  444   0.854   0.901   1.523 -0.0360  0.3248 -0.5677
  112SOL     OW  445   1.335   1.128   1.623 -0.5157  0.4149  0.1258
  112SOL    HW1  446   1.273   1.201   1.643 -1.2256 -0.8191 -0.5823
  112SOL    HW2  447   1.289   1.043   1.623 -2.0537 -0.6865 -2.8277
  112SOL     MW  448   1.321   1.126   1.626 -0.8123  0.1068 -0.3573
  113SOL     OW  449   1.288   3.093   1.720  0.2454 -0.1187  0.3952
  113SOL    HW1  450   1.289   3.075   1.817 -2.3749 -4.2934  0.9314
  113SOL    HW2  451   1.287   3.004   1.676 -3.7363 -1.0439 -1.0508
  113SOL     MW  452   1.288   3.079   1.727 -0.6257 -0.7916  0.2751
  114SOL     OW  453   0.298   2.877   1.962  0.2764  0.2419  0.1752
  114SOL    HW1  454   0.358   2.955   1.978  3.3379  2.2924 -0.2588
  114SOL    HW2  455   0.286   2.869   1.865  1.1301  1.3573  0.9401
  114SOL     MW  456   0.304   2.886   1.951  0.7929  0.6596  0.2189
  115SOL     OW  457   0.497   0.851   1.105  0.2676 -0.6599 -0.2286
  115SOL    HW1  458   0.523   0.758   1.107 -0.3924  0.5674 -1.4152
  115SOL    HW2  459   0.494   0.877   1.199 -1.6023 -0.6116  2.2654
  115SOL     MW  460   0.500   0.842   1.118 -0.0662 -0.4916 -0.0561
  116SOL     OW  461   0.784   1.094   0.934  0.0642  0.3305  0.7151
  116SOL    HW1  462   0.818   1.150   0.857  0.3323 -1.3127 -2.5472
  116SOL    HW2  463   0.824   1.130   1.015 -3.1945 -0.8493 -0.0920
  116SOL     MW  464   0.794   1.106   0.934 -0.3304 -0.0419  0.1782
  117SOL     OW  465   1.194   1.172   0.733  0.7718 -0.0085 -0.3069
  117SOL    HW1  466   1.189   1.142   0.826  1.7703  0.8191 -0.2373
  117SOL    HW2  467   1.213   1.262   0.736 -0.6957  0.1084 -0.1835
  117SOL     MW  468   1.196   1.180   0.746  0.7099  0.1162 -0.2814
  118SOL     OW  469   3.043   2.976   1.713 -0.3373  0.0866 -0.0308
  118SOL    HW1  470   3.106   3.052   1.717 -0.1085  0.2355  1.3780
  118SOL    HW2  471   2.947   3.008   1.726 -2.1972 -3.6189 -2.0127
  118SOL     MW  472   3.038   2.990   1.715 -0.5525 -0.3827 -0.1064
  119SOL     OW  473   0.437   1.496   1.294  0.7574  0.1019  0.2508
  119SOL    HW1  474   0.469   1.529   1.211 -1.9960  0.3003 -0.5538
  119SOL    HW2  475   0.345   1.474   1.287  0.5551 -0.0018 -1.1734
  119SOL     MW  476   0.429   1.497   1.282  0.3675  0.1144 -0.0432
  120SOL     OW  477   0.262   0.694   1.003  0.4501 -0.0312  0.3330
  120SOL    HW1  478   0.237   0.634   1.075  0.0892 -1.3821  0.6100
  120SOL    HW2  479   0.330   0.749   1.041 -2.5463  0.1339  1.7306
  120SOL     MW  480   0.268   0.694   1.017  0.0071 -0.1877  0.5540
  121SOL     OW  481   1.717   1.166   1.742  0.3549 -0.3931  0.0260
  121SOL    HW1  482   1.631   1.134   1.772 -1.9935 -2.6296  0.3312
  121SOL    HW2  483   1.739   1.106   1.670 -2.0152  2.1007  0.5487
  121SOL     MW  484   1.709   1.154   1.736 -0.2676 -0.3591  0.1352
  122SOL     OW  485   0.123   0.557   0.771 -0.3053 -0.1520  0.1198
  122SOL    HW1  486   0.185   0.527   0.702  0.1088 -2.2025  1.5103
  122SOL    HW2  487   0.172   0.600   0.846 -1.3850  2.2061 -1.4112
  122SOL     MW  488   0.138   0.558   0.772 -0.3931 -0.1114  0.1012
  123SOL     OW  489   1.888   1.146   0.503 -0.4389  0.3258 -0.0947
  123SOL    HW1  490   1.836   1.070   0.533  0.1320 -0.1012  2.0634
  123SOL    HW2  491   1.864   1.220   0.560 -0.8390  1.6321  1.7535
  123SOL     MW  492   1.878   1.146   0.515 -0.4164  0.4418  0.4339
  124SOL     OW  493   0.677   0.553   0.906 -0.0042  0.1180  0.8770
  124SOL    HW1  494   0.600   0.504   0.861 -0.2424 -1.6166 -0.6432
  124SOL    HW2  495   0.675   0.644   0.876 -0.3936  0.3710 -1.4045
  124SOL     MW  496   0.667   0.559   0.896 -0.0870 -0.0775  0.3754
  125SOL     OW  497   0.637   1.788   1.706 -0.5253 -0.0227  0.4615
  125SOL    HW1  498   0.594   1.715   1.657 -0.9863  1.6482  2.1804
  125SOL    HW2  499   0.595   1.876   1.682 -1.7231  2.3283 -2.4014
  125SOL     MW  500   0.626   1.790   1.697 -0.7442  0.5079  0.3105
  126SOL     OW  501   2.066   1.577   1.945 -0.0433 -0.3089 -0.0730
  126SOL    HW1  502   2.104   1.666   1.942  0.8276 -1.1650  1.7254
  126SOL    HW2  503   2.138   1.522   1.976 -1.2745 -0.8083  0.5036
  126SOL     MW  504   2.081   1.581   1.949 -0.0908 -0.4877  0.2403
  127SOL     OW  505   0.663   0.799   1.839 -0.3275 -0.0032 -0.1817
  127SOL    HW1  506   0.711   0.716   1.850 -2.2349  0.8005 -0.0129
  127SOL    HW2  507   0.717   0.865   1.886 -1.1241  0.1896  1.7671
  127SOL     MW  508   0.677   0.796   1.846 -0.6843  0.1283  0.0977
  128SOL     OW  509   1.786   0.729   2.935 -0.1117  0.6331  0.0197
  128SOL    HW1  510   1.784   0.675   2.854 -1.3950  0.2863  0.0311
  128SOL    HW2  511   1.750   0.813   2.901  0.9155 -0.9901 -0.4931
  128SOL     MW  512   1.781   0.733   2.919 -0.1455  0.3732 -0.0465
  129SOL     OW  513   1.587   0.944   0.200 -0.5637 -0.3382  0.5889
  129SOL    HW1  514   1.548   0.858   0.168 -0.3133  1.2680 -1.6593
  129SOL    HW2  515   1.595   0.929   0.294  1.7821 -1.3124  2.4899
  129SOL     MW  516   1.583   0.930   0.208 -0.2211 -0.2548  0.5431
  130SOL     OW  517   0.762   1.378   0.335  0.1897 -0.1776 -0.5099
  130SOL    HW1  518   0.766   1.393   0.433 -0.6723  2.5242  0.9350
  130SOL    HW2  519   0.818   1.443   0.296 -3.3872 -2.0722  3.0186
  130SOL     MW  520   0.770   1.389   0.343 -0.3960 -0.0711  0.1463
  131SOL     OW  521   3.070   0.804   0.012  0.2733 -0.1182  0.2583
  131SOL    HW1  522   3.031   0.801  -0.075  0.5711  1.0758  3.0881
  131SOL    HW2  523   3.145   0.744   0.019 -2.1265 -0.5560 -2.6269
  131SOL     MW  524   3.075   0.796   0.002 -0.0040 -0.0184  0.2510
  132SOL     OW  525   2.686   0.126   1.255 -0.0551  0.3143 -0.0697
  132SOL    HW1  526   2.697   0.113   1.153  0.5735  0.8690 -0.7638
  132SOL    HW2  527   2.593   0.123   1.275  2.2863 -0.2654  0.2705
  132SOL     MW  528   2.675   0.124   1.244  0.3368  0.3110 -0.1164
  133SOL     OW  529   1.042   0.164   1.704  0.2136 -0.7236 -0.5423
  133SOL    HW1  530   1.116   0.105   1.690  2.5213  1.0340 -0.4388
  133SOL    HW2  531   1.048   0.181   1.800 -0.3864  1.5861 -2.2942
  133SOL     MW  532   1.052   0.159   1.714  0.4389 -0.1870 -0.7598
  134SOL     OW  533   1.362   2.533   1.438  0.7104 -0.0168 -0.3538
  134SOL    HW1  534   1.292   2.596   1.433  1.3599  2.1207  0.2961
  134SOL    HW2  535   1.411   2.546   1.523 -2.5796  2.5606  2.0533
  134SOL     MW  536   1.359   2.543   1.449  0.3620  0.6053  0.0496
  135SOL     OW  537   3.007   0.970   2.855 -0.1810 -0.0166 -0.3235
  135SOL    HW1  538   3.079   1.022   2.890 -3.2408  1.6090 -2.3011
  135SOL    HW2  539   2.932   1.033   2.852  0.8492  2.0393  1.2799
  135SOL     MW  540   3.007   0.985   2.859 -0.4488  0.4692 -0.3729
  136SOL     OW  541   0.171   2.033   0.828 -0.2801 -0.1114 -0.1391
  136SOL    HW1  542   0.110   1.958   0.831 -0.7172  0.9486 -0.9044
  136SOL    HW2  543   0.238   2.001   0.768  0.3137 -3.4434 -1.6298
  136SOL     MW  544   0.172   2.019   0.821 -0.2594 -0.4112 -0.4368
  137SOL     OW  545   0.705   2.035   0.507 -0.0634  0.3915  0.7662
  137SOL    HW1  546   0.743   2.033   0.599  2.2085 -1.9190 -0.6382
  137SOL    HW2  547   0.612   2.072   0.528  0.5818  0.1892 -4.3163
  137SOL     MW  548   0.698   2.040   0.522  0.3215  0.0599 -0.0897
  138SOL     OW  549   0.533   0.576   1.126 -0.3643  0.2715  0.0772
  138SOL    HW1  550   0.457   0.524   1.114 -1.1542  0.7915  1.3740
  138SOL    HW2  551   0.584   0.572   1.042 -2.1853  1.8114  0.6388
  138SOL     MW  552   0.530   0.568   1.113 -0.7088  0.5433  0.3224
  139SOL     OW  553   2.778   0.620   1.340 -0.5051  0.2810 -0.5773
  139SOL    HW1  554   2.809   0.528   1.367  3.2759 -0.2089 -1.2471
  139SOL    HW2  555   2.815   0.684   1.396 -1.1157  1.9613 -0.7104
  139SOL     MW  556   2.787   0.617   1.351 -0.0868  0.4381 -0.6833
  140SOL     OW  557   0.857   0.395   2.076  0.6796  0.3596 -0.0926
  140SOL    HW1  558   0.939   0.347   2.057 -1.4714  0.5673  1.8557
  140SOL    HW2  559   0.863   0.408   2.170  0.5205 -2.0028 -1.6102
  140SOL     MW  560   0.868   0.390   2.086  0.3748  0.0753 -0.0358
  141SOL     OW  561   1.067   0.665   1.738  0.1205 -0.0667  0.1519
  141SOL    HW1  562   1.089   0.581   1.698 -0.3469  0.8385 -0.9410
  141SOL    HW2  563   1.143   0.721   1.725 -2.7548  0.2504  2.3550
  141SOL     MW  564   1.080   0.661   1.731 -0.3205  0.0946  0.2984
  142SOL     OW  565   0.921   1.195   0.720 -0.1174 -0.5557 -0.2539
  142SOL    HW1  566   0.878   1.128   0.664  0.5273  1.4920 -2.1168
  142SOL    HW2  567   1.014   1.178   0.699 -0.9726  1.2508  1.8913
  142SOL     MW  568   0.928   1.184   0.710 -0.1452 -0.0472 -0.2167
  143SOL     OW  569   1.812   0.801   1.109  0.6243 -0.6892 -0.2349
  143SOL    HW1  570   1.876   0.797   1.042 -0.3068  0.7488 -2.5526
  143SOL    HW2  571   1.731   0.768   1.067 -1.4181  2.2117 -1.5584
  143SOL     MW  572   1.810   0.796   1.095  0.2320 -0.1167 -0.7154
  144SOL     OW  573   0.265   1.194   1.608  0.1410  0.2524  0.5789
  144SOL    HW1  574   0.361   1.177   1.615  0.4369  0.5201 -0.7311
  144SOL    HW2  575   0.227   1.210   1.694  0.6477  0.5390 -0.0807
  144SOL     MW  576   0.273   1.194   1.620  0.2469  0.3255  0.3190
  145SOL     OW  577   0.224   0.472   1.180 -0.1113  0.4425 -0.5460
  145SOL    HW1  578   0.284   0.443   1.248  4.1166  0.7569  0.9228
  145SOL    HW2  579   0.197   0.400   1.112 -0.1062 -0.5093 -0.2568
  145SOL     MW  580   0.228   0.458   1.180  0.4472  0.3584 -0.3141
  146SOL     OW  581   0.873   1.946   1.350 -0.3038 -0.1606  0.0961
  146SOL    HW1  582   0.929   1.991   1.283 -1.2079  1.4875  1.2143
  146SOL    HW2  583   0.785   1.953   1.315  1.6327  2.4365 -0.9948
  146SOL     MW  584   0.868   1.953   1.337 -0.1676  0.3995  0.0997
  147SOL     OW  585   0.437   0.461   2.938  0.2506  0.0670  0.3712
  147SOL    HW1  586   0.363   0.448   2.998  1.6470  1.0521  1.2834
  147SOL    HW2  587   0.403   0.516   2.865 -0.4582  0.6859  0.0750
  147SOL     MW  588   0.423   0.466   2.936  0.3413  0.2786  0.4525
  148SOL     OW  589   0.149   0.846   1.285  0.3432  0.4990 -0.0990
  148SOL    HW1  590   0.248   0.874   1.286  1.1238 -1.5394  0.2697
  148SOL    HW2  591   0.109   0.909   1.350 -1.5667  1.5192  0.9389
  148SOL     MW  592   0.157   0.858   1.294  0.1942  0.3646  0.0866
  149SOL     OW  593   1.320   1.159   1.328 -0.0439  0.8099 -0.0304
  149SOL    HW1  594   1.315   1.143   1.423  1.0956  1.7279 -0.1359
  149SOL    HW2  595   1.381   1.233   1.321  0.5659  1.2658  0.4933
  149SOL     MW  596   1.328   1.167   1.340  0.1869  0.9912  0.0248
  150SOL     OW  597   1.823   1.331   0.726 -0.2090 -0.4762  0.6928
  150SOL    HW1  598   1.857   1.266   0.782 -0.0303  1.1699  2.2438
  150SOL    HW2  599   1.857   1.410   0.766  0.5058 -1.5077  0.4440
  150SOL     MW  600   1.832   1.333   0.738 -0.0911 -0.3951  0.8646
  151SOL     OW  601   1.656   1.790   0.818 -0.1527  0.0031  0.0221
  151SOL    HW1  602   1.675   1.801   0.723  0.4916 -1.3696  0.6134
  151SOL    HW2  603   1.570   1.741   0.844 -1.3304 -1.5812  1.1933
  151SOL     MW  604   1.647   1.785   0.809 -0.2231 -0.3870  0.2546
  152SOL     OW  605   0.757   1.365   1.498  0.1018  0.1067  0.1718
  152SOL    HW1  606   0.774   1.324   1.580  1.0028  1.7211  1.2113
  152SOL    HW2  607   0.844   1.391   1.473  1.1365 -2.5578 -1.3982
  152SOL     MW  608   0.771   1.363   1.505  0.3572 -0.0318  0.1018
  153SOL     OW  609   2.617   1.215   0.784 -0.2124 -0.1644  0.4934
  153SOL    HW1  610   2.683   1.184   0.711 -1.0512  0.3045  1.2614
  153SOL    HW2  611   2.550   1.140   0.781 -1.7498 -1.0359 -1.7027
  153SOL     MW  612   2.617   1.201   0.774 -0.5259 -0.2175  0.3050
  154SOL     OW  613   0.225   1.809   1.697 -0.1437 -0.2509 -0.1712
  154SOL    HW1  614   0.263   1.771   1.621 -0.8698 -1.7046  3.4562
  154SOL    HW2  615   0.274   1.766   1.765 -1.1190  0.3853  0.2765
  154SOL     MW  616   0.237   1.798   1.696 -0.3682 -0.3588  0.3665
  155SOL     OW  617   1.213   0.694   0.223  0.2534 -0.3200 -1.3156
  155SOL    HW1  618   1.222   0.643   0.305 -0.1616  0.4829  2.6441
  155SOL    HW2  619   1.163   0.774   0.253  0.2766  0.6093  0.4695
  155SOL     MW  620   1.207   0.698   0.238  0.2017 -0.0915 -0.5577
  156SOL     OW  621   1.486   3.076   1.129  0.3535 -0.5208 -0.1434
  156SOL    HW1  622   1.575   3.123   1.138  1.1422 -1.1361  3.9008
  156SOL    HW2  623   1.505   2.985   1.113 -2.7181  0.7926 -0.8249
  156SOL     MW  624   1.500   3.070   1.128  0.0523 -0.4287  0.3003
  157SOL     OW  625   1.450   1.159   0.115 -0.0096  0.4687  0.6307
  157SOL    HW1  626   1.494   1.068   0.134  1.1732 -2.4687 -0.8817
  157SOL    HW2  627   1.525   1.218   0.084  2.1265  0.9598 -1.0781
  157SOL     MW  628   1.465   1.154   0.113  0.4283  0.1459  0.2057
  158SOL     OW  629   0.543   1.656   2.211 -0.0627 -0.2255  0.2739
  158SOL    HW1  630   0.528   1.736   2.160  3.4731  1.7162 -0.0447
  158SOL    HW2  631   0.457   1.641   2.251  2.8868  1.6498 -1.5307
  158SOL     MW  632   0.529   1.665   2.210  0.7930  0.2781 -0.0062
  159SOL     OW  633   1.292   1.676   0.429  0.1368 -0.4001  0.2925
  159SOL    HW1  634   1.254   1.600   0.387  0.3248  0.2365  1.2294
  159SOL    HW2  635   1.230   1.693   0.505 -2.6702  1.0558 -0.9263
  159SOL     MW  636   1.279   1.668   0.434 -0.2088 -0.1240  0.2553
  160SOL     OW  637   0.539   1.141   1.623 -0.1734  0.5306 -0.2521
  160SOL    HW1  638   0.504   1.048   1.641  2.0518  1.1998 -0.1333
  160SOL    HW2  639   0.634   1.134   1.640  1.9763  0.6488  0.7349
  160SOL     MW  640   0.547   1.128   1.628  0.4039  0.6345 -0.1062
  161SOL     OW  641   0.501   2.250   2.562  0.4293  0.3317  0.1298
  161SOL    HW1  642   0.411   2.231   2.538 -1.4231 -0.1690 -2.6411
  161SOL    HW2  643   0.547   2.191   2.500  0.8714 -2.3995 -1.1819
  161SOL     MW  644   0.495   2.240   2.550  0.2432 -0.0947 -0.4089
  162SOL     OW  645   1.053   1.765   1.878 -0.0376  0.7656  0.6700
  162SOL    HW1  646   1.065   1.838   1.940  0.0040  2.7936 -0.6900
  162SOL    HW2  647   0.967   1.722   1.895  0.6790 -2.9747 -1.6432
  162SOL     MW  648   1.043   1.769   1.888  0.0624  0.5397  0.1854
  163SOL     OW  649   2.135   0.018   0.929 -0.7092  0.1344 -0.1427
  163SOL    HW1  650   2.137   0.085   0.855  1.2054  1.2517 -0.2882
  163SOL    HW2  651   2.140  -0.059   0.870 -1.2589  3.3502 -3.1552
  163SOL     MW  652   2.136   0.017   0.911 -0.5291  0.7061 -0.5594
  164SOL     OW  653   0.347   0.196   0.852 -0.2732  0.4219 -0.3621
  164SOL    HW1  654   0.257   0.195   0.894 -2.3162  1.2735  0.0452
  164SOL    HW2  655   0.351   0.120   0.796 -0.8310  0.7238  2.0623
  164SOL     MW  656   0.336   0.186   0.850 -0.6163  0.5741  0.0115
  165SOL     OW  657   1.346   1.263   0.354  0.1838  0.2986  0.1666
  165SOL    HW1  658   1.316   1.191   0.412 -0.5212 -0.1562  2.1594
  165SOL    HW2  659   1.384   1.227   0.268  1.8317  1.3992 -1.3004
  165SOL     MW  660   1.347   1.249   0.350  0.3082  0.3838  0.2360
  166SOL     OW  661   0.527   1.181   1.024 -0.0597  0.2974 -0.5623
  166SOL    HW1  662   0.510   1.134   1.109  0.4064  1.2345  1.9605
  166SOL    HW2  663   0.606   1.150   0.977 -0.5553  2.5086 -3.7723
  166SOL     MW  664   0.535   1.171   1.029 -0.0636  0.7128 -0.6529
  167SOL     OW  665   0.800   1.019   0.282  0.1172  0.3585  0.7437
  167SOL    HW1  666   0.732   1.081   0.251 -4.1020  2.4583 -1.1107
  167SOL    HW2  667   0.871   1.045   0.221  1.3464 -1.6743 -3.1339
  167SOL     MW  668   0.800   1.030   0.270 -0.2773  0.3673 -0.0126
  168SOL     OW  669   1.698   1.645   3.045 -0.6154  0.1117  0.1966
  168SOL    HW1  670   1.615   1.688   3.030  1.0693  0.0687 -0.7402
  168SOL    HW2  671   1.697   1.564   3.005  0.7962  2.2628  2.3268
  168SOL     MW  672   1.687   1.640   3.038 -0.2069  0.3898  0.3540
  169SOL     OW  673   0.405   0.939   1.352 -0.2967  0.5708  0.4570
  169SOL    HW1  674   0.427   0.895   1.431  0.2927  0.6818 -3.8646
  169SOL    HW2  675   0.445   1.024   1.344 -0.3203 -0.4688 -0.6196
  169SOL     MW  676   0.413   0.945   1.361 -0.2220  0.4483 -0.2552
  170SOL     OW  677   1.030   1.500   1.520 -0.0285  0.5553  0.2102
  170SOL    HW1  678   0.987   1.589   1.523 -1.8811  0.0468  1.3838
  170SOL    HW2  679   1.101   1.507   1.451  1.8309  1.5890 -0.4944
  170SOL     MW  680   1.034   1.513   1.512 -0.0276  0.6246  0.2721
  171SOL     OW  681   0.512   1.457   0.634 -0.5960  0.0702 -0.1471
  171SOL    HW1  682   0.489   1.427   0.726  0.1418 -3.3374  1.5785
  171SOL    HW2  683   0.547   1.369   0.598  0.3982 -0.7306  1.5581
  171SOL     MW  684   0.514   1.442   0.641 -0.3675 -0.4851  0.3055
  172SOL     OW  685   0.854   0.340   1.253  0.5414  0.3876 -0.2732
  172SOL    HW1  686   0.815   0.350   1.164 -0.0915 -0.5301 -2.5547
  172SOL    HW2  687   0.774   0.370   1.303  2.4897  1.9116 -0.2445
  172SOL     MW  688   0.838   0.345   1.248  0.7150  0.4676 -0.5705
  173SOL     OW  689   0.428   1.704   0.383 -0.1958 -0.4915 -0.1979
  173SOL    HW1  690   0.474   1.624   0.351  0.4016  0.6973 -2.1515
  173SOL    HW2  691   0.483   1.731   0.462  1.6370 -3.0599  0.6606
  173SOL     MW  692   0.442   1.697   0.390  0.1248 -0.6736 -0.3424
  174SOL     OW  693   1.817   0.986   1.550  0.1641 -0.3184 -0.3347
  174SOL    HW1  694   1.802   0.890   1.571  0.9222 -2.2096 -1.0917
  174SOL    HW2  695   1.810   0.987   1.454 -2.2723 -1.0188  1.6892
  174SOL     MW  696   1.814   0.973   1.540 -0.0574 -0.6604 -0.1676
  175SOL     OW  697   0.514   1.483   0.254 -0.5367  0.2541 -0.1474
  175SOL    HW1  698   0.456   1.425   0.214  1.8737 -0.3497  0.4383
  175SOL    HW2  699   0.593   1.431   0.275 -1.2157  0.2172  0.5312
  175SOL     MW  700   0.517   1.468   0.251 -0.3082  0.1696  0.0194
  176SOL     OW  701   0.175   1.488   1.219  0.2864  0.3265 -0.3690
  176SOL    HW1  702   0.151   1.416   1.162  0.7709 -0.0829 -1.1203
  176SOL    HW2  703   0.097   1.493   1.285  0.4753  0.4694 -3.9308
  176SOL     MW  704   0.161   1.479   1.220  0.3752  0.2913 -0.9380
  177SOL     OW  705   0.648   0.443   1.390  0.2856  0.6817  0.7467
  177SOL    HW1  706   0.613   0.489   1.311  0.7550  0.7319  0.3770
  177SOL    HW2  707   0.608   0.487   1.467  1.5992 -1.9844 -0.5347
  177SOL     MW  708   0.638   0.455   1.390  0.5209  0.3366  0.5289
  178SOL     OW  709   3.065   0.517   2.950 -0.7228  0.8278 -0.2875
  178SOL    HW1  710   3.005   0.530   3.026 -0.3395  2.7560 -1.8067
  178SOL    HW2  711   2.998   0.508   2.878  0.8517 -2.3061  0.0847
  178SOL     MW  712   3.048   0.517   2.951 -0.4645  0.6687 -0.4388
  179SOL     OW  713   1.590   1.327   1.338  0.1478 -0.3132 -0.7172
  179SOL    HW1  714   1.566   1.358   1.429  0.2847  1.4727 -1.0557
  179SOL    HW2  715   1.686   1.341   1.326 -1.2380 -0.2118 -0.5223
  179SOL     MW  716   1.599   1.333   1.349 -0.0169 -0.0642 -0.7361
  180SOL     OW  717   3.030   0.197   0.422 -0.4441 -0.1467 -0.4949
  180SOL    HW1  718   2.963   0.218   0.350 -1.2541  1.8034  1.4640
  180SOL    HW2  719   3.103   0.260   0.407  0.7382 -0.4221  2.2633
  180SOL     MW  720   3.031   0.208   0.410 -0.3950  0.0743  0.1274
  181SOL     OW  721   1.110   1.308   3.090 -0.0641  0.0137  0.0649
  181SOL    HW1  722   1.153   1.342   3.162 -0.5911  0.3885  1.4892
  181SOL    HW2  723   1.176   1.252   3.043 -1.7469 -0.5850 -0.3476
  181SOL     MW  724   1.124   1.305   3.093 -0.3556 -0.0158  0.1984
  182SOL     OW  725   0.455   0.881   1.621 -0.1100 -0.7205 -0.7277
  182SOL    HW1  726   0.361   0.863   1.649  0.9686  1.3573 -0.0566
  182SOL    HW2  727   0.501   0.813   1.677 -3.0656 -1.9255  1.5790
  182SOL     MW  728   0.449   0.869   1.632 -0.3577 -0.6053 -0.3348
  183SOL     OW  729   1.588   1.528   1.134  0.0259  0.3351  0.1443
  183SOL    HW1  730   1.588   1.606   1.191  1.4462  1.0895 -0.6899
  183SOL    HW2  731   1.603   1.455   1.197 -0.6555  1.7983 -0.1641
  183SOL     MW  732   1.590   1.528   1.150  0.1234  0.6277 -0.0065
  184SOL     OW  733   0.875   0.655   1.954 -0.9650  0.4352  0.0301
  184SOL    HW1  734   0.931   0.669   1.877 -0.8698  1.0687 -2.1804
  184SOL    HW2  735   0.887   0.561   1.976 -0.8857  0.8821  0.7454
  184SOL     MW  736   0.884   0.644   1.947 -0.9420  0.5778 -0.1672
  185SOL     OW  737   1.220   0.999   1.934 -0.4641 -0.3832  0.0475
  185SOL    HW1  738   1.215   0.909   1.967 -0.9153 -0.6983  1.9971
  185SOL    HW2  739   1.254   1.056   1.998 -1.4939 -2.4208 -0.5022
  185SOL     MW  740   1.224   0.995   1.946 -0.6595 -0.6936  0.2322
  186SOL     OW  741   0.384   1.708   1.442 -0.3271  0.3603 -0.0930
  186SOL    HW1  742   0.428   1.664   1.368  1.4790  0.7927 -1.5198
  186SOL    HW2  743   0.292   1.673   1.447 -0.1603  0.0273  0.5439
  186SOL     MW  744   0.377   1.697   1.433 -0.0668  0.3734 -0.1972
  187SOL     OW  745   1.441   0.691   1.383  0.3264 -0.3927 -0.4515
  187SOL    HW1  746   1.420   0.678   1.475  0.4042  3.1088  0.1287
  187SOL    HW2  747   1.359   0.685   1.336  1.4480 -0.3304  0.2224
  187SOL     MW  748   1.427   0.688   1.389  0.4846  0.0775 -0.2860
  188SOL     OW  749   1.901   1.157   0.936 -0.0629  0.1779 -0.0487
  188SOL    HW1  750   1.929   1.155   1.034 -2.1174 -1.6516  0.4080
  188SOL    HW2  751   1.912   1.065   0.902 -1.2758 -1.3171  1.1699
  188SOL     MW  752   1.906   1.144   0.944 -0.4940 -0.2608  0.1723
  189SOL     OW  753   0.660   0.812   0.826  0.2713  0.0937 -0.5476
  189SOL    HW1  754   0.569   0.832   0.851 -2.9695 -0.4233 -0.8062
  189SOL    HW2  755   0.713   0.892   0.844  0.4436 -0.8627  0.3580
  189SOL     MW  756   0.655   0.825   0.832 -0.1336 -0.1007 -0.4622
  190SOL     OW  757   1.896   0.236   2.143  0.2181 -0.9401  0.3640
  190SOL    HW1  758   1.925   0.206   2.228 -0.1255  0.8539  2.4499
  190SOL    HW2  759   1.957   0.305   2.115  1.1419 -1.3480 -0.0345
  190SOL     MW  760   1.908   0.241   2.151  0.2947 -0.7572  0.5866
  191SOL     OW  761   1.494   0.939   1.236 -0.6779  0.0412  0.1258
  191SOL    HW1  762   1.417   0.998   1.254  0.0998  0.9381 -1.9466
  191SOL    HW2  763   1.501   0.880   1.311 -1.1063  1.8806 -0.7550
  191SOL     MW  764   1.484   0.939   1.248 -0.6318  0.4023 -0.2639
  192SOL     OW  765   0.617   2.123   2.793  0.2763  0.3727 -0.0632
  192SOL    HW1  766   0.555   2.152   2.730  0.8326  4.5406 -0.6867
  192SOL    HW2  767   0.616   2.025   2.792 -0.3737 -2.3199 -1.1557
  192SOL     MW  768   0.609   2.114   2.784  0.2639  0.5673 -0.2896
  193SOL     OW  769   0.996   1.559   0.731 -0.2392  0.1057  0.4635
  193SOL    HW1  770   0.936   1.588   0.804  0.8484 -3.4003 -1.6494
  193SOL    HW2  771   0.935   1.525   0.659  1.4023 -0.4836 -3.1673
  193SOL     MW  772   0.980   1.559   0.731  0.1208 -0.4346 -0.2943
  194SOL     OW  773   0.511   1.448   0.931  0.0881  0.2287 -0.0699
  194SOL    HW1  774   0.519   1.353   0.955  0.7112 -0.3672 -0.3774
  194SOL    HW2  775   0.417   1.454   0.908  1.6985 -0.5757 -1.0910
  194SOL     MW  776   0.500   1.436   0.931  0.3828  0.0440 -0.2452
  195SOL     OW  777   1.299   1.126   2.981  0.3264  0.3172 -0.3242
  195SOL    HW1  778   1.357   1.145   3.055 -2.5712  0.8354  2.5886
  195SOL    HW2  779   1.263   1.038   2.998 -2.9616 -0.9749  1.5360
  195SOL     MW  780   1.302   1.117   2.993 -0.4897  0.2151  0.3055
  196SOL     OW  781   2.209   1.009   0.587  0.0283  0.4353  0.3635
  196SOL    HW1  782   2.183   0.979   0.496  1.0991 -0.3378  2.2901
  196SOL    HW2  783   2.183   1.103   0.594  0.7606  2.5445  0.2523
  196SOL     MW  784   2.202   1.018   0.576  0.2662  0.6116  0.6031
  197SOL     OW  785   0.646   1.218   2.092 -0.0955 -0.1185  0.0029
  197SOL    HW1  786   0.606   1.138   2.073  0.6355 -0.0821 -0.3622
  197SOL    HW2  787   0.625   1.289   2.031 -0.2370  4.4648  1.9384
  197SOL     MW  788   0.638   1.217   2.081 -0.0177  0.4910  0.2101
  198SOL     OW  789   2.958   1.370   1.089 -0.6049  0.0582  0.0507
  198SOL    HW1  790   2.921   1.449   1.051 -2.6212 -1.2280 -2.6023
  198SOL    HW2  791   2.882   1.317   1.075  0.7917  2.3953 -0.0652
  198SOL     MW  792   2.943   1.374   1.082 -0.6867  0.1968 -0.3147
  199SOL     OW  793   0.542   1.410   1.889 -0.3953  0.2138 -0.1739
  199SOL    HW1  794   0.454   1.388   1.878  1.4095  0.0998 -1.3709
  199SOL    HW2  795   0.586   1.353   1.822 -0.8964  0.6615 -1.5785
  199SOL     MW  796   0.536   1.399   1.879 -0.2233  0.2578 -0.5172
  200SOL     OW  797   1.869   2.998   1.316  0.2510 -0.4151  0.0340
  200SOL    HW1  798   1.854   2.968   1.228 -3.1838  0.2874  2.4896
  200SOL    HW2  799   1.794   3.049   1.335  1.4467 -1.9549  0.0326
  200SOL     MW  800   1.857   3.000   1.307 -0.0444 -0.5256  0.3578
  201SOL     OW  801   1.039   0.204   0.845  0.1990  0.3044 -0.1849
  201SOL    HW1  802   0.998   0.175   0.761  0.8593 -1.0814 -1.3968
  201SOL    HW2  803   1.114   0.255   0.813  4.1132  1.7743 -0.2146
  201SOL     MW  804   1.043   0.207   0.830  0.8026  0.3155 -0.3488
  202SOL     OW  805   1.507   1.568   0.875 -0.1788 -0.0277 -0.1574
  202SOL    HW1  806   1.513   1.486   0.822 -0.5319  1.2270 -1.9315
  202SOL    HW2  807   1.530   1.551   0.965  0.2128 -1.5339 -0.2576
  202SOL     MW  808   1.511   1.555   0.880 -0.1737 -0.0609 -0.4047
  203SOL     OW  809   3.056   0.435   1.294 -1.2351 -0.3350  0.3639
  203SOL    HW1  810   3.139   0.381   1.294  2.1268 -2.9443  1.9932
  203SOL    HW2  811   3.090   0.507   1.350  1.8784 -1.4224 -0.2046
  203SOL     MW  812   3.072   0.438   1.301 -0.3807 -0.8228  0.5039
  204SOL     OW  813   1.047   1.746   0.542 -0.3400  0.3099  0.2876
  204SOL    HW1  814   1.028   1.687   0.622  2.2779 -0.9974  2.8320
  204SOL    HW2  815   0.964   1.738   0.489  0.5851 -1.5046 -3.4200
  204SOL     MW  816   1.033   1.737   0.546  0.1275 -0.1020  0.1341
  205SOL     OW  817   1.373   0.061   1.356  0.4067 -0.5238  0.2985
  205SOL    HW1  818   1.374   0.029   1.265  1.3529 -1.2544 -2.0039
  205SOL    HW2  819   1.345   0.153   1.356  1.2621 -0.4790 -0.0671
  205SOL     MW  820   1.369   0.069   1.344  0.6444 -0.6142 -0.0535
  206SOL     OW  821   0.412   3.003   1.419 -0.1506  0.0571 -0.2203
  206SOL    HW1  822   0.369   3.020   1.327 -0.3082  1.2263  0.6187
  206SOL    HW2  823   0.496   2.955   1.401 -0.0534 -3.6448  1.4959
  206SOL     MW  824   0.417   2.999   1.404 -0.1586 -0.2771  0.1168
  207SOL     OW  825   0.908   1.563   0.186 -0.0570  1.0285 -0.1277
  207SOL    HW1  826   0.932   1.655   0.157  0.1259  0.0134 -0.9252
  207SOL    HW2  827   0.985   1.509   0.164  0.8754 -1.3670  0.3357
  207SOL     MW  828   0.921   1.568   0.179  0.0902  0.5785 -0.1718
  208SOL     OW  829   0.688   1.671   1.372  0.1512 -0.2181 -0.1906
  208SOL    HW1  830   0.747   1.716   1.433 -0.0070 -1.0532 -0.5389
  208SOL    HW2  831   0.712   1.577   1.369  1.8856 -0.3199 -0.6035
  208SOL     MW  832   0.699   1.665   1.379  0.3592 -0.3417 -0.2911
  209SOL     OW  833   1.537   0.496   3.002  0.1348  0.1382 -0.1778
  209SOL    HW1  834   1.574   0.573   3.037 -0.5906 -2.7737  2.4667
  209SOL    HW2  835   1.594   0.457   2.939 -1.0762  1.1343 -2.9186
  209SOL     MW  836   1.549   0.501   2.998 -0.1207 -0.1146 -0.1905
  210SOL     OW  837   1.545   1.272   0.792 -0.4470 -0.4431 -0.2773
  210SOL    HW1  838   1.642   1.270   0.802 -2.1895 -0.2134 -0.6949
  210SOL    HW2  839   1.534   1.308   0.701  1.8640  2.7501 -0.6559
  210SOL     MW  840   1.556   1.276   0.781 -0.3720  0.0085 -0.3824
  211SOL     OW  841   1.680   0.323   0.931  0.3771 -0.4384 -0.4458
  211SOL    HW1  842   1.664   0.370   0.846  0.4842 -0.3028 -2.0502
  211SOL    HW2  843   1.773   0.330   0.959  1.8966 -1.8173  0.4490
  211SOL     MW  844   1.690   0.330   0.924  0.5917 -0.6025 -0.5394
  212SOL     OW  845   0.266   1.027   0.131  0.8457  0.3812  0.4665
  212SOL    HW1  846   0.196   1.014   0.193 -0.1598  2.0079 -1.8687
  212SOL    HW2  847   0.287   0.938   0.094 -1.9474 -1.5602  2.1951
  212SOL     MW  848   0.259   1.013   0.134  0.3445  0.3397  0.3865
  213SOL     OW  849   0.533   1.700   3.047  0.1767 -0.3246  0.6416
  213SOL    HW1  850   0.548   1.780   3.100 -0.0391 -2.4782  0.3959
  213SOL    HW2  851   0.551   1.737   2.960 -2.6027  0.1202 -0.5313
  213SOL     MW  852   0.537   1.715   3.043 -0.2185 -0.5501  0.4545
  214SOL     OW  853   0.615   0.303   2.201  0.2816  0.1105 -0.7584
  214SOL    HW1  854   0.543   0.370   2.194  3.2027 -0.0770 -2.4546
  214SOL    HW2  855   0.674   0.340   2.140 -0.5362 -1.5819 -0.0802
  214SOL     MW  856   0.613   0.316   2.192  0.5591 -0.1375 -0.8927
  215SOL     OW  857   0.503   0.714   2.666 -0.3590 -0.1689 -0.2636
  215SOL    HW1  858   0.536   0.682   2.579  5.7919  1.7714  0.2198
  215SOL    HW2  859   0.420   0.673   2.684 -1.2942  3.2596 -1.0763
  215SOL     MW  860   0.496   0.704   2.657  0.3292  0.5394 -0.3071
  216SOL     OW  861   2.913   3.036   2.661 -0.0121  0.1869  0.4221
  216SOL    HW1  862   2.881   3.052   2.746 -1.0145 -2.3955 -2.1438
  216SOL    HW2  863   2.937   3.124   2.630  0.2411 -2.3376 -3.4239
  216SOL     MW  864   2.912   3.050   2.668 -0.1109 -0.4869 -0.4239
  217SOL     OW  865   0.991   1.091   0.095  0.3052 -0.0536  0.5302
  217SOL    HW1  866   1.030   1.014   0.057 -1.4798  0.9663  2.0006
  217SOL    HW2  867   1.051   1.163   0.065  2.5005  1.2684  2.4782
  217SOL     MW  868   1.004   1.091   0.086  0.3594  0.2554  0.9812
  218SOL     OW  869   0.963   1.308   2.557 -0.1733 -0.0601  0.0651
  218SOL    HW1  870   0.994   1.222   2.592  0.1908 -1.6294  1.7061
  218SOL    HW2  871   1.045   1.357   2.549 -0.1149  1.3470  1.4002
  218SOL     MW  872   0.978   1.303   2.560 -0.1176 -0.0815  0.4578
  219SOL     OW  873   1.146   0.435   2.644  0.0464 -0.1059  0.1230
  219SOL    HW1  874   1.198   0.501   2.694  0.7116 -0.3622 -0.7636
  219SOL    HW2  875   1.072   0.480   2.599 -2.1418  0.5495 -2.0866
  219SOL     MW  876   1.143   0.449   2.645 -0.1546 -0.0532 -0.2855
  220SOL     OW  877   1.766   0.488   2.226  0.7599  0.4688  0.0176
  220SOL    HW1  878   1.683   0.516   2.178 -2.6820  1.4170 -1.7374
  220SOL    HW2  879   1.784   0.399   2.184  1.6124 -0.5881 -2.0507
  220SOL     MW  880   1.757   0.480   2.214  0.4183  0.4545 -0.4868
  221SOL     OW  881   0.399   1.322   2.971 -0.0503 -0.5773  0.3258
  221SOL    HW1  882   0.447   1.250   2.922 -3.7839 -0.4634  1.8846
  221SOL    HW2  883   0.428   1.400   2.926  1.6076  1.2752  2.3159
  221SOL     MW  884   0.409   1.323   2.959 -0.3241 -0.3178  0.7940
  222SOL     OW  885   0.357   0.944   2.676 -0.4510  0.1031 -0.1909
  222SOL    HW1  886   0.319   0.971   2.597  0.2487 -0.7596 -0.6335
  222SOL    HW2  887   0.410   0.867   2.655 -0.4271 -1.4394  0.7603
  222SOL     MW  888   0.359   0.938   2.663 -0.3555 -0.2142 -0.1238
  223SOL     OW  889   0.012   2.022   2.515  0.3306 -0.0224 -0.0520
  223SOL    HW1  890   0.090   1.983   2.555  1.3178 -0.1641 -0.6755
  223SOL    HW2  891   0.030   2.115   2.515 -2.7914 -0.6304 -0.7959
  223SOL     MW  892   0.025   2.029   2.520  0.0489 -0.1213 -0.2324
  224SOL     OW  893   1.503   0.777   2.602 -0.0192 -0.7788 -0.4511
  224SOL    HW1  894   1.539   0.811   2.679  0.7180 -1.2248  0.3529
  224SOL    HW2  895   1.474   0.855   2.539 -0.1362  0.7769 -3.0812
  224SOL     MW  896   1.504   0.792   2.604  0.0626 -0.6324 -0.6920
  225SOL     OW  897   2.911   1.446   2.276  0.2887  0.0208 -0.6145
  225SOL    HW1  898   2.951   1.506   2.220 -1.6255  0.4725  0.1157
  225SOL    HW2  899   2.855   1.495   2.336  0.4594  0.3340  0.3388
  225SOL     MW  900   2.909   1.460   2.276  0.0587  0.1217 -0.3923
  226SOL     OW  901   0.461   1.487   2.697 -0.3095  0.1083 -0.0255
  226SOL    HW1  902   0.550   1.465   2.662 -0.6389 -2.5646  2.7936
  226SOL    HW2  903   0.453   1.581   2.678 -0.2235  1.7291 -0.3943
  226SOL     MW  904   0.472   1.496   2.690 -0.3416 -0.0305  0.2978
  227SOL     OW  905   0.506   1.114   2.833  0.8833  0.5557  0.3541
  227SOL    HW1  906   0.592   1.127   2.784 -0.0216  2.3307 -3.0572
  227SOL    HW2  907   0.452   1.047   2.785  0.3065 -0.1826  1.2226
  227SOL     MW  908   0.510   1.107   2.820  0.6878  0.6925  0.0186
  228SOL     OW  909   0.732   0.965   2.047  0.4372  0.1630 -0.5474
  228SOL    HW1  910   0.823   0.989   2.028  0.2247  0.4324  1.3716
  228SOL    HW2  911   0.726   0.910   2.126  0.4565 -1.3142  0.7236
  228SOL     MW  912   0.743   0.961   2.055  0.4117  0.0037 -0.1265
  229SOL     OW  913   0.159   0.616   3.099  0.3018 -0.3996 -0.2347
  229SOL    HW1  914   0.118   0.586   3.018  0.8087  1.1880  0.2419
  229SOL    HW2  915   0.193   0.540   3.145 -0.4907  0.5471  0.5964
  229SOL     MW  916   0.158   0.602   3.095  0.2642 -0.0652 -0.0622
  230SOL     OW  917   1.688   1.349   2.049  0.0017 -0.0384  0.1238
  230SOL    HW1  918   1.632   1.318   2.121  0.2060 -0.7175 -0.4630
  230SOL    HW2  919   1.712   1.272   2.001  0.4332 -1.1953  1.6070
  230SOL     MW  920   1.683   1.335   2.052  0.0856 -0.2807  0.2421
  231SOL     OW  921   2.718   1.253   2.200 -0.0727  0.2036  0.8631
  231SOL    HW1  922   2.793   1.304   2.239 -1.9681 -3.4347 -3.6290
  231SOL    HW2  923   2.669   1.296   2.125 -2.7885 -1.0083 -0.9718
  231SOL     MW  924   2.721   1.266   2.195 -0.6811 -0.4364  0.0283
  232SOL     OW  925   2.270   0.831   2.007 -0.5897 -0.1595 -0.0435
  232SOL    HW1  926   2.203   0.861   1.942 -2.2925 -4.7899 -2.6334
  232SOL    HW2  927   2.227   0.836   2.091 -2.0848  1.7160  1.3047
  232SOL     MW  928   2.256   0.835   2.010 -1.0116 -0.5230 -0.2073
  233SOL     OW  929   2.040   0.446   2.050  0.2652  0.2980  0.2317
  233SOL    HW1  930   2.125   0.427   2.006  1.7381 -1.1023  0.9925
  233SOL    HW2  931   2.055   0.498   2.128 -1.9064 -0.6017  0.6213
  233SOL     MW  932   2.054   0.450   2.055  0.1730 -0.0055  0.3835
  234SOL     OW  933   0.268   1.067   2.412 -0.8790 -0.0353  0.1733
  234SOL    HW1  934   0.173   1.070   2.407  2.0901 -0.5891 -0.4742
  234SOL    HW2  935   0.286   1.147   2.462 -2.0390  0.4318  0.1451
  234SOL     MW  936   0.258   1.078   2.418 -0.6403 -0.0468  0.0841
  235SOL     OW  937   1.123   3.058   2.730  0.1389  0.2186  0.1195
  235SOL    HW1  938   1.145   2.991   2.796 -0.9717  1.0818  1.8273
  235SOL    HW2  939   1.072   3.122   2.777 -0.5157  0.5932 -0.4154
  235SOL     MW  940   1.119   3.058   2.745 -0.0940  0.3819  0.2742
  236SOL     OW  941   2.940   0.561   0.104  0.1252 -0.3465  0.8993
  236SOL    HW1  942   2.865   0.619   0.124  1.4295 -2.1824  0.0274
  236SOL    HW2  943   3.014   0.621   0.121  0.9771  0.8158  2.4901
  236SOL     MW  944   2.940   0.577   0.109  0.4097 -0.4354  0.9941
  237SOL     OW  945   2.013   1.117   2.190 -0.3135  0.2123 -0.0854
  237SOL    HW1  946   1.923   1.108   2.154 -1.7136 -0.5544 -0.0442
  237SOL    HW2  947   2.045   1.028   2.180 -0.4927 -1.6104  1.3255
  237SOL     MW  948   2.006   1.104   2.184 -0.5219 -0.1293  0.1062
  238SOL     OW  949   1.063   1.842   3.006  0.4210 -0.0407  0.5624
  238SOL    HW1  950   1.028   1.755   2.980  3.5817 -0.1892  0.0961
  238SOL    HW2  951   1.152   1.821   2.998 -1.4293  2.5957 -0.6081
  238SOL     MW  952   1.070   1.828   3.002  0.5939  0.2875  0.3464
  239SOL     OW  953   1.274   1.366   2.367  0.3220  0.1430  0.8703
  239SOL    HW1  954   1.246   1.423   2.441 -1.6783  2.9813 -0.3087
  239SOL    HW2  955   1.300   1.289   2.414 -0.6378  0.9461 -0.4926
  239SOL     MW  956   1.274   1.363   2.383 -0.0685  0.6235  0.5349
  240SOL     OW  957   0.715   0.823   2.272  0.6956  0.1377  0.6095
  240SOL    HW1  958   0.728   0.904   2.316 -1.3679  1.3618 -1.4826
  240SOL    HW2  959   0.801   0.790   2.240  0.0735  1.3829 -1.8858
  240SOL     MW  960   0.728   0.830   2.274  0.3413  0.4635  0.0042
  241SOL     OW  961   0.659   0.378   0.030  0.3117  0.3741  0.3450
  241SOL    HW1  962   0.707   0.454   0.062  1.0724 -0.2820 -2.8719
  241SOL    HW2  963   0.574   0.413  -0.007  0.4341  1.6664 -0.0659
  241SOL     MW  964   0.654   0.393   0.029  0.4282  0.4580 -0.1337
  242SOL     OW  965   1.515   1.696   2.336  0.0722  0.6298  0.3067
  242SOL    HW1  966   1.486   1.787   2.358 -0.5781  0.9107  1.9878
  242SOL    HW2  967   1.456   1.647   2.278  2.7030 -1.0036 -1.9988
  242SOL     MW  968   1.504   1.701   2.331  0.3335  0.4513  0.2243
  243SOL     OW  969   1.046   0.216   2.510 -0.0548 -0.1507  0.2400
  243SOL    HW1  970   1.112   0.198   2.439 -0.0965 -0.1797 -2.6264
  243SOL    HW2  971   1.089   0.272   2.573  0.3403  2.8640 -0.5407
  243SOL     MW  972   1.060   0.221   2.509 -0.0082  0.2433 -0.2412
  244SOL     OW  973   0.266   0.785   2.435 -0.2603 -0.2754 -0.1768
  244SOL    HW1  974   0.266   0.873   2.400  0.7122  0.6657  0.4376
  244SOL    HW2  975   0.356   0.753   2.413  0.7824 -1.9457  2.5083
  244SOL     MW  976   0.278   0.793   2.427  0.0056 -0.3716  0.2585
  245SOL     OW  977   1.250   0.209   2.306  0.3645 -0.4016 -0.1299
  245SOL    HW1  978   1.292   0.127   2.315  1.9148  2.0924  0.7678
  245SOL    HW2  979   1.295   0.262   2.367 -0.4915  0.7312 -1.5721
  245SOL     MW  980   1.261   0.205   2.315  0.4561  0.0769 -0.2017
  246SOL     OW  981   1.238   1.205   2.148  0.0662 -0.5245 -0.5470
  246SOL    HW1  982   1.189   1.133   2.204 -0.8162  0.3746 -3.0394
  246SOL    HW2  983   1.285   1.257   2.206  1.5722  1.1415 -0.8142
  246SOL     MW  984   1.238   1.202   2.163  0.1485 -0.1860 -0.9111
  247SOL     OW  985   0.764   0.583   0.202  0.3871 -0.0143 -0.0211
  247SOL    HW1  986   0.715   0.661   0.187 -0.6971 -1.6077  2.9282
  247SOL    HW2  987   0.854   0.593   0.159  2.4104 -0.4353  2.7912
  247SOL     MW  988   0.769   0.595   0.194  0.5110 -0.2801  0.7391
  248SOL     OW  989   0.324   1.365   2.507  0.0736  0.0582  0.4496
  248SOL    HW1  990   0.390   1.374   2.435  0.0142  0.7733  0.6061
  248SOL    HW2  991   0.369   1.402   2.588 -1.9435  0.2923  1.1887
  248SOL     MW  992   0.339   1.371   2.508 -0.2004  0.1834  0.5678
  249SOL     OW  993   0.179   1.907   2.729 -0.2850 -0.1666  0.2883
  249SOL    HW1  994   0.128   1.830   2.712  4.3723  0.9464  0.7380
  249SOL    HW2  995   0.222   1.888   2.816  1.5561 -1.5101 -2.8635
  249SOL     MW  996   0.178   1.894   2.738  0.5724 -0.1970 -0.0682
  250SOL     OW  997   2.174   0.903   2.273  0.4210  0.4617 -0.1509
  250SOL    HW1  998   2.241   0.825   2.294 -3.4851 -0.9921 -0.7544
  250SOL    HW2  999   2.221   0.981   2.306  1.8807 -0.2254  1.0038
  250SOL     MW 1000   2.189   0.903   2.280  0.0982  0.1793 -0.0782
  251SOL     OW 1001   0.139   0.865   1.982  0.1197 -0.0642 -0.2365
  251SOL    HW1 1002   0.179   0.806   2.038 -0.7943  3.1778 -1.8520
  251SOL    HW2 1003   0.134   0.828   1.896 -2.4159 -1.1181  2.4300
  251SOL     MW 1004   0.143   0.853   1.978 -0.3354  0.2245 -0.0978
  252SOL     OW 1005   1.723   0.999   2.856 -0.0134 -0.3357 -0.1421
  252SOL    HW1 1006   1.740   1.030   2.945  0.7564 -0.5250  0.8948
  252SOL    HW2 1007   1.799   1.030   2.807  0.8161  0.9008 -0.0370
  252SOL     MW 1008   1.735   1.007   2.861  0.1976 -0.1975  0.0086
  253SOL     OW 1009   1.203   1.764   2.562 -0.7759 -0.2983 -0.0771
  253SOL    HW1 1010   1.247   1.769   2.476 -1.1152  2.0019  0.5122
  253SOL    HW2 1011   1.120   1.810   2.569  0.2516 -2.0760  0.4523
  253SOL     MW 1012   1.198   1.771   2.552 -0.6851 -0.2294  0.0705
  254SOL     OW 1013   1.078   1.018   2.237  0.1906  0.2758  0.0615
  254SOL    HW1 1014   1.052   0.926   2.228 -1.0927  1.2451 -2.6325
  254SOL    HW2 1015   1.004   1.068   2.279 -3.5646  0.2436  0.8942
  254SOL     MW 1016   1.065   1.013   2.241 -0.4742  0.3994 -0.1841
  255SOL     OW 1017   0.777   2.576   2.160  0.3530  0.0304  0.0836
  255SOL    HW1 1018   0.698   2.528   2.182 -0.5414  0.4452 -2.8360
  255SOL    HW2 1019   0.849   2.563   2.224 -0.0076 -1.3061  0.9565
  255SOL     MW 1020   0.776   2.568   2.171  0.1874 -0.0912 -0.1865
  256SOL     OW 1021   1.342   2.673   2.953  0.7275  0.1763  0.0214
  256SOL    HW1 1022   1.348   2.595   2.896 -1.1991  2.2779  2.2402
  256SOL    HW2 1023   1.409   2.732   2.917  0.8279 -0.5681 -0.7799
  256SOL     MW 1024   1.351   2.670   2.941  0.4866  0.3554  0.2084
  257SOL     OW 1025   0.133   1.882   0.071  0.5753 -0.0404  0.2198
  257SOL    HW1 1026   0.178   1.847   0.152  0.2504 -2.2284 -0.1882
  257SOL    HW2 1027   0.185   1.835   0.007 -0.6262 -0.8974  1.2567
  257SOL     MW 1028   0.145   1.871   0.073  0.3739 -0.4422  0.3028
  258SOL     OW 1029   0.771   1.045   2.446  0.5397 -0.0614  0.3609
  258SOL    HW1 1030   0.811   1.123   2.393  1.4936  2.0957  0.5668
  258SOL    HW2 1031   0.755   1.096   2.526 -1.4850  0.5298  0.0740
  258SOL     MW 1032   0.774   1.062   2.449  0.3984  0.3012  0.3502
  259SOL     OW 1033   0.836   0.380   2.373  0.4830  0.3381  0.2651
  259SOL    HW1 1034   0.757   0.344   2.325 -0.0945  4.1978 -4.1295
  259SOL    HW2 1035   0.885   0.318   2.427 -2.9007 -0.6257  1.5143
  259SOL     MW 1036   0.832   0.367   2.374 -0.0396  0.7202 -0.1499
  260SOL     OW 1037   0.502   0.143   1.555  0.3213  0.1329  0.0494
  260SOL    HW1 1038   0.472   0.061   1.512  1.9443 -1.3351  2.1435
  260SOL    HW2 1039   0.602   0.133   1.566  2.5927 -0.1547  0.9340
  260SOL     MW 1040   0.511   0.131   1.551  0.8351 -0.0988  0.4424
  261SOL     OW 1041   1.155   0.748   2.017 -0.8123 -0.4139  0.1001
  261SOL    HW1 1042   1.194   0.735   2.101 -2.2872  0.7575  0.6783
  261SOL    HW2 1043   1.184   0.678   1.960 -0.0620 -1.2016 -3.2767
  261SOL     MW 1044   1.164   0.737   2.021 -0.9079 -0.3633 -0.2692
  262SOL     OW 1045   1.024   0.320   0.146 -0.3041 -0.5705 -0.2406
  262SOL    HW1 1046   1.120   0.305   0.138  0.0479 -2.4594  1.1178
  262SOL    HW2 1047   0.987   0.239   0.105 -0.0175 -1.3188  0.4933
  262SOL     MW 1048   1.031   0.308   0.140 -0.2198 -0.9184  0.0354
  263SOL     OW 1049   0.408   0.011   2.483 -0.1698  0.5791 -0.8405
  263SOL    HW1 1050   0.316   0.040   2.473 -1.6471  1.1976 -0.1088
  263SOL    HW2 1051   0.455   0.028   2.401 -0.4238  0.7178 -1.8052
  263SOL     MW 1052   0.402   0.017   2.471 -0.3982  0.6790 -0.8712
  264SOL     OW 1053   1.472   1.352   1.859 -0.3151  0.3304 -0.7864
  264SOL    HW1 1054   1.396   1.335   1.913 -1.2153 -1.0804 -0.3170
  264SOL    HW2 1055   1.543   1.384   1.913  1.0978  1.9725 -0.7099
  264SOL     MW 1056   1.471   1.354   1.873 -0.2474  0.3609 -0.7144
  265SOL     OW 1057   0.712   2.806   2.278  0.3749 -0.0172 -0.2592
  265SOL    HW1 1058   0.735   2.725   2.229  0.6187 -1.4132  2.2327
  265SOL    HW2 1059   0.733   2.795   2.371  1.8704 -2.1582  1.4328
  265SOL     MW 1060   0.718   2.794   2.284  0.6044 -0.4839  0.2928
  266SOL     OW 1061   0.958   0.755   2.221 -0.6960  0.3595 -0.4924
  266SOL    HW1 1062   0.936   0.714   2.137  0.0143 -1.3895  3.1002
  266SOL    HW2 1063   1.041   0.714   2.239 -3.6271 -0.0916  2.2435
  266SOL     MW 1064   0.966   0.744   2.212 -0.9890  0.0692  0.3426
  267SOL     OW 1065   1.442   1.777   2.753 -0.1613 -0.1807 -0.7504
  267SOL    HW1 1066   1.459   1.707   2.690 -0.2381  0.8928 -2.7790
  267SOL    HW2 1067   1.386   1.830   2.705  0.4659  0.6700  3.4501
  267SOL     MW 1068   1.437   1.775   2.739 -0.0887  0.0732 -0.4638
  268SOL     OW 1069   0.196   0.825   1.659  0.2623  0.0600 -0.1564
  268SOL    HW1 1070   0.129   0.887   1.626 -0.1517  3.2491  1.6826
  268SOL    HW2 1071   0.158   0.743   1.627 -0.0416  1.5306 -0.0200
  268SOL     MW 1072   0.182   0.823   1.651  0.1676  0.6748  0.1042
  269SOL     OW 1073   1.421   1.951   2.363  0.2616  0.5993  0.1040
  269SOL    HW1 1074   1.485   2.024   2.375  0.6602 -0.9090  0.8979
  269SOL    HW2 1075   1.349   1.983   2.409 -0.4134  0.2664 -1.1007
  269SOL     MW 1076   1.420   1.965   2.370  0.2251  0.3564  0.0498
  270SOL     OW 1077   1.117   0.408   1.649 -0.2050  0.8827 -0.1385
  270SOL    HW1 1078   1.086   0.320   1.658  0.6881 -0.0587  0.1407
  270SOL    HW2 1079   1.210   0.400   1.658  0.3156  0.1893 -2.7324
  270SOL     MW 1080   1.125   0.395   1.652 -0.0185  0.6670 -0.4439
  271SOL     OW 1081   0.857   0.015   2.548 -0.6201 -0.1626  0.4967
  271SOL    HW1 1082   0.875  -0.060   2.599 -1.5400  0.2393 -1.2819
  271SOL    HW2 1083   0.934   0.071   2.544  1.2651  0.5453 -0.8493
  271SOL     MW 1084   0.869   0.012   2.554 -0.4928 -0.0162  0.0844
  272SOL     OW 1085   1.471   2.859   2.817 -0.6333 -0.2655 -0.6842
  272SOL    HW1 1086   1.429   2.885   2.739 -0.6739  1.2670 -1.3536
  272SOL    HW2 1087   1.510   2.938   2.849  0.4922  0.8393  2.0160
  272SOL     MW 1088   1.471   2.873   2.811 -0.4902  0.0824 -0.4162
  273SOL     OW 1089   1.451   0.978   2.818  0.3239 -0.3105 -0.1137
  273SOL    HW1 1090   1.544   0.993   2.825 -1.5654 -2.6236 -1.0216
  273SOL    HW2 1091   1.410   1.045   2.873  0.1290  1.2759 -1.5160
  273SOL     MW 1092   1.458   0.989   2.826  0.0489 -0.4064 -0.4185
  274SOL     OW 1093   1.466   0.712   0.107 -0.8626 -0.4295 -0.2575
  274SOL    HW1 1094   1.486   0.649   0.177  0.9200  1.3305 -0.3073
  274SOL    HW2 1095   1.368   0.718   0.120  2.6574  2.5011  0.3015
  274SOL     MW 1096   1.456   0.704   0.118 -0.1630  0.1894 -0.1903
  275SOL     OW 1097   1.712   0.560   1.742 -0.2152  0.8308 -0.1545
  275SOL    HW1 1098   1.781   0.609   1.786 -0.0056  1.0728 -0.0680
  275SOL    HW2 1099   1.718   0.478   1.790 -1.8588 -0.8330  0.7555
  275SOL     MW 1100   1.722   0.555   1.754 -0.4044  0.6432 -0.0230
  276SOL     OW 1101   0.324   1.203   1.906 -0.0997  0.3893  0.0063
  276SOL    HW1 1102   0.385   1.124   1.908  2.7970 -0.1360  1.3936
  276SOL    HW2 1103   0.276   1.204   1.989  1.5022 -1.9049  0.0592
  276SOL     MW 1104   0.325   1.193   1.917  0.4938  0.0173  0.1963
  277SOL     OW 1105   1.896   1.261   2.399  0.6160 -0.5922 -0.3281
  277SOL    HW1 1106   1.964   1.299   2.464  0.2533 -1.4430  1.8474
  277SOL    HW2 1107   1.950   1.192   2.352 -0.4216 -2.3706 -0.4666
  277SOL     MW 1108   1.912   1.257   2.401  0.4312 -0.9391 -0.0593
  278SOL     OW 1109   1.449   0.600   1.724 -0.3662 -0.0308 -0.3188
  278SOL    HW1 1110   1.398   0.582   1.808 -0.4529 -1.1972 -0.4917
  278SOL    HW2 1111   1.544   0.601   1.737  1.0813 -0.3338 -1.4536
  278SOL     MW 1112   1.455   0.598   1.737 -0.1867 -0.2247 -0.4913
  279SOL     OW 1113   0.592   0.035   2.262  0.8661  0.3705  0.1755
  279SOL    HW1 1114   0.683  -0.004   2.269  3.3576 -0.8714  0.3578
  279SOL    HW2 1115   0.598   0.129   2.266 -2.0903 -0.8488 -1.0991
  279SOL     MW 1116   0.605   0.042   2.263  0.8047  0.0458  0.0314
  280SOL     OW 1117   1.492   0.964   2.155  0.5952  0.2669  0.2530
  280SOL    HW1 1118   1.560   0.907   2.120 -2.0277  1.5880 -0.9597
  280SOL    HW2 1119   1.499   0.967   2.254 -0.4542  0.5570 -0.2222
  280SOL     MW 1120   1.502   0.957   2.163  0.1106  0.4794  0.0303
  281SOL     OW 1121   1.307   1.354   2.777  0.4982 -0.0976  0.1681
  281SOL    HW1 1122   1.402   1.344   2.776 -2.4940  1.5578  0.5802
  281SOL    HW2 1123   1.270   1.293   2.840  2.8747  0.1064 -0.5775
  281SOL     MW 1124   1.315   1.345   2.785  0.4170  0.1477  0.1241
  282SOL     OW 1125   1.111   1.296   1.689  0.1979 -0.0480 -0.3853
  282SOL    HW1 1126   1.074   1.370   1.632  1.7999 -0.1580 -0.3556
  282SOL    HW2 1127   1.034   1.273   1.746  0.8657 -3.5698  2.7233
  282SOL     MW 1128   1.096   1.303   1.689  0.4974 -0.5271  0.0288
  283SOL     OW 1129   0.823   1.197   2.993  0.0350  0.1517  0.0169
  283SOL    HW1 1130   0.887   1.154   3.050  3.6332 -0.3352  0.7423
  283SOL    HW2 1131   0.813   1.290   3.017 -1.6358  2.1888 -2.0851
  283SOL     MW 1132   0.830   1.204   3.004  0.2893  0.3562 -0.1647
  284SOL     OW 1133   0.512   0.663   2.390 -0.4485  0.1561 -0.0352
  284SOL    HW1 1134   0.603   0.695   2.358 -1.3768 -1.0576 -0.6062
  284SOL    HW2 1135   0.490   0.588   2.338  0.3405 -0.1138  0.4186
  284SOL     MW 1136   0.521   0.657   2.379 -0.4669 -0.0397 -0.0506
  285SOL     OW 1137   0.949   0.921   2.816  0.0480 -0.7140  0.0761
  285SOL    HW1 1138   0.960   0.960   2.730  3.8086 -2.5171 -0.2069
  285SOL    HW2 1139   0.905   0.835   2.792  0.9180  0.1215 -1.4908
  285SOL     MW 1140   0.944   0.915   2.802  0.6590 -0.8416 -0.1680
  286SOL     OW 1141   1.164   1.506   2.578 -0.2876  0.3386 -0.3151
  286SOL    HW1 1142   1.183   1.466   2.660  1.6202  1.0639 -2.7525
  286SOL    HW2 1143   1.180   1.596   2.566 -3.2851 -0.9947 -0.9327
  286SOL     MW 1144   1.168   1.513   2.587 -0.4314  0.2584 -0.7182
  287SOL     OW 1145   1.132   0.928   0.314  0.3607  0.0195  0.9391
  287SOL    HW1 1146   1.203   0.962   0.368 -1.0989  0.2805 -1.1013
  287SOL    HW2 1147   1.063   0.992   0.320  2.5561  2.8806  0.6251
  287SOL     MW 1148   1.132   0.941   0.322  0.4578  0.4314  0.6285
  288SOL     OW 1149   1.534   0.589   2.097  0.2855  0.4097 -0.2282
  288SOL    HW1 1150   1.521   0.622   2.188 -5.7094  0.1527  2.0337
  288SOL    HW2 1151   1.569   0.668   2.052  0.6360  0.5413  2.2894
  288SOL     MW 1152   1.537   0.603   2.103 -0.4592  0.3932  0.4024
  289SOL     OW 1153   1.053   1.035   2.575  0.7173  0.3310  0.1005
  289SOL    HW1 1154   1.081   0.944   2.569 -1.0468  1.9981 -0.4829
  289SOL    HW2 1155   0.986   1.038   2.510  2.1766 -2.1478 -1.1210
  289SOL     MW 1156   1.048   1.023   2.566  0.6771  0.2239 -0.1376
  290SOL     OW 1157   0.834   0.649   1.592  0.2565 -0.4779 -0.1259
  290SOL    HW1 1158   0.873   0.618   1.512  0.4869 -1.0367  1.3295
  290SOL    HW2 1159   0.915   0.660   1.644  0.4544 -2.2257 -0.4185
  290SOL     MW 1160   0.850   0.646   1.589  0.3130 -0.7822  0.0276
  291SOL     OW 1161   0.222   0.380   0.108  0.2285  0.7656 -0.4938
  291SOL    HW1 1162   0.262   0.302   0.149 -1.4573 -0.4260 -1.2099
  291SOL    HW2 1163   0.169   0.329   0.043 -3.7600 -0.6331  0.8789
  291SOL     MW 1164   0.221   0.363   0.104 -0.5202  0.4239 -0.4072
  292SOL     OW 1165   1.006   0.593   0.101 -0.4666 -0.0974  0.0741
  292SOL    HW1 1166   1.081   0.625   0.147  0.4719  1.1911  0.5239
  292SOL    HW2 1167   1.005   0.506   0.144  0.8728  0.9049  1.8239
  292SOL     MW 1168   1.016   0.586   0.113 -0.1660  0.2048  0.3643
  293SOL     OW 1169   0.155   0.133   2.425 -0.3248 -0.0525 -0.5496
  293SOL    HW1 1170   0.076   0.095   2.382 -1.0973  1.7725 -0.2180
  293SOL    HW2 1171   0.122   0.217   2.456 -0.3759  1.4543  0.2563
  293SOL     MW 1172   0.140   0.139   2.424 -0.4335  0.3871 -0.3995
  294SOL     OW 1173   1.480   0.641   2.364 -0.5357 -0.1514 -0.4613
  294SOL    HW1 1174   1.525   0.686   2.441  1.0711 -1.6970  4.0347
  294SOL    HW2 1175   1.473   0.558   2.401  0.1127  1.7465  1.5608
  294SOL     MW 1176   1.485   0.636   2.379 -0.2382 -0.1049  0.3987
  295SOL     OW 1177   0.936   0.582   2.525  0.6382 -0.1782  0.2179
  295SOL    HW1 1178   0.882   0.513   2.478  0.8679 -5.4493 -1.0050
  295SOL    HW2 1179   0.871   0.623   2.575  1.5887 -1.2145 -1.5046
  295SOL     MW 1180   0.920   0.578   2.526  0.7939 -1.0104 -0.1707
  296SOL     OW 1181   1.318   0.260   2.054  0.1661 -0.1691 -0.1484
  296SOL    HW1 1182   1.387   0.195   2.045  1.0797  0.9357 -1.4264
  296SOL    HW2 1183   1.287   0.263   2.152  1.1055  0.2042 -0.7780
  296SOL     MW 1184   1.323   0.252   2.065  0.4106  0.0259 -0.4001
  297SOL     OW 1185   1.385   0.356   1.623  0.3922 -0.3360 -0.2598
  297SOL    HW1 1186   1.434   0.424   1.672  1.1000  0.8551  1.7575
  297SOL    HW2 1187   1.428   0.274   1.641  0.9214  1.8335  1.8347
  297SOL     MW 1188   1.397   0.354   1.632  0.5554  0.1074  0.2827
  298SOL     OW 1189   1.645   0.794   1.986  0.0207  0.0495  0.0735
  298SOL    HW1 1190   1.660   0.867   1.929 -2.0470  0.0125  0.2649
  298SOL    HW2 1191   1.737   0.783   2.021 -0.2624 -1.1903  1.3193
  298SOL     MW 1192   1.659   0.802   1.983 -0.2894 -0.1190  0.2631
  299SOL     OW 1193   0.573   1.077   0.057  0.1315 -0.1651  0.2058
  299SOL    HW1 1194   0.616   1.109  -0.016 -2.0171 -1.6079 -0.6279
  299SOL    HW2 1195   0.483   1.094   0.028 -0.8031 -2.8293  0.9331
  299SOL     MW 1196   0.566   1.083   0.043 -0.2753 -0.7069  0.1918
  300SOL     OW 1197   1.299   1.133   2.528 -0.5154  0.2449 -0.0734
  300SOL    HW1 1198   1.219   1.085   2.549 -1.6920  1.4153  4.4996
  300SOL    HW2 1199   1.357   1.129   2.602 -0.6581 -2.0949 -2.8144
  300SOL     MW 1200   1.296   1.126   2.540 -0.6894  0.0906  0.1683
  301SOL     OW 1201   1.469   0.912   0.641 -0.0562 -0.1500  0.0591
  301SOL    HW1 1202   1.485   0.923   0.736 -2.0662  0.1530 -2.1885
  301SOL    HW2 1203   1.398   0.852   0.640 -0.2635  2.9379  2.5835
  301SOL     MW 1204   1.462   0.905   0.653 -0.3488  0.2974  0.0956
  302SOL     OW 1205   0.119   1.518   2.002  0.2644  0.5110 -0.4014
  302SOL    HW1 1206   0.114   1.468   2.084 -0.0071  0.8848  2.6526
  302SOL    HW2 1207   0.045   1.587   2.016 -1.3923 -1.1879  0.1138
  302SOL     MW 1208   0.108   1.520   2.015  0.0100  0.3361  0.0695
  303SOL     OW 1209   0.396   1.744   2.600  0.6184  0.2334 -0.6406
  303SOL    HW1 1210   0.384   1.701   2.513 -0.3703  2.6615 -1.7240
  303SOL    HW2 1211   0.304   1.779   2.610 -1.9077  1.0629 -0.6182
  303SOL     MW 1212   0.382   1.743   2.589  0.1546  0.6632 -0.7806
  304SOL     OW 1213   0.570   2.075   2.366  0.3402  0.2128  0.2476
  304SOL    HW1 1214   0.632   2.118   2.301 -1.9898  1.5281  1.8924
  304SOL    HW2 1215   0.616   1.988   2.382  1.6312  0.4249  1.4983
  304SOL     MW 1216   0.584   2.069   2.359  0.2031  0.4143  0.6296
  305SOL     OW 1217   1.112   0.578   0.454 -0.6673 -0.4124  0.1692
  305SOL    HW1 1218   1.016   0.590   0.443 -1.4129  1.4364 -0.6687
  305SOL    HW2 1219   1.137   0.492   0.494 -0.7078 -2.0219  0.0546
  305SOL     MW 1220   1.103   0.568   0.458 -0.7710 -0.3809  0.0436
  306SOL     OW 1221   1.162   1.455   0.271  0.5791 -0.4490  0.2069
  306SOL    HW1 1222   1.195   1.376   0.319 -1.4592  0.6102  0.6945
  306SOL    HW2 1223   1.232   1.491   0.219 -3.7973  0.0928  0.0084
  306SOL     MW 1224   1.175   1.449   0.271 -0.2673 -0.2378  0.2450
  307SOL     OW 1225   1.315   0.523   1.957 -0.1877  0.6248 -0.1443
  307SOL    HW1 1226   1.322   0.426   1.973 -1.4283 -2.6906 -1.4946
  307SOL    HW2 1227   1.389   0.546   2.021 -1.4591  1.0634  2.8424
  307SOL     MW 1228   1.326   0.513   1.967 -0.5191  0.2452  0.0716
  308SOL     OW 1229   2.148   0.543   2.722  0.2311  0.0093 -0.2617
  308SOL    HW1 1230   2.235   0.556   2.743 -2.2575 -0.9254  2.1514
  308SOL    HW2 1231   2.122   0.638   2.715  0.2718 -0.8241 -1.7779
  308SOL     MW 1232   2.156   0.557   2.724 -0.0918 -0.2240 -0.1433
  309SOL     OW 1233   0.461   0.426   0.351 -0.0155  0.5774 -0.0190
  309SOL    HW1 1234   0.530   0.390   0.406  2.0918 -0.2299 -1.9754
  309SOL    HW2 1235   0.484   0.407   0.261 -1.2252  0.5054 -0.4293
  309SOL     MW 1236   0.473   0.418   0.346  0.1029  0.4614 -0.3313
  310SOL     OW 1237   0.463   0.639   1.941 -0.8069  0.3230  0.2922
  310SOL    HW1 1238   0.507   0.567   1.889 -2.2883  0.8536  0.6465
  310SOL    HW2 1239   0.508   0.718   1.906  0.1448  2.7472 -3.3990
  310SOL     MW 1240   0.475   0.640   1.929 -0.8768  0.7129 -0.1481
  311SOL     OW 1241   1.928   0.642   1.903 -0.0538 -0.7057  0.1437
  311SOL    HW1 1242   1.894   0.669   1.992 -0.5145  1.4671  2.4124
  311SOL    HW2 1243   1.983   0.565   1.917  0.1526  1.6270  0.8002
  311SOL     MW 1244   1.931   0.635   1.917 -0.0874 -0.1113  0.5297
  312SOL     OW 1245   1.777   2.519   0.126  0.9902 -0.7260 -0.3443
  312SOL    HW1 1246   1.849   2.541   0.186  0.8421  0.9544 -0.2490
  312SOL    HW2 1247   1.695   2.559   0.171 -0.1796 -0.4643  0.5300
  312SOL     MW 1248   1.776   2.527   0.140  0.8163 -0.4698 -0.2163
  313SOL     OW 1249   0.120   1.094   2.979  0.3037 -0.6585 -0.6079
  313SOL    HW1 1250   0.073   1.116   3.059  2.0378 -0.6433  1.1018
  313SOL    HW2 1251   0.169   1.172   2.964  1.6774 -3.0086  0.8155
  313SOL     MW 1252   0.120   1.107   2.987  0.7138 -0.9666 -0.1945
  314SOL     OW 1253   2.182   2.942   2.959  0.1111  0.5981 -0.2859
  314SOL    HW1 1254   2.119   3.003   2.926  2.3287 -0.6233  1.1515
  314SOL    HW2 1255   2.228   3.010   3.008 -1.4742  0.9013 -1.9633
  314SOL     MW 1256   2.180   2.959   2.961  0.1945  0.4770 -0.3175
  315SOL     OW 1257   1.507   1.959   0.025 -0.0058 -0.5038  0.3053
  315SOL    HW1 1258   1.426   1.994   0.066 -2.0702 -1.0713 -3.3220
  315SOL    HW2 1259   1.512   2.021  -0.048  2.0796  1.9865 -0.7895
  315SOL     MW 1260   1.497   1.972   0.021 -0.0030 -0.2501 -0.3178
  316SOL     OW 1261   1.262   0.653   2.716  0.0535 -0.3970 -0.0100
  316SOL    HW1 1262   1.338   0.682   2.671  0.4732 -0.0315 -0.3785
  316SOL    HW2 1263   1.270   0.678   2.808  1.3850  1.5000  1.7210
  316SOL     MW 1264   1.273   0.660   2.722  0.2846 -0.0984  0.1697
  317SOL     OW 1265   0.717   1.417   2.571 -0.3158 -0.5443 -0.6437
  317SOL    HW1 1266   0.806   1.372   2.585 -0.7347 -0.3514  0.1676
  317SOL    HW2 1267   0.723   1.470   2.481 -0.6410  0.2293 -1.6657
  317SOL     MW 1268   0.730   1.418   2.561 -0.4140 -0.4168 -0.6715
  318SOL     OW 1269   1.331   0.352   2.917  0.0027 -0.1724  0.0001
  318SOL    HW1 1270   1.242   0.402   2.921 -1.6239  2.4046 -1.0549
  318SOL    HW2 1271   1.396   0.425   2.936  2.1521 -1.0203 -0.3392
  318SOL     MW 1272   1.328   0.368   2.920  0.0717  0.0557 -0.1839
  319SOL     OW 1273   0.803   0.436   2.888  0.1275  0.3917  0.1586
  319SOL    HW1 1274   0.787   0.358   2.837 -0.7166  0.1654  2.1905
  319SOL    HW2 1275   0.745   0.420   2.959  1.3684 -1.0494 -1.1925
  319SOL     MW 1276   0.794   0.423   2.891  0.1798  0.1717  0.2484
  320SOL     OW 1277   1.057   1.349   1.995 -0.0290 -0.1312  0.8285
  320SOL    HW1 1278   1.115   1.288   2.045 -2.4506  0.2725  2.4250
  320SOL    HW2 1279   1.109   1.424   1.961 -0.1123  1.6535  0.6540
  320SOL     MW 1280   1.072   1.351   1.997 -0.3595  0.1575  1.0161
  321SOL     OW 1281   1.163   0.914   3.036  0.6548 -0.1047  0.0213
  321SOL    HW1 1282   1.092   0.898   2.979  0.4634 -1.0657  0.4434
  321SOL    HW2 1283   1.214   0.835   3.022 -0.8031 -0.2971 -1.0249
  321SOL     MW 1284   1.160   0.902   3.027  0.4372 -0.2568 -0.0611
  322SOL     OW 1285   1.264   0.861   1.686 -0.2849  0.2936  0.0557
  322SOL    HW1 1286   1.351   0.829   1.709 -2.7646  1.1212  0.0556
  322SOL    HW2 1287   1.246   0.918   1.765  0.3378 -1.0667  0.3403
  322SOL     MW 1288   1.273   0.864   1.699 -0.5299  0.2233  0.0932
  323SOL     OW 1289   1.231   1.564   1.911 -0.3030 -1.0255  0.2244
  323SOL    HW1 1290   1.256   1.558   1.815  0.2928  0.3304 -1.7100
  323SOL    HW2 1291   1.160   1.632   1.904 -0.5969  1.4620  4.4404
  323SOL     MW 1292   1.225   1.572   1.898 -0.2632 -0.5184  0.5254
  324SOL     OW 1293   1.472   0.965   2.420 -0.0916 -0.4327 -0.1556
  324SOL    HW1 1294   1.402   1.031   2.427  2.7408 -4.5767  2.6147
  324SOL    HW2 1295   1.552   1.016   2.444 -0.8539  0.5860 -2.3026
  324SOL     MW 1296   1.473   0.980   2.424  0.1816 -0.8450 -0.0733
  325SOL     OW 1297   1.049   0.466   2.968 -0.1081  0.5369 -0.4941
  325SOL    HW1 1298   1.023   0.506   3.050 -2.0243  0.1033 -0.4236
  325SOL    HW2 1299   0.954   0.463   2.930  1.1344  0.3938 -1.5675
  325SOL     MW 1300   1.033   0.470   2.974 -0.1970  0.4608 -0.6264
  326SOL     OW 1301   0.480   1.383   2.268 -0.5391  0.1505  1.3427
  326SOL    HW1 1302   0.525   1.328   2.207 -0.7860 -0.2287  2.5403
  326SOL    HW2 1303   0.489   1.470   2.241 -1.7155 -1.3434 -0.2502
  326SOL     MW 1304   0.487   1.387   2.257 -0.7269 -0.0967  1.2906
  327SOL     OW 1305   1.936   0.799   2.435  0.0207  0.2681  0.3213
  327SOL    HW1 1306   1.916   0.754   2.519  1.2793 -1.8173  1.0298
  327SOL    HW2 1307   2.004   0.858   2.448 -1.2164  0.5760  1.6403
  327SOL     MW 1308   1.942   0.801   2.448  0.0235  0.0336  0.5888
  328SOL     OW 1309   0.184   1.339   2.251  0.2994  0.7568  0.0307
  328SOL    HW1 1310   0.149   1.265   2.203  0.9004  2.1116  2.0187
  328SOL    HW2 1311   0.282   1.335   2.241  2.2320  1.9495 -0.7860
  328SOL     MW 1312   0.192   1.328   2.243  0.6337  1.0929  0.1852
  329SOL     OW 1313   0.149   0.219   1.330  0.2208  0.4494  0.8016
  329SOL    HW1 1314   0.122   0.204   1.422  0.9272 -1.1278 -2.2783
  329SOL    HW2 1315   0.228   0.268   1.324 -2.6740  0.2540 -1.1642
  329SOL     MW 1316   0.156   0.224   1.341 -0.0679  0.2155  0.1358
  330SOL     OW 1317   0.382   0.008   2.073 -0.6207  0.2345  0.0552
  330SOL    HW1 1318   0.459   0.008   2.133  1.9968 -1.3508 -0.2158
  330SOL    HW2 1319   0.319  -0.052   2.124 -0.7919 -0.9783  1.4176
  330SOL     MW 1320   0.384   0.000   2.088 -0.2979 -0.1347  0.1992
  331SOL     OW 1321   0.889   1.219   2.279  0.3823  0.0606 -0.2579
  331SOL    HW1 1322   0.796   1.223   2.240 -0.3225  1.2141 -0.5308
  331SOL    HW2 1323   0.895   1.302   2.335  2.0000  0.7573 -1.0626
  331SOL     MW 1324   0.877   1.230   2.281  0.5028  0.3047 -0.4001
  332SOL     OW 1325   1.331   1.762   3.003  0.0657  0.7357 -0.7742
  332SOL    HW1 1326   1.372   1.749   2.916  0.1082  0.7330 -1.2245
  332SOL    HW2 1327   1.385   1.828   3.045 -0.0167 -4.4502 -0.4646
  332SOL     MW 1328   1.344   1.769   2.997  0.0604  0.0511 -0.7928
  333SOL     OW 1329   1.774   1.387   2.982  0.8348  0.0179 -0.0996
  333SOL    HW1 1330   1.851   1.430   3.003 -1.5601  1.7595 -0.0721
  333SOL    HW2 1331   1.725   1.367   3.063  1.2204 -2.0260  1.1345
  333SOL     MW 1332   1.778   1.390   2.995  0.5697 -0.0220  0.0669
  334SOL     OW 1333   1.384   0.004   2.619 -0.3896  0.0201 -0.1432
  334SOL    HW1 1334   1.293  -0.016   2.637 -1.8567  2.2679  1.3797
  334SOL    HW2 1335   1.396   0.093   2.654  0.3809 -0.0946  0.6469
  334SOL     MW 1336   1.374   0.013   2.626 -0.4815  0.3015  0.1619
  335SOL     OW 1337   1.367   0.760   2.946  0.0332 -0.3561 -0.0168
  335SOL    HW1 1338   1.432   0.738   3.011  0.4331  0.8639  0.7203
  335SOL    HW2 1339   1.398   0.842   2.910  1.1854  0.4777  0.1934
  335SOL     MW 1340   1.380   0.768   2.950  0.2380 -0.0851  0.1082
  336SOL     OW 1341   0.960   1.093   1.946  0.1117  0.6502 -0.5729
  336SOL    HW1 1342   0.973   1.180   1.993  1.4594  1.1952 -1.6364
  336SOL    HW2 1343   1.040   1.052   1.977 -0.2098  2.2679 -0.7371
  336SOL     MW 1344   0.972   1.099   1.956  0.2471  0.9356 -0.7349
  337SOL     OW 1345   0.589   1.835   2.793 -0.0674 -0.1827 -0.0700
  337SOL    HW1 1346   0.513   1.836   2.742  1.0173 -0.6892 -0.3849
  337SOL    HW2 1347   0.659   1.793   2.739 -0.1470 -0.1883 -0.8712
  337SOL     MW 1348   0.588   1.830   2.779  0.0652 -0.2503 -0.2173
  338SOL     OW 1349   1.120   0.779   2.536  0.1457 -0.5587 -0.1642
  338SOL    HW1 1350   1.053   0.706   2.528 -1.3862 -2.6433  0.8435
  338SOL    HW2 1351   1.173   0.733   2.608  0.4639 -3.4654  0.6563
  338SOL     MW 1352   1.118   0.763   2.544 -0.0144 -1.2173  0.0770
  339SOL     OW 1353   1.479   1.028   1.826 -0.7994 -0.2327  0.1896
  339SOL    HW1 1354   1.435   1.075   1.758  0.7279  1.7479  1.3491
  339SOL    HW2 1355   1.428   1.054   1.898 -0.3733 -0.9567  1.0910
  339SOL     MW 1356   1.467   1.037   1.826 -0.5417 -0.0669  0.4615
  340SOL     OW 1357   1.308   1.547   0.066 -0.3329 -0.0057 -0.1579
  340SOL    HW1 1358   1.302   1.624   0.016 -0.2086  1.8840  1.5881
  340SOL    HW2 1359   1.401   1.529   0.074 -2.0722 -0.6905  1.5918
  340SOL     MW 1360   1.320   1.555   0.061 -0.5460  0.1533  0.3033
  341SOL     OW 1361   0.152   1.424   2.750 -0.3814 -0.1344 -0.0826
  341SOL    HW1 1362   0.239   1.391   2.754  1.1414  1.1068  2.6041
  341SOL    HW2 1363   0.107   1.379   2.677 -0.6930 -0.2210 -1.1638
  341SOL     MW 1364   0.158   1.414   2.741 -0.2216  0.0180  0.1292
  342SOL     OW 1365   1.298   0.340   0.085 -0.0981 -0.4149  0.4447
  342SOL    HW1 1366   1.359   0.400   0.121  0.6122  0.1406 -0.1798
  342SOL    HW2 1367   1.309   0.343  -0.010  1.7910  0.3551  0.0701
  342SOL     MW 1368   1.308   0.349   0.077  0.2449 -0.2400  0.3129
  343SOL     OW 1369   0.236   0.283   2.153  0.9311 -0.4983  0.1926
  343SOL    HW1 1370   0.232   0.217   2.228  1.1590  0.9957  1.3030
  343SOL    HW2 1371   0.203   0.238   2.075 -3.0803  0.6041  0.8388
  343SOL     MW 1372   0.231   0.268   2.152  0.4319 -0.1557  0.4244
  344SOL     OW 1373   1.745   2.058   0.170  0.2123 -0.5150 -0.2829
  344SOL    HW1 1374   1.744   2.148   0.145 -2.4585 -2.3517 -0.9817
  344SOL    HW2 1375   1.657   2.029   0.164  3.4753 -0.3605  3.0591
  344SOL     MW 1376   1.733   2.066   0.166  0.2904 -0.7370  0.0658
  345SOL     OW 1377   0.777   1.581   2.342 -0.4298 -0.1871 -0.1305
  345SOL    HW1 1378   0.698   1.596   2.293  3.3326 -2.4269 -1.5720
  345SOL    HW2 1379   0.843   1.564   2.278 -2.4034 -1.4577  0.4746
  345SOL     MW 1380   0.775   1.581   2.327 -0.1938 -0.6503 -0.2408
  346SOL     OW 1381   1.774   1.053   0.007  0.4106  0.1721  0.1656
  346SOL    HW1 1382   1.866   1.050   0.036  1.2104  5.3436  2.5756
  346SOL    HW2 1383   1.719   1.003   0.065 -0.4391  1.0999 -0.7583
  346SOL     MW 1384   1.779   1.046   0.018  0.4040  0.9769  0.3617
  347SOL     OW 1385   1.232   0.710   2.288 -0.2706 -0.4542  0.2267
  347SOL    HW1 1386   1.322   0.683   2.312  2.1355  1.8215  1.4177
  347SOL    HW2 1387   1.199   0.750   2.370 -1.7140 -0.3236  1.6446
  347SOL     MW 1388   1.240   0.712   2.302 -0.1436 -0.1367  0.5709
  348SOL     OW 1389   1.407   2.687   1.920 -0.4615  0.4497  0.5632
  348SOL    HW1 1390   1.438   2.591   1.933 -1.8080 -0.2205 -1.1926
  348SOL    HW2 1391   1.421   2.725   2.003  0.2191  0.0863 -0.2813
  348SOL     MW 1392   1.413   2.679   1.933 -0.5494  0.3133  0.2201
  349SOL     OW 1393   1.477   0.275   2.704 -0.8487 -0.2328 -0.1152
  349SOL    HW1 1394   1.411   0.317   2.757 -1.3731  0.4359 -1.2783
  349SOL    HW2 1395   1.554   0.271   2.768  1.5510 -1.4015  1.3916
  349SOL     MW 1396   1.479   0.280   2.719 -0.6013 -0.2988 -0.0698
  350SOL     OW 1397   1.836   0.637   2.669 -0.6762 -0.3340 -0.6407
  350SOL    HW1 1398   1.790   0.572   2.607  0.4731  1.0677 -1.9043
  350SOL    HW2 1399   1.927   0.607   2.687  2.5459  1.1488  1.9957
  350SOL     MW 1400   1.842   0.624   2.663 -0.0994  0.0466 -0.4596
  351SOL     OW 1401   0.066   1.004   1.501  0.1929  0.6044  0.6387
  351SOL    HW1 1402  -0.003   1.044   1.558 -1.2460 -1.1923  1.7230
  351SOL    HW2 1403   0.142   1.062   1.512  5.4834 -0.4259  0.7042
  351SOL     MW 1404   0.067   1.017   1.510  0.7011  0.2314  0.7904
  352SOL     OW 1405   0.821   1.650   2.679 -0.0157 -0.2060  0.1550
  352SOL    HW1 1406   0.890   1.624   2.747  0.9261 -1.7062  1.1451
  352SOL    HW2 1407   0.781   1.567   2.655  0.3455  2.5051 -0.2571
  352SOL     MW 1408   0.825   1.635   2.685  0.1563 -0.0462  0.2312
  353SOL     OW 1409   3.056   2.517   2.641 -0.0496  0.4015  0.2841
  353SOL    HW1 1410   3.144   2.538   2.615 -2.1711  0.3166 -1.4057
  353SOL    HW2 1411   2.998   2.595   2.616 -0.7432  3.3015  0.5737
  353SOL     MW 1412   3.060   2.530   2.634 -0.4210  0.7729  0.0994
  354SOL     OW 1413   0.281   2.503   0.794 -0.5373 -0.5409  0.0253
  354SOL    HW1 1414   0.348   2.469   0.858  1.6540 -1.5775 -0.3888
  354SOL    HW2 1415   0.215   2.434   0.779 -1.8502 -0.8437 -1.2815
  354SOL     MW 1416   0.281   2.490   0.800 -0.4214 -0.7176 -0.2018
  355SOL     OW 1417   0.068   2.271   0.383 -0.6471 -0.2874  0.5270
  355SOL    HW1 1418  -0.005   2.208   0.394  1.1823 -1.1649  0.4951
  355SOL    HW2 1419   0.053   2.337   0.452 -1.2097  1.2996 -0.2447
  355SOL     MW 1420   0.056   2.271   0.394 -0.4799 -0.1938  0.4210
  356SOL     OW 1421   0.809   2.810   0.961  0.0542  0.4109  0.3248
  356SOL    HW1 1422   0.841   2.844   0.871  1.3750  0.3005 -0.2838
  356SOL    HW2 1423   0.712   2.799   0.957  2.5478  0.4315  1.5420
  356SOL     MW 1424   0.800   2.813   0.949  0.5575  0.3991  0.4051
  357SOL     OW 1425   1.785   2.918   0.418 -0.0447 -0.3377  0.0833
  357SOL    HW1 1426   1.730   2.853   0.466  0.2252 -2.5582 -0.9624
  357SOL    HW2 1427   1.868   2.873   0.420  1.0479 -0.7023  2.1604
  357SOL     MW 1428   1.789   2.904   0.424  0.1351 -0.6788  0.2194
  358SOL     OW 1429   0.473   0.162   1.088 -0.0877  0.8081 -0.2147
  358SOL    HW1 1430   0.551   0.110   1.056 -0.8976 -0.1130 -1.3290
  358SOL    HW2 1431   0.418   0.188   1.004  0.0684  0.0173 -0.7192
  358SOL     MW 1432   0.476   0.159   1.073 -0.1739  0.5823 -0.4283
  359SOL     OW 1433   0.877   2.944   1.882 -0.0921 -0.1634  0.5819
  359SOL    HW1 1434   0.887   2.848   1.875  0.6563  2.6164 -1.8813
  359SOL    HW2 1435   0.921   2.976   1.802  1.7593 -0.7089 -0.4571
  359SOL     MW 1436   0.884   2.936   1.871  0.2509  0.1314  0.1198
  360SOL     OW 1437   0.551   2.763   0.947  0.4823  0.2343 -0.7683
  360SOL    HW1 1438   0.539   2.717   0.866  2.1084 -1.0083 -0.8843
  360SOL    HW2 1439   0.551   2.692   1.015  0.8683 -0.7381  1.6783
  360SOL     MW 1440   0.549   2.748   0.945  0.7478 -0.0579 -0.4608
  361SOL     OW 1441   0.168   2.662   1.367  0.2296 -0.8368  0.2839
  361SOL    HW1 1442   0.146   2.743   1.416  1.0287 -0.1707  0.0645
  361SOL    HW2 1443   0.264   2.662   1.364 -0.6855 -0.7876  1.3999
  361SOL     MW 1444   0.178   2.673   1.373  0.2143 -0.7424  0.4022
  362SOL     OW 1445   1.494   2.417   0.611  0.2406 -0.3961  0.3410
  362SOL    HW1 1446   1.510   2.357   0.686 -4.4563  0.4203  1.7251
  362SOL    HW2 1447   1.474   2.498   0.650 -0.1083 -1.1834 -0.8664
  362SOL     MW 1448   1.494   2.419   0.626 -0.4251 -0.3923  0.3643
  363SOL     OW 1449   0.341   3.059   0.692  0.0160 -0.0426 -0.0962
  363SOL    HW1 1450   0.343   3.005   0.778 -0.2800  0.2470  1.4889
  363SOL    HW2 1451   0.254   3.057   0.659 -1.7928 -0.5084 -0.5278
  363SOL     MW 1452   0.329   3.051   0.699 -0.2617 -0.0658  0.0560
  364SOL     OW 1453   0.712   0.187   0.229 -0.2214  0.0727  0.7939
  364SOL    HW1 1454   0.627   0.137   0.217  0.0106 -0.4188 -1.0712
  364SOL    HW2 1455   0.701   0.261   0.174  1.7751 -1.2061 -0.1904
  364SOL     MW 1456   0.700   0.190   0.220  0.0726 -0.1609  0.4180
  365SOL     OW 1457   0.974   1.989   1.088  0.2401 -0.0973  0.0165
  365SOL    HW1 1458   0.951   2.083   1.087 -1.0130  3.2536 -1.3343
  365SOL    HW2 1459   0.897   1.946   1.052  0.6641  0.7555 -0.5871
  365SOL     MW 1460   0.961   1.996   1.083  0.1307  0.4573 -0.2414
  366SOL     OW 1461   2.816   2.658   1.017  0.0978  0.2695  0.0057
  366SOL    HW1 1462   2.908   2.657   1.061 -0.5652  0.9165 -0.0367
  366SOL    HW2 1463   2.846   2.671   0.928 -0.1925 -0.9946  2.6810
  366SOL     MW 1464   2.832   2.659   1.011 -0.0280  0.1881  0.3531
  367SOL     OW 1465   1.271   2.956   0.842 -0.3455  0.7691 -0.0579
  367SOL    HW1 1466   1.256   3.028   0.784  2.3369  1.5021 -1.8159
  367SOL    HW2 1467   1.234   2.877   0.793  0.5138 -0.9066  1.2731
  367SOL     MW 1468   1.264   2.955   0.828  0.1218  0.6447 -0.1142
  368SOL     OW 1469   1.635   0.420   0.684 -0.9370  0.2896 -0.3816
  368SOL    HW1 1470   1.723   0.381   0.666  2.3150 -0.1338  1.2030
  368SOL    HW2 1471   1.654   0.513   0.692 -0.8849 -2.5449  1.2716
  368SOL     MW 1472   1.649   0.427   0.683 -0.5011 -0.1402  0.0456
  369SOL     OW 1473   0.123   2.525   1.682  0.5949  0.1251  0.6506
  369SOL    HW1 1474   0.223   2.532   1.687 -0.9039 -1.5696 -1.9944
  369SOL    HW2 1475   0.080   2.600   1.720 -1.3860 -2.3670 -0.7779
  369SOL     MW 1476   0.131   2.536   1.688  0.1358 -0.4273  0.1131
  370SOL     OW 1477   0.713   0.084   1.004 -0.1572  0.2346  1.0001
  370SOL    HW1 1478   0.739   0.178   1.017 -2.7687  1.2173  1.2554
  370SOL    HW2 1479   0.790   0.032   1.002  0.2701  0.8115 -2.4331
  370SOL     MW 1480   0.726   0.089   1.006 -0.4454  0.4404  0.5808
  371SOL     OW 1481   1.323   2.903   1.530 -0.9021 -0.0001  0.4717
  371SOL    HW1 1482   1.266   2.830   1.504 -0.7077 -1.5456  0.1941
  371SOL    HW2 1483   1.301   2.979   1.471 -2.1017 -0.4909 -2.4873
  371SOL     MW 1484   1.313   2.904   1.519 -1.0347 -0.2687  0.0447
  372SOL     OW 1485   0.761   2.312   0.454 -0.0625  0.3424 -0.0016
  372SOL    HW1 1486   0.717   2.230   0.478 -0.7529  2.5071 -2.0351
  372SOL    HW2 1487   0.805   2.286   0.374  1.5749 -1.0479  0.0117
  372SOL     MW 1488   0.761   2.297   0.447  0.0624  0.4446 -0.2681
  373SOL     OW 1489   2.754   3.014   1.441 -0.0206 -0.1665  0.5582
  373SOL    HW1 1490   2.839   2.991   1.411 -1.7492 -3.4934  2.4399
  373SOL    HW2 1491   2.726   3.084   1.384  1.1655 -1.5650  0.6769
  373SOL     MW 1492   2.761   3.020   1.430 -0.0922 -0.7900  0.8221
  374SOL     OW 1493   1.500   0.463   0.248  0.3683  0.0364  0.4774
  374SOL    HW1 1494   1.542   0.387   0.201 -0.3382 -2.8065  1.2916
  374SOL    HW2 1495   1.478   0.440   0.339 -0.1177  0.7399  0.7196
  374SOL     MW 1496   1.503   0.450   0.254  0.2109 -0.2459  0.6168
  375SOL     OW 1497   0.979   2.086   2.301 -1.2391  0.3404 -0.0912
  375SOL    HW1 1498   1.052   2.084   2.370  1.5256  0.7867 -2.7757
  375SOL    HW2 1499   1.021   2.029   2.233  1.7034  0.7006 -3.8776
  375SOL     MW 1500   0.994   2.079   2.301 -0.4861  0.4468 -0.9450
  376SOL     OW 1501   0.676   2.575   0.064  0.5856 -0.2120  0.2815
  376SOL    HW1 1502   0.640   2.535   0.146  1.8751  0.7742 -5.6711
  376SOL    HW2 1503   0.644   2.516  -0.004 -1.7739  1.9336  1.8418
  376SOL     MW 1504   0.667   2.562   0.066  0.4444  0.2012 -0.2980
  377SOL     OW 1505   1.280   2.023   0.867 -0.2074 -0.4256  0.1133
  377SOL    HW1 1506   1.203   1.987   0.822  1.5461 -2.7213  0.0210
  377SOL    HW2 1507   1.264   1.986   0.952 -0.0308  1.4026 -1.3049
  377SOL     MW 1508   1.268   2.013   0.872  0.0473 -0.4873 -0.0860
  378SOL     OW 1509   0.953   2.793   1.606 -0.6080 -0.0292 -0.7157
  378SOL    HW1 1510   0.905   2.715   1.588 -2.0460  1.4178 -0.5264
  378SOL    HW2 1511   0.920   2.866   1.549  0.2557  1.1892 -2.3234
  378SOL     MW 1512   0.942   2.793   1.596 -0.6838  0.3224 -0.9029
  379SOL     OW 1513   1.168   1.768   2.270  0.0601 -0.3933  0.3132
  379SOL    HW1 1514   1.075   1.756   2.275 -0.5035  1.8906  0.2859
  379SOL    HW2 1515   1.201   1.685   2.234  1.8381  0.5189 -1.2180
  379SOL     MW 1516   1.160   1.755   2.266  0.2204  0.0284  0.1076
  380SOL     OW 1517   0.773   0.087   1.581  0.0161  0.6783  0.6303
  380SOL    HW1 1518   0.773   0.042   1.492  0.4295 -2.5724  1.1567
  380SOL    HW2 1519   0.858   0.133   1.589 -1.3213  1.4189 -0.0084
  380SOL     MW 1520   0.785   0.087   1.570 -0.1058  0.3471  0.6155
  381SOL     OW 1521   0.810   2.041   0.780 -0.0663 -0.3259 -0.0496
  381SOL    HW1 1522   0.897   2.004   0.771 -0.5922  0.0660  0.7211
  381SOL    HW2 1523   0.817   2.138   0.801  2.7708  1.9972 -1.2808
  381SOL     MW 1524   0.823   2.049   0.782  0.2387  0.0323 -0.1104
  382SOL     OW 1525   0.664   0.108   0.719  0.3319 -0.3848  0.3455
  382SOL    HW1 1526   0.653   0.110   0.822  0.9587 -1.4388 -0.3818
  382SOL    HW2 1527   0.625   0.029   0.683 -1.0622 -0.8840 -0.5747
  382SOL     MW 1528   0.658   0.098   0.728  0.2306 -0.5897  0.1281
  383SOL     OW 1529   0.555   3.043   0.298 -0.6334  0.3601 -0.2399
  383SOL    HW1 1530   0.609   2.993   0.237  1.8231  0.7148  0.0176
  383SOL    HW2 1531   0.507   2.987   0.350 -0.5161  1.4387  2.2777
  383SOL     MW 1532   0.556   3.029   0.297 -0.2938  0.5492  0.1263
  384SOL     OW 1533   0.629   2.902   0.626  0.2050 -0.1394  0.2163
  384SOL    HW1 1534   0.712   2.893   0.675  2.0216  1.9052 -0.2058
  384SOL    HW2 1535   0.583   2.815   0.638 -0.2562 -0.7612  1.2308
  384SOL     MW 1536   0.634   2.889   0.634  0.3839  0.0483  0.2945
  385SOL     OW 1537   1.344   2.095   1.527  0.2521 -0.0425 -0.1946
  385SOL    HW1 1538   1.439   2.111   1.551  1.3297 -2.0932  0.4778
  385SOL    HW2 1539   1.306   2.021   1.577  1.1788  2.0529 -0.8976
  385SOL     MW 1540   1.351   2.087   1.537  0.5166 -0.0366 -0.1986
  386SOL     OW 1541   1.308   0.403   0.872 -0.0763  0.4101  0.6832
  386SOL    HW1 1542   1.240   0.452   0.920 -0.1247  1.1834 -0.3293
  386SOL    HW2 1543   1.353   0.335   0.921  0.0856  1.8359 -0.9235
  386SOL     MW 1544   1.305   0.401   0.885 -0.0613  0.7002  0.3376
  387SOL     OW 1545   0.835   2.182   1.486 -0.5917  0.3531  0.2613
  387SOL    HW1 1546   0.891   2.249   1.447 -0.2710  1.9452  0.7080
  387SOL    HW2 1547   0.835   2.111   1.424  0.2149  0.8137  1.1279
  387SOL     MW 1548   0.842   2.182   1.473 -0.4430  0.6239  0.4346
  388SOL     OW 1549   1.566   2.807   1.227 -0.2398 -0.1463 -0.1415
  388SOL    HW1 1550   1.484   2.779   1.195  0.8697  2.2573 -1.5535
  388SOL    HW2 1551   1.616   2.734   1.190 -0.4352 -1.0281  0.1164
  388SOL     MW 1552   1.562   2.794   1.218 -0.1192  0.0545 -0.2938
  389SOL     OW 1553   0.457   0.077   3.015  0.0879  0.3955 -0.8954
  389SOL    HW1 1554   0.545   0.061   2.986 -3.4969  2.7188 -1.0289
  389SOL    HW2 1555   0.411   0.115   2.943  1.1883  1.4037  2.5624
  389SOL     MW 1556   0.463   0.080   3.002 -0.2399  0.8350 -0.4568
  390SOL     OW 1557   1.281   0.090   0.698  0.1099 -0.4702  1.1215
  390SOL    HW1 1558   1.361   0.064   0.657  0.3075 -2.4237 -0.6856
  390SOL    HW2 1559   1.313   0.124   0.779 -3.0990  1.1012 -1.0127
  390SOL     MW 1560   1.296   0.091   0.703 -0.2874 -0.5206  0.6015
  391SOL     OW 1561   0.314   2.215   1.409 -0.0731 -0.1040  0.2926
  391SOL    HW1 1562   0.247   2.139   1.408  0.7467 -0.7233 -1.3355
  391SOL    HW2 1563   0.246   2.284   1.417  0.5683  0.4367  0.5602
  391SOL     MW 1564   0.296   2.214   1.410  0.1197 -0.1144  0.1131
  392SOL     OW 1565   2.083   2.192   0.329 -0.1434  0.5107 -0.2340
  392SOL    HW1 1566   2.177   2.179   0.341  0.2322  0.3704 -2.0833
  392SOL    HW2 1567   2.063   2.262   0.392  0.2556 -2.6439 -0.3229
  392SOL     MW 1568   2.093   2.200   0.339 -0.0412  0.0760 -0.4897
  393SOL     OW 1569   0.168   3.025   2.743  0.5454  0.2659  0.1493
  393SOL    HW1 1570   0.259   3.022   2.751 -0.2065 -2.2212  1.8651
  393SOL    HW2 1571   0.146   3.119   2.743 -0.8229  0.6148 -3.5431
  393SOL     MW 1572   0.177   3.037   2.744  0.2657 -0.0162 -0.1115
  394SOL     OW 1573   0.866   1.765   1.557  0.0610 -0.5556  0.3068
  394SOL    HW1 1574   0.803   1.793   1.628  1.9420  0.3905 -1.7954
  394SOL    HW2 1575   0.875   1.849   1.504  0.3282  1.0955 -0.2115
  394SOL     MW 1576   0.859   1.780   1.559  0.3445 -0.2129 -0.0389
  395SOL     OW 1577   1.023   2.804   2.606 -0.4181  0.2709  0.3768
  395SOL    HW1 1578   1.086   2.879   2.603 -2.4132  1.6190  0.2470
  395SOL    HW2 1579   1.076   2.731   2.584  0.9908  1.1826  1.6675
  395SOL     MW 1580   1.039   2.804   2.603 -0.4955  0.5691  0.5300
  396SOL     OW 1581   0.737   1.872   2.399 -0.0314  0.1370  0.2021
  396SOL    HW1 1582   0.815   1.906   2.443 -0.0781  0.2116 -0.3494
  396SOL    HW2 1583   0.755   1.772   2.405  2.2509  0.6707  1.5775
  396SOL     MW 1584   0.750   1.863   2.406  0.2635  0.2173  0.3108
  397SOL     OW 1585   0.994   2.299   1.258 -0.1387 -0.0545  0.5046
  397SOL    HW1 1586   1.020   2.356   1.181 -0.5593  0.1075 -0.0288
  397SOL    HW2 1587   1.059   2.309   1.333  1.3098  0.2608  0.1549
  397SOL     MW 1588   1.006   2.308   1.258 -0.0031  0.0085  0.3881
  398SOL     OW 1589   0.532   2.667   0.688  0.2188 -0.2069 -0.3473
  398SOL    HW1 1590   0.470   2.649   0.620 -1.7446 -0.2602 -0.5252
  398SOL    HW2 1591   0.602   2.600   0.675  0.2639 -0.2286  1.1145
  398SOL     MW 1592   0.533   2.656   0.677 -0.0343 -0.2168 -0.1779
  399SOL     OW 1593   0.256   2.060   0.375 -0.1348 -0.2789 -0.8705
  399SOL    HW1 1594   0.201   2.126   0.417 -0.6815  1.7768 -1.5038
  399SOL    HW2 1595   0.302   2.108   0.310 -1.2349  1.2669 -3.2523
  399SOL     MW 1596   0.255   2.075   0.372 -0.3521  0.1963 -1.2683
  400SOL     OW 1597   0.490   1.919   0.161  0.0329  0.3681 -0.7055
  400SOL    HW1 1598   0.474   2.010   0.188  2.6332  0.0012  0.4557
  400SOL    HW2 1599   0.464   1.864   0.234 -3.7136 -0.1929 -2.3681
  400SOL     MW 1600   0.484   1.924   0.174 -0.1184  0.2457 -0.7717
  401SOL     OW 1601   0.774   2.019   0.105 -0.8418  0.0864 -0.3424
  401SOL    HW1 1602   0.838   1.944   0.107  3.3822 -0.0022  2.1943
  401SOL    HW2 1603   0.693   1.986   0.146  0.7005  0.2749  0.5835
  401SOL     MW 1604   0.771   2.004   0.111 -0.0810  0.0996  0.1144
  402SOL     OW 1605   0.606   2.988   1.798 -0.3131 -0.4651  0.2551
  402SOL    HW1 1606   0.684   2.967   1.849 -1.3421  1.1535 -0.5503
  402SOL    HW2 1607   0.598   3.081   1.802  0.2623 -0.4403  0.8758
  402SOL     MW 1608   0.615   2.998   1.805 -0.3729 -0.2483  0.2307
  403SOL     OW 1609   0.075   0.417   0.335 -0.6188  0.4532 -0.3565
  403SOL    HW1 1610   0.134   0.467   0.390  0.9438  0.0429  1.0061
  403SOL    HW2 1611   0.112   0.415   0.247  0.6025 -2.5259 -0.1708
  403SOL     MW 1612   0.088   0.423   0.331 -0.2515  0.0060 -0.1522
  404SOL     OW 1613   0.900   2.920   0.730  0.4396  0.5108  0.5501
  404SOL    HW1 1614   0.984   2.877   0.748 -0.0032 -2.8930  1.9440
  404SOL    HW2 1615   0.912   3.006   0.686  0.5480  1.6972  0.3274
  404SOL     MW 1616   0.912   2.926   0.727  0.3955  0.2183  0.7046
  405SOL     OW 1617   0.511   2.385   1.497  0.0931  0.4113  0.1538
  405SOL    HW1 1618   0.485   2.469   1.463 -0.3848  2.4881  0.6291
  405SOL    HW2 1619   0.453   2.320   1.468  0.7783 -1.7396 -1.5291
  405SOL     MW 1620   0.500   2.388   1.489  0.1204  0.4015 -0.0055
  406SOL     OW 1621   0.394   2.397   1.018  0.3655  0.1319  0.4381
  406SOL    HW1 1622   0.309   2.379   1.055  2.1064 -0.3049 -0.2324
  406SOL    HW2 1623   0.442   2.313   1.019 -0.1676  1.2402 -1.6219
  406SOL     MW 1624   0.389   2.383   1.023  0.5249  0.2205  0.0779
  407SOL     OW 1625   3.052   2.693   1.147 -0.2164 -0.3915  0.1322
  407SOL    HW1 1626   3.117   2.689   1.225  2.4480 -0.9410 -0.0118
  407SOL    HW2 1627   3.108   2.710   1.070  1.3046  1.7684  0.0280
  407SOL     MW 1628   3.068   2.695   1.147  0.3359 -0.1790  0.0994
  408SOL     OW 1629   2.129   2.094   0.744 -0.6449  0.6843 -0.6401
  408SOL    HW1 1630   2.102   2.155   0.817  2.5092  0.3323 -0.3728
  408SOL    HW2 1631   2.055   2.040   0.724 -0.6327 -0.2464 -1.6118
  408SOL     MW 1632   2.116   2.095   0.751 -0.2271  0.5151 -0.7330
  409SOL     OW 1633   1.474   0.130   0.892  0.3690  0.4606 -0.3944
  409SOL    HW1 1634   1.546   0.191   0.887  0.7135 -1.1266  0.1352
  409SOL    HW2 1635   1.471   0.079   0.973 -0.7025  1.6215  2.0775
  409SOL     MW 1636   1.483   0.131   0.902  0.2731  0.4044  0.0016
  410SOL     OW 1637   1.098   2.477   1.043  0.0389  0.1360 -0.0027
  410SOL    HW1 1638   1.031   2.522   0.983 -3.1817 -1.2686 -1.9772
  410SOL    HW2 1639   1.155   2.422   0.989  1.5689 -1.1853  0.9384
  410SOL     MW 1640   1.097   2.475   1.028 -0.1841 -0.2237 -0.1390
  411SOL     OW 1641   1.981   0.024   2.896  0.2686 -0.2003  0.2387
  411SOL    HW1 1642   1.933   0.015   2.813 -0.1173  2.4083  1.6648
  411SOL    HW2 1643   1.925   0.077   2.950  0.6188 -0.3253  0.7736
  411SOL     MW 1644   1.967   0.029   2.892  0.2639  0.1274  0.4975
  412SOL     OW 1645   1.002   2.281   0.612  0.0106 -0.0931  0.0566
  412SOL    HW1 1646   1.060   2.359   0.614  0.4116  2.9951 -0.4179
  412SOL    HW2 1647   0.922   2.296   0.574  0.3262  1.5161 -0.3930
  412SOL     MW 1648   0.999   2.293   0.607  0.1052  0.5267 -0.0654
  413SOL     OW 1649   0.539   2.799   3.048  0.7240 -0.5928  0.3212
  413SOL    HW1 1650   0.579   2.723   3.089  0.6256 -1.4062 -0.5609
  413SOL    HW2 1651   0.604   2.823   2.992  0.4098 -1.6835  3.8621
  413SOL     MW 1652   0.553   2.792   3.046  0.6696 -0.8440  0.6720
  414SOL     OW 1653   1.918   2.870   1.054  0.1072  1.1509 -0.4565
  414SOL    HW1 1654   1.893   2.940   0.989 -1.2212  0.2798 -0.1277
  414SOL    HW2 1655   2.011   2.870   1.062 -0.7401  1.2500 -0.7100
  414SOL     MW 1656   1.927   2.880   1.046 -0.1799  1.0490 -0.4466
  415SOL     OW 1657   1.778   2.629   1.087  0.0686 -0.0351 -0.1584
  415SOL    HW1 1658   1.829   2.627   1.167  1.7158 -3.9409  0.9049
  415SOL    HW2 1659   1.793   2.718   1.051  1.9208 -0.2033 -1.0901
  415SOL     MW 1660   1.787   2.640   1.093  0.5304 -0.5726 -0.1410
  416SOL     OW 1661   0.538   1.918   1.395  0.6999  0.0198  0.2093
  416SOL    HW1 1662   0.510   1.945   1.306 -0.4340  1.3015  0.3926
  416SOL    HW2 1663   0.471   1.847   1.423  0.3593 -0.9617  3.5042
  416SOL     MW 1664   0.525   1.912   1.387  0.5054  0.0594  0.6682
  417SOL     OW 1665   1.011   3.082   2.079 -0.7899 -0.3649  0.1811
  417SOL    HW1 1666   0.950   3.076   2.153  2.5612  1.6357 -0.9597
  417SOL    HW2 1667   0.960   3.021   2.014 -0.4511 -4.5293 -1.4421
  417SOL     MW 1668   0.996   3.073   2.080 -0.3031 -0.6504 -0.1836
  418SOL     OW 1669   0.733   2.901   0.135 -0.0921 -0.4000 -0.5333
  418SOL    HW1 1670   0.806   2.888   0.071 -0.6628  4.1920 -1.8303
  418SOL    HW2 1671   0.660   2.872   0.083  0.9576  0.3038  0.5848
  418SOL     MW 1672   0.733   2.896   0.119 -0.0289  0.2987 -0.5569
  419SOL     OW 1673   0.435   2.649   1.389  0.3530 -0.2800  0.1012
  419SOL    HW1 1674   0.499   2.700   1.444 -1.9111 -0.1047 -4.0518
  419SOL    HW2 1675   0.482   2.627   1.307  0.4994  0.3237  1.9644
  419SOL     MW 1676   0.450   2.653   1.386  0.0736 -0.1772 -0.2009
  420SOL     OW 1677   0.877   2.280   0.969 -0.3273  0.1993  0.1586
  420SOL    HW1 1678   0.834   2.271   1.056  0.0623  0.8083  0.5235
  420SOL    HW2 1679   0.935   2.356   0.980 -2.4262 -1.2162 -0.6746
  420SOL     MW 1680   0.879   2.289   0.982 -0.5528  0.0929  0.0968
  421SOL     OW 1681   2.925   0.084   3.087  0.0118  1.5322  0.6687
  421SOL    HW1 1682   2.870   0.056   3.015 -0.3058  0.6042 -1.8995
  421SOL    HW2 1683   2.953  -0.001   3.129  1.3068  2.6328  1.8933
  421SOL     MW 1684   2.922   0.069   3.083  0.1408  1.5550  0.4914
  422SOL     OW 1685   0.892   2.549   0.889  0.3108 -0.7109  0.0307
  422SOL    HW1 1686   0.873   2.642   0.908 -0.2141  0.0786 -4.3291
  422SOL    HW2 1687   0.834   2.519   0.825  0.3998 -0.1696  5.0190
  422SOL     MW 1688   0.882   2.557   0.883  0.2533 -0.5353  0.1136
  423SOL     OW 1689   1.488   0.104   0.507 -0.1523  0.0270  0.0405
  423SOL    HW1 1690   1.491   0.054   0.427  1.7970  0.1980  2.1586
  423SOL    HW2 1691   1.472   0.196   0.476  0.9653 -0.7319 -0.7544
  423SOL     MW 1692   1.487   0.110   0.492  0.2523 -0.0506  0.2151
  424SOL     OW 1693   0.720   2.268   1.188 -0.0863 -0.1038  0.1319
  424SOL    HW1 1694   0.632   2.236   1.188 -1.3989 -0.8855  0.7420
  424SOL    HW2 1695   0.738   2.289   1.281  0.9662  1.2478 -1.3194
  424SOL     MW 1696   0.711   2.266   1.201 -0.1207 -0.0286  0.0209
  425SOL     OW 1697   1.742   2.826   2.020 -0.2209  0.0889  0.3036
  425SOL    HW1 1698   1.743   2.844   1.926  0.5720 -1.9117  0.5825
  425SOL    HW2 1699   1.758   2.736   2.047  0.6600 -1.1453  1.9866
  425SOL     MW 1700   1.744   2.817   2.011 -0.0001 -0.3379  0.5625
  426SOL     OW 1701   0.804   1.693   1.944 -0.1786 -0.4210 -0.0212
  426SOL    HW1 1702   0.736   1.705   1.875  1.6673  3.2935  1.4084
  426SOL    HW2 1703   0.811   1.774   1.995 -1.5901 -0.2267 -1.7187
  426SOL     MW 1704   0.796   1.705   1.941 -0.1213  0.0947 -0.0565
  427SOL     OW 1705   0.361   1.647   1.930 -0.1812  0.0089 -0.1504
  427SOL    HW1 1706   0.428   1.584   1.897 -0.1842 -0.8981  2.2267
  427SOL    HW2 1707   0.277   1.598   1.942 -3.0241  2.5826 -0.8663
  427SOL     MW 1708   0.359   1.632   1.927 -0.5567  0.2288  0.0688
  428SOL     OW 1709   0.575   2.593   1.168  0.0705  0.4376 -0.5531
  428SOL    HW1 1710   0.676   2.584   1.182 -2.4784 -2.9508  2.0506
  428SOL    HW2 1711   0.537   2.505   1.145 -0.4882 -2.4962  0.8365
  428SOL     MW 1712   0.583   2.580   1.167 -0.3395 -0.3966 -0.0262
  429SOL     OW 1713   1.298   2.776   1.084 -0.6315  0.3599 -0.6512
  429SOL    HW1 1714   1.207   2.768   1.110 -0.5686  1.4299  0.8927
  429SOL    HW2 1715   1.299   2.818   0.995  1.0178 -0.1176 -0.7636
  429SOL     MW 1716   1.286   2.781   1.076 -0.4056  0.4381 -0.4623
  430SOL     OW 1717   1.142   2.734   0.728 -0.2966 -0.0325 -0.4653
  430SOL    HW1 1718   1.175   2.642   0.739 -1.5390 -1.9113 -0.4026
  430SOL    HW2 1719   1.081   2.721   0.648 -2.6838  1.4995 -0.4625
  430SOL     MW 1720   1.139   2.720   0.719 -0.7755 -0.0783 -0.4567
  431SOL     OW 1721   0.361   1.918   1.053  0.2609  0.2149 -0.4723
  431SOL    HW1 1722   0.431   1.852   1.053 -1.3291 -2.6335 -0.9647
  431SOL    HW2 1723   0.337   1.922   0.959  0.1474 -1.2309  0.7336
  431SOL     MW 1724   0.367   1.910   1.041  0.0362 -0.3517 -0.3781
  432SOL     OW 1725   0.062   0.001   1.200  0.0999  0.4251  0.7575
  432SOL    HW1 1726   0.085   0.080   1.253 -1.3575 -0.4965 -1.1972
  432SOL    HW2 1727  -0.009  -0.034   1.247  0.4175 -0.5320  0.9117
  432SOL     MW 1728   0.056   0.007   1.213 -0.0505  0.1772  0.5199
  433SOL     OW 1729   0.635   2.827   1.530 -0.1960 -0.6695  0.0233
  433SOL    HW1 1730   0.643   2.839   1.620 -0.7926 -3.0839  1.3187
  433SOL    HW2 1731   0.705   2.882   1.493 -0.4969  0.9901 -1.4418
  433SOL     MW 1732   0.645   2.836   1.537 -0.3144 -0.7691  0.0009
  434SOL     OW 1733   1.585   2.833   1.530  0.3216  0.1221 -0.1364
  434SOL    HW1 1734   1.488   2.862   1.535 -0.6451  2.4743 -1.8784
  434SOL    HW2 1735   1.603   2.799   1.439  3.4278 -1.8232  1.2453
  434SOL     MW 1736   1.575   2.832   1.518  0.6039  0.1758 -0.1839
  435SOL     OW 1737   2.842   1.802   0.229 -0.0311 -0.3438 -0.2271
  435SOL    HW1 1738   2.899   1.877   0.189  0.4074  0.1514  1.4975
  435SOL    HW2 1739   2.785   1.772   0.160  1.2459  0.7535  1.6861
  435SOL     MW 1740   2.842   1.808   0.215  0.1952 -0.1337  0.2529
  436SOL     OW 1741   1.330   2.742   0.389 -0.3935 -0.9037 -0.3884
  436SOL    HW1 1742   1.420   2.752   0.429 -0.4013 -0.7568  1.8683
  436SOL    HW2 1743   1.279   2.827   0.419 -0.2360  0.9034  1.3114
  436SOL     MW 1744   1.335   2.754   0.398 -0.3738 -0.6459  0.1336
  437SOL     OW 1745   0.839   2.929   1.383  0.0905  0.7488 -0.6115
  437SOL    HW1 1746   0.878   3.016   1.371 -0.2298  0.1110 -0.4329
  437SOL    HW2 1747   0.890   2.871   1.325  1.2519  1.1962 -1.8782
  437SOL     MW 1748   0.851   2.933   1.373  0.2015  0.7237 -0.7550
  438SOL     OW 1749   0.859   2.679   1.897 -0.0388 -0.3991 -0.3341
  438SOL    HW1 1750   0.828   2.632   1.968 -0.3897  1.8816 -0.6951
  438SOL    HW2 1751   0.833   2.637   1.819  1.2023  2.2685  0.3979
  438SOL     MW 1752   0.851   2.668   1.896  0.0787  0.2538 -0.2852
  439SOL     OW 1753   1.186   2.154   0.458  0.8745  0.3740  0.3434
  439SOL    HW1 1754   1.124   2.197   0.525 -1.9680  2.7060 -0.3196
  439SOL    HW2 1755   1.164   2.214   0.383  0.7636 -0.7359 -0.5420
  439SOL     MW 1756   1.175   2.168   0.457  0.4849  0.5353  0.1391
  440SOL     OW 1757   1.745   2.991   0.003  0.9174  0.2305 -0.4771
  440SOL    HW1 1758   1.694   2.955   0.076  2.0221  0.2683 -2.9013
  440SOL    HW2 1759   1.832   2.945   0.008 -0.8555  1.1118 -1.7308
  440SOL     MW 1760   1.750   2.980   0.013  0.8292  0.3518 -0.9624
  441SOL     OW 1761   0.341   2.635   0.487 -0.0995 -0.1319 -0.5112
  441SOL    HW1 1762   0.324   2.623   0.398  1.6187  1.9691  1.5477
  441SOL    HW2 1763   0.364   2.734   0.490  0.1941  0.5577  0.0973
  441SOL     MW 1764   0.342   2.646   0.476  0.1660  0.2363 -0.1592
  442SOL     OW 1765   3.057   2.412   0.601 -0.2686  0.4553 -0.4000
  442SOL    HW1 1766   3.073   2.501   0.593  1.0836 -4.6668 -1.1915
  442SOL    HW2 1767   2.971   2.405   0.637 -1.4454  0.7184 -1.6559
  442SOL     MW 1768   3.048   2.423   0.605 -0.2454 -0.1858 -0.6701
  443SOL     OW 1769   1.403   1.776   1.925  0.2585  0.0217 -0.0172
  443SOL    HW1 1770   1.349   1.816   1.857  0.9015  0.6539 -1.0826
  443SOL    HW2 1771   1.353   1.691   1.937 -3.9807 -0.2605 -1.2064
  443SOL     MW 1772   1.390   1.770   1.918 -0.2160  0.0679 -0.3147
  444SOL     OW 1773   0.897   2.520   1.584  0.5419 -0.1702 -0.0709
  444SOL    HW1 1774   0.990   2.519   1.612 -0.8051 -1.1186 -0.7527
  444SOL    HW2 1775   0.845   2.466   1.648 -0.6887 -0.9508  2.4345
  444SOL     MW 1776   0.902   2.513   1.596  0.2018 -0.3983  0.1697
  445SOL     OW 1777   0.961   0.076   1.348  0.8930 -0.2950  0.1023
  445SOL    HW1 1778   0.940   0.169   1.341  0.4004  0.1007  1.0852
  445SOL    HW2 1779   1.036   0.063   1.286  1.7883 -0.5327 -3.2784
  445SOL     MW 1780   0.968   0.087   1.339  0.9461 -0.2742 -0.2141
  446SOL     OW 1781   2.723   2.886   1.097 -0.0853  0.3480 -0.0591
  446SOL    HW1 1782   2.676   2.916   1.022 -0.7698 -1.2211  0.3968
  446SOL    HW2 1783   2.777   2.809   1.063 -0.7941 -0.6687  1.1282
  446SOL     MW 1784   2.724   2.880   1.083 -0.2691  0.0068  0.1577
  447SOL     OW 1785   0.078   2.030   1.651  0.3546  0.0931 -0.2897
  447SOL    HW1 1786   0.131   1.946   1.668  2.9653 -1.0590 -2.0338
  447SOL    HW2 1787   0.004   2.003   1.595 -1.2545 -1.0587 -3.0565
  447SOL     MW 1788   0.075   2.015   1.646  0.4867 -0.2109 -0.8848
  448SOL     OW 1789   1.708   2.404   1.626  0.6896 -0.0818 -0.7249
  448SOL    HW1 1790   1.674   2.319   1.625 -0.6511  0.3678  1.3641
  448SOL    HW2 1791   1.639   2.462   1.666 -1.6995  1.4947 -0.3289
  448SOL     MW 1792   1.695   2.400   1.631  0.1975  0.1855 -0.3970
  449SOL     OW 1793   0.789   2.816   0.391  0.2308  0.1645 -0.7088
  449SOL    HW1 1794   0.760   2.835   0.297  1.1155 -0.1447 -1.4554
  449SOL    HW2 1795   0.722   2.829   0.457  1.5251 -1.7380  2.0112
  449SOL     MW 1796   0.776   2.820   0.388  0.5183 -0.1273 -0.4484
  450SOL     OW 1797   1.208   2.448   0.685  0.1206  0.2676  0.1327
  450SOL    HW1 1798   1.192   2.382   0.758 -1.6459  2.0824 -4.1795
  450SOL    HW2 1799   1.293   2.433   0.650 -2.4253 -0.4529  0.7397
  450SOL     MW 1800   1.217   2.437   0.690 -0.4484  0.4120 -0.3562
  451SOL     OW 1801   0.570   2.044   1.616  0.6837  0.6151  0.0884
  451SOL    HW1 1802   0.637   2.104   1.587 -2.6078  1.3337  1.5812
  451SOL    HW2 1803   0.550   2.004   1.533  0.9947  0.1854  1.3999
  451SOL     MW 1804   0.576   2.046   1.602  0.2905  0.6532  0.4584
  452SOL     OW 1805   0.277   2.742   0.014  0.3725 -0.8658 -0.1588
  452SOL    HW1 1806   0.357   2.763  -0.036  2.2645  1.2517 -0.4926
  452SOL    HW2 1807   0.203   2.775  -0.043  1.3350 -3.4960 -0.5268
  452SOL     MW 1808   0.278   2.749   0.000  0.7491 -0.9334 -0.2514
  453SOL     OW 1809   0.351   2.892   1.692  0.2681  0.1328 -0.0308
  453SOL    HW1 1810   0.440   2.908   1.721 -0.7540  0.1808 -1.5415
  453SOL    HW2 1811   0.349   2.910   1.596 -1.7496  2.8282 -1.4763
  453SOL     MW 1812   0.362   2.897   1.683 -0.1330  0.4948 -0.4209
  454SOL     OW 1813   1.012   2.748   1.196  0.2152  0.7015 -0.0572
  454SOL    HW1 1814   0.957   2.676   1.227  2.0475 -1.6279  0.1327
  454SOL    HW2 1815   0.963   2.786   1.126 -0.0180 -1.2240  1.3709
  454SOL     MW 1816   0.998   2.744   1.191  0.4262  0.1401  0.1563
  455SOL     OW 1817   1.597   2.925   0.222  0.0031  0.2382 -0.0417
  455SOL    HW1 1818   1.661   2.926   0.292 -0.9563  2.1051 -0.8356
  455SOL    HW2 1819   1.568   2.824   0.207 -0.0978 -0.5601 -2.0483
  455SOL     MW 1820   1.601   2.912   0.230 -0.1368  0.3792 -0.4112
  456SOL     OW 1821   2.829   0.348   1.389 -0.2939  0.1815  0.1084
  456SOL    HW1 1822   2.804   0.268   1.344 -1.9131  1.4432  3.1068
  456SOL    HW2 1823   2.926   0.368   1.370  0.9165  0.1899  1.5666
  456SOL     MW 1824   2.838   0.340   1.381 -0.3478  0.3490  0.6964
  457SOL     OW 1825   0.977   1.573   2.908  0.2320  0.2053 -0.2344
  457SOL    HW1 1826   0.887   1.556   2.942 -0.0123 -3.0017 -0.5143
  457SOL    HW2 1827   1.010   1.486   2.926 -0.4197 -1.1690  1.2877
  457SOL     MW 1828   0.969   1.559   2.915  0.1138 -0.3992 -0.0705
  458SOL     OW 1829   1.490   1.411   0.535 -0.4531  0.0076 -0.1033
  458SOL    HW1 1830   1.413   1.440   0.579 -0.7392  0.7177 -1.0778
  458SOL    HW2 1831   1.451   1.356   0.463  0.9988 -0.6342 -1.0825
  458SOL     MW 1832   1.474   1.407   0.532 -0.2993  0.0166 -0.3611
  459SOL     OW 1833   1.465   0.061   0.225 -0.4369  0.4314 -0.3365
  459SOL    HW1 1834   1.499  -0.025   0.201  1.0630  1.3218 -0.8983
  459SOL    HW2 1835   1.431   0.083   0.138 -0.6560  2.0241 -1.2345
  459SOL     MW 1836   1.465   0.053   0.211 -0.2679  0.7591 -0.5291
  460SOL     OW 1837   1.781   2.201   0.596  0.2624 -0.1774  0.2972
  460SOL    HW1 1838   1.695   2.172   0.627  0.5200 -0.4869  0.3955
  460SOL    HW2 1839   1.839   2.125   0.591 -0.3260  0.4831 -0.5415
  460SOL     MW 1840   1.777   2.187   0.600  0.2188 -0.1311  0.1995
  461SOL     OW 1841   0.383   2.383   0.583  0.0213 -0.3556 -0.1543
  461SOL    HW1 1842   0.325   2.424   0.519 -0.8861 -2.3092 -2.3972
  461SOL    HW2 1843   0.345   2.408   0.671 -1.2946 -0.4122  1.6428
  461SOL     MW 1844   0.370   2.392   0.586 -0.2721 -0.6208 -0.2131
  462SOL     OW 1845   0.408   0.333   1.288  0.1438  0.0596 -0.3352
  462SOL    HW1 1846   0.441   0.263   1.233  0.5884 -0.2590  0.8592
  462SOL    HW2 1847   0.474   0.347   1.356 -0.2242 -3.3336 -2.9382
  462SOL     MW 1848   0.421   0.325   1.290  0.1539 -0.4301 -0.5210
  463SOL     OW 1849   0.909   0.061   0.625  0.3631  0.0471 -0.3940
  463SOL    HW1 1850   0.930   0.072   0.530  0.6838  0.3662  0.4423
  463SOL    HW2 1851   0.822   0.097   0.642 -0.6750  1.8206  0.5915
  463SOL     MW 1852   0.900   0.068   0.615  0.2684  0.3232 -0.1536
  464SOL     OW 1853   0.849   3.044   2.289 -0.1741  0.5150 -0.0776
  464SOL    HW1 1854   0.814   2.958   2.263  2.1818  1.7947 -1.7351
  464SOL    HW2 1855   0.851   3.055   2.386 -1.2358  1.5177  3.8617
  464SOL     MW 1856   0.845   3.034   2.298 -0.0033  0.8162  0.2235
  465SOL     OW 1857   0.674   0.289   0.469  0.6077 -0.0343 -0.4715
  465SOL    HW1 1858   0.664   0.236   0.547 -1.5315 -0.4840 -1.3835
  465SOL    HW2 1859   0.667   0.238   0.385  0.5935 -0.0937 -0.8732
  465SOL     MW 1860   0.672   0.275   0.468  0.3236 -0.1015 -0.6448
  466SOL     OW 1861   1.070   1.965   0.695 -0.2546  0.2072  0.1453
  466SOL    HW1 1862   1.054   1.885   0.640 -1.8952 -1.8226 -0.5029
  466SOL    HW2 1863   1.077   2.043   0.638  1.6222 -1.5991  0.5534
  466SOL     MW 1864   1.069   1.965   0.681 -0.2234 -0.2990  0.1136
  467SOL     OW 1865   1.260   2.302   0.914 -0.1368  0.4612  0.8028
  467SOL    HW1 1866   1.348   2.332   0.896  0.9216 -0.7678 -1.8705
  467SOL    HW2 1867   1.277   2.206   0.917  0.7038  1.4864 -0.6883
  467SOL     MW 1868   1.274   2.294   0.912  0.1137  0.4343  0.2533
  468SOL     OW 1869   0.396   2.617   1.990  0.1633 -0.2143  0.0565
  468SOL    HW1 1870   0.414   2.592   1.898  1.6450  0.5477 -1.6730
  468SOL    HW2 1871   0.362   2.707   1.975 -0.1346 -2.5457 -0.0045
  468SOL     MW 1872   0.394   2.625   1.976  0.3195 -0.4213 -0.1797
  469SOL     OW 1873   0.368   2.176   1.782 -0.2250  0.2144 -0.1321
  469SOL    HW1 1874   0.297   2.134   1.824  0.2387 -1.6577 -0.6725
  469SOL    HW2 1875   0.404   2.115   1.714 -0.2212 -0.5286 -2.0452
  469SOL     MW 1876   0.364   2.162   1.779 -0.1633 -0.1307 -0.4558
  470SOL     OW 1877   3.048   2.612   0.066  0.2445  0.2713 -0.5683
  470SOL    HW1 1878   2.975   2.578   0.115  1.4843  0.3429  1.1903
  470SOL    HW2 1879   3.008   2.612  -0.024 -0.4238  1.4967 -0.3431
  470SOL     MW 1880   3.033   2.607   0.060  0.3199  0.4424 -0.3065
  471SOL     OW 1881   1.163   2.712   1.435 -0.5966  0.0245  0.2942
  471SOL    HW1 1882   1.091   2.733   1.495 -0.1953  0.7513  0.4119
  471SOL    HW2 1883   1.126   2.725   1.349  1.0091  1.0585  1.9199
  471SOL     MW 1884   1.148   2.716   1.432 -0.3318  0.2568  0.5242
  472SOL     OW 1885   2.953   2.106   0.377 -0.4752  0.2877  0.4967
  472SOL    HW1 1886   3.002   2.070   0.301  2.9447  0.2799 -1.3714
  472SOL    HW2 1887   2.924   2.028   0.422 -0.2606  0.6393 -0.5159
  472SOL     MW 1888   2.955   2.091   0.373  0.0043  0.3330  0.1166
  473SOL     OW 1889   0.877   2.553   1.316 -0.0287 -0.2236  0.2719
  473SOL    HW1 1890   0.933   2.478   1.286 -0.5391 -0.7947 -2.2099
  473SOL    HW2 1891   0.867   2.540   1.409 -0.7896 -0.5121 -0.2839
  473SOL     MW 1892   0.883   2.541   1.324 -0.1964 -0.3370 -0.1289
  474SOL     OW 1893   0.823   2.157   1.780  0.5084 -0.8546  0.0258
  474SOL    HW1 1894   0.917   2.184   1.793 -0.8200 -1.2523  1.5021
  474SOL    HW2 1895   0.815   2.157   1.687 -0.1990  0.0810  1.3951
  474SOL     MW 1896   0.834   2.160   1.769  0.2398 -0.7836  0.4013
  475SOL     OW 1897   1.655   0.022   1.431  0.2637  0.1730 -0.5922
  475SOL    HW1 1898   1.571   0.048   1.400 -0.8978 -0.3747  1.0951
  475SOL    HW2 1899   1.647  -0.071   1.438 -0.0944  0.3609  1.1057
  475SOL     MW 1900   1.642   0.013   1.428  0.0632  0.1255 -0.1455
  476SOL     OW 1901   1.432   2.610   0.892 -0.4333 -0.0125  0.2303
  476SOL    HW1 1902   1.354   2.623   0.958  0.9428 -1.1679  2.2212
  476SOL    HW2 1903   1.472   2.697   0.879 -1.5155  1.4330  2.1942
  476SOL     MW 1904   1.427   2.623   0.899 -0.3945  0.0258  0.7521
  477SOL     OW 1905   0.778   2.533   0.633  0.3709 -0.0154 -0.3563
  477SOL    HW1 1906   0.855   2.579   0.602  0.9301 -0.4484  0.0956
  477SOL    HW2 1907   0.753   2.467   0.568 -0.1733  0.6951 -1.3507
  477SOL     MW 1908   0.785   2.530   0.620  0.3729  0.0212 -0.4279
  478SOL     OW 1909   0.117   2.714   0.920  0.1296  0.0151 -0.1611
  478SOL    HW1 1910   0.189   2.785   0.912  1.9603  1.7659  0.0424
  478SOL    HW2 1911   0.175   2.637   0.924 -2.5403  2.1772 -0.7507
  478SOL     MW 1912   0.134   2.713   0.920  0.0189  0.5314 -0.2120
  479SOL     OW 1913   1.427   1.964   1.302  0.1422 -0.0297  0.1168
  479SOL    HW1 1914   1.381   2.004   1.376  3.3304 -1.2556 -0.4306
  479SOL    HW2 1915   1.506   1.918   1.343 -0.5130  1.1933 -1.3894
  479SOL     MW 1916   1.431   1.963   1.317  0.4764 -0.0301 -0.1542
  480SOL     OW 1917   1.895   2.320   1.353 -0.1168 -0.3076 -0.4564
  480SOL    HW1 1918   1.879   2.224   1.358 -2.7676  0.3618 -0.2647
  480SOL    HW2 1919   1.968   2.325   1.291 -0.3188 -1.7764  2.6901
  480SOL     MW 1920   1.903   2.308   1.345 -0.4932 -0.4131 -0.0160
  481SOL     OW 1921   1.093   3.075   1.107 -1.1071  0.3953 -0.1076
  481SOL    HW1 1922   1.151   3.008   1.083 -2.2204 -0.0024  0.4350
  481SOL    HW2 1923   1.143   3.153   1.104 -2.7742 -1.5212 -1.8337
  481SOL     MW 1924   1.107   3.076   1.104 -1.4739  0.0900 -0.2638
  482SOL     OW 1925   0.958   3.047   0.340  0.1781 -0.3333 -0.3981
  482SOL    HW1 1926   0.894   2.977   0.363  0.9750  1.2236 -0.0730
  482SOL    HW2 1927   0.911   3.106   0.283  1.4989 -2.9122 -1.9331
  482SOL     MW 1928   0.944   3.045   0.336  0.4575 -0.4682 -0.5578
  483SOL     OW 1929   0.378   2.896   0.464  0.4254 -0.4644 -0.5268
  483SOL    HW1 1930   0.290   2.918   0.419 -0.4427  0.9741 -0.9028
  483SOL    HW2 1931   0.378   2.951   0.546  1.2744 -0.2948  0.8617
  483SOL     MW 1932   0.366   2.906   0.469  0.4229 -0.2522 -0.3933
  484SOL     OW 1933   1.655   1.840   1.401 -0.4583  0.7675  0.0323
  484SOL    HW1 1934   1.701   1.924   1.386  0.8861 -0.3171 -0.5133
  484SOL    HW2 1935   1.667   1.835   1.495 -0.2613  1.4130 -0.5427
  484SOL     MW 1936   1.663   1.851   1.411 -0.2549  0.7096 -0.1156
  485SOL     OW 1937   0.542   2.458   0.279  0.4796  0.0973 -0.5355
  485SOL    HW1 1938   0.577   2.422   0.365  1.5860  1.4385 -3.3794
  485SOL    HW2 1939   0.454   2.488   0.304 -1.6894 -0.9596 -2.4733
  485SOL     MW 1940   0.535   2.457   0.294  0.3394  0.1348 -1.1664
  486SOL     OW 1941   0.124   2.401   1.426  0.0513  0.4525  0.7916
  486SOL    HW1 1942   0.164   2.483   1.387 -0.6375 -0.0674 -4.1537
  486SOL    HW2 1943   0.097   2.438   1.510  0.8927 -1.4057 -0.1985
  486SOL     MW 1944   0.126   2.417   1.432  0.0714  0.1388  0.0085
  487SOL     OW 1945   1.281   1.590   1.048  0.3132  0.6329 -0.5848
  487SOL    HW1 1946   1.252   1.680   1.061  1.1471  0.5375 -0.0638
  487SOL    HW2 1947   1.376   1.610   1.034 -1.8091 -2.7405  0.6320
  487SOL     MW 1948   1.289   1.604   1.048  0.1432  0.1752 -0.3555
  488SOL     OW 1949   1.691   1.868   0.537  0.0448 -0.1802 -0.1387
  488SOL    HW1 1950   1.774   1.914   0.528 -0.4912 -3.0889 -0.3316
  488SOL    HW2 1951   1.647   1.933   0.594 -0.7045 -1.4066  1.1823
  488SOL     MW 1952   1.696   1.883   0.544 -0.1248 -0.7258  0.0102
  489SOL     OW 1953   0.675   0.762   0.556 -0.1530  0.3496 -0.2635
  489SOL    HW1 1954   0.737   0.697   0.529  0.2572 -1.1126  2.1940
  489SOL    HW2 1955   0.680   0.777   0.649  0.0934 -0.3743  2.3761
  489SOL     MW 1956   0.684   0.755   0.565 -0.0664  0.0612  0.4090
  490SOL     OW 1957   1.433   2.025   0.403  0.3453 -0.7391  0.2527
  490SOL    HW1 1958   1.505   2.092   0.386  0.8898 -1.7831  1.3307
  490SOL    HW2 1959   1.360   2.074   0.432  0.8468  1.7623 -2.3708
  490SOL     MW 1960   1.433   2.040   0.405  0.4833 -0.5468  0.0488
  491SOL     OW 1961   1.185   2.964   0.476 -0.1392 -0.3929 -0.0197
  491SOL    HW1 1962   1.183   3.051   0.520  0.5137 -0.0654  1.2855
  491SOL    HW2 1963   1.117   2.976   0.411  2.6342 -1.1298  0.2100
  491SOL     MW 1964   1.176   2.977   0.473  0.3128 -0.4469  0.1828
  492SOL     OW 1965   1.532   2.058   0.682 -0.7718 -0.1170  0.1102
  492SOL    HW1 1966   1.504   2.030   0.598  1.3379 -0.8377 -0.7131
  492SOL    HW2 1967   1.453   2.053   0.736  0.5044  0.1247 -1.4698
  492SOL     MW 1968   1.518   2.054   0.678 -0.3250 -0.1802 -0.2069
  493SOL     OW 1969   0.130   2.928   0.344  0.5291  0.2546 -0.1366
  493SOL    HW1 1970   0.104   3.012   0.390  1.1654  1.0427 -0.6929
  493SOL    HW2 1971   0.144   2.958   0.256 -0.1555  0.8695  0.7873
  493SOL     MW 1972   0.128   2.943   0.338  0.5227  0.4397 -0.0881
  494SOL     OW 1973   0.390   2.458   1.726 -0.1198  0.1794  0.7010
  494SOL    HW1 1974   0.368   2.364   1.745  0.9860 -0.0739 -1.2097
  494SOL    HW2 1975   0.437   2.449   1.644 -0.6846  2.5184 -2.5831
  494SOL     MW 1976   0.393   2.445   1.718 -0.0484  0.4546  0.0156
  495SOL     OW 1977   2.923   1.708   2.658  0.0399 -0.0934 -0.7084
  495SOL    HW1 1978   2.883   1.794   2.677  1.2583  1.4167 -0.8144
  495SOL    HW2 1979   2.935   1.663   2.744 -2.2928  1.7017  0.0163
  495SOL     MW 1980   2.919   1.713   2.672 -0.1071  0.3426 -0.6268
  496SOL     OW 1981   2.869   2.288   2.664 -0.1025 -0.4348  0.1101
  496SOL    HW1 1982   2.890   2.218   2.724 -1.3046  2.6472  0.3497
  496SOL    HW2 1983   2.950   2.348   2.643  1.1801  1.1897 -0.5207
  496SOL     MW 1984   2.883   2.287   2.669 -0.0919  0.1862  0.0585
  497SOL     OW 1985   1.581   2.280   2.627  0.6407 -0.0116  0.0485
  497SOL    HW1 1986   1.570   2.211   2.560 -0.5103 -2.5092  1.1145
  497SOL    HW2 1987   1.609   2.234   2.708 -4.1989  0.1326  0.7178
  497SOL     MW 1988   1.583   2.265   2.629 -0.1497 -0.3221  0.2775
  498SOL     OW 1989   1.536   2.727   2.376 -0.1460 -0.1229  0.5105
  498SOL    HW1 1990   1.494   2.647   2.361 -0.3090 -1.0096 -0.0178
  498SOL    HW2 1991   1.622   2.714   2.431  2.4279  1.3475 -0.7169
  498SOL     MW 1992   1.542   2.714   2.381  0.1721 -0.0459  0.2788
  499SOL     OW 1993   0.901   0.098   0.049  0.2584 -0.3764  0.0560
  499SOL    HW1 1994   0.831   0.122   0.105  2.0254 -0.3114 -0.9737
  499SOL    HW2 1995   0.893  -0.002   0.037  2.9833  0.0476 -0.2081
  499SOL     MW 1996   0.890   0.088   0.055  0.8510 -0.3119 -0.1147
  500SOL     OW 1997   1.106   2.471   2.765  0.1119  0.4044 -0.4981
  500SOL    HW1 1998   1.147   2.459   2.850  3.2828  2.9940 -1.4559
  500SOL    HW2 1999   1.051   2.544   2.781 -0.9844  1.4403  0.6648
  500SOL     MW 2000   1.104   2.479   2.778  0.3856  0.8828 -0.4710
  501SOL     OW 2001   1.734   2.276   0.018  0.0841 -0.8373 -0.2951
  501SOL    HW1 2002   1.744   2.370   0.055  2.6557 -0.4875  2.3285
  501SOL    HW2 2003   1.825   2.256   0.038  0.2426  1.6045  0.8352
  501SOL     MW 2004   1.747   2.286   0.025  0.4443 -0.4690  0.2002
  502SOL     OW 2005   0.075   2.833   2.958 -0.4254 -0.7109  0.2216
  502SOL    HW1 2006   0.015   2.758   2.929 -1.1440  0.2531  1.4858
  502SOL    HW2 2007   0.088   2.892   2.881 -0.4125  0.7824 -2.0941
  502SOL     MW 2008   0.069   2.831   2.944 -0.5185 -0.3867  0.0829
  503SOL     OW 2009   1.120   2.644   1.972 -0.8675  0.3338  0.0626
  503SOL    HW1 2010   1.212   2.672   1.948  2.4084 -0.6909 -1.0938
  503SOL    HW2 2011   1.050   2.667   1.913 -0.6636  1.8230 -1.6413
  503SOL     MW 2012   1.123   2.651   1.961 -0.4084  0.3951 -0.3148
  504SOL     OW 2013   0.047   2.684   2.089 -0.0087  0.4275 -0.5938
  504SOL    HW1 2014   0.100   2.603   2.091 -2.8579  1.9936 -0.5231
  504SOL    HW2 2015  -0.039   2.642   2.102  0.5459 -0.1542  0.9270
  504SOL     MW 2016   0.043   2.668   2.091 -0.3115  0.5574 -0.3838
  505SOL     OW 2017   1.647   2.654   2.782  0.3336 -0.4471  0.4833
  505SOL    HW1 2018   1.687   2.661   2.697 -0.8803  0.2258  1.8410
  505SOL    HW2 2019   1.602   2.738   2.791 -0.4042 -1.1394  0.1589
  505SOL     MW 2020   1.646   2.666   2.772  0.0761 -0.4496  0.6196
  506SOL     OW 2021   1.616   3.093   2.856 -0.5470 -0.1323 -0.0567
  506SOL    HW1 2022   1.673   3.051   2.922 -0.3725  3.0216 -0.0068
  506SOL    HW2 2023   1.665   3.074   2.768  0.4267 -2.1202  0.6112
  506SOL     MW 2024   1.630   3.085   2.853 -0.3955  0.0215  0.0380
  507SOL     OW 2025   0.935   2.701   2.859 -0.0947 -0.5904  0.2015
  507SOL    HW1 2026   1.001   2.743   2.800 -0.8442  1.7388 -1.8421
  507SOL    HW2 2027   0.850   2.736   2.837  0.1324 -0.0857  0.9131
  507SOL     MW 2028   0.933   2.711   2.848 -0.1636 -0.2165  0.0257
  508SOL     OW 2029   1.228   2.124   2.498 -0.3097  0.1087  0.1249
  508SOL    HW1 2030   1.260   2.081   2.585 -1.5785 -0.7816  0.0642
  508SOL    HW2 2031   1.156   2.176   2.525 -2.2614  1.9498  1.5411
  508SOL     MW 2032   1.223   2.125   2.513 -0.7346  0.2341  0.3038
  509SOL     OW 2033   0.623   2.595   2.792 -0.3140  0.4414 -0.7402
  509SOL    HW1 2034   0.614   2.559   2.708 -0.1542 -0.1501  0.5814
  509SOL    HW2 2035   0.531   2.607   2.825 -1.4818 -0.7307  1.4705
  509SOL     MW 2036   0.610   2.592   2.785 -0.4470  0.2088 -0.2742
  510SOL     OW 2037   1.521   2.615   1.674 -0.5611 -0.2608  0.3392
  510SOL    HW1 2038   1.533   2.710   1.637  0.2207  2.4176 -0.3476
  510SOL    HW2 2039   1.484   2.631   1.762  0.3950 -2.4014 -0.2928
  510SOL     MW 2040   1.518   2.629   1.681 -0.3318 -0.1899  0.1652
  511SOL     OW 2041   0.431   2.641   2.437  0.1700 -0.3863  0.2010
  511SOL    HW1 2042   0.515   2.582   2.455  2.7308  0.1767 -0.6347
  511SOL    HW2 2043   0.434   2.653   2.338 -1.4425 -1.9595  2.3228
  511SOL     MW 2044   0.442   2.635   2.426  0.2951 -0.5196  0.3707
  512SOL     OW 2045   0.953   2.023   2.797 -0.5129  0.2051 -0.1982
  512SOL    HW1 2046   0.883   2.065   2.853  1.2808 -0.8704  0.6900
  512SOL    HW2 2047   0.993   1.961   2.863 -0.7048  1.5842 -0.3785
  512SOL     MW 2048   0.949   2.021   2.813 -0.3016  0.2452 -0.1048
  513SOL     OW 2049   1.622   2.485   2.243 -0.1141  0.2074  0.4804
  513SOL    HW1 2050   1.711   2.500   2.215 -1.7790  0.8419  1.5492
  513SOL    HW2 2051   1.630   2.404   2.292  2.6283 -0.1813  1.5642
  513SOL     MW 2052   1.635   2.476   2.246  0.0281  0.2398  0.7644
  514SOL     OW 2053   0.256   2.497   2.595  0.4060  0.0661  0.2266
  514SOL    HW1 2054   0.315   2.570   2.561  2.0031  2.5666  2.0555
  514SOL    HW2 2055   0.294   2.461   2.675 -0.2027  2.3368 -2.4965
  514SOL     MW 2056   0.269   2.502   2.601  0.5364  0.6956  0.1086
  515SOL     OW 2057   1.141   2.013   2.005  0.1850 -0.0830 -0.1335
  515SOL    HW1 2058   1.133   2.103   1.977  1.4788  1.2771  0.2134
  515SOL    HW2 2059   1.213   2.010   2.070  2.5189 -0.8067  1.8405
  515SOL     MW 2060   1.150   2.025   2.010  0.6636  0.0010  0.1727
  516SOL     OW 2061   1.466   2.460   3.095 -0.4452  0.8671  0.2257
  516SOL    HW1 2062   1.516   2.416   3.028  0.8422 -1.0723  0.0376
  516SOL    HW2 2063   1.403   2.507   3.043  0.6593 -1.0052 -0.5500
  516SOL     MW 2064   1.464   2.460   3.079 -0.1296  0.3642  0.0986
  517SOL     OW 2065   0.544   2.462   2.245  0.0894 -0.0388 -0.6605
  517SOL    HW1 2066   0.505   2.435   2.325 -1.0065 -0.6208 -2.0549
  517SOL    HW2 2067   0.498   2.401   2.179  0.4148  2.0026  1.3749
  517SOL     MW 2068   0.532   2.450   2.247 -0.0122  0.1538 -0.5759
  518SOL     OW 2069   1.799   0.152   3.083  0.1729  0.0379 -0.2575
  518SOL    HW1 2070   1.771   0.199   3.164 -0.2564 -1.5231  0.0897
  518SOL    HW2 2071   1.752   0.067   3.093 -1.1394  0.9383  0.1757
  518SOL     MW 2072   1.789   0.147   3.095 -0.0569 -0.0493 -0.1546
  519SOL     OW 2073   0.722   2.403   1.761  0.1933  0.1610  0.1025
  519SOL    HW1 2074   0.753   2.315   1.783  2.9586  1.5535  1.1622
  519SOL    HW2 2075   0.629   2.395   1.736 -0.3271 -0.9573 -3.7749
  519SOL     MW 2076   0.714   2.390   1.761  0.4895  0.1972 -0.2693
  520SOL     OW 2077   1.176   2.126   2.957 -0.0035 -0.3211  0.1308
  520SOL    HW1 2078   1.095   2.090   2.920  0.9290  0.0959 -0.5204
  520SOL    HW2 2079   1.181   2.088   3.045 -0.1611 -3.1679  0.4392
  520SOL     MW 2080   1.166   2.116   2.964  0.0987 -0.6417  0.0855
  521SOL     OW 2081   1.750   1.979   2.168  0.0348 -0.4023 -0.0491
  521SOL    HW1 2082   1.772   2.002   2.081  0.5347 -0.8553  1.3601
  521SOL    HW2 2083   1.731   1.888   2.160 -3.9076  1.4605 -1.2951
  521SOL     MW 2084   1.750   1.970   2.155 -0.4194 -0.2163 -0.0276
  522SOL     OW 2085   2.913   2.521   2.253 -0.1749  0.1421  0.1495
  522SOL    HW1 2086   2.998   2.466   2.267 -1.1728  0.2362  0.7511
  522SOL    HW2 2087   2.922   2.609   2.285 -0.1326 -1.3454 -2.1701
  522SOL     MW 2088   2.925   2.525   2.259 -0.3010 -0.0418 -0.0772
  523SOL     OW 2089   0.940   1.540   2.142  0.1197  0.8642 -0.0140
  523SOL    HW1 2090   0.896   1.581   2.073 -0.1136  0.3656 -0.3659
  523SOL    HW2 2091   0.977   1.458   2.100 -0.9341 -0.0991  1.2603
  523SOL     MW 2092   0.939   1.534   2.127 -0.0501  0.6713  0.1077
  524SOL     OW 2093   0.628   2.393   2.974  0.3786  0.3543  0.3518
  524SOL    HW1 2094   0.660   2.449   2.902 -2.4579 -1.5647  0.1531
  524SOL    HW2 2095   0.693   2.320   2.961 -0.3540  2.8199  0.6690
  524SOL     MW 2096   0.641   2.391   2.963 -0.0923  0.4264  0.3675
  525SOL     OW 2097   0.444   2.290   2.036 -0.1409  0.2019  0.3202
  525SOL    HW1 2098   0.380   2.246   2.089  0.6648  0.3890 -0.2974
  525SOL    HW2 2099   0.457   2.243   1.954  2.5886 -1.1591 -3.6117
  525SOL     MW 2100   0.437   2.278   2.033  0.3255  0.0470 -0.2801
  526SOL     OW 2101   0.658   2.036   1.973  0.3153 -0.8464 -0.4293
  526SOL    HW1 2102   0.714   2.058   1.905 -1.3311  0.8490  1.7817
  526SOL    HW2 2103   0.674   2.099   2.047  0.9084  0.7199 -0.8987
  526SOL     MW 2104   0.668   2.047   1.974  0.1763 -0.4161 -0.1995
  527SOL     OW 2105   1.414   2.020   2.109  0.1845  0.1661 -0.0517
  527SOL    HW1 2106   1.413   2.005   2.208 -0.6646 -0.9507  1.3668
  527SOL    HW2 2107   1.428   1.938   2.064  1.3955  1.6771 -1.5237
  527SOL     MW 2108   1.416   2.007   2.116  0.2322  0.2182 -0.0587
  528SOL     OW 2109   0.711   2.873   2.861  0.0737  0.1581 -0.0884
  528SOL    HW1 2110   0.701   2.967   2.869 -0.7865  0.4940  2.0864
  528SOL    HW2 2111   0.646   2.858   2.794  0.6465 -0.6952 -0.5931
  528SOL     MW 2112   0.701   2.884   2.853  0.0358  0.0898  0.1319
  529SOL     OW 2113   1.090   2.271   1.877  0.4924 -0.5001  0.5899
  529SOL    HW1 2114   1.052   2.312   1.955  1.3119 -1.0346  2.4696
  529SOL    HW2 2115   1.050   2.312   1.796 -0.5342  1.2086 -2.9870
  529SOL     MW 2116   1.079   2.282   1.876  0.4651 -0.3452  0.3660
  530SOL     OW 2117   1.149   2.432   3.048 -0.1557 -0.4710 -0.3328
  530SOL    HW1 2118   1.104   2.440   3.130  0.2815  2.2217 -1.4686
  530SOL    HW2 2119   1.187   2.343   3.044 -1.6439 -0.9825 -2.2943
  530SOL     MW 2120   1.148   2.421   3.058 -0.2944 -0.1832 -0.7415
  531SOL     OW 2121   0.951   1.866   2.561 -0.4761  0.2172 -0.2756
  531SOL    HW1 2122   0.959   1.944   2.619  1.0517  0.3667  2.4735
  531SOL    HW2 2123   0.906   1.793   2.611 -0.2256 -0.1206 -2.4807
  531SOL     MW 2124   0.946   1.867   2.575 -0.2415  0.1924 -0.2038
  532SOL     OW 2125   1.702   0.348   2.855  0.4327  0.0533 -0.7428
  532SOL    HW1 2126   1.703   0.262   2.894  0.7635  2.4711  0.1097
  532SOL    HW2 2127   1.801   0.362   2.841 -0.1621  0.2409  0.5211
  532SOL     MW 2128   1.715   0.339   2.859  0.3979  0.3971 -0.4636
  533SOL     OW 2129   1.841   2.680   2.978  0.0044 -0.0403  0.0742
  533SOL    HW1 2130   1.796   2.621   3.035 -1.8747 -2.1349  1.0725
  533SOL    HW2 2131   1.778   2.684   2.904  2.4763  0.2830  0.3800
  533SOL     MW 2132   1.827   2.673   2.976  0.0826 -0.2740  0.2463
  534SOL     OW 2133   1.809   2.351   2.465 -0.1059  0.2305  0.1349
  534SOL    HW1 2134   1.733   2.320   2.522 -0.6657  0.0950  1.5088
  534SOL    HW2 2135   1.880   2.323   2.523 -1.1962  2.1765 -0.8110
  534SOL     MW 2136   1.808   2.343   2.480 -0.3236  0.4693  0.1914
  535SOL     OW 2137   1.861   2.366   1.867  0.0395  0.1698 -1.0960
  535SOL    HW1 2138   1.815   2.387   1.785 -2.0501 -0.5737  1.6305
  535SOL    HW2 2139   1.956   2.387   1.860  0.1354  0.7479 -0.0302
  535SOL     MW 2140   1.868   2.372   1.856 -0.2235  0.1480 -0.5957
  536SOL     OW 2141   0.432   1.887   2.025 -0.3307 -0.0676  0.4043
  536SOL    HW1 2142   0.420   1.809   1.974 -0.9351  0.8290 -3.3135
  536SOL    HW2 2143   0.513   1.930   1.986  0.2375 -0.2925 -1.1656
  536SOL     MW 2144   0.441   1.882   2.013 -0.3355  0.0210 -0.2934
  537SOL     OW 2145   1.006   0.157   2.883 -0.1262 -0.1753 -0.1688
  537SOL    HW1 2146   0.996   0.147   2.975  2.3271  2.4948 -1.6381
  537SOL    HW2 2147   1.031   0.254   2.869  0.1316  0.2164 -2.0506
  537SOL     MW 2148   1.008   0.168   2.893  0.2315  0.2287 -0.6110
  538SOL     OW 2149   1.370   0.062   2.978 -0.0058 -0.4753  0.0567
  538SOL    HW1 2150   1.356   0.154   2.961  2.3897 -0.6225  0.3376
  538SOL    HW2 2151   1.447   0.038   2.928 -0.9714 -0.2869 -0.4797
  538SOL     MW 2152   1.378   0.071   2.969  0.1829 -0.4699  0.0229
  539SOL     OW 2153   0.757   2.772   2.542 -0.0965 -0.4910 -0.3330
  539SOL    HW1 2154   0.857   2.790   2.558  0.0242 -0.2809  1.5667
  539SOL    HW2 2155   0.741   2.687   2.583  1.3959  0.8178 -0.1590
  539SOL     MW 2156   0.768   2.763   2.549  0.1163 -0.2906 -0.0594
  540SOL     OW 2157   0.379   2.398   2.837  0.4818  0.2095 -0.2423
  540SOL    HW1 2158   0.470   2.381   2.865 -1.8701  0.4235 -1.5992
  540SOL    HW2 2159   0.327   2.350   2.902  3.4737  0.3596  1.3784
  540SOL     MW 2160   0.384   2.389   2.849  0.5663  0.2575 -0.2075
  541SOL     OW 2161   0.179   2.941   2.219 -0.1199  0.4968  0.0553
  541SOL    HW1 2162   0.191   2.897   2.134  2.5124  0.4555 -1.2087
  541SOL    HW2 2163   0.212   2.882   2.285 -0.3560 -2.8041  0.7640
  541SOL     MW 2164   0.185   2.927   2.216  0.1962  0.0558 -0.0180
  542SOL     OW 2165   1.000   2.245   2.609  0.1184  0.3029  0.4245
  542SOL    HW1 2166   0.966   2.178   2.661  1.9682  1.9858  1.0279
  542SOL    HW2 2167   1.038   2.312   2.672  0.2516 -0.8720  2.7142
  542SOL     MW 2168   1.000   2.245   2.624  0.3800  0.3700  0.8062
  543SOL     OW 2169   1.437   2.464   2.800 -0.3164 -0.3582  0.8072
  543SOL    HW1 2170   1.462   2.397   2.733  2.2865  0.3577 -1.9176
  543SOL    HW2 2171   1.519   2.519   2.799  0.4889  0.5007  0.0182
  543SOL     MW 2172   1.451   2.462   2.791  0.1333 -0.1504  0.3436
  544SOL     OW 2173   0.726   0.207   2.689  0.8771 -0.4879  0.3437
  544SOL    HW1 2174   0.639   0.179   2.672 -2.6838 -1.5546  0.4899
  544SOL    HW2 2175   0.784   0.142   2.647  0.2918 -1.0263  0.7003
  544SOL     MW 2176   0.722   0.195   2.681  0.3301 -0.6996  0.4100
  545SOL     OW 2177   1.567   2.175   2.326 -0.3523  0.1400 -0.0221
  545SOL    HW1 2178   1.495   2.186   2.261 -1.0164  1.4315 -0.4031
  545SOL    HW2 2179   1.645   2.138   2.277  0.3827  2.0445  1.6841
  545SOL     MW 2180   1.568   2.172   2.311 -0.3429  0.5617  0.1527
  546SOL     OW 2181   3.005   2.011   0.136  0.0823 -0.2342 -0.4735
  546SOL    HW1 2182   2.989   2.077   0.067  1.0069 -2.3335 -0.1126
  546SOL    HW2 2183   3.091   1.975   0.111  2.3527 -1.5875  2.4927
  546SOL     MW 2184   3.014   2.015   0.123  0.5038 -0.6898 -0.0345
  547SOL     OW 2185   0.298   2.988   0.118 -0.1439  1.1344  0.2817
  547SOL    HW1 2186   0.376   3.028   0.067  3.0739  1.0186 -1.8334
  547SOL    HW2 2187   0.297   2.892   0.087  2.2803 -0.5215 -0.0261
  547SOL     MW 2188   0.308   2.980   0.107  0.6005  0.9007 -0.0380
  548SOL     OW 2189   0.274   2.549   0.219 -0.3176 -0.1266 -0.6976
  548SOL    HW1 2190   0.289   2.600   0.140  0.6819 -1.5787  0.9649
  548SOL    HW2 2191   0.180   2.523   0.214  0.2722  0.6650 -0.3397
  548SOL     MW 2192   0.263   2.553   0.208 -0.1079 -0.2138 -0.4310
  549SOL     OW 2193   0.864   1.878   2.159  0.7768 -0.2108  0.0553
  549SOL    HW1 2194   0.822   1.949   2.104 -3.3351 -0.2626  2.4442
  549SOL    HW2 2195   0.818   1.893   2.241 -0.9396 -0.2327  0.9344
  549SOL     MW 2196   0.852   1.890   2.162  0.0078 -0.2205  0.4865
  550SOL     OW 2197   1.791   1.708   2.564 -0.2034 -0.3587  0.7535
  550SOL    HW1 2198   1.787   1.716   2.464 -0.2560  0.7931  1.2114
  550SOL    HW2 2199   1.777   1.792   2.610 -0.8300 -1.5218 -0.5813
  550SOL     MW 2200   1.789   1.720   2.557 -0.2930 -0.3602  0.6378
  551SOL     OW 2201   0.881   2.254   0.236  0.0426  0.3880  0.3539
  551SOL    HW1 2202   0.976   2.258   0.230 -0.2306  0.7209  1.8828
  551SOL    HW2 2203   0.841   2.186   0.179  0.5983 -1.2287 -0.2849
  551SOL     MW 2204   0.888   2.245   0.227  0.0799  0.2186  0.4713
  552SOL     OW 2205   1.776   1.735   2.287  0.3260 -0.2149  0.1805
  552SOL    HW1 2206   1.679   1.712   2.319  0.0158 -0.2770 -0.9943
  552SOL    HW2 2207   1.788   1.664   2.208  1.7606 -3.8255 -1.1166
  552SOL     MW 2208   1.765   1.723   2.281  0.4743 -0.6995 -0.1456
  553SOL     OW 2209   1.196   2.317   1.448  0.0331 -0.2004  0.4940
  553SOL    HW1 2210   1.221   2.230   1.472 -0.1904  2.9369 -0.2646
  553SOL    HW2 2211   1.273   2.376   1.439 -0.8430 -0.4516 -2.2014
  553SOL     MW 2212   1.209   2.313   1.450 -0.1120  0.1804  0.0383
  554SOL     OW 2213   0.541   2.919   2.642 -0.0653 -0.3166 -0.1603
  554SOL    HW1 2214   0.498   2.983   2.584  0.1867 -2.8231  2.3797
  554SOL    HW2 2215   0.613   2.889   2.590  0.0968  1.0924  0.3126
  554SOL     MW 2216   0.545   2.923   2.628 -0.0106 -0.4614  0.2372
  555SOL     OW 2217   0.634   2.496   2.535  0.3311  0.4790 -0.5772
  555SOL    HW1 2218   0.605   2.407   2.547  0.3176  4.1077 -3.6771
  555SOL    HW2 2219   0.723   2.487   2.500 -0.9767  2.4341  2.2637
  555SOL     MW 2220   0.642   2.483   2.532  0.1567  1.2157 -0.6114
  556SOL     OW 2221   0.965   1.812   0.153  0.0977 -0.4458 -0.6556
  556SOL    HW1 2222   1.004   1.838   0.066 -0.1651  3.3783 -1.7017
  556SOL    HW2 2223   1.034   1.844   0.212 -2.5304  0.7246 -1.0889
  556SOL     MW 2224   0.979   1.820   0.149 -0.2838  0.2132 -0.8508
  557SOL     OW 2225   0.978   2.665   0.521  0.0133 -0.4411  0.4214
  557SOL    HW1 2226   1.025   2.642   0.442  0.9058  1.0174  1.3924
  557SOL    HW2 2227   0.906   2.726   0.484  0.2770  2.2899  1.8255
  557SOL     MW 2228   0.975   2.670   0.506  0.1659  0.1117  0.7347
  558SOL     OW 2229   0.272   2.235   3.025  0.0026  0.8814 -0.0419
  558SOL    HW1 2230   0.244   2.145   3.028 -1.6990  1.5692 -3.3253
  558SOL    HW2 2231   0.206   2.269   3.087 -2.2253  1.7887  0.5291
  558SOL     MW 2232   0.259   2.227   3.034 -0.5159  1.0918 -0.3997
  559SOL     OW 2233   1.011   2.338   2.127 -0.2938  0.2579  0.2768
  559SOL    HW1 2234   1.030   2.430   2.148  0.6144 -0.2496 -1.3448
  559SOL    HW2 2235   1.026   2.282   2.211 -1.5075  0.9012  1.5108
  559SOL     MW 2236   1.016   2.343   2.141 -0.3341  0.2758  0.2257
  560SOL     OW 2237   1.973   2.854   0.039  0.6177  0.5062  0.3805
  560SOL    HW1 2238   2.033   2.892  -0.023 -0.2964 -0.3927  0.6012
  560SOL    HW2 2239   1.961   2.774  -0.005  1.1650  0.1307 -0.1150
  560SOL     MW 2240   1.979   2.848   0.025  0.5693  0.3381  0.3442
  561SOL     OW 2241   0.407   2.201   0.175 -0.2684  0.2098 -0.2995
  561SOL    HW1 2242   0.380   2.237   0.083 -1.8014  0.8225 -3.7752
  561SOL    HW2 2243   0.440   2.274   0.220 -1.0923 -0.4445  1.2981
  561SOL     MW 2244   0.408   2.215   0.169 -0.5794  0.2043 -0.5473
  562SOL     OW 2245   0.738   2.189   2.198 -0.4302 -0.7316 -0.3014
  562SOL    HW1 2246   0.751   2.282   2.195 -2.0740 -0.0634  0.8793
  562SOL    HW2 2247   0.816   2.149   2.242  1.2179 -1.6449 -0.1756
  562SOL     MW 2248   0.750   2.196   2.204 -0.4296 -0.7639 -0.1290
  563SOL     OW 2249   1.182   0.309   0.558  0.4077 -0.3116  0.0448
  563SOL    HW1 2250   1.100   0.277   0.517  1.4760 -1.4675  1.1519
  563SOL    HW2 2251   1.212   0.222   0.585 -0.2774  0.4457 -1.3574
  563SOL     MW 2252   1.175   0.294   0.556  0.4583 -0.3642  0.0059
  564SOL     OW 2253   1.047   2.605   2.242  0.0430 -0.5606  0.0600
  564SOL    HW1 2254   1.093   2.620   2.150  0.0725  1.6666  1.8989
  564SOL    HW2 2255   1.105   2.640   2.311  1.5859 -4.0286  2.6630
  564SOL     MW 2256   1.061   2.611   2.239  0.2505 -0.7243  0.6460
  565SOL     OW 2257   2.888   2.734   2.672 -0.5332  0.0181 -0.0017
  565SOL    HW1 2258   2.953   2.798   2.637  0.7976  0.4452  1.8803
  565SOL    HW2 2259   2.806   2.738   2.621 -1.7228  1.3473 -1.8791
  565SOL     MW 2260   2.886   2.743   2.661 -0.5145  0.2498 -0.0011
  566SOL     OW 2261   2.170   1.871   2.360  0.9652 -0.3357 -0.6824
  566SOL    HW1 2262   2.185   1.842   2.271 -0.4840 -1.3873 -0.5548
  566SOL    HW2 2263   2.240   1.942   2.376  0.1625 -0.9733  0.7684
  566SOL     MW 2264   2.181   1.877   2.351  0.6681 -0.5586 -0.4742
  567SOL     OW 2265   1.193   2.899   2.918  0.6761  0.0038  0.1142
  567SOL    HW1 2266   1.239   2.978   2.934 -3.1203 -1.3906 -0.6260
  567SOL    HW2 2267   1.223   2.819   2.956 -1.1948 -0.7411  0.5069
  567SOL     MW 2268   1.203   2.899   2.925 -0.0716 -0.2785  0.0683
  568SOL     OW 2269   1.608   2.151   2.877  0.2968 -0.1934 -0.2163
  568SOL    HW1 2270   1.647   2.197   2.955 -2.2277 -1.1772  0.8779
  568SOL    HW2 2271   1.671   2.086   2.851 -1.6867  2.6092  1.1642
  568SOL     MW 2272   1.621   2.148   2.884 -0.2980  0.0466  0.1102
  569SOL     OW 2273   0.194   2.250   2.483  0.2590  0.1971 -0.4035
  569SOL    HW1 2274   0.124   2.268   2.419 -2.5293 -3.2690 -2.7288
  569SOL    HW2 2275   0.228   2.340   2.500  0.4868  0.3720 -0.5302
  569SOL     MW 2276   0.189   2.264   2.476 -0.0789 -0.2372 -0.7270
  570SOL     OW 2277   1.444   0.385   0.491  0.8014 -0.0981  0.0056
  570SOL    HW1 2278   1.354   0.377   0.531 -1.0203  3.1675  4.1945
  570SOL    HW2 2279   1.504   0.401   0.567  1.1622 -3.5207 -0.7300
  570SOL     MW 2280   1.440   0.386   0.507  0.6087 -0.1189  0.4612
  571SOL     OW 2281   1.506   2.444   2.008  0.3460  0.1558  0.2055
  571SOL    HW1 2282   1.560   2.448   2.091  0.5849  1.0942  1.0924
  571SOL    HW2 2283   1.530   2.360   1.976 -1.1263  1.2662 -0.8191
  571SOL     MW 2284   1.516   2.434   2.015  0.1833  0.4261  0.1874
  572SOL     OW 2285   0.980   2.668   0.050  0.3338  0.0842  0.6994
  572SOL    HW1 2286   0.970   2.646  -0.043  3.7999 -3.0783  0.2235
  572SOL    HW2 2287   0.901   2.643   0.089  0.1340  0.6795 -0.0644
  572SOL     MW 2288   0.968   2.662   0.043  0.7647 -0.2545  0.5359
  573SOL     OW 2289   1.146   2.312   0.220 -0.2954  0.1218 -0.3946
  573SOL    HW1 2290   1.236   2.320   0.196  1.5674  1.2933  1.2206
  573SOL    HW2 2291   1.125   2.406   0.245  2.1041 -1.9531  2.3971
  573SOL     MW 2292   1.155   2.326   0.220  0.2669  0.0026  0.1869
  574SOL     OW 2293   1.116   2.593   0.289 -0.2310 -0.9010  0.1976
  574SOL    HW1 2294   1.173   2.648   0.336  1.5742  0.5088  0.8993
  574SOL    HW2 2295   1.096   2.642   0.207 -1.6063  2.8956 -0.9107
  574SOL     MW 2296   1.121   2.607   0.285 -0.1743 -0.2141  0.1439
  575SOL     OW 2297   0.056   2.281   1.818  0.0371 -0.8240  0.4158
  575SOL    HW1 2298   0.069   2.195   1.779 -0.2187 -0.6907 -2.0698
  575SOL    HW2 2299   0.102   2.331   1.750  1.4088 -1.8813  0.5527
  575SOL     MW 2300   0.064   2.276   1.804  0.1844 -0.9459  0.1059
  576SOL     OW 2301   2.806   1.808   2.108  0.4770 -0.4089  0.1076
  576SOL    HW1 2302   2.831   1.864   2.035 -1.4420 -0.3567  3.0609
  576SOL    HW2 2303   2.721   1.763   2.092  0.8236 -0.8382 -1.0304
  576SOL     MW 2304   2.798   1.810   2.097  0.2695 -0.4587  0.3471
  577SOL     OW 2305   2.085   0.199   0.109  0.1664  0.2166 -0.0414
  577SOL    HW1 2306   2.028   0.227   0.043  0.0595 -2.1907 -0.3540
  577SOL    HW2 2307   2.027   0.151   0.170 -0.4573 -1.2277  0.3575
  577SOL     MW 2308   2.070   0.196   0.108  0.0700 -0.2916 -0.0300
  578SOL     OW 2309   1.930   2.013   2.372 -0.6628 -0.1067 -0.2782
  578SOL    HW1 2310   1.870   1.986   2.302  3.5362 -0.6398 -3.9795
  578SOL    HW2 2311   2.015   1.967   2.353  0.9894 -0.5214  0.8724
  578SOL     MW 2312   1.933   2.003   2.360  0.1092 -0.2317 -0.6147
  579SOL     OW 2313   0.870   2.431   2.402  0.0670 -0.7058  0.0458
  579SOL    HW1 2314   0.912   2.359   2.455 -1.1112  0.4608 -0.9341
  579SOL    HW2 2315   0.945   2.491   2.395  1.2256 -0.4727 -0.9301
  579SOL     MW 2316   0.885   2.430   2.408  0.0644 -0.5211 -0.2123
  580SOL     OW 2317   0.949   2.927   3.059  0.5119 -0.4833 -0.0001
  580SOL    HW1 2318   1.034   2.883   3.042 -0.3775  0.2413 -0.3170
  580SOL    HW2 2319   0.903   2.915   2.977 -0.9837 -1.5125 -0.7682
  580SOL     MW 2320   0.954   2.920   3.046  0.1972 -0.5235 -0.1433
  581SOL     OW 2321   1.147   2.474   1.691 -1.2292 -0.2640 -0.3646
  581SOL    HW1 2322   1.208   2.495   1.754  0.6775  0.0262 -0.2575
  581SOL    HW2 2323   1.192   2.411   1.635  3.0873 -0.1829  0.3338
  581SOL     MW 2324   1.161   2.469   1.692 -0.4081 -0.2150 -0.2583
  582SOL     OW 2325   0.016   2.863   2.568 -0.0098 -0.6820 -0.1715
  582SOL    HW1 2326   0.037   2.926   2.640  0.4546  0.5920 -0.6158
  582SOL    HW2 2327   0.106   2.843   2.555 -0.1451  2.9463 -1.4161
  582SOL     MW 2328   0.031   2.868   2.576  0.0336 -0.0352 -0.3944
  583SOL     OW 2329   2.005   2.397   2.672 -0.3238  0.6959 -0.4541
  583SOL    HW1 2330   2.089   2.392   2.628  0.4266  0.0820 -0.7791
  583SOL    HW2 2331   1.990   2.303   2.704 -1.2953 -1.1747 -0.2193
  583SOL     MW 2332   2.014   2.384   2.671 -0.3530  0.3681 -0.4660
  584SOL     OW 2333   0.231   1.849   2.222 -0.4198  0.2648  0.0216
  584SOL    HW1 2334   0.314   1.843   2.169  0.6564  0.2533  1.5920
  584SOL    HW2 2335   0.230   1.939   2.254 -0.6309  1.1230 -0.6475
  584SOL     MW 2336   0.242   1.860   2.219 -0.3057  0.3765  0.1405
  585SOL     OW 2337   1.532   2.663   0.178 -0.5494  0.0144  0.4842
  585SOL    HW1 2338   1.506   2.590   0.125  0.1694  0.3167  1.7437
  585SOL    HW2 2339   1.463   2.675   0.241  0.0679 -1.0871  2.2579
  585SOL     MW 2340   1.519   2.655   0.180 -0.3731 -0.0910  0.8844
  586SOL     OW 2341   1.341   2.846   2.528 -0.1534  0.5084  0.4070
  586SOL    HW1 2342   1.417   2.798   2.477  1.6645 -2.1313  0.5733
  586SOL    HW2 2343   1.365   2.938   2.535  1.3035 -2.0694 -1.4613
  586SOL     MW 2344   1.355   2.852   2.522  0.2787 -0.1800  0.1824
  587SOL     OW 2345   1.321   1.564   2.187 -0.3756  0.3242 -0.6296
  587SOL    HW1 2346   1.294   1.487   2.245 -2.2314  1.1023  0.4438
  587SOL    HW2 2347   1.289   1.545   2.100  1.2477 -0.5975 -0.1309
  587SOL     MW 2348   1.313   1.551   2.183 -0.4063  0.3052 -0.4222
  588SOL     OW 2349   1.331   2.092   2.755 -0.4194 -0.4041 -0.2380
  588SOL    HW1 2350   1.419   2.107   2.780  0.9368 -1.7415 -0.3956
  588SOL    HW2 2351   1.276   2.089   2.843  0.7374  1.0556  0.9479
  588SOL     MW 2352   1.335   2.094   2.770 -0.0879 -0.3879 -0.1023
  589SOL     OW 2353   1.272   2.039   0.109  0.3983  0.1999  0.3328
  589SOL    HW1 2354   1.314   2.117   0.151  1.1430 -0.1367  0.2980
  589SOL    HW2 2355   1.228   1.992   0.181 -1.1833  0.1789 -1.5106
  589SOL     MW 2356   1.272   2.043   0.124  0.2879  0.1528  0.0850
  590SOL     OW 2357   0.459   2.781   2.212  0.0686  0.3411 -0.2817
  590SOL    HW1 2358   0.462   2.721   2.142 -1.7481  2.2089  2.6379
  590SOL    HW2 2359   0.548   2.792   2.246 -1.3166 -2.4296 -0.6476
  590SOL     MW 2360   0.471   2.775   2.207 -0.3539  0.2220  0.0553
  591SOL     OW 2361   2.254   0.654   0.014 -0.1478 -0.5004  0.5321
  591SOL    HW1 2362   2.183   0.694  -0.035  0.1730 -0.2252 -0.2324
  591SOL    HW2 2363   2.326   0.676  -0.055  3.8888  1.4150 -2.8451
  591SOL     MW 2364   2.254   0.662  -0.001  0.4271 -0.2114 -0.0143
  592SOL     OW 2365   1.775   2.954   0.829  0.5178 -0.2836  0.4153
  592SOL    HW1 2366   1.755   3.033   0.772  0.0418  2.1221 -2.4785
  592SOL    HW2 2367   1.830   2.893   0.783  2.0619  2.4424  0.6573
  592SOL     MW 2368   1.780   2.957   0.816  0.6587  0.3935  0.0654
  593SOL     OW 2369   1.970   0.669   0.836  0.3921 -0.4140 -0.2887
  593SOL    HW1 2370   1.892   0.673   0.779 -0.5055  2.0235 -2.2592
  593SOL    HW2 2371   1.975   0.583   0.876 -0.9541 -0.0172  1.0093
  593SOL     MW 2372   1.960   0.658   0.833  0.0960 -0.0400 -0.3775
  594SOL     OW 2373   2.837   1.149   1.357 -0.2363  0.2319 -0.4024
  594SOL    HW1 2374   2.922   1.190   1.398 -0.3784  0.9395 -0.1613
  594SOL    HW2 2375   2.850   1.111   1.270  0.7130  0.1748  2.7769
  594SOL     MW 2376   2.850   1.149   1.351 -0.1298  0.3177  0.0489
  595SOL     OW 2377   0.409   1.016   0.837 -0.4448  0.1253  0.1642
  595SOL    HW1 2378   0.471   1.057   0.774 -1.9883  1.6112 -0.8429
  595SOL    HW2 2379   0.433   1.074   0.915 -1.1834 -0.2984 -0.6927
  595SOL     MW 2380   0.421   1.029   0.839 -0.7459  0.2655 -0.0817
  596SOL     OW 2381   2.454   1.313   0.590  0.1650 -0.1676 -0.7139
  596SOL    HW1 2382   2.503   1.386   0.555 -1.6465  0.2672 -0.1447
  596SOL    HW2 2383   2.517   1.279   0.654  2.6464 -1.8382 -1.3941
  596SOL     MW 2384   2.468   1.318   0.593  0.2534 -0.3306 -0.7286
  597SOL     OW 2385   2.206   0.705   1.605 -0.1522 -0.1539 -0.0534
  597SOL    HW1 2386   2.225   0.641   1.675 -0.5657 -0.2914  1.1280
  597SOL    HW2 2387   2.135   0.662   1.547  0.1802 -1.7424 -0.1459
  597SOL     MW 2388   2.199   0.691   1.606 -0.1629 -0.3816  0.0903
  598SOL     OW 2389   2.601   1.002   2.860 -0.4890 -0.1197 -0.2965
  598SOL    HW1 2390   2.586   0.978   2.767  1.5070 -1.4291 -0.5547
  598SOL    HW2 2391   2.699   1.022   2.862  2.0328  1.1334 -0.8290
  598SOL     MW 2392   2.612   1.002   2.848  0.1071 -0.1271 -0.4008
  599SOL     OW 2393   2.949   0.411   2.078 -0.4617  0.0623  0.1916
  599SOL    HW1 2394   3.008   0.405   2.157 -0.4687  0.4351  0.9999
  599SOL    HW2 2395   2.974   0.492   2.026  0.3983  1.1107  2.0479
  599SOL     MW 2396   2.960   0.421   2.082 -0.3492  0.2498  0.5432
  600SOL     OW 2397   1.869   1.598   0.829 -0.6927 -0.3422 -0.2061
  600SOL    HW1 2398   1.916   1.646   0.898  0.5955  0.8646 -1.3520
  600SOL    HW2 2399   1.782   1.642   0.834 -0.6978  1.8326  3.0472
  600SOL     MW 2400   1.864   1.610   0.839 -0.5234  0.1040  0.0719
  601SOL     OW 2401   2.494   0.761   0.820  0.5286 -0.2557 -0.6440
  601SOL    HW1 2402   2.481   0.779   0.921  1.9438  2.3153  2.2174
  601SOL    HW2 2403   2.415   0.725   0.785  1.2170 -0.1887 -0.7643
  601SOL     MW 2404   2.482   0.759   0.829  0.8062  0.0923 -0.2823
  602SOL     OW 2405   2.348   1.933   0.814 -0.4750 -0.3066 -0.4105
  602SOL    HW1 2406   2.316   1.850   0.779  1.4864 -1.1631 -0.9881
  602SOL    HW2 2407   2.288   1.994   0.776  0.5011 -1.8515 -1.8216
  602SOL     MW 2408   2.336   1.930   0.805 -0.0874 -0.6234 -0.6729
  603SOL     OW 2409   3.096   1.350   1.815  0.3964 -0.1448 -0.0095
  603SOL    HW1 2410   3.125   1.408   1.887 -2.6102 -1.7280  0.3270
  603SOL    HW2 2411   3.064   1.278   1.868 -0.8436 -0.4646  0.7681
  603SOL     MW 2412   3.096   1.348   1.832 -0.1639 -0.3959  0.1375
  604SOL     OW 2413   2.169   1.566   0.453 -0.0921 -1.2622 -0.0077
  604SOL    HW1 2414   2.169   1.474   0.483 -1.7196 -0.8525  2.3612
  604SOL    HW2 2415   2.099   1.612   0.513 -2.6150 -0.3123  1.4203
  604SOL     MW 2416   2.160   1.560   0.465 -0.6397 -1.0828  0.4933
  605SOL     OW 2417   2.605   1.491   0.843  0.0332 -0.9231  0.2939
  605SOL    HW1 2418   2.564   1.554   0.776 -0.0336  0.0613 -0.9687
  605SOL    HW2 2419   2.623   1.400   0.812  1.6516  0.7052 -1.2793
  605SOL     MW 2420   2.602   1.488   0.830  0.2379 -0.5784 -0.0802
  606SOL     OW 2421   2.584   1.712   2.004 -0.0375 -0.9947  0.3164
  606SOL    HW1 2422   2.491   1.732   2.010  0.8926 -1.6919 -0.0062
  606SOL    HW2 2423   2.595   1.667   1.921  0.6943  0.2708 -1.8712
  606SOL     MW 2424   2.573   1.709   1.994  0.1818 -0.9197 -0.0148
  607SOL     OW 2425   2.390   1.125   3.048  0.1818 -0.2365 -0.3650
  607SOL    HW1 2426   2.463   1.105   2.988  1.5394  0.9944 -1.1500
  607SOL    HW2 2427   2.418   1.080   3.128  1.4791 -0.9026  1.7164
  607SOL     MW 2428   2.404   1.116   3.051  0.5321 -0.1620 -0.1939
  608SOL     OW 2429   1.856   0.272   0.618  0.3549  0.1779 -0.4743
  608SOL    HW1 2430   1.856   0.319   0.534 -2.6435 -0.9532  0.4730
  608SOL    HW2 2431   1.799   0.196   0.615 -0.1339  0.1280 -0.0905
  608SOL     MW 2432   1.849   0.268   0.606 -0.1052  0.0221 -0.2987
  609SOL     OW 2433   2.048   1.997   3.020  0.0628 -0.1911 -0.2834
  609SOL    HW1 2434   1.981   1.934   3.005  0.1980 -2.7428  2.4458
  609SOL    HW2 2435   2.088   1.954   3.101  0.3460 -2.9208  1.3286
  609SOL     MW 2436   2.044   1.983   3.029  0.1180 -0.8879  0.2894
  610SOL     OW 2437   1.788   0.991   1.286 -0.2096 -0.2170  0.3791
  610SOL    HW1 2438   1.792   0.921   1.221  1.7500  1.6102  2.2991
  610SOL    HW2 2439   1.696   1.000   1.306  0.5085  2.0715  1.4547
  610SOL     MW 2440   1.776   0.983   1.280  0.1437  0.3260  0.7743
  611SOL     OW 2441   2.537   1.716   0.688 -0.0609 -0.3731 -0.4536
  611SOL    HW1 2442   2.548   1.807   0.723 -1.3141  1.1603  1.2833
  611SOL    HW2 2443   2.440   1.711   0.692  1.0737  0.5791  1.7094
  611SOL     MW 2444   2.526   1.728   0.693 -0.0765 -0.0452  0.0609
  612SOL     OW 2445   2.811   2.832   0.415  0.6267  0.0072 -0.3633
  612SOL    HW1 2446   2.857   2.882   0.488  0.2937 -1.1051 -0.4925
  612SOL    HW2 2447   2.888   2.794   0.363  0.8854 -0.4205  0.5394
  612SOL     MW 2448   2.827   2.834   0.418  0.6169 -0.1960 -0.2612
  613SOL     OW 2449   1.477   1.017   0.910  0.0372  0.2276 -0.4636
  613SOL    HW1 2450   1.485   1.111   0.908 -0.9184  0.4228  2.9320
  613SOL    HW2 2451   1.516   0.991   0.994  1.3460  2.5256 -3.3114
  613SOL     MW 2452   1.483   1.026   0.921  0.0838  0.5565 -0.3913
  614SOL     OW 2453   2.025   0.570   1.460 -0.2287 -0.1487 -0.3653
  614SOL    HW1 2454   2.018   0.494   1.525  0.7593  3.1850  4.4308
  614SOL    HW2 2455   1.972   0.546   1.384  1.1009  2.2522  2.0073
  614SOL     MW 2456   2.017   0.557   1.459  0.0770  0.6079  0.5805
  615SOL     OW 2457   2.385   0.745   0.240  0.0934  0.3816 -0.2625
  615SOL    HW1 2458   2.401   0.654   0.269  0.2921 -0.9230 -2.4152
  615SOL    HW2 2459   2.322   0.719   0.165 -2.0634 -3.4025 -2.5889
  615SOL     MW 2460   2.378   0.730   0.234 -0.1650 -0.2898 -0.8535
  616SOL     OW 2461   2.544   0.408   1.652  0.0278  0.2008  0.0371
  616SOL    HW1 2462   2.498   0.354   1.593 -2.3394  0.7555  0.8935
  616SOL    HW2 2463   2.537   0.494   1.608  1.9556  0.4009 -0.4890
  616SOL     MW 2464   2.537   0.412   1.638 -0.0301  0.3004  0.0807
  617SOL     OW 2465   2.810   0.651   1.732 -0.4748 -0.4270 -0.5651
  617SOL    HW1 2466   2.752   0.623   1.798  1.3465 -3.1889 -0.2225
  617SOL    HW2 2467   2.823   0.568   1.691 -1.3415  0.5688 -0.7228
  617SOL     MW 2468   2.804   0.637   1.735 -0.3488 -0.6601 -0.5407
  618SOL     OW 2469   2.739   0.353   1.930  0.0012 -0.1964  0.2926
  618SOL    HW1 2470   2.688   0.435   1.944  1.6762 -0.5193  2.9986
  618SOL    HW2 2471   2.816   0.368   1.991  2.9949  0.3782 -2.6102
  618SOL     MW 2472   2.743   0.366   1.940  0.6172 -0.1632  0.2667
  619SOL     OW 2473   2.663   0.682   0.087 -0.5075  0.4563 -0.1401
  619SOL    HW1 2474   2.712   0.770   0.103  1.0515  1.1579  2.7586
  619SOL    HW2 2475   2.610   0.655   0.164  0.1027 -0.8397 -0.3282
  619SOL     MW 2476   2.662   0.690   0.099 -0.2213  0.3779  0.2176
  620SOL     OW 2477   2.212   1.059   0.965 -0.1850 -0.0565 -1.4420
  620SOL    HW1 2478   2.278   1.039   0.899 -1.0972 -1.9451  1.8516
  620SOL    HW2 2479   2.137   1.018   0.928 -0.5606 -1.2264  0.6584
  620SOL     MW 2480   2.210   1.051   0.951 -0.3549 -0.4600 -0.7303
  621SOL     OW 2481   1.551   2.179   1.902 -0.3555  0.3096 -0.3400
  621SOL    HW1 2482   1.501   2.124   1.968  0.2850  2.0427  0.6711
  621SOL    HW2 2483   1.639   2.150   1.907  2.2013 -0.6428 -3.2206
  621SOL     MW 2484   1.556   2.168   1.911  0.0664  0.4126 -0.5866
  622SOL     OW 2485   2.624   0.173   0.229  0.1601  0.0609 -0.2661
  622SOL    HW1 2486   2.711   0.212   0.239  0.0299 -0.4750  1.1494
  622SOL    HW2 2487   2.633   0.085   0.267 -0.3656  1.2625  0.9014
  622SOL     MW 2488   2.636   0.167   0.235  0.0736  0.1487  0.0747
  623SOL     OW 2489   2.379   2.774   0.841  0.5036  0.6215 -0.0481
  623SOL    HW1 2490   2.441   2.851   0.843  1.5868 -0.9820 -1.4311
  623SOL    HW2 2491   2.344   2.762   0.928  2.9460 -1.5704 -0.7865
  623SOL     MW 2492   2.382   2.783   0.853  0.9688  0.1207 -0.3280
  624SOL     OW 2493   2.158   1.703   2.980 -0.5197 -0.3320  0.0798
  624SOL    HW1 2494   2.142   1.635   3.039 -3.1757 -1.6289 -2.1013
  624SOL    HW2 2495   2.082   1.750   2.975  1.1469 -1.5149  0.7695
  624SOL     MW 2496   2.146   1.700   2.987 -0.6503 -0.6591 -0.1170
  625SOL     OW 2497   2.205   1.903   1.069  0.0362  0.1252 -0.9276
  625SOL    HW1 2498   2.284   1.891   1.128 -2.1643  0.0329 -1.1095
  625SOL    HW2 2499   2.242   1.902   0.981 -0.9331  2.4620 -0.5481
  625SOL     MW 2500   2.220   1.901   1.065 -0.3820  0.4213 -0.9015
  626SOL     OW 2501   0.313   1.603   2.369  0.2018  0.9236  0.7008
  626SOL    HW1 2502   0.258   1.530   2.398 -3.2789  0.3311  1.5395
  626SOL    HW2 2503   0.258   1.673   2.341 -1.7329 -0.8232  0.6553
  626SOL     MW 2504   0.299   1.603   2.369 -0.5127  0.6149  0.8055
  627SOL     OW 2505   2.440   0.707   2.571 -0.0766  0.2141 -0.4663
  627SOL    HW1 2506   2.402   0.796   2.585  0.0950 -0.6642 -2.0135
  627SOL    HW2 2507   2.431   0.701   2.478  0.0458  0.4991  0.9356
  627SOL     MW 2508   2.434   0.718   2.560 -0.0378  0.1358 -0.4855
  628SOL     OW 2509   2.346   1.424   1.342  0.2229  0.5811 -0.3547
  628SOL    HW1 2510   2.294   1.352   1.302  1.4417  0.7579  1.1144
  628SOL    HW2 2511   2.427   1.416   1.293 -1.3614  1.2518  2.6728
  628SOL     MW 2512   2.350   1.414   1.330  0.1746  0.6929  0.2386
  629SOL     OW 2513   1.868   0.527   1.239  0.0825  0.3760 -0.5567
  629SOL    HW1 2514   1.862   0.621   1.219  0.7458  0.9231 -1.6584
  629SOL    HW2 2515   1.775   0.501   1.263 -1.6874  0.4583  3.2889
  629SOL     MW 2516   1.855   0.536   1.239 -0.0635  0.4591 -0.1947
  630SOL     OW 2517   2.406   1.814   3.036  0.2029 -0.3060  0.7217
  630SOL    HW1 2518   2.417   1.896   2.987 -1.0047 -1.3331  3.2960
  630SOL    HW2 2519   2.311   1.784   3.032 -1.4924 -2.5881 -0.5983
  630SOL     MW 2520   2.395   1.821   3.029 -0.1801 -0.7426  0.8872
  631SOL     OW 2521   2.021   1.826   1.589  0.4157  0.1298 -0.5105
  631SOL    HW1 2522   2.027   1.734   1.612  4.0285  2.5720 -1.1635
  631SOL    HW2 2523   2.029   1.835   1.493  0.4054 -2.2241  0.9942
  631SOL     MW 2524   2.023   1.815   1.580  0.8910  0.1415 -0.3981
  632SOL     OW 2525   0.179   1.941   1.395  0.0454 -0.1531 -0.7254
  632SOL    HW1 2526   0.137   1.939   1.485 -0.5050 -1.4159  1.4757
  632SOL    HW2 2527   0.164   1.858   1.355  1.7049  2.2255  2.6968
  632SOL     MW 2528   0.172   1.930   1.402  0.1917 -0.0059  0.0165
  633SOL     OW 2529   2.556   0.504   0.306 -0.1819  0.7405 -0.2825
  633SOL    HW1 2530   2.600   0.522   0.393 -1.2641  0.4713  1.1522
  633SOL    HW2 2531   2.514   0.424   0.329  0.8886 -0.4591 -0.1520
  633SOL     MW 2532   2.556   0.496   0.321 -0.1834  0.5467 -0.0760
  634SOL     OW 2533   2.649   0.048   0.655  0.2279  0.1545 -0.4877
  634SOL    HW1 2534   2.692   0.134   0.662  0.5788 -1.5165  4.1651
  634SOL    HW2 2535   2.633   0.021   0.565 -0.4364  1.8903 -2.0738
  634SOL     MW 2536   2.652   0.056   0.644  0.1865  0.1630 -0.0831
  635SOL     OW 2537   2.600   0.115   1.849 -0.1533 -0.3125 -0.0786
  635SOL    HW1 2538   2.661   0.061   1.798 -1.1635  5.1912 -1.9267
  635SOL    HW2 2539   2.650   0.189   1.869 -0.6678 -1.2235  0.6388
  635SOL     MW 2540   2.614   0.118   1.845 -0.3545  0.2935 -0.2278
  636SOL     OW 2541   2.822   1.597   1.012 -0.3304 -0.2066 -0.9520
  636SOL    HW1 2542   2.742   1.632   1.052 -0.0952  1.0314 -1.7800
  636SOL    HW2 2543   2.871   1.675   0.982 -1.2205 -2.3856  0.0011
  636SOL     MW 2544   2.818   1.612   1.013 -0.4168 -0.3308 -0.9355
  637SOL     OW 2545   2.874   1.461   0.747 -0.1579 -0.3062  0.0459
  637SOL    HW1 2546   2.904   1.540   0.703 -2.0290 -2.5927 -3.2202
  637SOL    HW2 2547   2.803   1.490   0.809  1.3761 -0.2780  0.3256
  637SOL     MW 2548   2.869   1.475   0.750 -0.2024 -0.6042 -0.3481
  638SOL     OW 2549   2.696   0.515   0.586 -0.1295  0.1695 -0.0989
  638SOL    HW1 2550   2.781   0.517   0.535  0.3053 -3.7652  2.0382
  638SOL    HW2 2551   2.720   0.562   0.665 -1.7905 -0.5947 -0.7933
  638SOL     MW 2552   2.711   0.522   0.590 -0.2913 -0.4505  0.0914
  639SOL     OW 2553   1.736   0.025   0.585 -0.7236  0.1492 -0.3256
  639SOL    HW1 2554   1.649   0.054   0.580 -0.1177  1.9826 -2.1777
  639SOL    HW2 2555   1.747  -0.046   0.524 -1.7575  0.2742 -0.8384
  639SOL     MW 2556   1.726   0.019   0.576 -0.7801  0.4076 -0.6376
  640SOL     OW 2557   0.323   1.297   0.129 -0.3115  0.0429 -0.0600
  640SOL    HW1 2558   0.369   1.322   0.042 -1.1420 -1.1082 -1.5405
  640SOL    HW2 2559   0.297   1.200   0.116 -1.0593 -2.2326 -3.3051
  640SOL     MW 2560   0.326   1.288   0.116 -0.5198 -0.4092 -0.6835
  641SOL     OW 2561   2.174   0.392   0.394  0.0808  0.1769  0.3765
  641SOL    HW1 2562   2.208   0.381   0.300  1.6243  0.1396  1.9862
  641SOL    HW2 2563   2.233   0.344   0.447  0.5431  1.2615  0.9904
  641SOL     MW 2564   2.186   0.384   0.389  0.3455  0.3151  0.6699
  642SOL     OW 2565   0.055   3.087   0.563 -0.2818 -0.2684  0.0754
  642SOL    HW1 2566   0.021   3.176   0.527 -3.2883  0.4752 -1.4696
  642SOL    HW2 2567  -0.027   3.049   0.591  1.5046  1.7337  1.3760
  642SOL     MW 2568   0.040   3.094   0.562 -0.4428  0.0938  0.0432
  643SOL     OW 2569   1.982   0.353   1.620  0.3148  0.3668  0.0998
  643SOL    HW1 2570   1.895   0.332   1.667 -0.9533  3.0374  1.6385
  643SOL    HW2 2571   2.007   0.271   1.570 -0.3543 -0.4433  0.3415
  643SOL     MW 2572   1.974   0.340   1.620  0.0592  0.6123  0.3347
  644SOL     OW 2573   2.763   1.990   1.060 -0.0475 -0.5905  0.3278
  644SOL    HW1 2574   2.724   1.925   1.120  0.4015 -2.1067 -1.5908
  644SOL    HW2 2575   2.683   2.044   1.036  0.1218  1.9478 -0.1431
  644SOL     MW 2576   2.747   1.988   1.065  0.0340 -0.4557  0.0125
  645SOL     OW 2577   2.841   0.842   0.632 -0.1040 -0.4683  0.4002
  645SOL    HW1 2578   2.925   0.816   0.663 -0.6841 -1.0057  0.5318
  645SOL    HW2 2579   2.775   0.795   0.690 -0.4822  0.8776  2.0646
  645SOL     MW 2580   2.843   0.833   0.644 -0.2304 -0.3616  0.6371
  646SOL     OW 2581   0.098   2.287   0.845 -0.2216 -0.2093  0.1487
  646SOL    HW1 2582   0.127   2.189   0.833 -3.0504 -0.3667 -3.1499
  646SOL    HW2 2583   0.021   2.301   0.790  0.0745 -2.0480  1.6880
  646SOL     MW 2584   0.091   2.276   0.836 -0.5558 -0.4726 -0.0834
  647SOL     OW 2585   2.689   0.467   2.898 -0.7949  0.1844  0.0733
  647SOL    HW1 2586   2.699   0.464   2.992  3.7347  1.0189 -0.1740
  647SOL    HW2 2587   2.595   0.453   2.884 -0.2038 -1.4497 -0.2530
  647SOL     MW 2588   2.678   0.464   2.909 -0.1192  0.0789 -0.0024
  648SOL     OW 2589   2.106   0.737   1.185  0.3330  0.1128 -0.2353
  648SOL    HW1 2590   2.143   0.663   1.228 -0.7541 -1.9585  2.1805
  648SOL    HW2 2591   2.182   0.803   1.182  2.1147  0.0554  0.9502
  648SOL     MW 2592   2.121   0.736   1.190  0.4247 -0.1681  0.2399
  649SOL     OW 2593   2.385   2.660   1.275 -0.1738 -0.2183  0.3859
  649SOL    HW1 2594   2.462   2.715   1.291  0.5378  1.9721 -0.1523
  649SOL    HW2 2595   2.405   2.567   1.259 -0.3186 -3.4671 -0.1984
  649SOL     MW 2596   2.398   2.655   1.275 -0.0991 -0.3579  0.2378
  650SOL     OW 2597   2.854   0.229   0.619 -0.0692  0.3045  0.5860
  650SOL    HW1 2598   2.898   0.298   0.668 -0.7349  1.5320 -0.2043
  650SOL    HW2 2599   2.915   0.205   0.540 -0.7039 -1.3355 -3.7449
  650SOL     MW 2600   2.868   0.235   0.615 -0.2408  0.2501 -0.0897
  651SOL     OW 2601   3.056   0.428   0.946  0.7920 -0.1773  0.3070
  651SOL    HW1 2602   3.102   0.481   0.875  0.2753  4.6795  0.4322
  651SOL    HW2 2603   3.015   0.496   1.003 -0.3004 -1.1407  1.9148
  651SOL     MW 2604   3.056   0.444   0.944  0.5797  0.3364  0.5356
  652SOL     OW 2605   2.442   1.540   3.028 -0.4948  0.9462  0.4676
  652SOL    HW1 2606   2.519   1.539   2.967 -2.3347  1.1650 -0.0866
  652SOL    HW2 2607   2.426   1.636   3.034 -3.4302 -2.9889  1.2942
  652SOL     MW 2608   2.450   1.552   3.021 -1.1248  0.4558  0.5036
  653SOL     OW 2609   1.804   0.435   0.397  0.6196  0.4940 -0.4293
  653SOL    HW1 2610   1.739   0.380   0.346 -2.3394 -0.0343 -0.5616
  653SOL    HW2 2611   1.880   0.442   0.336  0.7040  1.9282  2.4853
  653SOL     MW 2612   1.805   0.429   0.382  0.2403  0.6135 -0.0622
  654SOL     OW 2613   2.421   1.036   0.773  0.0697 -0.0369 -0.1125
  654SOL    HW1 2614   2.361   1.014   0.699  2.0758  0.2226 -0.3943
  654SOL    HW2 2615   2.473   0.954   0.805  0.5521  2.3521  1.4795
  654SOL     MW 2616   2.420   1.022   0.767  0.3980  0.3125  0.0604
  655SOL     OW 2617   2.938   0.838   0.371  0.4044 -0.2984 -0.3509
  655SOL    HW1 2618   2.907   0.859   0.458  0.7528  0.5408 -0.1033
  655SOL    HW2 2619   2.929   0.745   0.370  0.3813 -2.1159  0.7683
  655SOL     MW 2620   2.933   0.829   0.382  0.4473 -0.4275 -0.1705
  656SOL     OW 2621   1.883   2.726   1.344 -0.2562 -0.5481  0.1732
  656SOL    HW1 2622   1.904   2.815   1.334  0.6113 -2.4524  1.1911
  656SOL    HW2 2623   1.944   2.690   1.410  1.9593 -2.9124  2.7626
  656SOL     MW 2624   1.894   2.733   1.352  0.1505 -1.1113  0.6491
  657SOL     OW 2625   0.133   1.771   1.180 -0.6144  0.3982  0.3337
  657SOL    HW1 2626   0.209   1.798   1.134 -2.0071  0.2435  0.2809
  657SOL    HW2 2627   0.143   1.672   1.174 -2.9805 -1.5389 -0.5284
  657SOL     MW 2628   0.144   1.762   1.173 -1.1104  0.1222  0.2130
  658SOL     OW 2629   2.680   1.353   0.255 -0.1285  0.0323 -0.2063
  658SOL    HW1 2630   2.657   1.282   0.323  0.3780 -1.6937  3.0912
  658SOL    HW2 2631   2.702   1.422   0.318  0.7593  1.6002  0.6677
  658SOL     MW 2632   2.680   1.353   0.272  0.0554  0.0114  0.3441
  659SOL     OW 2633   2.274   1.545   1.022 -0.2127 -0.3645 -0.4979
  659SOL    HW1 2634   2.363   1.517   1.061  0.3262  0.0281  0.3299
  659SOL    HW2 2635   2.235   1.586   1.093  1.8421  1.3348 -0.4550
  659SOL     MW 2636   2.281   1.547   1.036  0.1295 -0.0885 -0.3831
  660SOL     OW 2637   2.056   1.574   1.670  0.2806  0.3286 -0.0637
  660SOL    HW1 2638   2.039   1.589   1.767 -0.0735 -1.2507  0.3101
  660SOL    HW2 2639   1.980   1.514   1.649 -2.4997  1.2535  0.8921
  660SOL     MW 2640   2.044   1.568   1.680 -0.1329  0.2423  0.1117
  661SOL     OW 2641   2.455   1.019   0.181 -0.1668 -0.5096  0.0208
  661SOL    HW1 2642   2.526   1.031   0.246  1.3267  0.1951 -1.0556
  661SOL    HW2 2643   2.424   0.930   0.199  2.0468  0.0624 -1.9137
  661SOL     MW 2644   2.460   1.009   0.192  0.3223 -0.3411 -0.3764
  662SOL     OW 2645   2.558   2.979   0.897 -0.1579  0.1435  0.5059
  662SOL    HW1 2646   2.488   3.034   0.937 -0.2114 -1.1605 -0.4599
  662SOL    HW2 2647   2.583   3.039   0.826 -1.0744 -0.4879  0.5850
  662SOL     MW 2648   2.552   2.994   0.893 -0.2859 -0.1119  0.3889
  663SOL     OW 2649   2.642   1.496   0.506 -0.1286 -0.1790 -0.1480
  663SOL    HW1 2650   2.643   1.590   0.489  2.9142  3.4651  0.1148
  663SOL    HW2 2651   2.703   1.495   0.577 -0.2736  1.0728 -1.2086
  663SOL     MW 2652   2.650   1.509   0.513  0.2538  0.4670 -0.2532
  664SOL     OW 2653   2.540   1.518   1.547  0.0184  0.4937  0.2422
  664SOL    HW1 2654   2.504   1.603   1.567  1.4877  0.9667  0.5691
  664SOL    HW2 2655   2.480   1.451   1.578  0.1639 -1.9198 -1.6558
  664SOL     MW 2656   2.527   1.521   1.554  0.2315  0.2377  0.0349
  665SOL     OW 2657   2.853   0.863   2.007  0.0587  0.0430  0.2092
  665SOL    HW1 2658   2.844   0.905   1.925 -1.6937 -1.8121 -0.6040
  665SOL    HW2 2659   2.908   0.791   1.987  0.2406  2.1289 -0.8122
  665SOL     MW 2660   2.859   0.859   1.994 -0.1485  0.0734 -0.0329
  666SOL     OW 2661   2.788   3.050   1.727  0.3797 -0.2405  0.0132
  666SOL    HW1 2662   2.801   3.047   1.631  1.2934  3.1529 -0.0975
  666SOL    HW2 2663   2.734   2.977   1.747 -0.3694  0.0798  0.2372
  666SOL     MW 2664   2.783   3.040   1.717  0.4014  0.2495  0.0282
  667SOL     OW 2665   1.953   2.671   1.794 -0.6541 -0.4665  0.3093
  667SOL    HW1 2666   1.941   2.689   1.889  2.2889 -0.0201  1.7469
  667SOL    HW2 2667   2.014   2.741   1.765  0.1222 -1.3294  0.4779
  667SOL     MW 2668   1.960   2.683   1.802 -0.1634 -0.5215  0.5212
  668SOL     OW 2669   2.748   0.654   0.832 -0.6100  0.0394  0.1533
  668SOL    HW1 2670   2.800   0.683   0.913 -3.1419 -1.6964 -1.3651
  668SOL    HW2 2671   2.661   0.682   0.850  3.0003 -0.2776 -0.6612
  668SOL     MW 2672   2.743   0.661   0.845 -0.4677 -0.2314 -0.1545
  669SOL     OW 2673   0.208   0.932   0.674  0.0070 -0.8002  0.0815
  669SOL    HW1 2674   0.162   0.984   0.734  1.9088  2.0836 -0.6308
  669SOL    HW2 2675   0.288   0.927   0.719 -0.4130  0.6416 -3.1556
  669SOL     MW 2676   0.212   0.938   0.688  0.2025 -0.2295 -0.4396
  670SOL     OW 2677   2.892   0.251   0.206 -0.0478  0.6501 -0.5285
  670SOL    HW1 2678   2.924   0.199   0.130  0.7428 -2.7680 -0.2727
  670SOL    HW2 2679   2.903   0.337   0.170  0.1503  1.1301  1.3494
  670SOL     MW 2680   2.898   0.255   0.191  0.0827  0.2625 -0.2470
  671SOL     OW 2681   2.056   3.032   1.525  0.3960 -0.0377  0.0567
  671SOL    HW1 2682   1.997   3.015   1.448 -0.5382 -1.2802 -1.1472
  671SOL    HW2 2683   2.001   3.070   1.597  1.0699  0.6302  2.7473
  671SOL     MW 2684   2.041   3.035   1.524  0.3617 -0.1135  0.2528
  672SOL     OW 2685   1.911   1.725   1.319 -0.4347  0.5349  0.2146
  672SOL    HW1 2686   1.827   1.759   1.341 -1.6271 -0.3874 -1.1341
  672SOL    HW2 2687   1.923   1.759   1.234  0.5649 -1.2450 -0.1106
  672SOL     MW 2688   1.901   1.734   1.311 -0.4602  0.1784 -0.0062
  673SOL     OW 2689   2.776   1.101   0.601  0.0883  0.4722  0.1774
  673SOL    HW1 2690   2.784   1.005   0.612 -2.1321  2.8709  0.9275
  673SOL    HW2 2691   2.858   1.139   0.620  1.0477 -1.7355 -2.5790
  673SOL     MW 2692   2.788   1.093   0.605 -0.0781  0.4974 -0.0873
  674SOL     OW 2693   2.441   3.071   1.305 -0.0181 -0.6972  0.4527
  674SOL    HW1 2694   2.421   3.095   1.213  1.5991  1.2272  1.8075
  674SOL    HW2 2695   2.430   2.977   1.313 -0.5870 -0.1774  1.7006
  674SOL     MW 2696   2.437   3.062   1.294  0.1203 -0.3747  0.7961
  675SOL     OW 2697   3.075   0.907   1.061  0.1332  0.0034 -0.0812
  675SOL    HW1 2698   3.149   0.871   1.102 -3.4739 -0.1845 -0.8068
  675SOL    HW2 2699   3.102   0.968   0.990  2.1478 -1.3453 -0.0070
  675SOL     MW 2700   3.088   0.910   1.057 -0.0769 -0.1994 -0.1671
  676SOL     OW 2701   2.909   1.498   1.677  0.2760 -0.1904  0.4626
  676SOL    HW1 2702   2.845   1.428   1.649  1.0149  0.7522 -0.9277
  676SOL    HW2 2703   2.965   1.437   1.718 -2.2975 -1.0942 -0.1073
  676SOL     MW 2704   2.908   1.481   1.678  0.0339 -0.1853  0.2040
  677SOL     OW 2705   2.382   0.582   2.002 -0.6005  0.8761  0.7378
  677SOL    HW1 2706   2.322   0.534   1.942 -0.9033  0.8243 -0.2550
  677SOL    HW2 2707   2.343   0.668   2.010 -3.6841  2.2178 -0.6415
  677SOL     MW 2708   2.369   0.587   1.995 -1.0473  1.0463  0.4248
  678SOL     OW 2709   2.554   1.670   0.280 -0.0936  0.3551 -0.2971
  678SOL    HW1 2710   2.488   1.701   0.350 -1.6077  0.8295 -0.9069
  678SOL    HW2 2711   2.505   1.588   0.254 -1.0366 -2.3544  1.5482
  678SOL     MW 2712   2.539   1.663   0.286 -0.4178  0.0602 -0.1341
  679SOL     OW 2713   2.210   0.461   1.292  0.1430 -0.2021  0.5711
  679SOL    HW1 2714   2.199   0.371   1.258 -2.1150  0.5692 -0.8983
  679SOL    HW2 2715   2.127   0.485   1.333  0.9740 -2.1166  3.7383
  679SOL     MW 2716   2.198   0.452   1.293 -0.0453 -0.3529  0.7951
  680SOL     OW 2717   2.361   0.172   1.495 -0.0247 -0.0465 -0.5417
  680SOL    HW1 2718   2.267   0.198   1.483  4.2014 -0.0533 -0.1739
  680SOL    HW2 2719   2.379   0.100   1.428 -0.6516 -2.3081 -3.3256
  680SOL     MW 2720   2.351   0.166   1.485  0.4502 -0.3458 -0.8605
  681SOL     OW 2721   0.301   0.511   1.535 -0.5255 -0.5528 -0.1991
  681SOL    HW1 2722   0.269   0.455   1.600 -0.5857 -0.0260  0.5482
  681SOL    HW2 2723   0.380   0.538   1.576 -1.8352 -2.5354 -2.2236
  681SOL     MW 2724   0.307   0.507   1.549 -0.7062 -0.7449 -0.3676
  682SOL     OW 2725   0.093   2.882   1.493  0.5411 -0.1985  0.0947
  682SOL    HW1 2726   0.147   2.895   1.571  1.9927  2.3897 -0.2290
  682SOL    HW2 2727   0.002   2.902   1.511  1.6808 -0.7732 -2.5846
  682SOL     MW 2728   0.088   2.886   1.506  0.8830  0.0672 -0.3015
  683SOL     OW 2729   2.083   0.819   2.978  0.3136 -0.5322 -0.1501
  683SOL    HW1 2730   1.990   0.793   2.971  0.0975 -0.4320 -1.3493
  683SOL    HW2 2731   2.091   0.904   3.021  0.6390 -1.7284  0.9657
  683SOL     MW 2732   2.072   0.827   2.983  0.3280 -0.6768 -0.1611
  684SOL     OW 2733   2.223   1.668   0.797  0.2985  0.4511 -0.9181
  684SOL    HW1 2734   2.178   1.598   0.746 -0.7145 -1.6061 -1.5674
  684SOL    HW2 2735   2.232   1.627   0.887 -1.1914  0.4061  0.3813
  684SOL     MW 2736   2.218   1.653   0.802 -0.0318  0.1738 -0.8323
  685SOL     OW 2737   2.611   1.744   1.229  0.1257 -0.8290  0.1695
  685SOL    HW1 2738   2.693   1.745   1.281  0.6799  0.8736  0.1359
  685SOL    HW2 2739   2.592   1.654   1.205 -0.3240  0.2347  2.5923
  685SOL     MW 2740   2.619   1.732   1.233  0.1395 -0.4640  0.4847
  686SOL     OW 2741   2.892   0.812   1.519  0.0284 -0.3073  0.1021
  686SOL    HW1 2742   2.861   0.779   1.605  2.0650 -1.9210  0.6530
  686SOL    HW2 2743   2.986   0.791   1.516  0.5903  1.8780  3.7374
  686SOL     MW 2744   2.900   0.805   1.530  0.3713 -0.2319  0.6545
  687SOL     OW 2745   2.156   0.188   1.172  0.0126 -0.0129  0.2095
  687SOL    HW1 2746   2.192   0.109   1.135  0.6783 -2.5177 -1.1801
  687SOL    HW2 2747   2.090   0.223   1.107 -1.0355 -3.0906 -2.1165
  687SOL     MW 2748   2.152   0.182   1.159 -0.0379 -0.7494 -0.2807
  688SOL     OW 2749   2.387   0.583   1.454  0.3748 -0.2932  0.0636
  688SOL    HW1 2750   2.333   0.520   1.390  0.5119  1.0094 -5.1912
  688SOL    HW2 2751   2.319   0.630   1.509 -3.0031 -0.2559  1.7266
  688SOL     MW 2752   2.371   0.581   1.453 -0.0528 -0.1164 -0.4103
  689SOL     OW 2753   2.479   0.772   2.985 -0.4341 -0.0827 -0.2082
  689SOL    HW1 2754   2.505   0.863   2.961 -3.7346  1.9642 -2.0967
  689SOL    HW2 2755   2.549   0.733   3.048 -2.5862 -0.9594 -0.1653
  689SOL     MW 2756   2.492   0.779   2.991 -1.1535  0.0717 -0.4517
  690SOL     OW 2757   2.041   0.914   1.886  0.2648 -0.5347 -0.5844
  690SOL    HW1 2758   2.003   0.827   1.876  1.1178 -2.2158 -0.8817
  690SOL    HW2 2759   2.051   0.940   1.793 -1.6882  0.1542  0.3077
  690SOL     MW 2760   2.037   0.906   1.872  0.1197 -0.6656 -0.5059
  691SOL     OW 2761   2.394   0.316   0.911 -0.0424  0.1181 -0.0013
  691SOL    HW1 2762   2.470   0.364   0.940 -0.2438  1.9337  0.8659
  691SOL    HW2 2763   2.324   0.380   0.897 -0.4524 -0.2059  1.5486
  691SOL     MW 2764   2.395   0.331   0.913 -0.1231  0.3149  0.3176
  692SOL     OW 2765   2.845   1.711   1.380 -0.7935  0.0066 -0.2422
  692SOL    HW1 2766   2.800   1.661   1.446  0.4254  1.1518 -0.8227
  692SOL    HW2 2767   2.888   1.781   1.433  3.3204  1.4813  0.4154
  692SOL     MW 2768   2.844   1.714   1.396 -0.0899  0.3523 -0.2320
  693SOL     OW 2769   2.273   0.412   0.141 -0.6051 -0.1990  0.0029
  693SOL    HW1 2770   2.208   0.348   0.117  1.1572  1.1631  2.1940
  693SOL    HW2 2771   2.245   0.489   0.095 -3.3702  2.6049  0.6577
  693SOL     MW 2772   2.261   0.414   0.132 -0.7374  0.3507  0.3784
  694SOL     OW 2773   1.919   1.207   1.204  0.0138  0.5776  0.2138
  694SOL    HW1 2774   2.011   1.214   1.228  0.8189  0.7845  1.2090
  694SOL    HW2 2775   1.876   1.126   1.237 -0.4626  0.6837 -1.9190
  694SOL     MW 2776   1.925   1.197   1.212  0.0572  0.6189  0.0637
  695SOL     OW 2777   3.034   1.505   1.336  0.0016  0.4795 -0.2938
  695SOL    HW1 2778   3.007   1.461   1.255  1.0233 -1.7497  0.6990
  695SOL    HW2 2779   2.973   1.580   1.333  2.2894 -1.4801 -4.4415
  695SOL     MW 2780   3.022   1.509   1.325  0.4383 -0.0732 -0.7101
  696SOL     OW 2781   2.133   1.314   0.842 -0.1118 -0.2290 -0.2560
  696SOL    HW1 2782   2.153   1.374   0.923 -0.8018  2.1850  0.8660
  696SOL    HW2 2783   2.088   1.234   0.869 -2.2300  0.4181  1.4782
  696SOL     MW 2784   2.129   1.311   0.856 -0.4823  0.1749  0.1208
  697SOL     OW 2785   2.920   1.035   2.217 -0.5335 -0.0488 -0.1105
  697SOL    HW1 2786   2.846   1.095   2.191 -0.7231 -2.4667 -0.0633
  697SOL    HW2 2787   2.916   0.959   2.164  1.4955  1.0440  0.3385
  697SOL     MW 2788   2.909   1.033   2.206 -0.2908 -0.2236 -0.0450
  698SOL     OW 2789   2.545   0.315   0.007  0.6304  0.5429 -0.2400
  698SOL    HW1 2790   2.481   0.358   0.064  1.5996 -1.2628  0.3944
  698SOL    HW2 2791   2.589   0.258   0.070 -1.9127  2.5914  0.1236
  698SOL     MW 2792   2.543   0.313   0.023  0.4227  0.5750 -0.1083
  699SOL     OW 2793   1.799   1.596   2.041 -0.7246 -0.9245  0.8520
  699SOL    HW1 2794   1.755   1.505   2.030 -1.6594  0.1712  1.8836
  699SOL    HW2 2795   1.891   1.567   2.010  0.4612 -0.7141 -0.6614
  699SOL     MW 2796   1.805   1.580   2.036 -0.6915 -0.7522  0.7885
  700SOL     OW 2797   2.672   0.959   1.492 -0.1487 -0.4672 -0.0695
  700SOL    HW1 2798   2.718   1.030   1.447  1.9147 -0.6089  0.2726
  700SOL    HW2 2799   2.740   0.888   1.492  1.5805 -0.9618 -0.6149
  700SOL     MW 2800   2.687   0.959   1.486  0.3517 -0.5512 -0.0963
  701SOL     OW 2801   1.641   1.179   2.442  0.0978  0.2943 -0.2536
  701SOL    HW1 2802   1.729   1.210   2.416 -2.0944  1.0232 -0.0441
  701SOL    HW2 2803   1.605   1.246   2.504  0.3952 -1.7871  0.8289
  701SOL     MW 2804   1.648   1.192   2.447 -0.1522  0.1158 -0.0832
  702SOL     OW 2805   2.127   0.448   0.843 -0.4069 -0.5475  0.3514
  702SOL    HW1 2806   2.124   0.356   0.803 -0.4953  1.3112 -1.1405
  702SOL    HW2 2807   2.163   0.511   0.781 -1.6156 -1.7887 -1.1275
  702SOL     MW 2808   2.131   0.444   0.830 -0.5780 -0.4660 -0.0406
  703SOL     OW 2809   2.733   1.221   1.029  0.0498  0.1669  0.5085
  703SOL    HW1 2810   2.687   1.204   0.940 -1.3310 -3.2473 -2.1668
  703SOL    HW2 2811   2.745   1.134   1.068 -1.4160  2.5167  1.8483
  703SOL     MW 2812   2.728   1.207   1.023 -0.3258  0.0265  0.3323
  704SOL     OW 2813   3.022   1.186   0.101  0.0356 -0.2816 -0.4758
  704SOL    HW1 2814   2.924   1.204   0.082 -3.2278 -0.6995  0.6630
  704SOL    HW2 2815   3.020   1.148   0.184 -1.6235  1.5792 -3.4817
  704SOL     MW 2816   3.009   1.183   0.109 -0.6139 -0.0912 -0.7222
  705SOL     OW 2817   2.179   1.641   1.279  0.9798 -0.5780 -0.2651
  705SOL    HW1 2818   2.096   1.637   1.327 -3.0465 -2.2752  0.1267
  705SOL    HW2 2819   2.229   1.564   1.318 -1.6038 -2.3731 -3.0320
  705SOL     MW 2820   2.175   1.630   1.290  0.1077 -1.0388 -0.5784
  706SOL     OW 2821   3.010   1.211   0.670  0.1243  0.4014 -0.0253
  706SOL    HW1 2822   3.073   1.207   0.592  1.4482 -1.5149 -1.9824
  706SOL    HW2 2823   2.997   1.302   0.694  0.9131 -1.8242 -0.6493
  706SOL     MW 2824   3.016   1.223   0.663  0.4031 -0.1451 -0.3659
  707SOL     OW 2825   2.382   0.067   1.011 -0.6049  0.3908  0.2852
  707SOL    HW1 2826   2.400   0.145   0.960  0.7349  0.8496 -1.9581
  707SOL    HW2 2827   2.288   0.036   0.988 -0.0271 -0.7741 -1.6579
  707SOL     MW 2828   2.372   0.073   1.001 -0.3519  0.2976 -0.2671
  708SOL     OW 2829   2.433   1.456   0.201 -0.3836  0.0090  0.1580
  708SOL    HW1 2830   2.515   1.409   0.204 -0.0565 -2.4641  0.9903
  708SOL    HW2 2831   2.432   1.470   0.107  1.4640 -0.7839 -0.7519
  708SOL     MW 2832   2.444   1.452   0.189 -0.0966 -0.4219  0.1478
  709SOL     OW 2833   1.781   1.649   0.231 -0.1919 -0.5439  0.1012
  709SOL    HW1 2834   1.783   1.679   0.144 -1.9193 -1.7189  2.7283
  709SOL    HW2 2835   1.693   1.672   0.271 -0.1615  1.6263  1.8337
  709SOL     MW 2836   1.770   1.656   0.225 -0.4158 -0.4126  0.6764
  710SOL     OW 2837   2.220   1.228   1.208  0.0329 -0.2901 -0.3495
  710SOL    HW1 2838   2.245   1.190   1.119 -2.3814  1.2403 -1.3190
  710SOL    HW2 2839   2.216   1.144   1.263 -0.1882 -2.2869 -0.7174
  710SOL     MW 2840   2.223   1.212   1.203 -0.3148 -0.3516 -0.5260
  711SOL     OW 2841   2.334   0.132   1.780 -0.1522 -0.1146 -0.4533
  711SOL    HW1 2842   2.428   0.118   1.804  1.4788  2.9930 -1.1297
  711SOL    HW2 2843   2.333   0.124   1.680 -0.7199  2.2943 -0.4856
  711SOL     MW 2844   2.346   0.129   1.770 -0.0119  0.6132 -0.5468
  712SOL     OW 2845   1.919   0.506   0.110 -0.2549 -0.2850  0.3242
  712SOL    HW1 2846   1.827   0.521   0.103 -2.2430  1.3068 -0.2790
  712SOL    HW2 2847   1.943   0.595   0.146 -0.4178 -0.1433  0.4042
  712SOL     MW 2848   1.910   0.520   0.114 -0.5387 -0.0563  0.2552
  713SOL     OW 2849   2.557   0.845   1.082  0.1118  0.5913  0.0784
  713SOL    HW1 2850   2.551   0.763   1.136  1.4491  2.6443 -1.0777
  713SOL    HW2 2851   2.578   0.908   1.144 -0.2483 -1.9728  0.7794
  713SOL     MW 2852   2.559   0.843   1.098  0.2407  0.5239  0.0183
  714SOL     OW 2853   2.236   0.231   2.012 -0.1048 -0.1540  0.3034
  714SOL    HW1 2854   2.255   0.169   2.081  1.6321  4.9249  4.2372
  714SOL    HW2 2855   2.288   0.196   1.941  2.1545  2.0566 -0.1968
  714SOL     MW 2856   2.245   0.218   2.012  0.4224  0.8078  0.7564
  715SOL     OW 2857   1.760   1.889   1.648 -0.2757 -0.4839  0.2037
  715SOL    HW1 2858   1.853   1.867   1.627  0.4655 -2.3952 -1.0749
  715SOL    HW2 2859   1.737   1.840   1.727  0.3440  0.8053 -1.0270
  715SOL     MW 2860   1.769   1.879   1.656 -0.0961 -0.5659 -0.1274
  716SOL     OW 2861   2.297   0.608   0.671  0.2694 -0.6067  0.3992
  716SOL    HW1 2862   2.355   0.534   0.647 -1.4851 -0.3534 -0.2599
  716SOL    HW2 2863   2.258   0.641   0.585 -0.0559 -0.5172  0.8695
  716SOL     MW 2864   2.299   0.603   0.657 -0.0050 -0.5615  0.3743
  717SOL     OW 2865   2.866   1.569   2.913  0.0303  0.4100 -0.4608
  717SOL    HW1 2866   2.960   1.578   2.941 -0.0736  0.0862 -2.3174
  717SOL    HW2 2867   2.806   1.569   2.986  0.7077  0.7622 -0.0580
  717SOL     MW 2868   2.871   1.570   2.926  0.1059  0.4137 -0.6526
  718SOL     OW 2869   2.687   1.393   1.315 -0.0457 -0.0490 -0.1886
  718SOL    HW1 2870   2.660   1.407   1.408 -0.0023  0.3799 -0.4269
  718SOL    HW2 2871   2.737   1.314   1.317 -0.6824  3.1327  1.3924
  718SOL     MW 2872   2.690   1.384   1.328 -0.1240  0.4274 -0.0115
  719SOL     OW 2873   2.184   1.295   0.564  0.1932  0.2163 -0.1161
  719SOL    HW1 2874   2.277   1.295   0.570 -1.2533  1.2670 -1.5017
  719SOL    HW2 2875   2.164   1.313   0.656  0.0493  0.6125 -1.8379
  719SOL     MW 2876   2.194   1.298   0.577 -0.0166  0.4072 -0.5261
  720SOL     OW 2877   2.749   1.214   0.025  0.0227 -0.2768  0.2092
  720SOL    HW1 2878   2.678   1.151   0.046 -0.5318 -0.0494 -2.9641
  720SOL    HW2 2879   2.716   1.280   0.092 -0.3504  1.8701  1.8811
  720SOL     MW 2880   2.735   1.214   0.037 -0.0997  0.0365  0.0111
  721SOL     OW 2881   2.429   0.848   1.363 -0.0896  0.1520 -0.1964
  721SOL    HW1 2882   2.427   0.767   1.416 -0.7107 -1.1545  1.7078
  721SOL    HW2 2883   2.500   0.903   1.402 -0.9020 -0.3857 -0.9741
  721SOL     MW 2884   2.438   0.844   1.375 -0.2787 -0.0913 -0.0478
  722SOL     OW 2885   2.586   1.153   0.398 -0.1309  0.0229  1.1783
  722SOL    HW1 2886   2.508   1.177   0.448  0.7255  0.4542 -0.9966
  722SOL    HW2 2887   2.654   1.133   0.467 -1.1652  2.5706  0.7976
  722SOL     MW 2888   2.584   1.153   0.414 -0.1544  0.4159  0.8411
  723SOL     OW 2889   2.256   1.382   1.600  1.3282 -0.6295 -0.7944
  723SOL    HW1 2890   2.267   1.411   1.509 -0.5562  0.8079  1.6653
  723SOL    HW2 2891   2.178   1.439   1.631 -0.8319  0.0526  1.9242
  723SOL     MW 2892   2.247   1.394   1.592  0.7946 -0.3499 -0.1112
  724SOL     OW 2893   2.456   0.381   0.630  0.1229  0.1786 -0.3493
  724SOL    HW1 2894   2.456   0.333   0.715  1.0462  0.3524  2.5605
  724SOL    HW2 2895   2.548   0.406   0.614 -1.0931 -0.1299 -3.5393
  724SOL     MW 2896   2.468   0.378   0.639  0.0843  0.1609 -0.3863
  725SOL     OW 2897   2.534   0.596   1.188 -0.2217 -0.8322  0.1128
  725SOL    HW1 2898   2.606   0.620   1.242  0.7461  0.6856 -0.5375
  725SOL    HW2 2899   2.460   0.573   1.246  0.8475  1.6377 -0.3223
  725SOL     MW 2900   2.533   0.596   1.203  0.0470 -0.3061 -0.0304
  726SOL     OW 2901   2.608   2.462   0.548 -0.0314 -0.2108 -0.0111
  726SOL    HW1 2902   2.550   2.518   0.495 -1.3328 -0.1510  1.7945
  726SOL    HW2 2903   2.578   2.463   0.643 -1.6046  1.5716  1.8940
  726SOL     MW 2904   2.596   2.470   0.553 -0.4107  0.0322  0.4784
  727SOL     OW 2905   2.881   0.352   1.665  0.6708  0.8752  0.5095
  727SOL    HW1 2906   2.829   0.347   1.579 -0.2361 -1.5803  1.5917
  727SOL    HW2 2907   2.812   0.331   1.729 -0.4845  1.2476  0.4836
  727SOL     MW 2908   2.865   0.348   1.662  0.3987  0.6003  0.6489
  728SOL     OW 2909   2.833   1.177   2.848  0.2355  0.2888  0.1670
  728SOL    HW1 2910   2.803   1.225   2.775  0.4078 -1.1211 -0.1014
  728SOL    HW2 2911   2.823   1.231   2.929  0.0793 -1.4089 -0.2859
  728SOL     MW 2912   2.827   1.190   2.849  0.2376 -0.1212  0.0718
  729SOL     OW 2913   2.540   1.485   1.113 -0.6324  0.3037  0.6118
  729SOL    HW1 2914   2.614   1.444   1.170  0.0881 -0.0276  3.2934
  729SOL    HW2 2915   2.571   1.469   1.023 -2.0505 -2.9242 -1.2714
  729SOL     MW 2916   2.554   1.478   1.109 -0.7244 -0.1659  0.7172
  730SOL     OW 2917   2.198   1.171   0.191  0.6950  0.0087 -0.7226
  730SOL    HW1 2918   2.293   1.146   0.190 -1.7798 -0.9884  1.9660
  730SOL    HW2 2919   2.201   1.266   0.204  0.8054  2.2216 -3.9345
  730SOL     MW 2920   2.211   1.181   0.193  0.3830  0.1691 -0.7916
  731SOL     OW 2921   2.776   1.911   2.856 -0.8425 -0.3518 -0.1605
  731SOL    HW1 2922   2.701   1.939   2.800 -0.9057 -0.2130  0.7548
  731SOL    HW2 2923   2.837   1.977   2.826  0.9541  0.5526 -3.8805
  731SOL     MW 2924   2.774   1.923   2.845 -0.6138 -0.2142 -0.5306
  732SOL     OW 2925   2.212   1.005   1.357 -0.0927 -0.1714  1.0091
  732SOL    HW1 2926   2.163   1.003   1.438 -0.3708  0.3452  0.8964
  732SOL    HW2 2927   2.287   0.949   1.364 -1.1837 -2.4357  1.0503
  732SOL     MW 2928   2.216   0.998   1.368 -0.2733 -0.4020  0.9997
  733SOL     OW 2929   2.362   2.748   3.023  0.3061  0.1219 -0.0190
  733SOL    HW1 2930   2.281   2.802   2.993  0.9248  3.5349  0.4031
  733SOL    HW2 2931   2.332   2.658   3.013  0.1331  0.1923 -1.0943
  733SOL     MW 2932   2.347   2.743   3.017  0.3649  0.5815 -0.1052
  734SOL     OW 2933   1.457   0.360   2.447 -0.1656 -0.5812  0.2210
  734SOL    HW1 2934   1.448   0.340   2.539  2.3916 -0.4963 -0.1668
  734SOL    HW2 2935   1.494   0.276   2.409  0.3774 -1.2769  0.6672
  734SOL     MW 2936   1.461   0.347   2.454  0.2435 -0.6618  0.2287
  735SOL     OW 2937   2.915   0.889   2.615  0.2095 -0.0242  0.5932
  735SOL    HW1 2938   2.913   0.796   2.586  0.6543  0.2951 -1.2731
  735SOL    HW2 2939   2.991   0.895   2.677  0.0310  0.9235 -1.0888
  735SOL     MW 2940   2.925   0.878   2.619  0.2446  0.1429  0.1251
  736SOL     OW 2941   0.099   0.572   2.490 -0.8390  0.0240 -0.5241
  736SOL    HW1 2942   0.141   0.649   2.463 -0.6580 -0.5283 -0.4572
  736SOL    HW2 2943   0.082   0.519   2.413  0.5440 -0.6935 -0.6678
  736SOL     MW 2944   0.102   0.575   2.476 -0.6327 -0.1436 -0.5342
  737SOL     OW 2945   2.925   0.621   2.544  0.2026  0.3075 -0.1140
  737SOL    HW1 2946   2.875   0.576   2.473  0.7516 -1.0277  2.4946
  737SOL    HW2 2947   3.019   0.608   2.541 -1.4208  0.2424  0.8805
  737SOL     MW 2948   2.931   0.614   2.534  0.0609  0.1228  0.3614
  738SOL     OW 2949   0.203   0.600   1.871 -0.5140  0.9904  0.4646
  738SOL    HW1 2950   0.293   0.608   1.899  0.7826  3.4557 -0.3739
  738SOL    HW2 2951   0.194   0.512   1.824 -0.3987  0.5890 -0.0564
  738SOL     MW 2952   0.214   0.590   1.869 -0.3278  1.2627  0.2852
  739SOL     OW 2953   2.439   1.038   2.059  0.1431 -0.7405 -0.2696
  739SOL    HW1 2954   2.377   0.964   2.035 -1.3581  0.8301  1.0521
  739SOL    HW2 2955   2.466   1.067   1.971  0.1505  3.1029  0.4365
  739SOL     MW 2956   2.434   1.032   2.044 -0.0540 -0.0262 -0.0020
  740SOL     OW 2957   0.279   1.759   2.975  0.4603 -0.1511 -0.5929
  740SOL    HW1 2958   0.220   1.685   2.978  0.7581  0.3621 -0.1426
  740SOL    HW2 2959   0.368   1.740   3.014  0.8505 -0.1185 -0.5466
  740SOL     MW 2960   0.283   1.746   2.980  0.5511 -0.0791 -0.5274
  741SOL     OW 2961   2.256   1.191   2.739 -0.0513 -0.6943  0.4168
  741SOL    HW1 2962   2.176   1.217   2.695 -2.5111 -1.4878 -0.6179
  741SOL    HW2 2963   2.272   1.275   2.787 -1.5868  2.0919  0.0394
  741SOL     MW 2964   2.248   1.206   2.740 -0.5785 -0.4314  0.2305
  742SOL     OW 2965   1.509   1.251   2.223  0.0779 -0.5474  0.2308
  742SOL    HW1 2966   1.516   1.165   2.185  1.1889  1.0653 -0.1194
  742SOL    HW2 2967   1.555   1.237   2.306 -0.1177 -1.0919 -1.1643
  742SOL     MW 2968   1.516   1.238   2.229  0.1987 -0.4065  0.0006
  743SOL     OW 2969   2.531   1.271   2.741 -0.1203  0.3253 -0.4682
  743SOL    HW1 2970   2.445   1.230   2.712 -0.1033 -0.4510 -1.2520
  743SOL    HW2 2971   2.575   1.198   2.770 -1.5927  3.9852 -2.5147
  743SOL     MW 2972   2.526   1.256   2.741 -0.3123  0.7058 -0.8416
  744SOL     OW 2973   2.752   0.955   1.768 -0.0795 -0.0961  0.3975
  744SOL    HW1 2974   2.681   1.002   1.813  0.6683  0.4019 -3.2077
  744SOL    HW2 2975   2.722   0.964   1.675  0.0843 -0.0909  0.7956
  744SOL     MW 2976   2.738   0.962   1.762  0.0408 -0.0297 -0.0256
  745SOL     OW 2977   1.743   0.454   2.500 -0.4032  0.4596  0.4347
  745SOL    HW1 2978   1.726   0.487   2.415  2.6253 -3.4839 -1.3244
  745SOL    HW2 2979   1.660   0.429   2.535  0.3490  2.2701  0.8121
  745SOL     MW 2980   1.730   0.455   2.493  0.0957  0.1781  0.2524
  746SOL     OW 2981   1.552   1.431   1.607 -0.0017  0.1882 -0.0129
  746SOL    HW1 2982   1.648   1.449   1.614  2.9672 -1.5712  1.2052
  746SOL    HW2 2983   1.528   1.384   1.689  1.4039 -0.7267  0.7968
  746SOL     MW 2984   1.561   1.427   1.619  0.5755 -0.1647  0.2546
  747SOL     OW 2985   2.557   1.128   1.797  0.0952  0.7010 -0.3079
  747SOL    HW1 2986   2.466   1.137   1.777 -0.3109 -2.4893 -1.3767
  747SOL    HW2 2987   2.599   1.208   1.828 -0.2631  0.9667 -0.2293
  747SOL     MW 2988   2.551   1.140   1.799 -0.0057  0.3151 -0.4386
  748SOL     OW 2989   0.135   0.055   1.802  0.2708 -0.0863 -0.1992
  748SOL    HW1 2990   0.193   0.001   1.851 -0.9867 -0.9638 -2.9852
  748SOL    HW2 2991   0.081   0.098   1.867  1.3090 -1.2059 -0.7619
  748SOL     MW 2992   0.136   0.054   1.817  0.2419 -0.3498 -0.6410
  749SOL     OW 2993   2.440   0.571   2.794  0.5323 -0.5020  0.3617
  749SOL    HW1 2994   2.451   0.625   2.710  2.0068  0.1793  2.5637
  749SOL    HW2 2995   2.469   0.623   2.877 -1.6500 -2.0992  1.2157
  749SOL     MW 2996   2.445   0.585   2.794  0.4389 -0.6228  0.7649
  750SOL     OW 2997   2.055   0.002   1.961 -0.2744 -0.5183  0.4234
  750SOL    HW1 2998   2.092   0.086   1.964 -1.6698 -1.4433 -0.2063
  750SOL    HW2 2999   2.128  -0.062   1.950 -1.2633  0.4729 -1.1145
  750SOL     MW 3000   2.069   0.004   1.960 -0.5890 -0.5096  0.1374
  751SOL     OW 3001   0.029   0.390   2.284  0.4167  0.1490  0.0874
  751SOL    HW1 3002  -0.046   0.325   2.293  1.6302  0.1673 -1.0177
  751SOL    HW2 3003   0.080   0.343   2.216 -0.2587 -0.0122 -1.2891
  751SOL     MW 3004   0.026   0.375   2.277  0.4877  0.1301 -0.2400
  752SOL     OW 3005   2.110   0.808   2.715  0.2560 -0.4461 -0.4237
  752SOL    HW1 3006   2.201   0.841   2.712 -0.4727  0.2529  1.3342
  752SOL    HW2 3007   2.100   0.810   2.810 -2.1957  1.9015 -2.7105
  752SOL     MW 3008   2.120   0.813   2.727 -0.1636 -0.0441 -0.4935
  753SOL     OW 3009   2.911   0.250   2.367  0.3488 -0.4347  0.3838
  753SOL    HW1 3010   2.861   0.184   2.320  1.2435 -0.3134 -0.2285
  753SOL    HW2 3011   2.849   0.321   2.367 -0.5203  0.0911  1.1434
  753SOL     MW 3012   2.896   0.251   2.360  0.3522 -0.3493  0.4032
  754SOL     OW 3013   2.250   2.991   2.661  0.4877  0.1886 -0.5354
  754SOL    HW1 3014   2.235   2.971   2.565 -0.1724 -0.8604 -1.7047
  754SOL    HW2 3015   2.308   2.922   2.703 -0.0005 -1.7408  0.3399
  754SOL     MW 3016   2.256   2.979   2.654  0.3362 -0.2044 -0.5742
  755SOL     OW 3017   2.719   1.594   2.459 -0.2770 -0.0006  0.2604
  755SOL    HW1 3018   2.711   1.545   2.537  0.0225  2.6496  1.3337
  755SOL    HW2 3019   2.779   1.661   2.495  3.3163 -0.6367  1.9130
  755SOL     MW 3020   2.726   1.596   2.474  0.2366  0.2652  0.6200
  756SOL     OW 3021   2.248   1.341   2.977  0.3130 -0.2220 -1.2880
  756SOL    HW1 3022   2.314   1.413   2.986  1.4060  1.2553 -0.4285
  756SOL    HW2 3023   2.304   1.263   3.002  0.5162  0.0528  0.2967
  756SOL     MW 3024   2.264   1.340   2.981  0.4840  0.0092 -0.9655
  757SOL     OW 3025   2.089   0.986   1.589  0.2620 -0.1372 -0.1436
  757SOL    HW1 3026   2.109   0.895   1.581 -0.3346  0.5952  1.0334
  757SOL    HW2 3027   1.995   0.992   1.571  2.7305 -1.2036 -1.5056
  757SOL     MW 3028   2.079   0.975   1.585  0.5090 -0.1813 -0.1680
  758SOL     OW 3029   2.187   1.802   2.612  0.3086  0.1656 -0.4315
  758SOL    HW1 3030   2.190   1.805   2.514  3.1817  2.2444  0.0136
  758SOL    HW2 3031   2.269   1.757   2.630 -2.8560 -0.3057  0.2668
  758SOL     MW 3032   2.198   1.797   2.601  0.2702  0.3777 -0.2806
  759SOL     OW 3033   1.570   1.347   2.725  0.4361  0.3224  0.1526
  759SOL    HW1 3034   1.559   1.417   2.661  2.1290 -0.4289 -0.8250
  759SOL    HW2 3035   1.657   1.357   2.766 -2.7836 -0.0527  0.4790
  759SOL     MW 3036   1.580   1.357   2.722  0.2346  0.1738  0.0667
  760SOL     OW 3037   2.550   1.958   2.717  0.1237  0.1604 -0.0968
  760SOL    HW1 3038   2.509   1.886   2.679 -1.4429 -2.2066 -0.0064
  760SOL    HW2 3039   2.568   2.033   2.657 -0.3242  2.4330 -2.2822
  760SOL     MW 3040   2.547   1.959   2.704 -0.1421  0.1480 -0.3732
  761SOL     OW 3041   2.079   0.417   2.468  0.9466  0.4030  0.3343
  761SOL    HW1 3042   2.004   0.359   2.489 -2.9835 -0.7237 -0.5811
  761SOL    HW2 3043   2.102   0.462   2.546  1.3503 -2.1541  2.2482
  761SOL     MW 3044   2.072   0.415   2.481  0.4813 -0.0830  0.4660
  762SOL     OW 3045   3.081   0.167   2.006 -0.1176 -0.5538 -0.4204
  762SOL    HW1 3046   3.060   0.105   2.071 -2.0920 -1.4926 -2.5047
  762SOL    HW2 3047   3.016   0.236   2.004 -1.7632 -1.6780  0.8720
  762SOL     MW 3048   3.069   0.168   2.014 -0.5952 -0.8260 -0.5249
  763SOL     OW 3049   2.417   1.053   2.338  0.1067 -0.0610 -0.0608
  763SOL    HW1 3050   2.457   1.053   2.245  2.7793  1.2444  0.1150
  763SOL    HW2 3051   2.458   1.133   2.375  0.3645  0.3130  0.2122
  763SOL     MW 3052   2.428   1.063   2.331  0.4933  0.1606 -0.0016
  764SOL     OW 3053   0.402   0.233   2.777  0.9330  0.0238  0.0501
  764SOL    HW1 3054   0.311   0.234   2.741 -0.8736 -1.1616  1.9593
  764SOL    HW2 3055   0.430   0.324   2.785  1.4066 -1.7088 -0.5746
  764SOL     MW 3056   0.393   0.245   2.773  0.7571 -0.3612  0.2196
  765SOL     OW 3057   2.709   0.086   2.268  0.6097 -0.2328  0.3738
  765SOL    HW1 3058   2.656   0.052   2.191  1.2807 -0.6133  0.3873
  765SOL    HW2 3059   2.753   0.003   2.302 -1.4610 -0.8794  1.4841
  765SOL     MW 3060   2.708   0.070   2.262  0.4250 -0.3683  0.5221
  766SOL     OW 3061   1.857   3.034   2.155  0.4460  0.2938  0.3569
  766SOL    HW1 3062   1.900   3.111   2.111  0.1525 -0.6899 -0.3140
  766SOL    HW2 3063   1.841   2.967   2.087  1.2400  0.3102 -0.3124
  766SOL     MW 3064   1.861   3.036   2.140  0.5120  0.1662  0.1801
  767SOL     OW 3065   2.644   0.648   1.954  0.2388  0.0367 -0.1016
  767SOL    HW1 3066   2.672   0.731   1.986 -1.1926 -0.0785  1.1915
  767SOL    HW2 3067   2.548   0.647   1.963 -1.4704 -0.8387  0.0307
  767SOL     MW 3068   2.635   0.659   1.959 -0.1756 -0.0940  0.0865
  768SOL     OW 3069   0.049   1.554   2.967 -0.7839  0.4082  0.3674
  768SOL    HW1 3070   0.051   1.510   3.055 -0.5445 -1.9185 -0.4829
  768SOL    HW2 3071   0.076   1.494   2.893 -1.1789 -2.2559 -0.1048
  768SOL     MW 3072   0.053   1.540   2.969 -0.8045 -0.2503  0.1929
  769SOL     OW 3073   2.348   0.696   2.292 -0.0811 -0.1616 -0.6913
  769SOL    HW1 3074   2.274   0.646   2.262 -2.0159  1.3706  2.3110
  769SOL    HW2 3075   2.426   0.644   2.263  0.3915  2.8465 -2.7513
  769SOL     MW 3076   2.348   0.683   2.285 -0.2740  0.4375 -0.5670
  770SOL     OW 3077   0.087   1.690   2.609  0.1846 -0.4586  0.3197
  770SOL    HW1 3078  -0.012   1.677   2.612 -1.6395 -0.8719 -0.8622
  770SOL    HW2 3079   0.126   1.609   2.636 -0.4269 -3.6414  0.4740
  770SOL     MW 3080   0.079   1.678   2.613 -0.1368 -0.9330  0.1841
  771SOL     OW 3081   3.018   0.638   1.947 -0.2529 -0.2326  0.2441
  771SOL    HW1 3082   2.966   0.648   1.862 -0.4350 -1.3947 -3.4740
  771SOL    HW2 3083   3.109   0.640   1.925 -0.0758  2.0165  2.3875
  771SOL     MW 3084   3.023   0.640   1.933 -0.2535 -0.0892  0.0364
  772SOL     OW 3085   3.071   0.015   2.244  0.0543 -0.0804  0.2437
  772SOL    HW1 3086   3.004  -0.035   2.294  2.5779  0.0225 -0.5514
  772SOL    HW2 3087   3.154  -0.028   2.244  0.4060 -0.3825 -1.5003
  772SOL     MW 3088   3.073   0.003   2.250  0.4336 -0.1067 -0.0913
  773SOL     OW 3089   2.416   2.805   2.770  0.3629  0.1680 -0.3695
  773SOL    HW1 3090   2.420   2.725   2.713 -0.3865  2.2540  0.8926
  773SOL    HW2 3091   2.399   2.767   2.862 -3.0003 -0.0704 -0.5810
  773SOL     MW 3092   2.414   2.789   2.775 -0.1797  0.4118 -0.2309
  774SOL     OW 3093   2.273   1.169   1.764 -0.4665 -0.3801 -0.5508
  774SOL    HW1 3094   2.261   1.243   1.707  1.3876 -0.9034 -0.9747
  774SOL    HW2 3095   2.215   1.097   1.733  3.0151 -1.2954  1.3075
  774SOL     MW 3096   2.264   1.169   1.753  0.2375 -0.5699 -0.3615
  775SOL     OW 3097   2.260   2.967   2.391 -0.0331 -0.4912  0.0095
  775SOL    HW1 3098   2.284   3.045   2.347 -2.3934  0.3546  2.5664
  775SOL    HW2 3099   2.333   2.912   2.367 -1.2814  1.1521  2.6074
  775SOL     MW 3100   2.273   2.970   2.382 -0.5092 -0.1628  0.6896
  776SOL     OW 3101   0.086   1.436   0.174 -0.3719 -0.2181 -0.1199
  776SOL    HW1 3102   0.174   1.412   0.162 -2.9759  0.5730  0.6518
  776SOL    HW2 3103   0.032   1.361   0.173  2.1019 -2.0221 -0.8607
  776SOL     MW 3104   0.090   1.423   0.173 -0.3891 -0.3517 -0.1158
  777SOL     OW 3105   2.994   1.102   1.690  0.5403  0.3478  0.1542
  777SOL    HW1 3106   2.974   1.182   1.646  0.1575  1.0129  0.6427
  777SOL    HW2 3107   2.913   1.057   1.709 -1.1829  0.7319  2.0222
  777SOL     MW 3108   2.980   1.106   1.687  0.2625  0.4862  0.4651
  778SOL     OW 3109   2.902   0.435   2.741  0.7430 -0.3170  0.2592
  778SOL    HW1 3110   2.828   0.453   2.806  1.5224 -0.0256  0.6805
  778SOL    HW2 3111   2.894   0.504   2.668 -0.0243  2.6407 -2.7969
  778SOL     MW 3112   2.891   0.446   2.740  0.7446  0.1117 -0.0885
  779SOL     OW 3113   2.099   0.599   2.266  0.3913 -0.0882 -0.1202
  779SOL    HW1 3114   2.043   0.682   2.284 -1.2626  0.4408  1.9200
  779SOL    HW2 3115   2.075   0.536   2.341  2.0668  1.0067 -4.2835
  779SOL     MW 3116   2.089   0.601   2.278  0.3941  0.1260 -0.4003
  780SOL     OW 3117   0.116   0.189   2.757  0.4818 -0.3037  0.0850
  780SOL    HW1 3118   0.112   0.203   2.852 -1.4496 -1.7165  0.3017
  780SOL    HW2 3119   0.028   0.197   2.720  0.8802 -3.1233 -1.4288
  780SOL     MW 3120   0.104   0.192   2.764  0.2795 -0.8621 -0.0861
  781SOL     OW 3121   3.044   1.315   2.540  0.1265 -0.0700 -0.6635
  781SOL    HW1 3122   3.061   1.366   2.463 -1.1973  1.1965  0.6049
  781SOL    HW2 3123   3.064   1.222   2.521  2.4684 -1.7405  0.7170
  781SOL     MW 3124   3.049   1.310   2.527  0.2608 -0.1233 -0.3140
  782SOL     OW 3125   0.767   1.484   3.077  0.0261  0.2914 -0.0021
  782SOL    HW1 3126   0.674   1.515   3.092 -3.3726  0.9575 -0.8132
  782SOL    HW2 3127   0.818   1.515   3.155 -1.8901  3.2886  0.4060
  782SOL     MW 3128   0.762   1.492   3.089 -0.6751  0.7747 -0.0553
  783SOL     OW 3129   2.763   0.471   2.393 -0.1751  0.2279 -0.1090
  783SOL    HW1 3130   2.685   0.473   2.338 -0.4486 -1.0321 -0.0042
  783SOL    HW2 3131   2.727   0.445   2.478  1.9944  1.7355  0.0170
  783SOL     MW 3132   2.748   0.468   2.397  0.0750  0.2606 -0.0786
  784SOL     OW 3133   0.203   0.818   2.875  0.1774  0.2636  0.4224
  784SOL    HW1 3134   0.139   0.878   2.922 -1.0127 -1.3192  3.5725
  784SOL    HW2 3135   0.254   0.872   2.824 -0.0916  0.6318  1.7547
  784SOL     MW 3136   0.201   0.833   2.875 -0.0151  0.1033  1.0138
  785SOL     OW 3137   0.411   0.494   2.182 -0.2120 -0.2874  0.8216
  785SOL    HW1 3138   0.428   0.551   2.107  1.2244 -0.2865  0.1703
  785SOL    HW2 3139   0.347   0.420   2.161 -2.4371 -1.7177 -2.0025
  785SOL     MW 3140   0.405   0.492   2.169 -0.3161 -0.4760  0.3630
  786SOL     OW 3141   2.010   0.397   2.930 -0.3497  0.1566  0.1668
  786SOL    HW1 3142   2.003   0.469   2.999  2.8613  4.3657  3.5832
  786SOL    HW2 3143   2.048   0.436   2.854 -1.3805  0.4035 -1.8059
  786SOL     MW 3144   2.014   0.411   2.929 -0.0621  0.7446  0.3573
  787SOL     OW 3145   2.428   0.189   2.885  0.7279 -1.1009 -0.0136
  787SOL    HW1 3146   2.476   0.115   2.851 -2.1057  2.6865 -0.2934
  787SOL    HW2 3147   2.481   0.237   2.950  0.1867  0.8872  0.5410
  787SOL     MW 3148   2.441   0.185   2.889  0.2827 -0.3389  0.0226
  788SOL     OW 3149   2.857   2.985   2.369 -0.4690  0.2989 -0.0454
  788SOL    HW1 3150   2.856   2.978   2.460  1.2911  5.5165  1.3892
  788SOL    HW2 3151   2.895   2.895   2.341  4.3974 -0.3152 -1.1718
  788SOL     MW 3152   2.862   2.972   2.377  0.4053  0.9063 -0.0047
  789SOL     OW 3153   0.021   0.271   3.024  0.4406  0.1189 -0.4951
  789SOL    HW1 3154  -0.055   0.214   3.034  1.1726  1.9489 -1.9459
  789SOL    HW2 3155  -0.006   0.359   2.988  1.6938  5.1783  0.5636
  789SOL     MW 3156   0.008   0.275   3.021  0.7025  1.0279 -0.5469
  790SOL     OW 3157   3.061   1.058   2.462  0.0731 -0.2499  0.5023
  790SOL    HW1 3158   3.036   0.976   2.517  0.0456  1.3390  1.4809
  790SOL    HW2 3159   2.998   1.058   2.384 -1.5773  0.6989 -0.8042
  790SOL     MW 3160   3.049   1.047   2.459 -0.1483  0.0850  0.4590
  791SOL     OW 3161   2.633   0.385   2.622 -0.1222  0.0042  0.0700
  791SOL    HW1 3162   2.577   0.451   2.661  2.3135  1.0270  0.8966
  791SOL    HW2 3163   2.707   0.373   2.688  0.6789  1.1716  1.3140
  791SOL     MW 3164   2.636   0.392   2.636  0.3049  0.2932  0.3432
  792SOL     OW 3165   2.331   0.303   2.375  0.3306 -0.1243 -0.3545
  792SOL    HW1 3166   2.249   0.345   2.403 -0.2674 -1.1302 -0.4904
  792SOL    HW2 3167   2.359   0.261   2.458 -1.5189  0.0792  3.2487
  792SOL     MW 3168   2.324   0.303   2.390  0.0077 -0.2301  0.1029
  793SOL     OW 3169   1.808   1.025   1.966  0.2074 -0.5276  0.3247
  793SOL    HW1 3170   1.755   1.052   1.897  0.7429  1.6399  2.1795
  793SOL    HW2 3171   1.895   0.996   1.923  3.7802 -2.7256 -1.7720
  793SOL     MW 3172   1.813   1.025   1.951  0.7495 -0.5316  0.2927
  794SOL     OW 3173   1.418   2.278   0.176 -0.2905  0.1303  0.2004
  794SOL    HW1 3174   1.444   2.343   0.103 -0.7413  0.4754  0.6617
  794SOL    HW2 3175   1.472   2.298   0.249 -0.7359  0.0510  1.3857
  794SOL     MW 3176   1.429   2.289   0.176 -0.4087  0.1654  0.4177
  795SOL     OW 3177   2.349   0.955   2.634  0.1682  0.5542  0.0975
  795SOL    HW1 3178   2.345   1.035   2.686  0.2817 -0.8101 -1.6216
  795SOL    HW2 3179   2.371   0.991   2.547 -2.3244 -0.2485 -2.5039
  795SOL     MW 3180   2.351   0.971   2.629 -0.1457  0.2683 -0.4726
  796SOL     OW 3181   0.284   0.577   2.755 -0.3617  0.2505  0.0067
  796SOL    HW1 3182   0.247   0.654   2.791 -0.2107  0.2590 -1.2966
  796SOL    HW2 3183   0.211   0.540   2.707  1.0707  1.9370  0.5850
  796SOL     MW 3184   0.270   0.582   2.753 -0.1528  0.4741 -0.0890
  797SOL     OW 3185   2.588   0.121   2.517 -0.0626 -0.6207 -0.9572
  797SOL    HW1 3186   2.613   0.210   2.546 -0.2778  3.9701 -0.1966
  797SOL    HW2 3187   2.620   0.125   2.425 -0.7892 -0.0285  3.7765
  797SOL     MW 3188   2.596   0.133   2.508 -0.1868  0.0631 -0.2323
  798SOL     OW 3189   2.316   0.077   2.237 -0.3420  0.2154 -0.0927
  798SOL    HW1 3190   2.328   0.157   2.291 -2.9231 -0.6162 -0.7244
  798SOL    HW2 3191   2.400   0.039   2.198 -1.3466 -1.6031  0.3293
  798SOL     MW 3192   2.329   0.083   2.239 -0.8151 -0.1343 -0.1204
  799SOL     OW 3193   2.506   2.972   0.037 -0.3946 -0.4152  0.5949
  799SOL    HW1 3194   2.447   2.902   0.015  0.0507  1.6969 -1.1312
  799SOL    HW2 3195   2.457   3.055   0.034 -2.1028  1.2849  1.8562
  799SOL     MW 3196   2.492   2.974   0.034 -0.5612  0.0878  0.5336
  800SOL     OW 3197   1.891   0.017   1.736 -0.4659  0.3903  0.1983
  800SOL    HW1 3198   1.832  -0.059   1.737  0.7899 -0.4281  1.1207
  800SOL    HW2 3199   1.928   0.006   1.823  2.4746  0.2797  0.6622
  800SOL     MW 3200   1.888   0.006   1.748  0.0878  0.2677  0.3812
  801SOL     OW 3201   2.768   1.283   2.563 -0.4472  0.0192  0.0738
  801SOL    HW1 3202   2.750   1.187   2.548 -0.1140 -2.7250 -0.8015
  801SOL    HW2 3203   2.865   1.303   2.551 -1.7520 -0.1557  0.7855
  801SOL     MW 3204   2.778   1.273   2.559 -0.5754 -0.3659  0.0522
  802SOL     OW 3205   2.619   1.553   2.769 -0.2893  0.1469 -0.1376
  802SOL    HW1 3206   2.581   1.463   2.745  0.1998 -1.2360  1.3134
  802SOL    HW2 3207   2.697   1.542   2.818  0.6865  1.9860 -0.2183
  802SOL     MW 3208   2.624   1.540   2.772 -0.0960  0.2071  0.0432
  803SOL     OW 3209   2.258   1.393   2.004  0.2861  0.3614  0.9159
  803SOL    HW1 3210   2.251   1.336   2.081  1.4164  2.6321 -0.1414
  803SOL    HW2 3211   2.232   1.349   1.921  1.3124 -1.0706  1.3076
  803SOL     MW 3212   2.253   1.380   2.003  0.5706  0.4721  0.8281
  804SOL     OW 3213   2.293   0.071   3.082 -0.5684  0.4091  0.4576
  804SOL    HW1 3214   2.209   0.110   3.116 -2.3599 -1.2781  0.2708
  804SOL    HW2 3215   2.330   0.127   3.018 -0.0590 -1.6718  0.8390
  804SOL     MW 3216   2.286   0.083   3.078 -0.7376 -0.0881  0.4833
  805SOL     OW 3217   2.694   1.019   2.566  0.3947 -0.3345 -0.2083
  805SOL    HW1 3218   2.694   0.994   2.474 -1.6053 -0.9869  0.2385
  805SOL    HW2 3219   2.775   0.967   2.593 -0.1862 -0.1569 -0.2679
  805SOL     MW 3220   2.705   1.009   2.557  0.0542 -0.3971 -0.1572
  806SOL     OW 3221   2.527   0.480   2.263  0.0592 -0.4483  0.3119
  806SOL    HW1 3222   2.453   0.434   2.307  1.2215 -0.6884  0.1353
  806SOL    HW2 3223   2.539   0.422   2.191 -0.5788 -1.2033  1.6494
  806SOL     MW 3224   2.519   0.466   2.259  0.1284 -0.5796  0.4651
  807SOL     OW 3225   0.072   1.137   2.074  0.3610  0.3101  0.1175
  807SOL    HW1 3226   0.102   1.060   2.033  1.3919 -0.1677 -0.1650
  807SOL    HW2 3227  -0.013   1.099   2.102 -0.4880 -0.5479 -0.1024
  807SOL     MW 3228   0.065   1.122   2.072  0.3850  0.1338  0.0512
  808SOL     OW 3229   2.539   3.066   2.760 -0.3114 -0.0649 -0.0040
  808SOL    HW1 3230   2.506   2.974   2.750 -2.0247  0.9179 -0.2849
  808SOL    HW2 3231   2.548   3.099   2.670 -1.1472 -2.1793  0.5952
  808SOL     MW 3232   2.536   3.058   2.746 -0.6477 -0.2142  0.0380
  809SOL     OW 3233   2.526   1.326   2.414 -0.1879  0.0300 -0.2849
  809SOL    HW1 3234   2.594   1.311   2.484 -3.4693 -1.0824  0.7303
  809SOL    HW2 3235   2.570   1.311   2.333  0.6251  0.4051 -0.0177
  809SOL     MW 3236   2.541   1.322   2.413 -0.5136 -0.0673 -0.1157
  810SOL     OW 3237   2.222   1.283   2.241  0.6975  0.1365 -0.2692
  810SOL    HW1 3238   2.292   1.223   2.262 -1.0897 -0.5548 -0.0708
  810SOL    HW2 3239   2.153   1.230   2.194 -0.7096 -2.9607 -1.8402
  810SOL     MW 3240   2.222   1.268   2.237  0.2760 -0.3633 -0.4503
  811SOL     OW 3241   1.551   0.168   2.308  0.1479  0.1430 -0.3426
  811SOL    HW1 3242   1.595   0.086   2.350  2.0967 -0.8173  3.4781
  811SOL    HW2 3243   1.557   0.161   2.211 -1.4184 -1.4574 -1.9423
  811SOL     MW 3244   1.558   0.156   2.301  0.1984 -0.1948 -0.0495
  812SOL     OW 3245   1.490   2.867   2.128 -0.1101 -0.0620 -0.1662
  812SOL    HW1 3246   1.577   2.854   2.075  2.7411 -0.8609 -0.3298
  812SOL    HW2 3247   1.508   2.828   2.216 -0.5709 -1.2046  2.3284
  812SOL     MW 3248   1.504   2.860   2.133  0.2053 -0.3182  0.1414
  813SOL     OW 3249   1.842   0.747   2.167 -0.8350 -0.5156 -0.1307
  813SOL    HW1 3250   1.829   0.655   2.195 -1.6656  1.6477  2.2097
  813SOL    HW2 3251   1.850   0.793   2.253 -1.5591  0.5755  0.1276
  813SOL     MW 3252   1.842   0.741   2.182 -1.0401 -0.0862  0.2122
  814SOL     OW 3253   2.765   1.268   1.606  0.0326 -0.0788  0.1271
  814SOL    HW1 3254   2.714   1.201   1.655  4.1333 -1.8564  1.0462
  814SOL    HW2 3255   2.793   1.224   1.525 -1.2802  1.3099  3.1002
  814SOL     MW 3256   2.762   1.254   1.602  0.4004 -0.1301  0.6406
  815SOL     OW 3257   2.471   1.656   2.358 -0.0911  0.2531  0.8355
  815SOL    HW1 3258   2.410   1.597   2.400  0.1620  3.6268  1.2042
  815SOL    HW2 3259   2.562   1.616   2.385  3.4375  0.2245  0.0777
  815SOL     MW 3260   2.475   1.643   2.367  0.4079  0.6945  0.7842
  816SOL     OW 3261   0.780   0.689   2.734 -0.0434  0.6150 -0.1675
  816SOL    HW1 3262   0.784   0.612   2.795  0.3516 -1.1317 -0.5342
  816SOL    HW2 3263   0.692   0.698   2.704  0.2606 -2.3234  0.3988
  816SOL     MW 3264   0.769   0.680   2.738  0.0488 -0.0032 -0.1412
  817SOL     OW 3265   3.026   1.285   1.475 -0.1867  0.2056 -0.0017
  817SOL    HW1 3266   3.121   1.270   1.484  0.8147  0.9874 -2.0230
  817SOL    HW2 3267   3.014   1.379   1.454 -0.8074  0.9246 -2.6669
  817SOL     MW 3268   3.037   1.296   1.473 -0.1365  0.4036 -0.6200
  818SOL     OW 3269   1.933   1.064   2.674  0.3261  0.1284 -0.0109
  818SOL    HW1 3270   1.938   1.131   2.608 -0.8237  0.7671  2.5859
  818SOL    HW2 3271   1.999   0.999   2.655 -0.4463  0.0207 -1.6235
  818SOL     MW 3272   1.942   1.065   2.663  0.0725  0.1984  0.1190
  819SOL     OW 3273   1.885   0.236   2.470 -0.7271  0.2042 -0.3196
  819SOL    HW1 3274   1.814   0.300   2.488 -0.5403 -2.2072 -1.3313
  819SOL    HW2 3275   1.932   0.217   2.550  1.8629 -3.4957 -0.2035
  819SOL     MW 3276   1.882   0.242   2.483 -0.3607 -0.6021 -0.4378
  820SOL     OW 3277   2.450   1.731   2.626  0.3992 -0.2516 -0.0131
  820SOL    HW1 3278   2.507   1.679   2.679 -3.2260  1.1330  1.8078
  820SOL    HW2 3279   2.470   1.723   2.531  1.9717  0.6408  0.8966
  820SOL     MW 3280   2.460   1.723   2.620  0.1284  0.0488  0.3472
  821SOL     OW 3281   2.599   1.355   1.972  0.0178  0.3393  0.2247
  821SOL    HW1 3282   2.616   1.419   1.901 -0.2989 -4.8021 -0.8927
  821SOL    HW2 3283   2.506   1.348   1.980  1.5400  1.7697 -1.1626
  821SOL     MW 3284   2.589   1.362   1.963  0.1768 -0.1503 -0.1058
  822SOL     OW 3285   2.774   2.609   1.497  0.3630 -0.2098 -0.1335
  822SOL    HW1 3286   2.809   2.641   1.581  2.5259  0.6551  1.5445
  822SOL    HW2 3287   2.732   2.680   1.448  0.9635 -2.5043  0.2546
  822SOL     MW 3288   2.773   2.622   1.501  0.7276 -0.3984  0.1391
  823SOL     OW 3289   2.250   0.486   1.763 -0.3249 -0.9009 -0.5385
  823SOL    HW1 3290   2.343   0.461   1.743  0.3505  0.9800  2.3452
  823SOL    HW2 3291   2.195   0.411   1.755 -0.9348 -1.0430  0.4490
  823SOL     MW 3292   2.255   0.473   1.760 -0.3162 -0.6715 -0.0278
  824SOL     OW 3293   2.081   1.371   2.588 -0.2217 -0.2018  0.8210
  824SOL    HW1 3294   2.156   1.410   2.541  0.6493 -3.6712 -2.1995
  824SOL    HW2 3295   2.052   1.441   2.642  3.0881  1.4449 -1.8582
  824SOL     MW 3296   2.087   1.385   2.589  0.3299 -0.4423  0.0690
  825SOL     OW 3297   2.028   2.578   0.289  0.5139 -0.4831  0.6140
  825SOL    HW1 3298   2.018   2.534   0.374 -1.6478  0.3718  2.6640
  825SOL    HW2 3299   2.088   2.520   0.242  2.3083  0.4273  1.9015
  825SOL     MW 3300   2.035   2.565   0.294  0.4655 -0.2502  1.0543
  826SOL     OW 3301   1.899   2.447   0.518  0.7379  0.0874 -0.2677
  826SOL    HW1 3302   1.856   2.363   0.544 -1.9508 -1.5972  0.9669
  826SOL    HW2 3303   1.848   2.506   0.574  1.3150  1.4300 -1.8020
  826SOL     MW 3304   1.887   2.444   0.529  0.4593  0.0423 -0.3072
  827SOL     OW 3305   1.949   2.205   0.923  0.4786  0.6469 -0.6003
  827SOL    HW1 3306   1.886   2.268   0.890  2.1733 -1.5521 -2.4085
  827SOL    HW2 3307   1.884   2.130   0.922 -1.6537  1.2846 -1.3643
  827SOL     MW 3308   1.932   2.203   0.918  0.4209  0.4409 -0.9397
  828SOL     OW 3309   0.038   2.687   0.605 -0.0721  0.7516  0.7396
  828SOL    HW1 3310   0.131   2.672   0.587  0.2263 -0.9130  1.5989
  828SOL    HW2 3311  -0.011   2.711   0.525 -0.7890  0.8033  0.7691
  828SOL     MW 3312   0.044   2.688   0.592 -0.1273  0.5388  0.8569
  829SOL     OW 3313   2.952   2.931   1.266  0.4912 -0.2968 -0.1382
  829SOL    HW1 3314   2.876   2.953   1.208 -1.5265  0.3724  3.0305
  829SOL    HW2 3315   2.975   2.847   1.226  2.0036  0.1796 -0.1461
  829SOL     MW 3316   2.945   2.923   1.253  0.4245 -0.1457  0.2788
  830SOL     OW 3317   2.504   2.848   2.028  0.1079  0.1131 -0.3173
  830SOL    HW1 3318   2.415   2.846   1.991  2.2641 -0.2685 -1.2206
  830SOL    HW2 3319   2.563   2.833   1.956 -3.5605  0.7718 -0.9946
  830SOL     MW 3320   2.500   2.846   2.013 -0.0916  0.1496 -0.5259
  831SOL     OW 3321   2.425   2.384   1.306  0.2368 -0.1612 -0.5221
  831SOL    HW1 3322   2.382   2.314   1.359  0.1836 -0.4596  1.2463
  831SOL    HW2 3323   2.516   2.352   1.292  0.2481  2.4459 -0.1024
  831SOL     MW 3324   2.432   2.370   1.311  0.2312  0.1434 -0.2334
  832SOL     OW 3325   2.423   2.212   1.910 -0.1301  0.0119  0.1681
  832SOL    HW1 3326   2.457   2.309   1.924 -1.0481  1.1635  0.5434
  832SOL    HW2 3327   2.496   2.159   1.868 -0.3616  1.0087 -1.3537
  832SOL     MW 3328   2.437   2.218   1.906 -0.2818  0.2953  0.0168
  833SOL     OW 3329   1.796   2.431   0.875 -0.0690 -0.7641 -0.1265
  833SOL    HW1 3330   1.701   2.401   0.877 -1.9749 -0.6212  2.4674
  833SOL    HW2 3331   1.800   2.501   0.954 -2.8574  0.6402  3.8273
  833SOL     MW 3332   1.784   2.436   0.886 -0.6884 -0.5600  0.7374
  834SOL     OW 3333   2.239   2.488   0.578 -0.3284  0.2101 -0.6656
  834SOL    HW1 3334   2.204   2.411   0.627  1.5949 -1.1786 -0.9092
  834SOL    HW2 3335   2.286   2.455   0.493  1.4858 -0.8673 -3.6408
  834SOL     MW 3336   2.240   2.473   0.573  0.1647 -0.1153 -1.0903
  835SOL     OW 3337   1.755   2.606   0.669  0.3413  0.2443  0.6143
  835SOL    HW1 3338   1.752   2.545   0.739  1.3106 -0.6977  1.7152
  835SOL    HW2 3339   1.845   2.654   0.669  1.8850  0.1835  0.6212
  835SOL     MW 3340   1.767   2.604   0.678  0.6729  0.1120  0.7605
  836SOL     OW 3341   1.977   2.158   1.623  0.1442 -0.7772 -0.0982
  836SOL    HW1 3342   2.052   2.190   1.672  0.3028 -0.0718  0.7555
  836SOL    HW2 3343   1.918   2.231   1.609  0.8042  1.0817 -1.3439
  836SOL     MW 3344   1.979   2.172   1.628  0.2522 -0.4388 -0.1499
  837SOL     OW 3345   2.119   0.190   0.710 -0.0822 -0.2162  0.4980
  837SOL    HW1 3346   2.035   0.199   0.667  1.5174 -1.1806 -0.7410
  837SOL    HW2 3347   2.165   0.148   0.639 -4.1507 -1.7394  1.3124
  837SOL     MW 3348   2.114   0.185   0.695 -0.4080 -0.5444  0.4420
  838SOL     OW 3349   2.949   2.114   0.891  0.0056 -0.4672  0.0222
  838SOL    HW1 3350   2.898   2.068   0.961  2.2237 -0.7122 -0.2824
  838SOL    HW2 3351   2.973   2.044   0.835  0.7201 -0.4732  1.8424
  838SOL     MW 3352   2.946   2.099   0.893  0.3926 -0.5003  0.2222
  839SOL     OW 3353   1.538   2.359   0.920 -0.2981  0.3926 -0.1095
  839SOL    HW1 3354   1.506   2.448   0.929 -1.8560 -0.1250  1.2029
  839SOL    HW2 3355   1.547   2.314   1.005  1.7575 -1.7145  0.7603
  839SOL     MW 3356   1.535   2.365   0.932 -0.2324  0.0463  0.1784
  840SOL     OW 3357   2.312   2.115   2.405 -0.0789  0.1172  0.3184
  840SOL    HW1 3358   2.261   2.190   2.364  0.0440 -0.3596  2.2566
  840SOL    HW2 3359   2.383   2.146   2.459 -2.7190 -0.0811 -1.3622
  840SOL     MW 3360   2.314   2.129   2.407 -0.4110  0.0281  0.3524
  841SOL     OW 3361   2.188   2.419   0.134  0.1848 -0.4661 -0.0406
  841SOL    HW1 3362   2.253   2.451   0.067  2.7309  0.3994  0.5622
  841SOL    HW2 3363   2.121   2.370   0.092 -0.7898  2.0510 -1.3248
  841SOL     MW 3364   2.188   2.417   0.120  0.3921 -0.0198 -0.1305
  842SOL     OW 3365   2.670   2.002   1.579 -0.3343  0.3086  0.0916
  842SOL    HW1 3366   2.629   1.912   1.594  2.8765 -1.5994 -0.3536
  842SOL    HW2 3367   2.634   2.030   1.499  1.8879  0.5485  4.8884
  842SOL     MW 3368   2.660   1.994   1.570  0.3825  0.0885  0.6658
  843SOL     OW 3369   2.663   2.805   1.810 -0.2633  0.7047  0.2182
  843SOL    HW1 3370   2.747   2.755   1.814 -0.8502  1.7521  2.6236
  843SOL    HW2 3371   2.598   2.744   1.787  0.9003  2.3505 -1.0584
  843SOL     MW 3372   2.666   2.790   1.807 -0.1872  1.0600  0.3672
  844SOL     OW 3373   2.652   2.264   1.220  0.3573  0.7448 -0.1455
  844SOL    HW1 3374   2.686   2.301   1.137 -0.4116  1.4152 -1.0905
  844SOL    HW2 3375   2.723   2.284   1.272 -2.0557 -0.7674 -0.7453
  844SOL     MW 3376   2.666   2.272   1.216 -0.0625  0.6337 -0.3493
  845SOL     OW 3377   2.867   2.463   0.286 -0.6131 -0.0420 -0.2320
  845SOL    HW1 3378   2.816   2.380   0.295 -0.3546 -1.8173 -0.5136
  845SOL    HW2 3379   2.871   2.518   0.368  1.5356 -2.3966  3.1360
  845SOL     MW 3380   2.861   2.459   0.298 -0.2955 -0.5869  0.1752
  846SOL     OW 3381   1.505   2.852   0.788 -0.1228 -0.3304  0.0026
  846SOL    HW1 3382   1.584   2.905   0.810  0.3280  0.9789 -0.0452
  846SOL    HW2 3383   1.429   2.909   0.803  0.8873 -1.6761  1.9159
  846SOL     MW 3384   1.505   2.867   0.793  0.0700 -0.3352  0.2488
  847SOL     OW 3385   2.493   1.936   0.157  0.3467  0.1132  0.0415
  847SOL    HW1 3386   2.540   1.867   0.205 -0.6259 -1.8223  2.6736
  847SOL    HW2 3387   2.443   1.888   0.091 -0.9994  2.6878  5.3912
  847SOL     MW 3388   2.493   1.920   0.155  0.0408  0.1975  1.0947
  848SOL     OW 3389   2.516   2.053   1.349 -0.2846  0.0398 -0.4004
  848SOL    HW1 3390   2.587   2.091   1.292  0.8098  0.2302  1.0758
  848SOL    HW2 3391   2.469   2.000   1.288  1.9500  0.2794  0.2693
  848SOL     MW 3392   2.519   2.051   1.334  0.1546  0.0965 -0.1172
  849SOL     OW 3393   1.982   2.734   0.748  0.3460 -0.4340  0.1805
  849SOL    HW1 3394   2.011   2.692   0.827 -2.5794  1.1321  0.7873
  849SOL    HW2 3395   2.060   2.743   0.693 -1.3198 -1.5979  0.9405
  849SOL     MW 3396   1.996   2.730   0.751 -0.2598 -0.3809  0.3608
  850SOL     OW 3397   2.245   1.921   1.700  1.3101 -0.2096  0.7282
  850SOL    HW1 3398   2.150   1.914   1.673 -0.9827  0.5069 -1.6334
  850SOL    HW2 3399   2.251   2.015   1.725 -1.6744  0.4030  0.9216
  850SOL     MW 3400   2.233   1.932   1.700  0.6138 -0.0342  0.4422
  851SOL     OW 3401   2.336   2.366   0.359  0.2171  0.2278 -0.0083
  851SOL    HW1 3402   2.270   2.386   0.293  0.5189  1.5158  0.2337
  851SOL    HW2 3403   2.411   2.429   0.336  1.8978 -0.8367  0.3772
  851SOL     MW 3404   2.337   2.377   0.347  0.4786  0.2573  0.0745
  852SOL     OW 3405   2.335   2.104   0.289  0.2012  0.3099  0.2694
  852SOL    HW1 3406   2.356   2.196   0.303 -0.6822  0.7602 -0.4052
  852SOL    HW2 3407   2.399   2.053   0.231 -2.6254 -2.2741 -2.3233
  852SOL     MW 3408   2.346   2.109   0.283 -0.2883  0.0284 -0.1617
  853SOL     OW 3409   2.499   2.472   1.976 -0.3251  0.4534 -0.1197
  853SOL    HW1 3410   2.508   2.516   1.892 -1.6955 -0.4982  2.2717
  853SOL    HW2 3411   2.575   2.426   2.017 -1.0585  0.7214 -0.6366
  853SOL     MW 3412   2.510   2.472   1.970 -0.6027  0.3632  0.1276
  854SOL     OW 3413   2.831   2.331   0.776  0.6006 -0.2720  0.6547
  854SOL    HW1 3414   2.761   2.278   0.735 -0.7025 -2.1620  1.0528
  854SOL    HW2 3415   2.880   2.258   0.820 -1.4913 -1.2562 -0.6032
  854SOL     MW 3416   2.828   2.314   0.776  0.1527 -0.6512  0.5413
  855SOL     OW 3417   2.668   2.239   0.374 -0.2282  0.4590  0.1370
  855SOL    HW1 3418   2.649   2.302   0.437  0.2902 -0.2971 -3.1303
  855SOL    HW2 3419   2.745   2.190   0.402 -1.4155  1.3463 -0.8282
  855SOL     MW 3420   2.676   2.241   0.386 -0.3164  0.4763 -0.4215
  856SOL     OW 3421   2.144   1.912   0.174 -0.7035 -0.7610 -0.0906
  856SOL    HW1 3422   2.064   1.902   0.223  0.4137 -0.6724 -0.0327
  856SOL    HW2 3423   2.195   1.963   0.235  1.8261 -1.6317  0.0446
  856SOL     MW 3424   2.140   1.917   0.189 -0.2223 -0.8642 -0.0651
  857SOL     OW 3425   2.501   2.002   0.521 -0.2137 -0.2470 -0.1191
  857SOL    HW1 3426   2.450   2.034   0.456 -2.5576 -1.1347  0.8065
  857SOL    HW2 3427   2.475   1.910   0.545 -0.1301 -1.5343  0.5267
  857SOL     MW 3428   2.491   1.994   0.515 -0.5119 -0.5340  0.0882
  858SOL     OW 3429   2.890   2.636   1.747 -0.1787 -0.3519  0.1780
  858SOL    HW1 3430   2.971   2.681   1.767  0.3462 -1.1111 -0.5033
  858SOL    HW2 3431   2.901   2.552   1.794 -0.5201 -0.6499 -0.9650
  858SOL     MW 3432   2.902   2.631   1.756 -0.1545 -0.4914 -0.0627
  859SOL     OW 3433   2.081   2.576   0.963  0.3576  0.6746 -0.3879
  859SOL    HW1 3434   2.032   2.517   1.020  0.4646  0.0625  1.8417
  859SOL    HW2 3435   2.152   2.528   0.926  0.4975 -0.8733 -1.1883
  859SOL     MW 3436   2.084   2.562   0.966  0.3902  0.3896 -0.1994
  860SOL     OW 3437   2.671   2.600   0.129 -0.0250 -0.7451 -0.4464
  860SOL    HW1 3438   2.742   2.559   0.182  0.1072 -1.2581 -1.0936
  860SOL    HW2 3439   2.683   2.689   0.088  1.6457  3.9543  0.6823
  860SOL     MW 3440   2.682   2.606   0.130  0.2128 -0.1927 -0.3828
  861SOL     OW 3441   1.612   2.127   1.133  0.1364  0.0944 -0.3741
  861SOL    HW1 3442   1.628   2.192   1.200  0.8916  0.8375 -0.6661
  861SOL    HW2 3443   1.543   2.068   1.161 -0.9032  1.5386  0.2536
  861SOL     MW 3444   1.605   2.128   1.146  0.0989  0.3830 -0.3298
  862SOL     OW 3445   2.468   1.795   1.569 -0.1549 -0.0767  0.3898
  862SOL    HW1 3446   2.406   1.851   1.614  2.2809 -0.5912 -0.4026
  862SOL    HW2 3447   2.433   1.789   1.479 -2.9715  1.8368  1.9388
  862SOL     MW 3448   2.455   1.801   1.563 -0.2052  0.1078  0.4896
  863SOL     OW 3449   3.001   1.820   1.039  0.9848  0.0255 -0.3780
  863SOL    HW1 3450   3.086   1.796   1.075 -0.7841  1.8539 -0.9170
  863SOL    HW2 3451   2.966   1.873   1.111  0.4177 -2.6274 -0.1291
  863SOL     MW 3452   3.008   1.824   1.053  0.6766 -0.0833 -0.4163
  864SOL     OW 3453   3.058   1.846   0.767  0.1397  0.0806 -0.2112
  864SOL    HW1 3454   3.010   1.835   0.852 -0.0878 -0.7081 -0.0924
  864SOL    HW2 3455   3.000   1.792   0.704 -2.5422 -2.5062 -1.4105
  864SOL     MW 3456   3.044   1.838   0.770 -0.2441 -0.3647 -0.3537
  865SOL     OW 3457   2.555   2.182   0.019 -0.5007  0.5774 -0.4708
  865SOL    HW1 3458   2.581   2.107   0.071  0.1374  3.2066 -0.2776
  865SOL    HW2 3459   2.511   2.147  -0.058 -0.8394 -0.7697  1.6658
  865SOL     MW 3460   2.553   2.168   0.016 -0.4612  0.7466 -0.1634
  866SOL     OW 3461   2.669   2.376   1.677 -0.0192  0.0049  0.2525
  866SOL    HW1 3462   2.705   2.289   1.671 -0.3086  0.2535 -0.7029
  866SOL    HW2 3463   2.699   2.414   1.598 -0.0353 -0.7057 -0.5924
  866SOL     MW 3464   2.677   2.370   1.666 -0.0595 -0.0560  0.0150
  867SOL     OW 3465   0.038   2.741   1.813  0.0166  0.4001  0.1792
  867SOL    HW1 3466   0.059   2.729   1.909 -0.7073 -0.7490 -2.6149
  867SOL    HW2 3467   0.023   2.834   1.794 -1.6385 -1.8191  2.0413
  867SOL     MW 3468   0.039   2.751   1.823 -0.2973 -0.0443  0.0562
  868SOL     OW 3469   2.818   2.598   0.532 -0.3956  0.0864 -0.3334
  868SOL    HW1 3470   2.737   2.543   0.522 -0.6783  0.1745 -1.3811
  868SOL    HW2 3471   2.802   2.687   0.496  0.6214  0.3076  0.3752
  868SOL     MW 3472   2.805   2.602   0.526 -0.2987  0.1272 -0.3781
  869SOL     OW 3473   2.089   2.345   1.132 -0.2992 -0.3693 -0.6132
  869SOL    HW1 3474   2.174   2.331   1.085  1.5835 -1.0682  0.8186
  869SOL    HW2 3475   2.032   2.296   1.069  0.1301  1.5378 -3.3967
  869SOL     MW 3476   2.093   2.337   1.117  0.0059 -0.2099 -0.7915
  870SOL     OW 3477   2.172   0.034   0.459 -0.2798  0.3262 -0.0619
  870SOL    HW1 3478   2.247   0.061   0.400 -1.9224 -2.0418  1.6144
  870SOL    HW2 3479   2.183  -0.059   0.466 -0.5706 -0.0487 -1.2602
  870SOL     MW 3480   2.183   0.026   0.452 -0.5349 -0.0357  0.0012
  871SOL     OW 3481   2.510   2.091   0.951  0.0148 -0.1965  0.1220
  871SOL    HW1 3482   2.448   2.032   0.910 -1.1583 -2.8617  2.3218
  871SOL    HW2 3483   2.464   2.169   0.979 -0.9578 -1.2349  1.0176
  871SOL     MW 3484   2.496   2.093   0.950 -0.2683 -0.6852  0.5304
  872SOL     OW 3485   1.989   2.533   1.536  0.5067  0.4979  0.3011
  872SOL    HW1 3486   1.931   2.540   1.610 -1.3635 -0.6059  0.1805
  872SOL    HW2 3487   1.945   2.471   1.474  2.4761 -1.9104  2.5123
  872SOL     MW 3488   1.976   2.526   1.538  0.5198  0.0345  0.5770
  873SOL     OW 3489   2.928   2.027   1.939 -0.1758 -0.0611  0.1914
  873SOL    HW1 3490   2.926   2.065   2.028 -2.0709 -1.4788  1.4476
  873SOL    HW2 3491   3.016   2.033   1.902  1.7471 -0.9831 -2.7171
  873SOL     MW 3492   2.940   2.033   1.946 -0.1721 -0.3698 -0.0266
  874SOL     OW 3493   2.296   1.460   2.442  0.3917 -0.8518  0.7087
  874SOL    HW1 3494   2.257   1.423   2.357 -1.0229 -1.1722 -3.1124
  874SOL    HW2 3495   2.354   1.392   2.471  1.8740  0.1358 -1.5167
  874SOL     MW 3496   2.298   1.446   2.435  0.4006 -0.7638 -0.0891
  875SOL     OW 3497   2.329   2.320   1.044 -0.2019 -0.6703  0.1031
  875SOL    HW1 3498   2.363   2.390   0.986 -2.5741  0.6385 -0.1800
  875SOL    HW2 3499   2.376   2.343   1.126 -1.0124  0.6917  2.3903
  875SOL     MW 3500   2.340   2.333   1.047 -0.6218 -0.3179  0.3675
  876SOL     OW 3501   3.048   2.263   1.292 -0.1235  0.1149  0.0787
  876SOL    HW1 3502   3.079   2.305   1.214 -0.6711  2.6590  0.4047
  876SOL    HW2 3503   3.120   2.302   1.343 -1.3790  0.3688  1.5828
  876SOL     MW 3504   3.062   2.274   1.288 -0.3614  0.4841  0.3202
  877SOL     OW 3505   3.046   2.709   0.351  0.4391  0.0806 -0.1826
  877SOL    HW1 3506   3.109   2.781   0.343 -1.7422  0.5373  0.1758
  877SOL    HW2 3507   3.049   2.668   0.264  0.8171  1.2016  0.5646
  877SOL     MW 3508   3.055   2.713   0.338  0.2012  0.2888 -0.0367
  878SOL     OW 3509   2.373   1.835   1.286 -0.2371 -0.6588  0.4510
  878SOL    HW1 3510   2.300   1.770   1.291 -0.9766  1.0083  1.6647
  878SOL    HW2 3511   2.465   1.795   1.265  3.0283  4.1625  1.7368
  878SOL     MW 3512   2.376   1.821   1.284  0.0962  0.1973  0.7808
  879SOL     OW 3513   2.685   2.428   0.989  0.1234  0.5068 -0.5252
  879SOL    HW1 3514   2.735   2.507   1.012  0.0117  1.1791 -1.0614
  879SOL    HW2 3515   2.712   2.398   0.904  0.7035 -1.2258 -3.2103
  879SOL     MW 3516   2.695   2.434   0.981  0.1852  0.3669 -0.9502
  880SOL     OW 3517   2.631   2.179   0.691  0.2002 -0.0538  0.3938
  880SOL    HW1 3518   2.632   2.129   0.775  0.5935  3.6718  1.2403
  880SOL    HW2 3519   2.591   2.113   0.637 -2.2278 -0.2998  1.0963
  880SOL     MW 3520   2.626   2.164   0.695 -0.0683  0.4053  0.5981
  881SOL     OW 3521   2.908   2.732   0.773  0.0529  0.2247  0.1646
  881SOL    HW1 3522   2.865   2.673   0.706 -1.3974 -2.0859 -1.0390
  881SOL    HW2 3523   2.999   2.723   0.735  0.4845 -2.2509 -1.8586
  881SOL     MW 3524   2.914   2.723   0.759 -0.0815 -0.4068 -0.2612
  882SOL     OW 3525   2.236   2.885   1.945  0.3306  0.4385  0.0330
  882SOL    HW1 3526   2.218   2.872   1.850 -0.8737  1.7600  3.2065
  882SOL    HW2 3527   2.207   2.815   1.999  1.1670  0.0596  0.1619
  882SOL     MW 3528   2.229   2.874   1.939  0.2820  0.5629  0.4687
  883SOL     OW 3529   2.299   2.184   1.454  0.2738  0.3226 -0.5098
  883SOL    HW1 3530   2.366   2.116   1.446 -0.9054  1.0064 -2.5388
  883SOL    HW2 3531   2.228   2.148   1.398 -0.3452 -2.1885  1.7939
  883SOL     MW 3532   2.298   2.170   1.446  0.0365  0.0815 -0.4736
  884SOL     OW 3533   1.953   1.794   1.046 -0.2772 -0.4300 -0.0832
  884SOL    HW1 3534   1.887   1.854   1.018  1.5266 -1.4082 -0.1267
  884SOL    HW2 3535   2.041   1.845   1.045  2.6073 -1.1862  2.7107
  884SOL     MW 3536   1.956   1.809   1.042  0.3414 -0.6588  0.2797
  885SOL     OW 3537   2.900   2.380   1.860 -0.1513 -0.1113 -0.5433
  885SOL    HW1 3538   2.984   2.337   1.842  0.6519  4.0399  0.8859
  885SOL    HW2 3539   2.841   2.353   1.791  2.8037  0.2480  0.0515
  885SOL     MW 3540   2.903   2.371   1.848  0.3446  0.4838 -0.2763
  886SOL     OW 3541   2.821   2.333   1.432  0.5780 -0.3080  0.4718
  886SOL    HW1 3542   2.907   2.304   1.396 -0.5531  1.8423 -1.7059
  886SOL    HW2 3543   2.828   2.427   1.423  0.1839  0.0937  2.6050
  886SOL     MW 3544   2.833   2.341   1.426  0.3768  0.0287  0.4659
  887SOL     OW 3545   2.254   2.631   1.524  0.4974 -0.1535  0.6300
  887SOL    HW1 3546   2.295   2.636   1.437  0.1545 -0.2441 -1.3139
  887SOL    HW2 3547   2.170   2.581   1.517  1.0469 -0.7883 -0.5245
  887SOL     MW 3548   2.248   2.625   1.512  0.5247 -0.2492  0.2212
  888SOL     OW 3549   1.886   2.044   1.371  0.2447  0.7088 -0.2339
  888SOL    HW1 3550   1.963   2.039   1.314 -1.6842  2.2786 -0.8686
  888SOL    HW2 3551   1.921   2.067   1.456  3.3285 -1.0453 -0.5739
  888SOL     MW 3552   1.901   2.046   1.374  0.3971  0.6845 -0.3625
  889SOL     OW 3553   2.309   2.025   2.081  0.1412  0.3808 -0.4257
  889SOL    HW1 3554   2.379   1.994   2.137 -2.3914  2.4109  1.2274
  889SOL    HW2 3555   2.352   2.085   2.021  1.2943  1.3822  0.9987
  889SOL     MW 3556   2.324   2.029   2.080 -0.0408  0.7808 -0.0197
  890SOL     OW 3557   0.071   2.337   0.115 -0.0990  0.3861 -0.1356
  890SOL    HW1 3558   0.029   2.421   0.104 -1.1477  0.0728  1.8809
  890SOL    HW2 3559   0.064   2.323   0.212  2.6879  0.0682  0.2220
  890SOL     MW 3560   0.064   2.346   0.126  0.1304  0.3028  0.1776
  891SOL     OW 3561   3.028   1.982   1.282  0.3088  0.1233 -0.0435
  891SOL    HW1 3562   3.115   1.938   1.284 -0.5651  0.6795  0.7845
  891SOL    HW2 3563   3.027   2.080   1.259 -0.9379  0.3525 -2.1637
  891SOL     MW 3564   3.039   1.989   1.279  0.0290  0.2269 -0.2140
  892SOL     OW 3565   2.431   2.323   2.743 -0.2241 -0.0597 -0.4217
  892SOL    HW1 3566   2.408   2.257   2.812 -0.2925  1.6081  1.7533
  892SOL    HW2 3567   2.510   2.369   2.789  0.5446 -2.7070 -2.0798
  892SOL     MW 3568   2.438   2.320   2.758 -0.1317 -0.1889 -0.3535
  893SOL     OW 3569   1.630   2.368   1.265 -0.1472 -0.2980 -0.5588
  893SOL    HW1 3570   1.568   2.396   1.326 -1.4426  0.4540 -3.9054
  893SOL    HW2 3571   1.719   2.372   1.304  0.0672  1.2467 -0.3522
  893SOL     MW 3572   1.634   2.372   1.278 -0.2898  0.0050 -0.9731
  894SOL     OW 3573   2.792   1.865   0.489  0.1650 -0.4101 -0.2321
  894SOL    HW1 3574   2.726   1.937   0.496 -3.7373  0.9387 -2.8000
  894SOL    HW2 3575   2.794   1.846   0.392  0.8030  0.8226  2.0458
  894SOL     MW 3576   2.784   1.872   0.477 -0.2657 -0.0695 -0.2704
  895SOL     OW 3577   2.119   2.115   1.271 -0.3324 -0.7249  0.0756
  895SOL    HW1 3578   2.102   2.197   1.217 -0.7095 -0.2857 -2.5414
  895SOL    HW2 3579   2.141   2.042   1.205 -1.2542  1.8909 -0.5146
  895SOL     MW 3580   2.120   2.116   1.255 -0.5038 -0.3218 -0.3476
  896SOL     OW 3581   2.226   2.783   1.068  0.2044  0.0775 -0.0165
  896SOL    HW1 3582   2.252   2.750   1.159  2.5986 -0.6590 -0.9162
  896SOL    HW2 3583   2.156   2.723   1.027 -4.2141 -3.6653 -0.6188
  896SOL     MW 3584   2.220   2.771   1.075 -0.0627 -0.5135 -0.2147
  897SOL     OW 3585   2.980   2.922   0.092  0.0461 -0.0497 -0.9770
  897SOL    HW1 3586   3.052   2.886   0.052 -1.8612  1.6024  3.7043
  897SOL    HW2 3587   2.903   2.878   0.057 -1.2452 -0.0190 -0.1029
  897SOL     MW 3588   2.979   2.911   0.082 -0.3759  0.1723 -0.2441
  898SOL     OW 3589   2.076   0.188   1.424  0.4487  0.9852 -0.2488
  898SOL    HW1 3590   2.082   0.092   1.440 -0.5486  0.2210  1.2161
  898SOL    HW2 3591   2.094   0.192   1.325 -2.7807 -0.0763 -1.6672
  898SOL     MW 3592   2.079   0.176   1.413 -0.1090  0.7443 -0.2427
  899SOL     OW 3593   2.913   2.971   0.630  0.2825  0.2815  0.1473
  899SOL    HW1 3594   2.907   2.899   0.695 -1.4699  2.5515  2.7356
  899SOL    HW2 3595   2.862   3.039   0.676  0.0440  1.6175  0.3051
  899SOL     MW 3596   2.905   2.971   0.644  0.0198  0.7572  0.5096
  900SOL     OW 3597   0.109   2.394   1.087  0.0031 -0.0299  0.5400
  900SOL    HW1 3598   0.082   2.483   1.091 -1.7485  1.1839 -0.7766
  900SOL    HW2 3599   0.106   2.368   0.991  1.1710 -1.7293  1.3776
  900SOL     MW 3600   0.105   2.402   1.075 -0.0739 -0.0940  0.4768
  901SOL     OW 3601   1.750   2.893   1.758 -0.0025 -1.0949  0.5703
  901SOL    HW1 3602   1.781   2.802   1.731 -0.8643 -0.2299  0.0618
  901SOL    HW2 3603   1.686   2.910   1.690  0.1046 -1.7744  0.7787
  901SOL     MW 3604   1.746   2.883   1.746 -0.1021 -1.0704  0.5307
  902SOL     OW 3605   2.684   2.102   1.824  0.2824 -0.0153  0.1238
  902SOL    HW1 3606   2.678   2.057   1.744  0.9393  1.3272 -0.2688
  902SOL    HW2 3607   2.771   2.085   1.856  0.7475 -1.9911 -0.3969
  902SOL     MW 3608   2.695   2.094   1.817  0.4305 -0.0988  0.0033
  903SOL     OW 3609   1.579   2.791   0.547  0.4268  0.1241  0.5265
  903SOL    HW1 3610   1.634   2.708   0.574  1.1067 -1.1025  1.9014
  903SOL    HW2 3611   1.533   2.826   0.626  0.4316 -1.3449 -0.6336
  903SOL     MW 3612   1.580   2.784   0.561  0.5172 -0.2316  0.5549
  904SOL     OW 3613   2.470   2.613   1.727 -0.1109  1.0002 -0.2124
  904SOL    HW1 3614   2.420   2.608   1.650 -0.4300 -1.8130  1.7439
  904SOL    HW2 3615   2.550   2.559   1.701  0.4977  2.4046 -1.6743
  904SOL     MW 3616   2.474   2.605   1.713 -0.0727  0.8143 -0.1472
  905SOL     OW 3617   2.309   2.573   2.181 -0.2727 -0.3895  0.1126
  905SOL    HW1 3618   2.383   2.562   2.118 -1.1139  1.4315 -1.3030
  905SOL    HW2 3619   2.292   2.479   2.203 -0.9106 -0.9930 -1.5166
  905SOL     MW 3620   2.317   2.559   2.175 -0.4679 -0.2288 -0.2891
  906SOL     OW 3621   2.435   2.506   0.887  0.8786 -0.5962  0.0544
  906SOL    HW1 3622   2.517   2.492   0.929 -2.1741 -1.0648  1.2297
  906SOL    HW2 3623   2.432   2.608   0.861  2.1176  1.8113 -0.2006
  906SOL     MW 3624   2.445   2.517   0.889  0.6393 -0.3404  0.1758
  907SOL     OW 3625   2.639   2.786   1.330  0.1211 -0.1912 -0.1180
  907SOL    HW1 3626   2.659   2.868   1.372 -0.3908 -0.8171  1.0879
  907SOL    HW2 3627   2.687   2.794   1.245  0.4683  1.6853 -1.7177
  907SOL     MW 3628   2.648   2.798   1.324  0.0993 -0.0262 -0.1699
  908SOL     OW 3629   2.743   2.368   3.092 -0.3141 -0.1741  0.5621
  908SOL    HW1 3630   2.674   2.303   3.092 -2.3502 -2.4337 -2.1067
  908SOL    HW2 3631   2.711   2.443   3.139  1.5301  1.0248  0.2627
  908SOL     MW 3632   2.730   2.369   3.098 -0.3394 -0.3141  0.1705
  909SOL     OW 3633   1.706   0.129   1.129 -0.4501 -0.6204  0.3093
  909SOL    HW1 3634   1.680   0.199   1.071 -1.1699 -1.0146  0.0936
  909SOL    HW2 3635   1.756   0.165   1.208  0.8567 -0.2081  2.8343
  909SOL     MW 3636   1.709   0.143   1.132 -0.3727 -0.6180  0.6140
  910SOL     OW 3637   2.353   1.762   0.461 -0.1869 -0.0590  0.6596
  910SOL    HW1 3638   2.283   1.699   0.475 -1.2308  1.8151 -0.1329
  910SOL    HW2 3639   2.327   1.800   0.377  0.5721 -0.5094 -0.2852
  910SOL     MW 3640   2.341   1.759   0.451 -0.2245  0.1288  0.4304
  911SOL     OW 3641   2.233   2.227   1.726  0.0232 -0.3883  0.2516
  911SOL    HW1 3642   2.301   2.223   1.795  1.0324 -0.1713  0.0062
  911SOL    HW2 3643   2.273   2.242   1.639 -1.4918 -0.8578 -1.0434
  911SOL     MW 3644   2.247   2.228   1.724 -0.0435 -0.4217  0.0483
  912SOL     OW 3645   2.929   1.934   1.525 -0.1054 -0.2055  0.7745
  912SOL    HW1 3646   2.956   1.963   1.438  3.8201  0.3844  0.4533
  912SOL    HW2 3647   2.841   1.974   1.540 -1.0113  0.5632 -0.1110
  912SOL     MW 3648   2.921   1.943   1.516  0.2930 -0.0262  0.6153
  913SOL     OW 3649   2.625   3.038   0.362  0.2172  0.1111  0.0169
  913SOL    HW1 3650   2.695   2.973   0.354 -0.1141  2.5871  0.1396
  913SOL    HW2 3651   2.540   3.005   0.355 -0.6362 -0.4054 -0.4451
  913SOL     MW 3652   2.623   3.025   0.360  0.0609  0.3696 -0.0278
  914SOL     OW 3653   2.683   1.755   3.057  0.1153  0.2091  0.3509
  914SOL    HW1 3654   2.722   1.812   2.984 -1.8539  0.0990 -2.2823
  914SOL    HW2 3655   2.590   1.752   3.035  2.9450  0.2565  1.2421
  914SOL     MW 3656   2.676   1.762   3.045  0.2288  0.2009  0.1211
  915SOL     OW 3657   1.690   0.233   0.224 -0.6104  0.0845  0.6643
  915SOL    HW1 3658   1.773   0.205   0.259 -0.7363  1.1396  0.9710
  915SOL    HW2 3659   1.626   0.168   0.253 -0.5312  1.2345 -3.9990
  915SOL     MW 3660   1.693   0.221   0.233 -0.6166  0.3755  0.0895
  916SOL     OW 3661   1.809   2.102   1.921  0.1677 -0.1776 -0.3534
  916SOL    HW1 3662   1.843   2.191   1.940 -0.3964 -0.2796  0.7908
  916SOL    HW2 3663   1.863   2.072   1.849  0.7414  1.6308 -0.9025
  916SOL     MW 3664   1.820   2.109   1.914  0.1690  0.0475 -0.2749
  917SOL     OW 3665   2.554   2.192   2.531  0.4530  0.2684 -0.1654
  917SOL    HW1 3666   2.515   2.244   2.601 -1.6537  1.0732 -4.3302
  917SOL    HW2 3667   2.610   2.250   2.485  2.7933 -1.2387  0.0019
  917SOL     MW 3668   2.556   2.206   2.534  0.4838  0.1758 -0.6928
  918SOL     OW 3669   2.005   1.601   2.717  0.0880 -0.5279 -0.4079
  918SOL    HW1 3670   1.926   1.621   2.664 -0.5802  0.0408  3.1306
  918SOL    HW2 3671   2.060   1.674   2.691 -1.7186 -0.5528 -0.5487
  918SOL     MW 3672   2.002   1.613   2.707 -0.2385 -0.4561  0.0404
  919SOL     OW 3673   0.001   2.305   2.264 -0.4292  0.1692  0.1666
  919SOL    HW1 3674  -0.059   2.235   2.231 -2.3122  1.1758 -1.1976
  919SOL    HW2 3675   0.055   2.322   2.188  0.3477  1.0791 -0.1311
  919SOL     MW 3676   0.000   2.298   2.250 -0.5751  0.4221 -0.0527
  920SOL     OW 3677   2.744   2.851   3.076  0.4944  0.5658 -0.1703
  920SOL    HW1 3678   2.661   2.897   3.090 -0.3173 -0.4071  3.5816
  920SOL    HW2 3679   2.724   2.784   3.004 -3.6102  0.0195 -0.3042
  920SOL     MW 3680   2.730   2.848   3.069 -0.1543  0.3653  0.3071
  921SOL     OW 3681   2.445   2.572   2.621  0.3836  0.4249  0.6330
  921SOL    HW1 3682   2.492   2.582   2.540  0.3711 -1.0782 -2.2657
  921SOL    HW2 3683   2.425   2.475   2.638 -0.8527 -1.8010 -0.3299
  921SOL     MW 3684   2.448   2.560   2.612  0.2188 -0.0671  0.1235
  922SOL     OW 3685   2.040   2.839   0.321  0.2528  0.4022 -0.5083
  922SOL    HW1 3686   2.026   2.877   0.236 -0.7593  0.3471  0.7712
  922SOL    HW2 3687   2.055   2.747   0.294  0.4461  3.4584 -1.0276
  922SOL     MW 3688   2.040   2.832   0.306  0.1448  0.7982 -0.4080
  923SOL     OW 3689   2.159   2.826   1.680  0.2569 -0.0505  0.1599
  923SOL    HW1 3690   2.214   2.769   1.626 -1.7388  0.0841  0.9093
  923SOL    HW2 3691   2.128   2.895   1.626 -0.2618 -1.8992  1.0401
  923SOL     MW 3692   2.162   2.828   1.666 -0.0748 -0.2767  0.3749
  924SOL     OW 3693   1.191   2.615   2.488 -0.3989  0.0239 -0.0165
  924SOL    HW1 3694   1.230   2.696   2.514 -1.3123 -2.1267  1.9817
  924SOL    HW2 3695   1.227   2.554   2.554 -0.3621  1.1150 -0.0246
  924SOL     MW 3696   1.201   2.618   2.500 -0.5146 -0.1159  0.2460
  925SOL     OW 3697   2.965   0.201   2.644  0.2747 -0.4882  0.4777
  925SOL    HW1 3698   2.957   0.228   2.544 -1.2477 -1.9657 -0.4050
  925SOL    HW2 3699   2.931   0.271   2.695 -1.3583  0.0389 -0.0082
  925SOL     MW 3700   2.959   0.214   2.637 -0.1416 -0.6136  0.2971
  926SOL     OW 3701   2.733   2.391   2.089 -0.4197 -0.0267  0.2752
  926SOL    HW1 3702   2.779   2.465   2.134 -1.3197  0.9867  0.2463
  926SOL    HW2 3703   2.778   2.401   2.008  2.2703 -0.8882 -0.4940
  926SOL     MW 3704   2.745   2.402   2.084 -0.1835 -0.0066  0.1699
  927SOL     OW 3705   2.357   0.148   0.286 -0.5832  0.2153 -0.5311
  927SOL    HW1 3706   2.455   0.167   0.278  3.0869 -0.1756 -1.2987
  927SOL    HW2 3707   2.332   0.129   0.196  0.7621 -0.2136  0.4162
  927SOL     MW 3708   2.367   0.148   0.273  0.0785  0.1071 -0.5074
  928SOL     OW 3709   2.139   2.433   1.931  0.7516 -0.2135 -0.3714
  928SOL    HW1 3710   2.157   2.509   1.871  0.8975  2.7560 -1.0089
  928SOL    HW2 3711   2.173   2.360   1.881  1.9917  0.2446 -0.9253
  928SOL     MW 3712   2.146   2.434   1.917  0.9345  0.2388 -0.5286
  929SOL     OW 3713   2.730   2.384   2.441  0.4019  0.4452 -0.1393
  929SOL    HW1 3714   2.800   2.380   2.381 -1.2963  0.3017  2.5053
  929SOL    HW2 3715   2.774   2.362   2.523  0.8236 -3.5448 -0.8316
  929SOL     MW 3716   2.745   2.380   2.444  0.2335 -0.1002  0.1183
  930SOL     OW 3717   2.020   2.848   2.690 -0.0275  0.1691 -0.2427
  930SOL    HW1 3718   2.044   2.769   2.738 -1.4319 -2.1050  1.0091
  930SOL    HW2 3719   2.093   2.916   2.715  2.4470  1.0225  0.1415
  930SOL     MW 3720   2.033   2.847   2.700  0.1137 -0.0183 -0.0269
  931SOL     OW 3721   3.011   2.778   2.309 -0.0488 -0.0941  0.7820
  931SOL    HW1 3722   3.066   2.784   2.387  4.3374 -0.9514  0.3645
  931SOL    HW2 3723   3.075   2.789   2.245 -2.0956 -3.1959  1.7602
  931SOL     MW 3724   3.027   2.780   2.311  0.2599 -0.6164  0.8560
  932SOL     OW 3725   2.845   1.975   2.575  0.2236 -0.4898  0.3490
  932SOL    HW1 3726   2.940   2.005   2.567 -0.1872  0.5110 -2.1060
  932SOL    HW2 3727   2.816   1.973   2.484  0.2231 -0.0579  0.9344
  932SOL     MW 3728   2.854   1.979   2.562  0.1693 -0.3007  0.1023
  933SOL     OW 3729   2.023   2.877   2.312  0.5135  0.2651 -0.1333
  933SOL    HW1 3730   2.101   2.926   2.339  0.9987 -1.0157  0.6507
  933SOL    HW2 3731   1.962   2.936   2.267 -0.4458 -0.4925 -0.1593
  933SOL     MW 3732   2.025   2.892   2.310  0.4510 -0.0038 -0.0333
  934SOL     OW 3733   2.015   2.675   2.469 -0.0242  0.3733  0.1573
  934SOL    HW1 3734   2.015   2.725   2.553 -2.8560  0.8325  0.9871
  934SOL    HW2 3735   2.020   2.748   2.402  1.8311 -0.7939  0.5028
  934SOL     MW 3736   2.016   2.691   2.471 -0.1530  0.2799  0.3124
  935SOL     OW 3737   2.676   1.555   1.808  0.1327 -0.5376 -0.3685
  935SOL    HW1 3738   2.777   1.556   1.790  1.6915 -2.3204 -1.5685
  935SOL    HW2 3739   2.624   1.545   1.729  1.3097 -1.5206 -0.5259
  935SOL     MW 3740   2.682   1.554   1.795  0.4937 -0.9025 -0.5476
  936SOL     OW 3741   2.989   2.215   3.064  0.2734 -0.0808 -0.2446
  936SOL    HW1 3742   3.052   2.272   3.112  0.1704  0.4595  0.5188
  936SOL    HW2 3743   2.911   2.273   3.069 -2.9186  1.2951  0.4895
  936SOL     MW 3744   2.987   2.230   3.071 -0.1613  0.1720 -0.0471
  937SOL     OW 3745   1.935   2.133   2.611 -0.3547 -0.1228  0.0484
  937SOL    HW1 3746   2.005   2.088   2.659  0.7500  0.0279 -1.4176
  937SOL    HW2 3747   1.935   2.091   2.526  0.7646  1.6747 -1.4731
  937SOL     MW 3748   1.944   2.122   2.606 -0.0613  0.1343 -0.3457
  938SOL     OW 3749   2.251   1.796   1.958  0.6150  0.0511  0.0141
  938SOL    HW1 3750   2.254   1.842   1.873 -0.9057  0.4023 -0.7350
  938SOL    HW2 3751   2.276   1.867   2.015 -2.4056  0.4613 -0.1832
  938SOL     MW 3752   2.255   1.811   1.954  0.0159  0.1516 -0.1108
  939SOL     OW 3753   2.731   1.966   2.315 -0.1591  0.3434  0.6242
  939SOL    HW1 3754   2.767   1.909   2.244 -3.0201 -0.8520  1.5208
  939SOL    HW2 3755   2.636   1.956   2.292 -1.7925 -0.9011 -3.6555
  939SOL     MW 3756   2.723   1.957   2.302 -0.7521  0.0215  0.1779
  940SOL     OW 3757   2.296   0.169   2.642 -0.2542 -0.2627 -0.1422
  940SOL    HW1 3758   2.297   0.074   2.668  2.4620 -2.3145  0.2409
  940SOL    HW2 3759   2.340   0.204   2.713 -3.6759 -1.8246 -0.3015
  940SOL     MW 3760   2.302   0.161   2.655 -0.3473 -0.7395 -0.1126
  941SOL     OW 3761   0.151   2.392   2.039 -0.8825  0.5439 -0.0530
  941SOL    HW1 3762   0.241   2.407   2.018  1.6479  3.0516  0.1908
  941SOL    HW2 3763   0.118   2.356   1.954  1.6335  0.7125  3.0408
  941SOL     MW 3764   0.158   2.389   2.025 -0.2166  0.8970  0.3874
  942SOL     OW 3765   2.888   2.164   2.187 -0.4235 -0.3524  0.1038
  942SOL    HW1 3766   2.832   2.234   2.151  1.1822  2.0733  1.6180
  942SOL    HW2 3767   2.831   2.109   2.235  1.0920  0.7147 -1.0205
  942SOL     MW 3768   2.873   2.166   2.188 -0.0117  0.1084  0.1552
  943SOL     OW 3769   0.293   2.102   2.276 -0.4862  0.4229  0.2624
  943SOL    HW1 3770   0.257   2.142   2.358 -0.7091 -1.6267  0.3664
  943SOL    HW2 3771   0.386   2.081   2.301  0.1132 -0.2620 -0.4120
  943SOL     MW 3772   0.301   2.104   2.290 -0.4365  0.0621  0.1871
  944SOL     OW 3773   2.077   2.695   2.102 -0.0978 -0.1139  0.1891
  944SOL    HW1 3774   2.147   2.628   2.127  2.2108  0.4038 -1.9448
  944SOL    HW2 3775   2.050   2.768   2.170 -2.0401 -1.8054 -0.8705
  944SOL     MW 3776   2.083   2.696   2.114 -0.0495 -0.2688 -0.2323
  945SOL     OW 3777   2.638   2.707   2.889 -0.0885  0.1459 -0.0062
  945SOL    HW1 3778   2.644   2.620   2.856 -2.6000  1.6443  0.9162
  945SOL    HW2 3779   2.569   2.754   2.837  3.0534  1.7194 -1.5737
  945SOL     MW 3780   2.630   2.702   2.878 -0.0053  0.5512 -0.0913
  946SOL     OW 3781   2.469   2.789   2.278  0.5913 -1.1220 -0.0221
  946SOL    HW1 3782   2.508   2.795   2.183 -1.1005 -1.1779  0.4776
  946SOL    HW2 3783   2.397   2.735   2.269  1.1757  1.6642 -0.0771
  946SOL     MW 3784   2.465   2.783   2.264  0.4452 -0.7618  0.0365
  947SOL     OW 3785   1.910   0.067   0.323  0.0315 -0.2578  0.2505
  947SOL    HW1 3786   1.832   0.035   0.366 -4.5942 -1.9287 -2.1363
  947SOL    HW2 3787   1.989   0.056   0.378 -0.2832  0.5644 -1.4623
  947SOL     MW 3788   1.910   0.061   0.336 -0.6203 -0.3698 -0.2904
  948SOL     OW 3789   1.830   3.067   2.670  0.3293  0.8259  0.0960
  948SOL    HW1 3790   1.898   3.000   2.679 -0.7245 -0.9698 -0.3564
  948SOL    HW2 3791   1.810   3.066   2.573 -1.3824  1.0613 -1.0888
  948SOL     MW 3792   1.836   3.058   2.659 -0.0356  0.6200 -0.1200
  949SOL     OW 3793   2.463   1.928   2.257  0.2626 -0.6047  0.0015
  949SOL    HW1 3794   2.450   1.832   2.280 -0.4404  1.6285 -0.1239
  949SOL    HW2 3795   2.418   1.992   2.315 -2.5121  0.4074 -1.0980
  949SOL     MW 3796   2.456   1.923   2.268 -0.1963 -0.1766 -0.1601
  950SOL     OW 3797   2.274   2.476   2.953 -0.0997 -0.9370 -0.0748
  950SOL    HW1 3798   2.305   2.414   2.888  0.9143  0.4432  0.5074
  950SOL    HW2 3799   2.187   2.497   2.925 -1.5846 -1.2037  1.1662
  950SOL     MW 3800   2.267   2.470   2.941 -0.1619 -0.7901  0.1658
  951SOL     OW 3801   2.998   2.098   2.818  0.0840 -0.3578 -0.3923
  951SOL    HW1 3802   3.006   2.139   2.908 -0.3372  3.2077  0.5785
  951SOL    HW2 3803   3.071   2.036   2.809  1.5870 -0.2524 -0.1505
  951SOL     MW 3804   3.009   2.096   2.829  0.2268  0.1265 -0.2323
  952SOL     OW 3805   3.016   1.652   2.144 -0.9232  0.0601  0.0578
  952SOL    HW1 3806   2.941   1.714   2.123 -1.9467 -0.6191 -0.5053
  952SOL    HW2 3807   3.059   1.693   2.219 -0.1349  0.2719  0.7374
  952SOL     MW 3808   3.012   1.666   2.151 -0.9543 -0.0015  0.0732
  953SOL     OW 3809   1.908   1.781   2.926 -0.6242 -0.0324  0.2357
  953SOL    HW1 3810   1.835   1.734   2.967  1.8879  0.4525 -0.9609
  953SOL    HW2 3811   1.947   1.724   2.853 -1.6450 -0.2419 -1.0391
  953SOL     MW 3812   1.903   1.768   2.922 -0.4274  0.0040 -0.0904
  954SOL     OW 3813   2.400   2.079   2.889 -0.3160  0.0385  0.1068
  954SOL    HW1 3814   2.310   2.081   2.862  2.1357 -0.2461  2.9949
  954SOL    HW2 3815   2.459   2.030   2.824  0.0422  0.5806 -1.5147
  954SOL     MW 3816   2.396   2.073   2.877  0.0548  0.0724  0.2739
  955SOL     OW 3817   1.524   1.575   2.587  0.5835  0.3359  0.1100
  955SOL    HW1 3818   1.503   1.605   2.498 -0.4079 -0.1949 -2.9978
  955SOL    HW2 3819   1.601   1.627   2.606 -2.8517  0.6299 -0.4724
  955SOL     MW 3820   1.531   1.586   2.578 -0.0005  0.3046 -0.3768
  956SOL     OW 3821   2.678   2.421   2.830 -0.0512  0.4103  0.2328
  956SOL    HW1 3822   2.697   2.406   2.921  1.3118 -0.0747 -1.4190
  956SOL    HW2 3823   2.737   2.364   2.783 -1.0507 -0.8392 -1.0227
  956SOL     MW 3824   2.688   2.411   2.836 -0.0032  0.1815 -0.1508
  957SOL     OW 3825   2.340   2.838   0.356 -0.7529 -0.1076  0.2861
  957SOL    HW1 3826   2.275   2.836   0.283  0.7202 -0.2780 -1.8984
  957SOL    HW2 3827   2.298   2.820   0.444  1.2353  1.1509  0.3057
  957SOL     MW 3828   2.326   2.835   0.358 -0.2962  0.0360  0.0005
  958SOL     OW 3829   2.051   2.614   2.823  1.0947  0.4896 -0.0522
  958SOL    HW1 3830   2.011   2.550   2.759  1.6876  0.6945 -1.4430
  958SOL    HW2 3831   1.977   2.622   2.880  1.1181 -2.0292 -2.6384
  958SOL     MW 3832   2.036   2.607   2.822  1.1760  0.1843 -0.5769
  959SOL     OW 3833   2.497   2.599   0.337  0.3365 -0.0591 -0.0306
  959SOL    HW1 3834   2.549   2.613   0.263 -0.8890  0.4424 -2.4429
  959SOL    HW2 3835   2.441   2.680   0.341 -3.5638  1.2509  1.6295
  959SOL     MW 3836   2.497   2.612   0.328 -0.3398  0.1799 -0.1298
  960SOL     OW 3837   1.910   2.251   2.232 -0.1748  0.5317  0.2183
  960SOL    HW1 3838   1.931   2.168   2.273  2.8659 -0.5033 -0.5653
  960SOL    HW2 3839   1.860   2.295   2.306 -2.2052 -3.3418  2.2648
  960SOL     MW 3840   1.906   2.246   2.247 -0.0415 -0.1159  0.3849
  961SOL     OW 3841   2.204   2.319   2.271  0.0584  0.0395  0.1003
  961SOL    HW1 3842   2.106   2.306   2.257  0.6444 -2.7649 -1.2869
  961SOL    HW2 3843   2.207   2.376   2.357 -0.6343  1.1364  0.6051
  961SOL     MW 3844   2.191   2.325   2.281  0.0443 -0.1858 -0.0161
  962SOL     OW 3845   2.130   2.021   2.759 -0.1342 -0.1546 -0.7613
  962SOL    HW1 3846   2.098   2.004   2.844  3.5063  2.3594 -2.0776
  962SOL    HW2 3847   2.146   1.935   2.708  0.0134 -2.1014 -1.4491
  962SOL     MW 3848   2.128   2.008   2.763  0.3656 -0.0798 -1.0257
  963SOL     OW 3849   1.840   2.548   2.055 -0.0451 -0.1748  0.1195
  963SOL    HW1 3850   1.930   2.586   2.058 -1.4350 -1.6031  0.0884
  963SOL    HW2 3851   1.842   2.484   1.981 -1.0191 -0.3045 -0.2118
  963SOL     MW 3852   1.852   2.544   2.046 -0.3570 -0.3803  0.0717
  964SOL     OW 3853   1.769   1.936   2.729 -0.3348  0.3175  0.3120
  964SOL    HW1 3854   1.819   2.008   2.690  1.9026  4.4763  0.5916
  964SOL    HW2 3855   1.823   1.914   2.804  0.1738  1.0552 -1.9858
  964SOL     MW 3856   1.783   1.942   2.734  0.0275  0.9635  0.0458
  965SOL     OW 3857   2.209   2.757   0.593  0.0789 -0.3985 -0.6112
  965SOL    HW1 3858   2.207   2.662   0.586 -0.2030  0.5831  1.9908
  965SOL    HW2 3859   2.265   2.773   0.671  2.3351 -0.4298 -1.0446
  965SOL     MW 3860   2.216   2.747   0.602  0.3394 -0.2731 -0.3251
  966SOL     OW 3861   2.687   2.675   2.464 -0.0337 -0.3601  0.0033
  966SOL    HW1 3862   2.621   2.698   2.398 -0.7597  2.5797  1.0264
  966SOL    HW2 3863   2.708   2.583   2.457  0.5363 -0.0778 -2.4521
  966SOL     MW 3864   2.681   2.666   2.454 -0.0543  0.0651 -0.1857
  967SOL     OW 3865   2.769   3.049   2.893 -0.4803 -0.3832 -0.7154
  967SOL    HW1 3866   2.754   2.960   2.931 -1.7669 -0.1329  0.6795
  967SOL    HW2 3867   2.703   3.043   2.819 -2.5124 -1.0247 -1.1782
  967SOL     MW 3868   2.758   3.036   2.888 -0.9182 -0.4348 -0.5924
  968SOL     OW 3869   2.991   2.618   2.892 -0.5680 -0.1352 -0.5061
  968SOL    HW1 3870   2.938   2.680   2.843  3.0766 -2.9082 -1.3893
  968SOL    HW2 3871   3.033   2.564   2.826 -2.0220 -0.2295  1.3350
  968SOL     MW 3872   2.990   2.619   2.877 -0.2790 -0.5135 -0.3797
  969SOL     OW 3873   1.611   2.119   1.637  0.7028  0.2174  0.3129
  969SOL    HW1 3874   1.661   2.037   1.640 -1.4306  2.0790 -0.9354
  969SOL    HW2 3875   1.593   2.130   1.730 -2.5338  1.4216 -0.5189
  969SOL     MW 3876   1.616   2.110   1.649 -0.0057  0.6219  0.0384
  970SOL     OW 3877   1.689   1.794   1.886  0.1417  0.6530  0.8577
  970SOL    HW1 3878   1.722   1.730   1.945 -1.1118  0.0543  2.5520
  970SOL    HW2 3879   1.594   1.786   1.905 -1.3811 -3.9240  2.4829
  970SOL     MW 3880   1.681   1.784   1.896 -0.2246 -0.0299  1.2957
  971SOL     OW 3881   1.754   3.087   2.422 -0.3076  0.6605 -0.0071
  971SOL    HW1 3882   1.763   3.063   2.334 -0.0064 -0.2577  2.4741
  971SOL    HW2 3883   1.803   3.167   2.431 -1.8994 -0.0984  0.0936
  971SOL     MW 3884   1.761   3.094   2.411 -0.4778  0.4392  0.3336
  972SOL     OW 3885   0.262   2.835   2.493 -0.2252 -0.0121  0.0127
  972SOL    HW1 3886   0.325   2.762   2.479  0.4920  0.4686  2.2654
  972SOL    HW2 3887   0.317   2.915   2.499  2.9183 -0.4739  1.1688
  972SOL     MW 3888   0.278   2.836   2.492  0.2842 -0.0096  0.4625
  973SOL     OW 3889   2.537   0.012   2.078  0.4990 -0.4019  0.0763
  973SOL    HW1 3890   2.524  -0.079   2.055 -2.7226 -0.4435 -2.5038
  973SOL    HW2 3891   2.563   0.052   1.991  0.1381 -1.1200  0.1730
  973SOL     MW 3892   2.538   0.005   2.064  0.0263 -0.5021 -0.2514
  974SOL     OW 3893   2.034   0.201   2.684 -0.6898 -0.0127  0.2596
  974SOL    HW1 3894   2.125   0.193   2.655 -1.3921 -1.8194  1.2546
  974SOL    HW2 3895   2.042   0.160   2.767  0.2554  0.8633 -1.9019
  974SOL     MW 3896   2.047   0.195   2.691 -0.6578 -0.1355  0.1057
  975SOL     OW 3897   2.209   2.490   2.474 -0.0606 -0.0700 -0.0610
  975SOL    HW1 3898   2.266   2.558   2.517  1.8667 -0.3566  0.5975
  975SOL    HW2 3899   2.129   2.544   2.454  0.1909  0.9249  0.5602
  975SOL     MW 3900   2.206   2.506   2.477  0.2268  0.0234  0.1079
  976SOL     OW 3901   0.219   0.363   1.741  0.2861 -0.3570 -0.3150
  976SOL    HW1 3902   0.301   0.311   1.774  1.3421 -1.0902 -1.5167
  976SOL    HW2 3903   0.162   0.297   1.680  0.0421 -0.1579 -1.8327
  976SOL     MW 3904   0.222   0.347   1.738  0.3932 -0.4275 -0.6738
  977SOL     OW 3905   1.760   2.634   2.521  0.2777  0.5122  0.1027
  977SOL    HW1 3906   1.760   2.544   2.484 -0.5100 -0.4085 -1.6562
  977SOL    HW2 3907   1.846   2.664   2.517 -0.6357 -1.1779  2.2411
  977SOL     MW 3908   1.771   2.626   2.516  0.0533  0.1677  0.1527
   3.10000   3.10000   3.10000
