977 TIP4P/2005f water molecules t=   0.81000 step= 810
 3908
    1SOL     OW    1   0.285   0.840   3.056  0.8817 -0.2123 -0.2075
    1SOL    HW1    2   0.242   0.833   2.975 -0.6419  0.0971 -0.9208
    1SOL    HW2    3   0.256   0.757   3.098  1.7907  2.3575 -0.0924
    1SOL     MW    4   0.275   0.828   3.051  0.8006  0.1676 -0.2864
    2SOL     OW    5   0.294   2.997   1.164  0.1302 -0.3355  0.3337
    2SOL    HW1    6   0.364   3.062   1.154 -0.1574 -1.5299  1.9034
    2SOL    HW2    7   0.213   3.044   1.133 -0.0078 -1.9819 -2.1155
    2SOL     MW    8   0.293   3.011   1.159  0.0741 -0.7103  0.2177
    3SOL     OW    9   2.635   0.407   0.945 -0.6989 -0.0993  0.4299
    3SOL    HW1   10   2.695   0.487   0.918  2.2066  0.1088  1.5453
    3SOL    HW2   11   2.623   0.425   1.044  2.5454  0.0238  1.2362
    3SOL     MW   12   2.641   0.420   0.954  0.1125 -0.0556  0.6835
    4SOL     OW   13   3.013   1.711   0.652 -0.6241  0.2741 -0.6231
    4SOL    HW1   14   2.937   1.753   0.599 -0.0812  3.5826  2.2652
    4SOL    HW2   15   3.079   1.681   0.589 -1.3712 -2.2960  2.6237
    4SOL     MW   16   3.011   1.712   0.637 -0.6510  0.3715  0.1863
    5SOL     OW   17   1.728   1.503   0.523  0.7265  0.1071 -0.0711
    5SOL    HW1   18   1.756   1.453   0.603 -0.0720  0.9440  3.0399
    5SOL    HW2   19   1.628   1.514   0.512 -0.5675  0.8530 -0.4548
    5SOL     MW   20   1.719   1.498   0.532  0.4504  0.3159  0.2887
    6SOL     OW   21   0.852   1.438   0.627 -0.2442  0.8347 -0.9317
    6SOL    HW1   22   0.757   1.447   0.648 -1.9506  1.9255  1.1183
    6SOL    HW2   23   0.870   1.350   0.660  2.4913 -0.6637  0.7485
    6SOL     MW   24   0.841   1.428   0.634 -0.1084  0.7809 -0.4395
    7SOL     OW   25   2.027   1.155   3.059  0.2341  0.3292  0.1940
    7SOL    HW1   26   2.080   1.198   2.996 -1.9080 -1.0166  0.3168
    7SOL    HW2   27   2.073   1.173   3.142 -0.4493  1.4925 -0.4737
    7SOL     MW   28   2.040   1.163   3.061 -0.1387  0.3051  0.1221
    8SOL     OW   29   0.930   1.355   1.031 -0.1199  0.3641 -0.0637
    8SOL    HW1   30   1.019   1.327   1.057 -2.2136  1.6679 -0.8019
    8SOL    HW2   31   0.869   1.314   1.090  0.3902  1.5873 -1.9028
    8SOL     MW   32   0.933   1.346   1.042 -0.3289  0.6975 -0.4037
    9SOL     OW   33   1.041   0.496   1.383 -0.3792  1.0163  0.1051
    9SOL    HW1   34   0.982   0.430   1.345 -0.5797  0.8469 -0.4330
    9SOL    HW2   35   1.086   0.445   1.452 -0.6008 -0.9495  2.9129
    9SOL     MW   36   1.039   0.480   1.387 -0.4349  0.7346  0.4046
   10SOL     OW   37   0.295   0.820   0.464  0.0464 -0.1571  0.3073
   10SOL    HW1   38   0.383   0.819   0.420 -0.3339  1.5499  2.2530
   10SOL    HW2   39   0.310   0.860   0.549  0.7523 -0.7061 -2.0938
   10SOL     MW   40   0.309   0.825   0.469  0.0894 -0.0043  0.2472
   11SOL     OW   41   0.792   1.143   1.730  0.1925 -0.1322  0.1313
   11SOL    HW1   42   0.841   1.119   1.806 -2.0362  0.9833  0.6478
   11SOL    HW2   43   0.782   1.056   1.671  3.0417 -4.5746  0.6043
   11SOL     MW   44   0.797   1.129   1.732  0.2744 -0.5711  0.2619
   12SOL     OW   45   0.023   1.046   0.876 -0.4153 -0.0177  0.2242
   12SOL    HW1   46   0.076   1.124   0.918 -0.4757  3.3009  1.2589
   12SOL    HW2   47  -0.038   1.095   0.816  1.1736  0.7594  2.1934
   12SOL     MW   48   0.022   1.063   0.874 -0.2136  0.5227  0.6206
   13SOL     OW   49   1.852   1.377   1.348 -0.4374  0.6495  0.3818
   13SOL    HW1   50   1.853   1.332   1.268 -0.9949  0.8457  2.0985
   13SOL    HW2   51   1.862   1.470   1.334 -1.0666  0.4875  1.9843
   13SOL     MW   52   1.853   1.384   1.335 -0.5939  0.6540  0.8197
   14SOL     OW   53   0.656   0.409   1.854  0.0935 -0.0041  0.2770
   14SOL    HW1   54   0.598   0.334   1.856  2.2696  0.9198 -2.3471
   14SOL    HW2   55   0.712   0.404   1.932  0.0071  1.2253  1.4612
   14SOL     MW   56   0.656   0.399   1.865  0.3692  0.2800  0.0870
   15SOL     OW   57   1.920   0.430   0.979 -0.3311 -0.5014  0.1178
   15SOL    HW1   58   1.915   0.476   1.067 -0.6072 -0.9724 -0.5964
   15SOL    HW2   59   2.009   0.425   0.940 -0.4448 -1.5203  1.6478
   15SOL     MW   60   1.931   0.435   0.986 -0.3826 -0.6980  0.2254
   16SOL     OW   61   0.196   1.836   0.328 -0.6169 -0.1560  0.3949
   16SOL    HW1   62   0.293   1.813   0.328 -0.3691 -0.6126 -4.1920
   16SOL    HW2   63   0.188   1.932   0.349  1.2812  1.0055 -1.4152
   16SOL     MW   64   0.208   1.845   0.331 -0.3337 -0.0630 -0.4491
   17SOL     OW   65   1.101   0.919   1.518  0.3629 -0.0649  0.0806
   17SOL    HW1   66   1.151   0.879   1.592  0.8081  0.0118  0.2886
   17SOL    HW2   67   1.011   0.927   1.539  1.8177 -2.2850 -1.6510
   17SOL     MW   68   1.095   0.915   1.530  0.6136 -0.3477 -0.1204
   18SOL     OW   69   0.072   1.589   0.362 -0.0254 -0.4399 -0.2106
   18SOL    HW1   70   0.115   1.677   0.359 -0.1389  1.9164  1.0506
   18SOL    HW2   71   0.087   1.563   0.273 -1.9002  0.5516  0.8093
   18SOL     MW   72   0.080   1.597   0.350 -0.2877  0.0018  0.0904
   19SOL     OW   73   0.127   1.292   0.986 -0.0436  0.2079  0.4080
   19SOL    HW1   74   0.136   1.336   0.904 -2.6953  0.3004  3.6571
   19SOL    HW2   75   0.040   1.319   1.021  1.1746  2.4126 -2.3447
   19SOL     MW   76   0.117   1.301   0.980 -0.2327  0.5110  0.4735
   20SOL     OW   77   0.430   2.120   1.154  0.1819  0.1789 -0.1810
   20SOL    HW1   78   0.365   2.045   1.125 -0.9563 -0.6330 -3.5191
   20SOL    HW2   79   0.385   2.159   1.230 -1.1549  0.3320  2.1839
   20SOL     MW   80   0.415   2.115   1.160 -0.1446  0.0920 -0.3094
   21SOL     OW   81   0.540   0.816   0.351 -0.0255  0.0412 -0.2058
   21SOL    HW1   82   0.614   0.820   0.413 -2.5729 -1.1050  0.2871
   21SOL    HW2   83   0.581   0.808   0.263  0.1947  0.3250 -0.2381
   21SOL     MW   84   0.555   0.815   0.348 -0.3326 -0.0726 -0.1450
   22SOL     OW   85   1.498   0.650   1.063  0.3414  0.4897 -0.6379
   22SOL    HW1   86   1.475   0.624   0.965 -0.0059  0.9899 -2.8581
   22SOL    HW2   87   1.409   0.664   1.100  0.6567  2.6384  0.5249
   22SOL     MW   88   1.483   0.648   1.055  0.3372  0.8392 -0.7774
   23SOL     OW   89   0.031   0.772   0.666  0.2329 -0.2874  0.2999
   23SOL    HW1   90   0.057   0.700   0.723 -2.0449 -1.1034 -2.6649
   23SOL    HW2   91   0.109   0.835   0.672  0.2658  0.7877  2.3619
   23SOL     MW   92   0.045   0.771   0.674 -0.0633 -0.2532  0.1808
   24SOL     OW   93   1.984   2.225   0.121 -0.1377  0.3103 -0.2067
   24SOL    HW1   94   1.994   2.200   0.219 -1.8327  0.7921  2.6886
   24SOL    HW2   95   2.008   2.147   0.068 -1.6876 -0.2940 -0.8488
   24SOL     MW   96   1.989   2.211   0.127 -0.5658  0.2941  0.0906
   25SOL     OW   97   0.228   1.368   0.494  0.0621  0.5999  0.5495
   25SOL    HW1   98   0.183   1.448   0.465  1.7518 -0.4055 -0.8321
   25SOL    HW2   99   0.290   1.356   0.424  2.1431  0.4657 -2.2606
   25SOL     MW  100   0.230   1.377   0.481  0.5596  0.4495 -0.0036
   26SOL     OW  101   2.027   0.983   0.367  0.2865 -0.2351 -0.1313
   26SOL    HW1  102   1.952   1.020   0.418  0.2700 -0.8297 -1.1016
   26SOL    HW2  103   2.050   1.059   0.309 -1.1918  1.2756 -4.3110
   26SOL     MW  104   2.020   0.998   0.366  0.0892 -0.1142 -0.8108
   27SOL     OW  105   2.037   1.440   0.259 -0.5566 -0.0189  0.1294
   27SOL    HW1  106   1.960   1.388   0.299 -2.2605  0.9070  0.0687
   27SOL    HW2  107   2.090   1.484   0.330 -0.4787  1.4361  1.0957
   27SOL     MW  108   2.034   1.439   0.274 -0.7711  0.2952  0.2489
   28SOL     OW  109   0.390   1.039   2.009 -0.6795 -0.8751 -0.3805
   28SOL    HW1  110   0.466   0.983   2.038 -0.2957 -2.1518 -3.1951
   28SOL    HW2  111   0.327   0.967   2.023  1.2673  1.4603  0.7364
   28SOL     MW  112   0.392   1.022   2.015 -0.3720 -0.7354 -0.6045
   29SOL     OW  113   0.232   1.447   0.757  0.0048  0.1874  0.0713
   29SOL    HW1  114   0.227   1.545   0.755 -0.4491  0.8397 -0.6408
   29SOL    HW2  115   0.248   1.418   0.664  1.4985 -1.0284  1.8430
   29SOL     MW  116   0.234   1.456   0.744  0.1420  0.1131  0.2111
   30SOL     OW  117   0.803   1.187   1.211  0.6935 -0.8235 -0.1071
   30SOL    HW1  118   0.713   1.191   1.247 -0.8900  0.3509  2.3854
   30SOL    HW2  119   0.866   1.204   1.285 -1.3420 -1.1499  1.4857
   30SOL     MW  120   0.800   1.190   1.225  0.2160 -0.7116  0.4319
   31SOL     OW  121   0.425   0.139   0.188 -0.0652 -0.2418  0.4603
   31SOL    HW1  122   0.456   0.063   0.234 -0.4416  0.3511 -2.3766
   31SOL    HW2  123   0.451   0.107   0.098  3.9985  1.5281  2.4791
   31SOL     MW  124   0.432   0.125   0.182  0.4213  0.0699  0.3524
   32SOL     OW  125   2.789   0.999   1.127  0.0313 -0.0611 -0.0763
   32SOL    HW1  126   2.723   0.925   1.137  1.7639  0.2565 -1.0208
   32SOL    HW2  127   2.871   0.971   1.087 -1.6660 -1.8384  1.2030
   32SOL     MW  128   2.791   0.985   1.123  0.0360 -0.2537 -0.0321
   33SOL     OW  129   1.823   1.302   0.348 -0.6366 -0.0064 -0.0932
   33SOL    HW1  130   1.835   1.250   0.428  3.5969 -1.3352 -2.8579
   33SOL    HW2  131   1.777   1.382   0.373  2.6968  2.0458  3.1953
   33SOL     MW  132   1.818   1.306   0.362  0.3618  0.0891 -0.0241
   34SOL     OW  133   1.248   1.860   1.067 -0.3146 -0.2468  0.3533
   34SOL    HW1  134   1.159   1.872   1.090  1.1680  2.8246 -0.3989
   34SOL    HW2  135   1.306   1.886   1.143 -0.1420  0.8913  0.1471
   34SOL     MW  136   1.244   1.865   1.080 -0.0962  0.3086  0.2269
   35SOL     OW  137   0.440   0.184   1.880  0.3594  0.3764 -0.1596
   35SOL    HW1  138   0.388   0.127   1.935 -2.2329  2.9338  0.0634
   35SOL    HW2  139   0.473   0.122   1.808 -0.7537 -0.0716 -3.9982
   35SOL     MW  140   0.438   0.168   1.878 -0.1295  0.6547 -0.6367
   36SOL     OW  141   1.911   1.938   0.543  0.1858 -0.0513  0.4912
   36SOL    HW1  142   1.975   1.980   0.479  1.3319  1.4440 -0.5402
   36SOL    HW2  143   1.944   1.847   0.559 -0.7249  0.9782 -1.2213
   36SOL     MW  144   1.924   1.931   0.537  0.2169  0.2818  0.1292
   37SOL     OW  145   1.746   1.983   1.027 -0.1663 -0.0205 -0.3002
   37SOL    HW1  146   1.717   1.922   0.964  1.6324  1.4614  0.9463
   37SOL    HW2  147   1.670   2.034   1.049 -0.9037 -2.5102 -1.4989
   37SOL     MW  148   1.732   1.982   1.022 -0.0263 -0.1535 -0.2939
   38SOL     OW  149   2.771   0.914   0.118  0.1868  0.5006 -0.1403
   38SOL    HW1  150   2.816   0.917   0.203 -3.0683 -4.2204  0.9963
   38SOL    HW2  151   2.827   0.862   0.064 -2.0323 -1.2600 -4.1651
   38SOL     MW  152   2.784   0.908   0.122 -0.5355 -0.3546 -0.5214
   39SOL     OW  153   1.422   0.598   0.820 -0.0370 -0.3414  0.4030
   39SOL    HW1  154   1.398   0.500   0.830  1.0532 -0.4274  2.5330
   39SOL    HW2  155   1.340   0.648   0.790 -1.8451  1.1211  0.6124
   39SOL     MW  156   1.408   0.592   0.817 -0.1317 -0.1598  0.7117
   40SOL     OW  157   1.159   1.892   0.264 -0.1935 -0.3615 -0.0810
   40SOL    HW1  158   1.216   1.845   0.322 -1.5147 -0.3675  3.3728
   40SOL    HW2  159   1.123   1.962   0.321  1.4021 -2.0394 -0.6626
   40SOL     MW  160   1.162   1.895   0.279 -0.1573 -0.5837  0.2980
   41SOL     OW  161   0.605   0.547   1.607 -0.4595 -0.1528  0.0962
   41SOL    HW1  162   0.686   0.599   1.597 -1.9983  0.4498 -0.5075
   41SOL    HW2  163   0.621   0.487   1.679 -1.7159 -0.3813  3.3608
   41SOL     MW  164   0.618   0.546   1.615 -0.8283 -0.1034  0.4473
   42SOL     OW  165   1.280   3.029   1.970  0.6087 -0.0877 -0.0612
   42SOL    HW1  166   1.188   3.012   2.002 -1.1446 -0.9795 -2.4426
   42SOL    HW2  167   1.337   2.952   1.982  0.8966  2.7758 -1.3381
   42SOL     MW  168   1.275   3.017   1.975  0.4154  0.1725 -0.5439
   43SOL     OW  169   1.571   0.114   1.733  0.1986 -0.4263 -0.0865
   43SOL    HW1  170   1.616   0.074   1.656 -1.1294  1.1575 -0.9318
   43SOL    HW2  171   1.479   0.078   1.727 -1.1169 -0.7522  0.3261
   43SOL     MW  172   1.564   0.104   1.722 -0.1502 -0.2604 -0.1436
   44SOL     OW  173   1.107   0.753   1.049 -1.3803 -0.4965 -0.5391
   44SOL    HW1  174   1.131   0.839   1.015  0.1121 -1.2772  0.5545
   44SOL    HW2  175   1.122   0.761   1.143  1.4384  0.0271 -3.3587
   44SOL     MW  176   1.112   0.765   1.057 -0.8115 -0.5304 -0.7668
   45SOL     OW  177   1.210   0.740   0.720  1.0506 -0.1478 -0.3656
   45SOL    HW1  178   1.138   0.758   0.778  0.5402 -2.4676 -1.7430
   45SOL    HW2  179   1.167   0.693   0.647 -1.9394  1.5022  0.7379
   45SOL     MW  180   1.195   0.736   0.718  0.5888 -0.2362 -0.4018
   46SOL     OW  181   0.588   1.181   0.563 -0.3852 -0.2221 -0.0595
   46SOL    HW1  182   0.528   1.177   0.488 -1.0200  1.2359  0.3713
   46SOL    HW2  183   0.657   1.118   0.551 -0.1941 -2.9829  0.5270
   46SOL     MW  184   0.589   1.172   0.552 -0.4438 -0.3940  0.0747
   47SOL     OW  185   0.179   1.974   1.895  0.1817  0.6950  0.5595
   47SOL    HW1  186   0.221   1.899   1.839 -0.1731  0.2403 -0.3500
   47SOL    HW2  187   0.169   1.955   1.987 -0.6191  3.0769 -0.3670
   47SOL     MW  188   0.184   1.962   1.899  0.0292  0.9493  0.3173
   48SOL     OW  189   1.091   0.493   0.956 -0.0649  0.3438  0.2117
   48SOL    HW1  190   1.002   0.456   0.968 -2.9516  0.2042  0.4659
   48SOL    HW2  191   1.095   0.582   0.986  0.4681 -1.6896  0.9513
   48SOL     MW  192   1.080   0.500   0.961 -0.3755  0.0571  0.3428
   49SOL     OW  193   1.834   0.732   1.599  0.3066  0.0857 -0.5323
   49SOL    HW1  194   1.802   0.684   1.675 -0.6587 -1.2407  0.7422
   49SOL    HW2  195   1.884   0.669   1.550  0.0791  1.2049  2.2630
   49SOL     MW  196   1.836   0.717   1.602  0.1492  0.0584  0.0047
   50SOL     OW  197   1.204   1.077   0.521  0.2736  0.3511 -0.3153
   50SOL    HW1  198   1.147   1.123   0.585 -2.1499  0.5359  2.1961
   50SOL    HW2  199   1.279   1.047   0.574 -0.0364  1.7146  0.9730
   50SOL     MW  200   1.206   1.079   0.536 -0.0870  0.5554  0.1860
   51SOL     OW  201   0.307   2.877   0.931 -1.1947  0.4079  0.0097
   51SOL    HW1  202   0.389   2.822   0.948  1.5022 -2.8998  1.0084
   51SOL    HW2  203   0.300   2.931   1.013  0.9906  0.4820 -3.1508
   51SOL     MW  204   0.317   2.877   0.944 -0.5505 -0.0187 -0.2755
   52SOL     OW  205   0.817   1.834   0.434 -0.0464 -0.5409  0.0499
   52SOL    HW1  206   0.747   1.903   0.438  0.7631  2.2499 -0.8683
   52SOL    HW2  207   0.793   1.774   0.363  0.0379 -0.8336  0.5960
   52SOL     MW  208   0.804   1.835   0.425  0.0715 -0.2113  0.0008
   53SOL     OW  209   0.414   2.126   0.602 -0.1101  0.0855 -0.5367
   53SOL    HW1  210   0.347   2.116   0.532 -0.5604 -1.6327 -3.7521
   53SOL    HW2  211   0.419   2.214   0.631  1.9038 -2.7226 -0.4359
   53SOL     MW  212   0.406   2.136   0.597  0.0962 -0.5117 -0.9476
   54SOL     OW  213   2.089   0.928   0.846 -0.1948 -0.0219 -0.4235
   54SOL    HW1  214   2.116   0.943   0.753 -0.4425  2.4569 -0.7423
   54SOL    HW2  215   2.059   0.836   0.838 -1.8795  0.5977 -2.2072
   54SOL     MW  216   2.088   0.918   0.833 -0.4497  0.3869 -0.7009
   55SOL     OW  217   0.577   1.551   1.675  0.4609  0.0881 -0.1848
   55SOL    HW1  218   0.509   1.577   1.614  0.7770 -2.4079  0.1059
   55SOL    HW2  219   0.640   1.505   1.623 -1.3881  0.2423  0.5390
   55SOL     MW  220   0.576   1.548   1.660  0.2587 -0.2209 -0.0509
   56SOL     OW  221   0.609   0.784   0.055 -0.0036  0.3469  0.2918
   56SOL    HW1  222   0.634   0.878   0.056  0.4794 -0.2123 -2.9855
   56SOL    HW2  223   0.525   0.781   0.013  2.2209 -0.3090  1.9818
   56SOL     MW  224   0.601   0.796   0.049  0.3536  0.1866  0.0824
   57SOL     OW  225   1.215   1.201   1.139 -0.1535  0.3334  0.7472
   57SOL    HW1  226   1.283   1.247   1.086  1.2453 -0.1435 -0.2063
   57SOL    HW2  227   1.261   1.161   1.221  0.4139  2.0187  0.6883
   57SOL     MW  228   1.230   1.202   1.143  0.1059  0.4929  0.6136
   58SOL     OW  229   0.530   1.181   1.307 -0.4768  0.4121  0.1032
   58SOL    HW1  230   0.522   1.274   1.264 -0.1943  1.7720  1.2660
   58SOL    HW2  231   0.544   1.187   1.401  0.4252  2.6435  0.1927
   58SOL     MW  232   0.531   1.194   1.314 -0.3205  0.8860  0.2684
   59SOL     OW  233   1.552   1.687   0.327  0.3493  0.1447  0.1441
   59SOL    HW1  234   1.594   1.765   0.366 -1.7000  0.0985 -1.0075
   59SOL    HW2  235   1.460   1.697   0.352 -2.8487 -1.1369 -1.6658
   59SOL     MW  236   1.546   1.698   0.336 -0.3431 -0.0305 -0.2466
   60SOL     OW  237   0.017   0.175   1.603 -0.3405 -0.0704 -0.0348
   60SOL    HW1  238  -0.070   0.204   1.608  2.2105  0.9588  0.8906
   60SOL    HW2  239   0.034   0.131   1.686  0.8638 -3.1213 -2.8632
   60SOL     MW  240   0.008   0.173   1.615  0.1550 -0.3372 -0.2859
   61SOL     OW  241   2.027   1.507   3.091 -0.4410  0.1241  0.3061
   61SOL    HW1  242   2.010   1.495   3.186  4.3435 -0.6780  2.2097
   61SOL    HW2  243   2.077   1.428   3.079 -1.3337  0.7160 -1.7408
   61SOL     MW  244   2.031   1.495   3.102  0.0725  0.0963  0.2872
   62SOL     OW  245   0.578   1.706   0.632  0.5507  0.6352  0.2145
   62SOL    HW1  246   0.667   1.712   0.632 -1.9757 -1.2163  1.1073
   62SOL    HW2  247   0.559   1.612   0.654 -1.7968  0.1309  0.6331
   62SOL     MW  248   0.587   1.695   0.635 -0.0924  0.3244  0.3875
   63SOL     OW  249   1.681   0.674   0.735 -0.2108 -0.4575 -0.0004
   63SOL    HW1  250   1.664   0.725   0.653  1.0746  1.8913  0.8123
   63SOL    HW2  251   1.594   0.661   0.772  0.5984  2.7201  1.0238
   63SOL     MW  252   1.667   0.679   0.729  0.0655  0.2717  0.2420
   64SOL     OW  253   0.206   1.738   0.771 -0.4516 -0.4751  0.3620
   64SOL    HW1  254   0.275   1.799   0.744  0.1651 -1.4168 -0.3878
   64SOL    HW2  255   0.129   1.785   0.763 -1.3803 -1.8400  0.8491
   64SOL     MW  256   0.205   1.752   0.766 -0.4927 -0.7794  0.3274
   65SOL     OW  257   1.550   2.339   0.379  0.4757 -0.2197  0.2494
   65SOL    HW1  258   1.628   2.290   0.395 -1.3806 -1.2151  0.5099
   65SOL    HW2  259   1.517   2.367   0.461  2.6275 -1.2630  1.9368
   65SOL     MW  260   1.556   2.336   0.392  0.5147 -0.4887  0.5064
   66SOL     OW  261   0.284   0.533   0.548  0.0994 -0.0466  0.0589
   66SOL    HW1  262   0.333   0.468   0.494  0.1297  3.0094 -0.3289
   66SOL    HW2  263   0.307   0.624   0.509  2.0700  1.7510 -1.0377
   66SOL     MW  264   0.294   0.536   0.536  0.3634  0.5938 -0.1370
   67SOL     OW  265   1.538   0.068   2.057  0.2069 -0.3678  0.1115
   67SOL    HW1  266   1.579   0.065   1.969  2.6874 -0.0216  2.2944
   67SOL    HW2  267   1.484  -0.008   2.070  0.7630  0.9176 -0.7429
   67SOL     MW  268   1.537   0.057   2.047  0.6076 -0.1526  0.2868
   68SOL     OW  269   0.680   0.129   2.932  0.5376  0.5077  0.1420
   68SOL    HW1  270   0.698   0.172   2.845  0.8334  2.4601  1.6626
   68SOL    HW2  271   0.745   0.176   2.990 -1.1747  1.6061  0.1402
   68SOL     MW  272   0.691   0.141   2.928  0.3507  0.9102  0.3424
   69SOL     OW  273   1.013   0.206   2.001  0.3626  0.1913  0.1618
   69SOL    HW1  274   1.110   0.227   2.009 -0.5878  0.7457  0.8450
   69SOL    HW2  275   1.013   0.109   2.016 -0.0899 -1.8174 -0.2310
   69SOL     MW  276   1.026   0.196   2.004  0.1775 -0.0005  0.2001
   70SOL     OW  277   0.540   1.733   1.119  0.5535 -0.4167  0.4238
   70SOL    HW1  278   0.588   1.715   1.198 -0.1071  0.5163  0.4022
   70SOL    HW2  279   0.596   1.780   1.053  1.2918  1.2556 -0.7328
   70SOL     MW  280   0.553   1.737   1.121  0.5638 -0.0729  0.2684
   71SOL     OW  281   1.592   0.523   1.281 -0.2919  0.1262 -0.6589
   71SOL    HW1  282   1.584   0.602   1.335  0.5375 -0.9147 -0.1718
   71SOL    HW2  283   1.570   0.548   1.188  0.3090  0.5142 -0.1305
   71SOL     MW  284   1.588   0.537   1.276 -0.1032  0.0400 -0.5249
   72SOL     OW  285   0.740   1.817   0.978 -0.1652  0.3191 -0.6338
   72SOL    HW1  286   0.754   1.878   0.903 -1.1081  2.5474  0.4905
   72SOL    HW2  287   0.762   1.729   0.949  2.4087  0.1447  1.6938
   72SOL     MW  288   0.745   1.813   0.964  0.0500  0.5901 -0.1783
   73SOL     OW  289   1.166   0.749   1.316 -0.1748 -0.3662 -0.3007
   73SOL    HW1  290   1.124   0.671   1.357 -0.2554  1.4734  0.4718
   73SOL    HW2  291   1.143   0.819   1.378 -2.0554 -0.6241 -0.2163
   73SOL     MW  292   1.157   0.748   1.330 -0.4336 -0.1575 -0.1876
   74SOL     OW  293   2.756   0.178   0.946 -0.5200 -0.3039  0.1334
   74SOL    HW1  294   2.807   0.175   0.870 -0.5280  0.0927  2.3079
   74SOL    HW2  295   2.720   0.271   0.941 -0.6948 -0.4636  0.1911
   74SOL     MW  296   2.758   0.190   0.935 -0.5442 -0.2727  0.4279
   75SOL     OW  297   1.646   1.382   0.112  0.0447  0.5216  0.1899
   75SOL    HW1  298   1.684   1.468   0.136 -0.1192  0.7330  3.0249
   75SOL    HW2  299   1.710   1.321   0.152 -0.7847 -1.4518  0.9240
   75SOL     MW  300   1.659   1.385   0.120 -0.0864  0.2891  0.6608
   76SOL     OW  301   3.012   0.599   0.465  0.1632 -0.0314  0.1145
   76SOL    HW1  302   3.049   0.654   0.536  1.4941 -2.2525  0.2090
   76SOL    HW2  303   3.084   0.569   0.413  0.2240 -0.8725 -2.0235
   76SOL     MW  304   3.027   0.603   0.467  0.3468 -0.4354 -0.1551
   77SOL     OW  305   0.814   0.548   0.432  0.8308 -0.2831  0.3794
   77SOL    HW1  306   0.790   0.562   0.341 -0.9669 -1.3860 -0.7330
   77SOL    HW2  307   0.748   0.479   0.459  1.3249 -0.4654  0.8565
   77SOL     MW  308   0.802   0.541   0.424  0.6588 -0.4527  0.2955
   78SOL     OW  309   0.730   0.934   1.304  0.0032  0.1783  0.0916
   78SOL    HW1  310   0.752   1.025   1.272 -0.9514  0.3242  2.9485
   78SOL    HW2  311   0.658   0.901   1.243  0.1856  0.4137 -1.6076
   78SOL     MW  312   0.724   0.942   1.292 -0.0987  0.2286  0.2443
   79SOL     OW  313   1.949   1.666   0.584 -0.3858  0.2259 -0.2604
   79SOL    HW1  314   1.864   1.638   0.544  0.7927  3.4273  1.9070
   79SOL    HW2  315   1.929   1.695   0.675 -0.9653  0.5192  0.3201
   79SOL     MW  316   1.935   1.666   0.591 -0.3068  0.6870  0.1022
   80SOL     OW  317   0.073   0.935   0.336 -0.1506 -0.0228  0.1268
   80SOL    HW1  318  -0.003   0.887   0.358 -0.8818  0.2674  0.3437
   80SOL    HW2  319   0.141   0.888   0.389 -0.9090  2.2715  1.7218
   80SOL     MW  320   0.072   0.922   0.346 -0.3472  0.3182  0.3658
   81SOL     OW  321   1.919   1.914   0.222 -0.2125  0.3834  0.2281
   81SOL    HW1  322   1.889   1.828   0.190  1.7597 -0.8013 -0.2580
   81SOL    HW2  323   1.835   1.964   0.210  1.0135  2.7542  0.7320
   81SOL     MW  324   1.904   1.909   0.216  0.2094  0.5399  0.2305
   82SOL     OW  325   0.814   1.022   0.516 -0.0421 -0.6236 -0.1066
   82SOL    HW1  326   0.824   1.013   0.420 -1.4546  1.1263  1.5373
   82SOL    HW2  327   0.783   0.935   0.544  0.1213  3.5211  1.1735
   82SOL     MW  328   0.812   1.010   0.507 -0.2069  0.1541  0.2792
   83SOL     OW  329   0.054   0.645   1.432 -1.0512  0.5635  0.7273
   83SOL    HW1  330   0.092   0.724   1.386  0.8094  0.7266  0.9671
   83SOL    HW2  331   0.130   0.620   1.480 -2.6321  0.6186 -0.0617
   83SOL     MW  332   0.069   0.652   1.432 -1.0143  0.5923  0.6548
   84SOL     OW  333   0.098   0.275   0.950  0.0002  0.4509  0.1438
   84SOL    HW1  334   0.026   0.337   0.919  0.1843  1.4238  1.8259
   84SOL    HW2  335   0.051   0.192   0.964 -1.0041 -0.3598 -1.2352
   84SOL     MW  336   0.082   0.272   0.948 -0.1080  0.4723  0.1838
   85SOL     OW  337   0.486   0.405   0.753 -0.0919 -0.1715 -0.1092
   85SOL    HW1  338   0.431   0.441   0.685 -0.7296 -0.6775  2.5972
   85SOL    HW2  339   0.436   0.337   0.800 -1.4713 -2.0583  1.8144
   85SOL     MW  340   0.472   0.401   0.750 -0.3581 -0.4872  0.5017
   86SOL     OW  341   1.189   0.311   1.134 -0.5675 -0.2897  0.0952
   86SOL    HW1  342   1.143   0.382   1.086 -0.1102 -1.1355 -0.0825
   86SOL    HW2  343   1.261   0.347   1.186 -0.7490 -0.1138 -2.2300
   86SOL     MW  344   1.193   0.325   1.135 -0.5311 -0.3781 -0.2350
   87SOL     OW  345   1.213   1.459   1.328  0.3239  0.1711  1.1371
   87SOL    HW1  346   1.237   1.516   1.255 -2.8486  1.5167  1.5053
   87SOL    HW2  347   1.231   1.370   1.299 -0.1351  1.2073  1.5777
   87SOL     MW  348   1.219   1.455   1.314 -0.1552  0.4854  1.2438
   88SOL     OW  349   1.215   0.997   0.932 -0.0280  0.0941  0.0607
   88SOL    HW1  350   1.313   0.998   0.936  1.0047  2.5927 -0.5161
   88SOL    HW2  351   1.184   1.045   1.009  1.9184 -0.1466 -1.9414
   88SOL     MW  352   1.224   1.004   0.943  0.3651  0.3920 -0.2795
   89SOL     OW  353   1.787   0.681   0.374  0.4109  0.0122 -0.0520
   89SOL    HW1  354   1.822   0.597   0.387 -2.7307 -1.2929 -0.0943
   89SOL    HW2  355   1.818   0.709   0.287 -2.4734  1.2005 -0.8654
   89SOL     MW  356   1.796   0.673   0.364 -0.3842 -0.0032 -0.1649
   90SOL     OW  357   0.695   1.120   2.729 -0.2157  0.2429 -0.8913
   90SOL    HW1  358   0.744   1.036   2.762  2.9029 -1.3410 -3.0731
   90SOL    HW2  359   0.719   1.191   2.782  2.1139  0.6394  1.2173
   90SOL     MW  360   0.705   1.118   2.741  0.5031  0.0862 -0.9010
   91SOL     OW  361   2.175   0.672   0.460 -0.1051 -0.1473 -0.2186
   91SOL    HW1  362   2.232   0.717   0.398  1.2916 -1.1003  1.2022
   91SOL    HW2  363   2.153   0.590   0.412  0.9904  1.1245 -0.8575
   91SOL     MW  364   2.180   0.667   0.445  0.2237 -0.1053 -0.1154
   92SOL     OW  365   1.664   0.872   0.535  0.6243  0.3768  0.1095
   92SOL    HW1  366   1.568   0.883   0.558 -2.4847  1.0490 -1.5614
   92SOL    HW2  367   1.671   0.807   0.467  0.6344  1.1217 -0.9131
   92SOL     MW  368   1.652   0.865   0.529  0.2154  0.5638 -0.2459
   93SOL     OW  369   0.936   0.257   0.408 -0.5199  0.0555  0.0172
   93SOL    HW1  370   0.896   0.339   0.441 -0.1177 -0.5844  2.4266
   93SOL    HW2  371   0.987   0.280   0.332 -0.8625 -1.1823  0.1609
   93SOL     MW  372   0.937   0.271   0.403 -0.5121 -0.1923  0.3541
   94SOL     OW  373   1.780   1.482   1.623 -0.0590  0.6170 -0.3098
   94SOL    HW1  374   1.800   1.443   1.540 -0.8721  0.5426  2.6774
   94SOL    HW2  375   1.777   1.406   1.680 -0.0473 -2.2189  1.5444
   94SOL     MW  376   1.782   1.467   1.620 -0.1648  0.2330  0.3290
   95SOL     OW  377   0.753   1.560   0.922 -0.3951  0.4257 -0.4131
   95SOL    HW1  378   0.802   1.504   0.979 -0.8398  1.8274  0.7556
   95SOL    HW2  379   0.662   1.568   0.947 -1.2338 -1.0191 -1.9053
   95SOL     MW  380   0.748   1.554   0.933 -0.5645  0.4201 -0.4558
   96SOL     OW  381   1.255   1.838   1.649  0.5279 -0.1068  0.5042
   96SOL    HW1  382   1.175   1.846   1.700 -4.3500  2.5824  1.0067
   96SOL    HW2  383   1.262   1.738   1.635  1.4388  3.2306  3.0071
   96SOL     MW  384   1.245   1.826   1.654  0.0045  0.6883  0.9007
   97SOL     OW  385   1.269   1.441   0.756 -0.6572  0.2828 -0.7738
   97SOL    HW1  386   1.320   1.481   0.827  1.1451  0.8480  1.2918
   97SOL    HW2  387   1.177   1.474   0.765 -2.3396 -0.1572 -0.1620
   97SOL     MW  388   1.264   1.450   0.767 -0.6414  0.2993 -0.4205
   98SOL     OW  389   1.448   1.290   1.024 -0.1876  0.3823  0.6525
   98SOL    HW1  390   1.493   1.345   1.081 -1.0343  0.3350 -1.4318
   98SOL    HW2  391   1.475   1.311   0.936 -1.8458  1.6774 -0.1604
   98SOL     MW  392   1.458   1.300   1.020 -0.5181  0.5469  0.2702
   99SOL     OW  393   1.375   0.377   1.331  0.1446 -0.6591  0.0535
   99SOL    HW1  394   1.446   0.443   1.324 -1.7579 -0.0074  0.2437
   99SOL    HW2  395   1.381   0.364   1.429 -0.7315  1.4573  0.6937
   99SOL     MW  396   1.385   0.384   1.343 -0.2220 -0.2939  0.1631
  100SOL     OW  397   1.023   1.158   1.378 -0.1409  0.4905  0.4969
  100SOL    HW1  398   1.058   1.207   1.452  1.8892  0.2023  1.3131
  100SOL    HW2  399   1.077   1.084   1.377 -1.5918  1.0789 -0.4133
  100SOL     MW  400   1.034   1.155   1.388 -0.0645  0.5301  0.4845
  101SOL     OW  401   0.499   1.083   0.310  0.2877  0.2250  0.7440
  101SOL    HW1  402   0.501   0.991   0.329 -1.8658 -1.6954  2.4844
  101SOL    HW2  403   0.476   1.089   0.212 -0.0976  2.4445  0.3848
  101SOL     MW  404   0.496   1.072   0.299 -0.0472  0.2645  0.9262
  102SOL     OW  405   2.908   0.627   1.038  0.0707  0.1848  0.1137
  102SOL    HW1  406   2.947   0.715   1.036 -1.2147 -2.2698  0.9711
  102SOL    HW2  407   2.931   0.595   1.124 -0.5479  1.8391  0.2477
  102SOL     MW  408   2.916   0.634   1.049 -0.1805  0.0792  0.2445
  103SOL     OW  409   1.748   0.326   1.805  0.7075 -0.3604  0.8635
  103SOL    HW1  410   1.684   0.265   1.777  1.6036 -1.8781 -2.8043
  103SOL    HW2  411   1.788   0.302   1.894  0.1099  1.5568 -0.3425
  103SOL     MW  412   1.745   0.315   1.813  0.7469 -0.3077  0.2204
  104SOL     OW  413   0.050   1.717   1.506  0.1269 -1.0157 -0.3693
  104SOL    HW1  414   0.054   1.645   1.575 -0.8551  2.7786 -0.7505
  104SOL    HW2  415   0.026   1.669   1.423 -2.4247  0.6576  1.4521
  104SOL     MW  416   0.047   1.701   1.504 -0.3393 -0.2943 -0.1793
  105SOL     OW  417   0.033   1.186   0.462 -0.4708  0.1367 -0.4749
  105SOL    HW1  418   0.082   1.101   0.427 -0.7911 -1.6031 -0.3578
  105SOL    HW2  419   0.106   1.253   0.483  0.3853  3.0853 -0.7295
  105SOL     MW  420   0.049   1.184   0.460 -0.4001  0.2962 -0.4930
  106SOL     OW  421   0.860   0.391   1.023 -0.2816  0.3221 -0.3242
  106SOL    HW1  422   0.809   0.455   0.969 -0.7711 -0.5311 -0.9338
  106SOL    HW2  423   0.872   0.320   0.952 -0.9523  0.4988 -0.5671
  106SOL     MW  424   0.855   0.390   1.006 -0.4347  0.2329 -0.4366
  107SOL     OW  425   0.763   2.170   2.960  0.4432 -0.7182  0.2387
  107SOL    HW1  426   0.691   2.126   2.909 -1.9259  1.4253  2.6029
  107SOL    HW2  427   0.784   2.120   3.038  2.3244  0.4770  1.2460
  107SOL     MW  428   0.757   2.158   2.963  0.3788 -0.2777  0.6836
  108SOL     OW  429   1.274   1.578   1.594  0.0422 -0.1317  0.3966
  108SOL    HW1  430   1.236   1.529   1.529  0.1942 -0.0112  0.9693
  108SOL    HW2  431   1.355   1.519   1.618 -0.1563 -0.5554  1.8982
  108SOL     MW  432   1.280   1.564   1.589  0.0361 -0.1717  0.6703
  109SOL     OW  433   1.969   0.788   0.183 -0.7352 -0.3737 -0.0726
  109SOL    HW1  434   1.990   0.846   0.108  3.1746  0.7500  0.0608
  109SOL    HW2  435   1.994   0.832   0.269  3.7284 -0.5859  0.3866
  109SOL     MW  436   1.975   0.801   0.184  0.3696 -0.2534  0.0056
  110SOL     OW  437   0.431   1.905   0.810 -0.1996 -0.3031 -0.1443
  110SOL    HW1  438   0.506   1.845   0.803 -0.8992 -1.0945  0.0624
  110SOL    HW2  439   0.451   1.967   0.739 -1.7301  0.8694 -1.2108
  110SOL     MW  440   0.444   1.906   0.800 -0.4938 -0.2528 -0.2578
  111SOL     OW  441   0.823   0.901   1.566  0.5785 -0.1390  0.0345
  111SOL    HW1  442   0.795   0.914   1.474  1.9441  0.4853 -1.3147
  111SOL    HW2  443   0.826   0.802   1.573  1.0309  0.1009 -3.3150
  111SOL     MW  444   0.820   0.889   1.555  0.8184 -0.0250 -0.5854
  112SOL     OW  445   1.356   1.087   1.595 -0.2766  0.3547  0.0392
  112SOL    HW1  446   1.310   1.170   1.615 -1.4123  0.1230  2.2376
  112SOL    HW2  447   1.288   1.021   1.609  0.3647 -1.4480  2.7381
  112SOL     MW  448   1.341   1.089   1.599 -0.3419  0.0863  0.6854
  113SOL     OW  449   1.313   0.055   1.716 -0.1526  0.0186  0.4177
  113SOL    HW1  450   1.288   0.008   1.797  0.8780 -1.6866  2.1644
  113SOL    HW2  451   1.292   0.002   1.637  0.2793  0.1394  1.3002
  113SOL     MW  452   1.307   0.042   1.717  0.0404 -0.1904  0.7646
  114SOL     OW  453   0.281   2.847   1.933 -0.5635 -0.1068 -0.0475
  114SOL    HW1  454   0.305   2.925   1.981 -0.9943  0.0955 -0.3074
  114SOL    HW2  455   0.303   2.869   1.838  1.3417  1.0130  2.4804
  114SOL     MW  456   0.287   2.860   1.927 -0.3690  0.0676  0.2518
  115SOL     OW  457   0.475   0.826   1.148 -0.4981 -0.0606  0.3747
  115SOL    HW1  458   0.510   0.738   1.120  4.0078  0.5890 -2.1473
  115SOL    HW2  459   0.425   0.829   1.232 -2.5644 -2.0656 -3.1802
  115SOL     MW  460   0.473   0.815   1.156 -0.1762 -0.2395 -0.4271
  116SOL     OW  461   0.811   1.038   0.968  0.1907  0.7122 -0.2330
  116SOL    HW1  462   0.818   1.106   0.903 -0.6818  0.0657 -1.4468
  116SOL    HW2  463   0.851   1.068   1.048 -3.5178 -1.1542 -0.1902
  116SOL     MW  464   0.817   1.051   0.970 -0.4137  0.3806 -0.3875
  117SOL     OW  465   1.114   1.187   0.747  0.2079 -0.1005 -0.4856
  117SOL    HW1  466   1.141   1.130   0.821 -0.0021 -2.8625  0.6259
  117SOL    HW2  467   1.168   1.267   0.762 -1.5411 -0.1209  2.1008
  117SOL     MW  468   1.125   1.190   0.759 -0.0506 -0.4676  0.0023
  118SOL     OW  469   3.024   2.947   1.769 -0.1212  0.2985 -0.1006
  118SOL    HW1  470   3.072   3.023   1.799  0.5099  0.4973 -0.8016
  118SOL    HW2  471   2.937   2.977   1.738 -3.6271 -1.3095 -0.7214
  118SOL     MW  472   3.019   2.961   1.769 -0.5005  0.1126 -0.2750
  119SOL     OW  473   0.479   1.424   1.224  0.3010 -0.4414  0.3228
  119SOL    HW1  474   0.491   1.443   1.127 -3.0724  0.0734  0.9093
  119SOL    HW2  475   0.378   1.426   1.230 -0.3449  1.6180 -2.0178
  119SOL     MW  476   0.468   1.427   1.212 -0.2293 -0.1018  0.0914
  120SOL     OW  477   0.267   0.707   0.972  0.0886  0.4543  0.4229
  120SOL    HW1  478   0.250   0.657   1.051  2.1226  0.0039 -1.3377
  120SOL    HW2  479   0.337   0.766   0.995 -1.7008  0.6522  0.1426
  120SOL     MW  480   0.274   0.708   0.985  0.1209  0.4210  0.1536
  121SOL     OW  481   1.744   1.197   1.721 -0.1384 -0.1393  0.0271
  121SOL    HW1  482   1.666   1.146   1.736 -2.2789 -2.6173 -1.6068
  121SOL    HW2  483   1.786   1.148   1.650  0.3357  0.7967  1.0733
  121SOL     MW  484   1.739   1.184   1.714 -0.3582 -0.3428 -0.0505
  122SOL     OW  485   0.120   0.546   0.788 -0.3319 -0.3381  0.1640
  122SOL    HW1  486   0.194   0.531   0.729 -1.4759 -0.9617 -0.6292
  122SOL    HW2  487   0.167   0.596   0.857 -1.2914 -0.6475 -1.6057
  122SOL     MW  488   0.136   0.550   0.789 -0.6094 -0.4612 -0.1741
  123SOL     OW  489   1.836   1.095   0.548  0.2709  1.1930 -0.3185
  123SOL    HW1  490   1.786   1.012   0.543  0.1873 -1.6066 -0.5479
  123SOL    HW2  491   1.877   1.101   0.632  1.3487 -1.8100 -0.1164
  123SOL     MW  492   1.835   1.085   0.558  0.4021  0.4274 -0.3221
  124SOL     OW  493   0.693   0.524   0.870 -0.3800  0.1012 -0.3473
  124SOL    HW1  494   0.614   0.486   0.828  1.9631  1.7222 -1.1324
  124SOL    HW2  495   0.692   0.620   0.878  1.1051 -1.9575  0.7589
  124SOL     MW  496   0.682   0.532   0.865  0.1251  0.0434 -0.3049
  125SOL     OW  497   0.695   1.780   1.717 -0.6925  0.0052  0.1122
  125SOL    HW1  498   0.660   1.696   1.682  0.2748  0.7605  2.1620
  125SOL    HW2  499   0.637   1.851   1.703  1.3909 -1.3495  2.5734
  125SOL     MW  500   0.683   1.778   1.711 -0.2900 -0.0739  0.7074
  126SOL     OW  501   2.122   1.607   1.985 -0.0373 -0.1617 -0.2427
  126SOL    HW1  502   2.165   1.689   1.952  2.4994 -0.7979  0.3515
  126SOL    HW2  503   2.188   1.540   2.006 -1.9183 -0.2100  0.2687
  126SOL     MW  504   2.136   1.609   1.983  0.0492 -0.2520 -0.0969
  127SOL     OW  505   0.716   0.784   1.858  0.2934 -0.2109 -0.2383
  127SOL    HW1  506   0.776   0.713   1.883  4.5326 -0.3142  0.7656
  127SOL    HW2  507   0.725   0.847   1.934  2.2850  0.8588  0.8250
  127SOL     MW  508   0.725   0.783   1.872  1.1155 -0.0834  0.0344
  128SOL     OW  509   1.779   0.713   2.916 -0.5505 -0.0244  0.6971
  128SOL    HW1  510   1.773   0.663   2.833 -2.2269  2.4816 -1.5828
  128SOL    HW2  511   1.753   0.800   2.883 -1.8884  0.0192  0.5907
  128SOL     MW  512   1.775   0.718   2.900 -0.9482  0.3120  0.3822
  129SOL     OW  513   1.638   0.964   0.221  0.0071 -0.1660  0.1228
  129SOL    HW1  514   1.608   0.885   0.184  0.4680  1.6050 -0.5028
  129SOL    HW2  515   1.668   0.943   0.308 -2.2006  0.6647 -1.1187
  129SOL     MW  516   1.638   0.951   0.227 -0.2233  0.1773 -0.1236
  130SOL     OW  517   0.738   1.330   0.359 -0.2480 -0.4661  0.4064
  130SOL    HW1  518   0.742   1.350   0.448 -0.7906  1.1431 -2.0738
  130SOL    HW2  519   0.817   1.377   0.312  3.5964  4.9041  1.4798
  130SOL     MW  520   0.749   1.339   0.364  0.1876  0.4548  0.2208
  131SOL     OW  521   3.020   0.813   3.076  0.6421 -0.5028  0.3411
  131SOL    HW1  522   3.019   0.878   3.005  1.2825  0.0347 -0.8741
  131SOL    HW2  523   3.099   0.825   3.131 -0.1244  1.2552 -0.2070
  131SOL     MW  524   3.030   0.823   3.074  0.6255 -0.2000  0.1085
  132SOL     OW  525   2.683   0.142   1.237 -0.2981 -0.6707  0.2571
  132SOL    HW1  526   2.710   0.132   1.144  0.8477  2.0119  1.6596
  132SOL    HW2  527   2.592   0.109   1.251  0.5661  1.3162  1.1217
  132SOL     MW  528   2.675   0.136   1.227 -0.0329 -0.0546  0.5562
  133SOL     OW  529   1.031   0.149   1.731 -1.1635 -0.3718 -0.1640
  133SOL    HW1  530   1.123   0.120   1.733  0.3257  1.0796 -3.8043
  133SOL    HW2  531   1.010   0.162   1.826  2.0807 -0.0495  2.6537
  133SOL     MW  532   1.040   0.147   1.744 -0.5390 -0.1378 -0.2726
  134SOL     OW  533   1.390   2.518   1.428  0.0257 -0.5151 -0.4182
  134SOL    HW1  534   1.329   2.592   1.408 -5.0732 -1.1945  3.0549
  134SOL    HW2  535   1.443   2.529   1.510  2.4735  0.3114  1.4948
  134SOL     MW  536   1.389   2.529   1.436 -0.3241 -0.4957  0.2924
  135SOL     OW  537   3.039   0.999   2.838 -0.6563 -0.3384 -0.0487
  135SOL    HW1  538   3.105   1.067   2.829 -4.3428 -3.8258 -0.3592
  135SOL    HW2  539   2.968   1.052   2.870  2.6029  0.7294  1.0649
  135SOL     MW  540   3.038   1.015   2.841 -0.7127 -0.6576  0.0573
  136SOL     OW  541   0.202   2.045   0.879 -0.2407 -0.0254 -0.1655
  136SOL    HW1  542   0.127   1.999   0.837  0.1953 -0.7883  0.9048
  136SOL    HW2  543   0.286   2.008   0.838 -2.4792  0.1505 -1.8210
  136SOL     MW  544   0.203   2.034   0.868 -0.4785 -0.1029 -0.2427
  137SOL     OW  545   0.685   2.075   0.531 -0.1013 -0.0860  0.1140
  137SOL    HW1  546   0.744   2.055   0.598 -1.0961  0.8691  1.4997
  137SOL    HW2  547   0.598   2.099   0.553  2.9013  0.4698 -2.1885
  137SOL     MW  548   0.681   2.076   0.543  0.1636  0.1133 -0.0070
  138SOL     OW  549   0.542   0.564   1.091  0.4575  0.5795  0.0597
  138SOL    HW1  550   0.457   0.527   1.080  1.1481  0.3452  1.1075
  138SOL    HW2  551   0.597   0.543   1.011  1.8058 -1.2633 -0.2072
  138SOL     MW  552   0.538   0.556   1.079  0.7265  0.3054  0.1627
  139SOL     OW  553   2.770   0.580   1.344  0.3594 -0.0786  0.0117
  139SOL    HW1  554   2.820   0.506   1.375 -0.4367 -0.0872 -0.3795
  139SOL    HW2  555   2.796   0.655   1.402  2.1691  3.0237 -2.0078
  139SOL     MW  556   2.780   0.580   1.356  0.4931  0.3296 -0.3064
  140SOL     OW  557   0.813   0.388   2.086  0.4187 -0.0008  0.5627
  140SOL    HW1  558   0.871   0.314   2.067 -1.6707  3.5724 -1.6637
  140SOL    HW2  559   0.804   0.393   2.184 -3.0549 -0.8546  1.4832
  140SOL     MW  560   0.819   0.379   2.096 -0.3153  0.3580  0.3904
  141SOL     OW  561   1.087   0.618   1.756 -0.2441  1.0674 -0.2121
  141SOL    HW1  562   1.126   0.534   1.736 -0.1123  1.8950  3.0468
  141SOL    HW2  563   1.162   0.681   1.766  2.1193  1.7970 -0.5648
  141SOL     MW  564   1.102   0.616   1.755  0.0851  1.2729  0.1713
  142SOL     OW  565   0.842   1.193   0.732  0.5308 -0.1177 -0.2772
  142SOL    HW1  566   0.813   1.142   0.654 -0.3519 -0.0733  0.3251
  142SOL    HW2  567   0.938   1.173   0.741 -0.3642 -2.1404  1.1081
  142SOL     MW  568   0.851   1.183   0.723  0.2962 -0.3787 -0.0150
  143SOL     OW  569   1.751   0.786   1.127  0.2384 -0.8710  0.1468
  143SOL    HW1  570   1.803   0.772   1.047 -0.4793 -0.9441  0.0341
  143SOL    HW2  571   1.672   0.733   1.112  0.1777  3.0771 -0.5563
  143SOL     MW  572   1.747   0.777   1.114  0.1357 -0.3597  0.0392
  144SOL     OW  573   0.221   1.162   1.577 -0.2453 -0.3557  0.7537
  144SOL    HW1  574   0.310   1.173   1.551 -1.0097  0.9939 -0.5676
  144SOL    HW2  575   0.226   1.170   1.675  3.3575  2.6921  1.9083
  144SOL     MW  576   0.233   1.164   1.586  0.1292  0.2245  0.7317
  145SOL     OW  577   0.274   0.454   1.132 -0.1749  0.1830  0.3089
  145SOL    HW1  578   0.316   0.396   1.186 -1.8213  3.6614  1.0341
  145SOL    HW2  579   0.215   0.399   1.070 -0.2014 -0.4093  0.4534
  145SOL     MW  580   0.272   0.439   1.131 -0.3956  0.5638  0.4236
  146SOL     OW  581   0.810   1.929   1.323  0.4648 -0.0974  0.2198
  146SOL    HW1  582   0.826   1.940   1.231 -0.7508  1.7883  0.4864
  146SOL    HW2  583   0.717   1.929   1.321  1.3906 -0.2442 -0.6187
  146SOL     MW  584   0.800   1.931   1.310  0.4266  0.1320  0.1443
  147SOL     OW  585   0.344   0.394   2.994 -0.0561 -0.2281 -0.2212
  147SOL    HW1  586   0.270   0.430   3.049  0.4425  2.8312  0.6246
  147SOL    HW2  587   0.346   0.455   2.920  1.7545  1.6522 -0.0941
  147SOL     MW  588   0.334   0.407   2.991  0.2485  0.4236 -0.0928
  148SOL     OW  589   0.147   0.854   1.267  0.3694 -0.0620 -0.0567
  148SOL    HW1  590   0.240   0.855   1.301 -1.5937 -2.4915 -0.3298
  148SOL    HW2  591   0.106   0.909   1.329  0.8910 -2.4499 -1.6175
  148SOL     MW  592   0.154   0.861   1.280  0.1792 -0.6976 -0.2987
  149SOL     OW  593   1.364   1.146   1.341  0.3288  0.6274 -0.4025
  149SOL    HW1  594   1.374   1.107   1.430 -3.0854  1.9002  2.1796
  149SOL    HW2  595   1.407   1.227   1.358  0.7318 -1.3397  0.3550
  149SOL     MW  596   1.371   1.152   1.355 -0.0685  0.5358  0.0381
  150SOL     OW  597   1.855   1.402   0.744  0.3469 -0.1667  0.0034
  150SOL    HW1  598   1.899   1.321   0.762 -1.7613  0.4995  1.8908
  150SOL    HW2  599   1.892   1.473   0.800 -2.2990 -0.1726  1.0301
  150SOL     MW  600   1.866   1.400   0.754 -0.2804 -0.0796  0.3879
  151SOL     OW  601   1.674   1.774   0.826  0.2193 -0.6038 -0.0908
  151SOL    HW1  602   1.657   1.780   0.730  1.9629 -0.5869 -0.3638
  151SOL    HW2  603   1.601   1.724   0.868 -3.2386 -0.6993  3.5298
  151SOL     MW  604   1.662   1.768   0.819 -0.0069 -0.6141  0.3509
  152SOL     OW  605   0.742   1.413   1.493  0.2804  0.4981  0.4233
  152SOL    HW1  606   0.707   1.335   1.451  1.7349  1.0808 -1.5942
  152SOL    HW2  607   0.837   1.412   1.493 -0.1288  0.8251  1.3037
  152SOL     MW  608   0.750   1.402   1.488  0.4184  0.6181  0.2733
  153SOL     OW  609   2.594   1.215   0.752  0.0341 -0.4609  0.0929
  153SOL    HW1  610   2.651   1.177   0.679 -1.1397  0.4269  2.1042
  153SOL    HW2  611   2.529   1.142   0.759  0.1658 -1.8255 -1.5491
  153SOL     MW  612   2.593   1.201   0.743 -0.1034 -0.5238  0.1416
  154SOL     OW  613   0.324   1.818   1.745 -0.2726 -0.0026 -0.2924
  154SOL    HW1  614   0.337   1.807   1.647  0.4222 -0.2053 -1.8728
  154SOL    HW2  615   0.333   1.723   1.779 -0.4069 -1.0164  0.4626
  154SOL     MW  616   0.327   1.804   1.736 -0.1987 -0.1631 -0.4013
  155SOL     OW  617   1.211   0.709   0.268  0.3542  0.4208  0.0003
  155SOL    HW1  618   1.185   0.670   0.351  1.6107  2.8547 -1.7408
  155SOL    HW2  619   1.165   0.795   0.268  1.1665 -0.2685  0.6769
  155SOL     MW  620   1.201   0.715   0.279  0.6271  0.6510 -0.1402
  156SOL     OW  621   1.531   3.057   1.080 -0.6356  0.0452  0.4171
  156SOL    HW1  622   1.590   3.110   1.135 -0.3990  0.8315  2.2178
  156SOL    HW2  623   1.551   2.970   1.106  1.7827  1.0239  3.1865
  156SOL     MW  624   1.541   3.052   1.090 -0.2853  0.2781  1.0201
  157SOL     OW  625   1.452   1.119   0.111 -0.5301  0.3390 -0.3781
  157SOL    HW1  626   1.517   1.056   0.160  2.1680 -1.5798  1.0772
  157SOL    HW2  627   1.495   1.205   0.103  0.9325 -0.2741 -1.8536
  157SOL     MW  628   1.466   1.122   0.116  0.0188  0.0049 -0.3807
  158SOL     OW  629   0.491   1.640   2.189  0.4371  0.6932  0.0234
  158SOL    HW1  630   0.490   1.714   2.126  1.7869  2.4607 -1.5818
  158SOL    HW2  631   0.430   1.675   2.255  0.9315  1.0877 -0.9460
  158SOL     MW  632   0.483   1.654   2.190  0.6804  0.9784 -0.3163
  159SOL     OW  633   1.280   1.708   0.429  0.3590  0.2288  0.3963
  159SOL    HW1  634   1.269   1.632   0.369 -1.1070 -1.0999 -0.6940
  159SOL    HW2  635   1.218   1.701   0.498  1.6912 -0.8604 -0.9834
  159SOL     MW  636   1.271   1.697   0.430  0.3414 -0.0902  0.0704
  160SOL     OW  637   0.549   1.160   1.606  0.3480  0.7042  0.3838
  160SOL    HW1  638   0.517   1.074   1.631  1.5058 -1.7274 -0.8957
  160SOL    HW2  639   0.629   1.166   1.655  1.0357 -1.3436 -2.6062
  160SOL     MW  640   0.555   1.149   1.616  0.5915  0.1132 -0.1795
  161SOL     OW  641   0.462   2.185   2.566  0.1246 -0.1438  0.3649
  161SOL    HW1  642   0.369   2.186   2.544 -0.2649 -4.7405 -1.7558
  161SOL    HW2  643   0.509   2.143   2.494 -0.8225 -0.4639 -1.4330
  161SOL     MW  644   0.456   2.179   2.553 -0.0518 -0.7925 -0.1521
  162SOL     OW  645   1.072   1.791   1.869 -0.3723 -0.8723 -0.0216
  162SOL    HW1  646   1.063   1.881   1.893 -0.5573 -2.7693 -0.6362
  162SOL    HW2  647   0.983   1.756   1.887  1.2322  0.1438 -1.1182
  162SOL     MW  648   1.059   1.798   1.875 -0.1850 -0.9885 -0.2474
  163SOL     OW  649   2.146   0.041   0.941  0.4718 -0.5200 -0.1283
  163SOL    HW1  650   2.153   0.093   0.854 -2.6898  2.4102  0.2025
  163SOL    HW2  651   2.091  -0.034   0.923  1.6612 -4.4161  1.1513
  163SOL     MW  652   2.140   0.038   0.927  0.2116 -0.6474  0.0842
  164SOL     OW  653   0.366   0.203   0.880  0.5495  0.6937 -0.1530
  164SOL    HW1  654   0.282   0.217   0.914  1.4284 -0.4283 -1.3767
  164SOL    HW2  655   0.352   0.142   0.807 -0.8312  1.7425  0.1820
  164SOL     MW  656   0.353   0.197   0.875  0.4833  0.6841 -0.2702
  165SOL     OW  657   1.346   1.238   0.342  0.1253 -0.0589  0.3964
  165SOL    HW1  658   1.295   1.191   0.408 -0.3363  3.6924  1.8659
  165SOL    HW2  659   1.380   1.173   0.274  1.9716  1.0122 -0.5962
  165SOL     MW  660   1.344   1.223   0.342  0.3080  0.5774  0.4593
  166SOL     OW  661   0.534   1.133   1.010  0.0836  0.0124 -0.1473
  166SOL    HW1  662   0.488   1.094   1.083 -1.7894  2.2068  2.2761
  166SOL    HW2  663   0.625   1.104   1.012  2.3671  2.2534 -1.3048
  166SOL     MW  664   0.540   1.124   1.020  0.1378  0.5976  0.0197
  167SOL     OW  665   0.764   1.028   0.250 -0.2843 -0.3586  0.1565
  167SOL    HW1  666   0.683   1.089   0.267 -1.3699 -0.5610  2.1608
  167SOL    HW2  667   0.808   1.076   0.172 -1.7675  0.6653  1.1802
  167SOL     MW  668   0.759   1.042   0.242 -0.6232 -0.2502  0.5560
  168SOL     OW  669   1.665   1.673   2.987  0.5066  0.1098  0.3439
  168SOL    HW1  670   1.607   1.707   2.919  2.4892  1.8708 -1.6730
  168SOL    HW2  671   1.676   1.579   2.962  1.0641 -3.5693 -2.0793
  168SOL     MW  672   1.659   1.665   2.975  0.8417 -0.1433 -0.2419
  169SOL     OW  673   0.390   0.896   1.398  0.4303 -0.0278 -0.1775
  169SOL    HW1  674   0.436   0.884   1.485  1.8733  0.0034  0.4865
  169SOL    HW2  675   0.383   0.988   1.381 -2.3031 -0.2007 -1.7124
  169SOL     MW  676   0.396   0.906   1.407  0.2600 -0.0465 -0.2924
  170SOL     OW  677   0.999   1.471   1.515  0.0908 -0.3127 -0.4799
  170SOL    HW1  678   0.982   1.563   1.538  0.4483  0.8393 -0.9575
  170SOL    HW2  679   1.053   1.480   1.433 -0.7457 -3.1934  1.6967
  170SOL     MW  680   1.004   1.484   1.508  0.0276 -0.5408 -0.2558
  171SOL     OW  681   0.580   1.431   0.687 -0.5564  0.5085  0.5079
  171SOL    HW1  682   0.543   1.429   0.775  1.2303 -2.0276 -2.7012
  171SOL    HW2  683   0.554   1.346   0.649 -0.8196 -0.0111 -0.2467
  171SOL     MW  684   0.572   1.419   0.694 -0.3554  0.1053 -0.0151
  172SOL     OW  685   0.843   0.320   1.281 -0.4286  0.5522  0.2378
  172SOL    HW1  686   0.856   0.346   1.190  1.5065  0.0734  0.3394
  172SOL    HW2  687   0.751   0.342   1.311  1.8427  2.5897  0.3289
  172SOL     MW  688   0.832   0.327   1.273  0.1264  0.7579  0.2632
  173SOL     OW  689   0.442   1.731   0.382  0.1709  0.2891 -0.2576
  173SOL    HW1  690   0.464   1.640   0.367 -3.3398  0.7906  1.0562
  173SOL    HW2  691   0.481   1.748   0.471  0.1619 -2.4426 -0.9223
  173SOL     MW  692   0.450   1.721   0.392 -0.2935 -0.0052 -0.1720
  174SOL     OW  693   1.855   1.000   1.550  0.2638 -0.1464  0.3306
  174SOL    HW1  694   1.838   0.906   1.582 -1.4941  0.8211  4.3039
  174SOL    HW2  695   1.829   0.997   1.458  0.1731  1.9776  3.1057
  174SOL     MW  696   1.849   0.987   1.542  0.0199  0.2615  1.2210
  175SOL     OW  697   0.486   1.438   0.329  0.6069  0.3219 -0.8427
  175SOL    HW1  698   0.453   1.389   0.245  0.8430  2.4543 -5.5594
  175SOL    HW2  699   0.580   1.415   0.328 -0.2881  1.0568 -0.3864
  175SOL     MW  700   0.494   1.429   0.318  0.5200  0.7002 -1.4049
  176SOL     OW  701   0.219   1.429   1.224 -0.4136  0.6898  0.0694
  176SOL    HW1  702   0.183   1.396   1.139  0.2169  2.6400 -3.9313
  176SOL    HW2  703   0.150   1.400   1.281 -0.5109  3.6314 -1.9343
  176SOL     MW  704   0.205   1.421   1.220 -0.3433  1.3352 -0.7228
  177SOL     OW  705   0.589   0.421   1.336  0.5491  0.1885  0.1546
  177SOL    HW1  706   0.590   0.497   1.270 -1.8203 -2.1032  1.0032
  177SOL    HW2  707   0.581   0.455   1.426  0.9684  0.0132  0.9634
  177SOL     MW  708   0.588   0.436   1.339  0.2918 -0.1370  0.3733
  178SOL     OW  709   0.020   0.438   2.957 -0.1432  0.1631  0.0616
  178SOL    HW1  710  -0.062   0.472   2.994 -1.0475  1.5768 -2.1064
  178SOL    HW2  711   0.030   0.494   2.879 -0.8213 -0.8164  0.0961
  178SOL     MW  712   0.010   0.450   2.951 -0.3520  0.2204 -0.2199
  179SOL     OW  713   1.575   1.337   1.408 -0.2310 -0.4941 -0.2170
  179SOL    HW1  714   1.534   1.352   1.497 -1.0894  1.4048 -0.3889
  179SOL    HW2  715   1.670   1.319   1.424 -0.5661 -2.9213  1.6134
  179SOL     MW  716   1.582   1.337   1.422 -0.3885 -0.5638  0.0018
  180SOL     OW  717   3.052   0.190   0.457  0.5609 -0.1298 -0.6144
  180SOL    HW1  718   2.992   0.189   0.385 -1.3989 -1.5308 -0.5239
  180SOL    HW2  719   3.102   0.271   0.447  1.5768 -1.5714  0.5847
  180SOL     MW  720   3.051   0.200   0.446  0.4364 -0.5049 -0.4443
  181SOL     OW  721   1.123   1.357   3.083 -0.4505  0.1958 -0.0898
  181SOL    HW1  722   1.203   1.403   3.091  0.2808  2.1417  1.2472
  181SOL    HW2  723   1.144   1.266   3.055 -3.9050 -0.4183 -3.6562
  181SOL     MW  724   1.136   1.351   3.080 -0.8098  0.3715 -0.3839
  182SOL     OW  725   0.489   0.885   1.648 -0.6123 -0.4276 -0.1592
  182SOL    HW1  726   0.404   0.870   1.689 -0.0234 -1.0450 -0.6289
  182SOL    HW2  727   0.546   0.834   1.705 -1.3866 -2.5406  2.4803
  182SOL     MW  728   0.485   0.876   1.661 -0.6368 -0.7878  0.1271
  183SOL     OW  729   1.567   1.541   1.206  0.0013 -0.3126 -0.6109
  183SOL    HW1  730   1.503   1.605   1.228  2.5221  0.4841 -0.2419
  183SOL    HW2  731   1.568   1.479   1.285  0.4579  1.2507 -1.4080
  183SOL     MW  732   1.559   1.541   1.219  0.3941 -0.0012 -0.6674
  184SOL     OW  733   0.914   0.630   1.968  0.1893  0.1373 -0.3439
  184SOL    HW1  734   0.978   0.607   1.901  0.4627  1.6961  0.7183
  184SOL    HW2  735   0.890   0.546   2.007 -1.9660  2.3640 -1.6085
  184SOL     MW  736   0.920   0.616   1.965 -0.0590  0.6368 -0.3706
  185SOL     OW  737   1.258   1.029   1.917  0.0368  0.1403 -0.9081
  185SOL    HW1  738   1.291   0.941   1.952  1.7601  0.0147  0.5665
  185SOL    HW2  739   1.261   1.077   1.996  0.9710  1.0707  0.2705
  185SOL     MW  740   1.263   1.024   1.932  0.3874  0.2465 -0.5580
  186SOL     OW  741   0.366   1.649   1.440 -0.3486  0.2487 -0.3110
  186SOL    HW1  742   0.397   1.593   1.365  2.7152  0.9174 -1.1730
  186SOL    HW2  743   0.291   1.698   1.410  0.5607  1.0505  0.1392
  186SOL     MW  744   0.360   1.648   1.426  0.1756  0.4427 -0.3653
  187SOL     OW  745   1.416   0.720   1.423  0.3570  0.0377 -0.4096
  187SOL    HW1  746   1.413   0.690   1.512  0.1520  0.3802 -0.9144
  187SOL    HW2  747   1.334   0.697   1.382  2.3222  0.7586 -0.4835
  187SOL     MW  748   1.405   0.713   1.429  0.5892  0.1780 -0.4860
  188SOL     OW  749   1.926   1.166   0.824 -0.5777  0.3112  0.4530
  188SOL    HW1  750   1.886   1.153   0.915 -1.1381  0.2050  1.0517
  188SOL    HW2  751   1.995   1.099   0.809  0.6415  1.4702 -0.7825
  188SOL     MW  752   1.930   1.155   0.834 -0.4908  0.4501  0.3690
  189SOL     OW  753   0.693   0.798   0.860 -0.1833 -0.1241  0.1613
  189SOL    HW1  754   0.614   0.856   0.840 -2.4739 -1.6705 -0.6820
  189SOL    HW2  755   0.757   0.863   0.892 -0.4594 -3.0083  0.6867
  189SOL     MW  756   0.691   0.814   0.861 -0.5219 -0.7087  0.1193
  190SOL     OW  757   1.862   0.283   2.066 -0.5256  0.0195  0.0583
  190SOL    HW1  758   1.884   0.250   2.153 -2.2919 -4.4669 -2.4550
  190SOL    HW2  759   1.940   0.329   2.028  0.0354  0.2349  2.2805
  190SOL     MW  760   1.875   0.285   2.072 -0.6846 -0.5440  0.0199
  191SOL     OW  761   1.485   0.923   1.231 -0.0510 -0.4948 -0.1506
  191SOL    HW1  762   1.454   1.003   1.274  2.3798 -0.7840 -0.5541
  191SOL    HW2  763   1.454   0.852   1.287  1.7424 -1.8610 -0.9410
  191SOL     MW  764   1.477   0.924   1.244  0.5063 -0.7132 -0.3081
  192SOL     OW  765   0.583   2.080   2.786  0.2463 -0.1350 -0.1733
  192SOL    HW1  766   0.537   2.122   2.704 -1.3578  1.2178 -2.3279
  192SOL    HW2  767   0.552   1.990   2.781 -0.0797 -1.7295 -0.5273
  192SOL     MW  768   0.573   2.073   2.774 -0.0084 -0.1669 -0.5043
  193SOL     OW  769   1.029   1.561   0.794  0.4572  0.0090 -0.3970
  193SOL    HW1  770   0.993   1.551   0.889 -1.2932  0.7095  0.2319
  193SOL    HW2  771   0.965   1.512   0.737  1.6227 -2.3374 -0.4244
  193SOL     MW  772   1.016   1.553   0.799  0.3800 -0.2081 -0.3176
  194SOL     OW  773   0.447   1.395   0.959  0.7712  0.1757  0.6381
  194SOL    HW1  774   0.462   1.300   0.981  0.3991 -1.5260 -0.4664
  194SOL    HW2  775   0.370   1.399   0.904  0.2178 -0.7251 -3.1245
  194SOL     MW  776   0.438   1.383   0.955  0.6491 -0.1677 -0.0041
  195SOL     OW  777   1.264   1.150   3.007 -0.0586 -0.3721  0.2780
  195SOL    HW1  778   1.315   1.134   3.086 -1.4040 -0.5120 -3.4767
  195SOL    HW2  779   1.198   1.073   3.009 -0.0516  0.5632 -0.6496
  195SOL     MW  780   1.262   1.138   3.017 -0.2352 -0.2672 -0.3398
  196SOL     OW  781   2.175   1.018   0.583  0.3436 -0.0359 -0.1922
  196SOL    HW1  782   2.119   0.992   0.505 -1.9581 -3.1468  0.0292
  196SOL    HW2  783   2.190   1.113   0.575  2.2321  0.3433 -0.2087
  196SOL     MW  784   2.170   1.027   0.571  0.2891 -0.3963 -0.1652
  197SOL     OW  785   0.706   1.261   2.046  0.2967  0.2511  0.2859
  197SOL    HW1  786   0.672   1.169   2.044  0.0017 -1.9148 -0.7885
  197SOL    HW2  787   0.672   1.301   1.971 -0.2692  0.0750 -1.0648
  197SOL     MW  788   0.697   1.254   2.036  0.1831 -0.0579 -0.0341
  198SOL     OW  789   2.981   1.365   1.088  0.4694 -0.4819  0.3445
  198SOL    HW1  790   2.949   1.460   1.092 -1.1562  2.0485 -2.7850
  198SOL    HW2  791   2.895   1.333   1.051  0.4841 -0.3093 -0.0155
  198SOL     MW  792   2.966   1.373   1.083  0.2569 -0.1253 -0.1159
  199SOL     OW  793   0.516   1.358   1.869 -0.2828  0.0184 -0.0669
  199SOL    HW1  794   0.431   1.313   1.868 -0.0413  1.1370  0.7622
  199SOL    HW2  795   0.513   1.421   1.796 -0.5250 -0.4999  1.5785
  199SOL     MW  796   0.504   1.360   1.859 -0.2829  0.0976  0.2596
  200SOL     OW  797   1.850   3.083   1.312  0.3804 -0.8037 -0.8462
  200SOL    HW1  798   1.849   3.045   1.224  0.8007  0.1241  1.1628
  200SOL    HW2  799   1.766   3.130   1.341 -3.6841 -0.7654 -1.6010
  200SOL     MW  800   1.839   3.084   1.304 -0.1004 -0.6762 -0.6807
  201SOL     OW  801   0.971   0.207   0.848  0.5016  0.0272  0.1157
  201SOL    HW1  802   0.950   0.117   0.808 -0.4352 -0.5036 -0.8749
  201SOL    HW2  803   1.021   0.243   0.781  1.7475  0.5703  3.4634
  201SOL     MW  804   0.975   0.200   0.834  0.5424  0.0288  0.4267
  202SOL     OW  805   1.514   1.569   0.924  0.1211 -0.0236 -0.2860
  202SOL    HW1  806   1.528   1.492   0.868  0.2580 -1.6971 -2.3576
  202SOL    HW2  807   1.555   1.555   1.009  1.3177 -0.1016 -0.5277
  202SOL     MW  808   1.521   1.557   0.928  0.2970 -0.2547 -0.5912
  203SOL     OW  809   3.078   0.495   1.227 -0.6658  0.6016  1.1955
  203SOL    HW1  810   3.164   0.453   1.196  1.1546 -0.9204  0.6956
  203SOL    HW2  811   3.102   0.530   1.315  1.3338 -2.6527  0.0522
  203SOL     MW  812   3.092   0.494   1.234 -0.1618 -0.0286  0.9787
  204SOL     OW  813   1.064   1.753   0.595 -0.0490 -0.4684  0.0839
  204SOL    HW1  814   1.042   1.688   0.661  2.4967  1.5192 -1.2034
  204SOL    HW2  815   0.985   1.747   0.546 -1.1053 -0.1713  0.9973
  204SOL     MW  816   1.051   1.743   0.597  0.1475 -0.1669  0.0346
  205SOL     OW  817   1.372   0.092   1.367 -0.1378  0.2258 -0.3039
  205SOL    HW1  818   1.318   0.066   1.293  0.1519  0.1591  0.0125
  205SOL    HW2  819   1.373   0.185   1.361  1.3982  1.7836 -3.5987
  205SOL     MW  820   1.365   0.101   1.356  0.1031  0.4226 -0.6969
  206SOL     OW  821   0.393   3.019   1.435 -0.1967 -0.3921  0.0524
  206SOL    HW1  822   0.330   2.999   1.358 -1.2499  0.2095 -1.5742
  206SOL    HW2  823   0.466   2.952   1.420 -1.0729  1.5892  0.7867
  206SOL     MW  824   0.394   3.008   1.423 -0.4512 -0.0513 -0.0653
  207SOL     OW  825   0.909   1.480   0.194  0.1227  0.3595 -0.2834
  207SOL    HW1  826   0.931   1.572   0.170  1.1034  1.8084 -0.0732
  207SOL    HW2  827   0.996   1.453   0.230 -0.9790 -1.8499 -1.7853
  207SOL     MW  828   0.923   1.489   0.195  0.1067  0.2592 -0.4539
  208SOL     OW  829   0.697   1.634   1.319 -0.1387  0.3659  0.0446
  208SOL    HW1  830   0.734   1.711   1.362 -0.7661 -0.2754  1.5553
  208SOL    HW2  831   0.687   1.561   1.384 -0.2029 -0.6135  1.2327
  208SOL     MW  832   0.701   1.635   1.333 -0.2300  0.1521  0.4007
  209SOL     OW  833   1.580   0.551   2.965  0.3791 -0.2167  0.3060
  209SOL    HW1  834   1.659   0.606   2.968 -1.1859 -0.5839  2.4264
  209SOL    HW2  835   1.612   0.466   2.945 -2.1713 -0.9760  2.3645
  209SOL     MW  836   1.595   0.547   2.963 -0.1638 -0.3653  0.8573
  210SOL     OW  837   1.585   1.338   0.796  0.4233 -0.3316 -0.2684
  210SOL    HW1  838   1.680   1.324   0.780  1.1152 -1.3136 -1.9390
  210SOL    HW2  839   1.546   1.356   0.704  0.2709 -1.8852  0.7328
  210SOL     MW  840   1.593   1.338   0.782  0.4945 -0.6662 -0.3567
  211SOL     OW  841   1.664   0.371   0.967  0.4218  0.1526  0.3428
  211SOL    HW1  842   1.639   0.381   0.878  0.6992 -2.6095  1.6285
  211SOL    HW2  843   1.762   0.376   0.960 -0.5142 -0.3428  2.7226
  211SOL     MW  844   1.674   0.373   0.954  0.3349 -0.2772  0.8264
  212SOL     OW  845   0.219   1.071   0.106  0.0745 -0.3479 -0.0211
  212SOL    HW1  846   0.183   1.031   0.183  2.1239 -1.0676  0.1377
  212SOL    HW2  847   0.255   0.992   0.061  1.7929  1.1367  2.3514
  212SOL     MW  848   0.219   1.055   0.111  0.5716 -0.2470  0.3129
  213SOL     OW  849   0.493   1.741   3.034  0.3766  0.6216  0.2088
  213SOL    HW1  850   0.516   1.798   3.109 -2.7480  2.7233  0.9072
  213SOL    HW2  851   0.536   1.780   2.951 -0.5388 -2.7449 -2.1802
  213SOL     MW  852   0.502   1.753   3.033 -0.1564  0.4547 -0.0142
  214SOL     OW  853   0.553   0.271   2.264  0.1348 -0.2477  0.1620
  214SOL    HW1  854   0.490   0.339   2.233 -1.9129  2.4614  0.0168
  214SOL    HW2  855   0.631   0.282   2.211 -2.1215  1.3478  0.1767
  214SOL     MW  856   0.555   0.281   2.253 -0.4331  0.3202  0.1448
  215SOL     OW  857   0.536   0.690   2.664  0.4525 -0.3804  0.0908
  215SOL    HW1  858   0.536   0.658   2.575 -2.4339  1.7546 -1.6879
  215SOL    HW2  859   0.460   0.662   2.722 -0.9288 -0.5895  0.2497
  215SOL     MW  860   0.526   0.682   2.660 -0.1106 -0.1263 -0.1229
  216SOL     OW  861   2.913   3.066   2.643 -0.1644 -0.0808 -0.3778
  216SOL    HW1  862   2.869   3.042   2.730 -0.1727 -0.2535  2.9479
  216SOL    HW2  863   2.895   3.165   2.642 -0.8859 -1.6783 -1.5440
  216SOL     MW  864   2.905   3.076   2.654 -0.2607 -0.3144 -0.0929
  217SOL     OW  865   0.945   1.152   0.054  0.0145 -0.7902 -0.1785
  217SOL    HW1  866   0.995   1.067   0.059  3.0293 -1.3872 -0.1009
  217SOL    HW2  867   1.000   1.216   0.099  0.8868 -0.9633 -2.9657
  217SOL     MW  868   0.959   1.149   0.060  0.5274 -0.8918 -0.5360
  218SOL     OW  869   0.963   1.355   2.511  0.2513  0.0526 -0.3129
  218SOL    HW1  870   0.983   1.284   2.572  0.4807  1.3475  0.7671
  218SOL    HW2  871   1.026   1.421   2.542 -1.0848  0.1358  0.3412
  218SOL     MW  872   0.974   1.354   2.523  0.1053  0.2344 -0.0841
  219SOL     OW  873   1.105   0.468   2.637  0.3197 -0.0213  0.2855
  219SOL    HW1  874   1.171   0.537   2.648 -2.0132  1.4262  2.2653
  219SOL    HW2  875   1.023   0.500   2.601 -0.6360  1.9468  1.2649
  219SOL     MW  876   1.103   0.481   2.634 -0.1142  0.4294  0.6759
  220SOL     OW  877   1.758   0.462   2.239  0.1794  0.7120  0.2531
  220SOL    HW1  878   1.686   0.507   2.193 -0.3841  0.4239 -2.0320
  220SOL    HW2  879   1.797   0.400   2.170  2.4535 -2.7921  1.0385
  220SOL     MW  880   1.754   0.460   2.224  0.4051  0.2116  0.0552
  221SOL     OW  881   0.371   1.341   2.943  0.6513  0.1611  0.8480
  221SOL    HW1  882   0.417   1.263   2.920 -1.3444  3.6374 -1.0031
  221SOL    HW2  883   0.407   1.394   2.870  1.1960 -0.1601  0.9980
  221SOL     MW  884   0.382   1.338   2.930  0.4598  0.5774  0.6235
  222SOL     OW  885   0.394   0.944   2.681 -0.0725  0.3552 -0.5807
  222SOL    HW1  886   0.361   0.979   2.593  1.2173 -0.7950 -0.0872
  222SOL    HW2  887   0.458   0.884   2.650 -1.9970  0.7103  2.5315
  222SOL     MW  888   0.398   0.941   2.665 -0.1562  0.2503 -0.1049
  223SOL     OW  889   0.013   2.054   2.571  0.1859 -0.7495 -0.0494
  223SOL    HW1  890   0.069   1.982   2.611 -1.9719 -0.8337 -0.0521
  223SOL    HW2  891   0.074   2.102   2.516 -1.1081 -0.2421 -1.2899
  223SOL     MW  892   0.029   2.051   2.569 -0.2695 -0.6937 -0.2135
  224SOL     OW  893   1.543   0.812   2.597 -0.0901 -0.2588  0.1205
  224SOL    HW1  894   1.535   0.851   2.685 -1.8224  0.7033  1.7470
  224SOL    HW2  895   1.515   0.873   2.534 -1.3329 -1.7122 -0.0902
  224SOL     MW  896   1.538   0.825   2.600 -0.4826 -0.3236  0.3073
  225SOL     OW  897   2.959   1.480   2.309 -0.1155 -1.0692  0.4262
  225SOL    HW1  898   3.013   1.560   2.274 -1.0304  1.4694 -1.7286
  225SOL    HW2  899   2.894   1.512   2.372  2.7963  1.8867  0.7901
  225SOL     MW  900   2.958   1.495   2.313  0.1480 -0.3443  0.1899
  226SOL     OW  901   0.465   1.450   2.692  0.1691  0.3773 -0.1969
  226SOL    HW1  902   0.553   1.460   2.643  1.4133  0.2127  1.3327
  226SOL    HW2  903   0.435   1.539   2.697  0.5399 -0.3069  1.7108
  226SOL     MW  904   0.473   1.463   2.686  0.3822  0.2653  0.2566
  227SOL     OW  905   0.456   1.099   2.895  0.2756  0.1650 -0.3266
  227SOL    HW1  906   0.544   1.118   2.866  0.4045  1.5801  2.5350
  227SOL    HW2  907   0.428   1.036   2.832  0.0460 -0.7771 -0.2150
  227SOL     MW  908   0.464   1.093   2.883  0.2623  0.2274  0.0657
  228SOL     OW  909   0.710   0.963   2.062 -0.0518 -0.1043 -0.0187
  228SOL    HW1  910   0.804   0.987   2.050 -1.8527 -3.3550 -1.3591
  228SOL    HW2  911   0.720   0.904   2.143  0.9882 -1.2654  1.2635
  228SOL     MW  912   0.723   0.958   2.071 -0.1522 -0.6864 -0.0264
  229SOL     OW  913   0.176   0.578   0.021 -0.1390 -0.6108  0.2302
  229SOL    HW1  914   0.096   0.538  -0.022 -0.0732  0.4216 -1.2635
  229SOL    HW2  915   0.188   0.525   0.102  0.9305  2.8223  2.2000
  229SOL     MW  916   0.167   0.566   0.026  0.0108 -0.0217  0.2930
  230SOL     OW  917   1.740   1.362   2.042 -0.0165  0.1435  0.0001
  230SOL    HW1  918   1.689   1.332   2.119  0.1636 -1.3885 -1.4549
  230SOL    HW2  919   1.792   1.282   2.023  1.5144 -0.2557  1.1586
  230SOL     MW  920   1.740   1.347   2.049  0.2093 -0.1113 -0.0390
  231SOL     OW  921   2.751   1.318   2.178 -0.1007 -0.4312  0.3012
  231SOL    HW1  922   2.816   1.383   2.196  1.0807 -4.1897 -1.5053
  231SOL    HW2  923   2.710   1.328   2.089 -0.4232 -0.3279  2.1172
  231SOL     MW  924   2.754   1.328   2.169  0.0126 -0.9135  0.3024
  232SOL     OW  925   2.259   0.835   2.069  0.6821  0.2637 -0.7937
  232SOL    HW1  926   2.206   0.897   2.007  3.0261  0.6946  0.7034
  232SOL    HW2  927   2.214   0.840   2.156 -0.0504  1.2191 -0.1040
  232SOL     MW  928   2.246   0.844   2.072  0.8948  0.4466 -0.5052
  233SOL     OW  929   2.059   0.446   1.947  0.4077  0.2583 -0.2454
  233SOL    HW1  930   2.132   0.384   1.947  2.6795  0.5552  1.1256
  233SOL    HW2  931   2.082   0.493   2.030  1.3306  0.6048  2.0349
  233SOL     MW  932   2.071   0.444   1.958  0.8292  0.3432  0.2363
  234SOL     OW  933   0.285   1.027   2.443  0.0418  0.9083 -0.0427
  234SOL    HW1  934   0.190   1.050   2.432 -1.9884 -0.3693  0.6160
  234SOL    HW2  935   0.326   1.116   2.435 -1.2138 -0.2608 -0.8687
  234SOL     MW  936   0.278   1.042   2.440 -0.3917  0.5855 -0.0647
  235SOL     OW  937   1.143   3.022   2.711 -0.0013  0.4480  0.2019
  235SOL    HW1  938   1.153   3.000   2.803 -2.1966  2.4815 -0.5701
  235SOL    HW2  939   1.114   3.112   2.714 -0.2265 -0.9277 -0.4933
  235SOL     MW  940   1.141   3.031   2.724 -0.3207  0.5348  0.0083
  236SOL     OW  941   2.923   0.546   0.006 -0.1148  0.3625  0.0586
  236SOL    HW1  942   2.832   0.538  -0.000 -0.2614 -0.4906  2.7233
  236SOL    HW2  943   2.942   0.639   0.002 -2.1907 -0.9544 -1.5325
  236SOL     MW  944   2.914   0.557   0.005 -0.4081  0.0762  0.2003
  237SOL     OW  945   1.988   1.119   2.214  0.6418 -0.1929 -0.8662
  237SOL    HW1  946   1.947   1.085   2.129 -3.0786 -1.2432 -2.1735
  237SOL    HW2  947   2.026   1.042   2.259  3.9311  1.4778 -0.1063
  237SOL     MW  948   1.988   1.104   2.209  0.5849 -0.1111 -0.9384
  238SOL     OW  949   1.064   1.801   3.008 -0.0592  0.1178  0.3657
  238SOL    HW1  950   1.058   1.712   2.979 -0.4049  0.5768  1.9499
  238SOL    HW2  951   1.157   1.799   3.036 -0.4319  3.5549 -0.3474
  238SOL     MW  952   1.075   1.789   3.008 -0.1540  0.6319  0.4806
  239SOL     OW  953   1.243   1.351   2.355 -0.3770  0.1026 -0.5333
  239SOL    HW1  954   1.216   1.421   2.416  0.5485 -0.8212 -0.0542
  239SOL    HW2  955   1.231   1.274   2.417  2.3593 -3.0306  2.9690
  239SOL     MW  956   1.238   1.350   2.371  0.1061 -0.4327 -0.0080
  240SOL     OW  957   0.726   0.806   2.295 -0.3779 -0.7127  0.2649
  240SOL    HW1  958   0.711   0.863   2.371 -0.8762 -1.0476 -2.6201
  240SOL    HW2  959   0.813   0.774   2.304 -1.6429 -0.1421 -1.1410
  240SOL     MW  960   0.735   0.809   2.306 -0.6106 -0.6816 -0.3012
  241SOL     OW  961   0.636   0.373   3.095  0.2283 -0.1959 -0.3054
  241SOL    HW1  962   0.657   0.457   3.137 -2.1357 -0.8901  2.1722
  241SOL    HW2  963   0.544   0.376   3.076  1.7940 -0.5748  0.5842
  241SOL     MW  964   0.627   0.384   3.098  0.1230 -0.3375  0.1389
  242SOL     OW  965   1.493   1.682   2.353 -0.0069 -0.2441 -0.3680
  242SOL    HW1  966   1.479   1.783   2.348  1.2950  4.4539 -1.8517
  242SOL    HW2  967   1.443   1.644   2.281 -0.5970  0.0306  0.6138
  242SOL     MW  968   1.485   1.691   2.343  0.0870  0.4120 -0.4342
  243SOL     OW  969   1.043   0.248   2.486 -0.1684 -0.1747  0.0813
  243SOL    HW1  970   1.122   0.220   2.432  1.4545 -0.2397 -0.2573
  243SOL    HW2  971   1.069   0.319   2.550 -0.3753  1.3942  0.2478
  243SOL     MW  972   1.057   0.254   2.488  0.0185  0.0237  0.0586
  244SOL     OW  973   0.251   0.768   2.367  0.2262 -0.3064  0.4967
  244SOL    HW1  974   0.248   0.861   2.388 -0.4938  1.6360  0.1856
  244SOL    HW2  975   0.341   0.751   2.342 -1.0016  1.5595  0.4426
  244SOL     MW  976   0.262   0.778   2.366 -0.0308  0.1961  0.4485
  245SOL     OW  977   1.266   0.219   2.325  0.2613  0.0162  0.0759
  245SOL    HW1  978   1.352   0.181   2.332 -1.2234 -0.1483 -2.0227
  245SOL    HW2  979   1.297   0.311   2.353  0.6807  0.8325 -0.7328
  245SOL     MW  980   1.281   0.226   2.330  0.1207  0.1022 -0.3077
  246SOL     OW  981   1.194   1.189   2.134  0.1179  0.1214  0.1875
  246SOL    HW1  982   1.161   1.105   2.177  1.0556 -0.0801  1.3760
  246SOL    HW2  983   1.230   1.234   2.204  4.0195 -0.8056  1.3933
  246SOL     MW  984   1.195   1.184   2.149  0.7564 -0.0275  0.5034
  247SOL     OW  985   0.752   0.579   0.156 -0.2993 -0.1453  0.2987
  247SOL    HW1  986   0.705   0.637   0.096  1.9339 -2.1876  1.1998
  247SOL    HW2  987   0.847   0.581   0.132  0.7411 -0.9939 -0.4595
  247SOL     MW  988   0.758   0.587   0.145  0.1326 -0.5267  0.3176
  248SOL     OW  989   0.455   1.254   2.469 -0.5183  0.9260  0.1910
  248SOL    HW1  990   0.501   1.291   2.395  0.5047 -0.8865 -0.5144
  248SOL    HW2  991   0.447   1.325   2.531 -0.1896 -0.0142  0.6910
  248SOL     MW  992   0.460   1.268   2.468 -0.3399  0.5628  0.1639
  249SOL     OW  993   0.163   1.867   2.708 -0.2802  0.3684 -0.4701
  249SOL    HW1  994   0.098   1.796   2.683 -1.7227  2.2608  3.2473
  249SOL    HW2  995   0.193   1.840   2.802  1.4720  0.0207  2.5516
  249SOL     MW  996   0.158   1.854   2.717 -0.2393  0.5722  0.4191
  250SOL     OW  997   2.191   0.882   2.340  0.1030  0.7040 -0.5197
  250SOL    HW1  998   2.236   0.791   2.345 -0.1493 -0.9269 -0.6551
  250SOL    HW2  999   2.257   0.946   2.372  0.1881  1.1950  0.8783
  250SOL     MW 1000   2.205   0.879   2.345  0.0809  0.5536 -0.3531
  251SOL     OW 1001   0.139   0.873   2.014  0.2117 -0.7034 -0.1844
  251SOL    HW1 1002   0.077   0.805   2.018 -0.7595  1.5407 -4.1392
  251SOL    HW2 1003   0.179   0.866   1.928  0.6251 -0.0461 -1.7601
  251SOL     MW 1004   0.136   0.863   2.003  0.1381 -0.3206 -0.9141
  252SOL     OW 1005   1.710   0.981   2.854  0.1402 -0.1807 -0.0905
  252SOL    HW1 1006   1.728   1.023   2.942 -0.4728 -1.0897 -1.9493
  252SOL    HW2 1007   1.790   0.988   2.798  0.3494 -0.7980 -0.2996
  252SOL     MW 1008   1.723   0.988   2.858  0.0869 -0.3821 -0.3634
  253SOL     OW 1009   1.238   1.786   2.549  0.2331  0.0285  0.0496
  253SOL    HW1 1010   1.220   1.760   2.457  0.6077  1.8942  0.5201
  253SOL    HW2 1011   1.170   1.852   2.549 -0.0272 -2.5977 -3.7225
  253SOL     MW 1012   1.227   1.791   2.537  0.2482 -0.0719 -0.3860
  254SOL     OW 1013   1.058   0.988   2.275 -0.1253  0.0683 -0.0203
  254SOL    HW1 1014   1.036   0.894   2.273  0.2767 -0.2951  0.0965
  254SOL    HW2 1015   0.980   1.038   2.279  1.8266 -0.6930  0.5898
  254SOL     MW 1016   1.045   0.982   2.275  0.1853 -0.0801  0.0756
  255SOL     OW 1017   0.772   2.582   2.171 -0.4330 -0.3344 -0.6568
  255SOL    HW1 1018   0.713   2.509   2.193 -0.4374 -2.3315  2.0443
  255SOL    HW2 1019   0.859   2.559   2.210 -3.3337  0.5309  1.4067
  255SOL     MW 1020   0.776   2.569   2.179 -0.8163 -0.4837 -0.0282
  256SOL     OW 1021   1.270   2.739   2.878  0.3658 -0.3909  0.7993
  256SOL    HW1 1022   1.267   2.645   2.865  2.9339  3.1545 -1.1574
  256SOL    HW2 1023   1.329   2.759   2.808 -0.0696  1.1622 -0.6616
  256SOL     MW 1024   1.277   2.729   2.867  0.6472  0.2818  0.3484
  257SOL     OW 1025   0.103   1.920   0.084  0.5702  0.3112 -0.3149
  257SOL    HW1 1026   0.138   1.879   0.160 -0.3678 -2.1222 -1.8402
  257SOL    HW2 1027   0.141   1.864   0.013  1.3504 -0.7794  1.2065
  257SOL     MW 1028   0.112   1.907   0.085  0.5494 -0.1537 -0.3155
  258SOL     OW 1029   0.687   1.027   2.461  0.5483  0.6198  0.3561
  258SOL    HW1 1030   0.717   1.105   2.413 -0.6874  5.5205  0.6765
  258SOL    HW2 1031   0.659   1.071   2.541  2.5218 -0.6435 -1.0785
  258SOL     MW 1032   0.687   1.043   2.465  0.6456  1.0997  0.2091
  259SOL     OW 1033   0.770   0.441   2.385  0.7836 -0.5753  0.0205
  259SOL    HW1 1034   0.689   0.389   2.392 -0.8976 -1.0319 -0.2671
  259SOL    HW2 1035   0.842   0.383   2.414  0.1462 -1.1537 -1.7123
  259SOL     MW 1036   0.769   0.426   2.390  0.4777 -0.7119 -0.2461
  260SOL     OW 1037   0.493   0.145   1.602 -0.6089 -0.2964  0.0215
  260SOL    HW1 1038   0.453   0.087   1.539  0.7709  2.4699 -2.1674
  260SOL    HW2 1039   0.572   0.180   1.556  3.3670  0.8204  0.3174
  260SOL     MW 1040   0.498   0.142   1.588  0.0977  0.2159 -0.2283
  261SOL     OW 1041   1.318   0.777   2.006  0.2409 -0.0960  0.1533
  261SOL    HW1 1042   1.303   0.781   2.102  0.5457  1.5514 -1.1970
  261SOL    HW2 1043   1.279   0.690   1.987 -0.7487 -2.5832 -0.1399
  261SOL     MW 1044   1.311   0.766   2.016  0.1506 -0.2068 -0.0635
  262SOL     OW 1045   1.056   0.329   0.185 -0.7275  0.6638 -0.0051
  262SOL    HW1 1046   1.148   0.315   0.154 -2.0520 -2.8782  0.9274
  262SOL    HW2 1047   1.008   0.278   0.117 -0.7955  0.2736 -0.9938
  262SOL     MW 1048   1.062   0.320   0.172 -0.9112  0.1450 -0.0125
  263SOL     OW 1049   0.431   0.004   2.529 -0.1230  0.3282 -0.0860
  263SOL    HW1 1050   0.347   0.049   2.505 -0.9270  1.4280  3.0526
  263SOL    HW2 1051   0.491   0.005   2.452  2.3712  0.4572  1.5672
  263SOL     MW 1052   0.428   0.010   2.516  0.1000  0.4904  0.5462
  264SOL     OW 1053   1.503   1.310   1.914 -0.4966  0.5468 -0.5944
  264SOL    HW1 1054   1.466   1.275   1.998 -0.0793 -0.5055 -1.4838
  264SOL    HW2 1055   1.581   1.352   1.944 -2.6202 -1.0813 -0.4464
  264SOL     MW 1056   1.508   1.311   1.929 -0.7217  0.1932 -0.6922
  265SOL     OW 1057   0.682   2.809   2.293 -0.0008  0.4351  0.3677
  265SOL    HW1 1058   0.726   2.737   2.242  1.1325 -0.1355  0.3866
  265SOL    HW2 1059   0.703   2.793   2.386 -1.8842  0.6223 -1.5646
  265SOL     MW 1060   0.690   2.797   2.299 -0.0997  0.3845  0.1153
  266SOL     OW 1061   0.990   0.731   2.220 -0.3061 -0.2466 -0.3313
  266SOL    HW1 1062   0.975   0.694   2.133 -0.0794 -1.9061  2.3156
  266SOL    HW2 1063   1.039   0.668   2.268 -2.3305  1.0333 -0.8224
  266SOL     MW 1064   0.995   0.718   2.215 -0.5433 -0.2967 -0.0469
  267SOL     OW 1065   1.412   1.724   2.789  0.2973  0.7402  0.0001
  267SOL    HW1 1066   1.473   1.673   2.728  0.7008 -3.0907  1.1235
  267SOL    HW2 1067   1.368   1.782   2.731  2.0768  0.2364  0.9352
  267SOL     MW 1068   1.414   1.725   2.773  0.5853  0.1683  0.2717
  268SOL     OW 1069   0.220   0.820   1.697 -0.9495  0.3098 -0.6193
  268SOL    HW1 1070   0.177   0.851   1.621 -1.2178 -0.2447  1.0746
  268SOL    HW2 1071   0.252   0.727   1.681 -3.0431  0.6685  2.9427
  268SOL     MW 1072   0.219   0.812   1.685 -1.2611  0.2840  0.0742
  269SOL     OW 1073   1.422   1.946   2.350  0.4139 -0.3018 -0.0772
  269SOL    HW1 1074   1.453   2.032   2.323  1.9646  1.5275 -0.5695
  269SOL    HW2 1075   1.360   1.981   2.422  1.1191  1.7350  0.3149
  269SOL     MW 1076   1.418   1.962   2.356  0.7116  0.2083 -0.0904
  270SOL     OW 1077   1.138   0.372   1.621 -0.8050 -0.0884  0.1477
  270SOL    HW1 1078   1.089   0.292   1.653  3.0901 -0.7668  0.0004
  270SOL    HW2 1079   1.230   0.361   1.633 -1.0744  0.1164 -0.1966
  270SOL     MW 1080   1.143   0.360   1.627 -0.3266 -0.1509  0.0829
  271SOL     OW 1081   0.891   0.021   2.532 -0.0456 -0.3738  0.2266
  271SOL    HW1 1082   0.943  -0.054   2.551 -2.6230  0.9630  1.1503
  271SOL    HW2 1083   0.959   0.098   2.513  1.6373 -0.9613 -0.5282
  271SOL     MW 1084   0.907   0.021   2.532 -0.1636 -0.2749  0.2489
  272SOL     OW 1085   1.483   2.896   2.780 -0.4417 -0.3027  0.5811
  272SOL    HW1 1086   1.447   2.964   2.726  2.2850 -0.5477 -1.5755
  272SOL    HW2 1087   1.535   2.934   2.855 -0.3312 -0.8706  0.9995
  272SOL     MW 1088   1.485   2.910   2.782 -0.0674 -0.4100  0.3517
  273SOL     OW 1089   1.443   0.969   2.845 -0.1619  0.4492  0.1495
  273SOL    HW1 1090   1.535   0.984   2.858  0.4665 -1.6325  0.9173
  273SOL    HW2 1091   1.398   1.043   2.885 -0.1458 -0.5700 -0.9446
  273SOL     MW 1092   1.449   0.980   2.852 -0.0769  0.0401  0.1064
  274SOL     OW 1093   1.483   0.724   0.145 -0.0636  0.2193 -0.4069
  274SOL    HW1 1094   1.520   0.640   0.166  0.4204  0.0428  1.1794
  274SOL    HW2 1095   1.396   0.730   0.178  2.1228 -2.1928 -3.9731
  274SOL     MW 1096   1.476   0.714   0.152  0.2887 -0.1223 -0.6681
  275SOL     OW 1097   1.729   0.584   1.808 -0.1528 -1.0118 -0.4084
  275SOL    HW1 1098   1.802   0.613   1.870  2.5571  0.4447 -1.9742
  275SOL    HW2 1099   1.733   0.489   1.802 -0.5896  0.1776  2.1552
  275SOL     MW 1100   1.739   0.575   1.815  0.1471 -0.6627 -0.2768
  276SOL     OW 1101   0.261   1.197   1.831  0.6726  0.0329  0.1459
  276SOL    HW1 1102   0.308   1.134   1.884 -2.0179 -0.4474  0.0706
  276SOL    HW2 1103   0.172   1.195   1.874  0.0011 -1.0964  0.4426
  276SOL     MW 1104   0.255   1.189   1.843  0.2291 -0.1795  0.1751
  277SOL     OW 1105   1.872   1.284   2.437 -0.1033  0.2052  0.1471
  277SOL    HW1 1106   1.942   1.315   2.490 -2.9730  4.6666 -2.7187
  277SOL    HW2 1107   1.911   1.231   2.370  2.2491 -0.5366  2.3303
  277SOL     MW 1108   1.887   1.281   2.435 -0.1716  0.6959  0.0570
  278SOL     OW 1109   1.468   0.611   1.712 -0.3562  0.0561  0.0060
  278SOL    HW1 1110   1.420   0.571   1.785 -0.0890  2.0961  0.1793
  278SOL    HW2 1111   1.560   0.616   1.739  2.1499 -2.7904  1.6473
  278SOL     MW 1112   1.474   0.606   1.725  0.0097 -0.0503  0.2454
  279SOL     OW 1113   0.554  -0.002   2.256  0.9484 -0.3378  0.2115
  279SOL    HW1 1114   0.644  -0.035   2.244 -0.9659 -2.3594 -2.1318
  279SOL    HW2 1115   0.557   0.091   2.263  0.9490 -0.4464  0.8839
  279SOL     MW 1116   0.566   0.006   2.256  0.6959 -0.6189 -0.0090
  280SOL     OW 1117   1.465   1.036   2.132 -0.4040 -0.3208  0.4038
  280SOL    HW1 1118   1.508   0.958   2.093 -1.4596 -2.2313 -1.0845
  280SOL    HW2 1119   1.456   1.003   2.224  0.3609  2.3988 -0.6038
  280SOL     MW 1120   1.470   1.021   2.139 -0.4424 -0.2140  0.0745
  281SOL     OW 1121   1.288   1.310   2.765  0.0538 -0.1205  0.1186
  281SOL    HW1 1122   1.372   1.346   2.756 -0.5275 -0.1205  2.7698
  281SOL    HW2 1123   1.291   1.267   2.849 -1.7660  1.8453 -0.3484
  281SOL     MW 1124   1.299   1.309   2.775 -0.2630  0.1389  0.4068
  282SOL     OW 1125   1.146   1.275   1.634 -0.3194  0.0129 -0.1685
  282SOL    HW1 1126   1.101   1.360   1.601 -0.0762  3.2803 -0.9281
  282SOL    HW2 1127   1.113   1.269   1.725 -0.2401 -1.3404  2.2573
  282SOL     MW 1128   1.136   1.285   1.642 -0.2768  0.2655  0.0514
  283SOL     OW 1129   0.747   1.247   2.985  0.6189 -0.5910  0.0508
  283SOL    HW1 1130   0.819   1.220   3.043  2.7530 -1.2901 -0.3344
  283SOL    HW2 1131   0.716   1.339   3.017 -0.2921  0.9211 -1.4072
  283SOL     MW 1132   0.752   1.256   2.997  0.7803 -0.4837 -0.1924
  284SOL     OW 1133   0.533   0.636   2.381  0.1877  0.2736 -0.4098
  284SOL    HW1 1134   0.609   0.677   2.336  1.1004 -1.2865  0.4917
  284SOL    HW2 1135   0.484   0.590   2.316  2.2786  1.7460 -1.2650
  284SOL     MW 1136   0.537   0.635   2.367  0.5840  0.2620 -0.4037
  285SOL     OW 1137   0.863   0.925   2.804  0.3885 -0.2868 -0.1042
  285SOL    HW1 1138   0.919   0.963   2.731  2.5256  0.1903 -0.5954
  285SOL    HW2 1139   0.836   0.835   2.782 -1.6446 -2.5297 -1.6665
  285SOL     MW 1140   0.867   0.918   2.792  0.4022 -0.5198 -0.3752
  286SOL     OW 1141   1.167   1.507   2.590  0.0753  0.1367  0.3658
  286SOL    HW1 1142   1.197   1.448   2.656  3.2418  2.2471 -0.6372
  286SOL    HW2 1143   1.188   1.599   2.607  1.0971  0.0908 -0.3008
  286SOL     MW 1144   1.174   1.512   2.601  0.6279  0.4091  0.1455
  287SOL     OW 1145   1.097   0.972   0.295  0.3343 -0.5665 -0.3068
  287SOL    HW1 1146   1.135   0.999   0.377 -1.6535 -2.2521  1.6467
  287SOL    HW2 1147   1.006   0.988   0.312  1.4358 -0.3673  1.7157
  287SOL     MW 1148   1.090   0.978   0.308  0.2174 -0.7626  0.2178
  288SOL     OW 1149   1.544   0.605   2.111 -0.5968  0.3321 -0.5107
  288SOL    HW1 1150   1.522   0.617   2.203  2.2903  3.0878 -0.4621
  288SOL    HW2 1151   1.557   0.696   2.076  1.3018 -1.0718 -0.0916
  288SOL     MW 1152   1.543   0.618   2.119  0.0346  0.5104 -0.4490
  289SOL     OW 1153   0.983   1.035   2.569  0.1361 -0.2811 -0.1193
  289SOL    HW1 1154   1.041   0.960   2.551  3.6445  2.6687  0.9631
  289SOL    HW2 1155   0.912   1.031   2.503  1.1923 -0.7519 -2.0102
  289SOL     MW 1156   0.981   1.024   2.558  0.7384  0.0460 -0.2259
  290SOL     OW 1157   0.873   0.651   1.555  0.0375  0.5412  0.2237
  290SOL    HW1 1158   0.918   0.624   1.471 -0.9845  0.8389 -2.1524
  290SOL    HW2 1159   0.940   0.636   1.625  1.1274  3.0474 -1.0568
  290SOL     MW 1160   0.888   0.645   1.553  0.0465  0.9111 -0.2588
  291SOL     OW 1161   0.197   0.332   0.150  0.2467  0.4248 -0.1306
  291SOL    HW1 1162   0.290   0.313   0.147  1.3852 -0.0731  1.6060
  291SOL    HW2 1163   0.163   0.267   0.077  0.1126 -0.6900 -1.5240
  291SOL     MW 1164   0.205   0.321   0.140  0.3792  0.2120 -0.0853
  292SOL     OW 1165   1.011   0.586   0.086 -0.2532 -0.0035  0.5499
  292SOL    HW1 1166   1.079   0.640   0.133 -0.1819  1.1032 -1.7834
  292SOL    HW2 1167   1.043   0.503   0.128  0.6544  0.6114 -1.4692
  292SOL     MW 1168   1.024   0.583   0.098 -0.1241  0.2237 -0.0243
  293SOL     OW 1169   0.176   0.138   2.465 -0.3120 -0.1348 -0.5292
  293SOL    HW1 1170   0.104   0.098   2.416 -1.1559 -1.4416  1.0157
  293SOL    HW2 1171   0.139   0.208   2.521 -1.3493 -1.0109 -1.7294
  293SOL     MW 1172   0.161   0.142   2.466 -0.5602 -0.4228 -0.4837
  294SOL     OW 1173   1.530   0.643   2.389  0.2236  0.0457 -0.0030
  294SOL    HW1 1174   1.561   0.696   2.467  1.1353 -2.7684 -0.2566
  294SOL    HW2 1175   1.538   0.557   2.416 -0.8087  2.8542  2.1343
  294SOL     MW 1176   1.536   0.639   2.403  0.2077  0.0450  0.2455
  295SOL     OW 1177   0.891   0.631   2.526  0.0166 -0.9311 -0.4483
  295SOL    HW1 1178   0.827   0.573   2.476  1.7384  2.2389  0.3826
  295SOL    HW2 1179   0.833   0.648   2.611  2.3614 -0.2895  2.7675
  295SOL     MW 1180   0.875   0.626   2.531  0.5531 -0.4282  0.0856
  296SOL     OW 1181   1.294   0.227   2.036  0.1739 -0.3657  0.2690
  296SOL    HW1 1182   1.381   0.195   2.023  0.3815  2.7900 -1.3695
  296SOL    HW2 1183   1.269   0.230   2.127 -1.3411 -0.4231 -0.5009
  296SOL     MW 1184   1.302   0.223   2.046  0.0014  0.0431 -0.0488
  297SOL     OW 1185   1.416   0.362   1.593  0.2203  0.5527  0.5094
  297SOL    HW1 1186   1.473   0.428   1.624  1.7601 -3.1919 -0.1265
  297SOL    HW2 1187   1.451   0.278   1.626 -1.6766  0.6845  0.9055
  297SOL     MW 1188   1.428   0.360   1.602  0.1732  0.0760  0.4778
  298SOL     OW 1189   1.619   0.852   1.994 -0.1847 -0.4708 -0.1688
  298SOL    HW1 1190   1.580   0.884   1.908  0.2906 -0.8433 -0.7581
  298SOL    HW2 1191   1.695   0.908   2.009 -0.4172 -0.5437  1.7903
  298SOL     MW 1192   1.624   0.863   1.985 -0.1526 -0.5296  0.0120
  299SOL     OW 1193   0.541   1.047   0.036  0.4735  0.2585  0.1921
  299SOL    HW1 1194   0.592   1.133   0.033  0.7771  1.7509 -0.6595
  299SOL    HW2 1195   0.495   1.036  -0.049 -0.0644 -3.1038  1.7471
  299SOL     MW 1196   0.542   1.056   0.025  0.4426  0.0118  0.2849
  300SOL     OW 1197   1.235   1.133   2.528  0.3146  0.1068  0.8985
  300SOL    HW1 1198   1.148   1.088   2.532 -4.1993  2.0199  3.0607
  300SOL    HW2 1199   1.244   1.168   2.616 -2.5613 -2.0017 -0.2397
  300SOL     MW 1200   1.225   1.132   2.540 -0.6604  0.0810  1.0336
  301SOL     OW 1201   1.433   0.959   0.662  0.5723 -0.2946 -0.0236
  301SOL    HW1 1202   1.465   0.982   0.745 -0.6399 -0.6375 -0.5815
  301SOL    HW2 1203   1.363   0.891   0.670  1.3931  0.9414 -0.5310
  301SOL     MW 1204   1.428   0.953   0.674  0.5206 -0.1767 -0.1641
  302SOL     OW 1205   0.138   1.489   2.005  0.3044  0.0664 -0.1840
  302SOL    HW1 1206   0.135   1.410   2.062  2.2089  2.2920  0.9927
  302SOL    HW2 1207   0.098   1.562   2.065  0.4301  0.9367  3.7255
  302SOL     MW 1208   0.132   1.488   2.021  0.5722  0.4749  0.4871
  303SOL     OW 1209   0.367   1.692   2.628 -0.3386 -0.0547  0.1525
  303SOL    HW1 1210   0.331   1.667   2.542  3.4207  2.1562 -0.3425
  303SOL    HW2 1211   0.294   1.740   2.664 -1.0677 -5.7104 -2.5350
  303SOL     MW 1212   0.353   1.695   2.621  0.0612 -0.5092 -0.2674
  304SOL     OW 1213   0.586   2.073   2.359 -0.2722  0.8421  0.3446
  304SOL    HW1 1214   0.629   2.145   2.304  1.2276 -0.4972 -1.9334
  304SOL    HW2 1215   0.661   2.015   2.383 -1.4942 -1.6851  1.0833
  304SOL     MW 1216   0.602   2.075   2.355 -0.2356  0.3320  0.1415
  305SOL     OW 1217   1.090   0.586   0.508 -0.4510  0.2496 -0.1013
  305SOL    HW1 1218   0.996   0.583   0.484 -0.6140 -1.1119 -0.1051
  305SOL    HW2 1219   1.117   0.497   0.507  3.1498 -0.4288 -0.6569
  305SOL     MW 1220   1.082   0.574   0.505  0.0026 -0.0195 -0.1751
  306SOL     OW 1221   1.210   1.473   0.261 -0.5098  0.1157 -0.1253
  306SOL    HW1 1222   1.250   1.394   0.298 -0.3964 -1.6635  1.3428
  306SOL    HW2 1223   1.260   1.491   0.185 -4.0889 -3.6555  2.1981
  306SOL     MW 1224   1.222   1.465   0.256 -0.9671 -0.6166  0.3750
  307SOL     OW 1225   1.357   0.487   1.929 -0.8300 -0.4107 -0.0857
  307SOL    HW1 1226   1.348   0.405   1.977  3.0205  1.8126 -1.0605
  307SOL    HW2 1227   1.421   0.521   1.989 -2.2776  1.7653  0.1525
  307SOL     MW 1228   1.364   0.481   1.943 -0.5130  0.1697 -0.1829
  308SOL     OW 1229   2.140   0.582   2.694  0.0869  0.0063  0.1640
  308SOL    HW1 1230   2.219   0.550   2.744 -0.9339 -0.5398 -1.2326
  308SOL    HW2 1231   2.143   0.674   2.708  1.0690 -0.9543  3.8976
  308SOL     MW 1232   2.151   0.590   2.702  0.0818 -0.1925  0.4724
  309SOL     OW 1233   0.423   0.372   0.388  0.6993 -0.3943 -0.5024
  309SOL    HW1 1234   0.508   0.367   0.433  1.7471 -0.4763 -2.2292
  309SOL    HW2 1235   0.394   0.282   0.372 -0.1527  0.4574 -0.3686
  309SOL     MW 1236   0.430   0.359   0.391  0.7251 -0.2927 -0.7126
  310SOL     OW 1237   0.510   0.614   1.942 -0.1638  0.1405 -0.0619
  310SOL    HW1 1238   0.544   0.522   1.918  1.3052  1.2242 -1.1531
  310SOL    HW2 1239   0.578   0.674   1.901 -3.8221  0.8581  0.7971
  310SOL     MW 1240   0.524   0.610   1.933 -0.4527  0.3782 -0.0925
  311SOL     OW 1241   1.942   0.703   1.919 -0.1249 -0.2498 -0.4539
  311SOL    HW1 1242   1.931   0.705   2.014  0.0799 -1.4071 -1.2112
  311SOL    HW2 1243   2.006   0.630   1.891  1.7275 -1.9727 -0.5452
  311SOL     MW 1244   1.949   0.693   1.927  0.1465 -0.6298 -0.5659
  312SOL     OW 1245   1.680   2.514   0.108  0.2391  0.7992  0.3897
  312SOL    HW1 1246   1.742   2.536   0.173  1.1138  1.0067  1.6355
  312SOL    HW2 1247   1.600   2.566   0.117 -2.7051  0.1470 -0.4243
  312SOL     MW 1248   1.678   2.524   0.118 -0.0339  0.7405  0.4467
  313SOL     OW 1249   0.094   1.211   2.958 -0.2863 -0.5016  0.4533
  313SOL    HW1 1250   0.082   1.206   3.051 -1.7972 -0.5773  0.1874
  313SOL    HW2 1251   0.173   1.261   2.933  1.5419  0.0354  0.6084
  313SOL     MW 1252   0.103   1.217   2.967 -0.2444 -0.4407  0.4387
  314SOL     OW 1253   2.112   2.962   3.019 -0.3846 -0.8734  0.0393
  314SOL    HW1 1254   2.074   3.022   2.954  1.3181  0.6048 -1.2540
  314SOL    HW2 1255   2.193   3.014   3.033  1.6712  0.3495  1.3725
  314SOL     MW 1256   2.118   2.977   3.012  0.1113 -0.5170  0.0446
  315SOL     OW 1257   1.525   1.953   0.003 -0.4220  0.9547 -0.3193
  315SOL    HW1 1258   1.438   1.984   0.034 -0.9996 -0.8260  0.0582
  315SOL    HW2 1259   1.539   2.009  -0.071 -1.4678 -0.1115  1.6336
  315SOL     MW 1260   1.515   1.964  -0.003 -0.6362  0.5791 -0.0118
  316SOL     OW 1261   1.271   0.674   2.722 -0.2891 -0.0219 -0.3916
  316SOL    HW1 1262   1.349   0.722   2.693  1.4581 -2.1371  0.9618
  316SOL    HW2 1263   1.262   0.688   2.819  2.5492  1.9841 -0.9241
  316SOL     MW 1264   1.280   0.682   2.731  0.3159 -0.0363 -0.2833
  317SOL     OW 1265   0.724   1.499   2.582  0.2392 -0.4409  0.6244
  317SOL    HW1 1266   0.802   1.445   2.581  0.2956 -0.1073  0.9288
  317SOL    HW2 1267   0.724   1.553   2.504 -1.0320  0.0605  1.2341
  317SOL     MW 1268   0.734   1.499   2.572  0.0789 -0.3308  0.7450
  318SOL     OW 1269   1.357   0.377   2.911  0.4082 -0.2388 -0.3200
  318SOL    HW1 1270   1.266   0.412   2.892 -2.8615 -0.1227 -2.0004
  318SOL    HW2 1271   1.420   0.447   2.926  0.2799 -1.6692  0.3780
  318SOL     MW 1272   1.353   0.390   2.910 -0.0401 -0.4122 -0.4496
  319SOL     OW 1273   0.787   0.409   2.847  0.1096 -0.1785  0.4081
  319SOL    HW1 1274   0.722   0.374   2.782  1.0904  1.3265  0.3663
  319SOL    HW2 1275   0.739   0.415   2.934  0.9556  0.1459  0.0724
  319SOL     MW 1276   0.772   0.405   2.850  0.3506  0.0629  0.3583
  320SOL     OW 1277   1.068   1.323   1.945  0.3750  0.4623  0.0932
  320SOL    HW1 1278   1.116   1.282   2.018 -0.7725 -1.1092  1.4838
  320SOL    HW2 1279   1.115   1.404   1.928 -0.2142 -0.2953  0.2304
  320SOL     MW 1280   1.081   1.329   1.952  0.1458  0.1550  0.2948
  321SOL     OW 1281   1.052   0.931   3.010  0.8643 -0.1080  0.2712
  321SOL    HW1 1282   0.972   0.906   2.963  2.2270 -0.0789 -0.5352
  321SOL    HW2 1283   1.111   0.861   2.982  1.3791  0.1542  1.0381
  321SOL     MW 1284   1.049   0.919   3.000  1.1120 -0.0696  0.2660
  322SOL     OW 1285   1.272   0.825   1.715  0.2200  0.0124  0.1624
  322SOL    HW1 1286   1.353   0.780   1.741 -0.0324  0.6908  0.6990
  322SOL    HW2 1287   1.268   0.886   1.789 -2.1731 -1.2700  1.6506
  322SOL     MW 1288   1.282   0.827   1.728 -0.1291 -0.0673  0.4296
  323SOL     OW 1289   1.239   1.595   1.864  0.2518  0.3484  0.3658
  323SOL    HW1 1290   1.223   1.568   1.772 -0.7380 -1.0931 -1.8806
  323SOL    HW2 1291   1.176   1.668   1.885 -0.1106  0.4965 -0.3220
  323SOL     MW 1292   1.229   1.601   1.855  0.0734  0.1777 -0.0214
  324SOL     OW 1293   1.483   0.996   2.407  1.0340 -0.2709 -0.5493
  324SOL    HW1 1294   1.397   1.052   2.431 -2.1422 -0.0516 -2.6996
  324SOL    HW2 1295   1.540   1.066   2.436 -0.9260  1.0556 -1.7231
  324SOL     MW 1296   1.479   1.012   2.414  0.3563 -0.0669 -0.9879
  325SOL     OW 1297   1.059   0.463   2.941 -0.5561 -0.5603 -0.2025
  325SOL    HW1 1298   1.027   0.504   3.021 -1.1645 -0.6658  1.3900
  325SOL    HW2 1299   0.979   0.455   2.894  3.7589  2.7880 -2.1809
  325SOL     MW 1300   1.044   0.467   2.945 -0.0670 -0.1325 -0.2534
  326SOL     OW 1301   0.442   1.362   2.180 -0.2786  0.1241  0.3331
  326SOL    HW1 1302   0.512   1.319   2.127  0.0054 -1.1763  2.4013
  326SOL    HW2 1303   0.467   1.451   2.178  2.6898 -2.3820  1.3075
  326SOL     MW 1304   0.455   1.368   2.172  0.1505 -0.3781  0.7345
  327SOL     OW 1305   1.926   0.812   2.438 -0.0224 -0.3532 -0.3565
  327SOL    HW1 1306   1.897   0.757   2.514  1.4810 -1.8546  2.2075
  327SOL    HW2 1307   2.019   0.823   2.451 -1.4256  1.6746 -1.3308
  327SOL     MW 1308   1.935   0.806   2.450 -0.0092 -0.2838 -0.1467
  328SOL     OW 1309   0.178   1.260   2.213 -0.5493 -0.2308  0.3066
  328SOL    HW1 1310   0.161   1.200   2.136 -0.9566 -1.1408  0.0412
  328SOL    HW2 1311   0.273   1.282   2.209  1.8536  0.0868  0.9507
  328SOL     MW 1312   0.189   1.255   2.202 -0.2860 -0.3090  0.3565
  329SOL     OW 1313   0.111   0.102   1.354  0.2763  0.8155 -0.1259
  329SOL    HW1 1314   0.062   0.142   1.426 -0.7070  0.1830  3.7759
  329SOL    HW2 1315   0.206   0.137   1.349 -0.5420 -0.7704  0.5157
  329SOL     MW 1316   0.117   0.112   1.363  0.0386  0.5228  0.4735
  330SOL     OW 1317   0.334   0.004   2.066  0.3586 -0.3419 -0.7967
  330SOL    HW1 1318   0.403   0.046   2.111 -2.7227  0.6811  0.1899
  330SOL    HW2 1319   0.287  -0.040   2.137 -1.4271 -1.6488  3.5601
  330SOL     MW 1320   0.337   0.004   2.081 -0.2835 -0.3794 -0.0917
  331SOL     OW 1321   0.846   1.188   2.296  0.1420 -0.5322  0.2410
  331SOL    HW1 1322   0.807   1.231   2.223  2.1314 -0.6511 -1.0858
  331SOL    HW2 1323   0.875   1.252   2.356 -1.3404 -2.7512  2.3872
  331SOL     MW 1324   0.845   1.202   2.294  0.2089 -0.8406  0.3491
  332SOL     OW 1325   1.342   1.731   3.050 -0.6073  0.8249  0.1027
  332SOL    HW1 1326   1.369   1.731   2.958  0.5751  2.5276 -1.5759
  332SOL    HW2 1327   1.401   1.789   3.086 -0.7076 -1.0358  1.6127
  332SOL     MW 1328   1.353   1.739   3.043 -0.4645  0.8041  0.0805
  333SOL     OW 1329   1.747   1.416   2.922 -0.4877 -0.3793 -0.5370
  333SOL    HW1 1330   1.821   1.385   2.881 -2.8596  0.9814  0.4544
  333SOL    HW2 1331   1.765   1.401   3.019  1.9480 -3.5903  0.7058
  333SOL     MW 1332   1.760   1.410   2.930 -0.4792 -0.6234 -0.2422
  334SOL     OW 1333   1.391  -0.004   2.623 -0.4326  0.0081  0.5607
  334SOL    HW1 1334   1.302  -0.010   2.662  1.2165 -0.3868  0.7445
  334SOL    HW2 1335   1.439   0.075   2.654 -0.4015  0.4916  0.6960
  334SOL     MW 1336   1.386   0.006   2.632 -0.2109  0.0198  0.6028
  335SOL     OW 1337   1.300   0.778   2.970  0.4450  0.4664  0.1040
  335SOL    HW1 1338   1.340   0.719   3.033  1.8653  0.7812 -1.0934
  335SOL    HW2 1339   1.369   0.830   2.930  2.6402  1.1416 -0.1141
  335SOL     MW 1340   1.314   0.777   2.973  0.9220  0.5970 -0.0827
  336SOL     OW 1341   0.946   1.056   1.950 -0.1923 -0.3870  0.5527
  336SOL    HW1 1342   0.980   1.148   1.957  1.1441  0.5789  0.8951
  336SOL    HW2 1343   1.030   1.012   1.925 -0.0827  1.6689 -2.2100
  336SOL     MW 1344   0.962   1.062   1.947 -0.0015  0.0117  0.2333
  337SOL     OW 1345   0.583   1.806   2.787  0.3289  0.8064  0.0880
  337SOL    HW1 1346   0.521   1.748   2.737 -0.5787 -0.2977 -1.6190
  337SOL    HW2 1347   0.670   1.776   2.766 -3.1083  0.0567 -2.1943
  337SOL     MW 1348   0.586   1.794   2.778 -0.2444  0.5618 -0.4384
  338SOL     OW 1349   1.130   0.802   2.527 -0.1736  0.4050 -0.1715
  338SOL    HW1 1350   1.054   0.737   2.523 -1.7580  1.4619  2.1733
  338SOL    HW2 1351   1.185   0.765   2.603  0.0409 -0.5223  0.9837
  338SOL     MW 1352   1.127   0.788   2.536 -0.3543  0.4221  0.2903
  339SOL     OW 1353   1.532   1.026   1.783  0.3265 -0.1789  0.6390
  339SOL    HW1 1354   1.474   1.018   1.701  1.3932 -2.6616 -1.8497
  339SOL    HW2 1355   1.476   1.077   1.840 -1.6136 -1.4388  0.2011
  339SOL     MW 1356   1.517   1.032   1.780  0.2113 -0.6727  0.2528
  340SOL     OW 1357   1.380   1.472   0.036  0.3149 -0.0110  0.2044
  340SOL    HW1 1358   1.385   1.556  -0.013 -2.1118  0.2721  2.5868
  340SOL    HW2 1359   1.465   1.433   0.049 -0.6930  0.8581 -1.8729
  340SOL     MW 1360   1.392   1.478   0.031 -0.1383  0.1410  0.2446
  341SOL     OW 1361   0.158   1.442   2.692 -0.0676  0.5523 -0.2353
  341SOL    HW1 1362   0.247   1.416   2.671 -1.5640  2.6410 -0.0194
  341SOL    HW2 1363   0.098   1.382   2.653 -0.5618  1.0465  2.4061
  341SOL     MW 1364   0.162   1.431   2.684 -0.3302  0.8930  0.1417
  342SOL     OW 1365   1.323   0.304   0.082 -0.6253  0.4228 -0.1992
  342SOL    HW1 1366   1.389   0.357   0.129 -2.0997  0.3347 -1.1705
  342SOL    HW2 1367   1.337   0.322  -0.012  0.1930  1.9763  0.3682
  342SOL     MW 1368   1.334   0.314   0.076 -0.7119  0.6161 -0.2525
  343SOL     OW 1369   0.220   0.325   2.155 -0.1179  0.1230 -0.6005
  343SOL    HW1 1370   0.221   0.268   2.232  2.3250 -1.7583  0.9536
  343SOL    HW2 1371   0.177   0.271   2.087 -3.1214  0.2618  0.1010
  343SOL     MW 1372   0.214   0.310   2.156 -0.1919 -0.1069 -0.3029
  344SOL     OW 1373   1.694   2.068   0.176  0.3468 -0.1864  0.4725
  344SOL    HW1 1374   1.699   2.153   0.137 -0.5443 -0.9516  0.0939
  344SOL    HW2 1375   1.623   2.029   0.120 -1.1323 -0.1941 -2.4297
  344SOL     MW 1376   1.685   2.074   0.164  0.0341 -0.2884  0.0396
  345SOL     OW 1377   0.758   1.600   2.322  0.3460 -0.5955  0.0463
  345SOL    HW1 1378   0.671   1.616   2.286 -2.0070 -0.8226  0.0684
  345SOL    HW2 1379   0.819   1.545   2.266  1.6977  0.6386 -2.2092
  345SOL     MW 1380   0.755   1.595   2.310  0.2139 -0.4626 -0.2484
  346SOL     OW 1381   1.762   1.105   3.090  0.7407 -0.4767 -0.0715
  346SOL    HW1 1382   1.854   1.129   3.073  0.5068 -3.1252 -2.4119
  346SOL    HW2 1383   1.753   1.079   3.184 -0.6925  0.7325 -0.1282
  346SOL     MW 1384   1.773   1.105   3.101  0.5208 -0.6666 -0.3878
  347SOL     OW 1385   1.277   0.771   2.284 -0.0243 -0.3208 -0.0486
  347SOL    HW1 1386   1.350   0.725   2.321 -1.9791  1.4879 -0.1927
  347SOL    HW2 1387   1.224   0.809   2.356 -2.4117 -0.1070  1.5815
  347SOL     MW 1388   1.280   0.770   2.298 -0.5972 -0.0540  0.1475
  348SOL     OW 1389   1.422   2.638   1.862  0.4332  0.7348  0.2808
  348SOL    HW1 1390   1.452   2.556   1.905  0.4436 -1.9017  1.4034
  348SOL    HW2 1391   1.448   2.704   1.927 -2.9491  0.6137 -1.0843
  348SOL     MW 1392   1.429   2.636   1.877 -0.0117  0.3710  0.2488
  349SOL     OW 1393   1.510   0.257   2.696  0.6260  0.4530  0.3662
  349SOL    HW1 1394   1.455   0.292   2.762  0.6442  0.1712 -1.8800
  349SOL    HW2 1395   1.598   0.255   2.735 -1.0776 -1.2267 -1.9458
  349SOL     MW 1396   1.514   0.262   2.710  0.4036  0.1942 -0.2352
  350SOL     OW 1397   1.861   0.622   2.664  0.1765 -0.6652  0.0654
  350SOL    HW1 1398   1.833   0.561   2.600 -0.6117  1.1867 -1.3609
  350SOL    HW2 1399   1.949   0.584   2.687  2.5993  0.3400 -1.6933
  350SOL     MW 1400   1.869   0.609   2.659  0.3922 -0.2882 -0.3549
  351SOL     OW 1401   0.075   0.959   1.517  0.1174 -0.5918 -0.1722
  351SOL    HW1 1402   0.001   0.964   1.580 -0.7511 -1.2359 -0.7731
  351SOL    HW2 1403   0.127   1.035   1.541 -2.3647 -1.9487 -1.6833
  351SOL     MW 1404   0.072   0.970   1.528 -0.3247 -0.8558 -0.4508
  352SOL     OW 1405   0.874   1.691   2.729 -0.4585 -0.0156 -0.4359
  352SOL    HW1 1406   0.917   1.655   2.804 -1.1145  0.4101  2.0229
  352SOL    HW2 1407   0.817   1.629   2.684 -2.1403  2.1059  0.6422
  352SOL     MW 1408   0.872   1.678   2.733 -0.7669  0.3205  0.0307
  353SOL     OW 1409   3.085   2.464   2.696 -0.3780  0.4475 -0.8054
  353SOL    HW1 1410   3.175   2.462   2.666 -0.0300  0.4845 -0.2975
  353SOL    HW2 1411   3.045   2.521   2.638  2.5017  0.2741 -0.9515
  353SOL     MW 1412   3.091   2.471   2.685  0.0478  0.4295 -0.7577
  354SOL     OW 1413   0.342   2.513   0.847  0.1994  0.2052  0.2485
  354SOL    HW1 1414   0.375   2.483   0.931 -1.0084 -1.0638 -1.5294
  354SOL    HW2 1415   0.278   2.443   0.825 -1.6375  2.2745  2.3549
  354SOL     MW 1416   0.338   2.499   0.855 -0.2023  0.3107  0.2919
  355SOL     OW 1417   0.022   2.264   0.363  0.2459  0.3338 -0.6849
  355SOL    HW1 1418  -0.051   2.198   0.373 -0.3112  2.7646 -1.7805
  355SOL    HW2 1419   0.018   2.306   0.448 -0.2157  0.4568 -1.5142
  355SOL     MW 1420   0.012   2.261   0.375  0.1115  0.6708 -0.9389
  356SOL     OW 1421   0.796   2.873   1.005 -0.3142  0.5878 -0.8050
  356SOL    HW1 1422   0.820   2.858   0.911  1.3406 -5.2105 -0.0927
  356SOL    HW2 1423   0.698   2.851   1.009  2.6089 -0.1863 -1.0379
  356SOL     MW 1424   0.786   2.868   0.993  0.2898 -0.2793 -0.7417
  357SOL     OW 1425   1.801   2.945   0.423 -0.1418  0.1123  0.0509
  357SOL    HW1 1426   1.757   2.869   0.466  2.6182  0.6049 -0.7616
  357SOL    HW2 1427   1.877   2.908   0.386 -2.9161 -1.1819  2.5395
  357SOL     MW 1428   1.805   2.930   0.424 -0.1437  0.0066  0.2721
  358SOL     OW 1429   0.518   0.084   1.082  0.2670  0.6435  0.1639
  358SOL    HW1 1430   0.603   0.052   1.047 -0.8528 -1.0189  1.1262
  358SOL    HW2 1431   0.469   0.130   1.013  1.7435 -0.5436 -0.5544
  358SOL     MW 1432   0.523   0.086   1.068  0.3141  0.2675  0.1961
  359SOL     OW 1433   0.886   2.895   1.847  0.0561  0.3181  0.1748
  359SOL    HW1 1434   0.869   2.801   1.872  0.6735  0.5776  0.3843
  359SOL    HW2 1435   0.953   2.872   1.773  2.9304  0.2855  2.4024
  359SOL     MW 1436   0.893   2.880   1.841  0.5168  0.3481  0.4964
  360SOL     OW 1437   0.562   2.765   1.010 -0.1628 -0.5489  0.5338
  360SOL    HW1 1438   0.568   2.735   0.917  0.0895 -1.0103 -0.4550
  360SOL    HW2 1439   0.583   2.687   1.064  0.0880 -2.2071 -2.5559
  360SOL     MW 1440   0.565   2.751   1.005 -0.0964 -0.8285 -0.0043
  361SOL     OW 1441   0.196   2.689   1.326 -0.2410 -0.0628  0.0241
  361SOL    HW1 1442   0.170   2.765   1.382  2.5394 -0.4884  0.5023
  361SOL    HW2 1443   0.291   2.667   1.349 -0.5799 -3.4973 -0.0639
  361SOL     MW 1444   0.205   2.696   1.337  0.0811 -0.5721  0.0755
  362SOL     OW 1445   1.473   2.416   0.643 -0.0937  0.6428 -0.8982
  362SOL    HW1 1446   1.491   2.335   0.693  0.0129 -0.5374  1.7286
  362SOL    HW2 1447   1.498   2.478   0.709 -0.0418 -2.3260 -0.0374
  362SOL     MW 1448   1.479   2.414   0.658 -0.0728  0.0954 -0.4381
  363SOL     OW 1449   0.294   3.089   0.725  0.3194 -0.0997 -0.2233
  363SOL    HW1 1450   0.292   3.014   0.790  0.0365 -0.2106 -0.6976
  363SOL    HW2 1451   0.212   3.090   0.679  0.4115 -3.2478  0.3582
  363SOL     MW 1452   0.283   3.079   0.728  0.2942 -0.5297 -0.2091
  364SOL     OW 1453   0.725   0.181   0.233  0.1461  0.0589 -0.1824
  364SOL    HW1 1454   0.667   0.107   0.254 -2.2794 -1.6673  0.3660
  364SOL    HW2 1455   0.670   0.246   0.190 -1.0716  1.7669 -0.6738
  364SOL     MW 1456   0.710   0.180   0.230 -0.3346  0.0565 -0.1749
  365SOL     OW 1457   0.975   1.951   1.073  0.4940  0.6010 -0.6064
  365SOL    HW1 1458   0.961   2.045   1.056 -1.9568 -2.3405  1.5617
  365SOL    HW2 1459   0.902   1.897   1.046 -0.5443 -0.8944  1.4648
  365SOL     MW 1460   0.963   1.956   1.067  0.0337  0.0156 -0.0471
  366SOL     OW 1461   2.824   2.630   1.011 -0.7925 -0.0285  0.0032
  366SOL    HW1 1462   2.906   2.652   1.057  1.9431 -0.5646  3.1015
  366SOL    HW2 1463   2.858   2.656   0.924 -0.3166  0.8919  0.6278
  366SOL     MW 1464   2.840   2.636   1.006 -0.3688  0.0222  0.4944
  367SOL     OW 1465   1.254   2.908   0.928 -0.2844  0.7667  0.1994
  367SOL    HW1 1466   1.189   2.975   0.940  3.0830  0.9875 -1.3068
  367SOL    HW2 1467   1.249   2.876   0.837  2.0432 -0.7626 -1.4102
  367SOL     MW 1468   1.245   2.912   0.918  0.4670  0.5941 -0.2117
  368SOL     OW 1469   1.641   0.401   0.696 -0.5378  0.2565 -0.3703
  368SOL    HW1 1470   1.721   0.352   0.676 -0.1625  0.6089  0.8250
  368SOL    HW2 1471   1.682   0.493   0.706 -2.0598 -1.1523 -0.8558
  368SOL     MW 1472   1.657   0.407   0.695 -0.6891  0.1171 -0.2766
  369SOL     OW 1473   0.159   2.497   1.652 -0.6430  0.6446  0.2013
  369SOL    HW1 1474   0.236   2.465   1.697  0.9853  0.6672  1.6870
  369SOL    HW2 1475   0.138   2.582   1.676  1.8749 -0.6694 -0.3500
  369SOL     MW 1476   0.166   2.504   1.661 -0.0959  0.4742  0.3246
  370SOL     OW 1477   0.738   0.018   0.938  0.4467 -0.3123 -0.9438
  370SOL    HW1 1478   0.800   0.088   0.951  2.2501  0.1142 -0.6887
  370SOL    HW2 1479   0.774  -0.069   0.964  2.0188 -1.6164 -2.4436
  370SOL     MW 1480   0.751   0.016   0.943  0.8921 -0.4280 -1.1080
  371SOL     OW 1481   1.358   2.957   1.533  0.0396 -0.6481 -0.1551
  371SOL    HW1 1482   1.306   2.881   1.498  1.3846 -1.5291  0.7675
  371SOL    HW2 1483   1.366   3.018   1.459  2.2835 -1.1409 -3.6959
  371SOL     MW 1484   1.352   2.955   1.518  0.5131 -0.8293 -0.5005
  372SOL     OW 1485   0.750   2.335   0.477  0.3311 -0.1032 -0.0203
  372SOL    HW1 1486   0.754   2.244   0.511  2.9780  1.0023 -1.5840
  372SOL    HW2 1487   0.789   2.342   0.385  3.5233  0.4822  0.0335
  372SOL     MW 1488   0.756   2.324   0.470  1.1015  0.1199 -0.2195
  373SOL     OW 1489   2.770   3.051   1.418 -0.3210  0.2134 -0.1557
  373SOL    HW1 1490   2.829   3.018   1.353 -0.9518  0.8860  0.2344
  373SOL    HW2 1491   2.752   3.143   1.395  0.4626  0.8824  0.2922
  373SOL     MW 1492   2.775   3.059   1.407 -0.3008  0.3904 -0.0451
  374SOL     OW 1493   1.548   0.442   0.199 -0.2840  0.1036  0.4317
  374SOL    HW1 1494   1.635   0.407   0.177  1.2322 -4.8413  0.3737
  374SOL    HW2 1495   1.536   0.426   0.294  2.8514 -3.6053  0.5420
  374SOL     MW 1496   1.558   0.435   0.209  0.3297 -1.0382  0.4386
  375SOL     OW 1497   1.084   2.066   2.259 -0.9141  0.1803 -0.3761
  375SOL    HW1 1498   1.123   2.073   2.352  0.6471  1.4399 -0.3351
  375SOL    HW2 1499   1.100   1.974   2.234 -0.0826  0.4175  0.8977
  375SOL     MW 1500   1.091   2.055   2.268 -0.5984  0.3778 -0.2026
  376SOL     OW 1501   0.624   2.556   0.085 -0.5035  0.1394  0.2690
  376SOL    HW1 1502   0.608   2.495   0.170 -1.7119  0.4836  2.9199
  376SOL    HW2 1503   0.610   2.505   0.009  1.0631  1.0892 -0.8143
  376SOL     MW 1504   0.620   2.541   0.086 -0.4562  0.3102  0.4758
  377SOL     OW 1505   1.329   2.005   0.833 -0.2080  0.2969 -0.7013
  377SOL    HW1 1506   1.246   2.003   0.777 -3.2952 -2.1763  2.9016
  377SOL    HW2 1507   1.311   1.937   0.896  2.2571  0.1223 -0.0260
  377SOL     MW 1508   1.316   1.996   0.834 -0.2901 -0.0524 -0.1368
  378SOL     OW 1509   1.047   2.812   1.635 -0.1681  0.1334  0.6393
  378SOL    HW1 1510   1.016   2.722   1.653 -0.1919 -1.7363 -1.5503
  378SOL    HW2 1511   0.979   2.843   1.573 -0.0510 -0.9588 -0.4959
  378SOL     MW 1512   1.034   2.804   1.629 -0.1558 -0.2574  0.2007
  379SOL     OW 1513   1.138   1.780   2.272  0.0582  0.0095 -0.0209
  379SOL    HW1 1514   1.052   1.747   2.244  1.2519 -2.6183 -1.7264
  379SOL    HW2 1515   1.205   1.735   2.224  2.7190  2.6943  0.0367
  379SOL     MW 1516   1.135   1.770   2.262  0.5667  0.0170 -0.2383
  380SOL     OW 1517   0.804   0.066   1.564  0.0293 -0.0600 -0.0106
  380SOL    HW1 1518   0.854   0.075   1.479 -1.7931  0.9227 -0.1969
  380SOL    HW2 1519   0.868   0.098   1.626  1.0822 -1.7728  0.4683
  380SOL     MW 1520   0.819   0.071   1.561 -0.0722 -0.1563  0.0280
  381SOL     OW 1521   0.816   1.996   0.791  0.4869  0.4203 -0.0955
  381SOL    HW1 1522   0.903   2.000   0.746  1.2115  1.4185  0.9806
  381SOL    HW2 1523   0.829   2.053   0.866 -1.6594 -0.8627  0.7286
  381SOL     MW 1524   0.829   2.004   0.795  0.2993  0.3828  0.1552
  382SOL     OW 1525   0.620   0.120   0.693 -0.1146  0.0670 -0.1576
  382SOL    HW1 1526   0.628   0.128   0.786 -1.2954  1.1319  2.3557
  382SOL    HW2 1527   0.594   0.025   0.676 -1.5326  1.6891  0.2941
  382SOL     MW 1528   0.618   0.108   0.703 -0.4575  0.4215  0.2336
  383SOL     OW 1529   0.570   3.075   0.338 -0.0529 -0.2382 -0.0086
  383SOL    HW1 1530   0.587   3.006   0.276 -0.5672 -0.3112  1.0998
  383SOL    HW2 1531   0.506   3.031   0.388  1.7517 -0.0631  0.2609
  383SOL     MW 1532   0.564   3.060   0.336  0.1173 -0.2247  0.1732
  384SOL     OW 1533   0.626   2.933   0.640 -0.5634 -0.4193  0.3190
  384SOL    HW1 1534   0.712   2.912   0.668 -2.6567  3.0756  0.0247
  384SOL    HW2 1535   0.578   2.858   0.665 -0.6403  0.4149  0.5388
  384SOL     MW 1536   0.631   2.920   0.647 -0.8498  0.1519  0.3092
  385SOL     OW 1537   1.314   2.054   1.506  0.1840  0.1829  0.0199
  385SOL    HW1 1538   1.374   2.096   1.567  1.4417 -3.2979  2.2507
  385SOL    HW2 1539   1.287   1.971   1.549  0.2235  1.8963 -0.8703
  385SOL     MW 1540   1.318   2.049   1.520  0.3552 -0.0503  0.1967
  386SOL     OW 1541   1.315   0.357   0.816  0.0583  0.7556 -0.2671
  386SOL    HW1 1542   1.234   0.389   0.788 -1.4320  0.4846  1.5888
  386SOL    HW2 1543   1.294   0.327   0.905  1.5907  0.9726 -0.9399
  386SOL     MW 1544   1.302   0.357   0.824  0.0639  0.7485 -0.1110
  387SOL     OW 1545   0.889   2.146   1.471  0.2294 -0.0586  0.0442
  387SOL    HW1 1546   0.958   2.192   1.426 -2.1464 -0.3988 -2.0915
  387SOL    HW2 1547   0.855   2.077   1.409 -0.4242 -0.2607  2.4170
  387SOL     MW 1548   0.893   2.143   1.457 -0.1703 -0.1302  0.0755
  388SOL     OW 1549   1.567   2.811   1.194  0.4485  0.4671 -0.2177
  388SOL    HW1 1550   1.482   2.767   1.187  1.6985 -0.5969 -0.3211
  388SOL    HW2 1551   1.627   2.740   1.177 -0.9614 -0.7571 -2.3393
  388SOL     MW 1552   1.564   2.796   1.191  0.4274  0.1652 -0.5112
  389SOL     OW 1553   0.416   0.034   3.042  0.3109  0.4293 -0.3092
  389SOL    HW1 1554   0.503   0.064   3.011  2.3378 -0.6284 -1.3582
  389SOL    HW2 1555   0.352   0.060   2.974  3.1536  1.0738 -0.9066
  389SOL     MW 1556   0.419   0.042   3.029  0.9534  0.3748 -0.5265
  390SOL     OW 1557   1.309   0.102   0.650  0.2261 -0.0534 -0.3558
  390SOL    HW1 1558   1.395   0.100   0.604 -0.1212  2.0610  4.4654
  390SOL    HW2 1559   1.334   0.091   0.744 -2.0672  0.9730  1.0681
  390SOL     MW 1560   1.324   0.101   0.657 -0.1223  0.3610  0.4682
  391SOL     OW 1561   0.303   2.225   1.368  0.3717  0.1177 -0.0230
  391SOL    HW1 1562   0.233   2.154   1.385 -3.0680 -2.6439  2.1999
  391SOL    HW2 1563   0.242   2.304   1.356 -0.4072  0.3963  0.9733
  391SOL     MW 1564   0.286   2.226   1.369 -0.1849 -0.2099  0.4017
  392SOL     OW 1565   2.035   2.178   0.382 -0.1409  0.6079 -0.1801
  392SOL    HW1 1566   2.108   2.239   0.359  0.4134 -0.3720  1.4552
  392SOL    HW2 1567   1.973   2.224   0.441 -0.7783 -2.4473 -1.3115
  392SOL     MW 1568   2.037   2.192   0.387 -0.1519  0.0755 -0.1136
  393SOL     OW 1569   0.156   3.027   2.751 -0.1838  0.8552  0.1459
  393SOL    HW1 1570   0.238   3.033   2.696 -0.3474 -1.3576 -0.8156
  393SOL    HW2 1571   0.122   3.115   2.770  0.0948  1.1358 -1.2124
  393SOL     MW 1572   0.162   3.039   2.746 -0.1686  0.6003 -0.1602
  394SOL     OW 1573   0.912   1.767   1.516  0.3735  0.0584 -0.2760
  394SOL    HW1 1574   0.855   1.790   1.591 -0.4941 -0.1915  1.8608
  394SOL    HW2 1575   0.889   1.834   1.453 -1.5423 -0.9940  1.3467
  394SOL     MW 1576   0.901   1.779   1.518  0.0063 -0.1134  0.2201
  395SOL     OW 1577   1.043   2.798   2.595  0.5955  0.0501 -0.4421
  395SOL    HW1 1578   1.099   2.876   2.606 -0.7245 -1.6586 -0.6968
  395SOL    HW2 1579   1.098   2.740   2.546 -2.2772  0.8800 -0.3087
  395SOL     MW 1580   1.058   2.800   2.590  0.0423 -0.0658 -0.4581
  396SOL     OW 1581   0.820   1.876   2.410 -0.6523  0.0938 -0.1741
  396SOL    HW1 1582   0.887   1.887   2.482  1.4567 -2.7561 -0.3963
  396SOL    HW2 1583   0.819   1.785   2.390  1.3112 -0.5888  1.4803
  396SOL     MW 1584   0.828   1.866   2.416 -0.1150 -0.3723  0.0148
  397SOL     OW 1585   1.030   2.336   1.262 -0.3163 -0.2298 -0.1208
  397SOL    HW1 1586   1.067   2.363   1.171 -0.9237  1.1134 -0.5354
  397SOL    HW2 1587   1.097   2.359   1.330 -1.2692 -0.0786  0.9637
  397SOL     MW 1588   1.044   2.343   1.259 -0.5222 -0.0327 -0.0324
  398SOL     OW 1589   0.548   2.699   0.747 -0.2011  0.3337 -0.9563
  398SOL    HW1 1590   0.466   2.658   0.731 -2.3188 -0.9067 -0.3735
  398SOL    HW2 1591   0.617   2.652   0.693  1.2079  0.0564 -0.5156
  398SOL     MW 1592   0.546   2.687   0.738 -0.2946  0.1334 -0.8213
  399SOL     OW 1593   0.235   2.093   0.400 -0.2020 -0.2427  0.3504
  399SOL    HW1 1594   0.171   2.164   0.399  2.5121 -0.2772 -1.0715
  399SOL    HW2 1595   0.289   2.105   0.317  0.2361  0.6066 -2.9524
  399SOL     MW 1596   0.233   2.104   0.389  0.2139 -0.1352 -0.2730
  400SOL     OW 1597   0.528   1.881   0.158 -0.1779  0.1973 -0.4599
  400SOL    HW1 1598   0.505   1.972   0.177  3.2253  1.8549  3.6781
  400SOL    HW2 1599   0.517   1.849   0.248 -1.1512 -0.5278  1.6696
  400SOL     MW 1600   0.523   1.889   0.172  0.1427  0.3204  0.3670
  401SOL     OW 1601   0.841   2.046   0.127 -0.7639 -0.2726 -0.4195
  401SOL    HW1 1602   0.861   1.964   0.090 -1.3005  1.3538 -0.1412
  401SOL    HW2 1603   0.802   2.018   0.210 -3.7777 -3.6623  1.1589
  401SOL     MW 1604   0.839   2.031   0.133 -1.2323 -0.5052 -0.1745
  402SOL     OW 1605   0.638   2.987   1.724 -0.5926  0.5360  0.3377
  402SOL    HW1 1606   0.703   2.966   1.795 -0.8509  4.6038  4.1920
  402SOL    HW2 1607   0.679   3.058   1.665  0.7400  0.1414 -0.2723
  402SOL     MW 1608   0.652   2.993   1.725 -0.4509  1.0206  0.7658
  403SOL     OW 1609   0.087   0.419   0.385 -0.1803  0.3885 -0.3695
  403SOL    HW1 1610   0.150   0.470   0.432 -0.9167 -2.6059 -0.1362
  403SOL    HW2 1611   0.137   0.399   0.302 -0.1328 -0.0889 -0.7555
  403SOL     MW 1612   0.102   0.423   0.380 -0.2712 -0.0696 -0.3897
  404SOL     OW 1613   0.860   2.844   0.742 -0.1242  0.1560 -0.3592
  404SOL    HW1 1614   0.910   2.785   0.688 -0.3061 -1.2635 -1.0232
  404SOL    HW2 1615   0.869   2.933   0.702  1.3827  0.4324  0.4849
  404SOL     MW 1616   0.868   2.848   0.730  0.0507  0.0052 -0.3354
  405SOL     OW 1617   0.491   2.382   1.496 -0.2549  0.3535  0.0704
  405SOL    HW1 1618   0.487   2.469   1.454  0.7850 -0.1536 -1.5853
  405SOL    HW2 1619   0.411   2.341   1.456  1.8444  0.8822  1.6452
  405SOL     MW 1620   0.480   2.388   1.485  0.1593  0.3564  0.0597
  406SOL     OW 1621   0.360   2.418   1.092  0.4188 -0.1808 -0.8373
  406SOL    HW1 1622   0.264   2.420   1.075  0.4390  1.0068 -0.0105
  406SOL    HW2 1623   0.379   2.329   1.117  0.1829  1.5100 -1.2382
  406SOL     MW 1624   0.350   2.406   1.093  0.3904  0.1990 -0.7811
  407SOL     OW 1625   3.077   2.706   1.164 -0.5913  0.0083 -0.3761
  407SOL    HW1 1626   3.143   2.714   1.238 -2.1317  0.8327  2.5210
  407SOL    HW2 1627   3.119   2.719   1.073 -0.1108  0.0836 -1.4099
  407SOL     MW 1628   3.091   2.709   1.162 -0.7312  0.1270 -0.1302
  408SOL     OW 1629   2.114   2.056   0.795  0.1958 -0.0934 -0.1658
  408SOL    HW1 1630   2.052   2.118   0.834  2.3929  1.7362  1.4067
  408SOL    HW2 1631   2.092   2.054   0.702  1.1548  1.9329  2.0309
  408SOL     MW 1632   2.103   2.064   0.787  0.6122  0.4153  0.3315
  409SOL     OW 1633   1.401   0.100   0.919  0.5053 -0.1076  0.1338
  409SOL    HW1 1634   1.462   0.164   0.879  1.4353 -0.9443 -0.8705
  409SOL    HW2 1635   1.453   0.054   0.984 -1.0061  0.2803  0.0319
  409SOL     MW 1636   1.416   0.103   0.922  0.4286 -0.1668 -0.0122
  410SOL     OW 1637   1.148   2.469   1.040 -0.5315  0.0174 -0.1974
  410SOL    HW1 1638   1.072   2.456   0.990  0.1453  2.8070 -1.2405
  410SOL    HW2 1639   1.207   2.409   0.992 -2.2908 -2.0146 -2.6403
  410SOL     MW 1640   1.146   2.459   1.027 -0.6743  0.1174 -0.6573
  411SOL     OW 1641   1.952   0.017   2.843  0.4991  0.0757  0.2992
  411SOL    HW1 1642   1.883  -0.039   2.797 -0.9134  1.5087 -1.0008
  411SOL    HW2 1643   1.903   0.073   2.905  0.7090  0.3109 -0.3214
  411SOL     MW 1644   1.936   0.017   2.845  0.3404  0.2958  0.0458
  412SOL     OW 1645   0.969   2.258   0.629  0.2184  0.2332  0.6966
  412SOL    HW1 1646   1.037   2.320   0.653 -1.8751  1.0298 -1.0809
  412SOL    HW2 1647   0.905   2.317   0.572  0.5345  2.2451 -0.3925
  412SOL     MW 1648   0.969   2.274   0.624 -0.0161  0.6037  0.3184
  413SOL     OW 1649   0.518   2.781   3.058 -0.4193  0.4098 -0.3090
  413SOL    HW1 1650   0.562   2.699   3.102 -1.0758  0.2657  1.4295
  413SOL    HW2 1651   0.571   2.824   2.995 -0.2665 -1.0317  2.2407
  413SOL     MW 1652   0.531   2.776   3.056 -0.4857  0.2006  0.2568
  414SOL     OW 1653   1.927   2.950   1.080 -0.4294 -0.4789 -0.0335
  414SOL    HW1 1654   1.880   2.933   0.997 -0.6018  0.1864  3.0099
  414SOL    HW2 1655   1.996   2.881   1.087  0.1881 -3.7109  1.0539
  414SOL     MW 1656   1.930   2.939   1.070 -0.3707 -0.8176  0.5115
  415SOL     OW 1657   1.710   2.572   1.147 -0.0741  1.2982 -0.3612
  415SOL    HW1 1658   1.678   2.498   1.200  0.8597 -3.1495 -1.1014
  415SOL    HW2 1659   1.760   2.626   1.208  0.7375  2.9332 -0.0352
  415SOL     MW 1660   1.713   2.570   1.162  0.1562  0.9271 -0.4159
  416SOL     OW 1661   0.547   1.947   1.362 -0.6774 -0.4392  0.2341
  416SOL    HW1 1662   0.531   2.009   1.291  1.8192  2.8305  1.0610
  416SOL    HW2 1663   0.497   1.865   1.347 -1.0137  2.0018  0.3723
  416SOL     MW 1664   0.538   1.944   1.351 -0.3924  0.3143  0.3614
  417SOL     OW 1665   0.996   3.034   2.046  0.1131  0.6326 -0.0657
  417SOL    HW1 1666   0.930   3.025   2.120  3.8618  2.7277 -3.4638
  417SOL    HW2 1667   0.960   2.978   1.970  0.6273 -1.1340  1.0943
  417SOL     MW 1668   0.982   3.026   2.046  0.6755  0.6760 -0.3610
  418SOL     OW 1669   0.664   2.916   0.145  0.4175 -0.7941 -0.0064
  418SOL    HW1 1670   0.743   2.945   0.097  0.5742  0.7628  1.6982
  418SOL    HW2 1671   0.599   2.877   0.081 -0.1908 -1.9479  2.2633
  418SOL     MW 1672   0.665   2.915   0.130  0.3580 -0.7409  0.5180
  419SOL     OW 1673   0.451   2.637   1.402  0.1733 -0.0321 -0.3349
  419SOL    HW1 1674   0.500   2.703   1.450 -0.6024  0.9094  2.1792
  419SOL    HW2 1675   0.492   2.619   1.323 -0.2799 -1.9174 -0.1172
  419SOL     MW 1676   0.463   2.644   1.398  0.0111 -0.1566  0.0255
  420SOL     OW 1677   0.879   2.199   0.996 -0.0512 -0.1054  0.0982
  420SOL    HW1 1678   0.824   2.239   1.064 -0.6780  1.7851 -0.0161
  420SOL    HW2 1679   0.899   2.275   0.934 -2.1988  2.2570 -1.0530
  420SOL     MW 1680   0.874   2.214   0.997 -0.4172  0.4558 -0.0688
  421SOL     OW 1681   2.946   0.054   0.008 -0.0321 -0.5007 -0.0099
  421SOL    HW1 1682   2.904   0.009  -0.066 -1.0115  0.4092 -0.6743
  421SOL    HW2 1683   2.960  -0.020   0.061 -0.3401  0.5069 -0.3887
  421SOL     MW 1684   2.942   0.038   0.006 -0.2019 -0.2477 -0.1475
  422SOL     OW 1685   0.901   2.491   0.893  0.2679  0.5868  0.1660
  422SOL    HW1 1686   0.882   2.557   0.957  0.2101  0.4984 -0.1067
  422SOL    HW2 1687   0.886   2.524   0.808 -1.5738 -0.5629 -2.4263
  422SOL     MW 1688   0.896   2.504   0.890  0.0173  0.4235 -0.2120
  423SOL     OW 1689   1.529   0.133   0.498 -0.0357  0.0562  0.5555
  423SOL    HW1 1690   1.497   0.113   0.409  1.2197 -2.4447 -0.9607
  423SOL    HW2 1691   1.528   0.233   0.506 -0.0012  3.5342 -1.2137
  423SOL     MW 1692   1.525   0.144   0.487  0.1345  0.1851  0.1220
  424SOL     OW 1693   0.674   2.262   1.173  0.4122 -0.1002 -0.6172
  424SOL    HW1 1694   0.588   2.218   1.165  2.0239  2.2701  0.0816
  424SOL    HW2 1695   0.697   2.259   1.265  1.4453  2.6854  1.3687
  424SOL     MW 1696   0.666   2.256   1.184  0.7611  0.5801 -0.2630
  425SOL     OW 1697   1.726   2.849   1.969 -0.1146 -0.4560  0.1050
  425SOL    HW1 1698   1.727   2.868   1.874  0.5398  1.0454  0.1561
  425SOL    HW2 1699   1.768   2.769   1.996  1.0468  0.0372 -1.1740
  425SOL     MW 1700   1.732   2.841   1.960  0.1250 -0.1928 -0.0570
  426SOL     OW 1701   0.836   1.696   1.941  0.5929  0.2457  0.1572
  426SOL    HW1 1702   0.796   1.735   1.859  0.3691  0.2629 -0.0273
  426SOL    HW2 1703   0.822   1.757   2.018 -1.3206  4.5445  2.3771
  426SOL     MW 1704   0.829   1.709   1.941  0.3109  0.8151  0.4258
  427SOL     OW 1705   0.356   1.592   1.886  0.3891  0.5336 -0.1266
  427SOL    HW1 1706   0.438   1.550   1.919 -0.1666  3.4923  1.3668
  427SOL    HW2 1707   0.286   1.558   1.945 -0.1051  1.2133 -1.0222
  427SOL     MW 1708   0.358   1.582   1.899  0.2506  1.0136 -0.0477
  428SOL     OW 1709   0.579   2.568   1.180  0.0697 -0.2338  0.4928
  428SOL    HW1 1710   0.639   2.503   1.214 -3.2281 -1.6774  1.1998
  428SOL    HW2 1711   0.500   2.513   1.163  1.8092 -1.1629  2.2570
  428SOL     MW 1712   0.576   2.552   1.182 -0.1359 -0.5468  0.8189
  429SOL     OW 1713   1.325   2.688   1.081  0.2119  0.6525  0.4596
  429SOL    HW1 1714   1.250   2.634   1.089  1.3231  0.5177  1.0501
  429SOL    HW2 1715   1.304   2.768   1.030 -0.4329  2.0486  2.5074
  429SOL     MW 1716   1.312   2.691   1.075  0.2734  0.8189  0.8077
  430SOL     OW 1717   1.179   2.716   0.706 -0.2003 -0.3245  0.2471
  430SOL    HW1 1718   1.183   2.621   0.700  0.2110 -0.2640  0.1666
  430SOL    HW2 1719   1.135   2.749   0.624 -1.1738 -1.4174  0.3346
  430SOL     MW 1720   1.174   2.708   0.694 -0.2745 -0.4607  0.2480
  431SOL     OW 1721   0.288   1.888   1.100 -0.1150  0.6968 -0.3838
  431SOL    HW1 1722   0.370   1.836   1.084 -1.3628  0.6189 -0.4412
  431SOL    HW2 1723   0.251   1.914   1.010  0.4083  0.7036 -1.1476
  431SOL     MW 1724   0.294   1.884   1.086 -0.2106  0.6874 -0.4922
  432SOL     OW 1725   0.061   0.011   1.089  0.1323 -0.6199  0.4610
  432SOL    HW1 1726   0.038   0.053   1.173 -0.3650  1.1483 -0.7147
  432SOL    HW2 1727  -0.010  -0.055   1.080  0.7979 -3.6851  0.1243
  432SOL     MW 1728   0.048   0.008   1.099  0.1545 -0.7910  0.2615
  433SOL     OW 1729   0.631   2.827   1.477  0.4334  0.0445  0.3746
  433SOL    HW1 1730   0.635   2.874   1.562  0.9780 -0.0204  3.3421
  433SOL    HW2 1731   0.725   2.828   1.450 -0.7571  0.7974 -1.9988
  433SOL     MW 1732   0.644   2.834   1.485  0.3482  0.1353  0.4530
  434SOL     OW 1733   1.578   2.820   1.483 -0.1075 -0.2033  0.7607
  434SOL    HW1 1734   1.488   2.860   1.501  0.4491  0.1082 -0.4028
  434SOL    HW2 1735   1.581   2.789   1.393  1.9326  1.3116 -2.6313
  434SOL     MW 1736   1.566   2.821   1.474  0.2351  0.0377  0.1597
  435SOL     OW 1737   2.801   1.820   0.214 -0.5888 -0.2541  0.3952
  435SOL    HW1 1738   2.855   1.886   0.172  1.0383  3.0904  0.4003
  435SOL    HW2 1739   2.773   1.770   0.140  0.5220  0.5087  0.8936
  435SOL     MW 1740   2.804   1.822   0.198 -0.2275  0.2878  0.4616
  436SOL     OW 1741   1.303   2.815   0.331  0.1023  0.1294  0.4496
  436SOL    HW1 1742   1.385   2.807   0.373  0.3384 -0.1024 -0.1015
  436SOL    HW2 1743   1.260   2.880   0.385  2.2282 -0.9375 -1.4734
  436SOL     MW 1744   1.308   2.823   0.344  0.4139 -0.0419  0.1232
  437SOL     OW 1745   0.887   2.874   1.408 -0.1112 -0.0488  0.4102
  437SOL    HW1 1746   0.866   2.965   1.382 -0.8963 -0.7538 -2.3063
  437SOL    HW2 1747   0.897   2.832   1.322  0.0320 -1.2475  1.3005
  437SOL     MW 1748   0.886   2.881   1.393 -0.1959 -0.3000  0.1692
  438SOL     OW 1749   0.862   2.640   1.922 -0.0047  0.7208 -0.7328
  438SOL    HW1 1750   0.847   2.600   2.006 -0.7668  3.4749 -3.7405
  438SOL    HW2 1751   0.804   2.581   1.875  0.8434  1.5950 -0.8044
  438SOL     MW 1752   0.852   2.627   1.927  0.0067  1.1995 -1.1391
  439SOL     OW 1753   1.093   2.147   0.397  1.0126  0.1896  0.3216
  439SOL    HW1 1754   1.039   2.179   0.470 -3.0197  0.8576  0.8540
  439SOL    HW2 1755   1.122   2.220   0.344  0.4491 -2.0343  0.7482
  439SOL     MW 1756   1.090   2.160   0.399  0.4062 -0.0157  0.4481
  440SOL     OW 1757   1.691   2.996   3.080  0.1598  0.4370  0.2956
  440SOL    HW1 1758   1.646   2.976   3.156  0.1009  0.3738 -0.3915
  440SOL    HW2 1759   1.770   2.936   3.071  2.2443 -1.4741  1.0720
  440SOL     MW 1760   1.695   2.986   3.089  0.4271  0.1765  0.3074
  441SOL     OW 1761   0.359   2.649   0.491 -0.2264 -0.0695 -0.1999
  441SOL    HW1 1762   0.321   2.627   0.409 -4.8688  1.7723  1.4661
  441SOL    HW2 1763   0.362   2.750   0.494  1.6874  1.7171  1.2095
  441SOL     MW 1764   0.355   2.660   0.481 -0.5864  0.4092  0.2059
  442SOL     OW 1765   3.069   2.358   0.639 -0.3199  0.2122 -0.0773
  442SOL    HW1 1766   3.092   2.457   0.611 -1.3954 -0.5563 -1.4488
  442SOL    HW2 1767   2.978   2.362   0.672  2.0085 -0.3714 -0.0784
  442SOL     MW 1768   3.060   2.371   0.640 -0.1546  0.0338 -0.2584
  443SOL     OW 1769   1.418   1.794   1.938  0.0050  0.0855 -0.1910
  443SOL    HW1 1770   1.376   1.834   1.864 -0.1139 -0.5435 -1.9656
  443SOL    HW2 1771   1.367   1.712   1.937  0.6819  2.5913 -0.7697
  443SOL     MW 1772   1.406   1.789   1.928  0.0786  0.3331 -0.5015
  444SOL     OW 1773   0.897   2.567   1.587 -0.4586 -0.1208  0.2747
  444SOL    HW1 1774   0.969   2.528   1.635 -0.2955  1.1480  0.6896
  444SOL    HW2 1775   0.820   2.563   1.640  1.2133  0.2365  0.2869
  444SOL     MW 1776   0.896   2.561   1.600 -0.2165  0.0937  0.3311
  445SOL     OW 1777   0.906   0.011   1.276 -0.3712  0.0928  0.5870
  445SOL    HW1 1778   0.902   0.096   1.235 -0.6305 -1.1152 -1.6146
  445SOL    HW2 1779   0.997  -0.006   1.255  2.3893 -0.9055  1.2512
  445SOL     MW 1780   0.918   0.020   1.268 -0.0412 -0.1983  0.3842
  446SOL     OW 1781   2.683   2.849   1.081  0.3697 -0.0748  0.0012
  446SOL    HW1 1782   2.665   2.893   0.995  2.7997  0.4044  1.1934
  446SOL    HW2 1783   2.715   2.761   1.055  0.2411  0.3096 -0.3662
  446SOL     MW 1784   2.685   2.844   1.066  0.6734  0.0391  0.1100
  447SOL     OW 1785   0.004   2.051   1.689  0.0196 -0.0152  0.1910
  447SOL    HW1 1786   0.058   1.998   1.746 -0.4098 -0.6541  0.9515
  447SOL    HW2 1787  -0.050   1.992   1.630  1.6385 -1.7689 -0.4975
  447SOL     MW 1788   0.004   2.036   1.689  0.1765 -0.3309  0.2005
  448SOL     OW 1789   1.738   2.385   1.696 -0.3702  0.0974 -0.6502
  448SOL    HW1 1790   1.674   2.323   1.678  0.1866  1.5178  1.6261
  448SOL    HW2 1791   1.704   2.473   1.675 -1.7866  2.0776 -1.8999
  448SOL     MW 1792   1.725   2.388   1.691 -0.4836  0.5461 -0.5148
  449SOL     OW 1793   0.758   2.845   0.402  0.1962 -0.2707 -0.2644
  449SOL    HW1 1794   0.707   2.845   0.324  0.7228  2.7640  0.3533
  449SOL    HW2 1795   0.690   2.870   0.464 -1.7643 -0.8522 -2.0519
  449SOL     MW 1796   0.743   2.848   0.400  0.0070  0.0530 -0.4188
  450SOL     OW 1797   1.200   2.428   0.667 -0.1910 -0.2579 -0.1497
  450SOL    HW1 1798   1.212   2.389   0.755  2.3704  0.1507 -0.1824
  450SOL    HW2 1799   1.282   2.438   0.623 -0.0018  0.7612 -0.0967
  450SOL     MW 1800   1.213   2.424   0.673  0.1719 -0.0696 -0.1470
  451SOL     OW 1801   0.547   2.000   1.645 -0.5782 -0.1133 -0.5626
  451SOL    HW1 1802   0.606   2.078   1.659 -1.9648 -0.7755  1.9736
  451SOL    HW2 1803   0.532   1.989   1.550 -1.3339  0.4691 -1.4193
  451SOL     MW 1804   0.553   2.009   1.635 -0.8608 -0.1238 -0.3410
  452SOL     OW 1805   0.263   2.725   0.019  0.3870 -0.0533 -0.1698
  452SOL    HW1 1806   0.355   2.739  -0.004  0.4185  2.4992 -0.6120
  452SOL    HW2 1807   0.202   2.771  -0.050 -2.0444  1.5565  1.2034
  452SOL     MW 1808   0.267   2.733   0.007  0.0703  0.4959 -0.0470
  453SOL     OW 1809   0.358   2.953   1.687 -0.1255 -0.9063 -0.0457
  453SOL    HW1 1810   0.452   2.961   1.698 -1.0088  0.0398 -1.6747
  453SOL    HW2 1811   0.336   2.952   1.589  1.7969  2.8727 -2.0817
  453SOL     MW 1812   0.367   2.954   1.675  0.0116 -0.2829 -0.5293
  454SOL     OW 1813   0.963   2.734   1.173  0.6092  0.5836 -0.2261
  454SOL    HW1 1814   0.912   2.652   1.193  0.2780  0.5534 -2.0756
  454SOL    HW2 1815   0.909   2.788   1.112  0.4486  2.7364 -0.2820
  454SOL     MW 1816   0.949   2.730   1.168  0.5443  0.8636 -0.4775
  455SOL     OW 1817   1.552   2.914   0.209  0.6903  0.1721  0.1424
  455SOL    HW1 1818   1.598   2.899   0.291  0.5259 -1.2810  2.5348
  455SOL    HW2 1819   1.507   2.830   0.195 -0.6301 -0.4898  0.4816
  455SOL     MW 1820   1.552   2.901   0.218  0.4944 -0.1069  0.5028
  456SOL     OW 1821   2.879   0.317   1.361 -0.5067 -0.2161  0.3487
  456SOL    HW1 1822   2.809   0.262   1.309 -0.1172  0.6858 -2.1080
  456SOL    HW2 1823   2.954   0.343   1.312  0.1518  0.5710  2.8411
  456SOL     MW 1824   2.880   0.313   1.348 -0.3684  0.0068  0.3534
  457SOL     OW 1825   0.973   1.531   2.934  0.2461 -0.4364 -0.5804
  457SOL    HW1 1826   0.892   1.494   2.963  2.6461 -1.2875  1.9153
  457SOL    HW2 1827   1.030   1.467   2.985 -1.2559 -0.4051  3.9214
  457SOL     MW 1828   0.970   1.518   2.945  0.3646 -0.5446  0.3428
  458SOL     OW 1829   1.464   1.387   0.557 -0.3935 -0.3527 -0.3837
  458SOL    HW1 1830   1.376   1.415   0.585 -0.7981  0.7793  0.8355
  458SOL    HW2 1831   1.454   1.333   0.481 -0.4190  0.8989 -0.4762
  458SOL     MW 1832   1.451   1.383   0.551 -0.4503 -0.0382 -0.2351
  459SOL     OW 1833   1.484   0.097   0.218 -0.0386 -0.6080 -0.1223
  459SOL    HW1 1834   1.481   0.001   0.196 -0.3258 -0.6874  1.3046
  459SOL    HW2 1835   1.422   0.135   0.158 -1.1284  1.2780  1.2364
  459SOL     MW 1836   1.476   0.089   0.207 -0.2203 -0.3697  0.2453
  460SOL     OW 1837   1.793   2.155   0.645  0.5526  0.0945 -0.6642
  460SOL    HW1 1838   1.699   2.149   0.680  0.4872 -1.8199  0.4721
  460SOL    HW2 1839   1.820   2.068   0.613 -1.2543  0.4491 -1.2771
  460SOL     MW 1840   1.784   2.143   0.646  0.3056 -0.1113 -0.5952
  461SOL     OW 1841   0.458   2.435   0.616 -0.8885 -0.2176 -0.2628
  461SOL    HW1 1842   0.430   2.504   0.555  2.1052  0.7705 -0.1864
  461SOL    HW2 1843   0.417   2.460   0.702  0.1151  2.2827  0.2656
  461SOL     MW 1844   0.449   2.447   0.619 -0.3611  0.2427 -0.1830
  462SOL     OW 1845   0.378   0.255   1.270  0.2626  0.3120  0.5708
  462SOL    HW1 1846   0.409   0.199   1.200  0.5600  3.1427  1.2633
  462SOL    HW2 1847   0.439   0.328   1.291  1.4338  3.9503 -0.2268
  462SOL     MW 1848   0.390   0.257   1.264  0.4564  1.1655  0.5569
  463SOL     OW 1849   0.881   0.009   0.690 -0.1922  0.3901  0.1870
  463SOL    HW1 1850   0.902  -0.011   0.595  1.5023 -1.0371 -0.5169
  463SOL    HW2 1851   0.788   0.041   0.693  1.1715  1.8246  1.1138
  463SOL     MW 1852   0.872   0.010   0.678  0.2113  0.3910  0.2164
  464SOL     OW 1853   0.831   3.044   2.263  0.1486  0.4368  0.1353
  464SOL    HW1 1854   0.777   2.965   2.250  2.1830 -0.6650 -0.3990
  464SOL    HW2 1855   0.832   3.064   2.353 -0.0409  0.0270  1.0780
  464SOL     MW 1856   0.824   3.036   2.273  0.3920  0.2374  0.1892
  465SOL     OW 1857   0.659   0.304   0.490  0.1565 -0.4342  0.2985
  465SOL    HW1 1858   0.633   0.241   0.562 -1.5148 -3.9858 -3.4606
  465SOL    HW2 1859   0.710   0.258   0.422  0.4049  1.2131  1.4862
  465SOL     MW 1860   0.663   0.290   0.491 -0.0312 -0.6855 -0.0408
  466SOL     OW 1861   1.084   2.013   0.710 -0.3151 -0.4705 -0.6015
  466SOL    HW1 1862   1.093   1.936   0.658  2.7879 -0.3685 -0.2787
  466SOL    HW2 1863   1.055   2.089   0.657  1.3502 -0.8819  0.5307
  466SOL     MW 1864   1.082   2.013   0.696  0.3140 -0.5113 -0.4095
  467SOL     OW 1865   1.281   2.269   0.868  0.0649  0.6046  0.2553
  467SOL    HW1 1866   1.374   2.280   0.872 -1.9452 -0.5056 -2.2036
  467SOL    HW2 1867   1.267   2.174   0.859  1.6633  0.4992  0.4961
  467SOL     MW 1868   1.292   2.258   0.867  0.0106  0.4442 -0.0373
  468SOL     OW 1869   0.364   2.598   1.967  0.1718  0.0557 -0.3307
  468SOL    HW1 1870   0.380   2.543   1.890 -1.7982 -0.7087 -2.4317
  468SOL    HW2 1871   0.354   2.683   1.922 -2.1493  1.8864  0.9286
  468SOL     MW 1872   0.365   2.602   1.951 -0.3943  0.1964 -0.4417
  469SOL     OW 1873   0.364   2.147   1.792  0.0143  0.0003  0.4159
  469SOL    HW1 1874   0.303   2.093   1.848 -0.7075 -1.1356  2.8196
  469SOL    HW2 1875   0.420   2.086   1.739 -1.7516 -1.2032 -0.1782
  469SOL     MW 1876   0.363   2.132   1.792 -0.3139 -0.3084  0.6547
  470SOL     OW 1877   3.027   2.534   0.097  0.0607 -0.2493 -0.1243
  470SOL    HW1 1878   2.976   2.513   0.180  0.0722 -2.1233  1.1831
  470SOL    HW2 1879   2.972   2.572   0.027 -0.5154  0.5857 -0.3912
  470SOL     MW 1880   3.013   2.536   0.099 -0.0138 -0.3864  0.0130
  471SOL     OW 1881   1.204   2.738   1.412 -0.6942  0.2060 -0.1570
  471SOL    HW1 1882   1.143   2.758   1.486 -0.9626  0.0029  0.6577
  471SOL    HW2 1883   1.151   2.687   1.356 -0.6916  0.6360 -0.4860
  471SOL     MW 1884   1.189   2.734   1.414 -0.7293  0.2359 -0.0929
  472SOL     OW 1885   2.940   2.075   0.394  0.3697  0.1786 -0.2455
  472SOL    HW1 1886   2.935   2.067   0.297  1.3879  2.8156  1.0410
  472SOL    HW2 1887   2.910   1.989   0.427 -0.5889 -0.2058  1.4332
  472SOL     MW 1888   2.936   2.063   0.386  0.3776  0.4758  0.1457
  473SOL     OW 1889   0.836   2.519   1.314 -0.1376 -0.2879 -0.4366
  473SOL    HW1 1890   0.888   2.445   1.284 -1.2846  3.9350 -2.3169
  473SOL    HW2 1891   0.868   2.533   1.402 -0.7356 -2.2290  2.1847
  473SOL     MW 1892   0.847   2.511   1.322 -0.3678  0.0132 -0.3389
  474SOL     OW 1893   0.762   2.215   1.728 -0.1018 -0.9369  0.3826
  474SOL    HW1 1894   0.844   2.240   1.773  2.6925  0.1385 -0.7199
  474SOL    HW2 1895   0.786   2.192   1.634 -0.7326 -0.1727  2.7266
  474SOL     MW 1896   0.776   2.216   1.722  0.1837 -0.6942  0.5464
  475SOL     OW 1897   1.617   0.029   1.441 -0.2641 -0.4812 -0.2322
  475SOL    HW1 1898   1.537   0.067   1.406  1.7392  0.7800  1.5348
  475SOL    HW2 1899   1.606  -0.068   1.426  1.2015 -0.0852 -0.7062
  475SOL     MW 1900   1.605   0.021   1.434  0.1936 -0.2625 -0.0616
  476SOL     OW 1901   1.486   2.601   0.882 -0.0645 -0.4732  0.1013
  476SOL    HW1 1902   1.422   2.618   0.949  1.2551  1.5143 -1.5684
  476SOL    HW2 1903   1.518   2.687   0.855 -0.3157  2.4621  1.3667
  476SOL     MW 1904   1.482   2.615   0.888  0.0764  0.1763  0.0479
  477SOL     OW 1905   0.777   2.567   0.641 -0.2701 -0.0520 -0.3689
  477SOL    HW1 1906   0.849   2.615   0.593  0.4363  0.4856  2.7739
  477SOL    HW2 1907   0.747   2.495   0.589 -0.6028  0.1437  0.8551
  477SOL     MW 1908   0.782   2.564   0.627 -0.2208  0.0448  0.2073
  478SOL     OW 1909   0.122   2.693   0.900 -1.0168  0.7631 -0.1618
  478SOL    HW1 1910   0.170   2.769   0.920 -0.8890 -1.7291  2.7784
  478SOL    HW2 1911   0.201   2.640   0.872  4.7328 -0.5433  1.7954
  478SOL     MW 1912   0.139   2.696   0.899 -0.2413  0.2619  0.4844
  479SOL     OW 1913   1.421   1.921   1.272 -0.2310 -0.1559  0.3395
  479SOL    HW1 1914   1.382   1.962   1.349  0.5022 -1.4756 -1.3722
  479SOL    HW2 1915   1.499   1.882   1.301 -0.6457  0.0049 -0.7730
  479SOL     MW 1916   1.426   1.922   1.286 -0.1890 -0.3088 -0.0331
  480SOL     OW 1917   1.875   2.378   1.384  0.5346 -0.6913 -0.1095
  480SOL    HW1 1918   1.891   2.284   1.398  1.2515 -1.8691  1.6219
  480SOL    HW2 1919   1.921   2.396   1.305  2.0492 -0.8657 -1.2388
  480SOL     MW 1920   1.883   2.368   1.375  0.8290 -0.8697 -0.0301
  481SOL     OW 1921   1.206   0.026   1.149  0.3554 -0.5225  0.0754
  481SOL    HW1 1922   1.288   0.028   1.098 -0.2942 -0.4205 -1.3289
  481SOL    HW2 1923   1.190   0.123   1.139  1.3865  0.5660 -3.2859
  481SOL     MW 1924   1.214   0.039   1.141  0.4057 -0.3655 -0.5534
  482SOL     OW 1925   0.934   3.067   0.420  0.3025 -0.4540 -0.2426
  482SOL    HW1 1926   0.881   2.998   0.380 -0.9666 -0.8497 -1.2727
  482SOL    HW2 1927   0.912   3.149   0.376  0.9985 -0.3820 -1.3006
  482SOL     MW 1928   0.924   3.069   0.409  0.2269 -0.4967 -0.5181
  483SOL     OW 1929   0.345   2.934   0.502  0.1035 -0.0806 -0.4848
  483SOL    HW1 1930   0.261   2.934   0.460  2.2072  1.7697  1.2010
  483SOL    HW2 1931   0.326   2.983   0.582  0.2082  0.7585  0.8008
  483SOL     MW 1932   0.332   2.941   0.507  0.3949  0.2742 -0.0927
  484SOL     OW 1933   1.660   1.847   1.366 -0.1757 -0.4259  0.4606
  484SOL    HW1 1934   1.709   1.911   1.315 -1.2220 -0.7032 -3.3733
  484SOL    HW2 1935   1.687   1.863   1.454 -0.4945 -0.1476 -0.4352
  484SOL     MW 1936   1.670   1.857   1.371 -0.3558 -0.4258 -0.1634
  485SOL     OW 1937   0.532   2.388   0.279  0.1113  0.5864  0.2588
  485SOL    HW1 1938   0.598   2.377   0.354 -1.3020 -2.4284 -3.4025
  485SOL    HW2 1939   0.463   2.448   0.305  2.2944  0.6078 -2.1614
  485SOL     MW 1940   0.532   2.394   0.292  0.2128  0.1914 -0.5436
  486SOL     OW 1941   0.132   2.435   1.393  0.5286 -0.2883 -0.3250
  486SOL    HW1 1942   0.151   2.523   1.358  0.5594 -2.2374 -0.9295
  486SOL    HW2 1943   0.118   2.440   1.490 -0.7426  1.3105  1.5996
  486SOL     MW 1944   0.133   2.447   1.401  0.3649 -0.3345 -0.1508
  487SOL     OW 1945   1.273   1.587   1.088  0.3352 -0.3304 -0.5017
  487SOL    HW1 1946   1.260   1.683   1.094 -2.8641  1.8004 -0.1687
  487SOL    HW2 1947   1.358   1.579   1.036  0.1886  1.5540  1.7714
  487SOL     MW 1948   1.283   1.598   1.082 -0.1063  0.1994 -0.1579
  488SOL     OW 1949   1.638   1.853   0.550  0.5145  0.1390 -0.2241
  488SOL    HW1 1950   1.726   1.887   0.537  0.5665  0.3902 -2.7615
  488SOL    HW2 1951   1.575   1.925   0.537  0.1920  0.6412  0.2664
  488SOL     MW 1952   1.642   1.867   0.546  0.4788  0.2384 -0.4941
  489SOL     OW 1953   0.720   0.781   0.568 -0.5672  0.3020  0.6882
  489SOL    HW1 1954   0.766   0.700   0.537  0.9559  2.3879  1.5630
  489SOL    HW2 1955   0.707   0.780   0.665  0.5120 -2.3262  0.3918
  489SOL     MW 1956   0.724   0.770   0.577 -0.2239  0.2304  0.7645
  490SOL     OW 1957   1.395   2.100   0.469 -0.3433 -0.1132 -0.5211
  490SOL    HW1 1958   1.436   2.168   0.415 -1.3473 -1.4155 -0.2350
  490SOL    HW2 1959   1.301   2.120   0.456 -2.7398 -1.5375 -1.4330
  490SOL     MW 1960   1.388   2.112   0.460 -0.7920 -0.4729 -0.6037
  491SOL     OW 1961   1.193   3.013   0.469 -0.3818 -0.3685 -0.2205
  491SOL    HW1 1962   1.231   3.048   0.553  2.9124 -0.8566 -1.5057
  491SOL    HW2 1963   1.114   3.064   0.439 -0.0943 -0.4353 -0.1560
  491SOL     MW 1964   1.188   3.024   0.476  0.0908 -0.4418 -0.3815
  492SOL     OW 1965   1.532   2.161   0.703 -0.1069 -0.8096  0.4070
  492SOL    HW1 1966   1.468   2.146   0.633 -0.0231  2.1177 -1.7923
  492SOL    HW2 1967   1.494   2.099   0.767  1.0192 -0.5715  0.3687
  492SOL     MW 1968   1.519   2.151   0.702  0.0527 -0.3920  0.1118
  493SOL     OW 1969   0.113   2.901   0.375  0.0484  0.4058 -0.1351
  493SOL    HW1 1970   0.090   2.981   0.421 -1.6429 -0.5405 -1.5246
  493SOL    HW2 1971   0.155   2.924   0.293  0.1246 -0.1877  1.9577
  493SOL     MW 1972   0.115   2.915   0.370 -0.1647  0.2026 -0.0423
  494SOL     OW 1973   0.411   2.407   1.746  0.2343  0.2948 -0.7524
  494SOL    HW1 1974   0.378   2.312   1.772 -2.3771 -0.0057  0.0038
  494SOL    HW2 1975   0.438   2.393   1.652  2.9737 -1.1033 -1.8594
  494SOL     MW 1976   0.410   2.392   1.737  0.2512  0.0707 -0.7987
  495SOL     OW 1977   2.877   1.684   2.716  0.4682  0.1351 -0.3690
  495SOL    HW1 1978   2.878   1.773   2.766 -0.4514 -0.3242  1.4492
  495SOL    HW2 1979   2.890   1.625   2.795 -0.5924 -0.3380  0.7251
  495SOL     MW 1980   2.879   1.688   2.733  0.2069  0.0121  0.0152
  496SOL     OW 1981   2.875   2.297   2.634  0.7464 -0.4626  0.0064
  496SOL    HW1 1982   2.888   2.206   2.655 -2.1071 -0.7094  1.4736
  496SOL    HW2 1983   2.955   2.347   2.642 -0.8760  2.0190  1.2301
  496SOL     MW 1984   2.887   2.291   2.638  0.1559 -0.1677  0.3614
  497SOL     OW 1985   1.537   2.275   2.584  0.1740 -0.3000  0.0641
  497SOL    HW1 1986   1.485   2.252   2.506  0.2422 -0.2052 -0.1017
  497SOL    HW2 1987   1.503   2.217   2.649  2.0008 -0.1320 -3.1273
  497SOL     MW 1988   1.526   2.264   2.582  0.4241 -0.2653 -0.3788
  498SOL     OW 1989   1.548   2.694   2.289  0.3049 -0.0382  0.2837
  498SOL    HW1 1990   1.545   2.612   2.242 -2.5053 -0.3484 -3.2884
  498SOL    HW2 1991   1.614   2.680   2.356  1.0291  2.8870  2.9962
  498SOL     MW 1992   1.556   2.681   2.292  0.0297  0.3068  0.1703
  499SOL     OW 1993   0.891   0.167   0.025 -0.2059 -0.3936  0.1672
  499SOL    HW1 1994   0.835   0.180   0.105  0.1200 -1.1738  1.9529
  499SOL    HW2 1995   0.894   0.066   0.021  1.9664  2.3984 -1.6111
  499SOL     MW 1996   0.884   0.155   0.035  0.1237 -0.1282  0.1682
  500SOL     OW 1997   1.018   2.427   2.805  0.1290  0.6368 -0.1813
  500SOL    HW1 1998   1.073   2.417   2.885 -1.8610 -1.7131  1.3979
  500SOL    HW2 1999   0.968   2.508   2.831 -1.1050 -0.1077  1.5163
  500SOL     MW 2000   1.019   2.436   2.819 -0.2964  0.2285  0.2511
  501SOL     OW 2001   1.749   2.268   3.073  0.2710  0.2176 -0.1126
  501SOL    HW1 2002   1.723   2.354   3.111  1.3541 -0.8760  1.5599
  501SOL    HW2 2003   1.834   2.260   3.115 -2.0866 -2.1740  0.7707
  501SOL     MW 2004   1.757   2.278   3.083  0.1029 -0.2423  0.2246
  502SOL     OW 2005   0.098   2.881   2.957 -0.6303  0.5751  0.4534
  502SOL    HW1 2006   0.055   2.798   2.923  1.8535 -1.2525  2.8329
  502SOL    HW2 2007   0.130   2.932   2.885 -1.6512 -0.6494  1.7309
  502SOL     MW 2008   0.097   2.877   2.943 -0.4373  0.1724  0.9359
  503SOL     OW 2009   1.166   2.601   2.035  0.2282  0.1365 -0.4565
  503SOL    HW1 2010   1.247   2.607   1.975  1.7953 -0.8137 -2.7447
  503SOL    HW2 2011   1.090   2.597   1.979  1.9320 -3.2821 -2.2228
  503SOL     MW 2012   1.167   2.601   2.020  0.6597 -0.4399 -0.9915
  504SOL     OW 2013   0.092   2.638   2.063  0.3072 -0.6025  0.0927
  504SOL    HW1 2014   0.177   2.628   2.023  1.4309 -0.8621  1.2908
  504SOL    HW2 2015   0.067   2.551   2.086 -2.2083  1.5306  1.1785
  504SOL     MW 2016   0.100   2.625   2.061  0.1236 -0.3553  0.3940
  505SOL     OW 2017   1.651   2.682   2.744  0.1966 -0.0143 -0.2168
  505SOL    HW1 2018   1.679   2.666   2.654 -0.5170  1.7993  0.1058
  505SOL    HW2 2019   1.594   2.761   2.742  0.1635  0.6920  1.5934
  505SOL     MW 2020   1.647   2.690   2.732  0.0981  0.3182  0.0646
  506SOL     OW 2021   1.629   0.034   2.863 -0.1793 -0.4543  0.2943
  506SOL    HW1 2022   1.643  -0.024   2.942  1.6004  0.9014 -1.3047
  506SOL    HW2 2023   1.655  -0.029   2.789  0.9776 -1.0870 -1.7032
  506SOL     MW 2024   1.634   0.018   2.864  0.2082 -0.3589 -0.1802
  507SOL     OW 2025   0.934   2.680   2.848  0.5301 -0.0626 -0.3111
  507SOL    HW1 2026   0.978   2.728   2.777 -0.3515 -1.8583 -0.2628
  507SOL    HW2 2027   0.844   2.661   2.819  0.3925 -0.5778  2.3773
  507SOL     MW 2028   0.928   2.683   2.835  0.3957 -0.3675  0.0500
  508SOL     OW 2029   1.239   2.105   2.522 -0.4741  0.4097  0.2220
  508SOL    HW1 2030   1.294   2.100   2.603  2.0759 -1.2700 -0.2048
  508SOL    HW2 2031   1.182   2.183   2.542  3.5310 -0.4954 -1.9997
  508SOL     MW 2032   1.239   2.115   2.535  0.3907  0.0687 -0.1274
  509SOL     OW 2033   0.685   2.592   2.803 -0.3635 -0.0167 -0.1189
  509SOL    HW1 2034   0.654   2.534   2.739  0.2007  0.2319  1.8939
  509SOL    HW2 2035   0.641   2.674   2.796  6.1816  4.2234  2.8923
  509SOL     MW 2036   0.675   2.595   2.794  0.5745  0.5755  0.5440
  510SOL     OW 2037   1.588   2.598   1.642  0.1714 -0.3988  0.5752
  510SOL    HW1 2038   1.577   2.689   1.601 -1.2658  0.6553 -3.1570
  510SOL    HW2 2039   1.537   2.600   1.729  1.7817  0.8005 -2.5894
  510SOL     MW 2040   1.580   2.610   1.648  0.1942 -0.1015 -0.3348
  511SOL     OW 2041   0.426   2.607   2.471 -0.0180  0.1337 -0.6404
  511SOL    HW1 2042   0.509   2.568   2.493  3.4694 -0.3352  0.2638
  511SOL    HW2 2043   0.430   2.625   2.376  0.9905 -0.4123  0.9443
  511SOL     MW 2044   0.437   2.604   2.461  0.5752 -0.0002 -0.3120
  512SOL     OW 2045   0.983   2.030   2.851 -0.2993 -0.0385 -0.6180
  512SOL    HW1 2046   0.898   2.063   2.882  0.0785 -0.1215 -3.5112
  512SOL    HW2 2047   0.994   1.952   2.905 -0.7938  1.9380 -0.4304
  512SOL     MW 2048   0.973   2.024   2.863 -0.3147  0.2114 -0.9750
  513SOL     OW 2049   1.628   2.451   2.209 -0.1545 -0.3077 -0.1252
  513SOL    HW1 2050   1.714   2.489   2.182  0.0565  0.7975 -0.3799
  513SOL    HW2 2051   1.667   2.388   2.267 -0.5886 -1.6366  2.0782
  513SOL     MW 2052   1.644   2.448   2.213 -0.1839 -0.3372  0.1319
  514SOL     OW 2053   0.265   2.450   2.637 -0.0602  0.4868 -0.2165
  514SOL    HW1 2054   0.325   2.499   2.587 -0.9820 -0.1959 -0.4162
  514SOL    HW2 2055   0.302   2.407   2.713 -0.1455  1.3360 -2.6537
  514SOL     MW 2056   0.278   2.451   2.641 -0.1930  0.5088 -0.5644
  515SOL     OW 2057   1.084   2.052   1.958  0.5554 -0.5801  0.8096
  515SOL    HW1 2058   1.054   2.133   1.920 -0.0945 -0.2463  0.6360
  515SOL    HW2 2059   1.142   2.072   2.023  0.5032  0.0207 -0.9117
  515SOL     MW 2060   1.087   2.065   1.961  0.4627 -0.4568  0.5596
  516SOL     OW 2061   1.447   2.450   3.012  0.5598 -0.3510  0.9721
  516SOL    HW1 2062   1.476   2.463   2.923  1.8849 -0.2567  0.9002
  516SOL    HW2 2063   1.355   2.445   2.990  0.4796  0.4622 -1.7598
  516SOL     MW 2064   1.439   2.451   2.997  0.7241 -0.2313  0.6022
  517SOL     OW 2065   0.562   2.416   2.274  0.0512  0.0027  0.0632
  517SOL    HW1 2066   0.480   2.460   2.301 -1.5830  0.9790 -2.6127
  517SOL    HW2 2067   0.513   2.379   2.200 -0.5588  0.3282 -2.0774
  517SOL     MW 2068   0.545   2.417   2.268 -0.2449  0.1744 -0.5723
  518SOL     OW 2069   1.864   0.090   0.027  0.0135  0.6333  0.0672
  518SOL    HW1 2070   1.821   0.168   0.062  0.4983  1.2292  0.7883
  518SOL    HW2 2071   1.796   0.021   0.042  0.2329 -0.2362  0.2211
  518SOL     MW 2072   1.849   0.091   0.034  0.1064  0.5972  0.1827
  519SOL     OW 2073   0.678   2.506   1.761 -0.3296 -0.1099  0.6264
  519SOL    HW1 2074   0.689   2.411   1.744  0.7334 -2.1080 -2.3095
  519SOL    HW2 2075   0.585   2.520   1.764 -0.8014  0.5263  2.7930
  519SOL     MW 2076   0.667   2.496   1.759 -0.2516 -0.2896  0.5249
  520SOL     OW 2077   1.186   2.198   2.942  0.0612 -0.3666  0.5691
  520SOL    HW1 2078   1.122   2.129   2.918  1.0080 -1.6772  0.8099
  520SOL    HW2 2079   1.239   2.161   3.014  2.0531 -0.3977 -1.2802
  520SOL     MW 2080   1.185   2.184   2.948  0.4490 -0.5436  0.3569
  521SOL     OW 2081   1.750   2.024   2.203 -0.0117 -0.3628 -0.4251
  521SOL    HW1 2082   1.762   2.036   2.113 -1.5189 -3.2185  2.0614
  521SOL    HW2 2083   1.754   1.928   2.207  0.7092 -1.3908 -1.9065
  521SOL     MW 2084   1.752   2.013   2.192 -0.1155 -0.8752 -0.2925
  522SOL     OW 2085   2.922   2.516   2.273  0.3175  0.0735 -0.3150
  522SOL    HW1 2086   2.998   2.467   2.289 -0.0385 -0.3815  0.1006
  522SOL    HW2 2087   2.932   2.608   2.276 -1.7388 -1.6233 -0.4012
  522SOL     MW 2088   2.933   2.522   2.276 -0.0008 -0.2104 -0.2715
  523SOL     OW 2089   0.903   1.484   2.119 -0.1267  0.2349  0.0550
  523SOL    HW1 2090   0.849   1.549   2.075  1.4622 -0.7976  0.8639
  523SOL    HW2 2091   0.938   1.424   2.052 -1.6031  0.1991 -0.0641
  523SOL     MW 2092   0.900   1.485   2.104 -0.1118  0.0940  0.1460
  524SOL     OW 2093   0.595   2.390   2.953 -0.1946  0.0657  0.3195
  524SOL    HW1 2094   0.632   2.449   2.887 -0.0089 -1.4130 -0.6903
  524SOL    HW2 2095   0.652   2.313   2.948 -0.1233 -2.4129  0.9606
  524SOL     MW 2096   0.608   2.388   2.943 -0.1607 -0.4564  0.2708
  525SOL     OW 2097   0.447   2.228   2.079 -0.0391 -0.1030 -0.2119
  525SOL    HW1 2098   0.402   2.162   2.138 -0.5915  0.3304  0.1318
  525SOL    HW2 2099   0.521   2.184   2.053 -2.0730  2.8354  0.8925
  525SOL     MW 2100   0.451   2.213   2.084 -0.3804  0.3419 -0.0209
  526SOL     OW 2101   0.677   2.122   1.990 -0.1559 -0.3452  0.3682
  526SOL    HW1 2102   0.680   2.171   1.899  1.5264 -0.0516 -0.5498
  526SOL    HW2 2103   0.740   2.171   2.036  2.3742  0.8896 -3.0731
  526SOL     MW 2104   0.686   2.135   1.984  0.3999 -0.1436 -0.2070
  527SOL     OW 2105   1.326   1.998   2.092  0.3183  0.9398  0.2276
  527SOL    HW1 2106   1.347   1.967   2.177 -1.5201 -0.4687 -1.0397
  527SOL    HW2 2107   1.342   1.914   2.044  0.2062 -0.4569  1.4812
  527SOL     MW 2108   1.331   1.983   2.097  0.0609  0.5697  0.2258
  528SOL     OW 2109   0.676   2.946   2.916  0.5819 -0.6989 -0.2627
  528SOL    HW1 2110   0.670   3.038   2.922 -1.3083 -0.0728 -0.2258
  528SOL    HW2 2111   0.623   2.929   2.831  0.3325  1.4846 -2.3218
  528SOL     MW 2112   0.668   2.956   2.905  0.2996 -0.3282 -0.5295
  529SOL     OW 2113   1.018   2.286   1.853  0.9169  0.3532 -0.0235
  529SOL    HW1 2114   1.049   2.322   1.941  2.0962  1.5820  0.4938
  529SOL    HW2 2115   1.056   2.347   1.790 -3.1288 -3.6837 -0.4424
  529SOL     MW 2116   1.027   2.298   1.857  0.5387 -0.0173 -0.0105
  530SOL     OW 2117   1.146   2.444   3.039  0.4796 -0.2772 -0.0365
  530SOL    HW1 2118   1.050   2.460   3.054  0.0703 -0.1054  1.6306
  530SOL    HW2 2119   1.166   2.352   3.020  0.6635 -2.6665  2.0614
  530SOL     MW 2120   1.136   2.434   3.039  0.4499 -0.5698  0.4602
  531SOL     OW 2121   0.994   1.898   2.612 -0.0589 -0.1212  0.3086
  531SOL    HW1 2122   0.990   1.956   2.686 -0.4320 -0.5606 -2.9089
  531SOL    HW2 2123   0.958   1.818   2.652  0.9740 -0.1003 -0.3651
  531SOL     MW 2124   0.989   1.895   2.627  0.0281 -0.1764 -0.2048
  532SOL     OW 2125   1.715   0.313   2.858  0.0553  0.8176  0.1535
  532SOL    HW1 2126   1.699   0.228   2.889 -1.2052  1.2499  3.6563
  532SOL    HW2 2127   1.822   0.322   2.880  0.6976 -0.3350  1.9902
  532SOL     MW 2128   1.727   0.303   2.865 -0.0263  0.7226  0.8580
  533SOL     OW 2129   1.799   2.673   2.981  1.0173  0.7896  0.2730
  533SOL    HW1 2130   1.744   2.631   3.050  2.0860 -1.5930  1.5817
  533SOL    HW2 2131   1.734   2.663   2.903 -0.7777  0.0700 -2.6036
  533SOL     MW 2132   1.783   2.666   2.980  0.9215  0.3803  0.0661
  534SOL     OW 2133   1.783   2.339   2.449  0.6784 -0.3224 -0.2785
  534SOL    HW1 2134   1.713   2.302   2.507 -2.3878  1.8939  2.0777
  534SOL    HW2 2135   1.863   2.339   2.507 -0.7865  0.5526 -1.0823
  534SOL     MW 2136   1.784   2.334   2.465  0.0806  0.0855 -0.0737
  535SOL     OW 2137   1.829   2.344   1.962  0.1257  0.4555  0.3947
  535SOL    HW1 2138   1.791   2.372   1.877 -0.2916 -0.7492  0.7346
  535SOL    HW2 2139   1.925   2.350   1.960 -1.5963  1.5411  1.5591
  535SOL     MW 2140   1.837   2.348   1.950 -0.1565  0.4397  0.5932
  536SOL     OW 2141   0.451   1.844   2.017 -0.4072  0.0670  0.2236
  536SOL    HW1 2142   0.441   1.801   1.932  2.6893  1.5713 -0.7914
  536SOL    HW2 2143   0.506   1.924   2.000 -0.4970 -1.1448  0.3678
  536SOL     MW 2144   0.457   1.849   2.004 -0.0105  0.1056  0.1087
  537SOL     OW 2145   1.086   0.179   2.884 -0.4529 -0.9164 -0.0411
  537SOL    HW1 2146   1.018   0.183   2.952  1.2193 -2.3292 -2.2115
  537SOL    HW2 2147   1.088   0.272   2.864 -0.3538 -0.3625  0.1770
  537SOL     MW 2148   1.077   0.192   2.890 -0.2192 -1.0297 -0.2987
  538SOL     OW 2149   1.369   0.054   2.967 -0.8175 -0.3961 -0.1030
  538SOL    HW1 2150   1.340   0.145   2.965  1.3502 -0.0852  0.2561
  538SOL    HW2 2151   1.448   0.051   2.910  0.6152 -0.3427 -0.1262
  538SOL     MW 2152   1.376   0.066   2.959 -0.3425 -0.3480 -0.0587
  539SOL     OW 2153   0.770   2.751   2.542 -0.3648  0.3510  0.5983
  539SOL    HW1 2154   0.861   2.785   2.571  2.2298 -1.1395 -0.4350
  539SOL    HW2 2155   0.790   2.654   2.525 -1.5911  0.5432  1.1832
  539SOL     MW 2156   0.785   2.742   2.543 -0.1842  0.1797  0.5392
  540SOL     OW 2157   0.329   2.323   2.887 -0.1111  0.7754 -0.5701
  540SOL    HW1 2158   0.420   2.331   2.919  1.4356  2.7277  1.9507
  540SOL    HW2 2159   0.284   2.276   2.956  1.3818 -0.6398 -1.4101
  540SOL     MW 2160   0.335   2.318   2.900  0.2899  0.8463 -0.3483
  541SOL     OW 2161   0.159   2.912   2.186  0.3991  0.5051  0.2161
  541SOL    HW1 2162   0.199   2.862   2.113  0.1728  0.2199 -0.3170
  541SOL    HW2 2163   0.184   2.861   2.264  0.0117  1.0776 -0.0821
  541SOL     MW 2164   0.168   2.899   2.187  0.3181  0.5430  0.1064
  542SOL     OW 2165   1.049   2.294   2.576 -0.1254 -0.5692 -0.0187
  542SOL    HW1 2166   0.984   2.223   2.583  1.0001  2.8417 -0.8591
  542SOL    HW2 2167   1.045   2.346   2.659 -1.6988 -0.3587 -1.3939
  542SOL     MW 2168   1.040   2.291   2.588 -0.1845 -0.0914 -0.3110
  543SOL     OW 2169   1.434   2.494   2.745 -0.0162 -0.3946  0.3809
  543SOL    HW1 2170   1.463   2.412   2.700 -0.8352  0.2942 -0.6201
  543SOL    HW2 2171   1.501   2.554   2.712  2.4640  0.2016 -0.3215
  543SOL     MW 2172   1.446   2.491   2.734  0.2030 -0.2250  0.1562
  544SOL     OW 2173   0.594   0.241   2.687 -0.1667 -0.2327 -0.2489
  544SOL    HW1 2174   0.520   0.203   2.735  4.0178  0.2892 -1.9331
  544SOL    HW2 2175   0.627   0.173   2.631  2.1734  0.3340 -0.0638
  544SOL     MW 2176   0.588   0.227   2.686  0.6941 -0.0891 -0.4467
  545SOL     OW 2177   1.528   2.201   2.301  0.2054  0.2206  1.0237
  545SOL    HW1 2178   1.495   2.257   2.233 -0.3516  0.5664  0.5062
  545SOL    HW2 2179   1.607   2.150   2.266  0.0448 -1.1540 -0.5825
  545SOL     MW 2180   1.534   2.202   2.287  0.1107  0.0849  0.7435
  546SOL     OW 2181   2.953   2.052   0.138 -0.3156  0.1249  0.5512
  546SOL    HW1 2182   2.963   2.139   0.086 -0.3648 -2.1459  2.4253
  546SOL    HW2 2183   3.039   2.021   0.111  0.2940  0.3712 -1.2259
  546SOL     MW 2184   2.965   2.059   0.128 -0.2417 -0.1422  0.5640
  547SOL     OW 2185   0.262   2.974   0.113 -0.2317 -0.6504  0.3386
  547SOL    HW1 2186   0.311   3.033   0.049  4.6322  1.4985 -2.0751
  547SOL    HW2 2187   0.257   2.888   0.071  0.4509 -1.0723 -1.2400
  547SOL     MW 2188   0.267   2.971   0.099  0.5001 -0.4226 -0.1881
  548SOL     OW 2189   0.277   2.547   0.250 -0.1716  0.1946 -0.0738
  548SOL    HW1 2190   0.254   2.601   0.174 -0.7079  2.4236  2.3391
  548SOL    HW2 2191   0.226   2.464   0.245  1.0266 -2.2842  2.0490
  548SOL     MW 2192   0.268   2.544   0.239 -0.0843  0.1617  0.5246
  549SOL     OW 2193   0.796   1.885   2.116  0.5947  0.0106 -0.2607
  549SOL    HW1 2194   0.790   1.961   2.065 -0.9751 -1.5205  2.5662
  549SOL    HW2 2195   0.756   1.907   2.201 -2.5711  1.8193 -1.6323
  549SOL     MW 2196   0.790   1.898   2.120 -0.0301  0.0473 -0.0687
  550SOL     OW 2197   1.801   1.740   2.530 -0.0693 -0.3162  0.0986
  550SOL    HW1 2198   1.768   1.727   2.437 -1.1397 -2.0999 -3.2901
  550SOL    HW2 2199   1.755   1.809   2.581 -1.8602  0.8664  0.9000
  550SOL     MW 2200   1.790   1.747   2.524 -0.4468 -0.3955 -0.2428
  551SOL     OW 2201   0.892   2.310   0.209 -0.3336 -0.4230  0.2264
  551SOL    HW1 2202   0.983   2.339   0.197 -1.0849 -1.2045 -1.5773
  551SOL    HW2 2203   0.883   2.219   0.177 -0.6934  0.6507  1.1961
  551SOL     MW 2204   0.903   2.302   0.203 -0.4802 -0.3845  0.1164
  552SOL     OW 2205   1.745   1.728   2.249  0.2663  0.2173  0.5169
  552SOL    HW1 2206   1.656   1.702   2.248 -1.7778 -0.1775 -0.8856
  552SOL    HW2 2207   1.789   1.689   2.166  0.8443 -0.9156 -1.1303
  552SOL     MW 2208   1.739   1.719   2.238  0.0728  0.0157  0.1145
  553SOL     OW 2209   1.194   2.321   1.471 -0.6053  0.1124  0.0329
  553SOL    HW1 2210   1.215   2.229   1.487 -0.6288  0.2979 -0.8685
  553SOL    HW2 2211   1.267   2.374   1.448  0.1644 -0.1325 -1.1818
  553SOL     MW 2212   1.206   2.316   1.470 -0.5068  0.1046 -0.2463
  554SOL     OW 2213   0.560   2.895   2.684 -0.1728  0.2789  0.0391
  554SOL    HW1 2214   0.515   2.962   2.636 -1.5677  0.3386 -0.6773
  554SOL    HW2 2215   0.607   2.850   2.609  0.0420  2.0519 -1.4532
  554SOL     MW 2216   0.560   2.898   2.668 -0.3285  0.5207 -0.2523
  555SOL     OW 2217   0.616   2.439   2.576  0.2144 -0.0325 -0.3611
  555SOL    HW1 2218   0.587   2.348   2.553  1.1774 -1.1874  0.4267
  555SOL    HW2 2219   0.702   2.448   2.522  2.4686  0.2457 -0.0926
  555SOL     MW 2220   0.623   2.428   2.566  0.6389 -0.1482 -0.2217
  556SOL     OW 2221   0.925   1.767   0.132  0.5103  0.2540 -0.1405
  556SOL    HW1 2222   0.971   1.768   0.048  0.9974  0.1079 -0.0962
  556SOL    HW2 2223   0.991   1.807   0.188 -0.0465 -0.1125  1.0672
  556SOL     MW 2224   0.940   1.772   0.128  0.5011  0.1863  0.0247
  557SOL     OW 2225   0.967   2.697   0.492 -0.0301 -0.0838 -0.2119
  557SOL    HW1 2226   1.015   2.680   0.414 -1.7009 -1.3593  1.5665
  557SOL    HW2 2227   0.887   2.738   0.463 -0.1454 -0.1671  2.5482
  557SOL     MW 2228   0.962   2.700   0.478 -0.2658 -0.2631  0.3869
  558SOL     OW 2229   0.287   2.145   0.019  0.2229 -0.1536  0.2559
  558SOL    HW1 2230   0.238   2.061   0.032 -1.6226 -2.0364 -0.2221
  558SOL    HW2 2231   0.231   2.215   0.054 -1.7011 -0.0727  0.7555
  558SOL     MW 2232   0.273   2.143   0.025 -0.2744 -0.3913  0.2587
  559SOL     OW 2233   1.094   2.320   2.114 -0.6866 -0.1523 -0.2042
  559SOL    HW1 2234   1.118   2.400   2.163 -0.2614 -1.7702  2.1089
  559SOL    HW2 2235   1.103   2.251   2.171  0.0659  0.5550 -0.8298
  559SOL     MW 2236   1.098   2.322   2.128 -0.5312 -0.2724  0.0184
  560SOL     OW 2237   1.931   2.844   0.063  0.0079 -0.3416 -0.4606
  560SOL    HW1 2238   1.992   2.893   0.001 -1.1739  1.2428 -2.9711
  560SOL    HW2 2239   1.886   2.785  -0.000 -0.5073 -1.0289 -1.3581
  560SOL     MW 2240   1.933   2.842   0.046 -0.2160 -0.2232 -0.9102
  561SOL     OW 2241   0.458   2.137   0.220 -0.3413  0.3524 -0.9609
  561SOL    HW1 2242   0.416   2.136   0.129 -2.3208 -3.1144 -1.4389
  561SOL    HW2 2243   0.495   2.229   0.229  0.2893  0.0405  4.0316
  561SOL     MW 2244   0.457   2.149   0.209 -0.5192 -0.1461 -0.3653
  562SOL     OW 2245   0.832   2.185   2.231 -0.3186  0.1065 -0.0543
  562SOL    HW1 2246   0.877   2.254   2.280  0.4030 -1.6981 -0.4667
  562SOL    HW2 2247   0.894   2.114   2.226 -1.5403  1.6626  0.4896
  562SOL     MW 2248   0.846   2.185   2.237 -0.3846  0.0737 -0.0370
  563SOL     OW 2249   1.121   0.311   0.598 -0.1337  0.3327 -0.5151
  563SOL    HW1 2250   1.071   0.278   0.518 -1.0323 -3.2160  0.5672
  563SOL    HW2 2251   1.196   0.248   0.606 -0.7578 -1.7696 -0.8411
  563SOL     MW 2252   1.124   0.299   0.589 -0.3346 -0.4129 -0.4153
  564SOL     OW 2253   1.050   2.580   2.287 -0.6941  0.7065 -0.4520
  564SOL    HW1 2254   1.083   2.617   2.200 -1.4375 -1.5589  0.0893
  564SOL    HW2 2255   1.122   2.595   2.351 -0.2919  0.1082 -0.8829
  564SOL     MW 2256   1.064   2.587   2.284 -0.7391  0.3287 -0.4375
  565SOL     OW 2257   2.891   2.697   2.637  0.3725 -0.6049  0.1484
  565SOL    HW1 2258   2.935   2.781   2.614  1.0747  1.8010 -0.8094
  565SOL    HW2 2259   2.809   2.706   2.582 -1.2718  2.3193  1.3351
  565SOL     MW 2260   2.886   2.710   2.627  0.2482  0.0984  0.1786
  566SOL     OW 2261   2.132   1.868   2.427  0.2319  0.1281 -0.1352
  566SOL    HW1 2262   2.120   1.826   2.344 -1.1764 -2.1015  1.9984
  566SOL    HW2 2263   2.178   1.957   2.410  2.6029 -3.4840 -1.8557
  566SOL     MW 2264   2.137   1.874   2.414  0.3590 -0.6426 -0.0807
  567SOL     OW 2265   1.168   2.972   2.975  0.8966  0.1696 -0.8270
  567SOL    HW1 2266   1.235   3.048   2.992  1.8381 -2.0062 -0.0627
  567SOL    HW2 2267   1.223   2.896   2.941  3.1001 -1.0993  0.6483
  567SOL     MW 2268   1.184   2.972   2.973  1.3115 -0.2849 -0.5315
  568SOL     OW 2269   1.623   2.106   2.897  0.8346  0.1061 -0.4916
  568SOL    HW1 2270   1.682   2.159   2.947 -2.2108 -0.4590  0.0723
  568SOL    HW2 2271   1.669   2.038   2.842 -0.5151 -0.0803 -0.6738
  568SOL     MW 2272   1.637   2.104   2.896  0.2547  0.0069 -0.4412
  569SOL     OW 2273   0.213   2.246   2.475 -0.2051  0.1299 -0.2273
  569SOL    HW1 2274   0.148   2.275   2.404  1.9383  0.5736  0.2592
  569SOL    HW2 2275   0.225   2.327   2.531 -1.3436  0.4704  1.8150
  569SOL     MW 2276   0.206   2.260   2.473 -0.0725  0.2334  0.1064
  570SOL     OW 2277   1.467   0.411   0.480 -0.2791 -0.5885 -0.6553
  570SOL    HW1 2278   1.396   0.458   0.527  1.7802  0.5704  2.9111
  570SOL    HW2 2279   1.532   0.432   0.548  0.0155 -2.3218  1.7230
  570SOL     MW 2280   1.466   0.420   0.495  0.0315 -0.6643  0.1291
  571SOL     OW 2281   1.480   2.401   1.986 -0.4332  0.3176 -0.1907
  571SOL    HW1 2282   1.532   2.411   2.065  2.0333  0.7258  1.1928
  571SOL    HW2 2283   1.506   2.312   1.966  2.0940 -1.6245 -1.2140
  571SOL     MW 2284   1.490   2.390   1.993  0.2257  0.1152 -0.1432
  572SOL     OW 2285   0.921   2.581   0.031 -0.2078  0.4401  0.1483
  572SOL    HW1 2286   0.884   2.630  -0.041  0.7675 -0.7641 -3.0442
  572SOL    HW2 2287   0.851   2.534   0.074 -0.0492  0.1364 -0.0304
  572SOL     MW 2288   0.907   2.581   0.027 -0.0582  0.2411 -0.2965
  573SOL     OW 2289   1.195   2.367   0.266  0.2905 -0.1835 -0.0283
  573SOL    HW1 2290   1.283   2.363   0.221 -2.7149 -0.4961  2.2490
  573SOL    HW2 2291   1.169   2.459   0.265 -1.7719  1.7222  1.1586
  573SOL     MW 2292   1.203   2.378   0.260 -0.3781  0.0267  0.4288
  574SOL     OW 2293   1.095   2.639   0.246  0.8608  0.1086 -0.2977
  574SOL    HW1 2294   1.156   2.707   0.246 -1.1458 -1.8270  0.0325
  574SOL    HW2 2295   1.046   2.650   0.165  1.6719  2.0970  3.4337
  574SOL     MW 2296   1.096   2.649   0.235  0.7031  0.1156  0.2382
  575SOL     OW 2297   0.024   2.327   1.786  0.4815 -0.4374  0.3746
  575SOL    HW1 2298   0.024   2.245   1.734  2.4821  0.5381  0.2559
  575SOL    HW2 2299   0.065   2.397   1.734 -0.4701 -1.0940 -2.0362
  575SOL     MW 2300   0.029   2.325   1.772  0.6199 -0.3953  0.0408
  576SOL     OW 2301   2.877   1.797   2.043 -0.4590 -0.0763  0.5022
  576SOL    HW1 2302   2.923   1.873   2.000  0.6761  0.3272 -2.1324
  576SOL    HW2 2303   2.795   1.782   1.994 -0.3042 -0.1314 -0.0052
  576SOL     MW 2304   2.872   1.805   2.031 -0.2888 -0.0303  0.0877
  577SOL     OW 2305   2.119   0.225   0.065 -0.5236 -0.1488  0.4093
  577SOL    HW1 2306   2.045   0.241   0.003 -0.7445 -2.0207 -3.1876
  577SOL    HW2 2307   2.067   0.216   0.153 -0.0847 -1.1052 -1.1651
  577SOL     MW 2308   2.102   0.226   0.069 -0.4948 -0.5219 -0.2730
  578SOL     OW 2309   1.921   2.024   2.431 -0.2495 -0.0042  0.0337
  578SOL    HW1 2310   1.861   2.010   2.359 -2.0307  0.1868 -0.3117
  578SOL    HW2 2311   1.993   1.961   2.429  0.9514  1.6252 -0.1873
  578SOL     MW 2312   1.923   2.014   2.421 -0.3260  0.2360 -0.0411
  579SOL     OW 2313   0.873   2.498   2.486  0.1640 -0.1531 -0.5100
  579SOL    HW1 2314   0.927   2.426   2.529  0.7488 -2.7101 -1.4184
  579SOL    HW2 2315   0.936   2.517   2.413  1.9993 -0.5656  0.4465
  579SOL     MW 2316   0.889   2.491   2.482  0.4833 -0.5449 -0.5036
  580SOL     OW 2317   0.913   3.002   0.008  0.1995  0.2713 -0.5631
  580SOL    HW1 2318   1.003   2.983  -0.030 -0.4400 -1.0666 -0.1473
  580SOL    HW2 2319   0.856   2.970  -0.068  1.8400 -1.9593 -2.7072
  580SOL     MW 2320   0.917   2.995  -0.007  0.3316 -0.1996 -0.7911
  581SOL     OW 2321   1.169   2.458   1.709  0.6091 -0.1109 -0.0966
  581SOL    HW1 2322   1.262   2.472   1.738 -0.1490  0.6539 -1.6842
  581SOL    HW2 2323   1.187   2.406   1.631  2.7675  3.7013 -0.4330
  581SOL     MW 2324   1.184   2.453   1.702  0.7938  0.4930 -0.3505
  582SOL     OW 2325   3.072   2.878   2.543  0.3144  0.4476  0.0255
  582SOL    HW1 2326   3.046   2.958   2.589 -0.0383 -0.2180 -2.5719
  582SOL    HW2 2327   3.165   2.880   2.549 -0.0210 -3.0846 -0.1728
  582SOL     MW 2328   3.080   2.889   2.550  0.2236 -0.1063 -0.3434
  583SOL     OW 2329   2.013   2.364   2.696  0.3488 -0.0550  0.4875
  583SOL    HW1 2330   2.100   2.362   2.652  2.1808  0.2864 -0.6440
  583SOL    HW2 2331   1.990   2.271   2.709  0.2165  0.3201  2.7604
  583SOL     MW 2332   2.021   2.352   2.692  0.5731  0.0396  0.6381
  584SOL     OW 2333   0.182   1.865   2.139  0.8899 -0.5151  1.2456
  584SOL    HW1 2334   0.258   1.852   2.081 -4.6608  2.1071 -1.5585
  584SOL    HW2 2335   0.208   1.936   2.201  0.2043  0.8579  1.0472
  584SOL     MW 2336   0.196   1.873   2.139  0.0671  0.0120  0.8494
  585SOL     OW 2337   1.440   2.645   0.135  0.2632  0.2830  0.8284
  585SOL    HW1 2338   1.427   2.603   0.044  0.4224 -1.4516 -1.7741
  585SOL    HW2 2339   1.358   2.671   0.168 -0.7987 -1.5506 -0.8633
  585SOL     MW 2340   1.427   2.643   0.127  0.1441 -0.1878  0.2619
  586SOL     OW 2341   1.405   2.812   2.504 -0.3712  0.2670  0.4804
  586SOL    HW1 2342   1.452   2.759   2.442 -0.4144  0.8975  1.1700
  586SOL    HW2 2343   1.405   2.899   2.476 -1.7260  1.2050  0.2849
  586SOL     MW 2344   1.411   2.817   2.492 -0.5557  0.4739  0.5456
  587SOL     OW 2345   1.315   1.570   2.192 -0.2338  0.0987 -0.3635
  587SOL    HW1 2346   1.286   1.488   2.236  0.6990  0.1422  2.4767
  587SOL    HW2 2347   1.282   1.569   2.104  2.6433 -2.5922 -0.9743
  587SOL     MW 2348   1.307   1.559   2.186  0.2688 -0.2506 -0.0694
  588SOL     OW 2349   1.394   2.143   2.765 -0.2588 -0.2446  0.6219
  588SOL    HW1 2350   1.479   2.151   2.825 -3.8356  0.1433 -0.1630
  588SOL    HW2 2351   1.314   2.149   2.815 -1.1394  2.3480 -0.4520
  588SOL     MW 2352   1.395   2.145   2.779 -0.8469  0.1487  0.3766
  589SOL     OW 2353   1.278   2.053   0.065 -0.0157  0.0511 -0.1522
  589SOL    HW1 2354   1.314   2.137   0.098  1.0634 -0.1188  1.2453
  589SOL    HW2 2355   1.232   2.007   0.137 -1.2282 -0.3781 -1.9352
  589SOL     MW 2356   1.276   2.058   0.079 -0.0333 -0.0279 -0.2030
  590SOL     OW 2357   0.423   2.695   2.221 -0.5218  0.6635  0.2931
  590SOL    HW1 2358   0.417   2.656   2.131  2.2338  0.9028  2.2755
  590SOL    HW2 2359   0.503   2.752   2.237  0.5098 -0.3658 -1.0177
  590SOL     MW 2360   0.433   2.698   2.211 -0.0221  0.5593  0.3817
  591SOL     OW 2361   2.283   0.708   3.100 -0.0285 -0.1327  0.4590
  591SOL    HW1 2362   2.222   0.778   3.084 -0.0056 -1.6948  2.1012
  591SOL    HW2 2363   2.372   0.739   3.050  1.8039  0.6428 -2.1500
  591SOL     MW 2364   2.287   0.722   3.092  0.2163 -0.2365  0.3314
  592SOL     OW 2365   1.796   2.972   0.837 -0.0530  0.5957  0.4183
  592SOL    HW1 2366   1.801   3.050   0.778  0.9912  0.1933 -2.1310
  592SOL    HW2 2367   1.835   2.901   0.786 -0.1243  0.4857 -2.1267
  592SOL     MW 2368   1.801   2.973   0.822  0.0754  0.5281 -0.2538
  593SOL     OW 2369   1.946   0.702   0.884  0.2947  0.3039  0.1234
  593SOL    HW1 2370   1.872   0.712   0.826  2.3216  0.6069 -2.1592
  593SOL    HW2 2371   1.941   0.608   0.900  3.2004 -0.1714 -2.3684
  593SOL     MW 2372   1.936   0.691   0.878  0.9455  0.2812 -0.5065
  594SOL     OW 2373   2.827   1.162   1.347  0.1690 -0.3277 -0.2454
  594SOL    HW1 2374   2.908   1.196   1.388  1.3846  1.7359 -2.8590
  594SOL    HW2 2375   2.845   1.104   1.270  0.0745 -1.8630 -0.8400
  594SOL     MW 2376   2.840   1.159   1.343  0.3169 -0.2580 -0.6687
  595SOL     OW 2377   0.488   0.960   0.800 -0.3803  0.1200  0.3193
  595SOL    HW1 2378   0.511   1.019   0.732  0.8641  2.4316  2.5975
  595SOL    HW2 2379   0.484   1.017   0.879 -1.9213  3.9335  1.4323
  595SOL     MW 2380   0.491   0.976   0.801 -0.4194  0.9281  0.7667
  596SOL     OW 2381   2.480   1.341   0.551 -0.3010 -0.5785  0.1640
  596SOL    HW1 2382   2.546   1.410   0.523  1.7510  2.4076 -0.7802
  596SOL    HW2 2383   2.525   1.309   0.633 -1.4180  1.4742  3.0300
  596SOL     MW 2384   2.494   1.346   0.558 -0.1777  0.0863  0.4176
  597SOL     OW 2385   2.180   0.715   1.573 -0.3089  0.2460  0.4230
  597SOL    HW1 2386   2.196   0.660   1.652  1.0368 -1.0356 -1.0834
  597SOL    HW2 2387   2.125   0.650   1.518 -0.4304  0.8854  0.0230
  597SOL     MW 2388   2.175   0.699   1.576 -0.1474  0.1612  0.1715
  598SOL     OW 2389   2.599   0.985   2.841 -0.2403  0.4441  0.0353
  598SOL    HW1 2390   2.611   0.967   2.745  1.2366  0.1267  2.6213
  598SOL    HW2 2391   2.681   1.028   2.861 -0.8102 -0.3278 -0.3032
  598SOL     MW 2392   2.612   0.988   2.831 -0.1206  0.3003  0.3318
  599SOL     OW 2393   2.963   0.438   2.050  0.2250  0.6076 -0.1892
  599SOL    HW1 2394   2.937   0.458   2.140  0.1175  0.7053 -1.2445
  599SOL    HW2 2395   2.992   0.526   2.007  0.3526  0.1139 -0.2767
  599SOL     MW 2396   2.963   0.452   2.056  0.2276  0.5553 -0.3400
  600SOL     OW 2397   1.933   1.664   0.859 -0.3657 -1.2132  0.3097
  600SOL    HW1 2398   1.965   1.690   0.947  3.7961  2.6740 -0.5034
  600SOL    HW2 2399   1.837   1.693   0.852  0.8733  2.6861 -1.4878
  600SOL     MW 2400   1.925   1.672   0.870  0.3469 -0.1858 -0.0347
  601SOL     OW 2401   2.532   0.817   0.828 -0.2238  0.2322 -0.4091
  601SOL    HW1 2402   2.553   0.823   0.922  2.0480  2.0580  3.2448
  601SOL    HW2 2403   2.463   0.749   0.821  0.0797 -0.8139 -1.6325
  601SOL     MW 2404   2.525   0.808   0.840  0.1160  0.3351 -0.0884
  602SOL     OW 2405   2.332   1.927   0.845  0.9750 -0.3508  0.5176
  602SOL    HW1 2406   2.294   1.838   0.857  0.0253  0.4070 -0.5020
  602SOL    HW2 2407   2.262   1.979   0.809  1.5423  0.0340 -0.0394
  602SOL     MW 2408   2.318   1.922   0.842  0.9246 -0.2000  0.3096
  603SOL     OW 2409   3.066   1.403   1.809 -0.1033 -0.2323 -0.5505
  603SOL    HW1 2410   3.133   1.429   1.874 -0.6598  0.6433  2.1428
  603SOL    HW2 2411   3.056   1.317   1.844 -0.7802  0.7129 -1.0080
  603SOL     MW 2412   3.074   1.395   1.822 -0.2660  0.0080 -0.2555
  604SOL     OW 2413   2.165   1.573   0.481  0.3368  0.3621 -0.0664
  604SOL    HW1 2414   2.176   1.489   0.532 -1.3744 -1.8264 -1.7700
  604SOL    HW2 2415   2.077   1.610   0.520 -0.1897 -1.0640 -1.1876
  604SOL     MW 2416   2.155   1.567   0.493  0.0415 -0.1148 -0.4391
  605SOL     OW 2417   2.611   1.552   0.827  0.1421 -0.2626  0.3393
  605SOL    HW1 2418   2.564   1.622   0.779 -1.0032  0.7062 -3.1044
  605SOL    HW2 2419   2.598   1.473   0.774  0.1055 -1.8065 -1.1529
  605SOL     MW 2420   2.603   1.551   0.813 -0.0138 -0.3385 -0.3120
  606SOL     OW 2421   2.560   1.838   1.920 -0.9372 -0.4219  0.8167
  606SOL    HW1 2422   2.468   1.831   1.910 -0.2796  0.6772  0.5836
  606SOL    HW2 2423   2.585   1.758   1.870 -2.0532 -0.0826 -1.3689
  606SOL     MW 2424   2.551   1.826   1.912 -0.9977 -0.2321  0.4975
  607SOL     OW 2425   2.380   1.051   3.042  0.6970  0.3691 -0.0652
  607SOL    HW1 2426   2.465   1.030   3.010 -0.4971 -0.3737 -0.4128
  607SOL    HW2 2427   2.387   1.033   3.142 -1.1616 -0.2793  1.4364
  607SOL     MW 2428   2.392   1.046   3.051  0.2942  0.1855  0.0871
  608SOL     OW 2429   1.889   0.284   0.638  0.0220 -0.0727 -0.2856
  608SOL    HW1 2430   1.887   0.330   0.552 -1.2459 -1.7066  1.5465
  608SOL    HW2 2431   1.869   0.188   0.629 -0.6862 -1.4050  1.9061
  608SOL     MW 2432   1.886   0.277   0.625 -0.2387 -0.4640  0.2453
  609SOL     OW 2433   2.045   2.028   3.054 -0.6224  0.0104 -0.0423
  609SOL    HW1 2434   1.983   1.966   3.013 -1.7789 -0.7959 -0.2078
  609SOL    HW2 2435   2.099   1.988   3.125 -0.4561  0.3984 -2.9028
  609SOL     MW 2436   2.044   2.014   3.058 -0.7530 -0.0448 -0.4415
  610SOL     OW 2437   1.787   0.998   1.274 -0.3201 -0.0750  0.4806
  610SOL    HW1 2438   1.770   0.914   1.225  0.1001  2.0356 -0.6908
  610SOL    HW2 2439   1.692   1.016   1.289 -0.5681 -2.1802  1.9253
  610SOL     MW 2440   1.772   0.989   1.269 -0.2974 -0.0742  0.5166
  611SOL     OW 2441   2.526   1.783   0.676 -0.3116  0.0568  0.0749
  611SOL    HW1 2442   2.481   1.836   0.740 -1.9419  0.3826 -0.0285
  611SOL    HW2 2443   2.481   1.827   0.606 -0.3821  2.1596 -1.7104
  611SOL     MW 2444   2.514   1.796   0.675 -0.5360  0.3772 -0.1743
  612SOL     OW 2445   2.792   2.834   0.420 -0.1034 -0.1680  0.2079
  612SOL    HW1 2446   2.807   2.895   0.494  1.2165  1.0525 -2.2437
  612SOL    HW2 2447   2.880   2.806   0.399 -0.4040 -0.8935 -0.7403
  612SOL     MW 2448   2.805   2.838   0.427  0.0311 -0.1027 -0.2406
  613SOL     OW 2449   1.491   1.008   0.959 -0.1459 -0.9809  0.1827
  613SOL    HW1 2450   1.513   1.098   0.972 -2.8150 -1.7064  2.4317
  613SOL    HW2 2451   1.511   0.966   1.043  3.0068  0.2035  0.1175
  613SOL     MW 2452   1.497   1.014   0.972 -0.0821 -0.9204  0.4708
  614SOL     OW 2453   2.007   0.560   1.452 -0.2607  0.1818 -0.8510
  614SOL    HW1 2454   1.970   0.477   1.483 -1.0565  1.0578  0.9721
  614SOL    HW2 2455   1.956   0.571   1.372 -0.8924 -0.0166  0.0950
  614SOL     MW 2456   1.996   0.550   1.446 -0.4490  0.2712 -0.4856
  615SOL     OW 2457   2.381   0.717   0.287  0.2725  0.0554 -0.6247
  615SOL    HW1 2458   2.445   0.648   0.305  0.2892  0.3592 -2.4402
  615SOL    HW2 2459   2.359   0.703   0.196  1.2402 -0.0148  0.4957
  615SOL     MW 2460   2.386   0.706   0.277  0.4024  0.0863 -0.7164
  616SOL     OW 2461   2.490   0.422   1.590 -0.2403 -1.0481  0.1477
  616SOL    HW1 2462   2.442   0.347   1.560 -0.7430 -2.1075  0.4084
  616SOL    HW2 2463   2.477   0.498   1.527  1.1978  1.3798  1.5430
  616SOL     MW 2464   2.482   0.422   1.578 -0.1169 -0.8676  0.3662
  617SOL     OW 2465   2.920   0.576   1.737 -0.7755  0.4877  0.2297
  617SOL    HW1 2466   2.839   0.575   1.792  2.4545  0.4518  3.5021
  617SOL    HW2 2467   2.920   0.485   1.709 -0.1334  2.2242 -3.2527
  617SOL     MW 2468   2.909   0.564   1.741 -0.2646  0.7120  0.2020
  618SOL     OW 2469   2.774   0.367   1.873  0.0835  0.4200 -0.6431
  618SOL    HW1 2470   2.700   0.416   1.901  1.1402  1.0959  0.7555
  618SOL    HW2 2471   2.838   0.394   1.938  0.7463 -1.1718 -0.7872
  618SOL     MW 2472   2.773   0.377   1.885  0.3103  0.2991 -0.4776
  619SOL     OW 2473   2.677   0.668   0.124 -0.6394 -0.0167  0.0249
  619SOL    HW1 2474   2.698   0.751   0.167  0.6984 -0.9327  1.5023
  619SOL    HW2 2475   2.640   0.607   0.187  0.1149 -1.9940 -0.0986
  619SOL     MW 2476   2.675   0.671   0.138 -0.3634 -0.3984  0.2035
  620SOL     OW 2477   2.289   1.040   1.013 -0.5336  0.6001  0.6513
  620SOL    HW1 2478   2.346   1.057   0.938  1.5734 -3.5723 -0.4456
  620SOL    HW2 2479   2.222   0.985   0.970 -3.3867 -2.2869  2.2484
  620SOL     MW 2480   2.288   1.035   0.997 -0.6321 -0.3313  0.7173
  621SOL     OW 2481   1.522   2.124   1.960  0.1093 -0.5651  0.0823
  621SOL    HW1 2482   1.455   2.074   2.017 -1.5922  1.2710 -3.1081
  621SOL    HW2 2483   1.613   2.087   1.964 -0.1306  2.4275 -0.5721
  621SOL     MW 2484   1.525   2.113   1.968 -0.1468  0.0720 -0.4250
  622SOL     OW 2485   2.631   0.159   0.265  0.3175 -0.0834 -0.2169
  622SOL    HW1 2486   2.724   0.174   0.257 -1.1588  0.1849 -1.7528
  622SOL    HW2 2487   2.614   0.075   0.303 -0.3546  0.6949 -0.4946
  622SOL     MW 2488   2.641   0.150   0.269  0.0340  0.0547 -0.4562
  623SOL     OW 2489   2.322   2.823   0.849 -0.1638  0.2679  0.0636
  623SOL    HW1 2490   2.400   2.880   0.859 -1.3490 -2.6295 -3.2441
  623SOL    HW2 2491   2.262   2.832   0.930  1.0605 -2.0608  0.8685
  623SOL     MW 2492   2.324   2.832   0.861 -0.1587 -0.4216 -0.2666
  624SOL     OW 2493   2.188   1.729   3.007  0.3322  0.0814  0.1083
  624SOL    HW1 2494   2.166   1.636   3.021 -0.7922 -3.2559 -1.4972
  624SOL    HW2 2495   2.116   1.772   2.973  2.8037 -2.0179 -0.7456
  624SOL     MW 2496   2.175   1.722   3.004  0.5099 -0.6359 -0.2162
  625SOL     OW 2497   2.205   1.949   1.125  0.0229 -0.2790 -0.4512
  625SOL    HW1 2498   2.300   1.945   1.158 -0.6305  0.3720 -1.6166
  625SOL    HW2 2499   2.224   1.967   1.032 -0.2877  1.4452 -0.7175
  625SOL     MW 2500   2.220   1.951   1.117 -0.1043  0.0344 -0.6401
  626SOL     OW 2501   0.302   1.620   2.389  0.4466  0.1387 -0.1608
  626SOL    HW1 2502   0.273   1.534   2.386 -0.6609  0.6060  0.0514
  626SOL    HW2 2503   0.225   1.674   2.375 -2.0024 -1.7680 -1.3230
  626SOL     MW 2504   0.288   1.616   2.386 -0.0226 -0.0512 -0.2862
  627SOL     OW 2505   2.477   0.755   2.627  0.2482 -0.6004 -0.2237
  627SOL    HW1 2506   2.441   0.845   2.627 -1.5194 -0.3849 -1.3295
  627SOL    HW2 2507   2.461   0.722   2.539  0.4668 -2.9098 -0.3679
  627SOL     MW 2508   2.470   0.763   2.616  0.0438 -0.8766 -0.3887
  628SOL     OW 2509   2.350   1.390   1.364  0.3343  0.6439  0.2396
  628SOL    HW1 2510   2.317   1.314   1.311 -0.0797  3.8359 -1.9386
  628SOL    HW2 2511   2.447   1.394   1.351 -2.5439  0.1169 -1.2238
  628SOL     MW 2512   2.359   1.381   1.355 -0.1000  0.9955 -0.2409
  629SOL     OW 2513   1.849   0.542   1.230  0.4084  0.1827  0.4853
  629SOL    HW1 2514   1.841   0.638   1.225 -1.3086  0.5806  2.3946
  629SOL    HW2 2515   1.761   0.521   1.264 -2.0767 -2.2067  0.0120
  629SOL     MW 2516   1.836   0.552   1.234 -0.1460 -0.0801  0.6748
  630SOL     OW 2517   2.452   1.786   2.985  0.1194  0.1463 -0.1670
  630SOL    HW1 2518   2.451   1.876   2.972  0.1950  1.4125 -0.1413
  630SOL    HW2 2519   2.354   1.767   2.981 -0.2115 -0.8548 -1.4297
  630SOL     MW 2520   2.439   1.795   2.983  0.0857  0.1813 -0.3302
  631SOL     OW 2521   1.979   1.834   1.575 -0.0596 -0.0078 -0.3232
  631SOL    HW1 2522   2.003   1.755   1.624  0.3770 -2.8111 -1.5458
  631SOL    HW2 2523   1.970   1.805   1.481  2.8900 -1.1415 -0.8958
  631SOL     MW 2524   1.981   1.820   1.569  0.3872 -0.5272 -0.5600
  632SOL     OW 2525   0.140   1.974   1.452  0.1081 -0.4204 -0.6642
  632SOL    HW1 2526   0.121   2.009   1.541  3.6302  2.1427  1.7398
  632SOL    HW2 2527   0.100   1.891   1.455 -2.1794  0.1649  1.3061
  632SOL     MW 2528   0.132   1.968   1.464  0.2709 -0.0050 -0.0870
  633SOL     OW 2529   2.595   0.510   0.358 -0.2245 -0.2442 -0.2644
  633SOL    HW1 2530   2.658   0.510   0.434 -0.2769  0.2988 -0.5554
  633SOL    HW2 2531   2.554   0.423   0.371 -0.8737 -0.5503 -1.6737
  633SOL     MW 2532   2.598   0.499   0.370 -0.3171 -0.2129 -0.4888
  634SOL     OW 2533   2.689   3.075   0.615 -0.1954 -0.0008 -0.1834
  634SOL    HW1 2534   2.730   3.159   0.613 -1.2124  1.3311  0.0152
  634SOL    HW2 2535   2.644   3.060   0.530  0.4592 -1.5432  0.3362
  634SOL     MW 2536   2.688   3.084   0.603 -0.2432 -0.0286 -0.0887
  635SOL     OW 2537   2.631   0.130   1.822  0.0209  0.2631 -0.1341
  635SOL    HW1 2538   2.677   0.064   1.766  0.8408  0.7651 -3.3410
  635SOL    HW2 2539   2.699   0.189   1.838  1.4842 -0.1293 -1.6498
  635SOL     MW 2540   2.646   0.129   1.817  0.3221  0.2775 -0.7572
  636SOL     OW 2541   2.888   1.604   1.116 -0.5127 -0.2617 -0.2318
  636SOL    HW1 2542   2.807   1.654   1.124 -0.4480  1.1458 -0.8460
  636SOL    HW2 2543   2.950   1.675   1.079 -1.3435  0.6716 -1.4721
  636SOL     MW 2544   2.886   1.620   1.112 -0.6138  0.0471 -0.4765
  637SOL     OW 2545   2.893   1.488   0.723 -0.0923 -0.4132  0.6254
  637SOL    HW1 2546   2.943   1.567   0.695 -1.0955  1.3788 -1.8320
  637SOL    HW2 2547   2.818   1.524   0.772  0.2765 -1.2067 -0.2140
  637SOL     MW 2548   2.890   1.503   0.726 -0.1760 -0.2815  0.1904
  638SOL     OW 2549   2.785   0.494   0.558 -0.6288 -0.2339 -0.2423
  638SOL    HW1 2550   2.872   0.528   0.530  0.1256  0.5609 -2.0306
  638SOL    HW2 2551   2.762   0.529   0.643 -0.0495 -0.1254  2.3993
  638SOL     MW 2552   2.794   0.503   0.566 -0.4529 -0.1147 -0.1297
  639SOL     OW 2553   1.770   0.035   0.628 -0.4421 -0.4817  0.3247
  639SOL    HW1 2554   1.678   0.062   0.616  0.7698 -0.3774  1.8288
  639SOL    HW2 2555   1.784  -0.026   0.548  0.3905 -1.5289 -1.0872
  639SOL     MW 2556   1.760   0.031   0.616 -0.1724 -0.6061  0.3369
  640SOL     OW 2557   0.367   1.307   0.119 -0.3526  0.2511 -0.2181
  640SOL    HW1 2558   0.384   1.336   0.029 -0.5867 -0.0479  0.4059
  640SOL    HW2 2559   0.309   1.230   0.109  0.9155 -0.0557 -1.8255
  640SOL     MW 2560   0.362   1.300   0.106 -0.2162  0.1712 -0.3479
  641SOL     OW 2561   2.156   0.413   0.332  0.0568 -0.1880  0.6775
  641SOL    HW1 2562   2.201   0.419   0.246 -0.4392  1.1425 -2.1273
  641SOL    HW2 2563   2.160   0.321   0.362  0.2158  0.8244 -1.7935
  641SOL     MW 2564   2.162   0.401   0.324  0.0124  0.1211 -0.0186
  642SOL     OW 2565   0.057   3.080   0.586 -0.3378 -0.4326 -0.4503
  642SOL    HW1 2566   0.011   3.156   0.541 -3.1175 -0.8064  2.4899
  642SOL    HW2 2567  -0.020   3.027   0.619 -0.7694  0.3780  1.2768
  642SOL     MW 2568   0.041   3.083   0.584 -0.7615 -0.3750  0.1655
  643SOL     OW 2569   2.045   0.333   1.640 -0.5575 -0.1072  0.1225
  643SOL    HW1 2570   1.974   0.300   1.698 -1.9129  1.8266 -0.2444
  643SOL    HW2 2571   2.066   0.271   1.571 -0.9357  0.6732 -3.9215
  643SOL     MW 2572   2.039   0.320   1.639 -0.7862  0.2509 -0.4594
  644SOL     OW 2573   2.742   2.036   1.038  0.0183  0.0196  0.2750
  644SOL    HW1 2574   2.746   1.971   1.103  0.3220  0.5421  0.1098
  644SOL    HW2 2575   2.653   2.042   1.010  2.5169  0.1489 -1.3556
  644SOL     MW 2576   2.731   2.028   1.043  0.3881  0.1056  0.0381
  645SOL     OW 2577   2.875   0.828   0.669 -0.4810  0.3673 -0.2651
  645SOL    HW1 2578   2.967   0.820   0.671 -0.8068  0.4171 -0.0016
  645SOL    HW2 2579   2.837   0.753   0.709  2.2680  0.9458  0.6999
  645SOL     MW 2580   2.882   0.817   0.675 -0.1613  0.4502 -0.1030
  646SOL     OW 2581   0.172   2.314   0.804 -0.2853 -0.2771  0.4065
  646SOL    HW1 2582   0.185   2.219   0.827  0.3536 -0.0637  1.6985
  646SOL    HW2 2583   0.086   2.345   0.763  1.7383  0.8562  3.9786
  646SOL     MW 2584   0.162   2.306   0.802  0.0660 -0.0994  1.0483
  647SOL     OW 2585   2.667   0.477   2.967  0.2225 -0.2763 -0.1065
  647SOL    HW1 2586   2.622   0.419   3.028 -0.6651 -0.5828 -1.7113
  647SOL    HW2 2587   2.646   0.569   2.983 -0.8149 -0.4724  2.0263
  647SOL     MW 2588   2.659   0.482   2.977 -0.0315 -0.3426 -0.0369
  648SOL     OW 2589   2.125   0.742   1.220 -0.6441  0.1369  0.4665
  648SOL    HW1 2590   2.089   0.777   1.135  1.3033  0.8306 -1.4736
  648SOL    HW2 2591   2.117   0.818   1.276 -0.6479 -2.2300 -2.8535
  648SOL     MW 2592   2.119   0.756   1.216 -0.3877 -0.0839 -0.2275
  649SOL     OW 2593   2.353   2.701   1.265 -0.0427 -0.2611 -0.4417
  649SOL    HW1 2594   2.426   2.754   1.287  0.2671 -1.1305  3.7424
  649SOL    HW2 2595   2.385   2.609   1.263  2.3212 -3.2882  1.3814
  649SOL     MW 2596   2.367   2.696   1.268  0.3101 -0.7752  0.3509
  650SOL     OW 2597   2.823   0.213   0.627  0.1378  0.3984 -0.1760
  650SOL    HW1 2598   2.821   0.303   0.660  2.7712 -1.3750  2.7903
  650SOL    HW2 2599   2.869   0.213   0.542 -0.0968 -2.8971  2.2939
  650SOL     MW 2600   2.829   0.225   0.620  0.4543 -0.2704  0.5412
  651SOL     OW 2601   2.973   0.400   0.865  0.2104  0.2327  0.7509
  651SOL    HW1 2602   3.014   0.451   0.793 -1.8986 -0.7397  1.3044
  651SOL    HW2 2603   2.965   0.458   0.940  2.3874 -0.0036 -1.1504
  651SOL     MW 2604   2.977   0.414   0.865  0.2194  0.0733  0.5731
  652SOL     OW 2605   2.440   1.531   2.972  0.2794  0.7349  0.1249
  652SOL    HW1 2606   2.499   1.510   2.901  0.5090 -2.6677  1.0728
  652SOL    HW2 2607   2.446   1.626   2.975 -1.2964 -2.8008  1.5357
  652SOL     MW 2608   2.448   1.541   2.963  0.1018 -0.1806  0.4361
  653SOL     OW 2609   1.900   0.425   0.382 -1.1355 -0.1934  0.2697
  653SOL    HW1 2610   1.858   0.368   0.319 -0.7212 -0.3986 -0.3570
  653SOL    HW2 2611   1.994   0.422   0.369 -2.6664  1.6078  0.3187
  653SOL     MW 2612   1.907   0.417   0.372 -1.2829  0.0172  0.1934
  654SOL     OW 2613   2.398   1.022   0.746 -0.0476 -0.4313  0.1823
  654SOL    HW1 2614   2.347   0.998   0.668 -1.4573 -0.2540 -0.3068
  654SOL    HW2 2615   2.450   0.946   0.770 -1.1874  0.7957  0.5736
  654SOL     MW 2616   2.398   1.009   0.739 -0.3839 -0.2460  0.1694
  655SOL     OW 2617   2.889   0.827   0.351  0.2190 -0.6445  0.0076
  655SOL    HW1 2618   2.874   0.839   0.445  1.7707  1.3348 -0.3576
  655SOL    HW2 2619   2.928   0.737   0.348  0.1491  0.9510 -0.8726
  655SOL     MW 2620   2.892   0.817   0.363  0.4145 -0.1728 -0.1567
  656SOL     OW 2621   1.845   2.723   1.323  0.3514 -0.1395  0.0500
  656SOL    HW1 2622   1.872   2.807   1.293 -0.1297 -0.8567  3.5376
  656SOL    HW2 2623   1.928   2.689   1.359 -2.5663  1.7584 -0.0559
  656SOL     MW 2624   1.860   2.729   1.324 -0.0970  0.0163  0.4962
  657SOL     OW 2625   0.145   1.716   1.233 -0.0754 -0.0893 -0.6242
  657SOL    HW1 2626   0.217   1.774   1.201 -1.3919  1.3497  0.6688
  657SOL    HW2 2627   0.184   1.628   1.223 -0.5039 -0.8074  1.2841
  657SOL     MW 2628   0.160   1.712   1.227 -0.3057  0.0058 -0.2018
  658SOL     OW 2629   2.734   1.333   0.220 -0.2424  0.1242  0.1349
  658SOL    HW1 2630   2.680   1.282   0.276  1.4565  1.5624 -2.8946
  658SOL    HW2 2631   2.766   1.397   0.282  0.1232  1.2253  0.1686
  658SOL     MW 2632   2.731   1.334   0.236  0.0300  0.4592 -0.2603
  659SOL     OW 2633   2.282   1.514   1.098 -0.1040  0.0301 -1.1048
  659SOL    HW1 2634   2.381   1.519   1.095  0.5110  2.5567  1.5297
  659SOL    HW2 2635   2.267   1.565   1.178 -0.4037 -0.8700  2.3450
  659SOL     MW 2636   2.293   1.521   1.108 -0.0624  0.2447 -0.3021
  660SOL     OW 2637   2.050   1.586   1.679 -0.3687 -0.2125 -0.0772
  660SOL    HW1 2638   2.076   1.600   1.769 -1.1762 -2.0653 -0.2749
  660SOL    HW2 2639   1.955   1.567   1.692  1.2608 -2.7428  0.9649
  660SOL     MW 2640   2.041   1.585   1.692 -0.2602 -0.7908  0.0342
  661SOL     OW 2641   2.407   0.995   0.220  0.1646  0.0788 -0.3650
  661SOL    HW1 2642   2.465   1.047   0.282  4.1707  0.1206 -2.2688
  661SOL    HW2 2643   2.402   0.906   0.262  2.2802 -2.6015  1.1581
  661SOL     MW 2644   2.414   0.990   0.234  0.9723 -0.2693 -0.4152
  662SOL     OW 2645   2.600   2.966   0.843 -0.1083  0.0812 -0.1007
  662SOL    HW1 2646   2.571   3.033   0.900  0.7455  0.2324 -0.6940
  662SOL    HW2 2647   2.608   3.015   0.761  0.7577 -0.0446  0.0617
  662SOL     MW 2648   2.597   2.981   0.840  0.1186  0.0846 -0.1575
  663SOL     OW 2649   2.704   1.481   0.480 -0.3150  0.1940  0.5823
  663SOL    HW1 2650   2.652   1.560   0.461  0.9461 -0.5325 -2.0020
  663SOL    HW2 2651   2.744   1.505   0.565 -0.1516  1.5353  0.5120
  663SOL     MW 2652   2.702   1.495   0.489 -0.1271  0.2751  0.2321
  664SOL     OW 2653   2.505   1.517   1.597 -0.2622 -0.1907 -0.5345
  664SOL    HW1 2654   2.478   1.606   1.579  0.9583 -2.2887 -0.5958
  664SOL    HW2 2655   2.426   1.479   1.639 -1.8164 -1.8398 -3.6226
  664SOL     MW 2656   2.491   1.524   1.600 -0.3062 -0.6851 -0.9500
  665SOL     OW 2657   2.843   0.865   2.010  0.1547 -0.4688  0.0643
  665SOL    HW1 2658   2.820   0.900   1.918 -0.7093 -0.4227  1.9594
  665SOL    HW2 2659   2.914   0.797   1.999  0.9459  0.8832  0.7970
  665SOL     MW 2660   2.850   0.861   1.997  0.1451 -0.2843  0.4110
  666SOL     OW 2661   2.758   3.005   1.713  0.0310 -0.2133  0.0314
  666SOL    HW1 2662   2.756   2.995   1.621 -1.0889 -0.5920  2.6981
  666SOL    HW2 2663   2.718   2.926   1.757  1.5109 -0.9842  1.9783
  666SOL     MW 2664   2.752   2.993   1.707  0.0785 -0.3650  0.6401
  667SOL     OW 2665   1.976   2.675   1.758 -0.4096  0.4646 -0.4760
  667SOL    HW1 2666   1.987   2.621   1.833  0.2805 -0.2582 -0.2586
  667SOL    HW2 2667   2.059   2.725   1.740  0.5480  0.8355 -0.6287
  667SOL     MW 2668   1.988   2.674   1.765 -0.1922  0.4181 -0.4674
  668SOL     OW 2669   2.750   0.628   0.816  0.1893  0.4874  0.9282
  668SOL    HW1 2670   2.807   0.642   0.895  0.2873 -0.9181  2.3000
  668SOL    HW2 2671   2.669   0.681   0.831 -2.8730  2.1610  0.5995
  668SOL     MW 2672   2.747   0.637   0.828 -0.2018  0.5227  1.0658
  669SOL     OW 2673   0.228   0.968   0.689  0.3814 -0.1922 -0.5701
  669SOL    HW1 2674   0.176   1.008   0.757  1.6172 -2.8967 -3.1935
  669SOL    HW2 2675   0.313   0.964   0.741 -0.6368  3.0944 -0.9028
  669SOL     MW 2676   0.232   0.973   0.705  0.4101 -0.1154 -0.9602
  670SOL     OW 2677   2.900   0.231   0.237  0.2539  0.1756  0.1383
  670SOL    HW1 2678   2.910   0.190   0.147 -1.6073 -0.7578  1.3889
  670SOL    HW2 2679   2.912   0.326   0.220  2.7630 -0.0490  1.1696
  670SOL     MW 2680   2.903   0.238   0.223  0.3394  0.0228  0.4394
  671SOL     OW 2681   2.027   2.958   1.465 -0.6581  0.4300 -0.0740
  671SOL    HW1 2682   1.961   2.991   1.407 -2.0304 -2.3086 -0.3910
  671SOL    HW2 2683   2.009   3.004   1.548  1.2736 -1.5625  1.2747
  671SOL     MW 2684   2.016   2.968   1.469 -0.5843 -0.1943  0.0621
  672SOL     OW 2685   1.915   1.664   1.319  0.0769  0.0589 -0.3805
  672SOL    HW1 2686   1.836   1.714   1.336  0.3330 -0.7415 -0.7534
  672SOL    HW2 2687   1.938   1.706   1.231  0.1171 -0.0131 -0.5832
  672SOL     MW 2688   1.907   1.676   1.310  0.1160 -0.0562 -0.4564
  673SOL     OW 2689   2.749   1.074   0.595  0.0111 -0.1968  0.0644
  673SOL    HW1 2690   2.768   0.989   0.639  1.1984  1.1084 -0.8078
  673SOL    HW2 2691   2.831   1.122   0.610  1.7752 -0.6085 -0.7490
  673SOL     MW 2692   2.763   1.069   0.602  0.4005 -0.0789 -0.1580
  674SOL     OW 2693   2.439   0.040   1.287 -0.2399  0.5383  0.6136
  674SOL    HW1 2694   2.408   0.037   1.193 -2.5905  0.4149  1.8771
  674SOL    HW2 2695   2.482  -0.044   1.307  0.1205  1.6398  0.4373
  674SOL     MW 2696   2.440   0.028   1.278 -0.5025  0.6674  0.7571
  675SOL     OW 2697   3.032   0.865   1.056  0.6035  0.3032 -0.0744
  675SOL    HW1 2698   3.105   0.848   1.119  0.6207  3.9403 -1.6725
  675SOL    HW2 2699   3.075   0.924   0.997 -1.4057 -0.8191 -0.1508
  675SOL     MW 2700   3.048   0.870   1.056  0.3407  0.6350 -0.2953
  676SOL     OW 2701   2.857   1.495   1.668  0.3605  0.2645 -0.4952
  676SOL    HW1 2702   2.818   1.400   1.638  1.5500 -3.7408 -1.3266
  676SOL    HW2 2703   2.939   1.456   1.706  1.6534  0.4632  0.5966
  676SOL     MW 2704   2.863   1.477   1.669  0.6880 -0.2377 -0.4608
  677SOL     OW 2705   2.398   0.616   1.966 -0.0032 -0.4410  0.2606
  677SOL    HW1 2706   2.355   0.573   1.895 -1.3945 -1.3556  1.2009
  677SOL    HW2 2707   2.350   0.694   1.996  0.2043 -1.6669 -2.8514
  677SOL     MW 2708   2.386   0.621   1.960 -0.1594 -0.7234 -0.0259
  678SOL     OW 2709   2.515   1.649   0.352  0.1336  0.1563 -0.3631
  678SOL    HW1 2710   2.428   1.704   0.358 -0.2203  0.9742 -0.8852
  678SOL    HW2 2711   2.499   1.588   0.270  2.3417 -0.3107 -2.3465
  678SOL     MW 2712   2.501   1.648   0.342  0.3782  0.2026 -0.6937
  679SOL     OW 2713   2.253   0.490   1.213 -0.0641 -0.3198  0.3887
  679SOL    HW1 2714   2.180   0.431   1.197 -0.6644  1.2103  0.0395
  679SOL    HW2 2715   2.214   0.576   1.205 -0.2524 -0.4695  0.5135
  679SOL     MW 2716   2.238   0.493   1.210 -0.1682 -0.1377  0.3591
  680SOL     OW 2717   2.330   0.177   1.520  0.8466  0.2955 -0.1345
  680SOL    HW1 2718   2.250   0.147   1.476  3.3331  2.6267  2.8392
  680SOL    HW2 2719   2.389   0.142   1.459 -1.3742  1.6338  1.2180
  680SOL     MW 2720   2.327   0.169   1.506  0.8817  0.7797  0.4363
  681SOL     OW 2721   0.293   0.595   1.579 -0.1249 -0.4546 -0.2429
  681SOL    HW1 2722   0.293   0.508   1.607  0.9529  3.5153 -0.4702
  681SOL    HW2 2723   0.381   0.618   1.554  0.0706 -0.0716  1.7683
  681SOL     MW 2724   0.305   0.586   1.579  0.0431  0.1197 -0.0076
  682SOL     OW 2725   0.078   2.893   1.484  0.1557 -0.1159  0.1864
  682SOL    HW1 2726   0.078   2.976   1.436 -3.2401 -1.3319  1.1865
  682SOL    HW2 2727   0.045   2.904   1.571  0.3879 -0.1817 -0.8227
  682SOL     MW 2728   0.074   2.906   1.489 -0.2617 -0.2850  0.1852
  683SOL     OW 2729   2.058   0.871   2.989 -0.0700 -0.6433 -0.5425
  683SOL    HW1 2730   1.980   0.848   2.944 -1.7354 -0.5637  1.4906
  683SOL    HW2 2731   2.051   0.965   3.012 -1.0682 -1.8954  2.9660
  683SOL     MW 2732   2.047   0.880   2.986 -0.4215 -0.7980  0.1887
  684SOL     OW 2733   2.221   1.690   0.881 -0.1546 -0.4707 -0.4282
  684SOL    HW1 2734   2.145   1.643   0.845  1.7075 -1.3563  2.1425
  684SOL    HW2 2735   2.234   1.638   0.965  0.1607 -0.6555  0.0750
  684SOL     MW 2736   2.213   1.677   0.887  0.1326 -0.6119 -0.0226
  685SOL     OW 2737   2.663   1.756   1.221  0.0519  0.2880  0.3008
  685SOL    HW1 2738   2.717   1.748   1.302  0.2992 -0.3437 -0.1617
  685SOL    HW2 2739   2.629   1.665   1.209 -0.4164  0.0920 -0.9235
  685SOL     MW 2740   2.666   1.743   1.230  0.0227  0.1788  0.0783
  686SOL     OW 2741   2.915   0.759   1.537 -0.1444  0.3769 -0.8979
  686SOL    HW1 2742   2.912   0.705   1.616  1.6423  1.7809 -1.3865
  686SOL    HW2 2743   3.001   0.739   1.502 -1.6264  2.4122  1.2094
  686SOL     MW 2744   2.926   0.749   1.543 -0.1042  0.8307 -0.6843
  687SOL     OW 2745   2.095   0.222   1.128  0.6089 -0.0961  0.3717
  687SOL    HW1 2746   2.110   0.157   1.061 -0.3060  1.1134 -1.6114
  687SOL    HW2 2747   2.040   0.283   1.079 -0.2674 -3.2649 -0.3203
  687SOL     MW 2748   2.090   0.221   1.112  0.3726 -0.3546  0.0187
  688SOL     OW 2749   2.380   0.620   1.428 -0.0225  0.2304  0.2071
  688SOL    HW1 2750   2.317   0.564   1.378 -0.3163  1.1939 -2.5244
  688SOL    HW2 2751   2.334   0.647   1.507  4.5087 -1.3850  0.1739
  688SOL     MW 2752   2.366   0.616   1.432  0.5366  0.1444 -0.1577
  689SOL     OW 2753   2.548   0.735   2.972 -0.2345  0.1515  0.2522
  689SOL    HW1 2754   2.555   0.818   2.927 -0.4206 -2.0787 -0.4375
  689SOL    HW2 2755   2.609   0.731   3.057  2.3762  1.3577 -2.9301
  689SOL     MW 2756   2.557   0.745   2.977  0.0854  0.0164 -0.2587
  690SOL     OW 2757   2.072   0.936   1.929 -0.3701  0.6246  0.3593
  690SOL    HW1 2758   2.032   0.843   1.934 -0.4723  0.4928 -1.6559
  690SOL    HW2 2759   2.079   0.944   1.835 -0.0193 -1.2844  0.6050
  690SOL     MW 2760   2.068   0.925   1.917 -0.3373  0.3553  0.1258
  691SOL     OW 2761   2.426   0.271   0.875 -0.0188  0.3089  0.3018
  691SOL    HW1 2762   2.505   0.316   0.905 -0.9893  2.1474  0.1002
  691SOL    HW2 2763   2.353   0.323   0.905  1.9678  2.6823  0.1050
  691SOL     MW 2764   2.426   0.284   0.883  0.1152  0.8646  0.2492
  692SOL     OW 2765   2.771   1.678   1.458  0.1595  0.9813 -0.0439
  692SOL    HW1 2766   2.766   1.613   1.531 -2.4568 -2.4187 -1.3969
  692SOL    HW2 2767   2.835   1.741   1.491  1.1066 -0.2833 -2.4064
  692SOL     MW 2768   2.779   1.678   1.472 -0.0607  0.3658 -0.5341
  693SOL     OW 2769   2.273   0.447   0.086 -0.5260 -0.6472  0.0256
  693SOL    HW1 2770   2.194   0.394   0.057 -1.7702 -1.4057 -1.2508
  693SOL    HW2 2771   2.253   0.534   0.037  0.0157 -1.1678  1.4919
  693SOL     MW 2772   2.260   0.451   0.076 -0.6187 -0.8160  0.0507
  694SOL     OW 2773   1.903   1.223   1.124  0.3537 -0.2554 -0.1962
  694SOL    HW1 2774   2.001   1.229   1.139 -0.1611 -0.0623 -1.8949
  694SOL    HW2 2775   1.875   1.141   1.166  1.7217  2.1914  0.4186
  694SOL     MW 2776   1.913   1.213   1.132  0.4663  0.0929 -0.3392
  695SOL     OW 2777   3.022   1.481   1.364 -0.0486  0.0028  0.0377
  695SOL    HW1 2778   3.004   1.444   1.281 -1.0926 -0.5994  0.9934
  695SOL    HW2 2779   2.952   1.543   1.371 -0.5180  1.0715 -0.6420
  695SOL     MW 2780   3.010   1.484   1.354 -0.2483  0.0644  0.0741
  696SOL     OW 2781   2.146   1.380   0.879  0.3637  0.3041  0.1995
  696SOL    HW1 2782   2.199   1.401   0.955 -1.7020 -1.4602 -3.7070
  696SOL    HW2 2783   2.095   1.300   0.897  1.7114 -0.4130  2.3878
  696SOL     MW 2784   2.146   1.372   0.892  0.2690 -0.0233 -0.0272
  697SOL     OW 2785   2.935   1.072   2.188 -0.4281 -0.5287 -0.0669
  697SOL    HW1 2786   2.876   1.140   2.204 -1.5585  0.6005  2.2474
  697SOL    HW2 2787   2.892   1.007   2.131  2.6219  0.8425  1.4134
  697SOL     MW 2788   2.922   1.072   2.183 -0.1749 -0.1988  0.4338
  698SOL     OW 2789   2.538   0.297   0.042  0.2627 -0.1992 -0.2778
  698SOL    HW1 2790   2.477   0.362   0.083 -1.0424 -0.9627 -0.2045
  698SOL    HW2 2791   2.589   0.243   0.112 -0.0559 -0.8691 -0.2028
  698SOL     MW 2792   2.536   0.298   0.057  0.0484 -0.3883 -0.2583
  699SOL     OW 2793   1.834   1.623   1.993 -0.7218 -0.0722  0.1672
  699SOL    HW1 2794   1.814   1.531   2.011  4.6617  0.3377 -2.7802
  699SOL    HW2 2795   1.930   1.614   1.992 -1.3218 -2.9556  1.4999
  699SOL     MW 2796   1.844   1.610   1.995 -0.0907 -0.3986 -0.0458
  700SOL     OW 2797   2.707   0.942   1.486 -0.0016  0.0030 -0.0181
  700SOL    HW1 2798   2.745   1.010   1.427  3.3919 -2.0957 -0.7854
  700SOL    HW2 2799   2.776   0.870   1.488 -2.0224 -3.2521 -0.1612
  700SOL     MW 2800   2.721   0.941   1.478  0.1795 -0.7034 -0.1382
  701SOL     OW 2801   1.620   1.219   2.473  0.0539 -0.7384  0.0233
  701SOL    HW1 2802   1.712   1.250   2.456  0.1217  0.2946  1.5790
  701SOL    HW2 2803   1.593   1.252   2.555 -0.9179 -1.4897  0.9291
  701SOL     MW 2804   1.629   1.227   2.482 -0.0654 -0.7012  0.3481
  702SOL     OW 2805   2.185   0.420   0.869 -0.5422 -0.1571 -0.1444
  702SOL    HW1 2806   2.186   0.333   0.819 -2.3805 -0.4808 -0.1028
  702SOL    HW2 2807   2.226   0.490   0.817 -0.7296 -0.0799 -1.0912
  702SOL     MW 2808   2.191   0.418   0.856 -0.8094 -0.1896 -0.2639
  703SOL     OW 2809   2.743   1.242   0.997 -0.1275  0.3273 -0.0259
  703SOL    HW1 2810   2.712   1.237   0.906  2.0597  0.6216  0.9080
  703SOL    HW2 2811   2.735   1.155   1.033 -0.5971 -2.9515 -1.0581
  703SOL     MW 2812   2.738   1.230   0.990  0.0991 -0.0665 -0.0389
  704SOL     OW 2813   3.064   1.259   0.193 -0.4299 -0.2192 -0.2491
  704SOL    HW1 2814   2.997   1.205   0.142 -0.3411 -1.8726  0.7716
  704SOL    HW2 2815   3.070   1.213   0.273 -2.0627 -2.6484  0.0196
  704SOL     MW 2816   3.056   1.246   0.197 -0.6336 -0.7579 -0.0790
  705SOL     OW 2817   2.216   1.646   1.325 -0.2584  0.2118 -0.0384
  705SOL    HW1 2818   2.115   1.652   1.340  1.6685 -0.6744  1.2198
  705SOL    HW2 2819   2.244   1.552   1.353  2.8746 -2.1153  2.0052
  705SOL     MW 2820   2.206   1.635   1.330  0.4092 -0.2122  0.3972
  706SOL     OW 2821   2.993   1.207   0.689  0.4921 -0.1322  0.1269
  706SOL    HW1 2822   3.044   1.199   0.602 -0.4353 -0.9157 -0.3381
  706SOL    HW2 2823   2.976   1.304   0.695  1.5500 -1.4792 -2.6178
  706SOL     MW 2824   2.998   1.219   0.679  0.5093 -0.4133 -0.2966
  707SOL     OW 2825   2.429   0.015   1.015  0.3961 -0.0096 -0.1241
  707SOL    HW1 2826   2.464   0.089   0.971 -1.0481 -1.6228  1.4198
  707SOL    HW2 2827   2.335   0.024   1.006 -1.4401 -1.8559 -1.6071
  707SOL     MW 2828   2.421   0.026   1.008 -0.0367 -0.4661 -0.1161
  708SOL     OW 2829   2.502   1.471   0.138 -0.6030 -0.2458  0.6709
  708SOL    HW1 2830   2.586   1.427   0.135  0.3962 -0.4750  0.7999
  708SOL    HW2 2831   2.480   1.476   0.043 -1.0035  0.8188 -2.0273
  708SOL     MW 2832   2.511   1.466   0.125 -0.5240 -0.1356  0.3319
  709SOL     OW 2833   1.761   1.633   0.158  0.1535 -1.1237  0.9630
  709SOL    HW1 2834   1.712   1.664   0.077 -0.9558 -1.0568 -3.9461
  709SOL    HW2 2835   1.688   1.641   0.223 -1.3299  0.8523 -0.3437
  709SOL     MW 2836   1.745   1.638   0.156 -0.1886 -0.8541  0.1429
  710SOL     OW 2837   2.200   1.174   1.239  0.3930  0.2952 -0.5686
  710SOL    HW1 2838   2.231   1.129   1.159  1.9318  1.7402 -1.3792
  710SOL    HW2 2839   2.194   1.103   1.307 -1.6827 -1.2110  0.7236
  710SOL     MW 2840   2.204   1.159   1.237  0.3222  0.2871 -0.5050
  711SOL     OW 2841   2.346   0.116   1.787 -0.1657  0.1091  0.0958
  711SOL    HW1 2842   2.434   0.119   1.814 -1.4515 -1.7913  0.7963
  711SOL    HW2 2843   2.336   0.155   1.704 -0.0387 -0.2249  2.8172
  711SOL     MW 2844   2.356   0.121   1.780 -0.3186 -0.1857  0.5473
  712SOL     OW 2845   1.926   0.518   0.046  0.3001  0.1505  0.4080
  712SOL    HW1 2846   1.873   0.585   0.008  1.5933 -0.4529  1.4945
  712SOL    HW2 2847   1.975   0.569   0.101  0.8698 -3.2093 -2.5359
  712SOL     MW 2848   1.925   0.534   0.048  0.5459 -0.3724  0.1629
  713SOL     OW 2849   2.571   0.798   1.109 -0.5794  0.0205  0.3288
  713SOL    HW1 2850   2.597   0.714   1.157  1.6056  0.5018  2.8221
  713SOL    HW2 2851   2.534   0.849   1.180  0.6615  3.4990 -0.9234
  713SOL     MW 2852   2.569   0.793   1.125 -0.1274  0.5430  0.4926
  714SOL     OW 2853   2.197   0.226   1.991 -0.0456  0.1673  0.2811
  714SOL    HW1 2854   2.226   0.213   2.081 -0.5643 -0.0051 -2.8294
  714SOL    HW2 2855   2.260   0.183   1.929  2.6239 -0.5779  0.8894
  714SOL     MW 2856   2.209   0.219   1.995  0.2382  0.0463 -0.0490
  715SOL     OW 2857   1.725   1.958   1.675  0.1450  0.0390 -0.1348
  715SOL    HW1 2858   1.814   1.954   1.648 -1.0126  1.8790  3.0222
  715SOL    HW2 2859   1.693   1.867   1.705 -2.4358 -0.2180 -0.4990
  715SOL     MW 2860   1.732   1.946   1.676 -0.3483  0.2479  0.2337
  716SOL     OW 2861   2.323   0.643   0.690 -0.2028  0.1569 -0.6953
  716SOL    HW1 2862   2.377   0.565   0.682 -0.1183 -0.0959 -0.0091
  716SOL    HW2 2863   2.286   0.661   0.602 -2.6143 -0.0649 -1.1558
  716SOL     MW 2864   2.325   0.635   0.677 -0.5098  0.0943 -0.6655
  717SOL     OW 2865   2.891   1.516   2.934 -0.0987  0.3172  0.1484
  717SOL    HW1 2866   2.983   1.505   2.955 -0.4314 -0.2958  0.5836
  717SOL    HW2 2867   2.851   1.579   2.997 -0.5177  1.7884 -0.9869
  717SOL     MW 2868   2.898   1.523   2.945 -0.1978  0.4304  0.0561
  718SOL     OW 2869   2.632   1.388   1.338  0.3434  0.5150 -0.5321
  718SOL    HW1 2870   2.630   1.415   1.430  3.1620  1.1441  2.0561
  718SOL    HW2 2871   2.696   1.319   1.338  1.6819 -0.9585 -1.1237
  718SOL     MW 2872   2.640   1.383   1.350  0.8919  0.4036 -0.2686
  719SOL     OW 2873   2.202   1.326   0.619 -0.7654 -0.9880  0.0254
  719SOL    HW1 2874   2.296   1.319   0.610  0.3725  0.0684 -0.8337
  719SOL    HW2 2875   2.193   1.380   0.698  0.9302  0.8482  0.3861
  719SOL     MW 2876   2.213   1.332   0.628 -0.3915 -0.6063 -0.0404
  720SOL     OW 2877   2.856   1.162   0.054 -0.8706  0.3950 -0.8356
  720SOL    HW1 2878   2.813   1.081   0.080 -1.5502 -0.2060 -0.4336
  720SOL    HW2 2879   2.812   1.227   0.113  0.5499  2.4095  3.5555
  720SOL     MW 2880   2.845   1.160   0.065 -0.7728  0.5815 -0.2032
  721SOL     OW 2881   2.432   0.862   1.357  0.0017 -0.7615 -0.1834
  721SOL    HW1 2882   2.424   0.763   1.360  2.0948  0.7483 -0.0483
  721SOL    HW2 2883   2.491   0.884   1.426 -0.6222 -2.2929  3.4800
  721SOL     MW 2884   2.438   0.852   1.366  0.1956 -0.7644  0.3177
  722SOL     OW 2885   2.569   1.163   0.371 -0.2757  0.1726  0.2357
  722SOL    HW1 2886   2.534   1.226   0.433  2.0189  1.8752  1.0476
  722SOL    HW2 2887   2.639   1.124   0.434  2.8769  2.9268 -0.7584
  722SOL     MW 2888   2.574   1.166   0.388  0.4430  0.7607  0.2116
  723SOL     OW 2889   2.264   1.421   1.648  0.1488 -0.1662  0.0836
  723SOL    HW1 2890   2.267   1.428   1.553 -2.9265  1.9772 -1.5725
  723SOL    HW2 2891   2.180   1.462   1.666  1.2721  1.4852  1.2527
  723SOL     MW 2892   2.253   1.427   1.638 -0.1088  0.3345  0.0193
  724SOL     OW 2893   2.464   0.396   0.634 -0.4158 -0.0411  0.3421
  724SOL    HW1 2894   2.449   0.341   0.710 -0.2663 -0.8366 -2.2950
  724SOL    HW2 2895   2.555   0.381   0.613 -1.2797 -0.7188 -0.7575
  724SOL     MW 2896   2.474   0.387   0.641 -0.5100 -0.2354 -0.1509
  725SOL     OW 2897   2.573   0.544   1.182  0.6495  0.4182 -0.0467
  725SOL    HW1 2898   2.657   0.563   1.240 -0.7753 -1.1878  0.2720
  725SOL    HW2 2899   2.495   0.536   1.241 -1.1450 -1.2643 -0.3020
  725SOL     MW 2900   2.574   0.545   1.197  0.2247 -0.0157 -0.0384
  726SOL     OW 2901   2.597   2.443   0.527  0.5790  0.0345 -0.4742
  726SOL    HW1 2902   2.542   2.509   0.484 -0.2812  0.5002  4.7130
  726SOL    HW2 2903   2.558   2.436   0.615 -1.1421 -0.4434  1.6808
  726SOL     MW 2904   2.584   2.451   0.533  0.2384  0.0329  0.4945
  727SOL     OW 2905   2.870   0.299   1.625 -0.2962 -0.0401  0.1092
  727SOL    HW1 2906   2.837   0.301   1.539 -1.2949 -0.9195 -0.4207
  727SOL    HW2 2907   2.795   0.317   1.680 -0.4218 -1.5336  0.4336
  727SOL     MW 2908   2.855   0.302   1.621 -0.4446 -0.3532  0.0821
  728SOL     OW 2909   2.818   1.151   2.894  0.3194  0.2543 -0.4970
  728SOL    HW1 2910   2.799   1.233   2.855  0.2329 -1.2870 -0.9028
  728SOL    HW2 2911   2.846   1.162   2.988  0.5674  0.1690 -2.0816
  728SOL     MW 2912   2.819   1.163   2.901  0.3407  0.0397 -0.7596
  729SOL     OW 2913   2.549   1.530   1.109 -0.1899 -0.7727  0.0941
  729SOL    HW1 2914   2.581   1.447   1.149  1.9356 -0.1232  1.5994
  729SOL    HW2 2915   2.568   1.527   1.008 -0.3381 -1.5921 -0.1487
  729SOL     MW 2916   2.556   1.518   1.101  0.0710 -0.7951  0.2607
  730SOL     OW 2917   2.144   1.179   0.223 -0.0369 -0.1677 -0.4173
  730SOL    HW1 2918   2.235   1.166   0.261  1.1848  0.1213 -0.3912
  730SOL    HW2 2919   2.125   1.270   0.241  0.0703 -0.2371 -1.7969
  730SOL     MW 2920   2.153   1.190   0.230  0.1385 -0.1387 -0.5959
  731SOL     OW 2921   2.855   1.908   2.868 -0.1691  0.4367 -0.4400
  731SOL    HW1 2922   2.761   1.943   2.844 -2.3621  0.4611 -2.0548
  731SOL    HW2 2923   2.908   1.993   2.865 -2.0483  2.8043 -0.2251
  731SOL     MW 2924   2.850   1.924   2.865 -0.7064  0.7523 -0.6247
  732SOL     OW 2925   2.163   0.966   1.376  0.2322  0.3858  0.1647
  732SOL    HW1 2926   2.143   0.959   1.473 -3.4221 -1.7405  0.5737
  732SOL    HW2 2927   2.252   0.943   1.358  0.3243 -1.2006 -0.4789
  732SOL     MW 2928   2.172   0.962   1.387 -0.2378 -0.1040  0.1338
  733SOL     OW 2929   2.315   2.780   3.046 -0.2886 -0.6744  0.2713
  733SOL    HW1 2930   2.230   2.819   3.052  0.6946 -1.3808  2.9357
  733SOL    HW2 2931   2.297   2.683   3.025  0.6477 -0.5209  0.8207
  733SOL     MW 2932   2.302   2.772   3.044 -0.0353 -0.7473  0.6953
  734SOL     OW 2933   1.505   0.386   2.455 -0.1752  0.3136 -0.2156
  734SOL    HW1 2934   1.476   0.354   2.538  1.2606 -0.4369  0.4074
  734SOL    HW2 2935   1.520   0.302   2.403 -0.1979 -1.7937  0.7607
  734SOL     MW 2936   1.503   0.370   2.459  0.0112 -0.0635 -0.0046
  735SOL     OW 2937   2.937   0.945   2.585 -0.0300  0.2679  0.0447
  735SOL    HW1 2938   2.963   0.849   2.569 -0.7382  0.9297 -0.5732
  735SOL    HW2 2939   2.968   0.955   2.678 -1.0844 -2.7811  2.6581
  735SOL     MW 2940   2.945   0.934   2.595 -0.2626 -0.0471  0.3080
  736SOL     OW 2941   0.138   0.581   2.542 -0.0361 -0.0113 -0.1878
  736SOL    HW1 2942   0.173   0.650   2.478  0.7352  1.6806 -3.3212
  736SOL    HW2 2943   0.125   0.505   2.486  0.1314  0.2765 -0.3704
  736SOL     MW 2944   0.141   0.580   2.526  0.0878  0.2499 -0.6253
  737SOL     OW 2945   2.952   0.666   2.579  0.4953 -0.4012 -0.6642
  737SOL    HW1 2946   2.878   0.636   2.526 -0.1048 -0.7372  0.2963
  737SOL    HW2 2947   3.036   0.628   2.550  0.3369 -2.7653 -2.0014
  737SOL     MW 2948   2.953   0.657   2.568  0.3952 -0.7574 -0.7139
  738SOL     OW 2949   0.242   0.570   1.897  0.2749 -0.0191 -0.4080
  738SOL    HW1 2950   0.331   0.601   1.884  0.6540  1.2266  1.5360
  738SOL    HW2 2951   0.226   0.494   1.834  1.0127  0.0076  0.9558
  738SOL     MW 2952   0.252   0.564   1.887  0.4223  0.1488  0.0284
  739SOL     OW 2953   2.412   1.044   2.124 -0.2530 -0.1072 -0.3360
  739SOL    HW1 2954   2.375   0.956   2.105  1.7501 -1.4857 -1.9566
  739SOL    HW2 2955   2.449   1.075   2.042 -1.4894  1.8417 -0.2304
  739SOL     MW 2956   2.412   1.036   2.111 -0.1519 -0.0319 -0.5359
  740SOL     OW 2957   0.221   1.774   2.986  0.8850 -0.0488 -0.3535
  740SOL    HW1 2958   0.166   1.693   2.975  1.0320  0.1691 -1.0802
  740SOL    HW2 2959   0.316   1.758   3.004  1.8039  2.4349  0.3272
  740SOL     MW 2960   0.226   1.761   2.987  1.0256  0.3076 -0.3595
  741SOL     OW 2961   2.269   1.279   2.711 -0.1593 -0.3678  0.4869
  741SOL    HW1 2962   2.200   1.326   2.663 -2.4369  0.2629  0.1838
  741SOL    HW2 2963   2.249   1.269   2.808  3.8748  1.6039  2.1802
  741SOL     MW 2964   2.257   1.284   2.717  0.0724 -0.0245  0.6703
  742SOL     OW 2965   1.568   1.260   2.200 -0.6195 -0.4120 -0.4421
  742SOL    HW1 2966   1.530   1.173   2.180  2.0026 -2.2527  0.2983
  742SOL    HW2 2967   1.586   1.265   2.293  1.2932  0.4057  0.5781
  742SOL     MW 2968   1.566   1.249   2.210 -0.0212 -0.5470 -0.2098
  743SOL     OW 2969   2.526   1.264   2.801 -0.2754  0.2238 -0.1158
  743SOL    HW1 2970   2.453   1.272   2.740  0.7584  0.2166  0.8774
  743SOL    HW2 2971   2.554   1.163   2.800  0.4876 -4.6186 -0.9186
  743SOL     MW 2972   2.520   1.251   2.793 -0.0383 -0.4161 -0.0907
  744SOL     OW 2973   2.737   0.954   1.780 -0.3942 -0.7193 -0.2106
  744SOL    HW1 2974   2.671   1.027   1.805 -0.8380  0.6977 -0.3761
  744SOL    HW2 2975   2.723   0.932   1.688 -1.1399  0.9180 -0.2756
  744SOL     MW 2976   2.726   0.961   1.772 -0.5512 -0.3163 -0.2410
  745SOL     OW 2977   1.759   0.414   2.517 -0.6283  0.1745  0.1147
  745SOL    HW1 2978   1.757   0.426   2.418 -1.0798 -2.7728  1.1116
  745SOL    HW2 2979   1.668   0.389   2.531  2.4776 -0.3689  2.1034
  745SOL     MW 2980   1.747   0.412   2.506 -0.2781 -0.2861  0.5086
  746SOL     OW 2981   1.481   1.425   1.652  0.6138 -0.3440 -0.7067
  746SOL    HW1 2982   1.547   1.495   1.650  0.0721  0.7425  0.0962
  746SOL    HW2 2983   1.495   1.368   1.732  1.9510 -1.1984  0.3612
  746SOL     MW 2984   1.492   1.427   1.663  0.7188 -0.3134 -0.4599
  747SOL     OW 2985   2.532   1.160   1.870 -0.4832 -0.4447 -0.3804
  747SOL    HW1 2986   2.441   1.168   1.855 -0.5816 -1.1978 -2.6821
  747SOL    HW2 2987   2.555   1.250   1.902 -1.0803  0.1489 -4.3095
  747SOL     MW 2988   2.523   1.173   1.872 -0.5750 -0.4657 -1.2024
  748SOL     OW 2989   0.103   0.070   1.820  0.2215  0.7421 -0.7682
  748SOL    HW1 2990   0.185   0.033   1.857  0.6745 -1.3860 -1.3282
  748SOL    HW2 2991   0.062   0.109   1.893  1.8064  0.0599 -0.7237
  748SOL     MW 2992   0.109   0.070   1.835  0.4904  0.3713 -0.8362
  749SOL     OW 2993   2.413   0.529   2.790 -0.5192  0.4836  0.7426
  749SOL    HW1 2994   2.421   0.610   2.739  0.2527  0.5486 -3.6531
  749SOL    HW2 2995   2.467   0.543   2.872  1.5803  0.0771 -3.7560
  749SOL     MW 2996   2.422   0.542   2.794 -0.1403  0.4385 -0.4309
  750SOL     OW 2997   2.067   0.003   1.947  0.1510  0.0166  0.2915
  750SOL    HW1 2998   2.101   0.087   1.979  3.8752 -2.7860 -0.8664
  750SOL    HW2 2999   2.149  -0.052   1.944  1.8777 -1.8249 -0.5639
  750SOL     MW 3000   2.082   0.007   1.951  0.8702 -0.5961  0.0259
  751SOL     OW 3001   0.025   0.427   2.313 -0.1618 -0.0383 -0.2598
  751SOL    HW1 3002  -0.052   0.375   2.296 -0.5012 -2.0010 -1.2453
  751SOL    HW2 3003   0.090   0.416   2.238  0.8414  1.3261  1.2304
  751SOL     MW 3004   0.024   0.419   2.301 -0.0742 -0.1173 -0.1932
  752SOL     OW 3005   2.137   0.860   2.706 -0.4789 -0.7017 -0.0625
  752SOL    HW1 3006   2.214   0.903   2.668  0.4964  0.7865  2.5493
  752SOL    HW2 3007   2.154   0.872   2.799 -0.6421  1.5089 -0.9121
  752SOL     MW 3008   2.150   0.867   2.713 -0.3718 -0.2137  0.1700
  753SOL     OW 3009   2.872   0.307   2.318  0.4599 -0.1951  0.1649
  753SOL    HW1 3010   2.814   0.235   2.289 -2.0772  0.8116  0.7591
  753SOL    HW2 3011   2.810   0.367   2.362 -1.2228 -0.8006 -1.4300
  753SOL     MW 3012   2.856   0.305   2.320 -0.0969 -0.1422  0.0329
  754SOL     OW 3013   2.228   3.019   2.679  0.3930 -0.5620  0.5569
  754SOL    HW1 3014   2.223   3.015   2.578 -0.2755  0.2914  0.3374
  754SOL    HW2 3015   2.290   2.951   2.704 -0.8451  1.0948 -1.0292
  754SOL     MW 3016   2.235   3.010   2.669  0.1414 -0.2308  0.3187
  755SOL     OW 3017   2.746   1.565   2.489 -0.6961  0.1452 -0.0027
  755SOL    HW1 3018   2.685   1.554   2.561 -0.6937  0.3389  0.2296
  755SOL    HW2 3019   2.794   1.638   2.521  0.0430  1.5163 -2.1731
  755SOL     MW 3020   2.744   1.573   2.503 -0.5982  0.3516 -0.2584
  756SOL     OW 3021   2.252   1.294   2.986 -0.2076  0.2821 -0.6153
  756SOL    HW1 3022   2.308   1.371   2.986  0.4373 -1.1134  0.8755
  756SOL    HW2 3023   2.319   1.228   3.015  0.8686  1.0268 -1.6454
  756SOL     MW 3024   2.268   1.296   2.990  0.0195  0.1962 -0.5545
  757SOL     OW 3025   2.116   0.960   1.632 -0.5451  0.5136 -1.1981
  757SOL    HW1 3026   2.139   0.865   1.607  0.1568 -0.8011  0.7585
  757SOL    HW2 3027   2.023   0.974   1.604 -0.0897  0.1557 -0.4567
  757SOL     MW 3028   2.107   0.949   1.625 -0.3924  0.2929 -0.8421
  758SOL     OW 3029   2.207   1.762   2.667 -0.5107  0.2647 -0.5117
  758SOL    HW1 3030   2.185   1.811   2.586  1.3152  3.0892 -0.7094
  758SOL    HW2 3031   2.306   1.766   2.660 -0.8231  2.3641 -0.5772
  758SOL     MW 3032   2.217   1.769   2.655 -0.3110  0.9143 -0.5465
  759SOL     OW 3033   1.570   1.325   2.731  0.3755  0.2805  0.1048
  759SOL    HW1 3034   1.572   1.415   2.692 -0.1193  3.1546  3.4599
  759SOL    HW2 3035   1.611   1.328   2.813 -1.7945 -1.7490  0.4019
  759SOL     MW 3036   1.576   1.337   2.737  0.0239  0.3920  0.5866
  760SOL     OW 3037   2.616   1.937   2.718 -0.3641  0.4461  0.4807
  760SOL    HW1 3038   2.563   1.870   2.694  0.9828  2.4764  1.3415
  760SOL    HW2 3039   2.687   1.941   2.652  2.4965 -1.6597  0.9034
  760SOL     MW 3040   2.619   1.929   2.706  0.1910  0.4362  0.6500
  761SOL     OW 3041   2.095   0.457   2.467 -0.4579 -0.3923  0.1629
  761SOL    HW1 3042   2.063   0.373   2.509  0.0777  1.4941 -2.8812
  761SOL    HW2 3043   2.120   0.512   2.551  3.6340  2.2811 -1.1700
  761SOL     MW 3044   2.094   0.453   2.484  0.1527  0.2093 -0.4146
  762SOL     OW 3045   0.004   0.193   2.051  0.3583  0.2431  0.2225
  762SOL    HW1 3046   0.007   0.140   2.133  1.0859 -1.4317  1.2045
  762SOL    HW2 3047  -0.049   0.275   2.056 -1.4397  1.1510  0.3668
  762SOL     MW 3048  -0.002   0.197   2.062  0.2171  0.1419  0.3711
  763SOL     OW 3049   2.374   1.135   2.377 -0.1372 -0.5330  0.3946
  763SOL    HW1 3050   2.390   1.097   2.291  0.5465  2.9863  0.6890
  763SOL    HW2 3051   2.438   1.204   2.388  0.3310 -1.9826 -0.7572
  763SOL     MW 3052   2.384   1.139   2.367  0.0148 -0.2599  0.2815
  764SOL     OW 3053   0.368   0.190   2.827  0.6165  0.0143 -0.2600
  764SOL    HW1 3054   0.305   0.212   2.759  2.6015  0.7320 -2.8718
  764SOL    HW2 3055   0.348   0.248   2.903 -1.3554  1.6701 -0.7558
  764SOL     MW 3056   0.357   0.201   2.828  0.6182  0.3275 -0.6700
  765SOL     OW 3057   2.676   0.098   2.291 -0.3085 -0.6693 -0.1388
  765SOL    HW1 3058   2.628   0.081   2.208  1.1062 -0.3237 -1.9599
  765SOL    HW2 3059   2.726   0.018   2.296 -0.2075  0.4858 -0.7039
  765SOL     MW 3060   2.676   0.085   2.280 -0.1085 -0.4713 -0.4536
  766SOL     OW 3061   1.855   3.028   2.134  0.4188  0.2172 -0.2322
  766SOL    HW1 3062   1.927   3.050   2.075 -3.1039  0.9511 -2.6136
  766SOL    HW2 3063   1.794   2.982   2.074  1.3159 -0.5694  0.7245
  766SOL     MW 3064   1.856   3.024   2.118  0.0723  0.2102 -0.4201
  767SOL     OW 3065   2.687   0.657   1.897 -0.1366  0.5693  0.6089
  767SOL    HW1 3066   2.729   0.720   1.959  3.2164  0.4226  1.5576
  767SOL    HW2 3067   2.604   0.646   1.934  1.3584  1.3273 -0.2763
  767SOL     MW 3068   2.682   0.664   1.910  0.5030  0.6500  0.6173
  768SOL     OW 3069   0.061   1.542   2.966  0.3450 -0.3100  0.3636
  768SOL    HW1 3070   0.084   1.495   3.047 -0.2587 -1.2004 -0.1383
  768SOL    HW2 3071   0.073   1.488   2.892 -0.2273 -0.3730  2.9120
  768SOL     MW 3072   0.065   1.529   2.967  0.1898 -0.4358  0.6336
  769SOL     OW 3073   2.351   0.670   2.345 -0.3034 -0.0850 -0.3635
  769SOL    HW1 3074   2.281   0.621   2.312 -0.7788  1.0448 -0.7294
  769SOL    HW2 3075   2.423   0.622   2.304  0.2162  0.3803 -0.5890
  769SOL     MW 3076   2.351   0.657   2.336 -0.2975  0.1255 -0.4415
  770SOL     OW 3077   0.022   1.658   2.601  0.7738  0.2389  0.5054
  770SOL    HW1 3078  -0.064   1.665   2.649  0.9768 -1.1211  1.6601
  770SOL    HW2 3079   0.069   1.577   2.631 -0.1423  2.8816  0.2312
  770SOL     MW 3080   0.017   1.648   2.611  0.6797  0.4081  0.6216
  771SOL     OW 3081   3.061   0.663   1.945 -0.0739  0.8094 -0.0641
  771SOL    HW1 3082   3.011   0.638   1.856 -0.9967 -3.1092  0.6856
  771SOL    HW2 3083   3.148   0.631   1.930  0.6488  2.2455  5.3365
  771SOL     MW 3084   3.066   0.655   1.931 -0.1003  0.4819  0.7474
  772SOL     OW 3085   3.086   0.027   2.288  0.1129 -0.2365 -0.0604
  772SOL    HW1 3086   2.997  -0.021   2.292 -2.7548 -1.5239  0.1687
  772SOL    HW2 3087   3.155  -0.039   2.277 -0.9337 -2.3165 -0.8738
  772SOL     MW 3088   3.083   0.012   2.287 -0.4035 -0.6808 -0.1375
  773SOL     OW 3089   2.434   2.834   2.756 -0.2503 -0.2513 -0.2008
  773SOL    HW1 3090   2.430   2.744   2.716 -2.3608 -0.7275 -0.3485
  773SOL    HW2 3091   2.418   2.810   2.846  0.7135  0.7521 -0.1209
  773SOL     MW 3092   2.432   2.819   2.762 -0.4016 -0.1817 -0.2098
  774SOL     OW 3093   2.288   1.166   1.735  0.0040  0.0039 -0.0170
  774SOL    HW1 3094   2.279   1.243   1.677  0.6827  1.3271 -1.6628
  774SOL    HW2 3095   2.247   1.096   1.694  0.4578 -1.8335  3.4030
  774SOL     MW 3096   2.282   1.167   1.722  0.1534 -0.0640  0.2171
  775SOL     OW 3097   2.234   3.019   2.401 -0.1236  0.2486 -0.2077
  775SOL    HW1 3098   2.250   3.092   2.340 -3.2492  0.8672 -0.4251
  775SOL    HW2 3099   2.314   2.966   2.396 -0.5970 -1.4679  1.5565
  775SOL     MW 3100   2.247   3.022   2.393 -0.5985  0.1037 -0.0036
  776SOL     OW 3101   0.143   1.458   0.142  0.0501 -0.3534  0.2053
  776SOL    HW1 3102   0.232   1.418   0.155 -0.0617 -0.2439 -0.9711
  776SOL    HW2 3103   0.084   1.385   0.144  0.9417  0.0191  1.4908
  776SOL     MW 3104   0.147   1.443   0.144  0.1530 -0.2898  0.2197
  777SOL     OW 3105   3.004   1.071   1.712  0.4932 -0.0268 -0.4940
  777SOL    HW1 3106   3.008   1.134   1.636 -1.0624  2.3590  0.3245
  777SOL    HW2 3107   2.913   1.061   1.749 -0.3668 -0.8664  1.4928
  777SOL     MW 3108   2.993   1.078   1.707  0.1745  0.1772 -0.1239
  778SOL     OW 3109   2.839   0.441   2.761  0.3581 -0.3341  0.1439
  778SOL    HW1 3110   2.796   0.443   2.845  1.5768 -0.0473 -2.6737
  778SOL    HW2 3111   2.862   0.527   2.724  1.0154  1.5251 -1.7423
  778SOL     MW 3112   2.837   0.453   2.767  0.6056 -0.0509 -0.4768
  779SOL     OW 3113   2.094   0.550   2.217 -0.3657  0.1545  0.4159
  779SOL    HW1 3114   2.019   0.602   2.227 -1.2161 -0.1583  2.9377
  779SOL    HW2 3115   2.107   0.505   2.301  2.5123  0.5845  3.9306
  779SOL     MW 3116   2.085   0.551   2.229 -0.0982  0.1700  1.2124
  780SOL     OW 3117   0.107   0.223   2.724 -0.3973 -0.3180  1.0743
  780SOL    HW1 3118   0.125   0.276   2.797 -1.4561 -0.9229  1.9927
  780SOL    HW2 3119   0.014   0.218   2.704 -0.5884 -0.0468  0.2353
  780SOL     MW 3120   0.097   0.229   2.731 -0.5622 -0.3620  1.0847
  781SOL     OW 3121   3.033   1.317   2.513  0.1964  0.3231 -0.0719
  781SOL    HW1 3122   3.016   1.375   2.437 -0.5418 -0.9952 -0.9523
  781SOL    HW2 3123   3.057   1.232   2.474 -1.2552 -1.6161  3.7766
  781SOL     MW 3124   3.034   1.313   2.498 -0.0925 -0.1067  0.3197
  782SOL     OW 3125   0.709   1.505  -0.004  0.6461 -0.7072  0.0100
  782SOL    HW1 3126   0.631   1.559   0.016 -1.1997  1.9092  0.3810
  782SOL    HW2 3127   0.767   1.502   0.079  1.2923 -1.5319 -0.6596
  782SOL     MW 3128   0.706   1.511   0.009  0.4878 -0.4708 -0.0294
  783SOL     OW 3129   2.728   0.519   2.416  0.1615 -0.4845 -0.7122
  783SOL    HW1 3130   2.664   0.523   2.346  1.2724 -0.8501 -0.3962
  783SOL    HW2 3131   2.673   0.505   2.497  1.1778  1.0832 -0.0311
  783SOL     MW 3132   2.712   0.518   2.418  0.4421 -0.3259 -0.5806
  784SOL     OW 3133   0.177   0.831   2.776 -0.0969  0.0711  0.3731
  784SOL    HW1 3134   0.116   0.900   2.792 -2.5111 -0.5187  0.0328
  784SOL    HW2 3135   0.269   0.873   2.748  1.9669  0.5737  0.3955
  784SOL     MW 3136   0.181   0.846   2.774 -0.1431  0.0596  0.3312
  785SOL     OW 3137   0.417   0.518   2.175 -0.3251 -0.1152  0.3537
  785SOL    HW1 3138   0.430   0.554   2.088  0.2461 -2.0454 -0.7847
  785SOL    HW2 3139   0.334   0.473   2.170  0.2716  1.5442 -1.9187
  785SOL     MW 3140   0.408   0.517   2.163 -0.1710 -0.1509 -0.0963
  786SOL     OW 3141   1.975   0.319   2.933  0.1498  0.5451  0.2565
  786SOL    HW1 3142   1.974   0.409   2.952 -1.5022 -0.6508 -0.3230
  786SOL    HW2 3143   2.022   0.308   2.848 -0.2157  3.8403 -0.0452
  786SOL     MW 3144   1.981   0.329   2.924 -0.1164  0.8221  0.1402
  787SOL     OW 3145   2.412   0.202   2.904 -0.3731  0.2616  0.1463
  787SOL    HW1 3146   2.459   0.123   2.864  0.4719 -1.3375 -1.0749
  787SOL    HW2 3147   2.478   0.237   2.958  1.9846  0.6518 -0.1090
  787SOL     MW 3148   2.427   0.196   2.906  0.0495  0.1021 -0.0485
  788SOL     OW 3149   2.861   3.003   2.345  0.0353  0.3698  0.3876
  788SOL    HW1 3150   2.889   2.994   2.439 -3.0193  3.5071  1.7219
  788SOL    HW2 3151   2.891   2.912   2.323  0.0380 -0.7816 -1.2493
  788SOL     MW 3152   2.868   2.990   2.354 -0.3674  0.6318  0.3477
  789SOL     OW 3153   0.085   0.175   3.050  0.1739  0.6657 -0.3118
  789SOL    HW1 3154   0.008   0.117   3.076 -2.4263 -0.3754 -0.7332
  789SOL    HW2 3155   0.036   0.249   3.015 -1.1175  0.8369 -0.7842
  789SOL     MW 3156   0.069   0.177   3.049 -0.3395  0.5509 -0.4297
  790SOL     OW 3157   3.100   1.067   2.418 -0.1195  0.0803  0.5311
  790SOL    HW1 3158   3.040   1.014   2.476 -2.1739 -2.4507  1.9011
  790SOL    HW2 3159   3.071   1.063   2.325  3.0942  2.0288 -0.9569
  790SOL     MW 3160   3.088   1.060   2.413  0.0334  0.0034  0.5155
  791SOL     OW 3161   2.590   0.407   2.642  0.1303  0.2458  0.3507
  791SOL    HW1 3162   2.529   0.428   2.708  1.0982 -0.3349 -1.4952
  791SOL    HW2 3163   2.679   0.402   2.687 -0.2288 -0.5638  2.0669
  791SOL     MW 3164   2.594   0.409   2.657  0.2106  0.0623  0.3336
  792SOL     OW 3165   2.349   0.346   2.395  0.0542  0.6119 -0.2511
  792SOL    HW1 3166   2.277   0.379   2.443  0.8507 -3.7316  1.7986
  792SOL    HW2 3167   2.387   0.308   2.470 -2.3288  0.3681 -1.4879
  792SOL     MW 3168   2.344   0.345   2.411 -0.1552  0.0067 -0.1438
  793SOL     OW 3169   1.875   1.144   1.951 -0.6831 -0.3387  0.4156
  793SOL    HW1 3170   1.817   1.169   1.870 -0.4590  0.2829 -0.2218
  793SOL    HW2 3171   1.946   1.084   1.921 -1.1903 -3.0823 -1.4281
  793SOL     MW 3172   1.877   1.140   1.936 -0.7205 -0.6187  0.0882
  794SOL     OW 3173   1.424   2.289   0.145 -0.1170 -0.4756 -0.1700
  794SOL    HW1 3174   1.455   2.343   0.069  1.9590 -1.2509 -3.6992
  794SOL    HW2 3175   1.478   2.318   0.222 -1.7485 -0.9974 -1.8313
  794SOL     MW 3176   1.435   2.300   0.145 -0.0583 -0.6467 -0.8549
  795SOL     OW 3177   2.326   1.032   2.638  0.1472  0.3592 -0.0784
  795SOL    HW1 3178   2.311   1.127   2.673  0.1100  0.1531  0.1751
  795SOL    HW2 3179   2.360   1.060   2.548  0.4899  0.5753 -2.2576
  795SOL     MW 3180   2.329   1.048   2.630  0.1875  0.3605 -0.3325
  796SOL     OW 3181   0.308   0.586   2.790 -0.0519 -0.0452 -0.2104
  796SOL    HW1 3182   0.236   0.639   2.830  1.5210  1.9412 -3.8816
  796SOL    HW2 3183   0.279   0.593   2.701 -0.4682  0.4912  0.5291
  796SOL     MW 3184   0.295   0.594   2.784  0.1007  0.2876 -0.5972
  797SOL     OW 3185   2.622   0.126   2.582 -0.3128 -0.2663 -0.3267
  797SOL    HW1 3186   2.612   0.214   2.580  0.3471 -5.2087 -1.1501
  797SOL    HW2 3187   2.635   0.114   2.487  1.6927  0.5149 -3.7235
  797SOL     MW 3188   2.622   0.136   2.569  0.0389 -0.8153 -0.8835
  798SOL     OW 3189   2.301   0.136   2.237 -0.2291 -0.3349  0.5983
  798SOL    HW1 3190   2.317   0.221   2.284 -0.4581  1.7054  0.3350
  798SOL    HW2 3191   2.370   0.114   2.173 -0.9763 -0.9592 -2.2558
  798SOL     MW 3192   2.312   0.144   2.235 -0.3579 -0.1481  0.1870
  799SOL     OW 3193   2.547   2.952   3.082 -0.1497  0.3066 -0.3488
  799SOL    HW1 3194   2.479   2.883   3.078  1.4680 -1.3713 -0.3243
  799SOL    HW2 3195   2.514   3.038   3.057  1.0492  3.3372  0.9634
  799SOL     MW 3196   2.534   2.954   3.078  0.2220  0.4851 -0.1725
  800SOL     OW 3197   1.962   3.094   1.702 -0.5843  0.1158  0.3687
  800SOL    HW1 3198   1.884   3.037   1.705 -1.3067 -1.3927 -2.2059
  800SOL    HW2 3199   2.003   3.091   1.785  0.8281 -0.8089 -1.0217
  800SOL     MW 3200   1.957   3.086   1.714 -0.4932 -0.2053 -0.1545
  801SOL     OW 3201   2.786   1.293   2.638 -0.2787  0.0833 -0.4988
  801SOL    HW1 3202   2.773   1.196   2.636 -1.2989  2.1706  1.0910
  801SOL    HW2 3203   2.875   1.317   2.604 -0.3388  1.4047 -2.3954
  801SOL     MW 3204   2.796   1.284   2.633 -0.4213  0.5331 -0.5393
  802SOL     OW 3205   2.634   1.524   2.755  0.0212  0.0562 -0.7113
  802SOL    HW1 3206   2.632   1.422   2.749  1.7643 -0.6669  1.1065
  802SOL    HW2 3207   2.724   1.546   2.764 -0.7712  0.2539  3.9470
  802SOL     MW 3208   2.646   1.514   2.756  0.1466 -0.0131  0.1432
  803SOL     OW 3209   2.302   1.336   1.981 -0.5307 -0.0324  0.2984
  803SOL    HW1 3210   2.261   1.320   2.072 -2.2913  0.0149  1.9596
  803SOL    HW2 3211   2.254   1.275   1.925 -1.3915  0.1694  1.6059
  803SOL     MW 3212   2.290   1.326   1.985 -0.8766  0.0005  0.6901
  804SOL     OW 3213   2.306   0.046   3.095  0.2593  0.2911 -0.7070
  804SOL    HW1 3214   2.222   0.100   3.116 -1.9858  0.5264 -0.5818
  804SOL    HW2 3215   2.347   0.102   3.028 -1.7365  1.0400 -1.5480
  804SOL     MW 3216   2.300   0.060   3.089 -0.3003  0.4210 -0.8014
  805SOL     OW 3217   2.680   1.032   2.589 -0.2530 -0.1437  0.0247
  805SOL    HW1 3218   2.658   1.093   2.519  2.0291  1.2593  0.9201
  805SOL    HW2 3219   2.761   0.983   2.559 -0.9809 -3.5624  2.2907
  805SOL     MW 3220   2.688   1.034   2.576 -0.0479 -0.4096  0.4418
  806SOL     OW 3221   2.532   0.474   2.205 -0.0131 -0.3728  0.3961
  806SOL    HW1 3222   2.457   0.421   2.224 -1.7851  0.8304  1.6767
  806SOL    HW2 3223   2.504   0.520   2.123 -1.7572 -3.8319 -0.1721
  806SOL     MW 3224   2.519   0.473   2.197 -0.4770 -0.6704  0.4901
  807SOL     OW 3225   0.037   1.152   1.982  0.5231 -0.5932  0.3364
  807SOL    HW1 3226   0.064   1.059   1.994 -0.8619 -1.0012 -1.8212
  807SOL    HW2 3227  -0.040   1.145   2.039 -1.5777 -3.5218  3.5364
  807SOL     MW 3228   0.030   1.139   1.991  0.0632 -1.0335  0.4739
  808SOL     OW 3229   2.560   3.069   2.800 -0.5456  0.4809 -0.1518
  808SOL    HW1 3230   2.526   2.978   2.772  0.5742  0.2664 -1.0792
  808SOL    HW2 3231   2.579   3.117   2.714 -2.7003  0.0376 -2.4803
  808SOL     MW 3232   2.558   3.063   2.785 -0.6822  0.3941 -0.5814
  809SOL     OW 3233   2.576   1.299   2.420 -0.3944 -0.4931  0.0465
  809SOL    HW1 3234   2.643   1.342   2.474 -1.1824  2.5240 -4.8095
  809SOL    HW2 3235   2.620   1.289   2.335 -0.4993 -2.1467 -0.8721
  809SOL     MW 3236   2.591   1.303   2.416 -0.5122 -0.3132 -0.7154
  810SOL     OW 3237   2.194   1.280   2.237  0.2459  0.1811 -0.0972
  810SOL    HW1 3238   2.250   1.214   2.288  2.2715 -1.2326 -0.3027
  810SOL    HW2 3239   2.111   1.230   2.226  0.6855  0.7757  0.2437
  810SOL     MW 3240   2.191   1.265   2.242  0.5711  0.0730 -0.0793
  811SOL     OW 3241   1.556   0.142   2.323 -0.0382 -0.0024 -0.4079
  811SOL    HW1 3242   1.615   0.077   2.358 -2.6933  1.9245  3.2648
  811SOL    HW2 3243   1.567   0.127   2.225 -1.0730  0.2164 -1.0779
  811SOL     MW 3244   1.566   0.132   2.315 -0.5250  0.2807 -0.0117
  812SOL     OW 3245   1.480   2.876   2.090  0.4282  0.2208  0.7585
  812SOL    HW1 3246   1.568   2.868   2.055 -2.5347  0.4960  1.9805
  812SOL    HW2 3247   1.480   2.829   2.171  0.7001  1.0848 -0.9614
  812SOL     MW 3248   1.492   2.868   2.096  0.0731  0.3711  0.6928
  813SOL     OW 3249   1.882   0.736   2.184 -0.0096 -0.5923 -0.3256
  813SOL    HW1 3250   1.838   0.658   2.211  1.1376  2.9475 -1.4679
  813SOL    HW2 3251   1.885   0.792   2.263  0.0664  2.5435 -0.5282
  813SOL     MW 3252   1.876   0.733   2.198  0.1518  0.2885 -0.5030
  814SOL     OW 3253   2.731   1.264   1.595 -0.0477  0.4099  0.3088
  814SOL    HW1 3254   2.647   1.245   1.628  0.6388 -0.2599  2.0247
  814SOL    HW2 3255   2.743   1.222   1.514  1.3635  1.3617 -1.8024
  814SOL     MW 3256   2.722   1.256   1.588  0.2291  0.4471  0.2566
  815SOL     OW 3257   2.514   1.691   2.336 -0.2753 -0.6891 -0.4490
  815SOL    HW1 3258   2.446   1.627   2.343 -2.8346 -1.6366  0.8962
  815SOL    HW2 3259   2.598   1.646   2.371  0.4812  1.3172 -2.3376
  815SOL     MW 3260   2.516   1.676   2.342 -0.5132 -0.5494 -0.5207
  816SOL     OW 3261   0.780   0.658   2.760  0.0078  0.5400  0.4322
  816SOL    HW1 3262   0.786   0.575   2.803 -2.0658  0.5642  1.2345
  816SOL    HW2 3263   0.683   0.681   2.747  0.4007 -0.0117  0.3127
  816SOL     MW 3264   0.768   0.650   2.764 -0.2139  0.4704  0.5223
  817SOL     OW 3265   3.048   1.234   1.499  0.6667  0.5101  0.0771
  817SOL    HW1 3266   3.138   1.210   1.513 -0.3489 -1.5173  1.5568
  817SOL    HW2 3267   3.040   1.328   1.468  1.0809 -1.3262  1.6011
  817SOL     MW 3268   3.059   1.243   1.497  0.5873  0.0003  0.4734
  818SOL     OW 3269   1.912   1.028   2.658  0.4152  0.6087  0.2513
  818SOL    HW1 3270   1.872   1.030   2.571 -1.8285  0.0076 -0.6281
  818SOL    HW2 3271   1.993   0.980   2.651 -0.2937 -1.1628 -1.1206
  818SOL     MW 3272   1.917   1.022   2.646  0.0257  0.2957 -0.0457
  819SOL     OW 3273   1.905   0.200   2.465 -0.0479  1.0258  0.3365
  819SOL    HW1 3274   1.845   0.270   2.487  0.3425 -3.0571 -1.0542
  819SOL    HW2 3275   1.961   0.184   2.538 -1.0602 -1.5219 -1.8567
  819SOL     MW 3276   1.904   0.207   2.477 -0.1299  0.1510 -0.1364
  820SOL     OW 3277   2.475   1.717   2.623 -0.1735 -0.6791 -0.3575
  820SOL    HW1 3278   2.522   1.640   2.665 -1.7243 -0.4393  1.4437
  820SOL    HW2 3279   2.496   1.728   2.532  1.9034 -1.9909 -0.0590
  820SOL     MW 3280   2.484   1.708   2.617 -0.1041 -0.8205 -0.0805
  821SOL     OW 3281   2.556   1.400   1.980  0.0209 -0.4942 -0.4405
  821SOL    HW1 3282   2.577   1.494   1.947 -2.1790  1.7265 -0.9364
  821SOL    HW2 3283   2.463   1.390   2.001  1.3110  1.5411 -2.6476
  821SOL     MW 3284   2.546   1.411   1.978 -0.0992  0.0673 -0.7972
  822SOL     OW 3285   2.732   2.636   1.448  0.0967  0.1305  0.9102
  822SOL    HW1 3286   2.755   2.652   1.541  1.1491 -1.4915  0.3388
  822SOL    HW2 3287   2.656   2.691   1.423  1.5260 -1.0385  3.0002
  822SOL     MW 3288   2.725   2.645   1.457  0.4241 -0.2378  1.1105
  823SOL     OW 3289   2.257   0.508   1.745 -0.1836  0.2182  0.1538
  823SOL    HW1 3290   2.332   0.456   1.711  1.0393  1.9357  1.0999
  823SOL    HW2 3291   2.181   0.458   1.721  0.6126  1.5549 -0.6549
  823SOL     MW 3292   2.257   0.494   1.738  0.0828  0.6212  0.1720
  824SOL     OW 3293   2.086   1.415   2.567  0.8086 -0.4084  0.5077
  824SOL    HW1 3294   2.134   1.441   2.487  0.2613 -1.9661 -0.3277
  824SOL    HW2 3295   2.038   1.492   2.599  1.5258  0.1888 -0.2571
  824SOL     MW 3296   2.086   1.429   2.561  0.8310 -0.5351  0.2965
  825SOL     OW 3297   1.972   2.568   0.285  0.5186  0.0441 -0.6502
  825SOL    HW1 3298   1.969   2.483   0.331  1.7612  0.3271  2.1679
  825SOL    HW2 3299   2.040   2.547   0.218  4.0297  0.4518  0.0865
  825SOL     MW 3300   1.981   2.554   0.282  1.1458  0.1353 -0.1812
  826SOL     OW 3301   1.899   2.383   0.501 -0.1556  0.8282 -0.0078
  826SOL    HW1 3302   1.852   2.316   0.558 -1.8298 -0.4337  0.7999
  826SOL    HW2 3303   1.868   2.460   0.550 -0.0366  1.8685  0.7367
  826SOL     MW 3304   1.889   2.384   0.515 -0.3608  0.7990  0.1970
  827SOL     OW 3305   1.921   2.229   0.931 -0.2957  0.2624 -0.1644
  827SOL    HW1 3306   1.857   2.297   0.919 -3.1478  0.5510  0.3581
  827SOL    HW2 3307   1.865   2.157   0.947 -0.1745  3.4441  1.9055
  827SOL     MW 3308   1.905   2.228   0.932 -0.6560  0.7203  0.1777
  828SOL     OW 3309   0.047   2.602   0.577 -0.3197  0.5464 -1.0350
  828SOL    HW1 3310   0.137   2.632   0.576 -0.9422 -1.5061  2.2633
  828SOL    HW2 3311   0.013   2.627   0.493  0.0541 -0.0560  1.2521
  828SOL     MW 3312   0.054   2.609   0.566 -0.3525  0.1961 -0.2980
  829SOL     OW 3313   2.911   2.952   1.211 -0.1607 -0.0871  0.5669
  829SOL    HW1 3314   2.835   2.925   1.158 -0.8703  0.0980  0.6618
  829SOL    HW2 3315   2.958   2.870   1.222 -0.3885  0.1160  2.6978
  829SOL     MW 3316   2.907   2.938   1.205 -0.2843 -0.0359  0.8606
  830SOL     OW 3317   2.507   2.856   2.037 -0.3565  0.3722 -0.7554
  830SOL    HW1 3318   2.421   2.856   1.997  0.9597 -1.4231 -1.2792
  830SOL    HW2 3319   2.564   2.803   1.975  2.1134  0.5160  0.4705
  830SOL     MW 3320   2.503   2.849   2.024  0.1431  0.1543 -0.6628
  831SOL     OW 3321   2.404   2.433   1.315  0.0991 -0.4930  0.3853
  831SOL    HW1 3322   2.349   2.395   1.385 -1.3017  1.6867 -2.5918
  831SOL    HW2 3323   2.481   2.372   1.300 -0.8056  0.5475  0.0104
  831SOL     MW 3324   2.407   2.420   1.322 -0.2051 -0.0681 -0.0570
  832SOL     OW 3325   2.421   2.187   1.908  0.0606  0.1427  0.3989
  832SOL    HW1 3326   2.446   2.281   1.922 -1.1284 -0.7400 -0.4483
  832SOL    HW2 3327   2.504   2.151   1.874 -0.5165 -1.0175 -2.6959
  832SOL     MW 3328   2.435   2.194   1.905 -0.1724 -0.1268 -0.1213
  833SOL     OW 3329   1.787   2.455   0.892 -0.1024 -0.2101  0.2914
  833SOL    HW1 3330   1.715   2.401   0.894  1.5517  2.3350 -0.1257
  833SOL    HW2 3331   1.758   2.530   0.950  0.4467 -2.3135 -1.7487
  833SOL     MW 3332   1.774   2.458   0.900  0.1883 -0.1518 -0.0328
  834SOL     OW 3333   2.209   2.489   0.584  0.5262  0.1899  0.3511
  834SOL    HW1 3334   2.140   2.427   0.587  3.6318 -0.2354 -2.4094
  834SOL    HW2 3335   2.228   2.485   0.495 -2.7289 -0.4871 -0.0850
  834SOL     MW 3336   2.202   2.480   0.573  0.5064  0.0444 -0.0706
  835SOL     OW 3337   1.789   2.583   0.632 -0.3309 -0.9547 -0.1373
  835SOL    HW1 3338   1.792   2.519   0.704  0.4802  1.6902 -1.1510
  835SOL    HW2 3339   1.868   2.642   0.647  2.3015  0.1726 -1.5260
  835SOL     MW 3340   1.800   2.582   0.644  0.1235 -0.4570 -0.4542
  836SOL     OW 3341   1.932   2.204   1.608 -0.3514  0.1937 -0.1077
  836SOL    HW1 3342   2.015   2.209   1.659 -1.0432 -0.8556  2.4659
  836SOL    HW2 3343   1.907   2.298   1.614 -0.2215  0.8298  0.8225
  836SOL     MW 3344   1.939   2.217   1.616 -0.4256  0.1392  0.3546
  837SOL     OW 3345   2.133   0.201   0.699  0.3863  0.0147 -0.3996
  837SOL    HW1 3346   2.049   0.237   0.682  3.4010  1.9034 -1.4043
  837SOL    HW2 3347   2.144   0.133   0.632 -0.0619 -0.9263 -3.4575
  837SOL     MW 3348   2.124   0.197   0.688  0.7249  0.1397 -0.9356
  838SOL     OW 3349   2.933   2.158   0.880  0.0758 -0.1587 -0.6885
  838SOL    HW1 3350   2.857   2.117   0.930 -1.0445 -1.5194 -1.1005
  838SOL    HW2 3351   2.984   2.085   0.854 -0.2933  1.6345 -0.0852
  838SOL     MW 3352   2.930   2.143   0.884 -0.1208 -0.1016 -0.6632
  839SOL     OW 3353   1.550   2.331   0.951  0.3188  0.1383 -0.4887
  839SOL    HW1 3354   1.517   2.406   0.999  1.3512  0.7532  1.3351
  839SOL    HW2 3355   1.549   2.257   1.017 -0.4352  1.4473  1.0307
  839SOL     MW 3356   1.546   2.331   0.966  0.3556  0.3922 -0.0476
  840SOL     OW 3357   2.295   2.110   2.408 -0.3911  0.4572 -0.2932
  840SOL    HW1 3358   2.288   2.183   2.337  2.5849  4.1911 -1.2367
  840SOL    HW2 3359   2.349   2.144   2.481  0.2272  0.0482  0.7181
  840SOL     MW 3360   2.301   2.124   2.409  0.0831  0.8959 -0.2843
  841SOL     OW 3361   2.131   2.438   0.109  0.4437  0.1236 -0.0768
  841SOL    HW1 3362   2.181   2.448   0.029 -2.4274 -1.3431 -0.6271
  841SOL    HW2 3363   2.066   2.362   0.100 -0.7361  0.5939  0.6917
  841SOL     MW 3364   2.129   2.430   0.097 -0.0908 -0.0078 -0.0480
  842SOL     OW 3365   2.685   1.915   1.596  0.3592  0.1459 -0.2502
  842SOL    HW1 3366   2.617   1.848   1.578  1.5203  0.1977 -0.9283
  842SOL    HW2 3367   2.661   1.988   1.542 -0.3270  1.6203 -1.0580
  842SOL     MW 3368   2.673   1.916   1.587  0.4219  0.3473 -0.4463
  843SOL     OW 3369   2.612   2.747   1.779  0.4495  0.4133  0.0359
  843SOL    HW1 3370   2.705   2.722   1.778 -0.8337 -0.2558  2.1367
  843SOL    HW2 3371   2.578   2.657   1.756 -2.0177 -0.8071 -0.9985
  843SOL     MW 3372   2.620   2.732   1.776 -0.0453  0.1640  0.1766
  844SOL     OW 3373   2.615   2.289   1.208  0.2670 -0.4398  0.4222
  844SOL    HW1 3374   2.644   2.332   1.124  2.1105  1.1352 -1.9470
  844SOL    HW2 3375   2.679   2.317   1.280 -1.4937 -0.2262 -1.5823
  844SOL     MW 3376   2.627   2.298   1.206  0.2779 -0.2038 -0.1549
  845SOL     OW 3377   2.850   2.449   0.312 -0.1852 -0.1505  0.5438
  845SOL    HW1 3378   2.799   2.374   0.340 -1.6007 -0.6764 -1.4645
  845SOL    HW2 3379   2.886   2.487   0.388  1.3234 -1.8564  0.7917
  845SOL     MW 3380   2.848   2.444   0.326 -0.1729 -0.4450  0.3115
  846SOL     OW 3381   1.520   2.870   0.766 -0.0537 -0.1770 -0.4227
  846SOL    HW1 3382   1.607   2.890   0.802 -1.6723 -1.0663 -0.4502
  846SOL    HW2 3383   1.470   2.930   0.822 -0.6183  0.9703  1.9647
  846SOL     MW 3384   1.525   2.881   0.778 -0.3418 -0.1430 -0.1113
  847SOL     OW 3385   2.531   1.895   0.153 -0.2940 -0.3535 -0.0178
  847SOL    HW1 3386   2.584   1.820   0.194 -0.8368 -1.8611  1.5414
  847SOL    HW2 3387   2.460   1.857   0.105 -2.0493 -1.7226 -0.2649
  847SOL     MW 3388   2.528   1.880   0.152 -0.5972 -0.7331  0.1553
  848SOL     OW 3389   2.546   2.069   1.407 -0.0201 -0.2164  0.1116
  848SOL    HW1 3390   2.590   2.080   1.324  0.2723 -2.8176 -1.3845
  848SOL    HW2 3391   2.482   2.002   1.382  1.0406 -2.4104 -0.6823
  848SOL     MW 3392   2.543   2.062   1.393  0.1584 -0.8491 -0.1906
  849SOL     OW 3393   1.980   2.732   0.747  0.7698  0.6269 -0.7232
  849SOL    HW1 3394   2.021   2.658   0.797  1.8010 -0.1070  1.2402
  849SOL    HW2 3395   2.054   2.763   0.698 -2.6886 -0.7612 -2.5599
  849SOL     MW 3396   1.995   2.726   0.747  0.4495  0.3469 -0.7065
  850SOL     OW 3397   2.219   1.946   1.624  0.5254 -0.6767  0.2158
  850SOL    HW1 3398   2.136   1.904   1.596  0.2608  0.5879 -3.3904
  850SOL    HW2 3399   2.188   2.033   1.646 -1.5192 -0.3438  1.0091
  850SOL     MW 3400   2.204   1.952   1.623  0.2207 -0.4659 -0.1553
  851SOL     OW 3401   2.281   2.404   0.334  0.2260  0.4440  0.1768
  851SOL    HW1 3402   2.227   2.415   0.253 -0.1213 -2.8790  1.8693
  851SOL    HW2 3403   2.354   2.470   0.325 -2.8715 -1.1057  1.2463
  851SOL     MW 3404   2.283   2.414   0.322 -0.2285 -0.1989  0.5412
  852SOL     OW 3405   2.376   2.144   0.301  0.0074 -0.8124  0.3030
  852SOL    HW1 3406   2.372   2.237   0.318 -1.6836 -1.3197 -0.0712
  852SOL    HW2 3407   2.451   2.114   0.246 -2.3351  1.7723  1.1744
  852SOL     MW 3408   2.385   2.152   0.296 -0.5248 -0.5383  0.3686
  853SOL     OW 3409   2.497   2.439   1.997  0.2957 -0.1091 -0.0265
  853SOL    HW1 3410   2.504   2.476   1.907 -0.4821 -1.0198  0.6271
  853SOL    HW2 3411   2.585   2.440   2.032 -3.9064 -0.8682 -0.3256
  853SOL     MW 3412   2.510   2.444   1.989 -0.3613 -0.3294  0.0202
  854SOL     OW 3413   2.819   2.352   0.747 -0.0163  0.8185  0.3529
  854SOL    HW1 3414   2.749   2.296   0.720  0.4147 -1.8886  0.9769
  854SOL    HW2 3415   2.868   2.292   0.809  1.5803 -1.4349 -0.7340
  854SOL     MW 3416   2.816   2.337   0.751  0.2512  0.1640  0.2918
  855SOL     OW 3417   2.701   2.224   0.394 -0.4609 -0.3784  0.2726
  855SOL    HW1 3418   2.673   2.308   0.442  2.7647  0.4110 -0.0406
  855SOL    HW2 3419   2.787   2.187   0.422  0.1031 -3.9212  2.9860
  855SOL     MW 3420   2.709   2.231   0.404  0.0391 -0.7417  0.5893
  856SOL     OW 3421   2.199   1.943   0.176  0.1791 -0.0957 -0.5361
  856SOL    HW1 3422   2.113   1.935   0.218 -1.0508 -1.2658 -0.1877
  856SOL    HW2 3423   2.232   2.023   0.219  0.9378 -0.8811  2.7619
  856SOL     MW 3424   2.192   1.953   0.187  0.1169 -0.3537 -0.0550
  857SOL     OW 3425   2.610   2.002   0.486 -0.0880  0.6574 -0.1217
  857SOL    HW1 3426   2.641   2.087   0.444 -1.5193 -0.5190 -0.2814
  857SOL    HW2 3427   2.561   1.952   0.417  2.8382  3.9305  2.0510
  857SOL     MW 3428   2.608   2.006   0.471  0.1092  0.9340  0.1439
  858SOL     OW 3429   2.860   2.659   1.695  0.6775 -0.0257 -0.0047
  858SOL    HW1 3430   2.948   2.692   1.718 -1.0639  1.0798 -1.6077
  858SOL    HW2 3431   2.847   2.575   1.729 -0.0192  1.9032  2.0452
  858SOL     MW 3432   2.870   2.652   1.703  0.3558  0.3747  0.0543
  859SOL     OW 3433   2.151   2.573   0.906 -0.5246 -0.0997  0.2525
  859SOL    HW1 3434   2.108   2.500   0.958  1.3729 -0.5313  3.0258
  859SOL    HW2 3435   2.241   2.542   0.891 -1.7396  0.2478 -1.7502
  859SOL     MW 3436   2.157   2.560   0.911 -0.4345 -0.1108  0.3541
  860SOL     OW 3437   2.666   2.601   0.179  0.4034 -0.0657 -0.1259
  860SOL    HW1 3438   2.731   2.551   0.225 -0.9133 -0.6043 -4.6217
  860SOL    HW2 3439   2.711   2.646   0.111 -0.8830 -2.6654 -0.0808
  860SOL     MW 3440   2.680   2.600   0.176  0.0600 -0.4798 -0.7132
  861SOL     OW 3441   1.551   2.151   1.147  0.3592  0.1448  0.3283
  861SOL    HW1 3442   1.566   2.221   1.209  1.0351  0.2028  0.1466
  861SOL    HW2 3443   1.494   2.093   1.195  0.0182 -0.3270 -1.8709
  861SOL     MW 3444   1.545   2.153   1.161  0.4034  0.0902  0.0142
  862SOL     OW 3445   2.426   1.784   1.546  0.2951 -0.2817  0.5867
  862SOL    HW1 3446   2.357   1.847   1.571 -1.0220  1.7135 -0.8407
  862SOL    HW2 3447   2.411   1.777   1.453 -0.9679  4.3277 -1.1822
  862SOL     MW 3448   2.415   1.791   1.537 -0.0453  0.5897  0.1650
  863SOL     OW 3449   3.028   1.846   1.045 -0.3267 -0.7564 -0.0107
  863SOL    HW1 3450   3.096   1.813   1.102  0.0803 -0.1121 -2.6546
  863SOL    HW2 3451   2.981   1.899   1.109 -0.2080 -0.4454  1.2155
  863SOL     MW 3452   3.030   1.849   1.061 -0.2574 -0.6304 -0.1978
  864SOL     OW 3453   3.074   1.921   0.791 -0.4228  0.1580 -0.0356
  864SOL    HW1 3454   3.056   1.899   0.883 -1.7039 -0.7914 -0.5525
  864SOL    HW2 3455   3.037   1.846   0.732 -0.8289 -1.8579  3.8668
  864SOL     MW 3456   3.067   1.908   0.795 -0.6454 -0.2333  0.4111
  865SOL     OW 3457   2.617   2.131   0.003 -0.4220  0.1474 -0.1059
  865SOL    HW1 3458   2.628   2.043   0.041  4.0800  0.6886 -3.2041
  865SOL    HW2 3459   2.559   2.122  -0.072  1.0579 -0.0400 -0.0503
  865SOL     MW 3460   2.611   2.119  -0.002  0.3673  0.1941 -0.5073
  866SOL     OW 3461   2.687   2.315   1.634  0.0737  0.1467 -0.3921
  866SOL    HW1 3462   2.667   2.225   1.658  2.7957 -0.3698 -1.5097
  866SOL    HW2 3463   2.755   2.314   1.561  2.6900 -0.6984  1.0758
  866SOL     MW 3464   2.693   2.303   1.628  0.7781 -0.0329 -0.3459
  867SOL     OW 3465   0.018   2.701   1.798  0.0795  0.7207 -0.0235
  867SOL    HW1 3466   0.035   2.681   1.889  0.4788 -1.0955  2.1001
  867SOL    HW2 3467   0.003   2.796   1.795 -0.4231 -0.1183  0.7834
  867SOL     MW 3468   0.018   2.711   1.810  0.0659  0.3703  0.3631
  868SOL     OW 3469   2.829   2.598   0.562 -0.1138 -0.7634 -0.3628
  868SOL    HW1 3470   2.749   2.545   0.556 -1.1737 -0.2878  0.1773
  868SOL    HW2 3471   2.805   2.687   0.524  0.1601 -1.5172 -0.9957
  868SOL     MW 3472   2.815   2.603   0.556 -0.2175 -0.8001 -0.3750
  869SOL     OW 3473   2.066   2.371   1.174  0.8648 -0.0231  0.1125
  869SOL    HW1 3474   2.158   2.380   1.144  0.4437  0.0006  0.5663
  869SOL    HW2 3475   2.027   2.307   1.114  0.4004  0.0763  1.6977
  869SOL     MW 3476   2.073   2.364   1.162  0.7479 -0.0069  0.3815
  870SOL     OW 3477   2.154   3.100   0.474  0.0016  0.3197  0.0140
  870SOL    HW1 3478   2.221   3.145   0.417  3.1936  1.6057 -1.2433
  870SOL    HW2 3479   2.184   3.010   0.455 -1.2182 -0.3410  2.0203
  870SOL     MW 3480   2.167   3.094   0.464  0.2618  0.4022  0.1128
  871SOL     OW 3481   2.488   2.124   0.948 -0.4626  0.4267 -0.0008
  871SOL    HW1 3482   2.433   2.052   0.910  2.2368  0.9591  0.5032
  871SOL    HW2 3483   2.428   2.187   0.993 -0.5051  0.4852 -0.7555
  871SOL     MW 3484   2.473   2.123   0.949 -0.1120  0.5046 -0.0339
  872SOL     OW 3485   2.017   2.561   1.518 -0.6711  0.1072  0.6687
  872SOL    HW1 3486   1.980   2.594   1.603 -1.8550 -2.2722  1.2715
  872SOL    HW2 3487   1.960   2.491   1.483 -1.3647  0.8787 -0.7943
  872SOL     MW 3488   2.005   2.556   1.524 -0.9188 -0.1050  0.5552
  873SOL     OW 3489   2.937   2.058   1.911 -0.1816  0.4827  0.2820
  873SOL    HW1 3490   2.942   2.132   1.973 -0.6441 -0.2694  1.7449
  873SOL    HW2 3491   2.974   2.083   1.830  1.7656  1.5721 -0.4304
  873SOL     MW 3492   2.943   2.071   1.909  0.0143  0.5272  0.3810
  874SOL     OW 3493   2.283   1.488   2.372 -0.6949 -0.3392 -0.0485
  874SOL    HW1 3494   2.241   1.420   2.312  0.8685 -0.0663  2.8034
  874SOL    HW2 3495   2.325   1.427   2.431 -1.2907 -1.2010 -1.5495
  874SOL     MW 3496   2.283   1.471   2.372 -0.5672 -0.4169  0.1298
  875SOL     OW 3497   2.328   2.328   1.064  0.4543  0.1872 -0.2960
  875SOL    HW1 3498   2.374   2.406   1.027  0.8304 -0.6927 -0.3410
  875SOL    HW2 3499   2.375   2.328   1.147 -0.0596 -1.1951 -1.2516
  875SOL     MW 3500   2.340   2.338   1.070  0.4361 -0.1113 -0.4280
  876SOL     OW 3501   3.019   2.324   1.235 -0.4959 -0.4005  0.2794
  876SOL    HW1 3502   3.058   2.332   1.148  0.4066  1.0336 -1.3154
  876SOL    HW2 3503   3.086   2.358   1.298 -1.3240 -0.5359  0.2043
  876SOL     MW 3504   3.033   2.330   1.232 -0.4861 -0.2291  0.0591
  877SOL     OW 3505   3.039   2.692   0.341 -0.1551 -0.0254  0.5245
  877SOL    HW1 3506   3.089   2.772   0.349  1.4930 -0.9690  0.3961
  877SOL    HW2 3507   3.029   2.692   0.248  0.3942 -0.5065  1.8562
  877SOL     MW 3508   3.044   2.702   0.330  0.1348 -0.2134  0.6833
  878SOL     OW 3509   2.397   1.843   1.253 -0.2929 -0.1446 -0.3672
  878SOL    HW1 3510   2.325   1.780   1.261 -3.2390  1.2078 -1.2287
  878SOL    HW2 3511   2.481   1.798   1.242  1.2688 -3.2740  3.9141
  878SOL     MW 3512   2.399   1.829   1.253 -0.4755 -0.3790  0.0840
  879SOL     OW 3513   2.658   2.411   0.954  0.1619 -0.0380 -0.1445
  879SOL    HW1 3514   2.718   2.478   0.988  0.4215  0.7865 -1.2202
  879SOL    HW2 3515   2.711   2.379   0.885 -1.4508  1.0044  1.3565
  879SOL     MW 3516   2.673   2.416   0.950 -0.0166  0.2083 -0.0884
  880SOL     OW 3517   2.588   2.204   0.687  0.8421  0.1899 -0.1271
  880SOL    HW1 3518   2.532   2.173   0.766 -3.3353 -2.6027  0.8896
  880SOL    HW2 3519   2.605   2.121   0.637  1.4097  0.6196  0.1948
  880SOL     MW 3520   2.583   2.189   0.691  0.3658 -0.1218  0.0495
  881SOL     OW 3521   2.949   2.725   0.786  0.8398  0.5936  0.3667
  881SOL    HW1 3522   2.915   2.669   0.712 -1.5091  2.7797 -4.4413
  881SOL    HW2 3523   3.044   2.723   0.775  0.1061  1.2816  0.8594
  881SOL     MW 3524   2.957   2.717   0.775  0.4331  0.9728 -0.2026
  882SOL     OW 3525   2.243   2.886   1.932 -0.4478  0.3996 -0.0741
  882SOL    HW1 3526   2.252   2.867   1.838  1.3457  1.4105 -0.9480
  882SOL    HW2 3527   2.179   2.827   1.967  3.8088  1.1045  1.6316
  882SOL     MW 3528   2.236   2.876   1.924  0.3505  0.6260  0.0357
  883SOL     OW 3529   2.294   2.240   1.485 -0.1811 -0.4741 -0.5550
  883SOL    HW1 3530   2.379   2.190   1.472  0.1429 -1.5426  1.0094
  883SOL    HW2 3531   2.220   2.204   1.439 -0.1725 -0.1952  0.8038
  883SOL     MW 3532   2.296   2.229   1.477 -0.1372 -0.5783 -0.1693
  884SOL     OW 3533   1.954   1.825   1.099 -0.0716 -0.8384 -0.9026
  884SOL    HW1 3534   1.894   1.904   1.088  1.6757  0.3248 -1.1787
  884SOL    HW2 3535   2.040   1.876   1.106  0.9268  0.2125 -2.1456
  884SOL     MW 3536   1.957   1.842   1.098  0.2907 -0.5463 -1.1030
  885SOL     OW 3537   2.863   2.401   1.844  0.1594 -0.2260  0.6193
  885SOL    HW1 3538   2.953   2.373   1.821  0.0727 -2.0699  0.4537
  885SOL    HW2 3539   2.808   2.349   1.782 -0.0937 -0.4005  1.8185
  885SOL     MW 3540   2.867   2.391   1.833  0.1146 -0.4923  0.7557
  886SOL     OW 3541   2.797   2.350   1.391 -0.0177 -0.4203  0.4987
  886SOL    HW1 3542   2.872   2.326   1.336 -0.6364 -0.8070 -0.9021
  886SOL    HW2 3543   2.781   2.439   1.365  0.7801 -1.3482 -0.9196
  886SOL     MW 3544   2.805   2.359   1.381  0.0060 -0.5937  0.1267
  887SOL     OW 3545   2.291   2.604   1.529 -0.7011  0.7573 -0.7561
  887SOL    HW1 3546   2.313   2.636   1.441 -0.2799 -1.9928 -2.6795
  887SOL    HW2 3547   2.193   2.577   1.529 -1.6772 -2.0308 -2.0437
  887SOL     MW 3548   2.281   2.604   1.517 -0.7744  0.0266 -1.1798
  888SOL     OW 3549   1.865   2.049   1.381  0.6713 -0.1313  0.2606
  888SOL    HW1 3550   1.947   2.062   1.338  0.8504  0.0534  1.3811
  888SOL    HW2 3551   1.883   2.092   1.469  3.5089 -0.4884  1.0741
  888SOL     MW 3552   1.878   2.056   1.387  1.0693 -0.1540  0.5158
  889SOL     OW 3553   2.306   2.008   2.106  0.0916  0.4555 -0.1133
  889SOL    HW1 3554   2.382   1.997   2.163  0.6301  2.4541 -1.3742
  889SOL    HW2 3555   2.352   2.075   2.057 -2.4707  1.5441  3.8240
  889SOL     MW 3556   2.322   2.016   2.107 -0.1754  0.8628  0.2398
  890SOL     OW 3557   0.131   2.357   0.131 -0.4026 -0.2553  0.1956
  890SOL    HW1 3558   0.062   2.425   0.110  0.1233 -1.2217  0.8518
  890SOL    HW2 3559   0.093   2.314   0.213  1.7559 -1.7827 -0.5414
  890SOL     MW 3560   0.117   2.360   0.139 -0.0484 -0.5843  0.1849
  891SOL     OW 3561   3.035   2.035   1.293  0.1915 -0.7030 -0.0104
  891SOL    HW1 3562   3.108   2.015   1.351 -0.1833 -0.0846 -0.1842
  891SOL    HW2 3563   3.039   2.125   1.258 -1.0093  0.6627 -1.2495
  891SOL     MW 3564   3.045   2.045   1.296 -0.0164 -0.4412 -0.1968
  892SOL     OW 3565   2.424   2.373   2.799 -0.0929  0.6967 -0.4821
  892SOL    HW1 3566   2.423   2.284   2.836  2.3521 -0.2107 -2.9393
  892SOL    HW2 3567   2.524   2.398   2.814  1.5739 -2.4411  1.8815
  892SOL     MW 3568   2.437   2.365   2.806  0.4496  0.1630 -0.4945
  893SOL     OW 3569   1.595   2.384   1.297 -0.4879  0.0443  0.7613
  893SOL    HW1 3570   1.512   2.416   1.329  1.9535  0.8441  1.5225
  893SOL    HW2 3571   1.659   2.400   1.364  0.6968  2.1221 -1.3193
  893SOL     MW 3572   1.593   2.391   1.310 -0.0095  0.4240  0.5872
  894SOL     OW 3573   2.834   1.831   0.469  0.1891  0.2701  0.5500
  894SOL    HW1 3574   2.749   1.865   0.504  3.7835  2.0189 -2.0288
  894SOL    HW2 3575   2.822   1.814   0.371 -1.2233  1.7236 -2.1270
  894SOL     MW 3576   2.821   1.833   0.460  0.4770  0.6926 -0.1435
  895SOL     OW 3577   2.131   2.143   1.293  0.1635 -0.7616 -0.1174
  895SOL    HW1 3578   2.110   2.225   1.253  2.1041  0.1050 -1.9126
  895SOL    HW2 3579   2.163   2.087   1.225 -4.9850  1.1465  0.3356
  895SOL     MW 3580   2.132   2.147   1.279 -0.2598 -0.3955 -0.2945
  896SOL     OW 3581   2.164   2.789   1.088  0.5133 -0.0874  0.3800
  896SOL    HW1 3582   2.225   2.771   1.162  1.8194 -0.4398  2.3969
  896SOL    HW2 3583   2.161   2.709   1.023 -1.0998  0.1659  0.0054
  896SOL     MW 3584   2.171   2.776   1.089  0.4728 -0.1005  0.5967
  897SOL     OW 3585   2.999   2.887   0.114  0.0225 -0.4487 -0.2834
  897SOL    HW1 3586   3.059   2.892   0.035 -1.3775  1.7733 -3.2572
  897SOL    HW2 3587   2.915   2.872   0.064  2.0301  0.0294  1.4696
  897SOL     MW 3588   2.996   2.885   0.097  0.1027 -0.0924 -0.4445
  898SOL     OW 3589   2.090   0.152   1.399 -0.0445 -0.0868 -0.2097
  898SOL    HW1 3590   2.044   0.070   1.416 -0.4448 -2.5253  0.1927
  898SOL    HW2 3591   2.096   0.161   1.303 -0.2248  0.6965  1.0988
  898SOL     MW 3592   2.085   0.142   1.388 -0.1211 -0.3052  0.0161
  899SOL     OW 3593   2.926   2.934   0.632 -0.2268  0.9984 -0.2254
  899SOL    HW1 3594   2.929   2.863   0.696  1.1386  0.0493 -1.0383
  899SOL    HW2 3595   2.856   2.983   0.665  1.7247 -1.2011  1.7695
  899SOL     MW 3596   2.917   2.931   0.645  0.2108  0.5830 -0.0695
  900SOL     OW 3597   0.091   2.435   1.030  0.6642 -0.3716  0.4013
  900SOL    HW1 3598   0.093   2.527   1.005  0.0615 -1.9860 -1.9710
  900SOL    HW2 3599   0.115   2.384   0.949 -2.7711 -2.2193  3.3408
  900SOL     MW 3600   0.095   2.440   1.016  0.1314 -0.8284  0.4762
  901SOL     OW 3601   1.759   2.900   1.677  0.3194  0.5267  0.4230
  901SOL    HW1 3602   1.820   2.822   1.674  0.6550 -0.0968 -1.0524
  901SOL    HW2 3603   1.710   2.888   1.594  0.4698  0.3978 -0.5238
  901SOL     MW 3604   1.761   2.889   1.666  0.3835  0.4274  0.1034
  902SOL     OW 3605   2.666   2.100   1.807  0.5546  0.3332 -0.0449
  902SOL    HW1 3606   2.651   2.019   1.759  1.7362 -2.1877 -0.9697
  902SOL    HW2 3607   2.750   2.093   1.859  2.4853 -0.1462 -0.0655
  902SOL     MW 3608   2.675   2.088   1.808  0.9652 -0.0627 -0.1697
  903SOL     OW 3609   1.595   2.765   0.508 -0.2928  0.3879 -0.0422
  903SOL    HW1 3610   1.635   2.683   0.547  0.7587 -1.8862  0.5148
  903SOL    HW2 3611   1.549   2.818   0.579 -0.2287 -0.9206 -1.3755
  903SOL     MW 3612   1.594   2.761   0.523 -0.1456 -0.0848 -0.1447
  904SOL     OW 3613   2.493   2.500   1.721 -0.0655  0.5364  0.2474
  904SOL    HW1 3614   2.444   2.542   1.654  2.4009 -0.0271  1.3863
  904SOL    HW2 3615   2.562   2.455   1.676 -0.9866 -0.1114  0.6908
  904SOL     MW 3616   2.496   2.500   1.706  0.1384  0.3766  0.4562
  905SOL     OW 3617   2.322   2.574   2.160 -0.3429  0.4119  0.1690
  905SOL    HW1 3618   2.388   2.523   2.118  0.6907  1.3643  0.9019
  905SOL    HW2 3619   2.281   2.505   2.215 -1.9197 -1.9915  1.8613
  905SOL     MW 3620   2.326   2.559   2.162 -0.4146  0.2205  0.4890
  906SOL     OW 3621   2.424   2.527   0.911  0.3940 -0.6232  0.0259
  906SOL    HW1 3622   2.511   2.481   0.928 -1.8456 -0.4990  0.7293
  906SOL    HW2 3623   2.454   2.608   0.881  0.2334 -3.6136 -0.8320
  906SOL     MW 3624   2.439   2.531   0.909  0.0773 -1.0014  0.0055
  907SOL     OW 3625   2.579   2.877   1.320  0.8561 -0.6464 -0.0743
  907SOL    HW1 3626   2.640   2.947   1.339  0.3995  0.2834 -1.2474
  907SOL    HW2 3627   2.600   2.856   1.229  0.2622 -3.9419 -0.4671
  907SOL     MW 3628   2.590   2.884   1.310  0.7175 -0.9585 -0.2809
  908SOL     OW 3629   2.740   2.384   0.003 -0.4012  0.4279 -0.0097
  908SOL    HW1 3630   2.710   2.290   0.019 -0.5329  2.6044 -0.9596
  908SOL    HW2 3631   2.709   2.443   0.077 -0.3192 -0.9306  0.0545
  908SOL     MW 3632   2.732   2.379   0.015 -0.4078  0.5358 -0.1265
  909SOL     OW 3633   1.706   0.179   1.145  0.6233 -0.4324  0.0410
  909SOL    HW1 3634   1.685   0.258   1.089  0.9550 -1.1068  0.2402
  909SOL    HW2 3635   1.799   0.167   1.155 -1.8026  0.0332 -2.2832
  909SOL     MW 3636   1.716   0.188   1.139  0.3470 -0.4599 -0.2394
  910SOL     OW 3637   2.306   1.793   0.377  1.1013  0.5358 -0.1626
  910SOL    HW1 3638   2.243   1.722   0.403  1.1297  0.1583  0.0007
  910SOL    HW2 3639   2.267   1.842   0.302  0.5354 -0.9097  0.1594
  910SOL     MW 3640   2.293   1.790   0.371  1.0304  0.2953 -0.0986
  911SOL     OW 3641   2.179   2.211   1.744  0.4426  0.6948  0.2344
  911SOL    HW1 3642   2.223   2.174   1.820 -1.1985  1.8628  0.5877
  911SOL    HW2 3643   2.244   2.240   1.681 -0.3647 -1.6122  1.0496
  911SOL     MW 3644   2.193   2.210   1.745  0.1196  0.5445  0.3886
  912SOL     OW 3645   2.937   1.893   1.533  0.3351  0.3306 -0.0722
  912SOL    HW1 3646   2.942   1.947   1.447 -0.8772 -1.9715 -0.5869
  912SOL    HW2 3647   2.841   1.898   1.567  0.5641  2.1976 -0.6514
  912SOL     MW 3648   2.925   1.900   1.526  0.2054  0.2732 -0.2165
  913SOL     OW 3649   2.575   2.996   0.372 -0.0143  0.1478  0.6956
  913SOL    HW1 3650   2.637   2.927   0.349 -1.3969  1.5370 -1.8463
  913SOL    HW2 3651   2.483   2.957   0.379 -1.5742  0.9235 -1.9143
  913SOL     MW 3652   2.571   2.981   0.370 -0.4026  0.4335  0.0159
  914SOL     OW 3653   2.753   1.727   3.063 -1.0027 -0.1213  0.4414
  914SOL    HW1 3654   2.798   1.803   3.023 -0.9972  0.4847 -1.5185
  914SOL    HW2 3655   2.668   1.746   3.021  3.8913  1.4775 -0.5329
  914SOL     MW 3656   2.748   1.740   3.052 -0.3562  0.1696  0.0542
  915SOL     OW 3657   1.730   0.234   0.237 -0.3106 -0.1340  0.0017
  915SOL    HW1 3658   1.790   0.186   0.290 -1.7372  3.9073  0.5544
  915SOL    HW2 3659   1.647   0.189   0.229  1.7151 -0.7805  0.4465
  915SOL     MW 3660   1.727   0.222   0.243 -0.2316  0.3139  0.1333
  916SOL     OW 3661   1.801   2.064   1.922  0.8038  0.0191 -0.1200
  916SOL    HW1 3662   1.803   2.158   1.901 -2.0813  0.3988 -2.1181
  916SOL    HW2 3663   1.774   2.013   1.844 -0.5645 -0.2514  0.0255
  916SOL     MW 3664   1.798   2.070   1.909  0.2426  0.0335 -0.3644
  917SOL     OW 3665   2.460   2.251   2.561  0.8425 -0.7682  0.2019
  917SOL    HW1 3666   2.450   2.295   2.647 -0.3696  0.6874 -1.3736
  917SOL    HW2 3667   2.538   2.288   2.524 -1.3614 -0.0006 -0.6738
  917SOL     MW 3668   2.469   2.261   2.567  0.3918 -0.4749 -0.1215
  918SOL     OW 3669   1.988   1.630   2.690 -0.9343 -0.3701  0.9025
  918SOL    HW1 3670   1.929   1.667   2.619  1.5520  1.8968 -0.5306
  918SOL    HW2 3671   2.078   1.666   2.686  0.6565  0.7651  0.6268
  918SOL     MW 3672   1.992   1.639   2.680 -0.3964  0.0788  0.6770
  919SOL     OW 3673   0.069   2.323   2.265 -0.5855 -0.6300  0.2498
  919SOL    HW1 3674  -0.012   2.274   2.251 -1.3723  1.4094  0.9652
  919SOL    HW2 3675   0.117   2.331   2.177 -0.1797  1.8914  1.4381
  919SOL     MW 3676   0.065   2.318   2.252 -0.6357 -0.0283  0.5010
  920SOL     OW 3677   2.767   2.794   0.007  0.3507  0.2188 -0.4004
  920SOL    HW1 3678   2.696   2.858  -0.002  1.5072  1.7687  2.7208
  920SOL    HW2 3679   2.761   2.747  -0.077 -1.6996  2.1544 -0.1855
  920SOL     MW 3680   2.757   2.796  -0.005  0.2328  0.6787  0.0398
  921SOL     OW 3681   2.400   2.594   2.622  0.9582 -0.9284  0.2660
  921SOL    HW1 3682   2.487   2.594   2.580 -1.0640 -2.6969 -2.4092
  921SOL    HW2 3683   2.394   2.518   2.675 -3.6308 -0.8407 -4.4333
  921SOL     MW 3684   2.411   2.584   2.624  0.0859 -1.1502 -0.7070
  922SOL     OW 3685   2.054   2.827   0.318 -0.1566 -0.2367 -0.0545
  922SOL    HW1 3686   2.018   2.834   0.225 -0.3035 -2.1607 -0.5617
  922SOL    HW2 3687   2.018   2.739   0.356 -2.1582  0.1485 -2.2039
  922SOL     MW 3688   2.045   2.816   0.310 -0.4400 -0.4397 -0.4050
  923SOL     OW 3689   2.175   2.826   1.657 -0.0876  0.0765  0.1926
  923SOL    HW1 3690   2.231   2.764   1.607  0.5461  1.2497 -0.1886
  923SOL    HW2 3691   2.142   2.883   1.593  1.5129  0.4895  2.4579
  923SOL     MW 3692   2.178   2.825   1.642  0.2072  0.2858  0.4412
  924SOL     OW 3693   1.227   2.613   2.498 -0.0364 -0.1570 -0.2493
  924SOL    HW1 3694   1.297   2.676   2.499 -1.0064 -2.3052  1.8781
  924SOL    HW2 3695   1.228   2.582   2.588  1.5854 -0.7724  1.7093
  924SOL     MW 3696   1.237   2.618   2.510  0.0496 -0.5216  0.2898
  925SOL     OW 3697   2.956   0.251   2.604  0.2553  0.0709  0.3141
  925SOL    HW1 3698   2.932   0.262   2.507  1.5580  0.2230 -2.9694
  925SOL    HW2 3699   2.916   0.319   2.646 -0.7100 -3.0524  1.5811
  925SOL     MW 3700   2.947   0.261   2.597  0.2998 -0.3211  0.0480
  926SOL     OW 3701   2.758   2.415   2.086  0.3446  0.1723  0.0063
  926SOL    HW1 3702   2.798   2.477   2.147  0.1740 -0.7228 -1.9022
  926SOL    HW2 3703   2.805   2.410   1.999  1.4126 -0.0728  0.6070
  926SOL     MW 3704   2.769   2.422   2.083  0.4630  0.0218 -0.1662
  927SOL     OW 3705   2.311   0.147   0.309  0.4562 -0.1740  0.3795
  927SOL    HW1 3706   2.403   0.123   0.289 -2.6982 -0.9594  0.9130
  927SOL    HW2 3707   2.278   0.138   0.220  1.6116 -0.7944  0.2003
  927SOL     MW 3708   2.319   0.143   0.294  0.1925 -0.3595  0.4263
  928SOL     OW 3709   2.089   2.425   1.900  0.4728 -0.0598  0.5014
  928SOL    HW1 3710   2.146   2.369   1.846  2.7802  0.0448 -0.1661
  928SOL    HW2 3711   2.144   2.488   1.947 -0.4716  5.1131 -0.3675
  928SOL     MW 3712   2.104   2.426   1.899  0.6526  0.6365  0.2987
  929SOL     OW 3713   2.688   2.379   2.444 -0.0409  0.0936 -0.2823
  929SOL    HW1 3714   2.722   2.357   2.355  1.2080 -1.5265 -0.2298
  929SOL    HW2 3715   2.762   2.353   2.498 -1.3078 -2.1590  4.4800
  929SOL     MW 3716   2.702   2.373   2.439 -0.0433 -0.4174  0.3530
  930SOL     OW 3717   2.016   2.829   2.708  0.4614 -0.0463  0.5758
  930SOL    HW1 3718   2.039   2.755   2.768 -0.2949  0.5143 -0.9553
  930SOL    HW2 3719   2.093   2.896   2.713  1.7755 -0.8086 -1.2820
  930SOL     MW 3720   2.029   2.828   2.717  0.5350 -0.0729  0.1287
  931SOL     OW 3721   3.021   2.778   2.269  0.1108 -0.4591  0.2776
  931SOL    HW1 3722   3.057   2.759   2.356  0.8466 -2.4028 -2.3594
  931SOL    HW2 3723   3.086   2.802   2.212 -1.1698  0.4170  0.2478
  931SOL     MW 3724   3.034   2.779   2.273  0.0389 -0.6000 -0.0742
  932SOL     OW 3725   2.828   2.008   2.541 -0.3570  0.3486  0.9685
  932SOL    HW1 3726   2.923   2.017   2.547 -0.6297  1.1288 -0.8819
  932SOL    HW2 3727   2.820   1.987   2.447  0.7965  0.1900 -0.5581
  932SOL     MW 3728   2.839   2.006   2.529 -0.2408  0.4306  0.5230
  933SOL     OW 3729   2.033   2.868   2.262 -0.2266  0.1581  0.4478
  933SOL    HW1 3730   2.079   2.932   2.312  1.6997 -1.3371 -0.5770
  933SOL    HW2 3731   1.967   2.922   2.213 -0.3127 -1.6549 -2.0519
  933SOL     MW 3732   2.030   2.884   2.262  0.0162 -0.2784 -0.0172
  934SOL     OW 3733   2.015   2.682   2.472 -0.3109 -0.1832 -0.2355
  934SOL    HW1 3734   2.042   2.732   2.552 -1.0009 -0.6173  0.4400
  934SOL    HW2 3735   2.013   2.746   2.399 -3.1388  0.8988 -1.2483
  934SOL     MW 3736   2.018   2.697   2.473 -0.7750 -0.0977 -0.2800
  935SOL     OW 3737   2.646   1.611   1.813  0.0653 -0.1792  0.5123
  935SOL    HW1 3738   2.717   1.558   1.797 -0.3167  1.9267 -1.7600
  935SOL    HW2 3739   2.584   1.574   1.743  1.2462  1.4103 -1.9845
  935SOL     MW 3740   2.647   1.599   1.801  0.1707  0.3084 -0.1170
  936SOL     OW 3741   2.995   2.268   3.079 -0.1747 -0.1516  0.0599
  936SOL    HW1 3742   3.060   2.313   3.132  0.4290 -0.9171  0.4337
  936SOL    HW2 3743   2.910   2.304   3.106 -2.1375 -0.4059 -2.1448
  936SOL     MW 3744   2.992   2.278   3.090 -0.3540 -0.2861 -0.1817
  937SOL     OW 3745   1.948   2.098   2.694  0.0565  0.2294 -0.4955
  937SOL    HW1 3746   2.022   2.040   2.721 -3.0193  2.1370 -1.4264
  937SOL    HW2 3747   1.939   2.093   2.596  1.4287  0.8112 -0.1965
  937SOL     MW 3748   1.956   2.090   2.685 -0.1683  0.5578 -0.5788
  938SOL     OW 3749   2.262   1.827   1.908 -0.0084 -0.2222 -0.1235
  938SOL    HW1 3750   2.249   1.885   1.836  0.1527  0.5768 -1.3503
  938SOL    HW2 3751   2.284   1.879   1.988  1.5146 -1.8832  3.3280
  938SOL     MW 3752   2.263   1.841   1.909  0.2138 -0.3359  0.1700
  939SOL     OW 3753   2.813   1.975   2.250 -0.0525 -0.0704  0.0663
  939SOL    HW1 3754   2.831   1.894   2.192 -1.5833  0.2123  0.6477
  939SOL    HW2 3755   2.722   1.998   2.234 -0.2465  0.9992 -0.8451
  939SOL     MW 3756   2.803   1.967   2.240 -0.2801  0.1080  0.0228
  940SOL     OW 3757   2.313   0.177   2.632 -0.0524  0.2133 -0.6330
  940SOL    HW1 3758   2.301   0.079   2.636  0.2259  1.9181  0.8967
  940SOL    HW2 3759   2.340   0.200   2.719 -2.1079 -0.3958  2.9315
  940SOL     MW 3760   2.315   0.167   2.644 -0.2869  0.3579  0.0391
  941SOL     OW 3761   0.189   2.295   2.015 -0.0538  0.6764  0.0861
  941SOL    HW1 3762   0.275   2.266   1.996 -0.6305  1.0645 -3.0473
  941SOL    HW2 3763   0.138   2.274   1.928 -2.9838 -0.7650 -2.9313
  941SOL     MW 3764   0.193   2.288   2.001 -0.5165  0.5375 -0.7254
  942SOL     OW 3765   2.936   2.193   2.138  0.0805 -0.5519  0.2590
  942SOL    HW1 3766   2.873   2.269   2.136  1.3782  1.7954 -0.8403
  942SOL    HW2 3767   2.889   2.122   2.182  1.8485 -1.8310  0.9056
  942SOL     MW 3768   2.922   2.193   2.143  0.4850 -0.4110  0.1993
  943SOL     OW 3769   0.306   2.062   2.285 -0.9691  0.4932 -0.8355
  943SOL    HW1 3770   0.257   2.125   2.334  1.0439 -0.1178 -3.1178
  943SOL    HW2 3771   0.401   2.057   2.318 -1.1191 -0.0705 -0.6772
  943SOL     MW 3772   0.312   2.069   2.296 -0.7233  0.3382 -1.1158
  944SOL     OW 3773   2.111   2.704   2.064 -0.0692 -0.0744  0.7797
  944SOL    HW1 3774   2.188   2.655   2.094  0.1565 -1.9944 -0.8697
  944SOL    HW2 3775   2.083   2.758   2.136  1.1014 -1.2827 -1.0507
  944SOL     MW 3776   2.117   2.704   2.077  0.1150 -0.4872  0.3206
  945SOL     OW 3777   2.711   2.676   2.863 -0.6798  0.1314  0.5650
  945SOL    HW1 3778   2.698   2.577   2.857 -0.3569  1.0564  0.3490
  945SOL    HW2 3779   2.763   2.696   2.785 -1.0937  0.4597  1.8885
  945SOL     MW 3780   2.716   2.666   2.852 -0.6918  0.2968  0.7111
  946SOL     OW 3781   2.481   2.758   2.314 -0.6207  0.2512  0.1710
  946SOL    HW1 3782   2.488   2.821   2.242 -1.0777 -3.3803  1.0353
  946SOL    HW2 3783   2.437   2.681   2.275  2.0490  0.5870  1.5585
  946SOL     MW 3784   2.476   2.756   2.299 -0.3288 -0.1837  0.4681
  947SOL     OW 3785   1.982   0.117   0.291 -0.3760  0.1453 -0.0256
  947SOL    HW1 3786   1.951   0.071   0.219  0.9859 -1.0847  1.1275
  947SOL    HW2 3787   2.015   0.060   0.358  2.5808  1.8244 -0.3429
  947SOL     MW 3788   1.982   0.103   0.290  0.1938  0.2045  0.0847
  948SOL     OW 3789   1.759   2.964   2.678 -0.0648 -0.1636  0.0721
  948SOL    HW1 3790   1.814   2.885   2.674  0.2570  0.4060  0.7455
  948SOL    HW2 3791   1.743   2.988   2.583  1.6130 -0.6360  1.4450
  948SOL     MW 3792   1.764   2.957   2.665  0.1990 -0.1507  0.3421
  949SOL     OW 3793   2.516   1.986   2.268 -0.4554 -0.3084  0.1261
  949SOL    HW1 3794   2.510   1.889   2.290 -0.2105 -1.2912 -0.2781
  949SOL    HW2 3795   2.453   2.030   2.325  1.9046 -1.2780 -1.9180
  949SOL     MW 3796   2.507   1.979   2.279 -0.1117 -0.5660 -0.1969
  950SOL     OW 3797   2.271   2.527   2.984 -0.3749  0.2536 -0.4708
  950SOL    HW1 3798   2.327   2.470   2.928  0.8308 -2.5158  0.2581
  950SOL    HW2 3799   2.200   2.545   2.918  0.0039  1.4022  0.5518
  950SOL     MW 3800   2.269   2.522   2.968 -0.1658  0.0398 -0.2397
  951SOL     OW 3801   2.999   2.133   2.834  0.5524 -0.1037 -0.3009
  951SOL    HW1 3802   3.030   2.205   2.887 -2.6999  1.4305  0.5168
  951SOL    HW2 3803   3.056   2.115   2.761 -0.7278 -2.9467 -0.9793
  951SOL     MW 3804   3.011   2.140   2.832 -0.0456 -0.2764 -0.2825
  952SOL     OW 3805   0.004   1.656   2.167 -0.2531  0.0494 -0.0469
  952SOL    HW1 3806  -0.076   1.695   2.122  0.7091  3.0655  0.7689
  952SOL    HW2 3807   0.057   1.741   2.172  3.5229 -1.9108 -0.3215
  952SOL     MW 3808   0.001   1.672   2.162  0.3720  0.1887  0.0245
  953SOL     OW 3809   1.917   1.794   2.899 -0.0773 -0.1665 -0.5559
  953SOL    HW1 3810   1.873   1.739   2.962  2.3202 -0.6413  1.2100
  953SOL    HW2 3811   1.939   1.732   2.826  1.5785  2.4104 -2.8954
  953SOL     MW 3812   1.914   1.779   2.898  0.4575  0.1109 -0.6316
  954SOL     OW 3813   2.466   2.105   2.881  0.1797 -0.0539  0.2793
  954SOL    HW1 3814   2.370   2.084   2.862 -3.0508  2.5788  0.0368
  954SOL    HW2 3815   2.525   2.063   2.813  0.4622  1.0519  1.2083
  954SOL     MW 3816   2.461   2.097   2.870 -0.2093  0.4394  0.3699
  955SOL     OW 3817   1.587   1.579   2.635 -0.1485 -0.3775  0.3371
  955SOL    HW1 3818   1.558   1.609   2.542 -0.0374 -1.5719 -0.5547
  955SOL    HW2 3819   1.674   1.616   2.638  0.8227 -0.6892 -1.3559
  955SOL     MW 3820   1.594   1.588   2.623 -0.0057 -0.5762 -0.0039
  956SOL     OW 3821   2.690   2.407   2.839 -0.3573 -0.3467  0.0310
  956SOL    HW1 3822   2.731   2.391   2.926 -0.3509  0.6678  1.1912
  956SOL    HW2 3823   2.733   2.357   2.773 -1.5659 -2.5041  0.4986
  956SOL     MW 3824   2.701   2.399   2.842 -0.5159 -0.4975  0.2458
  957SOL     OW 3825   2.314   2.858   0.395  0.7424 -0.1377  0.4141
  957SOL    HW1 3826   2.240   2.831   0.334 -1.4086  1.4969 -0.2660
  957SOL    HW2 3827   2.287   2.825   0.488  0.8160 -0.0658  1.7674
  957SOL     MW 3828   2.301   2.850   0.399  0.4683  0.0874  0.5029
  958SOL     OW 3829   2.048   2.580   2.862 -0.5219 -0.5377 -0.0143
  958SOL    HW1 3830   2.024   2.493   2.815 -0.3483 -0.5796  0.2510
  958SOL    HW2 3831   1.989   2.604   2.933 -0.6444  0.2890 -1.9360
  958SOL     MW 3832   2.037   2.572   2.865 -0.5152 -0.4341 -0.2329
  959SOL     OW 3833   2.452   2.607   0.366  0.5869 -0.1061 -0.6320
  959SOL    HW1 3834   2.528   2.624   0.314  1.7950 -3.0854  2.0205
  959SOL    HW2 3835   2.416   2.695   0.379  0.2154 -2.5962 -0.0468
  959SOL     MW 3836   2.457   2.621   0.361  0.6973 -0.8278 -0.2049
  960SOL     OW 3837   1.966   2.302   2.219 -0.2662 -0.4493 -0.4509
  960SOL    HW1 3838   1.966   2.208   2.216 -1.0729  1.2336 -0.0836
  960SOL    HW2 3839   1.920   2.317   2.304 -1.4327  2.8607 -0.8766
  960SOL     MW 3840   1.960   2.291   2.230 -0.5266  0.2095 -0.4586
  961SOL     OW 3841   2.240   2.324   2.245 -0.1172  0.0815  0.0698
  961SOL    HW1 3842   2.152   2.304   2.209 -1.0348  0.1329 -0.6137
  961SOL    HW2 3843   2.220   2.357   2.328 -1.5474 -1.9000 -1.5652
  961SOL     MW 3844   2.226   2.326   2.251 -0.4270 -0.1731 -0.2361
  962SOL     OW 3845   2.217   2.024   2.821 -0.6174  0.3357 -0.1749
  962SOL    HW1 3846   2.161   2.035   2.895 -0.3433 -0.8347  0.4231
  962SOL    HW2 3847   2.219   1.928   2.800 -2.3392 -2.9292  1.0862
  962SOL     MW 3848   2.210   2.013   2.828 -0.8084 -0.2495  0.0704
  963SOL     OW 3849   1.829   2.606   2.057 -0.0250 -0.3973  0.1080
  963SOL    HW1 3850   1.925   2.624   2.063  1.7742  0.1749 -0.8405
  963SOL    HW2 3851   1.824   2.516   2.027 -0.1755 -1.6567 -0.7123
  963SOL     MW 3852   1.841   2.596   2.054  0.1925 -0.4880 -0.1253
  964SOL     OW 3853   1.744   1.918   2.723 -0.4777  0.2804  0.1504
  964SOL    HW1 3854   1.808   1.989   2.705  1.8906 -2.8886 -0.0396
  964SOL    HW2 3855   1.801   1.850   2.769  0.6342  0.9393 -0.3620
  964SOL     MW 3856   1.760   1.919   2.727 -0.0185 -0.0508  0.0577
  965SOL     OW 3857   2.222   2.755   0.619 -0.8680  0.0407 -0.0954
  965SOL    HW1 3858   2.220   2.663   0.604  1.1446  0.3045  1.9434
  965SOL    HW2 3859   2.260   2.769   0.707  0.1476 -1.0283  1.4579
  965SOL     MW 3860   2.226   2.745   0.629 -0.4685 -0.0656  0.3786
  966SOL     OW 3861   2.652   2.637   2.503  0.0304  0.6054 -0.2133
  966SOL    HW1 3862   2.598   2.677   2.436  0.8952  0.3436  1.9595
  966SOL    HW2 3863   2.672   2.546   2.479  0.7700  0.5632  1.8823
  966SOL     MW 3864   2.647   2.631   2.491  0.2421  0.5653  0.3499
  967SOL     OW 3865   2.821   3.012   2.905 -0.3240 -0.0686  0.2930
  967SOL    HW1 3866   2.810   2.932   2.960 -1.8152 -0.3162  0.3033
  967SOL    HW2 3867   2.731   3.036   2.880 -0.7256 -0.3554  0.1089
  967SOL     MW 3868   2.808   3.005   2.909 -0.5738 -0.1391  0.2701
  968SOL     OW 3869   3.037   2.649   2.899  0.4480 -0.0853  0.7465
  968SOL    HW1 3870   2.980   2.663   2.822 -0.9715  0.8960 -4.3651
  968SOL    HW2 3871   3.061   2.557   2.887 -1.0450  0.6613 -2.8461
  968SOL     MW 3872   3.033   2.639   2.887  0.0637  0.1427 -0.4019
  969SOL     OW 3873   1.513   2.162   1.668  0.0352  0.2777 -0.2061
  969SOL    HW1 3874   1.598   2.117   1.660  0.9083  0.4203 -0.1431
  969SOL    HW2 3875   1.505   2.155   1.762  2.3922  1.5789  1.1163
  969SOL     MW 3876   1.523   2.155   1.680  0.4614  0.4682 -0.0233
  970SOL     OW 3877   1.648   1.708   1.770  0.5282  0.1710  0.6108
  970SOL    HW1 3878   1.704   1.640   1.815 -1.3785 -1.1626 -0.5617
  970SOL    HW2 3879   1.570   1.716   1.820  1.9832 -0.0552 -1.5624
  970SOL     MW 3880   1.645   1.700   1.783  0.4686 -0.0348  0.1694
  971SOL     OW 3881   1.753   3.062   2.402 -0.4725 -0.1771 -0.0919
  971SOL    HW1 3882   1.786   3.048   2.313  0.4400  0.3917 -3.5373
  971SOL    HW2 3883   1.812   3.126   2.437 -0.4903 -3.0258  0.1780
  971SOL     MW 3884   1.765   3.069   2.395 -0.3545 -0.4779 -0.5109
  972SOL     OW 3885   0.257   2.877   2.463 -0.5724 -0.1201 -0.0634
  972SOL    HW1 3886   0.297   2.791   2.484  2.7817  0.6159 -1.8850
  972SOL    HW2 3887   0.332   2.939   2.460  2.2131  2.0072  0.3161
  972SOL     MW 3888   0.272   2.874   2.465  0.2376  0.2577 -0.2537
  973SOL     OW 3889   2.496   0.034   2.056  0.6600 -0.4960 -0.0589
  973SOL    HW1 3890   2.486  -0.054   2.020 -3.2035 -3.3128  0.6800
  973SOL    HW2 3891   2.528   0.094   1.988 -0.9002  1.3364 -1.0729
  973SOL     MW 3892   2.499   0.031   2.042 -0.0556 -0.6259 -0.0952
  974SOL     OW 3893   2.056   0.226   2.688  0.3012 -0.1693 -0.1148
  974SOL    HW1 3894   2.150   0.220   2.672  0.9221 -0.9093  0.5830
  974SOL    HW2 3895   2.028   0.139   2.719 -0.7309  2.1417  2.9240
  974SOL     MW 3896   2.064   0.213   2.690  0.2469  0.0380  0.3782
  975SOL     OW 3897   2.186   2.472   2.491  0.4770 -0.5873  0.0135
  975SOL    HW1 3898   2.263   2.510   2.528  0.2007  1.5593 -3.0404
  975SOL    HW2 3899   2.134   2.553   2.476 -0.9535  0.9391  0.2883
  975SOL     MW 3900   2.189   2.488   2.494  0.2518 -0.1027 -0.3532
  976SOL     OW 3901   0.259   0.328   1.715 -0.0912  0.4721  0.3262
  976SOL    HW1 3902   0.320   0.269   1.759 -0.8007  1.3675 -0.3176
  976SOL    HW2 3903   0.186   0.270   1.677 -2.2397  0.2965 -2.5396
  976SOL     MW 3904   0.258   0.312   1.715 -0.4683  0.5671 -0.1369
  977SOL     OW 3905   1.739   2.618   2.481 -0.2427 -0.2594  0.2624
  977SOL    HW1 3906   1.746   2.523   2.495  0.7070 -0.2089  0.8220
  977SOL    HW2 3907   1.826   2.653   2.497 -1.1221  2.2004 -0.9420
  977SOL     MW 3908   1.752   2.610   2.485 -0.2334  0.0718  0.1773
   3.10000   3.10000   3.10000
