977 TIP4P/2005f water molecules t=   0.60000 step= 600
 3908
    1SOL     OW    1   0.190   0.847   0.022 -0.3844  0.3583 -0.0730
    1SOL    HW1    2   0.193   0.844  -0.073 -1.8808 -2.8557 -0.3991
    1SOL    HW2    3   0.208   0.759   0.049 -2.6998 -2.5500 -1.7675
    1SOL     MW    4   0.193   0.835   0.013 -0.8873 -0.4494 -0.3396
    2SOL     OW    5   0.249   3.017   1.174 -0.4176 -0.0637  0.1089
    2SOL    HW1    6   0.299   3.081   1.126  1.5711  2.0226  1.7740
    2SOL    HW2    7   0.165   3.059   1.189  1.9508  2.3608  2.5101
    2SOL     MW    8   0.244   3.031   1.169  0.1573  0.5315  0.6454
    3SOL     OW    9   2.676   0.402   0.916 -0.4107  0.1550  0.1277
    3SOL    HW1   10   2.676   0.479   0.858  2.6092  4.3265 -1.5274
    3SOL    HW2   11   2.631   0.441   0.993  1.8251 -0.0013  1.4637
    3SOL     MW   12   2.670   0.417   0.919  0.2828  0.6848  0.0856
    4SOL     OW   13   3.035   1.752   0.591 -0.2662 -0.3628  0.1866
    4SOL    HW1   14   2.961   1.796   0.549  1.2806 -1.8437 -0.6550
    4SOL    HW2   15   3.090   1.734   0.518 -2.3786 -1.3666  2.2299
    4SOL     MW   16   3.033   1.755   0.576 -0.3408 -0.6906  0.3451
    5SOL     OW   17   1.734   1.518   0.547  0.1458 -0.1171 -0.0178
    5SOL    HW1   18   1.776   1.454   0.608 -1.2275  2.7729  1.3316
    5SOL    HW2   19   1.641   1.515   0.554  1.9322 -0.3523 -1.0754
    5SOL     MW   20   1.727   1.509   0.556  0.2003  0.2332  0.0207
    6SOL     OW   21   0.853   1.374   0.692  0.2090 -0.3318  0.1712
    6SOL    HW1   22   0.765   1.402   0.708  0.8220 -2.1440 -0.5816
    6SOL    HW2   23   0.875   1.308   0.761 -0.1027  0.3656  0.4499
    6SOL     MW   24   0.844   1.369   0.703  0.2487 -0.4789  0.1087
    7SOL     OW   25   2.013   1.157   0.021 -0.2240  0.2868 -0.3135
    7SOL    HW1   26   2.057   1.214  -0.040  0.1663 -2.5910 -0.1888
    7SOL    HW2   27   2.062   1.167   0.102  1.2314 -1.2880  0.2300
    7SOL     MW   28   2.025   1.166   0.023  0.0195 -0.3007 -0.2253
    8SOL     OW   29   0.948   1.360   1.016  0.2437 -0.3896 -0.0898
    8SOL    HW1   30   0.992   1.279   1.000  1.7546 -3.1942  1.9637
    8SOL    HW2   31   0.928   1.359   1.111 -1.0205  0.1195  1.2348
    8SOL     MW   32   0.951   1.349   1.027  0.2763 -0.6925  0.3559
    9SOL     OW   33   1.080   0.459   1.384  0.0139 -0.4565 -0.3525
    9SOL    HW1   34   1.004   0.418   1.336 -1.9669  1.6604 -1.8753
    9SOL    HW2   35   1.113   0.405   1.455 -0.4111  1.8294  1.2230
    9SOL     MW   36   1.074   0.446   1.387 -0.3036  0.1244 -0.3455
   10SOL     OW   37   0.258   0.785   0.421  0.1776 -0.0899 -0.1780
   10SOL    HW1   38   0.346   0.802   0.408 -1.2713 -0.1113 -2.3128
   10SOL    HW2   39   0.236   0.836   0.500  3.2281  0.9830  1.2015
   10SOL     MW   40   0.267   0.794   0.429  0.3889  0.0488 -0.2776
   11SOL     OW   41   0.779   1.160   1.673  0.1921 -0.3023  0.5044
   11SOL    HW1   42   0.821   1.128   1.751 -0.3070  1.0512 -2.4616
   11SOL    HW2   43   0.767   1.084   1.618 -0.4992  4.3937  0.8232
   11SOL     MW   44   0.783   1.146   1.676  0.0351  0.4959  0.1551
   12SOL     OW   45   3.100   1.059   0.877 -0.2202 -0.1055  0.6638
   12SOL    HW1   46   3.142   1.140   0.911 -3.9311  1.1568 -1.8462
   12SOL    HW2   47   3.033   1.094   0.816  1.3370  5.1030 -0.3322
   12SOL     MW   48   3.097   1.074   0.874 -0.5043  0.7483  0.2012
   13SOL     OW   49   1.839   1.415   1.323 -0.1684 -0.0699  0.1979
   13SOL    HW1   50   1.851   1.381   1.235  0.9210 -1.6186 -1.7421
   13SOL    HW2   51   1.833   1.514   1.313 -0.8095  0.8119 -0.4504
   13SOL     MW   52   1.840   1.423   1.310 -0.1092 -0.1579 -0.1436
   14SOL     OW   53   0.599   0.335   1.799  0.3026  0.2297 -0.3036
   14SOL    HW1   54   0.544   0.257   1.785  0.1839  0.8818  0.5640
   14SOL    HW2   55   0.679   0.294   1.833 -0.1493  2.0263  0.0588
   14SOL     MW   56   0.603   0.319   1.801  0.2273  0.5528 -0.1413
   15SOL     OW   57   1.915   0.500   0.978 -0.2151 -0.4364 -0.1639
   15SOL    HW1   58   1.924   0.532   1.074 -0.4527  0.8064  0.4150
   15SOL    HW2   59   1.988   0.448   0.945  0.0850 -0.5908  0.8125
   15SOL     MW   60   1.926   0.498   0.986 -0.2069 -0.2928  0.0413
   16SOL     OW   61   0.261   1.810   0.325 -0.0348  0.5572  0.0752
   16SOL    HW1   62   0.339   1.765   0.359  0.9111  2.7330  0.8048
   16SOL    HW2   63   0.253   1.883   0.384 -1.1697 -0.7555  2.5831
   16SOL     MW   64   0.270   1.813   0.338 -0.0597  0.6711  0.5023
   17SOL     OW   65   1.015   0.856   1.490  0.5777  0.4797  0.0833
   17SOL    HW1   66   1.061   0.844   1.573 -0.6436 -1.8127  0.6025
   17SOL    HW2   67   0.925   0.863   1.514  0.6247  2.0251 -1.4092
   17SOL     MW   68   1.009   0.856   1.504  0.4228  0.3811 -0.0451
   18SOL     OW   69   0.094   1.588   0.394  0.1995  0.4189 -0.7322
   18SOL    HW1   70   0.158   1.658   0.374  1.2723  0.1888 -1.9257
   18SOL    HW2   71   0.053   1.572   0.307 -0.7537 -0.1979  0.5955
   18SOL     MW   72   0.097   1.595   0.380  0.2153  0.3071 -0.7145
   19SOL     OW   73   0.078   1.296   1.012  0.1636  0.1266 -0.1389
   19SOL    HW1   74   0.144   1.333   0.951 -0.7788 -1.8918 -1.0918
   19SOL    HW2   75   0.009   1.367   1.022 -3.6181  1.2516  0.5114
   19SOL     MW   76   0.078   1.310   1.005 -0.4597  0.0087 -0.1788
   20SOL     OW   77   0.402   2.127   1.255 -0.3393  0.0806 -1.3054
   20SOL    HW1   78   0.358   2.048   1.211  3.1460 -2.7213 -0.4941
   20SOL    HW2   79   0.344   2.164   1.331 -0.7489  0.4563  1.4028
   20SOL     MW   80   0.389   2.121   1.259  0.0665 -0.2395 -0.8410
   21SOL     OW   81   0.522   0.808   0.370  0.2887 -0.2890 -0.3190
   21SOL    HW1   82   0.601   0.817   0.422  1.1646  1.3598 -0.5170
   21SOL    HW2   83   0.542   0.771   0.285 -2.5465 -0.4156 -0.7547
   21SOL     MW   84   0.535   0.804   0.365  0.0302 -0.0882 -0.4026
   22SOL     OW   85   1.497   0.556   1.102 -0.3547 -0.0436 -0.5222
   22SOL    HW1   86   1.542   0.505   1.034 -0.1362  3.4827  2.0852
   22SOL    HW2   87   1.430   0.609   1.054  0.4367 -0.0893 -0.0622
   22SOL     MW   88   1.494   0.556   1.087 -0.2215  0.4156 -0.1175
   23SOL     OW   89   3.088   0.776   0.647  0.4793  0.3042  0.0588
   23SOL    HW1   90   3.109   0.699   0.699  0.4940 -0.3141  0.4039
   23SOL    HW2   91   3.174   0.818   0.637 -1.1352 -1.4421 -0.6789
   23SOL     MW   92   3.102   0.771   0.653  0.2682 -0.0078  0.0070
   24SOL     OW   93   2.007   2.206   0.104  0.2671  0.2240  0.4557
   24SOL    HW1   94   2.022   2.195   0.200  0.7354 -0.6150 -1.0592
   24SOL    HW2   95   2.079   2.153   0.061  0.9481 -1.0725 -0.6563
   24SOL     MW   96   2.019   2.198   0.111  0.4187 -0.0577  0.1091
   25SOL     OW   97   0.244   1.387   0.547 -0.7461 -0.1639  0.4731
   25SOL    HW1   98   0.193   1.457   0.498 -0.9361 -1.4895 -1.6409
   25SOL    HW2   99   0.326   1.375   0.498  1.3980 -4.4612 -3.4019
   25SOL     MW  100   0.248   1.394   0.534 -0.4882 -0.9058 -0.3171
   26SOL     OW  101   2.015   0.924   0.449 -0.1371  0.6903 -0.5190
   26SOL    HW1  102   1.931   0.967   0.480 -4.2078 -3.2769  1.4207
   26SOL    HW2  103   2.075   0.987   0.409 -0.9102 -1.2217 -0.6903
   26SOL     MW  104   2.012   0.938   0.448 -0.7762 -0.0854 -0.2857
   27SOL     OW  105   2.065   1.395   0.235 -0.1194  0.2191 -0.2816
   27SOL    HW1  106   1.983   1.356   0.270 -0.7119 -0.3695 -0.1469
   27SOL    HW2  107   2.072   1.476   0.282  0.3714  0.5276 -2.1237
   27SOL     MW  108   2.055   1.400   0.246 -0.1328  0.1821 -0.5069
   28SOL     OW  109   0.411   1.098   1.969 -0.3661  0.0632  0.3074
   28SOL    HW1  110   0.488   1.040   1.983  0.3623  1.5467  4.7940
   28SOL    HW2  111   0.346   1.050   2.023  4.1017 -2.4994  0.9257
   28SOL     MW  112   0.412   1.084   1.978  0.3195 -0.0792  0.9809
   29SOL     OW  113   0.275   1.435   0.825 -0.5474  0.2741  0.1268
   29SOL    HW1  114   0.275   1.529   0.824 -1.7232 -0.7001 -1.6139
   29SOL    HW2  115   0.274   1.411   0.733 -1.8085  0.8625 -0.1657
   29SOL     MW  116   0.275   1.444   0.813 -0.8689  0.2232 -0.1415
   30SOL     OW  117   0.847   1.157   1.228 -0.5326  0.4055 -0.1273
   30SOL    HW1  118   0.757   1.169   1.264  0.1931 -0.4516  0.2186
   30SOL    HW2  119   0.908   1.166   1.307  0.8890  0.0312 -1.0081
   30SOL     MW  120   0.843   1.160   1.243 -0.2493  0.2430 -0.1979
   31SOL     OW  121   0.384   0.188   0.149 -0.1120 -0.7524 -0.3783
   31SOL    HW1  122   0.401   0.119   0.210 -0.3835 -0.1309 -0.5775
   31SOL    HW2  123   0.364   0.146   0.065  0.3777 -0.0582 -3.0296
   31SOL     MW  124   0.383   0.174   0.146 -0.0832 -0.5788 -0.7544
   32SOL     OW  125   2.772   1.014   1.139  0.1975 -0.2608 -0.2322
   32SOL    HW1  126   2.721   0.939   1.114  2.9778 -0.7088 -1.0333
   32SOL    HW2  127   2.863   0.982   1.123 -0.5245 -0.1593 -1.5567
   32SOL     MW  128   2.777   1.000   1.133  0.4690 -0.3065 -0.5127
   33SOL     OW  129   1.805   1.323   0.362  0.7718 -0.3225 -0.1404
   33SOL    HW1  130   1.798   1.246   0.421 -1.1047 -0.4991  0.3430
   33SOL    HW2  131   1.775   1.396   0.420 -2.7110 -0.0852 -1.6624
   33SOL     MW  132   1.800   1.323   0.377  0.0647 -0.3145 -0.2774
   34SOL     OW  133   1.215   1.874   1.107  0.0207  0.0296  0.0476
   34SOL    HW1  134   1.118   1.893   1.135  1.0856 -0.5442  0.6748
   34SOL    HW2  135   1.267   1.909   1.176  0.4501 -0.6629 -1.6998
   34SOL     MW  136   1.209   1.881   1.120  0.2179 -0.1375 -0.1002
   35SOL     OW  137   0.361   0.130   1.853  0.3827  0.0779  0.7813
   35SOL    HW1  138   0.357   0.087   1.936 -0.9945  0.7786 -1.0906
   35SOL    HW2  139   0.379   0.052   1.793 -1.1852  0.3841  1.2630
   35SOL     MW  140   0.363   0.114   1.856 -0.0058  0.2107  0.5979
   36SOL     OW  141   1.839   1.920   0.482 -0.1378  0.1462  0.3284
   36SOL    HW1  142   1.859   1.903   0.395  1.0086  1.5926  1.9968
   36SOL    HW2  143   1.850   1.841   0.536  0.4624 -1.4286  1.5654
   36SOL     MW  144   1.843   1.907   0.478  0.0926  0.1292  0.7117
   37SOL     OW  145   1.768   2.002   1.067 -0.2286 -0.5689  0.5317
   37SOL    HW1  146   1.733   1.981   0.979  0.0861  2.5888 -3.6915
   37SOL    HW2  147   1.699   2.060   1.101 -0.2901 -1.3880 -1.0541
   37SOL     MW  148   1.754   2.006   1.060 -0.1952 -0.2604 -0.2347
   38SOL     OW  149   2.839   0.919   0.162  0.1873 -0.5688 -0.4464
   38SOL    HW1  150   2.860   0.894   0.255  1.0082  0.1655 -0.0717
   38SOL    HW2  151   2.904   0.871   0.114  3.2657  0.6626  0.5517
   38SOL     MW  152   2.850   0.909   0.168  0.7017 -0.3095 -0.2653
   39SOL     OW  153   1.393   0.626   0.797 -0.2188  0.5641 -0.4037
   39SOL    HW1  154   1.388   0.530   0.808  1.7706 -0.9268  1.1940
   39SOL    HW2  155   1.300   0.652   0.793  0.1298 -2.3887  0.9587
   39SOL     MW  156   1.380   0.616   0.798  0.0897 -0.0222 -0.0132
   40SOL     OW  157   1.192   1.890   0.253 -0.1506 -0.1693 -0.5573
   40SOL    HW1  158   1.233   1.832   0.319 -0.7238  0.5162 -0.2885
   40SOL    HW2  159   1.163   1.971   0.300  0.2551 -0.2249  1.2360
   40SOL     MW  160   1.194   1.893   0.268 -0.1727 -0.0862 -0.2852
   41SOL     OW  161   0.608   0.471   1.556  0.1512 -0.4398 -0.3365
   41SOL    HW1  162   0.695   0.508   1.557  0.2731 -0.9940 -1.5308
   41SOL    HW2  163   0.604   0.405   1.631 -0.0500 -0.0717  0.0058
   41SOL     MW  164   0.619   0.467   1.566  0.1407 -0.4643 -0.4489
   42SOL     OW  165   1.257   2.997   2.015  0.1081  0.2428  0.3903
   42SOL    HW1  166   1.170   3.015   2.044  0.4490 -0.8279  1.2544
   42SOL    HW2  167   1.280   2.909   2.042 -0.3036  1.9980 -0.2401
   42SOL     MW  168   1.248   2.988   2.022  0.0987  0.3331  0.4211
   43SOL     OW  169   1.541   0.140   1.751  0.4697 -0.4748  0.3493
   43SOL    HW1  170   1.608   0.094   1.704  0.5334 -0.4728  1.8510
   43SOL    HW2  171   1.447   0.118   1.741  0.3529  3.5045 -0.7983
   43SOL     MW  172   1.538   0.131   1.743  0.4627  0.0505  0.3960
   44SOL     OW  173   1.248   0.746   1.096  0.1705  0.1609  0.3500
   44SOL    HW1  174   1.228   0.835   1.055  1.4540  0.3694  0.5044
   44SOL    HW2  175   1.237   0.758   1.193 -0.7415  0.7802  1.0991
   44SOL     MW  176   1.244   0.759   1.103  0.2195  0.2701  0.4692
   45SOL     OW  177   1.132   0.710   0.760 -0.0844 -0.4678 -0.2553
   45SOL    HW1  178   1.098   0.682   0.840 -0.7117  0.5940 -0.6811
   45SOL    HW2  179   1.096   0.658   0.690  0.4804  1.4370 -2.1398
   45SOL     MW  180   1.123   0.699   0.761 -0.0927 -0.0764 -0.5601
   46SOL     OW  181   0.546   1.199   0.542  0.1748  0.3359  0.0524
   46SOL    HW1  182   0.507   1.203   0.459  3.3907 -0.8982  2.3418
   46SOL    HW2  183   0.638   1.187   0.528 -0.5720 -2.6174  2.1848
   46SOL     MW  184   0.553   1.198   0.529  0.5006 -0.2166  0.6358
   47SOL     OW  185   0.166   1.941   1.781 -0.3373 -0.3983  0.1840
   47SOL    HW1  186   0.229   1.887   1.724 -1.0749  0.2231  2.5174
   47SOL    HW2  187   0.188   1.926   1.878 -0.8324  0.0751 -0.8877
   47SOL     MW  188   0.177   1.932   1.787 -0.4999 -0.2538  0.3504
   48SOL     OW  189   1.051   0.587   1.016  0.2113 -0.0524 -0.3838
   48SOL    HW1  190   0.975   0.534   1.050 -0.5584 -1.6826 -2.4231
   48SOL    HW2  191   1.074   0.650   1.083  0.3482 -0.8556 -1.1618
   48SOL     MW  192   1.044   0.588   1.029  0.1278 -0.3735 -0.7555
   49SOL     OW  193   1.798   0.761   1.544  0.2670  0.3580  0.2632
   49SOL    HW1  194   1.779   0.747   1.642  2.5552 -0.9239  1.6421
   49SOL    HW2  195   1.863   0.688   1.540 -0.4005 -3.2451 -0.6029
   49SOL     MW  196   1.804   0.749   1.556  0.4808 -0.2865  0.3308
   50SOL     OW  197   1.175   1.054   0.499 -0.0512 -0.3159  0.2719
   50SOL    HW1  198   1.139   1.063   0.589  0.5479 -1.6228  0.3567
   50SOL    HW2  199   1.244   0.992   0.521 -0.9833 -0.4727 -1.5026
   50SOL     MW  200   1.179   1.047   0.514 -0.0951 -0.5090  0.0489
   51SOL     OW  201   0.341   2.892   0.928 -0.5285  0.3244 -0.4311
   51SOL    HW1  202   0.416   2.873   0.982 -1.4754 -2.4870 -0.7610
   51SOL    HW2  203   0.275   2.918   0.989 -0.3813 -3.2491  0.8663
   51SOL     MW  204   0.342   2.893   0.943 -0.6340 -0.5181 -0.3035
   52SOL     OW  205   0.814   1.806   0.424 -0.6514  0.3082  0.8387
   52SOL    HW1  206   0.778   1.893   0.428  0.2478 -0.0934 -3.1068
   52SOL    HW2  207   0.822   1.782   0.334 -2.5417  1.5803  0.8753
   52SOL     MW  208   0.810   1.814   0.413 -0.7821  0.4230  0.3229
   53SOL     OW  209   0.488   2.149   0.617 -0.6160 -0.0670  0.4576
   53SOL    HW1  210   0.402   2.131   0.588  1.3378  0.7112  6.0163
   53SOL    HW2  211   0.499   2.243   0.644 -1.0982 -0.8122  1.9071
   53SOL     MW  212   0.478   2.159   0.617 -0.4218 -0.0627  1.3822
   54SOL     OW  213   2.174   0.855   0.847 -0.5741  0.2786  0.1451
   54SOL    HW1  214   2.225   0.857   0.763  0.4507  1.8768  0.3095
   54SOL    HW2  215   2.082   0.828   0.818 -1.3228  1.1808  0.6403
   54SOL     MW  216   2.168   0.852   0.832 -0.5377  0.6085  0.2321
   55SOL     OW  217   0.576   1.497   1.600  0.1721  1.2454 -0.2797
   55SOL    HW1  218   0.506   1.543   1.550 -1.9572 -1.4298 -1.2751
   55SOL    HW2  219   0.619   1.437   1.543 -0.2423 -1.0135 -0.6403
   55SOL     MW  220   0.572   1.496   1.586 -0.1635  0.5944 -0.4586
   56SOL     OW  221   0.537   0.764   0.089 -0.3449  0.4117  0.3152
   56SOL    HW1  222   0.540   0.853   0.056 -0.0021  1.3049 -3.4856
   56SOL    HW2  223   0.446   0.753   0.107  1.5493  1.0227 -0.4473
   56SOL     MW  224   0.526   0.774   0.087 -0.0498  0.6101 -0.2869
   57SOL     OW  225   1.248   1.222   1.175 -0.3579  0.1027 -0.8101
   57SOL    HW1  226   1.318   1.260   1.115 -0.8440 -2.9779 -1.2864
   57SOL    HW2  227   1.291   1.203   1.259  0.0315  0.9973  0.5316
   57SOL     MW  228   1.263   1.224   1.178 -0.3706 -0.1857 -0.6959
   58SOL     OW  229   0.557   1.159   1.309 -0.1304  0.3805  0.2282
   58SOL    HW1  230   0.533   1.250   1.284  0.4629  0.6542  1.0263
   58SOL    HW2  231   0.540   1.155   1.409  0.2159  1.1115  2.3069
   58SOL     MW  232   0.551   1.171   1.319 -0.0064  0.5131  0.6077
   59SOL     OW  233   1.548   1.670   0.354 -1.0538  0.3772 -0.6694
   59SOL    HW1  234   1.588   1.692   0.436 -0.9074  0.7000  2.2154
   59SOL    HW2  235   1.457   1.660   0.375 -1.1812 -1.9308 -1.7948
   59SOL     MW  236   1.541   1.671   0.368 -1.0513  0.1153 -0.4373
   60SOL     OW  237   0.084   0.195   1.686 -0.1876 -0.8220 -0.6534
   60SOL    HW1  238  -0.008   0.211   1.649 -2.3544  0.0655 -2.2883
   60SOL    HW2  239   0.079   0.124   1.747 -0.3436 -0.4273  0.8265
   60SOL     MW  240   0.071   0.188   1.689 -0.4941 -0.6529 -0.6738
   61SOL     OW  241   2.050   1.457   3.057  0.1853 -0.0401 -0.7212
   61SOL    HW1  242   2.056   1.418   3.148  1.2848  0.1697 -0.2645
   61SOL    HW2  243   2.105   1.402   2.996 -0.2395 -0.0444  0.1074
   61SOL     MW  244   2.058   1.445   3.061  0.2743 -0.0130 -0.5516
   62SOL     OW  245   0.616   1.711   0.628 -0.1226  0.1310  0.0408
   62SOL    HW1  246   0.680   1.734   0.558  3.5741  0.5922 -2.4722
   62SOL    HW2  247   0.630   1.613   0.648 -1.3144 -0.6650 -0.1315
   62SOL     MW  248   0.626   1.701   0.621  0.2079  0.0869 -0.3135
   63SOL     OW  249   1.647   0.732   0.710  0.0080 -0.3953  0.1945
   63SOL    HW1  250   1.644   0.795   0.637  0.1602  0.0870 -1.0581
   63SOL    HW2  251   1.560   0.721   0.749  0.5527 -0.7030  0.6617
   63SOL     MW  252   1.635   0.739   0.705  0.1000 -0.3723  0.0909
   64SOL     OW  253   0.269   1.704   0.719  0.3869  0.0278  0.0104
   64SOL    HW1  254   0.352   1.753   0.718 -0.6676  1.0481 -0.3532
   64SOL    HW2  255   0.191   1.768   0.715 -1.0265  1.5196  0.0538
   64SOL     MW  256   0.270   1.719   0.719  0.0613  0.3592 -0.0318
   65SOL     OW  257   1.547   2.348   0.368  0.2932  0.0927  0.2902
   65SOL    HW1  258   1.633   2.309   0.364 -0.0962  0.5936 -0.4087
   65SOL    HW2  259   1.543   2.376   0.466 -0.7541  2.0257  0.3184
   65SOL     MW  260   1.558   2.346   0.380  0.1036  0.4139  0.2017
   66SOL     OW  261   0.301   0.546   0.537 -0.0208  0.4946  0.5348
   66SOL    HW1  262   0.355   0.500   0.474 -1.0634  0.6542  2.4278
   66SOL    HW2  263   0.288   0.634   0.498 -3.2084  1.7901  2.7097
   66SOL     MW  264   0.306   0.552   0.524 -0.5789  0.6866  1.0715
   67SOL     OW  265   1.439   0.094   2.032 -0.5167 -0.0389 -0.4385
   67SOL    HW1  266   1.478   0.118   1.947  0.1902 -1.1188 -0.5703
   67SOL    HW2  267   1.384   0.018   2.019 -1.5006  1.8548  1.3195
   67SOL     MW  268   1.437   0.087   2.019 -0.5532  0.0685 -0.2239
   68SOL     OW  269   0.629   0.096   2.973  0.3213  0.1509 -0.6692
   68SOL    HW1  270   0.612   0.130   2.884 -0.0297  2.0862  0.3549
   68SOL    HW2  271   0.663   0.161   3.031  1.1736 -0.3154 -1.8940
   68SOL     MW  272   0.631   0.109   2.969  0.3874  0.3447 -0.6957
   69SOL     OW  273   1.013   0.184   1.987 -0.0586 -0.3069  0.1557
   69SOL    HW1  274   1.098   0.219   2.027  1.6780  0.1563 -0.1385
   69SOL    HW2  275   1.000   0.087   2.014  1.1142 -2.0447  0.5779
   69SOL     MW  276   1.022   0.176   1.996  0.3252 -0.4751  0.1726
   70SOL     OW  277   0.535   1.731   1.126 -0.6969 -0.3619  0.2562
   70SOL    HW1  278   0.574   1.672   1.188 -3.6391  1.5555  1.4915
   70SOL    HW2  279   0.605   1.763   1.063  0.8960  0.5553 -1.3142
   70SOL     MW  280   0.549   1.727   1.126 -0.8750  0.0121  0.2120
   71SOL     OW  281   1.690   0.566   1.352 -0.7711 -0.6768  0.0887
   71SOL    HW1  282   1.675   0.643   1.410 -1.3374 -0.8367  0.7959
   71SOL    HW2  283   1.625   0.567   1.282 -0.4228 -0.1014 -2.5312
   71SOL     MW  284   1.679   0.576   1.350 -0.7999 -0.6220 -0.1636
   72SOL     OW  285   0.785   1.766   0.960  0.1292  0.2924  0.1577
   72SOL    HW1  286   0.788   1.810   0.872  0.4378  0.1432 -0.3538
   72SOL    HW2  287   0.748   1.678   0.952  1.6503 -0.4085  0.7624
   72SOL     MW  288   0.781   1.760   0.947  0.3706  0.1802  0.1700
   73SOL     OW  289   1.185   0.701   1.361 -0.3021  0.1406 -0.0600
   73SOL    HW1  290   1.154   0.609   1.361  0.1921 -0.1207 -0.6053
   73SOL    HW2  291   1.119   0.743   1.420  0.3263  1.8968 -1.0323
   73SOL     MW  292   1.172   0.695   1.369 -0.1540  0.3379 -0.2603
   74SOL     OW  293   2.868   0.182   0.954 -0.5664 -0.2495 -0.2437
   74SOL    HW1  294   2.852   0.120   0.880 -1.6286 -1.5444  0.5464
   74SOL    HW2  295   2.816   0.258   0.938 -0.6063  0.3260  1.9597
   74SOL     MW  296   2.859   0.184   0.942 -0.7118 -0.3444  0.1512
   75SOL     OW  297   1.658   1.390   0.138  0.7958 -0.2122 -0.3243
   75SOL    HW1  298   1.694   1.385   0.226 -0.6068  0.4888  1.0501
   75SOL    HW2  299   1.669   1.293   0.110  2.2938 -2.9637  0.1577
   75SOL     MW  300   1.664   1.376   0.146  0.8084 -0.4827 -0.0793
   76SOL     OW  301   3.016   0.623   0.435 -0.7464 -0.3587 -0.2935
   76SOL    HW1  302   3.055   0.653   0.518  2.1998 -0.3605 -0.2665
   76SOL    HW2  303   3.053   0.538   0.415  1.7206  2.7354 -3.3790
   76SOL     MW  304   3.026   0.616   0.443 -0.0322  0.0493 -0.6970
   77SOL     OW  305   0.815   0.525   0.395  0.5398 -0.1026  0.4288
   77SOL    HW1  306   0.793   0.548   0.301  0.6689  0.3422  1.7391
   77SOL    HW2  307   0.735   0.494   0.435  0.6634 -0.8314  1.2658
   77SOL     MW  308   0.801   0.524   0.388  0.5732 -0.1401  0.7121
   78SOL     OW  309   0.753   0.852   1.255 -0.0387  0.7905  0.4998
   78SOL    HW1  310   0.701   0.841   1.182  2.1243  1.7585 -0.7152
   78SOL    HW2  311   0.828   0.895   1.223 -0.2473 -2.1554 -0.6570
   78SOL     MW  312   0.756   0.856   1.241  0.2192  0.5295  0.1869
   79SOL     OW  313   1.910   1.691   0.622 -0.5603  0.2171  0.5349
   79SOL    HW1  314   1.846   1.620   0.595 -2.0504 -0.8832 -1.9511
   79SOL    HW2  315   1.898   1.695   0.711  2.2128  0.4948 -2.9938
   79SOL     MW  316   1.900   1.682   0.630 -0.3910  0.1085 -0.2587
   80SOL     OW  317   0.115   1.000   0.315 -0.1047  0.1267 -0.2535
   80SOL    HW1  318   0.021   0.963   0.322 -2.4401  0.1321 -0.0374
   80SOL    HW2  319   0.171   0.922   0.337  0.1915 -0.6092 -0.1243
   80SOL     MW  320   0.110   0.985   0.319 -0.3737  0.0303 -0.2079
   81SOL     OW  321   1.907   1.915   0.203  0.1609 -0.0823  0.0784
   81SOL    HW1  322   1.849   1.839   0.169 -3.9889 -0.3112  0.1699
   81SOL    HW2  323   1.844   1.990   0.206  1.9474 -1.1980  0.8110
   81SOL     MW  324   1.891   1.915   0.199 -0.1509 -0.2597  0.1871
   82SOL     OW  325   0.820   1.086   0.521 -0.1085  0.1985  0.3484
   82SOL    HW1  326   0.833   1.125   0.437 -1.1871  2.3525  1.3844
   82SOL    HW2  327   0.812   1.000   0.500 -0.1076  3.5267  0.1970
   82SOL     MW  328   0.821   1.080   0.507 -0.2507  0.9218  0.4651
   83SOL     OW  329   0.192   0.615   1.302 -0.4035 -0.1698  0.6681
   83SOL    HW1  330   0.168   0.714   1.312  1.5475  2.3830  0.3482
   83SOL    HW2  331   0.254   0.587   1.371  1.6934 -0.5943 -0.7784
   83SOL     MW  332   0.197   0.625   1.312  0.1306  0.1110  0.4350
   84SOL     OW  333   0.087   0.206   0.900  0.5941  0.3642 -0.2787
   84SOL    HW1  334   0.010   0.249   0.875  0.5488  0.2369 -0.1654
   84SOL    HW2  335   0.070   0.177   0.993 -0.2116  0.8443 -0.0929
   84SOL     MW  336   0.075   0.208   0.909  0.4818  0.4108 -0.2392
   85SOL     OW  337   0.481   0.442   0.760 -0.0310 -0.5133  0.0449
   85SOL    HW1  338   0.458   0.519   0.709  0.0787  2.4731 -0.4531
   85SOL    HW2  339   0.416   0.373   0.750  1.4323  1.5493 -0.1941
   85SOL     MW  340   0.469   0.443   0.752  0.1766  0.1529 -0.0524
   86SOL     OW  341   1.216   0.380   1.075 -0.1980 -0.2890  0.2702
   86SOL    HW1  342   1.166   0.460   1.048 -0.2745 -1.2559  2.0837
   86SOL    HW2  343   1.265   0.405   1.150 -0.7547 -1.6275  0.5258
   86SOL     MW  344   1.216   0.394   1.082 -0.2815 -0.5932  0.5432
   87SOL     OW  345   1.147   1.464   1.248 -0.0905 -0.2640 -0.1651
   87SOL    HW1  346   1.174   1.512   1.164  1.2132 -1.4660 -1.8475
   87SOL    HW2  347   1.169   1.366   1.232 -0.7842 -1.2067 -0.3315
   87SOL     MW  348   1.153   1.457   1.235 -0.0100 -0.5470 -0.4090
   88SOL     OW  349   1.217   1.012   0.991 -0.2877 -0.1107 -0.2618
   88SOL    HW1  350   1.310   0.982   0.989  0.0113 -2.7221  0.1455
   88SOL    HW2  351   1.226   1.079   1.064 -0.0187  1.1928 -2.4841
   88SOL     MW  352   1.231   1.017   1.000 -0.2128 -0.2833 -0.5013
   89SOL     OW  353   1.750   0.672   0.290 -0.1810  0.2075  0.1037
   89SOL    HW1  354   1.810   0.595   0.314  1.5227  0.6383  1.0106
   89SOL    HW2  355   1.815   0.741   0.269  1.5903 -0.3622  0.2264
   89SOL     MW  356   1.766   0.671   0.290  0.2775  0.1892  0.2396
   90SOL     OW  357   0.688   1.169   2.826 -0.1034 -0.2369 -0.7154
   90SOL    HW1  358   0.741   1.108   2.870 -1.5890  0.5315  2.5525
   90SOL    HW2  359   0.690   1.244   2.892  0.4728 -0.3573  1.8633
   90SOL     MW  360   0.695   1.171   2.841 -0.2234 -0.1514  0.0560
   91SOL     OW  361   2.222   0.657   0.544 -0.5090 -0.2460 -0.5212
   91SOL    HW1  362   2.250   0.708   0.464 -0.7107 -0.6916 -0.9395
   91SOL    HW2  363   2.219   0.573   0.500 -0.8932  0.9993 -1.3004
   91SOL     MW  364   2.225   0.653   0.528 -0.5863 -0.1405 -0.6792
   92SOL     OW  365   1.632   0.900   0.479  0.3252 -0.2016  0.5799
   92SOL    HW1  366   1.531   0.884   0.495 -1.1402 -0.8085  0.1998
   92SOL    HW2  367   1.669   0.828   0.423  0.3169 -1.0323  1.7689
   92SOL     MW  368   1.623   0.888   0.474  0.1307 -0.3912  0.6866
   93SOL     OW  369   1.024   0.311   0.369 -0.5703  0.4651  0.2323
   93SOL    HW1  370   0.939   0.345   0.348 -0.3331  0.9519 -1.6218
   93SOL    HW2  371   1.077   0.310   0.288  1.5069 -0.2520 -0.8234
   93SOL     MW  372   1.019   0.315   0.356 -0.2649  0.4347 -0.1516
   94SOL     OW  373   1.900   1.360   1.594 -0.3105 -0.0496  0.2598
   94SOL    HW1  374   1.898   1.361   1.498  0.2666  3.3610  1.4823
   94SOL    HW2  375   1.870   1.275   1.615 -2.3474  0.9321  1.1147
   94SOL     MW  376   1.896   1.349   1.584 -0.5031  0.5299  0.5339
   95SOL     OW  377   0.711   1.500   0.986 -0.3217 -0.0949  0.1539
   95SOL    HW1  378   0.794   1.443   0.996  1.1676  2.4737 -1.0338
   95SOL    HW2  379   0.636   1.445   0.963 -0.3924  1.1995  3.1483
   95SOL     MW  380   0.712   1.485   0.984 -0.1345  0.4148  0.3923
   96SOL     OW  381   1.228   1.797   1.567  0.1038  0.3311  0.7512
   96SOL    HW1  382   1.141   1.771   1.613  0.3967  1.2148 -2.3527
   96SOL    HW2  383   1.254   1.725   1.516 -1.7200  1.5970 -1.7326
   96SOL     MW  384   1.220   1.784   1.566 -0.0982  0.6147  0.0139
   97SOL     OW  385   1.242   1.466   0.798  0.7617  0.3033  1.2594
   97SOL    HW1  386   1.245   1.516   0.879 -2.1040 -0.2334  0.7984
   97SOL    HW2  387   1.170   1.514   0.752 -1.4677 -0.0279 -0.9629
   97SOL     MW  388   1.233   1.479   0.803  0.0894  0.1888  0.9054
   98SOL     OW  389   1.482   1.303   1.054 -0.0544  0.5569  0.1227
   98SOL    HW1  390   1.484   1.369   1.120  0.9996 -2.2855 -1.3769
   98SOL    HW2  391   1.537   1.330   0.982 -0.3251  0.9896 -0.1433
   98SOL     MW  392   1.490   1.315   1.053  0.0489  0.2390 -0.1102
   99SOL     OW  393   1.414   0.385   1.309 -0.4054 -0.0294  0.3781
   99SOL    HW1  394   1.450   0.424   1.228  2.0871 -0.9903  0.7604
   99SOL    HW2  395   1.468   0.414   1.387 -2.1818 -0.1144  1.8111
   99SOL     MW  396   1.426   0.394   1.308 -0.3109 -0.1674  0.6176
  100SOL     OW  397   1.043   1.131   1.436  0.0779  0.2745 -0.7576
  100SOL    HW1  398   1.060   1.178   1.519  1.1258  0.1755  0.1600
  100SOL    HW2  399   1.029   1.038   1.457 -3.7838 -0.2696  2.6422
  100SOL     MW  400   1.044   1.125   1.450 -0.2933  0.1897 -0.1879
  101SOL     OW  401   0.549   1.067   0.263  0.0052 -0.0787  0.0206
  101SOL    HW1  402   0.515   0.982   0.295 -2.1298  1.6005 -1.7736
  101SOL    HW2  403   0.503   1.084   0.177  1.5656  0.8835  2.4215
  101SOL     MW  404   0.538   1.058   0.256 -0.0706  0.2698  0.1007
  102SOL     OW  405   2.955   0.647   0.942 -0.6130 -0.1188  0.3130
  102SOL    HW1  406   2.976   0.739   0.981 -0.3159  0.4368 -1.9497
  102SOL    HW2  407   2.987   0.580   1.010  1.5973 -1.7969  0.3354
  102SOL     MW  408   2.962   0.651   0.956 -0.2822 -0.2669  0.0174
  103SOL     OW  409   1.733   0.381   1.841  0.5886  0.2472 -0.0788
  103SOL    HW1  410   1.682   0.301   1.822  2.1864  2.0982  0.6125
  103SOL    HW2  411   1.808   0.358   1.905  0.2225 -0.8705 -0.0128
  103SOL     MW  412   1.736   0.367   1.847  0.7511  0.3439  0.0211
  104SOL     OW  413   0.164   1.785   1.519 -0.4428 -0.1325 -0.1728
  104SOL    HW1  414   0.089   1.738   1.486  3.4420  1.9766  1.9763
  104SOL    HW2  415   0.214   1.754   1.447 -0.5041 -2.5497  0.9032
  104SOL     MW  416   0.160   1.774   1.505  0.0616 -0.1731  0.2527
  105SOL     OW  417   0.034   1.186   0.504 -0.4174 -1.2017 -0.1499
  105SOL    HW1  418   0.040   1.102   0.459 -1.8783  0.9616 -2.3601
  105SOL    HW2  419   0.122   1.217   0.503 -1.2695  0.8079 -1.1987
  105SOL     MW  420   0.046   1.179   0.498 -0.7226 -0.6511 -0.5799
  106SOL     OW  421   0.859   0.384   1.008  0.2075  0.4742  0.2934
  106SOL    HW1  422   0.793   0.438   0.958 -1.3875  1.8554  1.4969
  106SOL    HW2  423   0.914   0.336   0.945  0.5544 -1.5738  1.5484
  106SOL     MW  424   0.857   0.385   0.993  0.0428  0.3862  0.6178
  107SOL     OW  425   0.805   2.158   2.987 -0.4939 -0.3114  0.1171
  107SOL    HW1  426   0.740   2.096   2.949 -2.1462 -0.0937  5.4820
  107SOL    HW2  427   0.827   2.139   3.078 -2.1934  3.0648  0.8729
  107SOL     MW  428   0.800   2.147   2.994 -0.9361  0.1628  0.9247
  108SOL     OW  429   1.337   1.584   1.471  0.0358 -0.6375  0.8150
  108SOL    HW1  430   1.287   1.519   1.417  1.7782  0.4025  0.4724
  108SOL    HW2  431   1.388   1.532   1.537  0.8086 -2.3579  3.1075
  108SOL     MW  432   1.337   1.568   1.473  0.3676 -0.7272  1.0722
  109SOL     OW  433   2.002   0.750   0.197 -0.1045 -0.0184 -0.5377
  109SOL    HW1  434   2.026   0.786   0.114  1.0798 -2.1342  2.7026
  109SOL    HW2  435   2.029   0.821   0.255 -2.2727 -1.0198  0.8968
  109SOL     MW  436   2.009   0.764   0.194 -0.2344 -0.4297  0.0791
  110SOL     OW  437   0.496   1.894   0.769 -0.5229  0.2942 -0.1693
  110SOL    HW1  438   0.551   1.821   0.725  0.4797  1.7488  2.1776
  110SOL    HW2  439   0.556   1.976   0.761 -0.0296  0.0894  2.4568
  110SOL     MW  440   0.511   1.895   0.762 -0.3256  0.4591  0.4869
  111SOL     OW  441   0.749   0.920   1.517  0.4738  0.5265  0.4250
  111SOL    HW1  442   0.730   0.905   1.423  0.7381  1.7099 -0.1734
  111SOL    HW2  443   0.680   0.873   1.565  0.6180  1.0534  0.9368
  111SOL     MW  444   0.738   0.912   1.511  0.5277  0.7522  0.4135
  112SOL     OW  445   1.305   1.072   1.660  0.4928  0.0451 -1.1418
  112SOL    HW1  446   1.240   1.142   1.670 -0.9077  0.9723 -1.8096
  112SOL    HW2  447   1.256   0.994   1.638  1.1229  1.2335 -2.7395
  112SOL     MW  448   1.290   1.071   1.659  0.3911  0.3242 -1.4407
  113SOL     OW  449   1.281   0.008   1.759 -0.5521  0.4895 -0.0670
  113SOL    HW1  450   1.263  -0.045   1.836 -1.1770  1.5456 -0.9156
  113SOL    HW2  451   1.315  -0.056   1.691 -0.2681  0.3331  0.1586
  113SOL     MW  452   1.283  -0.007   1.760 -0.5971  0.6082 -0.1492
  114SOL     OW  453   0.446   2.841   1.940 -0.7524  0.2702 -0.0086
  114SOL    HW1  454   0.440   2.908   2.008 -0.8294 -2.2464  2.1332
  114SOL    HW2  455   0.446   2.878   1.854 -0.6129  3.4373 -0.8030
  114SOL     MW  456   0.445   2.855   1.938 -0.7441  0.3561  0.1692
  115SOL     OW  457   0.479   0.818   1.111 -0.2786  0.2433 -0.1040
  115SOL    HW1  458   0.505   0.743   1.164  2.8170  0.8545 -1.1112
  115SOL    HW2  459   0.436   0.884   1.167  2.0206  1.0571  1.1872
  115SOL     MW  460   0.477   0.817   1.125  0.4332  0.4313 -0.0666
  116SOL     OW  461   0.771   0.995   0.995 -0.0109 -0.6169  0.2143
  116SOL    HW1  462   0.838   1.044   0.945 -0.6516  2.9268 -2.3894
  116SOL    HW2  463   0.791   1.038   1.080 -0.4721  3.2759  0.6111
  116SOL     MW  464   0.783   1.007   1.000 -0.1563  0.3643 -0.0768
  117SOL     OW  465   1.196   1.167   0.780 -0.3174  0.2839 -0.5939
  117SOL    HW1  466   1.210   1.127   0.868  0.2826  2.6527 -2.4636
  117SOL    HW2  467   1.190   1.261   0.793  1.9812  2.3679  1.2714
  117SOL     MW  468   1.197   1.174   0.793  0.0650  0.8714 -0.5945
  118SOL     OW  469   3.028   2.901   1.696 -0.1557  0.3432  0.0753
  118SOL    HW1  470   3.053   2.976   1.745  1.0981  0.9203 -1.0014
  118SOL    HW2  471   2.941   2.924   1.661  1.6980 -1.7740  1.4731
  118SOL     MW  472   3.020   2.914   1.698  0.2543  0.1400  0.1177
  119SOL     OW  473   0.472   1.416   1.212 -0.4324  0.3710  0.3452
  119SOL    HW1  474   0.484   1.443   1.122  0.9595 -0.6455 -1.0073
  119SOL    HW2  475   0.380   1.394   1.221  2.4028  1.3938 -1.6963
  119SOL     MW  476   0.461   1.416   1.201  0.1253  0.3718 -0.1026
  120SOL     OW  477   0.232   0.680   1.024  0.9666  0.0513 -0.0678
  120SOL    HW1  478   0.237   0.591   1.066  3.2656 -1.0798  0.6826
  120SOL    HW2  479   0.311   0.725   1.050 -0.0937  1.5571 -3.9967
  120SOL     MW  480   0.243   0.674   1.033  1.1301  0.1008 -0.4871
  121SOL     OW  481   1.810   1.087   1.693 -0.3101  0.3153 -0.1302
  121SOL    HW1  482   1.717   1.063   1.690  0.6106 -0.4610 -0.5263
  121SOL    HW2  483   1.853   1.034   1.622 -0.2112 -0.0505  0.6874
  121SOL     MW  484   1.804   1.077   1.684 -0.1756  0.1646 -0.0746
  122SOL     OW  485   0.133   0.571   0.782  0.1921  0.7789  0.5756
  122SOL    HW1  486   0.215   0.578   0.735  0.1562  0.7240 -0.4526
  122SOL    HW2  487   0.154   0.618   0.861  0.4597 -0.7261 -0.0013
  122SOL     MW  488   0.147   0.578   0.786  0.2227  0.5731  0.3638
  123SOL     OW  489   1.805   1.101   0.512 -0.2479 -0.1544  1.1280
  123SOL    HW1  490   1.747   1.023   0.492  2.6187 -0.3277  0.5256
  123SOL    HW2  491   1.811   1.105   0.604  0.3242  1.1959 -1.1582
  123SOL     MW  492   1.798   1.091   0.522  0.2058  0.0009  0.7469
  124SOL     OW  493   0.676   0.567   0.947  0.2052 -0.1128  0.0561
  124SOL    HW1  494   0.622   0.511   0.888 -0.9892  0.1693 -1.9635
  124SOL    HW2  495   0.696   0.647   0.886  3.1191 -0.6731 -0.5330
  124SOL     MW  496   0.672   0.570   0.931  0.4321 -0.1495 -0.2881
  125SOL     OW  497   0.697   1.767   1.697  0.3350  0.2931 -0.1559
  125SOL    HW1  498   0.617   1.714   1.699 -1.9303  1.0108 -1.2562
  125SOL    HW2  499   0.666   1.858   1.668  1.1975 -2.3564  0.0551
  125SOL     MW  500   0.682   1.772   1.693  0.1499  0.0382 -0.2732
  126SOL     OW  501   2.092   1.640   1.963  0.3029  0.2840 -0.1535
  126SOL    HW1  502   2.157   1.705   1.924 -1.8241  0.5547 -2.0158
  126SOL    HW2  503   2.136   1.557   1.978  0.7260 -0.0589 -1.5814
  126SOL     MW  504   2.107   1.637   1.960  0.0781  0.2744 -0.5876
  127SOL     OW  505   0.654   0.765   1.870  0.6074  0.2631  0.2092
  127SOL    HW1  506   0.740   0.714   1.870  0.4869 -1.2591 -0.0511
  127SOL    HW2  507   0.674   0.832   1.933  1.9374 -3.0987  0.7686
  127SOL     MW  508   0.668   0.767   1.878  0.7670 -0.3813  0.2486
  128SOL     OW  509   1.841   0.784   2.854 -0.4168  0.2705  0.2990
  128SOL    HW1  510   1.829   0.710   2.791  3.4099  0.2128 -2.3544
  128SOL    HW2  511   1.761   0.835   2.831  2.1749 -0.6717 -1.3596
  128SOL     MW  512   1.829   0.781   2.843  0.4301  0.1386 -0.2699
  129SOL     OW  513   1.597   0.934   0.202  0.5618 -0.5966 -0.2419
  129SOL    HW1  514   1.526   0.876   0.173 -2.2926 -1.6105 -2.4547
  129SOL    HW2  515   1.596   0.927   0.294  0.3171 -1.9776 -1.3891
  129SOL     MW  516   1.588   0.926   0.210  0.1529 -0.9126 -0.6852
  130SOL     OW  517   0.800   1.417   0.407  0.4918  0.0133 -0.1938
  130SOL    HW1  518   0.823   1.381   0.496 -1.7489  0.8126 -2.8253
  130SOL    HW2  519   0.877   1.429   0.354 -1.8979 -1.1077 -1.4734
  130SOL     MW  520   0.813   1.414   0.412 -0.1191 -0.0291 -0.7098
  131SOL     OW  521   3.011   0.822   3.079 -0.2435  0.2890 -0.0846
  131SOL    HW1  522   3.009   0.894   3.016 -1.2181  0.0772  0.7382
  131SOL    HW2  523   3.111   0.828   3.099 -1.0042  0.6974  1.9703
  131SOL     MW  524   3.024   0.833   3.073 -0.4725  0.3149  0.2951
  132SOL     OW  525   2.809   0.136   1.217 -0.3448 -0.0951 -0.3273
  132SOL    HW1  526   2.827   0.155   1.127 -0.7700  0.2403  0.4694
  132SOL    HW2  527   2.714   0.138   1.216  0.7935  3.2996 -0.3901
  132SOL     MW  528   2.799   0.139   1.205 -0.2508  0.3971 -0.2305
  133SOL     OW  529   1.051   0.165   1.706  0.1723  0.4983  0.1660
  133SOL    HW1  530   1.127   0.110   1.711  0.5136  2.0472 -0.5734
  133SOL    HW2  531   1.038   0.183   1.802 -0.7743 -2.2092  0.4481
  133SOL     MW  532   1.059   0.160   1.720  0.0925  0.3455  0.1057
  134SOL     OW  533   1.431   2.517   1.430  0.2536 -0.0248 -0.0118
  134SOL    HW1  534   1.377   2.593   1.401 -2.1477  1.1604  0.9580
  134SOL    HW2  535   1.472   2.549   1.512 -0.2410  0.1110 -1.3777
  134SOL     MW  536   1.430   2.531   1.437 -0.1285  0.1495 -0.0640
  135SOL     OW  537   3.023   1.030   2.858  0.2351 -0.2422 -0.5360
  135SOL    HW1  538   3.081   1.108   2.884  0.0748  3.4460  0.2063
  135SOL    HW2  539   2.936   1.070   2.867  1.5400  2.9855  1.0268
  135SOL     MW  540   3.019   1.045   2.862  0.3861  0.6703 -0.2318
  136SOL     OW  541   0.254   2.049   0.874 -0.3216  0.3347 -0.1293
  136SOL    HW1  542   0.172   1.996   0.866  2.1044  0.0969  2.2545
  136SOL    HW2  543   0.323   2.017   0.820  0.3095  2.3296  0.4331
  136SOL     MW  544   0.253   2.038   0.866  0.0818  0.5666  0.2594
  137SOL     OW  545   0.724   2.051   0.532 -0.2146 -0.2379  0.4006
  137SOL    HW1  546   0.760   2.037   0.619  0.0202  2.3435 -0.4735
  137SOL    HW2  547   0.630   2.086   0.542  0.1884  2.1830 -2.1434
  137SOL     MW  548   0.716   2.054   0.545 -0.1305  0.4221 -0.0504
  138SOL     OW  549   0.525   0.545   1.167  0.0448 -0.5384 -0.3990
  138SOL    HW1  550   0.440   0.505   1.128 -1.7081 -0.9263  0.3306
  138SOL    HW2  551   0.577   0.556   1.090  1.2487  0.4097  3.6212
  138SOL     MW  552   0.521   0.541   1.152 -0.0277 -0.4645  0.2277
  139SOL     OW  553   2.665   0.545   1.387  0.4525  0.3949 -0.5740
  139SOL    HW1  554   2.730   0.478   1.367 -1.2203  3.3281 -1.9251
  139SOL    HW2  555   2.711   0.616   1.423  0.7010 -0.6296 -0.3270
  139SOL     MW  556   2.679   0.546   1.389  0.2646  0.6468 -0.7197
  140SOL     OW  557   0.843   0.374   2.089  0.1972  0.1606 -0.4791
  140SOL    HW1  558   0.912   0.305   2.068 -0.2354 -0.6142 -0.7367
  140SOL    HW2  559   0.866   0.421   2.169  1.1490 -0.5649  2.0331
  140SOL     MW  560   0.855   0.371   2.097  0.2657 -0.0373 -0.1816
  141SOL     OW  561   1.077   0.550   1.775 -0.1640 -0.3739  0.3467
  141SOL    HW1  562   1.118   0.495   1.713  0.2236  0.1805  3.9334
  141SOL    HW2  563   1.101   0.641   1.750  0.4404 -0.8435  0.2443
  141SOL     MW  564   1.085   0.554   1.764 -0.0331 -0.3627  0.8064
  142SOL     OW  565   0.925   1.129   0.768 -0.8022  0.3390  0.3372
  142SOL    HW1  566   0.892   1.117   0.677 -1.6593  2.1613  0.5845
  142SOL    HW2  567   1.022   1.144   0.758  1.1011  1.6094 -1.1108
  142SOL     MW  568   0.934   1.129   0.755 -0.6642  0.7471  0.1788
  143SOL     OW  569   1.775   0.777   1.099 -0.3343  0.5098  0.1914
  143SOL    HW1  570   1.818   0.784   1.013  0.1159 -0.9923  1.3591
  143SOL    HW2  571   1.686   0.754   1.079 -1.8234 -1.7143 -1.3925
  143SOL     MW  572   1.769   0.775   1.085 -0.4714  0.0182  0.1365
  144SOL     OW  573   0.186   1.218   1.541  0.2457  0.2946 -0.2644
  144SOL    HW1  574   0.271   1.196   1.501 -0.4902 -1.1178 -0.3102
  144SOL    HW2  575   0.206   1.265   1.627  1.5078  0.2763  1.0492
  144SOL     MW  576   0.200   1.221   1.547  0.3151  0.1058 -0.0971
  145SOL     OW  577   0.282   0.414   1.050 -0.0601 -0.6812  0.0513
  145SOL    HW1  578   0.291   0.361   1.131 -4.2171  1.0390 -2.1786
  145SOL    HW2  579   0.325   0.368   0.988  0.0166 -0.3051 -0.3513
  145SOL     MW  580   0.289   0.401   1.052 -0.5984 -0.4046 -0.2960
  146SOL     OW  581   0.860   1.942   1.376 -0.6768  0.6808 -0.6815
  146SOL    HW1  582   0.901   1.949   1.285 -3.5372 -0.9883  0.7477
  146SOL    HW2  583   0.767   1.932   1.366  4.1523 -1.3471  2.2053
  146SOL     MW  584   0.853   1.942   1.362 -0.4171  0.1930 -0.1120
  147SOL     OW  585   0.374   0.388   2.964  0.1927  0.2115  0.6941
  147SOL    HW1  586   0.333   0.402   3.048 -1.3782 -0.7727 -1.3160
  147SOL    HW2  587   0.326   0.447   2.900  1.1442  0.9156 -0.3436
  147SOL     MW  588   0.362   0.398   2.967  0.1110  0.1746  0.2919
  148SOL     OW  589   0.114   0.868   1.337  0.0545  0.2925 -0.6630
  148SOL    HW1  590   0.191   0.907   1.302 -3.5891  1.1772  1.7616
  148SOL    HW2  591   0.111   0.890   1.432 -0.1036 -0.6227  2.5951
  148SOL     MW  592   0.124   0.876   1.345 -0.4471  0.2885  0.0868
  149SOL     OW  593   1.393   1.174   1.403 -0.4962 -0.5078 -0.4578
  149SOL    HW1  594   1.329   1.139   1.467  1.5486 -2.4343  0.2933
  149SOL    HW2  595   1.450   1.240   1.437 -0.3934 -1.1326 -2.7555
  149SOL     MW  596   1.392   1.178   1.416 -0.2128 -0.8444 -0.6619
  150SOL     OW  597   1.864   1.355   0.741 -0.4706  0.1718 -0.1711
  150SOL    HW1  598   1.861   1.261   0.747 -0.8730  0.2219 -1.1776
  150SOL    HW2  599   1.950   1.369   0.779  0.9836  1.0232 -0.9805
  150SOL     MW  600   1.875   1.344   0.747 -0.3318  0.2908 -0.4107
  151SOL     OW  601   1.653   1.867   0.844 -0.0595  0.0295  0.0124
  151SOL    HW1  602   1.612   1.864   0.758 -0.5053 -2.3374 -0.5310
  151SOL    HW2  603   1.612   1.808   0.901 -1.1398  1.5140 -3.7743
  151SOL     MW  604   1.643   1.859   0.840 -0.2608 -0.0869 -0.5589
  152SOL     OW  605   0.750   1.321   1.469 -0.5923 -0.3257 -0.2694
  152SOL    HW1  606   0.771   1.262   1.537 -0.6308  0.6784 -0.8237
  152SOL    HW2  607   0.834   1.365   1.447 -1.5582 -0.8952 -2.3746
  152SOL     MW  608   0.764   1.319   1.475 -0.7249 -0.2684 -0.6203
  153SOL     OW  609   2.638   1.275   0.764 -0.1666 -0.2960  0.0680
  153SOL    HW1  610   2.725   1.231   0.755  2.1610 -1.9582 -2.3706
  153SOL    HW2  611   2.571   1.214   0.733  1.9235 -1.0823  0.7871
  153SOL     MW  612   2.641   1.262   0.759  0.4163 -0.6191 -0.1589
  154SOL     OW  613   0.383   1.740   1.717  0.2321  0.3067  0.7804
  154SOL    HW1  614   0.355   1.730   1.628  1.8312 -0.2589  2.4936
  154SOL    HW2  615   0.341   1.674   1.766  2.2421  0.7721 -0.9209
  154SOL     MW  616   0.373   1.730   1.711  0.7083  0.2935  0.7820
  155SOL     OW  617   1.133   0.695   0.284  1.2713  0.2467 -0.0620
  155SOL    HW1  618   1.129   0.656   0.375 -0.8477  0.0731  1.3017
  155SOL    HW2  619   1.098   0.786   0.295  0.2030  1.2259 -1.3644
  155SOL     MW  620   1.128   0.702   0.297  0.8507  0.3530 -0.0539
  156SOL     OW  621   1.594   3.003   1.077  0.2458 -0.2641 -0.2256
  156SOL    HW1  622   1.583   3.092   1.119  1.3086  0.5562 -0.2544
  156SOL    HW2  623   1.579   2.938   1.142  2.0535  1.0905 -1.7176
  156SOL     MW  624   1.591   3.006   1.091  0.6245  0.0229 -0.4263
  157SOL     OW  625   1.408   1.140   0.121  0.2281 -0.2796 -0.0284
  157SOL    HW1  626   1.474   1.076   0.149 -2.7331  0.6082 -2.1155
  157SOL    HW2  627   1.454   1.224   0.128 -0.6521  0.0094  0.3268
  157SOL     MW  628   1.423   1.142   0.126 -0.2787 -0.1243 -0.2569
  158SOL     OW  629   0.463   1.655   2.239 -0.4421 -0.2876 -0.1411
  158SOL    HW1  630   0.463   1.707   2.162  0.8981  0.5342  0.7713
  158SOL    HW2  631   0.373   1.655   2.273 -2.5265 -1.4071 -0.2087
  158SOL     MW  632   0.451   1.662   2.233 -0.5403 -0.3269 -0.0297
  159SOL     OW  633   1.281   1.716   0.425  0.0895  0.2603 -0.4960
  159SOL    HW1  634   1.261   1.630   0.383  3.7446 -0.2731 -2.2921
  159SOL    HW2  635   1.205   1.738   0.492 -0.1893 -1.5952 -0.7165
  159SOL     MW  636   1.269   1.708   0.428  0.5349 -0.0549 -0.7620
  160SOL     OW  637   0.461   1.131   1.568 -0.1687  0.4038  0.2425
  160SOL    HW1  638   0.466   1.057   1.628  0.0504  3.1571  0.0960
  160SOL    HW2  639   0.516   1.195   1.611 -0.8223 -1.9990 -2.1578
  160SOL     MW  640   0.469   1.130   1.582 -0.2260  0.4501 -0.0935
  161SOL     OW  641   0.532   2.188   2.602 -0.2368  0.1588 -0.2133
  161SOL    HW1  642   0.441   2.158   2.585  0.1217 -0.4583 -3.2691
  161SOL    HW2  643   0.584   2.141   2.535 -1.2272  1.4802 -1.9218
  161SOL     MW  644   0.527   2.178   2.591 -0.3202  0.2517 -0.8419
  162SOL     OW  645   1.045   1.735   1.774  0.8667  0.1813  1.1291
  162SOL    HW1  646   1.067   1.825   1.810  1.5172  2.5752  2.7411
  162SOL    HW2  647   0.969   1.710   1.835 -1.2472 -0.7375 -1.4649
  162SOL     MW  648   1.038   1.744   1.787  0.6736  0.3759  0.9995
  163SOL     OW  649   2.097   0.070   0.976 -0.0685  0.0013 -0.1091
  163SOL    HW1  650   2.068   0.087   0.888 -0.7422 -2.5949 -2.5980
  163SOL    HW2  651   2.034   0.003   1.008  0.4608  0.0242 -3.1935
  163SOL     MW  652   2.085   0.063   0.968 -0.0876 -0.3382 -0.8444
  164SOL     OW  653   0.335   0.205   0.793 -0.0238  0.2654 -0.1130
  164SOL    HW1  654   0.239   0.203   0.816 -0.9295 -0.8284  1.0340
  164SOL    HW2  655   0.343   0.125   0.746 -0.0206  1.7638 -1.8800
  164SOL     MW  656   0.323   0.194   0.790 -0.1429  0.3188 -0.1948
  165SOL     OW  657   1.326   1.251   0.388 -0.1470  0.5266 -0.4056
  165SOL    HW1  658   1.259   1.191   0.432  2.0867 -0.3117 -2.0057
  165SOL    HW2  659   1.350   1.209   0.307  0.2945 -3.7540 -1.2397
  165SOL     MW  660   1.321   1.237   0.383  0.2059 -0.1488 -0.7267
  166SOL     OW  661   0.510   1.063   0.960 -0.2117  0.0105  0.6361
  166SOL    HW1  662   0.483   0.978   0.992  3.8903  0.5481 -0.2855
  166SOL    HW2  663   0.608   1.050   0.966 -0.3608  0.6278 -0.4375
  166SOL     MW  664   0.519   1.050   0.965  0.3099  0.1629  0.3728
  167SOL     OW  665   0.823   1.108   0.253 -1.0686 -0.4426 -0.7013
  167SOL    HW1  666   0.729   1.107   0.250  2.4564  0.3282  2.6360
  167SOL    HW2  667   0.857   1.182   0.205  1.2853 -0.0726 -0.7279
  167SOL     MW  668   0.815   1.118   0.246 -0.2929 -0.2921 -0.2645
  168SOL     OW  669   1.656   1.691   2.918 -0.4094 -0.3777 -0.0216
  168SOL    HW1  670   1.563   1.681   2.918 -0.5781 -0.8334  0.7200
  168SOL    HW2  671   1.694   1.608   2.952 -1.2145  2.6694  0.6728
  168SOL     MW  672   1.649   1.679   2.923 -0.5379 -0.0358  0.1679
  169SOL     OW  673   0.368   0.967   1.300  0.3070 -0.2596  0.3291
  169SOL    HW1  674   0.397   0.935   1.383 -1.5891  0.3171 -1.3617
  169SOL    HW2  675   0.405   1.060   1.296  0.9542 -0.7361  1.0834
  169SOL     MW  676   0.377   0.975   1.310  0.1422 -0.2464  0.2055
  170SOL     OW  677   0.994   1.447   1.481 -0.1575 -0.0164  0.5222
  170SOL    HW1  678   0.949   1.534   1.498  0.8134  0.3411 -0.0222
  170SOL    HW2  679   1.009   1.434   1.380 -2.3230  0.2615  1.2793
  170SOL     MW  680   0.990   1.457   1.469 -0.3151  0.0674  0.5503
  171SOL     OW  681   0.602   1.438   0.663  0.1545  0.1974 -0.5839
  171SOL    HW1  682   0.555   1.398   0.740 -2.5938 -0.9873 -0.2967
  171SOL    HW2  683   0.578   1.377   0.593  1.5615  0.0257 -1.3284
  171SOL     MW  684   0.592   1.425   0.664 -0.0225  0.0184 -0.6442
  172SOL     OW  685   0.842   0.335   1.276 -0.4005 -0.4615  0.0465
  172SOL    HW1  686   0.850   0.334   1.177  0.8390  0.7442 -1.0458
  172SOL    HW2  687   0.747   0.359   1.285  0.1156 -0.2041 -0.1444
  172SOL     MW  688   0.831   0.338   1.264 -0.1689 -0.2685 -0.1228
  173SOL     OW  689   0.480   1.660   0.402 -0.0730 -0.1842 -0.2321
  173SOL    HW1  690   0.474   1.562   0.380 -2.5941 -2.7989 -0.6558
  173SOL    HW2  691   0.505   1.665   0.496 -2.4636  1.4657  0.3069
  173SOL     MW  692   0.482   1.648   0.412 -0.7210 -0.3115 -0.2169
  174SOL     OW  693   1.946   0.988   1.479 -0.9094  0.4512  0.5920
  174SOL    HW1  694   1.893   0.901   1.482 -0.2464 -0.7479 -1.6414
  174SOL    HW2  695   1.910   1.016   1.391 -1.2445 -1.7982  0.1029
  174SOL     MW  696   1.934   0.980   1.468 -0.8661 -0.0038  0.2328
  175SOL     OW  697   0.468   1.373   0.332 -0.1637 -0.3780  0.0639
  175SOL    HW1  698   0.436   1.374   0.243  0.7072 -0.4972  0.8241
  175SOL    HW2  699   0.558   1.373   0.323  0.6809  2.4336 -0.9542
  175SOL     MW  700   0.475   1.374   0.319  0.0626 -0.0228  0.0299
  176SOL     OW  701   0.189   1.342   1.249 -0.4225  0.5782 -0.3886
  176SOL    HW1  702   0.152   1.336   1.158 -2.3914 -0.8071  1.4943
  176SOL    HW2  703   0.123   1.319   1.309 -0.7481  0.7712 -3.5374
  176SOL     MW  704   0.175   1.338   1.245 -0.7252  0.4209 -0.5556
  177SOL     OW  705   0.578   0.314   1.325 -0.3155  0.3224  0.6298
  177SOL    HW1  706   0.562   0.389   1.268 -1.0265 -0.0363  1.7771
  177SOL    HW2  707   0.594   0.343   1.411 -0.7073 -0.6121  0.7396
  177SOL     MW  708   0.578   0.328   1.329 -0.4610  0.1518  0.7957
  178SOL     OW  709   3.032   0.405   2.887  0.4643 -0.2141  0.4140
  178SOL    HW1  710   3.005   0.448   2.971  2.4204 -0.7840 -1.0328
  178SOL    HW2  711   2.952   0.406   2.836  0.7800 -0.8334  0.1626
  178SOL     MW  712   3.018   0.411   2.891  0.7640 -0.3710  0.1899
  179SOL     OW  713   1.599   1.351   1.454  0.0198  0.6313 -0.3988
  179SOL    HW1  714   1.604   1.387   1.541 -1.3527 -1.9144  0.8590
  179SOL    HW2  715   1.690   1.354   1.417 -1.9460  3.5686  0.7839
  179SOL     MW  716   1.612   1.356   1.461 -0.4207  0.6829 -0.0768
  180SOL     OW  717   2.981   0.203   0.455 -0.3305 -0.1121  0.3748
  180SOL    HW1  718   2.947   0.241   0.373  0.0102  2.5647 -0.4892
  180SOL    HW2  719   3.061   0.260   0.468  1.2452  0.6584  1.5671
  180SOL     MW  720   2.987   0.215   0.446 -0.0776  0.3428  0.4181
  181SOL     OW  721   1.160   1.386   3.045  0.2592 -0.8259  0.4055
  181SOL    HW1  722   1.240   1.422   3.079  1.6389 -0.7542 -1.6833
  181SOL    HW2  723   1.165   1.403   2.951  2.0481 -1.4189 -1.9538
  181SOL     MW  724   1.171   1.393   3.037  0.6772 -0.8947 -0.1814
  182SOL     OW  725   0.500   0.862   1.673  0.1381 -0.0882 -0.1199
  182SOL    HW1  726   0.428   0.819   1.721 -2.6028  2.6851  1.9148
  182SOL    HW2  727   0.568   0.830   1.733 -0.5441  0.1402 -1.3692
  182SOL     MW  728   0.500   0.852   1.687 -0.3135  0.3079 -0.0162
  183SOL     OW  729   1.495   1.509   1.245 -0.0832 -0.0888 -0.4326
  183SOL    HW1  730   1.438   1.555   1.307  2.0109  2.4964 -1.0482
  183SOL    HW2  731   1.549   1.448   1.306  1.3471 -1.0370  0.6168
  183SOL     MW  732   1.495   1.507   1.261  0.3818  0.1271 -0.3754
  184SOL     OW  733   0.900   0.634   1.966  0.4796 -0.3474 -0.1690
  184SOL    HW1  734   0.970   0.602   1.908  0.4609  1.2421 -0.5306
  184SOL    HW2  735   0.878   0.562   2.024 -3.4592 -2.2876 -0.6214
  184SOL     MW  736   0.907   0.620   1.966 -0.0425 -0.3937 -0.2764
  185SOL     OW  737   1.175   0.950   1.963 -0.5328  0.8404 -0.6230
  185SOL    HW1  738   1.212   0.872   2.007  0.6583 -2.2554 -2.7778
  185SOL    HW2  739   1.224   1.026   1.986 -3.0868 -2.2298  2.0520
  185SOL     MW  740   1.187   0.950   1.972 -0.7126  0.0268 -0.5544
  186SOL     OW  741   0.430   1.645   1.422  0.0998 -0.6539  0.2304
  186SOL    HW1  742   0.522   1.639   1.395 -0.1089  2.0019  0.4164
  186SOL    HW2  743   0.384   1.601   1.347 -0.9362 -0.7221 -2.8235
  186SOL     MW  744   0.436   1.638   1.408 -0.0644 -0.3125 -0.1480
  187SOL     OW  745   1.448   0.762   1.450 -0.1000 -0.2647 -0.1522
  187SOL    HW1  746   1.452   0.734   1.543 -1.3259  0.6106  0.6455
  187SOL    HW2  747   1.357   0.743   1.428  0.7787 -0.6832  0.0584
  187SOL     MW  748   1.437   0.756   1.460 -0.1458 -0.2044 -0.0192
  188SOL     OW  749   1.901   1.097   0.800  0.2848  0.4957  0.3923
  188SOL    HW1  750   1.893   1.089   0.897 -0.0188  1.2777 -1.1793
  188SOL    HW2  751   1.986   1.061   0.788 -0.1540  0.5911  0.8889
  188SOL     MW  752   1.911   1.091   0.811  0.1868  0.6114  0.2504
  189SOL     OW  753   0.734   0.772   0.790 -0.2236 -0.4189  0.7315
  189SOL    HW1  754   0.652   0.822   0.778  0.0385 -0.2248  2.7199
  189SOL    HW2  755   0.780   0.830   0.851 -1.0353 -0.3812 -2.7019
  189SOL     MW  756   0.729   0.786   0.796 -0.2961 -0.3883  0.5408
  190SOL     OW  757   1.864   0.189   2.024 -0.2166 -0.2094  0.0558
  190SOL    HW1  758   1.861   0.107   2.067  2.4837 -0.3218 -3.5858
  190SOL    HW2  759   1.941   0.234   2.060 -2.5503  0.1540  0.4466
  190SOL     MW  760   1.874   0.184   2.035 -0.1683 -0.1763 -0.3731
  191SOL     OW  761   1.465   0.956   1.236 -0.3319  0.1777 -0.3599
  191SOL    HW1  762   1.426   1.038   1.265  1.4037  1.2166 -1.2876
  191SOL    HW2  763   1.474   0.908   1.320 -2.3851  0.4621 -0.7844
  191SOL     MW  764   1.461   0.960   1.251 -0.3738  0.3523 -0.5383
  192SOL     OW  765   0.621   2.039   2.822 -0.4753  0.1406 -0.3992
  192SOL    HW1  766   0.572   2.090   2.754  0.1754 -1.4284  3.5514
  192SOL    HW2  767   0.591   1.952   2.815 -0.6763  1.8764  0.3319
  192SOL     MW  768   0.611   2.034   2.812 -0.4160  0.1626  0.2185
  193SOL     OW  769   1.014   1.587   0.721  0.1564 -0.2944  0.2661
  193SOL    HW1  770   1.007   1.606   0.811 -0.4622 -2.1344 -2.9882
  193SOL    HW2  771   0.966   1.501   0.704  0.1178  1.6172 -2.9977
  193SOL     MW  772   1.006   1.578   0.730  0.0697 -0.2849 -0.5939
  194SOL     OW  773   0.495   1.342   0.914 -0.2189  0.1636 -0.1099
  194SOL    HW1  774   0.494   1.240   0.928  1.8595  2.3727 -0.5619
  194SOL    HW2  775   0.402   1.368   0.885  0.7015  0.6210 -0.0860
  194SOL     MW  776   0.482   1.332   0.912  0.1767  0.5154 -0.1664
  195SOL     OW  777   1.293   1.092   2.966  0.5906  0.6331 -0.2196
  195SOL    HW1  778   1.336   1.123   3.045 -0.2930 -0.8679 -2.4720
  195SOL    HW2  779   1.207   1.057   2.991  1.2773 -2.3801  3.7493
  195SOL     MW  780   1.287   1.092   2.980  0.5647  0.0375  0.0069
  196SOL     OW  781   2.178   1.023   0.641 -0.1014 -0.0602  0.2962
  196SOL    HW1  782   2.109   0.971   0.595  0.8113  1.0497 -0.4166
  196SOL    HW2  783   2.194   1.098   0.583  1.1850 -1.9769 -0.5871
  196SOL     MW  784   2.171   1.026   0.627  0.1887 -0.1667  0.0856
  197SOL     OW  785   0.692   1.280   2.022  0.5365 -0.3021  0.3089
  197SOL    HW1  786   0.666   1.193   2.019 -1.1601  1.1945  1.7529
  197SOL    HW2  787   0.660   1.313   1.940  0.4957  0.2678 -0.6512
  197SOL     MW  788   0.684   1.273   2.011  0.3073 -0.0295  0.3727
  198SOL     OW  789   2.947   1.450   1.045  0.2514 -0.7628  0.1527
  198SOL    HW1  790   2.932   1.546   1.062  0.3744  0.6112 -0.6576
  198SOL    HW2  791   2.862   1.397   1.053 -0.2251 -1.9787  1.3483
  198SOL     MW  792   2.934   1.455   1.049  0.2048 -0.7419  0.2036
  199SOL     OW  793   0.514   1.338   1.794  0.3163  0.1159  0.4652
  199SOL    HW1  794   0.422   1.308   1.793  0.1163 -0.0595  0.5539
  199SOL    HW2  795   0.532   1.409   1.724  0.3390  1.0079 -0.3683
  199SOL     MW  796   0.505   1.344   1.785  0.2929  0.2104  0.3669
  200SOL     OW  797   1.903   3.077   1.354 -0.4746 -0.0172 -0.4986
  200SOL    HW1  798   1.904   3.062   1.259  3.9464  0.1428 -1.7674
  200SOL    HW2  799   1.812   3.100   1.377 -1.4374  2.7934 -0.0336
  200SOL     MW  800   1.891   3.078   1.345 -0.0183  0.3747 -0.6046
  201SOL     OW  801   1.011   0.242   0.821 -0.6472 -0.0572  0.4205
  201SOL    HW1  802   1.000   0.151   0.784 -3.1402 -0.9563 -1.2870
  201SOL    HW2  803   1.068   0.283   0.763 -0.3946 -1.2979  1.2977
  201SOL     MW  804   1.017   0.236   0.808 -0.9428 -0.3395  0.3110
  202SOL     OW  805   1.530   1.648   0.987 -0.6542 -0.4120 -0.4841
  202SOL    HW1  806   1.576   1.571   0.944  1.5938  1.3651  1.2877
  202SOL    HW2  807   1.555   1.651   1.080 -0.3086 -2.0960  0.3994
  202SOL     MW  808   1.539   1.638   0.993 -0.3120 -0.3997 -0.1338
  203SOL     OW  809  -0.002   0.446   1.153  0.1134 -0.2834 -0.0647
  203SOL    HW1  810   0.039   0.380   1.104 -0.5758  2.1222 -0.8566
  203SOL    HW2  811   0.071   0.503   1.181 -0.6867 -1.7315  1.8980
  203SOL     MW  812   0.013   0.445   1.150 -0.0831 -0.1571  0.0898
  204SOL     OW  813   1.058   1.808   0.549  0.4695  0.3222  0.7458
  204SOL    HW1  814   1.039   1.734   0.616 -1.9999 -0.3649  0.8441
  204SOL    HW2  815   0.982   1.804   0.489  0.8480  0.0184 -1.1867
  204SOL     MW  816   1.045   1.797   0.550  0.1936  0.1915  0.5038
  205SOL     OW  817   1.359   0.100   1.328  0.0415  0.0041 -0.0277
  205SOL    HW1  818   1.312   0.101   1.242  2.1152  1.6421 -2.3734
  205SOL    HW2  819   1.369   0.199   1.337 -3.4480  1.4125  1.5850
  205SOL     MW  820   1.354   0.113   1.318 -0.1453  0.4060 -0.1244
  206SOL     OW  821   0.418   3.072   1.428  0.0950 -0.3159 -0.6109
  206SOL    HW1  822   0.340   3.042   1.374  0.4849  0.3968  0.7825
  206SOL    HW2  823   0.495   3.010   1.418 -0.7200  3.3976  1.1070
  206SOL     MW  824   0.418   3.060   1.419  0.0389  0.2681 -0.2004
  207SOL     OW  825   0.954   1.534   0.208 -0.2155 -0.4227  0.3603
  207SOL    HW1  826   0.950   1.628   0.203 -1.3147 -0.9845  0.0570
  207SOL    HW2  827   1.040   1.511   0.224 -1.3010  3.3624  0.4905
  207SOL     MW  828   0.964   1.543   0.210 -0.5038  0.0026  0.3374
  208SOL     OW  829   0.679   1.601   1.323 -0.0649  0.4386  0.3331
  208SOL    HW1  830   0.750   1.624   1.392 -0.9069  0.6810  1.5304
  208SOL    HW2  831   0.669   1.507   1.316 -1.9181  1.7570  2.3982
  208SOL     MW  832   0.687   1.591   1.331 -0.4205  0.6445  0.7636
  209SOL     OW  833   1.584   0.546   2.854  0.1814 -0.2717  0.4788
  209SOL    HW1  834   1.645   0.586   2.917  0.8808 -1.9637 -1.0158
  209SOL    HW2  835   1.617   0.454   2.848 -2.5148  3.4505 -0.4593
  209SOL     MW  836   1.597   0.539   2.862 -0.0820 -0.0039  0.1579
  210SOL     OW  837   1.619   1.426   0.855 -0.3149 -0.6158 -0.3864
  210SOL    HW1  838   1.713   1.423   0.830  1.6141  0.7959 -3.5028
  210SOL    HW2  839   1.564   1.408   0.776  1.1633 -0.9455 -1.7292
  210SOL     MW  840   1.624   1.424   0.841  0.1347 -0.4730 -0.9747
  211SOL     OW  841   1.674   0.390   0.957 -0.3846  0.6529  0.4316
  211SOL    HW1  842   1.671   0.406   0.862 -0.8154 -1.4018 -1.1604
  211SOL    HW2  843   1.769   0.421   0.981  0.2870  1.0683 -0.4706
  211SOL     MW  844   1.686   0.396   0.947 -0.3529  0.4366  0.1025
  212SOL     OW  845   0.263   1.123   0.096 -0.3310  0.2430  0.5260
  212SOL    HW1  846   0.206   1.113   0.173 -0.0353  1.1514  0.9076
  212SOL    HW2  847   0.261   1.036   0.058 -0.1578 -1.2134  2.4481
  212SOL     MW  848   0.255   1.110   0.101 -0.2692  0.1707  0.8299
  213SOL     OW  849   0.396   1.759   3.034  0.5968 -0.5043  0.0351
  213SOL    HW1  850   0.446   1.768   3.116  2.5224  1.2219 -0.4632
  213SOL    HW2  851   0.461   1.762   2.964  2.2490  0.6909 -0.1606
  213SOL     MW  852   0.411   1.761   3.036  1.0689 -0.1188 -0.0565
  214SOL     OW  853   0.608   0.291   2.224 -0.6116  0.0786  0.1805
  214SOL    HW1  854   0.540   0.356   2.196 -2.8052 -0.9573 -1.1141
  214SOL    HW2  855   0.681   0.301   2.166  1.1186 -0.7202 -2.7819
  214SOL     MW  856   0.609   0.301   2.213 -0.6727 -0.1635 -0.3812
  215SOL     OW  857   0.469   0.666   2.639  0.0870 -0.4294  0.2746
  215SOL    HW1  858   0.491   0.659   2.544  2.5637 -0.4890  1.1511
  215SOL    HW2  859   0.404   0.593   2.647  1.2304  0.2464 -2.9970
  215SOL     MW  860   0.463   0.655   2.627  0.5647 -0.3481 -0.0414
  216SOL     OW  861   3.041   3.068   2.661  0.1054  0.6630  0.5450
  216SOL    HW1  862   3.003   3.052   2.752 -2.2967  1.4683 -0.2032
  216SOL    HW2  863   2.988   3.142   2.622  0.3605  2.5631 -0.8395
  216SOL     MW  864   3.029   3.075   2.668 -0.1779  1.0199  0.2636
  217SOL     OW  865   0.916   1.245   0.027 -0.6519 -0.4817  0.2217
  217SOL    HW1  866   0.952   1.158   0.037 -1.4964  2.3444 -0.9744
  217SOL    HW2  867   0.990   1.296  -0.013  0.2232  2.2170  2.5130
  217SOL     MW  868   0.930   1.240   0.023 -0.6478  0.2473  0.3662
  218SOL     OW  869   0.902   1.287   2.532  0.4212 -0.0278  0.8837
  218SOL    HW1  870   0.926   1.212   2.581 -2.2908  0.0436  0.3136
  218SOL    HW2  871   0.970   1.351   2.536 -1.4313 -0.5531 -1.6458
  218SOL     MW  872   0.914   1.286   2.539 -0.1811 -0.0877  0.4747
  219SOL     OW  873   1.090   0.462   2.552 -0.0985  0.3461  0.2480
  219SOL    HW1  874   1.152   0.516   2.597 -0.0797 -0.1643 -1.2461
  219SOL    HW2  875   1.044   0.520   2.499  0.3628 -0.7237  2.7829
  219SOL     MW  876   1.092   0.476   2.551 -0.0352  0.1376  0.3853
  220SOL     OW  877   1.785   0.413   2.196  0.5545  0.0885  0.4656
  220SOL    HW1  878   1.712   0.458   2.156  0.7048 -1.7367  1.3456
  220SOL    HW2  879   1.771   0.321   2.162 -2.4978  0.6734  0.1230
  220SOL     MW  880   1.774   0.407   2.186  0.1716 -0.0751  0.5365
  221SOL     OW  881   0.374   1.334   2.880  0.2905  0.6943  0.5548
  221SOL    HW1  882   0.367   1.241   2.856  0.2327  0.4252  2.0353
  221SOL    HW2  883   0.377   1.378   2.792  1.3193  1.3782  0.8611
  221SOL     MW  884   0.373   1.328   2.865  0.4186  0.7490  0.7906
  222SOL     OW  885   0.312   0.894   2.643  0.3713 -0.1091 -0.5325
  222SOL    HW1  886   0.308   0.921   2.548  0.0753  0.5741 -0.5357
  222SOL    HW2  887   0.359   0.811   2.644 -2.3280 -0.1988 -0.7191
  222SOL     MW  888   0.318   0.886   2.631 -0.0239 -0.0308 -0.5575
  223SOL     OW  889   0.045   2.082   2.605  0.5447  0.5186 -0.3282
  223SOL    HW1  890   0.092   2.007   2.638 -0.2409  0.5946  2.3740
  223SOL    HW2  891   0.094   2.139   2.548 -2.1818  1.4695  1.5682
  223SOL     MW  892   0.058   2.080   2.602  0.0813  0.6541  0.2785
  224SOL     OW  893   1.504   0.798   2.610  0.1520 -0.5281 -0.0729
  224SOL    HW1  894   1.484   0.829   2.696 -0.5460  0.4634  2.2823
  224SOL    HW2  895   1.482   0.868   2.551  0.5374  0.4732  0.2970
  224SOL     MW  896   1.498   0.811   2.614  0.1108 -0.2652  0.2867
  225SOL     OW  897   2.988   1.526   2.300  0.2329  0.1119  0.5293
  225SOL    HW1  898   3.016   1.607   2.253 -0.7157 -0.8531 -1.3038
  225SOL    HW2  899   2.917   1.557   2.357 -0.7868  0.3707 -0.7522
  225SOL     MW  900   2.982   1.541   2.301 -0.0268  0.0187  0.1184
  226SOL     OW  901   0.408   1.417   2.615  0.1809  0.1086 -0.1933
  226SOL    HW1  902   0.498   1.429   2.591  1.9085  1.8700  0.1159
  226SOL    HW2  903   0.384   1.512   2.620  1.4102 -0.3390 -0.4137
  226SOL     MW  904   0.417   1.431   2.612  0.5710  0.2820 -0.1816
  227SOL     OW  905   0.416   1.069   2.825  0.2386 -0.1420  0.0499
  227SOL    HW1  906   0.504   1.068   2.794 -2.2359  1.8262  4.0101
  227SOL    HW2  907   0.376   1.008   2.764  2.0701  1.2444  4.5109
  227SOL     MW  908   0.423   1.061   2.813  0.1537  0.3006  1.1610
  228SOL     OW  909   0.685   0.991   2.014  0.7087 -0.3731  0.1900
  228SOL    HW1  910   0.772   1.002   1.968  0.4066  0.4754  0.4469
  228SOL    HW2  911   0.696   0.962   2.105  3.4453 -0.8149  2.2228
  228SOL     MW  912   0.698   0.989   2.019  1.0299 -0.3195  0.4921
  229SOL     OW  913   0.143   0.544   3.089  0.0656  0.1716 -0.0210
  229SOL    HW1  914   0.050   0.552   3.074 -1.7454  0.2679  2.0832
  229SOL    HW2  915   0.143   0.472   3.155 -2.5885  4.5140 -0.3229
  229SOL     MW  916   0.131   0.536   3.096 -0.5235  0.7573  0.2168
  230SOL     OW  917   1.753   1.398   2.032  0.2628  0.3579 -0.0329
  230SOL    HW1  918   1.708   1.393   2.120 -0.8707 -0.0155  0.2408
  230SOL    HW2  919   1.826   1.338   2.043 -0.7741  0.0880 -0.8588
  230SOL     MW  920   1.756   1.390   2.045 -0.0235  0.2731 -0.1058
  231SOL     OW  921   2.755   1.337   2.252 -0.0766 -0.4021 -0.2667
  231SOL    HW1  922   2.837   1.389   2.259  0.9484  1.6710 -1.2969
  231SOL    HW2  923   2.695   1.382   2.184 -0.0312  3.0790 -0.5890
  231SOL     MW  924   2.758   1.350   2.244  0.0646  0.3308 -0.4451
  232SOL     OW  925   2.243   0.854   2.161  0.2342 -0.5777  0.5781
  232SOL    HW1  926   2.177   0.879   2.092  2.0317 -1.9916 -0.4530
  232SOL    HW2  927   2.194   0.884   2.241 -0.9231  1.2742  0.6581
  232SOL     MW  928   2.228   0.861   2.163  0.3187 -0.5199  0.4526
  233SOL     OW  929   2.035   0.533   1.969  0.2541 -0.2492  0.2028
  233SOL    HW1  930   2.106   0.508   1.916 -1.8165  0.9810  1.1175
  233SOL    HW2  931   2.054   0.533   2.063 -0.6019 -1.3496 -0.8356
  233SOL     MW  932   2.046   0.530   1.975 -0.1320 -0.2320  0.1865
  234SOL     OW  933   0.275   1.007   2.367 -0.3882  0.1186  0.1247
  234SOL    HW1  934   0.180   1.024   2.359 -1.8841 -0.3647 -2.2186
  234SOL    HW2  935   0.323   1.084   2.405  0.5302  1.2333  1.0283
  234SOL     MW  936   0.269   1.020   2.371 -0.4644  0.2019 -0.0653
  235SOL     OW  937   1.097   3.075   2.720  0.3313 -0.6288 -0.8610
  235SOL    HW1  938   1.144   3.023   2.786  1.2693 -0.3023 -0.6689
  235SOL    HW2  939   1.066   3.152   2.772 -1.3995 -0.7409  3.6250
  235SOL     MW  940   1.099   3.079   2.736  0.2267 -0.6005 -0.2438
  236SOL     OW  941   2.950   0.526   0.023 -0.4813 -0.2439 -0.3926
  236SOL    HW1  942   2.857   0.538  -0.004 -0.4557  0.5945 -2.3619
  236SOL    HW2  943   2.974   0.614   0.054  1.2365 -0.2551  0.8202
  236SOL     MW  944   2.941   0.539   0.024 -0.2513 -0.1347 -0.4924
  237SOL     OW  945   1.878   0.986   2.159  1.0799  0.5443  0.3177
  237SOL    HW1  946   1.917   1.071   2.172 -0.9192 -1.1228  0.0754
  237SOL    HW2  947   1.865   0.962   2.248  1.1452 -1.1737 -1.3211
  237SOL     MW  948   1.881   0.994   2.172  0.8248  0.0977  0.0695
  238SOL     OW  949   1.081   1.794   3.030  0.0296  0.3682  0.1038
  238SOL    HW1  950   1.015   1.728   2.990  0.6499  0.5957 -0.2225
  238SOL    HW2  951   1.170   1.760   3.021  0.4996  0.0254 -0.8687
  238SOL     MW  952   1.084   1.781   3.023  0.1735  0.3530 -0.0676
  239SOL     OW  953   1.268   1.402   2.351  0.3632 -0.4394  0.4866
  239SOL    HW1  954   1.208   1.452   2.405  0.7075 -1.3686 -1.5862
  239SOL    HW2  955   1.289   1.318   2.402  1.1507 -3.8455 -1.8448
  239SOL     MW  956   1.263   1.397   2.365  0.5126 -1.0114 -0.0945
  240SOL     OW  957   0.706   0.822   2.239  0.4462 -0.0290  0.5269
  240SOL    HW1  958   0.725   0.864   2.324  2.0439 -0.1000 -0.6957
  240SOL    HW2  959   0.787   0.765   2.223  2.7126  0.6515  0.5756
  240SOL     MW  960   0.719   0.820   2.248  0.9560  0.0514  0.3720
  241SOL     OW  961   0.659   0.368   3.091  0.3819  0.0086  0.0723
  241SOL    HW1  962   0.684   0.452   3.134 -1.2755  0.4248  0.4348
  241SOL    HW2  963   0.569   0.385   3.066 -0.9024 -2.9277  0.2747
  241SOL     MW  964   0.650   0.381   3.094 -0.0062 -0.3239  0.1468
  242SOL     OW  965   1.482   1.684   2.281 -0.0143 -0.2090  0.7570
  242SOL    HW1  966   1.445   1.765   2.316  0.2158 -2.6909  1.8004
  242SOL    HW2  967   1.420   1.641   2.217  1.7247 -1.1684  0.4232
  242SOL     MW  968   1.469   1.689   2.277  0.2455 -0.6630  0.8506
  243SOL     OW  969   1.015   0.237   2.421  0.5432  0.4202  0.1665
  243SOL    HW1  970   1.104   0.212   2.408 -3.2510 -2.6581  0.6333
  243SOL    HW2  971   1.023   0.297   2.494  0.7956 -1.4484  1.3749
  243SOL     MW  972   1.028   0.241   2.429  0.0759 -0.2325  0.3875
  244SOL     OW  973   0.255   0.741   2.399  0.6954 -0.0956  0.1787
  244SOL    HW1  974   0.264   0.835   2.368 -0.8282  0.4557 -0.6722
  244SOL    HW2  975   0.350   0.712   2.386 -0.3920  1.2178  1.6115
  244SOL     MW  976   0.269   0.750   2.393  0.3509  0.1505  0.2555
  245SOL     OW  977   1.278   0.231   2.332  0.4194  0.1592  0.3475
  245SOL    HW1  978   1.358   0.178   2.336 -0.1344  2.4142 -2.3414
  245SOL    HW2  979   1.305   0.301   2.393 -0.6495 -1.1162 -0.3902
  245SOL     MW  980   1.292   0.233   2.341  0.2053  0.2884 -0.1046
  246SOL     OW  981   1.194   1.229   2.119 -0.2550 -0.1797  0.2319
  246SOL    HW1  982   1.135   1.161   2.154 -0.1500  0.3268 -0.1009
  246SOL    HW2  983   1.222   1.276   2.203 -0.0259  3.6971  2.5706
  246SOL     MW  984   1.190   1.227   2.134 -0.2109  0.3987  0.4965
  247SOL     OW  985   0.762   0.575   0.139  0.4338  0.4659 -0.6991
  247SOL    HW1  986   0.708   0.649   0.115 -2.2717 -1.3655 -0.5677
  247SOL    HW2  987   0.852   0.594   0.118  1.3697  0.6793  1.7862
  247SOL     MW  988   0.767   0.587   0.133  0.2003  0.2525 -0.3539
  248SOL     OW  989   0.461   1.173   2.475 -0.1101 -0.0441  0.0499
  248SOL    HW1  990   0.500   1.219   2.394  2.0160  0.2629 -0.5021
  248SOL    HW2  991   0.443   1.239   2.544 -0.6288  0.7768 -1.9092
  248SOL     MW  992   0.464   1.188   2.473  0.1020  0.1047 -0.2814
  249SOL     OW  993   0.182   1.848   2.702 -0.3252 -0.7985 -0.1822
  249SOL    HW1  994   0.133   1.796   2.640  3.1089  1.8148  1.9751
  249SOL    HW2  995   0.150   1.820   2.790 -0.6634 -3.1592  0.2579
  249SOL     MW  996   0.172   1.838   2.705  0.0833 -0.7651  0.1605
  250SOL     OW  997   2.148   0.865   2.424  1.0913  0.4524 -0.1150
  250SOL    HW1  998   2.192   0.782   2.442  1.3696 -3.2599  0.1340
  250SOL    HW2  999   2.202   0.933   2.465 -0.5653  0.7763 -0.1855
  250SOL     MW 1000   2.161   0.863   2.432  0.9094  0.0053 -0.0915
  251SOL     OW 1001   0.188   0.857   2.060 -0.2477  0.7031 -0.6409
  251SOL    HW1 1002   0.176   0.770   2.084 -1.7779  1.3132  2.9228
  251SOL    HW2 1003   0.219   0.860   1.972  0.1500  0.5785 -0.2464
  251SOL     MW 1004   0.190   0.846   2.051 -0.3971  0.7672 -0.1186
  252SOL     OW 1005   1.667   1.013   2.900  0.1008 -0.2561  0.3983
  252SOL    HW1 1006   1.690   1.066   2.979  0.1481 -0.8966  2.0631
  252SOL    HW2 1007   1.733   1.046   2.838 -1.6936  1.3088  0.2974
  252SOL     MW 1008   1.679   1.024   2.902 -0.1297 -0.1341  0.6046
  253SOL     OW 1009   1.149   1.743   2.566  0.5330  0.3440  0.2117
  253SOL    HW1 1010   1.176   1.773   2.483  0.7965 -0.3508 -0.3335
  253SOL    HW2 1011   1.076   1.806   2.593 -0.1885 -2.2427 -1.1800
  253SOL     MW 1012   1.143   1.755   2.558  0.4726 -0.0889 -0.0438
  254SOL     OW 1013   1.003   1.069   2.251  0.5599 -0.7065 -0.0302
  254SOL    HW1 1014   0.982   0.977   2.221  0.4186 -1.8097  1.5872
  254SOL    HW2 1015   0.913   1.108   2.279 -0.5604  0.9275  1.3613
  254SOL     MW 1016   0.988   1.062   2.251  0.3934 -0.6365  0.3668
  255SOL     OW 1017   0.834   2.524   2.204 -0.1345  0.6334  0.9992
  255SOL    HW1 1018   0.750   2.479   2.219 -0.7170  2.2124 -1.9947
  255SOL    HW2 1019   0.876   2.536   2.291  1.1907 -1.1017 -0.7480
  255SOL     MW 1020   0.828   2.519   2.218 -0.0365  0.6128  0.3737
  256SOL     OW 1021   1.205   2.844   2.851 -0.3850 -0.0096 -0.0376
  256SOL    HW1 1022   1.184   2.779   2.786  2.2617  0.5081  2.5917
  256SOL    HW2 1023   1.305   2.848   2.844  1.3525 -3.2261  1.1604
  256SOL     MW 1024   1.215   2.836   2.841  0.1935 -0.3657  0.4673
  257SOL     OW 1025   0.145   1.920   0.086 -0.4192 -0.6535 -0.1897
  257SOL    HW1 1026   0.200   1.885   0.162  1.4033  2.3963  1.4598
  257SOL    HW2 1027   0.148   1.851   0.019  0.0194  0.9803 -1.5875
  257SOL     MW 1028   0.152   1.906   0.087 -0.1209 -0.0356 -0.1565
  258SOL     OW 1029   0.715   1.024   2.471  0.0732 -0.4277 -0.7615
  258SOL    HW1 1030   0.746   1.098   2.423  1.1572  2.0089 -0.4442
  258SOL    HW2 1031   0.621   1.047   2.497 -3.5345 -0.6833 -0.5879
  258SOL     MW 1032   0.706   1.037   2.469 -0.2598 -0.1399 -0.6967
  259SOL     OW 1033   0.763   0.512   2.337 -0.3172 -0.1897 -0.0692
  259SOL    HW1 1034   0.693   0.584   2.342  2.3850  0.8742  2.9272
  259SOL    HW2 1035   0.720   0.426   2.319 -1.2549 -0.6005  0.3948
  259SOL     MW 1036   0.748   0.510   2.336 -0.0844 -0.1035  0.3874
  260SOL     OW 1037   0.586   0.165   1.579 -0.0441  0.2368 -0.2970
  260SOL    HW1 1038   0.527   0.122   1.517 -0.1204 -2.0033  0.6130
  260SOL    HW2 1039   0.675   0.152   1.553  0.9062  2.3551 -2.2619
  260SOL     MW 1040   0.590   0.157   1.567  0.0712  0.2208 -0.4362
  261SOL     OW 1041   1.218   0.684   2.025  0.6445  0.3270  0.5436
  261SOL    HW1 1042   1.259   0.706   2.110 -1.8622  1.4242  0.0453
  261SOL    HW2 1043   1.272   0.610   1.990  0.1107 -1.2323 -0.5871
  261SOL     MW 1044   1.230   0.677   2.031  0.2433  0.2660  0.3287
  262SOL     OW 1045   1.155   0.293   0.133 -0.1545 -0.8343  0.1834
  262SOL    HW1 1046   1.247   0.300   0.111 -0.9006 -0.1875 -1.5503
  262SOL    HW2 1047   1.120   0.215   0.084  0.0292  1.4887  0.1045
  262SOL     MW 1048   1.163   0.283   0.124 -0.2287 -0.4425 -0.0557
  263SOL     OW 1049   0.411   3.058   2.507  0.0751  0.1959 -0.5127
  263SOL    HW1 1050   0.332   3.113   2.510  1.4796  1.2075 -0.1471
  263SOL    HW2 1051   0.465   3.088   2.436 -1.3726 -1.3432 -0.5231
  263SOL     MW 1052   0.408   3.069   2.498  0.0694  0.1263 -0.4658
  264SOL     OW 1053   1.519   1.297   1.910 -0.0656  0.7072 -0.0674
  264SOL    HW1 1054   1.445   1.304   1.967  0.6192 -1.8297  0.4981
  264SOL    HW2 1055   1.599   1.322   1.961 -0.6513 -0.3735 -0.9414
  264SOL     MW 1056   1.520   1.301   1.924 -0.0525  0.2299 -0.1081
  265SOL     OW 1057   0.679   2.751   2.246  0.6402  0.4876 -0.2606
  265SOL    HW1 1058   0.724   2.697   2.185  0.4615  2.6127  2.0704
  265SOL    HW2 1059   0.731   2.758   2.328 -1.3171 -0.4317 -2.5793
  265SOL     MW 1060   0.692   2.745   2.249  0.3584  0.6467 -0.2590
  266SOL     OW 1061   0.992   0.792   2.158  0.1799 -0.1350  0.1659
  266SOL    HW1 1062   0.972   0.761   2.071  1.1244  1.1555 -2.0830
  266SOL    HW2 1063   1.085   0.764   2.180 -0.7734  0.9352  2.4436
  266SOL     MW 1064   1.002   0.784   2.150  0.1788  0.1765  0.1697
  267SOL     OW 1065   1.379   1.656   2.703  0.2151 -0.2213  0.1469
  267SOL    HW1 1066   1.453   1.663   2.641 -2.5895 -0.9973  1.0281
  267SOL    HW2 1067   1.297   1.686   2.660 -1.0019  1.1995 -2.0758
  267SOL     MW 1068   1.378   1.661   2.689 -0.3155 -0.1362 -0.0301
  268SOL     OW 1069   0.264   0.777   1.812  0.2742  0.2627  0.6519
  268SOL    HW1 1070   0.215   0.836   1.748 -1.6501  3.0887 -0.0555
  268SOL    HW2 1071   0.248   0.689   1.779  1.0350  1.1758 -0.9687
  268SOL     MW 1072   0.256   0.773   1.799  0.1207  0.7561  0.3447
  269SOL     OW 1073   1.389   1.922   2.373 -0.0506  0.0160 -0.1952
  269SOL    HW1 1074   1.424   2.002   2.335 -0.8481 -1.9931 -1.5888
  269SOL    HW2 1075   1.334   1.960   2.449  0.1952  1.0879 -1.2562
  269SOL     MW 1076   1.386   1.938   2.378 -0.1234 -0.1076 -0.5190
  270SOL     OW 1077   1.192   0.381   1.603 -0.8833 -0.1139  0.1619
  270SOL    HW1 1078   1.153   0.312   1.659  0.0567  0.0036  1.1246
  270SOL    HW2 1079   1.291   0.374   1.615  0.9705  0.0498  1.5596
  270SOL     MW 1080   1.200   0.371   1.612 -0.5147 -0.0768  0.4733
  271SOL     OW 1081   0.900   0.002   2.441  0.5342  0.1719  1.2021
  271SOL    HW1 1082   0.907  -0.044   2.525 -1.1368 -0.3893 -0.9278
  271SOL    HW2 1083   0.942   0.094   2.436 -0.3003  0.3010  1.4524
  271SOL     MW 1084   0.906   0.008   2.452  0.2036  0.1149  0.9541
  272SOL     OW 1085   1.469   2.865   2.780  0.3881  0.5797 -0.4858
  272SOL    HW1 1086   1.431   2.906   2.695 -0.9247  1.8313  2.1404
  272SOL    HW2 1087   1.497   2.946   2.827  2.6255  1.7365  1.9296
  272SOL     MW 1088   1.467   2.881   2.775  0.5101  0.8974  0.1794
  273SOL     OW 1089   1.434   0.876   2.876  0.0212  0.4514  0.0570
  273SOL    HW1 1090   1.518   0.923   2.899 -0.8300 -0.6081  0.5657
  273SOL    HW2 1091   1.366   0.939   2.895  1.5244  1.6681  2.1932
  273SOL     MW 1092   1.436   0.891   2.882  0.1072  0.4721  0.4060
  274SOL     OW 1093   1.376   0.738   0.186 -0.0353  0.2055  0.0075
  274SOL    HW1 1094   1.427   0.657   0.197  0.8709  2.1916  2.0294
  274SOL    HW2 1095   1.286   0.723   0.230 -1.2778 -1.6850 -0.7313
  274SOL     MW 1096   1.371   0.725   0.193 -0.0797  0.2181  0.1768
  275SOL     OW 1097   1.689   0.656   1.800  0.0435 -0.3720  0.1170
  275SOL    HW1 1098   1.744   0.701   1.863 -1.0671 -0.9853 -1.1474
  275SOL    HW2 1099   1.716   0.563   1.812  2.7905 -2.1319 -0.3378
  275SOL     MW 1100   1.700   0.650   1.810  0.2594 -0.6851 -0.1098
  276SOL     OW 1101   0.253   1.252   1.814  0.2667 -0.1034 -0.2858
  276SOL    HW1 1102   0.304   1.204   1.884 -1.2002 -0.3037 -0.6119
  276SOL    HW2 1103   0.170   1.278   1.854 -4.0286 -3.8868 -0.7324
  276SOL     MW 1104   0.249   1.249   1.828 -0.4936 -0.6290 -0.3877
  277SOL     OW 1105   1.891   1.275   2.556  0.0307 -0.5761 -0.5243
  277SOL    HW1 1106   1.965   1.328   2.564 -2.1375 -3.1909  0.1797
  277SOL    HW2 1107   1.890   1.220   2.636 -2.3205 -1.7083 -1.0225
  277SOL     MW 1108   1.901   1.275   2.567 -0.5655 -1.0705 -0.4971
  278SOL     OW 1109   1.411   0.672   1.708 -0.2568 -0.3729 -0.5934
  278SOL    HW1 1110   1.364   0.612   1.773  0.6607 -4.4726  2.0304
  278SOL    HW2 1111   1.496   0.688   1.750  0.1574 -0.8263  0.3266
  278SOL     MW 1112   1.416   0.666   1.722 -0.0811 -0.9736 -0.1258
  279SOL     OW 1113   0.530   0.033   2.259 -0.2313 -0.2756  0.5799
  279SOL    HW1 1114   0.624   0.017   2.255 -0.2713  0.1300  0.6156
  279SOL    HW2 1115   0.531   0.115   2.212 -1.1120 -0.5531 -1.0286
  279SOL     MW 1116   0.543   0.042   2.252 -0.3528 -0.2587  0.3724
  280SOL     OW 1117   1.519   1.114   2.189  0.2470 -0.1795 -0.3728
  280SOL    HW1 1118   1.532   1.052   2.117  1.1999  0.0020 -1.0216
  280SOL    HW2 1119   1.497   1.063   2.265  0.8583 -0.0113 -0.3475
  280SOL     MW 1120   1.518   1.099   2.189  0.4534 -0.1333 -0.4550
  281SOL     OW 1121   1.305   1.274   2.738  0.0044  0.0373 -0.2123
  281SOL    HW1 1122   1.395   1.313   2.733  0.1779  0.1666 -2.0921
  281SOL    HW2 1123   1.293   1.221   2.821 -1.2258 -1.2930 -1.8202
  281SOL     MW 1124   1.315   1.272   2.748 -0.1350 -0.1211 -0.6725
  282SOL     OW 1125   1.142   1.279   1.684 -0.1625  0.4116 -0.4721
  282SOL    HW1 1126   1.129   1.358   1.636  1.0113 -2.8022  3.3560
  282SOL    HW2 1127   1.084   1.273   1.758 -0.6492  1.4015 -1.2864
  282SOL     MW 1128   1.132   1.289   1.687 -0.0719  0.1182 -0.0745
  283SOL     OW 1129   0.663   1.308   3.077 -0.4442  0.6572 -0.2732
  283SOL    HW1 1130   0.752   1.281   3.105 -0.3088  0.1354  0.9781
  283SOL    HW2 1131   0.659   1.398   3.101  1.2757 -1.5117  3.4819
  283SOL     MW 1132   0.674   1.316   3.084 -0.1994  0.3022  0.3873
  284SOL     OW 1133   0.511   0.661   2.342 -0.4336  0.0017  0.1707
  284SOL    HW1 1134   0.566   0.720   2.289 -1.9082 -1.3100 -2.3485
  284SOL    HW2 1135   0.478   0.603   2.273 -1.5348  0.1721  2.9305
  284SOL     MW 1136   0.514   0.661   2.326 -0.7735 -0.1489  0.2024
  285SOL     OW 1137   0.843   0.945   2.853  0.0200 -0.3002 -0.4606
  285SOL    HW1 1138   0.874   0.994   2.770  2.1074 -0.9065  0.6484
  285SOL    HW2 1139   0.794   0.866   2.812  1.9712 -0.8192 -0.8448
  285SOL     MW 1140   0.841   0.941   2.837  0.5528 -0.4487 -0.3650
  286SOL     OW 1141   1.089   1.482   2.598 -0.3554  0.1487 -0.1412
  286SOL    HW1 1142   1.155   1.428   2.635  0.8783  1.6594 -1.6444
  286SOL    HW2 1143   1.111   1.577   2.603 -2.1826  0.4545  0.7802
  286SOL     MW 1144   1.100   1.488   2.604 -0.4337  0.3883 -0.2180
  287SOL     OW 1145   1.024   0.923   0.305  0.6539  0.4065  0.1481
  287SOL    HW1 1146   1.054   0.979   0.380  1.6893  1.0403  1.4339
  287SOL    HW2 1147   0.954   0.976   0.260  1.6840  0.3540 -0.4906
  287SOL     MW 1148   1.019   0.937   0.309  0.9264  0.4832  0.2335
  288SOL     OW 1149   1.591   0.606   2.119  0.0510  0.7229  0.3023
  288SOL    HW1 1150   1.564   0.623   2.213 -2.6246 -1.2611 -0.1105
  288SOL    HW2 1151   1.624   0.692   2.084  0.9265  0.9946 -1.6380
  288SOL     MW 1152   1.591   0.619   2.127 -0.1865  0.4969 -0.0082
  289SOL     OW 1153   0.959   1.049   2.631  0.3160 -0.1544 -0.3870
  289SOL    HW1 1154   1.013   0.971   2.639 -1.7369  3.0482  1.7407
  289SOL    HW2 1155   0.890   1.025   2.572  2.8279 -1.4034 -1.0460
  289SOL     MW 1156   0.957   1.035   2.625  0.3766  0.1034 -0.1932
  290SOL     OW 1157   0.894   0.538   1.581  0.1207  0.0147  0.2882
  290SOL    HW1 1158   0.952   0.500   1.515 -0.6547  1.1437  0.5703
  290SOL    HW2 1159   0.951   0.543   1.655 -0.0483  1.3212 -1.8002
  290SOL     MW 1160   0.909   0.533   1.582 -0.0039  0.3360  0.0499
  291SOL     OW 1161   0.146   0.337   0.149  0.4316 -0.3617 -0.2802
  291SOL    HW1 1162   0.225   0.302   0.181  0.6019 -0.8420 -0.5666
  291SOL    HW2 1163   0.110   0.281   0.078  0.4767  1.0148  1.5518
  291SOL     MW 1164   0.152   0.325   0.144  0.4600 -0.2434 -0.0763
  292SOL     OW 1165   1.041   0.545   0.075  0.4250  0.5537  0.2495
  292SOL    HW1 1166   1.076   0.611   0.139  1.8236  2.4826  0.9850
  292SOL    HW2 1167   1.081   0.457   0.092  0.4344 -2.3596  0.5788
  292SOL     MW 1168   1.051   0.542   0.086  0.6108  0.4238  0.3900
  293SOL     OW 1169   0.223   0.148   2.460  0.0659  0.0005  0.2356
  293SOL    HW1 1170   0.160   0.090   2.412  1.1675 -0.8512 -1.1354
  293SOL    HW2 1171   0.174   0.201   2.525  0.4987 -0.4336 -0.2638
  293SOL     MW 1172   0.208   0.148   2.462  0.2684 -0.1691 -0.0112
  294SOL     OW 1173   1.512   0.623   2.382 -0.1660 -0.0432  0.1211
  294SOL    HW1 1174   1.553   0.677   2.445 -0.6043 -0.3404 -0.1440
  294SOL    HW2 1175   1.517   0.531   2.421  0.3380  2.9154 -1.5268
  294SOL     MW 1176   1.518   0.618   2.396 -0.1573  0.3079 -0.1313
  295SOL     OW 1177   0.906   0.672   2.488  0.0202  0.0858  0.1163
  295SOL    HW1 1178   0.849   0.606   2.440  3.6002  2.6401  0.6515
  295SOL    HW2 1179   0.866   0.694   2.574  0.0028 -1.0308  0.4961
  295SOL     MW 1180   0.893   0.666   2.493  0.4902  0.2755  0.2370
  296SOL     OW 1181   1.238   0.285   2.053  0.3337 -0.5981 -0.2005
  296SOL    HW1 1182   1.303   0.207   2.042 -1.2784 -1.1302 -0.8044
  296SOL    HW2 1183   1.241   0.289   2.153  0.9488 -0.9816  0.1582
  296SOL     MW 1184   1.247   0.275   2.065  0.2021 -0.7189 -0.2328
  297SOL     OW 1185   1.455   0.375   1.611  0.5501 -0.2416  0.0649
  297SOL    HW1 1186   1.481   0.450   1.668  0.6976 -0.0132 -0.4802
  297SOL    HW2 1187   1.491   0.292   1.648 -0.2448 -1.8179 -1.0073
  297SOL     MW 1188   1.463   0.374   1.623  0.4647 -0.4195 -0.1485
  298SOL     OW 1189   1.635   0.895   2.034  0.1717  0.0609  0.0611
  298SOL    HW1 1190   1.628   0.913   1.943 -0.1001 -0.1989 -0.8061
  298SOL    HW2 1191   1.717   0.941   2.053  0.2979  2.1286 -2.0962
  298SOL     MW 1192   1.645   0.903   2.025  0.1525  0.2994 -0.3379
  299SOL     OW 1193   0.523   1.048   3.076  0.4571 -0.4668  0.3824
  299SOL    HW1 1194   0.592   1.114   3.074  0.6982 -0.3687  0.8486
  299SOL    HW2 1195   0.489   1.044   2.990  1.7748  1.1651  2.5143
  299SOL     MW 1196   0.528   1.056   3.064  0.6628 -0.2386  0.7252
  300SOL     OW 1197   1.236   1.181   2.495 -0.1779 -0.4915  0.2083
  300SOL    HW1 1198   1.174   1.114   2.483  0.6361  0.9511 -1.8560
  300SOL    HW2 1199   1.244   1.212   2.582  2.8096 -2.2716 -1.8512
  300SOL     MW 1200   1.229   1.176   2.505  0.3237 -0.5360 -0.3358
  301SOL     OW 1201   1.377   0.903   0.595 -0.4249  0.7202  0.9987
  301SOL    HW1 1202   1.400   0.961   0.664 -0.8370  0.1608 -1.0428
  301SOL    HW2 1203   1.341   0.830   0.640 -0.3970  0.0493 -0.8211
  301SOL     MW 1204   1.375   0.901   0.610 -0.4756  0.5579  0.4892
  302SOL     OW 1205   0.070   1.491   2.046 -0.0179  0.0653  0.0837
  302SOL    HW1 1206   0.081   1.448   2.131  2.1086 -1.9238  1.2598
  302SOL    HW2 1207   0.065   1.587   2.060 -0.2132  1.8102  2.0053
  302SOL     MW 1208   0.071   1.498   2.059  0.2369  0.0331  0.4924
  303SOL     OW 1209   0.384   1.685   2.580 -0.6336 -0.1576  0.6312
  303SOL    HW1 1210   0.343   1.664   2.497  0.3170  0.4834  0.7199
  303SOL    HW2 1211   0.339   1.757   2.626  1.1834  1.0754  1.0715
  303SOL     MW 1212   0.373   1.692   2.575 -0.2685  0.0897  0.7010
  304SOL     OW 1213   0.673   2.039   2.387  0.4272 -0.2790 -0.3418
  304SOL    HW1 1214   0.713   2.110   2.334  0.7857  1.6584  1.1684
  304SOL    HW2 1215   0.739   1.973   2.378  0.7285  1.8321 -2.5579
  304SOL     MW 1216   0.687   2.039   2.379  0.5143  0.2551 -0.4350
  305SOL     OW 1217   1.076   0.567   0.544 -0.0195  0.1746 -0.4826
  305SOL    HW1 1218   0.995   0.528   0.497  0.6010  1.4893  2.2245
  305SOL    HW2 1219   1.131   0.491   0.568 -0.0421 -2.3381 -1.7393
  305SOL     MW 1220   1.073   0.552   0.541  0.0594  0.0165 -0.2913
  306SOL     OW 1221   1.231   1.492   0.302  0.2898  0.0311  0.3001
  306SOL    HW1 1222   1.249   1.408   0.340 -0.2190 -2.2688 -3.7959
  306SOL    HW2 1223   1.283   1.502   0.219 -0.4743  1.7347  0.4256
  306SOL     MW 1224   1.240   1.482   0.296  0.1218 -0.0476 -0.2238
  307SOL     OW 1225   1.408   0.494   1.948 -0.1492  0.1109 -0.0614
  307SOL    HW1 1226   1.381   0.395   1.962 -1.2396 -2.3535 -1.3816
  307SOL    HW2 1227   1.476   0.522   2.007 -0.3579 -0.7245  0.4449
  307SOL     MW 1228   1.413   0.484   1.958 -0.3206 -0.3245 -0.1688
  308SOL     OW 1229   2.155   0.628   2.685  0.2048 -0.3688 -0.0046
  308SOL    HW1 1230   2.222   0.589   2.741  2.0187 -0.8235  1.9613
  308SOL    HW2 1231   2.149   0.729   2.711 -0.9349 -0.2098 -0.5943
  308SOL     MW 1232   2.163   0.636   2.696  0.2938 -0.4078  0.1770
  309SOL     OW 1233   0.450   0.370   0.392 -0.5383 -0.1295 -0.1333
  309SOL    HW1 1234   0.515   0.338   0.452 -1.2549  0.0415 -0.2106
  309SOL    HW2 1235   0.436   0.303   0.327 -0.6584 -0.2293  1.8597
  309SOL     MW 1236   0.457   0.357   0.392 -0.6487 -0.1201  0.1195
  310SOL     OW 1237   0.447   0.568   1.927 -0.0288  0.8360  0.6373
  310SOL    HW1 1238   0.494   0.513   1.861 -0.0502 -1.4246  0.5543
  310SOL    HW2 1239   0.493   0.649   1.913  0.1268  0.1206 -2.2847
  310SOL     MW 1240   0.459   0.572   1.916 -0.0111  0.4433  0.2408
  311SOL     OW 1241   1.886   0.753   1.964 -0.3794 -0.3911 -0.1161
  311SOL    HW1 1242   1.899   0.767   2.058 -0.9822 -1.1085  1.9784
  311SOL    HW2 1243   1.947   0.674   1.939  0.9768 -1.2118 -1.0762
  311SOL     MW 1244   1.896   0.744   1.973 -0.2800 -0.5940  0.0336
  312SOL     OW 1245   1.669   2.482   0.062  0.0481  0.2694  0.1791
  312SOL    HW1 1246   1.736   2.500   0.130 -2.2111  1.8576  2.3446
  312SOL    HW2 1247   1.593   2.534   0.085 -1.4899  0.4012  0.4235
  312SOL     MW 1248   1.668   2.491   0.074 -0.4529  0.4964  0.4970
  313SOL     OW 1249   0.110   1.232   2.959 -0.6588  0.1634 -0.0916
  313SOL    HW1 1250   0.140   1.212   3.048 -1.7512 -0.4433 -0.3540
  313SOL    HW2 1251   0.192   1.265   2.906  1.2670  2.5369  1.5149
  313SOL     MW 1252   0.125   1.233   2.964 -0.5488  0.3965  0.0858
  314SOL     OW 1253   2.142   2.965   3.017  0.2168  0.1233  0.0558
  314SOL    HW1 1254   2.095   3.020   2.954 -0.1554  1.4959  1.1432
  314SOL    HW2 1255   2.195   3.023   3.063  0.4158 -1.6949  0.6586
  314SOL     MW 1256   2.143   2.980   3.014  0.1940  0.0645  0.2788
  315SOL     OW 1257   1.492   1.876   3.100 -0.1749 -0.4079  0.5918
  315SOL    HW1 1258   1.431   1.950   3.130 -1.8452  1.6994 -0.1373
  315SOL    HW2 1259   1.539   1.921   3.022 -1.5445 -1.1938  0.7458
  315SOL     MW 1260   1.490   1.891   3.094 -0.5760 -0.2336  0.5159
  316SOL     OW 1261   1.258   0.624   2.682  0.5932  0.8789 -0.2772
  316SOL    HW1 1262   1.352   0.611   2.677  0.3692 -0.3570  0.5511
  316SOL    HW2 1263   1.220   0.646   2.772 -1.0527  3.8252 -1.3442
  316SOL     MW 1264   1.265   0.625   2.693  0.3465  1.1045 -0.3087
  317SOL     OW 1265   0.690   1.475   2.579  0.6874  0.2949 -0.5594
  317SOL    HW1 1266   0.761   1.411   2.569  0.2332  0.8951  0.1488
  317SOL    HW2 1267   0.697   1.528   2.491  0.7769  0.4318 -2.3729
  317SOL     MW 1268   0.700   1.473   2.566  0.6393  0.3922 -0.7053
  318SOL     OW 1269   1.354   0.402   2.933 -0.2268  0.2771  0.2510
  318SOL    HW1 1270   1.278   0.455   2.920  0.8210  2.0174 -2.1222
  318SOL    HW2 1271   1.426   0.457   2.898  1.2075  0.6421  0.3415
  318SOL     MW 1272   1.353   0.416   2.927  0.1007  0.5549 -0.0501
  319SOL     OW 1273   0.796   0.416   2.842 -0.4905 -0.5410  0.3426
  319SOL    HW1 1274   0.732   0.384   2.777 -1.1245 -1.7476  0.1890
  319SOL    HW2 1275   0.760   0.392   2.928 -0.3645  3.4978  3.2736
  319SOL     MW 1276   0.783   0.409   2.845 -0.5575 -0.1673  0.7090
  320SOL     OW 1277   1.022   1.343   1.963 -0.1894 -0.0387 -0.3647
  320SOL    HW1 1278   1.089   1.302   2.021 -0.6305  1.3060 -2.8050
  320SOL    HW2 1279   1.068   1.415   1.923 -0.7370  0.2977 -0.8319
  320SOL     MW 1280   1.037   1.347   1.965 -0.3199  0.1831 -0.7483
  321SOL     OW 1281   1.052   1.004   3.056 -0.2901 -0.3167  0.0812
  321SOL    HW1 1282   0.977   0.984   3.001 -1.3150  0.3808 -2.0072
  321SOL    HW2 1283   1.102   0.923   3.076 -3.1017 -2.0409 -0.0949
  321SOL     MW 1284   1.048   0.991   3.052 -0.7963 -0.4522 -0.2176
  322SOL     OW 1285   1.183   0.817   1.709 -0.0504 -0.4254  0.1470
  322SOL    HW1 1286   1.269   0.776   1.698  1.9564 -0.0390  0.3240
  322SOL    HW2 1287   1.192   0.865   1.794 -0.1114  1.4846  0.1095
  322SOL     MW 1288   1.196   0.818   1.719  0.2063 -0.1224  0.1654
  323SOL     OW 1289   1.207   1.537   1.853 -0.4406  0.5123  0.4525
  323SOL    HW1 1290   1.231   1.497   1.774  2.5163 -1.3107  2.9222
  323SOL    HW2 1291   1.146   1.609   1.833 -0.8137  1.1180  0.2514
  323SOL     MW 1292   1.202   1.541   1.840 -0.0997  0.3517  0.7518
  324SOL     OW 1293   1.441   1.025   2.457 -0.6716 -0.0271 -0.1317
  324SOL    HW1 1294   1.352   1.073   2.477 -0.8189  1.0316  0.5885
  324SOL    HW2 1295   1.505   1.099   2.473 -3.9198 -0.4709 -0.8846
  324SOL     MW 1296   1.438   1.041   2.462 -1.1196  0.0540 -0.1360
  325SOL     OW 1297   1.098   0.521   2.905  0.1675  0.1493 -0.0613
  325SOL    HW1 1298   1.080   0.541   2.999 -2.8409  0.9996 -0.9907
  325SOL    HW2 1299   1.007   0.501   2.873 -2.5545  0.7829 -1.9851
  325SOL     MW 1300   1.084   0.521   2.913 -0.5886  0.3451 -0.4377
  326SOL     OW 1301   0.480   1.359   2.208  0.2272  0.1355 -0.1600
  326SOL    HW1 1302   0.546   1.317   2.152 -0.1179  1.5430  0.8005
  326SOL    HW2 1303   0.486   1.454   2.189  0.2208  0.7089  0.8203
  326SOL     MW 1304   0.490   1.366   2.198  0.1808  0.3969  0.0961
  327SOL     OW 1305   1.878   0.892   2.463 -0.3915 -0.1208  0.0715
  327SOL    HW1 1306   1.869   0.813   2.527 -0.8170  1.0556 -1.3917
  327SOL    HW2 1307   1.973   0.894   2.445  0.0502 -0.6091  0.9680
  327SOL     MW 1308   1.889   0.882   2.469 -0.3893 -0.0300 -0.0033
  328SOL     OW 1309   0.190   1.323   2.248 -0.0786  0.8728  0.5956
  328SOL    HW1 1310   0.153   1.256   2.184  0.8719 -0.8665  0.0213
  328SOL    HW2 1311   0.281   1.324   2.218 -2.5698  1.1648  2.1749
  328SOL     MW 1312   0.197   1.314   2.236 -0.2819  0.6819  0.7282
  329SOL     OW 1313   0.110   0.115   1.427 -0.2482 -0.1649 -0.4787
  329SOL    HW1 1314   0.109   0.157   1.517  2.1460 -0.1358  2.3486
  329SOL    HW2 1315   0.178   0.175   1.392  3.3443 -0.1755  0.0766
  329SOL     MW 1316   0.119   0.128   1.434  0.5417 -0.1624 -0.0324
  330SOL     OW 1317   0.322   3.065   2.073 -0.2745  0.7353 -0.2860
  330SOL    HW1 1318   0.364   3.076   2.158 -0.0658  0.5092  1.3772
  330SOL    HW2 1319   0.244   3.013   2.078  3.7204  2.8914 -2.3815
  330SOL     MW 1320   0.317   3.060   2.085  0.2801  0.9899 -0.3430
  331SOL     OW 1321   0.778   1.221   2.290 -0.4898  0.0460 -0.5640
  331SOL    HW1 1322   0.773   1.267   2.203  0.7150 -1.1318 -1.9439
  331SOL    HW2 1323   0.825   1.278   2.358 -2.3046  0.8243 -0.2787
  331SOL     MW 1324   0.784   1.234   2.287 -0.5703 -0.0067 -0.7084
  332SOL     OW 1325   1.342   1.688   2.977  0.2851  0.1114  0.1785
  332SOL    HW1 1326   1.360   1.686   2.885  0.8115  1.7886  0.8283
  332SOL    HW2 1327   1.379   1.775   3.015  2.3498  1.2321  2.3225
  332SOL     MW 1328   1.349   1.699   2.970  0.6270  0.4805  0.5471
  333SOL     OW 1329   1.774   1.450   2.987  0.6985 -0.0398 -0.0875
  333SOL    HW1 1330   1.863   1.472   3.013  1.0193 -2.0220 -0.1365
  333SOL    HW2 1331   1.736   1.435   3.076  0.9283  1.3940 -3.6869
  333SOL     MW 1332   1.781   1.451   3.002  0.7711 -0.1121 -0.5688
  334SOL     OW 1333   1.375   3.083   2.608  0.2616  0.1584 -0.2280
  334SOL    HW1 1334   1.280   3.086   2.625 -0.4327  0.0310  1.0933
  334SOL    HW2 1335   1.409   3.134   2.678 -1.7220 -0.7595 -1.4548
  334SOL     MW 1336   1.367   3.090   2.619 -0.0917  0.0205 -0.2155
  335SOL     OW 1337   1.228   0.791   3.087  0.7968 -0.4787 -0.1638
  335SOL    HW1 1338   1.297   0.784   3.154 -0.9272  0.9037  1.2636
  335SOL    HW2 1339   1.273   0.815   3.002 -1.6037  2.0994 -1.2176
  335SOL     MW 1340   1.243   0.793   3.085  0.2527  0.0439 -0.1145
  336SOL     OW 1341   0.922   1.062   1.915  1.0629 -0.3646 -0.2287
  336SOL    HW1 1342   0.929   1.152   1.931 -2.0001  0.2106 -1.2146
  336SOL    HW2 1343   1.009   1.025   1.908  2.2248  1.2420 -0.3969
  336SOL     MW 1344   0.934   1.069   1.916  0.8121 -0.0767 -0.3810
  337SOL     OW 1345   0.556   1.742   2.780  0.9323  0.1019  1.0940
  337SOL    HW1 1346   0.505   1.695   2.708 -2.3316  2.5882 -2.5947
  337SOL    HW2 1347   0.645   1.702   2.780  0.8931  0.7524 -1.3157
  337SOL     MW 1348   0.561   1.731   2.771  0.4965  0.5157  0.2894
  338SOL     OW 1349   1.119   0.848   2.548 -0.0249 -0.2024 -0.0050
  338SOL    HW1 1350   1.043   0.804   2.507  1.0337 -2.7657  2.3509
  338SOL    HW2 1351   1.171   0.785   2.595  0.6878 -0.4871 -1.7324
  338SOL     MW 1352   1.116   0.834   2.549  0.2088 -0.5782  0.0779
  339SOL     OW 1353   1.557   1.054   1.798  0.1680 -0.3635 -0.2198
  339SOL    HW1 1354   1.476   1.055   1.751 -1.5581 -0.3149 -2.4506
  339SOL    HW2 1355   1.551   1.138   1.850 -0.1395  1.1916  1.4651
  339SOL     MW 1356   1.545   1.065   1.799 -0.1003 -0.1519 -0.2918
  340SOL     OW 1357   1.389   1.492   0.070 -0.1885 -0.1795 -0.3968
  340SOL    HW1 1358   1.384   1.569   0.018 -0.8340  0.1819  0.8231
  340SOL    HW2 1359   1.483   1.486   0.094  0.3353 -0.9318 -0.4528
  340SOL     MW 1360   1.401   1.501   0.067 -0.2046 -0.2311 -0.2432
  341SOL     OW 1361   0.134   1.354   2.669 -0.3080  0.1444  0.2688
  341SOL    HW1 1362   0.220   1.372   2.637 -0.7696 -0.8315  1.3686
  341SOL    HW2 1363   0.089   1.324   2.588  0.3163  1.9739  1.5351
  341SOL     MW 1364   0.139   1.353   2.654 -0.2866  0.2570  0.5810
  342SOL     OW 1365   1.435   0.307   0.087 -0.4595 -0.3348  0.6158
  342SOL    HW1 1366   1.451   0.380   0.151  0.0760 -0.2031 -1.5769
  342SOL    HW2 1367   1.395   0.345   0.009 -1.1186 -0.8030  0.7042
  342SOL     MW 1368   1.432   0.322   0.085 -0.4758 -0.3792  0.3382
  343SOL     OW 1369   0.213   0.315   2.223 -0.2637  0.0592 -0.7136
  343SOL    HW1 1370   0.253   0.263   2.295  1.3101  0.2331  1.4720
  343SOL    HW2 1371   0.150   0.261   2.170  1.0507 -1.3996 -0.9998
  343SOL     MW 1372   0.210   0.301   2.226  0.1174 -0.1103 -0.4630
  344SOL     OW 1373   1.676   2.073   0.220 -0.1735  0.0913 -0.4628
  344SOL    HW1 1374   1.678   2.135   0.148  0.6410  1.3672  0.0509
  344SOL    HW2 1375   1.628   1.991   0.182 -0.4765 -1.2670  0.5114
  344SOL     MW 1376   1.670   2.070   0.205 -0.1060  0.0805 -0.2665
  345SOL     OW 1377   0.711   1.642   2.324  0.4708  0.2245 -0.5216
  345SOL    HW1 1378   0.618   1.640   2.299 -2.2697  3.1685 -0.7264
  345SOL    HW2 1379   0.762   1.591   2.256  1.9804 -0.7757  3.3293
  345SOL     MW 1380   0.706   1.635   2.312  0.3084  0.4809 -0.0405
  346SOL     OW 1381   1.718   1.151   0.040 -0.0701 -0.1825  0.0640
  346SOL    HW1 1382   1.810   1.178   0.058 -0.0988  0.4145 -0.3389
  346SOL    HW2 1383   1.706   1.066   0.084 -1.4723  0.6880  0.2813
  346SOL     MW 1384   1.729   1.143   0.049 -0.2589  0.0111  0.0395
  347SOL     OW 1385   1.277   0.734   2.287  0.3086  0.1149 -0.6580
  347SOL    HW1 1386   1.358   0.700   2.314 -0.6348 -0.1762 -1.0566
  347SOL    HW2 1387   1.233   0.738   2.374  2.4466  0.6686  2.8836
  347SOL     MW 1388   1.282   0.730   2.302  0.4662  0.1496 -0.2433
  348SOL     OW 1389   1.325   2.582   1.870  0.0532 -0.1285 -0.1682
  348SOL    HW1 1390   1.389   2.514   1.907  0.7729 -1.7615  4.1042
  348SOL    HW2 1391   1.348   2.662   1.920 -1.0388  0.9108  0.0048
  348SOL     MW 1392   1.337   2.584   1.882  0.0040 -0.2068  0.4183
  349SOL     OW 1393   1.432   0.236   2.722 -0.1199 -0.0140 -0.2128
  349SOL    HW1 1394   1.387   0.284   2.791 -1.1348 -0.4160  1.7679
  349SOL    HW2 1395   1.520   0.223   2.764 -0.0058 -1.8589 -0.0214
  349SOL     MW 1396   1.438   0.241   2.737 -0.2388 -0.3104  0.0738
  350SOL     OW 1397   1.866   0.651   2.617  0.3365  0.0850  0.2642
  350SOL    HW1 1398   1.820   0.587   2.556 -2.6184 -1.4021  0.0745
  350SOL    HW2 1399   1.950   0.618   2.642 -1.9268  0.6170 -1.1703
  350SOL     MW 1400   1.871   0.638   2.612 -0.3519 -0.0410  0.0499
  351SOL     OW 1401   0.129   0.976   1.616 -0.2134 -0.4420 -0.6207
  351SOL    HW1 1402   0.041   0.989   1.650  0.5462  0.1542  1.1160
  351SOL    HW2 1403   0.159   1.068   1.600  2.8186  0.0607 -0.1159
  351SOL     MW 1404   0.121   0.990   1.619  0.2869 -0.2970 -0.3249
  352SOL     OW 1405   0.813   1.650   2.754  0.6587 -0.2823 -0.0487
  352SOL    HW1 1406   0.852   1.598   2.832  1.8449 -2.1457 -0.9811
  352SOL    HW2 1407   0.764   1.577   2.711 -0.4064  0.1651  2.2095
  352SOL     MW 1408   0.812   1.633   2.759  0.6746 -0.4691  0.1262
  353SOL     OW 1409   3.027   2.452   2.673  0.7063  0.5900  0.0450
  353SOL    HW1 1410   3.120   2.418   2.661  4.8355  4.0544 -0.3517
  353SOL    HW2 1411   3.008   2.530   2.624  0.5566  0.0043  1.6618
  353SOL     MW 1412   3.037   2.458   2.665  1.2313  0.9698  0.2060
  354SOL     OW 1413   0.379   2.456   0.842 -0.2025  0.4144 -0.2172
  354SOL    HW1 1414   0.395   2.403   0.922  0.6115  0.4745  0.4404
  354SOL    HW2 1415   0.311   2.391   0.811  2.3236  1.7867  0.9139
  354SOL     MW 1416   0.372   2.440   0.849  0.2382  0.6034  0.0188
  355SOL     OW 1417   0.037   2.186   0.410  0.1311  0.5060  0.1430
  355SOL    HW1 1418  -0.035   2.123   0.394 -0.7534 -0.4339  1.7574
  355SOL    HW2 1419   0.014   2.251   0.476 -0.3128  1.3568  0.0896
  355SOL     MW 1420   0.024   2.186   0.417 -0.0441  0.4942  0.3490
  356SOL     OW 1421   0.861   2.874   1.054  0.8054 -0.1728  0.4975
  356SOL    HW1 1422   0.905   2.884   0.963 -0.2721 -0.1402 -1.8057
  356SOL    HW2 1423   0.769   2.839   1.038  3.7410  0.1841  0.9039
  356SOL     MW 1424   0.855   2.871   1.040  1.0505 -0.1214  0.2472
  357SOL     OW 1425   1.757   2.924   0.353 -0.2304  0.1993 -0.1484
  357SOL    HW1 1426   1.716   2.855   0.422 -1.7366 -2.7006 -1.6372
  357SOL    HW2 1427   1.832   2.866   0.334 -1.2512  2.0672  0.3991
  357SOL     MW 1428   1.762   2.908   0.360 -0.5638  0.0632 -0.2726
  358SOL     OW 1429   0.385   0.106   1.041  0.0667 -0.3567  1.3202
  358SOL    HW1 1430   0.475   0.069   1.040 -1.6677 -4.2985  1.3947
  358SOL    HW2 1431   0.369   0.135   0.950  0.5848 -1.0348  1.4944
  358SOL     MW 1432   0.394   0.105   1.029 -0.0938 -0.9663  1.3530
  359SOL     OW 1433   0.907   2.885   1.782 -0.8563 -0.3156 -0.1921
  359SOL    HW1 1434   0.919   2.799   1.836  0.0394  1.4454  1.5202
  359SOL    HW2 1435   0.960   2.870   1.706  2.3134  0.5989  1.6552
  359SOL     MW 1436   0.916   2.872   1.779 -0.3199  0.0374  0.2776
  360SOL     OW 1437   0.598   2.783   1.027 -0.0986  0.0123  0.2169
  360SOL    HW1 1438   0.618   2.748   0.937 -0.8510 -1.2208 -0.3620
  360SOL    HW2 1439   0.577   2.694   1.065 -0.3938 -0.4082  0.3328
  360SOL     MW 1440   0.598   2.766   1.020 -0.2368 -0.2059  0.1558
  361SOL     OW 1441   0.213   2.699   1.317  0.3454  0.0868  0.3087
  361SOL    HW1 1442   0.189   2.779   1.363 -0.0251 -1.0741  2.5984
  361SOL    HW2 1443   0.297   2.659   1.338  2.5749 -0.8668 -0.4321
  361SOL     MW 1444   0.221   2.704   1.326  0.5906 -0.1922  0.5130
  362SOL     OW 1445   1.464   2.417   0.648 -0.1693 -0.0915  0.6453
  362SOL    HW1 1446   1.495   2.326   0.677 -0.8049  1.8137  0.5646
  362SOL    HW2 1447   1.487   2.479   0.719 -1.4914 -0.1574 -0.3051
  362SOL     MW 1448   1.471   2.413   0.661 -0.4276  0.1512  0.5092
  363SOL     OW 1449   0.307   3.035   0.701  0.1596  0.2551 -0.8694
  363SOL    HW1 1450   0.311   2.999   0.794  0.0967  2.4387  0.3059
  363SOL    HW2 1451   0.212   3.058   0.702  0.3073 -0.6340  1.5169
  363SOL     MW 1452   0.295   3.033   0.714  0.1708  0.4259 -0.3995
  364SOL     OW 1453   0.760   0.184   0.246  0.1927  0.5514 -0.2674
  364SOL    HW1 1454   0.694   0.117   0.249 -2.2379 -0.1260  2.8728
  364SOL    HW2 1455   0.712   0.266   0.218 -1.4738 -0.1289 -1.5134
  364SOL     MW 1456   0.745   0.186   0.243 -0.3479  0.3723 -0.0175
  365SOL     OW 1457   0.954   1.941   1.107  0.0477  0.0419 -0.4872
  365SOL    HW1 1458   0.918   2.026   1.068 -0.6061  2.0031  0.8339
  365SOL    HW2 1459   0.893   1.871   1.075  0.2566 -0.8216  0.2101
  365SOL     MW 1460   0.941   1.943   1.097 -0.0110  0.1867 -0.2209
  366SOL     OW 1461   2.877   2.617   1.005  0.0106  0.0335  0.1729
  366SOL    HW1 1462   2.958   2.634   1.048  1.6440  0.5399 -1.3066
  366SOL    HW2 1463   2.891   2.618   0.903  0.6435 -1.9031 -1.2180
  366SOL     MW 1464   2.889   2.619   0.997  0.3096 -0.1552 -0.2059
  367SOL     OW 1465   1.232   2.809   0.891 -0.3663  0.1731  0.0383
  367SOL    HW1 1466   1.149   2.847   0.877  0.0708  0.4127  0.2734
  367SOL    HW2 1467   1.240   2.750   0.814 -1.4209 -0.2403  0.4385
  367SOL     MW 1468   1.222   2.807   0.879 -0.4477  0.1502  0.1221
  368SOL     OW 1469   1.676   0.450   0.699 -0.1514 -0.1314 -0.0807
  368SOL    HW1 1470   1.757   0.405   0.666 -0.5535 -0.6292  2.9659
  368SOL    HW2 1471   1.682   0.541   0.671  1.2864  0.8505 -2.9000
  368SOL     MW 1472   1.687   0.456   0.691 -0.0148 -0.0676 -0.0507
  369SOL     OW 1473   0.167   2.455   1.689  0.5028 -0.2450 -0.4641
  369SOL    HW1 1474   0.245   2.444   1.747 -0.9160 -0.3943  2.7020
  369SOL    HW2 1475   0.108   2.524   1.716  0.0297 -0.9920 -3.0872
  369SOL     MW 1476   0.170   2.463   1.700  0.2532 -0.3632 -0.3925
  370SOL     OW 1477   0.755   0.071   1.001 -0.1064 -0.1629  0.4231
  370SOL    HW1 1478   0.793   0.157   1.019  0.8252  2.8516 -2.3714
  370SOL    HW2 1479   0.804   0.014   1.061  4.1585 -1.7145 -1.3070
  370SOL     MW 1480   0.766   0.075   1.011  0.5792  0.0301 -0.1739
  371SOL     OW 1481   1.344   2.972   1.507 -0.3430  0.8279  0.0007
  371SOL    HW1 1482   1.294   2.900   1.470  0.2545 -0.4125  0.3614
  371SOL    HW2 1483   1.350   3.041   1.445  0.8563 -0.7823  1.1040
  371SOL     MW 1484   1.338   2.972   1.494 -0.1060  0.4518  0.1939
  372SOL     OW 1485   0.814   2.311   0.470 -0.8094  0.3046  0.2025
  372SOL    HW1 1486   0.777   2.221   0.466  0.7148  0.6693  0.5747
  372SOL    HW2 1487   0.815   2.340   0.376 -1.5640  0.0088 -1.2308
  372SOL     MW 1488   0.809   2.303   0.457 -0.7079  0.3137  0.0625
  373SOL     OW 1489   2.789   3.011   1.395 -0.0708  0.4240 -0.1470
  373SOL    HW1 1490   2.859   2.949   1.385 -0.2471  1.3446 -0.3234
  373SOL    HW2 1491   2.800   3.079   1.324  0.7654 -0.3464  0.3115
  373SOL     MW 1492   2.799   3.012   1.384  0.0163  0.4438 -0.1097
  374SOL     OW 1493   1.543   0.522   0.224  0.3547  0.2517 -0.5337
  374SOL    HW1 1494   1.618   0.574   0.228 -0.5843 -0.4207 -1.9138
  374SOL    HW2 1495   1.520   0.507   0.315 -1.5227  0.7385 -2.6077
  374SOL     MW 1496   1.550   0.527   0.236 -0.0169  0.2272 -0.9895
  375SOL     OW 1497   1.129   2.087   2.283 -0.0536 -0.3977 -0.0776
  375SOL    HW1 1498   1.175   2.100   2.368 -0.5757 -1.5185 -2.0703
  375SOL    HW2 1499   1.147   1.997   2.259 -1.6290 -0.7954  0.5299
  375SOL     MW 1500   1.138   2.077   2.291 -0.3303 -0.5981 -0.2604
  376SOL     OW 1501   0.707   2.507   0.048  0.0300  0.5212  0.0037
  376SOL    HW1 1502   0.761   2.449   0.096 -1.0438  1.0956  0.4925
  376SOL    HW2 1503   0.660   2.451  -0.025  0.8215  0.1605 -0.6792
  376SOL     MW 1504   0.708   2.492   0.044 -0.0072  0.5494 -0.0219
  377SOL     OW 1505   1.316   1.989   0.856 -0.2090  0.4767 -0.1532
  377SOL    HW1 1506   1.231   1.972   0.809  1.3464 -0.5633 -2.3398
  377SOL    HW2 1507   1.303   1.942   0.940  0.1371  0.3465  0.1574
  377SOL     MW 1508   1.303   1.980   0.861  0.0419  0.3223 -0.4007
  378SOL     OW 1509   1.045   2.817   1.571 -0.3683  0.1283 -0.0962
  378SOL    HW1 1510   0.997   2.732   1.578  1.7410 -1.7678 -0.3206
  378SOL    HW2 1511   0.997   2.869   1.504 -1.4735 -1.2619 -0.0231
  378SOL     MW 1512   1.032   2.813   1.563 -0.2358 -0.3053 -0.1161
  379SOL     OW 1513   1.125   1.810   2.277  0.3963 -0.1347  0.2706
  379SOL    HW1 1514   1.033   1.825   2.313 -1.0512  0.0664  0.9979
  379SOL    HW2 1515   1.137   1.731   2.228 -0.8899 -0.5449  1.2432
  379SOL     MW 1516   1.114   1.802   2.275  0.0356 -0.1623  0.4949
  380SOL     OW 1517   0.863   0.048   1.546 -0.2331  0.3537 -0.1726
  380SOL    HW1 1518   0.873   0.039   1.452  0.1550 -1.7393 -1.8968
  380SOL    HW2 1519   0.943   0.096   1.580  1.9797  1.8561  0.8619
  380SOL     MW 1520   0.875   0.053   1.538  0.1101  0.2758 -0.2636
  381SOL     OW 1521   0.803   1.974   0.780  0.0487  0.4028 -0.4633
  381SOL    HW1 1522   0.900   1.980   0.775  0.5635 -1.6954 -0.7121
  381SOL    HW2 1523   0.778   2.029   0.851 -0.2598  2.0439 -0.1022
  381SOL     MW 1524   0.812   1.982   0.789  0.0759  0.3425 -0.4485
  382SOL     OW 1525   0.707   0.065   0.727 -0.3136  0.1852 -0.1559
  382SOL    HW1 1526   0.716   0.096   0.817 -0.2069  2.1578  1.7454
  382SOL    HW2 1527   0.661  -0.021   0.740  0.0553 -0.6187 -1.1148
  382SOL     MW 1528   0.702   0.057   0.740 -0.2508  0.3394 -0.0315
  383SOL     OW 1529   0.467   0.041   0.348 -0.0353 -0.0291  0.3097
  383SOL    HW1 1530   0.500  -0.026   0.292  2.3340 -0.4132 -2.3236
  383SOL    HW2 1531   0.435  -0.008   0.421  2.0417 -0.8436 -0.7975
  383SOL     MW 1532   0.467   0.025   0.350  0.5513 -0.1873 -0.1838
  384SOL     OW 1533   0.649   2.911   0.650 -0.3191  0.4617 -0.9114
  384SOL    HW1 1534   0.683   2.825   0.683  2.1564 -3.3511  0.4527
  384SOL    HW2 1535   0.567   2.884   0.618  0.2419  1.2264  0.3413
  384SOL     MW 1536   0.643   2.896   0.650  0.0816  0.0595 -0.5662
  385SOL     OW 1537   1.322   2.063   1.502  0.1774 -0.1302 -0.1666
  385SOL    HW1 1538   1.387   2.070   1.571  0.2005  0.1130 -0.6950
  385SOL    HW2 1539   1.267   1.984   1.532  0.9379  2.0636 -1.3204
  385SOL     MW 1540   1.323   2.053   1.515  0.2808  0.1914 -0.3885
  386SOL     OW 1541   1.392   0.348   0.823 -0.3845  0.0140  0.0438
  386SOL    HW1 1542   1.303   0.313   0.802  0.5546  2.9790 -0.0280
  386SOL    HW2 1543   1.386   0.344   0.921  0.4497  3.2813  1.8751
  386SOL     MW 1544   1.380   0.343   0.833 -0.1506  0.8363  0.2760
  387SOL     OW 1545   0.829   2.213   1.447  0.2264  0.0701 -0.0823
  387SOL    HW1 1546   0.896   2.279   1.427  1.3604 -0.5834 -0.7829
  387SOL    HW2 1547   0.864   2.128   1.418 -0.9963 -1.4769  1.0996
  387SOL     MW 1548   0.843   2.210   1.441  0.2147 -0.2202 -0.0188
  388SOL     OW 1549   1.567   2.790   1.238 -0.1328  0.1427 -0.4630
  388SOL    HW1 1550   1.484   2.761   1.200 -0.2317 -2.2428  2.1086
  388SOL    HW2 1551   1.630   2.733   1.185  0.5586 -2.0818  1.0400
  388SOL     MW 1552   1.564   2.779   1.226 -0.0546 -0.4656  0.0746
  389SOL     OW 1553   0.356   0.034   3.037 -0.2938 -0.0242 -0.1086
  389SOL    HW1 1554   0.446   0.045   3.003 -0.6668 -0.9408 -0.1607
  389SOL    HW2 1555   0.300   0.064   2.973  2.0837 -3.1217  3.2842
  389SOL     MW 1556   0.360   0.039   3.024 -0.0293 -0.5538  0.3322
  390SOL     OW 1557   1.279   0.052   0.621  0.4397  0.7566  0.6870
  390SOL    HW1 1558   1.365   0.066   0.581 -0.7418 -0.5780 -1.7468
  390SOL    HW2 1559   1.282   0.023   0.714 -1.8089 -0.4302  1.2597
  390SOL     MW 1560   1.291   0.050   0.628 -0.0129  0.4239  0.4414
  391SOL     OW 1561   0.281   2.253   1.450 -0.0786 -0.2844 -0.3885
  391SOL    HW1 1562   0.223   2.182   1.480 -1.3985 -1.7126 -2.3017
  391SOL    HW2 1563   0.217   2.327   1.437 -1.4179 -0.8530 -1.4299
  391SOL     MW 1564   0.265   2.253   1.452 -0.4295 -0.5479 -0.7783
  392SOL     OW 1565   2.065   2.148   0.362  0.4332 -0.4296  0.1916
  392SOL    HW1 1566   2.056   2.201   0.440  1.7390  1.9143  0.1837
  392SOL    HW2 1567   2.040   2.068   0.402 -2.5784 -1.0906 -1.2714
  392SOL     MW 1568   2.061   2.144   0.378  0.2082 -0.2076 -0.0025
  393SOL     OW 1569   0.190   3.013   2.781 -0.8740  0.8157 -0.8838
  393SOL    HW1 1570   0.245   3.089   2.788  0.2970  0.0708 -1.9270
  393SOL    HW2 1571   0.116   3.048   2.720 -1.1981 -0.0027 -3.5911
  393SOL     MW 1572   0.188   3.028   2.774 -0.7623  0.6095 -1.3786
  394SOL     OW 1573   0.876   1.694   1.499 -0.2671 -0.3758  0.4064
  394SOL    HW1 1574   0.816   1.722   1.573 -2.3103  0.0680 -0.0361
  394SOL    HW2 1575   0.884   1.777   1.452  3.0313 -0.2456 -2.5961
  394SOL     MW 1576   0.869   1.708   1.503 -0.1015 -0.3001 -0.0481
  395SOL     OW 1577   0.954   2.859   2.631  0.4047  0.2278  0.4523
  395SOL    HW1 1578   0.986   2.940   2.679  0.3290  2.5374 -0.6149
  395SOL    HW2 1579   1.041   2.811   2.613  1.6522  1.7098 -1.4023
  395SOL     MW 1580   0.970   2.863   2.635  0.5593  0.7281  0.0668
  396SOL     OW 1581   0.876   1.848   2.374 -0.0527  0.0391 -0.2120
  396SOL    HW1 1582   0.883   1.852   2.472 -1.3086  0.5736 -0.4491
  396SOL    HW2 1583   0.833   1.766   2.358  0.4985  2.5630 -1.2491
  396SOL     MW 1584   0.872   1.838   2.385 -0.1457  0.4427 -0.3801
  397SOL     OW 1585   1.039   2.376   1.355  0.4035 -0.1747 -0.7772
  397SOL    HW1 1586   1.076   2.436   1.291  0.5582  0.6982  0.2003
  397SOL    HW2 1587   1.119   2.349   1.411  2.4681  1.9681 -1.9787
  397SOL     MW 1588   1.054   2.380   1.354  0.6963  0.2232 -0.8067
  398SOL     OW 1589   0.647   2.663   0.786 -0.3906 -0.3908  0.1190
  398SOL    HW1 1590   0.563   2.627   0.762  3.2491  1.2797 -1.3387
  398SOL    HW2 1591   0.708   2.602   0.740 -1.6499 -0.5729  0.7330
  398SOL     MW 1592   0.644   2.650   0.777 -0.0766 -0.1944  0.0077
  399SOL     OW 1593   0.288   2.077   0.459  0.1524  0.2591 -0.1560
  399SOL    HW1 1594   0.203   2.130   0.442 -1.1380 -0.4468 -0.7654
  399SOL    HW2 1595   0.346   2.076   0.377 -1.2889  3.1366 -1.6098
  399SOL     MW 1596   0.284   2.084   0.446 -0.2080  0.5456 -0.4282
  400SOL     OW 1597   0.549   1.812   0.189  0.2435 -0.7886 -0.4960
  400SOL    HW1 1598   0.522   1.901   0.200 -1.2755 -1.7994  0.3105
  400SOL    HW2 1599   0.536   1.771   0.267  1.3189 -1.0693 -3.1189
  400SOL     MW 1600   0.543   1.818   0.201  0.1850 -0.9590 -0.7356
  401SOL     OW 1601   0.920   2.075   0.162 -0.2156 -0.3467 -0.8465
  401SOL    HW1 1602   0.915   1.976   0.153  1.7043 -1.8437 -0.3410
  401SOL    HW2 1603   0.974   2.084   0.240  2.0715  1.2008  0.9314
  401SOL     MW 1604   0.926   2.063   0.171  0.3395 -0.3400 -0.5452
  402SOL     OW 1605   0.678   2.950   1.673 -0.3509 -0.6645 -0.2144
  402SOL    HW1 1606   0.759   2.907   1.710  0.6689 -1.7146 -0.7198
  402SOL    HW2 1607   0.718   3.026   1.632 -1.6570 -0.2955  3.2157
  402SOL     MW 1608   0.694   2.955   1.673 -0.3887 -0.7544  0.1715
  403SOL     OW 1609   0.062   0.396   0.404 -0.0003  0.2655 -0.1648
  403SOL    HW1 1610   0.133   0.449   0.435 -1.6243 -1.4258  0.4916
  403SOL    HW2 1611   0.070   0.378   0.313  1.4259  1.3576  1.6779
  403SOL     MW 1612   0.072   0.400   0.396 -0.0264  0.1864  0.1650
  404SOL     OW 1613   0.976   2.841   0.813  0.1374 -0.8895  0.5758
  404SOL    HW1 1614   1.032   2.785   0.760 -0.0093  0.9498 -0.1308
  404SOL    HW2 1615   0.964   2.919   0.757 -2.7901 -1.3657 -0.2641
  404SOL     MW 1616   0.982   2.844   0.798 -0.2682 -0.7096  0.3718
  405SOL     OW 1617   0.522   2.416   1.538  0.0009 -0.3612 -0.3214
  405SOL    HW1 1618   0.509   2.486   1.478 -0.3287 -1.1431  0.3364
  405SOL    HW2 1619   0.471   2.338   1.494  0.1099  0.4095 -1.9412
  405SOL     MW 1620   0.513   2.415   1.524 -0.0282 -0.3627 -0.4483
  406SOL     OW 1621   0.358   2.349   1.106 -0.1425  0.4240  0.1828
  406SOL    HW1 1622   0.257   2.361   1.097 -3.8178 -2.6807 -0.6578
  406SOL    HW2 1623   0.368   2.264   1.153  2.1870  1.9087 -1.4541
  406SOL     MW 1624   0.346   2.339   1.111 -0.3201  0.2102 -0.1441
  407SOL     OW 1625   0.036   2.750   1.100 -0.2919  0.5602  0.5755
  407SOL    HW1 1626   0.098   2.743   1.169  1.4325 -0.1148 -1.1529
  407SOL    HW2 1627   0.086   2.712   1.017 -0.2262 -0.1842 -2.6216
  407SOL     MW 1628   0.051   2.744   1.098 -0.0557  0.3729 -0.0744
  408SOL     OW 1629   2.076   2.060   0.681 -0.1849 -0.1182  0.3533
  408SOL    HW1 1630   2.064   2.099   0.768 -1.0876  0.2429 -0.0201
  408SOL    HW2 1631   2.034   1.974   0.689  1.4510  2.1062 -0.7891
  408SOL     MW 1632   2.069   2.054   0.693 -0.0882  0.2229  0.1533
  409SOL     OW 1633   1.383   0.018   0.903 -0.1305 -0.4898 -0.0548
  409SOL    HW1 1634   1.449   0.085   0.901  1.1719 -2.3250 -1.3009
  409SOL    HW2 1635   1.412  -0.037   0.975  0.0827 -3.0631  0.0290
  409SOL     MW 1636   1.396   0.020   0.912  0.0695 -1.0715 -0.2082
  410SOL     OW 1637   1.109   2.417   1.059  0.4941 -0.9069 -0.6376
  410SOL    HW1 1638   1.021   2.411   1.018 -2.0192 -0.4255 -0.3101
  410SOL    HW2 1639   1.161   2.357   1.008  1.6175  0.6332  0.8823
  410SOL     MW 1640   1.104   2.408   1.047  0.3107 -0.6402 -0.3939
  411SOL     OW 1641   1.976   0.043   2.854 -0.0997 -0.2437 -0.5352
  411SOL    HW1 1642   1.910   0.008   2.790  0.8919 -1.4167  3.6133
  411SOL    HW2 1643   1.928   0.052   2.937 -0.9752  2.6999  0.9986
  411SOL     MW 1644   1.961   0.040   2.856 -0.0844 -0.0101  0.2145
  412SOL     OW 1645   1.049   2.236   0.585  0.0043  0.2397  0.2648
  412SOL    HW1 1646   1.111   2.295   0.627  0.7506 -4.2493 -1.0932
  412SOL    HW2 1647   0.974   2.288   0.557  1.0191 -0.6490  0.6494
  412SOL     MW 1648   1.047   2.251   0.587  0.2367 -0.4698  0.1364
  413SOL     OW 1649   0.537   2.765   0.030  0.3624  0.0394 -0.5162
  413SOL    HW1 1650   0.586   2.685   0.036  1.2733  0.9172 -0.6599
  413SOL    HW2 1651   0.568   2.831  -0.032 -2.3477 -0.5668  0.7107
  413SOL     MW 1652   0.547   2.763   0.023  0.1250  0.0752 -0.3733
  414SOL     OW 1653   1.908   2.987   1.078 -0.2801 -0.2556  0.1992
  414SOL    HW1 1654   1.852   2.985   1.002 -2.0840  0.6274  0.9759
  414SOL    HW2 1655   1.966   2.909   1.081 -2.6759 -0.5462  0.9538
  414SOL     MW 1656   1.908   2.977   1.068 -0.8342 -0.1774  0.4012
  415SOL     OW 1657   1.736   2.576   1.135 -0.0334  0.0042 -0.2734
  415SOL    HW1 1658   1.697   2.501   1.194  2.0343 -1.6904  1.6558
  415SOL    HW2 1659   1.811   2.620   1.184  1.8176 -2.7388  1.0962
  415SOL     MW 1660   1.741   2.572   1.149  0.4836 -0.5813  0.1619
  416SOL     OW 1661   0.581   1.929   1.358  0.2331  0.2987  0.3543
  416SOL    HW1 1662   0.526   1.995   1.309  1.6484  0.9410 -1.1684
  416SOL    HW2 1663   0.567   1.848   1.308  0.0995 -2.4242  2.0196
  416SOL     MW 1664   0.571   1.927   1.345  0.4022  0.0242  0.3731
  417SOL     OW 1665   0.979   3.017   2.034 -0.1082  0.0113  0.0503
  417SOL    HW1 1666   0.902   3.018   2.095 -2.7799  0.1001 -2.7309
  417SOL    HW2 1667   0.946   2.992   1.943 -0.7861 -1.3285 -1.6222
  417SOL     MW 1668   0.965   3.014   2.030 -0.5502 -0.1538 -0.5373
  418SOL     OW 1669   0.630   2.992   0.183 -0.8301 -0.6249 -0.2484
  418SOL    HW1 1670   0.721   2.989   0.138  0.6286  0.4345 -2.8651
  418SOL    HW2 1671   0.580   2.914   0.167  0.6604  2.4292  0.8128
  418SOL     MW 1672   0.635   2.981   0.175 -0.4410 -0.0822 -0.4537
  419SOL     OW 1673   0.471   2.629   1.389 -0.8348 -0.0974  0.5102
  419SOL    HW1 1674   0.508   2.723   1.409  2.1390 -0.1484 -2.0557
  419SOL    HW2 1675   0.498   2.605   1.294  1.7185 -0.2998  0.3644
  419SOL     MW 1676   0.480   2.638   1.379 -0.1055 -0.1308  0.1524
  420SOL     OW 1677   0.785   2.153   0.983  0.7270  0.5829  0.1020
  420SOL    HW1 1678   0.717   2.158   1.052  1.3654 -1.3920 -1.5238
  420SOL    HW2 1679   0.801   2.246   0.979 -0.9341 -0.4508 -2.1466
  420SOL     MW 1680   0.778   2.166   0.992  0.5920  0.1859 -0.4092
  421SOL     OW 1681   2.937   0.078   0.053 -0.1725 -0.2963  0.2135
  421SOL    HW1 1682   2.905   0.056  -0.035  3.6181  0.0286 -0.7616
  421SOL    HW2 1683   2.943  -0.010   0.099 -1.5044 -3.1362 -0.0948
  421SOL     MW 1684   2.934   0.063   0.047  0.1519 -0.6281  0.0442
  422SOL     OW 1685   0.852   2.427   0.954  0.6173 -0.1244 -0.9091
  422SOL    HW1 1686   0.809   2.507   0.975 -2.3395 -2.2382  0.1495
  422SOL    HW2 1687   0.859   2.436   0.860  1.9711 -2.1546 -0.9471
  422SOL     MW 1688   0.847   2.439   0.944  0.4058 -0.6711 -0.7744
  423SOL     OW 1689   1.506   0.143   0.504  0.0413  0.1508 -0.2319
  423SOL    HW1 1690   1.528   0.133   0.411  1.2702 -3.8198  1.5100
  423SOL    HW2 1691   1.491   0.241   0.500  0.0344  2.2437 -3.5631
  423SOL     MW 1692   1.507   0.155   0.491  0.2025 -0.0970 -0.4416
  424SOL     OW 1693   0.652   2.226   1.230 -0.3120  0.0621  0.1021
  424SOL    HW1 1694   0.565   2.186   1.237 -3.0424 -1.4019 -1.1862
  424SOL    HW2 1695   0.690   2.224   1.315 -0.9926  0.5696 -1.5460
  424SOL     MW 1696   0.645   2.221   1.242 -0.7620 -0.0641 -0.2854
  425SOL     OW 1697   1.708   2.822   1.923 -0.0689  0.1695 -0.1215
  425SOL    HW1 1698   1.739   2.854   1.831  0.6615  2.2179 -0.9563
  425SOL    HW2 1699   1.756   2.734   1.937  1.3544  1.0667  2.7193
  425SOL     MW 1700   1.719   2.815   1.913  0.2153  0.5581  0.1432
  426SOL     OW 1701   0.798   1.669   1.940  0.3534 -0.6801  0.1420
  426SOL    HW1 1702   0.769   1.705   1.857  0.9486 -1.0736  2.2847
  426SOL    HW2 1703   0.784   1.752   1.986 -1.2660 -2.5315 -1.6683
  426SOL     MW 1704   0.792   1.685   1.935  0.2183 -0.9763  0.1858
  427SOL     OW 1705   0.352   1.534   1.899  0.4013 -0.0796  0.0532
  427SOL    HW1 1706   0.424   1.468   1.871  0.6949  0.6905  3.1035
  427SOL    HW2 1707   0.275   1.491   1.929 -1.1457 -1.2405 -0.2714
  427SOL     MW 1708   0.352   1.519   1.899  0.2359 -0.1312  0.4128
  428SOL     OW 1709   0.542   2.547   1.148  0.4340 -0.0889 -0.0708
  428SOL    HW1 1710   0.621   2.512   1.189  0.1712  1.5235  1.1949
  428SOL    HW2 1711   0.482   2.473   1.127  0.6124 -0.7252 -0.2206
  428SOL     MW 1712   0.544   2.533   1.150  0.4229  0.0399  0.0765
  429SOL     OW 1713   1.318   2.624   1.063 -0.3999  0.3388 -0.2282
  429SOL    HW1 1714   1.258   2.550   1.060 -0.8856  2.0205 -0.6059
  429SOL    HW2 1715   1.274   2.696   1.004  0.6508  0.4167 -1.1335
  429SOL     MW 1716   1.305   2.624   1.055 -0.3253  0.5709 -0.3975
  430SOL     OW 1717   1.128   2.685   0.645  0.4330  0.3156  0.5395
  430SOL    HW1 1718   1.147   2.593   0.664  1.7198  0.8494  1.4998
  430SOL    HW2 1719   1.066   2.691   0.573  0.6789  0.1362  3.0280
  430SOL     MW 1720   1.122   2.674   0.638  0.6352  0.3623  0.9946
  431SOL     OW 1721   0.316   1.919   1.125  0.1216 -0.3930  0.6589
  431SOL    HW1 1722   0.373   1.845   1.094  0.3672 -0.3093  1.1248
  431SOL    HW2 1723   0.309   1.963   1.038  3.6518  0.9701 -0.1731
  431SOL     MW 1724   0.323   1.915   1.109  0.6198 -0.2021  0.6106
  432SOL     OW 1725   0.017   0.116   1.154 -0.2231 -0.2408 -0.1154
  432SOL    HW1 1726   0.058   0.136   1.240  0.8939  0.3478  1.8316
  432SOL    HW2 1727  -0.052   0.044   1.165 -0.7586 -0.1749  0.5256
  432SOL     MW 1728   0.013   0.109   1.166 -0.1463 -0.1544  0.2261
  433SOL     OW 1729   0.599   2.871   1.429  0.2065  0.2316  0.7321
  433SOL    HW1 1730   0.621   2.880   1.523  0.5220 -2.0456 -0.9232
  433SOL    HW2 1731   0.685   2.866   1.386 -2.3142 -2.7785  0.0947
  433SOL     MW 1732   0.613   2.871   1.435 -0.0844 -0.4660  0.4296
  434SOL     OW 1733   1.572   2.834   1.535  0.6805 -0.2768 -0.4453
  434SOL    HW1 1734   1.490   2.892   1.529 -1.6290 -0.4496  2.2211
  434SOL    HW2 1735   1.599   2.804   1.453  1.7535  2.0100 -0.5753
  434SOL     MW 1736   1.564   2.838   1.524  0.5174  0.0021 -0.1107
  435SOL     OW 1737   2.838   1.772   0.162  0.0505  0.0920  0.5305
  435SOL    HW1 1738   2.879   1.856   0.134 -1.5399 -0.1040 -2.0377
  435SOL    HW2 1739   2.854   1.716   0.088  0.1945 -0.2553 -0.4836
  435SOL     MW 1740   2.845   1.775   0.148 -0.1403  0.0203  0.0579
  436SOL     OW 1741   1.335   2.728   0.301 -1.0190  0.0050 -0.2544
  436SOL    HW1 1742   1.390   2.705   0.378  0.6075  0.6425  0.2705
  436SOL    HW2 1743   1.309   2.824   0.318  1.5061  2.0231 -0.5840
  436SOL     MW 1744   1.339   2.738   0.314 -0.4712  0.3554 -0.2286
  437SOL     OW 1745   0.873   2.903   1.363  0.1808  0.2204 -0.5224
  437SOL    HW1 1746   0.887   2.994   1.336  1.0270 -0.2551 -0.3860
  437SOL    HW2 1747   0.914   2.848   1.296  2.3284  0.1073 -0.7322
  437SOL     MW 1748   0.881   2.908   1.351  0.5758  0.1428 -0.5321
  438SOL     OW 1749   0.913   2.630   1.928 -0.4516 -0.1760 -0.0118
  438SOL    HW1 1750   0.890   2.601   2.018 -0.1457 -0.6847 -2.2994
  438SOL    HW2 1751   0.851   2.592   1.863  0.7014 -2.4745 -1.0573
  438SOL     MW 1752   0.902   2.621   1.932 -0.2591 -0.5464 -0.4516
  439SOL     OW 1753   1.123   2.123   0.348 -0.8356  0.1835  0.3526
  439SOL    HW1 1754   1.105   2.162   0.436  1.4463 -1.8921  0.3098
  439SOL    HW2 1755   1.135   2.212   0.303  0.5174  0.0722  0.3698
  439SOL     MW 1756   1.122   2.140   0.354 -0.3560 -0.1050  0.3492
  440SOL     OW 1757   1.599   2.901   3.033  0.5229 -0.0438  0.4816
  440SOL    HW1 1758   1.540   2.875   3.100 -0.4805  0.6102 -1.5016
  440SOL    HW2 1759   1.643   2.825   3.009  1.0790 -0.3614 -0.4230
  440SOL     MW 1760   1.597   2.888   3.039  0.4639  0.0006  0.1006
  441SOL     OW 1761   0.322   2.603   0.541  0.0180  0.7447 -0.3556
  441SOL    HW1 1762   0.303   2.577   0.449  2.1511 -2.3510 -0.2992
  441SOL    HW2 1763   0.360   2.687   0.535 -0.3664  0.2684  0.3012
  441SOL     MW 1764   0.325   2.611   0.528  0.2487  0.2734 -0.2615
  442SOL     OW 1765   3.040   2.334   0.628  0.2854  0.4016 -0.4043
  442SOL    HW1 1766   3.077   2.427   0.624 -0.1140  0.2476 -0.7210
  442SOL    HW2 1767   2.953   2.339   0.671  0.3409  2.3436 -1.8707
  442SOL     MW 1768   3.033   2.347   0.633  0.2400  0.6375 -0.6396
  443SOL     OW 1769   1.419   1.782   1.838  0.0800 -0.0845  0.2624
  443SOL    HW1 1770   1.367   1.792   1.762  1.7246 -0.3265 -1.9535
  443SOL    HW2 1771   1.394   1.699   1.876  4.5874 -0.1435 -1.7757
  443SOL     MW 1772   1.408   1.772   1.833  0.8917 -0.1242 -0.2989
  444SOL     OW 1773   0.906   2.586   1.542  0.2859  0.1119  0.4575
  444SOL    HW1 1774   0.962   2.538   1.606 -0.1113 -0.1252 -3.8786
  444SOL    HW2 1775   0.824   2.598   1.592  0.5606  2.7419  0.6131
  444SOL     MW 1776   0.903   2.581   1.557  0.2698  0.4276 -0.0941
  445SOL     OW 1777   0.943   0.060   1.290 -0.6831 -0.2070  0.3902
  445SOL    HW1 1778   0.898   0.147   1.282  0.1865  3.2248  0.1282
  445SOL    HW2 1779   1.024   0.069   1.236  0.5982 -2.6441 -1.4317
  445SOL     MW 1780   0.948   0.072   1.282 -0.3993 -0.0757  0.1152
  446SOL     OW 1781   2.685   2.798   1.093 -0.2559  0.4398 -0.0234
  446SOL    HW1 1782   2.644   2.846   1.020 -0.4763  0.0251 -0.3838
  446SOL    HW2 1783   2.763   2.747   1.056  1.6985  1.2334  0.8683
  446SOL     MW 1784   2.690   2.798   1.079 -0.0271  0.4898  0.0467
  447SOL     OW 1785   3.038   2.029   1.698 -0.0766  0.6089 -0.3066
  447SOL    HW1 1786   3.119   1.986   1.741 -1.1705 -1.2372 -0.2160
  447SOL    HW2 1787   2.972   1.966   1.658 -0.4817  1.1678 -0.2179
  447SOL     MW 1788   3.040   2.015   1.698 -0.2744  0.4391 -0.2830
  448SOL     OW 1789   1.684   2.387   1.684  0.3463  0.0925  0.7494
  448SOL    HW1 1790   1.618   2.321   1.678  1.9374 -1.3518  2.9945
  448SOL    HW2 1791   1.641   2.475   1.679  1.9660 -4.1362 -1.6153
  448SOL     MW 1792   1.669   2.390   1.683  0.7700 -0.6560  0.7336
  449SOL     OW 1793   0.784   2.950   0.420 -0.5460 -0.5459 -0.0331
  449SOL    HW1 1794   0.734   2.960   0.337 -0.1220 -0.3648 -0.9139
  449SOL    HW2 1795   0.723   2.963   0.492  1.7856 -1.9425  0.2815
  449SOL     MW 1796   0.770   2.953   0.419 -0.1824 -0.7063 -0.1078
  450SOL     OW 1797   1.188   2.439   0.712 -0.5409  0.0129 -0.1810
  450SOL    HW1 1798   1.199   2.390   0.796  0.1849  0.8576 -1.1838
  450SOL    HW2 1799   1.276   2.412   0.678 -1.1152  4.6105  0.4920
  450SOL     MW 1800   1.201   2.429   0.718 -0.5209  0.7310 -0.2245
  451SOL     OW 1801   0.583   2.007   1.652  0.0229 -0.0297 -0.2153
  451SOL    HW1 1802   0.624   2.087   1.679 -1.6041 -3.1254  0.4936
  451SOL    HW2 1803   0.555   2.020   1.562 -0.5611 -2.2783 -0.0575
  451SOL     MW 1804   0.585   2.019   1.643 -0.2688 -0.7348 -0.1010
  452SOL     OW 1805   0.275   2.746   0.080  0.6002  0.0836 -0.5474
  452SOL    HW1 1806   0.360   2.763   0.054 -1.9407 -4.0293 -2.0951
  452SOL    HW2 1807   0.233   2.723  -0.004 -0.5071  0.3856 -1.9206
  452SOL     MW 1808   0.281   2.745   0.066  0.1188 -0.4192 -0.9328
  453SOL     OW 1809   0.421   3.001   1.695  0.1245  0.0314  0.2587
  453SOL    HW1 1810   0.525   2.993   1.698  1.7984  0.5427  0.1110
  453SOL    HW2 1811   0.411   3.027   1.604  0.6050 -2.0352 -0.1759
  453SOL     MW 1812   0.433   3.004   1.684  0.4087 -0.1738  0.1819
  454SOL     OW 1813   0.998   2.704   1.202  0.5352 -0.1434  0.1712
  454SOL    HW1 1814   0.932   2.633   1.208  0.3791  1.3424  2.8701
  454SOL    HW2 1815   0.967   2.765   1.134 -1.1059  0.8851  0.1225
  454SOL     MW 1816   0.985   2.703   1.194  0.2981  0.1884  0.5209
  455SOL     OW 1817   1.538   2.950   0.214 -0.1126 -0.6356 -0.0309
  455SOL    HW1 1818   1.626   2.955   0.257  0.3011  0.9069  0.7279
  455SOL    HW2 1819   1.498   2.876   0.249  3.1542  0.3958  0.6180
  455SOL     MW 1820   1.544   2.941   0.224  0.3730 -0.2960  0.1548
  456SOL     OW 1821   2.875   0.381   1.313 -0.0644 -0.1447  0.3145
  456SOL    HW1 1822   2.848   0.292   1.279  0.1202 -3.7951  1.2843
  456SOL    HW2 1823   2.957   0.391   1.267 -1.7639 -1.1529 -2.8494
  456SOL     MW 1824   2.882   0.371   1.303 -0.2643 -0.7593  0.0250
  457SOL     OW 1825   0.912   1.564   2.990 -0.1565  0.4058  0.0029
  457SOL    HW1 1826   0.829   1.583   3.036  2.1246 -0.1422 -3.0088
  457SOL    HW2 1827   0.969   1.508   3.048  0.7527 -2.5412 -0.3957
  457SOL     MW 1828   0.908   1.559   3.004  0.2644 -0.0553 -0.4471
  458SOL     OW 1829   1.455   1.418   0.625  0.3198  0.0948 -0.4045
  458SOL    HW1 1830   1.377   1.432   0.681  0.3103 -0.6339  0.9866
  458SOL    HW2 1831   1.419   1.356   0.555 -1.6589 -3.8147 -1.6985
  458SOL     MW 1832   1.440   1.412   0.623  0.0574 -0.5172 -0.3917
  459SOL     OW 1833   1.566   0.112   0.229 -0.2783  0.2105  0.2285
  459SOL    HW1 1834   1.551   0.015   0.217 -1.1400 -0.0711 -1.3770
  459SOL    HW2 1835   1.505   0.162   0.168 -0.9156 -1.4282  0.9994
  459SOL     MW 1836   1.556   0.106   0.219 -0.4761 -0.0429  0.1184
  460SOL     OW 1837   1.767   2.159   0.650  0.8526 -0.2759  0.2076
  460SOL    HW1 1838   1.679   2.112   0.678  0.2711 -2.5187  0.5896
  460SOL    HW2 1839   1.813   2.091   0.605 -1.8794  0.9970 -0.5240
  460SOL     MW 1840   1.761   2.144   0.648  0.4154 -0.4039  0.1615
  461SOL     OW 1841   0.540   2.422   0.610 -0.5000 -0.0955  0.3611
  461SOL    HW1 1842   0.474   2.457   0.548 -1.7376  0.3125  1.6849
  461SOL    HW2 1843   0.493   2.432   0.695  1.4421 -0.0475 -1.3133
  461SOL     MW 1844   0.525   2.428   0.613 -0.4070 -0.0353  0.3148
  462SOL     OW 1845   0.312   0.242   1.275  0.7480  0.0909 -0.1745
  462SOL    HW1 1846   0.343   0.171   1.205  0.7686 -0.8682 -0.8115
  462SOL    HW2 1847   0.390   0.262   1.315  0.4993  1.1956 -1.2231
  462SOL     MW 1848   0.326   0.235   1.271  0.7179  0.1101 -0.3969
  463SOL     OW 1849   0.963   0.003   0.692 -0.4004 -0.0979 -0.3919
  463SOL    HW1 1850   0.982   0.002   0.600 -1.2998  1.3768 -0.7927
  463SOL    HW2 1851   0.870   0.018   0.695  0.3024 -0.0669  1.2961
  463SOL     MW 1852   0.953   0.005   0.680 -0.4263  0.1008 -0.2220
  464SOL     OW 1853   0.764   3.007   2.215 -0.7846  0.1578  0.5802
  464SOL    HW1 1854   0.719   2.919   2.222  1.1454  4.3538 -1.5834
  464SOL    HW2 1855   0.783   3.043   2.298  2.2052  0.1914 -0.1083
  464SOL     MW 1856   0.761   3.000   2.227 -0.1355  0.7159  0.2039
  465SOL     OW 1857   0.704   0.315   0.529 -0.5271 -0.1571 -0.4628
  465SOL    HW1 1858   0.705   0.255   0.602 -0.8006  1.1984  1.4429
  465SOL    HW2 1859   0.745   0.275   0.455 -0.8395  1.3424  0.2165
  465SOL     MW 1860   0.709   0.302   0.529 -0.6044  0.2196 -0.1217
  466SOL     OW 1861   1.068   1.994   0.734  0.5532  0.7078  0.3650
  466SOL    HW1 1862   1.059   1.927   0.664  0.4968 -0.4186  0.1492
  466SOL    HW2 1863   1.043   2.081   0.695 -0.9507 -0.7327 -2.5948
  466SOL     MW 1864   1.063   1.997   0.719  0.3474  0.3691 -0.0540
  467SOL     OW 1865   1.255   2.240   0.904  0.2573  0.2083  0.2282
  467SOL    HW1 1866   1.352   2.269   0.900  0.7754  0.7486 -3.3602
  467SOL    HW2 1867   1.251   2.153   0.870 -0.1353  1.9061  1.0289
  467SOL     MW 1868   1.267   2.233   0.899  0.2738  0.5036 -0.1396
  468SOL     OW 1869   0.345   2.586   2.011  0.2203  0.1335  0.0761
  468SOL    HW1 1870   0.379   2.512   1.954  0.1390 -1.0664 -0.7127
  468SOL    HW2 1871   0.393   2.670   1.981  2.1487 -3.3631 -0.0917
  468SOL     MW 1872   0.356   2.587   2.000  0.4640 -0.4862 -0.0501
  469SOL     OW 1873   0.378   2.128   1.795  0.5619 -0.0682 -0.4129
  469SOL    HW1 1874   0.295   2.082   1.786 -0.6415  0.4185 -1.4922
  469SOL    HW2 1875   0.435   2.078   1.736 -0.1369  0.2535 -1.2850
  469SOL     MW 1876   0.374   2.115   1.786  0.3109  0.0384 -0.6703
  470SOL     OW 1877   3.037   2.593   0.126  0.2803  0.6259  0.2485
  470SOL    HW1 1878   2.960   2.570   0.177 -0.7902  0.9751  0.0592
  470SOL    HW2 1879   3.010   2.597   0.032  3.5336 -0.2322 -1.9990
  470SOL     MW 1880   3.023   2.591   0.120  0.5683  0.5588 -0.0730
  471SOL     OW 1881   1.248   2.727   1.407 -0.5139 -0.2474 -0.0118
  471SOL    HW1 1882   1.164   2.743   1.453 -2.0902  0.0497 -0.9736
  471SOL    HW2 1883   1.218   2.733   1.318  0.2408 -1.9146 -2.0043
  471SOL     MW 1884   1.233   2.730   1.401 -0.6223 -0.4282 -0.4016
  472SOL     OW 1885   2.880   2.075   0.373 -0.3184 -0.3956  0.5349
  472SOL    HW1 1886   2.917   2.059   0.277 -0.0135  1.7613 -1.1700
  472SOL    HW2 1887   2.843   1.992   0.415 -0.0419 -3.3097 -0.3014
  472SOL     MW 1888   2.880   2.062   0.366 -0.2417 -0.4955  0.1996
  473SOL     OW 1889   0.806   2.538   1.271 -0.2926 -1.0226  0.4439
  473SOL    HW1 1890   0.837   2.450   1.283 -1.1295 -0.4815  3.1325
  473SOL    HW2 1891   0.812   2.577   1.367 -0.3732 -2.8566  0.8259
  473SOL     MW 1892   0.811   2.531   1.285 -0.4136 -1.1932  0.8490
  474SOL     OW 1893   0.755   2.257   1.718  0.1285  0.2156 -0.3338
  474SOL    HW1 1894   0.839   2.255   1.761  0.9442 -0.3002 -1.7383
  474SOL    HW2 1895   0.776   2.258   1.629 -0.5239  0.3402  0.0508
  474SOL     MW 1896   0.769   2.257   1.712  0.1500  0.1640 -0.4684
  475SOL     OW 1897   1.615   0.049   1.452  0.0856  0.3932  0.2881
  475SOL    HW1 1898   1.540   0.084   1.409  1.7404 -0.6640  1.2706
  475SOL    HW2 1899   1.589  -0.039   1.474 -2.5941  1.7573  1.5669
  475SOL     MW 1900   1.602   0.042   1.450 -0.0496  0.4337  0.5864
  476SOL     OW 1901   1.501   2.648   0.841  0.2819  0.0973  0.3760
  476SOL    HW1 1902   1.438   2.630   0.915 -2.5875 -2.4091  1.8265
  476SOL    HW2 1903   1.490   2.743   0.825  0.1920  1.4636 -1.3199
  476SOL     MW 1904   1.491   2.658   0.849 -0.1085 -0.0532  0.3436
  477SOL     OW 1905   0.841   2.493   0.696 -0.5109  0.2784  0.1699
  477SOL    HW1 1906   0.891   2.554   0.629  0.4385  2.0862 -2.1239
  477SOL    HW2 1907   0.796   2.436   0.632  0.8326 -0.4599 -0.5973
  477SOL     MW 1908   0.842   2.494   0.679 -0.2084  0.4195 -0.2340
  478SOL     OW 1909   0.192   2.649   0.910 -0.6003 -0.3895 -0.3545
  478SOL    HW1 1910   0.245   2.726   0.924  2.7019  0.1104  0.5872
  478SOL    HW2 1911   0.236   2.577   0.863  2.9651 -0.7481  0.8115
  478SOL     MW 1912   0.205   2.649   0.905  0.3058 -0.3709 -0.0764
  479SOL     OW 1913   1.446   1.932   1.297  0.3868  0.0342 -0.1342
  479SOL    HW1 1914   1.396   1.987   1.356 -1.2798 -0.2255  1.0195
  479SOL    HW2 1915   1.523   1.910   1.351 -1.8441 -0.6612  1.6692
  479SOL     MW 1916   1.450   1.936   1.312 -0.1274 -0.0918  0.2560
  480SOL     OW 1917   1.849   2.385   1.359  0.1321  0.1856  0.7358
  480SOL    HW1 1918   1.874   2.296   1.372 -0.3304 -0.1887  1.0930
  480SOL    HW2 1919   1.884   2.405   1.273  0.0044 -1.4933  2.0820
  480SOL     MW 1920   1.857   2.376   1.350  0.0543 -0.0853  0.9605
  481SOL     OW 1921   1.181   0.106   1.112  0.1084 -0.2409 -0.1923
  481SOL    HW1 1922   1.240   0.064   1.047 -1.0584 -1.1220  0.8347
  481SOL    HW2 1923   1.176   0.200   1.089 -1.6417  1.6814  0.6612
  481SOL     MW 1924   1.188   0.113   1.101 -0.2765 -0.1035  0.0558
  482SOL     OW 1925   0.970   0.023   0.402 -0.3268 -0.1177 -0.1801
  482SOL    HW1 1926   0.897  -0.040   0.406 -1.6414 -0.8090  0.3659
  482SOL    HW2 1927   0.934   0.103   0.364 -2.7018 -0.3117  0.2507
  482SOL     MW 1928   0.955   0.025   0.397 -0.8136 -0.2345 -0.0512
  483SOL     OW 1929   0.411   2.862   0.513  0.3317 -0.0062  0.2092
  483SOL    HW1 1930   0.344   2.881   0.446 -1.3830  1.3716 -0.9342
  483SOL    HW2 1931   0.377   2.903   0.592  1.4510 -0.2443 -1.1517
  483SOL     MW 1932   0.398   2.870   0.514  0.2532  0.1442 -0.1212
  484SOL     OW 1933   1.678   1.891   1.424  0.3817  0.2905 -0.1998
  484SOL    HW1 1934   1.744   1.965   1.412  1.4326  2.8378 -0.7155
  484SOL    HW2 1935   1.671   1.886   1.518  1.5157  0.7828 -0.4789
  484SOL     MW 1936   1.686   1.900   1.435  0.6700  0.6916 -0.3047
  485SOL     OW 1937   0.556   2.322   0.327  0.0882  0.7310 -0.5290
  485SOL    HW1 1938   0.585   2.367   0.403 -1.0718 -2.5693 -0.6231
  485SOL    HW2 1939   0.570   2.392   0.273  0.3048 -1.8968 -3.8084
  485SOL     MW 1940   0.561   2.337   0.330 -0.0363 -0.0512 -0.9741
  486SOL     OW 1941   0.089   2.459   1.430  0.1935  0.3183 -0.4418
  486SOL    HW1 1942   0.118   2.545   1.397 -2.6194 -1.0105 -0.9158
  486SOL    HW2 1943   0.123   2.468   1.517 -0.7178 -0.2863 -1.7415
  486SOL     MW 1944   0.098   2.472   1.437 -0.2978  0.0632 -0.6758
  487SOL     OW 1945   1.249   1.614   1.025  0.1632 -0.8065  0.5951
  487SOL    HW1 1946   1.241   1.701   1.075  2.1876  1.6667  0.2884
  487SOL    HW2 1947   1.349   1.603   1.022  1.5738 -1.4175 -0.5130
  487SOL     MW 1948   1.261   1.624   1.031  0.6164 -0.5608  0.4084
  488SOL     OW 1949   1.549   1.859   0.554  0.1422 -0.1952  0.3797
  488SOL    HW1 1950   1.600   1.927   0.507  1.0969  0.8588  3.2003
  488SOL    HW2 1951   1.459   1.872   0.525  0.8077  1.2961 -0.4304
  488SOL     MW 1952   1.544   1.870   0.544  0.3559  0.1406  0.6450
  489SOL     OW 1953   0.766   0.796   0.492  0.0656  0.1242 -0.4279
  489SOL    HW1 1954   0.819   0.724   0.466  0.2756 -1.7321  0.6186
  489SOL    HW2 1955   0.776   0.794   0.586  0.8429  0.5881 -1.3382
  489SOL     MW 1956   0.775   0.786   0.501  0.1959 -0.0595 -0.4100
  490SOL     OW 1957   1.396   2.107   0.423  0.4875 -0.0243  0.7499
  490SOL    HW1 1958   1.460   2.172   0.389 -0.2106  1.7327 -1.1632
  490SOL    HW2 1959   1.308   2.140   0.393 -0.9469 -0.4802 -1.7497
  490SOL     MW 1960   1.393   2.120   0.414  0.2061  0.1473  0.1677
  491SOL     OW 1961   1.222   2.958   0.407 -0.3896  0.1464  0.0353
  491SOL    HW1 1962   1.234   3.008   0.487  0.0494  0.6889  1.1326
  491SOL    HW2 1963   1.150   3.009   0.375 -0.0026 -3.2160  1.1572
  491SOL     MW 1964   1.214   2.971   0.414 -0.2806 -0.2257  0.3281
  492SOL     OW 1965   1.469   2.152   0.682  0.1323 -0.2753 -0.3094
  492SOL    HW1 1966   1.453   2.131   0.585 -1.5247  1.2662 -1.7188
  492SOL    HW2 1967   1.430   2.086   0.743  0.3118 -0.8479 -0.3187
  492SOL     MW 1968   1.462   2.140   0.677 -0.0626 -0.1474 -0.4966
  493SOL     OW 1969   0.170   2.946   0.439 -0.3197 -0.2870 -0.0172
  493SOL    HW1 1970   0.128   3.010   0.501  1.3344 -0.4330  1.0277
  493SOL    HW2 1971   0.166   2.985   0.348  1.6638 -0.2564 -0.1855
  493SOL     MW 1972   0.164   2.959   0.435  0.1603 -0.3022  0.0984
  494SOL     OW 1973   0.421   2.404   1.792  0.6545  0.2626 -0.4603
  494SOL    HW1 1974   0.418   2.304   1.801  0.2590 -1.8981  0.1617
  494SOL    HW2 1975   0.446   2.423   1.708 -1.4311  0.7876  2.3514
  494SOL     MW 1976   0.424   2.393   1.782  0.3271  0.0468 -0.0073
  495SOL     OW 1977   2.918   1.642   2.734  0.2300 -0.2542  0.1511
  495SOL    HW1 1978   2.903   1.723   2.775  0.2571 -2.1325 -0.1085
  495SOL    HW2 1979   2.910   1.569   2.796  0.4382  0.5059  0.3109
  495SOL     MW 1980   2.915   1.643   2.747  0.2611 -0.4017  0.1379
  496SOL     OW 1981   2.798   2.291   2.653 -0.2171 -0.0447 -0.5212
  496SOL    HW1 1982   2.823   2.212   2.696  1.1532  0.9315 -1.7103
  496SOL    HW2 1983   2.882   2.335   2.646  0.6780 -0.1792 -2.4606
  496SOL     MW 1984   2.813   2.287   2.657  0.0818  0.0664 -0.9340
  497SOL     OW 1985   1.490   2.303   2.495  0.3048  0.1347 -0.4969
  497SOL    HW1 1986   1.467   2.259   2.410 -0.7267  1.2340  0.0973
  497SOL    HW2 1987   1.486   2.232   2.559 -0.9262 -3.0400  1.3107
  497SOL     MW 1988   1.487   2.288   2.492  0.0063 -0.1392 -0.1800
  498SOL     OW 1989   1.581   2.754   2.226  0.4114  0.1074 -0.2128
  498SOL    HW1 1990   1.601   2.662   2.206  1.5471 -1.8630  1.0315
  498SOL    HW2 1991   1.648   2.773   2.299  0.7398  2.2869 -0.7863
  498SOL     MW 1992   1.593   2.745   2.233  0.6046  0.1350 -0.1243
  499SOL     OW 1993   0.906   0.143   0.019  0.1931  0.1849 -0.2344
  499SOL    HW1 1994   0.865   0.169   0.101 -0.1197  1.6777  0.4962
  499SOL    HW2 1995   0.906   0.049   0.029  1.1961 -1.6765  2.8519
  499SOL     MW 1996   0.900   0.134   0.031  0.2842  0.1363  0.2692
  500SOL     OW 1997   1.032   2.462   2.768  0.2542 -0.1967  0.7508
  500SOL    HW1 1998   1.073   2.471   2.852 -0.6790  0.5800  0.0608
  500SOL    HW2 1999   0.973   2.538   2.776  1.5448 -0.2372 -0.2310
  500SOL     MW 2000   1.030   2.473   2.780  0.3013 -0.0996  0.5302
  501SOL     OW 2001   1.723   2.227   0.002 -0.1267 -0.1247 -0.4794
  501SOL    HW1 2002   1.700   2.322   0.017  1.6632  0.2481 -0.1204
  501SOL    HW2 2003   1.817   2.219   0.024  0.2245  0.4991 -1.9200
  501SOL     MW 2004   1.733   2.239   0.007  0.1558  0.0068 -0.6221
  502SOL     OW 2005   0.155   2.782   2.923 -0.6398 -0.0178  0.0066
  502SOL    HW1 2006   0.091   2.745   2.864  1.1963  0.6481 -1.7113
  502SOL    HW2 2007   0.180   2.861   2.878  2.3406 -1.9975 -1.0513
  502SOL     MW 2008   0.150   2.787   2.909 -0.0043 -0.1911 -0.3597
  503SOL     OW 2009   1.160   2.605   2.096 -0.0105  0.1592 -0.0083
  503SOL    HW1 2010   1.226   2.574   2.031  3.7905 -0.8539 -0.3923
  503SOL    HW2 2011   1.086   2.639   2.043 -1.2502 -0.2351  0.9432
  503SOL     MW 2012   1.159   2.606   2.081  0.3274 -0.0265  0.0666
  504SOL     OW 2013   0.088   2.645   2.076 -0.1233  0.0625  0.0896
  504SOL    HW1 2014   0.180   2.627   2.058  0.3947  3.4829 -1.4004
  504SOL    HW2 2015   0.054   2.571   2.122  1.2147  0.1819 -0.7720
  504SOL     MW 2016   0.096   2.632   2.079  0.1216  0.5295 -0.2207
  505SOL     OW 2017   1.656   2.667   2.733 -0.0047  0.1903  0.9030
  505SOL    HW1 2018   1.672   2.703   2.638  0.6976 -1.2587 -2.3474
  505SOL    HW2 2019   1.603   2.740   2.768  0.1924 -1.2698 -2.8251
  505SOL     MW 2020   1.651   2.682   2.725  0.1139 -0.1935 -0.0177
  506SOL     OW 2021   1.586   0.027   2.862 -0.5092  0.1771 -0.5211
  506SOL    HW1 2022   1.612  -0.012   2.944  1.4830  0.6267  1.4646
  506SOL    HW2 2023   1.645  -0.019   2.802 -1.3358 -2.7915 -0.9051
  506SOL     MW 2024   1.598   0.015   2.865 -0.3554 -0.1552 -0.3098
  507SOL     OW 2025   0.881   2.679   2.845 -0.2458  0.1875  0.2823
  507SOL    HW1 2026   0.861   2.760   2.797  0.9021 -0.7043 -0.3708
  507SOL    HW2 2027   0.799   2.640   2.874 -1.4493 -2.1102 -4.2287
  507SOL     MW 2028   0.868   2.684   2.843 -0.2531 -0.2333 -0.3991
  508SOL     OW 2029   1.214   2.116   2.554  0.7284  0.2930 -0.4682
  508SOL    HW1 2030   1.278   2.138   2.621  2.9662 -0.7791  1.3285
  508SOL    HW2 2031   1.127   2.157   2.583  1.7349 -0.7072 -0.3520
  508SOL     MW 2032   1.211   2.124   2.567  1.1564  0.0196 -0.2158
  509SOL     OW 2033   0.588   2.601   2.820  0.1596  0.6462  0.0318
  509SOL    HW1 2034   0.581   2.545   2.744 -0.8075  1.9684 -0.7883
  509SOL    HW2 2035   0.547   2.681   2.799 -0.8814 -0.9258 -0.0146
  509SOL     MW 2036   0.582   2.604   2.807 -0.1054  0.6133 -0.0825
  510SOL     OW 2037   1.505   2.603   1.668  0.6126  0.2068 -0.1907
  510SOL    HW1 2038   1.520   2.705   1.653  0.8065  0.7102 -0.9507
  510SOL    HW2 2039   1.428   2.598   1.721 -1.0624  2.1657  1.2012
  510SOL     MW 2040   1.497   2.616   1.673  0.4172  0.5317 -0.1074
  511SOL     OW 2041   0.322   2.565   2.545  0.0776  0.6640  0.1228
  511SOL    HW1 2042   0.418   2.553   2.573 -0.5252 -0.2497  0.7213
  511SOL    HW2 2043   0.322   2.542   2.451 -0.9936  1.1682  0.1817
  511SOL     MW 2044   0.335   2.560   2.536 -0.1433  0.6099  0.2095
  512SOL     OW 2045   1.006   2.015   2.889  0.0355 -0.2838  0.0334
  512SOL    HW1 2046   0.935   2.057   2.937  0.7033  1.8928  0.4523
  512SOL    HW2 2047   1.026   1.927   2.924 -0.5935  0.4276  1.7083
  512SOL     MW 2048   0.999   2.009   2.900  0.0407  0.0972  0.3096
  513SOL     OW 2049   1.667   2.492   2.180  0.5128 -1.2029 -0.0292
  513SOL    HW1 2050   1.747   2.538   2.128  2.0724  1.7645 -2.5027
  513SOL    HW2 2051   1.696   2.454   2.260  1.6199 -1.7559  0.3361
  513SOL     MW 2052   1.681   2.493   2.184  0.8646 -0.8844 -0.3074
  514SOL     OW 2053   0.195   2.355   2.656  0.0939  0.3376 -0.0039
  514SOL    HW1 2054   0.248   2.439   2.650  3.8374 -0.4706 -0.3257
  514SOL    HW2 2055   0.230   2.308   2.731 -1.1609  2.2356  1.4555
  514SOL     MW 2056   0.206   2.360   2.665  0.4223  0.4814  0.1462
  515SOL     OW 2057   1.078   1.999   1.903 -0.0671  0.4735  0.4614
  515SOL    HW1 2058   1.046   2.087   1.904  4.1707 -1.2791  2.1568
  515SOL    HW2 2059   1.158   1.996   1.964  0.5270 -0.3142 -1.4135
  515SOL     MW 2060   1.084   2.010   1.912  0.5704  0.1383  0.4377
  516SOL     OW 2061   1.389   2.524   2.950 -0.4484 -0.4635  0.3128
  516SOL    HW1 2062   1.391   2.523   2.852  1.6577 -0.5901 -1.1263
  516SOL    HW2 2063   1.299   2.552   2.973  1.5091  0.8633  2.2652
  516SOL     MW 2064   1.377   2.528   2.941  0.0878 -0.3051  0.3805
  517SOL     OW 2065   0.619   2.372   2.275  0.2378 -0.0379 -0.3512
  517SOL    HW1 2066   0.556   2.449   2.266  1.6910  2.9040  1.0048
  517SOL    HW2 2067   0.573   2.301   2.237  1.0539 -3.3741  0.0066
  517SOL     MW 2068   0.605   2.373   2.269  0.5372 -0.0899 -0.1251
  518SOL     OW 2069   1.775   0.017   3.078  0.6215  0.0495  0.3633
  518SOL    HW1 2070   1.785   0.072   3.152 -0.4178 -3.1066  0.9988
  518SOL    HW2 2071   1.757  -0.067   3.116  0.4815  2.2777  2.0704
  518SOL     MW 2072   1.774   0.013   3.093  0.4659 -0.0729  0.6724
  519SOL     OW 2073   0.720   2.534   1.757  0.0117  0.6987 -0.3574
  519SOL    HW1 2074   0.707   2.439   1.738 -0.4683 -1.2683 -3.4587
  519SOL    HW2 2075   0.638   2.571   1.732 -1.3907  0.2114 -0.1836
  519SOL     MW 2076   0.707   2.526   1.751 -0.2366  0.3749 -0.7436
  520SOL     OW 2077   1.220   2.199   2.944  0.0287  0.1914 -0.0512
  520SOL    HW1 2078   1.145   2.133   2.919 -0.3177 -0.5827  0.1326
  520SOL    HW2 2079   1.276   2.164   3.020  0.4955  0.3170 -0.9517
  520SOL     MW 2080   1.218   2.186   2.951  0.0446  0.1058 -0.1458
  521SOL     OW 2081   1.767   2.062   2.231  0.0712  0.1793  0.6967
  521SOL    HW1 2082   1.763   2.076   2.137 -1.6913 -1.1188  0.6379
  521SOL    HW2 2083   1.753   1.964   2.247 -1.7505 -0.2069 -0.3577
  521SOL     MW 2084   1.765   2.051   2.221 -0.4017 -0.0429  0.5498
  522SOL     OW 2085   2.907   2.517   2.274  0.2353 -0.0084  0.0425
  522SOL    HW1 2086   2.988   2.476   2.289 -3.3516 -0.2452  0.9614
  522SOL    HW2 2087   2.922   2.608   2.286  0.6524 -1.6482 -0.9230
  522SOL     MW 2088   2.919   2.523   2.278 -0.1829 -0.2560  0.0364
  523SOL     OW 2089   0.896   1.511   2.139  0.2510  0.3785 -0.2881
  523SOL    HW1 2090   0.849   1.540   2.056 -0.0440 -1.2620 -1.7664
  523SOL    HW2 2091   0.943   1.439   2.100 -0.4403 -0.0557  0.5348
  523SOL     MW 2092   0.896   1.506   2.123  0.1209  0.1048 -0.3746
  524SOL     OW 2093   0.590   2.349   2.950  0.4660  0.3027 -0.1548
  524SOL    HW1 2094   0.599   2.424   2.893  2.3151  0.6031 -0.5864
  524SOL    HW2 2095   0.664   2.295   2.930 -2.4671  2.6502 -0.8268
  524SOL     MW 2096   0.601   2.352   2.940  0.3230  0.6520 -0.3004
  525SOL     OW 2097   0.455   2.191   2.109 -0.4747  0.1552 -0.3319
  525SOL    HW1 2098   0.438   2.117   2.165  2.9963  0.0713  4.0319
  525SOL    HW2 2099   0.529   2.161   2.047 -1.5492  1.1942  2.1841
  525SOL     MW 2100   0.463   2.178   2.108 -0.1585  0.2812  0.5758
  526SOL     OW 2101   0.691   2.158   1.959  0.1163  0.0397  0.3332
  526SOL    HW1 2102   0.722   2.193   1.874  4.5818  2.3702 -0.6803
  526SOL    HW2 2103   0.768   2.178   2.021 -2.7112 -0.5983 -1.5728
  526SOL     MW 2104   0.705   2.165   1.956  0.3324  0.2630 -0.0520
  527SOL     OW 2105   1.289   1.921   2.049 -0.1858 -0.5883 -0.1388
  527SOL    HW1 2106   1.260   1.894   2.137 -0.9439  0.2116  2.1890
  527SOL    HW2 2107   1.326   1.854   2.002  0.7251  0.2083  1.1291
  527SOL     MW 2108   1.290   1.909   2.054 -0.1657 -0.3776  0.3356
  528SOL     OW 2109   0.645   2.911   2.931 -0.1755  0.0260  0.5459
  528SOL    HW1 2110   0.649   3.007   2.934 -0.9055 -0.0491 -0.4736
  528SOL    HW2 2111   0.640   2.889   2.834  2.9828  0.4528 -1.7383
  528SOL     MW 2112   0.645   2.921   2.918  0.1449  0.0724  0.1100
  529SOL     OW 2113   0.980   2.249   1.913 -0.4799  1.1936 -0.1646
  529SOL    HW1 2114   1.026   2.267   1.998 -0.2321 -1.2660 -1.6557
  529SOL    HW2 2115   1.033   2.308   1.857  1.1148  2.0567  4.0665
  529SOL     MW 2116   0.993   2.259   1.917 -0.2368  0.9830  0.1969
  530SOL     OW 2117   1.137   2.457   3.043  0.3998  0.2035 -0.3689
  530SOL    HW1 2118   1.062   2.443   3.106  0.5927  1.2921  0.6427
  530SOL    HW2 2119   1.157   2.367   3.014  0.3463  0.6048  0.2409
  530SOL     MW 2120   1.130   2.443   3.047  0.4182  0.4001 -0.1550
  531SOL     OW 2121   0.898   1.881   2.653  0.4409  1.1375  0.2242
  531SOL    HW1 2122   0.938   1.948   2.711  1.1871  0.7872  1.6000
  531SOL    HW2 2123   0.864   1.802   2.695  0.7403 -3.1027 -3.5229
  531SOL     MW 2124   0.899   1.880   2.666  0.5789  0.5318 -0.0887
  532SOL     OW 2125   1.697   0.289   2.816 -0.1910 -0.1742  0.0534
  532SOL    HW1 2126   1.675   0.207   2.868  1.3075  1.0712  0.1274
  532SOL    HW2 2127   1.786   0.310   2.853  1.5211  0.4856 -1.0883
  532SOL     MW 2128   1.706   0.281   2.828  0.2326  0.0772 -0.0875
  533SOL     OW 2129   1.764   2.654   2.965  0.3129 -0.6233  0.2595
  533SOL    HW1 2130   1.745   2.592   3.042 -3.8049 -1.2905  1.6407
  533SOL    HW2 2131   1.708   2.629   2.886  0.4889  0.3802 -1.6589
  533SOL     MW 2132   1.754   2.642   2.964 -0.2072 -0.5790  0.1886
  534SOL     OW 2133   1.734   2.442   2.458 -0.1060 -0.9625  0.9388
  534SOL    HW1 2134   1.656   2.401   2.493  2.8569 -0.2749  4.7550
  534SOL    HW2 2135   1.796   2.440   2.535  0.5830  0.1460 -2.9930
  534SOL     MW 2136   1.732   2.436   2.473  0.3758 -0.7255  0.9235
  535SOL     OW 2137   1.832   2.332   1.907 -0.6366  0.3588 -0.5558
  535SOL    HW1 2138   1.784   2.359   1.829 -1.3127 -0.5520  0.1467
  535SOL    HW2 2139   1.927   2.348   1.887  1.0383  0.5350 -1.4250
  535SOL     MW 2140   1.838   2.338   1.894 -0.5049  0.2619 -0.5778
  536SOL     OW 2141   0.450   1.784   1.990  0.0435 -0.0640 -0.3258
  536SOL    HW1 2142   0.459   1.726   1.914 -0.6883  0.4767  0.2333
  536SOL    HW2 2143   0.534   1.832   1.995  1.6787 -1.0486 -1.9283
  536SOL     MW 2144   0.462   1.782   1.981  0.1627 -0.1226 -0.4635
  537SOL     OW 2145   1.079   0.202   2.896  0.3557 -0.1262 -0.1518
  537SOL    HW1 2146   1.004   0.186   2.952  0.5937  1.3039 -0.0529
  537SOL    HW2 2147   1.093   0.300   2.889 -1.2469 -1.8813  1.4275
  537SOL     MW 2148   1.071   0.213   2.902  0.1756 -0.1691  0.0696
  538SOL     OW 2149   1.313   0.010   2.976  0.1940 -0.0884  0.1263
  538SOL    HW1 2150   1.252   0.078   2.965  0.7017 -1.7234  0.2885
  538SOL    HW2 2151   1.392   0.043   2.932  0.3674 -1.0026 -2.0740
  538SOL     MW 2152   1.315   0.023   2.969  0.2839 -0.4247 -0.1426
  539SOL     OW 2153   0.777   2.721   2.499  0.3477  0.4737  0.3909
  539SOL    HW1 2154   0.846   2.778   2.530  0.4058  0.4614 -0.4074
  539SOL    HW2 2155   0.802   2.634   2.514 -1.7074  2.7795 -2.0004
  539SOL     MW 2156   0.790   2.717   2.505  0.0842  0.7763 -0.0299
  540SOL     OW 2157   0.336   2.261   2.869  0.1688 -0.4932  0.5138
  540SOL    HW1 2158   0.423   2.299   2.879 -0.3930  3.0423 -2.7806
  540SOL    HW2 2159   0.306   2.237   2.958 -0.2804  0.1144  0.2530
  540SOL     MW 2160   0.343   2.263   2.882  0.0354  0.0534  0.0447
  541SOL     OW 2161   0.155   2.880   2.194 -0.3095  0.4391 -0.4491
  541SOL    HW1 2162   0.127   2.798   2.150 -1.1113  0.9343 -1.0387
  541SOL    HW2 2163   0.213   2.851   2.269  0.6639 -1.7691 -0.5947
  541SOL     MW 2164   0.159   2.865   2.198 -0.2869  0.2131 -0.5461
  542SOL     OW 2165   0.959   2.215   2.662  0.3659 -0.3896 -0.5174
  542SOL    HW1 2166   0.884   2.172   2.686 -0.7663  0.8676 -0.2800
  542SOL    HW2 2167   0.972   2.286   2.724  0.3393  1.4239 -0.4750
  542SOL     MW 2168   0.951   2.219   2.673  0.2130  0.0156 -0.4805
  543SOL     OW 2169   1.430   2.515   2.670  0.2031 -0.3499 -0.1320
  543SOL    HW1 2170   1.457   2.448   2.611  1.7996 -0.0244  1.5488
  543SOL    HW2 2171   1.509   2.558   2.705  1.0402 -0.4346  1.0831
  543SOL     MW 2172   1.444   2.512   2.667  0.5242 -0.3181  0.2500
  544SOL     OW 2173   0.579   0.217   2.727 -0.2347  0.0586  0.2140
  544SOL    HW1 2174   0.482   0.239   2.754 -2.1076 -0.7213 -1.5108
  544SOL    HW2 2175   0.561   0.159   2.652  1.8801 -0.5914 -1.1292
  544SOL     MW 2176   0.564   0.212   2.721 -0.2028 -0.1301 -0.1908
  545SOL     OW 2177   1.505   2.156   2.256 -0.0540  0.3875 -0.5850
  545SOL    HW1 2178   1.473   2.159   2.163 -1.5018  1.7578 -1.5424
  545SOL    HW2 2179   1.602   2.135   2.260  1.2847 -0.8782  2.5322
  545SOL     MW 2180   1.513   2.154   2.244 -0.0684  0.4013 -0.3000
  546SOL     OW 2181   2.975   1.998   0.105 -0.0956  0.1509  0.1010
  546SOL    HW1 2182   2.980   2.074   0.053 -1.3101  0.1505  1.8464
  546SOL    HW2 2183   3.065   1.965   0.106 -2.1254 -2.3445  0.0498
  546SOL     MW 2184   2.988   2.004   0.098 -0.5236 -0.1784  0.3245
  547SOL     OW 2185   0.193   3.008   0.138 -0.1896  0.1408  0.8870
  547SOL    HW1 2186   0.229   3.069   0.067 -1.7629  2.4687 -0.0851
  547SOL    HW2 2187   0.231   2.924   0.116  0.4609 -0.2475 -0.3409
  547SOL     MW 2188   0.203   3.005   0.126 -0.3113  0.3967  0.5967
  548SOL     OW 2189   0.324   2.532   0.263 -0.2965 -0.2517  0.1752
  548SOL    HW1 2190   0.310   2.600   0.196 -0.4664 -0.0593  1.7895
  548SOL    HW2 2191   0.248   2.477   0.261  2.3094  1.3666  2.8941
  548SOL     MW 2192   0.312   2.534   0.254  0.0249 -0.0128  0.7469
  549SOL     OW 2193   0.710   1.901   2.083  0.0215 -0.1875  0.4146
  549SOL    HW1 2194   0.712   1.970   2.018 -0.1988 -2.7667  1.4970
  549SOL    HW2 2195   0.734   1.936   2.167 -0.6126 -0.7885 -2.1344
  549SOL     MW 2196   0.713   1.915   2.085 -0.0912 -0.6071  0.2211
  550SOL     OW 2197   1.850   1.769   2.538 -0.0197  0.2369 -0.3844
  550SOL    HW1 2198   1.836   1.783   2.441 -1.8623  0.0860  0.6830
  550SOL    HW2 2199   1.844   1.863   2.570  1.2822 -1.9069  0.2946
  550SOL     MW 2200   1.847   1.783   2.529 -0.0910 -0.0658 -0.1540
  551SOL     OW 2201   0.875   2.340   0.200  0.2118  0.0105 -0.0758
  551SOL    HW1 2202   0.967   2.365   0.225 -2.0109  1.4657 -1.5877
  551SOL    HW2 2203   0.870   2.242   0.209  2.2160 -0.8647  0.1057
  551SOL     MW 2204   0.886   2.330   0.205  0.1830  0.0870 -0.2514
  552SOL     OW 2205   1.777   1.785   2.287 -0.3230 -0.6346 -0.2697
  552SOL    HW1 2206   1.686   1.744   2.269 -0.7037 -0.0599 -0.1339
  552SOL    HW2 2207   1.827   1.761   2.195 -0.1363 -3.1721 -1.1831
  552SOL     MW 2208   1.771   1.776   2.272 -0.3486 -0.8935 -0.3723
  553SOL     OW 2209   1.251   2.333   1.528  0.1063 -0.2440 -0.4807
  553SOL    HW1 2210   1.298   2.249   1.516 -2.3171 -0.4347  0.7787
  553SOL    HW2 2211   1.307   2.405   1.496 -1.6047  1.9617 -0.5680
  553SOL     MW 2212   1.265   2.331   1.522 -0.4392  0.0218 -0.3260
  554SOL     OW 2213   0.598   2.856   2.658  0.2521 -0.2766  0.1134
  554SOL    HW1 2214   0.537   2.922   2.615 -2.3645  0.7527  0.4335
  554SOL    HW2 2215   0.664   2.823   2.591  0.9122  1.0128 -0.6016
  554SOL     MW 2216   0.599   2.860   2.643 -0.0060  0.0293  0.0613
  555SOL     OW 2217   0.576   2.443   2.591  0.2169  0.3871 -0.0966
  555SOL    HW1 2218   0.561   2.348   2.600  3.6688 -1.2366 -1.9542
  555SOL    HW2 2219   0.657   2.446   2.546 -1.8149 -3.8746  1.8903
  555SOL     MW 2220   0.585   2.431   2.586  0.4043 -0.3894 -0.0795
  556SOL     OW 2221   0.951   1.804   0.163 -0.0990  0.6055  0.0674
  556SOL    HW1 2222   0.990   1.795   0.075  0.0187 -1.0378 -0.0980
  556SOL    HW2 2223   1.030   1.818   0.224 -1.6086  3.3403  2.6506
  556SOL     MW 2224   0.967   1.805   0.160 -0.2827  0.7495  0.3864
  557SOL     OW 2225   0.901   2.693   0.499  0.1560 -0.4970  0.2846
  557SOL    HW1 2226   0.955   2.663   0.423  2.3183 -0.5299  0.2160
  557SOL    HW2 2227   0.859   2.769   0.470 -1.1572  0.0323  1.5680
  557SOL     MW 2228   0.902   2.699   0.485  0.2680 -0.4315  0.4449
  558SOL     OW 2229   0.264   2.194   0.059 -0.3004  0.2662  0.0994
  558SOL    HW1 2230   0.212   2.119   0.090 -1.0587  2.5407  0.1870
  558SOL    HW2 2231   0.233   2.262   0.117  2.4664  1.2420 -0.7903
  558SOL     MW 2232   0.253   2.193   0.071 -0.0354  0.6950 -0.0064
  559SOL     OW 2233   1.157   2.299   2.109 -0.4793  0.2391 -0.2940
  559SOL    HW1 2234   1.148   2.374   2.169 -0.8239  0.2272 -2.3351
  559SOL    HW2 2235   1.181   2.226   2.162 -1.1969 -3.0072  0.1507
  559SOL     MW 2236   1.159   2.299   2.124 -0.6194 -0.1908 -0.5046
  560SOL     OW 2237   1.957   2.804   0.036 -0.5708  0.0299  0.1971
  560SOL    HW1 2238   2.025   2.853  -0.004  0.2260  0.2929  3.1136
  560SOL    HW2 2239   1.908   2.758  -0.029 -0.5639  0.5686 -0.3403
  560SOL     MW 2240   1.960   2.805   0.022 -0.4648  0.1357  0.5110
  561SOL     OW 2241   0.446   2.079   0.239  0.0487  0.9056  0.6068
  561SOL    HW1 2242   0.393   2.099   0.161  0.9839 -0.8903 -1.5772
  561SOL    HW2 2243   0.500   2.148   0.257 -1.9915 -3.2021 -0.7062
  561SOL     MW 2244   0.446   2.091   0.231 -0.0971  0.1267  0.1454
  562SOL     OW 2245   0.867   2.213   2.182 -0.6535  0.1608  0.5586
  562SOL    HW1 2246   0.841   2.304   2.204 -0.9831 -0.8770  0.6861
  562SOL    HW2 2247   0.953   2.202   2.213 -2.5924  0.6677 -0.1282
  562SOL     MW 2248   0.875   2.224   2.189 -0.9528  0.0907  0.4848
  563SOL     OW 2249   1.190   0.296   0.589 -0.2609  0.3121  0.3692
  563SOL    HW1 2250   1.130   0.286   0.513 -1.1257  0.5852 -0.1486
  563SOL    HW2 2251   1.228   0.208   0.608 -1.1760 -1.2494  0.3197
  563SOL     MW 2252   1.187   0.283   0.581 -0.4958  0.1421  0.2944
  564SOL     OW 2253   1.099   2.548   2.358 -0.1755 -0.2098 -0.2093
  564SOL    HW1 2254   1.141   2.581   2.273 -1.3469 -1.4840 -0.8118
  564SOL    HW2 2255   1.123   2.610   2.433 -1.1640  0.0457 -0.8173
  564SOL     MW 2256   1.108   2.560   2.356 -0.4604 -0.3442 -0.3690
  565SOL     OW 2257   2.873   2.662   2.583  0.3798 -0.0828 -0.4142
  565SOL    HW1 2258   2.951   2.718   2.560  3.2458 -1.3084  1.1210
  565SOL    HW2 2259   2.801   2.679   2.518  1.5495 -3.3452  2.0226
  565SOL     MW 2260   2.874   2.672   2.571  0.9123 -0.6749  0.1099
  566SOL     OW 2261   2.221   1.886   2.391 -1.0744 -0.2622  0.2235
  566SOL    HW1 2262   2.221   1.892   2.296  1.1265  1.5931  0.5665
  566SOL    HW2 2263   2.278   1.961   2.421 -2.1735  0.8084  3.2902
  566SOL     MW 2264   2.228   1.897   2.383 -0.9291  0.1239  0.6734
  567SOL     OW 2265   1.121   2.920   0.013 -0.0875  0.6029 -0.8938
  567SOL    HW1 2266   1.190   2.989   0.014 -1.2997  0.2473 -1.7773
  567SOL    HW2 2267   1.134   2.865  -0.064  1.3847 -1.5360 -0.5289
  567SOL     MW 2268   1.132   2.922   0.003 -0.0532  0.2738 -0.9622
  568SOL     OW 2269   1.626   2.018   2.923 -0.3260 -0.5490  0.0954
  568SOL    HW1 2270   1.654   2.096   2.974 -0.6201 -0.8597 -0.6035
  568SOL    HW2 2271   1.702   2.019   2.856  2.6805  0.0753 -0.3408
  568SOL     MW 2272   1.640   2.029   2.921  0.0319 -0.5076 -0.0543
  569SOL     OW 2273   0.224   2.212   2.433  0.0460 -0.1091 -0.1167
  569SOL    HW1 2274   0.162   2.258   2.365 -0.2812 -0.0259 -0.3196
  569SOL    HW2 2275   0.220   2.274   2.507 -1.4535 -1.5918 -0.7076
  569SOL     MW 2276   0.215   2.226   2.434 -0.1950 -0.2938 -0.2214
  570SOL     OW 2277   1.469   0.458   0.488  0.4026 -0.0151  0.0052
  570SOL    HW1 2278   1.377   0.432   0.511  0.0372 -2.5845 -0.1955
  570SOL    HW2 2279   1.527   0.451   0.570 -0.8476  2.1113  2.7331
  570SOL     MW 2280   1.465   0.454   0.502  0.1895 -0.0736  0.3387
  571SOL     OW 2281   1.494   2.415   1.993  0.2255  0.3452  0.3525
  571SOL    HW1 2282   1.543   2.464   2.058 -2.8397  1.3716  0.4225
  571SOL    HW2 2283   1.462   2.336   2.038 -0.2808  0.2299 -0.5361
  571SOL     MW 2284   1.496   2.411   2.008 -0.2458  0.4654  0.2445
  572SOL     OW 2285   0.913   2.680   0.077 -0.4233 -0.4343 -0.1803
  572SOL    HW1 2286   0.948   2.676  -0.009  1.7946  0.3332  0.2006
  572SOL    HW2 2287   0.837   2.622   0.077 -2.0414  0.1040 -0.3862
  572SOL     MW 2288   0.908   2.672   0.066 -0.3442 -0.2620 -0.1572
  573SOL     OW 2289   1.152   2.363   0.228 -0.2789 -0.3081  0.8291
  573SOL    HW1 2290   1.245   2.376   0.185 -1.7690 -0.5196  2.4435
  573SOL    HW2 2291   1.130   2.455   0.262 -1.1903  0.5164 -0.2178
  573SOL     MW 2292   1.162   2.377   0.227 -0.5958 -0.2272  0.9040
  574SOL     OW 2293   1.073   2.620   0.300 -0.6829 -0.2838 -0.0342
  574SOL    HW1 2294   1.165   2.668   0.297  0.9390 -0.6771  1.5312
  574SOL    HW2 2295   1.020   2.653   0.225  1.0195 -1.1773 -0.4487
  574SOL     MW 2296   1.078   2.631   0.290 -0.2443 -0.4536  0.1177
  575SOL     OW 2297   3.070   2.292   1.796  0.2521 -0.1492 -0.0309
  575SOL    HW1 2298   3.071   2.208   1.756 -1.6219  0.3937  0.0904
  575SOL    HW2 2299   3.142   2.338   1.746  0.5907 -0.8876 -0.4378
  575SOL     MW 2300   3.080   2.287   1.784  0.0495 -0.1750 -0.0686
  576SOL     OW 2301   2.818   1.836   2.029 -0.1206  0.4329 -0.5192
  576SOL    HW1 2302   2.852   1.910   1.977 -2.2611  0.9468 -1.9162
  576SOL    HW2 2303   2.733   1.831   1.988 -0.1839  3.6969 -2.0029
  576SOL     MW 2304   2.812   1.845   2.017 -0.4114  0.9313 -0.8993
  577SOL     OW 2305   2.088   0.315   0.068  0.2756  0.2832  0.2690
  577SOL    HW1 2306   2.016   0.325   0.001  0.2348 -2.6165  1.3081
  577SOL    HW2 2307   2.046   0.275   0.141 -1.6066 -2.5591 -1.1883
  577SOL     MW 2308   2.073   0.311   0.069  0.0219 -0.4744  0.2139
  578SOL     OW 2309   1.983   2.017   2.477 -0.0850 -0.3154  0.3665
  578SOL    HW1 2310   1.936   2.030   2.392  0.0770  2.4529 -2.3432
  578SOL    HW2 2311   2.051   1.955   2.454 -1.1851  1.0818  0.1870
  578SOL     MW 2312   1.986   2.011   2.463 -0.2088  0.2342 -0.0147
  579SOL     OW 2313   0.889   2.453   2.495  0.2926  0.5215 -0.1801
  579SOL    HW1 2314   0.905   2.366   2.532 -1.5092  0.3815 -0.0687
  579SOL    HW2 2315   0.979   2.470   2.456 -0.5760  1.0555 -1.3203
  579SOL     MW 2316   0.903   2.444   2.495 -0.0598  0.5735 -0.3158
  580SOL     OW 2317   0.855   2.977   0.049  0.3575  0.0758 -0.2479
  580SOL    HW1 2318   0.951   2.947   0.035  2.5330  1.5436  0.0171
  580SOL    HW2 2319   0.816   2.919  -0.019  0.5939 -1.2785 -3.0818
  580SOL     MW 2320   0.862   2.965   0.039  0.6757  0.0907 -0.5868
  581SOL     OW 2321   1.105   2.424   1.728  0.5057 -0.0923  0.6500
  581SOL    HW1 2322   1.150   2.505   1.754 -2.1591  2.1536  0.1214
  581SOL    HW2 2323   1.159   2.379   1.659 -0.2275 -1.2325  2.6348
  581SOL     MW 2324   1.118   2.429   1.723  0.0574  0.0536  0.8421
  582SOL     OW 2325   3.080   2.817   2.505 -0.0585  0.0584  0.0911
  582SOL    HW1 2326   3.081   2.903   2.559 -0.1536  2.4093 -0.4854
  582SOL    HW2 2327   3.168   2.784   2.488 -1.6338  1.3148  1.5000
  582SOL     MW 2328   3.091   2.824   2.510 -0.2789  0.5344  0.2010
  583SOL     OW 2329   1.945   2.436   2.641 -0.3815 -0.3535 -0.0639
  583SOL    HW1 2330   2.024   2.466   2.594  0.8523 -2.3733  1.0400
  583SOL    HW2 2331   1.959   2.340   2.669  0.8441  1.4367  2.1794
  583SOL     MW 2332   1.957   2.427   2.639 -0.0570 -0.3838  0.3777
  584SOL     OW 2333   0.197   1.894   2.050  0.0724  0.0624 -0.3944
  584SOL    HW1 2334   0.265   1.825   2.048  3.0375 -0.7383 -0.6285
  584SOL    HW2 2335   0.240   1.957   2.104 -2.1661 -0.2303 -1.7953
  584SOL     MW 2336   0.212   1.893   2.057  0.1683 -0.0818 -0.6101
  585SOL     OW 2337   1.472   2.679   0.059 -0.3584 -0.1836  0.2227
  585SOL    HW1 2338   1.444   2.635  -0.017 -1.8879  1.5790 -2.6794
  585SOL    HW2 2339   1.403   2.685   0.131  1.8233 -0.5068  1.6680
  585SOL     MW 2340   1.459   2.674   0.059 -0.2723  0.0063  0.0305
  586SOL     OW 2341   1.369   2.836   2.396  0.2530 -0.0779  0.9963
  586SOL    HW1 2342   1.448   2.809   2.349  0.9262  0.0024 -0.5179
  586SOL    HW2 2343   1.391   2.923   2.424 -0.7688 -2.6747 -2.3156
  586SOL     MW 2344   1.383   2.844   2.393  0.2070 -0.4100  0.3595
  587SOL     OW 2345   1.283   1.561   2.136 -0.1024  0.0589 -0.1512
  587SOL    HW1 2346   1.273   1.484   2.197  0.4616 -0.4185  0.8307
  587SOL    HW2 2347   1.265   1.526   2.043  1.6941 -1.1287 -0.6329
  587SOL     MW 2348   1.279   1.546   2.132  0.2091 -0.1608 -0.0852
  588SOL     OW 2349   1.410   2.174   2.740 -0.3789 -0.0172  0.1353
  588SOL    HW1 2350   1.471   2.105   2.763  0.9726  2.2480  2.1939
  588SOL    HW2 2351   1.357   2.185   2.817  2.9693 -2.8818  1.8939
  588SOL     MW 2352   1.411   2.166   2.753  0.2412 -0.0963  0.6389
  589SOL     OW 2353   1.366   2.112   0.064 -0.4835 -0.0930  0.3628
  589SOL    HW1 2354   1.387   2.202   0.091 -1.2079 -0.6552 -0.8288
  589SOL    HW2 2355   1.282   2.096   0.109 -1.2591  0.2961  0.0620
  589SOL     MW 2356   1.358   2.122   0.074 -0.6814 -0.1158  0.1659
  590SOL     OW 2357   0.422   2.551   2.285 -0.1212  0.0632 -0.1519
  590SOL    HW1 2358   0.391   2.561   2.190 -1.2959  2.9438  0.2825
  590SOL    HW2 2359   0.472   2.632   2.298  1.6580 -1.0050 -0.6615
  590SOL     MW 2360   0.424   2.563   2.274 -0.0414  0.3023 -0.1618
  591SOL     OW 2361   2.294   0.695   0.017  0.1274  0.0319 -0.4428
  591SOL    HW1 2362   2.220   0.746  -0.001  1.5636 -1.1088 -0.1684
  591SOL    HW2 2363   2.357   0.715  -0.049 -3.6660  1.2815  0.3793
  591SOL     MW 2364   2.293   0.704   0.006 -0.1836  0.0463 -0.2981
  592SOL     OW 2365   1.871   3.002   0.781 -0.3994 -0.9689  0.2999
  592SOL    HW1 2366   1.835   3.053   0.708  2.5248  0.4394  0.8971
  592SOL    HW2 2367   1.899   2.912   0.753  0.9089  0.9109  1.3221
  592SOL     MW 2368   1.870   2.997   0.767  0.1590 -0.5350  0.5136
  593SOL     OW 2369   1.909   0.768   0.856  0.4556 -0.1729 -0.2824
  593SOL    HW1 2370   1.836   0.761   0.798  0.2028  1.8447  0.8167
  593SOL    HW2 2371   1.921   0.683   0.900  0.4247 -0.5278  0.4854
  593SOL     MW 2372   1.901   0.756   0.854  0.4182  0.0465 -0.0360
  594SOL     OW 2373   2.767   1.142   1.392  0.0599  0.5578  0.5735
  594SOL    HW1 2374   2.860   1.177   1.396  0.6024 -2.0274  1.2145
  594SOL    HW2 2375   2.758   1.107   1.304  1.2765 -1.0011  1.6868
  594SOL     MW 2376   2.778   1.142   1.381  0.2920  0.0110  0.8050
  595SOL     OW 2377   0.487   0.929   0.724  0.0864 -0.1369  0.4913
  595SOL    HW1 2378   0.512   1.000   0.659  2.6408  0.0170 -0.2757
  595SOL    HW2 2379   0.481   0.976   0.809 -0.8628  1.7043  0.3166
  595SOL     MW 2380   0.490   0.945   0.727  0.2982  0.1263  0.3670
  596SOL     OW 2381   2.459   1.380   0.521  0.4849 -0.5714 -0.3336
  596SOL    HW1 2382   2.478   1.470   0.487 -0.7144 -3.3893 -0.8763
  596SOL    HW2 2383   2.521   1.359   0.591 -1.0721 -0.8348 -1.1194
  596SOL     MW 2384   2.470   1.389   0.526  0.1212 -0.9780 -0.5089
  597SOL     OW 2385   2.185   0.674   1.640 -0.0888  0.3499 -0.7384
  597SOL    HW1 2386   2.246   0.603   1.669 -1.8238  0.4188  2.0021
  597SOL    HW2 2387   2.107   0.627   1.601 -0.8424  0.9612 -1.8678
  597SOL     MW 2388   2.183   0.659   1.638 -0.4172  0.4396 -0.5259
  598SOL     OW 2389   2.620   1.008   2.894 -0.7046  0.0290  0.5449
  598SOL    HW1 2390   2.647   0.998   2.796  0.5731 -0.8822  2.3651
  598SOL    HW2 2391   2.691   1.072   2.932  2.8036  0.4305  0.5947
  598SOL     MW 2392   2.633   1.015   2.886 -0.0731 -0.0382  0.7916
  599SOL     OW 2393   2.932   0.367   2.077 -0.3783  0.8733  0.0404
  599SOL    HW1 2394   2.895   0.377   2.166  0.4099 -0.4834 -1.1604
  599SOL    HW2 2395   2.953   0.463   2.057 -0.2023  1.7596  1.0577
  599SOL     MW 2396   2.930   0.381   2.086 -0.2511  0.8112  0.0162
  600SOL     OW 2397   1.897   1.759   0.890 -0.0860  0.3708 -0.2107
  600SOL    HW1 2398   1.930   1.792   0.975  0.2590  2.0505  0.7682
  600SOL    HW2 2399   1.818   1.814   0.867  0.4789 -0.7273  1.1098
  600SOL     MW 2400   1.891   1.771   0.898  0.0341  0.4475  0.0927
  601SOL     OW 2401   2.513   0.801   0.818  0.2262 -0.1963  0.3686
  601SOL    HW1 2402   2.515   0.815   0.915  0.5069 -0.3673  0.9855
  601SOL    HW2 2403   2.462   0.716   0.792  0.0203  0.3746 -2.5502
  601SOL     MW 2404   2.506   0.791   0.827  0.2361 -0.1435  0.0649
  602SOL     OW 2405   2.309   1.946   0.831 -0.2629 -0.1760  0.6302
  602SOL    HW1 2406   2.255   1.871   0.870 -0.8470 -1.3338  0.8050
  602SOL    HW2 2407   2.264   1.972   0.754 -0.1606  1.5388 -0.6133
  602SOL     MW 2408   2.296   1.940   0.826 -0.3265 -0.1025  0.4892
  603SOL     OW 2409   0.002   1.387   1.784  0.0957 -0.0412  0.0639
  603SOL    HW1 2410   0.018   1.408   1.880 -0.3906 -1.3495  1.5296
  603SOL    HW2 2411  -0.015   1.296   1.767  0.4651  1.6510  1.2115
  603SOL     MW 2412   0.002   1.377   1.795  0.0803  0.0094  0.4087
  604SOL     OW 2413   2.099   1.566   0.460 -0.1035 -0.5275  0.0395
  604SOL    HW1 2414   2.125   1.504   0.525 -1.6605  1.2949 -0.7396
  604SOL    HW2 2415   2.032   1.616   0.516  1.7564 -1.5776 -1.7210
  604SOL     MW 2416   2.094   1.565   0.476 -0.0635 -0.4256 -0.2956
  605SOL     OW 2417   2.655   1.540   0.851 -0.4640 -0.3246  0.0809
  605SOL    HW1 2418   2.586   1.590   0.806  0.7053  2.4927  1.9717
  605SOL    HW2 2419   2.648   1.447   0.821  0.8575 -0.9983 -1.3044
  605SOL     MW 2420   2.645   1.534   0.841 -0.1354 -0.0418  0.1476
  606SOL     OW 2421   2.576   1.818   1.861  0.2717  0.2731  0.8323
  606SOL    HW1 2422   2.481   1.805   1.871  0.2158  1.2000 -0.1332
  606SOL    HW2 2423   2.616   1.729   1.854  0.7998  0.1139  0.7312
  606SOL     MW 2424   2.568   1.805   1.861  0.3340  0.3744  0.6916
  607SOL     OW 2425   2.380   1.022   3.010 -0.1383  0.5002  0.9046
  607SOL    HW1 2426   2.468   1.019   2.970  0.5417  0.0444  4.1175
  607SOL    HW2 2427   2.392   1.023   3.109  0.4889 -2.1733 -0.9340
  607SOL     MW 2428   2.393   1.022   3.018  0.0342  0.0873  1.0859
  608SOL     OW 2429   1.907   0.309   0.592  0.4787 -0.4425  0.4478
  608SOL    HW1 2430   1.921   0.373   0.521 -1.4385  1.8762  1.1769
  608SOL    HW2 2431   1.869   0.223   0.557  2.7120  1.1616 -0.1133
  608SOL     MW 2432   1.904   0.306   0.578  0.5204  0.0751  0.4699
  609SOL     OW 2433   2.116   1.965   3.048 -0.6953 -0.0266 -0.0551
  609SOL    HW1 2434   2.032   1.923   3.028  0.3766 -1.6917 -1.2120
  609SOL    HW2 2435   2.147   1.924   3.132 -0.5819  0.7013 -0.4510
  609SOL     MW 2436   2.109   1.954   3.057 -0.5389 -0.1503 -0.2600
  610SOL     OW 2437   1.781   1.026   1.238  0.5835  0.1186 -0.2927
  610SOL    HW1 2438   1.765   0.940   1.199 -0.6014  0.5411  3.3845
  610SOL    HW2 2439   1.690   1.050   1.251 -1.8955  1.2492  0.2715
  610SOL     MW 2440   1.767   1.018   1.234  0.1001  0.3235  0.2669
  611SOL     OW 2441   2.485   1.706   0.707  0.0293  0.7453 -0.2046
  611SOL    HW1 2442   2.430   1.781   0.736  0.5198  1.1642 -4.5705
  611SOL    HW2 2443   2.516   1.745   0.622  2.0439  0.6869  1.8667
  611SOL     MW 2444   2.482   1.721   0.699  0.3598  0.7929 -0.5074
  612SOL     OW 2445   2.802   2.831   0.406  0.1710  0.5532 -0.1312
  612SOL    HW1 2446   2.830   2.873   0.489  0.0939 -0.0832  0.2082
  612SOL    HW2 2447   2.885   2.817   0.363  0.0141 -2.1682 -0.2360
  612SOL     MW 2448   2.817   2.835   0.411  0.1402  0.1102 -0.1002
  613SOL     OW 2449   1.481   0.987   0.973 -0.3081 -0.2072 -0.0087
  613SOL    HW1 2450   1.498   1.083   0.986  2.1046 -0.5158 -0.7843
  613SOL    HW2 2451   1.495   0.953   1.067  1.6569 -0.0695 -0.2892
  613SOL     MW 2452   1.485   0.995   0.987  0.2695 -0.2297 -0.1481
  614SOL     OW 2453   1.978   0.543   1.523 -0.1105  0.3168 -0.3517
  614SOL    HW1 2454   2.001   0.460   1.570 -1.9967 -3.3103 -0.6520
  614SOL    HW2 2455   1.957   0.522   1.431 -1.4358  0.9815 -0.8847
  614SOL     MW 2456   1.978   0.529   1.517 -0.5343 -0.0741 -0.4617
  615SOL     OW 2457   2.304   0.747   0.287  0.9363 -0.4098  0.0007
  615SOL    HW1 2458   2.385   0.701   0.302  0.9526  0.0144 -0.9634
  615SOL    HW2 2459   2.280   0.737   0.193 -1.3278  0.2488 -0.4016
  615SOL     MW 2460   2.312   0.740   0.277  0.6397 -0.2670 -0.1796
  616SOL     OW 2461   2.531   0.372   1.578  0.2075  0.4726  0.1337
  616SOL    HW1 2462   2.463   0.329   1.522  0.4675  0.7671  1.1626
  616SOL    HW2 2463   2.566   0.429   1.511 -1.7803 -0.6191 -0.5725
  616SOL     MW 2464   2.527   0.374   1.562 -0.0204  0.3674  0.1763
  617SOL     OW 2465   2.919   0.565   1.732  0.7073  0.0507 -0.0648
  617SOL    HW1 2466   2.826   0.586   1.757  0.0007 -0.0258  0.1059
  617SOL    HW2 2467   2.923   0.470   1.730 -0.0161  1.7139 -1.2788
  617SOL     MW 2468   2.907   0.555   1.735  0.5186  0.2601 -0.2024
  618SOL     OW 2469   2.656   0.324   1.982  0.2837 -0.0774  0.0792
  618SOL    HW1 2470   2.649   0.400   1.925  0.9565 -1.0576 -2.5876
  618SOL    HW2 2471   2.751   0.322   2.012 -0.2318  0.8518  0.8697
  618SOL     MW 2472   2.667   0.334   1.978  0.3045 -0.0842 -0.1683
  619SOL     OW 2473   2.657   0.703   0.142  0.3075 -0.5811 -0.0864
  619SOL    HW1 2474   2.726   0.767   0.131 -1.0382 -1.7653  0.6759
  619SOL    HW2 2475   2.651   0.696   0.235  0.3103 -0.5224  0.8057
  619SOL     MW 2476   2.665   0.711   0.153  0.1304 -0.7296  0.1319
  620SOL     OW 2477   2.330   1.049   1.004  0.1368 -0.1679 -0.3333
  620SOL    HW1 2478   2.373   1.068   0.919 -2.6392  0.3419 -1.3560
  620SOL    HW2 2479   2.267   0.983   0.972 -0.9917 -1.5984  0.9992
  620SOL     MW 2480   2.327   1.043   0.989 -0.3784 -0.2894 -0.2924
  621SOL     OW 2481   1.451   2.147   2.000  0.1114  0.5567 -0.3975
  621SOL    HW1 2482   1.408   2.067   2.020  0.7339  2.0608  0.2278
  621SOL    HW2 2483   1.541   2.125   1.983  1.0806 -2.0826 -1.4773
  621SOL     MW 2484   1.457   2.133   2.000  0.3214  0.4069 -0.4574
  622SOL     OW 2485   2.608   0.159   0.277 -0.5141  0.1338 -0.0142
  622SOL    HW1 2486   2.702   0.172   0.282  0.3027 -0.8818 -1.0275
  622SOL    HW2 2487   2.611   0.066   0.305  0.3748 -0.5754  1.5709
  622SOL     MW 2488   2.621   0.149   0.282 -0.2890 -0.0937  0.0613
  623SOL     OW 2489   2.344   2.767   0.890 -0.0215  0.2180 -0.4981
  623SOL    HW1 2490   2.409   2.835   0.882  0.2696  1.3614  0.0868
  623SOL    HW2 2491   2.275   2.808   0.947 -0.1122  0.5610 -2.3078
  623SOL     MW 2492   2.343   2.782   0.897  0.0049  0.4141 -0.6597
  624SOL     OW 2493   2.203   1.682   3.000  0.2302  0.1355  0.2673
  624SOL    HW1 2494   2.136   1.621   3.042  0.9323 -2.9520  0.3459
  624SOL    HW2 2495   2.135   1.750   2.972 -2.2129  1.2333 -0.5405
  624SOL     MW 2496   2.185   1.683   3.002  0.0005 -0.1270  0.1711
  625SOL     OW 2497   2.199   2.031   1.116 -0.6309  0.1790  0.0145
  625SOL    HW1 2498   2.245   1.945   1.103  1.9788 -1.2996  0.6463
  625SOL    HW2 2499   2.255   2.108   1.099  0.3179 -2.0073  0.6657
  625SOL     MW 2500   2.213   2.030   1.112 -0.1614 -0.3045  0.1838
  626SOL     OW 2501   0.206   1.577   2.346  0.0450 -1.3400 -0.4349
  626SOL    HW1 2502   0.211   1.483   2.327 -0.6947  1.3001 -2.8972
  626SOL    HW2 2503   0.130   1.602   2.404  0.4668 -0.2834  2.9318
  626SOL     MW 2504   0.197   1.568   2.351  0.0030 -0.8523 -0.3156
  627SOL     OW 2505   2.467   0.804   2.641 -0.4115 -0.1638 -0.0985
  627SOL    HW1 2506   2.450   0.896   2.621 -0.3129  0.0648  1.8178
  627SOL    HW2 2507   2.446   0.744   2.566  2.1588 -0.6012 -3.9572
  627SOL     MW 2508   2.462   0.808   2.628 -0.0593 -0.1914 -0.3548
  628SOL     OW 2509   2.234   1.342   1.386 -0.1048  0.2009  0.3293
  628SOL    HW1 2510   2.207   1.281   1.319  0.8702 -1.2520 -1.1133
  628SOL    HW2 2511   2.328   1.350   1.365 -1.8104 -0.1897  2.6574
  628SOL     MW 2512   2.243   1.335   1.374 -0.2012 -0.0423  0.4462
  629SOL     OW 2513   1.952   0.554   1.239 -0.3600 -0.6921 -0.1859
  629SOL    HW1 2514   2.005   0.628   1.203  0.7399  0.1928  0.8927
  629SOL    HW2 2515   1.870   0.594   1.264  1.9610  0.6829  0.4289
  629SOL     MW 2516   1.948   0.569   1.237  0.0914 -0.3940  0.0375
  630SOL     OW 2517   2.439   1.823   3.071 -0.4307 -0.2257  0.3697
  630SOL    HW1 2518   2.463   1.881   2.993 -0.6782  0.7731  1.5480
  630SOL    HW2 2519   2.363   1.771   3.054  2.9943  0.0503 -1.3267
  630SOL     MW 2520   2.432   1.824   3.059 -0.0115 -0.0575  0.3013
  631SOL     OW 2521   1.967   1.821   1.567 -0.3351  0.1766 -0.0291
  631SOL    HW1 2522   1.991   1.736   1.609 -2.0050 -1.4580  0.1385
  631SOL    HW2 2523   1.943   1.791   1.481 -2.0376  0.1759  2.1438
  631SOL     MW 2524   1.967   1.806   1.561 -0.7800 -0.0392  0.2797
  632SOL     OW 2525   0.090   2.040   1.476  0.6301 -0.7717  0.4145
  632SOL    HW1 2526   0.037   2.055   1.553 -0.9998  1.1561  0.2862
  632SOL    HW2 2527   0.111   1.947   1.481 -1.0228  2.1922 -2.4132
  632SOL     MW 2528   0.086   2.030   1.486  0.1970 -0.1263  0.0245
  633SOL     OW 2529   2.545   0.629   0.396  0.5535 -0.6156  0.2267
  633SOL    HW1 2530   2.613   0.595   0.450 -2.0635 -1.6556 -0.2650
  633SOL    HW2 2531   2.481   0.559   0.405 -0.1055 -2.4069  2.3165
  633SOL     MW 2532   2.546   0.615   0.404  0.1213 -0.9892  0.4376
  634SOL     OW 2533   2.661   3.027   0.650 -0.1621 -0.0619 -0.2894
  634SOL    HW1 2534   2.713   3.111   0.667  0.2700  2.9362 -0.2374
  634SOL    HW2 2535   2.612   3.041   0.567  1.4965 -1.6627 -1.2031
  634SOL     MW 2536   2.661   3.040   0.641  0.1137  0.1225 -0.4031
  635SOL     OW 2537   2.594   0.075   1.855  0.2947 -0.6211  0.4746
  635SOL    HW1 2538   2.675   0.029   1.824 -0.2374 -0.9325  2.4971
  635SOL    HW2 2539   2.619   0.171   1.873 -0.0398  1.9164  1.2049
  635SOL     MW 2540   2.608   0.082   1.853  0.1803 -0.3274  0.8378
  636SOL     OW 2541   2.931   1.729   1.082  0.3175 -0.3853  0.4690
  636SOL    HW1 2542   2.848   1.769   1.059  1.9134 -1.1947  0.8050
  636SOL    HW2 2543   2.987   1.799   1.109  1.4359 -0.6207  0.7798
  636SOL     MW 2544   2.927   1.743   1.082  0.6756 -0.5231  0.5544
  637SOL     OW 2545   2.906   1.493   0.627  0.0471 -0.2617 -0.1802
  637SOL    HW1 2546   2.953   1.574   0.620 -0.9701 -0.7578 -0.2779
  637SOL    HW2 2547   2.833   1.509   0.684  0.9635 -1.6767  1.6467
  637SOL     MW 2548   2.902   1.505   0.634  0.0338 -0.5139  0.0479
  638SOL     OW 2549   2.763   0.527   0.532  0.4862 -0.6695 -0.1166
  638SOL    HW1 2550   2.853   0.534   0.507  1.2547  3.3787  2.8453
  638SOL    HW2 2551   2.762   0.555   0.622 -0.7802 -0.9010 -3.1669
  638SOL     MW 2552   2.775   0.531   0.540  0.4205 -0.1659 -0.1283
  639SOL     OW 2553   1.776   0.051   0.568 -0.2279  0.2242  0.3295
  639SOL    HW1 2554   1.678   0.064   0.570 -1.9775  1.7448 -1.4636
  639SOL    HW2 2555   1.795  -0.013   0.497  0.5858 -1.1329  0.6650
  639SOL     MW 2556   1.765   0.044   0.559 -0.3514  0.2458  0.1372
  640SOL     OW 2557   0.368   1.377   0.063  0.0602 -0.4204 -0.0747
  640SOL    HW1 2558   0.389   1.388  -0.031  3.8191 -0.6967  0.3987
  640SOL    HW2 2559   0.336   1.282   0.081  2.1602 -1.4286  1.1447
  640SOL     MW 2560   0.366   1.366   0.053  0.8332 -0.5899  0.1487
  641SOL     OW 2561   2.238   0.440   0.371  0.4778 -0.5876 -0.2979
  641SOL    HW1 2562   2.262   0.453   0.281  2.4321  0.3660 -0.2873
  641SOL    HW2 2563   2.268   0.348   0.380 -0.2760 -0.1671 -0.7471
  641SOL     MW 2564   2.245   0.430   0.360  0.6362 -0.4063 -0.3557
  642SOL     OW 2565   0.014   3.087   0.603  0.3828  0.5435 -0.1529
  642SOL    HW1 2566  -0.037   3.154   0.556  0.6814 -0.0444  0.0652
  642SOL    HW2 2567  -0.049   3.032   0.643  3.1930 -0.7454 -0.4564
  642SOL     MW 2568  -0.001   3.089   0.602  0.7929  0.2959 -0.1642
  643SOL     OW 2569   2.088   0.324   1.709  0.3170 -0.9029 -0.0163
  643SOL    HW1 2570   2.050   0.276   1.782 -0.5544  2.8711  0.3248
  643SOL    HW2 2571   2.110   0.261   1.641  1.6531  1.6788 -0.1078
  643SOL     MW 2572   2.086   0.309   1.709  0.3783 -0.0644  0.0166
  644SOL     OW 2573   2.727   1.961   1.070  0.5651  0.2164 -0.0666
  644SOL    HW1 2574   2.702   1.879   1.125 -0.2711 -1.3218  0.9473
  644SOL    HW2 2575   2.651   2.004   1.036  0.2543  0.4665 -1.0430
  644SOL     MW 2576   2.714   1.956   1.072  0.4138  0.0464 -0.0617
  645SOL     OW 2577   2.834   0.866   0.689  0.0488 -0.2907  0.1996
  645SOL    HW1 2578   2.914   0.820   0.676 -1.6611  0.0788 -1.8534
  645SOL    HW2 2579   2.779   0.799   0.731 -0.3306 -0.5199  0.7917
  645SOL     MW 2580   2.837   0.851   0.693 -0.2269 -0.2722  0.0068
  646SOL     OW 2581   0.188   2.292   0.775 -0.0001  0.0160 -0.3392
  646SOL    HW1 2582   0.193   2.190   0.800 -1.8109 -3.2086  2.6981
  646SOL    HW2 2583   0.106   2.293   0.719  0.7049 -0.2678  0.4777
  646SOL     MW 2584   0.178   2.278   0.771 -0.1460 -0.4469  0.1693
  647SOL     OW 2585   2.719   0.501   2.968 -0.4264  0.3195  0.4682
  647SOL    HW1 2586   2.668   0.427   3.008  0.2043  0.1965  0.2463
  647SOL    HW2 2587   2.663   0.580   2.987  1.0093 -0.9476 -1.3684
  647SOL     MW 2588   2.705   0.501   2.976 -0.1538  0.1361  0.1966
  648SOL     OW 2589   2.144   0.728   1.113 -0.1908 -0.4522 -0.3386
  648SOL    HW1 2590   2.147   0.736   1.019  0.6379 -0.4876 -1.0674
  648SOL    HW2 2591   2.176   0.809   1.148  0.1024  1.7056 -0.9040
  648SOL     MW 2592   2.148   0.740   1.105 -0.0427 -0.1722 -0.5094
  649SOL     OW 2593   2.335   2.759   1.293 -0.1829 -0.3862 -0.2545
  649SOL    HW1 2594   2.417   2.813   1.304 -1.2268  0.2441  0.9901
  649SOL    HW2 2595   2.373   2.671   1.271 -0.5885 -0.7518  1.7345
  649SOL     MW 2596   2.351   2.754   1.292 -0.3741 -0.3513  0.1721
  650SOL     OW 2597   2.818   0.167   0.672  0.1392 -0.0969 -0.1663
  650SOL    HW1 2598   2.866   0.246   0.705 -3.0376  1.6412 -1.2101
  650SOL    HW2 2599   2.825   0.183   0.579 -0.6317 -0.4107  0.5713
  650SOL     MW 2600   2.825   0.180   0.664 -0.3816  0.0910 -0.2067
  651SOL     OW 2601   3.002   0.429   0.756 -0.2164 -0.2985 -0.2928
  651SOL    HW1 2602   3.093   0.446   0.762 -1.8238 -3.2073 -0.9419
  651SOL    HW2 2603   2.960   0.487   0.820  0.0031  1.8739 -0.3360
  651SOL     MW 2604   3.008   0.439   0.766 -0.3995 -0.3956 -0.3841
  652SOL     OW 2605   2.406   1.483   3.024 -0.1745  0.5853  0.1328
  652SOL    HW1 2606   2.469   1.462   2.960  0.2217  2.6467 -1.3750
  652SOL    HW2 2607   2.343   1.541   2.990  0.5416 -0.7512  0.8775
  652SOL     MW 2608   2.406   1.488   3.011 -0.0277  0.6810  0.0321
  653SOL     OW 2609   1.934   0.451   0.355 -0.3614 -0.0196 -0.0915
  653SOL    HW1 2610   1.917   0.408   0.275  1.4546 -1.3028  1.6133
  653SOL    HW2 2611   2.023   0.448   0.377  0.1757  0.1804  1.1010
  653SOL     MW 2612   1.944   0.445   0.347 -0.0509 -0.1625  0.2908
  654SOL     OW 2613   2.456   1.064   0.726  0.1484  0.1842  0.3262
  654SOL    HW1 2614   2.362   1.055   0.710 -0.7635  0.8182  3.4703
  654SOL    HW2 2615   2.498   0.974   0.714 -0.8973 -0.4027 -0.0919
  654SOL     MW 2616   2.449   1.051   0.723 -0.1098  0.1904  0.6859
  655SOL     OW 2617   2.962   0.895   0.388 -0.2339 -0.5391 -0.0289
  655SOL    HW1 2618   2.920   0.935   0.464 -1.9680 -2.1249  0.4490
  655SOL    HW2 2619   2.992   0.807   0.417 -1.5597  0.4180  1.3165
  655SOL     MW 2620   2.961   0.889   0.402 -0.6376 -0.6220  0.2117
  656SOL     OW 2621   1.949   2.720   1.239 -0.2850  0.8357  0.4810
  656SOL    HW1 2622   1.922   2.795   1.285  0.6864 -0.1765  3.2605
  656SOL    HW2 2623   2.001   2.670   1.298 -1.0043  0.0261 -0.4633
  656SOL     MW 2624   1.952   2.723   1.253 -0.2517  0.5953  0.7232
  657SOL     OW 2625   0.165   1.606   1.292 -0.0220  0.4718  0.3651
  657SOL    HW1 2626   0.069   1.604   1.276 -1.2887  0.5676 -0.1685
  657SOL    HW2 2627   0.186   1.512   1.286 -2.4794  0.0821  1.2280
  657SOL     MW 2628   0.155   1.593   1.289 -0.5134  0.4330  0.4085
  658SOL     OW 2629   2.696   1.321   0.188 -0.1716 -0.3679  0.3976
  658SOL    HW1 2630   2.656   1.259   0.252 -0.6407 -2.1231 -1.8375
  658SOL    HW2 2631   2.746   1.387   0.235  0.4945 -0.7479 -0.1652
  658SOL     MW 2632   2.697   1.321   0.202 -0.1456 -0.6496  0.0284
  659SOL     OW 2633   2.302   1.514   1.040 -0.3599 -0.3321  0.4819
  659SOL    HW1 2634   2.394   1.516   1.056 -3.1901 -0.8134 -1.2377
  659SOL    HW2 2635   2.269   1.558   1.116  3.5516 -0.3092  1.3878
  659SOL     MW 2636   2.310   1.520   1.052 -0.2173 -0.3926  0.3745
  660SOL     OW 2637   2.031   1.588   1.688  0.1183  0.0825  0.2970
  660SOL    HW1 2638   2.041   1.596   1.782  3.1594 -1.0859 -2.9580
  660SOL    HW2 2639   1.969   1.515   1.672  0.2876  0.8436  0.7464
  660SOL     MW 2640   2.024   1.580   1.698  0.5419  0.0287 -0.0732
  661SOL     OW 2641   2.363   1.015   0.205  0.0101 -0.1856 -0.5960
  661SOL    HW1 2642   2.444   1.061   0.248  1.6079 -0.1067 -0.1163
  661SOL    HW2 2643   2.352   0.925   0.242 -0.0852  1.3896 -0.1169
  661SOL     MW 2644   2.372   1.009   0.216  0.2083  0.0326 -0.4695
  662SOL     OW 2645   2.546   2.960   0.882  0.9104  1.1292  0.0440
  662SOL    HW1 2646   2.483   3.028   0.904  2.7005 -0.6466 -0.5923
  662SOL    HW2 2647   2.571   2.979   0.791  0.6262  0.5181 -0.7225
  662SOL     MW 2648   2.541   2.971   0.873  1.1091  0.8143 -0.1411
  663SOL     OW 2649   2.824   1.488   0.354 -0.6722  0.2759  0.2388
  663SOL    HW1 2650   2.759   1.542   0.393 -0.1165 -2.0369 -0.6166
  663SOL    HW2 2651   2.894   1.496   0.415 -0.0086  2.2768  0.4419
  663SOL     MW 2652   2.825   1.496   0.367 -0.5113  0.2347  0.1527
  664SOL     OW 2653   2.471   1.501   1.599  0.1738 -0.7254  0.1238
  664SOL    HW1 2654   2.467   1.598   1.573  0.0079 -1.3329  1.9275
  664SOL    HW2 2655   2.381   1.481   1.635  1.1294 -0.5164  2.6045
  664SOL     MW 2656   2.458   1.511   1.601  0.2780 -0.7780  0.6891
  665SOL     OW 2657   2.884   0.840   2.027  0.2089  0.1023 -0.1375
  665SOL    HW1 2658   2.864   0.881   1.940  1.1180 -1.4031 -0.9878
  665SOL    HW2 2659   2.950   0.778   1.996  2.5769 -0.4419 -1.6399
  665SOL     MW 2660   2.890   0.837   2.012  0.6413 -0.1681 -0.4479
  666SOL     OW 2661   2.753   3.018   1.657  0.6519 -0.0290 -0.1442
  666SOL    HW1 2662   2.753   3.002   1.559  1.4953  0.9933 -1.8640
  666SOL    HW2 2663   2.693   2.949   1.683 -0.7796  0.2086  2.1588
  666SOL     MW 2664   2.745   3.007   1.647  0.5743  0.1372 -0.0673
  667SOL     OW 2665   1.989   2.657   1.675  0.5227 -0.4665  0.5975
  667SOL    HW1 2666   2.007   2.578   1.724 -1.8518 -0.5447  1.4969
  667SOL    HW2 2667   2.066   2.717   1.693  0.8063  1.5596 -0.8995
  667SOL     MW 2668   2.002   2.654   1.684  0.2468 -0.2095  0.5187
  668SOL     OW 2669   2.733   0.650   0.807 -0.1494  0.1366  0.0840
  668SOL    HW1 2670   2.812   0.655   0.873  1.8079  1.8385  0.2600
  668SOL    HW2 2671   2.656   0.704   0.829  2.5360  1.7095 -1.0195
  668SOL     MW 2672   2.733   0.658   0.819  0.4632  0.5687 -0.0384
  669SOL     OW 2673   0.214   0.944   0.657  0.7458 -0.0137  0.2334
  669SOL    HW1 2674   0.164   0.985   0.722 -2.6121  1.2066  1.1628
  669SOL    HW2 2675   0.306   0.933   0.694  2.8450 -1.7832 -0.4809
  669SOL     MW 2676   0.219   0.948   0.670  0.5797 -0.0862  0.2618
  670SOL     OW 2677   2.878   0.298   0.209 -0.5775 -0.4672  0.2473
  670SOL    HW1 2678   2.901   0.227   0.142  2.9123  0.2597  1.8080
  670SOL    HW2 2679   2.895   0.370   0.148  2.3837 -1.5974  1.0251
  670SOL     MW 2680   2.883   0.298   0.192  0.2736 -0.5204  0.5558
  671SOL     OW 2681   2.101   2.970   1.528 -0.2882 -0.4201 -0.2777
  671SOL    HW1 2682   2.038   2.965   1.451 -3.1373 -0.8400  2.2104
  671SOL    HW2 2683   2.047   3.022   1.586 -0.2546  0.6986  1.1841
  671SOL     MW 2684   2.086   2.976   1.526 -0.6597 -0.3279  0.2434
  672SOL     OW 2685   1.866   1.708   1.319  0.3342 -0.1591  0.6352
  672SOL    HW1 2686   1.800   1.763   1.359  0.4341  2.2976 -1.6438
  672SOL    HW2 2687   1.912   1.760   1.248  1.4025 -0.2344  0.2719
  672SOL     MW 2688   1.863   1.722   1.315  0.4883  0.1551  0.2865
  673SOL     OW 2689   2.765   1.099   0.547 -0.1979  0.0803  0.5622
  673SOL    HW1 2690   2.781   1.009   0.575 -0.7991 -1.0529  1.0616
  673SOL    HW2 2691   2.837   1.149   0.581 -1.1740 -0.6594 -0.0991
  673SOL     MW 2692   2.777   1.094   0.555 -0.4060 -0.1668  0.5408
  674SOL     OW 2693   2.521   0.075   1.222  0.0737  0.1113 -0.0452
  674SOL    HW1 2694   2.461   0.082   1.143 -0.9828  0.5131 -0.8102
  674SOL    HW2 2695   2.523  -0.016   1.246  1.6335  1.3390 -0.6360
  674SOL     MW 2696   2.513   0.064   1.215  0.1401  0.3263 -0.2241
  675SOL     OW 2697   3.028   0.889   1.083 -0.0620 -0.5710 -0.4146
  675SOL    HW1 2698   3.082   0.886   1.165  1.1152 -0.6112 -0.9122
  675SOL    HW2 2699   3.061   0.946   1.011  2.4571 -2.2052 -0.5913
  675SOL     MW 2700   3.039   0.896   1.084  0.4257 -0.7919 -0.5036
  676SOL     OW 2701   2.863   1.479   1.657  0.3257  0.2724 -0.3613
  676SOL    HW1 2702   2.803   1.395   1.657  0.9832 -0.3568  2.0184
  676SOL    HW2 2703   2.944   1.452   1.698 -0.8252 -1.2923 -1.9060
  676SOL     MW 2704   2.866   1.464   1.662  0.2606 -0.0171 -0.2511
  677SOL     OW 2705   2.410   0.680   1.968 -0.2525 -0.2863  0.5484
  677SOL    HW1 2706   2.361   0.605   1.934 -3.4312 -1.0390 -2.4149
  677SOL    HW2 2707   2.343   0.714   2.024  1.2566 -1.3788 -1.1941
  677SOL     MW 2708   2.395   0.674   1.971 -0.4728 -0.5298 -0.0725
  678SOL     OW 2709   2.548   1.630   0.423 -0.1385  0.6028 -0.1863
  678SOL    HW1 2710   2.470   1.695   0.438 -1.2102  1.0914  0.1900
  678SOL    HW2 2711   2.553   1.628   0.324  1.1135  0.4148 -3.0154
  678SOL     MW 2712   2.538   1.638   0.411 -0.1147  0.6424 -0.5099
  679SOL     OW 2713   2.297   0.535   1.193 -0.4223 -0.5583 -0.3589
  679SOL    HW1 2714   2.257   0.448   1.188 -0.2603  1.6324  2.8355
  679SOL    HW2 2715   2.233   0.603   1.170  1.0966  0.6373 -0.9073
  679SOL     MW 2716   2.283   0.532   1.190 -0.2006 -0.1115 -0.0098
  680SOL     OW 2717   2.364   0.218   1.437 -0.0113 -1.0047  0.3577
  680SOL    HW1 2718   2.262   0.239   1.447 -4.1316 -0.2268 -0.8583
  680SOL    HW2 2719   2.372   0.162   1.361 -2.1983  0.7446 -0.7221
  680SOL     MW 2720   2.352   0.213   1.429 -0.8435 -0.6712  0.0548
  681SOL     OW 2721   0.341   0.590   1.549 -0.2657 -0.3080 -0.1860
  681SOL    HW1 2722   0.319   0.525   1.621  0.0441 -0.3877  0.3817
  681SOL    HW2 2723   0.432   0.562   1.532 -0.1332  0.5947  2.1548
  681SOL     MW 2724   0.350   0.578   1.556 -0.2074 -0.1994  0.1977
  682SOL     OW 2725   0.125   2.935   1.462 -0.4880 -0.5735 -0.0720
  682SOL    HW1 2726   0.116   3.027   1.462  0.9945  2.0436  2.5524
  682SOL    HW2 2727   0.086   2.922   1.551 -0.2704 -1.0137  0.7087
  682SOL     MW 2728   0.119   2.945   1.474 -0.2637 -0.2863  0.3773
  683SOL     OW 2729   2.044   0.863   3.020  0.0209  0.2845 -0.2374
  683SOL    HW1 2730   1.983   0.831   2.950 -1.4554  0.4823  1.5393
  683SOL    HW2 2731   2.018   0.948   3.047  0.3395  0.0408  0.1034
  683SOL     MW 2732   2.032   0.870   3.014 -0.1319  0.2784  0.0420
  684SOL     OW 2733   2.187   1.742   0.936  0.4008  0.1244  0.0217
  684SOL    HW1 2734   2.096   1.722   0.920  1.7768 -2.8299 -1.0601
  684SOL    HW2 2735   2.233   1.670   0.987 -0.7523 -0.3636 -1.2887
  684SOL     MW 2736   2.181   1.730   0.941  0.4302 -0.3298 -0.2939
  685SOL     OW 2737   2.668   1.754   1.230  0.5959 -0.0815 -0.0355
  685SOL    HW1 2738   2.727   1.732   1.305 -1.8024  0.1007  3.5846
  685SOL    HW2 2739   2.646   1.670   1.184 -0.5428 -1.4805 -0.4880
  685SOL     MW 2740   2.673   1.740   1.234  0.1292 -0.2420  0.3825
  686SOL     OW 2741   2.905   0.727   1.499  0.3508  0.0379  0.8089
  686SOL    HW1 2742   2.912   0.658   1.571  2.2083  3.6419  2.3001
  686SOL    HW2 2743   2.975   0.718   1.442 -1.8893  0.9212 -0.7337
  686SOL     MW 2744   2.915   0.716   1.501  0.3003  0.6299  0.8021
  687SOL     OW 2745   2.082   0.306   1.147 -0.7964  0.3251 -0.2744
  687SOL    HW1 2746   2.073   0.245   1.073  1.1398  0.5484  1.1944
  687SOL    HW2 2747   2.016   0.371   1.147  0.3464  1.4834 -2.7702
  687SOL     MW 2748   2.072   0.307   1.137 -0.3901  0.5074 -0.4099
  688SOL     OW 2749   2.363   0.632   1.429 -0.1408  0.0626 -0.1261
  688SOL    HW1 2750   2.348   0.579   1.348 -1.1548 -0.4354 -1.1012
  688SOL    HW2 2751   2.288   0.620   1.491  0.7499  1.5432  0.5790
  688SOL     MW 2752   2.351   0.624   1.426 -0.1571  0.1923 -0.1617
  689SOL     OW 2753   2.542   0.717   3.001 -0.1826 -0.3670 -0.3269
  689SOL    HW1 2754   2.566   0.810   2.987  1.2200 -0.6916 -1.8409
  689SOL    HW2 2755   2.571   0.695   3.089 -1.0861  0.3526  1.5232
  689SOL     MW 2756   2.549   0.726   3.011 -0.1168 -0.3149 -0.2826
  690SOL     OW 2757   2.105   0.928   1.900 -0.5398  0.2102  0.2271
  690SOL    HW1 2758   2.030   0.870   1.906 -0.2228  0.8877  0.7376
  690SOL    HW2 2759   2.135   0.927   1.810 -1.1141  0.8753  0.5010
  690SOL     MW 2760   2.099   0.921   1.889 -0.5738  0.3873  0.3306
  691SOL     OW 2761   2.474   0.264   0.801  0.1144  0.0677 -0.5686
  691SOL    HW1 2762   2.552   0.294   0.851 -1.2760 -1.3976  0.7343
  691SOL    HW2 2763   2.409   0.341   0.821 -1.1491 -0.5883  0.9920
  691SOL     MW 2764   2.476   0.278   0.810 -0.2358 -0.2122 -0.1908
  692SOL     OW 2765   2.832   1.628   1.424 -0.2909 -0.2025  0.4329
  692SOL    HW1 2766   2.832   1.568   1.494  2.9594  2.4391 -2.9553
  692SOL    HW2 2767   2.859   1.715   1.464  2.2118  1.2271 -1.1364
  692SOL     MW 2768   2.836   1.632   1.438  0.4681  0.3347 -0.2212
  693SOL     OW 2769   2.336   0.454   0.123  0.1800  0.7060 -0.4353
  693SOL    HW1 2770   2.267   0.411   0.075  1.6654  0.5063 -0.7301
  693SOL    HW2 2771   2.317   0.540   0.100 -0.6009 -1.6974  1.9777
  693SOL     MW 2772   2.324   0.460   0.113  0.2730  0.3625 -0.1558
  694SOL     OW 2773   1.906   1.244   1.103 -0.0228 -0.9116  0.4393
  694SOL    HW1 2774   1.993   1.211   1.129 -0.2214  1.2735 -1.6641
  694SOL    HW2 2775   1.852   1.169   1.122  1.8810 -0.1982  0.2750
  694SOL     MW 2776   1.910   1.230   1.109  0.2022 -0.5292  0.1401
  695SOL     OW 2777   3.002   1.457   1.328  0.7200  0.2932  0.1425
  695SOL    HW1 2778   2.971   1.448   1.238 -0.8695 -0.4433 -0.8674
  695SOL    HW2 2779   2.933   1.523   1.362  2.8947  0.4022 -1.4097
  695SOL     MW 2780   2.989   1.464   1.321  0.7972  0.2104 -0.1956
  696SOL     OW 2781   2.101   1.384   0.889  0.3128  0.0957 -0.0078
  696SOL    HW1 2782   2.187   1.418   0.921 -2.1757 -0.2269 -0.0674
  696SOL    HW2 2783   2.052   1.351   0.966  0.7324 -2.2926 -0.6350
  696SOL     MW 2784   2.106   1.384   0.904  0.0398 -0.2620 -0.0984
  697SOL     OW 2785   2.916   1.101   2.142  0.0042  0.0099  0.3227
  697SOL    HW1 2786   2.828   1.118   2.182  1.3890  2.0771 -0.9718
  697SOL    HW2 2787   2.913   1.008   2.104 -0.8973 -2.7297  0.0755
  697SOL     MW 2788   2.904   1.091   2.142  0.0680 -0.0788  0.1193
  698SOL     OW 2789   2.562   0.330   0.028  0.1758  0.1856  0.6418
  698SOL    HW1 2790   2.485   0.386   0.053 -2.9925  1.1372 -1.7308
  698SOL    HW2 2791   2.607   0.316   0.108 -4.3124  0.2631 -1.6189
  698SOL     MW 2792   2.558   0.335   0.042 -0.8344  0.3214  0.0305
  699SOL     OW 2793   1.846   1.675   2.038  0.0094 -0.2070 -0.5367
  699SOL    HW1 2794   1.819   1.581   2.060 -2.6429 -0.0981 -0.0575
  699SOL    HW2 2795   1.942   1.666   2.009  1.4732  2.0821 -1.0530
  699SOL     MW 2796   1.855   1.662   2.037 -0.1474  0.1094 -0.5416
  700SOL     OW 2797   2.719   0.922   1.551  0.2028  0.1736 -0.8711
  700SOL    HW1 2798   2.744   0.999   1.499  1.6727 -1.5839  1.9106
  700SOL    HW2 2799   2.792   0.854   1.550 -4.3460 -1.3823  3.7048
  700SOL     MW 2800   2.732   0.923   1.544 -0.2034 -0.2635  0.0997
  701SOL     OW 2801   1.605   1.272   2.522 -0.2422 -0.2796  0.2179
  701SOL    HW1 2802   1.698   1.270   2.540 -0.8477  3.4322  1.4292
  701SOL    HW2 2803   1.587   1.342   2.579 -1.5763 -0.8384 -1.8568
  701SOL     MW 2804   1.615   1.281   2.532 -0.4981  0.1364  0.1040
  702SOL     OW 2805   2.199   0.393   0.864  0.1808 -0.0710  0.1246
  702SOL    HW1 2806   2.188   0.321   0.798 -1.4213  0.2354 -1.3678
  702SOL    HW2 2807   2.256   0.465   0.839  0.4050  0.6224  1.8767
  702SOL     MW 2808   2.205   0.393   0.852 -0.0010  0.0609  0.1589
  703SOL     OW 2809   2.729   1.280   1.039  0.6636 -0.0033 -0.1835
  703SOL    HW1 2810   2.682   1.266   0.953  1.2038 -0.1695  1.3876
  703SOL    HW2 2811   2.745   1.185   1.059  0.4933  0.9340  0.9137
  703SOL     MW 2812   2.725   1.266   1.030  0.7124  0.0984  0.1686
  704SOL     OW 2813   3.087   1.318   0.261  0.2745 -0.1138 -0.3681
  704SOL    HW1 2814   3.024   1.268   0.212  0.0927  0.7794 -0.6136
  704SOL    HW2 2815   3.093   1.282   0.356  1.3126 -0.6621  3.7491
  704SOL     MW 2816   3.079   1.307   0.267  0.3874 -0.0683  0.1427
  705SOL     OW 2817   2.224   1.631   1.300  0.6211 -0.4093  0.4602
  705SOL    HW1 2818   2.132   1.635   1.256 -4.9065 -0.3023 -1.9420
  705SOL    HW2 2819   2.227   1.551   1.344 -1.0931  2.0108 -0.5014
  705SOL     MW 2820   2.212   1.621   1.300 -0.3344 -0.0759  0.0163
  706SOL     OW 2821   2.966   1.230   0.687 -0.3048  0.3237  0.0952
  706SOL    HW1 2822   3.031   1.211   0.620  0.8533 -2.5111 -1.1832
  706SOL    HW2 2823   2.962   1.326   0.678  1.5586  0.0451 -1.5397
  706SOL     MW 2824   2.974   1.240   0.677  0.0939 -0.0871 -0.2892
  707SOL     OW 2825   2.388   0.054   0.960  0.1769 -0.2764  0.0860
  707SOL    HW1 2826   2.407   0.130   0.898  0.9835  1.8399 -1.2053
  707SOL    HW2 2827   2.292   0.045   0.955  1.0784 -2.1207 -2.4391
  707SOL     MW 2828   2.377   0.063   0.951  0.4023 -0.2405 -0.4175
  708SOL     OW 2829   2.570   1.568   0.138  0.4243 -0.0509  0.1090
  708SOL    HW1 2830   2.623   1.492   0.156 -1.5624 -0.8363  1.7235
  708SOL    HW2 2831   2.500   1.550   0.071 -0.6293 -0.4746 -0.7944
  708SOL     MW 2832   2.568   1.555   0.132  0.0232 -0.2104  0.2028
  709SOL     OW 2833   1.730   1.722   0.157  0.2345 -0.1676 -0.3187
  709SOL    HW1 2834   1.685   1.730   0.075 -3.4989 -1.8245 -0.9579
  709SOL    HW2 2835   1.668   1.712   0.228  0.8539  0.5280  1.0927
  709SOL     MW 2836   1.716   1.722   0.155 -0.1763 -0.2945 -0.2168
  710SOL     OW 2837   2.170   1.169   1.170 -0.0816  0.0163 -0.4847
  710SOL    HW1 2838   2.227   1.146   1.094 -0.6491 -0.2053  1.5716
  710SOL    HW2 2839   2.176   1.094   1.226 -0.2211  0.2712 -1.0538
  710SOL     MW 2840   2.178   1.156   1.167 -0.1749  0.0207 -0.2885
  711SOL     OW 2841   2.335   0.130   1.764 -0.1485  0.1875 -0.2265
  711SOL    HW1 2842   2.428   0.096   1.789  0.2424 -1.7381 -0.4136
  711SOL    HW2 2843   2.339   0.122   1.670  1.2141  1.1175 -1.8557
  711SOL     MW 2844   2.348   0.125   1.755  0.0828  0.0561 -0.4662
  712SOL     OW 2845   1.863   0.626   3.075  0.5455 -0.2908  0.6052
  712SOL    HW1 2846   1.860   0.696   3.012 -1.0485  0.6699  0.1587
  712SOL    HW2 2847   1.892   0.652   3.157  3.2041  1.1123 -2.7793
  712SOL     MW 2848   1.866   0.639   3.078  0.6859  0.0211  0.0997
  713SOL     OW 2849   2.570   0.808   1.088 -0.2851 -0.8573  0.3908
  713SOL    HW1 2850   2.573   0.712   1.099 -1.5047  1.4262  1.0943
  713SOL    HW2 2851   2.561   0.845   1.180 -4.3200  2.5735  0.1067
  713SOL     MW 2852   2.569   0.800   1.102 -0.9784 -0.1033  0.4462
  714SOL     OW 2853   2.165   0.222   1.966  0.0265 -0.0058  0.0741
  714SOL    HW1 2854   2.219   0.212   2.047 -1.2050 -1.3169 -1.3609
  714SOL    HW2 2855   2.221   0.185   1.902 -1.0100  0.8878  1.8943
  714SOL     MW 2856   2.180   0.216   1.968 -0.2727 -0.0609  0.1249
  715SOL     OW 2857   1.723   1.903   1.710  0.1050  0.3054 -0.9530
  715SOL    HW1 2858   1.812   1.894   1.688 -1.5016 -1.7298  0.4009
  715SOL    HW2 2859   1.698   1.816   1.749  0.8629 -2.6857 -0.2796
  715SOL     MW 2860   1.731   1.891   1.712 -0.0070 -0.3578 -0.6855
  716SOL     OW 2861   2.378   0.567   0.747  0.2128 -0.1391  0.5248
  716SOL    HW1 2862   2.426   0.515   0.684 -0.3129  1.6348  0.4798
  716SOL    HW2 2863   2.316   0.614   0.689 -3.2248 -1.3635  1.3316
  716SOL     MW 2864   2.376   0.566   0.731 -0.3101 -0.0666  0.6254
  717SOL     OW 2865   2.862   1.428   2.905  0.0236  0.5094 -0.0627
  717SOL    HW1 2866   2.961   1.440   2.925 -0.3140 -1.1875  1.1389
  717SOL    HW2 2867   2.816   1.493   2.970 -1.4352  1.9081  0.8628
  717SOL     MW 2868   2.869   1.438   2.917 -0.2134  0.4701  0.2179
  718SOL     OW 2869   2.511   1.370   1.367  0.4134  0.4889 -0.2720
  718SOL    HW1 2870   2.523   1.414   1.458  1.7274 -1.6655 -1.3266
  718SOL    HW2 2871   2.568   1.295   1.360 -0.9848 -1.2580 -0.3515
  718SOL     MW 2872   2.520   1.366   1.378  0.4023 -0.0259 -0.4216
  719SOL     OW 2873   2.198   1.346   0.589  0.8362 -0.1260  0.6227
  719SOL    HW1 2874   2.286   1.351   0.557  0.4050 -1.6251  0.5359
  719SOL    HW2 2875   2.214   1.364   0.681 -1.0233 -0.9933  0.6725
  719SOL     MW 2876   2.212   1.349   0.597  0.5340 -0.4383  0.6178
  720SOL     OW 2877   2.906   1.169   0.124  0.5053 -0.3455 -0.4366
  720SOL    HW1 2878   2.901   1.072   0.136  2.1186  1.0457 -0.8594
  720SOL    HW2 2879   2.811   1.210   0.144  0.1872  0.7221  0.2880
  720SOL     MW 2880   2.893   1.162   0.128  0.6762 -0.0211 -0.3968
  721SOL     OW 2881   2.514   0.870   1.357 -0.2286  0.6787 -0.2461
  721SOL    HW1 2882   2.508   0.779   1.382  1.6087  1.1578 -4.8734
  721SOL    HW2 2883   2.541   0.921   1.432  2.3915  0.9581  1.1456
  721SOL     MW 2884   2.517   0.864   1.370  0.3595  0.7787 -0.6730
  722SOL     OW 2885   2.566   1.144   0.371  0.0304 -0.2443  0.2069
  722SOL    HW1 2886   2.509   1.199   0.429 -0.6028 -2.3541 -1.1569
  722SOL    HW2 2887   2.636   1.108   0.428  2.6889 -0.8894  3.7204
  722SOL     MW 2888   2.567   1.147   0.386  0.2976 -0.6078  0.4905
  723SOL     OW 2889   2.243   1.397   1.643 -0.1720  0.2230  0.0001
  723SOL    HW1 2890   2.228   1.365   1.556  1.2944  1.6923  0.9042
  723SOL    HW2 2891   2.173   1.461   1.652  2.3169  3.9548 -1.3720
  723SOL     MW 2892   2.232   1.401   1.633  0.3498  0.9092 -0.0617
  724SOL     OW 2893   2.519   0.410   0.565  0.3918  0.3683  0.5437
  724SOL    HW1 2894   2.515   0.330   0.623  0.4440 -1.3761 -1.1529
  724SOL    HW2 2895   2.616   0.421   0.553  1.0087 -0.1814  1.6467
  724SOL     MW 2896   2.531   0.401   0.571  0.4800  0.0656  0.4654
  725SOL     OW 2897   2.571   0.536   1.140 -0.2276  0.0892  0.0356
  725SOL    HW1 2898   2.618   0.562   1.222  3.3162  2.4612  2.6973
  725SOL    HW2 2899   2.477   0.527   1.161 -0.5214  1.7970 -2.7343
  725SOL     MW 2900   2.565   0.538   1.154  0.2012  0.6275  0.0213
  726SOL     OW 2901   2.590   2.437   0.553 -0.4402  0.1584  0.4651
  726SOL    HW1 2902   2.515   2.477   0.517 -0.5082 -0.1208 -1.4224
  726SOL    HW2 2903   2.565   2.363   0.603 -0.6645  2.7389  0.1853
  726SOL     MW 2904   2.577   2.433   0.555 -0.4787  0.4620  0.1792
  727SOL     OW 2905   2.929   0.257   1.573  0.3108 -0.2102 -0.1331
  727SOL    HW1 2906   2.900   0.304   1.492  1.4453  0.2846  1.2940
  727SOL    HW2 2907   2.904   0.167   1.560  1.0721  0.3188 -0.5929
  727SOL     MW 2908   2.922   0.251   1.561  0.5609 -0.0751 -0.0055
  728SOL     OW 2909   2.815   1.162   2.981  0.0106 -0.4603 -0.0633
  728SOL    HW1 2910   2.797   1.251   2.950 -3.0267  0.8367  1.1597
  728SOL    HW2 2911   2.857   1.176   3.072  2.5499  1.4140 -2.3480
  728SOL     MW 2912   2.819   1.175   2.989 -0.0551 -0.0419 -0.2034
  729SOL     OW 2913   2.560   1.520   1.125 -0.0183  0.0108 -0.5928
  729SOL    HW1 2914   2.556   1.470   1.205 -4.3267  1.2618 -1.7587
  729SOL    HW2 2915   2.622   1.475   1.065  1.1032  3.9831  1.8243
  729SOL     MW 2916   2.567   1.508   1.128 -0.4388  0.7000 -0.4277
  730SOL     OW 2917   2.115   1.120   0.282  0.2513 -0.1301 -0.2888
  730SOL    HW1 2918   2.207   1.099   0.266 -0.5215  2.2408 -2.7839
  730SOL    HW2 2919   2.105   1.215   0.297  0.4196  1.0656  0.3733
  730SOL     MW 2920   2.125   1.130   0.282  0.1715  0.3405 -0.5306
  731SOL     OW 2921   2.811   1.858   2.868  0.3339  0.3149 -0.1913
  731SOL    HW1 2922   2.752   1.892   2.793  0.3054 -0.7806  2.8317
  731SOL    HW2 2923   2.861   1.935   2.894  0.0581 -0.1049  0.1771
  731SOL     MW 2924   2.810   1.873   2.862  0.2938  0.1149  0.2562
  732SOL     OW 2925   2.232   0.902   1.316  0.2555  0.0996  0.5233
  732SOL    HW1 2926   2.232   0.862   1.400  2.3102  1.0837  0.0275
  732SOL    HW2 2927   2.327   0.909   1.309 -2.0110 -0.7071  2.3454
  732SOL     MW 2928   2.245   0.898   1.326  0.2276  0.1230  0.6983
  733SOL     OW 2929   2.377   2.822   3.028  0.2943  0.0068 -0.5301
  733SOL    HW1 2930   2.280   2.826   3.025 -0.6857 -0.4294  0.8981
  733SOL    HW2 2931   2.387   2.732   3.045  0.2444  0.9265  0.0678
  733SOL     MW 2932   2.365   2.811   3.030  0.1584  0.0706 -0.2628
  734SOL     OW 2933   1.502   0.355   2.465  0.1395 -0.2177 -0.2869
  734SOL    HW1 2934   1.473   0.314   2.552  0.4874 -1.3397  1.3868
  734SOL    HW2 2935   1.514   0.277   2.402  0.4579  0.0374  0.6228
  734SOL     MW 2936   1.500   0.339   2.468  0.2274 -0.3321  0.0540
  735SOL     OW 2937   2.988   0.931   2.576 -0.6964 -0.0941 -0.2061
  735SOL    HW1 2938   2.958   0.844   2.606  1.8968 -0.9089 -0.6603
  735SOL    HW2 2939   3.023   0.980   2.654  2.9599  0.5001 -2.5395
  735SOL     MW 2940   2.989   0.926   2.590  0.1282 -0.1232 -0.5739
  736SOL     OW 2941   0.082   0.608   2.555  0.2291  0.1533 -0.0661
  736SOL    HW1 2942   0.131   0.671   2.500  0.1152  0.5300 -2.0000
  736SOL    HW2 2943   0.072   0.534   2.491  1.2935 -1.8042  2.4212
  736SOL     MW 2944   0.087   0.607   2.539  0.3545 -0.0553  0.0069
  737SOL     OW 2945   2.915   0.680   2.622 -0.4203 -0.5372 -0.2784
  737SOL    HW1 2946   2.844   0.681   2.552  1.0156  0.0240 -0.2175
  737SOL    HW2 2947   2.998   0.644   2.588 -1.4439 -0.8975  0.3115
  737SOL     MW 2948   2.916   0.675   2.608 -0.3659 -0.5107 -0.1925
  738SOL     OW 2949   0.177   0.530   1.958  0.3825 -0.1361  0.0806
  738SOL    HW1 2950   0.262   0.565   1.930  0.2245 -1.0737 -4.5068
  738SOL    HW2 2951   0.165   0.459   1.895  3.2602  2.3790 -0.4190
  738SOL     MW 2952   0.186   0.525   1.946  0.7414  0.0721 -0.5906
  739SOL     OW 2953   2.511   0.992   2.157 -0.6716  0.3382 -0.6862
  739SOL    HW1 2954   2.425   0.951   2.157  0.7042  0.8022 -0.8495
  739SOL    HW2 2955   2.530   1.014   2.065  1.8918 -0.3711  0.7894
  739SOL     MW 2956   2.502   0.989   2.145 -0.1519  0.3058 -0.5131
  740SOL     OW 2957   0.137   1.776   2.964 -0.0673  0.2576  0.2494
  740SOL    HW1 2958   0.098   1.688   2.956  2.4625 -1.9853 -3.2920
  740SOL    HW2 2959   0.234   1.759   2.975 -0.1441 -1.9663  0.2887
  740SOL     MW 2960   0.145   1.762   2.965  0.2563 -0.3318 -0.2127
  741SOL     OW 2961   2.237   1.249   2.679  0.2049  0.6422 -0.0745
  741SOL    HW1 2962   2.224   1.335   2.634 -0.1971 -0.3053  2.7664
  741SOL    HW2 2963   2.191   1.266   2.761 -0.0763  3.3769 -1.4742
  741SOL     MW 2964   2.229   1.263   2.684  0.1148  0.8780  0.1157
  742SOL     OW 2965   1.613   1.359   2.259 -0.8455 -0.6407 -0.6222
  742SOL    HW1 2966   1.570   1.276   2.232 -0.8840 -0.5062 -0.9896
  742SOL    HW2 2967   1.638   1.339   2.347  1.4542 -0.6477  0.4716
  742SOL     MW 2968   1.610   1.345   2.267 -0.5472 -0.6239 -0.5263
  743SOL     OW 2969   2.519   1.230   2.733  0.0119 -0.0380  0.1397
  743SOL    HW1 2970   2.432   1.228   2.709  2.5043 -0.3064  2.6392
  743SOL    HW2 2971   2.531   1.155   2.786 -1.5216 -3.1489  2.8956
  743SOL     MW 2972   2.509   1.220   2.737  0.1384 -0.4839  0.8331
  744SOL     OW 2973   2.777   0.998   1.818 -0.9874 -0.0111 -0.3275
  744SOL    HW1 2974   2.703   1.047   1.856 -0.9998  0.0571 -1.9818
  744SOL    HW2 2975   2.748   0.978   1.727 -0.1611  3.0153 -2.3426
  744SOL     MW 2976   2.764   1.002   1.811 -0.8800  0.3972 -0.8116
  745SOL     OW 2977   1.773   0.422   2.460 -0.3811 -0.3482  0.1540
  745SOL    HW1 2978   1.787   0.412   2.364 -0.2117 -3.4350 -0.0514
  745SOL    HW2 2979   1.681   0.397   2.480 -0.3827  1.3802 -1.4377
  745SOL     MW 2980   1.763   0.417   2.450 -0.3590 -0.5274 -0.0831
  746SOL     OW 2981   1.500   1.457   1.669 -0.2344 -0.2464 -0.0791
  746SOL    HW1 2982   1.575   1.502   1.707 -1.3612 -0.2108  0.5984
  746SOL    HW2 2983   1.509   1.367   1.708  0.9340  1.7016  1.6583
  746SOL     MW 2984   1.511   1.451   1.679 -0.2289  0.0153  0.2395
  747SOL     OW 2985   2.557   1.144   1.908  0.2889  0.5802  0.0003
  747SOL    HW1 2986   2.463   1.165   1.887  0.8435  1.4071  4.5004
  747SOL    HW2 2987   2.585   1.221   1.958  1.8897 -1.5849 -0.2994
  747SOL     MW 2988   2.549   1.157   1.912  0.5733  0.4036  0.5545
  748SOL     OW 2989   0.080   3.048   1.888 -0.1896  0.1912 -0.6452
  748SOL    HW1 2990   0.170   3.079   1.897  0.2104 -1.7063 -3.3255
  748SOL    HW2 2991   0.034   3.099   1.952  1.6424  0.0125  2.7398
  748SOL     MW 2992   0.086   3.059   1.898  0.1049 -0.0827 -0.5522
  749SOL     OW 2993   2.449   0.565   2.779 -0.5677 -0.4065  0.2659
  749SOL    HW1 2994   2.452   0.650   2.728 -1.6655  1.7479  0.5065
  749SOL    HW2 2995   2.483   0.591   2.860  2.2433 -0.5996  1.0681
  749SOL     MW 2996   2.454   0.580   2.783 -0.3417 -0.1477  0.4035
  750SOL     OW 2997   2.079   3.059   1.938 -0.3569  0.3079 -0.3228
  750SOL    HW1 2998   2.118   3.143   1.950 -0.4658 -3.3670  0.8272
  750SOL    HW2 2999   2.152   2.982   1.943  2.1539  0.6750 -1.2732
  750SOL     MW 3000   2.094   3.060   1.940 -0.0400 -0.1285 -0.2965
  751SOL     OW 3001   0.019   0.373   2.407 -0.0027  0.2269  0.5435
  751SOL    HW1 3002  -0.045   0.413   2.356  4.1920  0.8064 -0.6642
  751SOL    HW2 3003   0.081   0.343   2.340  1.4053  4.5544  1.5998
  751SOL     MW 3004   0.018   0.374   2.391  0.7365  0.8743  0.5235
  752SOL     OW 3005   2.135   0.891   2.751  0.2318  0.0330  0.1996
  752SOL    HW1 3006   2.189   0.940   2.690 -0.4635 -2.0610 -0.6866
  752SOL    HW2 3007   2.174   0.906   2.838  1.0392  2.2268 -2.4376
  752SOL     MW 3008   2.148   0.899   2.754  0.2466  0.0462 -0.2653
  753SOL     OW 3009   2.865   0.424   2.350 -0.1807 -0.4992  0.3727
  753SOL    HW1 3010   2.817   0.341   2.346 -1.4789  0.5674 -1.8498
  753SOL    HW2 3011   2.802   0.485   2.385  2.6590  0.2827 -0.9832
  753SOL     MW 3012   2.850   0.421   2.354  0.0227 -0.2553 -0.0994
  754SOL     OW 3013   2.245   3.010   2.599 -0.3568  0.2797  0.0798
  754SOL    HW1 3014   2.289   3.000   2.511  0.1128 -0.3932 -0.6253
  754SOL    HW2 3015   2.308   2.963   2.663 -0.1008 -1.1344  0.8106
  754SOL     MW 3016   2.259   3.002   2.596 -0.2611  0.0043  0.0832
  755SOL     OW 3017   2.790   1.583   2.495  0.2144 -0.3605 -0.0017
  755SOL    HW1 3018   2.720   1.521   2.515  2.4587 -2.8181 -0.0763
  755SOL    HW2 3019   2.840   1.599   2.574  1.3334 -1.6355 -1.3881
  755SOL     MW 3020   2.788   1.577   2.508  0.6582 -0.8530 -0.1945
  756SOL     OW 3021   2.251   1.267   2.984 -0.4337 -0.6028 -0.1889
  756SOL    HW1 3022   2.312   1.329   3.023 -1.5483  0.9681 -0.1832
  756SOL    HW2 3023   2.305   1.192   3.002  0.9664  0.8967  0.1016
  756SOL     MW 3024   2.266   1.265   2.991 -0.3961 -0.1977 -0.1498
  757SOL     OW 3025   2.181   0.946   1.645 -0.3834  0.2891 -0.0853
  757SOL    HW1 3026   2.187   0.850   1.641 -0.5248 -0.6613 -1.3810
  757SOL    HW2 3027   2.120   0.957   1.576  2.1060  0.4477 -0.5104
  757SOL     MW 3028   2.174   0.934   1.636 -0.0736  0.1846 -0.3123
  758SOL     OW 3029   2.264   1.760   2.638 -0.1608 -0.7682  0.1923
  758SOL    HW1 3030   2.267   1.789   2.546  0.0554  0.0241  2.5703
  758SOL    HW2 3031   2.353   1.748   2.673  1.5991 -1.9794  1.6404
  758SOL     MW 3032   2.276   1.762   2.631  0.1000 -0.8234  0.6971
  759SOL     OW 3033   1.550   1.415   2.792 -0.3063 -0.3934 -0.1368
  759SOL    HW1 3034   1.500   1.495   2.773  3.0541 -2.1468  0.4878
  759SOL    HW2 3035   1.598   1.432   2.874  3.1963 -0.1241 -0.2773
  759SOL     MW 3036   1.550   1.428   2.800  0.5992 -0.5892 -0.0729
  760SOL     OW 3037   2.695   1.987   2.671  0.0786 -0.0487  0.2451
  760SOL    HW1 3038   2.639   1.914   2.650  3.8843  2.4740 -2.8675
  760SOL    HW2 3039   2.778   1.984   2.616 -2.4538  0.0079  1.2851
  760SOL     MW 3040   2.699   1.977   2.661  0.2466  0.2916 -0.0283
  761SOL     OW 3041   2.153   0.428   2.458 -0.3332 -0.5539  0.4046
  761SOL    HW1 3042   2.077   0.365   2.462 -4.2823 -1.2710  0.0054
  761SOL    HW2 3043   2.139   0.480   2.544 -2.4916 -3.6210  0.7923
  761SOL     MW 3044   2.141   0.427   2.470 -1.1390 -1.0532  0.4031
  762SOL     OW 3045   0.028   0.160   2.092  0.3102  0.2563 -0.1684
  762SOL    HW1 3046   0.002   0.122   2.177 -3.0054 -0.6539 -2.1966
  762SOL    HW2 3047  -0.045   0.217   2.069 -0.6967 -1.2470 -0.7304
  762SOL     MW 3048   0.015   0.162   2.100 -0.2601 -0.0621 -0.5102
  763SOL     OW 3049   2.443   1.146   2.356 -0.7282  0.0080  0.0332
  763SOL    HW1 3050   2.483   1.085   2.288 -0.7084 -0.6476  2.4053
  763SOL    HW2 3051   2.509   1.180   2.415 -0.5150  0.4146  1.6080
  763SOL     MW 3052   2.457   1.142   2.354 -0.6974 -0.0248  0.5540
  764SOL     OW 3053   0.316   0.168   2.814 -0.7176 -0.1842  0.4554
  764SOL    HW1 3054   0.251   0.214   2.761  1.9525 -1.1075 -3.1366
  764SOL    HW2 3055   0.334   0.213   2.895 -0.1286 -2.6620 -0.4264
  764SOL     MW 3056   0.310   0.180   2.818 -0.2876 -0.6329 -0.1348
  765SOL     OW 3057   2.745   0.154   2.313 -0.4526 -0.5185 -0.0433
  765SOL    HW1 3058   2.683   0.125   2.246 -0.1589  1.8313  1.2106
  765SOL    HW2 3059   2.786   0.068   2.343  2.5303 -0.1942 -0.9317
  765SOL     MW 3060   2.742   0.139   2.308 -0.0203 -0.1657  0.0050
  766SOL     OW 3061   1.846   3.003   2.110  0.2422  0.3017 -0.0842
  766SOL    HW1 3062   1.924   3.004   2.054  0.3263  1.2975  1.8421
  766SOL    HW2 3063   1.775   2.950   2.073 -0.5189  0.1991  2.2876
  766SOL     MW 3064   1.847   2.997   2.098  0.1529  0.4195  0.4829
  767SOL     OW 3065   2.683   0.611   1.878 -0.4302 -0.0517 -0.6503
  767SOL    HW1 3066   2.722   0.662   1.952 -0.8787 -1.2948 -0.9783
  767SOL    HW2 3067   2.590   0.626   1.886  0.5416 -0.2875  1.7611
  767SOL     MW 3068   2.676   0.620   1.889 -0.3612 -0.2468 -0.3754
  768SOL     OW 3069   0.014   1.509   2.933 -0.0920  0.7770 -0.5192
  768SOL    HW1 3070   0.019   1.515   3.032 -1.3522 -3.0587  0.2150
  768SOL    HW2 3071   0.055   1.426   2.910  0.8836  0.2637 -1.3713
  768SOL     MW 3072   0.020   1.499   2.943 -0.1296  0.2032 -0.5347
  769SOL     OW 3073   2.368   0.620   2.445 -0.2223  0.1831 -0.4838
  769SOL    HW1 3074   2.318   0.539   2.459  1.7935  1.4118 -0.5640
  769SOL    HW2 3075   2.391   0.611   2.353 -0.7026 -2.5944 -1.4018
  769SOL     MW 3076   2.365   0.608   2.435 -0.0197 -0.0213 -0.6155
  770SOL     OW 3077   0.052   1.611   2.569 -0.3254  0.1983 -0.3389
  770SOL    HW1 3078  -0.036   1.619   2.610 -0.1281 -0.8967  0.2290
  770SOL    HW2 3079   0.093   1.540   2.619 -1.5215  3.2771 -0.3164
  770SOL     MW 3080   0.046   1.603   2.581 -0.4571  0.4601 -0.2610
  771SOL     OW 3081   3.016   0.610   1.976  0.4836  0.5108  0.2187
  771SOL    HW1 3082   2.984   0.612   1.881 -1.9630  3.9820 -0.0113
  771SOL    HW2 3083   3.110   0.601   1.963 -4.0397  0.1098  0.4252
  771SOL     MW 3084   3.024   0.609   1.962 -0.4360  0.9159  0.2156
  772SOL     OW 3085   0.041   0.012   2.326 -0.3150  0.0809  0.5316
  772SOL    HW1 3086  -0.034  -0.019   2.376 -0.7011 -0.3073 -0.9398
  772SOL    HW2 3087   0.053  -0.062   2.267 -0.6854  0.1769  1.9006
  772SOL     MW 3088   0.033  -0.002   2.325 -0.4148  0.0423  0.5181
  773SOL     OW 3089   2.410   2.898   2.766 -0.3931  0.4876 -0.3601
  773SOL    HW1 3090   2.416   2.808   2.740 -0.6539 -1.9985 -2.2655
  773SOL    HW2 3091   2.399   2.895   2.861 -0.8601  0.4847 -1.0851
  773SOL     MW 3092   2.409   2.886   2.775 -0.4891  0.1592 -0.7072
  774SOL     OW 3093   2.300   1.176   1.798  0.2808 -0.0933 -0.3333
  774SOL    HW1 3094   2.271   1.246   1.733 -2.6027 -1.7028 -1.3494
  774SOL    HW2 3095   2.279   1.093   1.761 -1.8201  3.7176 -0.3688
  774SOL     MW 3096   2.293   1.175   1.784 -0.3769  0.1972 -0.4720
  775SOL     OW 3097   2.332   2.969   2.334  0.1105 -0.0283  0.1834
  775SOL    HW1 3098   2.371   3.045   2.288  1.8801 -2.7986  0.1788
  775SOL    HW2 3099   2.387   2.897   2.305  1.4254 -0.8920  2.8416
  775SOL     MW 3100   2.344   2.969   2.324  0.5175 -0.5078  0.5335
  776SOL     OW 3101   0.113   1.508   0.087  0.3489  0.3590 -0.1009
  776SOL    HW1 3102   0.206   1.473   0.083 -0.7001 -2.3703  1.6189
  776SOL    HW2 3103   0.065   1.441   0.130 -0.0568  1.0275  0.1367
  776SOL     MW 3104   0.119   1.494   0.092  0.1570  0.0871  0.1574
  777SOL     OW 3105   3.007   1.106   1.717 -0.1001  0.0985  0.0929
  777SOL    HW1 3106   2.982   1.111   1.628  1.8525 -2.7038 -1.7980
  777SOL    HW2 3107   2.937   1.066   1.765  2.3674 -0.5151 -0.6242
  777SOL     MW 3108   2.995   1.101   1.711  0.4830 -0.3522 -0.2512
  778SOL     OW 3109   2.826   0.463   2.720 -0.1524  0.3263 -0.3357
  778SOL    HW1 3110   2.773   0.487   2.802  0.5660  0.3042 -1.5870
  778SOL    HW2 3111   2.863   0.552   2.684  0.7692 -0.4777  0.5223
  778SOL     MW 3112   2.824   0.478   2.726  0.0640  0.2173 -0.3876
  779SOL     OW 3113   2.250   0.547   2.194 -0.6335  0.1601 -0.4329
  779SOL    HW1 3114   2.225   0.638   2.191  3.5475 -0.1640  1.0231
  779SOL    HW2 3115   2.204   0.509   2.267 -0.3364 -2.5185  2.2421
  779SOL     MW 3116   2.241   0.554   2.203 -0.0427 -0.2361  0.1122
  780SOL     OW 3117   0.140   0.309   2.670 -0.0181 -0.0339 -0.2309
  780SOL    HW1 3118   0.077   0.323   2.742  1.8473 -2.1306  0.1928
  780SOL    HW2 3119   0.120   0.372   2.605  0.3006 -3.4687  0.7229
  780SOL     MW 3120   0.129   0.319   2.671  0.2701 -0.7637 -0.0492
  781SOL     OW 3121   3.056   1.296   2.466 -0.4718 -0.1217  0.2114
  781SOL    HW1 3122   3.061   1.377   2.415 -3.4389  0.6981 -1.0258
  781SOL    HW2 3123   3.089   1.231   2.407 -0.3144  1.4377 -1.6080
  781SOL     MW 3124   3.061   1.298   2.452 -0.8425  0.1922 -0.1919
  782SOL     OW 3125   0.662   1.582   0.014  0.0219  0.0235 -0.1303
  782SOL    HW1 3126   0.572   1.568  -0.032 -2.2931 -1.1786 -0.2368
  782SOL    HW2 3127   0.648   1.648   0.078 -1.1089  2.5519  0.2463
  782SOL     MW 3128   0.648   1.589   0.016 -0.4327  0.1985 -0.0947
  783SOL     OW 3129   2.703   0.632   2.448  0.7689 -0.1730  0.2649
  783SOL    HW1 3130   2.668   0.639   2.360  0.8887  0.4142  0.2968
  783SOL    HW2 3131   2.629   0.577   2.479 -1.5561 -1.3642 -1.8965
  783SOL     MW 3132   2.689   0.626   2.440  0.4780 -0.2527 -0.0160
  784SOL     OW 3133   0.124   0.804   2.856 -0.2406 -0.3266 -0.1885
  784SOL    HW1 3134   0.041   0.852   2.845 -3.8219  1.4076 -1.7684
  784SOL    HW2 3135   0.183   0.837   2.786  0.0041  0.4223  0.2331
  784SOL     MW 3136   0.121   0.815   2.846 -0.6808  0.0010 -0.3413
  785SOL     OW 3137   0.421   0.485   2.170 -0.0610  0.1958 -0.2884
  785SOL    HW1 3138   0.432   0.511   2.075  4.2424  0.4278  2.5194
  785SOL    HW2 3139   0.334   0.438   2.178  2.0945  2.2444  1.0256
  785SOL     MW 3140   0.411   0.482   2.158  0.7912  0.4967  0.2554
  786SOL     OW 3141   1.929   0.361   2.958 -0.0460 -0.3751 -0.2110
  786SOL    HW1 3142   1.906   0.449   2.982 -0.5245 -3.7727 -2.0446
  786SOL    HW2 3143   2.000   0.371   2.895  3.6633 -0.0074  1.7345
  786SOL     MW 3144   1.935   0.374   2.953  0.3803 -0.7748 -0.1962
  787SOL     OW 3145   2.474   0.103   2.962  0.2674  0.3404 -0.7999
  787SOL    HW1 3146   2.537   0.050   2.913 -0.5019  1.5942  1.5055
  787SOL    HW2 3147   2.517   0.181   3.004 -1.1459  0.6442  0.8437
  787SOL     MW 3148   2.488   0.106   2.961 -0.0205  0.5459 -0.2788
  788SOL     OW 3149   2.864   3.027   2.398  0.0267 -0.0493 -0.7295
  788SOL    HW1 3150   2.839   3.003   2.482 -1.4943  0.9221 -2.0059
  788SOL    HW2 3151   2.863   2.947   2.347  0.0121 -0.2815 -3.1063
  788SOL     MW 3152   2.861   3.013   2.402 -0.1759  0.0482 -1.2115
  789SOL     OW 3153   0.080   0.205   3.032 -0.0445  0.1315 -0.4516
  789SOL    HW1 3154   0.016   0.137   3.038  0.5556  2.4526  0.4224
  789SOL    HW2 3155   0.044   0.271   2.975  1.8404  0.2328 -0.5208
  789SOL     MW 3156   0.067   0.205   3.026  0.2834  0.4511 -0.3454
  790SOL     OW 3157   0.009   1.057   2.331  0.2494 -0.0873  0.6031
  790SOL    HW1 3158  -0.025   0.998   2.396  0.4412 -2.6354 -0.0749
  790SOL    HW2 3159  -0.060   1.066   2.263 -1.6093 -2.7045 -0.8866
  790SOL     MW 3160  -0.004   1.050   2.331  0.0294 -0.7688  0.3171
  791SOL     OW 3161   2.604   0.411   2.584  0.7134 -0.4186  0.3852
  791SOL    HW1 3162   2.542   0.458   2.645  2.3401  1.9914  0.3400
  791SOL    HW2 3163   2.689   0.417   2.637  3.4622  2.8804  2.2635
  791SOL     MW 3164   2.607   0.418   2.599  1.2907  0.3346  0.6271
  792SOL     OW 3165   2.339   0.213   2.419  0.0398  0.6773  0.4210
  792SOL    HW1 3166   2.264   0.275   2.428 -0.8033  2.9572 -0.3853
  792SOL    HW2 3167   2.373   0.183   2.500  2.4644  1.8268 -0.4207
  792SOL     MW 3168   2.333   0.217   2.431  0.2485  1.1298  0.2036
  793SOL     OW 3169   1.968   1.214   1.965  0.0985  0.0071 -0.2981
  793SOL    HW1 3170   1.921   1.186   1.887 -0.1141 -3.6880 -0.7291
  793SOL    HW2 3171   2.021   1.132   1.971 -0.5779 -0.0719 -1.6894
  793SOL     MW 3172   1.969   1.200   1.955 -0.0188 -0.4909 -0.5385
  794SOL     OW 3173   1.405   2.369   0.127  0.3329 -0.1192 -0.3694
  794SOL    HW1 3174   1.445   2.398   0.046  0.5650  3.1291 -2.6195
  794SOL    HW2 3175   1.466   2.391   0.201  0.0485 -0.1646  0.9038
  794SOL     MW 3176   1.418   2.375   0.126  0.3260  0.3034 -0.4983
  795SOL     OW 3177   2.313   1.036   2.559  0.4995  1.0179  0.0431
  795SOL    HW1 3178   2.277   1.120   2.596 -0.4201 -0.4317  1.9630
  795SOL    HW2 3179   2.356   1.063   2.479  0.7310 -2.1913 -0.0380
  795SOL     MW 3180   2.314   1.051   2.554  0.4087  0.4032  0.2857
  796SOL     OW 3181   0.227   0.554   2.780  0.2186 -0.4917  0.2327
  796SOL    HW1 3182   0.182   0.624   2.837 -1.9066  0.3969 -0.2318
  796SOL    HW2 3183   0.173   0.558   2.701 -1.3406 -0.6259 -1.0025
  796SOL     MW 3184   0.214   0.564   2.777 -0.2675 -0.3922  0.0084
  797SOL     OW 3185   2.618   0.130   2.589  0.4224 -0.8883  0.5019
  797SOL    HW1 3186   2.602   0.232   2.586 -1.7572  1.8077 -3.3145
  797SOL    HW2 3187   2.660   0.108   2.507  1.3499 -1.5708 -2.4606
  797SOL     MW 3188   2.621   0.141   2.578  0.2572 -0.6226 -0.3925
  798SOL     OW 3189   2.295   0.110   2.171  0.2642 -0.0124  0.2629
  798SOL    HW1 3190   2.317   0.130   2.261 -2.8924  0.3610  0.0290
  798SOL    HW2 3191   2.377   0.083   2.128 -1.3050  0.4939 -2.9400
  798SOL     MW 3192   2.309   0.109   2.177 -0.3593  0.1037 -0.1906
  799SOL     OW 3193   2.556   2.922   0.107 -0.1794 -0.0627 -0.2986
  799SOL    HW1 3194   2.475   2.886   0.067 -0.7761 -0.7626  1.1414
  799SOL    HW2 3195   2.531   2.934   0.202 -0.2360  1.4862  1.5012
  799SOL     MW 3196   2.542   2.919   0.114 -0.2656  0.0493  0.1289
  800SOL     OW 3197   1.941   0.007   1.693  0.6847 -0.7959  0.1381
  800SOL    HW1 3198   1.889  -0.073   1.694  0.4496 -1.2074 -1.4016
  800SOL    HW2 3199   1.983   0.003   1.778 -1.5074 -1.2490 -1.8555
  800SOL     MW 3200   1.940  -0.004   1.704  0.3644 -0.9100 -0.3281
  801SOL     OW 3201   2.816   1.264   2.604  0.0028  0.2018 -0.0604
  801SOL    HW1 3202   2.772   1.183   2.583  0.7343  0.1786  0.2853
  801SOL    HW2 3203   2.898   1.268   2.553 -0.0443  0.1102 -3.2241
  801SOL     MW 3204   2.821   1.254   2.594  0.0931  0.1866 -0.4322
  802SOL     OW 3205   2.607   1.496   2.790  0.7565 -0.3641 -0.1152
  802SOL    HW1 3206   2.590   1.400   2.765  2.7300 -0.8987 -0.3730
  802SOL    HW2 3207   2.703   1.490   2.804 -1.2980 -1.1999 -3.2355
  802SOL     MW 3208   2.618   1.483   2.788  0.7458 -0.5449 -0.5609
  803SOL     OW 3209   2.273   1.402   2.010  0.4798 -0.2168  0.0222
  803SOL    HW1 3210   2.275   1.375   2.103  4.5856  2.2817 -0.8375
  803SOL    HW2 3211   2.224   1.340   1.957  1.1269  0.6510 -0.7442
  803SOL     MW 3212   2.267   1.390   2.015  1.1069  0.2274 -0.1924
  804SOL     OW 3213   2.259   0.091   0.053 -0.4047 -0.2969  0.2126
  804SOL    HW1 3214   2.195   0.169   0.057 -0.4465 -2.1662  2.0268
  804SOL    HW2 3215   2.320   0.118  -0.019  1.1394 -2.5205  1.5477
  804SOL     MW 3216   2.259   0.105   0.044 -0.2065 -0.8369  0.6281
  805SOL     OW 3217   2.728   1.000   2.582  0.1625  0.6046 -0.5207
  805SOL    HW1 3218   2.676   0.943   2.527  1.9780  0.5195 -1.8490
  805SOL    HW2 3219   2.821   0.970   2.569 -0.7852  0.6026  0.5293
  805SOL     MW 3220   2.734   0.989   2.573  0.2770  0.5931 -0.5575
  806SOL     OW 3221   2.559   0.631   2.213  0.2011  0.3690 -0.1278
  806SOL    HW1 3222   2.573   0.542   2.178 -0.8734 -2.5009 -0.5258
  806SOL    HW2 3223   2.515   0.676   2.142 -1.6039 -3.1832 -0.7465
  806SOL     MW 3224   2.555   0.625   2.199 -0.1789 -0.4783 -0.2620
  807SOL     OW 3225   0.075   1.157   2.057 -0.3871  0.5783 -0.7665
  807SOL    HW1 3226   0.082   1.065   2.075  1.7968 -0.6905  0.3502
  807SOL    HW2 3227  -0.015   1.168   2.061 -0.9734 -0.9319  0.7266
  807SOL     MW 3228   0.064   1.146   2.060 -0.1763  0.2117 -0.4222
  808SOL     OW 3229   2.659   3.039   2.814 -0.2185  0.3840 -0.0167
  808SOL    HW1 3230   2.575   2.987   2.804 -2.6105  0.3619  3.0927
  808SOL    HW2 3231   2.658   3.104   2.747 -1.9227  0.8636  0.9991
  808SOL     MW 3232   2.648   3.041   2.804 -0.7590  0.4444  0.5276
  809SOL     OW 3233   2.602   1.372   2.473 -0.3732  0.4567  0.5354
  809SOL    HW1 3234   2.659   1.354   2.551  3.5756 -2.9436  0.8918
  809SOL    HW2 3235   2.659   1.351   2.395 -0.7939 -1.2528 -0.3006
  809SOL     MW 3236   2.617   1.367   2.473  0.0923 -0.2175  0.4721
  810SOL     OW 3237   2.227   1.327   2.280  0.2092 -0.1438 -0.6142
  810SOL    HW1 3238   2.282   1.259   2.317  1.0407  0.0902  0.5856
  810SOL    HW2 3239   2.146   1.333   2.328 -0.9401  0.5680  0.3406
  810SOL     MW 3240   2.224   1.319   2.291  0.1673 -0.0190 -0.3299
  811SOL     OW 3241   1.545   0.141   2.298 -0.1294  0.0440 -0.0404
  811SOL    HW1 3242   1.626   0.096   2.331  2.0755  0.0364 -1.4991
  811SOL    HW2 3243   1.521   0.102   2.212 -0.3383  0.9342  0.4634
  811SOL     MW 3244   1.552   0.130   2.291  0.1340  0.1605 -0.1664
  812SOL     OW 3245   1.445   2.788   1.993 -0.0450 -0.0171 -0.5138
  812SOL    HW1 3246   1.527   2.813   1.947 -2.1981  0.8887 -1.2189
  812SOL    HW2 3247   1.478   2.760   2.076 -1.3147 -0.3565 -0.3803
  812SOL     MW 3248   1.460   2.788   1.998 -0.4966  0.0576 -0.5893
  813SOL     OW 3249   1.938   0.704   2.256 -0.5256  0.0378 -0.5381
  813SOL    HW1 3250   1.889   0.620   2.250 -0.8194  3.0776  3.2752
  813SOL    HW2 3251   1.903   0.750   2.331 -1.5930  0.2322  0.3753
  813SOL     MW 3252   1.927   0.699   2.265 -0.7052  0.4645  0.0856
  814SOL     OW 3253   2.693   1.260   1.643 -0.3099 -0.7996  0.0520
  814SOL    HW1 3254   2.621   1.243   1.694 -0.0516 -1.7876 -3.2491
  814SOL    HW2 3255   2.692   1.202   1.572  0.0705 -1.6354 -0.3270
  814SOL     MW 3256   2.684   1.250   1.641 -0.2256 -1.0402 -0.4335
  815SOL     OW 3257   2.549   1.736   2.432 -0.8817  0.6644  0.4470
  815SOL    HW1 3258   2.496   1.668   2.407  3.2009  1.9705 -0.3704
  815SOL    HW2 3259   2.639   1.704   2.432  0.5845 -1.7446 -0.0177
  815SOL     MW 3260   2.554   1.723   2.429 -0.1496  0.5189  0.2778
  816SOL     OW 3261   0.747   0.723   2.747  0.5833 -0.0625  0.2803
  816SOL    HW1 3262   0.773   0.631   2.770  4.7673 -0.1127 -0.1689
  816SOL    HW2 3263   0.661   0.703   2.714 -2.2328 -1.8498  1.6658
  816SOL     MW 3264   0.739   0.708   2.746  0.7638 -0.3050  0.4038
  817SOL     OW 3265   3.012   1.216   1.452 -0.0143 -0.2325  0.1070
  817SOL    HW1 3266   3.100   1.216   1.485 -1.6277  3.5560  0.4458
  817SOL    HW2 3267   2.997   1.310   1.424  1.0177  1.8108 -1.1729
  817SOL     MW 3268   3.022   1.228   1.453 -0.0910  0.5370 -0.0172
  818SOL     OW 3269   1.884   1.067   2.702 -0.0869  0.1514 -0.2523
  818SOL    HW1 3270   1.855   1.040   2.609 -0.3529  1.2973 -0.1524
  818SOL    HW2 3271   1.955   1.006   2.722 -1.9201 -0.7959  0.1301
  818SOL     MW 3272   1.889   1.055   2.692 -0.3638  0.1776 -0.1887
  819SOL     OW 3273   1.959   0.221   2.476 -0.3706 -0.2501 -1.0655
  819SOL    HW1 3274   1.886   0.291   2.476 -2.1257 -3.3489  1.6251
  819SOL    HW2 3275   1.995   0.216   2.565  1.9185 -2.0378 -0.8052
  819SOL     MW 3276   1.954   0.230   2.488 -0.3002 -0.8948 -0.6762
  820SOL     OW 3277   2.538   1.735   2.697 -0.2537  0.6017 -0.6795
  820SOL    HW1 3278   2.574   1.660   2.746  3.0775 -0.5565 -0.1354
  820SOL    HW2 3279   2.566   1.728   2.606  0.8274 -1.3679  0.0351
  820SOL     MW 3280   2.547   1.725   2.692  0.3285  0.1890 -0.5135
  821SOL     OW 3281   2.591   1.417   2.037  0.0378 -0.0035  0.2651
  821SOL    HW1 3282   2.615   1.494   1.986 -2.6126 -0.4661  1.4797
  821SOL    HW2 3283   2.493   1.420   2.049 -2.4890  3.4511 -0.2255
  821SOL     MW 3284   2.581   1.428   2.032 -0.6453  0.3913  0.3606
  822SOL     OW 3285   2.745   2.658   1.397  0.0514  0.0179  0.4993
  822SOL    HW1 3286   2.786   2.663   1.481 -1.6801 -3.2421 -0.7542
  822SOL    HW2 3287   2.663   2.709   1.398 -1.4526  1.9347 -0.1383
  822SOL     MW 3288   2.740   2.666   1.408 -0.3755 -0.1593  0.2498
  823SOL     OW 3289   2.352   0.472   1.775 -0.2626 -0.2834  0.4399
  823SOL    HW1 3290   2.416   0.445   1.709 -5.3824 -0.3750  1.2086
  823SOL    HW2 3291   2.283   0.401   1.770  0.7726 -1.1315 -1.7917
  823SOL     MW 3292   2.352   0.459   1.766 -0.8015 -0.4074  0.2469
  824SOL     OW 3293   2.141   1.464   2.562 -0.3469  0.1488  0.2800
  824SOL    HW1 3294   2.210   1.507   2.513 -0.0576 -1.5258  0.3841
  824SOL    HW2 3295   2.092   1.535   2.601  2.7984 -0.3536  0.2198
  824SOL     MW 3296   2.144   1.479   2.561  0.1063 -0.1385  0.2858
  825SOL     OW 3297   1.855   2.529   0.301 -0.0275 -0.0658  0.7161
  825SOL    HW1 3298   1.880   2.468   0.377 -2.8935 -1.4731  1.7018
  825SOL    HW2 3299   1.928   2.515   0.236  0.2596 -1.8067  1.4214
  825SOL     MW 3300   1.868   2.519   0.302 -0.3677 -0.4812  0.9392
  826SOL     OW 3301   1.858   2.394   0.534  0.2145  0.0191 -0.5350
  826SOL    HW1 3302   1.826   2.315   0.581  1.1322 -1.3205  0.7368
  826SOL    HW2 3303   1.802   2.470   0.561  0.9158 -0.6814 -3.5060
  826SOL     MW 3304   1.846   2.394   0.544  0.4281 -0.2501 -0.7592
  827SOL     OW 3305   1.947   2.190   0.919 -0.0077  0.2183  0.4032
  827SOL    HW1 3306   1.910   2.240   0.843  1.1945  1.6011  1.9946
  827SOL    HW2 3307   1.872   2.145   0.957  0.7402  1.8341 -1.7424
  827SOL     MW 3308   1.932   2.191   0.914  0.2496  0.6139  0.3301
  828SOL     OW 3309   0.054   2.568   0.612 -0.0357  0.1453 -0.1830
  828SOL    HW1 3310   0.144   2.598   0.603 -1.8804  1.2417  0.7066
  828SOL    HW2 3311   0.027   2.632   0.545  3.3429  3.0436  0.7668
  828SOL     MW 3312   0.063   2.580   0.602  0.1666  0.6723  0.0597
  829SOL     OW 3313   2.963   2.971   1.142 -0.2739 -0.2654 -0.2955
  829SOL    HW1 3314   2.883   2.915   1.137 -2.5300  0.4004  0.4919
  829SOL    HW2 3315   3.033   2.904   1.141 -0.2603 -2.1424  0.8922
  829SOL     MW 3316   2.962   2.955   1.142 -0.5698 -0.4252 -0.0349
  830SOL     OW 3317   2.522   2.869   2.027 -0.5715  0.2841  0.0151
  830SOL    HW1 3318   2.425   2.874   2.004 -1.8633 -0.5253 -1.3846
  830SOL    HW2 3319   2.575   2.855   1.949 -1.6028  3.4986  0.0891
  830SOL     MW 3320   2.516   2.868   2.013 -0.8780  0.6015 -0.1598
  831SOL     OW 3321   2.397   2.499   1.242  0.1475 -0.1975  0.1953
  831SOL    HW1 3322   2.368   2.461   1.330  0.7173  0.9318  2.1702
  831SOL    HW2 3323   2.484   2.457   1.227 -2.2465  1.5694  0.6419
  831SOL     MW 3324   2.405   2.488   1.252 -0.0932  0.1846  0.5148
  832SOL     OW 3325   2.368   2.194   1.925  0.0699 -0.3882 -0.0808
  832SOL    HW1 3326   2.389   2.287   1.950 -1.0753  1.6809  0.4531
  832SOL    HW2 3327   2.460   2.169   1.896 -0.2258 -0.9189 -0.1397
  832SOL     MW 3328   2.383   2.203   1.924 -0.1202 -0.1852 -0.0181
  833SOL     OW 3329   1.755   2.424   0.888 -0.0167 -0.4190 -0.3326
  833SOL    HW1 3330   1.674   2.372   0.903  0.0360  0.9029 -0.1580
  833SOL    HW2 3331   1.768   2.446   0.973  3.3330 -2.3086 -3.9596
  833SOL     MW 3332   1.746   2.420   0.901  0.4322 -0.4939 -0.7881
  834SOL     OW 3333   2.126   2.485   0.593  0.4153  0.4285  0.0025
  834SOL    HW1 3334   2.047   2.429   0.580 -1.8157  0.5015  1.2097
  834SOL    HW2 3335   2.172   2.459   0.514  3.8172  3.3483 -0.2687
  834SOL     MW 3336   2.122   2.474   0.581  0.5698  0.8234  0.1260
  835SOL     OW 3337   1.764   2.600   0.664  0.3130  0.1694 -0.1547
  835SOL    HW1 3338   1.755   2.546   0.749 -1.0920 -0.6147  0.6619
  835SOL    HW2 3339   1.834   2.656   0.680 -1.0161  0.1184 -2.2360
  835SOL     MW 3340   1.772   2.600   0.677 -0.0477  0.0592 -0.3216
  836SOL     OW 3341   1.896   2.198   1.618 -0.3631 -0.3819 -0.4149
  836SOL    HW1 3342   1.976   2.245   1.637 -1.3996  0.0423 -1.6699
  836SOL    HW2 3343   1.834   2.270   1.607  2.2481  1.0226 -0.6912
  836SOL     MW 3344   1.898   2.214   1.619 -0.1553 -0.1406 -0.6169
  837SOL     OW 3345   2.089   0.140   0.713  0.2984  0.0404  0.8786
  837SOL    HW1 3346   2.040   0.220   0.684  1.9530  1.0806  0.0387
  837SOL    HW2 3347   2.122   0.101   0.628  1.9900  2.5403 -2.1389
  837SOL     MW 3348   2.087   0.146   0.698  0.7399  0.5075  0.3697
  838SOL     OW 3349   2.934   2.089   0.939  0.3842  0.2072  0.2199
  838SOL    HW1 3350   2.867   2.035   0.982  0.5882 -1.6066 -1.0652
  838SOL    HW2 3351   2.984   2.029   0.884 -1.1549  1.8520 -1.0163
  838SOL     MW 3352   2.932   2.074   0.937  0.2081  0.1849 -0.1128
  839SOL     OW 3353   1.502   2.334   0.960 -0.4414  0.2010 -0.1606
  839SOL    HW1 3354   1.499   2.411   1.018  0.6342  1.3030 -2.9778
  839SOL    HW2 3355   1.523   2.268   1.026  1.4721  1.3681 -0.5493
  839SOL     MW 3356   1.504   2.335   0.976 -0.0470  0.5004 -0.5836
  840SOL     OW 3357   2.364   2.112   2.427 -0.7356 -0.2690 -0.4634
  840SOL    HW1 3358   2.314   2.174   2.387  3.0571 -2.0133 -2.2197
  840SOL    HW2 3359   2.401   2.168   2.498  0.7185 -2.6953  0.9033
  840SOL     MW 3360   2.363   2.128   2.431 -0.0433 -0.8193 -0.5148
  841SOL     OW 3361   2.075   2.487   0.137  0.2840  0.6727 -0.2260
  841SOL    HW1 3362   2.125   2.512   0.056 -0.2291  1.2677  0.3211
  841SOL    HW2 3363   2.046   2.396   0.111 -0.8295  0.0533 -0.2729
  841SOL     MW 3364   2.078   2.478   0.123  0.0694  0.6695 -0.1600
  842SOL     OW 3365   2.566   2.048   1.539  0.3044 -0.9273  0.5857
  842SOL    HW1 3366   2.549   1.955   1.560  1.0891  0.3721  0.6789
  842SOL    HW2 3367   2.540   2.059   1.450 -2.1737 -2.6571 -1.6249
  842SOL     MW 3368   2.560   2.037   1.530  0.0810 -0.9841  0.3063
  843SOL     OW 3369   2.644   2.777   1.776 -0.4501 -0.2585  0.5442
  843SOL    HW1 3370   2.742   2.759   1.774  4.4936 -0.1634 -1.1164
  843SOL    HW2 3371   2.599   2.686   1.764 -0.2796 -1.4536 -0.0497
  843SOL     MW 3372   2.651   2.763   1.774  0.2247 -0.4036  0.2468
  844SOL     OW 3373   2.594   2.328   1.182 -0.0072 -0.1005 -0.2190
  844SOL    HW1 3374   2.627   2.367   1.101 -0.5094 -0.8768  2.5777
  844SOL    HW2 3375   2.684   2.332   1.229 -0.9907 -0.0692  0.9461
  844SOL     MW 3376   2.610   2.334   1.178 -0.2032 -0.1988  0.3037
  845SOL     OW 3377   2.844   2.488   0.287  0.1399  0.1863 -0.2828
  845SOL    HW1 3378   2.804   2.401   0.301  2.6861  0.4069  2.3019
  845SOL    HW2 3379   2.847   2.526   0.378  3.3658 -0.5172 -0.0411
  845SOL     MW 3380   2.839   2.482   0.301  0.9014  0.1226  0.0901
  846SOL     OW 3381   1.509   2.903   0.754 -0.1162  0.4370  0.3458
  846SOL    HW1 3382   1.566   2.928   0.823  0.7845 -2.4715  1.1680
  846SOL    HW2 3383   1.431   2.949   0.776 -1.8817  0.8017  3.0102
  846SOL     MW 3384   1.506   2.913   0.766 -0.2303  0.1014  0.8058
  847SOL     OW 3385   2.612   1.935   0.175 -0.9790  0.5244 -0.4423
  847SOL    HW1 3386   2.691   1.876   0.155 -0.0996 -3.1656 -0.7197
  847SOL    HW2 3387   2.550   1.897   0.107  2.4434 -2.1682  1.3249
  847SOL     MW 3388   2.614   1.922   0.163 -0.4115 -0.3177 -0.2457
  848SOL     OW 3389   2.443   2.112   1.301  1.0090 -0.1280  0.5449
  848SOL    HW1 3390   2.486   2.164   1.228 -0.6350  3.0587  0.4342
  848SOL    HW2 3391   2.419   2.027   1.265 -0.8785  0.3759 -1.8208
  848SOL     MW 3392   2.446   2.107   1.287  0.5431  0.3589  0.2181
  849SOL     OW 3393   1.997   2.760   0.750  0.0301 -0.4465  0.3024
  849SOL    HW1 3394   2.033   2.677   0.783  0.6552  1.8850 -2.3505
  849SOL    HW2 3395   2.074   2.795   0.715  0.7268 -2.3615  0.6987
  849SOL     MW 3396   2.012   2.754   0.750  0.2045 -0.3916  0.0047
  850SOL     OW 3397   2.208   1.971   1.716 -0.0569 -0.5467 -0.0487
  850SOL    HW1 3398   2.120   1.950   1.683  2.2378 -2.2379 -0.5079
  850SOL    HW2 3399   2.215   2.062   1.694 -0.9473  0.2746 -1.6323
  850SOL     MW 3400   2.197   1.980   1.709  0.1284 -0.6615 -0.3183
  851SOL     OW 3401   2.251   2.424   0.349 -0.2853 -0.0567 -0.1265
  851SOL    HW1 3402   2.183   2.425   0.274  0.4923 -1.9141 -0.8312
  851SOL    HW2 3403   2.324   2.486   0.327  1.6237  0.9892 -2.8616
  851SOL     MW 3404   2.252   2.432   0.336  0.0692 -0.1638 -0.5804
  852SOL     OW 3405   2.334   2.164   0.219  0.5861  0.1767  0.3114
  852SOL    HW1 3406   2.306   2.225   0.290 -0.3782  1.5069  1.6785
  852SOL    HW2 3407   2.402   2.203   0.177 -2.2737 -0.8075  0.5725
  852SOL     MW 3408   2.340   2.177   0.223  0.0815  0.2224  0.5262
  853SOL     OW 3409   2.459   2.452   1.981  0.7474 -0.1929  0.5218
  853SOL    HW1 3410   2.478   2.475   1.891 -1.3459 -0.3255  0.3867
  853SOL    HW2 3411   2.544   2.437   2.017  1.0420 -0.3718  1.9002
  853SOL     MW 3412   2.473   2.453   1.974  0.5101 -0.2340  0.6859
  854SOL     OW 3413   2.813   2.275   0.774 -0.1850  0.0608  0.3599
  854SOL    HW1 3414   2.761   2.238   0.703 -1.3180 -0.4501 -0.0150
  854SOL    HW2 3415   2.849   2.198   0.823 -0.3218  0.3241 -0.2341
  854SOL     MW 3416   2.811   2.260   0.771 -0.3525  0.0281  0.2321
  855SOL     OW 3417   2.687   2.263   0.365  0.1475 -0.0625 -0.3063
  855SOL    HW1 3418   2.647   2.321   0.438  0.7704 -1.1058  2.5559
  855SOL    HW2 3419   2.768   2.217   0.385  0.4363 -0.1190  0.7631
  855SOL     MW 3420   2.693   2.265   0.378  0.2678 -0.2076  0.2125
  856SOL     OW 3421   2.204   1.915   0.200  0.3530 -0.0259 -0.2573
  856SOL    HW1 3422   2.107   1.919   0.219 -1.7159 -0.7032 -1.9843
  856SOL    HW2 3423   2.255   1.997   0.216  1.3431  0.6813 -0.1863
  856SOL     MW 3424   2.198   1.926   0.205  0.2106 -0.0219 -0.4758
  857SOL     OW 3425   2.584   1.990   0.462 -0.3391 -0.3983 -0.5068
  857SOL    HW1 3426   2.627   2.066   0.413  2.0594  0.9774 -1.2630
  857SOL    HW2 3427   2.518   1.956   0.407  1.8275 -0.4298  2.1371
  857SOL     MW 3428   2.581   1.996   0.448  0.2632 -0.2210 -0.2577
  858SOL     OW 3429   2.857   2.656   1.650 -0.8991  0.0636 -0.3616
  858SOL    HW1 3430   2.949   2.675   1.671  0.8981  2.5881 -2.5687
  858SOL    HW2 3431   2.842   2.571   1.690 -1.5736 -1.1473 -0.5941
  858SOL     MW 3432   2.867   2.648   1.658 -0.7510  0.2369 -0.6834
  859SOL     OW 3433   2.100   2.539   0.878  0.0361  0.4870 -0.3231
  859SOL    HW1 3434   2.103   2.491   0.797 -0.1457 -1.1852  2.7179
  859SOL    HW2 3435   2.190   2.538   0.904  0.3064 -1.0026  2.6190
  859SOL     MW 3436   2.112   2.533   0.871  0.0478  0.0699  0.4663
  860SOL     OW 3437   2.639   2.582   0.132 -0.3655  0.3403  0.0360
  860SOL    HW1 3438   2.698   2.560   0.204 -1.6567  1.8604 -0.0176
  860SOL    HW2 3439   2.672   2.662   0.092 -0.7904 -1.1693 -2.4460
  860SOL     MW 3440   2.651   2.589   0.137 -0.5919  0.3417 -0.2985
  861SOL     OW 3441   1.531   2.134   1.155  0.0582 -0.8184 -0.4910
  861SOL    HW1 3442   1.558   2.194   1.234  1.6004  1.8518  0.4160
  861SOL    HW2 3443   1.494   2.057   1.189 -2.2906 -0.5932  0.9620
  861SOL     MW 3444   1.529   2.132   1.170 -0.0482 -0.4364 -0.1797
  862SOL     OW 3445   2.430   1.781   1.563 -0.4960 -0.1648 -0.3626
  862SOL    HW1 3446   2.395   1.837   1.633  3.7173  0.6994  2.7523
  862SOL    HW2 3447   2.381   1.797   1.486 -0.5387 -0.2932  0.1388
  862SOL     MW 3448   2.419   1.791   1.562  0.0543 -0.0678  0.1146
  863SOL     OW 3449   0.059   1.897   1.147 -0.3410  0.5537 -0.3369
  863SOL    HW1 3450   0.150   1.917   1.156 -1.1992 -1.1050  1.2827
  863SOL    HW2 3451   0.002   1.974   1.171 -2.0946  2.1342  1.2461
  863SOL     MW 3452   0.063   1.909   1.152 -0.6856  0.5434  0.0856
  864SOL     OW 3453   0.028   1.888   0.854  0.0191  0.3544 -0.0378
  864SOL    HW1 3454   0.029   1.868   0.948 -0.2832  3.3980  0.6279
  864SOL    HW2 3455  -0.008   1.811   0.811  0.0171  4.6182  1.2575
  864SOL     MW 3456   0.024   1.875   0.860 -0.0210  1.3186  0.2209
  865SOL     OW 3457   2.605   2.158   0.023  0.7305  0.1584 -0.3404
  865SOL    HW1 3458   2.607   2.087   0.092 -0.0891  0.2629 -0.8644
  865SOL    HW2 3459   2.571   2.111  -0.053 -1.1534  0.2899  1.4749
  865SOL     MW 3460   2.601   2.142   0.022  0.3738  0.1896 -0.1701
  866SOL     OW 3461   2.664   2.310   1.614  0.4525 -0.1881 -0.3771
  866SOL    HW1 3462   2.648   2.216   1.612  1.1337  1.1691  1.0180
  866SOL    HW2 3463   2.686   2.330   1.521  2.6536 -0.5471  0.0759
  866SOL     MW 3464   2.665   2.300   1.602  0.8328 -0.0564 -0.1333
  867SOL     OW 3465   0.017   2.663   1.798 -0.4188  0.2105 -0.2700
  867SOL    HW1 3466   0.036   2.641   1.894 -1.4314 -0.0418  0.7129
  867SOL    HW2 3467  -0.004   2.753   1.796  0.1334 -0.7051  0.4676
  867SOL     MW 3468   0.017   2.672   1.810 -0.4796  0.0564 -0.0430
  868SOL     OW 3469   2.817   2.582   0.544  0.4395 -0.1876 -0.3187
  868SOL    HW1 3470   2.730   2.538   0.551  0.4852  0.7079 -3.1006
  868SOL    HW2 3471   2.799   2.659   0.493 -2.8962 -2.4822  0.1022
  868SOL     MW 3472   2.803   2.586   0.538  0.0054 -0.3722 -0.6302
  869SOL     OW 3473   1.992   2.389   1.102  0.3049 -0.2198  0.7272
  869SOL    HW1 3474   2.020   2.469   1.056  1.3353  0.5959  0.1173
  869SOL    HW2 3475   1.964   2.336   1.020  0.5134 -1.9089 -2.5990
  869SOL     MW 3476   1.992   2.392   1.085  0.4683 -0.3350  0.2079
  870SOL     OW 3477   2.162   0.028   0.455 -0.5587  0.1131  0.0808
  870SOL    HW1 3478   2.244   0.073   0.413 -2.0341 -0.3387 -1.4996
  870SOL    HW2 3479   2.181  -0.069   0.443 -0.2137  1.4288  0.3367
  870SOL     MW 3480   2.176   0.021   0.448 -0.7078  0.2271 -0.0940
  871SOL     OW 3481   2.485   2.134   0.968 -0.7806  0.5370 -0.0676
  871SOL    HW1 3482   2.437   2.058   0.938  0.3997  0.2438  0.1013
  871SOL    HW2 3483   2.422   2.208   0.980 -0.5567  1.8787  0.1622
  871SOL     MW 3484   2.470   2.134   0.966 -0.5953  0.6754 -0.0150
  872SOL     OW 3485   2.049   2.562   1.435 -0.2036  0.0962  0.0674
  872SOL    HW1 3486   2.015   2.615   1.513 -0.6339  0.1645  0.4803
  872SOL    HW2 3487   1.985   2.491   1.421 -0.0844 -1.9301 -1.2854
  872SOL     MW 3488   2.036   2.560   1.444 -0.2446 -0.1622 -0.0566
  873SOL     OW 3489   2.911   2.072   1.936 -0.2932 -0.8727  0.0903
  873SOL    HW1 3490   2.959   2.140   1.988  1.0546  1.0682 -0.8261
  873SOL    HW2 3491   2.944   2.065   1.841  0.2429  3.0121 -0.8879
  873SOL     MW 3492   2.922   2.080   1.930 -0.0446 -0.1041 -0.1596
  874SOL     OW 3493   2.383   1.517   2.376  0.0342 -0.9193 -0.6851
  874SOL    HW1 3494   2.324   1.462   2.321  0.0495  1.0288 -0.7406
  874SOL    HW2 3495   2.441   1.455   2.420  1.8151 -3.0860  0.9333
  874SOL     MW 3496   2.383   1.501   2.374  0.2712 -0.9482 -0.4789
  875SOL     OW 3497   2.288   2.281   1.059 -0.1648  0.5084  0.2338
  875SOL    HW1 3498   2.228   2.309   0.988  1.2612 -0.0894 -1.4324
  875SOL    HW2 3499   2.333   2.356   1.106  0.1910 -1.6884  1.7760
  875SOL     MW 3500   2.286   2.294   1.056  0.0702  0.1397  0.2174
  876SOL     OW 3501   3.037   2.313   1.231  0.2553 -0.9456  0.0509
  876SOL    HW1 3502   3.093   2.327   1.147  1.7940 -1.4760 -0.8511
  876SOL    HW2 3503   3.084   2.365   1.298 -1.0383  4.4731 -0.3561
  876SOL     MW 3504   3.050   2.322   1.229  0.2877 -0.3007 -0.1218
  877SOL     OW 3505   3.084   2.751   0.390  0.2396 -0.7937 -0.2484
  877SOL    HW1 3506   3.133   2.831   0.410  0.8581  1.0163 -2.2522
  877SOL    HW2 3507   3.081   2.736   0.296 -0.4617 -0.4904 -0.2674
  877SOL     MW 3508   3.090   2.759   0.380  0.2287 -0.5148 -0.5153
  878SOL     OW 3509   2.408   1.822   1.250  0.2677  0.1681  0.5119
  878SOL    HW1 3510   2.348   1.747   1.254 -1.5118  1.8728 -0.5392
  878SOL    HW2 3511   2.496   1.787   1.257  2.7768  0.6923 -2.0119
  878SOL     MW 3512   2.412   1.807   1.251  0.3639  0.4622  0.0402
  879SOL     OW 3513   2.679   2.446   0.937  0.1199 -0.6595  0.3674
  879SOL    HW1 3514   2.737   2.516   0.960 -0.7726  0.1596  0.7617
  879SOL    HW2 3515   2.723   2.382   0.873  0.0717  0.5535 -1.9070
  879SOL     MW 3516   2.693   2.447   0.932 -0.0042 -0.3914  0.1194
  880SOL     OW 3517   2.534   2.170   0.675 -0.5717 -0.6082  0.3116
  880SOL    HW1 3518   2.525   2.142   0.760  0.6303  1.2877 -1.5484
  880SOL    HW2 3519   2.543   2.094   0.614 -3.2665 -1.1790 -3.0170
  880SOL     MW 3520   2.534   2.156   0.678 -0.7687 -0.4333 -0.3730
  881SOL     OW 3521   2.949   2.660   0.761  0.0534 -0.1776  0.9275
  881SOL    HW1 3522   2.915   2.628   0.676  1.3249  1.7414 -1.8440
  881SOL    HW2 3523   3.044   2.655   0.749  1.1569 -0.4148  1.2864
  881SOL     MW 3524   2.957   2.655   0.748  0.3668  0.0443  0.6092
  882SOL     OW 3525   2.247   2.864   1.964 -0.1316  0.6055 -0.5791
  882SOL    HW1 3526   2.268   2.829   1.875 -2.7113 -0.8847 -1.1116
  882SOL    HW2 3527   2.217   2.781   2.010  0.4981 -0.1881 -0.4707
  882SOL     MW 3528   2.246   2.849   1.958 -0.3889  0.3042 -0.6350
  883SOL     OW 3529   2.315   2.321   1.437 -0.0921  0.2016  0.2093
  883SOL    HW1 3530   2.358   2.241   1.402  0.4274 -1.8157 -0.6192
  883SOL    HW2 3531   2.223   2.305   1.406  0.9616 -0.5377 -1.0699
  883SOL     MW 3532   2.309   2.308   1.428  0.1155 -0.1621 -0.0688
  884SOL     OW 3533   1.994   1.848   1.125  0.7647 -0.1401  0.3389
  884SOL    HW1 3534   1.914   1.903   1.118 -0.4067  0.5247 -0.1730
  884SOL    HW2 3535   2.065   1.902   1.151 -1.1337  0.9888 -0.3075
  884SOL     MW 3536   1.993   1.862   1.127  0.3597  0.0966  0.1861
  885SOL     OW 3537   2.827   2.434   1.817 -0.3878  0.2556 -0.3962
  885SOL    HW1 3538   2.917   2.392   1.827  0.6203  0.6837 -0.7755
  885SOL    HW2 3539   2.774   2.361   1.771 -0.4187  0.0415 -1.4538
  885SOL     MW 3540   2.832   2.419   1.813 -0.2588  0.2839 -0.5858
  886SOL     OW 3541   2.801   2.365   1.343  0.0700 -0.0231  0.2160
  886SOL    HW1 3542   2.884   2.345   1.299 -0.4762  2.3858  0.6184
  886SOL    HW2 3543   2.800   2.462   1.339 -0.1802  0.2922 -2.3120
  886SOL     MW 3544   2.811   2.375   1.337 -0.0350  0.3363 -0.0645
  887SOL     OW 3545   2.306   2.610   1.544 -0.2670 -0.3019 -0.0486
  887SOL    HW1 3546   2.329   2.651   1.453 -2.7909 -0.9362 -0.0797
  887SOL    HW2 3547   2.214   2.587   1.527 -0.8085  0.2133  0.1392
  887SOL     MW 3548   2.297   2.613   1.530 -0.6714 -0.3176 -0.0279
  888SOL     OW 3549   1.859   2.075   1.385 -0.6172  0.5684 -0.1844
  888SOL    HW1 3550   1.927   2.097   1.323 -1.8555 -2.1152  0.2710
  888SOL    HW2 3551   1.885   2.103   1.475  2.3596 -0.1476  1.5344
  888SOL     MW 3552   1.871   2.081   1.389 -0.3878  0.1199  0.1024
  889SOL     OW 3553   2.313   1.982   2.114  0.3156 -0.2803 -0.2126
  889SOL    HW1 3554   2.402   1.970   2.146  0.9650 -0.6575 -1.0334
  889SOL    HW2 3555   2.313   2.057   2.055  0.5488 -0.1791 -1.3740
  889SOL     MW 3556   2.325   1.991   2.110  0.4320 -0.3167 -0.4742
  890SOL     OW 3557   0.087   2.373   0.207  0.4032  0.0728 -0.2092
  890SOL    HW1 3558   0.045   2.456   0.184  0.7345  3.2146 -0.2456
  890SOL    HW2 3559   0.047   2.339   0.286 -3.1318  1.6564 -2.1756
  890SOL     MW 3560   0.076   2.379   0.214 -0.0195  0.6963 -0.4734
  891SOL     OW 3561   2.981   2.057   1.296  0.1329  0.5845 -0.1344
  891SOL    HW1 3562   3.057   2.051   1.359 -0.3356  0.3744 -0.5680
  891SOL    HW2 3563   2.987   2.152   1.273 -1.8286  0.0764  2.2027
  891SOL     MW 3564   2.992   2.069   1.301 -0.1877  0.4898  0.1167
  892SOL     OW 3565   2.430   2.365   2.857  0.3462 -0.1243 -0.2468
  892SOL    HW1 3566   2.426   2.272   2.879  0.0198  1.5981 -0.9870
  892SOL    HW2 3567   2.522   2.394   2.859 -0.4791  0.3974 -2.7693
  892SOL     MW 3568   2.441   2.356   2.860  0.1942  0.1718 -0.6773
  893SOL     OW 3569   1.587   2.384   1.266  0.2328 -0.8401  0.5634
  893SOL    HW1 3570   1.529   2.440   1.327 -0.6967 -0.0190  0.8972
  893SOL    HW2 3571   1.661   2.374   1.325 -2.1190 -1.3976 -0.0187
  893SOL     MW 3572   1.589   2.390   1.282 -0.2001 -0.8053  0.5306
  894SOL     OW 3573   2.820   1.821   0.437  0.1756 -0.6588  0.0521
  894SOL    HW1 3574   2.723   1.857   0.435 -4.6320  2.7730 -1.5793
  894SOL    HW2 3575   2.838   1.785   0.352  0.7884 -0.9380  2.1886
  894SOL     MW 3576   2.809   1.821   0.426 -0.3779 -0.2429  0.1188
  895SOL     OW 3577   2.072   2.227   1.310  0.1136 -0.1161  0.0155
  895SOL    HW1 3578   2.066   2.285   1.236  0.5704 -1.3054  1.8469
  895SOL    HW2 3579   2.127   2.156   1.268  0.4475  1.0085  2.4143
  895SOL     MW 3580   2.079   2.225   1.295  0.2180 -0.1247  0.5736
  896SOL     OW 3581   2.141   2.825   1.090 -0.3731 -0.1721  0.1442
  896SOL    HW1 3582   2.204   2.824   1.158 -1.2867  2.1052 -0.5288
  896SOL    HW2 3583   2.069   2.770   1.129  0.4083  0.3939 -1.1974
  896SOL     MW 3584   2.140   2.818   1.104 -0.3905  0.2030 -0.1216
  897SOL     OW 3585   2.997   2.915   0.093  0.3174  0.4376  0.0522
  897SOL    HW1 3586   3.090   2.909   0.063 -0.2681  1.4694 -3.2072
  897SOL    HW2 3587   2.935   2.868   0.043  2.7293  0.0916  1.7484
  897SOL     MW 3588   3.001   2.908   0.082  0.5583  0.5281 -0.1540
  898SOL     OW 3589   2.089   0.237   1.417 -0.2447  0.8700 -0.5342
  898SOL    HW1 3590   2.033   0.158   1.421 -1.1940 -1.6111  1.2013
  898SOL    HW2 3591   2.091   0.254   1.323  0.7062  0.6322 -0.9240
  898SOL     MW 3592   2.082   0.229   1.405 -0.2445  0.5113 -0.3567
  899SOL     OW 3593   2.910   2.903   0.655 -0.0636 -0.8120 -0.2735
  899SOL    HW1 3594   2.923   2.818   0.702  0.7340 -0.0510 -0.7095
  899SOL    HW2 3595   2.827   2.947   0.683 -0.3217 -0.3158 -0.9838
  899SOL     MW 3596   2.901   2.897   0.665  0.0076 -0.6461 -0.4247
  900SOL     OW 3597   0.096   2.389   1.032 -0.5360  0.2675 -0.2548
  900SOL    HW1 3598   0.121   2.476   1.010 -1.5112  1.3044  0.7940
  900SOL    HW2 3599   0.107   2.340   0.949  1.3523  0.0684 -0.2021
  900SOL     MW 3600   0.101   2.394   1.018 -0.4155  0.3780 -0.1095
  901SOL     OW 3601   1.799   2.856   1.672  0.0559 -0.0953  0.4218
  901SOL    HW1 3602   1.853   2.777   1.673  0.3504  1.1093  2.4217
  901SOL    HW2 3603   1.721   2.840   1.613 -1.4317  0.5035 -0.7835
  901SOL     MW 3604   1.795   2.843   1.665 -0.1015  0.1426  0.5266
  902SOL     OW 3605   2.638   2.095   1.859  0.7756  0.7117 -0.1334
  902SOL    HW1 3606   2.618   2.003   1.851 -1.7326  0.8670  2.3629
  902SOL    HW2 3607   2.735   2.091   1.878  0.4663 -1.7175  0.2881
  902SOL     MW 3608   2.648   2.082   1.860  0.4039  0.4117  0.2516
  903SOL     OW 3609   1.616   2.773   0.524  0.2301  0.0846  0.0540
  903SOL    HW1 3610   1.662   2.696   0.569  0.4368  0.8591  0.2983
  903SOL    HW2 3611   1.586   2.820   0.602  0.1327 -1.8525  2.4945
  903SOL     MW 3612   1.618   2.769   0.540  0.2445 -0.0688  0.4083
  904SOL     OW 3613   2.494   2.532   1.720  0.3603 -0.5021 -0.1899
  904SOL    HW1 3614   2.434   2.553   1.647 -0.0867 -0.5471  1.7781
  904SOL    HW2 3615   2.539   2.455   1.692 -0.7691  1.7640  1.6510
  904SOL     MW 3616   2.492   2.525   1.706  0.1523 -0.2091  0.3126
  905SOL     OW 3617   2.311   2.520   2.204 -0.4521  0.4459 -0.1393
  905SOL    HW1 3618   2.381   2.496   2.139  0.9762  0.5026  0.1428
  905SOL    HW2 3619   2.298   2.438   2.265  1.5592  1.4940 -0.7701
  905SOL     MW 3620   2.318   2.506   2.203  0.0017  0.5916 -0.1853
  906SOL     OW 3621   2.406   2.507   0.884  0.0633  0.2904  0.6865
  906SOL    HW1 3622   2.495   2.482   0.911  0.0033 -2.6686  0.2714
  906SOL    HW2 3623   2.395   2.602   0.888  0.3921  2.0444 -1.8410
  906SOL     MW 3624   2.416   2.516   0.888  0.0987  0.1314  0.2983
  907SOL     OW 3625   2.555   2.914   1.294 -0.3689 -0.6106  0.5455
  907SOL    HW1 3626   2.624   2.967   1.339 -0.1028 -2.7154  1.2181
  907SOL    HW2 3627   2.613   2.877   1.219 -3.4776 -0.8501  0.8338
  907SOL     MW 3628   2.572   2.916   1.290 -0.7440 -0.9199  0.6723
  908SOL     OW 3629   2.763   2.377   3.088 -0.0338 -0.7234  0.4084
  908SOL    HW1 3630   2.712   2.292   3.120  2.2756 -0.2146  1.6919
  908SOL    HW2 3631   2.738   2.443   3.154 -1.8298  0.0675  1.2998
  908SOL     MW 3632   2.753   2.375   3.101  0.0339 -0.5519  0.6954
  909SOL     OW 3633   1.590   0.180   1.137  0.1146  0.0135  0.9614
  909SOL    HW1 3634   1.646   0.219   1.073 -1.6422 -2.1022 -0.4416
  909SOL    HW2 3635   1.607   0.234   1.216  0.7225 -0.7798 -0.7694
  909SOL     MW 3636   1.600   0.192   1.139 -0.0370 -0.3703  0.5479
  910SOL     OW 3637   2.302   1.767   0.435  0.6315  0.5658  0.5402
  910SOL    HW1 3638   2.231   1.706   0.450 -0.0232  1.4153 -0.0868
  910SOL    HW2 3639   2.278   1.813   0.351  0.4500  0.3522 -0.7384
  910SOL     MW 3640   2.289   1.765   0.426  0.5212  0.6497  0.2888
  911SOL     OW 3641   2.206   2.256   1.708  0.0442  0.0197  0.1913
  911SOL    HW1 3642   2.266   2.236   1.784 -1.1239  0.8496 -0.9655
  911SOL    HW2 3643   2.271   2.285   1.636  1.1011 -0.7137  0.4169
  911SOL     MW 3644   2.223   2.257   1.709  0.0295  0.0324  0.0684
  912SOL     OW 3645   2.843   1.947   1.528 -0.1714 -0.6887 -0.1831
  912SOL    HW1 3646   2.853   1.978   1.435  0.4006  1.9331 -2.2449
  912SOL    HW2 3647   2.771   2.002   1.549  0.4212  1.0463 -1.8925
  912SOL     MW 3648   2.835   1.958   1.518 -0.0177 -0.1138 -0.6807
  913SOL     OW 3649   2.565   2.985   0.380  0.3475  0.2547 -0.7128
  913SOL    HW1 3650   2.640   2.924   0.373  0.1383 -0.9373 -1.3949
  913SOL    HW2 3651   2.496   2.929   0.414 -0.5338  0.3705  0.7347
  913SOL     MW 3652   2.566   2.970   0.383  0.2036  0.1127 -0.6118
  914SOL     OW 3653   2.760   1.619   3.045  0.1827 -0.1748 -0.6898
  914SOL    HW1 3654   2.758   1.694   2.989 -0.2162 -0.3008  0.9603
  914SOL    HW2 3655   2.685   1.622   3.117 -2.0232  2.3540 -1.0708
  914SOL     MW 3656   2.750   1.629   3.047 -0.1610  0.1422 -0.5224
  915SOL     OW 3657   1.814   0.258   0.171 -0.0691 -0.0064  0.3023
  915SOL    HW1 3658   1.843   0.191   0.228  0.8458  0.3552 -1.6768
  915SOL    HW2 3659   1.719   0.252   0.180 -0.0877  0.6768 -0.0850
  915SOL     MW 3660   1.805   0.249   0.180  0.0492  0.1315 -0.0099
  916SOL     OW 3661   1.722   2.082   1.943 -0.2889 -0.2649 -0.4492
  916SOL    HW1 3662   1.770   2.166   1.915  2.0008 -0.8220  1.4137
  916SOL    HW2 3663   1.732   2.020   1.868 -1.6695 -2.9705 -0.0560
  916SOL     MW 3664   1.730   2.085   1.930 -0.1689 -0.6954 -0.1516
  917SOL     OW 3665   2.426   2.314   2.589 -0.1434  0.4096 -0.3273
  917SOL    HW1 3666   2.454   2.322   2.683 -0.9855 -1.6110  0.6635
  917SOL    HW2 3667   2.495   2.347   2.532  0.5339 -0.3942  0.6913
  917SOL     MW 3668   2.439   2.319   2.594 -0.1651  0.0370 -0.0622
  918SOL     OW 3669   2.014   1.645   2.716 -0.4828 -0.7399 -0.3256
  918SOL    HW1 3670   1.948   1.677   2.652  1.2493  1.4941  1.3809
  918SOL    HW2 3671   2.089   1.703   2.693  0.3570  2.5466 -0.9453
  918SOL     MW 3672   2.015   1.657   2.704 -0.1435 -0.0115 -0.1822
  919SOL     OW 3673   0.058   2.357   2.265 -0.1076 -0.1182 -0.0845
  919SOL    HW1 3674  -0.019   2.295   2.236 -1.4970 -0.6292 -0.1965
  919SOL    HW2 3675   0.117   2.336   2.187 -0.1394  2.1587 -1.4753
  919SOL     MW 3676   0.056   2.346   2.251 -0.2951  0.1148 -0.2828
  920SOL     OW 3677   2.757   2.791   3.093  0.1566 -0.1994  0.2509
  920SOL    HW1 3678   2.692   2.861   3.126 -2.0724 -2.3459 -1.2492
  920SOL    HW2 3679   2.721   2.769   3.000 -0.7857 -1.1713 -1.1387
  920SOL     MW 3680   2.743   2.798   3.085 -0.2618 -0.6109 -0.1303
  921SOL     OW 3681   2.439   2.627   2.690 -0.6958  0.5450  0.1620
  921SOL    HW1 3682   2.527   2.631   2.654 -2.5599 -0.7145  2.9723
  921SOL    HW2 3683   2.434   2.534   2.715  1.8122 -2.0609  0.0475
  921SOL     MW 3684   2.450   2.615   2.689 -0.6108  0.0350  0.5177
  922SOL     OW 3685   2.002   2.779   0.322  0.1030 -0.3324 -0.4263
  922SOL    HW1 3686   1.992   2.768   0.228  0.4619 -0.0752 -0.8022
  922SOL    HW2 3687   1.964   2.705   0.355  2.7139  1.4053 -0.5475
  922SOL     MW 3688   1.995   2.768   0.314  0.4948 -0.0692 -0.4919
  923SOL     OW 3689   2.216   2.798   1.703 -0.1427 -0.3864  0.8244
  923SOL    HW1 3690   2.261   2.730   1.643 -1.4277 -0.1926 -1.0140
  923SOL    HW2 3691   2.193   2.879   1.658  0.5990  1.4430  1.3826
  923SOL     MW 3692   2.219   2.800   1.689 -0.2144 -0.1195  0.6555
  924SOL     OW 3693   1.191   2.698   2.564 -0.0636 -0.4223 -0.2721
  924SOL    HW1 3694   1.250   2.759   2.514 -1.4887  1.5954 -0.4262
  924SOL    HW2 3695   1.250   2.632   2.608  0.8633 -2.3875 -0.2199
  924SOL     MW 3696   1.207   2.697   2.563 -0.1294 -0.4154 -0.2855
  925SOL     OW 3697   2.961   0.227   2.585 -0.1872 -0.1540  0.3870
  925SOL    HW1 3698   3.011   0.265   2.502  0.2843 -0.5532 -1.8262
  925SOL    HW2 3699   2.912   0.300   2.618  0.4831  1.2919  0.6248
  925SOL     MW 3700   2.961   0.242   2.578 -0.0366 -0.0159  0.1264
  926SOL     OW 3701   2.738   2.406   2.062 -0.1314 -0.1268  0.5857
  926SOL    HW1 3702   2.784   2.465   2.123  3.2554 -0.1260 -0.7121
  926SOL    HW2 3703   2.779   2.426   1.977  0.8916 -0.6071  2.2858
  926SOL     MW 3704   2.750   2.417   2.059  0.4504 -0.1901  0.6388
  927SOL     OW 3705   2.329   0.186   0.302 -0.2694  0.7361 -0.1346
  927SOL    HW1 3706   2.424   0.176   0.292  1.2821  0.3881  0.6594
  927SOL    HW2 3707   2.290   0.154   0.218 -1.1328 -3.0324 -1.0953
  927SOL     MW 3708   2.336   0.181   0.290 -0.1786  0.1930 -0.1566
  928SOL     OW 3709   2.079   2.435   1.854 -0.0562 -0.0387  0.2053
  928SOL    HW1 3710   2.125   2.365   1.805 -0.3401 -1.6254  1.7465
  928SOL    HW2 3711   2.138   2.468   1.924  0.9273  1.6356 -0.5694
  928SOL     MW 3712   2.093   2.430   1.857  0.0361 -0.0272  0.3064
  929SOL     OW 3713   2.665   2.360   2.433  0.2377 -0.0454 -0.1581
  929SOL    HW1 3714   2.733   2.343   2.366 -0.0802 -0.8653  2.1322
  929SOL    HW2 3715   2.707   2.318   2.506 -2.0290  0.3522 -1.3069
  929SOL     MW 3716   2.680   2.352   2.434 -0.1033 -0.1012 -0.0075
  930SOL     OW 3717   2.015   2.863   2.674 -0.2227 -0.2769  0.2459
  930SOL    HW1 3718   2.017   2.795   2.750  1.3420 -2.4504  1.1838
  930SOL    HW2 3719   2.101   2.893   2.665 -1.5615 -0.1428 -0.9331
  930SOL     MW 3720   2.026   2.858   2.683 -0.1929 -0.5460  0.2141
  931SOL     OW 3721   2.958   2.814   2.263  0.1574 -0.2612  0.1596
  931SOL    HW1 3722   3.021   2.832   2.337  2.5426 -1.8324  0.7986
  931SOL    HW2 3723   3.008   2.784   2.188 -1.0080  0.2797  2.5306
  931SOL     MW 3724   2.973   2.812   2.263  0.3183 -0.3971  0.5567
  932SOL     OW 3725   2.909   1.961   2.519  0.1280  0.3766 -0.8935
  932SOL    HW1 3726   2.999   1.987   2.548 -0.8075 -1.8166  0.5025
  932SOL    HW2 3727   2.907   1.962   2.422 -0.9635  1.6327 -0.9387
  932SOL     MW 3728   2.920   1.965   2.510 -0.1394  0.2530 -0.7152
  933SOL     OW 3729   2.080   2.891   2.232 -0.3529 -0.1751  0.3291
  933SOL    HW1 3730   2.165   2.922   2.266  0.5731 -0.4120 -0.1576
  933SOL    HW2 3731   2.025   2.967   2.223  0.2867  1.5230  1.0754
  933SOL     MW 3732   2.084   2.905   2.235 -0.1463  0.0176  0.3634
  934SOL     OW 3733   1.997   2.724   2.437 -0.0560 -0.0425 -0.2112
  934SOL    HW1 3734   1.992   2.784   2.515  0.5331  0.5616  0.5366
  934SOL    HW2 3735   2.040   2.775   2.368 -0.4122  1.2875 -1.7263
  934SOL     MW 3736   2.002   2.739   2.439 -0.0253  0.2127 -0.3125
  935SOL     OW 3737   2.633   1.558   1.820 -0.2969  0.7804  0.7933
  935SOL    HW1 3738   2.723   1.541   1.780  1.0416 -0.3558  0.9203
  935SOL    HW2 3739   2.566   1.514   1.762 -3.0362  0.2865 -1.8850
  935SOL     MW 3740   2.636   1.550   1.807 -0.4817  0.5653  0.4567
  936SOL     OW 3741   3.012   2.246   3.077  0.2040  0.4527 -0.4249
  936SOL    HW1 3742   3.095   2.269   3.115 -0.5160  1.6410 -0.2907
  936SOL    HW2 3743   2.938   2.302   3.109  1.2884  0.6589  0.2040
  936SOL     MW 3744   3.013   2.257   3.086  0.2521  0.6367 -0.3242
  937SOL     OW 3745   2.018   2.168   2.690 -0.4747 -0.3072  0.0150
  937SOL    HW1 3746   2.100   2.142   2.731  3.0843 -0.2333  0.1644
  937SOL    HW2 3747   2.014   2.110   2.609 -2.7703 -0.2235 -0.2495
  937SOL     MW 3748   2.029   2.157   2.684 -0.3080 -0.2864 -0.0002
  938SOL     OW 3749   2.295   1.803   1.884  0.3090  0.1947 -0.2457
  938SOL    HW1 3750   2.251   1.859   1.810 -1.2299  0.0650  1.3094
  938SOL    HW2 3751   2.306   1.856   1.963 -2.0858  0.3244  0.2981
  938SOL     MW 3752   2.290   1.817   1.885 -0.2100  0.1947  0.0313
  939SOL     OW 3753   2.837   1.998   2.251  0.3562 -0.2459 -0.2075
  939SOL    HW1 3754   2.831   1.920   2.193 -2.9256 -0.1504 -0.5394
  939SOL    HW2 3755   2.746   2.019   2.273  0.6336 -0.6447 -4.1921
  939SOL     MW 3756   2.824   1.990   2.246 -0.0402 -0.2859 -0.7770
  940SOL     OW 3757   2.311   0.163   2.687  0.3665  0.1447  0.0598
  940SOL    HW1 3758   2.288   0.074   2.651 -0.1454 -1.9252 -1.1791
  940SOL    HW2 3759   2.364   0.144   2.768  0.0074  0.8367 -1.8017
  940SOL     MW 3760   2.315   0.149   2.693  0.2515 -0.0371 -0.3493
  941SOL     OW 3761   0.221   2.278   2.040  0.0980 -0.6119 -0.2050
  941SOL    HW1 3762   0.308   2.239   2.069 -1.6682  2.8475 -2.3185
  941SOL    HW2 3763   0.195   2.238   1.963  0.9429 -2.7008  6.2259
  941SOL     MW 3764   0.229   2.268   2.034 -0.0235 -0.4311  0.3647
  942SOL     OW 3765   2.934   2.226   2.172 -0.2160  0.1094 -0.5084
  942SOL    HW1 3766   2.862   2.271   2.117 -0.2369  0.2459 -1.3637
  942SOL    HW2 3767   2.900   2.133   2.182 -0.3933  2.8975  0.6251
  942SOL     MW 3768   2.920   2.219   2.166 -0.2422  0.4953 -0.4717
  943SOL     OW 3769   0.383   2.005   2.316 -0.9248  0.0819  0.5723
  943SOL    HW1 3770   0.342   2.064   2.375  2.4452  1.2721  0.1197
  943SOL    HW2 3771   0.470   1.991   2.358 -0.2663  2.5829  0.0057
  943SOL     MW 3772   0.389   2.011   2.329 -0.3932  0.5689  0.4378
  944SOL     OW 3773   2.110   2.652   2.087 -0.0670  0.0980 -0.2242
  944SOL    HW1 3774   2.180   2.612   2.142 -0.9651  1.0048 -0.5099
  944SOL    HW2 3775   2.077   2.726   2.140 -0.6089  0.1112 -0.7984
  944SOL     MW 3776   2.115   2.657   2.101 -0.2570  0.2194 -0.3376
  945SOL     OW 3777   2.771   2.710   2.839 -0.4288  0.2707  0.3872
  945SOL    HW1 3778   2.710   2.632   2.841 -2.7598  0.9880  1.2065
  945SOL    HW2 3779   2.810   2.709   2.749 -1.1934 -1.5531  0.4438
  945SOL     MW 3780   2.768   2.699   2.828 -0.8372  0.1247  0.5028
  946SOL     OW 3781   2.458   2.744   2.263  0.2082  0.3651 -0.2560
  946SOL    HW1 3782   2.485   2.776   2.178  0.4333 -2.7954 -1.2095
  946SOL    HW2 3783   2.407   2.665   2.247  1.4981  3.2556 -1.4675
  946SOL     MW 3784   2.455   2.738   2.249  0.4081  0.3295 -0.5417
  947SOL     OW 3785   2.024   0.093   0.239  0.8301  0.0902  0.2667
  947SOL    HW1 3786   2.065   0.041   0.177 -3.2981  1.8563  2.8440
  947SOL    HW2 3787   2.059   0.067   0.326 -0.5794  1.6848 -2.6784
  947SOL     MW 3788   2.034   0.083   0.242  0.0995  0.5336  0.2182
  948SOL     OW 3789   1.793   3.046   2.667 -0.1276 -0.4794  0.2665
  948SOL    HW1 3790   1.864   2.975   2.674 -0.0755  2.6293  2.9402
  948SOL    HW2 3791   1.789   3.074   2.573  1.2041 -0.5843 -2.2319
  948SOL     MW 3792   1.802   3.040   2.655  0.0549 -0.0831  0.2896
  949SOL     OW 3793   2.551   1.977   2.273 -0.2261  0.0833 -0.4657
  949SOL    HW1 3794   2.540   1.894   2.313 -0.9024 -1.0772  1.0284
  949SOL    HW2 3795   2.490   2.028   2.328  1.0952 -0.5415  1.2801
  949SOL     MW 3796   2.542   1.973   2.285 -0.1410 -0.1523 -0.0382
  950SOL     OW 3797   2.237   2.539   3.020 -0.4983 -0.2128 -0.1663
  950SOL    HW1 3798   2.309   2.491   2.974 -1.7013 -0.0018 -0.7103
  950SOL    HW2 3799   2.172   2.564   2.945 -0.4882 -1.4621 -0.2043
  950SOL     MW 3800   2.238   2.536   3.004 -0.6557 -0.3498 -0.2431
  951SOL     OW 3801   2.957   2.113   2.833 -0.4163  0.3874  0.3515
  951SOL    HW1 3802   2.995   2.171   2.906  3.2400  0.5925 -1.1031
  951SOL    HW2 3803   3.036   2.094   2.782 -1.6472 -0.6422 -1.8718
  951SOL     MW 3804   2.972   2.118   2.836 -0.0963  0.2786 -0.1338
  952SOL     OW 3805   3.086   1.758   2.154  0.3052  0.2137  0.5684
  952SOL    HW1 3806   3.017   1.803   2.106  0.0415 -2.0654  1.3257
  952SOL    HW2 3807   3.167   1.803   2.147  0.0638 -1.8257  0.7047
  952SOL     MW 3808   3.087   1.770   2.147  0.2386 -0.3560  0.6863
  953SOL     OW 3809   1.938   1.785   2.920  0.1656  0.6544  0.2740
  953SOL    HW1 3810   1.844   1.755   2.950 -1.3224 -0.2536  1.8647
  953SOL    HW2 3811   1.962   1.735   2.841 -2.6337 -1.0776 -2.0496
  953SOL     MW 3812   1.929   1.775   2.914 -0.4001  0.3061  0.1773
  954SOL     OW 3813   2.494   2.060   2.885  0.3465 -0.4050 -0.1365
  954SOL    HW1 3814   2.408   2.053   2.838  1.6381  0.5171  0.0961
  954SOL    HW2 3815   2.558   2.051   2.810 -0.5870  1.9311 -2.0118
  954SOL     MW 3816   2.491   2.058   2.869  0.3938  0.0249 -0.3532
  955SOL     OW 3817   1.593   1.633   2.547  0.2026  0.2025 -0.1302
  955SOL    HW1 3818   1.571   1.623   2.451 -0.0584 -1.9231  3.4952
  955SOL    HW2 3819   1.679   1.665   2.556 -3.6057 -1.3511 -0.5094
  955SOL     MW 3820   1.602   1.636   2.536 -0.3343 -0.2829  0.2981
  956SOL     OW 3821   2.677   2.454   2.846  0.3809 -0.6446 -0.0136
  956SOL    HW1 3822   2.703   2.416   2.937 -0.0015  0.0101  0.7244
  956SOL    HW2 3823   2.745   2.421   2.790  2.6458  2.0707 -2.0105
  956SOL     MW 3824   2.690   2.444   2.851  0.6293 -0.2000 -0.1797
  957SOL     OW 3825   2.246   2.885   0.386  0.4704  0.4422 -0.1183
  957SOL    HW1 3826   2.175   2.838   0.342 -0.6617  1.7146 -1.0907
  957SOL    HW2 3827   2.256   2.840   0.468 -1.7478  2.1108 -0.8788
  957SOL     MW 3828   2.238   2.873   0.391  0.0284  0.8303 -0.3470
  958SOL     OW 3829   2.014   2.639   2.827  0.7289 -0.9066 -0.0723
  958SOL    HW1 3830   1.979   2.580   2.765 -2.4226 -2.7259  4.8600
  958SOL    HW2 3831   1.935   2.643   2.882 -0.2634  2.6914 -1.0259
  958SOL     MW 3832   1.999   2.632   2.826  0.1822 -0.6719  0.4527
  959SOL     OW 3833   2.446   2.619   0.352 -0.2686  0.5553  0.8769
  959SOL    HW1 3834   2.507   2.631   0.276  1.6006  0.0191 -3.9302
  959SOL    HW2 3835   2.373   2.671   0.332 -1.4208 -1.7047  0.3800
  959SOL     MW 3836   2.445   2.627   0.339 -0.1740  0.1864  0.1771
  960SOL     OW 3837   1.930   2.333   2.255  0.6899 -0.1056 -0.5243
  960SOL    HW1 3838   1.901   2.258   2.206  0.7279  0.0789  2.0414
  960SOL    HW2 3839   1.870   2.326   2.329 -0.0768 -0.6112 -0.7425
  960SOL     MW 3840   1.918   2.322   2.258  0.5938 -0.1479 -0.2146
  961SOL     OW 3841   2.198   2.312   2.350  0.3017 -0.3432 -0.6158
  961SOL    HW1 3842   2.115   2.317   2.312  0.6981 -1.5786  0.4274
  961SOL    HW2 3843   2.208   2.382   2.420  2.4755 -1.3356  0.1123
  961SOL     MW 3844   2.188   2.322   2.354  0.6408 -0.6372 -0.3821
  962SOL     OW 3845   2.222   1.997   2.799 -0.4765  0.5504 -0.1767
  962SOL    HW1 3846   2.181   1.988   2.886  2.5894  0.2167 -0.2669
  962SOL    HW2 3847   2.221   1.907   2.763  2.3078  0.7836  1.8354
  962SOL     MW 3848   2.216   1.984   2.806  0.2954  0.5371  0.0769
  963SOL     OW 3849   1.839   2.591   1.994  0.3940  0.2838  0.1372
  963SOL    HW1 3850   1.925   2.628   2.029  2.7095  2.5635 -0.8190
  963SOL    HW2 3851   1.851   2.490   1.982 -0.8494 -1.9898 -0.6058
  963SOL     MW 3852   1.852   2.583   1.997  0.5354  0.2846 -0.0870
  964SOL     OW 3853   1.832   1.980   2.753 -0.5515 -0.0495 -0.1192
  964SOL    HW1 3854   1.905   2.061   2.753  1.5787  1.0433  2.6283
  964SOL    HW2 3855   1.858   1.917   2.819 -3.7710  0.4285  0.5302
  964SOL     MW 3856   1.845   1.983   2.761 -0.6952  0.1577  0.3289
  965SOL     OW 3857   2.248   2.728   0.627 -0.0800 -0.3867  0.1285
  965SOL    HW1 3858   2.194   2.643   0.620  1.2739  0.3897 -1.8928
  965SOL    HW2 3859   2.295   2.725   0.712  0.0586 -0.2531 -0.3689
  965SOL     MW 3860   2.247   2.716   0.638  0.1169 -0.2666 -0.2038
  966SOL     OW 3861   2.615   2.645   2.456 -0.4806 -0.0065 -0.0284
  966SOL    HW1 3862   2.566   2.670   2.380  1.3874  0.7164  0.2744
  966SOL    HW2 3863   2.643   2.546   2.438 -0.3534 -3.5281  0.7163
  966SOL     MW 3864   2.612   2.636   2.444 -0.2174 -0.3757  0.1098
  967SOL     OW 3865   2.919   3.016   2.901  0.2558 -0.3403 -0.1649
  967SOL    HW1 3866   2.937   2.923   2.914 -1.0214  0.9760  0.3903
  967SOL    HW2 3867   2.826   3.023   2.878 -1.3063 -1.4416  0.8428
  967SOL     MW 3868   2.909   3.004   2.900 -0.1188 -0.3119  0.0413
  968SOL     OW 3869   2.994   2.605   2.963 -0.0330  0.0910  0.0937
  968SOL    HW1 3870   2.904   2.639   2.932 -1.7615  0.4992  0.5374
  968SOL    HW2 3871   2.999   2.530   2.910 -0.1388 -1.2643 -0.2650
  968SOL     MW 3872   2.983   2.599   2.952 -0.2750 -0.0339  0.1049
  969SOL     OW 3873   1.525   2.113   1.689  0.3951 -0.4509  0.2093
  969SOL    HW1 3874   1.564   2.028   1.700 -0.9106  2.9200  1.2532
  969SOL    HW2 3875   1.478   2.134   1.773  0.8952  2.4606 -0.6288
  969SOL     MW 3876   1.524   2.105   1.702  0.2888  0.3780  0.2364
  970SOL     OW 3877   1.651   1.657   1.806 -0.7638  0.5559  0.1292
  970SOL    HW1 3878   1.710   1.668   1.879  1.6160  0.7704  0.2744
  970SOL    HW2 3879   1.568   1.708   1.824 -0.5932 -2.1909 -1.8284
  970SOL     MW 3880   1.648   1.665   1.818 -0.4273  0.2218 -0.1100
  971SOL     OW 3881   1.775   0.008   2.377  0.3388 -0.3093  0.1055
  971SOL    HW1 3882   1.796  -0.052   2.297  1.3377 -2.0311  2.8111
  971SOL    HW2 3883   1.866   0.061   2.384 -0.8341  3.5794 -0.9776
  971SOL     MW 3884   1.790   0.007   2.368  0.3158 -0.0234  0.3196
  972SOL     OW 3885   0.269   2.831   2.447  0.4250 -0.0384  0.1451
  972SOL    HW1 3886   0.285   2.771   2.520  0.1801  2.5492  0.5456
  972SOL    HW2 3887   0.328   2.900   2.479 -0.0420 -1.4396 -1.1534
  972SOL     MW 3888   0.279   2.832   2.461  0.3311  0.1182  0.0267
  973SOL     OW 3889   2.571   0.024   2.122 -0.6600  0.2752  0.0330
  973SOL    HW1 3890   2.555  -0.060   2.080 -0.0689 -0.0178  1.2145
  973SOL    HW2 3891   2.606   0.071   2.050  1.3349  0.1836 -0.5472
  973SOL     MW 3892   2.573   0.019   2.107 -0.3188  0.2244  0.1123
  974SOL     OW 3893   2.065   0.263   2.732 -0.5550 -0.0144 -0.3254
  974SOL    HW1 3894   2.157   0.234   2.712  1.6421 -1.7252 -1.4309
  974SOL    HW2 3895   2.032   0.183   2.785 -0.3827  0.1200 -1.3592
  974SOL     MW 3896   2.073   0.249   2.737 -0.2424 -0.2224 -0.6077
  975SOL     OW 3897   2.181   2.519   2.531  0.4340 -0.2025  0.3541
  975SOL    HW1 3898   2.232   2.563   2.593  0.6595  0.5412 -1.4537
  975SOL    HW2 3899   2.144   2.589   2.477  0.4217 -1.4879 -1.1744
  975SOL     MW 3900   2.182   2.534   2.532  0.4621 -0.2740 -0.0861
  976SOL     OW 3901   0.264   0.387   1.716  0.3231 -0.3306 -0.7275
  976SOL    HW1 3902   0.324   0.349   1.779  1.7637  0.4410  3.0342
  976SOL    HW2 3903   0.195   0.321   1.705 -2.3010  1.1452  1.8768
  976SOL     MW 3904   0.263   0.374   1.723  0.1669 -0.0341  0.1125
  977SOL     OW 3905   1.720   2.715   2.479  0.0725 -0.0742  0.0180
  977SOL    HW1 3906   1.712   2.620   2.468  1.0032  0.6111  1.6316
  977SOL    HW2 3907   1.812   2.734   2.458  2.1894 -0.4641 -0.5968
  977SOL     MW 3908   1.731   2.705   2.475  0.4746 -0.0352  0.1498
   3.10000   3.10000   3.10000
