1000 SPC/Fw water molecules
 3000
    1SOL     OW    1   1.537   3.417   0.308 -0.1227  0.0477  0.1230
    1SOL    HW1    2   1.490   3.507   0.293  0.5700  1.5412 -0.8046
    1SOL    HW2    3   1.490   3.366   0.385  4.2695 -0.9504 -0.2232
    2SOL     OW    4   1.810   0.854   1.780  0.3496  0.1444  0.7395
    2SOL    HW1    5   1.897   0.830   1.728  1.7081 -0.4562  0.9051
    2SOL    HW2    6   1.821   0.935   1.844 -2.7698  0.0802 -0.2244
    3SOL     OW    7   0.772   0.096   2.840  0.2398  0.5957  0.2040
    3SOL    HW1    8   0.778   0.195   2.866  3.1836  2.2111 -0.2559
    3SOL    HW2    9   0.722   0.039   2.909  0.2242 -0.7876 -0.6271
    4SOL     OW   10   1.889   2.022   3.511  0.4962 -0.4195  0.2080
    4SOL    HW1   11   1.929   2.113   3.481 -1.4368 -1.4758 -0.5524
    4SOL    HW2   12   1.847   2.035   3.604 -1.1238 -0.4183 -0.6895
    5SOL     OW   13   0.949   1.496   2.420  0.1772  0.7491  0.2977
    5SOL    HW1   14   0.965   1.395   2.437 -1.1173  1.3121  3.2077
    5SOL    HW2   15   1.040   1.544   2.413  0.0917 -0.4546 -0.1177
    6SOL     OW   16   2.806   1.162   2.638  0.1194 -0.1284 -0.0238
    6SOL    HW1   17   2.865   1.108   2.702 -2.4767  1.2718  3.2116
    6SOL    HW2   18   2.760   1.099   2.572  2.3671 -0.5504  0.0830
    7SOL     OW   19   0.006   1.046   1.585  0.2670 -0.1322  1.0254
    7SOL    HW1   20  -0.041   1.134   1.611  0.6560 -1.5092 -1.2607
    7SOL    HW2   21   0.097   1.060   1.541 -2.5004 -0.5304  2.6819
    8SOL     OW   22   2.681   3.017   2.347 -0.5869 -0.2946 -0.3868
    8SOL    HW1   23   2.667   3.037   2.247  0.4697 -2.1494  0.3793
    8SOL    HW2   24   2.693   3.104   2.401  0.5630  0.2393  3.4029
    9SOL     OW   25   0.120   3.151   0.387  0.1288 -0.2094 -0.3570
    9SOL    HW1   26   0.056   3.111   0.456 -0.8901  0.2313  1.2836
    9SOL    HW2   27   0.202   3.090   0.370 -1.3654 -0.1142  0.6638
   10SOL     OW   28   0.104   2.889   2.963 -0.0247 -0.5207  0.0639
   10SOL    HW1   29   0.148   2.973   2.922  0.2998 -0.7659 -0.7261
   10SOL    HW2   30   0.163   2.806   2.947 -0.7407 -0.9344  1.8449
   11SOL     OW   31   0.204   2.152   0.141  0.8604  0.0441 -0.0186
   11SOL    HW1   32   0.280   2.082   0.148  3.0380 -0.6627  0.3514
   11SOL    HW2   33   0.162   2.164   0.235  0.5862  0.2774 -1.3609
   12SOL     OW   34   2.742   3.496   0.511 -0.1005 -0.0337 -0.2965
   12SOL    HW1   35   2.826   3.551   0.490 -0.7226 -0.4716  2.0072
   12SOL    HW2   36   2.721   3.439   0.428  1.6380  2.5493  0.7141
   13SOL     OW   37   0.296   0.534   3.082  0.3924  0.1431 -0.5340
   13SOL    HW1   38   0.214   0.471   3.077  0.4131  1.4124  0.3611
   13SOL    HW2   39   0.263   0.631   3.078 -0.1667 -0.4917 -1.5023
   14SOL     OW   40   1.568   0.857   1.625 -0.1853  0.7624  0.3256
   14SOL    HW1   41   1.652   0.850   1.683 -1.8957  1.3867 -1.6204
   14SOL    HW2   42   1.593   0.841   1.527 -0.0185 -0.3033 -1.1960
   15SOL     OW   43   0.756   1.633   2.604  0.5777  0.3991 -0.8446
   15SOL    HW1   44   0.702   1.702   2.550 -1.7039  0.3108 -1.0470
   15SOL    HW2   45   0.831   1.595   2.545  3.2381 -1.2639  1.4063
   16SOL     OW   46   2.109   1.009   3.283  0.3401 -0.3391  0.1651
   16SOL    HW1   47   2.008   1.018   3.298  0.1466  0.5913  0.9858
   16SOL    HW2   48   2.128   1.013   3.180  1.5218  0.4987 -0.9625
   17SOL     OW   49   0.164   2.849   2.467 -0.0072  0.1429  0.6399
   17SOL    HW1   50   0.125   2.929   2.518  1.3841  1.2397 -1.1200
   17SOL    HW2   51   0.096   2.813   2.400  0.6126  0.7680 -1.1181
   18SOL     OW   52   1.755   1.402   1.008  0.1015  0.2581 -0.8238
   18SOL    HW1   53   1.795   1.310   0.982  1.7333  0.2523 -2.4862
   18SOL    HW2   54   1.656   1.411   0.979 -1.0309  0.6444  1.1064
   19SOL     OW   55   0.162   1.288   1.982 -0.0237  0.3554 -0.5883
   19SOL    HW1   56   0.238   1.344   1.941  0.6691  2.7763 -3.2282
   19SOL    HW2   57   0.201   1.239   2.066 -1.8902  0.4949 -0.1065
   20SOL     OW   58   2.127   2.447   3.134 -0.5835 -0.0179  0.5605
   20SOL    HW1   59   2.100   2.533   3.084 -3.0662  1.4242 -1.1206
   20SOL    HW2   60   2.165   2.461   3.229 -1.6162  0.0290  0.7687
   21SOL     OW   61   1.981   1.923   1.221  0.5092  0.2278 -0.2577
   21SOL    HW1   62   2.052   1.988   1.259  0.0395 -1.6987  1.3660
   21SOL    HW2   63   2.009   1.826   1.239 -0.3366  1.1145  0.9441
   22SOL     OW   64   2.322   2.660   1.655  0.2484  0.4125  0.2514
   22SOL    HW1   65   2.233   2.612   1.676 -0.1238 -0.6481 -0.3371
   22SOL    HW2   66   2.313   2.716   1.568 -1.1496 -1.3707  1.0537
   23SOL     OW   67   3.119   1.285   1.555  0.7465  0.5439 -0.2373
   23SOL    HW1   68   3.146   1.190   1.580  0.9423  2.1745  1.3473
   23SOL    HW2   69   3.080   1.288   1.459  1.8633  1.9486 -0.9401
   24SOL     OW   70   2.369   1.709   1.998  0.3474  0.1454 -0.1208
   24SOL    HW1   71   2.306   1.783   2.030  2.3946 -0.8732 -1.6128
   24SOL    HW2   72   2.436   1.684   2.073 -1.7392 -0.1691 -1.1660
   25SOL     OW   73   2.057   3.438   3.039 -0.4659  0.1574  0.2858
   25SOL    HW1   74   2.127   3.514   3.051  0.9452  0.4184  0.1497
   25SOL    HW2   75   1.998   3.458   2.958  2.8963 -0.3910  3.4080
   26SOL     OW   76   0.434   3.164   0.754 -0.3268  0.1939  0.5014
   26SOL    HW1   77   0.520   3.197   0.800  1.2719 -0.7632  0.0300
   26SOL    HW2   78   0.453   3.088   0.685  0.0259  1.4891 -1.3730
   27SOL     OW   79   1.416   1.450   0.888 -0.2601  0.1886  0.1685
   27SOL    HW1   80   1.407   1.403   0.979  1.2121  1.1899 -0.7280
   27SOL    HW2   81   1.327   1.488   0.856 -2.5929  1.4895 -0.1230
   28SOL     OW   82   2.268   2.813   1.402 -0.3079 -0.8236  0.1446
   28SOL    HW1   83   2.346   2.820   1.333 -2.5099 -2.1223 -2.2649
   28SOL    HW2   84   2.172   2.805   1.359  1.6906  0.5564  0.1674
   29SOL     OW   85   2.559   3.276   2.739 -0.0690 -0.6840 -0.8488
   29SOL    HW1   86   2.641   3.249   2.795 -1.6353 -3.3189  1.3437
   29SOL    HW2   87   2.474   3.243   2.788 -1.5396 -0.1859 -3.4724
   30SOL     OW   88   0.111   3.246   2.196  0.1931  0.2218 -0.7377
   30SOL    HW1   89   0.013   3.219   2.210 -0.3050 -0.0946 -0.5447
   30SOL    HW2   90   0.126   3.334   2.248  1.7434  0.7065 -0.5952
   31SOL     OW   91   3.496   2.110   2.784  0.1572 -0.2971 -0.3278
   31SOL    HW1   92   3.566   2.157   2.843  1.5852 -1.4320  0.6793
   31SOL    HW2   93   3.536   2.074   2.696  1.8910 -1.5849  1.7201
   32SOL     OW   94   1.211   2.909   2.636 -0.3003 -1.0042  0.3050
   32SOL    HW1   95   1.134   2.893   2.702  0.5723 -0.7379  0.7692
   32SOL    HW2   96   1.300   2.877   2.674  1.7267  1.1896 -1.7260
   33SOL     OW   97   0.027   0.595   0.019  0.4203 -0.1928  0.4588
   33SOL    HW1   98   0.048   0.690  -0.013  2.8963  0.1523  2.5969
   33SOL    HW2   99   0.109   0.536   0.006  1.0004 -3.2371 -1.2421
   34SOL     OW  100   3.216   0.197   0.099  0.0661 -0.1750  0.4616
   34SOL    HW1  101   3.291   0.144   0.144  1.8041  1.1302  0.1024
   34SOL    HW2  102   3.147   0.138   0.050  1.4442  1.2455 -1.3619
   35SOL     OW  103   3.355   3.214   1.946  0.4835  0.2396 -0.0452
   35SOL    HW1  104   3.394   3.186   2.037 -0.6264 -2.5736  2.8568
   35SOL    HW2  105   3.397   3.305   1.917  3.2057 -2.1932 -2.7618
   36SOL     OW  106   2.684   3.603   3.167  0.0202  0.2549 -0.1774
   36SOL    HW1  107   2.598   3.551   3.186  1.8372  1.5108  0.6628
   36SOL    HW2  108   2.756   3.533   3.143  1.2779  0.2650 -1.2111
   37SOL     OW  109   2.110   3.025   0.099 -0.2535  0.2043 -0.0201
   37SOL    HW1  110   2.091   3.005   0.001 -0.5300  1.2649  0.7281
   37SOL    HW2  111   2.038   3.083   0.146  0.9978 -1.5583 -0.6715
   38SOL     OW  112   0.543   0.206   0.819  0.0640 -0.4604 -0.5247
   38SOL    HW1  113   0.505   0.292   0.774 -1.0844  0.8077  1.4172
   38SOL    HW2  114   0.606   0.160   0.750  0.1872 -0.8701 -1.6024
   39SOL     OW  115   1.298   2.147   2.530 -0.2323  0.0811  0.5317
   39SOL    HW1  116   1.218   2.149   2.595 -2.0575  0.8570  1.5668
   39SOL    HW2  117   1.339   2.240   2.510  1.1159  1.7289 -2.3171
   40SOL     OW  118   3.625   1.144   0.223 -0.0592  0.5075  0.3136
   40SOL    HW1  119   3.537   1.173   0.270  1.1467 -0.8909 -2.5052
   40SOL    HW2  120   3.663   1.218   0.163 -1.1216 -2.3533  1.3529
   41SOL     OW  121   1.934   0.067   2.509 -0.9098 -0.0486  0.3597
   41SOL    HW1  122   1.846   0.115   2.535 -1.5609  0.0145 -0.8656
   41SOL    HW2  123   1.918   0.004   2.428 -3.1976 -0.5922 -2.1073
   42SOL     OW  124   2.876   0.145   1.296  0.3017  0.1483  0.4782
   42SOL    HW1  125   2.973   0.149   1.259 -0.5308 -1.8396 -0.4434
   42SOL    HW2  126   2.860   0.055   1.344  0.1394 -0.0554 -0.3563
   43SOL     OW  127   1.821   0.289   1.395  0.0883  0.1017  0.2240
   43SOL    HW1  128   1.878   0.267   1.479  0.2978  0.5141 -2.1114
   43SOL    HW2  129   1.839   0.219   1.320  0.7649  1.7429 -0.3875
   44SOL     OW  130   0.354   1.043   3.583  0.7489 -0.3315  0.3239
   44SOL    HW1  131   0.440   0.989   3.571 -0.7744  0.8310  0.9734
   44SOL    HW2  132   0.357   1.108   3.662 -1.9742  2.1709 -1.2421
   45SOL     OW  133   0.749   1.782   2.028 -0.4389  0.3623  0.0206
   45SOL    HW1  134   0.782   1.769   1.931  0.1447 -0.8918  0.4130
   45SOL    HW2  135   0.746   1.696   2.082 -0.3900 -3.0512  1.1404
   46SOL     OW  136   2.628   2.669   2.013 -0.0508  0.1517  0.2609
   46SOL    HW1  137   2.583   2.582   2.051  3.8057 -1.8041 -0.0410
   46SOL    HW2  138   2.731   2.678   2.026 -0.5630  0.0085 -0.0263
   47SOL     OW  139   0.434   2.149   1.675  0.3309 -0.1828  0.3771
   47SOL    HW1  140   0.438   2.174   1.574  1.2643  1.4780  1.9687
   47SOL    HW2  141   0.389   2.220   1.734 -0.9377 -0.2323  0.5697
   48SOL     OW  142   1.288   3.265   3.162 -0.3990  0.1171  0.0130
   48SOL    HW1  143   1.261   3.187   3.099 -1.2662  3.0099  0.3803
   48SOL    HW2  144   1.205   3.310   3.199 -2.6482 -0.7203 -0.1099
   49SOL     OW  145   3.225   1.968   2.222  0.0442 -0.8520 -0.1837
   49SOL    HW1  146   3.189   2.021   2.141  2.7310  0.7607  1.1569
   49SOL    HW2  147   3.221   1.866   2.206  1.8046  0.6769  0.9620
   50SOL     OW  148   1.072   3.393   0.413  0.1482 -0.0635  0.0786
   50SOL    HW1  149   1.135   3.414   0.492  1.3550 -1.8690 -2.2863
   50SOL    HW2  150   1.043   3.485   0.372  1.7407  1.2501 -1.0194
   51SOL     OW  151   1.351   0.217   1.070  0.5848  0.1511  0.3313
   51SOL    HW1  152   1.402   0.250   0.988  2.3467  0.1109 -1.4054
   51SOL    HW2  153   1.391   0.129   1.104  1.8807  1.2757 -1.7369
   52SOL     OW  154   0.186   0.969   0.750 -0.1003 -0.1228  0.5158
   52SOL    HW1  155   0.144   0.957   0.656 -0.3863 -1.2255  0.1915
   52SOL    HW2  156   0.243   1.054   0.750 -1.9578 -1.3685  0.0218
   53SOL     OW  157   1.173   0.203   3.304  0.3553 -0.3382 -0.9196
   53SOL    HW1  158   1.246   0.155   3.358  0.0088  0.8282 -0.3935
   53SOL    HW2  159   1.133   0.139   3.235  2.8538  0.4288  1.4382
   54SOL     OW  160   2.495   0.585   2.523  0.3823  0.0426 -0.8228
   54SOL    HW1  161   2.530   0.592   2.619  0.6892 -0.4932 -0.1967
   54SOL    HW2  162   2.461   0.489   2.506 -1.1655  0.5273  2.0017
   55SOL     OW  163   2.973   0.016   0.435  0.6943  0.2146  1.1054
   55SOL    HW1  164   3.049  -0.012   0.500 -1.7100  1.3064  1.5120
   55SOL    HW2  165   3.007   0.011   0.337  1.7593 -1.7513 -0.3517
   56SOL     OW  166   0.943   0.429   2.616  0.4882  0.4477 -0.6774
   56SOL    HW1  167   0.870   0.419   2.546 -0.1041 -0.5732  0.9790
   56SOL    HW2  168   1.001   0.344   2.616 -0.8357  0.8467 -2.6114
   57SOL     OW  169   2.035   1.166   2.720 -0.4451  0.1232 -0.5857
   57SOL    HW1  170   2.003   1.264   2.721 -0.0004 -0.3041  1.3882
   57SOL    HW2  171   2.092   1.149   2.636 -2.5541 -0.5875 -2.0317
   58SOL     OW  172   0.284   1.034   2.300  0.1613  0.0105 -0.0110
   58SOL    HW1  173   0.323   1.120   2.340  1.8629  0.4318  0.4713
   58SOL    HW2  174   0.270   0.969   2.380 -0.3480  1.1090  2.3824
   59SOL     OW  175   1.028   3.177   2.227  0.4334 -0.1234  0.2666
   59SOL    HW1  176   0.929   3.170   2.256  0.4968 -2.3768  0.0680
   59SOL    HW2  177   1.084   3.169   2.313  2.4786 -1.8980  2.9026
   60SOL     OW  178   2.558   3.073   0.366  0.0690 -0.1310  0.4453
   60SOL    HW1  179   2.476   3.093   0.424 -2.2405 -1.6281  1.3228
   60SOL    HW2  180   2.567   2.974   0.338 -3.3703  0.5520  0.8388
   61SOL     OW  181   1.707   3.120   0.425  0.2040 -0.2171 -0.3909
   61SOL    HW1  182   1.621   3.163   0.462 -0.2649  0.2423  0.1096
   61SOL    HW2  183   1.721   3.023   0.456  1.4110  2.7566 -1.8413
   62SOL     OW  184   2.604   3.056   3.505 -0.6241 -0.2875  0.3207
   62SOL    HW1  185   2.622   2.956   3.518  0.3731 -0.1538 -0.2779
   62SOL    HW2  186   2.535   3.087   3.575  0.8505 -0.4158  1.2489
   63SOL     OW  187   3.075   1.102   0.724  0.1215 -0.2098 -0.0360
   63SOL    HW1  188   3.062   1.084   0.623  0.3071 -0.3696 -0.2125
   63SOL    HW2  189   3.175   1.088   0.750  2.9725 -2.4784 -2.1461
   64SOL     OW  190   1.872   1.187   0.093 -0.2590 -0.3002 -0.0039
   64SOL    HW1  191   1.884   1.285   0.118  1.7254  1.0647 -0.8346
   64SOL    HW2  192   1.772   1.162   0.093 -0.6351 -0.0822  1.3256
   65SOL     OW  193   0.515   2.887   2.014 -0.4213 -0.2649  0.3345
   65SOL    HW1  194   0.496   2.946   1.929 -0.9555 -1.1531 -1.9305
   65SOL    HW2  195   0.458   2.927   2.090 -1.5657  2.2017  0.9749
   66SOL     OW  196   1.185   1.501   1.535 -0.1836  0.0042 -0.1066
   66SOL    HW1  197   1.216   1.404   1.529 -0.4742 -0.9890  1.1002
   66SOL    HW2  198   1.194   1.550   1.444 -2.4893 -1.0604 -0.4184
   67SOL     OW  199   2.937   2.213   2.310 -0.0912  0.4223  0.4219
   67SOL    HW1  200   3.005   2.200   2.232  1.1215  1.5100  0.9126
   67SOL    HW2  201   2.938   2.137   2.379  0.3103  0.8500  2.6085
   68SOL     OW  202   1.405   2.020   2.064  0.2328  0.1720  0.2155
   68SOL    HW1  203   1.402   1.951   1.989 -0.2399  2.3442  1.3035
   68SOL    HW2  204   1.352   1.991   2.147 -2.4494 -0.1069  0.7493
   69SOL     OW  205   3.167   0.479   0.090  0.4055 -0.2628  0.1372
   69SOL    HW1  206   3.077   0.489   0.038 -1.8354 -3.5159 -0.6729
   69SOL    HW2  207   3.190   0.379   0.104 -2.2154 -0.5337  0.0307
   70SOL     OW  208   2.568   1.360   2.661 -0.1564  0.1824 -0.2391
   70SOL    HW1  209   2.650   1.298   2.658 -0.3758  1.6149  1.1900
   70SOL    HW2  210   2.517   1.343   2.749  1.1249 -0.3043  0.3765
   71SOL     OW  211   1.234   2.490   0.811 -0.0129 -1.1574 -0.1314
   71SOL    HW1  212   1.301   2.448   0.745  2.0785 -0.9929  0.2750
   71SOL    HW2  213   1.282   2.562   0.867  1.1951  1.2119 -1.6843
   72SOL     OW  214   2.650   2.075   0.725  0.2387  0.0017 -0.0113
   72SOL    HW1  215   2.717   2.153   0.731 -0.3948  0.6824 -1.8301
   72SOL    HW2  216   2.595   2.062   0.810 -0.1723  1.1726  0.6646
   73SOL     OW  217   1.262   1.084   0.650 -0.1189  0.3719 -0.2756
   73SOL    HW1  218   1.189   1.137   0.697 -0.8157 -0.1596  3.0472
   73SOL    HW2  219   1.222   1.011   0.591 -1.0378  1.7455 -2.5002
   74SOL     OW  220   3.119   2.505   2.581  0.2587  0.5721 -0.5392
   74SOL    HW1  221   3.145   2.406   2.603  2.0820  2.1800  3.4209
   74SOL    HW2  222   3.133   2.533   2.483  1.9097  1.5554  0.0939
   75SOL     OW  223   1.986   1.940   2.314  0.1974  0.0959  0.4559
   75SOL    HW1  224   1.891   1.910   2.289  1.6479 -1.3732 -2.1672
   75SOL    HW2  225   2.021   1.882   2.391 -1.2212  0.2921 -4.3466
   76SOL     OW  226   1.448   1.835   1.329 -0.6571 -0.8386  0.3087
   76SOL    HW1  227   1.368   1.788   1.281  2.3804  0.1317  0.2189
   76SOL    HW2  228   1.495   1.900   1.262 -1.4331  1.0977  1.0007
   77SOL     OW  229   2.769   1.050   2.003 -0.1429  0.7475 -0.1308
   77SOL    HW1  230   2.697   1.083   2.067  1.0365  0.7248 -0.6613
   77SOL    HW2  231   2.789   0.949   2.012 -0.3753  1.2557  0.4667
   78SOL     OW  232   1.957   0.742   0.359  0.6604 -0.1120  0.6581
   78SOL    HW1  233   1.976   0.803   0.278 -1.1694  0.9492  1.9485
   78SOL    HW2  234   1.865   0.764   0.402 -0.1095 -1.1624  2.9872
   79SOL     OW  235   1.225   1.944   2.317 -0.4314 -0.2881  0.4824
   79SOL    HW1  236   1.249   2.006   2.396  1.0835  1.2258 -1.3436
   79SOL    HW2  237   1.128   1.953   2.284  0.6607 -0.0266 -0.0374
   80SOL     OW  238   1.155   0.443   1.673 -0.4612  0.4850 -0.1694
   80SOL    HW1  239   1.179   0.543   1.666 -2.5159  1.4317  1.2473
   80SOL    HW2  240   1.161   0.414   1.770 -2.4056 -1.7044  0.8123
   81SOL     OW  241   0.350   2.962   0.288 -0.3078  0.0286  0.0892
   81SOL    HW1  242   0.420   2.967   0.211  1.4204 -0.1392 -1.7339
   81SOL    HW2  243   0.400   2.935   0.374 -0.5661  0.7430  3.4004
   82SOL     OW  244   1.250   0.314   2.021  0.3323  0.7284 -0.3825
   82SOL    HW1  245   1.252   0.336   2.122 -0.1728  0.5045  0.5986
   82SOL    HW2  246   1.343   0.327   1.981 -0.3084 -3.1010  1.6193
   83SOL     OW  247   0.508   2.642   1.173  0.2163 -0.4268 -0.7662
   83SOL    HW1  248   0.437   2.713   1.154  0.2049 -1.2989  1.5906
   83SOL    HW2  249   0.463   2.550   1.188  0.0470 -1.2127  1.1858
   84SOL     OW  250   2.939   1.435   1.112 -0.4743 -0.3987  0.0519
   84SOL    HW1  251   2.959   1.362   1.181  2.5489  1.0998  1.9092
   84SOL    HW2  252   2.995   1.418   1.028  1.1893  1.1258  0.0351
   85SOL     OW  253   2.633   2.238   1.336 -0.2766 -0.7518  0.1730
   85SOL    HW1  254   2.579   2.202   1.415 -1.3625 -1.6119 -1.1557
   85SOL    HW2  255   2.706   2.169   1.314  2.3901  1.7381 -1.1704
   86SOL     OW  256   1.439   2.509   2.546  0.6732 -0.3451 -0.5698
   86SOL    HW1  257   1.370   2.568   2.501  2.2988 -0.9067  1.2273
   86SOL    HW2  258   1.532   2.505   2.501  1.1868 -1.6700  1.3983
   87SOL     OW  259   2.686   1.518   1.012 -0.7947  0.8985  0.5155
   87SOL    HW1  260   2.696   1.585   0.934 -0.8508 -0.2541  1.1962
   87SOL    HW2  261   2.776   1.487   1.051  1.4512 -1.9067  1.0546
   88SOL     OW  262   0.546   3.415   1.146 -0.8283  0.1093  0.2564
   88SOL    HW1  263   0.485   3.482   1.097 -0.1296  2.4550 -0.4479
   88SOL    HW2  264   0.594   3.456   1.227  3.1568  0.4416 -1.6306
   89SOL     OW  265   0.652   1.366   1.768  0.2656 -0.0470  0.4452
   89SOL    HW1  266   0.752   1.362   1.795  2.9209 -1.2669 -0.2569
   89SOL    HW2  267   0.631   1.301   1.689 -0.3062 -1.3402 -0.2491
   90SOL     OW  268   3.162   2.106   0.436 -0.1975  0.5081  0.4195
   90SOL    HW1  269   3.137   2.201   0.465 -0.6383  3.0027  1.2570
   90SOL    HW2  270   3.265   2.096   0.427  1.0128  0.0401 -2.2169
   91SOL     OW  271   0.899   2.271   1.142  0.6951 -0.9499 -0.1472
   91SOL    HW1  272   0.857   2.364   1.154 -0.2313 -0.0859 -0.2838
   91SOL    HW2  273   0.861   2.206   1.213 -0.6604  1.0623  2.0425
   92SOL     OW  274   2.509   3.519   2.256  0.6297 -0.3418  0.6331
   92SOL    HW1  275   2.600   3.553   2.292  3.8100 -1.3217  1.4932
   92SOL    HW2  276   2.440   3.492   2.329 -0.8213  0.5260  2.0465
   93SOL     OW  277   0.715   2.282   3.291 -0.0019  0.4403  0.2828
   93SOL    HW1  278   0.743   2.276   3.390 -0.0115 -1.6873 -0.2288
   93SOL    HW2  279   0.621   2.246   3.275  0.9709 -1.6683  2.5687
   94SOL     OW  280   2.787   3.595   2.404  0.0530  0.0833  0.1903
   94SOL    HW1  281   2.787   3.668   2.477  0.4486  0.3578  0.5968
   94SOL    HW2  282   2.835   3.625   2.319  2.3324 -2.3354 -1.3276
   95SOL     OW  283   2.249   0.046   2.071  0.4943  0.1852 -0.1762
   95SOL    HW1  284   2.265   0.149   2.069 -0.7804  1.0519  2.6829
   95SOL    HW2  285   2.318  -0.009   2.123  1.5959 -0.0987  1.9496
   96SOL     OW  286   0.813   0.897   2.523 -0.1810  0.7867 -0.0567
   96SOL    HW1  287   0.760   0.911   2.611  1.4807 -0.4625 -0.1576
   96SOL    HW2  288   0.819   0.985   2.470  0.0071 -1.2700 -1.0958
   97SOL     OW  289   2.353   3.446   1.731  0.2800 -0.0981 -0.1696
   97SOL    HW1  290   2.267   3.484   1.773 -1.4338 -1.9927 -1.0434
   97SOL    HW2  291   2.336   3.359   1.680 -0.5972  0.4734 -0.6048
   98SOL     OW  292   1.994   2.608   1.869  0.2806 -0.7344  0.1582
   98SOL    HW1  293   2.021   2.659   1.956 -0.1848 -0.1387 -0.8296
   98SOL    HW2  294   1.981   2.507   1.887  1.6083  0.0894 -1.7682
   99SOL     OW  295   0.441   0.843   1.267 -0.0333  0.5578 -0.2482
   99SOL    HW1  296   0.385   0.930   1.255  0.0078  0.5579 -0.3970
   99SOL    HW2  297   0.495   0.828   1.181 -1.7504  0.1274  4.2537
  100SOL     OW  298   3.496   2.353   2.312  0.3590  0.5569  0.8322
  100SOL    HW1  299   3.449   2.264   2.333  1.1166 -1.0421  1.5350
  100SOL    HW2  300   3.576   2.365   2.376 -2.1762  0.0406 -0.4700
  101SOL     OW  301   1.283   0.404   0.043 -0.4623  0.0947  0.4316
  101SOL    HW1  302   1.379   0.370   0.052 -1.8084  2.8158  0.4589
  101SOL    HW2  303   1.266   0.452  -0.049 -2.0154  1.2078  0.8613
  102SOL     OW  304   3.317   0.141   1.465 -0.1231  0.3546  0.0460
  102SOL    HW1  305   3.401   0.201   1.464  3.3267  0.9926 -0.6950
  102SOL    HW2  306   3.250   0.174   1.537 -2.0066 -0.9923 -2.2589
  103SOL     OW  307   0.176   3.480   2.990 -0.3532 -0.0893  0.7139
  103SOL    HW1  308   0.192   3.573   2.947 -0.0915  0.0631 -0.3655
  103SOL    HW2  309   0.077   3.466   3.012  0.3686  0.2806 -0.0869
  104SOL     OW  310   0.180   2.853   1.416  0.1431  0.0296  0.3078
  104SOL    HW1  311   0.103   2.912   1.449 -1.9785  0.6701  2.3893
  104SOL    HW2  312   0.271   2.895   1.441 -1.3924 -2.1432 -0.0978
  105SOL     OW  313   0.588   1.787   2.405 -0.0788 -0.0953  0.1891
  105SOL    HW1  314   0.535   1.704   2.375  3.1464 -0.0917 -0.7867
  105SOL    HW2  315   0.536   1.871   2.376  1.9950 -3.0593 -0.0451
  106SOL     OW  316   3.125   3.252   0.642  0.3917  0.9598  0.0257
  106SOL    HW1  317   3.107   3.227   0.741 -0.4407 -1.4085  2.6591
  106SOL    HW2  318   3.144   3.352   0.635  1.6051  0.1395 -1.3385
  107SOL     OW  319   0.804   1.350   1.097  0.2614 -0.0060  0.7481
  107SOL    HW1  320   0.760   1.358   1.190 -3.2248 -2.3555  4.0618
  107SOL    HW2  321   0.887   1.289   1.102  1.2663  0.7740  1.9859
  108SOL     OW  322   3.446   1.327   2.554  0.4654  0.3108 -0.0727
  108SOL    HW1  323   3.405   1.423   2.559  2.2444  2.9016  0.5746
  108SOL    HW2  324   3.550   1.326   2.551  0.6272  0.3189  1.3900
  109SOL     OW  325   2.417   3.109   0.091 -0.4540  0.0810 -0.3553
  109SOL    HW1  326   2.316   3.084   0.090  2.7246 -0.4843  0.4038
  109SOL    HW2  327   2.460   3.101   0.185 -0.8252  1.3094 -0.2500
  110SOL     OW  328   0.291   2.572   0.080  0.1051 -0.0996  0.4412
  110SOL    HW1  329   0.244   2.493   0.034 -0.3124  1.4958  0.8621
  110SOL    HW2  330   0.225   2.639   0.124 -0.0995 -3.7518  1.0174
  111SOL     OW  331   3.160   1.133   3.203 -0.0401  0.9494 -0.3373
  111SOL    HW1  332   3.149   1.174   3.108  0.1566  0.6122 -0.4005
  111SOL    HW2  333   3.066   1.125   3.244 -1.3200 -1.5373 -0.6051
  112SOL     OW  334   2.641   3.091   2.073 -0.0190  0.1537  0.1039
  112SOL    HW1  335   2.626   3.190   2.048 -1.0306 -1.4269  0.9590
  112SOL    HW2  336   2.574   3.026   2.030  0.1496  1.3620 -2.0686
  113SOL     OW  337   2.594   2.226   3.127  0.9103  0.2712  0.0919
  113SOL    HW1  338   2.604   2.130   3.163  1.0461 -1.2955 -0.5806
  113SOL    HW2  339   2.642   2.231   3.037  0.6355 -0.9289  2.1187
  114SOL     OW  340   0.757   3.606   0.661  0.0359 -0.0720 -0.1890
  114SOL    HW1  341   0.747   3.517   0.713 -0.2463  2.3803  0.4276
  114SOL    HW2  342   0.837   3.658   0.697  0.1256 -0.9466 -0.6866
  115SOL     OW  343   0.143   1.997   3.418 -0.5645 -0.1739  0.0593
  115SOL    HW1  344   0.118   2.088   3.464 -0.8252 -0.4686 -2.1473
  115SOL    HW2  345   0.242   1.976   3.433 -0.5454 -0.9309  1.4508
  116SOL     OW  346   3.385   1.575   1.966  0.0746 -0.0259  0.2406
  116SOL    HW1  347   3.424   1.482   1.949  1.8055  0.1349  0.9817
  116SOL    HW2  348   3.453   1.634   2.017 -0.0497 -3.0305 -2.2061
  117SOL     OW  349   2.461   0.247   1.744  0.0693  0.3948 -0.1009
  117SOL    HW1  350   2.502   0.159   1.708 -0.1994 -0.2782  0.6122
  117SOL    HW2  351   2.370   0.272   1.701 -2.1225 -0.3825  1.5628
  118SOL     OW  352   3.250   2.588   2.846 -0.0818  0.7895 -0.0707
  118SOL    HW1  353   3.200   2.554   2.762 -0.2595 -0.4302 -0.7298
  118SOL    HW2  354   3.323   2.656   2.819  1.6112 -1.1404 -3.6146
  119SOL     OW  355   0.455   1.901   2.023  0.1898  0.2439  0.8602
  119SOL    HW1  356   0.444   1.962   1.938  0.1195  0.8980  1.1477
  119SOL    HW2  357   0.549   1.861   2.025  0.5826 -1.9883  1.0419
  120SOL     OW  358   0.269   1.675   2.064 -0.4445  0.2050 -0.1590
  120SOL    HW1  359   0.294   1.601   1.994 -1.1351 -0.5147 -0.5924
  120SOL    HW2  360   0.332   1.756   2.050  0.2006 -1.5247 -0.5490
  121SOL     OW  361   1.835   1.150   0.909 -0.0964  0.5832 -0.1696
  121SOL    HW1  362   1.759   1.085   0.883 -0.6968  2.1973  1.6406
  121SOL    HW2  363   1.924   1.119   0.867  2.6265 -2.2168 -0.5677
  122SOL     OW  364   2.908   2.752   3.168 -0.1613 -0.1071 -0.4418
  122SOL    HW1  365   2.851   2.827   3.123  0.9217 -0.0975  1.9081
  122SOL    HW2  366   2.842   2.680   3.202  0.2907 -0.6434  1.1665
  123SOL     OW  367   3.547   0.502   0.541  0.1244 -0.2554  0.5616
  123SOL    HW1  368   3.521   0.515   0.640  1.0835  0.0384 -1.3884
  123SOL    HW2  369   3.532   0.405   0.507  0.0281 -2.4878 -0.2081
  124SOL     OW  370   1.908   1.480   0.190 -0.6695  0.1014 -0.3587
  124SOL    HW1  371   1.948   1.475   0.286  0.5777 -1.6365 -1.3962
  124SOL    HW2  372   1.970   1.538   0.131  3.4579  0.6724  2.2952
  125SOL     OW  373   3.610   0.947   2.713 -0.2602  0.0594  0.0914
  125SOL    HW1  374   3.671   0.978   2.791 -1.0566 -1.8328 -0.1431
  125SOL    HW2  375   3.667   0.899   2.641  1.0814 -1.5675  0.5501
  126SOL     OW  376   3.268   3.323   0.203 -0.0539  0.0957 -0.5285
  126SOL    HW1  377   3.262   3.284   0.108  3.4658 -0.7569  1.1617
  126SOL    HW2  378   3.265   3.247   0.273 -1.1182 -1.3162  2.1358
  127SOL     OW  379   3.263   2.155   3.616 -0.1500  0.7238 -0.3393
  127SOL    HW1  380   3.166   2.184   3.638  0.3624 -0.2005  1.6465
  127SOL    HW2  381   3.274   2.053   3.630 -1.4759 -1.6974 -0.9808
  128SOL     OW  382   1.057   1.213   0.779 -0.2312  0.1459  0.2314
  128SOL    HW1  383   0.961   1.234   0.749 -0.8952 -2.4096  0.8170
  128SOL    HW2  384   1.066   1.218   0.882 -1.8758  0.7094 -0.6618
  129SOL     OW  385   2.481   2.347   1.123 -0.7439  0.2889 -0.1141
  129SOL    HW1  386   2.536   2.308   1.201  0.2963 -1.2531  1.3961
  129SOL    HW2  387   2.437   2.437   1.150 -1.1735  2.6110 -3.1750
  130SOL     OW  388   2.218   1.062   0.240  0.3955  0.5878 -0.5091
  130SOL    HW1  389   2.309   1.020   0.216  0.3003 -1.5619 -1.4870
  130SOL    HW2  390   2.137   1.011   0.202  1.6339 -0.8352  0.3026
  131SOL     OW  391   0.063   1.976   3.095  0.5038  0.2151 -0.1994
  131SOL    HW1  392  -0.033   1.943   3.079  1.5221 -1.0123 -0.3581
  131SOL    HW2  393   0.092   1.975   3.194 -1.5028  2.5018 -0.3848
  132SOL     OW  394   1.499   1.373   2.125  0.0027  0.1978  0.4742
  132SOL    HW1  395   1.489   1.283   2.075 -2.1316  1.7890 -0.1462
  132SOL    HW2  396   1.409   1.425   2.119 -0.7003  2.4749  0.6158
  133SOL     OW  397   0.476   1.288   1.001  0.0115 -0.8918  0.4040
  133SOL    HW1  398   0.578   1.279   1.007  3.0689  0.2757  0.6825
  133SOL    HW2  399   0.443   1.373   1.049 -0.9276  0.0870  1.6247
  134SOL     OW  400   0.055   1.620   0.156 -0.3853 -0.2879 -0.2531
  134SOL    HW1  401   0.057   1.521   0.131 -1.7892  2.5615  0.6876
  134SOL    HW2  402   0.013   1.675   0.080 -0.9757 -0.3651  0.3897
  135SOL     OW  403   1.985   0.930   0.118 -0.2205 -0.3630 -0.2453
  135SOL    HW1  404   1.942   1.023   0.111 -2.0321  1.6452 -1.8474
  135SOL    HW2  405   1.948   0.865   0.048 -0.0591 -0.8073 -0.0115
  136SOL     OW  406   2.537   2.435   1.689  0.1804 -0.0804 -0.7041
  136SOL    HW1  407   2.567   2.418   1.786 -1.7437  2.1837 -1.2919
  136SOL    HW2  408   2.471   2.515   1.682  0.8140  0.3875 -0.5248
  137SOL     OW  409   2.699   2.903   0.822  0.0207  0.1451  0.4403
  137SOL    HW1  410   2.680   2.983   0.884 -0.1085  1.0242  0.4754
  137SOL    HW2  411   2.736   2.934   0.731  2.8144 -0.9707 -1.8602
  138SOL     OW  412   2.826   0.362   2.106  0.0695 -0.2849 -0.2377
  138SOL    HW1  413   2.852   0.263   2.097 -1.5388 -0.6218 -0.3955
  138SOL    HW2  414   2.771   0.394   2.025 -0.5873  1.0269 -0.9773
  139SOL     OW  415   3.267   3.108   3.191 -0.3088 -0.3475 -0.3686
  139SOL    HW1  416   3.195   3.061   3.249  0.4206 -0.9484 -0.2361
  139SOL    HW2  417   3.243   3.097   3.090 -1.6125  0.8832  1.1385
  140SOL     OW  418   1.739   2.215   3.083  0.4982  0.5095 -0.1214
  140SOL    HW1  419   1.743   2.316   3.062  1.7818 -0.9179  1.4063
  140SOL    HW2  420   1.795   2.160   3.016  2.5384 -0.5352 -2.6141
  141SOL     OW  421   1.713   1.667   2.930 -0.0855 -0.0080  0.0467
  141SOL    HW1  422   1.671   1.585   2.885  1.4042 -2.3970 -2.4214
  141SOL    HW2  423   1.754   1.638   3.021  3.3399 -1.0222  1.9271
  142SOL     OW  424   2.433   2.795   2.406 -0.1046  0.1209  0.4125
  142SOL    HW1  425   2.431   2.700   2.364 -1.2740  0.1453 -2.2387
  142SOL    HW2  426   2.523   2.844   2.394  3.3116  0.6499 -0.5726
  143SOL     OW  427   1.187   2.989   0.579  0.3399 -0.1079  0.3483
  143SOL    HW1  428   1.246   2.963   0.659  0.9611  0.4709  1.9644
  143SOL    HW2  429   1.149   2.911   0.525 -0.3855 -0.2517 -1.4300
  144SOL     OW  430   0.984   3.161   0.659  0.3479 -0.1155 -0.7609
  144SOL    HW1  431   0.971   3.235   0.589  0.5239  0.3113 -0.7077
  144SOL    HW2  432   1.066   3.104   0.634 -2.0987  0.2865 -0.2958
  145SOL     OW  433   2.128   2.623   3.589 -0.6208  0.6205 -0.2821
  145SOL    HW1  434   2.026   2.611   3.576 -1.6084  0.6985  1.9344
  145SOL    HW2  435   2.159   2.723   3.584  0.6121  0.1975  2.3618
  146SOL     OW  436   2.072   2.785   0.358 -0.7909 -0.4002 -0.1197
  146SOL    HW1  437   2.089   2.855   0.284 -0.1388  2.8227  0.8914
  146SOL    HW2  438   2.094   2.688   0.332  0.6394  0.1861  0.0320
  147SOL     OW  439   0.436   2.003   2.296 -0.0991  0.2041  0.2248
  147SOL    HW1  440   0.427   1.970   2.199  3.2479  2.7032 -1.9396
  147SOL    HW2  441   0.474   2.099   2.298 -0.4796 -0.4173 -0.0454
  148SOL     OW  442   1.422   0.030   0.261  0.4874  0.3494  0.4365
  148SOL    HW1  443   1.464   0.119   0.228 -0.8691 -0.0201 -1.1513
  148SOL    HW2  444   1.343  -0.003   0.203  2.4583 -0.3209  2.1802
  149SOL     OW  445   0.554   2.455   0.219 -0.1671  0.5093  0.0028
  149SOL    HW1  446   0.638   2.478   0.165  1.5522  0.1196 -2.9263
  149SOL    HW2  447   0.469   2.487   0.171 -3.2509 -2.4955  1.2610
  150SOL     OW  448   0.456   3.002   1.455  0.3693  0.2103  0.5832
  150SOL    HW1  449   0.559   2.987   1.458  2.1726  0.0010 -1.2578
  150SOL    HW2  450   0.437   3.069   1.379  1.2192 -1.3462 -2.0059
  151SOL     OW  451   0.420   1.954   3.450  0.2193  1.0528  0.4648
  151SOL    HW1  452   0.468   1.877   3.402 -0.0770 -0.3544 -0.9347
  151SOL    HW2  453   0.433   1.947   3.552  1.3285  0.5464  0.3258
  152SOL     OW  454   3.542   2.275   1.089  0.1345  0.4698  0.5514
  152SOL    HW1  455   3.578   2.220   1.009 -2.0360  2.4677  1.2135
  152SOL    HW2  456   3.439   2.269   1.099  0.4740 -0.3375  0.1974
  153SOL     OW  457   1.830   2.731   0.781 -0.0744  0.3346  0.2233
  153SOL    HW1  458   1.924   2.689   0.775  0.9069  1.4185  1.4486
  153SOL    HW2  459   1.763   2.658   0.809  1.1580  1.4509  0.0334
  154SOL     OW  460   0.990   3.564   1.714  0.8026 -0.0331 -0.1938
  154SOL    HW1  461   1.021   3.466   1.709 -0.2661  1.2068 -0.0485
  154SOL    HW2  462   0.888   3.568   1.720  2.3547 -0.1603  0.3628
  155SOL     OW  463   3.113   2.393   0.519 -0.2241 -0.6932 -0.1512
  155SOL    HW1  464   3.190   2.448   0.562  0.7671 -0.0181 -0.1426
  155SOL    HW2  465   3.062   2.451   0.452  2.4575  1.9588 -4.5861
  156SOL     OW  466   2.945   2.374   0.114  0.1650  0.2525  0.1649
  156SOL    HW1  467   2.902   2.422   0.033 -0.9084  0.8484 -1.1881
  156SOL    HW2  468   2.948   2.440   0.194  0.5140  1.4498  0.0835
  157SOL     OW  469   0.618   0.188   2.276 -0.1674 -0.1190 -0.2718
  157SOL    HW1  470   0.656   0.277   2.314  1.3119 -0.3117 -1.5212
  157SOL    HW2  471   0.574   0.135   2.354 -0.9760  0.8222 -1.0030
  158SOL     OW  472   1.168   0.713   1.343 -0.1863 -0.5358  0.8497
  158SOL    HW1  473   1.234   0.655   1.290 -0.1361  0.4792 -0.7146
  158SOL    HW2  474   1.203   0.713   1.440  1.3108 -0.9866 -0.2086
  159SOL     OW  475   2.291   1.192   3.454  0.4905  0.0427 -0.1736
  159SOL    HW1  476   2.236   1.130   3.392  0.5199 -0.1108 -2.5002
  159SOL    HW2  477   2.230   1.217   3.535 -0.3564 -0.9525  1.0467
  160SOL     OW  478   1.547   2.054   0.634 -0.1413 -1.1338  0.4300
  160SOL    HW1  479   1.617   1.986   0.602  0.9899 -0.9610 -2.4805
  160SOL    HW2  480   1.454   2.026   0.599  2.8848 -0.7219  2.1918
  161SOL     OW  481   3.280   2.065   3.230 -0.0341  0.3770 -0.0184
  161SOL    HW1  482   3.279   2.144   3.164 -0.0444 -0.8433  1.3536
  161SOL    HW2  483   3.287   2.101   3.327  0.8099  0.3781 -0.2266
  162SOL     OW  484   3.599   2.658   1.317  0.3020  0.2273 -0.6095
  162SOL    HW1  485   3.674   2.716   1.361  0.6481  0.9763  0.4513
  162SOL    HW2  486   3.630   2.559   1.319  0.4677 -2.2913 -1.2408
  163SOL     OW  487   0.681   0.977   3.083  0.0167  0.2025  0.0771
  163SOL    HW1  488   0.770   1.024   3.109 -2.4301 -0.1431 -0.7499
  163SOL    HW2  489   0.669   0.893   3.142  0.1804  0.4206  3.8896
  164SOL     OW  490   0.443   3.087   3.215  0.5043 -0.0987 -0.0426
  164SOL    HW1  491   0.383   3.056   3.292  3.0230 -0.3603  2.7424
  164SOL    HW2  492   0.426   3.186   3.190 -1.5232 -2.1144 -0.9219
  165SOL     OW  493   2.764   1.191   1.726 -0.2033 -0.0479  0.1689
  165SOL    HW1  494   2.778   1.143   1.816  1.1621 -0.7835 -1.6597
  165SOL    HW2  495   2.820   1.278   1.722 -1.3579  1.0572 -2.8284
  166SOL     OW  496   2.486   2.173   1.579 -0.0167 -0.5089 -0.6965
  166SOL    HW1  497   2.502   2.263   1.624  2.2242 -0.5610 -2.8296
  166SOL    HW2  498   2.525   2.096   1.634  1.9430  0.4396  2.9739
  167SOL     OW  499   0.091   0.922   3.584 -0.7558  0.1385 -0.7946
  167SOL    HW1  500   0.043   0.967   3.664 -3.4407 -0.1925  0.8737
  167SOL    HW2  501   0.188   0.956   3.582 -0.4806  1.3765 -1.7400
  168SOL     OW  502   2.588   0.511   3.120 -0.5421  0.2228 -0.2858
  168SOL    HW1  503   2.500   0.508   3.069 -0.8452  0.5022  0.2775
  168SOL    HW2  504   2.604   0.423   3.171  0.2040 -0.5409 -0.6597
  169SOL     OW  505   0.633   1.449   0.020 -0.0385 -0.5740 -0.3355
  169SOL    HW1  506   0.606   1.504   0.103 -0.2125 -0.0036 -0.2503
  169SOL    HW2  507   0.567   1.454  -0.057 -1.0761 -1.9786 -2.3185
  170SOL     OW  508   1.446   1.074   1.752  0.4043  0.0673  0.5325
  170SOL    HW1  509   1.483   0.991   1.705  0.2917 -0.2505  0.2174
  170SOL    HW2  510   1.514   1.151   1.746 -2.1292  1.3613  1.3936
  171SOL     OW  511   1.901   3.192   1.240 -0.0963 -0.1581 -0.0383
  171SOL    HW1  512   1.875   3.138   1.324  0.6327 -0.3865  0.3405
  171SOL    HW2  513   1.871   3.153   1.150  0.3330 -1.3364 -0.7245
  172SOL     OW  514   1.189   0.077   2.358 -0.4548 -0.3001 -0.1292
  172SOL    HW1  515   1.106   0.046   2.305  1.7452 -2.0705  1.4523
  172SOL    HW2  516   1.265   0.006   2.350 -0.1633  2.4377  0.3623
  173SOL     OW  517   0.965   2.982   1.155 -0.7139  0.1471 -0.0266
  173SOL    HW1  518   0.977   3.064   1.093  1.2456  0.0942 -0.5012
  173SOL    HW2  519   0.867   2.952   1.152 -0.9984  1.0216 -1.0218
  174SOL     OW  520   2.492   0.167   0.306 -0.9485 -0.2501  0.6963
  174SOL    HW1  521   2.395   0.191   0.334  0.9120  1.1491 -1.9360
  174SOL    HW2  522   2.498   0.073   0.266 -0.1146 -2.0059  2.4566
  175SOL     OW  523   1.116   1.630   0.812  0.1071 -0.2517  0.0491
  175SOL    HW1  524   1.145   1.729   0.817 -3.3284  4.6737  1.6855
  175SOL    HW2  525   1.027   1.616   0.861  0.4920 -0.3360  0.0257
  176SOL     OW  526   1.140   2.152   1.187 -0.6014  0.1279  0.0176
  176SOL    HW1  527   1.222   2.212   1.214 -3.5013  1.9175 -0.0376
  176SOL    HW2  528   1.056   2.204   1.159  0.3103 -0.1569  2.4442
  177SOL     OW  529   1.524   1.128   1.329 -0.2778  0.1705  0.7163
  177SOL    HW1  530   1.537   1.025   1.317  0.7595 -0.7354  0.3083
  177SOL    HW2  531   1.606   1.168   1.377  1.3686 -0.3343 -1.2408
  178SOL     OW  532   2.731   1.719   0.776  0.2201  0.1668 -0.0839
  178SOL    HW1  533   2.712   1.820   0.763  0.8388  0.7588 -0.1315
  178SOL    HW2  534   2.713   1.669   0.689  3.1728 -0.0355 -0.0118
  179SOL     OW  535   1.169   3.324   3.552  0.0329 -0.3132 -0.5256
  179SOL    HW1  536   1.129   3.276   3.634 -1.7082  0.1950 -3.8505
  179SOL    HW2  537   1.256   3.282   3.518  1.6529 -1.0162  0.0295
  180SOL     OW  538   2.033   1.402   1.929 -0.1785  0.0516 -0.5293
  180SOL    HW1  539   1.974   1.483   1.904  3.5957  1.7242  0.2252
  180SOL    HW2  540   2.132   1.432   1.942  1.3010  0.5080  0.4369
  181SOL     OW  541   0.956   1.134   1.848 -0.0055  0.2194  0.0942
  181SOL    HW1  542   0.941   1.034   1.863 -1.8787 -3.2536 -1.7343
  181SOL    HW2  543   1.015   1.175   1.923  1.9132  0.8139 -0.2503
  182SOL     OW  544   3.331   1.202   0.035  0.0053 -0.1061  0.5703
  182SOL    HW1  545   3.394   1.215  -0.047 -3.7070 -3.6914 -2.8075
  182SOL    HW2  546   3.281   1.284   0.068 -1.4177 -0.2630  1.2359
  183SOL     OW  547   2.245   0.094   2.566 -0.3141  0.7962 -0.1767
  183SOL    HW1  548   2.282   0.000   2.555  0.4469 -1.5271  0.6017
  183SOL    HW2  549   2.144   0.097   2.550  0.7815 -1.6632 -1.6156
  184SOL     OW  550   1.151   0.928   1.082 -0.4702  0.3327 -0.2260
  184SOL    HW1  551   1.108   0.866   1.011 -0.0248  0.0693 -0.8263
  184SOL    HW2  552   1.159   0.879   1.172  1.8900 -0.6307 -0.3791
  185SOL     OW  553   2.418   1.334   0.603 -0.5287 -0.7437 -1.0337
  185SOL    HW1  554   2.458   1.312   0.694  0.6575  0.3484 -1.6293
  185SOL    HW2  555   2.364   1.421   0.606  0.9782  1.0010 -2.0263
  186SOL     OW  556   0.343   2.613   0.527  0.3385 -1.3237 -0.3582
  186SOL    HW1  557   0.361   2.552   0.608 -3.1406  1.2880 -0.2021
  186SOL    HW2  558   0.376   2.570   0.437 -0.2277  0.6301  0.7168
  187SOL     OW  559   2.014   1.923   3.199 -0.0993  0.5068  0.1092
  187SOL    HW1  560   2.007   1.984   3.114 -0.2845 -1.9041  1.5225
  187SOL    HW2  561   1.992   1.976   3.285 -2.1034  2.1696 -2.7916
  188SOL     OW  562   1.585   3.464   1.662 -0.2501 -0.1518  0.5555
  188SOL    HW1  563   1.554   3.561   1.668 -1.0593  2.4463 -1.3046
  188SOL    HW2  564   1.512   3.397   1.686  0.0187  0.2958 -0.3398
  189SOL     OW  565   3.367   1.655   2.871 -0.1651 -0.2805 -0.0122
  189SOL    HW1  566   3.380   1.744   2.922 -0.4173 -0.5345  1.0434
  189SOL    HW2  567   3.289   1.601   2.913 -3.0841  0.5535  1.1306
  190SOL     OW  568   1.202   3.162   2.505  0.1397 -0.1976 -0.0610
  190SOL    HW1  569   1.201   3.069   2.547  3.3811 -2.2703 -0.9918
  190SOL    HW2  570   1.299   3.200   2.501 -1.6274 -0.5014  0.1060
  191SOL     OW  571   2.793   1.039   1.461 -0.0788 -0.6255 -0.0134
  191SOL    HW1  572   2.694   1.012   1.446  0.4955  0.7559 -1.2201
  191SOL    HW2  573   2.803   1.095   1.547 -0.2809 -0.7455 -2.6207
  192SOL     OW  574   2.328   0.621   1.276 -0.5284  0.2169  0.4908
  192SOL    HW1  575   2.423   0.583   1.262  1.7768 -0.0169 -0.7783
  192SOL    HW2  576   2.258   0.571   1.217  0.9925 -1.3515  2.1205
  193SOL     OW  577   1.025   0.060   0.286 -0.0316 -0.3193  0.0069
  193SOL    HW1  578   1.029   0.134   0.215 -0.6808 -2.1042 -1.1016
  193SOL    HW2  579   0.981   0.097   0.371  2.9866 -2.1607  2.9696
  194SOL     OW  580   1.985   2.760   1.173 -0.4565 -0.8751 -0.4206
  194SOL    HW1  581   1.939   2.831   1.113  2.5568 -1.7504 -0.0345
  194SOL    HW2  582   1.916   2.713   1.234 -1.8882  0.0698  1.0632
  195SOL     OW  583   2.823   1.004   0.864  0.7227  0.1325  0.0634
  195SOL    HW1  584   2.903   1.045   0.813  0.1394 -2.4336  0.4970
  195SOL    HW2  585   2.749   1.074   0.879 -2.3546 -0.4219 -0.1487
  196SOL     OW  586   1.184   2.812   2.091  0.1466 -0.8452 -0.1866
  196SOL    HW1  587   1.203   2.776   1.997  1.4912 -0.6011 -0.0229
  196SOL    HW2  588   1.084   2.827   2.116  0.1156 -0.3489 -2.3431
  197SOL     OW  589   3.142   0.342   2.819 -0.0215  0.0873 -0.4506
  197SOL    HW1  590   3.084   0.426   2.811  0.5878  0.7659  1.2359
  197SOL    HW2  591   3.079   0.260   2.813 -0.9392  1.9365 -1.7920
  198SOL     OW  592   2.559   1.773   0.339  0.0473 -0.1220  0.0469
  198SOL    HW1  593   2.637   1.795   0.277 -0.3448  1.4662  1.9163
  198SOL    HW2  594   2.487   1.715   0.295 -1.1484 -1.1224 -1.6822
  199SOL     OW  595   2.796   0.772   2.054 -0.0858 -0.3010 -0.1584
  199SOL    HW1  596   2.772   0.732   2.148 -0.4803 -1.4394  1.1083
  199SOL    HW2  597   2.783   0.700   1.981 -0.9945 -2.1229 -1.1698
  200SOL     OW  598   2.108   3.404   3.502  0.3190 -0.2991  0.2097
  200SOL    HW1  599   2.057   3.469   3.565  0.5826 -1.9492 -0.4164
  200SOL    HW2  600   2.209   3.407   3.522  0.1969 -0.5324  2.2839
  201SOL     OW  601   3.143   0.265   1.673  0.3069 -0.7180 -0.5192
  201SOL    HW1  602   3.060   0.219   1.710 -0.8952  1.0659  1.5190
  201SOL    HW2  603   3.113   0.355   1.632 -0.4143 -0.4231  0.4690
  202SOL     OW  604   3.215   3.553   0.638 -0.1765 -0.0647 -0.6137
  202SOL    HW1  605   3.181   3.620   0.708  1.4450  0.3282  0.8638
  202SOL    HW2  606   3.317   3.541   0.646  1.0149 -0.5173  0.7463
  203SOL     OW  607   1.747   1.839   0.545 -0.0524 -0.2089  0.1491
  203SOL    HW1  608   1.774   1.769   0.616 -1.0780  0.8426 -1.2162
  203SOL    HW2  609   1.815   1.918   0.537  2.4860  0.9026 -1.3664
  204SOL     OW  610   0.162   2.072   2.580  0.4374  0.1372 -0.1405
  204SOL    HW1  611   0.140   2.170   2.557  0.1357 -2.0248  1.5849
  204SOL    HW2  612   0.225   2.030   2.508 -2.9065  1.7113 -2.0410
  205SOL     OW  613   0.572   0.784   1.014 -0.4093 -0.1530 -0.2814
  205SOL    HW1  614   0.655   0.722   1.022  0.2846 -2.4835  2.1594
  205SOL    HW2  615   0.492   0.739   0.966  0.0392  2.2372 -1.2710
  206SOL     OW  616   0.434   1.171   3.065  0.5627 -0.1344  0.3820
  206SOL    HW1  617   0.454   1.256   3.010  2.1302 -0.5083  1.3932
  206SOL    HW2  618   0.517   1.109   3.075 -0.7159 -0.4950 -0.3504
  207SOL     OW  619   1.602   2.725   1.790 -0.4031 -0.1954  0.5650
  207SOL    HW1  620   1.639   2.739   1.885 -1.2422  0.8975  1.6348
  207SOL    HW2  621   1.556   2.632   1.782  0.7449  0.6455  1.0641
  208SOL     OW  622   2.690   0.366   1.196 -0.1774 -0.2919 -0.7579
  208SOL    HW1  623   2.751   0.299   1.245 -0.9928  0.6011  0.9590
  208SOL    HW2  624   2.634   0.325   1.120  3.8837 -0.1103 -2.7553
  209SOL     OW  625   2.256   1.169   0.993 -0.1673 -0.7125  0.0058
  209SOL    HW1  626   2.245   1.102   1.071 -0.3746 -1.3473 -1.3365
  209SOL    HW2  627   2.192   1.140   0.916 -0.9818 -1.0237  0.6849
  210SOL     OW  628   2.514   1.272   0.876 -0.3922 -0.0945  0.1969
  210SOL    HW1  629   2.434   1.239   0.933 -2.0993 -1.9668  1.6478
  210SOL    HW2  630   2.565   1.346   0.927 -0.9543 -1.0924  2.3218
  211SOL     OW  631   1.054   3.360   3.274  0.0247 -0.3254 -0.3003
  211SOL    HW1  632   0.978   3.294   3.249  0.3463  1.1188 -2.2036
  211SOL    HW2  633   1.082   3.355   3.372  0.1799 -0.7586  1.8774
  212SOL     OW  634   2.178   2.048   0.738 -0.0907 -0.2989  0.1476
  212SOL    HW1  635   2.222   2.103   0.812 -0.2983 -1.3255  2.2212
  212SOL    HW2  636   2.246   2.030   0.663 -0.0521 -1.1055 -0.3982
  213SOL     OW  637   2.685   3.349   0.268 -0.4360 -0.0288  0.0217
  213SOL    HW1  638   2.660   3.251   0.289 -0.1451  0.3850  0.1735
  213SOL    HW2  639   2.734   3.362   0.177 -4.1438  1.1182  1.8789
  214SOL     OW  640   1.465   2.797   2.729  0.2705 -0.4354  0.0195
  214SOL    HW1  641   1.562   2.832   2.712 -3.0808  2.5739  1.7237
  214SOL    HW2  642   1.463   2.703   2.683  0.1760 -0.3681 -1.4517
  215SOL     OW  643   0.397   1.531   1.151 -0.4713 -0.5784 -0.1211
  215SOL    HW1  644   0.303   1.539   1.191 -1.2509 -3.9883 -0.9802
  215SOL    HW2  645   0.427   1.621   1.111 -2.0575 -0.4339 -0.1167
  216SOL     OW  646   0.127   0.104   2.830  0.9442 -0.7730  0.5701
  216SOL    HW1  647   0.182   0.168   2.769 -0.1284  1.7904  2.6133
  216SOL    HW2  648   0.064   0.042   2.775 -0.2152  2.6325 -1.8616
  217SOL     OW  649   3.417   1.765   1.725  0.7469  0.5591 -0.2981
  217SOL    HW1  650   3.513   1.750   1.692  2.0394  0.1409  0.3080
  217SOL    HW2  651   3.393   1.700   1.802 -0.6246  2.4041 -3.0813
  218SOL     OW  652   0.810   2.813   2.021 -0.4879 -0.4996 -0.4262
  218SOL    HW1  653   0.713   2.845   2.025 -0.0362 -0.1081  0.3268
  218SOL    HW2  654   0.829   2.736   2.086  1.6940 -0.2264  1.4561
  219SOL     OW  655   2.523   2.261   3.429 -0.3106 -0.4283  0.1318
  219SOL    HW1  656   2.546   2.257   3.328 -0.8596  1.9847 -0.2159
  219SOL    HW2  657   2.541   2.170   3.477  1.6384  0.7508  1.9870
  220SOL     OW  658   2.146   0.255   0.069  0.9770  0.3555 -0.2496
  220SOL    HW1  659   2.218   0.233  -0.002  1.0978  2.3106 -0.6344
  220SOL    HW2  660   2.109   0.348   0.048  1.0019  1.7459  0.3095
  221SOL     OW  661   3.355   1.248   0.365  0.1056  0.3780  0.0338
  221SOL    HW1  662   3.330   1.154   0.332  0.1753 -2.4750 -1.9027
  221SOL    HW2  663   3.320   1.317   0.298  2.5621 -0.9857  0.1016
  222SOL     OW  664   1.855   1.647   0.763  0.6168 -0.1348  0.4143
  222SOL    HW1  665   1.832   1.575   0.833  2.1362 -1.4514 -2.9004
  222SOL    HW2  666   1.924   1.713   0.803 -0.6298  0.8145  1.0980
  223SOL     OW  667   0.944   0.307   3.463  0.1045 -0.0921 -0.0705
  223SOL    HW1  668   1.018   0.266   3.404  0.6982  1.9096 -3.9078
  223SOL    HW2  669   0.931   0.405   3.435 -0.5242  1.4071  1.9623
  224SOL     OW  670   1.174   3.387   1.340  0.1187 -0.3740 -0.7104
  224SOL    HW1  671   1.167   3.487   1.363 -1.3255  3.0870  0.1096
  224SOL    HW2  672   1.094   3.335   1.381 -2.2432 -0.9399  0.5824
  225SOL     OW  673   1.071   0.170   2.615  0.3873 -0.0620  0.7353
  225SOL    HW1  674   1.113   0.127   2.531  0.8902 -0.5948 -2.3926
  225SOL    HW2  675   1.010   0.099   2.661  3.1192  0.6669  1.2027
  226SOL     OW  676   1.484   1.851   0.944  0.2409 -0.0147 -0.1340
  226SOL    HW1  677   1.559   1.922   0.948 -0.3798  1.1713  0.5780
  226SOL    HW2  678   1.531   1.759   0.931  0.2799  1.5236  0.7668
  227SOL     OW  679   0.188   2.676   1.733 -0.1264  0.0218  0.2442
  227SOL    HW1  680   0.207   2.693   1.631  0.2917 -1.7980  0.6253
  227SOL    HW2  681   0.221   2.583   1.761  1.7863 -1.6606  2.5585
  228SOL     OW  682   0.097   2.209   0.402 -0.1007 -0.0912  0.2133
  228SOL    HW1  683   0.068   2.301   0.366 -1.1474 -1.4114  1.2935
  228SOL    HW2  684   0.164   2.218   0.478  1.5518  0.3022  2.2474
  229SOL     OW  685   2.860   0.277   3.491  0.2334 -0.0760  0.7514
  229SOL    HW1  686   2.926   0.305   3.417 -0.4986 -1.2071 -1.3776
  229SOL    HW2  687   2.896   0.198   3.546 -2.1574 -0.1363  0.4040
  230SOL     OW  688   3.064   1.018   0.449  0.5507 -0.2967 -0.2984
  230SOL    HW1  689   3.136   1.008   0.375 -1.0040  0.4346 -3.6243
  230SOL    HW2  690   2.984   1.069   0.407  0.6623  1.8722  0.7341
  231SOL     OW  691   1.930   2.084   0.550  0.4479 -0.2053  0.0656
  231SOL    HW1  692   2.010   2.071   0.614 -0.3621  2.3981 -0.3056
  231SOL    HW2  693   1.929   2.181   0.513 -1.7183  0.1552  0.8486
  232SOL     OW  694   2.102   2.369   1.204  0.5821  0.6380  0.4139
  232SOL    HW1  695   2.155   2.445   1.163  0.4321 -0.5063  1.5676
  232SOL    HW2  696   2.150   2.279   1.191 -4.0780  1.0110  2.4607
  233SOL     OW  697   0.687   3.377   2.188 -0.1174 -0.4309  0.0300
  233SOL    HW1  698   0.741   3.464   2.198 -0.0207 -1.5173  1.2476
  233SOL    HW2  699   0.674   3.364   2.086  0.4011 -0.5528 -0.7048
  234SOL     OW  700   0.801   0.420   2.865 -0.7259 -0.2668 -0.2606
  234SOL    HW1  701   0.855   0.424   2.777  0.1726 -1.4953  1.1410
  234SOL    HW2  702   0.857   0.465   2.940 -0.8041 -1.1983 -0.5325
  235SOL     OW  703   3.077   1.252   2.280  0.5321 -0.7233 -0.2797
  235SOL    HW1  704   3.167   1.209   2.307  0.6567  1.5678 -1.0626
  235SOL    HW2  705   3.020   1.188   2.222  0.5518  0.7336  1.9628
  236SOL     OW  706   1.922   3.256   1.629 -0.0620 -0.1919 -0.0075
  236SOL    HW1  707   1.993   3.291   1.563  0.5364 -1.3984  1.0337
  236SOL    HW2  708   1.854   3.331   1.651 -2.6005  0.4017 -0.9358
  237SOL     OW  709   0.504   1.989   3.009 -0.4716 -0.0116 -0.3863
  237SOL    HW1  710   0.578   2.033   2.954 -1.3896  2.7134 -2.5382
  237SOL    HW2  711   0.428   1.949   2.951  1.8315 -1.8141 -0.2300
  238SOL     OW  712   1.397   1.112   2.543 -0.3768 -0.2602 -0.2988
  238SOL    HW1  713   1.458   1.164   2.479 -1.7276  2.3599  0.6271
  238SOL    HW2  714   1.335   1.047   2.492  1.9646 -0.5854 -3.1929
  239SOL     OW  715   0.990   1.987   2.921 -0.4508 -0.2581 -0.2168
  239SOL    HW1  716   0.982   2.020   3.018 -1.1054 -0.5116 -0.0103
  239SOL    HW2  717   1.020   2.061   2.856 -0.1342  1.5659 -1.9335
  240SOL     OW  718   2.804   3.037   0.555 -0.2615  0.4344  0.5580
  240SOL    HW1  719   2.724   3.063   0.495 -1.0841  2.5864 -0.8656
  240SOL    HW2  720   2.860   3.121   0.581 -0.6747 -0.2220 -1.7708
  241SOL     OW  721   0.382   1.218   0.161  0.2044 -0.3948  0.1235
  241SOL    HW1  722   0.382   1.184   0.259 -0.2823  2.5650 -1.5553
  241SOL    HW2  723   0.454   1.291   0.146  0.3123  0.3613  0.5897
  242SOL     OW  724   1.800   3.430   1.962 -0.2836 -1.2148  0.4741
  242SOL    HW1  725   1.729   3.449   1.888  2.0068 -1.2428 -0.9747
  242SOL    HW2  726   1.826   3.331   1.964 -1.1433  3.9203  1.9963
  243SOL     OW  727   1.426   3.041   2.132  0.4897 -0.6871 -0.5638
  243SOL    HW1  728   1.378   3.131   2.119 -2.5678 -0.4096  1.2326
  243SOL    HW2  729   1.357   2.962   2.128 -2.7664  3.3858  2.7127
  244SOL     OW  730   2.744   0.671   2.942  0.1687 -0.5412 -0.1084
  244SOL    HW1  731   2.715   0.771   2.944  1.2318  0.0478  2.8479
  244SOL    HW2  732   2.696   0.613   3.011  0.9657  0.2963  0.9805
  245SOL     OW  733   1.791   2.645   1.356 -0.1849  0.0293 -0.0375
  245SOL    HW1  734   1.812   2.665   1.454  2.8063 -0.2536 -0.1438
  245SOL    HW2  735   1.736   2.558   1.350  0.7657 -1.6470  0.1184
  246SOL     OW  736   1.546   0.309   0.028  0.1392  0.3027 -0.4929
  246SOL    HW1  737   1.614   0.337   0.099  2.2281 -1.7887 -0.3985
  246SOL    HW2  738   1.591   0.308  -0.063 -2.2772  1.3944  0.5457
  247SOL     OW  739   2.008   0.408   2.251  0.1774  0.7034 -0.0886
  247SOL    HW1  740   2.083   0.411   2.179  2.1434 -0.4546  3.9216
  247SOL    HW2  741   2.010   0.327   2.316 -1.0478  0.9295  1.3256
  248SOL     OW  742   0.015   2.818   1.904  0.0853 -0.4021  0.6343
  248SOL    HW1  743   0.057   2.913   1.909 -1.9578  0.1768  1.1404
  248SOL    HW2  744   0.065   2.753   1.842 -0.7255  0.6709  4.3134
  249SOL     OW  745   0.645   0.286   0.445 -0.0619 -0.6525 -0.1694
  249SOL    HW1  746   0.545   0.304   0.456 -0.4601 -0.6113  0.1046
  249SOL    HW2  747   0.657   0.193   0.404 -2.0077  1.4100  0.2967
  250SOL     OW  748   2.819   0.208   2.607 -0.2807 -0.3091  0.1123
  250SOL    HW1  749   2.742   0.243   2.664 -0.2639 -2.3745  2.0245
  250SOL    HW2  750   2.852   0.275   2.537  1.2250 -1.2700  2.3291
  251SOL     OW  751   1.575   0.795   3.627  0.1153 -0.0249 -0.0358
  251SOL    HW1  752   1.563   0.743   3.716 -1.0992  1.0629  1.3100
  251SOL    HW2  753   1.500   0.779   3.559  0.5209  1.5458  1.7911
  252SOL     OW  754   1.849   2.921   2.653 -0.2096 -0.3774 -0.2065
  252SOL    HW1  755   1.936   2.949   2.704  0.3807 -1.4357  2.1315
  252SOL    HW2  756   1.822   2.992   2.582  0.6470  0.9899 -0.2391
  253SOL     OW  757   3.280   3.095   0.439  0.3505  0.4210 -0.6313
  253SOL    HW1  758   3.217   3.140   0.506  1.0623 -2.7989  0.7300
  253SOL    HW2  759   3.371   3.074   0.482 -1.0103 -1.7747 -2.9959
  254SOL     OW  760   2.494   1.171   1.659 -0.8051  0.0687  0.4713
  254SOL    HW1  761   2.455   1.261   1.629  0.0366 -1.8620  0.3472
  254SOL    HW2  762   2.593   1.185   1.683 -1.4542 -3.1079  0.5413
  255SOL     OW  763   1.053   3.286   1.718 -0.5858 -0.1872  0.3205
  255SOL    HW1  764   1.001   3.274   1.630 -0.4253  0.6319 -2.0998
  255SOL    HW2  765   1.010   3.224   1.787  3.1516 -2.1506  1.3699
  256SOL     OW  766   2.778   1.953   1.990 -0.1569 -0.4992 -0.2779
  256SOL    HW1  767   2.723   1.943   1.903  1.0413  0.4179 -1.7852
  256SOL    HW2  768   2.868   2.001   1.976 -0.0703 -0.5383 -0.8296
  257SOL     OW  769   0.534   2.842   3.066 -0.1849  0.4734 -0.3735
  257SOL    HW1  770   0.582   2.783   3.135  2.1899  2.3599  3.3056
  257SOL    HW2  771   0.491   2.927   3.105  1.6558 -0.3333  0.5057
  258SOL     OW  772   0.691   2.917   1.172  0.1874  0.6153  0.0269
  258SOL    HW1  773   0.623   2.991   1.144 -0.5070  0.4969 -1.5708
  258SOL    HW2  774   0.648   2.821   1.167 -0.2892  0.8115 -0.5780
  259SOL     OW  775   1.708   0.515   3.155  0.2412 -0.1698 -0.0231
  259SOL    HW1  776   1.806   0.513   3.183  1.3275  0.5060  0.7173
  259SOL    HW2  777   1.682   0.607   3.118 -1.2284  3.3652  1.6695
  260SOL     OW  778   0.373   0.406   1.540 -0.0013 -0.2468 -0.1107
  260SOL    HW1  779   0.470   0.443   1.551  1.2322 -2.2572 -1.4971
  260SOL    HW2  780   0.358   0.368   1.443  0.1719  1.7315 -0.8637
  261SOL     OW  781   1.457   0.046   2.782  0.2066 -0.0502 -0.0492
  261SOL    HW1  782   1.421  -0.051   2.794  0.6741 -0.6561  1.1123
  261SOL    HW2  783   1.379   0.114   2.784 -1.7205 -0.6502  0.0240
  262SOL     OW  784   1.407   3.470   2.306 -0.4553 -0.0504 -0.2951
  262SOL    HW1  785   1.428   3.405   2.384 -0.6538 -0.9875  0.7130
  262SOL    HW2  786   1.363   3.423   2.226 -1.3169 -1.1227 -0.4740
  263SOL     OW  787   0.775   2.522   0.053 -0.8666  0.2234  0.1377
  263SOL    HW1  788   0.850   2.591   0.032  1.7434 -3.5980 -0.3908
  263SOL    HW2  789   0.789   2.432   0.005 -1.1276 -0.8165 -2.7120
  264SOL     OW  790   1.685   2.094   1.199  0.2223  0.2789  0.1880
  264SOL    HW1  791   1.772   2.045   1.229 -0.1318  0.6724  0.8658
  264SOL    HW2  792   1.677   2.093   1.098 -1.5605 -3.2557  0.6646
  265SOL     OW  793   1.079   2.760   0.435  0.1361 -0.1256 -0.3235
  265SOL    HW1  794   1.156   2.701   0.397 -0.4831  0.7078 -1.1370
  265SOL    HW2  795   1.006   2.698   0.475 -0.6747  1.4332  0.9793
  266SOL     OW  796   3.228   1.043   1.209  0.1171  0.0544  0.1174
  266SOL    HW1  797   3.176   0.979   1.149  2.5110 -2.4112 -0.6076
  266SOL    HW2  798   3.282   0.996   1.283  0.3278  1.1613  0.5177
  267SOL     OW  799   0.293   1.689   0.328  0.3404 -0.3005  0.1811
  267SOL    HW1  800   0.256   1.704   0.423  0.5785 -0.2115  1.6169
  267SOL    HW2  801   0.215   1.671   0.263 -0.0974  3.6432 -0.7109
  268SOL     OW  802   1.552   0.650   0.268 -0.0572  0.0229 -0.0593
  268SOL    HW1  803   1.450   0.643   0.285 -1.7047  2.2935  2.6429
  268SOL    HW2  804   1.590   0.713   0.340  2.1067  2.8344 -2.2715
  269SOL     OW  805   3.033   0.814   2.613  0.1490 -0.2719 -0.0046
  269SOL    HW1  806   3.044   0.886   2.685 -2.4859 -0.2154 -0.7144
  269SOL    HW2  807   3.110   0.829   2.545 -0.6209 -0.9061 -1.0903
  270SOL     OW  808   3.088   1.373   0.865 -0.3513  0.8770 -0.2144
  270SOL    HW1  809   3.087   1.449   0.793 -0.7950  0.0976 -0.4346
  270SOL    HW2  810   3.069   1.283   0.816  3.2246 -2.3684  0.7545
  271SOL     OW  811   0.230   1.385   2.651  0.0059  0.4410  0.2061
  271SOL    HW1  812   0.288   1.349   2.575  0.1389 -0.2524  0.9699
  271SOL    HW2  813   0.201   1.481   2.627 -0.2482  0.7254  0.5377
  272SOL     OW  814   2.963   2.673   2.126 -0.3622  0.2883  0.0591
  272SOL    HW1  815   2.907   2.701   2.208 -0.8341  0.5113 -0.8981
  272SOL    HW2  816   3.046   2.620   2.158  0.7455 -0.4721  1.0906
  273SOL     OW  817   0.256   2.971   3.434  0.0493 -0.1468  0.2256
  273SOL    HW1  818   0.319   2.893   3.457 -0.3272 -1.6094 -1.0044
  273SOL    HW2  819   0.175   2.943   3.378  1.4559  0.5164 -0.6692
  274SOL     OW  820   0.966   2.620   0.871  0.4919 -0.0764 -0.2588
  274SOL    HW1  821   0.983   2.659   0.965  1.9028  0.3858  0.3476
  274SOL    HW2  822   1.052   2.573   0.834 -0.0676  3.1326 -3.4777
  275SOL     OW  823   1.713   2.509   2.933 -0.6010  0.5220  0.6111
  275SOL    HW1  824   1.749   2.551   2.846  1.5058 -0.9560 -1.0894
  275SOL    HW2  825   1.610   2.493   2.930  1.7043 -3.1578 -1.7597
  276SOL     OW  826   3.370   2.106   2.413 -0.2403  0.3406  1.0717
  276SOL    HW1  827   3.314   2.050   2.347  0.9446  0.6127  1.0718
  276SOL    HW2  828   3.311   2.140   2.489 -1.2929  0.4493  1.5140
  277SOL     OW  829   2.552   0.231   0.985 -0.1090  0.1612  0.1360
  277SOL    HW1  830   2.625   0.228   0.911 -0.1619  3.1094  1.6755
  277SOL    HW2  831   2.457   0.243   0.946 -1.4090 -0.0462  0.2380
  278SOL     OW  832   1.677   0.006   2.957 -0.3688 -0.7654  0.0740
  278SOL    HW1  833   1.597   0.031   2.897 -0.4128  2.5774 -0.0541
  278SOL    HW2  834   1.649  -0.004   3.056 -0.9633  3.5795 -0.6842
  279SOL     OW  835   1.377   3.190   1.209 -0.1356 -0.2226 -0.0048
  279SOL    HW1  836   1.375   3.101   1.261  1.9881  0.2184 -3.3209
  279SOL    HW2  837   1.313   3.261   1.249 -1.9594 -0.5559 -2.2802
  280SOL     OW  838   1.454   1.283   0.569  0.5580 -0.3274  0.7825
  280SOL    HW1  839   1.389   1.205   0.590  4.9180 -0.4617 -0.9594
  280SOL    HW2  840   1.470   1.335   0.657 -0.0635  1.6733 -3.4517
  281SOL     OW  841   2.435   2.021   0.541 -0.1606  0.1133 -0.0969
  281SOL    HW1  842   2.513   2.043   0.605  1.5325  0.8678  2.2617
  281SOL    HW2  843   2.464   1.944   0.477  0.7115 -0.2216  0.3591
  282SOL     OW  844   3.350   1.686   0.656  0.0007 -0.3778 -0.3586
  282SOL    HW1  845   3.256   1.716   0.626 -0.0470 -0.0871  1.9308
  282SOL    HW2  846   3.423   1.705   0.588 -1.2699 -0.2757  0.0034
  283SOL     OW  847   2.046   2.983   3.452  0.0226 -0.5827  0.2924
  283SOL    HW1  848   1.978   2.920   3.406 -1.2639 -1.4053 -2.4306
  283SOL    HW2  849   2.069   3.065   3.393 -1.5901 -0.3155  0.6758
  284SOL     OW  850   0.496   0.502   2.844  0.7066 -0.6255 -0.6408
  284SOL    HW1  851   0.594   0.476   2.863 -0.2455  0.0070  2.6977
  284SOL    HW2  852   0.440   0.500   2.932 -4.3549  1.2384  2.0351
  285SOL     OW  853   2.363   1.615   0.224  0.6185  0.1042  0.2862
  285SOL    HW1  854   2.336   1.629   0.125  0.7733 -0.7017 -0.6284
  285SOL    HW2  855   2.345   1.519   0.254  2.2378 -1.2636 -1.7933
  286SOL     OW  856   1.179   2.277   1.960  0.0261  0.2889 -0.0005
  286SOL    HW1  857   1.249   2.207   1.987 -2.1340 -1.6424 -0.0988
  286SOL    HW2  858   1.207   2.326   1.872  0.7022 -1.3962  0.7211
  287SOL     OW  859   2.082   3.348   1.411 -0.0825  0.0643 -0.2495
  287SOL    HW1  860   2.023   3.303   1.339 -0.4760  2.4416 -0.5053
  287SOL    HW2  861   2.116   3.440   1.380  5.0557  2.2706  0.0624
  288SOL     OW  862   0.648   3.107   2.280  0.3182 -0.0699 -0.5721
  288SOL    HW1  863   0.668   3.205   2.260  1.7359  0.6541 -1.4997
  288SOL    HW2  864   0.548   3.083   2.265  1.7298  0.2442 -0.9353
  289SOL     OW  865   3.601   2.083   0.867 -0.1014  0.2597  0.0254
  289SOL    HW1  866   3.558   1.991   0.882 -1.4891  0.6832 -2.0805
  289SOL    HW2  867   3.543   2.142   0.805 -1.0676  1.5320  2.2127
  290SOL     OW  868   0.859   2.567   2.206  0.2810  0.0807  0.0342
  290SOL    HW1  869   0.893   2.476   2.170  1.5172 -0.0829  1.9549
  290SOL    HW2  870   0.861   2.570   2.308  1.3530 -2.4001  0.7841
  291SOL     OW  871   2.216   0.236   0.351  0.5172 -0.8248  0.0476
  291SOL    HW1  872   2.174   0.323   0.390 -1.9017  0.4301  2.4329
  291SOL    HW2  873   2.190   0.230   0.252  0.5410 -1.1746 -2.2978
  292SOL     OW  874   0.725   0.388   1.835  0.0739  0.2033  0.3591
  292SOL    HW1  875   0.645   0.328   1.864  1.2433  0.4381  1.7411
  292SOL    HW2  876   0.805   0.378   1.899  2.2649  0.2203 -0.1850
  293SOL     OW  877   2.570   1.592   1.313 -0.1296  0.3554  0.1067
  293SOL    HW1  878   2.658   1.623   1.358  0.7495  0.3903  0.9629
  293SOL    HW2  879   2.583   1.560   1.215  1.1931 -0.6837  2.5677
  294SOL     OW  880   0.470   0.381   2.584  0.7310  0.2501 -0.0077
  294SOL    HW1  881   0.390   0.416   2.532  1.2302  2.8089 -1.1535
  294SOL    HW2  882   0.470   0.422   2.678  1.1073  0.2291  2.3262
  295SOL     OW  883   1.194   1.697   0.362  0.1406 -0.7717 -0.4475
  295SOL    HW1  884   1.264   1.625   0.341  1.2779  1.5400 -1.3519
  295SOL    HW2  885   1.124   1.653   0.424 -0.0154  0.8787 -1.1578
  296SOL     OW  886   2.188   1.287   1.379 -0.6040 -0.1781 -0.6408
  296SOL    HW1  887   2.187   1.332   1.285 -0.4472 -0.5458  0.7714
  296SOL    HW2  888   2.255   1.336   1.441  2.1981 -1.2193 -2.2682
  297SOL     OW  889   2.129   0.981   2.915 -0.1818  0.5421 -0.1034
  297SOL    HW1  890   2.231   0.978   2.904 -1.1522  2.1173 -0.2566
  297SOL    HW2  891   2.092   1.052   2.851  0.4321  0.9023  1.1982
  298SOL     OW  892   1.053   0.602   3.055 -0.0276  0.1117 -0.0808
  298SOL    HW1  893   1.113   0.555   3.123 -0.7030  3.1326 -1.6420
  298SOL    HW2  894   1.101   0.651   2.977  1.0689  2.2806 -1.1710
  299SOL     OW  895   1.562   0.420   2.409  0.9269 -0.1586 -0.4234
  299SOL    HW1  896   1.465   0.406   2.379 -1.6109 -0.9024  1.3582
  299SOL    HW2  897   1.569   0.485   2.488  1.9247  0.7837 -1.3049
  300SOL     OW  898   2.937   0.049   2.153 -0.5310 -0.1588  0.3506
  300SOL    HW1  899   2.921  -0.018   2.077  0.1714 -1.9021 -0.8900
  300SOL    HW2  900   3.032   0.089   2.149 -0.4266 -0.2940  0.6179
  301SOL     OW  901   2.154   0.988   1.978 -0.0427 -0.1019 -0.1921
  301SOL    HW1  902   2.075   1.051   1.962  0.8832  0.9034 -2.1769
  301SOL    HW2  903   2.178   0.988   2.078  2.5550 -1.0977  0.5208
  302SOL     OW  904   0.802   3.313   2.915  0.4938 -0.2345 -0.2455
  302SOL    HW1  905   0.729   3.284   2.848 -0.3552 -0.8198  0.7211
  302SOL    HW2  906   0.894   3.317   2.867  1.3865  0.3786  0.1417
  303SOL     OW  907   1.937   2.267   1.971 -0.7420 -0.1604 -0.2218
  303SOL    HW1  908   1.996   2.253   1.889 -1.5028 -1.6534  0.5161
  303SOL    HW2  909   1.839   2.250   1.949  2.5375  1.3526  1.0525
  304SOL     OW  910   0.240   3.355   0.814  0.8860  0.0551 -0.6249
  304SOL    HW1  911   0.308   3.285   0.785  1.0871 -1.5353 -0.9753
  304SOL    HW2  912   0.151   3.310   0.841 -1.0530  2.3752 -1.6734
  305SOL     OW  913   1.670   0.820   0.472  0.1065 -0.1854 -0.1949
  305SOL    HW1  914   1.680   0.921   0.453  1.7927  1.9763  1.3423
  305SOL    HW2  915   1.647   0.801   0.570 -0.8332  1.8237 -2.1248
  306SOL     OW  916   0.441   1.935   0.152 -0.2196 -0.1113 -0.3161
  306SOL    HW1  917   0.536   1.955   0.190  0.6683 -4.4528  1.2389
  306SOL    HW2  918   0.390   1.861   0.203 -0.9566  0.3369  0.8520
  307SOL     OW  919   0.665   1.192   2.115 -0.1732  0.1462 -0.2172
  307SOL    HW1  920   0.666   1.228   2.017  3.4297  1.7147 -0.2574
  307SOL    HW2  921   0.633   1.093   2.111 -2.8336 -0.4836 -0.0338
  308SOL     OW  922   0.830   0.201   1.341  0.0583  0.1830  0.6113
  308SOL    HW1  923   0.776   0.238   1.262 -0.6270  2.3788  0.1329
  308SOL    HW2  924   0.845   0.274   1.411 -0.0159 -0.6821  0.3895
  309SOL     OW  925   2.488   0.913   0.115  0.2500  0.0987 -0.2753
  309SOL    HW1  926   2.577   0.866   0.134 -0.6800  0.1868  0.2304
  309SOL    HW2  927   2.508   0.985   0.045  1.8900 -1.3857  2.2790
  310SOL     OW  928   1.372   1.257   0.098  0.0628  0.7042  0.7149
  310SOL    HW1  929   1.306   1.287   0.025  1.3929  0.7438  3.1155
  310SOL    HW2  930   1.374   1.330   0.171 -0.3858 -2.0237 -0.3300
  311SOL     OW  931   2.038   2.692   2.986 -0.2064 -0.6528  0.2481
  311SOL    HW1  932   1.961   2.663   2.921 -2.7428  0.3300 -1.0168
  311SOL    HW2  933   2.094   2.766   2.935  2.1500 -0.9525 -0.5818
  312SOL     OW  934   2.439   3.539   3.538 -0.3478  0.1619 -1.4529
  312SOL    HW1  935   2.410   3.636   3.519 -0.8338  3.5409 -0.7704
  312SOL    HW2  936   2.451   3.528   3.639 -1.1496  1.4426 -1.6489
  313SOL     OW  937   0.436   0.479   0.704  0.6525  0.3048  0.3122
  313SOL    HW1  938   0.382   0.535   0.771  1.9268  0.5326  1.6963
  313SOL    HW2  939   0.506   0.535   0.651  0.3984 -1.3151  1.5728
  314SOL     OW  940   3.034   1.553   3.439  0.5948  0.6464  1.2544
  314SOL    HW1  941   3.059   1.489   3.361  0.5451 -1.1615 -0.9049
  314SOL    HW2  942   3.077   1.645   3.423  0.6630 -1.2032  0.8514
  315SOL     OW  943   2.220   1.001   2.272 -0.4954 -0.0531 -0.0927
  315SOL    HW1  944   2.230   0.927   2.343 -0.0654 -1.9041 -1.1507
  315SOL    HW2  945   2.190   1.090   2.314 -2.6422  0.7650 -0.1261
  316SOL     OW  946   0.058   1.033   1.039  0.5105  0.2089 -0.4329
  316SOL    HW1  947  -0.023   1.096   1.039  1.2799  2.6682  1.7916
  316SOL    HW2  948   0.090   1.017   0.942 -3.4955  1.5112  4.7070
  317SOL     OW  949   0.483   0.345   0.100 -0.9872  0.4055 -0.0931
  317SOL    HW1  950   0.470   0.316   0.199 -0.2279  0.8384 -1.9656
  317SOL    HW2  951   0.559   0.291   0.055  0.8154 -1.8367 -0.8205
  318SOL     OW  952   3.101   3.322   1.596 -0.2368  0.9540  0.1250
  318SOL    HW1  953   3.095   3.238   1.538  1.4552  3.1393 -0.0152
  318SOL    HW2  954   3.080   3.303   1.696  0.6035 -1.2531 -3.0146
  319SOL     OW  955   1.452   2.072   0.230 -0.6315  0.2009  0.2785
  319SOL    HW1  956   1.420   2.164   0.198  0.3466 -1.6662  0.4883
  319SOL    HW2  957   1.403   2.046   0.316 -0.1512 -2.0092 -1.5964
  320SOL     OW  958   0.764   2.505   1.244  0.5414 -0.2786  0.0601
  320SOL    HW1  959   0.782   2.525   1.343  1.2531 -2.1126  0.0469
  320SOL    HW2  960   0.684   2.562   1.213  1.1677  1.5161  0.4919
  321SOL     OW  961   2.594   2.713   2.897  0.1715  0.0782  0.0406
  321SOL    HW1  962   2.510   2.738   2.844  0.1636  2.0678 -1.0056
  321SOL    HW2  963   2.670   2.695   2.830 -0.1716 -2.3616  0.6710
  322SOL     OW  964   3.455   2.946   2.753 -0.3750 -0.2573  0.1327
  322SOL    HW1  965   3.510   2.917   2.836 -0.2683 -0.4625  3.6005
  322SOL    HW2  966   3.376   3.001   2.792  1.8851  0.9028 -1.2385
  323SOL     OW  967   3.239   0.419   1.020  0.6467 -0.0668 -0.2381
  323SOL    HW1  968   3.318   0.464   0.972  4.3171 -2.6395 -0.1819
  323SOL    HW2  969   3.150   0.448   0.976 -1.9963 -2.8646 -2.6086
  324SOL     OW  970   2.970   2.091   2.763  0.0933  0.1474 -0.1813
  324SOL    HW1  971   2.952   2.051   2.669  1.0137  0.6562  0.8374
  324SOL    HW2  972   2.956   2.019   2.836  1.3686  0.4717 -1.1644
  325SOL     OW  973   1.923   0.529   2.747 -0.2530 -0.4509 -0.0428
  325SOL    HW1  974   1.936   0.600   2.820 -0.8785  1.3682 -0.2205
  325SOL    HW2  975   1.958   0.555   2.655 -0.8196 -0.1509  0.4937
  326SOL     OW  976   3.369   2.541   0.682 -0.4791 -0.1702 -0.0532
  326SOL    HW1  977   3.333   2.585   0.768  1.0042  2.6721  0.3474
  326SOL    HW2  978   3.452   2.593   0.650 -0.8776  2.5982 -0.1080
  327SOL     OW  979   3.024   0.003   3.625  0.1217  0.2856 -0.0854
  327SOL    HW1  980   2.951  -0.070   3.639  2.5901  2.6037 -0.2101
  327SOL    HW2  981   3.098  -0.033   3.565 -2.3650  1.3997 -0.5124
  328SOL     OW  982   1.034   0.731   0.894 -0.7358 -0.4439  0.1174
  328SOL    HW1  983   0.984   0.755   0.808 -0.3492  2.0700 -3.9931
  328SOL    HW2  984   1.123   0.688   0.869 -0.2448 -1.6513 -2.0793
  329SOL     OW  985   2.412   0.944   1.836 -0.9531 -0.0601  0.1743
  329SOL    HW1  986   2.327   0.963   1.892  0.8435 -1.7463  0.0786
  329SOL    HW2  987   2.439   1.025   1.778  2.2729 -0.9666  1.3642
  330SOL     OW  988   1.547   0.290   0.711 -0.6335 -0.6787 -0.1275
  330SOL    HW1  989   1.508   0.385   0.726  2.0746  0.0519 -0.5903
  330SOL    HW2  990   1.638   0.304   0.666 -0.3008  0.6309 -0.3811
  331SOL     OW  991   0.613   2.307   2.308  0.0775  0.3432  0.6600
  331SOL    HW1  992   0.687   2.319   2.235  1.2085  0.6716 -2.2556
  331SOL    HW2  993   0.570   2.394   2.343  0.1784  1.6061 -1.3100
  332SOL     OW  994   2.621   2.334   1.976  0.3934  0.3678 -0.2108
  332SOL    HW1  995   2.584   2.260   2.039 -0.0497  0.3908  1.2519
  332SOL    HW2  996   2.725   2.328   1.981  0.7739  1.2744 -0.0531
  333SOL     OW  997   3.408   3.593   1.080  0.3176 -0.6050  0.1720
  333SOL    HW1  998   3.334   3.651   1.124  0.0605 -0.3301  1.6610
  333SOL    HW2  999   3.450   3.643   1.002  0.4509  0.8720  0.1208
  334SOL     OW 1000   3.389   1.902   1.223 -0.2908  0.2670  0.3104
  334SOL    HW1 1001   3.484   1.906   1.265  1.4897  1.5385 -1.1742
  334SOL    HW2 1002   3.394   1.858   1.130 -3.0191  4.5731  1.0583
  335SOL     OW 1003   0.641   3.532   3.027  0.0994  0.2769 -0.3118
  335SOL    HW1 1004   0.557   3.493   3.068  2.1470  0.1170  1.4352
  335SOL    HW2 1005   0.701   3.457   2.988  1.7008  0.9130 -0.9023
  336SOL     OW 1006   0.186   3.169   1.867  0.0836  0.6254  0.2239
  336SOL    HW1 1007   0.123   3.207   1.795 -0.1197 -2.4742  2.5668
  336SOL    HW2 1008   0.162   3.205   1.961  0.1091  2.5076 -1.2601
  337SOL     OW 1009   1.030   2.213   2.722 -0.1174  0.1261  0.2021
  337SOL    HW1 1010   1.041   2.295   2.783 -0.2213 -2.1339  0.0307
  337SOL    HW2 1011   0.948   2.224   2.660 -0.6040 -0.6598 -2.1788
  338SOL     OW 1012   1.376   3.395   2.863  0.9201 -0.3248 -0.0235
  338SOL    HW1 1013   1.470   3.358   2.843 -3.2717 -1.6882 -2.1720
  338SOL    HW2 1014   1.351   3.378   2.962  1.5647 -3.2052  1.2099
  339SOL     OW 1015   3.591   1.755   3.547 -0.4797 -0.1994 -0.2450
  339SOL    HW1 1016   3.584   1.689   3.468  1.6043 -0.9872  1.2273
  339SOL    HW2 1017   3.643   1.839   3.520  1.9860  1.9126 -2.2200
  340SOL     OW 1018   2.294   0.643   1.570 -0.3988 -0.4795 -0.0584
  340SOL    HW1 1019   2.312   0.634   1.469 -0.0458  1.7485  0.7714
  340SOL    HW2 1020   2.383   0.656   1.621  0.7668 -2.1364  1.7547
  341SOL     OW 1021   2.214   1.441   1.106 -0.2430 -0.9601  0.3804
  341SOL    HW1 1022   2.249   1.509   1.038 -0.7521 -0.0958 -0.1717
  341SOL    HW2 1023   2.221   1.346   1.067 -2.1244 -0.5029 -0.5276
  342SOL     OW 1024   2.591   2.571   3.148  0.2301  0.0865  0.9061
  342SOL    HW1 1025   2.599   2.470   3.135 -3.4148  1.5969  0.1740
  342SOL    HW2 1026   2.596   2.616   3.056 -2.9186 -3.5159 -1.0094
  343SOL     OW 1027   3.524   3.100   1.250 -0.1889 -0.1231 -0.6239
  343SOL    HW1 1028   3.508   3.012   1.199  0.0293  1.7186  2.3824
  343SOL    HW2 1029   3.543   3.080   1.348 -1.6969 -0.1645  0.6345
  344SOL     OW 1030   3.082   3.196   0.971 -0.3922 -0.7663  0.3364
  344SOL    HW1 1031   3.007   3.229   1.034 -2.4893  0.1921  1.3621
  344SOL    HW2 1032   3.175   3.230   1.000  1.4204 -0.4214  1.7893
  345SOL     OW 1033   2.928   2.569   0.351  0.1926 -0.4000  0.1419
  345SOL    HW1 1034   2.826   2.557   0.362  0.5051 -1.9673 -2.9263
  345SOL    HW2 1035   2.955   2.668   0.343 -0.7291  2.3899 -2.6997
  346SOL     OW 1036   1.269   2.698   2.416  0.3858  0.4061 -0.2841
  346SOL    HW1 1037   1.236   2.774   2.479 -0.0681 -0.9866  0.6390
  346SOL    HW2 1038   1.250   2.720   2.317 -1.8674  1.5674 -0.0369
  347SOL     OW 1039   1.999   2.277   2.653  0.4073 -0.1072  0.6573
  347SOL    HW1 1040   1.970   2.375   2.676  0.0793  1.6960  0.2679
  347SOL    HW2 1041   1.991   2.260   2.552  2.2300  1.1262  0.2106
  348SOL     OW 1042   0.472   2.194   1.378  0.2744 -0.3749 -0.2106
  348SOL    HW1 1043   0.427   2.270   1.326 -0.6862  1.9978  0.0489
  348SOL    HW2 1044   0.574   2.201   1.365  0.5469 -0.7679 -0.4642
  349SOL     OW 1045   1.870   1.617   1.855  0.5138 -0.4717 -0.0728
  349SOL    HW1 1046   1.923   1.698   1.820  0.2144 -1.3543  1.3501
  349SOL    HW2 1047   1.785   1.600   1.801  2.1143 -1.7660 -0.6513
  350SOL     OW 1048   2.621   2.573   0.708 -0.0126  0.3401  0.0010
  350SOL    HW1 1049   2.524   2.557   0.737 -0.6118  1.4809  3.0393
  350SOL    HW2 1050   2.652   2.662   0.751  0.6636 -1.4543  0.3263
  351SOL     OW 1051   0.511   0.184   1.987  0.2741  0.5042 -0.1465
  351SOL    HW1 1052   0.547   0.178   2.083  5.5749  3.2776 -0.7099
  351SOL    HW2 1053   0.409   0.170   1.990 -0.7491 -1.2331 -1.3157
  352SOL     OW 1054   0.671   1.294   0.380  0.0527  0.3364 -0.1469
  352SOL    HW1 1055   0.635   1.388   0.362 -3.6165  1.8054 -0.1695
  352SOL    HW2 1056   0.720   1.252   0.300  2.3916  0.0618 -1.7131
  353SOL     OW 1057   0.860   1.677   3.268 -0.3427 -0.5788  0.0377
  353SOL    HW1 1058   0.905   1.765   3.238 -3.0252 -1.6666 -1.0797
  353SOL    HW2 1059   0.877   1.594   3.208  0.5955 -0.1618  0.6327
  354SOL     OW 1060   2.068   2.728   2.135  0.0271 -0.3830 -0.0058
  354SOL    HW1 1061   2.099   2.823   2.108  0.1561 -1.2757  2.5494
  354SOL    HW2 1062   2.141   2.679   2.191 -1.3300  1.4089 -1.1218
  355SOL     OW 1063   2.672   0.963   3.304  0.0644  0.2770 -0.1920
  355SOL    HW1 1064   2.676   0.864   3.333  2.4268 -1.8381 -0.3596
  355SOL    HW2 1065   2.631   0.972   3.209 -0.1405 -1.9293 -0.9100
  356SOL     OW 1066   0.831   2.528   1.575  0.3120 -0.0070  0.1969
  356SOL    HW1 1067   0.872   2.617   1.609  1.6368  1.7450 -2.1581
  356SOL    HW2 1068   0.777   2.483   1.649 -0.0959  2.4292  0.7627
  357SOL     OW 1069   0.194   0.180   2.048  0.3745 -0.4053 -0.0342
  357SOL    HW1 1070   0.146   0.138   2.129  1.9568  2.3921 -2.3088
  357SOL    HW2 1071   0.188   0.284   2.042 -2.0759  0.2816  2.1133
  358SOL     OW 1072   3.023   2.309   1.762  0.0462 -0.6684  0.2690
  358SOL    HW1 1073   3.022   2.242   1.684 -0.9925  1.1087 -3.1251
  358SOL    HW2 1074   3.021   2.406   1.727  0.7016 -1.6285  0.2196
  359SOL     OW 1075   2.566   2.189   2.595  0.2327  0.3917 -0.5343
  359SOL    HW1 1076   2.478   2.213   2.640  1.4964 -0.7890 -2.0839
  359SOL    HW2 1077   2.599   2.268   2.535  2.0566 -0.5932 -0.7699
  360SOL     OW 1078   1.548   3.192   0.985 -0.1866 -0.2989  0.1835
  360SOL    HW1 1079   1.487   3.188   1.067 -2.2332 -1.2143  2.5128
  360SOL    HW2 1080   1.567   3.289   0.956  0.9061  4.3389  0.4447
  361SOL     OW 1081   2.459   3.493   0.192 -0.4597 -0.6369 -0.0013
  361SOL    HW1 1082   2.375   3.441   0.221 -1.1560  1.6033  0.6030
  361SOL    HW2 1083   2.546   3.449   0.223 -1.6411  3.1094  1.4783
  362SOL     OW 1084   2.100   0.845   1.668  0.2571  0.1466  0.3817
  362SOL    HW1 1085   2.139   0.881   1.756  1.5792  1.0867  1.8095
  362SOL    HW2 1086   2.157   0.767   1.634  0.1775 -1.0887 -1.0575
  363SOL     OW 1087   2.050   1.765   2.560 -0.2675  0.0540  0.3576
  363SOL    HW1 1088   1.973   1.791   2.622  1.1021 -1.6564 -1.1852
  363SOL    HW2 1089   2.140   1.765   2.612 -0.0657  2.7863  1.1601
  364SOL     OW 1090   0.691   0.698   1.791  0.3940  0.3624 -0.3762
  364SOL    HW1 1091   0.692   0.597   1.804  0.2971  2.2989 -0.2225
  364SOL    HW2 1092   0.657   0.725   1.698 -0.2055 -0.5322  1.5335
  365SOL     OW 1093   1.099   0.881   3.283  0.5225  0.4317 -0.3411
  365SOL    HW1 1094   1.074   0.844   3.190 -0.8052 -0.1684 -0.9646
  365SOL    HW2 1095   1.075   0.982   3.290  1.8667 -0.1582  0.4797
  366SOL     OW 1096   2.647   1.355   3.145 -0.6479 -0.2662 -0.0297
  366SOL    HW1 1097   2.722   1.309   3.199  0.7447  2.0971  1.2330
  366SOL    HW2 1098   2.577   1.389   3.212 -1.0237 -0.8512 -0.0043
  367SOL     OW 1099   0.020   3.081   2.618 -0.0763 -0.1657  0.5723
  367SOL    HW1 1100  -0.054   3.030   2.669 -0.4497 -2.8392 -1.3591
  367SOL    HW2 1101  -0.022   3.147   2.549  0.5270  0.0307 -1.2314
  368SOL     OW 1102   3.533   1.294   1.649 -0.7256 -0.1156  0.1352
  368SOL    HW1 1103   3.440   1.315   1.611 -0.1886 -0.6042  0.8982
  368SOL    HW2 1104   3.529   1.290   1.752  1.0431  4.1218  0.1667
  369SOL     OW 1105   0.476   3.466   2.516  0.9635  0.4397 -0.6429
  369SOL    HW1 1106   0.528   3.434   2.432  2.4819  0.4964  1.1306
  369SOL    HW2 1107   0.507   3.557   2.550  0.9380 -3.3373  1.7561
  370SOL     OW 1108   3.253   0.285   0.636 -0.7602 -0.3072  0.5988
  370SOL    HW1 1109   3.195   0.368   0.614  0.3148 -1.7342 -3.2572
  370SOL    HW2 1110   3.207   0.219   0.701 -1.1135 -1.1105  3.0022
  371SOL     OW 1111   0.924   2.757   1.716  0.3459 -0.4768 -0.1132
  371SOL    HW1 1112   1.025   2.746   1.731  1.3153 -2.7765 -0.3699
  371SOL    HW2 1113   0.872   2.775   1.803 -0.4689  0.3680 -2.5839
  372SOL     OW 1114   2.630   0.311   2.782 -0.1712 -0.1580 -0.3034
  372SOL    HW1 1115   2.648   0.386   2.854  0.3081 -0.6040  0.2287
  372SOL    HW2 1116   2.529   0.286   2.794 -1.0829 -0.1455  1.5632
  373SOL     OW 1117   0.195   2.643   0.926  0.3882 -0.1383 -0.5024
  373SOL    HW1 1118   0.236   2.707   0.998 -2.4087  1.5370  0.1118
  373SOL    HW2 1119   0.114   2.597   0.969 -2.1028  0.0174 -0.4199
  374SOL     OW 1120   3.397   0.395   2.638  0.6142  0.0236  0.1754
  374SOL    HW1 1121   3.312   0.366   2.688 -1.2058  0.1087  0.7001
  374SOL    HW2 1122   3.459   0.436   2.708 -0.5216  1.5953 -0.4346
  375SOL     OW 1123   0.696   0.722   3.303  0.0232 -0.3030  0.0359
  375SOL    HW1 1124   0.635   0.639   3.289  1.9667 -0.2208 -1.8564
  375SOL    HW2 1125   0.785   0.698   3.346  0.1692  0.4406 -0.2725
  376SOL     OW 1126   3.404   2.748   2.049  1.0023 -0.1576 -0.1016
  376SOL    HW1 1127   3.490   2.757   1.993  0.0822  1.1200  1.2741
  376SOL    HW2 1128   3.318   2.771   1.997 -0.2157  2.1462 -1.3664
  377SOL     OW 1129   1.256   0.483   3.220 -0.0564 -0.4687 -0.5124
  377SOL    HW1 1130   1.229   0.389   3.249  1.0902 -1.3031 -0.9038
  377SOL    HW2 1131   1.323   0.480   3.143  0.6353  0.9409 -2.5857
  378SOL     OW 1132   3.529   1.274   3.355  0.2402  0.0974 -0.6904
  378SOL    HW1 1133   3.614   1.220   3.329  1.2973 -1.1583  2.5251
  378SOL    HW2 1134   3.445   1.230   3.311  0.5728 -1.5420 -1.5333
  379SOL     OW 1135   1.635   0.773   3.038 -0.7894 -0.0267 -0.5550
  379SOL    HW1 1136   1.570   0.758   2.957  0.7420  2.9209  1.8769
  379SOL    HW2 1137   1.601   0.847   3.102  1.1763 -0.1111 -0.8178
  380SOL     OW 1138   0.282   2.406   1.866  0.1138  0.4378  0.2086
  380SOL    HW1 1139   0.343   2.463   1.928  0.8759 -0.1628  0.3641
  380SOL    HW2 1140   0.188   2.402   1.905 -0.1901 -0.1616 -2.9679
  381SOL     OW 1141   3.604   1.579   3.316  0.0867 -0.0124 -0.7719
  381SOL    HW1 1142   3.640   1.594   3.221 -1.8615  0.6940  1.7597
  381SOL    HW2 1143   3.573   1.480   3.328  1.7890  0.6285 -2.2303
  382SOL     OW 1144   2.319   2.558   0.793 -0.0981  0.6388  0.2505
  382SOL    HW1 1145   2.235   2.508   0.756  2.7236  3.8906  1.2701
  382SOL    HW2 1146   2.307   2.566   0.896 -4.8098 -0.3031  0.3960
  383SOL     OW 1147   0.722   1.978   0.264  0.2409  0.0133  0.3020
  383SOL    HW1 1148   0.806   1.992   0.207  1.1646 -2.0566 -3.0488
  383SOL    HW2 1149   0.745   1.908   0.336  0.7869 -0.4279 -0.4891
  384SOL     OW 1150   0.972   2.862   2.845 -0.3140 -0.0516  0.4199
  384SOL    HW1 1151   0.877   2.891   2.816 -3.7552 -2.0899 -0.6300
  384SOL    HW2 1152   0.969   2.761   2.865  0.1818  0.1836  0.5723
  385SOL     OW 1153   2.831   2.312   0.742 -0.4264 -0.3999 -0.2082
  385SOL    HW1 1154   2.770   2.397   0.738  0.1466 -0.4045 -0.3238
  385SOL    HW2 1155   2.917   2.323   0.686 -1.0989 -3.2662  0.4886
  386SOL     OW 1156   2.821   0.649   1.158 -0.4801 -0.0254  0.8917
  386SOL    HW1 1157   2.787   0.555   1.185  1.6970 -1.8018  0.7165
  386SOL    HW2 1158   2.784   0.680   1.066 -0.3845  1.7355  1.7380
  387SOL     OW 1159   0.779   1.152   2.383  0.6340  0.2556 -1.3914
  387SOL    HW1 1160   0.718   1.185   2.458  0.7997 -0.0788  1.0798
  387SOL    HW2 1161   0.736   1.171   2.292 -1.7219 -2.8934  1.2057
  388SOL     OW 1162   1.230   1.745   2.918  0.4357  0.7669 -0.0366
  388SOL    HW1 1163   1.147   1.804   2.914  0.0296  0.6515 -1.4239
  388SOL    HW2 1164   1.319   1.795   2.911  1.5776 -0.7758 -1.0575
  389SOL     OW 1165   1.235   1.475   2.092 -0.4668 -0.5564  0.0899
  389SOL    HW1 1166   1.189   1.383   2.091  2.4559  1.6278  0.4901
  389SOL    HW2 1167   1.210   1.535   2.012  0.5044  1.7640  1.1014
  390SOL     OW 1168   0.035   3.605   1.225 -0.0779  0.4806  0.0628
  390SOL    HW1 1169  -0.061   3.592   1.189  2.3303  0.9592  0.5607
  390SOL    HW2 1170   0.088   3.670   1.167 -0.8584  1.2335 -1.6663
  391SOL     OW 1171   1.809   1.480   1.281  0.1684  0.0077 -0.6284
  391SOL    HW1 1172   1.787   1.451   1.185  2.0333  1.0346 -0.4529
  391SOL    HW2 1173   1.894   1.537   1.293  0.7992 -2.7059  0.0982
  392SOL     OW 1174   3.405   3.618   0.237  0.0524 -0.3622 -0.4365
  392SOL    HW1 1175   3.494   3.598   0.190  0.0061 -0.7946 -3.5987
  392SOL    HW2 1176   3.348   3.532   0.246 -1.5225  2.0250 -0.6932
  393SOL     OW 1177   1.850   2.572   3.533  0.1352  0.3411 -0.0298
  393SOL    HW1 1178   1.856   2.472   3.505  1.2617  0.0420  0.1543
  393SOL    HW2 1179   1.773   2.580   3.603 -0.5881 -0.6471 -0.0193
  394SOL     OW 1180   0.034   2.894   3.265  0.3560  0.2771  0.1035
  394SOL    HW1 1181   0.052   2.888   3.163  0.6831  1.1963  0.0465
  394SOL    HW2 1182  -0.039   2.825   3.290  1.1101 -0.7523  0.8486
  395SOL     OW 1183   0.173   0.156   1.053  0.2063  0.4804  0.6350
  395SOL    HW1 1184   0.224   0.239   1.088 -0.6188  2.8367 -1.6771
  395SOL    HW2 1185   0.239   0.084   1.023 -0.1238 -0.3584  1.1461
  396SOL     OW 1186   2.586   0.678   0.578 -0.7290  0.2252 -0.2527
  396SOL    HW1 1187   2.501   0.646   0.527  1.2015  0.2540 -0.5068
  396SOL    HW2 1188   2.670   0.636   0.537 -1.3121 -0.9598 -1.1856
  397SOL     OW 1189   0.184   0.828   3.053  0.6686 -0.4645 -0.8859
  397SOL    HW1 1190   0.130   0.844   3.140 -0.5529 -1.0915 -1.0659
  397SOL    HW2 1191   0.178   0.912   2.993 -1.1123  0.0892 -0.5274
  398SOL     OW 1192   0.699   0.170   3.555  0.1708  0.1681 -0.2207
  398SOL    HW1 1193   0.631   0.172   3.477  0.2745  2.9998 -0.1121
  398SOL    HW2 1194   0.790   0.213   3.532 -0.8915 -1.2130  1.2969
  399SOL     OW 1195   2.411   0.323   2.476 -0.2537 -0.1393  0.1934
  399SOL    HW1 1196   2.352   0.246   2.512  0.0970  0.2357 -0.1785
  399SOL    HW2 1197   2.448   0.299   2.381 -0.1395  0.0085 -1.3256
  400SOL     OW 1198   1.154   2.554   3.401  0.3612  0.5587 -0.0148
  400SOL    HW1 1199   1.168   2.571   3.300  0.6449  1.3502 -1.2434
  400SOL    HW2 1200   1.128   2.642   3.450  2.4144  0.5974  0.2394
  401SOL     OW 1201   0.392   1.427   2.887  0.4478  0.1458 -0.0368
  401SOL    HW1 1202   0.339   1.407   2.801 -0.8964 -0.0854 -0.2782
  401SOL    HW2 1203   0.332   1.479   2.953 -1.3293 -3.1324  1.1739
  402SOL     OW 1204   0.142   0.085   0.449 -0.1298 -0.7386  0.4310
  402SOL    HW1 1205   0.139  -0.007   0.497  0.8602 -0.5058  1.5085
  402SOL    HW2 1206   0.051   0.133   0.460 -0.5359 -0.3127 -0.8939
  403SOL     OW 1207   0.369   1.426   1.844  0.2680  0.3297 -0.4189
  403SOL    HW1 1208   0.471   1.413   1.834  0.5018 -1.9006  0.7744
  403SOL    HW2 1209   0.322   1.437   1.753 -0.5377 -1.0912  0.5195
  404SOL     OW 1210   2.691   2.958   3.052  0.3268  0.5195 -0.7090
  404SOL    HW1 1211   2.628   3.004   3.118 -0.6926  1.9883 -2.1307
  404SOL    HW2 1212   2.642   2.880   3.004  1.3533 -0.3338 -0.6613
  405SOL     OW 1213   0.248   0.504   2.410 -0.3439  0.0808 -0.0351
  405SOL    HW1 1214   0.177   0.435   2.435  0.6256  4.2998  2.5640
  405SOL    HW2 1215   0.254   0.513   2.308 -1.4291  1.5535  0.6361
  406SOL     OW 1216   1.472   1.793   3.399  0.0129 -0.2630  0.4533
  406SOL    HW1 1217   1.543   1.858   3.365  0.8025  2.0089  0.6540
  406SOL    HW2 1218   1.467   1.798   3.501  0.5883 -1.3480 -2.0399
  407SOL     OW 1219   2.363   0.485   2.954 -0.0976  0.1553 -0.3352
  407SOL    HW1 1220   2.333   0.392   2.921 -0.4717  1.3352  1.5354
  407SOL    HW2 1221   2.285   0.554   2.949 -3.2822  2.6138 -1.1129
  408SOL     OW 1222   0.513   3.215   2.730  0.2219  0.2842  0.0767
  408SOL    HW1 1223   0.419   3.189   2.766 -1.1392  0.0734  0.2174
  408SOL    HW2 1224   0.507   3.291   2.661 -1.2804 -0.3150  1.0961
  409SOL     OW 1225   3.572   3.025   1.522  0.0156 -0.6877  0.0868
  409SOL    HW1 1226   3.597   3.116   1.563  1.0315 -0.1225 -0.4778
  409SOL    HW2 1227   3.500   2.978   1.579  0.0682 -0.7305  0.5947
  410SOL     OW 1228   3.477   2.053   0.461  0.4074 -0.0425 -0.0187
  410SOL    HW1 1229   3.560   2.103   0.425  0.3733  0.5604 -0.8595
  410SOL    HW2 1230   3.495   1.952   0.460  1.2224  0.8778  0.3783
  411SOL     OW 1231   2.913   0.143   1.809  0.4205  0.4718  0.2761
  411SOL    HW1 1232   2.821   0.189   1.795 -0.6396 -1.8070 -1.5619
  411SOL    HW2 1233   2.902   0.049   1.850 -3.0009  3.2008  0.6485
  412SOL     OW 1234   2.645   0.455   1.842 -0.5155 -0.3289 -0.0053
  412SOL    HW1 1235   2.580   0.381   1.811 -0.1177  0.0618  0.5666
  412SOL    HW2 1236   2.615   0.545   1.804 -1.1722  1.3526 -0.9732
  413SOL     OW 1237   3.559   0.500   2.845  0.4064  0.2193  0.2728
  413SOL    HW1 1238   3.581   0.601   2.863  1.0166 -2.0474  1.6008
  413SOL    HW2 1239   3.595   0.442   2.923 -1.1780 -0.1390  3.3351
  414SOL     OW 1240   3.179   1.646   0.349 -0.1580  0.1439 -0.7304
  414SOL    HW1 1241   3.137   1.564   0.395  1.3739 -0.4981  0.4261
  414SOL    HW2 1242   3.150   1.730   0.401 -2.1310  1.3544  1.7869
  415SOL     OW 1243   0.960   2.952   0.180  0.4381  0.3228  0.2585
  415SOL    HW1 1244   1.001   3.046   0.179  0.9767  0.4820  0.1206
  415SOL    HW2 1245   0.977   2.905   0.271 -0.4319 -0.7444 -2.6386
  416SOL     OW 1246   1.725   3.156   3.066  0.2131  0.1330  0.3314
  416SOL    HW1 1247   1.677   3.088   3.126  2.0089 -0.8383  1.2546
  416SOL    HW2 1248   1.819   3.187   3.101  2.3078 -1.0306  2.5771
  417SOL     OW 1249   0.305   1.173   1.462  0.0677  0.0701 -0.2407
  417SOL    HW1 1250   0.290   1.143   1.363  1.7701 -0.3923  1.8970
  417SOL    HW2 1251   0.398   1.151   1.499 -0.8104 -0.3263 -0.0202
  418SOL     OW 1252   3.105   0.098   0.820 -0.3518 -0.1155  0.6305
  418SOL    HW1 1253   3.012   0.057   0.818  1.5183  0.3563  0.4410
  418SOL    HW2 1254   3.132   0.125   0.917 -0.4201  0.1538  0.4972
  419SOL     OW 1255   0.311   0.020   0.224  0.0169  0.1205  0.6034
  419SOL    HW1 1256   0.251   0.054   0.300 -2.8893  1.7963  0.1383
  419SOL    HW2 1257   0.409   0.004   0.254  1.5604 -0.3157 -0.4846
  420SOL     OW 1258   0.141   1.406   1.546 -0.0908  0.2248  0.0050
  420SOL    HW1 1259   0.200   1.329   1.512 -2.1863 -0.0587  0.7929
  420SOL    HW2 1260   0.053   1.368   1.584  0.4074  0.3177  0.2728
  421SOL     OW 1261   2.090   3.074   0.779 -0.2727  0.0824  0.0006
  421SOL    HW1 1262   2.123   2.990   0.731  2.6389 -0.5499  1.2694
  421SOL    HW2 1263   2.003   3.057   0.831  2.4190 -0.9379  2.3878
  422SOL     OW 1264   0.219   0.458   1.781  0.7573 -0.0579 -0.5412
  422SOL    HW1 1265   0.282   0.439   1.702  1.6670 -2.0537  1.8532
  422SOL    HW2 1266   0.149   0.526   1.754  2.4167  0.9412 -0.6742
  423SOL     OW 1267   1.213   1.623   2.368  0.0682  0.0947  0.1013
  423SOL    HW1 1268   1.232   1.574   2.279  1.0680 -1.2058  1.5532
  423SOL    HW2 1269   1.218   1.725   2.358 -0.0582 -1.3235  2.6470
  424SOL     OW 1270   2.048   2.452   0.715 -0.0103 -0.0956  0.1254
  424SOL    HW1 1271   2.013   2.427   0.622  0.2576 -0.4061  1.8839
  424SOL    HW2 1272   1.994   2.406   0.791 -1.2244  1.7177  1.5584
  425SOL     OW 1273   3.362   3.383   2.397  0.3069  0.1467 -0.9488
  425SOL    HW1 1274   3.268   3.375   2.439 -0.1119 -0.5603 -2.5477
  425SOL    HW2 1275   3.376   3.467   2.340  0.1108 -0.4747  0.2537
  426SOL     OW 1276   0.388   3.392   3.176 -0.1350  0.5251 -0.0731
  426SOL    HW1 1277   0.356   3.398   3.273  0.5906 -2.3230 -0.9522
  426SOL    HW2 1278   0.316   3.429   3.114  0.9960 -1.1980 -1.3256
  427SOL     OW 1279   1.218   3.580   0.093  0.7197 -0.1789 -0.1633
  427SOL    HW1 1280   1.139   3.617   0.148  3.1639  2.1593 -0.9576
  427SOL    HW2 1281   1.188   3.501   0.034  1.5375 -1.5824 -0.9599
  428SOL     OW 1282   3.318   0.581   1.795  0.7158  0.2453 -0.5212
  428SOL    HW1 1283   3.334   0.484   1.826 -0.1415  0.1567  0.6819
  428SOL    HW2 1284   3.255   0.581   1.714  0.7913  0.3709  1.3968
  429SOL     OW 1285   2.437   3.467   0.631  0.4004  0.3221 -0.2296
  429SOL    HW1 1286   2.394   3.383   0.588  2.2490 -2.0635  1.1774
  429SOL    HW2 1287   2.533   3.484   0.598 -2.7253 -0.6824  1.1111
  430SOL     OW 1288   1.286   1.610   3.218 -0.5470 -0.1553 -0.0552
  430SOL    HW1 1289   1.346   1.671   3.277 -0.5017  1.4884  2.1413
  430SOL    HW2 1290   1.269   1.653   3.125 -0.8041 -0.5262 -0.6942
  431SOL     OW 1291   3.221   2.640   1.393  0.4034 -0.0091 -0.6849
  431SOL    HW1 1292   3.321   2.666   1.381 -0.8080 -0.9595 -0.5595
  431SOL    HW2 1293   3.189   2.601   1.303 -0.9262  0.8426  0.0641
  432SOL     OW 1294   1.861   2.789   3.312  0.3205  0.4996  0.3539
  432SOL    HW1 1295   1.898   2.755   3.222  0.2961 -1.4747 -3.0293
  432SOL    HW2 1296   1.850   2.715   3.384  1.1611  0.3460  1.8527
  433SOL     OW 1297   1.434   0.469   3.012 -0.3198  0.4269  0.0781
  433SOL    HW1 1298   1.425   0.501   2.913  0.1411  0.6486 -1.3512
  433SOL    HW2 1299   1.530   0.469   3.052  0.6554 -0.6736  1.0629
  434SOL     OW 1300   1.488   3.264   2.510 -0.2740 -0.0284 -0.3054
  434SOL    HW1 1301   1.518   3.280   2.609  0.9559 -0.2541 -2.0631
  434SOL    HW2 1302   1.573   3.227   2.462 -2.5770 -0.0912  2.9902
  435SOL     OW 1303   0.316   0.050   3.527  0.4205  0.3613 -0.1108
  435SOL    HW1 1304   0.335   0.050   3.629  0.4308 -1.5357  1.4389
  435SOL    HW2 1305   0.233   0.109   3.505  1.1255  2.2295 -0.4132
  436SOL     OW 1306   0.701   1.484   2.845 -0.6526  0.1332 -0.3899
  436SOL    HW1 1307   0.600   1.480   2.866  0.5548 -1.0030 -1.7744
  436SOL    HW2 1308   0.724   1.550   2.770  0.9852 -1.8804 -1.3543
  437SOL     OW 1309   1.376   2.860   2.994 -0.1439  0.9020 -0.2838
  437SOL    HW1 1310   1.419   2.840   2.902  2.7395 -0.7046 -1.2832
  437SOL    HW2 1311   1.316   2.943   2.991 -1.8135 -1.0312  2.9354
  438SOL     OW 1312   0.708   1.018   0.784 -0.3019 -0.4666 -0.3545
  438SOL    HW1 1313   0.655   0.977   0.863 -0.8113 -1.3497 -0.0468
  438SOL    HW2 1314   0.772   0.947   0.745 -3.2571  1.1228 -1.7522
  439SOL     OW 1315   3.563   1.751   2.465 -0.3569  0.1418 -0.7440
  439SOL    HW1 1316   3.489   1.694   2.507 -1.1951  0.0812 -0.3699
  439SOL    HW2 1317   3.537   1.851   2.453 -0.5035  2.8865  1.7995
  440SOL     OW 1318   3.337   0.921   3.242  0.4461  0.6145 -0.1846
  440SOL    HW1 1319   3.312   0.848   3.175 -1.1301  1.5033  3.1770
  440SOL    HW2 1320   3.278   1.004   3.235 -1.8699  3.8715 -2.0686
  441SOL     OW 1321   0.734   2.133   1.682  0.4065  0.3823  0.0222
  441SOL    HW1 1322   0.631   2.124   1.680 -1.6784 -0.8004 -0.6144
  441SOL    HW2 1323   0.757   2.224   1.728  0.9463 -1.0555 -0.8928
  442SOL     OW 1324   2.276   1.696   0.870  0.3087  0.0716 -0.2375
  442SOL    HW1 1325   2.280   1.651   0.778 -1.7450 -1.0567 -4.4354
  442SOL    HW2 1326   2.187   1.744   0.886 -0.6668  0.9978 -1.5269
  443SOL     OW 1327   2.830   2.503   3.508 -0.1093  0.0942 -0.2995
  443SOL    HW1 1328   2.772   2.431   3.462 -2.5073 -0.7241  0.2385
  443SOL    HW2 1329   2.924   2.511   3.466 -3.9531  2.3491  0.3810
  444SOL     OW 1330   2.033   1.713   3.476 -0.0124 -0.5964 -0.0235
  444SOL    HW1 1331   1.983   1.801   3.498  1.4889  1.6588 -0.6154
  444SOL    HW2 1332   2.014   1.677   3.382  1.0536 -1.5971 -0.8393
  445SOL     OW 1333   0.493   2.557   2.357 -0.0932  0.0715  0.1197
  445SOL    HW1 1334   0.562   2.629   2.385 -0.3500  0.9037  1.5939
  445SOL    HW2 1335   0.410   2.561   2.420  1.0665 -0.9748 -0.8260
  446SOL     OW 1336   1.133   1.211   2.083  0.4461 -0.4744  0.0219
  446SOL    HW1 1337   1.219   1.159   2.063  0.1120  1.4397  5.1576
  446SOL    HW2 1338   1.082   1.171   2.164  1.7038 -1.5011 -1.4660
  447SOL     OW 1339   0.873   0.797   0.652 -0.5019  0.4114  0.1722
  447SOL    HW1 1340   0.795   0.740   0.615  0.4940  1.8265  0.8189
  447SOL    HW2 1341   0.947   0.817   0.584  0.3718  3.3812 -1.5261
  448SOL     OW 1342   1.578   1.229   2.359 -0.4894  0.2795  0.2997
  448SOL    HW1 1343   1.543   1.292   2.286  0.7544  1.4328  1.4070
  448SOL    HW2 1344   1.670   1.189   2.334  1.8124  0.0362  1.5035
  449SOL     OW 1345   0.193   1.890   2.841  0.0454 -0.0177 -0.6245
  449SOL    HW1 1346   0.157   1.931   2.929  2.0854 -1.4067  0.7882
  449SOL    HW2 1347   0.186   1.959   2.765 -2.4593 -0.4640  0.0944
  450SOL     OW 1348   2.583   1.651   2.242 -0.5710  0.3785  0.6333
  450SOL    HW1 1349   2.575   1.717   2.322  2.2838 -0.4734 -0.7248
  450SOL    HW2 1350   2.678   1.650   2.199 -1.2565  0.6546 -0.2264
  451SOL     OW 1351   2.781   1.710   1.599  0.6039  0.2385  0.3072
  451SOL    HW1 1352   2.816   1.628   1.651 -0.4409  0.6342  1.8591
  451SOL    HW2 1353   2.834   1.727   1.512 -1.9068 -1.6991  0.9337
  452SOL     OW 1354   0.891   1.154   1.579  0.0583 -0.7810 -0.3462
  452SOL    HW1 1355   0.916   1.150   1.678 -2.3786 -1.6895  0.1618
  452SOL    HW2 1356   0.976   1.176   1.523 -0.4768 -0.6341 -3.7260
  453SOL     OW 1357   0.337   2.388   1.202  0.0070  0.5230 -0.4317
  453SOL    HW1 1358   0.245   2.392   1.248 -0.9560 -2.5802 -1.5448
  453SOL    HW2 1359   0.340   2.366   1.101  0.4403 -2.5289 -2.7445
  454SOL     OW 1360   1.411   1.476   0.334  0.0784 -1.2416  0.1850
  454SOL    HW1 1361   1.494   1.535   0.319  0.0100  0.0742 -0.1051
  454SOL    HW2 1362   1.427   1.412   0.413  2.5043 -3.0150 -0.3037
  455SOL     OW 1363   2.112   0.529   0.958 -0.2129  0.8296 -0.2061
  455SOL    HW1 1364   2.122   0.431   0.927 -1.8292 -0.3377  2.4792
  455SOL    HW2 1365   2.144   0.598   0.888  1.6504  0.7230 -2.5220
  456SOL     OW 1366   2.141   3.351   0.302  0.2944 -0.2404  0.2771
  456SOL    HW1 1367   2.066   3.282   0.279  1.1944 -1.3409  0.1852
  456SOL    HW2 1368   2.111   3.451   0.293  0.7793  3.1013  2.1512
  457SOL     OW 1369   2.443   1.351   2.382  0.8563 -0.3900  0.2485
  457SOL    HW1 1370   2.475   1.434   2.328 -1.1585  0.5497  1.4326
  457SOL    HW2 1371   2.483   1.350   2.476  0.8082 -1.4431 -0.1140
  458SOL     OW 1372   2.979   0.600   2.799  0.4265  0.4778  0.0509
  458SOL    HW1 1373   2.892   0.624   2.849  1.4987  0.5946  3.4611
  458SOL    HW2 1374   2.994   0.667   2.722  0.8352 -1.6504  0.6969
  459SOL     OW 1375   2.891   1.839   3.041  0.1804  0.3041  0.1871
  459SOL    HW1 1376   2.968   1.851   3.108 -2.7155 -1.3796  1.1284
  459SOL    HW2 1377   2.887   1.743   3.004 -0.5236  0.8118 -0.4821
  460SOL     OW 1378   1.157   1.056   2.948 -0.5650  0.1752  0.1396
  460SOL    HW1 1379   1.181   1.123   2.871  1.9177  1.2560  0.8582
  460SOL    HW2 1380   1.189   1.094   3.039  0.2588 -0.1149 -1.7395
  461SOL     OW 1381   0.108   2.747   0.213  0.3676  0.2124  0.4259
  461SOL    HW1 1382   0.178   2.813   0.250  0.5341  0.9346  1.9475
  461SOL    HW2 1383   0.020   2.795   0.189 -1.5357 -1.2812  0.3608
  462SOL     OW 1384   1.641   3.297   2.816 -0.5856  0.2554 -0.1661
  462SOL    HW1 1385   1.663   3.238   2.898  1.5176  3.0055 -0.6681
  462SOL    HW2 1386   1.715   3.366   2.799  1.2743  0.9102  0.4596
  463SOL     OW 1387   2.465   2.509   2.302 -0.6356 -0.4661  0.4277
  463SOL    HW1 1388   2.397   2.432   2.307 -0.1877  1.8598  1.7228
  463SOL    HW2 1389   2.559   2.474   2.323  2.1308 -0.6055 -0.0439
  464SOL     OW 1390   3.055   2.893   0.918  0.6776 -0.5538 -0.6072
  464SOL    HW1 1391   2.956   2.870   0.899 -0.7887 -2.2850  0.0619
  464SOL    HW2 1392   3.073   2.993   0.931  0.5459  2.8486 -0.1387
  465SOL     OW 1393   0.006   0.165   1.710 -0.7698  0.4608  0.1037
  465SOL    HW1 1394   0.046   0.109   1.634  2.5410  0.0164  1.4912
  465SOL    HW2 1395   0.079   0.193   1.777 -0.1308 -1.4562  0.3001
  466SOL     OW 1396   1.622   2.959   3.244 -0.0372  0.2488  0.1526
  466SOL    HW1 1397   1.703   2.903   3.275 -3.2092  0.5627 -0.8445
  466SOL    HW2 1398   1.549   2.910   3.189 -1.3328 -2.7377  1.0977
  467SOL     OW 1399   0.009   2.453   0.298 -0.1072 -0.5346 -0.2576
  467SOL    HW1 1400  -0.059   2.427   0.225  0.6215  2.1739 -1.1597
  467SOL    HW2 1401   0.041   2.550   0.284 -1.3975 -1.6882 -1.6969
  468SOL     OW 1402   2.457   2.715   3.342 -0.7839 -0.1470  0.0614
  468SOL    HW1 1403   2.512   2.665   3.270 -0.4314 -0.5860  2.9480
  468SOL    HW2 1404   2.377   2.765   3.298  0.0590 -2.3669  0.8039
  469SOL     OW 1405   1.027   2.208   0.846 -0.8113  0.1077  0.6195
  469SOL    HW1 1406   0.976   2.226   0.934 -1.0767  2.0756  2.9202
  469SOL    HW2 1407   1.083   2.289   0.815  0.5216  2.6870 -0.3191
  470SOL     OW 1408   2.306   0.815   0.782  0.5087 -0.5486 -0.4364
  470SOL    HW1 1409   2.373   0.773   0.715 -2.9861  0.9009  2.0329
  470SOL    HW2 1410   2.340   0.833   0.879 -0.8660 -2.4064 -0.9505
  471SOL     OW 1411   0.369   2.202   0.628 -0.0896 -0.6668 -0.3411
  471SOL    HW1 1412   0.445   2.201   0.559 -0.4915  2.0812  0.4579
  471SOL    HW2 1413   0.369   2.293   0.679 -0.8349  0.7880 -0.9968
  472SOL     OW 1414   3.087   2.523   3.403  0.4220 -0.0091  0.1674
  472SOL    HW1 1415   3.150   2.561   3.475 -0.7889  2.5677  2.9368
  472SOL    HW2 1416   3.118   2.547   3.308 -0.4961  2.1825 -0.3923
  473SOL     OW 1417   1.687   2.096   0.913 -0.0674  0.0475 -0.0717
  473SOL    HW1 1418   1.765   2.163   0.908  1.9147  2.0315  0.5741
  473SOL    HW2 1419   1.644   2.088   0.820  0.8686  0.3699  0.0927
  474SOL     OW 1420   3.340   0.538   1.381 -0.0366  0.0436  0.0284
  474SOL    HW1 1421   3.324   0.519   1.280 -2.1768  1.2084  3.9382
  474SOL    HW2 1422   3.412   0.476   1.419 -0.6639 -2.1797 -4.1055
  475SOL     OW 1423   3.425   3.616   2.177  0.0221 -0.1887 -0.4996
  475SOL    HW1 1424   3.429   3.572   2.085 -0.4732 -1.6666 -2.1605
  475SOL    HW2 1425   3.356   3.692   2.171 -0.4727  0.8392  2.9284
  476SOL     OW 1426   0.653   0.338   1.084  0.0194 -0.1420 -0.5623
  476SOL    HW1 1427   0.708   0.423   1.064  0.5564  1.2446  0.4258
  476SOL    HW2 1428   0.635   0.286   0.996 -1.2656 -2.6216  1.1569
  477SOL     OW 1429   1.409   2.912   1.365 -0.0087 -0.0102 -0.3526
  477SOL    HW1 1430   1.399   2.907   1.468  0.8363 -2.5209 -1.4663
  477SOL    HW2 1431   1.508   2.888   1.345 -2.2239  1.4142 -1.4911
  478SOL     OW 1432   1.383   3.169   0.113 -0.1971 -0.0307  0.1406
  478SOL    HW1 1433   1.403   3.177   0.012  0.8341  0.3556 -0.6797
  478SOL    HW2 1434   1.444   3.230   0.169  1.0972  0.3977  0.7496
  479SOL     OW 1435   2.996   1.367   2.530  0.0668 -0.0999  0.2816
  479SOL    HW1 1436   2.921   1.306   2.566  1.5036  2.0212  0.2172
  479SOL    HW2 1437   3.031   1.336   2.438 -5.0720 -1.8645  3.1845
  480SOL     OW 1438   3.171   2.633   3.146 -0.6591  0.3194  0.7526
  480SOL    HW1 1439   3.198   2.619   3.047  0.0561  0.3218  0.9011
  480SOL    HW2 1440   3.082   2.684   3.150  2.1003  0.1613  0.9882
  481SOL     OW 1441   1.898   3.117   1.948 -0.4818 -0.6979 -0.7239
  481SOL    HW1 1442   1.980   3.073   1.993  0.0419  2.3628 -0.1591
  481SOL    HW2 1443   1.909   3.130   1.845  1.8377 -1.5499  2.3498
  482SOL     OW 1444   1.815   2.636   2.681  0.1650 -0.3286 -0.1444
  482SOL    HW1 1445   1.783   2.595   2.593  4.8348 -1.9304  0.9261
  482SOL    HW2 1446   1.836   2.736   2.672  1.4504  2.3892 -1.2369
  483SOL     OW 1447   1.414   3.185   3.441  0.1025 -0.3736  0.4132
  483SOL    HW1 1448   1.379   3.220   3.350  0.1239 -0.7635 -0.9205
  483SOL    HW2 1449   1.490   3.116   3.418 -1.2126  1.2890  0.8186
  484SOL     OW 1450   2.880   3.494   1.948 -0.3552  0.8399 -0.0661
  484SOL    HW1 1451   2.787   3.452   1.961  1.6545  0.4820 -0.1455
  484SOL    HW2 1452   2.948   3.418   1.933 -1.2016 -1.6420 -0.3628
  485SOL     OW 1453   2.344   0.614   0.410  0.4493  0.0223  0.1026
  485SOL    HW1 1454   2.318   0.705   0.368 -0.7223  0.7919  0.7254
  485SOL    HW2 1455   2.260   0.561   0.438 -0.8346 -0.8568 -2.2239
  486SOL     OW 1456   2.771   3.190   2.902 -0.2186 -0.0794 -0.3877
  486SOL    HW1 1457   2.815   3.262   2.962 -2.5073  0.4601  2.6439
  486SOL    HW2 1458   2.744   3.105   2.951  0.2743 -0.0070 -0.8715
  487SOL     OW 1459   1.439   0.991   0.849 -0.2623  0.0135 -0.0097
  487SOL    HW1 1460   1.384   1.033   0.774 -0.8708 -1.0195 -3.8107
  487SOL    HW2 1461   1.382   0.991   0.936  2.8911 -1.8695 -3.1385
  488SOL     OW 1462   3.147   3.414   2.767 -0.0727  0.2924 -0.7319
  488SOL    HW1 1463   3.126   3.393   2.669 -1.0530 -3.0243 -0.1302
  488SOL    HW2 1464   3.109   3.508   2.787  0.8616 -1.7696 -0.5844
  489SOL     OW 1465   1.402   3.241   0.524  0.2354 -0.4064 -0.2789
  489SOL    HW1 1466   1.358   3.315   0.580 -0.3190  1.6137 -0.0920
  489SOL    HW2 1467   1.338   3.159   0.522  1.0674  0.0773 -1.5626
  490SOL     OW 1468   1.847   0.782   3.544 -0.4494  0.1261 -0.6526
  490SOL    HW1 1469   1.861   0.831   3.454  2.1800  1.1553  2.1090
  490SOL    HW2 1470   1.749   0.783   3.578  0.2383 -0.5548 -1.4300
  491SOL     OW 1471   1.072   0.052   1.442  0.7797 -0.3463  0.0687
  491SOL    HW1 1472   0.988   0.097   1.400 -0.8285  0.8426  1.1972
  491SOL    HW2 1473   1.054   0.015   1.536 -0.8469  3.9103  0.3167
  492SOL     OW 1474   1.907   3.201   0.237 -0.2668  0.5933 -0.4643
  492SOL    HW1 1475   1.838   3.173   0.308  1.0491  0.3054  2.6359
  492SOL    HW2 1476   1.852   3.264   0.174 -3.3584  0.2921 -1.6918
  493SOL     OW 1477   1.202   2.302   3.518  0.1867  0.7323  0.0190
  493SOL    HW1 1478   1.220   2.237   3.440  0.4446 -1.2032 -1.6597
  493SOL    HW2 1479   1.181   2.394   3.480 -2.3748 -1.5099  1.0040
  494SOL     OW 1480   0.881   0.330   0.593  0.1431 -0.1678  0.5982
  494SOL    HW1 1481   0.792   0.314   0.543  2.0992 -0.0312 -1.9651
  494SOL    HW2 1482   0.928   0.417   0.559 -0.9470  0.9452 -0.4219
  495SOL     OW 1483   3.246   0.202   2.149 -0.4643  0.1392 -0.3495
  495SOL    HW1 1484   3.267   0.246   2.058  0.1947  0.7371 -0.6469
  495SOL    HW2 1485   3.243   0.275   2.223  0.0842 -1.9247  0.5596
  496SOL     OW 1486   2.720   2.235   2.872  0.0178  0.0537  0.2683
  496SOL    HW1 1487   2.660   2.219   2.789  2.3225 -1.7766  0.2463
  496SOL    HW2 1488   2.814   2.201   2.847 -1.2185 -0.4932 -0.0183
  497SOL     OW 1489   1.837   1.384   3.191 -0.1817 -0.1666  0.0883
  497SOL    HW1 1490   1.919   1.445   3.174 -1.0881  2.5703  1.7511
  497SOL    HW2 1491   1.775   1.423   3.264 -2.9847 -1.0129 -3.2493
  498SOL     OW 1492   0.896   3.270   1.491 -0.4327  0.0165 -0.0719
  498SOL    HW1 1493   0.824   3.336   1.456  0.2909  1.6625 -1.5802
  498SOL    HW2 1494   0.860   3.174   1.492  1.8452  1.4571 -1.2467
  499SOL     OW 1495   0.067   2.356   1.299  0.3994 -0.1118 -0.2300
  499SOL    HW1 1496   0.019   2.324   1.214 -1.4232 -3.7689  1.2738
  499SOL    HW2 1497   0.044   2.289   1.373  1.4225 -2.7299  0.5006
  500SOL     OW 1498   0.826   3.180   3.165 -0.4854 -0.2788 -0.0176
  500SOL    HW1 1499   0.733   3.139   3.186  2.6123 -1.3778  2.0959
  500SOL    HW2 1500   0.827   3.226   3.072 -1.2383  0.7307  0.6509
  501SOL     OW 1501   1.976   3.617   0.049 -0.2820 -0.4748 -0.4348
  501SOL    HW1 1502   2.030   3.705   0.059 -0.5098 -2.0589  0.4505
  501SOL    HW2 1503   1.918   3.595   0.131  1.2027  2.2502 -1.5743
  502SOL     OW 1504   3.554   0.132   0.881 -0.0630  0.4985 -0.2655
  502SOL    HW1 1505   3.517   0.222   0.844  0.2371 -0.7753 -0.0386
  502SOL    HW2 1506   3.642   0.147   0.934 -0.9765 -0.4481  1.3031
  503SOL     OW 1507   2.323   3.446   2.545  0.5913 -0.2696  0.2472
  503SOL    HW1 1508   2.398   3.405   2.601  0.7842 -0.1111 -1.3933
  503SOL    HW2 1509   2.237   3.390   2.557  0.0465 -0.3221  1.2234
  504SOL     OW 1510   2.850   1.701   2.137 -0.1836 -0.4830 -0.4758
  504SOL    HW1 1511   2.826   1.790   2.092 -2.4341  0.5936 -1.4008
  504SOL    HW2 1512   2.920   1.644   2.087  0.0059  1.8684 -1.2272
  505SOL     OW 1513   2.022   3.284   2.617 -0.1380 -0.5827  0.6193
  505SOL    HW1 1514   1.975   3.351   2.680  0.8143  0.7336  2.0329
  505SOL    HW2 1515   1.962   3.260   2.536 -2.5309  0.8255 -0.8271
  506SOL     OW 1516   0.247   0.816   2.532 -0.3733 -0.2151  0.2113
  506SOL    HW1 1517   0.243   0.721   2.493  1.4785  1.5400 -1.0106
  506SOL    HW2 1518   0.308   0.810   2.614  1.0081  0.9369  2.1841
  507SOL     OW 1519   2.080   0.497   0.448  0.2647 -0.1465  0.5447
  507SOL    HW1 1520   2.039   0.582   0.410 -0.7911  0.1533 -0.1160
  507SOL    HW2 1521   2.012   0.453   0.512  0.9041 -0.3725  1.5492
  508SOL     OW 1522   2.448   0.562   2.130  0.0140  0.2869  0.3862
  508SOL    HW1 1523   2.429   0.645   2.072  0.4612  3.9203  2.5799
  508SOL    HW2 1524   2.531   0.576   2.192 -0.3050 -0.5865 -0.9367
  509SOL     OW 1525   0.788   2.250   3.587 -0.0613 -0.1856 -0.0647
  509SOL    HW1 1526   0.870   2.204   3.631  1.7159 -0.8707 -2.3332
  509SOL    HW2 1527   0.704   2.215   3.638 -0.0122 -0.1667 -2.4660
  510SOL     OW 1528   0.293   1.089   1.190  0.2515  0.0370 -0.1894
  510SOL    HW1 1529   0.207   1.066   1.139 -0.7439 -0.5727 -0.9387
  510SOL    HW2 1530   0.354   1.142   1.126 -1.3921  0.8484 -0.0084
  511SOL     OW 1531   1.768   1.224   1.437 -0.4296 -0.9711  0.1248
  511SOL    HW1 1532   1.849   1.161   1.432 -2.5807  1.7117  0.2959
  511SOL    HW2 1533   1.783   1.315   1.393 -1.0481  2.0846 -0.4735
  512SOL     OW 1534   0.406   2.457   0.757 -0.1695 -0.3961 -0.7239
  512SOL    HW1 1535   0.349   2.515   0.818 -0.6385  1.6294  3.6862
  512SOL    HW2 1536   0.506   2.476   0.767  0.2547  0.0056 -1.7847
  513SOL     OW 1537   0.293   2.823   1.141 -0.7040 -0.8412 -0.5658
  513SOL    HW1 1538   0.245   2.822   1.233 -1.7153  0.4012  0.1774
  513SOL    HW2 1539   0.303   2.920   1.107  1.8866  1.4644  0.8607
  514SOL     OW 1540   0.704   2.505   0.761 -0.0546 -0.0144 -0.0483
  514SOL    HW1 1541   0.772   2.550   0.824  1.9415  2.6260 -0.7416
  514SOL    HW2 1542   0.750   2.467   0.676  0.9383  2.0073 -0.1034
  515SOL     OW 1543   3.514   0.360   3.516 -0.0426 -0.2191 -0.2396
  515SOL    HW1 1544   3.425   0.335   3.563  0.2801  1.4567 -1.5599
  515SOL    HW2 1545   3.564   0.441   3.561  1.8969 -0.9001  1.7648
  516SOL     OW 1546   2.540   3.596   1.585 -0.4126 -0.6868 -0.0548
  516SOL    HW1 1547   2.482   3.533   1.640 -0.6196 -0.3256  0.2125
  516SOL    HW2 1548   2.507   3.596   1.487  2.9518  0.5740 -0.3833
  517SOL     OW 1549   2.039   1.842   0.890 -0.9732  0.1858  0.8816
  517SOL    HW1 1550   2.076   1.917   0.830  2.4535  0.8675  0.1286
  517SOL    HW2 1551   2.009   1.875   0.984  0.1694  0.4787  1.7597
  518SOL     OW 1552   2.123   3.321   0.963 -0.4203  0.4379  0.2634
  518SOL    HW1 1553   2.088   3.283   1.054 -0.3304  0.9034  1.1604
  518SOL    HW2 1554   2.120   3.248   0.891  0.6649 -1.1458  1.3152
  519SOL     OW 1555   3.426   2.933   0.140 -0.0415  0.5187 -0.0985
  519SOL    HW1 1556   3.387   2.959   0.233  0.1828  0.4353 -0.2742
  519SOL    HW2 1557   3.447   3.017   0.080 -2.2765 -1.7031 -2.1539
  520SOL     OW 1558   2.654   1.926   2.524  0.5318 -0.5997  0.0311
  520SOL    HW1 1559   2.619   2.018   2.554  0.3979  3.4670 -2.5512
  520SOL    HW2 1560   2.621   1.852   2.586  1.4644  0.4228 -0.1867
  521SOL     OW 1561   1.743   3.449   2.251 -0.0205  0.4846 -0.7921
  521SOL    HW1 1562   1.766   3.452   2.150 -0.8360  1.1887  3.3879
  521SOL    HW2 1563   1.647   3.485   2.267  1.0826 -0.0143  2.7628
  522SOL     OW 1564   0.365   3.034   2.227 -0.2593  0.2950  0.0856
  522SOL    HW1 1565   0.322   2.973   2.299  0.6675  1.4328 -1.3870
  522SOL    HW2 1566   0.297   3.107   2.202 -0.7928 -0.7028  1.0659
  523SOL     OW 1567   0.691   2.821   2.506 -0.0558 -0.2489  0.3961
  523SOL    HW1 1568   0.688   2.864   2.600  0.3852  1.0901 -1.4616
  523SOL    HW2 1569   0.698   2.897   2.437  0.4009 -0.8137 -0.7112
  524SOL     OW 1570   2.646   2.542   0.427  0.0406  0.2521  0.4630
  524SOL    HW1 1571   2.579   2.472   0.393  0.1253 -0.8915  1.7543
  524SOL    HW2 1572   2.631   2.562   0.527  0.9826  2.4254  1.1559
  525SOL     OW 1573   3.120   0.762   3.032 -1.0125  0.1673  0.2820
  525SOL    HW1 1574   3.092   0.697   2.956  1.7403  1.4135  0.0932
  525SOL    HW2 1575   3.076   0.733   3.120 -2.1195  0.8703 -1.1852
  526SOL     OW 1576   0.489   2.885   0.524 -0.0481  0.8248 -0.0211
  526SOL    HW1 1577   0.583   2.887   0.567  1.6274 -0.6688  1.2519
  526SOL    HW2 1578   0.443   2.795   0.541 -0.6107 -0.4138 -1.1513
  527SOL     OW 1579   3.404   1.271   1.072  0.2033  0.0800  0.6774
  527SOL    HW1 1580   3.334   1.311   1.007  0.4121 -0.2495  1.9908
  527SOL    HW2 1581   3.358   1.201   1.132 -2.1838  1.1691  2.0579
  528SOL     OW 1582   1.326   1.548   2.690  0.6525 -0.0963 -0.5720
  528SOL    HW1 1583   1.295   1.573   2.594 -3.0160 -0.0849 -0.6527
  528SOL    HW2 1584   1.283   1.613   2.757  2.7869 -0.1101  2.2460
  529SOL     OW 1585   1.003   1.585   0.545 -0.1522  0.2870 -0.5051
  529SOL    HW1 1586   1.053   1.597   0.635  0.1957  1.9047 -1.0867
  529SOL    HW2 1587   0.974   1.485   0.540  0.9750  0.8659 -1.6012
  530SOL     OW 1588   1.629   0.641   1.980  0.0881 -0.3657 -0.4507
  530SOL    HW1 1589   1.695   0.691   1.921 -3.6842 -1.0503 -0.7352
  530SOL    HW2 1590   1.676   0.574   2.043  1.9929  0.8456 -0.9776
  531SOL     OW 1591   1.300   2.624   0.303  0.1256  0.0781 -0.8879
  531SOL    HW1 1592   1.308   2.702   0.237  0.7907 -0.9789 -0.7022
  531SOL    HW2 1593   1.385   2.619   0.361 -0.6427 -0.7065 -1.6717
  532SOL     OW 1594   3.092   0.984   2.818  0.1691 -0.0954  0.2587
  532SOL    HW1 1595   3.106   0.928   2.903  1.2318  0.2408  1.6764
  532SOL    HW2 1596   3.175   1.045   2.803 -2.7652 -0.8929 -0.3341
  533SOL     OW 1597   0.045   0.317   2.471  0.0444 -0.0506  0.0173
  533SOL    HW1 1598  -0.045   0.334   2.519  0.0999  1.6065 -1.5491
  533SOL    HW2 1599   0.042   0.239   2.403 -1.2000 -3.0480 -2.4084
  534SOL     OW 1600   2.633   0.235   3.277 -0.4465 -0.2004 -0.0412
  534SOL    HW1 1601   2.706   0.248   3.348  0.9501  0.3546  2.4312
  534SOL    HW2 1602   2.646   0.145   3.230  1.0923 -0.6168  0.5973
  535SOL     OW 1603   0.257   0.437   3.598  0.1778 -0.2259  0.6240
  535SOL    HW1 1604   0.335   0.404   3.657 -1.3134 -1.7905 -0.5657
  535SOL    HW2 1605   0.288   0.451   3.500 -1.7289  0.0121  3.8208
  536SOL     OW 1606   1.288   2.418   1.327  0.2094  0.0261 -0.4528
  536SOL    HW1 1607   1.209   2.403   1.391 -1.2462  0.9662 -0.7529
  536SOL    HW2 1608   1.282   2.510   1.277 -0.3277  3.3584 -0.8077
  537SOL     OW 1609   3.256   2.987   1.723  0.5029  0.6127 -0.0984
  537SOL    HW1 1610   3.290   3.057   1.790  0.3693 -3.0088 -1.8794
  537SOL    HW2 1611   3.196   2.918   1.773  2.3009 -1.5484  2.0924
  538SOL     OW 1612   0.752   2.897   0.652  0.0835 -0.0123 -0.2274
  538SOL    HW1 1613   0.788   2.816   0.706 -1.4196  2.7374  0.1533
  538SOL    HW2 1614   0.811   2.982   0.657 -0.6670  1.8823 -1.6281
  539SOL     OW 1615   2.149   1.524   2.899  0.2848  0.4698 -0.0405
  539SOL    HW1 1616   2.077   1.490   2.833  0.7096  0.4371  0.9218
  539SOL    HW2 1617   2.204   1.602   2.863 -1.4276 -0.1081  0.4939
  540SOL     OW 1618   2.196   0.721   3.372 -0.4100  0.3132 -0.0077
  540SOL    HW1 1619   2.248   0.703   3.460  0.5428  3.8715 -0.8984
  540SOL    HW2 1620   2.178   0.821   3.352 -2.9350  1.3599  1.6004
  541SOL     OW 1621   1.295   1.274   2.782 -0.1345  0.0657  0.1131
  541SOL    HW1 1622   1.331   1.213   2.708  0.2032 -0.1302  0.1545
  541SOL    HW2 1623   1.299   1.373   2.753  1.7425 -1.1136  0.5607
  542SOL     OW 1624   1.716   3.017   2.165 -0.1410 -0.1288 -0.2325
  542SOL    HW1 1625   1.615   3.020   2.152  0.5428 -1.3621  0.2524
  542SOL    HW2 1626   1.768   3.051   2.083 -0.8765  1.6888  2.1450
  543SOL     OW 1627   0.584   3.299   3.566 -0.0391 -0.2948 -0.4462
  543SOL    HW1 1628   0.643   3.285   3.482 -0.3336  0.6251 -0.0625
  543SOL    HW2 1629   0.490   3.331   3.537 -1.0999 -1.7044  0.3673
  544SOL     OW 1630   0.068   2.391   2.523  0.8715  0.1733 -0.0574
  544SOL    HW1 1631   0.011   2.386   2.609 -0.0381  2.7385 -0.5521
  544SOL    HW2 1632   0.135   2.469   2.540 -0.6351  1.4462 -1.8697
  545SOL     OW 1633   1.655   2.205   1.909  0.1220  0.0635  0.5288
  545SOL    HW1 1634   1.614   2.219   1.814  1.0608 -2.4442  1.2449
  545SOL    HW2 1635   1.589   2.157   1.975 -0.9733  1.5977 -0.4206
  546SOL     OW 1636   3.253   0.281   3.074 -0.1682 -0.2017 -0.3376
  546SOL    HW1 1637   3.217   0.304   2.981  1.7922  1.5373  1.1359
  546SOL    HW2 1638   3.351   0.316   3.081 -0.6215 -4.4139  2.6007
  547SOL     OW 1639   1.894   3.549   0.937 -0.5381 -0.5908  0.1945
  547SOL    HW1 1640   1.890   3.590   1.032  1.9687 -2.7882 -1.5992
  547SOL    HW2 1641   1.968   3.477   0.936 -1.1151  1.9360  0.6001
  548SOL     OW 1642   1.599   2.569   0.102  0.2178  0.2396 -0.2463
  548SOL    HW1 1643   1.546   2.481   0.102  0.9466 -0.7138  0.1130
  548SOL    HW2 1644   1.541   2.651   0.079  1.3430 -2.2780 -3.0813
  549SOL     OW 1645   2.328   0.673   0.031  0.5503 -0.2800  0.1117
  549SOL    HW1 1646   2.382   0.593   0.069 -2.6552  1.6093  2.4843
  549SOL    HW2 1647   2.374   0.762   0.054  1.7584 -2.1626  0.5759
  550SOL     OW 1648   3.019   2.149   1.003  0.6922  0.1673  0.8303
  550SOL    HW1 1649   2.945   2.207   0.963 -1.3714  0.6780  0.3965
  550SOL    HW2 1650   3.084   2.123   0.929 -0.0657  1.3071  0.5733
  551SOL     OW 1651   1.337   0.289   1.507  0.1941 -0.1418 -0.5820
  551SOL    HW1 1652   1.273   0.343   1.565 -0.8110 -0.9816  1.3200
  551SOL    HW2 1653   1.282   0.219   1.453  2.1843 -0.3853  3.7055
  552SOL     OW 1654   0.448   2.159   3.229  0.2040  0.1578 -0.2025
  552SOL    HW1 1655   0.467   2.101   3.146 -1.3964 -1.9818  0.5192
  552SOL    HW2 1656   0.430   2.100   3.312  0.5513  0.7131  0.4985
  553SOL     OW 1657   2.990   2.847   0.022 -0.3512  0.0785 -1.0076
  553SOL    HW1 1658   2.899   2.804  -0.002 -0.7366 -1.0653 -1.4250
  553SOL    HW2 1659   2.991   2.869   0.123 -2.1762 -2.0395  2.0391
  554SOL     OW 1660   2.325   1.726   1.713  0.2132  0.5136  0.2615
  554SOL    HW1 1661   2.352   1.695   1.807  0.9452 -1.6352  1.4223
  554SOL    HW2 1662   2.238   1.781   1.722 -3.1919  2.4879 -1.2489
  555SOL     OW 1663   0.661   2.941   2.771  0.3246 -0.3772 -0.0850
  555SOL    HW1 1664   0.617   2.900   2.854 -0.0642  1.7446 -2.2194
  555SOL    HW2 1665   0.616   3.032   2.752  1.2302 -3.4953  3.9054
  556SOL     OW 1666   1.663   1.263   1.726 -0.4939  0.7159  0.4718
  556SOL    HW1 1667   1.700   1.244   1.632  1.3540  0.6533 -2.8992
  556SOL    HW2 1668   1.646   1.364   1.741  0.3261  0.3583  0.4883
  557SOL     OW 1669   1.718   3.464   1.363 -0.1039  0.1884  0.1797
  557SOL    HW1 1670   1.737   3.368   1.327  0.9234 -1.0424  0.2213
  557SOL    HW2 1671   1.671   3.463   1.455 -1.8018  0.4231  3.9382
  558SOL     OW 1672   0.631   0.975   2.764  0.0312  0.0881  0.1176
  558SOL    HW1 1673   0.555   0.907   2.756  0.2100 -1.0924 -0.6584
  558SOL    HW2 1674   0.665   0.975   2.861  1.1583 -1.8844 -1.3378
  559SOL     OW 1675   1.112   3.205   0.178  0.3308  0.0201 -0.1018
  559SOL    HW1 1676   1.093   3.265   0.260 -0.4417 -0.2216 -4.9584
  559SOL    HW2 1677   1.212   3.186   0.162  0.7845 -1.2552  1.4026
  560SOL     OW 1678   1.933   2.386   0.445  0.0747  0.2156 -0.0356
  560SOL    HW1 1679   2.002   2.423   0.379 -0.6514 -3.6360  0.7036
  560SOL    HW2 1680   1.842   2.433   0.435  0.2203  0.3942 -3.7731
  561SOL     OW 1681   1.269   3.447   0.668  0.3313 -0.3993 -0.8354
  561SOL    HW1 1682   1.332   3.527   0.660 -0.4023  0.4949 -1.0822
  561SOL    HW2 1683   1.225   3.451   0.761 -4.8361  0.3189 -0.9399
  562SOL     OW 1684   0.626   1.232   2.613 -0.8071  0.3309 -1.0730
  562SOL    HW1 1685   0.658   1.303   2.682  0.2566 -1.0999  0.1923
  562SOL    HW2 1686   0.626   1.143   2.666 -2.7929  2.8978 -3.5130
  563SOL     OW 1687   1.434   2.433   2.892 -0.3118 -0.1091 -0.2180
  563SOL    HW1 1688   1.424   2.427   2.790 -0.1943  0.7810 -0.2398
  563SOL    HW2 1689   1.428   2.339   2.933  0.9271 -0.4189  1.9138
  564SOL     OW 1690   2.920   0.777   1.426 -0.6913 -0.2991 -0.6981
  564SOL    HW1 1691   2.884   0.733   1.341 -0.8525 -2.5699  1.4978
  564SOL    HW2 1692   2.878   0.871   1.439 -0.7638 -1.4781 -1.0758
  565SOL     OW 1693   1.710   1.110   0.399 -0.4153  0.0082 -0.3545
  565SOL    HW1 1694   1.682   1.100   0.300  1.2344  0.7184 -1.0256
  565SOL    HW2 1695   1.647   1.171   0.454 -1.0664  3.0728  1.2473
  566SOL     OW 1696   2.847   3.216   3.409 -0.2026 -0.2174 -0.3334
  566SOL    HW1 1697   2.921   3.146   3.395 -1.5821 -1.9933  2.0133
  566SOL    HW2 1698   2.761   3.165   3.430 -0.0995  0.5474 -0.5713
  567SOL     OW 1699   2.229   0.910   1.214  0.1306  0.0005 -0.1316
  567SOL    HW1 1700   2.158   0.948   1.279  0.0448 -0.5891  0.1378
  567SOL    HW2 1701   2.259   0.816   1.241  2.0763  0.6319  2.5093
  568SOL     OW 1702   1.349   1.246   3.080 -0.0951  0.2582 -0.2512
  568SOL    HW1 1703   1.343   1.334   3.135 -3.0345  0.5807  3.1732
  568SOL    HW2 1704   1.342   1.257   2.978  2.3737 -0.3506  0.7635
  569SOL     OW 1705   2.475   1.910   0.946 -0.1961 -0.0041  0.2220
  569SOL    HW1 1706   2.405   1.841   0.915  2.8988  1.1969 -0.7682
  569SOL    HW2 1707   2.555   1.866   0.996 -2.1500 -2.2221  1.4741
  570SOL     OW 1708   2.977   3.011   2.684  0.3340  0.3101 -0.2970
  570SOL    HW1 1709   2.900   3.070   2.722  2.3503  1.4710 -0.7780
  570SOL    HW2 1710   2.993   3.035   2.586  3.0186  0.0242 -1.7500
  571SOL     OW 1711   0.006   2.411   1.955  0.1567  0.4540  0.2819
  571SOL    HW1 1712  -0.066   2.414   1.882 -1.8259  0.8500  0.6387
  571SOL    HW2 1713  -0.038   2.395   2.047  1.4545 -1.5587  0.4820
  572SOL     OW 1714   1.244   2.602   3.031  0.2335 -0.1750 -0.0671
  572SOL    HW1 1715   1.285   2.697   3.038  1.4534  2.2086  3.3444
  572SOL    HW2 1716   1.315   2.537   2.994 -2.5752 -1.0485 -2.6716
  573SOL     OW 1717   1.834   2.711   1.630 -0.2229  0.8339 -0.3059
  573SOL    HW1 1718   1.745   2.722   1.681  0.2393  1.5130 -0.9029
  573SOL    HW2 1719   1.905   2.680   1.697 -1.3650  0.9343 -0.4644
  574SOL     OW 1720   1.353   3.265   1.779  0.0070  0.3051 -0.0189
  574SOL    HW1 1721   1.259   3.271   1.735 -1.5821  0.1746  1.0168
  574SOL    HW2 1722   1.347   3.285   1.880 -1.5182 -0.1635  1.2630
  575SOL     OW 1723   0.806   0.618   1.069  0.5363  0.5655 -0.3391
  575SOL    HW1 1724   0.882   0.651   1.009 -1.4639 -0.5675  0.7414
  575SOL    HW2 1725   0.829   0.631   1.169 -0.6446  1.7516 -0.1041
  576SOL     OW 1726   2.541   0.720   1.721  0.0938 -0.6770 -0.5534
  576SOL    HW1 1727   2.495   0.796   1.772 -1.0934  0.8137  0.9664
  576SOL    HW2 1728   2.603   0.761   1.648 -1.9484 -0.5229  0.2664
  577SOL     OW 1729   2.352   0.168   3.449 -0.7050  0.1882 -0.1930
  577SOL    HW1 1730   2.432   0.203   3.393  1.3858 -2.5147  0.8565
  577SOL    HW2 1731   2.268   0.181   3.392 -0.0819  2.5484 -0.3272
  578SOL     OW 1732   1.987   2.220   2.332 -0.2258 -0.4327 -0.5503
  578SOL    HW1 1733   1.983   2.118   2.330 -0.8324  0.7615 -0.1931
  578SOL    HW2 1734   1.963   2.256   2.238 -1.2605  0.9789 -1.3161
  579SOL     OW 1735   1.024   1.898   1.181 -0.5723 -0.1547  0.1903
  579SOL    HW1 1736   1.075   1.986   1.181 -0.1558  1.9067 -1.9620
  579SOL    HW2 1737   0.954   1.890   1.105 -3.2780  1.9285 -0.1106
  580SOL     OW 1738   1.383   0.065   3.470  0.6545  0.2000 -0.0630
  580SOL    HW1 1739   1.330   0.016   3.545 -0.3458 -5.0189  1.2267
  580SOL    HW2 1740   1.451   0.136   3.505  0.4672 -0.4820  2.1187
  581SOL     OW 1741   1.363   1.069   2.031 -0.2636  0.1208  0.0015
  581SOL    HW1 1742   1.404   0.992   2.086 -1.3935 -1.7243 -1.5767
  581SOL    HW2 1743   1.390   1.063   1.932 -3.0407  0.1654 -0.4856
  582SOL     OW 1744   0.363   0.386   1.125  0.2420 -0.3119 -0.3364
  582SOL    HW1 1745   0.346   0.479   1.082 -0.7404 -0.4312  1.2112
  582SOL    HW2 1746   0.462   0.360   1.119 -3.0629 -3.9029 -3.7298
  583SOL     OW 1747   0.935   2.307   2.097 -0.2980  0.0157 -0.0405
  583SOL    HW1 1748   0.915   2.211   2.130  3.3289 -0.7243  1.3388
  583SOL    HW2 1749   1.017   2.306   2.036  2.1015  0.2669 -1.2015
  584SOL     OW 1750   2.995   2.893   0.361 -0.1905 -0.1721 -0.0022
  584SOL    HW1 1751   3.085   2.938   0.384  0.9585  0.1584 -1.4207
  584SOL    HW2 1752   2.925   2.930   0.428  0.8577  1.7868  0.5297
  585SOL     OW 1753   2.696   0.677   3.352 -0.4626  1.0905 -0.6134
  585SOL    HW1 1754   2.684   0.627   3.441 -0.5050  0.1948 -0.8945
  585SOL    HW2 1755   2.653   0.622   3.276 -0.5147  1.2361 -0.7888
  586SOL     OW 1756   0.572   1.560   0.316 -0.5763 -0.3572  0.0686
  586SOL    HW1 1757   0.632   1.632   0.359 -0.7277 -0.0546  0.6953
  586SOL    HW2 1758   0.475   1.597   0.322  1.9107 -1.7692 -1.8222
  587SOL     OW 1759   2.064   2.420   1.502  0.0420 -0.4943 -0.1972
  587SOL    HW1 1760   2.080   2.390   1.404  1.1401  2.5909 -0.5187
  587SOL    HW2 1761   1.988   2.492   1.510  2.0940  0.2293 -0.4112
  588SOL     OW 1762   0.620   0.770   1.496  0.5348 -0.3288  0.2252
  588SOL    HW1 1763   0.709   0.744   1.451 -0.3455  3.5099 -2.8402
  588SOL    HW2 1764   0.548   0.796   1.428 -1.6068 -0.5522  2.1358
  589SOL     OW 1765   2.417   3.415   0.959  0.5724  0.3574 -0.4883
  589SOL    HW1 1766   2.437   3.439   0.860 -0.1066 -0.6434  2.4767
  589SOL    HW2 1767   2.318   3.385   0.966  0.2110 -2.4533 -1.6721
  590SOL     OW 1768   2.026   1.170   0.472 -0.2281  0.1847  0.3461
  590SOL    HW1 1769   2.096   1.140   0.403  2.0073 -1.5404  0.1256
  590SOL    HW2 1770   1.930   1.141   0.449 -2.9461  0.4426 -0.5424
  591SOL     OW 1771   2.728   2.410   2.370  0.4935  0.4534  0.0516
  591SOL    HW1 1772   2.805   2.345   2.346  0.9420 -2.6415 -2.4612
  591SOL    HW2 1773   2.771   2.502   2.381 -5.2224  0.3007  1.4685
  592SOL     OW 1774   1.570   2.329   1.376  0.5383 -0.2633 -0.5939
  592SOL    HW1 1775   1.611   2.257   1.316 -0.4948  0.8456 -0.7120
  592SOL    HW2 1776   1.476   2.360   1.348 -1.4762  1.0290 -1.6734
  593SOL     OW 1777   0.659   3.267   0.917 -0.3009 -0.4650  0.9981
  593SOL    HW1 1778   0.761   3.252   0.928 -0.7126  1.5965 -1.4015
  593SOL    HW2 1779   0.625   3.321   0.999  1.4994 -2.0630  0.7311
  594SOL     OW 1780   3.344   1.154   2.757  1.0930 -0.3736  0.0693
  594SOL    HW1 1781   3.367   1.219   2.681  2.8685  0.6408  3.3539
  594SOL    HW2 1782   3.415   1.079   2.769  1.9471 -1.3674 -1.1364
  595SOL     OW 1783   3.517   3.529   0.707 -0.3238  0.1653 -0.1555
  595SOL    HW1 1784   3.594   3.512   0.641  0.6528 -1.4357  1.7456
  595SOL    HW2 1785   3.537   3.616   0.760 -1.0195  1.4000  0.3494
  596SOL     OW 1786   0.003   0.658   1.689  0.5929 -0.0711  0.1882
  596SOL    HW1 1787   0.023   0.745   1.741 -1.6191 -1.4053  0.0218
  596SOL    HW2 1788  -0.093   0.624   1.711  0.5250  1.0325  0.9267
  597SOL     OW 1789   3.087   1.411   0.459 -0.2126  0.3934 -0.3229
  597SOL    HW1 1790   3.158   1.335   0.459  1.7394  0.2591  0.7276
  597SOL    HW2 1791   2.993   1.373   0.440 -1.3481  0.8312  0.7791
  598SOL     OW 1792   0.704   0.432   2.434 -0.4637 -0.1999 -0.2218
  598SOL    HW1 1793   0.697   0.523   2.387 -0.8981 -1.8046 -0.7242
  598SOL    HW2 1794   0.618   0.415   2.488  1.8504 -1.2032 -0.8731
  599SOL     OW 1795   2.961   2.071   0.215  0.2357 -0.5717 -0.3556
  599SOL    HW1 1796   2.941   2.166   0.181 -0.6676  2.0148  0.9643
  599SOL    HW2 1797   3.028   2.079   0.294 -3.2717 -0.8279 -1.8116
  600SOL     OW 1798   0.994   1.003   0.186 -0.9592  0.2345  0.3868
  600SOL    HW1 1799   1.084   1.046   0.155 -0.6514 -0.7343 -0.7338
  600SOL    HW2 1800   0.915   1.065   0.165  1.1039  0.8164 -0.6115
  601SOL     OW 1801   1.607   1.093   0.124 -0.5331 -0.2805 -0.7589
  601SOL    HW1 1802   1.521   1.148   0.115  2.7193  0.7179 -0.3918
  601SOL    HW2 1803   1.596   1.001   0.081 -0.2912 -1.5889  1.2237
  602SOL     OW 1804   1.177   3.590   1.970  0.2556 -0.1210 -0.0177
  602SOL    HW1 1805   1.214   3.685   1.985  0.6397 -3.2599 -0.6235
  602SOL    HW2 1806   1.114   3.586   1.887 -1.1662 -0.1582 -2.1942
  603SOL     OW 1807   1.116   3.284   2.775 -0.2081  0.4581 -0.5778
  603SOL    HW1 1808   1.198   3.342   2.797 -0.8235  2.0790  1.2942
  603SOL    HW2 1809   1.121   3.254   2.677  0.1277 -0.8920  1.6293
  604SOL     OW 1810   0.035   0.079   2.301  0.2747  0.2332 -0.2084
  604SOL    HW1 1811   0.083   0.003   2.353 -0.3495 -0.9778 -1.0992
  604SOL    HW2 1812  -0.052   0.048   2.257  0.2895 -0.8391  1.4882
  605SOL     OW 1813   3.067   3.252   1.908  0.1180  0.4777  0.5181
  605SOL    HW1 1814   3.020   3.180   1.961 -0.7008  0.2481  1.5873
  605SOL    HW2 1815   3.170   3.247   1.920  1.6429  1.2517 -1.4386
  606SOL     OW 1816   0.056   2.210   2.952 -0.0191 -0.0980  0.1545
  606SOL    HW1 1817   0.061   2.124   3.007  2.8133  2.9581 -0.0826
  606SOL    HW2 1818   0.117   2.284   2.992  1.8866 -1.3742  0.6857
  607SOL     OW 1819   0.956   0.126   0.768  0.7637 -0.4909  0.2196
  607SOL    HW1 1820   0.937   0.207   0.708  0.1738  1.3731  0.3822
  607SOL    HW2 1821   0.999   0.148   0.858 -1.8743  3.4618  0.6503
  608SOL     OW 1822   1.893   2.086   2.881 -0.5307 -0.6113  0.8776
  608SOL    HW1 1823   1.879   1.993   2.838  0.4960 -0.2669  2.1109
  608SOL    HW2 1824   1.940   2.150   2.814 -2.3052  1.9265  0.3758
  609SOL     OW 1825   3.547   0.361   1.478  0.1677 -0.4195 -0.5383
  609SOL    HW1 1826   3.618   0.431   1.446  1.6800 -2.0270 -0.1109
  609SOL    HW2 1827   3.587   0.308   1.555  1.5604  1.7294 -0.0082
  610SOL     OW 1828   1.060   2.827   3.587 -0.0955  0.3323  0.0838
  610SOL    HW1 1829   1.013   2.853   3.501  1.2577 -0.6108 -2.4039
  610SOL    HW2 1830   1.015   2.875   3.668  0.5587 -2.3907 -0.4249
  611SOL     OW 1831   2.248   1.577   0.583 -0.6919  0.6877  0.4745
  611SOL    HW1 1832   2.286   1.640   0.510 -0.4371  2.2206  0.1650
  611SOL    HW2 1833   2.158   1.547   0.539  3.6416 -0.2583 -0.2274
  612SOL     OW 1834   1.172   3.070   2.954  0.2977  0.2415 -0.0488
  612SOL    HW1 1835   1.153   3.152   2.893  0.5191 -1.1811 -0.8973
  612SOL    HW2 1836   1.101   2.996   2.943 -0.4028 -0.0851 -1.7970
  613SOL     OW 1837   1.360   2.353   0.129 -0.3420  0.7462 -0.1455
  613SOL    HW1 1838   1.306   2.419   0.187  0.4006  1.0504  2.4971
  613SOL    HW2 1839   1.303   2.333   0.045  1.7518 -1.0225 -1.5877
  614SOL     OW 1840   3.075   2.779   1.869  0.5320 -0.0670 -0.2450
  614SOL    HW1 1841   3.061   2.725   1.784 -0.7415  1.5074 -3.3975
  614SOL    HW2 1842   3.038   2.733   1.954 -0.7436  1.0028  0.2568
  615SOL     OW 1843   2.938   1.494   0.054 -0.0758  0.2641  0.2035
  615SOL    HW1 1844   2.964   1.524  -0.041  2.1470 -2.7400 -1.0590
  615SOL    HW2 1845   2.885   1.407   0.056  1.0744  1.3797  3.1883
  616SOL     OW 1846   1.921   0.049   0.629  0.3863 -0.0283  0.5047
  616SOL    HW1 1847   1.887   0.004   0.716  1.8424  0.9426  0.5524
  616SOL    HW2 1848   2.024   0.043   0.625 -3.2268  1.7949  0.8814
  617SOL     OW 1849   0.564   1.743   3.267 -0.2729 -0.6172  0.0633
  617SOL    HW1 1850   0.546   1.799   3.182  1.3816 -0.1686 -0.6149
  617SOL    HW2 1851   0.663   1.715   3.273  2.9092 -1.2866  1.4829
  618SOL     OW 1852   0.569   0.852   2.076 -0.4258 -0.4062  0.7014
  618SOL    HW1 1853   0.466   0.850   2.072 -2.2506 -1.2455 -0.6955
  618SOL    HW2 1854   0.605   0.811   1.989  1.3690  1.5301  0.4551
  619SOL     OW 1855   3.314   1.132   2.367 -0.9462 -0.4604  0.8943
  619SOL    HW1 1856   3.357   1.201   2.431  2.7994 -0.8747 -0.7534
  619SOL    HW2 1857   3.309   1.040   2.409 -0.0671 -1.2029  2.2645
  620SOL     OW 1858   2.548   1.098   3.545 -0.6410  0.2103 -0.6864
  620SOL    HW1 1859   2.597   1.052   3.468 -3.2368  0.3096  0.9172
  620SOL    HW2 1860   2.458   1.139   3.516 -1.8972 -0.1888 -0.0630
  621SOL     OW 1861   2.847   3.524   1.437  0.1438 -0.0122 -0.4777
  621SOL    HW1 1862   2.924   3.484   1.492 -1.1452  0.7419  0.3011
  621SOL    HW2 1863   2.762   3.537   1.493  3.2362  0.9569 -0.9649
  622SOL     OW 1864   1.999   0.650   2.428  0.1275  0.7173 -0.3531
  622SOL    HW1 1865   1.999   0.569   2.363 -1.6995 -1.7364 -0.6297
  622SOL    HW2 1866   1.916   0.707   2.403 -3.8538  1.1197 -1.4412
  623SOL     OW 1867   1.780   1.092   2.819  0.8847 -0.0132  0.3580
  623SOL    HW1 1868   1.874   1.112   2.777  2.0842  0.1477 -3.2894
  623SOL    HW2 1869   1.776   1.115   2.921  1.7103 -2.4385 -1.5992
  624SOL     OW 1870   2.216   0.056   0.626  0.5448 -0.1634  0.2570
  624SOL    HW1 1871   2.229   0.105   0.537  0.8101  0.0698  2.5874
  624SOL    HW2 1872   2.286  -0.019   0.640  0.8807 -0.4600  0.9488
  625SOL     OW 1873   0.801   1.793   0.467 -0.8761 -0.7094  0.2151
  625SOL    HW1 1874   0.869   1.717   0.482  0.2378  1.7225  2.3131
  625SOL    HW2 1875   0.807   1.864   0.541  1.8672  2.0960 -0.2474
  626SOL     OW 1876   1.931   1.420   2.697 -0.1081  0.2490  0.4355
  626SOL    HW1 1877   1.944   1.455   2.602 -1.0618 -0.6585 -0.3351
  626SOL    HW2 1878   1.832   1.442   2.724 -0.8310  0.8553  1.0437
  627SOL     OW 1879   0.952   0.645   2.153 -0.2187 -0.4600  0.0201
  627SOL    HW1 1880   1.031   0.693   2.199  0.5250 -2.7535 -0.3245
  627SOL    HW2 1881   0.863   0.661   2.203 -3.1957  1.1506  2.1278
  628SOL     OW 1882   2.460   0.969   2.661 -0.4213  0.6048 -0.4134
  628SOL    HW1 1883   2.381   0.920   2.615  1.7272 -3.4185  2.4524
  628SOL    HW2 1884   2.540   0.978   2.597 -0.9058 -0.6268  0.6538
  629SOL     OW 1885   0.910   1.603   3.545  0.1477  0.3947 -0.4593
  629SOL    HW1 1886   0.894   1.634   3.448 -0.5457  1.2890  0.0610
  629SOL    HW2 1887   0.828   1.555   3.586  1.2896 -1.6666  0.7676
  630SOL     OW 1888   1.610   0.587   2.640 -0.0076  0.4327  0.4747
  630SOL    HW1 1889   1.599   0.689   2.634 -2.3413 -3.3979  4.0757
  630SOL    HW2 1890   1.699   0.556   2.683 -1.8792  3.5127  0.3827
  631SOL     OW 1891   3.050   0.870   1.033  0.2424  0.0196 -0.0001
  631SOL    HW1 1892   3.008   0.792   1.087  1.0461  0.7275  2.2467
  631SOL    HW2 1893   2.977   0.926   0.983  0.0871  1.6330  1.6210
  632SOL     OW 1894   3.199   2.083   0.807  0.5277 -0.1753  0.0878
  632SOL    HW1 1895   3.188   2.005   0.742  1.6549  1.8789  0.5627
  632SOL    HW2 1896   3.276   2.146   0.776 -0.2536  0.9244 -1.5905
  633SOL     OW 1897   0.830   1.535   0.888  0.1392 -0.1815 -0.5304
  633SOL    HW1 1898   0.821   1.478   0.973  1.8410  0.9037 -0.6372
  633SOL    HW2 1899   0.806   1.481   0.802  0.3840  2.2502  0.7692
  634SOL     OW 1900   1.812   3.562   0.299  0.2136  0.2927  0.4072
  634SOL    HW1 1901   1.724   3.509   0.294  0.8572  0.5067 -0.8109
  634SOL    HW2 1902   1.835   3.595   0.395  2.2858 -1.7770 -2.1044
  635SOL     OW 1903   2.330   0.318   2.044 -0.5169  0.0792 -0.1316
  635SOL    HW1 1904   2.367   0.303   1.950  2.6525 -2.2675  1.3774
  635SOL    HW2 1905   2.368   0.405   2.084 -2.4961  0.9192 -0.6676
  636SOL     OW 1906   1.600   0.778   0.800  0.2430 -0.5226  0.4532
  636SOL    HW1 1907   1.543   0.860   0.822 -1.1630 -0.2762 -2.8546
  636SOL    HW2 1908   1.669   0.770   0.875  2.2756 -0.6608 -0.3285
  637SOL     OW 1909   2.319   1.714   3.442 -0.7297  0.0865 -0.3118
  637SOL    HW1 1910   2.326   1.767   3.353  2.9209  0.0945 -2.4229
  637SOL    HW2 1911   2.221   1.711   3.475 -0.5211 -1.2378  2.1321
  638SOL     OW 1912   1.059   0.005   3.135 -0.2283  0.0270 -0.6435
  638SOL    HW1 1913   1.060  -0.091   3.176 -0.0432  0.2240  0.1050
  638SOL    HW2 1914   0.992   0.008   3.055  0.6749 -1.1376 -0.1741
  639SOL     OW 1915   1.273   2.404   1.707 -0.8768 -0.2750 -0.5253
  639SOL    HW1 1916   1.199   2.395   1.637  0.9669  2.7885  1.5421
  639SOL    HW2 1917   1.352   2.342   1.685 -0.0055 -2.1797 -1.7260
  640SOL     OW 1918   0.513   0.164   3.347 -0.3623 -0.2024 -0.5773
  640SOL    HW1 1919   0.438   0.123   3.404  0.1539  0.1455 -0.7793
  640SOL    HW2 1920   0.533   0.110   3.261  1.4762  3.5674 -0.8412
  641SOL     OW 1921   0.431   0.787   0.359  0.2811 -0.3504  0.1580
  641SOL    HW1 1922   0.334   0.750   0.362 -0.0296 -0.2463  1.2320
  641SOL    HW2 1923   0.432   0.889   0.378  2.6584 -1.5232 -1.3140
  642SOL     OW 1924   0.362   1.935   1.320  0.2645 -0.2274  0.4413
  642SOL    HW1 1925   0.399   2.029   1.336  1.9641  0.0614 -0.9825
  642SOL    HW2 1926   0.398   1.894   1.232 -0.4710  3.2045  2.1860
  643SOL     OW 1927   0.967   2.074   3.185 -0.2340 -0.8322 -0.2787
  643SOL    HW1 1928   0.897   2.141   3.222 -0.1869 -3.8518 -0.0164
  643SOL    HW2 1929   1.060   2.099   3.224 -0.0366  0.4136  0.2873
  644SOL     OW 1930   1.812   2.809   0.495  0.7805  0.0977  0.4879
  644SOL    HW1 1931   1.904   2.810   0.449  1.3302 -2.2281  2.0459
  644SOL    HW2 1932   1.819   2.797   0.596  0.3481  0.0343 -3.1454
  645SOL     OW 1933   1.205   2.717   1.791  0.1614  0.2924 -0.0149
  645SOL    HW1 1934   1.226   2.619   1.770  0.5733  2.1150 -0.5203
  645SOL    HW2 1935   1.266   2.785   1.744 -1.3544  2.1378 -0.1940
  646SOL     OW 1936   0.606   2.978   0.042  0.2269  0.1692 -0.2779
  646SOL    HW1 1937   0.699   2.957   0.086 -2.3010 -2.2864 -0.1499
  646SOL    HW2 1938   0.593   3.076   0.013 -1.0758  3.0965  1.5202
  647SOL     OW 1939   0.154   3.512   2.464  0.5852 -0.1259  0.9051
  647SOL    HW1 1940   0.098   3.509   2.550  0.3770  0.2774  0.9678
  647SOL    HW2 1941   0.254   3.494   2.485  1.8725  1.9385 -2.2393
  648SOL     OW 1942   3.011   1.210   1.295 -0.5933  0.0535  0.3228
  648SOL    HW1 1943   3.091   1.153   1.266  1.6570 -0.6728 -1.2506
  648SOL    HW2 1944   2.938   1.154   1.339 -0.0507  0.2613 -0.8869
  649SOL     OW 1945   2.517   3.112   3.231  0.2445  0.5194  0.6087
  649SOL    HW1 1946   2.544   3.082   3.326  0.1775  0.0824 -4.0105
  649SOL    HW2 1947   2.504   3.215   3.223 -1.2902  0.8995  0.2839
  650SOL     OW 1948   3.253   2.565   2.241  0.4211  0.6034 -0.4065
  650SOL    HW1 1949   3.310   2.480   2.262 -1.0222 -1.8849 -3.5385
  650SOL    HW2 1950   3.296   2.627   2.172 -1.8474  1.7990 -1.2503
  651SOL     OW 1951   1.245   2.111   3.279 -0.0715 -0.0449 -0.0421
  651SOL    HW1 1952   1.306   2.147   3.203 -1.4601  0.7607 -0.5587
  651SOL    HW2 1953   1.290   2.028   3.323  1.3399 -1.1002 -1.0446
  652SOL     OW 1954   0.568   0.090   2.592 -0.3183 -0.5503  0.2983
  652SOL    HW1 1955   0.533   0.187   2.590  0.7744  2.5819 -0.7419
  652SOL    HW2 1956   0.644   0.084   2.662 -0.1330 -1.6065 -0.0024
  653SOL     OW 1957   2.345   2.156   0.948 -0.0842 -0.0204  0.2660
  653SOL    HW1 1958   2.393   2.066   0.954 -0.9015  1.4520  0.2272
  653SOL    HW2 1959   2.392   2.230   1.001 -2.2345 -0.0266  2.7895
  654SOL     OW 1960   2.702   3.284   2.499 -0.3968 -0.5177  0.2469
  654SOL    HW1 1961   2.646   3.287   2.585  4.8348 -1.4402 -2.2413
  654SOL    HW2 1962   2.721   3.382   2.474  2.7503 -1.6466 -1.2117
  655SOL     OW 1963   2.850   2.526   1.118  0.3422 -0.0185  0.2538
  655SOL    HW1 1964   2.808   2.614   1.153  2.4942 -0.8630 -0.5258
  655SOL    HW2 1965   2.779   2.467   1.073  1.5840 -0.0087 -0.8523
  656SOL     OW 1966   3.170   1.793   3.395  0.2201  0.0832 -0.5500
  656SOL    HW1 1967   3.203   1.866   3.331  0.3832 -0.0556  0.9909
  656SOL    HW2 1968   3.211   1.806   3.488  2.3303 -0.0984 -2.5052
  657SOL     OW 1969   0.080   1.447   0.762  0.0038 -0.1695 -0.6000
  657SOL    HW1 1970   0.005   1.395   0.715  0.8773 -1.2883 -0.8625
  657SOL    HW2 1971   0.055   1.482   0.856 -4.3332  0.7637  0.2182
  658SOL     OW 1972   1.366   1.960   1.570 -0.4943  0.4114 -0.6063
  658SOL    HW1 1973   1.409   1.918   1.487  3.8144 -1.4053 -1.2875
  658SOL    HW2 1974   1.264   1.959   1.563 -2.4700  0.3302  4.1501
  659SOL     OW 1975   1.493   0.111   1.686  0.3428 -0.1325  0.6995
  659SOL    HW1 1976   1.508   0.166   1.773  1.3746  0.5298  2.2166
  659SOL    HW2 1977   1.442   0.162   1.611 -1.8738  2.6652  0.6038
  660SOL     OW 1978   2.980   0.527   0.826  0.5904 -0.1781 -0.6086
  660SOL    HW1 1979   2.901   0.586   0.858  0.2469 -1.9087 -4.7296
  660SOL    HW2 1980   3.023   0.564   0.741  1.0025 -1.2666  0.0088
  661SOL     OW 1981   0.621   2.250   0.410  0.7332 -0.8054 -0.1252
  661SOL    HW1 1982   0.650   2.163   0.364 -0.8964  0.5717 -3.3650
  661SOL    HW2 1983   0.597   2.327   0.346  2.5471 -0.9417 -0.7864
  662SOL     OW 1984   2.665   0.992   2.461  0.7027 -0.0422 -0.0544
  662SOL    HW1 1985   2.708   0.900   2.439 -0.0589 -0.6050 -1.0626
  662SOL    HW2 1986   2.619   1.031   2.378 -0.2799  0.2177 -2.4115
  663SOL     OW 1987   2.099   1.663   1.269  0.2591  0.2235  0.5261
  663SOL    HW1 1988   2.133   1.584   1.210 -1.7289 -1.4317  1.4943
  663SOL    HW2 1989   2.179   1.710   1.315  1.4193  2.1144 -0.0918
  664SOL     OW 1990   0.686   3.560   1.413 -0.2548  0.0415 -0.3284
  664SOL    HW1 1991   0.737   3.647   1.386 -2.7059 -1.0543  2.0340
  664SOL    HW2 1992   0.683   3.555   1.515  0.0750 -0.1567  1.2816
  665SOL     OW 1993   1.650   0.289   3.405 -0.4627  0.1000 -0.0580
  665SOL    HW1 1994   1.723   0.217   3.392 -1.2117 -1.5547 -4.0406
  665SOL    HW2 1995   1.649   0.354   3.325 -0.8584 -2.2586  1.9628
  666SOL     OW 1996   1.062   0.720   2.601 -0.2853 -0.2907  0.4085
  666SOL    HW1 1997   1.028   0.624   2.614  0.9820 -0.8436 -1.2966
  666SOL    HW2 1998   0.981   0.779   2.580 -1.3527  1.5097 -0.3435
  667SOL     OW 1999   1.618   1.567   1.719 -0.5493  0.0003  0.0136
  667SOL    HW1 2000   1.546   1.625   1.764 -2.6081 -1.6939  0.7722
  667SOL    HW2 2001   1.607   1.578   1.617  0.2491 -1.5318 -0.0645
  668SOL     OW 2002   0.399   1.302   2.442  0.0130 -1.2416  0.1284
  668SOL    HW1 2003   0.480   1.277   2.500 -2.3450 -0.5685 -1.4733
  668SOL    HW2 2004   0.405   1.393   2.396  1.2478  0.2777  2.3211
  669SOL     OW 2005   3.051   2.985   3.378 -0.2180  0.4673 -0.0680
  669SOL    HW1 2006   3.017   2.914   3.311  0.5209 -0.4648  0.7160
  669SOL    HW2 2007   3.054   2.951   3.476  0.2850 -1.5302 -0.6216
  670SOL     OW 2008   3.071   1.528   2.012 -0.5376 -0.0586 -0.0389
  670SOL    HW1 2009   3.167   1.558   1.991  0.6815  0.1817 -1.8721
  670SOL    HW2 2010   3.071   1.451   2.081  1.4589  1.5370  1.4643
  671SOL     OW 2011   3.425   2.233   0.700  0.1245  0.3521 -0.5178
  671SOL    HW1 2012   3.414   2.335   0.695  4.2695  1.7307  1.9580
  671SOL    HW2 2013   3.443   2.190   0.609  2.0622 -2.3853  0.3857
  672SOL     OW 2014   1.839   1.122   2.247 -0.6511 -0.0728  0.1857
  672SOL    HW1 2015   1.929   1.150   2.291 -1.0177  1.5157 -1.9200
  672SOL    HW2 2016   1.847   1.132   2.143  0.2456 -2.5983 -0.2257
  673SOL     OW 2017   3.427   2.414   1.764  0.0544  0.1882 -0.4727
  673SOL    HW1 2018   3.360   2.493   1.773 -1.9823 -0.5004  1.1102
  673SOL    HW2 2019   3.396   2.347   1.691 -2.0045  2.1420  0.5866
  674SOL     OW 2020   0.713   2.428   1.831  0.3311  0.1754  0.2890
  674SOL    HW1 2021   0.784   2.417   1.907  2.5693 -0.8335  0.8559
  674SOL    HW2 2022   0.630   2.471   1.873  0.4398 -1.1785 -0.5942
  675SOL     OW 2023   3.392   0.904   1.431  0.1576 -0.0051 -0.0489
  675SOL    HW1 2024   3.476   0.943   1.476  2.3737 -4.7492 -1.0141
  675SOL    HW2 2025   3.395   0.801   1.424 -0.5658 -0.6526 -1.9200
  676SOL     OW 2026   3.422   1.043   2.063  0.2307  0.6013  0.3804
  676SOL    HW1 2027   3.398   1.071   2.161 -0.4732 -0.0704 -0.4366
  676SOL    HW2 2028   3.368   0.959   2.039  2.9477 -3.1840  4.0285
  677SOL     OW 2029   2.430   1.335   2.909 -0.3018  0.1860 -0.6686
  677SOL    HW1 2030   2.336   1.378   2.919  1.3746  1.8316  0.4723
  677SOL    HW2 2031   2.491   1.354   2.990  0.6694 -0.6421 -0.5248
  678SOL     OW 2032   2.922   1.720   1.348 -0.5465 -0.0728 -0.3318
  678SOL    HW1 2033   2.933   1.647   1.277  1.2498  0.2892  0.5300
  678SOL    HW2 2034   3.014   1.754   1.381 -0.9072  0.8753 -1.1635
  679SOL     OW 2035   0.179   3.203   0.021 -0.4563 -0.2148 -0.0841
  679SOL    HW1 2036   0.199   3.124  -0.043 -2.7871 -2.1018 -2.2124
  679SOL    HW2 2037   0.183   3.171   0.120  0.9115  0.0899  0.1730
  680SOL     OW 2038   0.069   1.926   1.346  0.3908  0.5634  0.2974
  680SOL    HW1 2039   0.169   1.933   1.326 -0.6319 -1.8542  0.5552
  680SOL    HW2 2040   0.034   2.005   1.402  2.8861 -0.4091  0.5526
  681SOL     OW 2041   1.080   0.147   1.032  0.2917  0.1170 -0.1860
  681SOL    HW1 2042   1.027   0.162   1.119  2.4893  0.0452 -0.4937
  681SOL    HW2 2043   1.175   0.184   1.050  0.0552 -0.5893 -4.3675
  682SOL     OW 2044   2.413   2.825   1.910  0.4144 -0.6033 -0.5702
  682SOL    HW1 2045   2.496   2.777   1.948  0.2444 -2.2655  0.4604
  682SOL    HW2 2046   2.390   2.778   1.821 -0.7210 -0.3855  1.6394
  683SOL     OW 2047   3.129   2.110   1.983 -0.3393 -0.1397 -0.1215
  683SOL    HW1 2048   3.096   2.188   1.926  0.1384  0.7580  2.7171
  683SOL    HW2 2049   3.216   2.075   1.943 -1.1512  2.3944  0.8805
  684SOL     OW 2050   3.595   1.711   2.122  0.2100  0.1474  0.2248
  684SOL    HW1 2051   3.591   1.721   2.224 -1.4283  1.4880  3.7294
  684SOL    HW2 2052   3.694   1.701   2.093  1.4957 -2.9686 -1.2262
  685SOL     OW 2053   1.637   1.643   0.294 -0.3612 -0.1607  0.4006
  685SOL    HW1 2054   1.667   1.712   0.364 -1.2419  2.0773  0.1128
  685SOL    HW2 2055   1.720   1.597   0.255 -1.8206 -2.1284 -0.8211
  686SOL     OW 2056   3.367   0.709   2.264 -0.6010  0.0889  0.0687
  686SOL    HW1 2057   3.468   0.689   2.252 -1.9780 -1.2305  2.5110
  686SOL    HW2 2058   3.315   0.731   2.178 -0.9780  1.8141  0.9380
  687SOL     OW 2059   1.849   0.065   3.390  0.5095  0.2637 -0.4621
  687SOL    HW1 2060   1.782   0.005   3.338  2.9144 -0.3893  0.8737
  687SOL    HW2 2061   1.880   0.023   3.479 -0.8703  0.2425 -0.9968
  688SOL     OW 2062   1.452   2.153   3.046 -0.6563  0.1478 -0.2706
  688SOL    HW1 2063   1.448   2.061   2.998  1.0536  1.5389  1.2633
  688SOL    HW2 2064   1.548   2.177   3.074  1.0410 -0.8599 -0.4244
  689SOL     OW 2065   2.604   1.914   1.717 -0.4637 -0.3052 -0.4892
  689SOL    HW1 2066   2.512   1.866   1.729  0.5615  1.2309 -1.0626
  689SOL    HW2 2067   2.670   1.851   1.670 -0.3624 -0.2895 -0.0309
  690SOL     OW 2068   2.742   2.520   1.484 -0.0850 -0.1210 -0.4300
  690SOL    HW1 2069   2.683   2.498   1.565  0.1957 -0.5510 -2.1653
  690SOL    HW2 2070   2.741   2.440   1.419 -0.0422  0.1776  0.8427
  691SOL     OW 2071   0.243   1.969   0.787  0.2770 -0.2359  0.0611
  691SOL    HW1 2072   0.291   2.041   0.732 -1.1061  1.1681  1.2694
  691SOL    HW2 2073   0.154   2.008   0.823  0.0598 -4.0069 -0.1533
  692SOL     OW 2074   3.227   3.544   3.449 -0.5457 -0.0905  0.2798
  692SOL    HW1 2075   3.330   3.548   3.461 -2.5371 -0.2836  2.0912
  692SOL    HW2 2076   3.206   3.593   3.362  2.2025  1.9800 -0.4239
  693SOL     OW 2077   0.363   1.582   2.343  0.1308  0.1562 -0.5562
  693SOL    HW1 2078   0.330   1.611   2.250  0.3518  0.7554 -3.1732
  693SOL    HW2 2079   0.300   1.617   2.417  1.2354  0.8905  0.9918
  694SOL     OW 2080   2.922   0.417   2.366 -0.3038 -0.1076 -0.4836
  694SOL    HW1 2081   3.024   0.421   2.374 -0.6899 -1.5599 -0.6235
  694SOL    HW2 2082   2.890   0.387   2.273  1.0072 -0.2333 -4.1123
  695SOL     OW 2083   1.718   0.880   2.365 -0.0221  0.3825 -0.1708
  695SOL    HW1 2084   1.684   0.897   2.460 -2.1992  0.1308 -0.6224
  695SOL    HW2 2085   1.767   0.961   2.328  1.2403  2.7001  0.4173
  696SOL     OW 2086   2.592   3.385   1.997 -0.0556 -0.2416 -0.1162
  696SOL    HW1 2087   2.556   3.431   2.082  1.6936 -0.5352 -0.1782
  696SOL    HW2 2088   2.526   3.403   1.921 -1.2919 -0.5753 -0.3477
  697SOL     OW 2089   1.249   0.893   2.377  0.6627 -0.5305 -0.4432
  697SOL    HW1 2090   1.216   0.822   2.444  2.7492  0.8692  0.7753
  697SOL    HW2 2091   1.327   0.857   2.320 -0.6008  1.8150 -2.9903
  698SOL     OW 2092   2.628   1.954   3.212  0.2509  0.1354  0.5491
  698SOL    HW1 2093   2.708   1.914   3.160 -0.4760  0.6280  1.0595
  698SOL    HW2 2094   2.625   1.925   3.311  0.2995 -0.7460  0.3975
  699SOL     OW 2095   2.830   1.274   0.372  0.3291 -0.2401  0.2175
  699SOL    HW1 2096   2.748   1.232   0.416  0.0436  0.7502 -0.7456
  699SOL    HW2 2097   2.822   1.265   0.270  0.0704  0.4954  2.6250
  700SOL     OW 2098   1.473   3.606   1.131 -0.0548  0.1546  0.1605
  700SOL    HW1 2099   1.518   3.563   1.049 -1.8397  4.0430  1.4523
  700SOL    HW2 2100   1.517   3.573   1.220  1.9078 -3.0807  1.0899
  701SOL     OW 2101   3.452   0.575   0.881 -0.1514 -0.0616 -0.3426
  701SOL    HW1 2102   3.393   0.660   0.876 -1.0234  0.9161 -2.1739
  701SOL    HW2 2103   3.537   0.598   0.935 -0.8907  0.1681 -1.2796
  702SOL     OW 2104   1.842   3.049   1.465 -0.2545  0.2604  0.5502
  702SOL    HW1 2105   1.845   2.951   1.501  0.5087  0.0950 -0.3801
  702SOL    HW2 2106   1.867   3.121   1.533  0.6233  0.5753 -0.2843
  703SOL     OW 2107   0.084   0.600   1.417 -0.0462 -0.5900 -0.2679
  703SOL    HW1 2108   0.054   0.630   1.510  1.9222  0.6617 -2.3926
  703SOL    HW2 2109   0.188   0.609   1.412 -2.2160  0.2464  1.3473
  704SOL     OW 2110   1.256   3.345   2.085 -0.0949 -0.0764 -0.4020
  704SOL    HW1 2111   1.229   3.433   2.040 -0.2615 -1.1202  0.5128
  704SOL    HW2 2112   1.174   3.295   2.122  1.8915  3.3584  2.4574
  705SOL     OW 2113   0.068   2.309   3.589  0.0899  0.0946 -0.4375
  705SOL    HW1 2114   0.119   2.252   3.657  1.5214 -0.1055 -1.9215
  705SOL    HW2 2115  -0.025   2.336   3.623  1.9167 -1.6294 -2.2971
  706SOL     OW 2116   0.073   0.677   0.379  0.0880  0.4960 -0.1437
  706SOL    HW1 2117   0.067   0.642   0.281  1.0107  0.7723  0.5827
  706SOL    HW2 2118   0.023   0.612   0.441  0.6889 -0.7268 -0.9330
  707SOL     OW 2119   2.315   3.034   2.285 -0.0484 -0.1432  0.1842
  707SOL    HW1 2120   2.349   2.943   2.322  0.5989  1.4502 -1.5189
  707SOL    HW2 2121   2.366   3.117   2.321  0.4562  1.4332 -2.2985
  708SOL     OW 2122   0.696   3.543   1.736 -0.4622 -0.4853 -0.4014
  708SOL    HW1 2123   0.693   3.452   1.784 -0.5811 -1.7775 -0.5582
  708SOL    HW2 2124   0.643   3.612   1.793 -2.5168 -0.2600 -1.1172
  709SOL     OW 2125   0.277   0.864   2.071  0.4045 -0.1261  0.2094
  709SOL    HW1 2126   0.207   0.885   1.999 -0.9184 -0.3696  1.2745
  709SOL    HW2 2127   0.269   0.930   2.150 -0.7118 -0.3301  2.0608
  710SOL     OW 2128   0.292   0.693   0.909  0.5173 -0.0012  0.1776
  710SOL    HW1 2129   0.215   0.686   0.978 -1.5565  0.3069  0.6403
  710SOL    HW2 2130   0.276   0.775   0.850  0.5140 -2.1358  0.1409
  711SOL     OW 2131   2.798   2.749   2.387 -0.1680  0.0562  0.8943
  711SOL    HW1 2132   2.816   2.738   2.488 -0.7583 -2.1494  2.2555
  711SOL    HW2 2133   2.760   2.842   2.372  1.4651 -2.0492  1.9168
  712SOL     OW 2134   0.213   3.162   2.815 -0.0075  0.0834 -0.1455
  712SOL    HW1 2135   0.189   3.252   2.860  0.5262 -0.2394 -1.3584
  712SOL    HW2 2136   0.145   3.132   2.746 -0.4105 -0.1708 -1.2320
  713SOL     OW 2137   2.755   0.232   0.771  0.2268  0.0739 -0.3357
  713SOL    HW1 2138   2.820   0.303   0.809 -1.1961  0.6845  0.3718
  713SOL    HW2 2139   2.737   0.242   0.670  4.0012 -2.5506 -1.2181
  714SOL     OW 2140   2.016   1.648   3.183 -0.4991 -0.1379  0.3833
  714SOL    HW1 2141   2.014   1.750   3.188  2.9053 -1.8041 -1.6148
  714SOL    HW2 2142   2.074   1.619   3.103 -1.3506 -2.8543 -1.7929
  715SOL     OW 2143   0.066   0.705   1.094 -0.0774  0.1830 -0.0779
  715SOL    HW1 2144   0.056   0.666   1.190  1.0881  3.3976 -0.7368
  715SOL    HW2 2145   0.051   0.807   1.095 -0.4153 -0.5127  1.1588
  716SOL     OW 2146   0.926   0.827   1.882  0.2311  0.0478 -0.0516
  716SOL    HW1 2147   0.839   0.793   1.839  0.2327 -1.2415  0.7531
  716SOL    HW2 2148   0.946   0.775   1.968  0.8341 -2.2766  0.1911
  717SOL     OW 2149   1.625   0.944   2.628 -0.1839  0.2031  0.2314
  717SOL    HW1 2150   1.681   0.995   2.697  2.4098  2.3003  0.4060
  717SOL    HW2 2151   1.538   0.995   2.609  1.2436 -0.1067 -0.4221
  718SOL     OW 2152   1.455   0.029   0.616  0.0234  0.5572  0.0797
  718SOL    HW1 2153   1.488   0.120   0.652  1.3234  2.4147  4.0899
  718SOL    HW2 2154   1.454   0.042   0.514  0.3547 -2.5103  0.4203
  719SOL     OW 2155   3.511   3.238   3.220 -0.5421  0.1992 -0.6636
  719SOL    HW1 2156   3.418   3.198   3.212  0.2579 -0.1579 -0.3162
  719SOL    HW2 2157   3.581   3.168   3.248 -0.5336 -1.0216  1.1366
  720SOL     OW 2158   1.730   0.451   2.168  0.4513  0.4221 -0.1266
  720SOL    HW1 2159   1.672   0.437   2.252 -3.0613  0.5864  1.4238
  720SOL    HW2 2160   1.828   0.432   2.193 -1.5232 -4.4664 -1.0843
  721SOL     OW 2161   0.127   3.301   1.277 -0.2952  0.5135 -1.0651
  721SOL    HW1 2162   0.100   3.398   1.253 -0.6199  0.9164  0.4764
  721SOL    HW2 2163   0.046   3.238   1.260 -0.3475  0.8778 -0.1668
  722SOL     OW 2164   1.023   1.214   3.263 -0.4299 -0.2882  0.3584
  722SOL    HW1 2165   0.982   1.281   3.197 -3.6993 -2.7626  0.9947
  722SOL    HW2 2166   1.050   1.262   3.350  0.1879  0.0109  2.4248
  723SOL     OW 2167   2.399   1.449   1.537 -0.0130 -0.0390  0.3054
  723SOL    HW1 2168   2.459   1.482   1.459  0.9486 -0.2664  2.2127
  723SOL    HW2 2169   2.370   1.524   1.602 -0.6398 -0.3135 -0.4758
  724SOL     OW 2170   1.068   2.208   0.406  0.6024  0.0828 -0.3604
  724SOL    HW1 2171   1.126   2.132   0.448  1.8414 -0.3521 -1.6809
  724SOL    HW2 2172   1.051   2.192   0.305 -1.6224 -0.6365 -2.3220
  725SOL     OW 2173   0.021   0.908   1.832 -0.0454  0.0916 -0.2287
  725SOL    HW1 2174   0.010   0.955   1.741 -0.6745  0.3022  0.8242
  725SOL    HW2 2175  -0.046   0.949   1.900 -1.7685 -2.2095 -0.4289
  726SOL     OW 2176   2.811   1.219   0.072 -0.0710  0.3034 -0.5189
  726SOL    HW1 2177   2.715   1.208   0.038 -0.5032 -0.0002  1.8010
  726SOL    HW2 2178   2.857   1.128   0.073  1.8523  0.6893  1.9843
  727SOL     OW 2179   2.585   1.006   2.968  0.4123  0.2076  0.6603
  727SOL    HW1 2180   2.588   1.109   2.986 -0.1294  0.9627 -0.0567
  727SOL    HW2 2181   2.549   0.980   2.874 -0.5534 -1.4880  1.9751
  728SOL     OW 2182   2.117   2.245   1.726 -0.1301 -0.2245  0.3212
  728SOL    HW1 2183   2.219   2.226   1.720 -0.7137 -2.2267  0.2627
  728SOL    HW2 2184   2.089   2.301   1.644  0.9683  1.4282 -0.4154
  729SOL     OW 2185   2.158   1.262   2.383  0.7435 -0.4608 -0.3435
  729SOL    HW1 2186   2.096   1.344   2.401 -0.0055  0.1492 -2.3339
  729SOL    HW2 2187   2.255   1.292   2.382  0.0547  0.5040 -0.0768
  730SOL     OW 2188   1.635   0.786   1.312  0.0169  0.1800  0.3626
  730SOL    HW1 2189   1.616   0.686   1.328  1.6331 -0.4194 -0.4514
  730SOL    HW2 2190   1.699   0.793   1.232  1.2696  2.3671  0.6274
  731SOL     OW 2191   0.612   0.895   3.583 -0.8025  0.5303  0.0892
  731SOL    HW1 2192   0.641   0.857   3.493 -1.5861 -2.6963 -0.5844
  731SOL    HW2 2193   0.617   0.828   3.660  0.9663  1.9415 -1.6048
  732SOL     OW 2194   0.445   1.134   0.438 -0.1593  0.3251  0.1263
  732SOL    HW1 2195   0.530   1.192   0.425 -0.0661 -1.7600  0.9879
  732SOL    HW2 2196   0.402   1.152   0.530  0.3565  0.0019  1.5256
  733SOL     OW 2197   1.573   1.919   2.603  0.2683 -0.2153 -0.1426
  733SOL    HW1 2198   1.503   1.993   2.587 -0.5650  0.7532 -2.4360
  733SOL    HW2 2199   1.606   1.874   2.514 -0.9363 -1.6653  1.8175
  734SOL     OW 2200   0.484   2.762   3.521  0.0861  0.2150 -0.1604
  734SOL    HW1 2201   0.532   2.837   3.573 -0.0371 -0.3823 -1.0740
  734SOL    HW2 2202   0.435   2.691   3.577  1.5852 -0.2057  0.6631
  735SOL     OW 2203   3.216   0.148   1.189 -0.1815  0.3579 -0.0510
  735SOL    HW1 2204   3.248   0.140   1.286 -0.5552  2.3966  1.5837
  735SOL    HW2 2205   3.226   0.242   1.148 -0.9871 -1.1177 -0.4531
  736SOL     OW 2206   2.314   1.738   2.796 -0.2172 -0.3501  0.2956
  736SOL    HW1 2207   2.408   1.710   2.762 -1.8140 -1.0309 -2.2024
  736SOL    HW2 2208   2.325   1.804   2.874 -0.3121  2.2212 -1.3807
  737SOL     OW 2209   0.063   0.939   0.482  0.6632 -0.3560  0.0220
  737SOL    HW1 2210   0.052   1.006   0.406  0.8267 -1.1111  0.3690
  737SOL    HW2 2211   0.068   0.843   0.444 -0.6364 -1.8376 -2.1641
  738SOL     OW 2212   1.060   2.374   1.499 -0.3941  0.3971  0.4355
  738SOL    HW1 2213   1.023   2.289   1.454 -2.3260 -1.2029 -0.7772
  738SOL    HW2 2214   0.983   2.440   1.518  0.3226  0.6368  2.5145
  739SOL     OW 2215   2.138   3.028   2.778 -0.1413  0.6390  0.4924
  739SOL    HW1 2216   2.166   3.048   2.875  0.8558 -0.4400  0.5151
  739SOL    HW2 2217   2.114   3.114   2.728  0.8118  0.1298  2.9977
  740SOL     OW 2218   2.715   2.748   1.255  0.2027 -0.1594  0.2122
  740SOL    HW1 2219   2.719   2.699   1.346 -1.6130 -2.3157 -0.0277
  740SOL    HW2 2220   2.754   2.843   1.266  2.2411 -1.5408 -2.4298
  741SOL     OW 2221   2.736   0.740   0.131 -0.0713 -0.4071 -0.4207
  741SOL    HW1 2222   2.732   0.663   0.062 -0.4085 -1.2866 -2.3971
  741SOL    HW2 2223   2.762   0.698   0.223 -2.6583 -0.7398 -1.7811
  742SOL     OW 2224   1.311   2.824   0.117 -0.5606  0.2008  0.1769
  742SOL    HW1 2225   1.234   2.818   0.049 -0.6950 -2.1952  0.2571
  742SOL    HW2 2226   1.341   2.922   0.129 -1.3193  1.0949  1.7744
  743SOL     OW 2227   3.047   1.638   2.447  0.2282  0.2311  0.2387
  743SOL    HW1 2228   2.996   1.655   2.358 -0.5400 -1.2693 -1.8910
  743SOL    HW2 2229   3.030   1.545   2.484 -0.3527 -2.7660 -3.1609
  744SOL     OW 2230   3.475   0.194   0.470 -0.2491  0.0794 -0.2005
  744SOL    HW1 2231   3.397   0.213   0.532 -5.1171 -1.0751 -0.3159
  744SOL    HW2 2232   3.449   0.125   0.398 -1.1576  0.8334 -3.0519
  745SOL     OW 2233   3.055   2.104   1.534 -0.2573  0.0795 -0.5570
  745SOL    HW1 2234   3.090   2.006   1.521 -1.1045  1.3860  0.1109
  745SOL    HW2 2235   2.980   2.116   1.463  1.2027  0.9818 -0.4034
  746SOL     OW 2236   1.277   1.940   0.513  0.4806 -0.1304 -0.4557
  746SOL    HW1 2237   1.252   1.924   0.612  0.6786 -0.4673 -0.5795
  746SOL    HW2 2238   1.256   1.861   0.451  1.5032  1.1108  1.5213
  747SOL     OW 2239   1.378   1.824   1.831 -0.1505 -0.1470  0.1779
  747SOL    HW1 2240   1.398   1.874   1.742  1.4182 -0.0305  2.6290
  747SOL    HW2 2241   1.303   1.754   1.819  0.0472 -2.5588  0.8320
  748SOL     OW 2242   0.322   3.399   3.469 -0.5652  0.9997  0.1991
  748SOL    HW1 2243   0.264   3.339   3.531 -1.3411 -0.3870 -0.9083
  748SOL    HW2 2244   0.316   3.499   3.493 -0.8257 -0.3100 -0.8743
  749SOL     OW 2245   0.298   1.243   3.334 -0.3467  0.0276  0.5241
  749SOL    HW1 2246   0.313   1.170   3.407 -1.6664 -0.5888 -1.8531
  749SOL    HW2 2247   0.335   1.215   3.242  1.8696  1.1185  3.2038
  750SOL     OW 2248   1.894   1.165   1.934  0.1030  0.5608  0.0304
  750SOL    HW1 2249   1.817   1.192   1.873 -1.7513 -1.0036  0.7703
  750SOL    HW2 2250   1.956   1.246   1.940  1.8662 -0.7254  0.5100
  751SOL     OW 2251   3.404   1.054   0.727 -0.3278 -0.5348  0.0147
  751SOL    HW1 2252   3.474   1.002   0.670  1.0199  4.3594 -2.2458
  751SOL    HW2 2253   3.417   1.155   0.714 -1.8625 -1.6700 -0.5426
  752SOL     OW 2254   3.336   3.290   1.074 -0.5085 -0.5479 -0.2205
  752SOL    HW1 2255   3.353   3.392   1.082  0.3236  0.0809 -2.5347
  752SOL    HW2 2256   3.389   3.236   1.144 -1.0061  2.2653  1.6963
  753SOL     OW 2257   0.816   2.993   1.490  0.3362 -0.5554  0.6188
  753SOL    HW1 2258   0.850   2.926   1.562 -2.1537 -2.2551  1.0473
  753SOL    HW2 2259   0.835   2.961   1.392  2.2503  0.9389  1.8985
  754SOL     OW 2260   3.472   3.172   2.254  0.1131  0.2301  0.0436
  754SOL    HW1 2261   3.438   3.252   2.308 -0.1896  0.3766  3.2687
  754SOL    HW2 2262   3.436   3.085   2.296 -2.8094 -1.7938  0.0257
  755SOL     OW 2263   2.915   0.958   0.025  0.1760 -0.2186  0.4466
  755SOL    HW1 2264   2.999   0.915  -0.014  0.0090  1.7368  0.3733
  755SOL    HW2 2265   2.855   0.883   0.063 -2.8789  4.0492  0.6530
  756SOL     OW 2266   2.143   2.517   0.266  0.2777  0.3602  0.4115
  756SOL    HW1 2267   2.143   2.535   0.164  1.7302  0.3477  1.3806
  756SOL    HW2 2268   2.220   2.457   0.300 -0.9590 -0.9452 -1.6399
  757SOL     OW 2269   3.099   0.642   0.597 -0.0047 -0.3533 -0.1691
  757SOL    HW1 2270   3.071   0.738   0.567  0.9831 -1.6882 -1.7505
  757SOL    HW2 2271   3.202   0.642   0.605  1.7705  0.9323 -2.2068
  758SOL     OW 2272   2.529   1.108   2.248  0.3949  0.9099  0.4499
  758SOL    HW1 2273   2.443   1.057   2.218 -0.5155 -1.0586  0.5410
  758SOL    HW2 2274   2.503   1.200   2.285 -0.7129 -1.0030  0.4367
  759SOL     OW 2275   3.137   0.581   1.562 -0.6594 -0.4743 -0.1549
  759SOL    HW1 2276   3.061   0.639   1.525  2.9144  0.4556 -0.3781
  759SOL    HW2 2277   3.213   0.566   1.495  3.3835 -1.6340 -0.7769
  760SOL     OW 2278   0.664   1.716   1.688 -0.2576  0.2610  0.6208
  760SOL    HW1 2279   0.573   1.759   1.664 -0.5508  2.0931  0.5062
  760SOL    HW2 2280   0.656   1.616   1.712 -0.0584 -1.6206 -1.3440
  761SOL     OW 2281   0.938   0.738   0.110  0.3007 -0.0972  0.3075
  761SOL    HW1 2282   0.839   0.717   0.130 -0.7947  1.8655 -3.7037
  761SOL    HW2 2283   0.962   0.834   0.140  2.4737  2.1319  0.2495
  762SOL     OW 2284   0.836   2.101   1.365 -0.0644  0.9421 -0.0198
  762SOL    HW1 2285   0.885   2.016   1.336  0.4113  0.3472 -0.7502
  762SOL    HW2 2286   0.809   2.098   1.465  0.4461  2.8077 -2.4854
  763SOL     OW 2287   1.489   0.826   2.191 -0.0061  0.8951 -0.0779
  763SOL    HW1 2288   1.517   0.757   2.119 -0.5344  0.2584 -0.4856
  763SOL    HW2 2289   1.563   0.840   2.262 -0.1206  0.7664 -1.2966
  764SOL     OW 2290   3.518   3.531   3.452 -0.4110 -0.2665  0.5447
  764SOL    HW1 2291   3.565   3.524   3.543 -1.7495  0.8420 -3.3338
  764SOL    HW2 2292   3.538   3.445   3.397 -0.3614 -1.6045 -0.4444
  765SOL     OW 2293   0.838   0.047   2.187 -0.3968 -0.3273  0.3344
  765SOL    HW1 2294   0.755   0.095   2.223 -1.7800 -0.1166  0.9705
  765SOL    HW2 2295   0.883   0.102   2.111 -1.2274  0.1371 -0.9837
  766SOL     OW 2296   3.215   2.226   2.658  0.6226  0.4791  0.1000
  766SOL    HW1 2297   3.128   2.184   2.696 -0.6747  0.9501 -2.3088
  766SOL    HW2 2298   3.303   2.203   2.707  0.7804 -0.0963  0.3616
  767SOL     OW 2299   1.603   1.462   2.787  0.0922  0.4316  0.5117
  767SOL    HW1 2300   1.599   1.359   2.804 -1.3356 -0.1021  1.8033
  767SOL    HW2 2301   1.516   1.497   2.743  0.8049  0.4491 -0.7899
  768SOL     OW 2302   1.745   2.068   0.164 -0.4592 -0.2230  0.0387
  768SOL    HW1 2303   1.643   2.064   0.182 -0.3326 -0.1077  0.4972
  768SOL    HW2 2304   1.794   2.069   0.255 -1.9673 -1.2578 -0.9677
  769SOL     OW 2305   0.470   1.818   1.054  0.0846  0.4034  0.0821
  769SOL    HW1 2306   0.411   1.854   0.978 -2.5929 -1.1795 -1.6481
  769SOL    HW2 2307   0.570   1.826   1.026 -1.6546 -1.2012  1.7930
  770SOL     OW 2308   1.947   0.739   2.937  0.6297 -0.0531  0.1437
  770SOL    HW1 2309   2.008   0.823   2.927  1.8643  1.6125  2.5631
  770SOL    HW2 2310   1.852   0.765   2.969  0.6794  0.2174  0.3524
  771SOL     OW 2311   2.968   0.106   2.818 -0.7175  0.0892  0.6217
  771SOL    HW1 2312   2.919   0.149   2.737 -0.8096 -0.2775  1.1328
  771SOL    HW2 2313   2.904   0.084   2.897 -1.2861  2.4132 -1.5980
  772SOL     OW 2314   2.925   1.973   2.506  0.1683  0.1833  0.2715
  772SOL    HW1 2315   2.824   1.957   2.501  1.3819 -0.8517  3.9610
  772SOL    HW2 2316   2.980   1.888   2.483  0.0593 -3.1218  0.4622
  773SOL     OW 2317   1.156   1.664   1.767  0.8058  0.2567  0.6074
  773SOL    HW1 2318   1.167   1.597   1.690 -0.7420  1.4156 -2.0698
  773SOL    HW2 2319   1.072   1.721   1.754  0.8228 -0.8755 -1.2690
  774SOL     OW 2320   1.330   0.744   3.357 -0.0697 -0.1198 -0.2762
  774SOL    HW1 2321   1.318   0.650   3.315  1.9703 -1.2521  0.2211
  774SOL    HW2 2322   1.246   0.801   3.343 -2.3238 -1.7382  1.4985
  775SOL     OW 2323   1.672   2.575   0.403  0.4741  0.1221 -0.4452
  775SOL    HW1 2324   1.706   2.667   0.432 -0.3139  0.4661  0.4083
  775SOL    HW2 2325   1.658   2.582   0.301  3.3202 -1.4210 -2.5617
  776SOL     OW 2326   3.525   1.290   1.927 -0.1151  0.2975  0.3436
  776SOL    HW1 2327   3.625   1.299   1.949  0.3310  0.3712 -0.6056
  776SOL    HW2 2328   3.482   1.208   1.970  0.6134  2.0903  1.5358
  777SOL     OW 2329   2.875   2.718   2.657  0.2412  0.0824  0.1912
  777SOL    HW1 2330   2.916   2.809   2.682 -1.1310  2.1052 -0.8514
  777SOL    HW2 2331   2.947   2.644   2.653 -0.1721 -1.1083 -0.8637
  778SOL     OW 2332   1.976   1.516   2.439 -0.2231 -0.3231  0.2017
  778SOL    HW1 2333   1.914   1.527   2.356  0.3458 -1.4649  0.4993
  778SOL    HW2 2334   2.012   1.605   2.475  0.6473 -1.7181  0.3303
  779SOL     OW 2335   3.448   1.330   0.636  0.4709 -0.2390 -0.6782
  779SOL    HW1 2336   3.407   1.422   0.655  0.3123 -1.5877  1.1952
  779SOL    HW2 2337   3.426   1.299   0.539  0.0617  1.4025 -0.8667
  780SOL     OW 2338   2.454   3.465   3.255 -0.7542 -0.2510  0.1024
  780SOL    HW1 2339   2.373   3.504   3.205  0.3113  1.0650 -0.3712
  780SOL    HW2 2340   2.447   3.478   3.356 -0.1531  1.8099  0.1930
  781SOL     OW 2341   3.186   1.838   1.439 -0.1777 -0.0552 -0.1940
  781SOL    HW1 2342   3.253   1.863   1.365  0.2105 -0.6333 -2.5373
  781SOL    HW2 2343   3.239   1.803   1.521  0.4133 -2.7707  0.9702
  782SOL     OW 2344   3.427   2.675   3.346 -0.3385  0.0578  0.4307
  782SOL    HW1 2345   3.383   2.703   3.435  0.9674  0.1424  1.7011
  782SOL    HW2 2346   3.358   2.665   3.270 -0.3001  1.2007 -1.0324
  783SOL     OW 2347   0.807   1.821   0.935 -0.0792  0.3250 -0.3061
  783SOL    HW1 2348   0.800   1.720   0.914  2.3155  1.8353  0.9637
  783SOL    HW2 2349   0.811   1.879   0.851  2.5603  0.1240  2.2638
  784SOL     OW 2350   2.688   1.608   0.528 -0.5201  0.2143 -0.1790
  784SOL    HW1 2351   2.713   1.519   0.481  0.3979 -1.2969  2.1886
  784SOL    HW2 2352   2.642   1.670   0.458  0.2064  1.4339 -3.1609
  785SOL     OW 2353   2.299   3.234   0.506  0.2250 -0.6130  0.1062
  785SOL    HW1 2354   2.243   3.274   0.430  0.9095 -1.4258  0.2586
  785SOL    HW2 2355   2.237   3.185   0.573  0.3612 -2.0857 -1.6306
  786SOL     OW 2356   0.810   2.344   3.007  0.2767  0.0344  0.2503
  786SOL    HW1 2357   0.767   2.267   2.953  0.3401  0.6111  0.5356
  786SOL    HW2 2358   0.782   2.334   3.106 -2.1201  0.9841  0.9273
  787SOL     OW 2359   1.568   0.465   1.356 -0.0145 -0.3292  0.3752
  787SOL    HW1 2360   1.660   0.420   1.358 -0.4555 -0.3360  0.3987
  787SOL    HW2 2361   1.503   0.409   1.412 -0.8224 -1.1205 -2.6598
  788SOL     OW 2362   0.769   1.170   0.096  0.3173 -0.6295  0.3527
  788SOL    HW1 2363   0.720   1.093   0.046  0.9463 -1.9319  0.7141
  788SOL    HW2 2364   0.745   1.262   0.056 -1.6584 -4.2147 -1.0185
  789SOL     OW 2365   3.329   2.232   1.522  0.6416  0.5845  0.4020
  789SOL    HW1 2366   3.243   2.185   1.554  0.1210  1.6779 -1.5716
  789SOL    HW2 2367   3.318   2.274   1.428  0.3678 -1.2727 -0.8723
  790SOL     OW 2368   1.676   0.156   2.582 -0.5900 -0.8892  0.3035
  790SOL    HW1 2369   1.601   0.119   2.644 -0.7780  0.5972 -0.5406
  790SOL    HW2 2370   1.637   0.236   2.530  0.0011 -0.9938 -0.1230
  791SOL     OW 2371   1.174   0.630   0.239 -0.6693  0.4891 -0.2170
  791SOL    HW1 2372   1.211   0.545   0.192 -0.4631  0.3514 -3.4750
  791SOL    HW2 2373   1.090   0.665   0.192  1.3169 -2.0635 -1.7352
  792SOL     OW 2374   1.526   0.349   1.943  0.0672 -0.0998 -0.1577
  792SOL    HW1 2375   1.532   0.449   1.915  1.6599 -1.3444 -1.5368
  792SOL    HW2 2376   1.591   0.330   2.023 -1.0481  1.6617  1.4264
  793SOL     OW 2377   1.151   3.480   0.973 -0.1464 -0.7325 -0.8012
  793SOL    HW1 2378   1.109   3.575   0.977  3.6835 -1.9392  1.0097
  793SOL    HW2 2379   1.216   3.466   1.052 -0.9210  1.4043 -1.6128
  794SOL     OW 2380   0.768   1.526   2.179  0.2548 -0.0944  1.0032
  794SOL    HW1 2381   0.721   1.435   2.169 -1.4796 -1.5567 -0.0840
  794SOL    HW2 2382   0.827   1.531   2.265 -1.6336 -0.7912 -0.0285
  795SOL     OW 2383   0.166   1.656   2.586 -0.3590 -0.1573 -0.4431
  795SOL    HW1 2384   0.079   1.687   2.540 -1.4534 -0.6800  1.9735
  795SOL    HW2 2385   0.191   1.720   2.663  0.8214  0.8030  0.7561
  796SOL     OW 2386   2.200   1.933   2.063  0.3469  0.3926  0.5404
  796SOL    HW1 2387   2.269   2.009   2.076 -1.3127 -3.4316 -1.5806
  796SOL    HW2 2388   2.127   1.931   2.136  1.5161 -1.0279 -1.9666
  797SOL     OW 2389   0.043   0.322   3.049  0.1147  0.3875 -0.3230
  797SOL    HW1 2390   0.068   0.244   2.987  0.1728  0.6840  0.4392
  797SOL    HW2 2391   0.017   0.289   3.141  2.2223 -2.8518 -1.1172
  798SOL     OW 2392   3.610   2.715   2.310 -0.1444 -0.1299  0.7033
  798SOL    HW1 2393   3.584   2.733   2.209 -1.6533 -1.6856 -1.7897
  798SOL    HW2 2394   3.603   2.613   2.332 -1.7567 -2.2328 -0.7229
  799SOL     OW 2395   3.261   2.736   3.599  0.6463  0.7962 -0.0562
  799SOL    HW1 2396   3.322   2.794   3.659  2.9559 -0.8732 -0.4730
  799SOL    HW2 2397   3.163   2.767   3.615  3.0626 -1.1963 -0.4421
  800SOL     OW 2398   1.235   1.895   0.826  0.3458 -0.4712  0.3507
  800SOL    HW1 2399   1.189   1.983   0.854 -1.7210  0.6703  1.1114
  800SOL    HW2 2400   1.327   1.882   0.871 -2.1883  0.5250  0.6609
  801SOL     OW 2401   3.296   0.809   0.862  0.0895 -0.1701 -0.1212
  801SOL    HW1 2402   3.336   0.896   0.825 -0.2118  0.3462  0.0542
  801SOL    HW2 2403   3.213   0.822   0.922 -0.7382 -0.8271  0.1991
  802SOL     OW 2404   3.093   1.853   0.531 -0.1673  0.5299  0.6534
  802SOL    HW1 2405   3.109   1.949   0.499 -0.3920  0.7339 -1.1047
  802SOL    HW2 2406   2.993   1.841   0.553 -1.0297 -3.5653  2.0034
  803SOL     OW 2407   2.004   2.257   3.398  0.1274  0.2432 -0.1266
  803SOL    HW1 2408   1.976   2.275   3.300  0.2430 -1.2659  3.5905
  803SOL    HW2 2409   2.095   2.303   3.413  0.3676  1.1839 -0.1710
  804SOL     OW 2410   2.374   2.301   0.345  0.1100 -0.3146  0.4536
  804SOL    HW1 2411   2.371   2.239   0.429 -1.6303 -0.0102 -0.9579
  804SOL    HW2 2412   2.407   2.247   0.262 -0.6742 -2.3436 -0.2476
  805SOL     OW 2413   3.420   1.924   3.010 -0.1984 -0.5196 -0.1534
  805SOL    HW1 2414   3.365   1.963   3.087 -3.5457  0.4661 -0.6095
  805SOL    HW2 2415   3.428   1.990   2.932 -0.8357  0.0444 -1.5522
  806SOL     OW 2416   0.377   0.326   0.473 -0.3346 -0.0226 -0.1972
  806SOL    HW1 2417   0.378   0.381   0.561 -1.6749  0.3737  0.0240
  806SOL    HW2 2418   0.298   0.260   0.468  0.6715  2.0396 -1.7088
  807SOL     OW 2419   2.882   1.567   2.957  0.4251 -0.3756  0.6501
  807SOL    HW1 2420   2.813   1.506   3.006 -3.2169  0.5661  1.9117
  807SOL    HW2 2421   2.960   1.513   2.918  0.0052 -0.9911  2.0357
  808SOL     OW 2422   0.159   1.707   0.604  0.3614  0.3448 -0.2035
  808SOL    HW1 2423   0.141   1.619   0.656 -1.5954 -1.1077  1.0940
  808SOL    HW2 2424   0.189   1.786   0.662  1.3975 -2.4818 -0.3551
  809SOL     OW 2425   2.992   0.643   3.343  0.1928 -0.6376 -0.0816
  809SOL    HW1 2426   3.046   0.703   3.407 -3.0743 -0.8357 -1.4207
  809SOL    HW2 2427   2.891   0.663   3.346  1.2613  0.5324 -1.8886
  810SOL     OW 2428   1.077   0.853   0.441  0.1806 -0.3656 -0.2423
  810SOL    HW1 2429   1.121   0.767   0.403 -1.3696  1.3853 -1.9365
  810SOL    HW2 2430   1.036   0.912   0.367 -1.4072  2.1319  0.0760
  811SOL     OW 2431   1.833   3.001   0.935 -1.0366 -0.7251  0.5238
  811SOL    HW1 2432   1.744   3.052   0.938  0.9808 -0.5577  0.4372
  811SOL    HW2 2433   1.822   2.912   0.882  2.1862 -2.9232 -0.9094
  812SOL     OW 2434   0.911   3.121   1.948 -0.3774  0.4122  0.1204
  812SOL    HW1 2435   0.880   3.023   1.954 -0.5035  1.2593  0.8304
  812SOL    HW2 2436   0.960   3.148   2.035  0.7190 -1.6181  1.7689
  813SOL     OW 2437   1.267   0.342   2.305  0.3589  0.7930 -0.3268
  813SOL    HW1 2438   1.248   0.246   2.333 -2.2512 -2.6325 -0.2130
  813SOL    HW2 2439   1.204   0.409   2.354 -0.7711 -2.0875 -2.5885
  814SOL     OW 2440   1.564   3.585   3.247 -0.5167 -0.0298  0.0430
  814SOL    HW1 2441   1.506   3.634   3.317  2.1350  1.5438  2.1066
  814SOL    HW2 2442   1.535   3.487   3.230  0.6074  1.3297 -1.3578
  815SOL     OW 2443   0.728   0.715   2.304 -0.0768 -0.4312  0.2469
  815SOL    HW1 2444   0.665   0.762   2.238 -1.6749 -0.7805 -1.6522
  815SOL    HW2 2445   0.747   0.779   2.381  0.8300  0.7572 -1.1438
  816SOL     OW 2446   2.687   0.509   3.598 -0.3079  0.4191  0.0819
  816SOL    HW1 2447   2.615   0.480   3.666 -1.1446  1.6567  0.9221
  816SOL    HW2 2448   2.749   0.432   3.570  0.9776  0.6541 -1.1320
  817SOL     OW 2449   2.104   0.211   3.306 -1.1112  0.0985 -0.3503
  817SOL    HW1 2450   2.090   0.309   3.280 -1.2970  1.8344 -0.4926
  817SOL    HW2 2451   2.020   0.162   3.337  0.0856 -1.3093 -0.8304
  818SOL     OW 2452   2.477   0.461   0.186  0.1231 -0.1219 -0.0122
  818SOL    HW1 2453   2.493   0.361   0.210  4.4142  0.5464  0.1704
  818SOL    HW2 2454   2.446   0.512   0.271  0.4203 -0.6686  0.2740
  819SOL     OW 2455   2.782   1.818   0.152  0.1958 -0.0090  0.4429
  819SOL    HW1 2456   2.841   1.899   0.174  0.1527  1.5989  2.1031
  819SOL    HW2 2457   2.839   1.734   0.136 -0.1675  0.1907 -3.2244
  820SOL     OW 2458   3.450   2.375   0.050  0.0053  0.3995 -0.0808
  820SOL    HW1 2459   3.395   2.462   0.034 -0.9777  1.7147 -0.6561
  820SOL    HW2 2460   3.390   2.293   0.030 -0.5403  0.6270  0.4746
  821SOL     OW 2461   0.455   3.090   1.802 -0.6294 -0.5900 -0.4022
  821SOL    HW1 2462   0.361   3.124   1.823 -1.5753 -1.1071  0.7692
  821SOL    HW2 2463   0.456   3.065   1.702 -0.4025 -3.5653 -3.7731
  822SOL     OW 2464   3.219   3.117   2.830 -0.1759  0.9245  0.1562
  822SOL    HW1 2465   3.212   3.218   2.820  1.5580 -1.0604 -1.6630
  822SOL    HW2 2466   3.140   3.067   2.785  1.5737 -2.2321 -0.4254
  823SOL     OW 2467   1.856   3.513   2.787  1.1468 -0.2183 -0.1674
  823SOL    HW1 2468   1.883   3.581   2.715 -3.1586  0.1460  2.3138
  823SOL    HW2 2469   1.801   3.567   2.855  1.8706  0.8285 -0.0060
  824SOL     OW 2470   2.862   2.052   1.271  0.4231  0.4628  0.0266
  824SOL    HW1 2471   2.909   2.080   1.184 -1.0980 -0.1499 -0.4768
  824SOL    HW2 2472   2.861   1.949   1.283  1.9543  1.3041 -0.5813
  825SOL     OW 2473   3.318   2.275   3.049 -0.2195 -0.4020 -0.3921
  825SOL    HW1 2474   3.269   2.350   2.995  0.5927  2.7062  1.8879
  825SOL    HW2 2475   3.420   2.297   3.035  0.6340  1.4487  0.5968
  826SOL     OW 2476   3.353   1.612   2.590  0.1717  0.1290  0.1197
  826SOL    HW1 2477   3.258   1.626   2.553 -0.3334  4.2042  1.4505
  826SOL    HW2 2478   3.359   1.625   2.692  2.2770  0.9961 -0.7499
  827SOL     OW 2479   2.934   3.044   2.047  0.4139 -0.1577  0.0358
  827SOL    HW1 2480   2.960   2.951   2.005 -0.6380 -2.2836  1.4012
  827SOL    HW2 2481   2.832   3.051   2.064 -0.5920  0.1470 -0.9753
  828SOL     OW 2482   3.466   3.505   1.868  0.4817 -0.7394  0.6780
  828SOL    HW1 2483   3.425   3.489   1.775  2.4992  0.5088 -0.8406
  828SOL    HW2 2484   3.543   3.573   1.858 -1.4313  2.0818 -0.8019
  829SOL     OW 2485   2.326   2.242   2.724 -0.2541 -0.6433 -0.4657
  829SOL    HW1 2486   2.230   2.259   2.692  0.0890 -0.1616  0.8925
  829SOL    HW2 2487   2.333   2.247   2.827  1.0635  1.9763  0.7791
  830SOL     OW 2488   1.832   0.775   1.053  0.3135  0.3469 -0.0894
  830SOL    HW1 2489   1.888   0.688   1.043 -2.3605  0.2447  1.9827
  830SOL    HW2 2490   1.895   0.857   1.070  0.3303  0.5918 -1.9569
  831SOL     OW 2491   3.467   1.773   0.924  0.4169  0.2506 -0.3268
  831SOL    HW1 2492   3.523   1.694   0.960 -0.9375  0.9415  0.3041
  831SOL    HW2 2493   3.423   1.745   0.834 -2.4667  2.7332 -3.7185
  832SOL     OW 2494   1.793   2.728   2.204 -0.4765  0.0830  0.1987
  832SOL    HW1 2495   1.760   2.825   2.196 -3.4649 -0.1043  0.3061
  832SOL    HW2 2496   1.892   2.724   2.175  0.2549  1.8270 -0.3672
  833SOL     OW 2497   3.603   3.514   2.692 -0.0795 -0.3634  0.4013
  833SOL    HW1 2498   3.520   3.508   2.630 -1.1662  3.5467 -0.9350
  833SOL    HW2 2499   3.589   3.474   2.786  2.7079  1.9235  2.3262
  834SOL     OW 2500   1.281   1.221   1.512  0.3625 -0.1564 -0.4777
  834SOL    HW1 2501   1.307   1.182   1.604  0.1372  4.7978  1.5484
  834SOL    HW2 2502   1.354   1.194   1.442  1.2906 -0.9469  1.1907
  835SOL     OW 2503   0.014   0.887   3.293 -0.7476 -0.0012 -0.0007
  835SOL    HW1 2504  -0.089   0.893   3.279 -0.3134  2.0807  0.7539
  835SOL    HW2 2505   0.039   0.892   3.393 -2.6052  0.3110  2.2763
  836SOL     OW 2506   1.221   2.782   1.199  0.9277  0.4652  0.0104
  836SOL    HW1 2507   1.132   2.837   1.196  0.2208 -2.2056  1.0313
  836SOL    HW2 2508   1.283   2.821   1.271 -0.9038 -0.6856 -1.0165
  837SOL     OW 2509   2.521   0.978   1.462 -0.4983  0.1729  0.4269
  837SOL    HW1 2510   2.440   0.970   1.398 -2.3123  0.2860  1.4088
  837SOL    HW2 2511   2.495   1.040   1.541  0.3743 -0.0873  0.6214
  838SOL     OW 2512   1.674   1.988   3.323  0.3956 -0.3910  0.4730
  838SOL    HW1 2513   1.751   1.995   3.392 -3.1460 -2.5379 -0.6634
  838SOL    HW2 2514   1.693   2.058   3.249  0.4834  0.6036  1.1985
  839SOL     OW 2515   0.658   2.710   3.295 -0.0918  0.6142 -0.0448
  839SOL    HW1 2516   0.682   2.610   3.288 -2.2115  3.9153  1.2310
  839SOL    HW2 2517   0.598   2.734   3.375 -1.5995  0.7097  1.7335
  840SOL     OW 2518   0.901   2.880   3.342 -0.4264 -0.2631 -0.0120
  840SOL    HW1 2519   0.817   2.823   3.324 -1.5974  1.3202  0.1587
  840SOL    HW2 2520   0.906   2.961   3.279 -0.5798  1.9220  1.6202
  841SOL     OW 2521   2.234   2.415   3.423 -0.5721 -0.0654 -0.4396
  841SOL    HW1 2522   2.329   2.377   3.437 -4.1064  0.8818  2.1996
  841SOL    HW2 2523   2.214   2.488   3.492  0.6157 -0.2228  0.4927
  842SOL     OW 2524   1.821   1.035   3.299 -0.3645  0.0398 -0.2120
  842SOL    HW1 2525   1.831   1.139   3.293 -2.4056 -0.5363 -1.0233
  842SOL    HW2 2526   1.728   1.000   3.269  0.3431  1.5469  1.3378
  843SOL     OW 2527   1.608   3.493   0.912 -0.2163 -0.0027  0.4327
  843SOL    HW1 2528   1.709   3.512   0.919  0.2584  4.1806  1.2479
  843SOL    HW2 2529   1.571   3.527   0.822 -1.2110  1.2603 -2.5679
  844SOL     OW 2530   2.896   3.388   3.142  0.6280 -0.3598  0.2614
  844SOL    HW1 2531   2.875   3.334   3.227 -0.0323  0.1788  0.5144
  844SOL    HW2 2532   2.994   3.423   3.135 -1.7232 -1.6415 -1.0307
  845SOL     OW 2533   3.376   3.454   1.605 -0.1395  0.0841 -0.0948
  845SOL    HW1 2534   3.376   3.541   1.549 -3.1732  3.7062 -0.8503
  845SOL    HW2 2535   3.283   3.409   1.605 -4.1438 -0.6699 -0.5705
  846SOL     OW 2536   0.250   2.610   2.591  0.0357  0.1755 -0.2120
  846SOL    HW1 2537   0.227   2.700   2.549  0.4191  4.6211 -0.3152
  846SOL    HW2 2538   0.275   2.623   2.690 -1.0593 -0.3711 -2.2668
  847SOL     OW 2539   1.976   0.177   1.697  0.0219 -0.3482  0.1210
  847SOL    HW1 2540   1.882   0.203   1.731  0.2973  1.2167 -0.0770
  847SOL    HW2 2541   2.012   0.099   1.755 -1.6328 -1.6765 -1.3567
  848SOL     OW 2542   3.326   0.706   0.098 -0.3765 -0.0372 -0.4334
  848SOL    HW1 2543   3.426   0.683   0.093  0.9257  0.5331 -0.1914
  848SOL    HW2 2544   3.268   0.623   0.114  2.5186 -2.2261  1.9639
  849SOL     OW 2545   0.612   0.702   0.154  0.2202 -0.3075  0.0830
  849SOL    HW1 2546   0.545   0.740   0.222  0.0457 -0.5974  1.6998
  849SOL    HW2 2547   0.586   0.606   0.125  0.0093 -1.5271  0.8056
  850SOL     OW 2548   0.393   3.183   1.249  0.0243  0.0753  0.3787
  850SOL    HW1 2549   0.296   3.216   1.253 -1.0499  2.0148  2.2426
  850SOL    HW2 2550   0.450   3.256   1.203  0.0083 -0.9589 -1.4078
  851SOL     OW 2551   2.272   0.233   2.842 -0.7439 -0.0403  0.2109
  851SOL    HW1 2552   2.176   0.254   2.863  0.4697  0.2674  1.6933
  851SOL    HW2 2553   2.279   0.182   2.752 -1.3429 -2.0338  0.0030
  852SOL     OW 2554   1.823   1.837   2.740  0.1202  0.0056 -0.0113
  852SOL    HW1 2555   1.796   1.771   2.812 -0.5201 -0.3810 -1.3867
  852SOL    HW2 2556   1.739   1.871   2.688 -3.5488  3.2063  0.0274
  853SOL     OW 2557   0.113   3.452   0.555 -0.3906  0.5464  0.0074
  853SOL    HW1 2558   0.111   3.372   0.488 -1.0737 -4.3774  0.3457
  853SOL    HW2 2559   0.169   3.426   0.637  0.0264 -1.0613  1.8406
  854SOL     OW 2560   2.856   3.612   0.808 -0.2624  1.0048 -0.0735
  854SOL    HW1 2561   2.805   3.701   0.802  1.4885  0.9789  1.4549
  854SOL    HW2 2562   2.814   3.547   0.740 -3.3467  2.3506 -0.3292
  855SOL     OW 2563   1.651   2.520   0.865 -0.2578 -0.0035  0.0278
  855SOL    HW1 2564   1.611   2.465   0.789 -1.1389 -0.6749 -1.7983
  855SOL    HW2 2565   1.578   2.564   0.923  4.3373 -2.5077  1.7174
  856SOL     OW 2566   2.805   0.551   0.437  0.6303  0.3112  0.0317
  856SOL    HW1 2567   2.783   0.450   0.440  0.2887  2.8379  1.4234
  856SOL    HW2 2568   2.903   0.567   0.466 -1.0881 -1.5623 -1.5012
  857SOL     OW 2569   2.179   2.967   2.055 -0.1768 -0.1265 -0.2672
  857SOL    HW1 2570   2.221   3.001   2.143  0.1081  0.3647  2.3686
  857SOL    HW2 2571   2.251   2.932   1.993 -0.5075 -1.3515  0.2050
  858SOL     OW 2572   3.032   2.615   1.615 -0.4562 -0.0035  0.2339
  858SOL    HW1 2573   3.102   2.632   1.543  2.1350  0.0196  0.0462
  858SOL    HW2 2574   2.938   2.597   1.576  1.0677  2.4830  3.6601
  859SOL     OW 2575   1.360   2.993   0.882 -0.0426  0.4196  0.8237
  859SOL    HW1 2576   1.273   3.027   0.929  0.6720  0.3751 -0.8101
  859SOL    HW2 2577   1.438   3.057   0.907 -0.0995 -0.1720 -1.5506
  860SOL     OW 2578   2.587   2.804   0.271 -0.0707 -0.2126  1.0314
  860SOL    HW1 2579   2.607   2.718   0.324 -3.6477  0.5781 -2.2131
  860SOL    HW2 2580   2.589   2.784   0.169  1.2646  0.2220  3.1695
  861SOL     OW 2581   2.470   2.774   1.096 -0.1293  0.0367 -0.2638
  861SOL    HW1 2582   2.492   2.826   1.009  0.8344  0.6903  1.4146
  861SOL    HW2 2583   2.554   2.761   1.154  1.0470 -0.9633 -0.6789
  862SOL     OW 2584   2.080   3.256   3.248  0.7534  0.4891  0.6862
  862SOL    HW1 2585   2.067   3.320   3.169 -0.8271  1.3290  1.1575
  862SOL    HW2 2586   2.087   3.308   3.336  2.6095  1.2593 -2.1911
  863SOL     OW 2587   0.651   0.023   0.354 -0.0055 -0.2207 -0.8892
  863SOL    HW1 2588   0.685  -0.025   0.438  0.6815 -1.0525 -1.4671
  863SOL    HW2 2589   0.684  -0.019   0.266  3.7359 -0.5191 -4.2520
  864SOL     OW 2590   3.071   3.080   2.395  0.3505 -0.2033  0.3824
  864SOL    HW1 2591   3.160   3.029   2.389 -1.7419 -1.1653  0.3182
  864SOL    HW2 2592   3.015   3.066   2.309 -0.8932 -0.2296 -0.6626
  865SOL     OW 2593   0.016   2.429   3.313  0.2747  0.0592 -0.2278
  865SOL    HW1 2594   0.037   2.387   3.404 -1.0159 -0.1360 -1.3846
  865SOL    HW2 2595  -0.052   2.506   3.323  0.6105  2.4717 -0.7655
  866SOL     OW 2596   3.040   0.356   3.295  0.2778 -0.2203 -0.0029
  866SOL    HW1 2597   3.112   0.334   3.225  0.5523 -0.0713 -1.7789
  866SOL    HW2 2598   3.028   0.458   3.303  0.7692  4.0492  0.3103
  867SOL     OW 2599   3.544   3.438   3.029 -0.8731 -0.5164  0.7811
  867SOL    HW1 2600   3.463   3.501   3.035  0.5451 -2.0630  0.3011
  867SOL    HW2 2601   3.528   3.359   3.094 -0.1840  2.4385 -0.2147
  868SOL     OW 2602   0.980   3.222   0.942  0.2283  0.0079 -0.0656
  868SOL    HW1 2603   1.033   3.309   0.959  0.6157  1.3685  3.2815
  868SOL    HW2 2604   0.981   3.198   0.842 -1.5757 -0.6797  1.2630
  869SOL     OW 2605   1.584   1.592   1.440 -0.2874  0.5293  0.1601
  869SOL    HW1 2606   1.542   1.679   1.403 -2.4025 -2.2504 -2.6736
  869SOL    HW2 2607   1.658   1.553   1.383  0.0015  3.1954  0.9817
  870SOL     OW 2608   2.238   2.058   1.341 -0.8516 -0.3776  0.2521
  870SOL    HW1 2609   2.272   1.960   1.345 -1.4665 -0.1363 -2.2602
  870SOL    HW2 2610   2.289   2.125   1.401  1.4893 -1.1837  0.6551
  871SOL     OW 2611   1.212   1.694   1.221  0.2414  0.6578  0.5750
  871SOL    HW1 2612   1.206   1.633   1.137 -1.3967 -2.6021  1.7615
  871SOL    HW2 2613   1.139   1.767   1.218  1.3922 -0.1966  1.1362
  872SOL     OW 2614   1.345   0.625   0.884  0.1615  0.8003 -0.5354
  872SOL    HW1 2615   1.426   0.673   0.844  1.3350 -2.0537  0.5133
  872SOL    HW2 2616   1.349   0.610   0.987 -0.1155 -0.4841  1.4859
  873SOL     OW 2617   2.030   0.542   3.219  0.2937  0.6449 -0.5141
  873SOL    HW1 2618   2.091   0.598   3.282 -0.9877  1.4732 -3.2997
  873SOL    HW2 2619   2.026   0.587   3.126  1.7845  1.3413  0.6400
  874SOL     OW 2620   0.620   1.442   1.350 -0.2312 -0.4324 -0.3345
  874SOL    HW1 2621   0.651   1.525   1.406  0.1692  0.1095 -1.6188
  874SOL    HW2 2622   0.536   1.462   1.291  2.2294  0.2398  3.3954
  875SOL     OW 2623   3.252   3.235   3.563 -0.2574 -0.1176  0.9736
  875SOL    HW1 2624   3.236   3.163   3.491  0.7019 -0.9545  1.3395
  875SOL    HW2 2625   3.243   3.331   3.525  0.6066 -0.0624  0.7200
  876SOL     OW 2626   0.943   0.665   3.440  0.0544 -0.4400  0.1276
  876SOL    HW1 2627   0.945   0.685   3.542 -0.0589 -0.7219  0.3352
  876SOL    HW2 2628   1.003   0.731   3.388 -1.4819 -0.0987  1.5841
  877SOL     OW 2629   3.630   3.279   1.617 -0.2102 -0.1736  0.0470
  877SOL    HW1 2630   3.695   3.317   1.547  0.1906 -0.9956 -2.2367
  877SOL    HW2 2631   3.546   3.339   1.622  0.4456 -2.0781  1.2640
  878SOL     OW 2632   2.322   2.240   3.008 -0.1880 -0.3421  0.4295
  878SOL    HW1 2633   2.253   2.306   3.046  0.0356 -1.9372 -1.0437
  878SOL    HW2 2634   2.412   2.249   3.058 -0.5229  0.2233  1.2677
  879SOL     OW 2635   2.580   2.063   2.155 -0.2288  0.3412  0.1157
  879SOL    HW1 2636   2.603   2.056   2.256 -0.7873  0.3152  0.3417
  879SOL    HW2 2637   2.649   2.016   2.094  1.5359 -0.2888  1.4813
  880SOL     OW 2638   1.115   1.206   1.058 -0.0112  0.2073 -0.1601
  880SOL    HW1 2639   1.198   1.252   1.100  0.3271  0.2518  2.6500
  880SOL    HW2 2640   1.120   1.105   1.075 -0.8016 -0.9840  0.7992
  881SOL     OW 2641   1.483   1.819   0.062 -0.3769  0.2373  0.0905
  881SOL    HW1 2642   1.470   1.911   0.110  0.4884 -0.1487 -1.1603
  881SOL    HW2 2643   1.527   1.755   0.129 -1.4467 -0.6368  0.3521
  882SOL     OW 2644   2.179   3.630   1.331 -0.6056  0.0454  0.4686
  882SOL    HW1 2645   2.190   3.700   1.406 -1.2626 -2.9163 -1.2336
  882SOL    HW2 2646   2.263   3.623   1.272  2.0482 -2.2572 -2.8041
  883SOL     OW 2647   2.255   0.791   2.481 -0.6125  0.6773 -0.3836
  883SOL    HW1 2648   2.164   0.744   2.470  2.4182  2.5927 -0.8897
  883SOL    HW2 2649   2.332   0.723   2.483 -1.3021 -0.1453  0.8692
  884SOL     OW 2650   3.162   0.820   3.526 -0.1427 -0.0355  0.5498
  884SOL    HW1 2651   3.221   0.865   3.453  0.0859 -4.2803 -2.4206
  884SOL    HW2 2652   3.221   0.785   3.603  1.5356 -1.9759  0.1580
  885SOL     OW 2653   1.363   2.700   0.965  0.3013 -0.4027 -0.3922
  885SOL    HW1 2654   1.379   2.793   0.921 -0.8921 -3.6360 -1.8827
  885SOL    HW2 2655   1.317   2.715   1.055 -0.8377 -0.6458 -1.0722
  886SOL     OW 2656   1.525   0.977   3.196 -0.1229  0.3687 -0.6158
  886SOL    HW1 2657   1.459   0.921   3.251 -0.2637 -0.8889 -0.2162
  886SOL    HW2 2658   1.473   1.059   3.162  0.0337  1.1852 -0.3826
  887SOL     OW 2659   2.055   3.608   1.879  0.2022  0.2091  0.4959
  887SOL    HW1 2660   2.123   3.637   1.950 -2.0237  0.1395 -0.6482
  887SOL    HW2 2661   1.979   3.551   1.916 -1.2532  0.6640 -1.0185
  888SOL     OW 2662   3.364   1.989   1.897 -0.4573  0.0009  0.3537
  888SOL    HW1 2663   3.443   1.989   1.964  1.6687  2.4557  0.6043
  888SOL    HW2 2664   3.376   1.914   1.826  1.0243 -1.2315  4.8837
  889SOL     OW 2665   3.559   3.267   0.825  0.8747  0.1404 -0.0608
  889SOL    HW1 2666   3.491   3.246   0.900 -2.5326  2.5606  0.3987
  889SOL    HW2 2667   3.537   3.357   0.779  1.1864  0.6148 -0.1431
  890SOL     OW 2668   0.791   2.286   2.572  0.1676 -0.3355  0.1612
  890SOL    HW1 2669   0.804   2.389   2.565  0.8156 -2.1695  2.3625
  890SOL    HW2 2670   0.730   2.258   2.492 -0.1906  0.9360 -0.6579
  891SOL     OW 2671   0.837   2.031   0.683 -0.1708 -0.6148  0.2488
  891SOL    HW1 2672   0.913   2.081   0.732  2.8005  2.7093 -1.8107
  891SOL    HW2 2673   0.771   2.098   0.637  1.7294 -0.9893  1.7420
  892SOL     OW 2674   3.113   3.047   1.456  0.4675 -0.2609  0.3634
  892SOL    HW1 2675   3.153   3.015   1.546  0.4552 -1.7400  0.1290
  892SOL    HW2 2676   3.161   3.003   1.374  0.6515 -0.1874 -0.9450
  893SOL     OW 2677   0.254   0.559   2.080  0.2403  0.4212 -0.2943
  893SOL    HW1 2678   0.249   0.523   1.982  1.2551 -0.4287 -1.2839
  893SOL    HW2 2679   0.261   0.661   2.082 -1.9925  2.5010  4.4039
  894SOL     OW 2680   3.247   2.184   1.165  0.1978  0.0966 -0.1149
  894SOL    HW1 2681   3.159   2.170   1.115  0.8790  0.9281 -2.1431
  894SOL    HW2 2682   3.278   2.087   1.189 -0.2796 -3.8324  0.4173
  895SOL     OW 2683   1.415   2.915   1.672  0.1465  0.3477  0.2278
  895SOL    HW1 2684   1.489   2.858   1.716  3.1891  2.6840 -0.7986
  895SOL    HW2 2685   1.410   3.011   1.710  1.3091  2.1314 -1.7961
  896SOL     OW 2686   0.886   0.402   1.563 -0.6441  0.2800  0.3082
  896SOL    HW1 2687   0.823   0.399   1.645  0.4411  0.3177 -0.5238
  896SOL    HW2 2688   0.983   0.418   1.593  1.9207 -1.4394  0.9375
  897SOL     OW 2689   1.405   1.337   1.156  0.2902 -0.1724  1.0176
  897SOL    HW1 2690   1.415   1.420   1.216  1.2987  0.2257  3.2540
  897SOL    HW2 2691   1.451   1.254   1.197  0.4211 -0.1111 -0.4299
  898SOL     OW 2692   0.953   0.377   2.024  0.2077 -0.1258 -0.1673
  898SOL    HW1 2693   0.941   0.463   2.080 -0.2693  2.2437 -0.7886
  898SOL    HW2 2694   1.049   0.338   2.024  0.2772  1.2501 -1.1632
  899SOL     OW 2695   1.725   0.420   0.239 -0.4092  0.1160 -0.0146
  899SOL    HW1 2696   1.820   0.452   0.210 -0.8332 -1.0625 -0.7320
  899SOL    HW2 2697   1.663   0.501   0.255  1.0054  3.1046 -1.7400
  900SOL     OW 2698   1.216   0.785   2.844 -0.5365  0.2015  0.0653
  900SOL    HW1 2699   1.196   0.881   2.876 -0.6186 -2.0321  0.9643
  900SOL    HW2 2700   1.171   0.767   2.752 -0.1738  2.5002  0.3098
  901SOL     OW 2701   0.855   2.395   0.534  0.0753 -0.1884 -0.0281
  901SOL    HW1 2702   0.941   2.348   0.502 -1.1408  1.4618  0.5279
  901SOL    HW2 2703   0.774   2.354   0.484 -2.1762  3.6775 -0.2374
  902SOL     OW 2704   2.154   0.232   0.848 -0.2971 -0.2946  0.2986
  902SOL    HW1 2705   2.184   0.171   0.770  0.3049  1.1562 -0.0562
  902SOL    HW2 2706   2.082   0.181   0.903  1.2926 -0.1947 -0.6584
  903SOL     OW 2707   0.050   1.617   3.008 -0.2513  0.5689  0.1014
  903SOL    HW1 2708   0.103   1.695   2.965 -0.3985  1.9650 -3.0908
  903SOL    HW2 2709  -0.037   1.602   2.953 -0.0698 -2.4990 -0.8115
  904SOL     OW 2710   1.992   1.460   0.479  0.7944 -0.2886  0.2432
  904SOL    HW1 2711   1.935   1.494   0.557 -3.0908 -0.9950  0.7262
  904SOL    HW2 2712   2.013   1.359   0.487 -1.5093  0.1242  0.0503
  905SOL     OW 2713   2.282   3.232   1.570 -0.1532 -0.1187  0.1129
  905SOL    HW1 2714   2.216   3.269   1.499 -0.9184  1.9915 -1.4693
  905SOL    HW2 2715   2.301   3.132   1.554 -0.4058  0.7184 -1.0928
  906SOL     OW 2716   2.640   3.123   0.986 -0.9462  0.1752 -0.4053
  906SOL    HW1 2717   2.577   3.205   0.981  0.4781  2.9527  0.7547
  906SOL    HW2 2718   2.692   3.122   1.076 -1.4568  0.5495  0.3803
  907SOL     OW 2719   2.601   1.157   0.480  0.8202  0.3890  0.2843
  907SOL    HW1 2720   2.569   1.060   0.494  1.7267  0.3113  0.3549
  907SOL    HW2 2721   2.536   1.224   0.523  1.9972  1.5512  0.1618
  908SOL     OW 2722   2.215   0.301   1.614  0.6258  0.1058 -0.4812
  908SOL    HW1 2723   2.205   0.402   1.600  1.0997  0.1688  2.0724
  908SOL    HW2 2724   2.125   0.262   1.645  0.5349 -1.8217 -2.4260
  909SOL     OW 2725   2.856   3.344   1.191 -0.3109  0.1652 -0.1583
  909SOL    HW1 2726   2.833   3.401   1.107  0.8239  0.7935 -0.1307
  909SOL    HW2 2727   2.852   3.401   1.278  2.2287 -0.9938  1.8271
  910SOL     OW 2728   2.697   0.635   2.326  0.4665  0.4720  0.1179
  910SOL    HW1 2729   2.622   0.630   2.396 -1.2502  2.0331  3.3682
  910SOL    HW2 2730   2.777   0.574   2.348 -2.0182  1.8503 -1.2317
  911SOL     OW 2731   2.222   0.022   3.099 -0.0327  0.1929 -0.0127
  911SOL    HW1 2732   2.188   0.085   3.174 -3.2169 -0.2066  0.7063
  911SOL    HW2 2733   2.264   0.074   3.022 -0.1184  0.0725 -1.0937
  912SOL     OW 2734   0.616   1.084   1.550 -0.7019 -0.3246  0.1190
  912SOL    HW1 2735   0.714   1.114   1.546  1.3795 -0.5966 -0.8354
  912SOL    HW2 2736   0.607   0.982   1.539  2.0068 -0.4496 -0.3828
  913SOL     OW 2737   2.851   3.066   1.288  0.2120 -0.6684 -0.3453
  913SOL    HW1 2738   2.848   3.165   1.259  2.7514 -1.5146 -1.7321
  913SOL    HW2 2739   2.926   3.053   1.357  0.8341  0.0111 -1.1348
  914SOL     OW 2740   1.356   0.539   1.184  0.4696  0.6493 -0.2558
  914SOL    HW1 2741   1.443   0.523   1.237  0.3342 -0.3434 -1.5219
  914SOL    HW2 2742   1.320   0.448   1.150 -0.1201 -0.8184 -3.1152
  915SOL     OW 2743   0.391   1.857   1.605  0.3976 -0.3605  0.3785
  915SOL    HW1 2744   0.376   1.860   1.503 -0.0969 -1.1743  0.2018
  915SOL    HW2 2745   0.397   1.951   1.649 -1.0342 -0.5121 -0.3162
  916SOL     OW 2746   2.233   2.617   1.095 -0.0531  0.1126 -0.8106
  916SOL    HW1 2747   2.318   2.675   1.100  1.4512 -1.3955  0.7923
  916SOL    HW2 2748   2.152   2.673   1.121 -0.1109  0.9532 -0.6768
  917SOL     OW 2749   2.354   2.809   2.707  0.2227  0.6122  0.3700
  917SOL    HW1 2750   2.370   2.798   2.606  0.4715  1.7529 -1.0629
  917SOL    HW2 2751   2.279   2.878   2.723  1.6923 -0.9671 -0.1596
  918SOL     OW 2752   2.376   1.931   3.015 -0.9385 -0.1863 -0.4701
  918SOL    HW1 2753   2.458   1.927   3.079 -0.4349  0.8885 -1.0443
  918SOL    HW2 2754   2.341   2.028   3.006 -2.5568 -1.4968 -2.7749
  919SOL     OW 2755   0.887   0.642   1.355 -0.4372 -0.4680 -0.5992
  919SOL    HW1 2756   0.883   0.565   1.423  0.4383  0.7726 -0.3408
  919SOL    HW2 2757   0.983   0.679   1.347 -4.0314  0.6426 -0.7067
  920SOL     OW 2758   3.321   0.879   2.483  0.1726 -0.1711  1.1407
  920SOL    HW1 2759   3.338   0.817   2.402 -1.1674  3.1226  1.3582
  920SOL    HW2 2760   3.387   0.860   2.558  0.7428 -1.4671 -2.0581
  921SOL     OW 2761   2.942   1.436   1.719  0.1456  0.3046  0.3455
  921SOL    HW1 2762   3.014   1.396   1.656 -0.3502 -2.5227  0.7783
  921SOL    HW2 2763   2.986   1.472   1.805 -1.9909 -0.0534  1.4531
  922SOL     OW 2764   3.256   2.688   0.955 -0.4622 -0.5240 -0.8808
  922SOL    HW1 2765   3.214   2.624   1.024  1.2719  0.4129 -1.1188
  922SOL    HW2 2766   3.184   2.760   0.939 -0.9227 -2.1588  1.4523
  923SOL     OW 2767   0.045   2.722   0.652 -0.4596  0.5443  0.1641
  923SOL    HW1 2768   0.086   2.708   0.747  1.0938  0.0846 -0.5736
  923SOL    HW2 2769   0.112   2.694   0.575  0.2454  0.1475  0.5320
  924SOL     OW 2770   1.121   1.413   3.500  0.0261 -0.3713  0.4626
  924SOL    HW1 2771   1.188   1.463   3.438 -0.1092  0.9743 -1.4774
  924SOL    HW2 2772   1.047   1.476   3.534 -0.3087  2.0456  1.5249
  925SOL     OW 2773   3.605   1.531   1.033 -0.0172 -0.1091 -0.2417
  925SOL    HW1 2774   3.662   1.557   1.115 -0.4694 -3.2392  1.7953
  925SOL    HW2 2775   3.543   1.452   1.056  1.2127 -0.4259 -0.9643
  926SOL     OW 2776   0.122   0.029   1.495  0.1575 -0.1151 -0.0422
  926SOL    HW1 2777   0.225   0.011   1.489  2.1190 -1.3374 -1.9245
  926SOL    HW2 2778   0.082   0.006   1.402  0.8697  0.1472  0.2527
  927SOL     OW 2779   0.718   2.110   2.841 -0.3440  0.4432 -0.2246
  927SOL    HW1 2780   0.798   2.046   2.854  1.4388  0.2547 -1.0647
  927SOL    HW2 2781   0.723   2.156   2.749  0.2288 -0.6037 -0.3300
  928SOL     OW 2782   0.412   0.780   2.776  0.1882  0.4247  0.2232
  928SOL    HW1 2783   0.451   0.685   2.791  0.3664  0.8453 -0.5896
  928SOL    HW2 2784   0.352   0.804   2.857  1.3102 -0.7714 -0.7734
  929SOL     OW 2785   3.132   2.501   1.150 -0.0728 -0.3315 -0.1084
  929SOL    HW1 2786   3.031   2.509   1.137  1.4603  0.8022  0.9476
  929SOL    HW2 2787   3.160   2.401   1.149  1.2719 -1.1102  0.9799
  930SOL     OW 2788   2.010   0.289   2.881 -0.0723 -0.1773  0.2917
  930SOL    HW1 2789   1.931   0.237   2.927 -0.6580  3.0981 -2.6501
  930SOL    HW2 2790   1.977   0.373   2.830  0.1738 -1.3933 -2.2842
  931SOL     OW 2791   2.902   1.129   3.326 -0.3159 -0.4617 -0.1981
  931SOL    HW1 2792   2.916   1.145   3.428  0.8483  1.6930  0.9749
  931SOL    HW2 2793   2.819   1.070   3.310 -1.6474  1.8247  0.0622
  932SOL     OW 2794   2.112   1.049   0.762 -0.3616 -0.2639 -0.5340
  932SOL    HW1 2795   2.094   1.091   0.671  0.2315 -1.9424 -0.6479
  932SOL    HW2 2796   2.165   0.962   0.753  0.5326  1.0195 -1.0129
  933SOL     OW 2797   2.747   0.732   0.867  0.4575  0.3013  0.3031
  933SOL    HW1 2798   2.692   0.708   0.782  1.1153 -1.2941  2.1638
  933SOL    HW2 2799   2.775   0.830   0.864  0.0818  0.6026 -2.6835
  934SOL     OW 2800   3.114   1.395   2.823 -0.5193 -0.3657  0.0433
  934SOL    HW1 2801   3.189   1.322   2.826  2.4206  3.0012 -2.2425
  934SOL    HW2 2802   3.079   1.397   2.726  0.5392  1.7760 -2.3808
  935SOL     OW 2803   0.129   1.589   1.286 -0.1316 -0.0042  0.1301
  935SOL    HW1 2804   0.099   1.684   1.313  2.5161  1.0048 -0.8947
  935SOL    HW2 2805   0.123   1.530   1.371 -0.6763 -0.9170 -0.5654
  936SOL     OW 2806   0.038   3.500   0.080  0.5211  0.0858 -0.0204
  936SOL    HW1 2807   0.059   3.399   0.081 -2.5273  0.5512 -3.1135
  936SOL    HW2 2808   0.115   3.551   0.126  0.1113 -0.3808  1.7925
  937SOL     OW 2809   3.359   2.936   2.402 -0.0317  0.2060 -0.4054
  937SOL    HW1 2810   3.373   2.930   2.505 -0.7342 -1.1541 -0.6009
  937SOL    HW2 2811   3.393   2.855   2.350  1.6991 -0.0300 -0.7168
  938SOL     OW 2812   2.644   2.748   3.540  0.3193 -0.2800  0.5557
  938SOL    HW1 2813   2.704   2.665   3.544  2.3612  0.6155  2.0736
  938SOL    HW2 2814   2.564   2.730   3.478  2.2146 -0.3340  0.1468
  939SOL     OW 2815   1.233   0.712   1.658  0.6099  0.1549 -0.6124
  939SOL    HW1 2816   1.331   0.748   1.668 -3.9703 -0.4815 -0.4559
  939SOL    HW2 2817   1.163   0.771   1.707  3.5321 -1.4686  0.4802
  940SOL     OW 2818   2.779   3.413   3.621  0.5621 -0.1670 -0.0889
  940SOL    HW1 2819   2.689   3.455   3.591  2.6189  1.0934 -2.3815
  940SOL    HW2 2820   2.814   3.343   3.553 -0.4381 -1.4002  3.5334
  941SOL     OW 2821   3.089   3.343   2.498 -0.0001  0.1537  0.4380
  941SOL    HW1 2822   3.006   3.397   2.468 -2.0050 -1.2107  1.3660
  941SOL    HW2 2823   3.084   3.247   2.464 -2.2011  0.4378 -1.1129
  942SOL     OW 2824   1.905   0.017   1.227 -0.4557 -0.6401  0.4137
  942SOL    HW1 2825   1.840  -0.049   1.272 -1.6109  1.2332 -0.1385
  942SOL    HW2 2826   2.002   0.010   1.262  2.7846  2.4741 -1.3157
  943SOL     OW 2827   1.483   1.865   2.880  0.1242  0.2965  0.2618
  943SOL    HW1 2828   1.558   1.807   2.924 -0.4773  1.6650 -1.2127
  943SOL    HW2 2829   1.511   1.888   2.784 -0.6692  2.7807  2.8568
  944SOL     OW 2830   3.180   1.017   1.579 -0.6384 -0.4336 -0.3542
  944SOL    HW1 2831   3.259   0.972   1.528 -0.6246  0.2956  0.5496
  944SOL    HW2 2832   3.106   0.945   1.583 -1.2436  0.1759 -0.4881
  945SOL     OW 2833   3.157   0.051   3.214 -0.2220 -0.0207 -0.0888
  945SOL    HW1 2834   3.068   0.095   3.244 -1.2569 -1.3402 -0.2101
  945SOL    HW2 2835   3.208   0.123   3.157 -0.2099  0.0379 -1.6297
  946SOL     OW 2836   0.056   1.691   1.641  0.2177 -0.6143  0.6783
  946SOL    HW1 2837   0.139   1.753   1.643 -2.5623 -0.5943  2.0959
  946SOL    HW2 2838   0.084   1.594   1.620 -0.0782 -0.4126  0.8292
  947SOL     OW 2839   0.515   0.480   3.272 -0.8877  0.6799  0.2717
  947SOL    HW1 2840   0.524   0.380   3.295  1.2524  0.1822 -0.5109
  947SOL    HW2 2841   0.440   0.499   3.203  0.2615  0.9261  0.8632
  948SOL     OW 2842   2.334   1.779   1.396 -0.4453  0.4798  0.6286
  948SOL    HW1 2843   2.336   1.772   1.499  0.8060 -3.4316  0.8304
  948SOL    HW2 2844   2.415   1.729   1.356  0.3436 -2.0020 -0.5772
  949SOL     OW 2845   0.455   1.484   3.438 -0.6349 -0.4245 -0.4404
  949SOL    HW1 2846   0.467   1.563   3.372 -0.4616 -0.1818  1.6352
  949SOL    HW2 2847   0.393   1.410   3.400  1.4530 -1.5400  0.8848
  950SOL     OW 2848   0.682   3.286   1.874 -0.2146 -0.2481  0.6563
  950SOL    HW1 2849   0.605   3.223   1.849  2.0455  0.5604 -2.4740
  950SOL    HW2 2850   0.767   3.231   1.898 -0.0144 -0.4607  0.1213
  951SOL     OW 2851   0.980   2.558   2.900  0.6191 -0.1230  0.4816
  951SOL    HW1 2852   0.912   2.496   2.945 -0.5096 -0.5378  0.6083
  951SOL    HW2 2853   1.066   2.569   2.954  3.9954 -2.5307 -0.8933
  952SOL     OW 2854   0.779   1.268   0.678  0.1169  0.3785  0.2091
  952SOL    HW1 2855   0.750   1.181   0.722 -0.2250  1.1969 -3.1284
  952SOL    HW2 2856   0.743   1.279   0.582  0.0131 -0.8667 -1.0566
  953SOL     OW 2857   2.603   1.863   3.486 -0.0467  0.3572  0.0276
  953SOL    HW1 2858   2.517   1.806   3.495 -0.7264  2.2874 -0.2679
  953SOL    HW2 2859   2.666   1.852   3.568  1.9013 -0.2824  1.0010
  954SOL     OW 2860   1.792   0.298   0.554  0.7251  0.2929  0.2508
  954SOL    HW1 2861   1.774   0.306   0.453 -0.0862  1.1435 -0.0596
  954SOL    HW2 2862   1.837   0.207   0.573 -0.2492 -1.9429 -1.9641
  955SOL     OW 2863   1.030   1.845   0.120 -0.1384 -0.3615 -0.5668
  955SOL    HW1 2864   0.999   1.775   0.052 -1.8065 -1.5408  0.7039
  955SOL    HW2 2865   1.088   1.801   0.194 -0.6808 -0.7871 -0.2269
  956SOL     OW 2866   3.263   0.429   2.362 -0.9931 -0.6986  0.1243
  956SOL    HW1 2867   3.286   0.524   2.328 -1.7392 -1.4980  2.8671
  956SOL    HW2 2868   3.306   0.408   2.453 -1.4112  2.6830  0.6646
  957SOL     OW 2869   2.289   2.283   2.329 -0.1901  0.8992 -0.2240
  957SOL    HW1 2870   2.187   2.274   2.332 -1.6027  3.2063 -1.5619
  957SOL    HW2 2871   2.340   2.207   2.378 -0.7121 -1.2720 -1.3751
  958SOL     OW 2872   2.046   1.031   1.428 -0.3144  0.3521 -0.0234
  958SOL    HW1 2873   2.097   1.119   1.420  0.1183  0.0498 -0.9551
  958SOL    HW2 2874   2.061   0.982   1.518  0.2699 -0.2110  1.2204
  959SOL     OW 2875   1.707   2.519   2.416  0.1570 -0.2821 -0.7359
  959SOL    HW1 2876   1.743   2.426   2.387  3.1412  0.7675  2.3870
  959SOL    HW2 2877   1.719   2.594   2.346  1.0844 -0.0580 -0.4654
  960SOL     OW 2878   0.923   1.452   3.055 -0.4806 -0.2361 -0.0698
  960SOL    HW1 2879   1.012   1.473   3.004 -1.4471 -0.1538  0.0419
  960SOL    HW2 2880   0.843   1.457   2.990  1.5039 -3.5099  0.7659
  961SOL     OW 2881   3.215   1.431   0.163  0.0620 -0.2125  0.2931
  961SOL    HW1 2882   3.228   1.518   0.220  1.0081  1.0310 -0.5391
  961SOL    HW2 2883   3.123   1.436   0.115  1.4450  0.5599 -2.8582
  962SOL     OW 2884   1.021   2.127   0.091 -0.3991  0.0379  0.1430
  962SOL    HW1 2885   1.026   2.025   0.091 -0.0487  2.2181  0.8570
  962SOL    HW2 2886   1.093   2.172   0.033 -0.0785 -1.0276 -0.9846
  963SOL     OW 2887   3.295   1.824   0.005 -0.1957  0.2753 -0.7058
  963SOL    HW1 2888   3.253   1.780   0.090 -0.4078  0.0964 -0.2779
  963SOL    HW2 2889   3.392   1.799  -0.019 -0.6209  1.0346  1.8924
  964SOL     OW 2890   0.826   2.574   2.545 -0.0211  0.1146 -0.9806
  964SOL    HW1 2891   0.891   2.590   2.623 -0.0768  1.0530  0.9731
  964SOL    HW2 2892   0.786   2.665   2.518  0.2801  1.1519  1.0773
  965SOL     OW 2893   1.487   2.220   1.637  0.1385 -0.1646  0.3901
  965SOL    HW1 2894   1.531   2.261   1.555  1.6591 -0.8843  4.3347
  965SOL    HW2 2895   1.446   2.127   1.617  0.4539  0.6896 -0.9279
  966SOL     OW 2896   3.557   1.757   0.461  0.5324  0.8429  0.0562
  966SOL    HW1 2897   3.644   1.747   0.516  0.6567 -0.9006 -0.4042
  966SOL    HW2 2898   3.564   1.719   0.364  1.5999 -0.4066 -0.9216
  967SOL     OW 2899   2.239   3.096   3.052 -0.5017  0.3250 -0.1236
  967SOL    HW1 2900   2.176   3.146   3.116 -1.5914 -2.0009  2.7871
  967SOL    HW2 2901   2.330   3.082   3.099 -3.7720 -1.2288  0.1036
  968SOL     OW 2902   1.702   1.518   3.388 -0.0905  0.8409 -0.6379
  968SOL    HW1 2903   1.747   1.527   3.482 -2.9687  1.9841  2.8158
  968SOL    HW2 2904   1.627   1.588   3.383  0.8107 -1.7414  1.6968
  969SOL     OW 2905   0.192   1.079   2.879  0.3462 -0.3076 -0.3279
  969SOL    HW1 2906   0.189   1.154   2.806  1.9734  1.6469 -0.9401
  969SOL    HW2 2907   0.263   1.101   2.951  0.7981  0.2123 -1.8474
  970SOL     OW 2908   2.756   0.246   0.464 -0.2682  0.2729 -0.4738
  970SOL    HW1 2909   2.668   0.225   0.416  1.2312  1.3797 -1.4918
  970SOL    HW2 2910   2.832   0.177   0.451  0.2902  2.7385 -0.9767
  971SOL     OW 2911   1.873   2.343   0.927 -0.2613 -0.0326  0.2528
  971SOL    HW1 2912   1.798   2.412   0.914 -1.5629 -1.1322 -2.4092
  971SOL    HW2 2913   1.917   2.352   1.020  1.1922 -0.9863  1.1904
  972SOL     OW 2914   0.227   2.389   3.113 -0.5205 -0.3243 -0.4303
  972SOL    HW1 2915   0.153   2.405   3.181 -2.6964 -2.0560  3.5243
  972SOL    HW2 2916   0.302   2.329   3.151 -0.6968 -0.9683  1.6537
  973SOL     OW 2917   0.603   0.625   0.518  0.0560  0.1924 -0.1234
  973SOL    HW1 2918   0.538   0.684   0.464 -1.5291 -0.6864 -1.1342
  973SOL    HW2 2919   0.631   0.539   0.467  2.5756 -1.7632  2.1019
  974SOL     OW 2920   3.255   0.755   2.014  0.1515 -0.6880  0.4754
  974SOL    HW1 2921   3.288   0.690   1.942 -2.6818 -0.8551  0.6208
  974SOL    HW2 2922   3.152   0.771   2.010  0.3984 -2.5916 -1.7708
  975SOL     OW 2923   0.366   3.613   0.958 -0.4733  0.6656  0.3288
  975SOL    HW1 2924   0.329   3.537   0.899 -0.5961 -1.2639  1.2070
  975SOL    HW2 2925   0.426   3.675   0.902  0.0711  0.7107  0.4602
  976SOL     OW 2926   0.896   1.866   1.708 -0.0217  0.2491  0.2177
  976SOL    HW1 2927   0.817   1.801   1.692  3.7597  0.4749 -1.3786
  976SOL    HW2 2928   0.868   1.966   1.709 -0.3435 -0.5394  0.0407
  977SOL     OW 2929   1.533   2.384   0.651 -0.2935  0.0340 -0.3219
  977SOL    HW1 2930   1.565   2.433   0.566  0.3167 -0.0150 -0.4909
  977SOL    HW2 2931   1.536   2.281   0.641 -1.1623 -0.3296  0.0027
  978SOL     OW 2932   0.093   1.341   0.045 -0.6976 -0.6624 -0.9397
  978SOL    HW1 2933   0.072   1.350  -0.056 -0.5793 -1.5671 -0.6435
  978SOL    HW2 2934   0.191   1.314   0.065  0.1714  1.9836  0.1643
  979SOL     OW 2935   2.314   1.354   0.310  0.1357  0.5663  0.0969
  979SOL    HW1 2936   2.276   1.264   0.277 -3.1442 -2.2308  0.1825
  979SOL    HW2 2937   2.353   1.342   0.407 -1.8187  3.0200  1.0776
  980SOL     OW 2938   0.903   1.971   2.200  0.1438 -0.0436  0.3447
  980SOL    HW1 2939   0.863   1.908   2.128 -0.6848  0.0222 -0.8787
  980SOL    HW2 2940   0.853   1.951   2.290 -0.0357  0.5715  2.6510
  981SOL     OW 2941   2.600   1.655   2.707 -0.1539 -0.2796  0.0256
  981SOL    HW1 2942   2.679   1.661   2.774 -1.0118  4.3094  1.8052
  981SOL    HW2 2943   2.593   1.554   2.681 -1.3565  1.0423  0.5617
  982SOL     OW 2944   0.478   2.571   2.017 -0.1490 -0.5492  0.2412
  982SOL    HW1 2945   0.477   2.673   1.999  4.0012  0.5017  0.6532
  982SOL    HW2 2946   0.478   2.557   2.119 -0.7668  0.8227 -1.3772
  983SOL     OW 2947   1.811   3.215   2.392  0.0498 -0.0740  0.2441
  983SOL    HW1 2948   1.792   3.305   2.347 -2.0066 -1.8103 -0.8642
  983SOL    HW2 2949   1.797   3.138   2.325  0.5186  1.4164 -1.3365
  984SOL     OW 2950   3.608   0.199   3.310  0.5661  0.5459 -0.0735
  984SOL    HW1 2951   3.580   0.265   3.383  2.1362  0.2186  0.9611
  984SOL    HW2 2952   3.580   0.104   3.337  1.7831 -1.2239  0.6604
  985SOL     OW 2953   1.746   1.599   2.126  0.4953 -0.2075 -0.1903
  985SOL    HW1 2954   1.799   1.607   2.037 -1.1339 -0.5409  4.0757
  985SOL    HW2 2955   1.674   1.526   2.126  2.0865 -0.3397  0.5351
  986SOL     OW 2956   2.055   0.531   0.011 -0.6123 -0.4491 -0.4458
  986SOL    HW1 2957   2.146   0.581   0.020 -0.4487 -2.7299 -0.0560
  986SOL    HW2 2958   1.982   0.585  -0.038 -1.3601 -0.7657  1.9935
  987SOL     OW 2959   0.296   2.670   2.944 -0.0055  0.2791 -0.3404
  987SOL    HW1 2960   0.383   2.714   2.980  0.5158 -2.1513  0.9567
  987SOL    HW2 2961   0.282   2.580   2.992  0.2103  2.1690  1.6173
  988SOL     OW 2962   3.355   0.301   1.846  0.2120 -0.1937 -0.0610
  988SOL    HW1 2963   3.443   0.253   1.819 -0.9563 -0.3621 -1.7558
  988SOL    HW2 2964   3.278   0.277   1.784  1.9232  0.8725 -0.5276
  989SOL     OW 2965   2.429   3.624   1.178 -0.0658  0.1174  0.4368
  989SOL    HW1 2966   2.438   3.546   1.110  4.6438  0.2140  3.7670
  989SOL    HW2 2967   2.488   3.702   1.141 -0.0959  1.6265  0.0525
  990SOL     OW 2968   3.283   1.009   0.231  0.3113 -0.6559 -0.0790
  990SOL    HW1 2969   3.298   1.074   0.153 -0.0035 -0.8026  0.2174
  990SOL    HW2 2970   3.303   0.912   0.202  0.2677 -0.4199  1.0724
  991SOL     OW 2971   0.336   1.218   0.735  0.2382 -0.5520  0.1939
  991SOL    HW1 2972   0.264   1.292   0.730  1.4439  1.1025 -0.9057
  991SOL    HW2 2973   0.390   1.227   0.822 -0.7234  0.3307 -1.9240
  992SOL     OW 2974   2.110   1.890   1.788  0.5016 -0.1790  0.1138
  992SOL    HW1 2975   2.079   1.980   1.746  3.1225  0.3697  0.9699
  992SOL    HW2 2976   2.139   1.906   1.886  1.0163 -0.5083 -2.4708
  993SOL     OW 2977   3.472   2.836   1.137  0.3830  0.2690 -0.3261
  993SOL    HW1 2978   3.511   2.768   1.205  0.3140 -2.9260 -1.1447
  993SOL    HW2 2979   3.406   2.790   1.073 -0.3664  0.3722 -0.1533
  994SOL     OW 2980   3.611   2.162   1.511  0.3892 -0.1488 -0.0272
  994SOL    HW1 2981   3.509   2.181   1.515  2.9753 -0.0941 -1.8554
  994SOL    HW2 2982   3.651   2.169   1.607 -0.5185  1.5686 -0.7064
  995SOL     OW 2983   2.433   1.418   3.318  0.3705  0.1608  0.6760
  995SOL    HW1 2984   2.383   1.339   3.362  2.2031  1.1591 -0.6873
  995SOL    HW2 2985   2.406   1.509   3.357 -0.5436  2.9554 -3.0308
  996SOL     OW 2986   2.150   2.833   0.634  0.1324 -0.1132  1.2021
  996SOL    HW1 2987   2.127   2.819   0.535  0.4675  1.6097  2.9284
  996SOL    HW2 2988   2.209   2.759   0.674  1.8414 -1.7092 -0.9264
  997SOL     OW 2989   1.715   1.853   2.259 -0.5938  0.1729  0.3328
  997SOL    HW1 2990   1.647   1.908   2.205  1.6495  1.4545  3.8642
  997SOL    HW2 2991   1.729   1.761   2.215  2.0084 -0.5823 -0.3098
  998SOL     OW 2992   3.583   3.036   0.589  0.7278  0.0670 -0.1696
  998SOL    HW1 2993   3.604   2.940   0.617  1.1178 -1.0135  0.7676
  998SOL    HW2 2994   3.580   3.100   0.671  0.8134  1.2177  0.3720
  999SOL     OW 2995   0.723   3.561   0.096  0.1103 -0.0419  0.0707
  999SOL    HW1 2996   0.692   3.476   0.050  0.5638 -1.7733  0.2831
  999SOL    HW2 2997   0.723   3.644   0.034  1.4032  0.6669  0.7336
 1000SOL     OW 2998   1.045   0.256   0.089 -0.5675 -0.0715 -0.4054
 1000SOL    HW1 2999   1.138   0.300   0.082  0.9346  1.4666 -1.9630
 1000SOL    HW2 3000   1.002   0.265  -0.004  0.6259 -1.6564 -2.5794
   3.63593   3.63593   3.63593
