977 TIP4P/2005f water molecules t=   1.68000 step= 1680
 3908
    1SOL     OW    1   0.389   0.784   0.107 -0.0701 -0.1693  0.0555
    1SOL    HW1    2   0.392   0.701   0.057  0.1054  0.4947 -0.8310
    1SOL    HW2    3   0.388   0.731   0.186 -0.1854 -2.4825 -0.0222
    1SOL     MW    4   0.389   0.766   0.111 -0.0622 -0.3869 -0.0717
    2SOL     OW    5   0.316   3.004   1.087 -0.1512  0.3850 -0.0982
    2SOL    HW1    6   0.350   3.095   1.078  0.2958 -0.4301 -0.2160
    2SOL    HW2    7   0.226   3.023   1.121 -0.1388 -1.8236  1.0862
    2SOL     MW    8   0.309   3.019   1.090 -0.0906 -0.0140  0.0425
    3SOL     OW    9   2.660   0.346   0.981  0.7400 -0.3906 -0.0707
    3SOL    HW1   10   2.706   0.415   0.928 -1.3032 -3.3614  1.7334
    3SOL    HW2   11   2.637   0.380   1.072 -1.7418 -1.0575 -1.6974
    3SOL     MW   12   2.663   0.360   0.986  0.1430 -0.8706 -0.0473
    4SOL     OW   13   2.977   1.705   0.523 -0.8272  0.2505 -0.6663
    4SOL    HW1   14   2.898   1.766   0.523 -2.4172  0.6122 -0.3091
    4SOL    HW2   15   3.025   1.724   0.444 -0.1380  1.3109 -0.6572
    4SOL     MW   16   2.973   1.716   0.513 -0.9461  0.4381 -0.6180
    5SOL     OW   17   1.611   1.415   0.620 -0.6815 -0.0010 -0.4355
    5SOL    HW1   18   1.657   1.431   0.702  3.4681 -0.3290  0.2041
    5SOL    HW2   19   1.525   1.444   0.634  0.6801 -1.8084 -1.1111
    5SOL     MW   20   1.605   1.421   0.633  0.0456 -0.2828 -0.4402
    6SOL     OW   21   0.783   1.447   0.618 -0.6969 -0.1228  0.0325
    6SOL    HW1   22   0.687   1.444   0.632  1.0777 -0.4868 -1.5118
    6SOL    HW2   23   0.829   1.377   0.665 -0.2859  1.6001 -0.0955
    6SOL     MW   24   0.776   1.437   0.626 -0.4085  0.0565 -0.1881
    7SOL     OW   25   1.930   1.079   0.002  0.4447  0.1464 -0.2718
    7SOL    HW1   26   2.007   1.142  -0.004 -0.8060  1.3631 -2.2687
    7SOL    HW2   27   1.946   1.039   0.095 -0.3528 -0.5550  0.9379
    7SOL     MW   28   1.943   1.082   0.014  0.1745  0.2144 -0.3757
    8SOL     OW   29   0.794   1.467   1.083  0.1219 -0.1591 -0.3861
    8SOL    HW1   30   0.885   1.468   1.099 -1.0979  0.7019 -3.2395
    8SOL    HW2   31   0.776   1.385   1.127 -0.2605  1.5333  0.5118
    8SOL     MW   32   0.804   1.456   1.091 -0.0895  0.1778 -0.6441
    9SOL     OW   33   0.937   0.493   1.335 -0.2439  1.0807 -0.5200
    9SOL    HW1   34   0.857   0.448   1.293 -1.3431 -0.1373 -2.2245
    9SOL    HW2   35   0.991   0.430   1.381 -0.9743  1.6904 -2.2089
    9SOL     MW   36   0.934   0.479   1.336 -0.4853  1.0005 -0.9677
   10SOL     OW   37   0.294   0.857   0.475  0.0312 -0.6314  0.0422
   10SOL    HW1   38   0.390   0.874   0.462 -0.0537  1.0269  1.8239
   10SOL    HW2   39   0.278   0.899   0.564 -3.4715  0.9047  0.2111
   10SOL     MW   40   0.304   0.864   0.485 -0.4421 -0.2099  0.2996
   11SOL     OW   41   0.778   1.115   1.484 -0.2647  0.7217  0.2456
   11SOL    HW1   42   0.831   1.124   1.566  0.2582 -2.6159  0.2122
   11SOL    HW2   43   0.814   1.034   1.447  3.2122 -0.0154  1.5939
   11SOL     MW   44   0.790   1.105   1.490  0.2630  0.1841  0.4191
   12SOL     OW   45   0.016   1.069   0.885  0.7039  0.2532  0.5121
   12SOL    HW1   46   0.083   1.128   0.923 -0.3878  0.2789  1.0937
   12SOL    HW2   47  -0.020   1.121   0.818  1.0169  0.5501  2.2702
   12SOL     MW   48   0.020   1.083   0.881  0.6012  0.2958  0.8208
   13SOL     OW   49   1.803   1.416   1.323  0.0261 -0.1459  0.6077
   13SOL    HW1   50   1.815   1.341   1.269 -1.3616  3.0574  0.4820
   13SOL    HW2   51   1.888   1.454   1.315 -0.9803 -2.1273 -1.7064
   13SOL     MW   52   1.816   1.411   1.315 -0.2898  0.0153  0.2858
   14SOL     OW   53   0.545   0.337   1.757  0.1206 -0.1475  0.5346
   14SOL    HW1   54   0.471   0.281   1.783 -2.5993  0.1912  0.8043
   14SOL    HW2   55   0.599   0.268   1.711 -0.2839 -1.0178 -2.7008
   14SOL     MW   56   0.543   0.320   1.754 -0.2916 -0.2177  0.1433
   15SOL     OW   57   2.014   0.415   0.999 -0.4359  0.0923 -0.2677
   15SOL    HW1   58   2.025   0.498   1.043  2.3481  0.4193 -0.3965
   15SOL    HW2   59   2.041   0.412   0.905 -0.4024 -2.0454  0.5369
   15SOL     MW   60   2.019   0.425   0.993 -0.0642 -0.1466 -0.1785
   16SOL     OW   61   0.280   1.825   0.293 -0.5210 -0.2999  0.0019
   16SOL    HW1   62   0.369   1.786   0.314 -0.9176  0.7253 -0.5947
   16SOL    HW2   63   0.281   1.919   0.312 -2.3924 -0.3258 -3.3451
   16SOL     MW   64   0.292   1.832   0.298 -0.8203 -0.1681 -0.5184
   17SOL     OW   65   1.114   0.889   1.432 -0.2349 -0.0655 -0.1843
   17SOL    HW1   66   1.140   0.884   1.529  1.3393  0.3040 -0.4385
   17SOL    HW2   67   1.019   0.890   1.422  2.7980  0.6778  0.8125
   17SOL     MW   68   1.105   0.889   1.444  0.3730  0.0813 -0.0863
   18SOL     OW   69   0.068   1.651   0.321 -0.1086 -0.2847  0.1758
   18SOL    HW1   70   0.141   1.705   0.285  1.6262 -0.1879  0.0455
   18SOL    HW2   71   0.037   1.613   0.240 -2.1535  0.5256 -2.6689
   18SOL     MW   72   0.074   1.653   0.305 -0.1495 -0.1650 -0.2167
   19SOL     OW   73   0.097   1.322   0.981  0.5050 -0.1105 -0.1106
   19SOL    HW1   74   0.116   1.358   0.896 -3.7658 -0.3940  1.0684
   19SOL    HW2   75   0.005   1.334   0.982  0.4910 -1.5206 -2.0331
   19SOL     MW   76   0.088   1.328   0.970 -0.0603 -0.3340 -0.2087
   20SOL     OW   77   0.433   2.117   1.262 -0.1906 -0.2269  0.0635
   20SOL    HW1   78   0.385   2.042   1.217  0.8905 -0.1629 -1.2406
   20SOL    HW2   79   0.378   2.125   1.345 -1.2500 -0.7364  0.3413
   20SOL     MW   80   0.419   2.108   1.267 -0.1877 -0.2857 -0.0719
   21SOL     OW   81   0.557   0.871   0.403  0.0555  0.0251  0.0874
   21SOL    HW1   82   0.623   0.849   0.465 -2.8515  4.2747 -1.9891
   21SOL    HW2   83   0.596   0.944   0.358 -1.2260  0.8901 -3.4096
   21SOL     MW   84   0.571   0.878   0.405 -0.4971  0.6999 -0.6479
   22SOL     OW   85   1.537   0.697   1.031  0.2795 -0.2824 -0.2224
   22SOL    HW1   86   1.535   0.700   0.936  3.8142  1.2207  0.6509
   22SOL    HW2   87   1.477   0.769   1.054 -0.0993  2.5822 -1.4589
   22SOL     MW   88   1.529   0.707   1.021  0.6959  0.2939 -0.2703
   23SOL     OW   89   3.053   0.822   0.726 -0.7199 -0.1002 -0.2252
   23SOL    HW1   90   3.104   0.745   0.765  1.0952  2.4823  1.6691
   23SOL    HW2   91   3.117   0.894   0.729 -0.4687 -1.5494  0.4474
   23SOL     MW   92   3.068   0.821   0.731 -0.4473  0.0493  0.1135
   24SOL     OW   93   2.075   2.198   0.059  0.3441 -0.6922  0.5997
   24SOL    HW1   94   2.022   2.215   0.140 -0.9314  2.5526  0.1187
   24SOL    HW2   95   2.077   2.104   0.049  1.7514 -1.1491 -2.0474
   24SOL     MW   96   2.068   2.188   0.069  0.3615 -0.3244  0.1870
   25SOL     OW   97   0.197   1.431   0.425  0.2770  0.7856 -0.3398
   25SOL    HW1   98   0.168   1.518   0.403  1.5915 -3.0452 -0.2357
   25SOL    HW2   99   0.259   1.416   0.356 -1.1836  1.0482  2.5011
   25SOL     MW  100   0.201   1.440   0.413  0.2577  0.3148  0.0487
   26SOL     OW  101   1.980   1.048   0.288  0.3987  0.7476 -0.1811
   26SOL    HW1  102   1.939   1.056   0.377  3.0404 -3.3273  1.1097
   26SOL    HW2  103   2.040   1.125   0.286  0.7762  0.1387  1.7319
   26SOL     MW  104   1.983   1.059   0.299  0.7970  0.1297  0.2416
   27SOL     OW  105   1.860   1.378   0.155 -0.1269 -0.2149 -1.1893
   27SOL    HW1  106   1.803   1.452   0.170 -0.9636 -1.5159  0.3709
   27SOL    HW2  107   1.933   1.379   0.219 -0.8508  0.0968 -0.0312
   27SOL     MW  108   1.862   1.388   0.165 -0.3328 -0.3454 -0.8307
   28SOL     OW  109   0.413   0.939   2.007 -0.0001 -0.1661  0.5655
   28SOL    HW1  110   0.465   0.931   2.084  0.8830 -2.0091  1.8013
   28SOL    HW2  111   0.324   0.896   2.018 -3.3119 -0.6084  0.2184
   28SOL     MW  112   0.408   0.932   2.019 -0.3205 -0.4676  0.6828
   29SOL     OW  113   0.205   1.415   0.741 -0.2409  0.8305  0.1287
   29SOL    HW1  114   0.229   1.511   0.741 -1.5168 -1.1387  1.4867
   29SOL    HW2  115   0.187   1.409   0.647  1.3877  0.4577  0.7081
   29SOL     MW  116   0.206   1.427   0.728 -0.1944  0.5215  0.3843
   30SOL     OW  117   0.714   1.241   1.214 -0.7657  0.9994  0.4834
   30SOL    HW1  118   0.625   1.257   1.244 -0.4530  1.5063 -1.7131
   30SOL    HW2  119   0.769   1.207   1.292 -0.0799 -0.9794  0.1498
   30SOL     MW  120   0.710   1.239   1.229 -0.6340  0.8052  0.1496
   31SOL     OW  121   0.513   0.283   0.213 -0.3024  0.1157  0.2128
   31SOL    HW1  122   0.523   0.197   0.261  1.8834 -1.2826  0.5114
   31SOL    HW2  123   0.502   0.251   0.118  2.4558  0.1756  2.1434
   31SOL     MW  124   0.513   0.267   0.207  0.3499 -0.0609  0.5069
   32SOL     OW  125   2.713   0.949   1.081 -0.3679 -0.2085 -0.0842
   32SOL    HW1  126   2.681   0.869   1.101  2.0398  1.7364 -2.9504
   32SOL    HW2  127   2.803   0.938   1.061 -0.7479  1.8002 -1.9882
   32SOL     MW  128   2.720   0.937   1.081 -0.1004  0.3131 -0.7136
   33SOL     OW  129   1.636   1.236   0.401 -0.3386 -0.0513  0.5553
   33SOL    HW1  130   1.731   1.237   0.394 -2.1722  2.2358  0.3146
   33SOL    HW2  131   1.623   1.279   0.484 -0.3183 -2.7815  1.5948
   33SOL     MW  132   1.647   1.242   0.411 -0.5779 -0.1098  0.6607
   34SOL     OW  133   1.159   1.975   1.132 -0.3186  0.5128  0.4010
   34SOL    HW1  134   1.072   2.012   1.161  2.1227  1.4371  2.9666
   34SOL    HW2  135   1.221   1.982   1.206  1.3566 -1.1908 -4.7940
   34SOL     MW  136   1.155   1.981   1.146  0.2245  0.4100  0.0541
   35SOL     OW  137   0.346   0.151   1.785  0.5499  0.2425 -0.4863
   35SOL    HW1  138   0.369   0.094   1.862  1.6476 -1.2574 -1.2014
   35SOL    HW2  139   0.351   0.090   1.714  2.0166 -1.7955 -0.0008
   35SOL     MW  140   0.349   0.135   1.786  0.8883 -0.2243 -0.5166
   36SOL     OW  141   1.926   1.986   0.602  0.0534 -0.1785  0.0486
   36SOL    HW1  142   1.882   1.965   0.516  0.7438 -1.1937  0.8522
   36SOL    HW2  143   1.933   1.896   0.629 -1.5689 -1.2634 -1.0061
   36SOL     MW  144   1.921   1.971   0.594 -0.0695 -0.4556  0.0155
   37SOL     OW  145   1.816   2.080   1.005 -0.1633  0.1896  0.3123
   37SOL    HW1  146   1.760   2.029   0.947  0.8305  1.5890 -1.7261
   37SOL    HW2  147   1.762   2.098   1.081 -2.4890  1.6427 -1.1530
   37SOL     MW  148   1.801   2.075   1.007 -0.3390  0.5660 -0.1500
   38SOL     OW  149   2.814   0.969   0.075 -0.6677 -0.0463 -0.7623
   38SOL    HW1  150   2.839   0.961   0.168 -1.0483  1.9284 -1.3686
   38SOL    HW2  151   2.898   0.961   0.027  1.6920  0.1558 -2.1349
   38SOL     MW  152   2.828   0.967   0.081 -0.4066  0.2409 -1.0234
   39SOL     OW  153   1.501   0.664   0.771  0.4912  0.2528 -0.3888
   39SOL    HW1  154   1.474   0.583   0.818  0.6450  1.4113  3.7905
   39SOL    HW2  155   1.422   0.714   0.757  0.7708 -3.7000  1.2383
   39SOL     MW  156   1.487   0.660   0.775  0.5484 -0.1159  0.3773
   40SOL     OW  157   1.267   1.888   0.241 -0.2353  0.5026 -0.3479
   40SOL    HW1  158   1.314   1.810   0.271 -1.5022 -1.8768 -0.6893
   40SOL    HW2  159   1.251   1.948   0.317 -0.3065  0.7638 -0.0173
   40SOL     MW  160   1.271   1.885   0.255 -0.4119  0.2231 -0.3494
   41SOL     OW  161   0.510   0.559   1.519 -0.8713  0.1599 -0.0114
   41SOL    HW1  162   0.580   0.599   1.474  1.0660 -1.8802 -1.1726
   41SOL    HW2  163   0.432   0.622   1.506 -1.5740 -0.7141  0.2608
   41SOL     MW  164   0.509   0.572   1.511 -0.7084 -0.2246 -0.1287
   42SOL     OW  165   1.221   2.963   1.987 -0.6234 -0.6307  0.0307
   42SOL    HW1  166   1.147   2.966   2.042  4.0309 -2.1460  1.6825
   42SOL    HW2  167   1.265   2.886   2.020 -2.5364 -1.7449 -0.9556
   42SOL     MW  168   1.217   2.953   1.998 -0.2617 -0.9777  0.1185
   43SOL     OW  169   1.434   0.095   1.702 -0.6244  0.0568 -0.7784
   43SOL    HW1  170   1.501   0.052   1.642  0.1019 -1.0593  0.7891
   43SOL    HW2  171   1.350   0.039   1.693 -2.9635  2.3597  0.6782
   43SOL     MW  172   1.432   0.082   1.693 -0.8372  0.2134 -0.3794
   44SOL     OW  173   1.258   0.800   1.024 -0.4733  0.0657  0.0755
   44SOL    HW1  174   1.234   0.891   1.022 -0.8826 -0.7426 -3.0035
   44SOL    HW2  175   1.216   0.768   1.106 -1.8293  1.5531 -0.6443
   44SOL     MW  176   1.250   0.808   1.035 -0.7062  0.1553 -0.4257
   45SOL     OW  177   1.299   0.847   0.733  0.2527  0.2523 -0.2639
   45SOL    HW1  178   1.252   0.844   0.814 -0.0705 -1.1657 -2.7327
   45SOL    HW2  179   1.234   0.807   0.680 -1.1502  0.3145  0.8125
   45SOL     MW  180   1.285   0.841   0.737  0.0250  0.0734 -0.4476
   46SOL     OW  181   0.442   1.131   0.653  0.0553  0.3886  0.0563
   46SOL    HW1  182   0.496   1.153   0.573  1.0886  0.0994 -1.1443
   46SOL    HW2  183   0.431   1.216   0.698 -2.4144 -0.8938 -1.8306
   46SOL     MW  184   0.448   1.145   0.648 -0.1342  0.1813 -0.3510
   47SOL     OW  185   0.088   2.040   1.893  0.0807 -0.6038  0.1665
   47SOL    HW1  186   0.091   1.945   1.892  2.6428  1.2695 -0.2554
   47SOL    HW2  187   0.043   2.055   1.980 -1.2976 -1.8419  2.1920
   47SOL     MW  188   0.083   2.030   1.904  0.2369 -0.5200  0.3781
   48SOL     OW  189   1.210   0.499   1.017 -0.0259  0.0117 -0.4446
   48SOL    HW1  190   1.188   0.462   0.933  2.7517 -1.9986  0.8186
   48SOL    HW2  191   1.198   0.593   1.011 -0.5285  0.2627  2.7352
   48SOL     MW  192   1.206   0.507   1.005  0.2743 -0.2204  0.1416
   49SOL     OW  193   1.685   0.684   1.566  0.0459  0.2168  0.1158
   49SOL    HW1  194   1.723   0.635   1.640  0.9985  0.7720  1.1649
   49SOL    HW2  195   1.722   0.648   1.484 -0.1714 -1.6384  0.7014
   49SOL     MW  196   1.695   0.673   1.565  0.1430  0.0453  0.3315
   50SOL     OW  197   1.313   1.221   0.621 -0.5285 -0.5085 -0.2447
   50SOL    HW1  198   1.232   1.213   0.683  4.0210  2.4760 -0.3287
   50SOL    HW2  199   1.385   1.161   0.664  1.6110 -2.2506  0.1784
   50SOL     MW  200   1.312   1.212   0.635  0.3541 -0.3446 -0.1999
   51SOL     OW  201   0.311   2.869   0.838  0.3841  0.6264  0.6012
   51SOL    HW1  202   0.399   2.844   0.870 -0.6105  0.9204 -2.8084
   51SOL    HW2  203   0.278   2.916   0.910 -0.8009 -2.3616 -2.6478
   51SOL     MW  204   0.318   2.872   0.852  0.0965  0.2709 -0.2774
   52SOL     OW  205   0.791   1.811   0.470 -0.1772 -0.0256  0.3947
   52SOL    HW1  206   0.774   1.905   0.489  0.4671  1.6305  1.2147
   52SOL    HW2  207   0.823   1.811   0.378 -1.8830  0.5633 -0.2148
   52SOL     MW  208   0.793   1.824   0.460 -0.3173  0.2706  0.4224
   53SOL     OW  209   0.491   2.171   0.574  0.1368 -0.3849  1.0086
   53SOL    HW1  210   0.428   2.149   0.502  1.4305  1.6770 -2.7755
   53SOL    HW2  211   0.469   2.259   0.599  1.0431 -1.9729 -1.6248
   53SOL     MW  212   0.480   2.180   0.568  0.4271 -0.3224  0.1619
   54SOL     OW  213   2.045   0.983   0.736  0.1977 -0.1384  0.0948
   54SOL    HW1  214   2.124   0.998   0.686  0.4883 -0.1012  2.8934
   54SOL    HW2  215   2.039   0.889   0.761 -0.7341  1.1797  0.0051
   54SOL     MW  216   2.055   0.973   0.733  0.1131  0.0404  0.4522
   55SOL     OW  217   0.442   1.514   1.696 -0.3660 -0.0276  0.6218
   55SOL    HW1  218   0.375   1.551   1.641  0.3411 -0.4739  1.4200
   55SOL    HW2  219   0.516   1.481   1.637 -1.9873 -1.8854  0.3174
   55SOL     MW  220   0.443   1.514   1.681 -0.4866 -0.3316  0.6870
   56SOL     OW  221   0.669   0.922   0.151 -0.4295  0.2637 -0.2906
   56SOL    HW1  222   0.653   1.015   0.142  1.1169 -0.6227  0.3304
   56SOL    HW2  223   0.579   0.894   0.128 -1.0711  1.2995 -0.2263
   56SOL     MW  224   0.655   0.931   0.147 -0.3101  0.2834 -0.2002
   57SOL     OW  225   1.101   1.275   1.152 -0.1463  0.1338  0.4041
   57SOL    HW1  226   1.191   1.305   1.168 -2.0301  2.0805 -0.6102
   57SOL    HW2  227   1.074   1.215   1.226 -0.3901  1.7163 -1.0182
   57SOL     MW  228   1.109   1.271   1.164 -0.4270  0.5994  0.0826
   58SOL     OW  229   0.450   1.277   1.292  0.8052 -0.2077  0.2335
   58SOL    HW1  230   0.406   1.360   1.266 -2.2869 -1.8848  1.0520
   58SOL    HW2  231   0.446   1.259   1.383  2.5359 -3.2213 -1.9492
   58SOL     MW  232   0.443   1.286   1.301  0.6256 -0.8266  0.0535
   59SOL     OW  233   1.431   1.679   0.385  0.2249  0.0335 -0.0202
   59SOL    HW1  234   1.487   1.728   0.441  1.2556 -0.4221 -1.6297
   59SOL    HW2  235   1.373   1.646   0.451 -0.2454 -2.5249  3.1998
   59SOL     MW  236   1.431   1.681   0.401  0.2989 -0.3642  0.1923
   60SOL     OW  237   3.099   0.172   1.624  0.0469  0.5927 -0.2603
   60SOL    HW1  238   3.023   0.222   1.651  1.4186 -0.2799  0.0301
   60SOL    HW2  239   3.137   0.132   1.703  2.2787 -4.2588  1.2347
   60SOL     MW  240   3.094   0.173   1.638  0.5223 -0.1625 -0.0247
   61SOL     OW  241   1.953   1.349   2.977  0.0582 -0.5004  0.3490
   61SOL    HW1  242   1.927   1.335   3.066 -0.3354 -1.1486 -0.4878
   61SOL    HW2  243   2.035   1.298   2.960 -0.2981 -2.3342 -1.1772
   61SOL     MW  244   1.961   1.340   2.987 -0.0408 -0.8279  0.0372
   62SOL     OW  245   0.584   1.723   0.660  0.0930 -0.4210 -0.0215
   62SOL    HW1  246   0.672   1.727   0.620  1.1127 -0.7108  1.6243
   62SOL    HW2  247   0.568   1.635   0.696 -0.9003 -0.0031  0.7259
   62SOL     MW  248   0.593   1.712   0.659  0.0965 -0.4041  0.2942
   63SOL     OW  249   1.749   0.721   0.623 -0.4285 -0.1295 -0.2905
   63SOL    HW1  250   1.729   0.798   0.567 -2.8712  0.3706 -1.2499
   63SOL    HW2  251   1.664   0.702   0.668  1.5652  0.8228 -1.0981
   63SOL     MW  252   1.735   0.729   0.622 -0.4877  0.0621 -0.5237
   64SOL     OW  253   0.277   1.679   0.716  0.4735 -0.6631 -0.4809
   64SOL    HW1  254   0.337   1.755   0.727 -0.6782  2.1613  0.9086
   64SOL    HW2  255   0.185   1.706   0.697 -2.9899  1.8814 -0.0094
   64SOL     MW  256   0.273   1.692   0.715 -0.1354  0.0453 -0.2354
   65SOL     OW  257   1.484   2.292   0.390  0.4649 -0.4149 -0.0867
   65SOL    HW1  258   1.574   2.323   0.392 -3.5656  1.9314  1.1936
   65SOL    HW2  259   1.445   2.356   0.453  1.0683  1.1804 -0.6705
   65SOL     MW  260   1.491   2.304   0.399  0.0127  0.1051  0.0052
   66SOL     OW  261   0.394   0.585   0.488 -0.0785  0.2024  0.8068
   66SOL    HW1  262   0.462   0.578   0.418  1.6738  0.1503 -1.1706
   66SOL    HW2  263   0.370   0.676   0.494  0.2117  0.2672 -2.8901
   66SOL     MW  264   0.400   0.596   0.479  0.1910  0.2040  0.0582
   67SOL     OW  265   1.441   0.044   1.989  0.1798  0.5243 -0.1180
   67SOL    HW1  266   1.437   0.057   1.894 -2.3370 -0.2474  0.8530
   67SOL    HW2  267   1.381  -0.030   2.001 -2.2342 -0.6048  0.9851
   67SOL     MW  268   1.433   0.036   1.978 -0.4708  0.2735  0.1556
   68SOL     OW  269   0.752   0.066   2.952 -0.1431  0.3792  0.1391
   68SOL    HW1  270   0.752   0.109   2.863  1.5054  1.6149  1.7392
   68SOL    HW2  271   0.831   0.097   2.981 -0.4732 -0.9557 -1.4849
   68SOL     MW  272   0.762   0.076   2.944  0.0308  0.3661  0.1360
   69SOL     OW  273   1.073   0.234   1.931  0.6364  1.0821  0.5952
   69SOL    HW1  274   1.155   0.278   1.957  1.9356  2.4632  2.6685
   69SOL    HW2  275   1.066   0.154   1.987  2.4436  0.0492 -0.7704
   69SOL     MW  276   1.083   0.229   1.942  1.0463  1.1280  0.6886
   70SOL     OW  277   0.503   1.740   1.090  0.2043 -0.3582  0.4782
   70SOL    HW1  278   0.566   1.806   1.111 -0.6139 -0.5497 -1.1864
   70SOL    HW2  279   0.539   1.675   1.026 -0.6095 -0.4761 -1.9687
   70SOL     MW  280   0.516   1.740   1.084 -0.0110 -0.3990 -0.0643
   71SOL     OW  281   1.541   0.565   1.257  0.3939 -0.3024  0.2342
   71SOL    HW1  282   1.476   0.619   1.309 -2.2879  0.8348  1.0870
   71SOL    HW2  283   1.532   0.606   1.171 -1.3589  0.2413  2.0060
   71SOL     MW  284   1.531   0.577   1.252 -0.1912 -0.0806  0.5805
   72SOL     OW  285   0.806   1.842   1.013  0.1934  0.1999 -0.3721
   72SOL    HW1  286   0.799   1.920   0.949  0.9140  0.4601 -1.1102
   72SOL    HW2  287   0.806   1.778   0.944 -1.2233 -0.8551 -0.8365
   72SOL     MW  288   0.805   1.844   0.996  0.1016  0.0951 -0.5308
   73SOL     OW  289   1.126   0.665   1.244 -0.3218 -0.1971 -0.7545
   73SOL    HW1  290   1.074   0.585   1.279  0.4435  2.1560 -2.3797
   73SOL    HW2  291   1.099   0.731   1.309  1.4143  2.1876 -1.1577
   73SOL     MW  292   1.115   0.663   1.258  0.0082  0.4280 -1.0222
   74SOL     OW  293   2.783   0.092   0.975 -0.7112 -0.1166  0.1460
   74SOL    HW1  294   2.866   0.090   0.927  0.8173  3.9182 -0.2886
   74SOL    HW2  295   2.737   0.175   0.964 -1.2644 -2.8789  0.3531
   74SOL     MW  296   2.788   0.103   0.967 -0.5825  0.0513  0.1160
   75SOL     OW  297   1.526   1.353   0.148 -0.4418  0.2527  0.2156
   75SOL    HW1  298   1.580   1.294   0.097 -1.3629 -0.5657 -1.0282
   75SOL    HW2  299   1.569   1.350   0.238  1.2384  1.0523  2.6456
   75SOL     MW  300   1.539   1.345   0.153 -0.3417  0.2502  0.3721
   76SOL     OW  301   3.025   0.683   0.510  0.4902  0.5498 -0.0449
   76SOL    HW1  302   3.034   0.740   0.596 -0.3187 -0.5652  2.9527
   76SOL    HW2  303   3.105   0.629   0.496 -1.1359  1.2562  0.0992
   76SOL     MW  304   3.037   0.683   0.520  0.1689  0.4959  0.3696
   77SOL     OW  305   0.836   0.625   0.447 -0.2203  0.0684  0.4685
   77SOL    HW1  306   0.811   0.650   0.356 -2.5440 -0.5532  0.6817
   77SOL    HW2  307   0.785   0.541   0.462 -0.5651  0.1137 -2.0743
   77SOL     MW  308   0.826   0.617   0.437 -0.5723 -0.0076  0.1612
   78SOL     OW  309   0.774   0.890   1.090  0.4901 -0.1769 -0.4464
   78SOL    HW1  310   0.764   0.968   1.039  0.1766 -1.5078  1.8130
   78SOL    HW2  311   0.686   0.885   1.130 -0.6142 -0.7120  0.9452
   78SOL     MW  312   0.761   0.899   1.088  0.3030 -0.4231  0.0353
   79SOL     OW  313   1.846   1.505   0.561 -0.4719 -0.1605 -0.4113
   79SOL    HW1  314   1.756   1.473   0.566 -1.2093 -1.5056 -1.8004
   79SOL    HW2  315   1.889   1.515   0.650  1.2346 -3.0898  0.3121
   79SOL     MW  316   1.840   1.502   0.573 -0.3441 -0.7245 -0.4991
   80SOL     OW  317   0.133   1.009   0.311  0.8026 -0.5100 -0.1651
   80SOL    HW1  318   0.104   0.952   0.245  3.6844 -1.3995 -0.3620
   80SOL    HW2  319   0.188   0.959   0.375  0.4349  1.2773  0.2157
   80SOL     MW  320   0.136   0.995   0.310  1.1343 -0.3916 -0.1408
   81SOL     OW  321   1.793   1.863   0.365  0.7403 -0.1671 -0.0155
   81SOL    HW1  322   1.784   1.780   0.327  1.5010  1.1916  1.6222
   81SOL    HW2  323   1.734   1.921   0.306  0.1849  1.1004  1.3335
   81SOL     MW  324   1.784   1.860   0.352  0.7674  0.1794  0.3786
   82SOL     OW  325   0.959   1.040   0.542  0.2748 -0.3709  0.6685
   82SOL    HW1  326   0.908   1.097   0.488  1.6985  1.5097  0.5987
   82SOL    HW2  327   0.924   0.952   0.538 -0.0327  1.3555 -0.9893
   82SOL     MW  328   0.948   1.036   0.534  0.4221  0.1050  0.4406
   83SOL     OW  329   0.047   0.739   1.560 -0.0826 -0.2355  0.2880
   83SOL    HW1  330   0.042   0.804   1.482 -0.2359 -4.3665  1.8402
   83SOL    HW2  331   0.130   0.695   1.531 -0.1096  1.4735 -1.6638
   83SOL     MW  332   0.057   0.742   1.546 -0.1064 -0.5551  0.2352
   84SOL     OW  333   0.042   0.175   0.934 -0.1988 -0.3613  0.3379
   84SOL    HW1  334   0.025   0.258   0.980 -0.7296 -0.6623  0.0192
   84SOL    HW2  335   0.039   0.119   1.014  1.1933  0.7108 -0.3423
   84SOL     MW  336   0.039   0.179   0.951 -0.0851 -0.2596  0.2061
   85SOL     OW  337   0.334   0.492   0.764 -0.8423  0.1950  0.3577
   85SOL    HW1  338   0.340   0.512   0.671  2.1764 -0.9686  1.2465
   85SOL    HW2  339   0.319   0.397   0.775  0.9480  1.8995  2.2371
   85SOL     MW  340   0.333   0.482   0.753 -0.2078  0.2664  0.7229
   86SOL     OW  341   1.226   0.275   1.157 -0.1042 -0.1162 -0.4724
   86SOL    HW1  342   1.213   0.360   1.111  1.7383 -1.4304 -0.2948
   86SOL    HW2  343   1.303   0.287   1.215 -0.4744  0.3308  0.5274
   86SOL     MW  344   1.234   0.288   1.159  0.0901 -0.2306 -0.3170
   87SOL     OW  345   1.037   1.544   1.188 -0.0733 -0.2335 -0.4598
   87SOL    HW1  346   1.096   1.610   1.154 -1.8619  3.3346  1.5188
   87SOL    HW2  347   1.070   1.457   1.168 -0.6699 -1.9592 -1.3867
   87SOL     MW  348   1.049   1.541   1.181 -0.3880  0.0096 -0.3211
   88SOL     OW  349   1.211   1.081   1.000 -0.4683 -0.0498 -0.3530
   88SOL    HW1  350   1.308   1.102   1.000  0.1910 -1.4687  0.9381
   88SOL    HW2  351   1.171   1.131   1.072 -2.9730  0.3872 -0.7587
   88SOL     MW  352   1.218   1.091   1.010 -0.7118 -0.1794 -0.2362
   89SOL     OW  353   1.786   0.701   0.236  0.0614  0.0421 -0.4923
   89SOL    HW1  354   1.737   0.634   0.280 -2.2834  0.7297 -0.1905
   89SOL    HW2  355   1.870   0.707   0.283  0.2659 -2.6641 -1.7671
   89SOL     MW  356   1.791   0.693   0.248 -0.2210 -0.2242 -0.6207
   90SOL     OW  357   0.790   1.233   2.867 -0.7077  0.0196 -0.4133
   90SOL    HW1  358   0.856   1.164   2.885 -1.1671 -0.7203 -2.9509
   90SOL    HW2  359   0.798   1.290   2.944  0.9188 -3.1554 -1.4225
   90SOL     MW  360   0.800   1.231   2.879 -0.5537 -0.4970 -0.8813
   91SOL     OW  361   2.202   0.602   0.459  0.3403 -0.1529  0.0963
   91SOL    HW1  362   2.269   0.637   0.401 -1.4493 -2.5533  1.2720
   91SOL    HW2  363   2.219   0.508   0.455  1.5921  1.0991 -1.4772
   91SOL     MW  364   2.213   0.594   0.451  0.2693 -0.3044  0.0438
   92SOL     OW  365   1.630   0.963   0.539 -0.0151  0.5479 -0.3813
   92SOL    HW1  366   1.579   0.987   0.613  1.3545 -0.4509 -0.7534
   92SOL    HW2  367   1.607   1.005   0.455 -1.4857 -2.1817 -0.1956
   92SOL     MW  368   1.620   0.971   0.538 -0.0284  0.0560 -0.4059
   93SOL     OW  369   1.049   0.290   0.352  0.2094  0.1473  0.5983
   93SOL    HW1  370   0.965   0.335   0.367  0.4175  0.8418 -2.4686
   93SOL    HW2  371   1.094   0.318   0.266  0.3999 -1.0939 -0.3852
   93SOL     MW  372   1.044   0.300   0.343  0.2620  0.0752  0.0639
   94SOL     OW  373   1.875   1.383   1.571  0.3920  0.2151 -0.2745
   94SOL    HW1  374   1.822   1.395   1.489  1.6759 -3.8735  0.9872
   94SOL    HW2  375   1.849   1.294   1.602 -0.0315 -0.6612  0.4941
   94SOL     MW  376   1.865   1.373   1.564  0.5055 -0.4400 -0.0066
   95SOL     OW  377   0.585   1.548   0.911  0.4506 -0.1912  0.5043
   95SOL    HW1  378   0.655   1.527   0.971 -2.5165  3.9328 -1.1387
   95SOL    HW2  379   0.540   1.464   0.892  0.3057  0.8214  1.5062
   95SOL     MW  380   0.588   1.534   0.916  0.0400  0.4865  0.4197
   96SOL     OW  381   1.348   1.851   1.677  0.3089  0.2227  0.9684
   96SOL    HW1  382   1.256   1.850   1.713 -2.1070 -0.2029 -1.9197
   96SOL    HW2  383   1.360   1.769   1.627 -0.6669  1.5013 -1.1731
   96SOL     MW  384   1.338   1.840   1.675 -0.1386  0.3353  0.3048
   97SOL     OW  385   1.088   1.552   0.841  0.1388  0.4165 -0.4346
   97SOL    HW1  386   1.144   1.612   0.898 -0.4438  1.4731  0.1850
   97SOL    HW2  387   0.999   1.574   0.867  0.5559  2.9862 -0.7287
   97SOL     MW  388   1.084   1.563   0.852  0.1170  0.8950 -0.3917
   98SOL     OW  389   1.334   1.408   1.176 -0.3881 -0.1093  0.1499
   98SOL    HW1  390   1.412   1.420   1.237  0.2701 -0.1736  1.3733
   98SOL    HW2  391   1.365   1.437   1.089  1.5260  2.6144  0.4739
   98SOL     MW  392   1.348   1.414   1.172 -0.0487  0.2416  0.3541
   99SOL     OW  393   1.494   0.293   1.335  0.3792  0.1475  0.0700
   99SOL    HW1  394   1.514   0.377   1.287 -2.6489 -3.9126 -0.2226
   99SOL    HW2  395   1.444   0.319   1.416  0.4280  0.6684  3.9857
   99SOL     MW  396   1.490   0.307   1.339 -0.0139 -0.3194  0.5480
  100SOL     OW  397   1.068   1.133   1.377 -0.5334 -0.1066 -0.3838
  100SOL    HW1  398   1.060   1.154   1.470  2.4189 -1.7085  1.0614
  100SOL    HW2  399   1.102   1.039   1.383  1.1124 -0.7331  0.2261
  100SOL     MW  400   1.071   1.124   1.390  0.0733 -0.4006 -0.1127
  101SOL     OW  401   0.549   1.210   0.416 -0.1648  0.1241  0.0100
  101SOL    HW1  402   0.484   1.200   0.337 -0.0080  0.5934 -3.0981
  101SOL    HW2  403   0.635   1.212   0.373 -0.8161 -1.1368  0.0438
  101SOL     MW  404   0.552   1.209   0.400 -0.2300  0.0197 -0.3956
  102SOL     OW  405   2.947   0.641   1.101  0.5541 -0.1710  0.0507
  102SOL    HW1  406   2.976   0.727   1.090 -0.2395 -0.9401  1.0317
  102SOL    HW2  407   2.934   0.641   1.198  0.8544 -0.9822  2.6450
  102SOL     MW  408   2.949   0.652   1.112  0.4890 -0.3795  0.5224
  103SOL     OW  409   1.854   0.275   1.795 -0.0350  0.1210 -0.3521
  103SOL    HW1  410   1.856   0.184   1.770 -0.0718  2.7729 -0.1897
  103SOL    HW2  411   1.865   0.276   1.894  0.6174 -0.4980 -0.4848
  103SOL     MW  412   1.856   0.263   1.805  0.0462  0.3892 -0.3482
  104SOL     OW  413   0.053   1.527   1.658 -0.8349  0.3228  0.2610
  104SOL    HW1  414   0.099   1.439   1.689 -0.0576 -0.3120  0.6574
  104SOL    HW2  415  -0.036   1.499   1.667  0.8301  0.8796 -2.5437
  104SOL     MW  416   0.047   1.511   1.663 -0.5127  0.3125 -0.0567
  105SOL     OW  417  -0.003   1.226   0.398  0.6904  0.2424  0.2214
  105SOL    HW1  418   0.058   1.152   0.395 -2.5608 -1.3262 -1.5271
  105SOL    HW2  419   0.047   1.308   0.388 -0.4920 -1.5843 -0.8460
  105SOL     MW  420   0.011   1.227   0.397  0.1054 -0.2056 -0.1501
  106SOL     OW  421   0.784   0.310   0.823 -0.1609 -0.9696 -0.0489
  106SOL    HW1  422   0.713   0.347   0.881  0.6214  0.7340  2.0451
  106SOL    HW2  423   0.862   0.357   0.850 -1.6876 -0.6639 -2.3520
  106SOL     MW  424   0.785   0.321   0.834 -0.2591 -0.7045 -0.0765
  107SOL     OW  425   0.823   2.207   2.884 -0.1395  0.4759  0.2175
  107SOL    HW1  426   0.740   2.204   2.846  1.7969 -0.5994  0.4957
  107SOL    HW2  427   0.802   2.185   2.979  0.7089  0.6227  0.8191
  107SOL     MW  428   0.809   2.204   2.891  0.2279  0.3534  0.3335
  108SOL     OW  429   1.373   1.582   1.641 -0.3238 -0.1104 -0.3419
  108SOL    HW1  430   1.309   1.547   1.580  0.1382 -1.2856  3.4897
  108SOL    HW2  431   1.451   1.527   1.649  2.6774 -3.8371 -1.1041
  108SOL     MW  432   1.375   1.570   1.634  0.1331 -0.7572  0.0631
  109SOL     OW  433   2.024   0.759   0.319  0.1841 -0.1373  1.0008
  109SOL    HW1  434   2.026   0.860   0.321  0.1790  1.5755  0.4088
  109SOL    HW2  435   2.071   0.725   0.396  0.4906 -0.0176  0.7732
  109SOL     MW  436   2.030   0.768   0.330  0.2239  0.1044  0.8927
  110SOL     OW  437   0.424   1.910   0.738 -0.6005  0.2269  0.2117
  110SOL    HW1  438   0.486   1.842   0.717  1.4085  3.3756  1.0239
  110SOL    HW2  439   0.454   1.987   0.684 -2.9840  1.3089  1.9127
  110SOL     MW  440   0.436   1.911   0.728 -0.6499  0.7851  0.5433
  111SOL     OW  441   0.851   0.867   1.370  0.3826 -0.6508 -0.2960
  111SOL    HW1  442   0.815   0.869   1.283  2.4800  0.0523 -0.6653
  111SOL    HW2  443   0.830   0.785   1.414 -2.2731 -0.4168 -0.2910
  111SOL     MW  444   0.844   0.856   1.364  0.3089 -0.5272 -0.3440
  112SOL     OW  445   1.402   1.100   1.583 -0.1240  0.2022  0.3380
  112SOL    HW1  446   1.342   1.174   1.600  0.6467 -0.6194  1.4672
  112SOL    HW2  447   1.362   1.018   1.607  0.2520 -0.4230  1.6217
  112SOL     MW  448   1.389   1.099   1.588  0.0273  0.0113  0.6564
  113SOL     OW  449   1.216   3.011   1.708  0.4042 -0.5425  0.5171
  113SOL    HW1  450   1.182   2.977   1.792  1.4286  0.2876  1.7461
  113SOL    HW2  451   1.218   2.942   1.645  0.9124  1.1152  2.1629
  113SOL     MW  452   1.212   2.997   1.711  0.6064 -0.2143  0.8964
  114SOL     OW  453   0.285   2.868   1.786  1.0176  0.0443 -0.8834
  114SOL    HW1  454   0.356   2.930   1.823  0.1807 -0.7757  0.1739
  114SOL    HW2  455   0.210   2.892   1.837  2.2266 -0.7549  0.1855
  114SOL     MW  456   0.284   2.879   1.798  1.0667 -0.1694 -0.6028
  115SOL     OW  457   0.513   0.841   1.192  0.0240  0.3257  0.1856
  115SOL    HW1  458   0.501   0.750   1.212 -0.1954 -0.2331 -1.2469
  115SOL    HW2  459   0.437   0.893   1.243 -0.8394  2.1226  1.1572
  115SOL     MW  460   0.501   0.836   1.202 -0.1188  0.4890  0.1248
  116SOL     OW  461   0.719   1.119   0.961 -0.5259  0.1764 -0.3554
  116SOL    HW1  462   0.762   1.133   0.868  0.1977  1.8048 -0.9958
  116SOL    HW2  463   0.761   1.181   1.017  0.2932 -1.3225 -2.2453
  116SOL     MW  464   0.730   1.129   0.956 -0.3224  0.1934 -0.6893
  117SOL     OW  465   1.123   1.272   0.809  0.0365  0.5197 -0.3038
  117SOL    HW1  466   1.154   1.238   0.889  0.9371  2.0993 -1.0282
  117SOL    HW2  467   1.128   1.371   0.828  0.5335 -0.3275  0.4376
  117SOL     MW  468   1.128   1.280   0.822  0.2209  0.6164 -0.3016
  118SOL     OW  469   3.021   2.943   1.795  0.9646 -0.0428  0.7840
  118SOL    HW1  470   3.045   3.012   1.854 -0.1195 -2.0888  1.6886
  118SOL    HW2  471   2.941   2.973   1.749 -0.5600  0.8802 -1.0571
  118SOL     MW  472   3.014   2.956   1.796  0.6204 -0.1910  0.6605
  119SOL     OW  473   0.363   1.540   1.236  0.0891  0.2303 -0.1755
  119SOL    HW1  474   0.406   1.598   1.172 -1.8202  1.3987  1.6673
  119SOL    HW2  475   0.271   1.554   1.212  2.1162  0.5893 -2.7110
  119SOL     MW  476   0.357   1.549   1.225  0.1047  0.4318 -0.2669
  120SOL     OW  477   0.266   0.822   0.995  0.1387  0.5827  0.0977
  120SOL    HW1  478   0.334   0.763   1.024 -1.0961 -0.0218  2.6840
  120SOL    HW2  479   0.323   0.878   0.943  2.0134 -0.9322 -0.4175
  120SOL     MW  480   0.282   0.822   0.992  0.2231  0.3030  0.3709
  121SOL     OW  481   1.772   1.135   1.612  0.2674 -0.0769 -0.0250
  121SOL    HW1  482   1.704   1.141   1.545 -0.9926  1.3447  0.2989
  121SOL    HW2  483   1.819   1.058   1.593 -3.5934  0.1015 -3.5802
  121SOL     MW  484   1.769   1.126   1.600 -0.4083  0.1342 -0.4514
  122SOL     OW  485   0.117   0.616   0.845 -0.3629  0.2343 -0.0278
  122SOL    HW1  486   0.199   0.576   0.812  2.2427 -2.6011  1.9845
  122SOL    HW2  487   0.153   0.680   0.902 -0.4152 -2.1587 -1.2872
  122SOL     MW  488   0.133   0.619   0.848 -0.0260 -0.4555  0.0716
  123SOL     OW  489   1.868   1.097   0.530 -0.3159 -0.0012 -0.3058
  123SOL    HW1  490   1.779   1.082   0.562 -0.2162 -1.8751 -0.6076
  123SOL    HW2  491   1.925   1.054   0.598 -0.1396  1.3323  1.7208
  123SOL     MW  492   1.864   1.090   0.543 -0.2795 -0.0725 -0.0783
  124SOL     OW  493   0.588   0.445   0.966  0.6148  0.1069 -0.0612
  124SOL    HW1  494   0.512   0.429   0.911  2.5013 -1.7169 -1.2947
  124SOL    HW2  495   0.613   0.531   0.929  0.6718 -0.4280 -2.3036
  124SOL     MW  496   0.581   0.454   0.954  0.8712 -0.2043 -0.5198
  125SOL     OW  497   0.685   1.733   1.785 -0.0639 -0.3678 -0.4336
  125SOL    HW1  498   0.659   1.677   1.714  2.1773 -0.5491 -0.8747
  125SOL    HW2  499   0.616   1.809   1.783  1.2136  0.3991  1.6020
  125SOL     MW  500   0.673   1.736   1.775  0.4003 -0.2905 -0.2232
  126SOL     OW  501   2.139   1.527   1.910 -0.3281  0.6499 -0.2678
  126SOL    HW1  502   2.205   1.592   1.895  1.1251 -1.2063  0.9680
  126SOL    HW2  503   2.182   1.441   1.916 -0.3723  1.3586  0.5090
  126SOL     MW  504   2.153   1.524   1.908 -0.1422  0.4985 -0.0023
  127SOL     OW  505   0.543   0.785   1.803 -0.5658  0.1199  0.4158
  127SOL    HW1  506   0.639   0.764   1.797  3.4385  1.0011 -3.0172
  127SOL    HW2  507   0.526   0.831   1.881  0.4618 -0.1127 -0.6543
  127SOL     MW  508   0.554   0.789   1.812  0.0981  0.2055 -0.1783
  128SOL     OW  509   1.751   0.709   2.902 -0.2292 -0.3841  0.4988
  128SOL    HW1  510   1.784   0.702   2.809 -1.7390 -1.5626 -4.6404
  128SOL    HW2  511   1.741   0.801   2.911  1.9258  0.5078 -1.2104
  128SOL     MW  512   1.754   0.720   2.891 -0.1441 -0.4219 -0.4048
  129SOL     OW  513   1.575   0.892   0.187 -0.2212 -1.0307  0.0230
  129SOL    HW1  514   1.538   0.832   0.126 -0.4775  0.4511  0.5847
  129SOL    HW2  515   1.635   0.836   0.228 -0.2341 -1.7693 -1.7762
  129SOL     MW  516   1.578   0.877   0.184 -0.2567 -0.9326 -0.1403
  130SOL     OW  517   0.828   1.451   0.316 -0.2889  0.5040  0.2182
  130SOL    HW1  518   0.797   1.475   0.407  1.9705  2.2475 -0.8817
  130SOL    HW2  519   0.923   1.480   0.305  3.8418  0.4425  0.4022
  130SOL     MW  520   0.836   1.458   0.327  0.5542  0.7259  0.0974
  131SOL     OW  521   0.055   0.790   0.085  0.2880  0.2903  0.3475
  131SOL    HW1  522   0.045   0.832   0.001  0.1971  0.7946  3.7184
  131SOL    HW2  523   0.135   0.743   0.080  0.3639  0.0840  2.0525
  131SOL     MW  524   0.064   0.789   0.073  0.2860  0.3296  1.0172
  132SOL     OW  525   2.752   0.090   1.253  0.1251 -0.2057  0.0758
  132SOL    HW1  526   2.782   0.098   1.163  2.9373 -0.7724 -2.7630
  132SOL    HW2  527   2.663   0.075   1.230 -0.6952 -0.3062 -2.3570
  132SOL     MW  528   2.744   0.089   1.238  0.3879 -0.2937 -0.6198
  133SOL     OW  529   1.046   0.137   1.672 -0.6579  0.0870 -0.3334
  133SOL    HW1  530   1.118   0.073   1.686  0.0510 -1.1375  0.3083
  133SOL    HW2  531   1.046   0.183   1.756  0.0706  0.6034 -2.4259
  133SOL     MW  532   1.056   0.134   1.685 -0.4682 -0.0065 -0.5248
  134SOL     OW  533   1.418   2.448   1.482  0.1557  0.8918 -0.3720
  134SOL    HW1  534   1.366   2.512   1.438 -1.6540 -1.0645 -2.4311
  134SOL    HW2  535   1.473   2.503   1.541 -1.5843  0.0894 -1.9961
  134SOL     MW  536   1.418   2.464   1.484 -0.3127  0.5278 -0.8579
  135SOL     OW  537   3.017   0.988   2.973  0.3193 -0.3007 -0.4716
  135SOL    HW1  538   3.091   1.055   2.988  2.0519 -0.9612  0.1585
  135SOL    HW2  539   2.933   1.034   2.945 -0.5168 -0.7064  0.5574
  135SOL     MW  540   3.016   1.003   2.971  0.4376 -0.4414 -0.2527
  136SOL     OW  541   0.189   1.971   0.870  0.0962  0.2134 -0.1199
  136SOL    HW1  542   0.130   1.919   0.814  3.4079  0.0375  0.6598
  136SOL    HW2  543   0.273   1.960   0.823  0.6486  1.4158  2.2068
  136SOL     MW  544   0.193   1.962   0.856  0.6061  0.3489  0.2899
  137SOL     OW  545   0.759   2.075   0.575 -0.1152  0.4132  0.3191
  137SOL    HW1  546   0.787   2.080   0.670  1.1758 -1.5173  1.6546
  137SOL    HW2  547   0.661   2.088   0.585  0.5502 -1.1647 -1.2177
  137SOL     MW  548   0.750   2.078   0.589  0.1429 -0.0497  0.2926
  138SOL     OW  549   0.471   0.573   1.202 -0.0862  0.1217 -0.8693
  138SOL    HW1  550   0.386   0.533   1.220  1.8058  3.0074 -0.7573
  138SOL    HW2  551   0.508   0.519   1.128 -0.2040 -1.6292 -0.9176
  138SOL     MW  552   0.465   0.561   1.194  0.1479  0.2715 -0.8609
  139SOL     OW  553   2.845   0.542   1.354 -0.0044 -0.3914  0.0645
  139SOL    HW1  554   2.909   0.468   1.340 -0.8410  0.2417  0.2263
  139SOL    HW2  555   2.876   0.585   1.435 -1.1902 -0.6686 -0.8554
  139SOL     MW  556   2.858   0.538   1.363 -0.2712 -0.3444 -0.0355
  140SOL     OW  557   0.870   0.445   1.973 -0.0350  0.3671 -0.1485
  140SOL    HW1  558   0.936   0.374   1.972  0.6611 -0.8395 -1.4597
  140SOL    HW2  559   0.854   0.452   2.066 -0.8700 -3.2712 -0.8983
  140SOL     MW  560   0.877   0.437   1.985 -0.0533 -0.2721 -0.4204
  141SOL     OW  561   1.044   0.605   1.635  0.5433  0.4382  0.6535
  141SOL    HW1  562   1.059   0.517   1.602  1.1741  1.3096 -1.2881
  141SOL    HW2  563   1.117   0.664   1.610 -1.2857 -0.7314 -0.0557
  141SOL     MW  564   1.055   0.601   1.628  0.3852  0.3988  0.3038
  142SOL     OW  565   0.871   1.208   0.744 -0.0528 -0.2570 -0.0671
  142SOL    HW1  566   0.884   1.154   0.667  0.1475  1.3412  0.6022
  142SOL    HW2  567   0.958   1.237   0.773 -2.1181  0.7408  2.5964
  142SOL     MW  568   0.884   1.205   0.738 -0.2988  0.0856  0.3727
  143SOL     OW  569   1.826   0.707   1.026  0.0534  0.7257  0.1818
  143SOL    HW1  570   1.864   0.682   0.944 -1.5356  0.6550 -0.8571
  143SOL    HW2  571   1.730   0.699   1.020  0.7435  2.7732 -4.8146
  143SOL     MW  572   1.818   0.702   1.015 -0.0652  0.9865 -0.6145
  144SOL     OW  573   0.260   1.318   1.729  0.3406  0.3424 -0.0126
  144SOL    HW1  574   0.338   1.372   1.703  2.6486 -3.2397  0.6508
  144SOL    HW2  575   0.304   1.272   1.801 -1.4717  1.4593 -1.4757
  144SOL     MW  576   0.276   1.319   1.735  0.4060  0.0171 -0.1181
  145SOL     OW  577   0.180   0.470   1.251  0.7893  1.0130  0.0660
  145SOL    HW1  578   0.218   0.382   1.275 -1.5156 -0.0313 -0.9612
  145SOL    HW2  579   0.132   0.460   1.166  1.5704 -1.4611 -2.7297
  145SOL     MW  580   0.179   0.457   1.243  0.5882  0.5488 -0.4384
  146SOL     OW  581   0.792   1.925   1.464 -0.3345  0.2413  0.7864
  146SOL    HW1  582   0.812   1.958   1.371 -1.1400 -0.1067 -0.1116
  146SOL    HW2  583   0.721   1.857   1.455 -0.8204 -0.8124  1.7906
  146SOL     MW  584   0.786   1.920   1.450 -0.5049  0.0564  0.8004
  147SOL     OW  585   0.458   0.499   2.911  0.4688  0.1944 -0.0458
  147SOL    HW1  586   0.372   0.521   2.945  0.3749  1.3619  0.2417
  147SOL    HW2  587   0.445   0.548   2.831 -0.3688 -0.8533  0.3515
  147SOL     MW  588   0.445   0.509   2.905  0.3459  0.2102  0.0445
  148SOL     OW  589   0.072   0.918   1.339 -0.4584  0.5555  0.7986
  148SOL    HW1  590   0.166   0.938   1.343  2.4136 -1.5409  1.8503
  148SOL    HW2  591   0.032   1.003   1.347  0.4048 -0.0099  2.8328
  148SOL     MW  592   0.079   0.932   1.341  0.0344  0.2043  1.2057
  149SOL     OW  593   1.602   1.170   1.394  0.3912  0.3819 -0.4524
  149SOL    HW1  594   1.524   1.156   1.451  3.9756  0.4489 -2.8223
  149SOL    HW2  595   1.591   1.261   1.373 -0.5293 -0.4478  0.8932
  149SOL     MW  596   1.590   1.180   1.398  0.7426  0.2813 -0.5875
  150SOL     OW  597   1.724   1.460   0.891  0.5181  0.3131 -0.3318
  150SOL    HW1  598   1.792   1.395   0.905 -1.4479 -0.9316 -0.3318
  150SOL    HW2  599   1.766   1.547   0.886 -2.9010  2.3120  0.2339
  150SOL     MW  600   1.738   1.463   0.892 -0.1924  0.4126 -0.2571
  151SOL     OW  601   1.654   1.893   0.825 -0.4532 -0.2312  0.1531
  151SOL    HW1  602   1.646   1.873   0.728  0.1877 -0.1234  1.2232
  151SOL    HW2  603   1.578   1.855   0.869  0.0900 -1.3575 -0.2042
  151SOL     MW  604   1.643   1.886   0.818 -0.2970 -0.3656  0.2472
  152SOL     OW  605   0.649   1.413   1.565 -0.3686  0.6365 -0.2576
  152SOL    HW1  606   0.689   1.454   1.491  1.7669 -0.1410  4.0732
  152SOL    HW2  607   0.598   1.334   1.542  0.5012 -3.1325 -1.3722
  152SOL     MW  608   0.648   1.408   1.552  0.0279  0.0367  0.1668
  153SOL     OW  609   2.595   1.208   0.710  0.2064 -0.2022 -0.0253
  153SOL    HW1  610   2.676   1.170   0.675 -0.9398  1.8957 -0.3238
  153SOL    HW2  611   2.540   1.138   0.760 -2.0920  0.4043  2.1281
  153SOL     MW  612   2.598   1.194   0.712 -0.2481  0.1546  0.2194
  154SOL     OW  613   0.123   1.774   1.787  0.1032  0.2320  0.0533
  154SOL    HW1  614   0.102   1.682   1.748 -1.0181  1.5486  0.3178
  154SOL    HW2  615   0.215   1.779   1.779 -1.7914 -2.8996 -2.4804
  154SOL     MW  616   0.132   1.762   1.781 -0.2947 -0.0074 -0.2461
  155SOL     OW  617   1.221   0.715   0.269 -0.0675 -0.7937  0.3190
  155SOL    HW1  618   1.207   0.663   0.349  1.5012  2.4501 -1.2563
  155SOL    HW2  619   1.215   0.809   0.297  1.2010  1.3575  0.4851
  155SOL     MW  620   1.218   0.721   0.283  0.3068 -0.0818  0.1331
  156SOL     OW  621   1.550   0.008   1.091  0.3689  0.2844 -0.2014
  156SOL    HW1  622   1.604   0.043   1.158 -3.6366 -0.4478  1.4433
  156SOL    HW2  623   1.579  -0.082   1.085  0.5733 -0.0417  2.1475
  156SOL     MW  624   1.561   0.001   1.099 -0.1326  0.1447  0.3255
  157SOL     OW  625   1.332   1.153   0.172 -0.0493 -0.7977  0.3887
  157SOL    HW1  626   1.324   1.093   0.248  0.2939 -1.2913  2.7787
  157SOL    HW2  627   1.409   1.206   0.177 -3.1848  0.8198  0.6589
  157SOL     MW  628   1.341   1.152   0.182 -0.4177 -0.6494  0.7397
  158SOL     OW  629   0.418   1.671   2.236 -0.3618  0.2125 -0.3943
  158SOL    HW1  630   0.460   1.740   2.182  0.6135  1.0048 -0.5203
  158SOL    HW2  631   0.331   1.659   2.201 -0.6884 -0.1237 -2.1765
  158SOL     MW  632   0.412   1.679   2.224 -0.2762  0.2727 -0.6461
  159SOL     OW  633   1.200   1.626   0.551  0.3685  0.2556  0.0328
  159SOL    HW1  634   1.153   1.590   0.473  0.1846 -0.7380  0.8719
  159SOL    HW2  635   1.134   1.675   0.606 -1.3029  1.4575 -0.4617
  159SOL     MW  636   1.185   1.628   0.548  0.1237  0.2831  0.0782
  160SOL     OW  637   0.513   1.173   1.539 -0.0835 -0.3725 -0.5695
  160SOL    HW1  638   0.463   1.096   1.579 -0.2563  1.2002 -0.7416
  160SOL    HW2  639   0.586   1.125   1.498  0.8344  1.7458 -1.1179
  160SOL     MW  640   0.516   1.156   1.539  0.0148  0.1145 -0.6646
  161SOL     OW  641   0.431   2.239   2.673  0.7108 -0.1438  0.7729
  161SOL    HW1  642   0.353   2.279   2.624 -1.8725  1.7226 -0.1038
  161SOL    HW2  643   0.452   2.160   2.621 -0.5153  1.2405  0.5035
  161SOL     MW  644   0.423   2.234   2.660  0.2082  0.2851  0.6217
  162SOL     OW  645   1.066   1.818   1.793  0.3046 -0.0075  0.0490
  162SOL    HW1  646   1.067   1.908   1.828  1.5236 -2.0092 -1.6986
  162SOL    HW2  647   1.012   1.779   1.858  2.1116 -0.3368 -0.8334
  162SOL     MW  648   1.059   1.825   1.806  0.7039 -0.3151 -0.2980
  163SOL     OW  649   2.114   3.097   0.839  0.2965 -0.0677  0.1501
  163SOL    HW1  650   2.123   3.161   0.771 -0.2475  0.3574  0.1407
  163SOL    HW2  651   2.059   3.022   0.797 -0.3527 -1.3032  1.2458
  163SOL     MW  652   2.108   3.096   0.824  0.1391 -0.1746  0.2934
  164SOL     OW  653   0.283   0.230   0.815 -0.3361  0.3785  0.5424
  164SOL    HW1  654   0.196   0.219   0.859  1.2268 -1.6791  1.3496
  164SOL    HW2  655   0.296   0.153   0.763  0.4554  1.6254  0.5924
  164SOL     MW  656   0.273   0.218   0.814 -0.0255  0.2715  0.6555
  165SOL     OW  657   1.206   1.308   0.382 -0.1906  0.2400  0.7646
  165SOL    HW1  658   1.254   1.275   0.467 -0.5614  0.3746  1.4104
  165SOL    HW2  659   1.256   1.262   0.309 -1.5100  1.2743  0.9236
  165SOL     MW  660   1.219   1.298   0.383 -0.4136  0.3942  0.8708
  166SOL     OW  661   0.464   1.170   1.044 -0.4156  0.0681  0.7519
  166SOL    HW1  662   0.463   1.235   1.120 -3.9896 -0.7893 -0.3040
  166SOL    HW2  663   0.553   1.175   1.005  0.4963 -0.5292 -0.8514
  166SOL     MW  664   0.476   1.179   1.049 -0.7668 -0.1238  0.4011
  167SOL     OW  665   0.804   1.174   0.317 -0.1645 -0.2436  0.4426
  167SOL    HW1  666   0.820   1.266   0.336  1.8872 -0.5853  3.9263
  167SOL    HW2  667   0.875   1.134   0.262  2.4435 -0.3089 -0.0552
  167SOL     MW  668   0.815   1.181   0.312  0.4503 -0.2973  0.8366
  168SOL     OW  669   1.715   1.626   3.039 -0.2350  0.0642 -0.2400
  168SOL    HW1  670   1.661   1.704   3.011  1.5675  2.0508  1.7926
  168SOL    HW2  671   1.662   1.548   3.017 -3.2709  0.2499  1.2823
  168SOL     MW  672   1.701   1.626   3.032 -0.3978  0.3508  0.2290
  169SOL     OW  673   0.331   0.993   1.318  0.3989 -0.3871 -0.2745
  169SOL    HW1  674   0.364   0.985   1.404  0.9040 -1.7638 -1.6191
  169SOL    HW2  675   0.346   1.086   1.297  0.5541 -1.6080 -1.3540
  169SOL     MW  676   0.337   1.005   1.326  0.4860 -0.7298 -0.5943
  170SOL     OW  677   1.128   1.512   1.466 -0.0545 -0.0000  0.0666
  170SOL    HW1  678   1.104   1.606   1.447 -2.2774 -0.8727 -0.9196
  170SOL    HW2  679   1.144   1.478   1.380  1.1030  0.7623  0.7133
  170SOL     MW  680   1.127   1.520   1.452 -0.1951 -0.0146  0.0218
  171SOL     OW  681   0.506   1.445   0.567  0.4114 -0.1164  0.7882
  171SOL    HW1  682   0.488   1.510   0.508  0.3468  0.1311 -0.5842
  171SOL    HW2  683   0.493   1.363   0.504 -2.3392 -2.3799 -1.3004
  171SOL     MW  684   0.502   1.443   0.551  0.0399 -0.3824  0.3316
  172SOL     OW  685   0.761   0.288   1.261 -0.3013  0.2421  0.1167
  172SOL    HW1  686   0.735   0.243   1.179 -1.4997  2.1797  2.5178
  172SOL    HW2  687   0.804   0.223   1.321  2.6968 -3.1025  0.2980
  172SOL     MW  688   0.763   0.273   1.258 -0.0638  0.0564  0.4575
  173SOL     OW  689   0.565   1.700   0.326 -0.0038 -0.7149 -0.0249
  173SOL    HW1  690   0.588   1.622   0.282 -0.5529  1.1122  2.0779
  173SOL    HW2  691   0.621   1.709   0.402 -2.0038  2.5615 -1.1924
  173SOL     MW  692   0.575   1.691   0.330 -0.3401 -0.0416  0.0985
  174SOL     OW  693   1.915   0.893   1.494  0.2778  0.9695 -0.2700
  174SOL    HW1  694   1.850   0.825   1.520  3.7512 -0.8731  0.4881
  174SOL    HW2  695   1.914   0.900   1.397 -1.4441  1.0280  0.9718
  174SOL     MW  696   1.907   0.885   1.484  0.5089  0.7341 -0.0062
  175SOL     OW  697   0.579   1.485   0.180 -0.0785  0.0183  0.7275
  175SOL    HW1  698   0.502   1.431   0.169 -0.3985  0.3497  1.5020
  175SOL    HW2  699   0.651   1.428   0.190 -0.2291  3.2431 -2.2385
  175SOL     MW  700   0.579   1.470   0.180 -0.1406  0.4875  0.4383
  176SOL     OW  701   0.108   1.509   1.188 -0.4755  0.4851  0.0423
  176SOL    HW1  702   0.125   1.450   1.110  0.4688  1.7326 -3.9039
  176SOL    HW2  703   0.019   1.488   1.210 -0.5478 -1.1744 -0.4322
  176SOL     MW  704   0.099   1.498   1.181 -0.3605  0.4308 -0.5410
  177SOL     OW  705   0.501   0.314   1.430 -0.1807 -0.9179  0.0335
  177SOL    HW1  706   0.565   0.344   1.363  3.0049 -2.1168  2.8247
  177SOL    HW2  707   0.482   0.404   1.470  3.0484 -1.3384 -2.1551
  177SOL     MW  708   0.507   0.330   1.427  0.6656 -1.1315  0.1130
  178SOL     OW  709   3.057   0.516   3.018  0.2967  0.4969  0.1028
  178SOL    HW1  710   2.986   0.470   3.064 -5.0939 -1.4288 -0.8747
  178SOL    HW2  711   3.045   0.493   2.921  0.0554  0.9704 -1.3578
  178SOL     MW  712   3.046   0.507   3.012 -0.4463  0.3053 -0.2189
  179SOL     OW  713   1.545   1.472   1.373  0.5887  0.1880  0.9995
  179SOL    HW1  714   1.555   1.461   1.467 -1.1711 -0.0688  2.2186
  179SOL    HW2  715   1.637   1.481   1.335  0.0274 -0.6615  4.3552
  179SOL     MW  716   1.559   1.472   1.380  0.2825  0.0421  1.6031
  180SOL     OW  717   0.007   0.273   0.419 -0.0179 -0.6761 -0.1084
  180SOL    HW1  718  -0.060   0.285   0.353 -1.2002 -0.7589 -2.3597
  180SOL    HW2  719   0.056   0.356   0.426  1.4529  1.9133  0.2037
  180SOL     MW  720   0.005   0.285   0.411  0.0202 -0.3454 -0.3642
  181SOL     OW  721   1.071   1.310   3.096 -0.3770  0.5556  0.2586
  181SOL    HW1  722   1.151   1.353   3.128 -1.3424  0.9186 -1.6015
  181SOL    HW2  723   1.107   1.275   3.011  0.9663  1.6782  2.9330
  181SOL     MW  724   1.086   1.311   3.089 -0.3271  0.7516  0.3661
  182SOL     OW  725   0.374   0.936   1.612 -0.2405 -0.7760 -0.2770
  182SOL    HW1  726   0.287   0.942   1.648  2.7387  1.3112 -2.4050
  182SOL    HW2  727   0.439   0.907   1.678  0.9457 -0.7688 -2.1798
  182SOL     MW  728   0.371   0.933   1.626  0.3091 -0.4996 -0.8088
  183SOL     OW  729   1.574   1.766   1.287  0.1291  0.0442 -0.1890
  183SOL    HW1  730   1.673   1.769   1.297 -0.9322  0.7843 -2.0971
  183SOL    HW2  731   1.552   1.679   1.312 -1.5143  0.2691  0.1841
  183SOL     MW  732   1.584   1.755   1.292 -0.2278  0.1715 -0.3915
  184SOL     OW  733   0.814   0.696   1.774  0.2254 -0.9022 -0.0631
  184SOL    HW1  734   0.884   0.668   1.711 -0.1401 -2.8055 -0.7512
  184SOL    HW2  735   0.803   0.616   1.832 -0.0988 -0.3216  1.0851
  184SOL     MW  736   0.822   0.682   1.773  0.1344 -1.0767 -0.0024
  185SOL     OW  737   1.137   0.960   1.882  0.2510  0.1078  0.6078
  185SOL    HW1  738   1.111   0.869   1.916 -0.8646 -2.0743 -2.3711
  185SOL    HW2  739   1.156   1.014   1.964 -0.7140  2.0550  0.7363
  185SOL     MW  740   1.136   0.955   1.898 -0.0235  0.0768  0.2317
  186SOL     OW  741   0.268   1.620   1.516 -0.3338  0.3559  0.2200
  186SOL    HW1  742   0.276   1.576   1.432  1.5705 -3.1206  0.6259
  186SOL    HW2  743   0.178   1.598   1.553  0.1675 -1.7578  2.8497
  186SOL     MW  744   0.257   1.611   1.510 -0.0164 -0.3817  0.6205
  187SOL     OW  745   1.394   0.772   1.383 -0.5348  0.4805 -0.3305
  187SOL    HW1  746   1.401   0.766   1.480 -2.5215  1.6047  0.3963
  187SOL    HW2  747   1.299   0.757   1.375 -0.4630  0.0038  0.2741
  187SOL     MW  748   1.382   0.769   1.395 -0.7874  0.5659 -0.1549
  188SOL     OW  749   1.897   1.215   0.896 -0.0750  0.7970  0.2137
  188SOL    HW1  750   1.896   1.191   0.993 -0.3712  1.5428  2.4037
  188SOL    HW2  751   1.952   1.156   0.845 -1.2316 -1.1707  3.2564
  188SOL     MW  752   1.904   1.204   0.902 -0.2667  0.6358  0.9041
  189SOL     OW  753   0.696   0.707   0.878  0.1669 -0.0026  0.5826
  189SOL    HW1  754   0.620   0.764   0.869  1.7405 -1.2748 -4.5736
  189SOL    HW2  755   0.736   0.749   0.953 -0.0584 -1.6895  1.0064
  189SOL     MW  756   0.691   0.720   0.886  0.3448 -0.3930 -0.0418
  190SOL     OW  757   1.852   0.303   2.073 -0.2932 -0.3741 -0.5038
  190SOL    HW1  758   1.827   0.257   2.160  0.7315  2.1264 -0.0195
  190SOL    HW2  759   1.947   0.333   2.073  2.0359 -0.1483 -1.8264
  190SOL     MW  760   1.861   0.301   2.084  0.1493 -0.0144 -0.6144
  191SOL     OW  761   1.567   0.957   1.212 -0.0600 -0.1441 -0.0970
  191SOL    HW1  762   1.602   1.021   1.272  1.2791 -0.2983 -3.4103
  191SOL    HW2  763   1.513   0.898   1.266  1.0289  0.0908  0.0260
  191SOL     MW  764   1.565   0.957   1.227  0.2603 -0.1335 -0.5179
  192SOL     OW  765   0.507   2.190   2.925 -0.3927 -0.2984  0.8158
  192SOL    HW1  766   0.477   2.243   2.852 -0.1742  0.9782  1.0076
  192SOL    HW2  767   0.523   2.104   2.895  0.3037  1.7421 -0.4460
  192SOL     MW  768   0.505   2.186   2.911 -0.2720  0.1392  0.6747
  193SOL     OW  769   0.819   1.635   0.795  0.8573 -0.3535  0.2151
  193SOL    HW1  770   0.721   1.633   0.829 -3.7941  0.5186  0.3151
  193SOL    HW2  771   0.822   1.548   0.750 -1.6704  3.4464 -0.8618
  193SOL     MW  772   0.806   1.623   0.794 -0.0899  0.2629  0.0862
  194SOL     OW  773   0.449   1.338   0.835 -0.5219  0.5288 -0.6468
  194SOL    HW1  774   0.443   1.271   0.912 -3.8825 -0.9273  1.6421
  194SOL    HW2  775   0.355   1.360   0.814 -1.4262  3.7403  2.2108
  194SOL     MW  776   0.435   1.332   0.843 -1.0846  0.7604  0.0323
  195SOL     OW  777   1.240   1.089   3.004 -0.7159  0.2835 -0.0158
  195SOL    HW1  778   1.254   1.127   3.089  0.7466 -1.6085  1.3461
  195SOL    HW2  779   1.197   1.008   3.026  1.1531  0.1124  2.5587
  195SOL     MW  780   1.237   1.083   3.018 -0.2763  0.0113  0.5035
  196SOL     OW  781   2.241   1.016   0.546 -0.3385  0.2241 -0.9835
  196SOL    HW1  782   2.294   0.991   0.476  0.5166 -2.5897 -0.0451
  196SOL    HW2  783   2.216   1.108   0.534 -1.0599 -1.4934 -1.2582
  196SOL     MW  784   2.245   1.025   0.535 -0.3209 -0.3737 -0.8959
  197SOL     OW  785   0.606   1.343   2.169  0.2962 -0.2730 -0.5043
  197SOL    HW1  786   0.633   1.264   2.119  0.7420 -1.1377 -0.9694
  197SOL    HW2  787   0.654   1.417   2.137 -2.7240 -0.6698 -0.3648
  197SOL     MW  788   0.616   1.342   2.159 -0.0435 -0.4395 -0.5472
  198SOL     OW  789   2.937   1.418   0.996  0.1502 -0.7859  0.7664
  198SOL    HW1  790   2.942   1.494   0.941  0.0174  0.8204 -0.7209
  198SOL    HW2  791   2.859   1.374   0.971 -0.0870 -1.5048  2.9000
  198SOL     MW  792   2.928   1.423   0.986  0.1014 -0.6688  0.8517
  199SOL     OW  793   0.654   1.274   1.832 -0.0557 -0.2448 -0.0919
  199SOL    HW1  794   0.565   1.256   1.869 -2.7023 -0.3685 -1.1747
  199SOL    HW2  795   0.649   1.355   1.783  0.1552 -1.1761  2.6458
  199SOL     MW  796   0.642   1.282   1.831 -0.3770 -0.3840  0.1265
  200SOL     OW  797   1.837   2.949   1.295  0.0192  0.5644 -0.0327
  200SOL    HW1  798   1.896   2.960   1.216 -0.0204 -1.1705 -4.9940
  200SOL    HW2  799   1.768   3.012   1.278  4.2689 -2.3285  1.7181
  200SOL     MW  800   1.836   2.959   1.283  0.5747 -0.0462 -0.4563
  201SOL     OW  801   1.192   0.308   0.822  0.1643 -0.7941  0.0340
  201SOL    HW1  802   1.153   0.221   0.839 -2.0385  1.1184  1.5553
  201SOL    HW2  803   1.286   0.284   0.817  1.7591 -0.3769  1.8521
  201SOL     MW  804   1.199   0.294   0.824  0.0841 -0.4867  0.4746
  202SOL     OW  805   1.503   1.715   0.987 -0.2713 -0.2066  0.3597
  202SOL    HW1  806   1.510   1.619   0.984  1.9831  3.7513  0.6547
  202SOL    HW2  807   1.509   1.736   1.080  2.0613 -0.4014  2.6465
  202SOL     MW  808   1.504   1.705   0.999  0.3339  0.2899  0.7003
  203SOL     OW  809   3.018   0.343   1.302  0.0489  0.0987 -0.1026
  203SOL    HW1  810   3.027   0.255   1.346  0.6665 -4.0570 -1.3998
  203SOL    HW2  811   3.107   0.379   1.292  1.6121  1.9367  2.5026
  203SOL     MW  812   3.031   0.336   1.307  0.3366 -0.2071  0.0700
  204SOL     OW  813   0.998   1.810   0.669 -0.4962  0.1884  0.4149
  204SOL    HW1  814   0.948   1.738   0.714 -3.0883  0.4198 -1.2423
  204SOL    HW2  815   0.934   1.839   0.609  2.1473 -0.1152 -2.4413
  204SOL     MW  816   0.983   1.805   0.667 -0.4894  0.1789 -0.1806
  205SOL     OW  817   1.412   3.031   1.316  0.5785  0.2352  0.3081
  205SOL    HW1  818   1.439   3.071   1.231  0.6256 -0.7188 -0.6263
  205SOL    HW2  819   1.354   3.095   1.357 -0.1937 -0.2318 -0.2413
  205SOL     MW  820   1.408   3.045   1.310  0.4829  0.0477  0.1123
  206SOL     OW  821   0.389   2.936   1.340 -0.2512 -0.4319 -0.0795
  206SOL    HW1  822   0.383   2.927   1.244 -0.6052 -1.4879 -0.1402
  206SOL    HW2  823   0.486   2.937   1.353  1.0641 -0.2487 -1.2556
  206SOL     MW  824   0.401   2.935   1.329 -0.1244 -0.5471 -0.2427
  207SOL     OW  825   0.877   1.754   0.220  0.4447 -0.2951  0.3164
  207SOL    HW1  826   0.942   1.811   0.179  2.5963 -4.5675  1.6189
  207SOL    HW2  827   0.926   1.677   0.232 -0.3446 -0.3990  2.3120
  207SOL     MW  828   0.892   1.752   0.216  0.6244 -0.8725  0.7515
  208SOL     OW  829   0.787   1.558   1.334  0.1655 -0.1263 -0.5389
  208SOL    HW1  830   0.873   1.550   1.371 -3.7295  0.3502  0.1554
  208SOL    HW2  831   0.791   1.538   1.241 -1.2775 -0.1520 -2.8179
  208SOL     MW  832   0.799   1.554   1.327 -0.5388 -0.0668 -0.7480
  209SOL     OW  833   1.590   0.499   2.839  0.9234 -0.4245 -0.0896
  209SOL    HW1  834   1.641   0.576   2.865  1.0957  1.6805 -0.9173
  209SOL    HW2  835   1.660   0.433   2.816  0.1102 -0.3659  0.6696
  209SOL     MW  836   1.606   0.501   2.839  0.8388 -0.1390 -0.0986
  210SOL     OW  837   1.465   1.458   0.950 -0.3092 -0.4378 -0.1962
  210SOL    HW1  838   1.558   1.453   0.922  1.2929  2.6498 -1.5023
  210SOL    HW2  839   1.421   1.486   0.866  0.7567 -1.5314 -1.8670
  210SOL     MW  840   1.471   1.461   0.935  0.0428 -0.1747 -0.5890
  211SOL     OW  841   1.727   0.401   0.915  0.1569  0.9638 -0.4838
  211SOL    HW1  842   1.742   0.417   0.816  1.4788  1.5298  0.3857
  211SOL    HW2  843   1.816   0.392   0.938  0.6291  1.1421 -3.8726
  211SOL     MW  844   1.741   0.402   0.905  0.3936  1.0620 -0.8162
  212SOL     OW  845   0.358   1.142   0.231  0.4445  0.1783  0.2113
  212SOL    HW1  846   0.290   1.073   0.247  0.6712 -0.2084 -2.8233
  212SOL    HW2  847   0.426   1.120   0.165 -0.4502 -0.3791  1.1544
  212SOL     MW  848   0.358   1.130   0.225  0.3564  0.0537 -0.0647
  213SOL     OW  849   0.366   1.864   3.008 -0.4571 -0.3168 -0.0985
  213SOL    HW1  850   0.421   1.887   3.081  2.9752 -0.2303  0.3098
  213SOL    HW2  851   0.421   1.901   2.933  2.1280 -0.8956 -1.5653
  213SOL     MW  852   0.380   1.872   3.007  0.3368 -0.3818 -0.2381
  214SOL     OW  853   0.593   0.330   2.118  0.0677  0.7844 -0.0071
  214SOL    HW1  854   0.515   0.378   2.131  2.3033 -0.9659 -3.6281
  214SOL    HW2  855   0.585   0.332   2.024  0.2644  3.6525  2.9245
  214SOL     MW  856   0.582   0.336   2.107  0.3886  0.9319 -0.0980
  215SOL     OW  857   0.492   0.537   2.522  0.0870 -0.1816 -0.6110
  215SOL    HW1  858   0.427   0.592   2.478 -4.0627  0.9813 -0.4383
  215SOL    HW2  859   0.502   0.456   2.478  0.4019 -1.0105  0.8954
  215SOL     MW  860   0.484   0.533   2.510 -0.4190 -0.1375 -0.3895
  216SOL     OW  861   2.903   3.080   2.737 -0.5847  0.1277  0.5481
  216SOL    HW1  862   2.838   3.066   2.805  0.8160 -1.4891  0.9707
  216SOL    HW2  863   2.902   3.183   2.727 -0.2905  1.3747 -1.0671
  216SOL     MW  864   2.895   3.091   2.745 -0.3610  0.0789  0.3908
  217SOL     OW  865   1.012   1.082   0.151 -0.0697  0.1348 -0.6751
  217SOL    HW1  866   1.003   1.005   0.099  0.4440  0.7710  0.7129
  217SOL    HW2  867   1.053   1.161   0.103  1.5207 -1.2548 -1.3486
  217SOL     MW  868   1.017   1.083   0.138  0.2079  0.0354 -0.5808
  218SOL     OW  869   0.854   1.348   2.637  0.2605 -0.7955 -0.1490
  218SOL    HW1  870   0.840   1.292   2.717  1.2446 -0.0827 -0.9129
  218SOL    HW2  871   0.942   1.381   2.657 -1.0174  0.7279 -1.5086
  218SOL     MW  872   0.864   1.345   2.650  0.2217 -0.5005 -0.4292
  219SOL     OW  873   1.047   0.432   2.608 -0.0120  0.8126 -0.3364
  219SOL    HW1  874   1.103   0.506   2.631  0.0249  1.1510  1.0342
  219SOL    HW2  875   0.962   0.475   2.587  2.3293  0.3429 -0.9409
  219SOL     MW  876   1.043   0.448   2.609  0.3018  0.7953 -0.2353
  220SOL     OW  877   1.728   0.503   2.178  0.0405 -1.0118  0.4873
  220SOL    HW1  878   1.633   0.525   2.159 -0.3463 -1.3464  3.1681
  220SOL    HW2  879   1.760   0.420   2.138 -0.2559 -0.9744 -0.3867
  220SOL     MW  880   1.720   0.495   2.170 -0.0496 -1.0510  0.7257
  221SOL     OW  881   0.380   1.366   2.939  0.1491  0.4269  0.4536
  221SOL    HW1  882   0.421   1.281   2.930  2.1092  2.9251  0.2979
  221SOL    HW2  883   0.435   1.416   2.884  1.2702 -1.4482 -1.1492
  221SOL     MW  884   0.392   1.361   2.930  0.5556  0.5091  0.2216
  222SOL     OW  885   0.508   0.945   2.711  0.4804 -0.1259  0.2729
  222SOL    HW1  886   0.415   0.937   2.736 -0.4687 -1.8807 -0.2210
  222SOL    HW2  887   0.536   0.856   2.713 -0.9154 -0.0714  0.3790
  222SOL     MW  888   0.499   0.932   2.715  0.1710 -0.3502  0.2217
  223SOL     OW  889   3.096   2.029   2.526 -0.3734  0.1662  0.3684
  223SOL    HW1  890   3.070   2.049   2.615  3.6296 -2.4585  1.2752
  223SOL    HW2  891   3.130   2.114   2.487  0.0435 -0.1105  0.0873
  223SOL     MW  892   3.097   2.043   2.532  0.2098 -0.2166  0.4510
  224SOL     OW  893   1.452   0.696   2.444  0.4321 -0.1478 -0.2959
  224SOL    HW1  894   1.548   0.685   2.450 -1.2157 -0.3480  0.9952
  224SOL    HW2  895   1.415   0.775   2.481 -0.9069  0.7603 -0.6399
  224SOL     MW  896   1.460   0.705   2.450  0.0380 -0.0544 -0.1709
  225SOL     OW  897   2.941   1.471   2.288  0.5801  0.0272 -0.7114
  225SOL    HW1  898   2.966   1.551   2.243 -1.1461  1.5852 -0.0725
  225SOL    HW2  899   2.871   1.496   2.350  1.8237  1.6849 -1.3136
  225SOL     MW  900   2.935   1.485   2.291  0.5165  0.4514 -0.7066
  226SOL     OW  901   0.428   1.518   2.687  0.1721  0.7927 -0.7369
  226SOL    HW1  902   0.524   1.528   2.680  0.4503 -1.1556  1.8694
  226SOL    HW2  903   0.388   1.610   2.674 -1.4664  2.5413  2.1537
  226SOL     MW  904   0.435   1.532   2.685 -0.0074  0.7663 -0.0117
  227SOL     OW  905   0.557   1.125   2.906  0.2820 -0.2921 -0.3282
  227SOL    HW1  906   0.632   1.160   2.866 -2.5536 -0.5725 -0.0265
  227SOL    HW2  907   0.540   1.049   2.844  1.3706  0.6096  1.0816
  227SOL     MW  908   0.565   1.119   2.893  0.0515 -0.2101 -0.1024
  228SOL     OW  909   0.732   1.141   2.044  0.0382 -0.1629  0.4067
  228SOL    HW1  910   0.715   1.187   1.959 -1.1589 -3.1618  1.5593
  228SOL    HW2  911   0.810   1.177   2.089  0.5232 -1.1685 -0.4642
  228SOL     MW  912   0.740   1.152   2.039 -0.0558 -0.6912  0.4439
  229SOL     OW  913   0.234   0.554   3.095 -0.9366  0.5568 -0.0735
  229SOL    HW1  914   0.146   0.552   3.060  3.4603 -1.0155 -0.2659
  229SOL    HW2  915   0.252   0.471   3.145 -0.4254 -1.3262  0.6499
  229SOL     MW  916   0.225   0.543   3.097 -0.2890  0.1009 -0.0035
  230SOL     OW  917   1.778   1.354   2.032 -0.1710  0.1289  0.4029
  230SOL    HW1  918   1.751   1.315   2.112 -1.0475 -0.3513 -2.2004
  230SOL    HW2  919   1.728   1.300   1.974 -3.2087  0.6929 -0.3446
  230SOL     MW  920   1.768   1.342   2.035 -0.6875  0.1400 -0.0392
  231SOL     OW  921   2.714   1.233   2.251  0.2266  0.4936 -0.4110
  231SOL    HW1  922   2.770   1.306   2.263  2.2187 -2.4099  3.4268
  231SOL    HW2  923   2.654   1.252   2.180 -0.7189 -0.2425 -2.8007
  231SOL     MW  924   2.713   1.245   2.243  0.3647  0.0134 -0.2200
  232SOL     OW  925   2.292   0.872   1.925 -0.0766  0.5785 -0.1467
  232SOL    HW1  926   2.207   0.906   1.901  2.3942 -1.3012  0.6723
  232SOL    HW2  927   2.267   0.828   2.006  2.2662 -3.5908  0.4630
  232SOL     MW  928   2.277   0.870   1.933  0.5585 -0.2196  0.0418
  233SOL     OW  929   2.117   0.426   2.082 -0.1023  0.2005 -0.3037
  233SOL    HW1  930   2.176   0.358   2.057  1.5238 -1.9729 -1.1533
  233SOL    HW2  931   2.142   0.464   2.172  0.4153  0.5442  2.6218
  233SOL     MW  932   2.128   0.422   2.091  0.1805 -0.0409 -0.0298
  234SOL     OW  933   0.231   1.063   2.652  0.1461  0.2039  0.1076
  234SOL    HW1  934   0.169   1.020   2.589 -0.1229 -0.8341 -0.6919
  234SOL    HW2  935   0.254   1.152   2.610  1.3491  1.8054  2.5510
  234SOL     MW  936   0.226   1.069   2.638  0.2693  0.2783  0.3245
  235SOL     OW  937   1.153   3.035   2.809  0.1202  0.6290 -0.0984
  235SOL    HW1  938   1.198   2.991   2.882 -0.0408 -1.1107  0.1614
  235SOL    HW2  939   1.171   3.133   2.808  3.4369 -1.5537 -3.6631
  235SOL     MW  940   1.161   3.042   2.819  0.5365  0.1115 -0.5345
  236SOL     OW  941   2.948   0.621   0.213  0.3434 -0.2376 -0.2569
  236SOL    HW1  942   2.985   0.626   0.299 -0.2397  0.2670  0.7946
  236SOL    HW2  943   3.013   0.672   0.169  1.1874 -0.4895  1.5713
  236SOL     MW  944   2.962   0.628   0.218  0.3778 -0.2042  0.1230
  237SOL     OW  945   1.918   1.105   2.165 -0.1303 -0.5614 -0.4813
  237SOL    HW1  946   1.851   1.149   2.220 -2.0776  2.0920 -0.7070
  237SOL    HW2  947   1.865   1.065   2.091  3.2088  0.6190 -1.3393
  237SOL     MW  948   1.902   1.105   2.163  0.0534 -0.0556 -0.6243
  238SOL     OW  949   1.060   1.731   2.934 -0.1122 -0.1753 -0.1240
  238SOL    HW1  950   1.020   1.642   2.943 -0.3430  1.2198  1.9117
  238SOL    HW2  951   1.152   1.725   2.912  0.1335  0.8886  1.7597
  238SOL     MW  952   1.067   1.718   2.932 -0.1102  0.1492  0.3931
  239SOL     OW  953   1.191   1.300   2.346  0.0454  0.2586  0.4418
  239SOL    HW1  954   1.120   1.279   2.284  0.9636 -0.6219  0.4186
  239SOL    HW2  955   1.175   1.235   2.420  3.8630  2.0996  0.1641
  239SOL     MW  956   1.180   1.288   2.348  0.6702  0.3853  0.4021
  240SOL     OW  957   0.566   0.866   2.271 -0.0945  0.1463  0.5000
  240SOL    HW1  958   0.600   0.919   2.352  0.5865  3.2409  3.6372
  240SOL    HW2  959   0.640   0.868   2.215 -0.7650  0.6667  0.0651
  240SOL     MW  960   0.581   0.873   2.274 -0.0931  0.6233  0.8565
  241SOL     OW  961   0.678   0.441   3.084  0.2679 -0.0847  0.4851
  241SOL    HW1  962   0.703   0.519   3.133  0.5085 -1.0399  0.4160
  241SOL    HW2  963   0.592   0.456   3.035  1.1955  0.1969 -0.1381
  241SOL     MW  964   0.670   0.454   3.084  0.4220 -0.1736  0.3938
  242SOL     OW  965   1.496   1.664   2.304 -0.1429 -0.2688 -0.1277
  242SOL    HW1  966   1.437   1.745   2.290 -2.0349  3.1331 -0.6114
  242SOL    HW2  967   1.458   1.594   2.250 -1.5918  0.3810  0.8554
  242SOL     MW  968   1.483   1.666   2.295 -0.5837  0.2658 -0.0618
  243SOL     OW  969   1.033   0.326   2.361 -0.7048  0.4633 -0.0589
  243SOL    HW1  970   1.122   0.278   2.370  0.9779  3.6340 -0.5830
  243SOL    HW2  971   1.041   0.374   2.443  1.9664  0.1870  0.5869
  243SOL     MW  972   1.046   0.326   2.373 -0.1303  0.8452 -0.0429
  244SOL     OW  973   0.132   0.743   2.374 -0.1524  0.2862  0.1936
  244SOL    HW1  974   0.130   0.828   2.415  0.3496 -2.3690 -0.5348
  244SOL    HW2  975   0.216   0.724   2.340 -2.1690 -0.2377  0.1301
  244SOL     MW  976   0.143   0.752   2.375 -0.3522 -0.1333  0.0891
  245SOL     OW  977   1.259   0.197   2.398  0.5700 -0.1074 -0.1573
  245SOL    HW1  978   1.314   0.165   2.319 -1.2476 -2.2367 -2.8323
  245SOL    HW2  979   1.269   0.118   2.460  0.7777 -0.0762  0.4881
  245SOL     MW  980   1.267   0.183   2.396  0.3576 -0.3842 -0.4251
  246SOL     OW  981   1.219   1.116   2.075 -0.5526  0.4423 -0.3682
  246SOL    HW1  982   1.144   1.146   2.133 -1.8934  0.2166  1.5602
  246SOL    HW2  983   1.285   1.093   2.144  1.9477 -0.7133  0.0902
  246SOL     MW  984   1.218   1.117   2.091 -0.3996  0.2600 -0.0533
  247SOL     OW  985   0.752   0.653   0.149  0.0883  0.2953  0.4562
  247SOL    HW1  986   0.734   0.751   0.144  1.7725  1.6185  0.0071
  247SOL    HW2  987   0.851   0.648   0.129 -0.3089 -2.3764  0.6334
  247SOL     MW  988   0.763   0.666   0.146  0.2581  0.1174  0.4203
  248SOL     OW  989   0.292   1.312   2.556  0.2337  0.7227  0.2537
  248SOL    HW1  990   0.307   1.327   2.460 -0.0302  1.1543  2.2797
  248SOL    HW2  991   0.317   1.392   2.598  0.7444  0.9912 -2.7705
  248SOL     MW  992   0.297   1.325   2.549  0.2663  0.8151  0.1220
  249SOL     OW  993   2.979   1.951   2.787  0.5894  0.0686  0.1616
  249SOL    HW1  994   2.935   1.885   2.736  2.8724  0.1032 -0.3981
  249SOL    HW2  995   3.061   1.910   2.818  1.0465  1.1488 -0.2121
  249SOL     MW  996   2.984   1.937   2.784  0.9510  0.2157  0.0384
  250SOL     OW  997   2.226   0.803   2.188  0.3015 -0.3420 -0.4557
  250SOL    HW1  998   2.183   0.720   2.219 -4.7296 -3.6508  0.7080
  250SOL    HW2  999   2.166   0.871   2.225  0.7316 -0.2793  3.5831
  250SOL     MW 1000   2.213   0.801   2.197 -0.3055 -0.7703  0.2307
  251SOL     OW 1001   0.131   0.886   2.051  0.0597  0.2295 -0.6014
  251SOL    HW1 1002   0.089   0.801   2.084  0.2883  0.5829  0.2364
  251SOL    HW2 1003   0.119   0.880   1.957  2.0543 -1.1902  1.1374
  251SOL     MW 1004   0.124   0.874   2.043  0.3530  0.0888 -0.2614
  252SOL     OW 1005   1.700   0.980   2.861  0.2769  0.3090  0.3046
  252SOL    HW1 1006   1.682   1.041   2.934  1.6876  0.9771 -0.6792
  252SOL    HW2 1007   1.778   1.010   2.802  1.4097  1.0297  1.8968
  252SOL     MW 1008   1.708   0.992   2.863  0.6125  0.4922  0.3849
  253SOL     OW 1009   1.167   1.721   2.487 -0.5395 -0.2332  0.7926
  253SOL    HW1 1010   1.131   1.704   2.397  1.5583  2.6429 -1.6148
  253SOL    HW2 1011   1.097   1.777   2.529  1.4769 -0.1426 -2.8403
  253SOL     MW 1012   1.153   1.726   2.481  0.0033  0.1583 -0.0044
  254SOL     OW 1013   0.964   1.136   2.215  0.1402 -0.0938 -0.6627
  254SOL    HW1 1014   0.921   1.048   2.222  2.0672 -0.8894 -0.3741
  254SOL    HW2 1015   0.917   1.199   2.275  0.2600  1.9765  1.3847
  254SOL     MW 1016   0.952   1.133   2.224  0.4102  0.0744 -0.3545
  255SOL     OW 1017   0.841   2.567   2.131  0.1540 -0.4610  0.6469
  255SOL    HW1 1018   0.766   2.512   2.136  2.3948 -0.3988  2.0605
  255SOL    HW2 1019   0.899   2.503   2.170 -5.1466  1.7675 -0.3174
  255SOL     MW 1020   0.839   2.551   2.137 -0.2497 -0.1587  0.7062
  256SOL     OW 1021   1.278   2.769   3.001  0.6673  0.4019  0.6181
  256SOL    HW1 1022   1.249   2.680   2.993  0.9411  0.7067 -1.6978
  256SOL    HW2 1023   1.364   2.776   2.948  0.2530  1.2931 -2.2970
  256SOL     MW 1024   1.286   2.758   2.993  0.6487  0.5597 -0.0721
  257SOL     OW 1025   0.039   1.878   0.111  0.2073  0.3161 -0.4430
  257SOL    HW1 1026   0.115   1.872   0.166  0.7789 -3.2875  1.0838
  257SOL    HW2 1027   0.076   1.843   0.027  2.0259  1.5643  0.8745
  257SOL     MW 1028   0.054   1.873   0.107  0.5227  0.0053 -0.0678
  258SOL     OW 1029   0.671   1.000   2.485  0.0401  0.1021  0.3810
  258SOL    HW1 1030   0.711   1.082   2.482  1.1101 -1.3185  1.6953
  258SOL    HW2 1031   0.608   1.005   2.556 -2.2331  0.5458 -1.8642
  258SOL     MW 1032   0.668   1.012   2.494 -0.1187 -0.0268  0.2582
  259SOL     OW 1033   0.837   0.462   2.236 -0.2980 -0.5203 -0.0850
  259SOL    HW1 1034   0.769   0.391   2.223 -0.2784 -1.4039 -3.6115
  259SOL    HW2 1035   0.907   0.426   2.290 -0.1451 -1.3587 -0.7350
  259SOL     MW 1036   0.837   0.448   2.242 -0.2752 -0.7475 -0.6361
  260SOL     OW 1037   0.644   0.152   1.592 -0.1956 -0.2425 -0.1413
  260SOL    HW1 1038   0.599   0.205   1.531  1.0270  1.3860  2.0904
  260SOL    HW2 1039   0.728   0.139   1.551  0.4355  0.1921 -0.1743
  260SOL     MW 1040   0.649   0.157   1.579  0.0490  0.0297  0.1488
  261SOL     OW 1041   1.050   0.732   1.983  0.2199  0.3986  0.3684
  261SOL    HW1 1042   1.088   0.695   2.059 -2.1720 -0.7031 -2.5754
  261SOL    HW2 1043   1.009   0.656   1.939 -0.3375 -0.3326 -0.1648
  261SOL     MW 1044   1.049   0.717   1.987 -0.1692  0.1568 -0.0903
  262SOL     OW 1045   1.146   0.360   0.106  0.0974 -0.8931 -0.0352
  262SOL    HW1 1046   1.239   0.325   0.106  0.9650  0.3900  0.2353
  262SOL    HW2 1047   1.106   0.324   0.025 -0.6153  0.4879 -0.0983
  262SOL     MW 1048   1.153   0.351   0.095  0.1179 -0.5416 -0.0079
  263SOL     OW 1049   0.397   0.026   2.540  0.3506  0.2466 -0.4294
  263SOL    HW1 1050   0.314   0.049   2.573  2.6469 -0.1884  0.4082
  263SOL    HW2 1051   0.413   0.097   2.481 -1.7914 -1.0917  1.4781
  263SOL     MW 1052   0.388   0.039   2.537  0.3709  0.0126 -0.0672
  264SOL     OW 1053   1.537   1.486   1.899 -0.2253  0.4889 -0.7562
  264SOL    HW1 1054   1.471   1.415   1.895 -0.6883  1.6860  1.9345
  264SOL    HW2 1055   1.561   1.487   1.989  2.5594 -0.1747  0.4115
  264SOL     MW 1056   1.531   1.477   1.910  0.0810  0.5593 -0.2471
  265SOL     OW 1057   0.721   2.832   2.292  0.0998 -0.0805  0.3965
  265SOL    HW1 1058   0.809   2.819   2.254 -1.8341 -3.9541  1.3084
  265SOL    HW2 1059   0.725   2.797   2.384  0.2129  0.4284  0.8859
  265SOL     MW 1060   0.733   2.826   2.299 -0.1404 -0.5244  0.5814
  266SOL     OW 1061   0.828   0.881   2.154 -0.2465 -0.0047 -0.2000
  266SOL    HW1 1062   0.779   0.936   2.094  1.6721  3.1378  0.5334
  266SOL    HW2 1063   0.892   0.829   2.098  4.7887 -1.6676 -2.6756
  266SOL     MW 1064   0.830   0.881   2.139  0.6710  0.1905 -0.4298
  267SOL     OW 1065   1.380   1.682   2.660  0.0424  0.3874 -0.5266
  267SOL    HW1 1066   1.437   1.606   2.636  2.7738 -1.7431  0.0736
  267SOL    HW2 1067   1.317   1.690   2.590  2.7332 -0.6100 -0.3043
  267SOL     MW 1068   1.379   1.673   2.648  0.7578 -0.0253 -0.4181
  268SOL     OW 1069   0.119   0.903   1.779  0.0175 -0.0237  0.4415
  268SOL    HW1 1070   0.089   0.994   1.755 -2.5271 -0.0646 -0.5523
  268SOL    HW2 1071   0.088   0.838   1.712 -1.0761  0.7219 -1.9899
  268SOL     MW 1072   0.111   0.906   1.767 -0.4625  0.0693 -0.0104
  269SOL     OW 1073   1.324   1.888   2.298  0.6512 -0.5570  0.4800
  269SOL    HW1 1074   1.391   1.947   2.328 -0.7845  0.8435  0.5138
  269SOL    HW2 1075   1.257   1.877   2.364  1.4398 -0.2039 -1.1075
  269SOL     MW 1076   1.324   1.894   2.311  0.5658 -0.3256  0.2750
  270SOL     OW 1077   1.092   0.355   1.530  0.2891 -0.5842 -0.1247
  270SOL    HW1 1078   1.063   0.280   1.583 -0.4513 -1.5948 -1.2449
  270SOL    HW2 1079   1.181   0.375   1.567 -1.7166 -0.9874 -0.0126
  270SOL     MW 1080   1.100   0.348   1.542 -0.0732 -0.7707 -0.2577
  271SOL     OW 1081   0.904   0.111   2.481 -0.0348 -0.7105 -0.1900
  271SOL    HW1 1082   0.955   0.060   2.547 -1.3311 -0.7852  2.2129
  271SOL    HW2 1083   0.969   0.171   2.435 -1.4488 -1.5019 -0.1922
  271SOL     MW 1084   0.919   0.113   2.484 -0.3924 -0.8248  0.1268
  272SOL     OW 1085   1.471   2.789   2.822 -0.3236 -0.3463 -0.1053
  272SOL    HW1 1086   1.421   2.793   2.744  0.7585  0.3422  0.5294
  272SOL    HW2 1087   1.522   2.877   2.820 -1.5121 -0.5375  0.0883
  272SOL     MW 1088   1.471   2.801   2.812 -0.3376 -0.2807  0.0040
  273SOL     OW 1089   1.442   0.820   2.805  0.6356 -0.0111  0.2364
  273SOL    HW1 1090   1.526   0.794   2.765 -1.7318  0.6997  0.3924
  273SOL    HW2 1091   1.455   0.913   2.814  1.6643  1.3088  0.4523
  273SOL     MW 1092   1.455   0.829   2.801  0.4590  0.2569  0.2855
  274SOL     OW 1093   1.442   0.638   0.130  0.2066 -0.2350 -0.2294
  274SOL    HW1 1094   1.498   0.594   0.194 -1.4909  0.5277  1.3552
  274SOL    HW2 1095   1.360   0.662   0.180 -0.6078 -1.5310 -0.7866
  274SOL     MW 1096   1.439   0.635   0.145 -0.1248 -0.3054 -0.0939
  275SOL     OW 1097   1.824   0.526   1.742  0.1459  0.0822 -0.0941
  275SOL    HW1 1098   1.867   0.578   1.815  1.3260  0.0755  0.8090
  275SOL    HW2 1099   1.839   0.429   1.763  0.8721 -1.7611 -0.8943
  275SOL     MW 1100   1.831   0.520   1.755  0.3974 -0.1619 -0.0805
  276SOL     OW 1101   0.420   1.207   1.934 -0.2262  0.2938 -0.2450
  276SOL    HW1 1102   0.425   1.112   1.960 -0.8231 -2.0002  0.1216
  276SOL    HW2 1103   0.347   1.246   1.987 -2.5721  0.6392  0.9642
  276SOL     MW 1104   0.411   1.200   1.945 -0.6145  0.0367 -0.0371
  277SOL     OW 1105   1.977   1.134   2.448  0.8108  0.3358  0.7274
  277SOL    HW1 1106   2.022   1.214   2.482  2.3941  1.7791 -1.5437
  277SOL    HW2 1107   2.009   1.126   2.358  0.9551 -3.1704 -0.5723
  277SOL     MW 1108   1.987   1.144   2.441  1.0388  0.0636  0.2563
  278SOL     OW 1109   1.397   0.615   1.685  0.4470 -0.3065 -0.0993
  278SOL    HW1 1110   1.418   0.585   1.770 -0.1617  1.5466 -2.8630
  278SOL    HW2 1111   1.483   0.618   1.651  0.5070 -1.8338  0.9453
  278SOL     MW 1112   1.411   0.612   1.692  0.3746 -0.2635 -0.3262
  279SOL     OW 1113   0.511   0.104   2.263  0.1070  0.0765 -0.2044
  279SOL    HW1 1114   0.594   0.052   2.243  0.9379  0.3946 -1.0347
  279SOL    HW2 1115   0.516   0.182   2.210 -1.3400 -1.0153 -0.3934
  279SOL     MW 1116   0.523   0.108   2.253  0.0257 -0.0256 -0.3389
  280SOL     OW 1117   1.456   1.057   2.229 -0.5035 -0.4852  0.1362
  280SOL    HW1 1118   1.500   0.985   2.190  1.2931  1.1025 -0.4575
  280SOL    HW2 1119   1.423   1.021   2.312 -0.6317 -1.6322 -0.4726
  280SOL     MW 1120   1.457   1.043   2.235 -0.2834 -0.4271 -0.0225
  281SOL     OW 1121   1.300   1.136   2.732 -0.4495 -0.7119  0.0837
  281SOL    HW1 1122   1.385   1.182   2.737  0.3302 -1.8113 -1.0102
  281SOL    HW2 1123   1.269   1.122   2.824 -2.6371  0.8652  1.2095
  281SOL     MW 1124   1.307   1.141   2.745 -0.6353 -0.6488  0.0879
  282SOL     OW 1125   1.185   1.264   1.612  0.1558  0.4914  0.5228
  282SOL    HW1 1126   1.146   1.337   1.572 -1.7126  1.3857  0.2502
  282SOL    HW2 1127   1.115   1.228   1.675 -1.6618  1.1026  3.6711
  282SOL     MW 1128   1.170   1.269   1.615 -0.3305  0.6901  0.9022
  283SOL     OW 1129   0.813   1.389   3.097 -0.0599 -0.1392 -0.0623
  283SOL    HW1 1130   0.908   1.367   3.113  0.8942  1.2254 -0.6705
  283SOL    HW2 1131   0.800   1.482   3.099  1.9862  0.8031 -0.0138
  283SOL     MW 1132   0.824   1.399   3.099  0.3360  0.1652 -0.1362
  284SOL     OW 1133   0.385   0.684   2.309 -0.2629 -0.4244  0.4440
  284SOL    HW1 1134   0.461   0.748   2.297  1.9554  0.6056  0.3422
  284SOL    HW2 1135   0.373   0.618   2.232  1.0916 -4.6819  0.6745
  284SOL     MW 1136   0.393   0.684   2.297  0.2085 -0.8502  0.4610
  285SOL     OW 1137   0.876   0.821   2.854 -0.0868  0.2440 -0.4689
  285SOL    HW1 1138   0.905   0.856   2.771  0.9302 -0.3989 -0.6136
  285SOL    HW2 1139   0.786   0.804   2.823 -2.4131 -0.7717 -1.9771
  285SOL     MW 1140   0.868   0.823   2.839 -0.2596  0.0251 -0.6870
  286SOL     OW 1141   1.100   1.477   2.670 -0.5338  0.1751  0.6427
  286SOL    HW1 1142   1.127   1.388   2.635  0.7732  0.5595  0.0590
  286SOL    HW2 1143   1.110   1.537   2.599  4.2393  0.3461  0.2765
  286SOL     MW 1144   1.105   1.473   2.656  0.2684  0.2484  0.5174
  287SOL     OW 1145   1.149   0.971   0.351 -0.2728 -0.1921 -0.3468
  287SOL    HW1 1146   1.112   1.008   0.430 -0.8626  2.5505  0.6106
  287SOL    HW2 1147   1.105   1.026   0.278 -1.9177  0.7034  0.2306
  287SOL     MW 1148   1.138   0.983   0.352 -0.5676  0.2879 -0.1443
  288SOL     OW 1149   1.496   0.624   2.150  0.0123  0.7745 -0.0890
  288SOL    HW1 1150   1.428   0.631   2.221  1.2324  1.6755 -3.7753
  288SOL    HW2 1151   1.510   0.716   2.129  0.0504  2.4414  1.7840
  288SOL     MW 1152   1.489   0.637   2.157  0.1783  1.1133 -0.3282
  289SOL     OW 1153   0.900   0.949   2.616  0.1550  0.0949  0.2192
  289SOL    HW1 1154   0.936   0.896   2.547  2.5576 -2.6135 -0.5872
  289SOL    HW2 1155   0.803   0.954   2.593  3.1961 -1.5531  2.8587
  289SOL     MW 1156   0.892   0.943   2.604  0.8732 -0.4799  0.4610
  290SOL     OW 1157   0.769   0.654   1.479  0.1394 -0.0763  0.5275
  290SOL    HW1 1158   0.834   0.586   1.462 -0.1383  0.2191 -0.2872
  290SOL    HW2 1159   0.758   0.662   1.573  1.9287 -0.7107 -0.7493
  290SOL     MW 1160   0.776   0.646   1.489  0.3388 -0.1210  0.2515
  291SOL     OW 1161   0.239   0.325   0.152  0.0136 -0.4404  0.7336
  291SOL    HW1 1162   0.331   0.320   0.186  0.0722  0.1134  1.2037
  291SOL    HW2 1163   0.214   0.233   0.134  0.5879 -2.1016  0.5734
  291SOL     MW 1164   0.248   0.312   0.154  0.0971 -0.5865  0.7745
  292SOL     OW 1165   1.020   0.633   0.107 -0.2326 -0.3491 -0.2629
  292SOL    HW1 1166   1.093   0.664   0.165  0.6479  2.8334  0.4074
  292SOL    HW2 1167   1.045   0.540   0.089 -0.8914  0.3058 -0.4291
  292SOL     MW 1168   1.033   0.625   0.113 -0.2033  0.1572 -0.1964
  293SOL     OW 1169   0.110   0.066   2.585  0.0394 -0.2024 -0.1093
  293SOL    HW1 1170   0.089   0.021   2.505  0.2734  0.4814  2.6251
  293SOL    HW2 1171   0.026   0.107   2.619  0.1877  1.2081 -0.5394
  293SOL     MW 1172   0.096   0.066   2.579  0.0898  0.0739  0.1948
  294SOL     OW 1173   1.352   0.459   2.352 -0.1428 -0.4313  0.1065
  294SOL    HW1 1174   1.382   0.522   2.419 -0.8477  1.7228  1.0054
  294SOL    HW2 1175   1.352   0.371   2.390 -1.3885 -1.0208  4.2395
  294SOL     MW 1176   1.356   0.456   2.366 -0.4002 -0.2248  0.7704
  295SOL     OW 1177   0.846   0.595   2.526  0.1409 -0.2423 -0.7770
  295SOL    HW1 1178   0.790   0.579   2.447  1.4779 -0.7462 -0.6294
  295SOL    HW2 1179   0.784   0.641   2.586  2.1572  0.8474 -1.3832
  295SOL     MW 1180   0.831   0.599   2.524  0.5833 -0.1650 -0.8375
  296SOL     OW 1181   1.312   0.296   2.068  0.4413  0.0483  0.2212
  296SOL    HW1 1182   1.355   0.210   2.051 -1.5734 -1.3201 -0.1916
  296SOL    HW2 1183   1.364   0.339   2.135 -0.0811 -0.9054 -0.8320
  296SOL     MW 1184   1.325   0.290   2.075  0.1065 -0.2581  0.0278
  297SOL     OW 1185   1.366   0.356   1.603 -0.2321 -0.8089 -0.1907
  297SOL    HW1 1186   1.400   0.436   1.635 -0.1639 -0.1017 -1.8618
  297SOL    HW2 1187   1.405   0.282   1.653  3.3275 -0.4566 -3.5673
  297SOL     MW 1188   1.375   0.356   1.614  0.2466 -0.6691 -0.8567
  298SOL     OW 1189   1.594   0.866   2.053  0.6075 -0.1755 -0.4296
  298SOL    HW1 1190   1.634   0.911   1.976 -0.1357 -1.3633  1.6577
  298SOL    HW2 1191   1.672   0.851   2.105 -2.1346  2.1467 -0.8825
  298SOL     MW 1192   1.610   0.870   2.050  0.1476 -0.0258 -0.2139
  299SOL     OW 1193   0.607   1.193   0.095  0.6033  0.0568 -0.4813
  299SOL    HW1 1194   0.586   1.222   0.003 -2.4181 -2.6395 -0.0872
  299SOL    HW2 1195   0.694   1.225   0.116  0.8327 -0.8092  0.5760
  299SOL     MW 1196   0.616   1.201   0.086  0.2349 -0.4132 -0.2898
  300SOL     OW 1197   1.107   1.140   2.554  0.1058 -0.2606  0.1949
  300SOL    HW1 1198   1.035   1.086   2.589  0.0362 -1.0168  0.8141
  300SOL    HW2 1199   1.181   1.125   2.621 -0.4155  0.1503 -0.4832
  300SOL     MW 1200   1.107   1.131   2.567  0.0278 -0.3061  0.1871
  301SOL     OW 1201   1.480   1.063   0.736  0.7620 -0.8872  0.2435
  301SOL    HW1 1202   1.496   1.090   0.827  1.3881 -0.4822  0.5919
  301SOL    HW2 1203   1.409   0.991   0.744 -1.5225 -0.1948  2.1832
  301SOL     MW 1204   1.473   1.057   0.749  0.5432 -0.7424  0.5454
  302SOL     OW 1205   0.177   1.587   2.038  0.4852 -0.6999  0.1780
  302SOL    HW1 1206   0.199   1.498   2.030  1.6801  2.3119 -0.5073
  302SOL    HW2 1207   0.083   1.602   2.056  1.6199  1.4894  0.9940
  302SOL     MW 1208   0.168   1.577   2.039  0.7926 -0.0137  0.1953
  303SOL     OW 1209   0.320   1.775   2.696 -0.2488 -0.2228  0.5383
  303SOL    HW1 1210   0.291   1.791   2.607 -0.2280 -0.3001 -1.4818
  303SOL    HW2 1211   0.241   1.758   2.745 -0.0957  0.9233  3.7292
  303SOL     MW 1212   0.306   1.775   2.691 -0.2258 -0.0818  0.6927
  304SOL     OW 1213   0.511   2.055   2.480  0.3022 -0.1377 -0.1616
  304SOL    HW1 1214   0.545   2.100   2.398  1.4108  2.3832 -2.4629
  304SOL    HW2 1215   0.588   2.004   2.499 -0.0032 -0.3245  0.0964
  304SOL     MW 1216   0.526   2.054   2.472  0.4082  0.1703 -0.4312
  305SOL     OW 1217   1.149   0.653   0.551  0.3268  0.1386  0.2180
  305SOL    HW1 1218   1.063   0.650   0.505 -1.9149 -0.3663 -1.1657
  305SOL    HW2 1219   1.180   0.562   0.558 -0.1783 -3.6506 -1.2424
  305SOL     MW 1220   1.142   0.640   0.546 -0.0357 -0.4280 -0.1572
  306SOL     OW 1221   1.086   1.533   0.306 -0.3686  0.5480  0.0168
  306SOL    HW1 1222   1.121   1.446   0.344  2.0858  1.6089  1.3011
  306SOL    HW2 1223   1.147   1.536   0.232  0.2883 -1.9965  1.3276
  306SOL     MW 1224   1.099   1.522   0.301  0.0419  0.3522  0.3592
  307SOL     OW 1225   1.436   0.493   1.920  0.3773  0.3556 -0.3149
  307SOL    HW1 1226   1.402   0.412   1.960  1.3365  1.3080  1.1573
  307SOL    HW2 1227   1.443   0.553   1.994  2.0566  0.9265 -0.5972
  307SOL     MW 1228   1.433   0.490   1.935  0.7254  0.5566 -0.1579
  308SOL     OW 1229   2.225   0.523   2.727  0.9133  0.3857  0.6545
  308SOL    HW1 1230   2.320   0.515   2.716  0.6652  2.8973 -2.8779
  308SOL    HW2 1231   2.209   0.617   2.724  2.0768 -1.4253  1.5695
  308SOL     MW 1232   2.236   0.534   2.725  1.0341  0.4781  0.3091
  309SOL     OW 1233   0.515   0.565   0.239  0.0323 -0.5170 -0.0073
  309SOL    HW1 1234   0.603   0.573   0.205 -0.5888 -0.0047  0.7801
  309SOL    HW2 1235   0.513   0.472   0.253  3.4688  1.1911  0.1654
  309SOL     MW 1236   0.527   0.554   0.237  0.4038 -0.2240  0.1194
  310SOL     OW 1237   0.404   0.544   1.879 -0.3469 -0.8449 -0.3361
  310SOL    HW1 1238   0.438   0.482   1.812  0.9051 -2.1823  1.3011
  310SOL    HW2 1239   0.442   0.628   1.848  2.4695  1.1227 -1.2180
  310SOL     MW 1240   0.414   0.547   1.866  0.1899 -0.7618 -0.2364
  311SOL     OW 1241   1.965   0.638   1.958 -0.2391  0.1084  0.2414
  311SOL    HW1 1242   1.913   0.671   2.028  0.2593 -1.6701 -1.6963
  311SOL    HW2 1243   2.026   0.566   1.993  2.5794  1.4920  0.6676
  311SOL     MW 1244   1.966   0.633   1.971  0.1985  0.0563  0.0420
  312SOL     OW 1245   1.717   2.452   0.134 -0.3492  0.4047  0.5881
  312SOL    HW1 1246   1.735   2.395   0.207 -0.6484  1.0342  0.5250
  312SOL    HW2 1247   1.658   2.525   0.159 -0.6810 -2.0429  1.7924
  312SOL     MW 1248   1.712   2.454   0.147 -0.4325  0.1648  0.7387
  313SOL     OW 1249   0.139   1.126   3.038  0.1670  0.3183  0.0968
  313SOL    HW1 1250   0.087   1.163   3.116 -1.5249 -0.9978 -0.6632
  313SOL    HW2 1251   0.141   1.185   2.966 -0.1392  1.8493  0.1045
  313SOL     MW 1252   0.132   1.139   3.039 -0.0966  0.3466 -0.0025
  314SOL     OW 1253   2.182   2.951   0.038  0.5257 -0.9186 -0.1508
  314SOL    HW1 1254   2.131   2.965  -0.047 -0.8775 -0.2915  0.5994
  314SOL    HW2 1255   2.244   3.021   0.033  2.7768  2.1614  2.1212
  314SOL     MW 1256   2.184   2.962   0.026  0.6376 -0.4295  0.2480
  315SOL     OW 1257   1.535   1.849   2.981 -0.1232  0.2851  0.4944
  315SOL    HW1 1258   1.485   1.889   3.049  1.4923 -0.6562  1.4882
  315SOL    HW2 1259   1.602   1.913   2.942 -0.4871 -0.7336  0.5787
  315SOL     MW 1260   1.537   1.863   2.985  0.0419  0.0265  0.6366
  316SOL     OW 1261   1.203   0.645   2.702 -0.1504  0.1420 -0.4385
  316SOL    HW1 1262   1.285   0.685   2.721 -0.7573 -2.0568 -1.1222
  316SOL    HW2 1263   1.165   0.625   2.797  1.9238 -0.6309  0.8817
  316SOL     MW 1264   1.209   0.648   2.717  0.0432 -0.2501 -0.3545
  317SOL     OW 1265   0.689   1.590   2.646 -0.4861  0.2493  0.0304
  317SOL    HW1 1266   0.745   1.519   2.645 -0.1341 -0.5711 -0.8469
  317SOL    HW2 1267   0.666   1.606   2.551  3.4115  2.3870  1.7622
  317SOL     MW 1268   0.693   1.583   2.633  0.0746  0.4231  0.1432
  318SOL     OW 1269   1.356   0.377   2.932  0.5880 -0.0452 -0.5627
  318SOL    HW1 1270   1.274   0.397   2.883 -1.6055  0.0105 -2.1424
  318SOL    HW2 1271   1.424   0.445   2.910 -0.2951  3.1863 -1.7030
  318SOL     MW 1272   1.354   0.389   2.922  0.1821  0.3885 -0.9216
  319SOL     OW 1273   0.789   0.453   2.832 -0.0719  0.8122  0.3966
  319SOL    HW1 1274   0.775   0.370   2.783 -0.0904  1.1598 -4.3169
  319SOL    HW2 1275   0.748   0.440   2.919  0.4763  1.0350 -3.9915
  319SOL     MW 1276   0.782   0.440   2.837 -0.0020  0.8874 -0.8043
  320SOL     OW 1277   1.050   1.331   1.982  0.0194 -0.6546  0.5465
  320SOL    HW1 1278   1.107   1.256   1.988 -1.3040  0.9013  0.2279
  320SOL    HW2 1279   1.105   1.403   1.944 -3.0474  1.1900 -0.0856
  320SOL     MW 1280   1.064   1.331   1.978 -0.5598 -0.2059  0.4211
  321SOL     OW 1281   1.071   0.878   3.052 -0.0514 -0.4857  0.1264
  321SOL    HW1 1282   1.006   0.865   2.980 -0.0796 -2.2172 -0.8608
  321SOL    HW2 1283   1.146   0.817   3.031 -2.9747 -0.0232 -1.9690
  321SOL     MW 1284   1.072   0.868   3.040 -0.4408 -0.6531 -0.2803
  322SOL     OW 1285   1.255   0.845   1.656  0.1159  0.3701 -0.0359
  322SOL    HW1 1286   1.303   0.771   1.689 -4.2322 -0.0350  0.3680
  322SOL    HW2 1287   1.205   0.884   1.729 -1.0864  0.2557 -2.2829
  322SOL     MW 1288   1.255   0.840   1.670 -0.6164  0.3015 -0.2791
  323SOL     OW 1289   1.226   1.536   1.908 -0.1511 -0.2804 -0.0335
  323SOL    HW1 1290   1.296   1.526   1.841 -1.7766 -1.2928 -2.5748
  323SOL    HW2 1291   1.169   1.604   1.875 -0.7865  0.3910  1.5904
  323SOL     MW 1292   1.228   1.544   1.895 -0.4494 -0.3254 -0.1546
  324SOL     OW 1293   1.436   0.998   2.513 -0.4670 -0.3500  0.8969
  324SOL    HW1 1294   1.388   1.044   2.586 -0.1097 -1.0068 -3.8138
  324SOL    HW2 1295   1.519   1.051   2.517  1.7673 -1.2217 -0.4954
  324SOL     MW 1296   1.441   1.011   2.523 -0.1251 -0.5517  0.0917
  325SOL     OW 1297   1.038   0.533   2.906  0.1927  0.0935  0.3596
  325SOL    HW1 1298   1.002   0.598   2.966  0.5107  0.2697 -2.2213
  325SOL    HW2 1299   0.962   0.486   2.866 -0.9886 -2.2860  0.0776
  325SOL     MW 1300   1.023   0.535   2.908  0.0788 -0.1972 -0.0181
  326SOL     OW 1301   0.376   1.389   2.292  0.2068 -0.5024  0.9968
  326SOL    HW1 1302   0.459   1.349   2.259 -0.0863 -0.3280 -3.2825
  326SOL    HW2 1303   0.396   1.482   2.277  0.0635  2.9428 -1.6680
  326SOL     MW 1304   0.389   1.396   2.286  0.1492 -0.0248  0.0806
  327SOL     OW 1305   1.990   0.794   2.421  0.3669 -0.2021 -0.1559
  327SOL    HW1 1306   1.920   0.785   2.487  1.3249 -2.9980 -0.5388
  327SOL    HW2 1307   2.013   0.886   2.443  0.2725 -0.1778  2.3185
  327SOL     MW 1308   1.984   0.805   2.433  0.4809 -0.5678  0.1200
  328SOL     OW 1309   0.222   1.306   2.093 -0.2647  0.5898  0.3352
  328SOL    HW1 1310   0.157   1.237   2.116 -1.5271  0.3952  3.9244
  328SOL    HW2 1311   0.264   1.328   2.174 -0.7808 -0.7594  1.5139
  328SOL     MW 1312   0.219   1.300   2.107 -0.4993  0.3861  0.9643
  329SOL     OW 1313   0.053   0.117   1.371  0.9144 -0.0889 -0.2167
  329SOL    HW1 1314   0.047   0.098   1.465 -2.5191 -1.5201  1.5737
  329SOL    HW2 1315   0.145   0.148   1.352 -2.3434 -0.1339 -1.2181
  329SOL     MW 1316   0.065   0.118   1.381  0.0316 -0.2837 -0.1126
  330SOL     OW 1317   0.386   0.031   2.027  0.0900  1.0775 -0.4318
  330SOL    HW1 1318   0.451   0.033   2.097  0.2455  0.6529 -0.6326
  330SOL    HW2 1319   0.316  -0.034   2.057 -0.7537 -0.1258 -3.2604
  330SOL     MW 1320   0.385   0.022   2.040 -0.0008  0.8628 -0.8315
  331SOL     OW 1321   0.778   1.259   2.380 -0.3382  0.5506 -0.0449
  331SOL    HW1 1322   0.731   1.322   2.334  0.8971 -2.1604 -1.4738
  331SOL    HW2 1323   0.789   1.303   2.466 -1.8078 -1.3912  0.6027
  331SOL     MW 1324   0.773   1.273   2.385 -0.3691 -0.0633 -0.1480
  332SOL     OW 1325   1.367   1.646   2.934  0.0651  0.2610  0.0091
  332SOL    HW1 1326   1.372   1.633   2.836  2.4148  0.6539 -1.9822
  332SOL    HW2 1327   1.436   1.715   2.944 -0.9345 -0.4203  0.8610
  332SOL     MW 1328   1.377   1.653   2.922  0.2433  0.2230 -0.1412
  333SOL     OW 1329   1.667   1.340   2.916  0.2675  0.3991 -0.0404
  333SOL    HW1 1330   1.765   1.354   2.927  0.2064  2.0345 -3.5990
  333SOL    HW2 1331   1.648   1.274   2.977 -0.9183  1.1097  1.5641
  333SOL     MW 1332   1.677   1.333   2.926  0.1030  0.7086 -0.2982
  334SOL     OW 1333   1.328   3.096   2.625  0.4098 -0.2103  0.5501
  334SOL    HW1 1334   1.258   3.062   2.690 -0.3660  0.7810  0.1260
  334SOL    HW2 1335   1.384   3.147   2.685  0.9818 -3.0567 -0.3747
  334SOL     MW 1336   1.326   3.099   2.642  0.3829 -0.4551  0.3721
  335SOL     OW 1337   1.293   0.720   2.998 -0.7410  0.5364 -0.2305
  335SOL    HW1 1338   1.354   0.709   3.072  2.4977 -1.7081  0.6134
  335SOL    HW2 1339   1.351   0.767   2.939 -2.3560  0.3496  5.2211
  335SOL     MW 1340   1.309   0.724   3.000 -0.5268  0.2156  0.6001
  336SOL     OW 1341   0.939   1.173   1.718 -0.5955 -0.0428 -0.1591
  336SOL    HW1 1342   0.889   1.226   1.772  1.5592 -0.4948  0.2635
  336SOL    HW2 1343   0.982   1.111   1.782 -2.5570 -0.4150  0.8515
  336SOL     MW 1344   0.938   1.172   1.733 -0.5700 -0.1516  0.0300
  337SOL     OW 1345   0.501   1.944   2.784 -0.8979  0.4026 -0.5236
  337SOL    HW1 1346   0.434   1.886   2.743 -0.5120 -0.9609  0.0147
  337SOL    HW2 1347   0.586   1.893   2.783  0.9201  0.4339  0.2778
  337SOL     MW 1348   0.504   1.930   2.779 -0.6071  0.2268 -0.3469
  338SOL     OW 1349   1.064   0.782   2.451 -0.1906  0.3754  0.0443
  338SOL    HW1 1350   0.983   0.726   2.455 -0.0009 -0.0577  0.2133
  338SOL    HW2 1351   1.123   0.758   2.523 -1.6518  0.9572 -1.8230
  338SOL     MW 1352   1.061   0.771   2.461 -0.3584  0.3950 -0.1797
  339SOL     OW 1353   1.413   1.228   1.896 -0.1840  0.3607  0.5001
  339SOL    HW1 1354   1.438   1.167   1.831  0.2470  1.5552  0.5744
  339SOL    HW2 1355   1.355   1.181   1.956 -3.1515  1.6386  0.3230
  339SOL     MW 1356   1.409   1.213   1.895 -0.5187  0.6869  0.4865
  340SOL     OW 1357   1.287   1.497   0.065  0.3773 -0.4184  0.4658
  340SOL    HW1 1358   1.321   1.539  -0.020 -1.8051 -0.4847 -2.2804
  340SOL    HW2 1359   1.363   1.481   0.115  0.9905 -1.8627 -4.5548
  340SOL     MW 1360   1.301   1.500   0.060  0.1703 -0.6177 -0.5590
  341SOL     OW 1361   0.136   1.366   2.788  0.1648 -0.2200 -0.1370
  341SOL    HW1 1362   0.229   1.371   2.813 -2.8758 -0.0030 -1.2423
  341SOL    HW2 1363   0.128   1.352   2.696  2.1407 -0.1736 -1.3352
  341SOL     MW 1364   0.147   1.365   2.779  0.0243 -0.1852 -0.4409
  342SOL     OW 1365   1.436   0.334   0.080 -0.5457  0.2255 -0.5102
  342SOL    HW1 1366   1.448   0.415   0.136 -1.1717  0.8147  0.2373
  342SOL    HW2 1367   1.408   0.368  -0.004  0.0837  3.7200  1.4082
  342SOL     MW 1368   1.434   0.349   0.076 -0.5453  0.7643 -0.1585
  343SOL     OW 1369   0.235   0.251   2.149  0.3005 -0.8652 -0.2853
  343SOL    HW1 1370   0.282   0.194   2.095 -3.1886 -2.4832 -1.4148
  343SOL    HW2 1371   0.141   0.250   2.126 -0.8857 -0.3562  0.6331
  343SOL     MW 1372   0.229   0.244   2.139 -0.3164 -1.0115 -0.3131
  344SOL     OW 1373   1.696   1.982   0.125  0.3005  0.0693  0.5181
  344SOL    HW1 1374   1.749   2.035   0.057 -1.0046  1.7681  2.4412
  344SOL    HW2 1375   1.612   1.993   0.089 -0.4209 -1.4359 -4.4755
  344SOL     MW 1376   1.692   1.991   0.111  0.0331  0.0949  0.1130
  345SOL     OW 1377   0.695   1.640   2.374 -0.0727  0.6695 -0.0753
  345SOL    HW1 1378   0.616   1.662   2.323  0.8760  2.1504  1.5672
  345SOL    HW2 1379   0.761   1.616   2.312 -0.2270 -0.9383 -0.7807
  345SOL     MW 1380   0.693   1.639   2.359  0.0321  0.6528  0.0484
  346SOL     OW 1381   1.647   1.108   0.030  0.3032  0.1183  0.0459
  346SOL    HW1 1382   1.730   1.094   0.068 -2.6743 -1.2893 -0.0974
  346SOL    HW2 1383   1.600   1.051   0.091  1.2859  1.0253  3.1281
  346SOL     MW 1384   1.652   1.099   0.043  0.0400  0.0522  0.4336
  347SOL     OW 1385   1.157   0.625   2.228  0.2576 -0.4676 -0.3299
  347SOL    HW1 1386   1.195   0.551   2.271 -0.2906 -3.0211  0.1477
  347SOL    HW2 1387   1.132   0.679   2.303  0.1461 -0.1214  0.0299
  347SOL     MW 1388   1.159   0.622   2.243  0.1705 -0.7588 -0.2194
  348SOL     OW 1389   1.335   2.538   1.918  0.1290 -0.2735  0.2208
  348SOL    HW1 1390   1.333   2.483   2.001 -1.1019  1.5563 -1.1142
  348SOL    HW2 1391   1.356   2.626   1.962 -1.4363 -1.6360 -0.6072
  348SOL     MW 1392   1.338   2.542   1.935 -0.2399 -0.2118 -0.0646
  349SOL     OW 1393   1.482   0.153   2.784 -0.1763  0.1506 -0.2126
  349SOL    HW1 1394   1.436   0.190   2.853 -0.2840 -2.6116 -0.2940
  349SOL    HW2 1395   1.522   0.074   2.830  1.7611 -0.8763 -0.7151
  349SOL     MW 1396   1.481   0.147   2.799  0.0651 -0.3493 -0.2896
  350SOL     OW 1397   1.819   0.658   2.634 -0.4514 -0.0991  0.1611
  350SOL    HW1 1398   1.777   0.590   2.577 -0.8824  0.0238  2.6634
  350SOL    HW2 1399   1.909   0.620   2.641  2.2452 -1.5597 -1.7904
  350SOL     MW 1400   1.825   0.644   2.628 -0.1524 -0.2756  0.2337
  351SOL     OW 1401   0.090   1.145   1.603 -0.2006  0.3697 -0.7471
  351SOL    HW1 1402   0.011   1.110   1.651 -0.4481 -1.5189 -1.6268
  351SOL    HW2 1403   0.143   1.194   1.664 -0.5017 -0.2406 -1.9432
  351SOL     MW 1404   0.087   1.147   1.618 -0.2730  0.0400 -1.0210
  352SOL     OW 1405   0.758   1.799   2.787 -0.3108  0.6170 -0.1751
  352SOL    HW1 1406   0.762   1.746   2.869  1.5475 -0.0197 -1.4012
  352SOL    HW2 1407   0.729   1.728   2.731  1.8430 -2.0716 -0.7475
  352SOL     MW 1408   0.755   1.783   2.790  0.2186  0.1783 -0.4124
  353SOL     OW 1409   0.022   2.573   2.652 -0.0169  0.0309 -0.4589
  353SOL    HW1 1410   0.108   2.531   2.633 -0.9549  1.1658 -1.6869
  353SOL    HW2 1411   0.009   2.629   2.574  1.1960  0.3596 -0.2379
  353SOL     MW 1412   0.032   2.575   2.639  0.0194  0.2240 -0.5918
  354SOL     OW 1413   0.378   2.426   0.879  0.2781 -0.1798 -0.4752
  354SOL    HW1 1414   0.392   2.402   0.967  2.2514  0.0472 -2.0084
  354SOL    HW2 1415   0.308   2.373   0.861  0.1754 -0.7846  0.7915
  354SOL     MW 1416   0.370   2.415   0.888  0.5249 -0.2296 -0.5104
  355SOL     OW 1417   0.043   2.189   0.393  0.7114  0.8724 -0.0132
  355SOL    HW1 1418  -0.040   2.140   0.380 -0.0667 -3.0856 -0.3839
  355SOL    HW2 1419   0.046   2.226   0.481  0.4955 -0.1741  0.5494
  355SOL     MW 1420   0.033   2.188   0.403  0.5802  0.2121  0.0121
  356SOL     OW 1421   0.755   2.948   1.063 -0.5572  0.7245 -0.0544
  356SOL    HW1 1422   0.824   2.923   0.997 -0.6540  1.6091 -1.8954
  356SOL    HW2 1423   0.672   2.909   1.041 -0.3553 -0.9213  1.5048
  356SOL     MW 1424   0.753   2.940   1.052 -0.5433  0.6241 -0.0916
  357SOL     OW 1425   1.840   2.814   0.465  0.0145 -0.2412 -0.3551
  357SOL    HW1 1426   1.828   2.791   0.558  0.1968  0.8254 -0.2058
  357SOL    HW2 1427   1.931   2.783   0.447 -2.5678 -1.4365 -2.1209
  357SOL     MW 1428   1.851   2.807   0.475 -0.3022 -0.2582 -0.5684
  358SOL     OW 1429   0.426   0.159   1.069  0.2713 -0.1192  0.3881
  358SOL    HW1 1430   0.525   0.153   1.064  0.0671 -2.5226 -0.4799
  358SOL    HW2 1431   0.399   0.189   0.981  0.1976  0.9320  0.3434
  358SOL     MW 1432   0.436   0.163   1.057  0.2347 -0.2976  0.2677
  359SOL     OW 1433   0.902   2.981   1.851 -0.0913  0.0606  0.0611
  359SOL    HW1 1434   0.911   2.892   1.827 -1.2334 -2.7051 -0.7167
  359SOL    HW2 1435   0.936   3.028   1.773  0.3216  0.4516 -2.1651
  359SOL     MW 1436   0.908   2.976   1.838 -0.1875 -0.2527 -0.3353
  360SOL     OW 1437   0.563   2.789   0.914  0.6321  0.1228  0.2285
  360SOL    HW1 1438   0.602   2.767   0.830 -0.3547 -0.8463  1.6708
  360SOL    HW2 1439   0.567   2.704   0.967 -0.2325 -1.1450  0.0723
  360SOL     MW 1440   0.568   2.775   0.910  0.3878 -0.1723  0.3982
  361SOL     OW 1441   0.244   2.704   1.363 -0.7013  0.4008 -0.1950
  361SOL    HW1 1442   0.174   2.734   1.417  0.3587 -4.0114 -1.7854
  361SOL    HW2 1443   0.294   2.783   1.332  0.1917  2.1712 -1.7718
  361SOL     MW 1444   0.241   2.718   1.366 -0.4436  0.0522 -0.6129
  362SOL     OW 1445   1.366   2.425   0.607  0.1939 -0.2666  0.0379
  362SOL    HW1 1446   1.415   2.381   0.673  0.8523  2.0598  1.8607
  362SOL    HW2 1447   1.413   2.508   0.582 -2.2578  0.6540 -0.4052
  362SOL     MW 1448   1.379   2.430   0.612 -0.0427  0.1618  0.2200
  363SOL     OW 1449   0.338   3.098   0.672 -0.5579  0.1985  0.2387
  363SOL    HW1 1450   0.324   3.019   0.730 -2.7780  0.1327  2.8080
  363SOL    HW2 1451   0.248   3.128   0.648 -2.3671 -2.0507  0.2483
  363SOL     MW 1452   0.324   3.092   0.677 -1.0895 -0.1069  0.5789
  364SOL     OW 1453   0.801   0.210   0.123 -0.0434 -0.4933 -0.3443
  364SOL    HW1 1454   0.752   0.152   0.177 -0.5371 -0.3380  2.2768
  364SOL    HW2 1455   0.740   0.281   0.111  1.1470 -2.3699  0.8312
  364SOL     MW 1456   0.786   0.212   0.129  0.0485 -0.7204  0.1566
  365SOL     OW 1457   0.880   1.996   1.208 -0.0792  0.2975  0.1881
  365SOL    HW1 1458   0.845   2.072   1.158  0.3423 -2.1305  1.1762
  365SOL    HW2 1459   0.858   1.918   1.149 -0.5712  0.9825  2.5802
  365SOL     MW 1460   0.873   1.996   1.194 -0.0885  0.0675  0.6341
  366SOL     OW 1461   2.938   2.639   0.956 -0.1529  0.3927 -0.5865
  366SOL    HW1 1462   3.010   2.626   1.024 -0.3115  1.1073  0.4605
  366SOL    HW2 1463   2.981   2.695   0.889  2.1861 -2.3015  1.7256
  366SOL     MW 1464   2.953   2.645   0.956  0.1348  0.1315 -0.1433
  367SOL     OW 1465   1.198   2.978   0.986  0.5899  0.7206  0.3852
  367SOL    HW1 1466   1.273   3.026   0.947 -0.0812 -0.3217  2.8913
  367SOL    HW2 1467   1.149   2.930   0.923  0.5116 -2.9034  0.4877
  367SOL     MW 1468   1.202   2.978   0.972  0.4911  0.1049  0.7294
  368SOL     OW 1469   1.727   0.422   0.642 -0.3545  0.0291 -0.2651
  368SOL    HW1 1470   1.780   0.360   0.593 -0.2324  2.6632 -2.8572
  368SOL    HW2 1471   1.756   0.511   0.619  0.6058  0.5383  1.0728
  368SOL     MW 1472   1.738   0.425   0.633 -0.2117  0.4438 -0.4306
  369SOL     OW 1473   0.151   2.390   1.773 -0.1919  0.5365 -0.6342
  369SOL    HW1 1474   0.248   2.387   1.787  4.1246  0.6736 -0.9945
  369SOL    HW2 1475   0.127   2.487   1.763  0.6365 -0.2464 -0.1175
  369SOL     MW 1476   0.161   2.403   1.774  0.4869  0.4513 -0.6135
  370SOL     OW 1477   0.731   0.151   1.053 -0.6359 -0.5208  0.0933
  370SOL    HW1 1478   0.797   0.185   0.989  0.3303 -0.1258 -0.2075
  370SOL    HW2 1479   0.745   0.049   1.045  1.6352 -1.6311 -0.9007
  370SOL     MW 1480   0.741   0.142   1.043 -0.2087 -0.6152 -0.0775
  371SOL     OW 1481   1.183   2.873   1.475 -0.5911  0.8106 -0.1402
  371SOL    HW1 1482   1.195   2.785   1.440  0.4833 -0.0370  2.2589
  371SOL    HW2 1483   1.153   2.932   1.402 -0.6394 -2.6235 -3.2057
  371SOL     MW 1484   1.180   2.869   1.461 -0.4557  0.2457 -0.2281
  372SOL     OW 1485   0.799   2.321   0.499  0.2352  0.4015 -0.3592
  372SOL    HW1 1486   0.772   2.234   0.538  3.1311 -0.1548  2.0052
  372SOL    HW2 1487   0.807   2.301   0.405  2.5943  3.5015 -0.8338
  372SOL     MW 1488   0.797   2.307   0.491  0.9285  0.7371 -0.1099
  373SOL     OW 1489   2.852   2.998   1.417  0.2146  0.3585 -0.0774
  373SOL    HW1 1490   2.931   2.967   1.373  1.0437 -0.7549 -3.2353
  373SOL    HW2 1491   2.821   3.069   1.364  0.8029 -1.6837 -1.6364
  373SOL     MW 1492   2.858   3.003   1.404  0.4016 -0.0578 -0.6998
  374SOL     OW 1493   1.591   0.455   0.287  0.3040  0.2606 -0.1138
  374SOL    HW1 1494   1.673   0.401   0.283  1.2703 -4.1840  1.0034
  374SOL    HW2 1495   1.547   0.415   0.362 -1.5346 -0.2422 -0.3757
  374SOL     MW 1496   1.596   0.442   0.296  0.1889 -0.3922 -0.0010
  375SOL     OW 1497   1.024   2.130   2.277  0.7396 -0.7372 -0.1265
  375SOL    HW1 1498   1.068   2.087   2.348  0.3372  1.3158 -2.2217
  375SOL    HW2 1499   0.992   2.066   2.214 -0.2470  0.8892  0.3739
  375SOL     MW 1500   1.026   2.116   2.278  0.5564 -0.2518 -0.3369
  376SOL     OW 1501   0.776   2.496   0.113  0.1268  0.1194  0.6550
  376SOL    HW1 1502   0.712   2.446   0.159  2.0762 -1.3105  1.4978
  376SOL    HW2 1503   0.770   2.474   0.021 -0.4832 -0.3400  0.3505
  376SOL     MW 1504   0.767   2.486   0.107  0.3035 -0.1299  0.7260
  377SOL     OW 1505   1.338   2.048   0.933  0.8333  0.1811 -0.0232
  377SOL    HW1 1506   1.266   2.041   0.875 -1.0430  3.5539  1.3353
  377SOL    HW2 1507   1.294   2.019   1.017  0.9295 -0.5469  0.8311
  377SOL     MW 1508   1.323   2.044   0.937  0.5985  0.5301  0.2687
  378SOL     OW 1509   0.892   2.850   1.527 -0.0339 -0.3660  0.0244
  378SOL    HW1 1510   0.931   2.764   1.549 -4.5569  0.5297 -0.4063
  378SOL    HW2 1511   0.968   2.898   1.497 -1.4574  4.0262  1.9550
  378SOL     MW 1512   0.907   2.845   1.526 -0.8185  0.3317  0.2223
  379SOL     OW 1513   1.099   1.617   2.232 -0.5311 -0.4003  0.2329
  379SOL    HW1 1514   1.033   1.573   2.180 -0.6572 -0.4335  2.5531
  379SOL    HW2 1515   1.177   1.563   2.228  0.5197  0.2668  2.3558
  379SOL     MW 1516   1.101   1.604   2.225 -0.4091 -0.3167  0.8191
  380SOL     OW 1517   0.879   0.104   1.434  0.3819 -0.0829  0.5230
  380SOL    HW1 1518   0.921   0.053   1.369 -1.3125  2.2993  1.6376
  380SOL    HW2 1519   0.947   0.110   1.507  1.7994 -1.1231  0.2354
  380SOL     MW 1520   0.894   0.098   1.435  0.3454  0.0941  0.6321
  381SOL     OW 1521   0.811   2.044   0.838 -0.3645  0.3469  0.7655
  381SOL    HW1 1522   0.906   2.055   0.834  1.4741 -0.4497  0.6922
  381SOL    HW2 1523   0.782   2.118   0.892 -0.5534 -2.7080 -0.0583
  381SOL     MW 1524   0.820   2.055   0.844 -0.1468 -0.1613  0.6472
  382SOL     OW 1525   0.834   0.153   0.618  0.4148 -0.1676 -0.4379
  382SOL    HW1 1526   0.801   0.208   0.693 -0.7605  1.9034  0.3163
  382SOL    HW2 1527   0.762   0.087   0.597 -1.6922  0.3399  0.0841
  382SOL     MW 1528   0.820   0.151   0.625 -0.0183  0.1726 -0.2695
  383SOL     OW 1529   0.615   0.053   0.329  0.3805 -0.9351  0.1403
  383SOL    HW1 1530   0.635  -0.018   0.269 -1.0718 -0.3389  1.1942
  383SOL    HW2 1531   0.544   0.005   0.373  1.2003 -0.2612  1.5970
  383SOL     MW 1532   0.608   0.037   0.327  0.2970 -0.7675  0.4716
  384SOL     OW 1533   0.746   2.979   0.645  0.3299 -0.0081 -0.5594
  384SOL    HW1 1534   0.793   2.964   0.732 -1.7224  0.5246 -2.5439
  384SOL    HW2 1535   0.669   2.923   0.652 -1.2561  1.8377  1.5056
  384SOL     MW 1536   0.742   2.970   0.657 -0.1501  0.3057 -0.5488
  385SOL     OW 1537   1.364   2.080   1.533 -0.6118  0.0295  0.0684
  385SOL    HW1 1538   1.428   2.133   1.579 -1.3971  0.0961 -2.5243
  385SOL    HW2 1539   1.370   1.996   1.579 -1.3162  0.2535 -3.1069
  385SOL     MW 1540   1.373   2.076   1.545 -0.8083  0.0678 -0.6926
  386SOL     OW 1541   1.450   0.418   0.906  0.3706  0.5293  0.1376
  386SOL    HW1 1542   1.393   0.444   0.978  0.2888  2.9826 -0.8894
  386SOL    HW2 1543   1.546   0.428   0.926 -0.2528  2.7023 -1.8907
  386SOL     MW 1544   1.455   0.423   0.918  0.2776  1.1397 -0.2655
  387SOL     OW 1545   0.799   2.202   1.577 -0.1578  0.7905  0.5931
  387SOL    HW1 1546   0.861   2.244   1.519 -3.0954 -0.8175  1.4403
  387SOL    HW2 1547   0.816   2.105   1.568 -2.5774 -0.3172  1.1021
  387SOL     MW 1548   0.810   2.195   1.568 -0.8646  0.4322  0.7721
  388SOL     OW 1549   1.472   2.755   1.372  0.3097 -0.6174  0.8743
  388SOL    HW1 1550   1.451   2.840   1.321 -2.1300  1.4159  1.6441
  388SOL    HW2 1551   1.464   2.681   1.309 -0.1710 -0.9848  2.9314
  388SOL     MW 1552   1.468   2.757   1.357 -0.0756 -0.3976  1.2472
  389SOL     OW 1553   0.517   0.141   3.071 -0.4269 -0.1651 -0.0872
  389SOL    HW1 1554   0.601   0.093   3.070  0.2132 -1.3901 -0.0992
  389SOL    HW2 1555   0.522   0.181   2.986  0.4111  0.4408 -2.5934
  389SOL     MW 1556   0.529   0.140   3.059 -0.2319 -0.2468 -0.4194
  390SOL     OW 1557   1.372   0.033   0.752 -0.1550  0.0266  0.1990
  390SOL    HW1 1558   1.380   0.026   0.657 -1.5551 -2.0738 -1.9121
  390SOL    HW2 1559   1.447   0.074   0.787  1.5272 -0.5057 -0.5927
  390SOL     MW 1560   1.383   0.037   0.744 -0.1178 -0.3208 -0.1840
  391SOL     OW 1561   0.350   2.183   1.511 -0.3206 -0.2474 -0.5528
  391SOL    HW1 1562   0.334   2.158   1.604  1.9092  1.2927  2.8406
  391SOL    HW2 1563   0.306   2.268   1.494  0.9679  0.6546 -1.6220
  391SOL     MW 1564   0.342   2.191   1.521  0.1436  0.0748 -0.2461
  392SOL     OW 1565   1.963   2.231   0.320 -0.6417 -0.0569  0.1777
  392SOL    HW1 1566   2.040   2.288   0.334 -0.5138 -1.1687 -0.1641
  392SOL    HW2 1567   1.887   2.283   0.347  0.7760 -0.6798  0.0337
  392SOL     MW 1568   1.963   2.245   0.326 -0.4378 -0.2858  0.1136
  393SOL     OW 1569   0.255   2.975   2.870  0.0647  0.0849 -0.4270
  393SOL    HW1 1570   0.332   2.973   2.816  0.7733 -1.1427  1.0476
  393SOL    HW2 1571   0.229   3.070   2.850 -0.7045  0.2122  0.6734
  393SOL     MW 1572   0.262   2.988   2.861  0.0567 -0.0603 -0.0872
  394SOL     OW 1573   1.049   1.769   1.501  0.1758  0.2900 -0.2075
  394SOL    HW1 1574   1.061   1.787   1.596 -0.5765  0.9128  2.1278
  394SOL    HW2 1575   0.975   1.825   1.487  0.4656 -1.3588  1.2285
  394SOL     MW 1576   1.041   1.779   1.512  0.1148  0.1547  0.2900
  395SOL     OW 1577   0.914   2.953   2.676 -0.2872 -0.1700  0.9431
  395SOL    HW1 1578   0.984   2.999   2.736  0.8203  0.1915  4.1667
  395SOL    HW2 1579   0.966   2.880   2.636  1.0080 -0.0583  1.9385
  395SOL     MW 1580   0.931   2.949   2.679  0.0298 -0.1075  1.4998
  396SOL     OW 1581   0.745   1.894   2.381  0.2939 -0.1197 -1.2166
  396SOL    HW1 1582   0.816   1.912   2.440 -0.3389  0.3886  3.1355
  396SOL    HW2 1583   0.740   1.799   2.395  2.2344 -0.3255  0.0252
  396SOL     MW 1584   0.754   1.883   2.391  0.4664 -0.0798 -0.4785
  397SOL     OW 1585   0.964   2.300   1.378  0.0903  0.3519 -0.0581
  397SOL    HW1 1586   1.010   2.310   1.299  0.7921  0.0632  1.9600
  397SOL    HW2 1587   1.036   2.303   1.440  4.8469 -1.1157 -0.2083
  397SOL     MW 1588   0.979   2.301   1.376  0.8105  0.1202  0.1884
  398SOL     OW 1589   0.622   2.719   0.631  0.3715 -0.3059  0.1476
  398SOL    HW1 1590   0.590   2.667   0.554 -0.3258  1.6748  0.9927
  398SOL    HW2 1591   0.704   2.669   0.651  1.1350  1.4943  1.8981
  398SOL     MW 1592   0.628   2.705   0.623  0.3803  0.1930  0.4901
  399SOL     OW 1593   0.308   2.095   0.330  0.5011  0.1038  0.7690
  399SOL    HW1 1594   0.218   2.136   0.346 -0.1810 -0.3355 -0.4845
  399SOL    HW2 1595   0.334   2.121   0.245  2.2614 -0.6587  0.3690
  399SOL     MW 1596   0.299   2.104   0.321  0.6433 -0.0548  0.5509
  400SOL     OW 1597   0.609   1.903   0.083 -0.1250  0.2892 -0.3215
  400SOL    HW1 1598   0.561   1.980   0.118  1.5278 -2.5911 -1.0605
  400SOL    HW2 1599   0.611   1.843   0.158  0.9299  1.6527  0.2557
  400SOL     MW 1600   0.603   1.905   0.097  0.2322  0.0890 -0.3429
  401SOL     OW 1601   0.819   2.071   0.042  0.4514  0.1892 -0.0317
  401SOL    HW1 1602   0.902   2.015   0.041  0.5512  0.3314 -1.0311
  401SOL    HW2 1603   0.744   2.012   0.031 -0.3403  0.2414 -1.7656
  401SOL     MW 1604   0.820   2.056   0.041  0.3601  0.2149 -0.3923
  402SOL     OW 1605   0.550   3.009   1.740  0.2661  0.1140  0.4344
  402SOL    HW1 1606   0.636   2.974   1.770  0.6611 -0.3239  1.9083
  402SOL    HW2 1607   0.574   3.087   1.698 -1.3947  0.4951  1.0804
  402SOL     MW 1608   0.565   3.014   1.739  0.0991  0.1065  0.7141
  403SOL     OW 1609   0.131   0.519   0.400  0.3955  0.1066 -0.2671
  403SOL    HW1 1610   0.225   0.535   0.427  2.9248  1.7182  1.2093
  403SOL    HW2 1611   0.144   0.506   0.301 -0.3790  0.7763 -0.0022
  403SOL     MW 1612   0.145   0.520   0.390  0.6270  0.4076 -0.0373
  404SOL     OW 1613   0.949   2.925   0.849 -0.1544  0.5167  0.1106
  404SOL    HW1 1614   0.983   2.848   0.812 -1.4376  0.3542  2.6725
  404SOL    HW2 1615   0.987   3.003   0.816 -0.0110  0.3250 -1.6110
  404SOL     MW 1616   0.958   2.925   0.840 -0.3048  0.4700  0.2215
  405SOL     OW 1617   0.497   2.463   1.506  0.4614  0.4015  0.6942
  405SOL    HW1 1618   0.496   2.537   1.447 -0.1853 -4.5125 -4.2321
  405SOL    HW2 1619   0.555   2.399   1.464 -0.4889 -3.5383 -0.7311
  405SOL     MW 1620   0.505   2.464   1.492  0.2507 -0.7667 -0.1438
  406SOL     OW 1621   0.407   2.357   1.133 -0.0413 -0.1839 -0.6830
  406SOL    HW1 1622   0.320   2.370   1.170 -0.2128  1.8430  0.7161
  406SOL    HW2 1623   0.444   2.280   1.183  0.6275  1.2270 -1.0643
  406SOL     MW 1624   0.401   2.349   1.144  0.0243  0.2697 -0.5487
  407SOL     OW 1625   0.042   2.657   1.163  0.1464 -0.0345  0.4320
  407SOL    HW1 1626   0.094   2.640   1.238  1.1360 -0.1575 -0.6447
  407SOL    HW2 1627   0.102   2.694   1.097  2.1240 -0.8090  2.6254
  407SOL     MW 1628   0.057   2.660   1.165  0.5379 -0.1529  0.5793
  408SOL     OW 1629   2.119   2.121   0.759  0.1866 -0.3523  0.2061
  408SOL    HW1 1630   2.044   2.171   0.813  2.0392  2.5096  1.4352
  408SOL    HW2 1631   2.071   2.074   0.681  1.0826 -0.1733 -3.2333
  408SOL     MW 1632   2.103   2.121   0.756  0.5493  0.0489 -0.0856
  409SOL     OW 1633   1.619   0.142   0.844  0.4866 -0.2529 -0.3748
  409SOL    HW1 1634   1.627   0.235   0.839  1.3180 -0.4395 -3.8189
  409SOL    HW2 1635   1.592   0.119   0.932 -2.7297 -1.1736 -2.2859
  409SOL     MW 1636   1.617   0.151   0.855  0.1720 -0.3990 -1.0814
  410SOL     OW 1637   1.083   2.409   1.152  0.1259  0.1175 -0.2678
  410SOL    HW1 1638   1.030   2.461   1.096 -0.2377  0.6315  1.8598
  410SOL    HW2 1639   1.146   2.363   1.094 -1.4967  0.2652 -0.3180
  410SOL     MW 1640   1.085   2.410   1.137 -0.1361  0.2048  0.0063
  411SOL     OW 1641   2.010   2.951   2.911 -0.1593 -0.2261 -0.2713
  411SOL    HW1 1642   2.007   2.897   2.831  1.2999  0.7235 -2.2398
  411SOL    HW2 1643   1.995   3.041   2.882  0.3915 -0.3276  1.0524
  411SOL     MW 1644   2.008   2.956   2.896  0.1059 -0.1142 -0.3563
  412SOL     OW 1645   1.034   2.220   0.606  0.2085  0.1287 -0.2834
  412SOL    HW1 1646   1.083   2.302   0.620  1.5181  1.2956 -0.3453
  412SOL    HW2 1647   0.956   2.245   0.552 -2.9318 -2.0165  0.8945
  412SOL     MW 1648   1.030   2.234   0.600 -0.0331 -0.0004 -0.1362
  413SOL     OW 1649   0.590   2.720   0.100  0.3678 -0.3929 -0.6646
  413SOL    HW1 1650   0.672   2.664   0.126  1.6271  0.6019  0.2353
  413SOL    HW2 1651   0.604   2.763   0.018 -1.2426 -2.6738  0.8014
  413SOL     MW 1652   0.603   2.718   0.093  0.3215 -0.5626 -0.3525
  414SOL     OW 1653   1.988   3.038   1.088  0.0548 -0.2412 -0.4424
  414SOL    HW1 1654   1.978   3.126   1.128  1.6063 -0.4230 -0.6199
  414SOL    HW2 1655   2.057   3.058   1.024 -0.3166  1.0631 -3.8223
  414SOL     MW 1656   1.996   3.052   1.085  0.2105 -0.0931 -0.9117
  415SOL     OW 1657   1.625   2.830   1.123 -0.4029 -0.5238 -0.3519
  415SOL    HW1 1658   1.647   2.787   1.205  1.4598 -0.3618 -0.7851
  415SOL    HW2 1659   1.697   2.798   1.065  0.9909  2.3873  0.0759
  415SOL     MW 1660   1.638   2.820   1.126  0.0268 -0.1184 -0.3526
  416SOL     OW 1661   0.604   1.703   1.508  0.5030 -0.4651 -0.5906
  416SOL    HW1 1662   0.536   1.693   1.450 -0.8069  1.4003  1.3151
  416SOL    HW2 1663   0.685   1.677   1.466 -0.4225  0.3487  0.7869
  416SOL     MW 1664   0.606   1.699   1.495  0.2080 -0.1116 -0.1574
  417SOL     OW 1665   0.994   0.009   2.078 -0.4422  0.1061  0.5497
  417SOL    HW1 1666   0.938   0.032   2.151 -0.6954 -1.5016  0.5845
  417SOL    HW2 1667   0.936  -0.016   2.007  0.4547 -0.1904  1.7651
  417SOL     MW 1668   0.979   0.009   2.078 -0.3573 -0.1451  0.7147
  418SOL     OW 1669   0.756   2.961   0.135 -0.4249 -0.7142 -0.0680
  418SOL    HW1 1670   0.832   2.924   0.085  0.6136 -0.3732  1.2753
  418SOL    HW2 1671   0.695   2.883   0.134 -1.0322 -1.3666 -0.7570
  418SOL     MW 1672   0.758   2.946   0.128 -0.3680 -0.7553  0.0183
  419SOL     OW 1673   0.582   2.680   1.353  0.4841 -0.0669  0.2341
  419SOL    HW1 1674   0.594   2.767   1.403  2.8028  1.4386 -0.2311
  419SOL    HW2 1675   0.664   2.629   1.371  2.6630 -0.9858 -0.3081
  419SOL     MW 1676   0.594   2.685   1.362  1.0775  0.0105  0.1012
  420SOL     OW 1677   0.792   2.254   1.032  0.3207 -0.0511 -0.0263
  420SOL    HW1 1678   0.710   2.288   1.060  1.5106 -0.5196  1.2277
  420SOL    HW2 1679   0.845   2.334   1.020 -1.5157 -1.5210 -1.7051
  420SOL     MW 1680   0.788   2.269   1.034  0.2354 -0.3069 -0.0824
  421SOL     OW 1681   2.898   0.161   0.033 -0.1908  0.6520  0.4401
  421SOL    HW1 1682   2.808   0.143   0.004 -0.1399 -0.4960  2.2773
  421SOL    HW2 1683   2.934   0.072   0.047  0.1111  1.4373 -0.9963
  421SOL     MW 1684   2.891   0.147   0.031 -0.1442  0.6042  0.4930
  422SOL     OW 1685   0.866   2.507   0.982  0.4562 -0.5021  0.0093
  422SOL    HW1 1686   0.772   2.521   1.010  1.0281  0.4626 -1.2687
  422SOL    HW2 1687   0.858   2.504   0.884  1.0227  1.1881  0.9136
  422SOL     MW 1688   0.852   2.509   0.973  0.6064 -0.1518 -0.0400
  423SOL     OW 1689   1.462   0.070   0.472  0.3676  0.1486  0.0539
  423SOL    HW1 1690   1.507   0.032   0.388  0.7740  0.5617 -1.5925
  423SOL    HW2 1691   1.490   0.164   0.488  0.0606 -1.9344 -1.7352
  423SOL     MW 1692   1.472   0.077   0.463  0.3807 -0.0717 -0.3994
  424SOL     OW 1693   0.639   2.267   1.375  0.4541 -0.2224 -0.1402
  424SOL    HW1 1694   0.575   2.197   1.379 -0.2324  3.2833  0.7867
  424SOL    HW2 1695   0.710   2.235   1.432 -0.7641 -1.0806 -1.7810
  424SOL     MW 1696   0.640   2.253   1.383  0.2028  0.1269 -0.2344
  425SOL     OW 1697   1.680   2.799   2.039  0.1036 -0.2827 -0.4720
  425SOL    HW1 1698   1.697   2.829   1.947  2.6091  0.8994 -2.4007
  425SOL    HW2 1699   1.735   2.720   2.044  0.8126  0.8863  1.6572
  425SOL     MW 1700   1.690   2.792   2.027  0.5277  0.0275 -0.4456
  426SOL     OW 1701   0.879   1.717   1.958 -0.3489 -0.2016  0.1096
  426SOL    HW1 1702   0.809   1.733   1.889 -1.7218 -0.0200 -1.9976
  426SOL    HW2 1703   0.885   1.791   2.016 -1.5529 -0.0541 -3.1161
  426SOL     MW 1704   0.871   1.729   1.956 -0.6889 -0.1582 -0.5941
  427SOL     OW 1705   0.388   1.718   1.884  0.5962  0.4236  0.0254
  427SOL    HW1 1706   0.413   1.650   1.824 -1.5261  3.1265  2.4332
  427SOL    HW2 1707   0.325   1.677   1.937  0.2587 -1.4634  0.8543
  427SOL     MW 1708   0.383   1.703   1.883  0.2717  0.5312  0.4524
  428SOL     OW 1709   0.578   2.589   1.086  0.0920 -0.0660  0.2699
  428SOL    HW1 1710   0.509   2.530   1.107 -0.6354  0.3110 -1.9128
  428SOL    HW2 1711   0.599   2.633   1.173  2.4134 -3.0818 -1.4165
  428SOL     MW 1712   0.571   2.587   1.100  0.3023 -0.4141 -0.2406
  429SOL     OW 1713   1.169   2.714   1.102 -0.8926  0.0350 -0.0683
  429SOL    HW1 1714   1.100   2.742   1.162 -0.1662 -1.2314 -0.1916
  429SOL    HW2 1715   1.199   2.801   1.074  1.7829 -0.4352 -0.7424
  429SOL     MW 1716   1.164   2.729   1.107 -0.4438 -0.1941 -0.1735
  430SOL     OW 1717   1.162   2.772   0.748  0.0059 -0.0240  0.3075
  430SOL    HW1 1718   1.146   2.683   0.784  0.4271 -0.9700  4.2144
  430SOL    HW2 1719   1.139   2.749   0.654  0.7044  0.6368  1.2009
  430SOL     MW 1720   1.157   2.757   0.740  0.1536 -0.0616  0.9409
  431SOL     OW 1721   0.310   1.935   1.118 -0.2032  0.2566  0.2108
  431SOL    HW1 1722   0.372   1.863   1.102  2.9840 -2.8459  0.3355
  431SOL    HW2 1723   0.273   1.952   1.027 -0.0436 -4.0270 -1.8791
  431SOL     MW 1724   0.313   1.928   1.104  0.2384 -0.7179 -0.0485
  432SOL     OW 1725   0.063   3.089   1.130 -0.4099 -0.6656 -0.2526
  432SOL    HW1 1726   0.047   3.150   1.205  1.6300  4.0359 -0.6315
  432SOL    HW2 1727  -0.001   3.021   1.153 -1.3713  2.5658 -4.9489
  432SOL     MW 1728   0.053   3.088   1.143 -0.2676  0.3811 -0.9222
  433SOL     OW 1729   0.631   2.916   1.463 -0.3925  0.0681  0.0446
  433SOL    HW1 1730   0.613   2.999   1.506 -1.7545  0.9220  0.5719
  433SOL    HW2 1731   0.730   2.884   1.491  1.1305 -0.1162 -1.9394
  433SOL     MW 1732   0.642   2.923   1.472 -0.3712  0.1564 -0.1476
  434SOL     OW 1733   1.528   2.837   1.627  0.2786  0.1201 -0.0504
  434SOL    HW1 1734   1.445   2.879   1.648 -0.2775  1.5621 -0.0741
  434SOL    HW2 1735   1.511   2.811   1.533 -0.6545 -0.2084 -0.9252
  434SOL     MW 1736   1.515   2.839   1.617  0.0821  0.2670 -0.1690
  435SOL     OW 1737   2.747   1.759   0.209  0.0238 -0.6304 -0.1691
  435SOL    HW1 1738   2.806   1.818   0.169  0.5784  0.2879 -2.8449
  435SOL    HW2 1739   2.664   1.799   0.192  1.3756 -0.4558  1.7327
  435SOL     MW 1740   2.743   1.772   0.202  0.2753 -0.4862 -0.2712
  436SOL     OW 1741   1.339   2.708   0.321 -0.6303  0.3447 -0.2498
  436SOL    HW1 1742   1.409   2.691   0.380  0.7588  3.2189 -2.2193
  436SOL    HW2 1743   1.307   2.794   0.348 -4.0634 -1.3368 -1.0491
  436SOL     MW 1744   1.344   2.717   0.332 -0.9000  0.5021 -0.6151
  437SOL     OW 1745   1.037   3.014   1.286 -0.7628  1.0670 -0.3262
  437SOL    HW1 1746   1.036   3.075   1.212 -1.6778 -0.0907 -0.8393
  437SOL    HW2 1747   1.000   2.935   1.253 -0.7809  1.6228  0.2979
  437SOL     MW 1748   1.032   3.012   1.272 -0.8859  0.9876 -0.3116
  438SOL     OW 1749   0.907   2.715   1.912  0.3178  0.2012  0.0824
  438SOL    HW1 1750   0.902   2.660   1.995 -2.0685 -1.9047 -1.4338
  438SOL    HW2 1751   0.849   2.664   1.858 -2.4709 -0.4466  0.8004
  438SOL     MW 1752   0.899   2.701   1.915 -0.3650 -0.1621 -0.0229
  439SOL     OW 1753   1.224   2.075   0.429 -0.3642 -0.0485  0.4310
  439SOL    HW1 1754   1.152   2.107   0.487  0.5396  1.6381  0.8003
  439SOL    HW2 1755   1.221   2.142   0.354 -1.8609 -1.5632 -1.1137
  439SOL     MW 1756   1.214   2.088   0.427 -0.4425 -0.0258  0.2759
  440SOL     OW 1757   1.762   2.942   3.030 -0.6080 -0.8284  0.0557
  440SOL    HW1 1758   1.774   2.942   3.127 -1.7371  2.4007  0.8278
  440SOL    HW2 1759   1.846   2.945   2.989  0.8715 -1.0555  0.5363
  440SOL     MW 1760   1.775   2.943   3.037 -0.5618 -0.4323  0.2210
  441SOL     OW 1761   0.438   2.643   0.429  1.2953 -0.0509  0.2496
  441SOL    HW1 1762   0.382   2.610   0.360 -2.2592 -2.3498 -0.5306
  441SOL    HW2 1763   0.445   2.733   0.409 -0.6337 -0.8846  1.0647
  441SOL     MW 1764   0.431   2.651   0.417  0.5718 -0.4642  0.2542
  442SOL     OW 1765   0.034   2.340   0.642  0.1979  0.3404  0.1075
  442SOL    HW1 1766   0.035   2.421   0.586 -1.9320  3.2988 -1.2560
  442SOL    HW2 1767  -0.054   2.332   0.678 -0.3880 -0.5268  2.3555
  442SOL     MW 1768   0.022   2.350   0.640 -0.1605  0.6163  0.2242
  443SOL     OW 1769   1.478   1.775   1.881 -0.1722 -0.5689 -0.4045
  443SOL    HW1 1770   1.432   1.811   1.806 -1.7194 -1.0131  2.6540
  443SOL    HW2 1771   1.447   1.687   1.876  1.1255  0.8566  1.6092
  443SOL     MW 1772   1.468   1.768   1.871 -0.2051 -0.4394  0.2647
  444SOL     OW 1773   0.994   2.602   1.630 -0.1267 -0.2308 -0.5447
  444SOL    HW1 1774   1.036   2.541   1.693 -0.4699 -2.6735 -1.5171
  444SOL    HW2 1775   0.908   2.596   1.673 -0.9363 -1.2060  1.6131
  444SOL     MW 1776   0.988   2.593   1.644 -0.2788 -0.6818 -0.3883
  445SOL     OW 1777   1.256   0.156   1.409 -0.2065 -0.3036  0.0889
  445SOL    HW1 1778   1.222   0.212   1.476  1.4153  1.4475  0.4257
  445SOL    HW2 1779   1.190   0.168   1.341 -1.4025  0.6568 -0.3347
  445SOL     MW 1780   1.243   0.165   1.409 -0.1503  0.0541  0.0775
  446SOL     OW 1781   2.777   2.856   1.033  0.1842  0.2850 -0.4180
  446SOL    HW1 1782   2.729   2.882   0.954 -1.2346  1.0756 -0.2850
  446SOL    HW2 1783   2.810   2.773   1.011 -2.7293  2.4584  0.0259
  446SOL     MW 1784   2.775   2.849   1.020 -0.3874  0.6760 -0.3419
  447SOL     OW 1785   0.044   1.933   1.551  0.4616 -0.0124  0.1224
  447SOL    HW1 1786   0.045   1.904   1.646 -0.3781  0.2054  0.6951
  447SOL    HW2 1787  -0.032   1.879   1.520 -1.7662 -0.9126 -0.7354
  447SOL     MW 1788   0.034   1.922   1.560  0.0568 -0.1024  0.0848
  448SOL     OW 1789   1.739   2.404   1.667 -0.6634 -0.0111 -0.3015
  448SOL    HW1 1790   1.671   2.340   1.665 -1.2364  2.1653  2.5686
  448SOL    HW2 1791   1.687   2.484   1.673 -4.4127  0.3024  1.7089
  448SOL     MW 1792   1.723   2.406   1.668 -1.2337  0.3175  0.3424
  449SOL     OW 1793   0.879   2.942   0.405  0.2100  0.2860  0.1703
  449SOL    HW1 1794   0.822   2.946   0.329  0.9383  3.1157  0.9359
  449SOL    HW2 1795   0.822   2.953   0.482  0.4415  1.4418 -0.8690
  449SOL     MW 1796   0.864   2.944   0.405  0.3366  0.8119  0.1342
  450SOL     OW 1797   1.162   2.498   0.775 -0.8787  0.2163  0.0739
  450SOL    HW1 1798   1.197   2.444   0.854  2.2622 -0.9956  0.5021
  450SOL    HW2 1799   1.236   2.482   0.715  0.2236  0.2785  1.2446
  450SOL     MW 1800   1.177   2.489   0.778 -0.3188  0.0646  0.2849
  451SOL     OW 1801   0.528   1.919   1.693 -0.0237 -0.1492 -0.5867
  451SOL    HW1 1802   0.602   1.896   1.641 -0.5815  2.4961  0.5930
  451SOL    HW2 1803   0.446   1.901   1.638 -1.4491 -3.5486 -0.4565
  451SOL     MW 1804   0.527   1.914   1.679 -0.2854 -0.2487 -0.4139
  452SOL     OW 1805   0.340   2.621   0.017 -0.2617  0.5913 -0.4100
  452SOL    HW1 1806   0.420   2.666   0.048  1.4974 -0.4967  0.4897
  452SOL    HW2 1807   0.259   2.680   0.012 -2.2664  1.7641  1.5130
  452SOL     MW 1808   0.340   2.635   0.021 -0.2941  0.6025 -0.0376
  453SOL     OW 1809   0.285   3.055   1.563 -0.5679 -0.6798  0.2266
  453SOL    HW1 1810   0.311   2.980   1.618  0.0419 -0.8882 -1.0071
  453SOL    HW2 1811   0.329   3.039   1.477  1.3624  0.7400 -0.4367
  453SOL     MW 1812   0.294   3.043   1.559 -0.2327 -0.5200 -0.0237
  454SOL     OW 1813   0.928   2.757   1.241  0.3070 -0.0679 -0.0906
  454SOL    HW1 1814   0.903   2.697   1.320 -0.9914 -0.3792  0.4234
  454SOL    HW2 1815   0.852   2.782   1.188  2.0958  0.5592 -1.9037
  454SOL     MW 1816   0.915   2.752   1.245  0.3717 -0.0262 -0.2620
  455SOL     OW 1817   1.754   2.878   0.192  0.7104 -0.5824 -0.4120
  455SOL    HW1 1818   1.779   2.862   0.283  1.5058  1.0037 -2.5054
  455SOL    HW2 1819   1.688   2.807   0.170  0.5831  0.2561 -2.4576
  455SOL     MW 1820   1.749   2.867   0.201  0.7986 -0.2625 -0.9581
  456SOL     OW 1821   2.764   0.271   1.465  0.3399 -0.0294  0.1755
  456SOL    HW1 1822   2.778   0.203   1.393 -0.6442 -0.3718 -1.4720
  456SOL    HW2 1823   2.793   0.351   1.432 -0.7117 -0.7260  1.1634
  456SOL     MW 1824   2.770   0.272   1.451  0.0713 -0.1665  0.0885
  457SOL     OW 1825   0.782   1.696   3.040 -0.2826 -0.3198 -0.4920
  457SOL    HW1 1826   0.687   1.689   3.038  0.5882  0.9520 -3.0513
  457SOL    HW2 1827   0.807   1.746   3.116  1.0354 -0.9682 -0.0139
  457SOL     MW 1828   0.772   1.702   3.050  0.0062 -0.2376 -0.7666
  458SOL     OW 1829   1.357   1.498   0.708  0.0655  0.3191  0.1930
  458SOL    HW1 1830   1.298   1.554   0.653  0.5876 -2.0433  2.9425
  458SOL    HW2 1831   1.338   1.410   0.681  1.2033  1.0627  0.8559
  458SOL     MW 1832   1.346   1.494   0.697  0.2845  0.1055  0.6432
  459SOL     OW 1833   1.595   3.091   0.254  0.6356 -0.1276  0.2339
  459SOL    HW1 1834   1.638   3.007   0.227  1.5231 -1.3661  0.5489
  459SOL    HW2 1835   1.528   3.108   0.180 -0.2237  0.3648 -1.6697
  459SOL     MW 1836   1.592   3.082   0.240  0.6393 -0.2261  0.0243
  460SOL     OW 1837   1.784   2.228   0.654 -0.3344 -0.0117  0.3477
  460SOL    HW1 1838   1.698   2.224   0.691 -0.1799  2.0583 -0.3958
  460SOL    HW2 1839   1.826   2.138   0.658 -1.7759 -1.2265 -0.3040
  460SOL     MW 1840   1.778   2.216   0.659 -0.5042  0.1012  0.1637
  461SOL     OW 1841   0.429   2.424   0.594 -0.4348  0.0603 -0.5421
  461SOL    HW1 1842   0.425   2.505   0.543  1.6262  2.4979 -0.3278
  461SOL    HW2 1843   0.440   2.443   0.688 -2.1239 -0.6924 -0.6711
  461SOL     MW 1844   0.430   2.437   0.600 -0.3857  0.2826 -0.5308
  462SOL     OW 1845   0.274   0.229   1.294 -0.2514 -0.1469 -0.7830
  462SOL    HW1 1846   0.314   0.203   1.210  1.8576 -2.2086 -0.8037
  462SOL    HW2 1847   0.355   0.249   1.338 -1.7894  0.5062  0.9993
  462SOL     MW 1848   0.290   0.228   1.288 -0.1761 -0.3328 -0.5506
  463SOL     OW 1849   1.067   0.071   0.753 -0.0801  0.1215  0.4919
  463SOL    HW1 1850   1.149   0.031   0.720  1.1328 -1.4699 -1.0914
  463SOL    HW2 1851   1.024   0.122   0.685  3.4058 -1.3314 -1.7530
  463SOL     MW 1852   1.072   0.072   0.740  0.5398 -0.2802 -0.0132
  464SOL     OW 1853   0.768   3.098   2.276 -0.1747  0.2631  0.1271
  464SOL    HW1 1854   0.733   3.013   2.303  0.8342  0.2907 -3.5811
  464SOL    HW2 1855   0.813   3.136   2.354 -2.6533 -0.8661 -1.0799
  464SOL     MW 1856   0.770   3.092   2.290 -0.3686  0.1178 -0.5214
  465SOL     OW 1857   0.785   0.346   0.413  0.3388  0.6245  0.1585
  465SOL    HW1 1858   0.787   0.265   0.469 -1.5419  1.3002  2.1223
  465SOL    HW2 1859   0.782   0.307   0.327  1.2209  2.3195 -2.5382
  465SOL     MW 1860   0.785   0.330   0.409  0.2070  0.9373  0.0618
  466SOL     OW 1861   1.095   2.031   0.788  0.0442 -0.3627  0.4061
  466SOL    HW1 1862   1.065   1.958   0.739  0.5050  3.3770  0.9062
  466SOL    HW2 1863   1.083   2.109   0.727  0.2404 -0.2813 -0.5642
  466SOL     MW 1864   1.090   2.031   0.773  0.1309  0.1415  0.3441
  467SOL     OW 1865   1.286   2.313   0.971  0.5125  0.0237 -0.6518
  467SOL    HW1 1866   1.368   2.358   0.995  1.1011  0.4638 -1.6055
  467SOL    HW2 1867   1.296   2.217   0.961  2.6069 -0.6377  2.1287
  467SOL     MW 1868   1.298   2.306   0.972  0.8665 -0.0055 -0.4108
  468SOL     OW 1869   0.511   2.660   1.877  0.0670  0.0275  0.2068
  468SOL    HW1 1870   0.461   2.597   1.823 -0.7803  1.8113 -2.3071
  468SOL    HW2 1871   0.468   2.747   1.860 -0.6246  4.5671 -2.9100
  468SOL     MW 1872   0.499   2.664   1.868 -0.1360  0.8618 -0.5361
  469SOL     OW 1873   0.371   2.106   1.853 -0.9167 -0.3250 -0.0815
  469SOL    HW1 1874   0.283   2.068   1.857  0.7241  2.6542 -0.0904
  469SOL    HW2 1875   0.430   2.040   1.811  1.6128 -0.5846  0.2636
  469SOL     MW 1876   0.367   2.092   1.848 -0.3665  0.0338 -0.0371
  470SOL     OW 1877   3.047   2.610   0.100 -0.1234 -0.4650  0.1524
  470SOL    HW1 1878   2.964   2.614   0.153 -0.7605  1.3065 -1.3101
  470SOL    HW2 1879   3.027   2.608   0.002  1.3408  1.3622 -1.1315
  470SOL     MW 1880   3.033   2.611   0.094 -0.0143  0.0098 -0.2100
  471SOL     OW 1881   1.171   2.611   1.387  0.0672  0.1351 -0.5775
  471SOL    HW1 1882   1.109   2.594   1.459 -1.0254  0.5976  0.5588
  471SOL    HW2 1883   1.135   2.575   1.308 -1.6782  2.1378 -2.5258
  471SOL     MW 1884   1.158   2.604   1.386 -0.3072  0.4604 -0.6847
  472SOL     OW 1885   2.861   2.120   0.353  0.9379 -0.1815 -0.1743
  472SOL    HW1 1886   2.889   2.077   0.275 -0.0521 -0.5410 -0.1955
  472SOL    HW2 1887   2.802   2.061   0.390 -1.1179  0.4481 -0.6156
  472SOL     MW 1888   2.857   2.107   0.347  0.5360 -0.1459 -0.2353
  473SOL     OW 1889   0.810   2.565   1.404  0.2172 -0.1929  0.0898
  473SOL    HW1 1890   0.815   2.474   1.376 -0.5440  0.0779 -0.8283
  473SOL    HW2 1891   0.885   2.569   1.468  1.0591  0.4624 -0.1589
  473SOL     MW 1892   0.821   2.553   1.409  0.2278 -0.0707 -0.0641
  474SOL     OW 1893   0.676   2.319   1.803 -0.2724 -0.0351  0.1909
  474SOL    HW1 1894   0.763   2.316   1.847 -0.8034 -2.4122  2.9751
  474SOL    HW2 1895   0.689   2.270   1.726  0.8991  2.9171  1.0909
  474SOL     MW 1896   0.689   2.312   1.799 -0.1879  0.0408  0.6770
  475SOL     OW 1897   1.593   3.069   1.530 -0.1873  0.1341 -0.0514
  475SOL    HW1 1898   1.541   3.039   1.451  0.3800 -2.8270 -1.0345
  475SOL    HW2 1899   1.624   2.989   1.577 -3.6680 -0.9307 -0.3701
  475SOL     MW 1900   1.590   3.054   1.526 -0.5717 -0.3971 -0.2232
  476SOL     OW 1901   1.430   2.617   1.140  0.6364  0.5890  1.0382
  476SOL    HW1 1902   1.333   2.618   1.114  0.4769  1.6116  1.0576
  476SOL    HW2 1903   1.472   2.706   1.120  1.6561  1.5862  1.5294
  476SOL     MW 1904   1.423   2.629   1.134  0.7499  0.8555  1.1056
  477SOL     OW 1905   0.848   2.563   0.632 -0.2634 -0.2880 -0.1797
  477SOL    HW1 1906   0.912   2.623   0.590 -0.1286 -1.4976  2.3707
  477SOL    HW2 1907   0.848   2.487   0.580 -1.3726 -0.4795 -2.3872
  477SOL     MW 1908   0.856   2.561   0.619 -0.3920 -0.4729 -0.1345
  478SOL     OW 1909   0.206   2.660   0.947  0.2198 -0.5761  0.0169
  478SOL    HW1 1910   0.249   2.740   0.906  0.4530  0.7783 -0.3240
  478SOL    HW2 1911   0.260   2.584   0.919  0.2135 -0.9191  1.8872
  478SOL     MW 1912   0.219   2.661   0.938  0.2498 -0.4426  0.2187
  479SOL     OW 1913   1.409   1.999   1.279 -0.2151  0.1268 -0.1945
  479SOL    HW1 1914   1.405   2.030   1.368  0.0024  1.8980 -2.1200
  479SOL    HW2 1915   1.460   1.916   1.282 -2.9059  0.0863  0.2870
  479SOL     MW 1916   1.415   1.992   1.291 -0.5414  0.3552 -0.3850
  480SOL     OW 1917   2.008   2.459   1.328  0.0400 -0.1045  0.2901
  480SOL    HW1 1918   2.019   2.363   1.351 -0.1103 -0.2223  2.1596
  480SOL    HW2 1919   2.002   2.467   1.234 -0.1726  0.5992 -2.2164
  480SOL     MW 1920   2.009   2.448   1.319 -0.0079 -0.0272  0.2060
  481SOL     OW 1921   1.041   0.089   1.070  0.3633  0.9183  0.6340
  481SOL    HW1 1922   1.100   0.030   1.022 -0.2148 -1.7656  2.1563
  481SOL    HW2 1923   1.095   0.164   1.087  0.8778  0.6408  1.4123
  481SOL     MW 1924   1.056   0.091   1.066  0.3549  0.5276  0.9376
  482SOL     OW 1925   1.103   3.088   0.282 -0.3435  0.4309 -0.3037
  482SOL    HW1 1926   1.035   3.035   0.336 -1.5016  0.8745  0.3636
  482SOL    HW2 1927   1.079   3.175   0.308 -0.7184  1.4551 -0.3616
  482SOL     MW 1928   1.091   3.092   0.293 -0.5457  0.6246 -0.2233
  483SOL     OW 1929   0.413   2.995   0.437  0.5251  0.3607 -0.1172
  483SOL    HW1 1930   0.323   2.987   0.401 -2.8649  0.3862  0.8026
  483SOL    HW2 1931   0.398   3.038   0.519 -0.7834  0.4369  1.2511
  483SOL     MW 1932   0.399   2.999   0.443 -0.0948  0.3741  0.1847
  484SOL     OW 1933   1.876   1.950   1.504 -0.0982  0.4375 -0.5438
  484SOL    HW1 1934   1.902   2.032   1.461 -0.4139  0.2783  2.1076
  484SOL    HW2 1935   1.842   1.966   1.592  0.6619  0.1023  1.2281
  484SOL     MW 1936   1.875   1.963   1.510 -0.0396  0.3723  0.0398
  485SOL     OW 1937   0.572   2.381   0.236  0.1115  0.5023 -0.0755
  485SOL    HW1 1938   0.592   2.382   0.332 -1.4411  1.7121 -0.9630
  485SOL    HW2 1939   0.475   2.395   0.235  0.5584  1.7321 -0.6005
  485SOL     MW 1940   0.562   2.383   0.249 -0.0344  0.8242 -0.2619
  486SOL     OW 1941   0.181   2.423   1.493  0.1447  0.0795  0.2882
  486SOL    HW1 1942   0.223   2.506   1.476  1.6835  0.5583 -0.3718
  486SOL    HW2 1943   0.176   2.404   1.590  0.3847  1.7486 -0.4097
  486SOL     MW 1944   0.186   2.431   1.504  0.3794  0.3629  0.1090
  487SOL     OW 1945   1.208   1.715   1.038  0.0393  0.0664 -0.4797
  487SOL    HW1 1946   1.176   1.804   1.063 -1.3304  2.2746  1.8489
  487SOL    HW2 1947   1.298   1.729   1.004  0.0970 -3.0668 -2.5044
  487SOL     MW 1948   1.216   1.729   1.037 -0.1338 -0.0557 -0.4396
  488SOL     OW 1949   1.617   1.820   0.557 -0.4561 -0.3669 -0.1711
  488SOL    HW1 1950   1.695   1.838   0.501  0.0604 -0.1668 -1.6522
  488SOL    HW2 1951   1.550   1.892   0.546  0.7837  0.4360 -0.2135
  488SOL     MW 1952   1.619   1.832   0.548 -0.2243 -0.2346 -0.3721
  489SOL     OW 1953   0.787   0.840   0.614  0.3079 -0.5390 -0.3932
  489SOL    HW1 1954   0.808   0.757   0.564  1.9334  0.1243  0.4783
  489SOL    HW2 1955   0.760   0.809   0.698  2.0399  0.5082 -0.7743
  489SOL     MW 1956   0.787   0.825   0.618  0.7509 -0.3133 -0.3285
  490SOL     OW 1957   1.481   2.059   0.511 -0.2702 -0.1564  0.1107
  490SOL    HW1 1958   1.508   2.144   0.470  1.2362  1.2983 -1.1182
  490SOL    HW2 1959   1.383   2.065   0.499  1.7302 -1.0732  0.3881
  490SOL     MW 1960   1.472   2.071   0.504  0.1925 -0.0854 -0.0149
  491SOL     OW 1961   1.284   2.963   0.432 -0.6367 -0.4552 -0.2008
  491SOL    HW1 1962   1.342   3.041   0.454  1.6523  3.1520  1.1604
  491SOL    HW2 1963   1.219   3.004   0.373  2.3510  1.5763  0.1771
  491SOL     MW 1964   1.283   2.979   0.427  0.0595  0.2888  0.0286
  492SOL     OW 1965   1.520   2.194   0.730  0.6514  0.5184  0.2831
  492SOL    HW1 1966   1.496   2.139   0.657  0.6180  0.2299  0.8331
  492SOL    HW2 1967   1.460   2.164   0.798  1.7978  2.6657 -0.6469
  492SOL     MW 1968   1.509   2.183   0.729  0.7983  0.7636  0.2330
  493SOL     OW 1969   0.160   2.997   0.327  0.2070  0.0780 -0.6632
  493SOL    HW1 1970   0.101   3.053   0.382  0.6512 -0.7892  1.7975
  493SOL    HW2 1971   0.170   3.039   0.247  1.4649  1.1945  0.6385
  493SOL     MW 1972   0.153   3.010   0.324  0.4316  0.1109 -0.1667
  494SOL     OW 1973   0.417   2.444   1.760 -0.4207  0.6633 -0.2249
  494SOL    HW1 1974   0.463   2.370   1.803 -0.7416  0.7770 -0.0731
  494SOL    HW2 1975   0.461   2.457   1.675 -1.5622  1.1463 -1.4268
  494SOL     MW 1976   0.429   2.436   1.755 -0.6137  0.7420 -0.3635
  495SOL     OW 1977   2.845   1.708   2.591 -0.6159 -0.0030 -0.0039
  495SOL    HW1 1978   2.813   1.799   2.578 -2.2357  1.9295 -1.9420
  495SOL    HW2 1979   2.846   1.677   2.687 -0.2469  1.3031 -1.7585
  495SOL     MW 1980   2.841   1.716   2.602 -0.7809  0.4243 -0.4911
  496SOL     OW 1981   2.934   2.367   2.684  0.4140  0.1234 -0.5228
  496SOL    HW1 1982   2.979   2.294   2.735 -2.4296  0.5906  1.5303
  496SOL    HW2 1983   2.995   2.441   2.686  0.7745 -0.1002 -2.5001
  496SOL     MW 1984   2.948   2.367   2.691  0.0864  0.1555 -0.5128
  497SOL     OW 1985   1.600   2.201   2.617 -0.5216 -0.0982  0.0109
  497SOL    HW1 1986   1.538   2.140   2.581 -0.0999 -0.6499 -0.5424
  497SOL    HW2 1987   1.604   2.170   2.710 -0.4725  1.3634  1.8644
  497SOL     MW 1988   1.592   2.189   2.625 -0.4595  0.0219  0.1824
  498SOL     OW 1989   1.459   2.684   2.367  0.3888 -0.2323  0.4152
  498SOL    HW1 1990   1.485   2.595   2.389  1.3059 -0.7163  1.1317
  498SOL    HW2 1991   1.536   2.722   2.335 -2.1815 -0.0190  1.9242
  498SOL     MW 1992   1.472   2.677   2.366  0.1707 -0.2680  0.7088
  499SOL     OW 1993   1.013   0.152   3.066  0.2033  0.3105 -0.6568
  499SOL    HW1 1994   0.940   0.170   3.121 -2.0698  0.2523  0.6137
  499SOL    HW2 1995   1.056   0.078   3.118  1.3742  2.7290  3.1270
  499SOL     MW 1996   1.009   0.145   3.080  0.0579  0.6219  0.0101
  500SOL     OW 1997   1.111   2.489   2.752 -0.9129 -0.2926 -0.3657
  500SOL    HW1 1998   1.156   2.448   2.827  0.1234  0.1601  0.6781
  500SOL    HW2 1999   1.039   2.523   2.802  0.3403 -0.9098  0.4947
  500SOL     MW 2000   1.108   2.488   2.769 -0.6108 -0.3143 -0.1145
  501SOL     OW 2001   1.809   2.199   3.090 -0.8837 -0.3127 -0.3749
  501SOL    HW1 2002   1.782   2.286   3.118  2.1372 -1.2612 -0.3418
  501SOL    HW2 2003   1.904   2.211   3.067 -1.7073 -1.3873 -0.1149
  501SOL     MW 2004   1.818   2.212   3.091 -0.5938 -0.5796 -0.3362
  502SOL     OW 2005   0.155   2.825   3.080 -0.1060 -0.6767 -0.3809
  502SOL    HW1 2006   0.087   2.768   3.048  1.7142  0.3370  2.4209
  502SOL    HW2 2007   0.189   2.880   3.000 -0.7297 -0.1505  0.7306
  502SOL     MW 2008   0.151   2.825   3.065  0.0519 -0.4735  0.1354
  503SOL     OW 2009   1.004   2.849   2.165 -0.4899  0.7482 -0.1825
  503SOL    HW1 2010   1.016   2.804   2.079 -2.6169  0.2381  0.1239
  503SOL    HW2 2011   0.992   2.941   2.169 -1.2304 -1.7941 -0.2271
  503SOL     MW 2012   1.004   2.855   2.154 -0.8683  0.3455 -0.1479
  504SOL     OW 2013   0.044   2.705   2.126 -0.2792  0.4842  0.6734
  504SOL    HW1 2014   0.072   2.628   2.078  0.0197  2.6342 -2.2754
  504SOL    HW2 2015   0.015   2.672   2.206  0.5466  3.6787  1.5625
  504SOL     MW 2016   0.044   2.690   2.130 -0.1308  1.1894  0.4017
  505SOL     OW 2017   1.694   2.684   2.682  0.2283  0.3535 -0.3348
  505SOL    HW1 2018   1.675   2.715   2.590 -0.1447 -2.2338 -2.0073
  505SOL    HW2 2019   1.634   2.738   2.735  0.7140  1.4303  0.7191
  505SOL     MW 2020   1.684   2.695   2.677  0.2431  0.1542 -0.4164
  506SOL     OW 2021   1.600   3.011   2.822  0.0063 -0.0507 -0.5665
  506SOL    HW1 2022   1.654   2.992   2.901 -1.3732 -0.8172  0.5296
  506SOL    HW2 2023   1.668   3.024   2.753  0.2382 -0.4966  1.4094
  506SOL     MW 2024   1.616   3.010   2.823 -0.1452 -0.2107 -0.1612
  507SOL     OW 2025   0.852   2.738   2.850 -0.4681  0.2220 -0.1986
  507SOL    HW1 2026   0.906   2.792   2.790 -1.0353 -1.0451  4.4392
  507SOL    HW2 2027   0.763   2.771   2.859 -1.3433  3.0248  0.9000
  507SOL     MW 2028   0.847   2.750   2.843 -0.6584  0.4246  0.5582
  508SOL     OW 2029   1.134   2.059   2.520 -0.1817 -0.3696  0.0528
  508SOL    HW1 2030   1.219   2.025   2.557  0.2593  1.0326  1.9598
  508SOL    HW2 2031   1.092   2.122   2.582 -0.0217 -2.2605  0.8233
  508SOL     MW 2032   1.140   2.063   2.533 -0.1024 -0.4340  0.4061
  509SOL     OW 2033   0.615   2.560   2.918  0.2674 -0.0414  0.6410
  509SOL    HW1 2034   0.569   2.531   2.834 -1.2806  1.2416 -0.1969
  509SOL    HW2 2035   0.551   2.556   2.989  0.2182  0.8939 -1.7065
  509SOL     MW 2036   0.600   2.556   2.916  0.0567  0.2513  0.2207
  510SOL     OW 2037   1.523   2.569   1.700  0.3787 -0.7267  0.4861
  510SOL    HW1 2038   1.512   2.659   1.686  1.8093 -2.2220  1.1534
  510SOL    HW2 2039   1.455   2.536   1.758  0.5449  2.1839 -0.8090
  510SOL     MW 2040   1.513   2.576   1.706  0.5893 -0.5399  0.4033
  511SOL     OW 2041   0.409   2.605   2.427 -0.1781  0.0741  0.1492
  511SOL    HW1 2042   0.481   2.553   2.466 -1.6665 -0.5183 -1.8373
  511SOL    HW2 2043   0.443   2.593   2.338  1.5070 -3.4391 -1.8560
  511SOL     MW 2044   0.423   2.596   2.421 -0.1522 -0.4676 -0.3775
  512SOL     OW 2045   1.017   1.979   2.832 -0.3200 -0.2573 -0.3524
  512SOL    HW1 2046   0.925   1.987   2.820  0.1321 -0.1824 -0.5287
  512SOL    HW2 2047   1.020   1.886   2.857  1.3150 -0.8689 -2.4390
  512SOL     MW 2048   1.005   1.968   2.834 -0.0447 -0.3281 -0.6510
  513SOL     OW 2049   1.464   2.411   2.392 -0.4753 -0.3681  0.0839
  513SOL    HW1 2050   1.533   2.400   2.455 -2.3552  1.0293 -0.6250
  513SOL    HW2 2051   1.406   2.335   2.403 -1.3467  0.4554 -1.7480
  513SOL     MW 2052   1.466   2.399   2.402 -0.8383 -0.0751 -0.2513
  514SOL     OW 2053   0.257   2.458   2.631 -0.7120 -0.0445 -0.1867
  514SOL    HW1 2054   0.320   2.517   2.601 -1.7268 -3.1007 -0.7347
  514SOL    HW2 2055   0.254   2.469   2.729 -2.0477 -0.3154 -1.8184
  514SOL     MW 2056   0.265   2.468   2.640 -1.0221 -0.4835 -0.4743
  515SOL     OW 2057   1.060   2.051   1.934  0.7052 -0.1591  1.2543
  515SOL    HW1 2058   1.013   2.138   1.922  0.8932 -1.5211  2.4678
  515SOL    HW2 2059   1.115   2.066   2.010 -2.6129 -1.7035 -0.1219
  515SOL     MW 2060   1.061   2.064   1.942  0.2922 -0.5425  1.2329
  516SOL     OW 2061   1.461   2.511   3.066  0.0719  0.4075  0.8083
  516SOL    HW1 2062   1.519   2.478   2.991  1.8411 -1.9838 -0.8379
  516SOL    HW2 2063   1.374   2.490   3.033 -2.2863  0.1600  3.0629
  516SOL     MW 2064   1.457   2.503   3.052 -0.0058  0.0593  0.8886
  517SOL     OW 2065   0.591   2.393   2.143  0.2663 -0.2289  0.3170
  517SOL    HW1 2066   0.569   2.481   2.164  2.4630 -0.2037  0.6447
  517SOL    HW2 2067   0.510   2.366   2.110  2.5635  2.1314 -0.7391
  517SOL     MW 2068   0.578   2.401   2.141  0.8592  0.0858  0.2209
  518SOL     OW 2069   1.903   0.118   2.928 -0.2577 -0.6094 -0.0823
  518SOL    HW1 2070   1.839   0.173   2.878  1.5235 -0.0830 -0.6389
  518SOL    HW2 2071   1.863   0.111   3.015  1.8396  0.5022  1.8487
  518SOL     MW 2072   1.889   0.124   2.933  0.2540 -0.3933  0.0990
  519SOL     OW 2073   0.726   2.579   1.749  0.2442 -0.0272  0.1448
  519SOL    HW1 2074   0.714   2.486   1.751 -2.3046 -2.7266  0.2786
  519SOL    HW2 2075   0.646   2.612   1.795 -0.6776 -1.0900 -0.5889
  519SOL     MW 2076   0.714   2.571   1.755 -0.2137 -0.5236  0.0657
  520SOL     OW 2077   1.274   2.109   2.955 -0.1614 -0.2872  0.0201
  520SOL    HW1 2078   1.181   2.091   2.954  0.3348  0.2813  1.3417
  520SOL    HW2 2079   1.321   2.075   3.033 -0.5785  1.9538 -1.5446
  520SOL     MW 2080   1.268   2.103   2.965 -0.1510  0.0835 -0.0120
  521SOL     OW 2081   1.740   2.055   2.250  0.2439 -0.3071  0.0503
  521SOL    HW1 2082   1.774   2.081   2.164  0.8659 -4.6040  0.0883
  521SOL    HW2 2083   1.733   1.959   2.240 -2.3874 -1.0304  0.5438
  521SOL     MW 2084   1.743   2.046   2.237 -0.0212 -0.9695  0.1204
  522SOL     OW 2085   2.832   2.558   2.191  0.1589 -0.3599  0.0790
  522SOL    HW1 2086   2.917   2.546   2.218 -2.3270 -2.0020 -0.0609
  522SOL    HW2 2087   2.785   2.579   2.273 -0.7488  1.3616 -1.4451
  522SOL     MW 2088   2.837   2.559   2.206 -0.2888 -0.3494 -0.1405
  523SOL     OW 2089   0.857   1.501   2.120  0.0059 -0.1963 -0.1632
  523SOL    HW1 2090   0.845   1.573   2.055  2.7412 -0.9448 -0.6313
  523SOL    HW2 2091   0.877   1.416   2.073  1.0202 -1.4871 -1.3817
  523SOL     MW 2092   0.858   1.499   2.105  0.5006 -0.4653 -0.3857
  524SOL     OW 2093   0.895   2.456   2.942 -0.0458  0.0520  0.3800
  524SOL    HW1 2094   0.842   2.513   2.888 -0.9402  0.8791 -0.6451
  524SOL    HW2 2095   0.871   2.367   2.916  0.9190  0.0868 -1.1620
  524SOL     MW 2096   0.885   2.452   2.932 -0.0365  0.1657  0.0413
  525SOL     OW 2097   0.353   2.265   2.075 -0.1079 -0.5553 -0.3748
  525SOL    HW1 2098   0.339   2.196   2.146 -1.0004  0.8174  2.2245
  525SOL    HW2 2099   0.354   2.215   1.988 -1.4425 -0.6286  0.1994
  525SOL     MW 2100   0.351   2.250   2.073 -0.4017 -0.3839  0.0439
  526SOL     OW 2101   0.669   2.095   1.992 -0.6177 -0.1812  0.5593
  526SOL    HW1 2102   0.647   2.132   1.905  0.1031 -0.9030  0.2158
  526SOL    HW2 2103   0.678   2.167   2.059 -2.2873 -1.9523  1.5260
  526SOL     MW 2104   0.667   2.110   1.989 -0.7429 -0.5102  0.6415
  527SOL     OW 2105   1.350   1.979   2.044 -0.0549 -0.0003 -0.0157
  527SOL    HW1 2106   1.330   1.958   2.134  0.6674 -0.8505 -0.7321
  527SOL    HW2 2107   1.374   1.903   1.993  1.0767 -0.8907 -0.1749
  527SOL     MW 2108   1.351   1.966   2.049  0.1897 -0.2299 -0.1312
  528SOL     OW 2109   0.658   2.900   2.924  0.3746  0.3913 -0.3446
  528SOL    HW1 2110   0.690   2.987   2.949  1.1623  0.2060 -2.0742
  528SOL    HW2 2111   0.588   2.913   2.864 -2.5490 -1.0635  2.8203
  528SOL     MW 2112   0.653   2.914   2.919  0.0928  0.1749 -0.1553
  529SOL     OW 2113   0.916   2.280   1.893  0.3259 -0.5730  0.0718
  529SOL    HW1 2114   0.938   2.319   1.974  0.5895  0.9957 -1.3757
  529SOL    HW2 2115   0.971   2.338   1.834 -2.1769  1.6166  2.6931
  529SOL     MW 2116   0.926   2.293   1.896  0.0305 -0.0771  0.2267
  530SOL     OW 2117   1.214   2.424   2.985 -0.4517  0.0192 -0.2251
  530SOL    HW1 2118   1.137   2.452   3.045 -0.1370 -1.5045  0.1612
  530SOL    HW2 2119   1.214   2.327   2.999 -0.0645  0.7541  0.2759
  530SOL     MW 2120   1.204   2.415   2.995 -0.3591 -0.0849 -0.1081
  531SOL     OW 2121   0.949   1.858   2.570 -0.2730 -0.2004 -0.0196
  531SOL    HW1 2122   1.015   1.922   2.583 -0.7012  0.0725  0.8133
  531SOL    HW2 2123   0.884   1.868   2.651 -0.0976  1.1962  2.4121
  531SOL     MW 2124   0.950   1.868   2.582 -0.3064  0.0199  0.4111
  532SOL     OW 2125   1.749   0.300   2.773  0.7215  0.0664  0.0262
  532SOL    HW1 2126   1.689   0.276   2.704  0.2494  0.9899  1.7485
  532SOL    HW2 2127   1.835   0.295   2.732  2.8031 -1.5490 -0.8781
  532SOL     MW 2128   1.752   0.296   2.758  0.9338 -0.0249  0.1341
  533SOL     OW 2129   1.844   2.664   3.061  0.7137 -0.2595  0.3600
  533SOL    HW1 2130   1.772   2.610   3.081  0.9285 -1.4093  0.9169
  533SOL    HW2 2131   1.816   2.741   3.020  2.9327 -4.1932 -0.5011
  533SOL     MW 2132   1.831   2.667   3.058  1.0349 -0.9302  0.3198
  534SOL     OW 2133   1.741   2.399   2.485  0.1147 -0.3152 -0.2556
  534SOL    HW1 2134   1.700   2.311   2.510 -0.8947 -1.6774 -0.8764
  534SOL    HW2 2135   1.817   2.409   2.549 -0.2444 -0.1454  2.9198
  534SOL     MW 2136   1.745   2.389   2.497 -0.0659 -0.4725  0.0814
  535SOL     OW 2137   1.879   2.398   1.909 -0.0484 -0.3359  0.1261
  535SOL    HW1 2138   1.836   2.414   1.825 -1.6555  1.3618 -0.9980
  535SOL    HW2 2139   1.973   2.375   1.902  0.8293  2.4206  0.1131
  535SOL     MW 2140   1.886   2.397   1.897 -0.1446  0.2518 -0.0239
  536SOL     OW 2141   0.558   1.828   2.082 -0.4176  0.5331  0.6519
  536SOL    HW1 2142   0.512   1.799   2.002 -2.5369 -0.6604  2.6469
  536SOL    HW2 2143   0.562   1.926   2.065 -2.5784 -0.7155 -1.1211
  536SOL     MW 2144   0.553   1.837   2.069 -0.9823  0.2109  0.6812
  537SOL     OW 2145   1.086   0.204   2.766 -0.1102  0.4772  0.1351
  537SOL    HW1 2146   1.052   0.223   2.857 -0.8075  0.0160  2.2065
  537SOL    HW2 2147   1.076   0.285   2.712  0.9219  1.7614 -0.6710
  537SOL     MW 2148   1.080   0.217   2.771 -0.0660  0.5858  0.3021
  538SOL     OW 2149   1.467   0.055   0.040 -0.5133  0.0430  0.2694
  538SOL    HW1 2150   1.476   0.149   0.051  1.4624  1.2312 -0.4764
  538SOL    HW2 2151   1.382   0.040   0.007  1.4833 -0.6392  0.8167
  538SOL     MW 2152   1.457   0.065   0.037  0.0108  0.1097  0.2432
  539SOL     OW 2153   0.698   2.805   2.564 -0.2190 -0.0173 -0.2405
  539SOL    HW1 2154   0.758   2.848   2.625  1.2591 -2.8806 -0.0636
  539SOL    HW2 2155   0.718   2.720   2.591 -1.3895  0.7773 -2.6856
  539SOL     MW 2156   0.708   2.799   2.575 -0.1784 -0.2903 -0.5398
  540SOL     OW 2157   0.251   2.465   2.898 -0.2595  0.5512  0.2508
  540SOL    HW1 2158   0.307   2.514   2.959  2.7439 -1.3098  0.9913
  540SOL    HW2 2159   0.222   2.379   2.947 -0.2033  0.1219  0.0888
  540SOL     MW 2160   0.255   2.460   2.912  0.1442  0.2490  0.3272
  541SOL     OW 2161   0.216   2.942   2.119 -0.0696 -0.0309 -0.2735
  541SOL    HW1 2162   0.145   2.874   2.126  0.8372 -0.5890 -1.6162
  541SOL    HW2 2163   0.272   2.916   2.189 -0.9120 -0.2842  2.0354
  541SOL     MW 2164   0.214   2.929   2.129 -0.0611 -0.1379 -0.1460
  542SOL     OW 2165   0.988   2.258   2.666  0.1704  0.3356 -0.8645
  542SOL    HW1 2166   0.935   2.228   2.743 -0.2036  0.2575  0.1541
  542SOL    HW2 2167   1.029   2.346   2.692  0.3576 -0.5020  0.3884
  542SOL     MW 2168   0.986   2.266   2.679  0.1458  0.2148 -0.5648
  543SOL     OW 2169   1.644   2.458   2.804 -0.2229  0.0042 -0.3006
  543SOL    HW1 2170   1.657   2.401   2.733 -2.2174  0.2315 -2.5204
  543SOL    HW2 2171   1.655   2.553   2.776  2.6140 -0.0158  0.2877
  543SOL     MW 2172   1.647   2.463   2.791 -0.1117  0.0316 -0.5158
  544SOL     OW 2173   0.747   0.213   2.700 -0.6210  0.9801 -0.2264
  544SOL    HW1 2174   0.654   0.241   2.692 -0.7292 -0.0435  0.0694
  544SOL    HW2 2175   0.764   0.172   2.612 -2.0508  1.4045 -1.1811
  544SOL     MW 2176   0.737   0.211   2.687 -0.8239  0.9011 -0.3133
  545SOL     OW 2177   1.478   2.122   2.315  0.4196  0.1204  0.1657
  545SOL    HW1 2178   1.445   2.146   2.230  1.1961  0.9818  1.0601
  545SOL    HW2 2179   1.575   2.094   2.291  1.1235 -1.8002  0.1024
  545SOL     MW 2180   1.487   2.122   2.301  0.6149 -0.0193  0.2754
  546SOL     OW 2181   2.863   1.985   0.090 -0.4113 -0.2618  0.0536
  546SOL    HW1 2182   2.865   2.072   0.050  1.3556 -1.7941  0.3066
  546SOL    HW2 2183   2.960   1.953   0.090 -1.7862  0.4368 -1.9569
  546SOL     MW 2184   2.876   1.992   0.085 -0.3596 -0.3718 -0.1783
  547SOL     OW 2185   0.227   0.048   0.092  0.0379  0.0333 -0.2469
  547SOL    HW1 2186   0.301   0.053   0.028 -0.3913  0.1860  0.8016
  547SOL    HW2 2187   0.152   0.030   0.036 -1.5064  0.5923 -2.3662
  547SOL     MW 2188   0.227   0.046   0.076 -0.2225  0.1272 -0.3882
  548SOL     OW 2189   0.309   2.427   0.215  0.2518  0.2964 -0.2678
  548SOL    HW1 2190   0.306   2.483   0.137 -0.7025  2.2884  2.4451
  548SOL    HW2 2191   0.220   2.377   0.218  0.9777  0.5615 -1.8954
  548SOL     MW 2192   0.297   2.428   0.206  0.2217  0.5942 -0.1246
  549SOL     OW 2193   0.880   1.940   2.143  0.0702 -0.5817 -0.0769
  549SOL    HW1 2194   0.820   1.991   2.082 -0.7309 -0.0118  1.3370
  549SOL    HW2 2195   0.818   1.928   2.225 -1.1602 -0.3938 -0.1023
  549SOL     MW 2196   0.864   1.945   2.146 -0.1978 -0.4817  0.1063
  550SOL     OW 2197   1.891   1.763   2.516  0.4104 -0.3273 -0.3606
  550SOL    HW1 2198   1.841   1.793   2.435  0.3626  0.4356  0.0124
  550SOL    HW2 2199   1.845   1.816   2.586 -0.2084 -0.6459 -1.3538
  550SOL     MW 2200   1.879   1.774   2.515  0.3225 -0.2686 -0.4424
  551SOL     OW 2201   0.873   2.215   0.263  0.4841 -0.1603 -0.5769
  551SOL    HW1 2202   0.959   2.237   0.224  0.3747 -0.7325  3.5347
  551SOL    HW2 2203   0.830   2.162   0.202  0.8556  2.8032  1.7742
  551SOL     MW 2204   0.879   2.211   0.250  0.5187  0.1552  0.2758
  552SOL     OW 2205   1.763   1.789   2.293  0.0245  0.2147  0.2213
  552SOL    HW1 2206   1.677   1.745   2.299 -5.1527 -0.4494 -2.7532
  552SOL    HW2 2207   1.821   1.716   2.252  2.1159 -0.5427 -0.1852
  552SOL     MW 2208   1.759   1.774   2.289 -0.3827  0.0272 -0.2248
  553SOL     OW 2209   1.197   2.308   1.544 -0.0051  0.0759  0.1785
  553SOL    HW1 2210   1.226   2.212   1.535  1.2107 -0.1322  0.9086
  553SOL    HW2 2211   1.277   2.360   1.529  1.0330  1.0062  0.0958
  553SOL     MW 2212   1.211   2.302   1.541  0.2922  0.1712  0.2639
  554SOL     OW 2213   0.472   2.907   2.710  0.4137 -0.1861  0.6799
  554SOL    HW1 2214   0.485   2.994   2.664 -0.5823 -0.9050 -0.3621
  554SOL    HW2 2215   0.515   2.849   2.650  0.2453  0.5298 -0.3962
  554SOL     MW 2216   0.479   2.911   2.696  0.2601 -0.1865  0.4005
  555SOL     OW 2217   0.586   2.473   2.577 -0.8755  0.6186  0.3340
  555SOL    HW1 2218   0.543   2.386   2.582  1.2896 -0.7634  4.6941
  555SOL    HW2 2219   0.678   2.443   2.550 -0.8060  0.9994 -1.1113
  555SOL     MW 2220   0.593   2.457   2.574 -0.5806  0.4865  0.7186
  556SOL     OW 2221   1.038   1.919   0.052  0.4599 -0.4318 -0.0822
  556SOL    HW1 2222   1.052   1.860  -0.021  0.8874 -1.6784  0.2326
  556SOL    HW2 2223   1.120   1.932   0.092 -0.7130 -0.1444 -1.6265
  556SOL     MW 2224   1.051   1.913   0.048  0.3616 -0.5584 -0.2444
  557SOL     OW 2225   1.023   2.711   0.508  0.0905  0.2860  1.0937
  557SOL    HW1 2226   1.053   2.650   0.434  0.0333 -2.1463 -0.2968
  557SOL    HW2 2227   0.965   2.777   0.467 -2.1090 -0.4666  3.4781
  557SOL     MW 2228   1.019   2.711   0.493 -0.2072 -0.1342  1.2248
  558SOL     OW 2229   0.169   2.241   3.024  0.1473 -0.7131  0.5497
  558SOL    HW1 2230   0.096   2.232   2.965 -1.2994 -2.1777  1.5511
  558SOL    HW2 2231   0.139   2.271   3.108  1.2022  1.7584 -2.3449
  558SOL     MW 2232   0.156   2.244   3.027  0.0956 -0.5803  0.2999
  559SOL     OW 2233   1.046   2.350   2.131  0.7293 -0.1537  0.0369
  559SOL    HW1 2234   1.138   2.374   2.140 -2.0208  1.4158  1.9249
  559SOL    HW2 2235   1.037   2.286   2.204 -1.4987  0.9708  1.2244
  559SOL     MW 2236   1.057   2.345   2.142  0.0725  0.2018  0.4427
  560SOL     OW 2237   2.064   2.689   0.137  0.7928 -0.5215  0.2021
  560SOL    HW1 2238   2.090   2.778   0.132 -0.6008  0.8208 -1.4443
  560SOL    HW2 2239   1.985   2.690   0.080  0.1654 -1.7846 -0.3750
  560SOL     MW 2240   2.057   2.701   0.129  0.5261 -0.5110 -0.0913
  561SOL     OW 2241   0.491   2.138   0.102  0.2692  0.7106 -0.3733
  561SOL    HW1 2242   0.473   2.186   0.024  1.8570  1.6873  1.3347
  561SOL    HW2 2243   0.523   2.207   0.167  1.8003 -0.2699 -1.0057
  561SOL     MW 2244   0.493   2.153   0.101  0.6807  0.7101 -0.2314
  562SOL     OW 2245   0.680   2.217   2.322  0.1102  0.6810  0.4381
  562SOL    HW1 2246   0.663   2.290   2.263  1.5047  2.5117 -1.7629
  562SOL    HW2 2247   0.770   2.233   2.337 -3.0359  0.2310 -0.5994
  562SOL     MW 2248   0.690   2.229   2.316 -0.1209  0.8632  0.0108
  563SOL     OW 2249   1.234   0.389   0.559  0.6173 -0.3508 -0.4535
  563SOL    HW1 2250   1.177   0.343   0.493 -2.5829 -1.4513  2.5629
  563SOL    HW2 2251   1.189   0.357   0.650 -2.5009 -0.3278  2.1388
  563SOL     MW 2252   1.220   0.379   0.562 -0.2163 -0.4930  0.2865
  564SOL     OW 2253   1.038   2.627   2.365 -0.4563 -0.0176 -0.5153
  564SOL    HW1 2254   1.020   2.696   2.309  1.0761  0.5396  1.7816
  564SOL    HW2 2255   1.049   2.671   2.453 -0.1569 -0.2817  0.8635
  564SOL     MW 2256   1.037   2.642   2.370 -0.2146  0.0210 -0.0303
  565SOL     OW 2257   2.767   2.841   2.544  0.1153  0.3911 -0.1327
  565SOL    HW1 2258   2.720   2.914   2.504 -1.6945 -1.7198 -1.1439
  565SOL    HW2 2259   2.716   2.764   2.514 -0.8967 -1.6746 -0.8040
  565SOL     MW 2260   2.754   2.840   2.534 -0.2570 -0.1599 -0.3547
  566SOL     OW 2261   2.180   1.957   2.339 -0.1331  0.1527  0.5292
  566SOL    HW1 2262   2.193   1.937   2.242  0.3276 -0.8246  1.0049
  566SOL    HW2 2263   2.257   2.011   2.368  0.7602 -0.6980 -1.2323
  566SOL     MW 2264   2.192   1.961   2.330  0.0456 -0.0885  0.3595
  567SOL     OW 2265   1.215   3.019   0.028 -0.2084 -0.2829  0.5786
  567SOL    HW1 2266   1.186   3.031   0.122 -0.5015  0.6998  0.0055
  567SOL    HW2 2267   1.257   2.931   0.017  2.7251 -2.0714  0.9767
  567SOL     MW 2268   1.217   3.009   0.039  0.1400 -0.3892  0.5555
  568SOL     OW 2269   1.671   2.063   2.889  0.1555 -0.2321  0.0503
  568SOL    HW1 2270   1.717   2.116   2.961 -0.3874 -0.4183  1.1350
  568SOL    HW2 2271   1.733   2.022   2.821 -1.2659 -0.1002 -2.0847
  568SOL     MW 2272   1.685   2.064   2.889 -0.1037 -0.2392 -0.0883
  569SOL     OW 2273   0.117   2.291   2.462  0.2741 -0.1756 -0.0401
  569SOL    HW1 2274   0.075   2.355   2.401  2.4509 -2.2306 -3.7212
  569SOL    HW2 2275   0.160   2.357   2.518  0.1624 -0.4286 -2.4320
  569SOL     MW 2276   0.117   2.308   2.461  0.5466 -0.4801 -0.8413
  570SOL     OW 2277   1.515   0.332   0.510 -0.0936  0.4029 -0.3837
  570SOL    HW1 2278   1.429   0.369   0.541 -1.4792  0.7899  1.0932
  570SOL    HW2 2279   1.579   0.364   0.575 -3.3559 -0.4167 -0.0504
  570SOL     MW 2280   1.512   0.341   0.523 -0.7068  0.3458 -0.1449
  571SOL     OW 2281   1.345   2.377   2.129 -0.0994  0.0233 -0.1034
  571SOL    HW1 2282   1.396   2.408   2.206 -0.3254  2.1469  1.3415
  571SOL    HW2 2283   1.404   2.318   2.085  0.9180  3.0752  0.8257
  571SOL     MW 2284   1.360   2.373   2.133  0.0050  0.7062  0.2098
  572SOL     OW 2285   1.050   2.577   0.062  0.7157 -0.6384  0.1627
  572SOL    HW1 2286   1.028   2.668   0.059 -0.1362  2.8363 -0.9252
  572SOL    HW2 2287   0.958   2.539   0.071  1.1583  1.2025  0.7628
  572SOL     MW 2288   1.035   2.584   0.063  0.6617  0.0629  0.0984
  573SOL     OW 2289   1.152   2.240   0.211 -0.3397 -0.3023 -0.2932
  573SOL    HW1 2290   1.216   2.265   0.144  0.5539  0.8831  2.4217
  573SOL    HW2 2291   1.122   2.322   0.254  0.8089  1.1605  0.1510
  573SOL     MW 2292   1.156   2.254   0.207 -0.0702  0.0471  0.1236
  574SOL     OW 2293   1.132   2.514   0.323 -0.0497 -0.3821 -0.3115
  574SOL    HW1 2294   1.202   2.568   0.344 -0.0488 -0.8644  1.4148
  574SOL    HW2 2295   1.095   2.537   0.236  2.9057  1.1254  2.7627
  574SOL     MW 2296   1.136   2.525   0.314  0.3403 -0.2468  0.3219
  575SOL     OW 2297   3.071   2.187   1.638  0.0070 -0.1981 -0.0956
  575SOL    HW1 2298   3.096   2.109   1.588 -1.2955 -1.2428  1.3990
  575SOL    HW2 2299   3.125   2.190   1.715  0.0485 -2.1029 -1.4565
  575SOL     MW 2300   3.082   2.177   1.642 -0.1594 -0.5873 -0.0779
  576SOL     OW 2301   2.855   1.889   1.984  0.6413  0.1378 -0.0708
  576SOL    HW1 2302   2.853   1.977   1.936 -0.2278  0.0216 -1.3845
  576SOL    HW2 2303   2.794   1.829   1.936 -2.2384 -2.0404 -0.8478
  576SOL     MW 2304   2.847   1.893   1.972  0.1467 -0.1650 -0.3466
  577SOL     OW 2305   2.127   0.219   0.012  0.0013 -0.4209 -0.2231
  577SOL    HW1 2306   2.075   0.199  -0.062 -0.6774 -1.3486  2.5347
  577SOL    HW2 2307   2.071   0.186   0.088 -0.7724 -2.1052 -1.5800
  577SOL     MW 2308   2.113   0.212   0.012 -0.1903 -0.7655 -0.0383
  578SOL     OW 2309   1.959   2.110   2.380 -0.0743  0.1881 -0.6307
  578SOL    HW1 2310   1.871   2.084   2.343 -1.3781 -2.8860  3.7382
  578SOL    HW2 2311   2.013   2.032   2.370 -1.3209 -0.1455 -1.8923
  578SOL     MW 2312   1.955   2.097   2.374 -0.4108 -0.2615 -0.2207
  579SOL     OW 2313   0.856   2.447   2.486  0.4357  0.1145 -0.4830
  579SOL    HW1 2314   0.899   2.369   2.522 -2.2550  0.8559  0.8820
  579SOL    HW2 2315   0.934   2.478   2.435  1.1942  0.6718 -0.8531
  579SOL     MW 2316   0.872   2.441   2.484  0.1808  0.2859 -0.3517
  580SOL     OW 2317   0.956   2.824   3.104 -0.2116  0.3465 -0.3683
  580SOL    HW1 2318   1.032   2.872   3.073  0.4769  0.7861  0.8731
  580SOL    HW2 2319   0.920   2.792   3.022  1.7591  3.7919 -1.7138
  580SOL     MW 2320   0.961   2.826   3.089  0.1393  0.8591 -0.3820
  581SOL     OW 2321   1.124   2.407   1.783 -0.1763  0.3489 -0.0871
  581SOL    HW1 2322   1.187   2.460   1.826 -1.0893 -1.1610 -0.4827
  581SOL    HW2 2323   1.164   2.365   1.700  1.7636 -1.3022 -2.8501
  581SOL     MW 2324   1.138   2.408   1.778 -0.0408 -0.0681 -0.5038
  582SOL     OW 2325   3.097   2.893   2.692  0.1679  0.3899 -0.6899
  582SOL    HW1 2326   3.054   2.981   2.678 -1.2525 -0.8584  0.9666
  582SOL    HW2 2327   3.143   2.900   2.776 -0.5678  1.3353  0.2549
  582SOL     MW 2328   3.097   2.905   2.702 -0.1166  0.3500 -0.3467
  583SOL     OW 2329   1.973   2.397   2.638 -0.1340 -0.7975 -0.7242
  583SOL    HW1 2330   2.046   2.431   2.578  1.4979  1.7149 -0.0532
  583SOL    HW2 2331   1.978   2.303   2.641 -1.3936 -2.0877 -0.3052
  583SOL     MW 2332   1.983   2.389   2.630 -0.0848 -0.6362 -0.5804
  584SOL     OW 2333   0.140   1.906   2.202  0.2572 -0.1737  0.1365
  584SOL    HW1 2334   0.148   1.862   2.291  0.4890 -0.8949 -2.3639
  584SOL    HW2 2335   0.182   1.988   2.225 -1.1702 -0.4600 -3.2719
  584SOL     MW 2336   0.147   1.911   2.217  0.0994 -0.3067 -0.6431
  585SOL     OW 2337   1.562   2.690   0.150  0.3996  0.3293  0.2917
  585SOL    HW1 2338   1.516   2.647   0.076  1.0513  3.8536  0.8838
  585SOL    HW2 2339   1.491   2.700   0.215 -1.2568  1.6907  0.3455
  585SOL     MW 2340   1.546   2.686   0.148  0.2671  0.9739  0.3769
  586SOL     OW 2341   1.337   2.834   2.578 -0.0740  0.0204 -0.1118
  586SOL    HW1 2342   1.374   2.799   2.489  2.0495 -0.1273 -2.3637
  586SOL    HW2 2343   1.338   2.934   2.583 -0.2073  3.7685 -0.3061
  586SOL     MW 2344   1.342   2.843   2.567  0.1886  0.4954 -0.4346
  587SOL     OW 2345   1.363   1.474   2.162 -0.1642 -0.4539 -0.1588
  587SOL    HW1 2346   1.327   1.405   2.216  2.1727  1.8798  1.0797
  587SOL    HW2 2347   1.302   1.507   2.093 -2.4425 -2.1026  3.6587
  587SOL     MW 2348   1.350   1.469   2.160 -0.1564 -0.3635  0.5083
  588SOL     OW 2349   1.369   1.994   2.655 -0.0504  0.1122  0.5094
  588SOL    HW1 2350   1.383   1.902   2.650 -0.2340 -0.2051  3.2150
  588SOL    HW2 2351   1.359   2.009   2.748 -1.7122  0.9839 -1.0455
  588SOL     MW 2352   1.370   1.984   2.667 -0.2939  0.1854  0.6612
  589SOL     OW 2353   1.415   2.024   0.070 -0.2769 -0.0435 -0.3185
  589SOL    HW1 2354   1.433   2.122   0.096  0.7790 -0.6373 -1.2567
  589SOL    HW2 2355   1.353   1.987   0.135  2.6823  1.4812  0.2485
  589SOL     MW 2356   1.410   2.032   0.082  0.2528  0.0793 -0.3675
  590SOL     OW 2357   0.532   2.664   2.187  0.3094  0.0600  0.1575
  590SOL    HW1 2358   0.515   2.662   2.095 -2.5446  0.0099  2.3867
  590SOL    HW2 2359   0.603   2.728   2.200  2.4405 -0.0068 -1.2832
  590SOL     MW 2360   0.539   2.672   2.177  0.2140  0.0446  0.2616
  591SOL     OW 2361   2.232   0.697   0.098  0.0949  0.1340  0.3514
  591SOL    HW1 2362   2.171   0.705   0.166 -2.2461 -1.9553  1.1314
  591SOL    HW2 2363   2.181   0.729   0.017 -0.2032  0.7522  1.1257
  591SOL     MW 2364   2.217   0.702   0.096 -0.2533 -0.0601  0.5564
  592SOL     OW 2365   1.685   2.960   0.825 -0.1539 -0.3519 -0.0078
  592SOL    HW1 2366   1.658   3.052   0.810  0.0731 -1.2558  1.6864
  592SOL    HW2 2367   1.777   2.960   0.803 -2.1451 -1.9809  0.0936
  592SOL     MW 2368   1.694   2.972   0.820 -0.3866 -0.6861  0.2291
  593SOL     OW 2369   1.964   0.698   0.795 -0.3234 -0.2154  0.2892
  593SOL    HW1 2370   1.898   0.713   0.721 -2.3119  1.3189  0.6453
  593SOL    HW2 2371   2.017   0.620   0.774  1.8832  0.3348  1.6755
  593SOL     MW 2372   1.963   0.690   0.782 -0.2946  0.0596  0.5191
  594SOL     OW 2373   2.732   1.029   1.403  1.0000 -0.0190  0.1836
  594SOL    HW1 2374   2.823   1.023   1.368  1.8851  1.8330  1.6780
  594SOL    HW2 2375   2.683   1.037   1.322 -2.2091 -0.5742 -0.4284
  594SOL     MW 2376   2.737   1.029   1.388  0.6934  0.1521  0.3000
  595SOL     OW 2377   0.494   0.912   0.845  0.2797  0.4060 -0.1107
  595SOL    HW1 2378   0.477   0.968   0.772 -0.3650  0.6294  0.6389
  595SOL    HW2 2379   0.520   0.974   0.908  0.5529 -2.4753 -2.1239
  595SOL     MW 2380   0.496   0.928   0.844  0.2307  0.0554 -0.2774
  596SOL     OW 2381   2.460   1.342   0.485  0.1170  0.1734 -0.0799
  596SOL    HW1 2382   2.455   1.438   0.480  0.8907  0.3868 -1.5163
  596SOL    HW2 2383   2.518   1.329   0.559 -1.4149  0.7996  0.4071
  596SOL     MW 2384   2.467   1.353   0.494  0.0169  0.2842 -0.2051
  597SOL     OW 2385   2.208   0.622   1.551  1.0582  0.1300  0.5296
  597SOL    HW1 2386   2.213   0.561   1.623  2.1954 -0.3848  0.2279
  597SOL    HW2 2387   2.139   0.577   1.496 -2.9304  1.7726 -4.2105
  597SOL     MW 2388   2.199   0.608   1.553  0.6820  0.2788 -0.1356
  598SOL     OW 2389   2.596   1.047   2.886  0.2100 -0.1409  0.3665
  598SOL    HW1 2390   2.647   0.967   2.877 -1.6613 -2.5404  0.8433
  598SOL    HW2 2391   2.665   1.116   2.868 -0.7298  0.0680  1.0426
  598SOL     MW 2392   2.611   1.046   2.883 -0.1609 -0.4300  0.5186
  599SOL     OW 2393   3.082   0.407   2.262  0.0287  0.6408 -0.0756
  599SOL    HW1 2394   3.073   0.414   2.364 -0.1155 -0.9597  1.0774
  599SOL    HW2 2395   3.064   0.489   2.220  1.4626  0.6741 -0.1467
  599SOL     MW 2396   3.078   0.419   2.270  0.1989  0.4340  0.0671
  600SOL     OW 2397   1.848   1.697   0.826  0.0478  0.6399 -0.0114
  600SOL    HW1 2398   1.904   1.725   0.895 -0.6129  0.0805 -1.2368
  600SOL    HW2 2399   1.782   1.767   0.827 -0.7176 -0.3171  0.3419
  600SOL     MW 2400   1.847   1.710   0.835 -0.1404  0.4399 -0.1265
  601SOL     OW 2401   2.551   0.722   0.815  0.3441  0.3722  0.1877
  601SOL    HW1 2402   2.541   0.717   0.911 -0.3570 -0.7057 -0.9433
  601SOL    HW2 2403   2.477   0.669   0.765 -0.7307 -0.7949  1.2925
  601SOL     MW 2404   2.540   0.715   0.821  0.1098  0.0760  0.1842
  602SOL     OW 2405   2.277   1.899   0.751 -0.3718  0.2197  0.0029
  602SOL    HW1 2406   2.220   1.818   0.721 -3.0749  0.1671  1.4297
  602SOL    HW2 2407   2.215   1.977   0.759 -0.2955  0.5756 -0.5127
  602SOL     MW 2408   2.261   1.899   0.748 -0.7184  0.2597  0.1231
  603SOL     OW 2409   2.956   1.390   1.960  0.0271  0.1902 -0.7687
  603SOL    HW1 2410   2.948   1.440   2.038 -0.1232 -0.7704 -0.0911
  603SOL    HW2 2411   3.013   1.311   1.989 -0.6463  1.1204  2.0055
  603SOL     MW 2412   2.962   1.386   1.974 -0.0816  0.1862 -0.3133
  604SOL     OW 2413   2.013   1.387   0.377  0.1486 -0.5290  0.4014
  604SOL    HW1 2414   2.080   1.335   0.425  0.1912 -0.4777  0.5031
  604SOL    HW2 2415   1.952   1.417   0.443  0.2259  3.0030 -0.6808
  604SOL     MW 2416   2.014   1.384   0.392  0.1645 -0.0562  0.2720
  605SOL     OW 2417   2.408   1.452   0.820  0.0015 -0.0941 -0.6216
  605SOL    HW1 2418   2.407   1.527   0.760  0.9326 -0.5605  0.5244
  605SOL    HW2 2419   2.476   1.394   0.791 -1.4935  0.1687 -0.6711
  605SOL     MW 2420   2.417   1.455   0.808 -0.0729 -0.1210 -0.4769
  606SOL     OW 2421   2.644   1.767   1.813  0.5139 -0.7596 -0.3441
  606SOL    HW1 2422   2.562   1.782   1.855  0.1774 -1.1242 -1.5787
  606SOL    HW2 2423   2.647   1.672   1.777  2.1070 -2.9106 -2.9054
  606SOL     MW 2424   2.634   1.757   1.814  0.6797 -1.0915 -0.8449
  607SOL     OW 2425   2.375   1.004   3.061 -0.0843 -0.2566 -0.1312
  607SOL    HW1 2426   2.446   1.037   3.005  0.5866 -2.6417  0.2400
  607SOL    HW2 2427   2.388   1.012   3.158 -1.2035  0.6374  1.9826
  607SOL     MW 2428   2.386   1.009   3.067 -0.1435 -0.4533  0.1967
  608SOL     OW 2429   1.847   0.220   0.520  0.2069  0.4432  0.0237
  608SOL    HW1 2430   1.846   0.250   0.432  4.4362  0.3595  1.3310
  608SOL    HW2 2431   1.789   0.138   0.526 -3.6722  1.2956  3.5672
  608SOL     MW 2432   1.839   0.213   0.509  0.2531  0.5446  0.6638
  609SOL     OW 2433   2.134   1.893   3.082 -0.4971 -0.1413 -0.0606
  609SOL    HW1 2434   2.066   1.835   3.042  2.6523 -0.2497 -1.4743
  609SOL    HW2 2435   2.127   1.885   3.177  0.1834  0.6275  1.8098
  609SOL     MW 2436   2.124   1.884   3.089  0.0082 -0.0541 -0.0004
  610SOL     OW 2437   1.833   0.926   1.200  0.4340  0.0601 -0.3662
  610SOL    HW1 2438   1.848   0.862   1.134 -0.3094  2.0330 -1.3307
  610SOL    HW2 2439   1.736   0.944   1.190 -0.3703  0.0290  1.0695
  610SOL     MW 2440   1.822   0.920   1.190  0.2298  0.3163 -0.3040
  611SOL     OW 2441   2.485   1.641   0.595 -0.3565 -0.1561 -0.1764
  611SOL    HW1 2442   2.556   1.625   0.527 -1.8877 -0.3396 -2.8540
  611SOL    HW2 2443   2.454   1.727   0.557  3.9431 -0.9866  0.8112
  611SOL     MW 2444   2.490   1.651   0.581  0.0088 -0.2899 -0.3994
  612SOL     OW 2445   2.942   2.961   0.350 -0.1060 -0.3394  0.2787
  612SOL    HW1 2446   2.947   2.986   0.440  0.7195 -0.4009  1.2724
  612SOL    HW2 2447   3.008   2.900   0.327  0.5160 -3.5489 -1.2945
  612SOL     MW 2448   2.951   2.956   0.359  0.0850 -0.7710  0.2022
  613SOL     OW 2449   1.477   1.146   1.016 -0.6029 -0.3610  0.0890
  613SOL    HW1 2450   1.475   1.233   1.052 -0.2024 -0.9477 -2.0497
  613SOL    HW2 2451   1.487   1.078   1.079 -0.4500 -0.8135 -1.0248
  613SOL     MW 2452   1.478   1.149   1.029 -0.5298 -0.4981 -0.3402
  614SOL     OW 2453   2.038   0.464   1.419 -0.1083 -0.2791 -0.6238
  614SOL    HW1 2454   2.030   0.416   1.500  0.5900 -2.6756 -1.3726
  614SOL    HW2 2455   1.948   0.486   1.400  0.4120  1.5112 -1.1453
  614SOL     MW 2456   2.025   0.461   1.427  0.0525 -0.3591 -0.7914
  615SOL     OW 2457   2.404   0.708   0.326  0.0689  0.6135  0.0904
  615SOL    HW1 2458   2.476   0.644   0.341 -0.1182  2.1941  2.8874
  615SOL    HW2 2459   2.358   0.686   0.238 -0.5004 -0.9420 -2.3591
  615SOL     MW 2460   2.408   0.697   0.317 -0.0309  0.6168  0.1363
  616SOL     OW 2461   2.557   0.413   1.609  0.1772  0.4357 -0.4094
  616SOL    HW1 2462   2.577   0.337   1.553 -1.8868  0.4427  0.0548
  616SOL    HW2 2463   2.541   0.493   1.563 -0.3129  0.9448  2.5766
  616SOL     MW 2464   2.558   0.413   1.596 -0.1598  0.5038  0.0458
  617SOL     OW 2465   2.884   0.542   1.868 -0.8547  0.0318 -0.1004
  617SOL    HW1 2466   2.797   0.548   1.908  0.1954 -0.1662  1.9540
  617SOL    HW2 2467   2.877   0.471   1.810  0.9867 -0.5478  3.6281
  617SOL     MW 2468   2.872   0.534   1.865 -0.4732 -0.0708  0.6626
  618SOL     OW 2469   2.785   0.233   2.011  0.6581 -0.5183  0.0646
  618SOL    HW1 2470   2.781   0.315   2.052  0.2738  0.8668  1.2116
  618SOL    HW2 2471   2.877   0.196   2.036  1.7599 -0.8658 -1.7525
  618SOL     MW 2472   2.797   0.239   2.020  0.7528 -0.3814 -0.0238
  619SOL     OW 2473   2.721   0.710   0.108 -0.0246 -0.3760 -0.0383
  619SOL    HW1 2474   2.739   0.799   0.082 -0.2622 -3.1449 -1.2947
  619SOL    HW2 2475   2.782   0.693   0.181  0.6968  0.4936  2.1385
  619SOL     MW 2476   2.731   0.720   0.114  0.0393 -0.6266  0.0831
  620SOL     OW 2477   2.209   1.056   0.948 -0.3043 -0.0148  0.3919
  620SOL    HW1 2478   2.287   1.029   0.899  0.7241  0.0288  0.8156
  620SOL    HW2 2479   2.130   1.037   0.900  1.6822 -3.5238  1.5273
  620SOL     MW 2480   2.209   1.050   0.936  0.0935 -0.4720  0.5976
  621SOL     OW 2481   1.497   2.194   1.997  0.3908  0.2892  0.4489
  621SOL    HW1 2482   1.451   2.110   1.985  0.8715  2.4249 -1.0396
  621SOL    HW2 2483   1.594   2.188   2.001  0.4723  0.1311  1.7800
  621SOL     MW 2484   1.504   2.182   1.996  0.4650  0.5501  0.4281
  622SOL     OW 2485   2.629   0.266   0.238 -0.6874  0.2792 -0.4936
  622SOL    HW1 2486   2.719   0.303   0.255  0.2668 -0.1714  0.7495
  622SOL    HW2 2487   2.655   0.176   0.241 -2.2106  1.5346 -2.2041
  622SOL     MW 2488   2.644   0.259   0.241 -0.7625  0.3854 -0.5553
  623SOL     OW 2489   2.387   2.759   0.852 -0.8489  0.1398 -0.0459
  623SOL    HW1 2490   2.448   2.823   0.874 -2.2587 -0.4281  0.4413
  623SOL    HW2 2491   2.329   2.745   0.932  0.4449 -0.1664 -0.9642
  623SOL     MW 2492   2.387   2.766   0.865 -0.8642  0.0245 -0.1028
  624SOL     OW 2493   2.147   1.531   3.068 -0.0497 -0.0464 -0.0681
  624SOL    HW1 2494   2.070   1.477   3.040  1.6960  1.3273  1.2164
  624SOL    HW2 2495   2.120   1.620   3.056  3.4654 -3.3107 -0.2573
  624SOL     MW 2496   2.133   1.536   3.062  0.6444 -0.2959  0.0764
  625SOL     OW 2497   2.191   1.878   1.003 -0.3150  0.3622  0.2559
  625SOL    HW1 2498   2.229   1.813   1.063 -1.3819 -1.2808 -0.7174
  625SOL    HW2 2499   2.229   1.858   0.915  0.6403 -0.6529 -0.4841
  625SOL     MW 2500   2.201   1.867   0.999 -0.3297  0.0115  0.0298
  626SOL     OW 2501   0.168   1.818   2.462  0.1883 -0.0858  0.1572
  626SOL    HW1 2502   0.123   1.743   2.498  2.1564  1.3538  1.9839
  626SOL    HW2 2503   0.130   1.892   2.505  4.2262  1.7252 -0.3888
  626SOL     MW 2504   0.157   1.818   2.472  0.9807  0.3431  0.3261
  627SOL     OW 2505   2.565   0.848   2.567  0.4682 -0.6174  0.3298
  627SOL    HW1 2506   2.473   0.878   2.561  0.3725  4.0091 -3.4548
  627SOL    HW2 2507   2.582   0.795   2.490  0.6306 -1.0445  0.6212
  627SOL     MW 2508   2.555   0.845   2.556  0.4770 -0.0634 -0.1311
  628SOL     OW 2509   2.318   1.356   1.285 -0.1010 -0.0967 -0.4167
  628SOL    HW1 2510   2.300   1.282   1.232 -1.0843  1.8639  0.4681
  628SOL    HW2 2511   2.406   1.385   1.265 -0.4906 -0.8121 -1.5352
  628SOL     MW 2512   2.328   1.350   1.276 -0.2821  0.0676 -0.4475
  629SOL     OW 2513   1.803   0.605   1.307  0.2242  0.3695 -0.0418
  629SOL    HW1 2514   1.815   0.661   1.229 -0.5899  0.7490  1.3836
  629SOL    HW2 2515   1.716   0.566   1.291  1.3206  0.1898 -0.7526
  629SOL     MW 2516   1.793   0.608   1.295  0.2614  0.3958  0.0525
  630SOL     OW 2517   2.422   1.889   3.033 -0.0900 -0.0183 -0.1730
  630SOL    HW1 2518   2.447   1.977   3.005 -1.5942 -2.3829  2.1455
  630SOL    HW2 2519   2.329   1.899   3.033  0.7431  2.4923  0.2487
  630SOL     MW 2520   2.413   1.902   3.029 -0.1786  0.0010  0.1886
  631SOL     OW 2521   2.091   1.798   1.516 -0.2299  1.0978 -0.2859
  631SOL    HW1 2522   2.085   1.726   1.575 -0.8434  0.9500 -1.9319
  631SOL    HW2 2523   2.007   1.845   1.523 -1.6637 -0.0589  2.9586
  631SOL     MW 2524   2.079   1.794   1.524 -0.5000  0.9257 -0.0750
  632SOL     OW 2525   0.294   1.882   1.552 -0.0504  0.0656 -0.2498
  632SOL    HW1 2526   0.207   1.915   1.539  3.6242 -1.4639  3.2061
  632SOL    HW2 2527   0.289   1.789   1.542  1.9229  2.2684  1.0320
  632SOL     MW 2528   0.282   1.874   1.549  0.6948  0.1544  0.3753
  633SOL     OW 2529   2.588   0.527   0.399 -0.2382 -0.3801 -0.1824
  633SOL    HW1 2530   2.644   0.539   0.478 -0.8303 -0.3431 -0.7275
  633SOL    HW2 2531   2.594   0.430   0.388  1.8183 -2.3427  0.1289
  633SOL     MW 2532   2.596   0.516   0.408 -0.0450 -0.6342 -0.2133
  634SOL     OW 2533   2.622  -0.001   0.622  0.3897 -0.0871 -0.4442
  634SOL    HW1 2534   2.665   0.079   0.595 -2.3421 -0.1189 -0.3312
  634SOL    HW2 2535   2.564  -0.029   0.551  1.1969 -1.4267 -0.7983
  634SOL     MW 2536   2.620   0.006   0.609  0.1358 -0.2681 -0.4760
  635SOL     OW 2537   2.625   0.049   1.894  0.3591 -0.2291  0.6860
  635SOL    HW1 2538   2.674   0.007   1.814  0.7669  0.5707  1.7512
  635SOL    HW2 2539   2.689   0.113   1.929  0.1770  0.4340  0.1983
  635SOL     MW 2540   2.640   0.052   1.888  0.3889 -0.0361  0.7622
  636SOL     OW 2541   2.705   1.725   0.768 -0.3195 -0.1471 -0.4438
  636SOL    HW1 2542   2.624   1.694   0.730 -0.7279  1.9236 -0.3228
  636SOL    HW2 2543   2.688   1.787   0.841  1.1098  0.5315 -0.7937
  636SOL     MW 2544   2.692   1.729   0.773 -0.1848  0.2156 -0.4740
  637SOL     OW 2545   2.852   1.490   0.681 -0.0344 -0.3329  0.0954
  637SOL    HW1 2546   2.917   1.551   0.645  1.4075 -0.2156  1.5687
  637SOL    HW2 2547   2.786   1.554   0.719 -1.8091  0.6187  1.1312
  637SOL     MW 2548   2.852   1.507   0.682 -0.0783 -0.1919  0.4265
  638SOL     OW 2549   2.795   0.527   0.597  0.3645 -0.0578 -0.7672
  638SOL    HW1 2550   2.880   0.561   0.570 -2.2336 -2.2181 -1.2588
  638SOL    HW2 2551   2.779   0.528   0.691  0.4881  0.1794 -1.1087
  638SOL     MW 2552   2.804   0.532   0.606  0.0380 -0.3115 -0.8771
  639SOL     OW 2553   1.732   3.083   0.537  0.7099 -0.2939  0.0239
  639SOL    HW1 2554   1.634   3.081   0.520 -2.3453 -0.5156  1.2398
  639SOL    HW2 2555   1.765   2.987   0.528  4.1015  0.3322 -1.2740
  639SOL     MW 2556   1.723   3.070   0.534  0.7543 -0.2405  0.0131
  640SOL     OW 2557   0.285   1.406   0.104 -0.1061  0.4398 -0.2005
  640SOL    HW1 2558   0.317   1.401   0.006  0.6408  3.1993  0.6901
  640SOL    HW2 2559   0.283   1.313   0.128  1.5215  0.9126 -4.1243
  640SOL     MW 2560   0.289   1.393   0.094  0.2072  0.8662 -0.6007
  641SOL     OW 2561   2.225   0.350   0.406  0.4513  0.5371  0.2956
  641SOL    HW1 2562   2.291   0.290   0.372 -2.5162  1.5997 -2.5716
  641SOL    HW2 2563   2.162   0.294   0.455 -0.9407  0.2107  0.9344
  641SOL     MW 2564   2.226   0.335   0.408 -0.1239  0.6343  0.0016
  642SOL     OW 2565   0.064   0.034   0.552  0.8169 -0.7148 -0.2039
  642SOL    HW1 2566   0.051   0.120   0.501 -0.7475 -0.8539 -1.4962
  642SOL    HW2 2567  -0.018   0.002   0.595  0.4496  1.3556  1.4836
  642SOL     MW 2568   0.052   0.041   0.551  0.5620 -0.4600 -0.1518
  643SOL     OW 2569   2.085   0.334   1.641  0.3420 -0.1749  0.6150
  643SOL    HW1 2570   2.012   0.302   1.696 -0.0257 -0.6217  1.4476
  643SOL    HW2 2571   2.107   0.264   1.581 -0.2751 -0.5295 -0.5075
  643SOL     MW 2572   2.078   0.321   1.640  0.2121 -0.2806  0.5767
  644SOL     OW 2573   2.638   1.887   0.973 -0.4493  0.1137 -0.4601
  644SOL    HW1 2574   2.627   1.840   1.058  1.0356 -0.6453  0.3709
  644SOL    HW2 2575   2.558   1.927   0.943 -2.1951  0.9109 -0.0788
  644SOL     MW 2576   2.626   1.886   0.981 -0.4837  0.1188 -0.3002
  645SOL     OW 2577   2.774   0.865   0.750  0.3650 -0.4905  0.6575
  645SOL    HW1 2578   2.865   0.828   0.735  1.7468  1.5888 -0.6785
  645SOL    HW2 2579   2.716   0.794   0.766 -0.4138  1.6653 -0.1843
  645SOL     MW 2580   2.779   0.851   0.750  0.4446  0.0683  0.3702
  646SOL     OW 2581   0.164   2.238   0.850 -0.3083 -0.0655 -0.0095
  646SOL    HW1 2582   0.160   2.136   0.856 -0.2077 -0.1988 -1.1021
  646SOL    HW2 2583   0.111   2.267   0.776  1.0223  0.9493  0.7010
  646SOL     MW 2584   0.157   2.228   0.841 -0.1195  0.0508 -0.0599
  647SOL     OW 2585   2.772   0.529   3.004  0.4767  0.4999 -0.2529
  647SOL    HW1 2586   2.703   0.465   3.024 -0.8464 -2.1714  0.8840
  647SOL    HW2 2587   2.757   0.595   3.075 -0.8807  0.9194 -1.7514
  647SOL     MW 2588   2.761   0.529   3.016  0.1231  0.2028 -0.3006
  648SOL     OW 2589   2.235   0.654   1.129 -0.3766 -0.5196  0.0673
  648SOL    HW1 2590   2.245   0.574   1.179  0.6075  3.0572 -0.3391
  648SOL    HW2 2591   2.191   0.711   1.193  2.5684  0.4218  1.5226
  648SOL     MW 2592   2.231   0.651   1.144  0.1418  0.0765  0.2057
  649SOL     OW 2593   2.406   2.705   1.258 -0.3783 -0.2890  0.4453
  649SOL    HW1 2594   2.491   2.748   1.278 -2.5637  0.0557 -1.1588
  649SOL    HW2 2595   2.433   2.625   1.211 -3.1556  1.0129 -5.0534
  649SOL     MW 2596   2.421   2.700   1.254 -1.0331 -0.0717 -0.4918
  650SOL     OW 2597   2.773   0.244   0.559 -0.4197  0.5595 -0.1563
  650SOL    HW1 2598   2.794   0.337   0.556 -0.0195 -0.0241  0.2605
  650SOL    HW2 2599   2.854   0.203   0.588  1.1819  0.0407 -2.7130
  650SOL     MW 2600   2.786   0.251   0.563 -0.1556  0.4140 -0.4386
  651SOL     OW 2601   0.028   0.436   1.027  0.7126 -0.2682 -0.0555
  651SOL    HW1 2602   0.072   0.491   0.956  0.7021  0.6702  1.2199
  651SOL    HW2 2603  -0.042   0.498   1.050 -0.8820  1.7493 -1.4596
  651SOL     MW 2604   0.025   0.451   1.021  0.5008  0.1218 -0.0725
  652SOL     OW 2605   2.396   1.417   3.011 -0.2435  0.1851 -0.2237
  652SOL    HW1 2606   2.449   1.467   2.948 -0.6848  2.5989  2.4677
  652SOL    HW2 2607   2.312   1.468   3.026 -1.0118  0.1041  0.9958
  652SOL     MW 2608   2.392   1.430   3.005 -0.4031  0.4929  0.2923
  653SOL     OW 2609   1.830   0.323   0.280 -0.3956  0.2567 -0.3518
  653SOL    HW1 2610   1.818   0.248   0.214  0.5250 -0.9185  0.6538
  653SOL    HW2 2611   1.892   0.378   0.237 -1.7089  1.9188  0.2493
  653SOL     MW 2612   1.837   0.320   0.265 -0.4474  0.3210 -0.1398
  654SOL     OW 2613   2.429   0.986   0.788  0.1713  0.5014 -0.1370
  654SOL    HW1 2614   2.375   0.969   0.714  0.1660  1.0444 -0.2655
  654SOL    HW2 2615   2.491   0.908   0.784  2.3748 -2.8962  0.0464
  654SOL     MW 2616   2.430   0.974   0.778  0.4613  0.1248 -0.1298
  655SOL     OW 2617   2.894   0.914   0.341 -0.1828 -0.2555 -0.9857
  655SOL    HW1 2618   2.848   0.953   0.416 -0.2978 -0.2852 -1.7370
  655SOL    HW2 2619   2.948   0.846   0.377  0.2791  1.1505  0.3230
  655SOL     MW 2620   2.895   0.910   0.356 -0.1370 -0.0739 -0.9122
  656SOL     OW 2621   1.826   2.642   1.409 -0.3477 -0.1273  0.1707
  656SOL    HW1 2622   1.859   2.724   1.371  1.7524 -0.1701  0.9700
  656SOL    HW2 2623   1.892   2.572   1.390 -0.8322 -1.2180 -1.3098
  656SOL     MW 2624   1.839   2.643   1.401 -0.1346 -0.2769  0.0808
  657SOL     OW 2625   0.070   1.801   1.165  0.5779 -0.7009 -0.5897
  657SOL    HW1 2626   0.156   1.841   1.151 -0.0417  1.3382 -2.1007
  657SOL    HW2 2627   0.081   1.729   1.227  2.2547  1.7752  0.2771
  657SOL     MW 2628   0.083   1.797   1.171  0.7174 -0.1052 -0.6747
  658SOL     OW 2629   2.693   1.354   0.231 -0.8538  0.7308 -0.4024
  658SOL    HW1 2630   2.672   1.273   0.280 -1.0736 -2.7375 -1.1185
  658SOL    HW2 2631   2.706   1.410   0.306  0.3831  1.6933  1.9061
  658SOL     MW 2632   2.692   1.351   0.247 -0.7196  0.4002 -0.1923
  659SOL     OW 2633   2.146   1.460   1.033 -0.3705  0.0393  0.3635
  659SOL    HW1 2634   2.240   1.454   1.009  2.1029 -3.2423  0.8185
  659SOL    HW2 2635   2.146   1.441   1.123 -1.1533 -0.6932 -2.9412
  659SOL     MW 2636   2.159   1.457   1.042 -0.1475 -0.4903 -0.0125
  660SOL     OW 2637   2.100   1.573   1.644  0.0530 -0.1079 -0.1548
  660SOL    HW1 2638   2.110   1.544   1.736 -4.3441 -1.2020  0.2413
  660SOL    HW2 2639   2.013   1.537   1.635 -0.6050 -0.3792 -1.6084
  660SOL     MW 2640   2.089   1.565   1.655 -0.6140 -0.2880 -0.2943
  661SOL     OW 2641   2.412   0.983   0.257 -0.4001  0.2590 -0.1514
  661SOL    HW1 2642   2.479   1.033   0.312 -0.1491 -1.7176  0.4254
  661SOL    HW2 2643   2.422   0.882   0.269  0.8103 -0.3876 -0.0283
  661SOL     MW 2644   2.422   0.976   0.266 -0.2073 -0.0871 -0.0591
  662SOL     OW 2645   2.578   2.947   0.867  0.5395  0.2004 -0.4836
  662SOL    HW1 2646   2.531   3.020   0.909  0.6347 -1.7067 -0.4243
  662SOL    HW2 2647   2.598   2.988   0.779  1.0321 -0.7564  0.7734
  662SOL     MW 2648   2.574   2.962   0.861  0.6171 -0.1775 -0.3099
  663SOL     OW 2649   2.696   1.583   0.443  0.1919 -0.2815 -0.0627
  663SOL    HW1 2650   2.739   1.630   0.372  0.0044  1.9526 -1.3383
  663SOL    HW2 2651   2.764   1.554   0.500 -2.4573  2.5342 -1.7966
  663SOL     MW 2652   2.711   1.585   0.441 -0.1824  0.3847 -0.4598
  664SOL     OW 2653   2.528   1.484   1.508  0.3641 -0.0142 -0.0533
  664SOL    HW1 2654   2.496   1.569   1.472  1.6055  2.6063  2.9211
  664SOL    HW2 2655   2.443   1.431   1.515 -1.6583  3.1890 -1.6550
  664SOL     MW 2656   2.512   1.488   1.504  0.2611  0.7542  0.1278
  665SOL     OW 2657   2.853   0.840   2.112 -0.1462 -0.0757 -0.3689
  665SOL    HW1 2658   2.850   0.839   2.014 -2.0012  2.3711  0.2421
  665SOL    HW2 2659   2.928   0.789   2.140 -0.0408 -0.4087  0.1268
  665SOL     MW 2660   2.863   0.833   2.103 -0.3770  0.2032 -0.2229
  666SOL     OW 2661   2.773   3.021   1.699 -0.1040  0.0729  0.0693
  666SOL    HW1 2662   2.807   3.034   1.613  0.3167 -0.4469  0.6120
  666SOL    HW2 2663   2.716   2.944   1.695 -0.9613 -0.0566 -1.7191
  666SOL     MW 2664   2.770   3.013   1.687 -0.1616 -0.0128 -0.0951
  667SOL     OW 2665   2.000   2.732   1.748  0.5252  0.1115  0.2860
  667SOL    HW1 2666   2.048   2.685   1.816 -0.9756  1.2896  0.1931
  667SOL    HW2 2667   2.057   2.802   1.718 -0.0002 -0.4926  0.5034
  667SOL     MW 2668   2.014   2.735   1.753  0.2578  0.1873  0.3024
  668SOL     OW 2669   2.776   0.564   0.859 -0.1057  0.3341 -0.9752
  668SOL    HW1 2670   2.845   0.596   0.927 -1.0757  1.3659  1.7544
  668SOL    HW2 2671   2.699   0.617   0.863 -1.1697 -0.3970 -0.8635
  668SOL     MW 2672   2.775   0.575   0.869 -0.3741  0.3737 -0.6003
  669SOL     OW 2673   0.212   0.992   0.710 -0.2618 -0.4539 -0.5072
  669SOL    HW1 2674   0.162   1.019   0.790  2.9675  0.5197 -0.2179
  669SOL    HW2 2675   0.284   1.063   0.709 -1.0184  0.3814  1.4162
  669SOL     MW 2676   0.215   1.005   0.720  0.0644 -0.2152 -0.2153
  670SOL     OW 2677   2.899   0.335   0.266  0.0886 -0.0533  0.6880
  670SOL    HW1 2678   2.906   0.273   0.190 -0.1403  1.9128 -1.8651
  670SOL    HW2 2679   2.902   0.419   0.222 -2.9398  1.2453 -1.1009
  670SOL     MW 2680   2.900   0.338   0.250 -0.3412  0.3775  0.1151
  671SOL     OW 2681   2.003   3.031   1.513  0.3736  0.0521 -0.4372
  671SOL    HW1 2682   1.930   3.005   1.452 -2.5121  0.6202 -0.6060
  671SOL    HW2 2683   1.964   3.077   1.588 -1.3569  0.7893 -2.1385
  671SOL     MW 2684   1.988   3.034   1.515 -0.2355  0.2243 -0.6839
  672SOL     OW 2685   1.880   1.745   1.312  0.5864  0.2110  0.0104
  672SOL    HW1 2686   1.889   1.809   1.387 -0.5471  0.2896 -2.6949
  672SOL    HW2 2687   1.894   1.800   1.227  1.4518  0.5195 -0.6810
  672SOL     MW 2688   1.883   1.761   1.311  0.5510  0.2621 -0.4378
  673SOL     OW 2689   2.789   1.094   0.572 -0.1290  0.0270 -0.3124
  673SOL    HW1 2690   2.778   1.013   0.633  0.2156 -1.6459  3.7911
  673SOL    HW2 2691   2.871   1.131   0.597 -0.1875 -1.3151 -0.5532
  673SOL     MW 2692   2.799   1.088   0.583 -0.0913 -0.3708  0.1973
  674SOL     OW 2693   2.470   0.004   1.260 -0.4384  0.1221  0.2453
  674SOL    HW1 2694   2.413   0.020   1.183 -2.8195  2.0680 -1.1951
  674SOL    HW2 2695   2.487  -0.086   1.253 -1.9175  1.2314 -1.6845
  674SOL     MW 2696   2.465  -0.006   1.249 -0.9477  0.5252 -0.1993
  675SOL     OW 2697   3.027   0.895   1.105  0.0931 -0.2064 -0.2137
  675SOL    HW1 2698   3.083   0.890   1.186 -1.4898 -1.2033  1.4565
  675SOL    HW2 2699   3.075   0.954   1.036 -2.3016  1.8864 -1.9375
  675SOL     MW 2700   3.041   0.902   1.106 -0.4317 -0.0618 -0.2208
  676SOL     OW 2701   2.901   1.451   1.703 -0.0063 -0.4632 -0.3343
  676SOL    HW1 2702   2.891   1.368   1.658 -0.5616 -0.9642  2.3060
  676SOL    HW2 2703   2.930   1.425   1.797  0.7621 -2.3450  4.2223
  676SOL     MW 2704   2.904   1.436   1.709  0.0218 -0.7776  0.6153
  677SOL     OW 2705   2.448   0.589   1.968  0.4487  0.7789 -0.2830
  677SOL    HW1 2706   2.407   0.522   1.903 -1.3853 -0.7330 -0.7856
  677SOL    HW2 2707   2.420   0.672   1.936  2.5749  2.6503  0.2999
  677SOL     MW 2708   2.439   0.591   1.955  0.4873  0.8263 -0.2724
  678SOL     OW 2709   2.403   1.622   0.329  0.2478 -0.6776  0.2862
  678SOL    HW1 2710   2.310   1.638   0.322  1.2558  1.0570  0.2394
  678SOL    HW2 2711   2.411   1.535   0.288 -2.4593  1.8443 -1.5075
  678SOL     MW 2712   2.391   1.612   0.323  0.0236 -0.1160  0.0433
  679SOL     OW 2713   2.261   0.409   1.256 -0.5603 -0.3914 -0.2095
  679SOL    HW1 2714   2.237   0.342   1.192  1.1587 -1.0972  1.1106
  679SOL    HW2 2715   2.181   0.433   1.297  1.6081 -0.4207 -1.1344
  679SOL     MW 2716   2.247   0.403   1.253 -0.0474 -0.4884 -0.1573
  680SOL     OW 2717   2.451   0.099   1.509  0.8224 -0.1353  0.0732
  680SOL    HW1 2718   2.365   0.145   1.482  0.4191  3.5522 -0.9292
  680SOL    HW2 2719   2.468   0.058   1.428  0.6859 -0.6613  1.1545
  680SOL     MW 2720   2.442   0.099   1.495  0.7512  0.2818  0.0836
  681SOL     OW 2721   0.242   0.607   1.469  0.2005 -0.2583 -0.4473
  681SOL    HW1 2722   0.246   0.519   1.502 -2.2692  2.0043  0.5073
  681SOL    HW2 2723   0.197   0.601   1.379  0.7756 -3.4691  0.0023
  681SOL     MW 2724   0.237   0.595   1.461 -0.0494 -0.3834 -0.2621
  682SOL     OW 2725   0.085   2.838   1.543 -0.3052 -0.3248 -0.0851
  682SOL    HW1 2726   0.151   2.909   1.542  1.9625  0.9144  1.0130
  682SOL    HW2 2727   0.033   2.877   1.606 -0.1511 -0.0676 -1.1456
  682SOL     MW 2728   0.087   2.852   1.551  0.0144 -0.1274 -0.0802
  683SOL     OW 2729   2.080   0.792   3.010 -0.4109 -0.2366 -0.3085
  683SOL    HW1 2730   2.009   0.730   3.015  0.5751  0.1652  3.0407
  683SOL    HW2 2731   2.048   0.878   3.032  3.6501  2.4318 -0.2864
  683SOL     MW 2732   2.067   0.795   3.014  0.2550  0.1684  0.1363
  684SOL     OW 2733   2.068   1.738   0.640 -0.5545  0.0872  0.3520
  684SOL    HW1 2734   2.066   1.700   0.547 -0.7466 -0.6034  0.5879
  684SOL    HW2 2735   2.011   1.687   0.701 -2.1563  3.8398 -0.0966
  684SOL     MW 2736   2.060   1.726   0.636 -0.7911  0.4912  0.3240
  685SOL     OW 2737   2.687   1.701   1.181  0.0357  0.1397  0.2429
  685SOL    HW1 2738   2.688   1.706   1.278 -0.3026 -1.0712  0.1108
  685SOL    HW2 2739   2.642   1.626   1.146 -0.1918  0.8202  0.6281
  685SOL     MW 2740   2.681   1.692   1.189 -0.0390  0.0697  0.2763
  686SOL     OW 2741   2.884   0.657   1.613 -0.2029  0.6277  0.5019
  686SOL    HW1 2742   2.877   0.628   1.699  1.1743 -0.0005 -2.0589
  686SOL    HW2 2743   2.977   0.690   1.604 -0.2643 -1.3461 -3.0104
  686SOL     MW 2744   2.896   0.657   1.623 -0.0293  0.2844 -0.2994
  687SOL     OW 2745   2.124   0.209   1.140 -0.0541  0.5781  0.4299
  687SOL    HW1 2746   2.155   0.162   1.066 -1.7215 -0.0563  2.7152
  687SOL    HW2 2747   2.075   0.282   1.096 -0.4612 -0.2838  1.7103
  687SOL     MW 2748   2.121   0.212   1.125 -0.3278  0.3807  0.9004
  688SOL     OW 2749   2.450   0.587   1.405  0.6438 -0.0942  0.3540
  688SOL    HW1 2750   2.446   0.502   1.361 -0.9191  0.2627  1.6281
  688SOL    HW2 2751   2.367   0.601   1.460  0.5163 -0.6705  1.0360
  688SOL     MW 2752   2.439   0.577   1.407  0.4208 -0.1232  0.6121
  689SOL     OW 2753   2.510   0.748   2.979  0.0032 -0.4836 -0.2812
  689SOL    HW1 2754   2.453   0.825   2.998  0.6631  1.1007  1.9796
  689SOL    HW2 2755   2.551   0.721   3.056  0.8515 -1.3508 -0.2466
  689SOL     MW 2756   2.508   0.754   2.991  0.2022 -0.3890  0.0216
  690SOL     OW 2757   2.008   0.881   1.837 -0.3475  0.4580 -0.2251
  690SOL    HW1 2758   1.989   0.797   1.878 -1.0995  0.8657  1.0248
  690SOL    HW2 2759   2.059   0.863   1.755  2.1387  0.7415  2.0528
  690SOL     MW 2760   2.012   0.868   1.832 -0.1187  0.5492  0.2404
  691SOL     OW 2761   2.413   0.301   0.880  0.2409  0.1411  0.2522
  691SOL    HW1 2762   2.497   0.334   0.907 -0.5832 -2.0421 -1.2417
  691SOL    HW2 2763   2.342   0.359   0.899  2.5136  0.3949 -1.3194
  691SOL     MW 2764   2.415   0.313   0.886  0.4320 -0.1135 -0.1522
  692SOL     OW 2765   2.863   1.598   1.437 -0.2989  0.2814  0.0014
  692SOL    HW1 2766   2.852   1.568   1.531 -1.9067 -1.2141 -0.3834
  692SOL    HW2 2767   2.886   1.691   1.443 -2.7467 -0.1740 -1.4309
  692SOL     MW 2768   2.865   1.606   1.451 -0.8340  0.0240 -0.2383
  693SOL     OW 2769   2.344   0.390   0.034 -0.3259 -0.2221 -0.0552
  693SOL    HW1 2770   2.261   0.337   0.048 -0.1277  1.7076 -3.1999
  693SOL    HW2 2771   2.316   0.475   0.055 -0.9339 -1.4527 -4.2271
  693SOL     MW 2772   2.329   0.394   0.039 -0.3800 -0.1299 -1.0206
  694SOL     OW 2773   1.905   1.177   1.161 -0.3301 -0.7046  0.5804
  694SOL    HW1 2774   1.995   1.185   1.183 -0.5165 -2.5077 -1.5268
  694SOL    HW2 2775   1.884   1.090   1.181  2.0885  1.4519 -0.5110
  694SOL     MW 2776   1.914   1.167   1.167 -0.0356 -0.6580  0.1584
  695SOL     OW 2777   2.959   1.407   1.271 -0.4409  0.0109  0.1375
  695SOL    HW1 2778   2.942   1.419   1.174 -0.3062  1.4037 -4.2003
  695SOL    HW2 2779   2.929   1.488   1.319 -0.7345 -2.2262  1.6199
  695SOL     MW 2780   2.953   1.419   1.265 -0.4619 -0.1005 -0.2392
  696SOL     OW 2781   2.029   1.432   0.785 -0.6489 -0.2794  0.0712
  696SOL    HW1 2782   2.077   1.461   0.859  0.1551 -3.0301  0.1107
  696SOL    HW2 2783   1.991   1.349   0.819 -1.5510  0.8078  1.5622
  696SOL     MW 2784   2.030   1.424   0.799 -0.6618 -0.4989  0.2731
  697SOL     OW 2785   2.935   1.060   2.246  0.5458 -0.3269  0.2172
  697SOL    HW1 2786   2.851   1.109   2.259 -2.3193  2.8505 -0.2347
  697SOL    HW2 2787   2.912   0.977   2.211  0.6687  0.4200  2.1736
  697SOL     MW 2788   2.921   1.056   2.243  0.1840  0.1908  0.4157
  698SOL     OW 2789   2.591   0.317   3.038  0.4587  0.4349  0.2130
  698SOL    HW1 2790   2.510   0.359   3.059  0.0952 -0.8528 -0.1599
  698SOL    HW2 2791   2.614   0.287   3.130 -0.4733 -0.6481  0.2932
  698SOL     MW 2792   2.584   0.318   3.053  0.2878  0.1221  0.1743
  699SOL     OW 2793   1.897   1.619   2.080 -0.0209 -0.0876  0.1044
  699SOL    HW1 2794   1.869   1.530   2.063 -1.0377  1.3545 -1.1507
  699SOL    HW2 2795   1.985   1.634   2.041  1.4118 -3.0940 -2.9463
  699SOL     MW 2796   1.905   1.609   2.072  0.0340 -0.2940 -0.4637
  700SOL     OW 2797   2.674   0.833   1.597 -0.2037  0.4455  0.8392
  700SOL    HW1 2798   2.714   0.904   1.547  1.6903 -1.1451 -1.1534
  700SOL    HW2 2799   2.739   0.766   1.600 -3.1176 -0.0977 -2.5790
  700SOL     MW 2800   2.688   0.834   1.591 -0.3383  0.1640  0.1253
  701SOL     OW 2801   1.696   1.127   2.512 -0.1461 -0.3459  0.6687
  701SOL    HW1 2802   1.788   1.139   2.496 -2.9042  0.6511 -2.8528
  701SOL    HW2 2803   1.676   1.152   2.599  0.4530  0.0078  0.1234
  701SOL     MW 2804   1.706   1.132   2.521 -0.4309 -0.1677  0.1321
  702SOL     OW 2805   2.102   0.458   0.737 -0.4324  0.5988 -0.7154
  702SOL    HW1 2806   2.110   0.370   0.700 -0.9159 -1.5668  0.0308
  702SOL    HW2 2807   2.179   0.512   0.705 -1.5702  2.2990 -1.9273
  702SOL     MW 2808   2.113   0.453   0.728 -0.6463  0.5374 -0.7768
  703SOL     OW 2809   2.720   1.246   0.951 -0.2278  0.4684 -0.0482
  703SOL    HW1 2810   2.674   1.233   0.871  0.0871 -1.7905  1.3582
  703SOL    HW2 2811   2.713   1.155   0.983  0.9107  0.9803 -1.5151
  703SOL     MW 2812   2.713   1.233   0.945 -0.0360  0.2379 -0.0562
  704SOL     OW 2813   3.073   1.239   0.128  0.1637  0.4643 -0.5494
  704SOL    HW1 2814   2.978   1.228   0.096 -2.3660  1.3074  2.0416
  704SOL    HW2 2815   3.074   1.211   0.222 -0.7953 -1.3106 -2.4073
  704SOL     MW 2816   3.061   1.234   0.136 -0.2966  0.3414 -0.4527
  705SOL     OW 2817   2.060   1.553   1.299 -0.1072  0.1314  0.0465
  705SOL    HW1 2818   2.003   1.628   1.312 -1.2228 -0.8831 -0.3365
  705SOL    HW2 2819   2.118   1.553   1.376 -0.3808 -1.2272 -1.0399
  705SOL     MW 2820   2.060   1.563   1.311 -0.2905 -0.1817 -0.1473
  706SOL     OW 2821   2.998   1.228   0.661  0.2429 -0.0675  0.6813
  706SOL    HW1 2822   3.043   1.224   0.573  2.8334 -0.0087 -0.0437
  706SOL    HW2 2823   2.967   1.317   0.675 -2.4806 -0.2739  1.5334
  706SOL     MW 2824   3.000   1.239   0.651  0.2254 -0.0869  0.6981
  707SOL     OW 2825   2.379   0.036   0.959 -0.4113 -0.2207  0.1161
  707SOL    HW1 2826   2.398   0.125   0.930 -0.7901  2.6635  1.8186
  707SOL    HW2 2827   2.300   0.006   0.906 -0.1401 -0.9601 -2.8744
  707SOL     MW 2828   2.371   0.044   0.948 -0.4255  0.0622 -0.0538
  708SOL     OW 2829   2.413   1.378   0.183  0.0808  0.0778  0.0422
  708SOL    HW1 2830   2.505   1.355   0.187 -1.3259 -1.0661  0.4932
  708SOL    HW2 2831   2.388   1.397   0.090  0.8209  0.2847  1.0610
  708SOL     MW 2832   2.422   1.377   0.172 -0.0071 -0.0458  0.2361
  709SOL     OW 2833   1.760   1.640   0.234  0.1564  0.7558 -0.2111
  709SOL    HW1 2834   1.748   1.644   0.140 -1.4770 -0.0766  0.4137
  709SOL    HW2 2835   1.667   1.636   0.265 -2.3534  2.5705 -0.1009
  709SOL     MW 2836   1.746   1.640   0.226 -0.3903  0.8854 -0.1141
  710SOL     OW 2837   2.164   1.167   1.175  1.1526  0.1977  0.2576
  710SOL    HW1 2838   2.187   1.139   1.082  3.2216  3.8453  2.6054
  710SOL    HW2 2839   2.203   1.096   1.235 -0.2397  1.3780  1.1587
  710SOL     MW 2840   2.172   1.154   1.171  1.2419  0.8347  0.6862
  711SOL     OW 2841   2.405   0.161   1.769 -0.2679 -0.2832 -0.1870
  711SOL    HW1 2842   2.474   0.095   1.802  1.0539  0.7777  2.4375
  711SOL    HW2 2843   2.409   0.148   1.671 -2.8272 -1.0215 -1.2446
  711SOL     MW 2844   2.415   0.151   1.761 -0.4312 -0.2406  0.0198
  712SOL     OW 2845   1.899   0.613   3.097 -0.2231 -0.2431 -0.6502
  712SOL    HW1 2846   1.850   0.639   3.020  1.0940  1.7956  1.9669
  712SOL    HW2 2847   1.844   0.636   3.172 -1.6631  0.4973 -0.3199
  712SOL     MW 2848   1.885   0.620   3.097 -0.2393  0.1236 -0.2613
  713SOL     OW 2849   2.523   0.696   1.086 -0.0071 -0.0090 -0.0450
  713SOL    HW1 2850   2.550   0.611   1.124 -1.8571 -3.6713 -0.0893
  713SOL    HW2 2851   2.423   0.703   1.090 -0.2646  2.2884  1.6426
  713SOL     MW 2852   2.513   0.686   1.092 -0.2851 -0.1891  0.1718
  714SOL     OW 2853   2.229   0.175   1.967 -0.2165 -0.6836  0.0643
  714SOL    HW1 2854   2.263   0.118   2.037  1.9659 -1.5076  1.1551
  714SOL    HW2 2855   2.303   0.177   1.905  0.1675 -0.9240  0.9772
  714SOL     MW 2856   2.244   0.168   1.968  0.1221 -0.8240  0.3286
  715SOL     OW 2857   1.808   2.032   1.756  0.0254 -0.1542 -0.3271
  715SOL    HW1 2858   1.900   2.036   1.770 -1.3467 -0.4681  0.1505
  715SOL    HW2 2859   1.795   1.953   1.818  0.9666 -0.3734  2.3162
  715SOL     MW 2860   1.818   2.022   1.766 -0.0315 -0.2245  0.0847
  716SOL     OW 2861   2.393   0.571   0.667  0.6773  0.0543  0.0330
  716SOL    HW1 2862   2.423   0.480   0.636  2.3603 -1.3066 -1.2902
  716SOL    HW2 2863   2.352   0.609   0.583  1.3714  0.9670  2.1753
  716SOL     MW 2864   2.391   0.564   0.652  0.9909 -0.0049  0.1410
  717SOL     OW 2865   2.829   1.593   2.831  0.0009  0.5032 -0.4874
  717SOL    HW1 2866   2.911   1.577   2.870 -1.7121  3.3487 -2.1824
  717SOL    HW2 2867   2.784   1.660   2.882  3.0436 -0.3756 -2.0123
  717SOL     MW 2868   2.834   1.600   2.843  0.1763  0.7627 -0.9123
  718SOL     OW 2869   2.649   1.342   1.292 -0.1291 -0.0455 -0.7895
  718SOL    HW1 2870   2.617   1.371   1.375  0.8278 -1.8372  0.7186
  718SOL    HW2 2871   2.742   1.328   1.298 -1.5987 -0.4034  0.9207
  718SOL     MW 2872   2.657   1.344   1.304 -0.1967 -0.3291 -0.3649
  719SOL     OW 2873   2.209   1.302   0.592  0.3940  0.4242 -0.1309
  719SOL    HW1 2874   2.287   1.320   0.549 -0.1974 -1.5070 -0.4400
  719SOL    HW2 2875   2.176   1.361   0.659 -0.3921 -1.3721 -0.4503
  719SOL     MW 2876   2.215   1.312   0.595  0.2123 -0.0676 -0.2138
  720SOL     OW 2877   2.830   1.228   0.026  0.6502  0.5668  0.0650
  720SOL    HW1 2878   2.791   1.140   0.035 -0.7161  1.1764  1.8124
  720SOL    HW2 2879   2.783   1.284   0.089 -1.5011  1.8736 -0.9028
  720SOL     MW 2880   2.819   1.224   0.036  0.1861  0.8197  0.1679
  721SOL     OW 2881   2.483   0.865   1.362  0.6318 -0.2199  0.2857
  721SOL    HW1 2882   2.489   0.776   1.327  2.9745 -1.0400 -0.2763
  721SOL    HW2 2883   2.568   0.875   1.403  4.3785  0.0348 -0.1584
  721SOL     MW 2884   2.495   0.855   1.363  1.4353 -0.2945  0.1530
  722SOL     OW 2885   2.603   1.145   0.379 -0.4144 -0.2289  0.1913
  722SOL    HW1 2886   2.543   1.209   0.424  0.0449 -1.8359  1.3753
  722SOL    HW2 2887   2.656   1.101   0.446 -1.3405  3.6200  1.7096
  722SOL     MW 2888   2.602   1.148   0.394 -0.4760  0.0669  0.5478
  723SOL     OW 2889   2.286   1.356   1.566 -0.1537 -0.8728  0.0344
  723SOL    HW1 2890   2.270   1.359   1.471  1.3538 -1.1925 -0.5030
  723SOL    HW2 2891   2.215   1.419   1.588 -2.3788  2.5260  1.5830
  723SOL     MW 2892   2.274   1.365   1.557 -0.2484 -0.4665  0.1678
  724SOL     OW 2893   2.492   0.310   0.605  0.1115  0.2051 -0.1499
  724SOL    HW1 2894   2.476   0.294   0.699 -0.9130  2.1478  0.0407
  724SOL    HW2 2895   2.582   0.289   0.585 -0.7504  1.5433  0.9761
  724SOL     MW 2896   2.502   0.305   0.615 -0.1374  0.6380  0.0238
  725SOL     OW 2897   2.628   0.413   1.247 -0.0260  0.2382  0.4569
  725SOL    HW1 2898   2.695   0.479   1.279 -2.6478  1.7445 -0.9395
  725SOL    HW2 2899   2.623   0.348   1.320  0.3770  1.7096  0.2349
  725SOL     MW 2900   2.636   0.413   1.261 -0.3188  0.6311  0.2434
  726SOL     OW 2901   2.502   2.496   0.459 -0.1760  0.3366 -0.2907
  726SOL    HW1 2902   2.498   2.577   0.412 -1.4532  0.2840 -0.2440
  726SOL    HW2 2903   2.509   2.507   0.555  0.5926 -0.4431  1.4936
  726SOL     MW 2904   2.503   2.508   0.465 -0.2431  0.2268 -0.0491
  727SOL     OW 2905   2.859   0.298   1.723 -0.1707 -0.1612 -0.0190
  727SOL    HW1 2906   2.795   0.298   1.655  0.5306  0.6869 -0.8919
  727SOL    HW2 2907   2.810   0.261   1.802  0.6774 -0.7970 -0.8688
  727SOL     MW 2908   2.844   0.293   1.725  0.0337 -0.1332 -0.2463
  728SOL     OW 2909   2.846   1.185   2.849  0.1036 -0.1530 -0.0144
  728SOL    HW1 2910   2.874   1.242   2.772  0.1042  0.0645 -0.9520
  728SOL    HW2 2911   2.849   1.243   2.924 -2.4536 -0.0882 -1.7914
  728SOL     MW 2912   2.850   1.200   2.849 -0.2337 -0.1158 -0.3726
  729SOL     OW 2913   2.502   1.502   1.109  0.1341  0.3312  0.3734
  729SOL    HW1 2914   2.552   1.421   1.134  3.2352  0.9959  0.9068
  729SOL    HW2 2915   2.479   1.492   1.014 -0.5607 -0.6004  0.0758
  729SOL     MW 2916   2.505   1.490   1.100  0.4516  0.2960  0.4045
  730SOL     OW 2917   2.214   1.175   0.175  0.1927 -0.6328 -0.0070
  730SOL    HW1 2918   2.274   1.110   0.200 -1.7577  0.3912  1.0886
  730SOL    HW2 2919   2.262   1.257   0.182  2.4501 -0.6768 -0.3752
  730SOL     MW 2920   2.228   1.178   0.179  0.2332 -0.5035  0.0889
  731SOL     OW 2921   2.739   2.071   2.861  0.1078 -0.3248 -0.0597
  731SOL    HW1 2922   2.676   2.033   2.792 -1.0781 -0.5345  0.4625
  731SOL    HW2 2923   2.828   2.051   2.827  2.3913  1.3768  3.2592
  731SOL     MW 2924   2.742   2.063   2.848  0.2526 -0.1279  0.4471
  732SOL     OW 2925   2.251   0.988   1.364  0.3839  0.2200 -0.1737
  732SOL    HW1 2926   2.210   0.979   1.454 -0.6685 -0.8210  1.1769
  732SOL    HW2 2927   2.338   0.946   1.379 -2.6420 -0.5946 -1.3196
  732SOL     MW 2928   2.257   0.981   1.378 -0.1542 -0.0248 -0.1467
  733SOL     OW 2929   2.376   2.809   3.017  0.2735 -1.1161 -0.1169
  733SOL    HW1 2930   2.298   2.846   3.064  0.1971 -0.4271 -1.3246
  733SOL    HW2 2931   2.356   2.712   3.011  0.5165 -0.2270  0.2775
  733SOL     MW 2932   2.363   2.801   3.022  0.2955 -0.9079 -0.2242
  734SOL     OW 2933   1.579   0.259   2.560 -0.8874  0.1240 -0.1651
  734SOL    HW1 2934   1.537   0.211   2.633 -0.7141  1.7814  1.7178
  734SOL    HW2 2935   1.532   0.223   2.485 -0.8260 -3.6674  0.4006
  734SOL     MW 2936   1.568   0.248   2.560 -0.8564 -0.1576  0.1580
  735SOL     OW 2937   2.977   0.950   2.684 -0.4137  0.2607  0.6946
  735SOL    HW1 2938   2.961   0.856   2.658 -1.3895 -1.7657 -0.0592
  735SOL    HW2 2939   3.020   0.946   2.772  0.8329  1.0438 -0.3310
  735SOL     MW 2940   2.981   0.937   2.692 -0.3780  0.0967  0.4598
  736SOL     OW 2941   0.137   0.579   2.590  0.0739  0.5322 -0.3143
  736SOL    HW1 2942   0.145   0.636   2.511 -1.1878  0.0904 -0.6934
  736SOL    HW2 2943   0.162   0.488   2.560 -1.5174 -0.1198  0.7884
  736SOL     MW 2944   0.141   0.574   2.576 -0.3025  0.3879 -0.2188
  737SOL     OW 2945   2.983   0.677   2.629  0.2803 -0.6545  0.2470
  737SOL    HW1 2946   2.924   0.633   2.558 -0.8889 -2.1037 -1.4444
  737SOL    HW2 2947   3.065   0.634   2.624 -0.3462 -0.5798  2.6646
  737SOL     MW 2948   2.986   0.666   2.619  0.0434 -0.8358  0.3428
  738SOL     OW 2949   0.136   0.495   1.877 -0.3939 -0.4792 -0.1184
  738SOL    HW1 2950   0.226   0.536   1.872  0.1971  0.2113 -1.3198
  738SOL    HW2 2951   0.143   0.437   1.804 -1.3641 -1.4184  0.4007
  738SOL     MW 2952   0.149   0.493   1.867 -0.4439 -0.5120 -0.2085
  739SOL     OW 2953   2.481   1.011   2.086 -0.1634 -0.1676  0.5347
  739SOL    HW1 2954   2.423   0.972   2.021  0.5396  2.6889  2.6699
  739SOL    HW2 2955   2.560   0.958   2.098  0.8238 -1.1297 -2.4740
  739SOL     MW 2956   2.484   0.999   2.079  0.0596  0.0824  0.4194
  740SOL     OW 2957   0.101   1.830   2.930 -0.0088 -0.4335  0.1614
  740SOL    HW1 2958   0.076   1.734   2.946  0.2032 -0.5577  0.8504
  740SOL    HW2 2959   0.188   1.849   2.966  0.1623 -2.3277 -1.9715
  740SOL     MW 2960   0.109   1.820   2.937  0.0417 -0.6998 -0.0291
  741SOL     OW 2961   2.234   1.158   2.727 -0.6276 -0.9241 -0.5226
  741SOL    HW1 2962   2.190   1.228   2.690  2.0793 -2.8868 -1.9142
  741SOL    HW2 2963   2.212   1.167   2.822 -2.9133 -0.0733 -0.2019
  741SOL     MW 2964   2.225   1.168   2.735 -0.5720 -1.0708 -0.6639
  742SOL     OW 2965   1.680   1.209   2.245 -0.7733  0.3423  0.3781
  742SOL    HW1 2966   1.595   1.163   2.233  0.5003 -1.6445  1.1206
  742SOL    HW2 2967   1.697   1.176   2.336 -2.0455  0.2542  0.2983
  742SOL     MW 2968   1.671   1.198   2.256 -0.7731  0.0685  0.4655
  743SOL     OW 2969   2.483   1.235   2.690 -0.2989  0.0172  0.0620
  743SOL    HW1 2970   2.389   1.218   2.692  2.6782 -1.1208  1.0932
  743SOL    HW2 2971   2.517   1.162   2.735  0.8117  1.1231  1.1469
  743SOL     MW 2972   2.475   1.223   2.696  0.2404  0.0130  0.3412
  744SOL     OW 2973   2.715   0.893   1.857 -0.6814 -0.7585 -0.0974
  744SOL    HW1 2974   2.671   0.980   1.860  0.6643 -0.4686  2.3466
  744SOL    HW2 2975   2.701   0.853   1.771 -1.9590  0.2046  0.4433
  744SOL     MW 2976   2.707   0.899   1.846 -0.6724 -0.5932  0.2964
  745SOL     OW 2977   1.691   0.503   2.450  0.2499  0.1252  0.1302
  745SOL    HW1 2978   1.682   0.508   2.349 -0.3426 -3.3212 -0.9953
  745SOL    HW2 2979   1.642   0.427   2.484 -0.9126  1.2548 -0.1114
  745SOL     MW 2980   1.683   0.494   2.441  0.0183 -0.1805 -0.0502
  746SOL     OW 2981   1.604   1.425   1.647  0.0121  0.3980 -0.1352
  746SOL    HW1 2982   1.696   1.434   1.638 -1.5459 -0.8422  1.9639
  746SOL    HW2 2983   1.600   1.441   1.739  0.6956  1.4235 -2.3668
  746SOL     MW 2984   1.615   1.428   1.658 -0.1033  0.3697 -0.1526
  747SOL     OW 2985   2.619   1.136   1.818  0.7739 -0.3994  0.0176
  747SOL    HW1 2986   2.539   1.127   1.760 -0.6171  1.1799 -1.4658
  747SOL    HW2 2987   2.585   1.183   1.897 -0.1396 -0.1461 -0.5933
  747SOL     MW 2988   2.604   1.141   1.821  0.4698 -0.1576 -0.2587
  748SOL     OW 2989   0.057   0.075   1.892 -0.2747 -0.0820  0.0081
  748SOL    HW1 2990   0.148   0.103   1.884 -1.2456 -3.5897  2.0777
  748SOL    HW2 2991   0.021   0.122   1.975 -0.8571  1.8315  2.3247
  748SOL     MW 2992   0.064   0.085   1.902 -0.4796 -0.2923  0.5868
  749SOL     OW 2993   2.495   0.599   2.733  0.4618  0.2188  0.2517
  749SOL    HW1 2994   2.523   0.681   2.693  1.3317 -0.7093  1.2840
  749SOL    HW2 2995   2.479   0.619   2.829  1.3975  0.0072  0.0566
  749SOL     MW 2996   2.497   0.612   2.740  0.7000  0.0684  0.3622
  750SOL     OW 2997   2.057   3.055   1.996 -0.3659  0.4660  0.2639
  750SOL    HW1 2998   2.077   3.147   1.983 -0.4835  1.4196  0.4028
  750SOL    HW2 2999   2.131   2.992   1.973 -1.4464  0.9420 -1.7810
  750SOL     MW 3000   2.070   3.059   1.991 -0.5240  0.6546  0.0124
  751SOL     OW 3001   0.169   0.326   2.464  0.8510 -0.7087 -0.4974
  751SOL    HW1 3002   0.140   0.249   2.514  0.8904 -1.3975  0.5146
  751SOL    HW2 3003   0.166   0.290   2.376  2.2173  0.1442  0.8585
  751SOL     MW 3004   0.165   0.311   2.459  1.0364 -0.6870 -0.1850
  752SOL     OW 3005   2.122   0.779   2.741  0.1058  0.7281 -0.0936
  752SOL    HW1 3006   2.192   0.831   2.700  0.8500  1.9376  0.7378
  752SOL    HW2 3007   2.134   0.799   2.836  2.2684 -0.4572  0.9623
  752SOL     MW 3008   2.133   0.788   2.748  0.4893  0.7313  0.1554
  753SOL     OW 3009   2.891   0.205   2.391 -0.5386 -0.2000 -0.1032
  753SOL    HW1 3010   2.846   0.121   2.376 -1.7609 -1.6539 -0.1281
  753SOL    HW2 3011   2.832   0.273   2.357 -2.1465 -3.1471 -0.5293
  753SOL     MW 3012   2.877   0.203   2.384 -0.9120 -0.7807 -0.1627
  754SOL     OW 3013   2.225   2.990   2.594 -0.1701 -0.0436 -0.2259
  754SOL    HW1 3014   2.250   2.971   2.501  5.1666  0.3227 -0.3136
  754SOL    HW2 3015   2.289   2.938   2.653  1.0006 -0.7099 -0.3526
  754SOL     MW 3016   2.236   2.980   2.590  0.6885 -0.0832 -0.2542
  755SOL     OW 3017   2.703   1.518   2.456  0.4840  0.4515  0.2888
  755SOL    HW1 3018   2.736   1.433   2.494  1.6946  1.4728  2.2225
  755SOL    HW2 3019   2.754   1.588   2.506 -1.1684 -1.3499  1.8603
  755SOL     MW 3020   2.714   1.516   2.468  0.4257  0.3486  0.7512
  756SOL     OW 3021   2.215   1.218   2.988  0.4383  0.1795  0.2275
  756SOL    HW1 3022   2.279   1.290   2.983 -1.2919 -1.0101 -0.1064
  756SOL    HW2 3023   2.253   1.159   3.058 -0.1775  1.1459 -1.1742
  756SOL     MW 3024   2.229   1.220   2.996  0.1288  0.1500 -0.0015
  757SOL     OW 3025   2.153   0.885   1.592 -0.0071 -0.1427  0.2192
  757SOL    HW1 3026   2.199   0.807   1.560 -0.0256  0.8999 -0.5252
  757SOL    HW2 3027   2.060   0.873   1.550 -1.6536  0.2848 -1.4202
  757SOL     MW 3028   2.147   0.873   1.582 -0.2268  0.0513 -0.0953
  758SOL     OW 3029   2.232   1.849   2.619 -0.5038  0.5194 -0.5314
  758SOL    HW1 3030   2.203   1.842   2.532  1.7865  0.8226  2.9172
  758SOL    HW2 3031   2.304   1.786   2.631 -1.6854 -1.0531 -2.1891
  758SOL     MW 3032   2.238   1.840   2.609 -0.3575  0.3519 -0.2951
  759SOL     OW 3033   1.557   1.263   2.687  0.1207 -0.0541 -0.2877
  759SOL    HW1 3034   1.582   1.323   2.609  0.2031 -0.8319 -1.3038
  759SOL    HW2 3035   1.599   1.308   2.764  2.2975 -1.5769 -0.2974
  759SOL     MW 3036   1.566   1.277   2.686  0.4188 -0.3576 -0.4230
  760SOL     OW 3037   2.523   1.977   2.733 -0.4972 -0.3949 -0.0114
  760SOL    HW1 3038   2.501   1.892   2.687 -1.3344 -1.8691  2.0246
  760SOL    HW2 3039   2.546   2.036   2.661  0.1430  2.0866  3.3572
  760SOL     MW 3040   2.523   1.973   2.717 -0.5232 -0.2620  0.7017
  761SOL     OW 3041   2.158   0.370   2.507 -0.1427  0.3391  0.4668
  761SOL    HW1 3042   2.098   0.302   2.523 -0.2221  3.1104 -0.8358
  761SOL    HW2 3043   2.177   0.404   2.601  0.8142  1.4213  0.4622
  761SOL     MW 3044   2.153   0.366   2.522 -0.0269  0.8475  0.2943
  762SOL     OW 3045   3.042   0.179   2.112 -1.1922  0.4452  0.6223
  762SOL    HW1 3046   3.029   0.119   2.190 -3.0449  1.4951 -0.8060
  762SOL    HW2 3047   3.022   0.263   2.162  1.6607 -1.6183  2.6129
  762SOL     MW 3048   3.038   0.183   2.129 -1.0602  0.3115  0.6965
  763SOL     OW 3049   2.322   1.038   2.345 -0.4320 -0.1301  0.1542
  763SOL    HW1 3050   2.363   0.991   2.270  0.2493  2.0525 -1.6890
  763SOL    HW2 3051   2.383   1.107   2.380  1.9467  1.4516  4.3910
  763SOL     MW 3052   2.336   1.041   2.339 -0.0283  0.3666  0.4700
  764SOL     OW 3053   0.486   0.237   2.795 -0.6908  0.2974 -0.0318
  764SOL    HW1 3054   0.397   0.193   2.787 -1.1158 -1.8502  1.0356
  764SOL    HW2 3055   0.482   0.324   2.834 -0.5382  0.2971  0.7456
  764SOL     MW 3056   0.474   0.242   2.799 -0.7267  0.0140  0.2116
  765SOL     OW 3057   2.732   3.067   2.350  0.2190 -0.1551  0.1577
  765SOL    HW1 3058   2.671   3.038   2.280  2.2835 -0.0533  0.6804
  765SOL    HW2 3059   2.814   3.019   2.323 -0.7517 -1.4253  1.4353
  765SOL     MW 3060   2.735   3.057   2.337  0.3633 -0.3092  0.3952
  766SOL     OW 3061   1.865   2.966   2.162  0.5130  0.1223  0.1894
  766SOL    HW1 3062   1.928   3.007   2.096  0.9516  0.5921 -2.1441
  766SOL    HW2 3063   1.791   2.926   2.111  0.3936 -1.9527  1.4539
  766SOL     MW 3064   1.863   2.966   2.147  0.5551 -0.0895  0.0483
  767SOL     OW 3065   2.690   0.602   2.093  0.0817 -0.3609  0.0826
  767SOL    HW1 3066   2.726   0.685   2.128  1.3319  0.5235 -0.2476
  767SOL    HW2 3067   2.596   0.624   2.065 -0.6868 -2.1420  0.4217
  767SOL     MW 3068   2.682   0.616   2.094  0.1453 -0.4792  0.0837
  768SOL     OW 3069   0.002   1.590   2.945  0.1747 -0.7628  0.4675
  768SOL    HW1 3070  -0.007   1.554   3.042 -0.7903  3.0608  0.8232
  768SOL    HW2 3071   0.048   1.522   2.887 -3.0146  2.1237  2.3699
  768SOL     MW 3072   0.007   1.576   2.950 -0.3734  0.1225  0.7654
  769SOL     OW 3073   2.453   0.685   2.349  0.3372 -0.0483  0.5009
  769SOL    HW1 3074   2.403   0.626   2.397 -1.4905  1.1102 -0.6997
  769SOL    HW2 3075   2.404   0.725   2.277  2.5686  1.1721 -0.9011
  769SOL     MW 3076   2.440   0.683   2.346  0.3904  0.2656  0.1575
  770SOL     OW 3077   0.036   1.631   2.588  0.0365  0.6659 -0.6691
  770SOL    HW1 3078  -0.036   1.688   2.586  2.4178 -3.2501  0.1621
  770SOL    HW2 3079   0.000   1.549   2.553 -6.0185 -0.2159  1.6714
  770SOL     MW 3080   0.022   1.628   2.583 -0.4482  0.0329 -0.2506
  771SOL     OW 3081   3.057   0.616   2.064 -0.1473 -0.4866  0.5620
  771SOL    HW1 3082   2.998   0.583   1.995 -0.4407 -1.7514 -0.2668
  771SOL    HW2 3083   3.141   0.587   2.015  1.1647 -3.1894 -1.1664
  771SOL     MW 3084   3.060   0.608   2.049 -0.0129 -1.0101  0.2246
  772SOL     OW 3085   0.063   3.098   2.304 -0.0346  0.5332 -0.3453
  772SOL    HW1 3086  -0.000   3.030   2.306 -0.3076 -0.3277 -0.1035
  772SOL    HW2 3087   0.139   3.058   2.263  1.4555 -0.6117  0.6499
  772SOL     MW 3088   0.065   3.084   2.299  0.1260  0.2686 -0.1821
  773SOL     OW 3089   2.401   2.857   2.754  0.4532  0.0644 -0.2466
  773SOL    HW1 3090   2.430   2.774   2.710  1.5569 -2.6386  2.6718
  773SOL    HW2 3091   2.379   2.831   2.842  0.2713  2.4528  1.8216
  773SOL     MW 3092   2.402   2.843   2.760  0.5748  0.0229  0.4114
  774SOL     OW 3093   2.347   1.138   1.739 -0.1661  0.7265 -0.3287
  774SOL    HW1 3094   2.325   1.207   1.673 -0.1803  1.9725 -1.0308
  774SOL    HW2 3095   2.320   1.061   1.690 -0.5004  2.3305  1.1686
  774SOL     MW 3096   2.341   1.137   1.724 -0.2121  1.1025 -0.2238
  775SOL     OW 3097   2.323   2.878   2.326  0.2152  0.0518  0.0744
  775SOL    HW1 3098   2.356   2.939   2.265  1.3794 -0.5064 -1.1227
  775SOL    HW2 3099   2.363   2.796   2.294 -0.5441 -0.3289 -0.6384
  775SOL     MW 3100   2.333   2.875   2.314  0.2686 -0.0721 -0.1776
  776SOL     OW 3101   0.029   1.505   0.099 -0.3036  0.0330 -0.4047
  776SOL    HW1 3102   0.122   1.484   0.104 -0.2176  1.9800 -2.0841
  776SOL    HW2 3103  -0.006   1.413   0.103 -1.9513  1.9768 -0.1726
  776SOL     MW 3104   0.037   1.490   0.100 -0.5097  0.5463 -0.5957
  777SOL     OW 3105   2.977   1.054   1.742  0.1834 -0.8650 -0.0089
  777SOL    HW1 3106   2.895   1.096   1.720 -1.0347  1.7219  3.3467
  777SOL    HW2 3107   2.954   1.018   1.827 -0.8181 -0.1708 -0.9748
  777SOL     MW 3108   2.963   1.055   1.751 -0.1095 -0.4321  0.3064
  778SOL     OW 3109   2.888   0.458   2.771  0.0911 -1.0432 -0.2398
  778SOL    HW1 3110   2.843   0.497   2.852  1.0262  0.6076  0.1611
  778SOL    HW2 3111   2.914   0.535   2.720 -2.0657 -1.4702 -0.7199
  778SOL     MW 3112   2.886   0.474   2.775 -0.0701 -0.8817 -0.2502
  779SOL     OW 3113   2.137   0.574   2.317 -0.4491  0.0692 -0.3361
  779SOL    HW1 3114   2.066   0.618   2.350 -0.5524 -0.9261  2.6754
  779SOL    HW2 3115   2.154   0.508   2.382 -0.6212  1.6602 -2.9124
  779SOL     MW 3116   2.130   0.571   2.330 -0.4854  0.1478 -0.2787
  780SOL     OW 3117   0.232   0.138   2.818 -0.3224 -0.0747  0.6085
  780SOL    HW1 3118   0.169   0.190   2.872 -2.4867 -0.4606 -0.4901
  780SOL    HW2 3119   0.185   0.135   2.733  0.2516  1.2259 -2.0699
  780SOL     MW 3120   0.218   0.144   2.814 -0.5322  0.0460  0.1101
  781SOL     OW 3121   3.068   1.317   2.519  0.2736  0.5078 -0.5068
  781SOL    HW1 3122   3.076   1.352   2.432  1.5566  2.1816  1.4869
  781SOL    HW2 3123   3.101   1.229   2.507 -1.8222  1.9141  1.8629
  781SOL     MW 3124   3.074   1.310   2.506  0.1664  0.9142  0.0689
  782SOL     OW 3125   0.531   1.639   3.047  0.0345 -0.0243  0.1537
  782SOL    HW1 3126   0.453   1.697   3.039 -0.3416  0.3527 -0.4213
  782SOL    HW2 3127   0.534   1.573   3.124 -1.2177 -2.4577  3.5082
  782SOL     MW 3128   0.521   1.638   3.056 -0.1803 -0.2956  0.5204
  783SOL     OW 3129   2.794   0.550   2.478 -0.4200 -0.0705  0.1867
  783SOL    HW1 3130   2.774   0.536   2.388  1.7043  1.6235 -0.8259
  783SOL    HW2 3131   2.732   0.498   2.526  0.8166  2.2842  0.8062
  783SOL     MW 3132   2.783   0.542   2.472  0.0235  0.4637  0.1348
  784SOL     OW 3133   0.267   0.907   2.912 -0.4008  0.3154  0.5571
  784SOL    HW1 3134   0.271   0.950   2.989  0.1277 -0.5240 -0.4806
  784SOL    HW2 3135   0.225   0.959   2.839 -0.2406  0.0684  1.3361
  784SOL     MW 3136   0.262   0.919   2.912 -0.3100  0.1721  0.5230
  785SOL     OW 3137   0.374   0.484   2.144 -0.2612  0.1301 -0.2804
  785SOL    HW1 3138   0.375   0.504   2.052 -0.3729  0.4045  1.6969
  785SOL    HW2 3139   0.317   0.408   2.145  3.3897  0.8056  1.1591
  785SOL     MW 3140   0.366   0.477   2.132  0.2058  0.2555  0.1704
  786SOL     OW 3141   1.986   0.470   2.860 -0.6621  0.1723  0.4623
  786SOL    HW1 3142   1.938   0.480   2.938  0.2038  2.0102 -2.2541
  786SOL    HW2 3143   2.083   0.457   2.873  1.2825  1.2140 -1.9325
  786SOL     MW 3144   1.992   0.469   2.872 -0.2913  0.5522 -0.2121
  787SOL     OW 3145   2.398   0.163   2.888  0.2049  0.7052  0.3734
  787SOL    HW1 3146   2.462   0.105   2.841  1.6872 -3.3635 -0.7871
  787SOL    HW2 3147   2.459   0.228   2.921 -0.6448 -0.9623 -0.7101
  787SOL     MW 3148   2.415   0.164   2.886  0.2884 -0.0516  0.0773
  788SOL     OW 3149   2.962   2.931   2.269  0.2962 -0.1119  0.4187
  788SOL    HW1 3150   2.971   2.902   2.176 -1.5631 -0.9059 -2.8096
  788SOL    HW2 3151   2.990   2.855   2.321  1.8091 -0.3745  0.1772
  788SOL     MW 3152   2.967   2.918   2.263  0.2505 -0.2513 -0.0391
  789SOL     OW 3153   0.056   0.231   2.983 -0.2349  0.1649  0.2609
  789SOL    HW1 3154  -0.018   0.188   3.025 -2.1096  0.2855  1.3355
  789SOL    HW2 3155   0.096   0.283   3.055 -1.5672 -2.3514  1.2555
  789SOL     MW 3156   0.052   0.232   2.998 -0.6581 -0.1512  0.5339
  790SOL     OW 3157   3.106   1.036   2.453 -0.5480  0.1652 -0.3149
  790SOL    HW1 3158   3.042   0.996   2.507  2.4520  0.6148 -1.1268
  790SOL    HW2 3159   3.059   1.052   2.371 -0.2273  2.4378 -0.4699
  790SOL     MW 3160   3.091   1.033   2.449 -0.1099  0.5243 -0.4425
  791SOL     OW 3161   2.634   0.384   2.653 -0.1388  0.3705 -0.2110
  791SOL    HW1 3162   2.589   0.464   2.674  3.4241  3.5163 -0.3556
  791SOL    HW2 3163   2.713   0.393   2.703 -1.3894 -0.4688  0.7500
  791SOL     MW 3164   2.638   0.396   2.662  0.1663  0.6748 -0.1033
  792SOL     OW 3165   2.368   0.247   2.399  0.1913 -0.2123 -0.1383
  792SOL    HW1 3166   2.290   0.287   2.452  0.9145  1.9532 -0.2510
  792SOL    HW2 3167   2.403   0.173   2.455 -1.9356 -0.1341  0.2964
  792SOL     MW 3168   2.362   0.242   2.413  0.0061  0.0838 -0.0958
  793SOL     OW 3169   1.782   0.992   1.876 -0.0317  0.0349 -0.2488
  793SOL    HW1 3170   1.752   1.037   1.804 -1.4541 -1.8080  3.6953
  793SOL    HW2 3171   1.864   0.946   1.851 -0.0977  1.8307 -2.2250
  793SOL     MW 3172   1.789   0.992   1.863 -0.2281  0.0286  0.0109
  794SOL     OW 3173   1.434   2.281   0.123 -0.2230  0.4163  0.0034
  794SOL    HW1 3174   1.476   2.354   0.078  3.3071  0.1804  0.6375
  794SOL    HW2 3175   1.438   2.293   0.217 -0.1271 -1.9741 -0.4628
  794SOL     MW 3176   1.440   2.292   0.130  0.2554  0.0698  0.0255
  795SOL     OW 3177   2.310   0.927   2.609  0.8124  0.3111 -0.0781
  795SOL    HW1 3178   2.290   1.004   2.659 -1.3897  0.2048 -1.1282
  795SOL    HW2 3179   2.295   0.946   2.514  0.0084 -0.9638 -1.3019
  795SOL     MW 3180   2.305   0.939   2.603  0.4158  0.1289 -0.3781
  796SOL     OW 3181   0.327   0.675   2.766 -0.2754 -0.3798  0.1189
  796SOL    HW1 3182   0.303   0.751   2.822 -2.3496  0.7113 -1.7812
  796SOL    HW2 3183   0.254   0.644   2.713  0.9550  1.0455  1.2632
  796SOL     MW 3184   0.314   0.681   2.766 -0.3868 -0.0478  0.0192
  797SOL     OW 3185   2.601   0.122   2.566  0.0159 -0.4004  0.2681
  797SOL    HW1 3186   2.602   0.219   2.574 -0.2795  3.3727 -1.2452
  797SOL    HW2 3187   2.636   0.100   2.478  1.3112 -0.3830 -0.1582
  797SOL     MW 3188   2.606   0.132   2.555  0.1478  0.0997  0.0122
  798SOL     OW 3189   2.351   0.054   2.197  0.0974  0.0694 -0.3113
  798SOL    HW1 3190   2.334   0.124   2.263  2.2054  1.0327 -0.5577
  798SOL    HW2 3191   2.447   0.057   2.176  2.1636  1.4152 -0.6038
  798SOL     MW 3192   2.361   0.063   2.203  0.6481  0.3741 -0.3824
  799SOL     OW 3193   2.484   2.928   0.201 -0.1331 -0.1525 -0.0418
  799SOL    HW1 3194   2.524   2.868   0.139 -1.0237  1.8566 -1.4669
  799SOL    HW2 3195   2.432   2.988   0.143  1.3680  0.1699  1.0222
  799SOL     MW 3196   2.482   2.928   0.185 -0.0525  0.1551 -0.0895
  800SOL     OW 3197   1.904   3.097   1.768  0.0991  0.0130  0.0815
  800SOL    HW1 3198   1.843   3.024   1.769 -0.8425  0.0635  0.0559
  800SOL    HW2 3199   1.962   3.081   1.846 -0.8826 -0.2022  1.6787
  800SOL     MW 3200   1.904   3.085   1.778 -0.1547 -0.0087  0.2889
  801SOL     OW 3201   2.797   1.300   2.562 -0.1677  0.0147 -0.1045
  801SOL    HW1 3202   2.773   1.203   2.563 -0.9606  0.0671 -1.7032
  801SOL    HW2 3203   2.892   1.306   2.552  0.7923 -1.1725 -0.3762
  801SOL     MW 3204   2.806   1.288   2.561 -0.1457 -0.1350 -0.3513
  802SOL     OW 3205   2.560   1.519   2.769 -0.1955  0.3192 -0.4539
  802SOL    HW1 3206   2.537   1.429   2.756  1.2386 -0.1162  1.6217
  802SOL    HW2 3207   2.658   1.532   2.760  0.8065 -0.5209  0.4025
  802SOL     MW 3208   2.570   1.509   2.766  0.1259  0.1509 -0.0670
  803SOL     OW 3209   2.312   1.299   1.958  0.2161 -0.1980  0.1845
  803SOL    HW1 3210   2.253   1.262   2.018 -0.5073  1.1258 -0.9114
  803SOL    HW2 3211   2.331   1.225   1.893 -1.5964  0.5119 -3.2672
  803SOL     MW 3212   2.307   1.284   1.957 -0.1185  0.0703 -0.4155
  804SOL     OW 3213   2.349   0.049   0.028  0.0407 -0.1643  0.0002
  804SOL    HW1 3214   2.263   0.095   0.021  0.5790  0.4174 -1.0085
  804SOL    HW2 3215   2.392   0.079  -0.052  1.6381  0.1454 -1.2588
  804SOL     MW 3216   2.343   0.059   0.016  0.3225 -0.0467 -0.2990
  805SOL     OW 3217   2.774   1.026   2.543  0.2253 -0.4831  0.0467
  805SOL    HW1 3218   2.691   0.974   2.558 -0.7105  1.6356  0.8302
  805SOL    HW2 3219   2.844   0.999   2.611  1.9612 -0.1801 -1.8977
  805SOL     MW 3220   2.773   1.015   2.554  0.3308 -0.1636 -0.1065
  806SOL     OW 3221   2.667   0.357   2.265  0.5472 -0.3724 -0.7070
  806SOL    HW1 3222   2.580   0.332   2.297 -1.2704  1.8839  0.2820
  806SOL    HW2 3223   2.660   0.438   2.210 -1.5531  1.1372  1.2515
  806SOL     MW 3224   2.654   0.364   2.262  0.0303  0.1245 -0.3181
  807SOL     OW 3225   0.013   1.136   2.024  0.7649  0.3425 -0.0467
  807SOL    HW1 3226   0.075   1.061   2.027  2.9252  1.3464  1.3289
  807SOL    HW2 3227  -0.056   1.115   2.087  2.0814 -1.8362  2.6275
  807SOL     MW 3228   0.012   1.123   2.033  1.2236  0.1875  0.4876
  808SOL     OW 3229   2.568   3.079   2.796  0.2877  0.2717 -0.0411
  808SOL    HW1 3230   2.498   3.019   2.766 -1.8043  0.0221 -1.5810
  808SOL    HW2 3231   2.599   3.119   2.715 -2.6940  1.6398  1.3792
  808SOL     MW 3232   2.563   3.077   2.781 -0.3818  0.4193 -0.0569
  809SOL     OW 3233   2.478   1.262   2.418  0.3733 -0.0558 -0.0832
  809SOL    HW1 3234   2.514   1.261   2.510 -0.4439  0.7351  0.3138
  809SOL    HW2 3235   2.552   1.227   2.374  0.0868 -2.6285  1.0248
  809SOL     MW 3236   2.493   1.257   2.424  0.2277 -0.2909  0.1154
  810SOL     OW 3237   2.160   1.186   2.181 -0.0914 -0.4135  0.0831
  810SOL    HW1 3238   2.194   1.114   2.240 -0.8029 -1.7616 -1.3748
  810SOL    HW2 3239   2.069   1.164   2.149 -2.7759  3.0621  0.8272
  810SOL     MW 3240   2.153   1.174   2.185 -0.5395 -0.1328 -0.0111
  811SOL     OW 3241   1.489   0.093   2.242 -0.7994  0.7128  0.4343
  811SOL    HW1 3242   1.549   0.049   2.300  0.9972 -0.6289 -2.6249
  811SOL    HW2 3243   1.499   0.048   2.151 -0.8659 -3.6509 -0.8535
  811SOL     MW 3244   1.498   0.081   2.237 -0.5711 -0.0400 -0.1392
  812SOL     OW 3245   1.393   2.764   2.089  0.1582  0.2697  0.4097
  812SOL    HW1 3246   1.490   2.782   2.103  0.8426  1.7444  2.4466
  812SOL    HW2 3247   1.364   2.726   2.172  0.9558  0.8907  1.1762
  812SOL     MW 3248   1.402   2.761   2.102  0.3538  0.5462  0.7796
  813SOL     OW 3249   1.845   0.763   2.173  0.6790  0.2109 -0.5079
  813SOL    HW1 3250   1.799   0.680   2.184  2.7907 -0.1237 -0.4222
  813SOL    HW2 3251   1.905   0.770   2.242 -0.9445 -0.2846  0.8663
  813SOL     MW 3252   1.847   0.753   2.184  0.7434  0.1014 -0.3153
  814SOL     OW 3253   2.799   1.216   1.617  0.2351  0.3510 -0.0842
  814SOL    HW1 3254   2.724   1.194   1.681  0.6568  2.8503  1.1133
  814SOL    HW2 3255   2.784   1.156   1.541  0.5613 -1.8582  2.2101
  814SOL     MW 3256   2.787   1.205   1.615  0.3338  0.3893  0.3765
  815SOL     OW 3257   2.465   1.633   2.365  0.0014  0.4099 -0.4195
  815SOL    HW1 3258   2.408   1.581   2.319  1.6757  1.6382 -0.7959
  815SOL    HW2 3259   2.557   1.602   2.363 -2.5460 -0.4675 -1.3337
  815SOL     MW 3260   2.470   1.622   2.359 -0.1138  0.4562 -0.5898
  816SOL     OW 3261   0.664   0.705   2.713  0.6181  0.2161 -0.0227
  816SOL    HW1 3262   0.685   0.640   2.779 -2.4653  2.9269 -0.5380
  816SOL    HW2 3263   0.598   0.650   2.658  1.1419 -0.0546 -1.7153
  816SOL     MW 3264   0.658   0.689   2.715  0.2804  0.5381 -0.3140
  817SOL     OW 3265   3.030   1.154   1.380  0.0233 -0.6006 -0.5364
  817SOL    HW1 3266   3.091   1.152   1.454 -2.3073  2.8291  0.3982
  817SOL    HW2 3267   3.011   1.246   1.366  0.6573  1.3254  3.4667
  817SOL     MW 3268   3.036   1.166   1.388 -0.2005  0.1060  0.1151
  818SOL     OW 3269   1.919   0.978   2.681 -0.2024 -0.2865 -0.1674
  818SOL    HW1 3270   1.964   1.029   2.616 -1.7201 -0.2543  0.9158
  818SOL    HW2 3271   1.975   0.906   2.708 -2.3026 -1.1533  0.5021
  818SOL     MW 3272   1.933   0.975   2.676 -0.6798 -0.3966  0.0638
  819SOL     OW 3273   1.831   0.272   2.365  0.2134  0.1498 -0.5325
  819SOL    HW1 3274   1.794   0.356   2.381 -0.8060 -1.3722 -2.1641
  819SOL    HW2 3275   1.875   0.253   2.452  3.1151  3.9125 -0.3284
  819SOL     MW 3276   1.832   0.281   2.379  0.4618  0.4455 -0.7209
  820SOL     OW 3277   2.462   1.720   2.619  0.5424  0.2507  0.2616
  820SOL    HW1 3278   2.507   1.642   2.654  1.1899 -0.7651  0.2242
  820SOL    HW2 3279   2.452   1.709   2.521  1.3198 -0.6508 -2.9665
  820SOL     MW 3280   2.467   1.708   2.611  0.7304 -0.0023 -0.1693
  821SOL     OW 3281   2.579   1.333   2.034 -0.3024 -0.0182 -0.5336
  821SOL    HW1 3282   2.621   1.376   1.958  1.5381  0.9247 -0.6018
  821SOL    HW2 3283   2.487   1.336   2.018 -0.1908 -2.1056 -1.9423
  821SOL     MW 3284   2.572   1.339   2.022 -0.0448 -0.1692 -0.7285
  822SOL     OW 3285   2.911   2.684   1.382  0.3210 -0.0495  0.0283
  822SOL    HW1 3286   2.827   2.724   1.357  1.7931  1.8333 -0.5528
  822SOL    HW2 3287   2.962   2.757   1.424  1.0374 -0.6460  1.4719
  822SOL     MW 3288   2.907   2.699   1.384  0.6097  0.1202  0.1421
  823SOL     OW 3289   2.312   0.434   1.761  0.5875 -0.4216 -0.7014
  823SOL    HW1 3290   2.383   0.398   1.703  0.9149  0.0841 -0.5097
  823SOL    HW2 3291   2.230   0.384   1.747 -2.1000  0.3643  2.3818
  823SOL     MW 3292   2.310   0.422   1.752  0.2761 -0.2512 -0.2693
  824SOL     OW 3293   2.127   1.331   2.555 -0.0520  0.8163  0.1284
  824SOL    HW1 3294   2.187   1.354   2.475 -0.2637 -0.7831 -1.1893
  824SOL    HW2 3295   2.111   1.420   2.596 -0.6595  2.3240  0.4870
  824SOL     MW 3296   2.132   1.346   2.549 -0.1601  0.8042  0.0018
  825SOL     OW 3297   2.172   2.396   0.404 -0.7041 -0.2716 -0.3729
  825SOL    HW1 3298   2.248   2.381   0.356 -1.7187  5.4468 -1.5838
  825SOL    HW2 3299   2.213   2.380   0.491 -1.7830  1.8776 -0.6644
  825SOL     MW 3300   2.188   2.392   0.409 -0.9803  0.7665 -0.5711
  826SOL     OW 3301   1.746   2.351   0.399  0.0945  0.6688 -0.0096
  826SOL    HW1 3302   1.763   2.293   0.479 -1.7022 -3.6210 -0.1121
  826SOL    HW2 3303   1.771   2.442   0.426  0.2075  2.4516  2.5093
  826SOL     MW 3304   1.751   2.355   0.413 -0.1277  0.3380  0.3092
  827SOL     OW 3305   1.930   2.291   0.873  0.0733  0.0662 -0.8143
  827SOL    HW1 3306   1.871   2.288   0.794  1.0122  1.2142 -1.1690
  827SOL    HW2 3307   1.890   2.231   0.943  1.1348 -0.9782  2.5516
  827SOL     MW 3308   1.917   2.282   0.872  0.3373  0.0799 -0.4170
  828SOL     OW 3309   0.047   2.595   0.564  0.1247 -0.1486  0.1274
  828SOL    HW1 3310   0.122   2.638   0.600  1.0763 -2.1228 -2.6406
  828SOL    HW2 3311   0.032   2.653   0.485 -1.1130 -0.6208 -0.4787
  828SOL     MW 3312   0.054   2.608   0.558  0.0869 -0.4714 -0.3178
  829SOL     OW 3313   3.010   2.889   1.215 -0.2429 -0.2893  0.4092
  829SOL    HW1 3314   2.942   2.873   1.157  1.9230  1.5824  1.3188
  829SOL    HW2 3315   3.058   2.806   1.215 -0.0551 -0.1874 -0.1666
  829SOL     MW 3316   3.007   2.876   1.208  0.0676 -0.0289  0.4533
  830SOL     OW 3317   2.490   2.782   1.985 -0.1958 -0.0029 -0.3658
  830SOL    HW1 3318   2.392   2.824   1.968 -3.1533 -0.9693  0.1616
  830SOL    HW2 3319   2.534   2.782   1.899  0.2110  2.5168  0.3682
  830SOL     MW 3320   2.483   2.787   1.972 -0.5324  0.2021 -0.1994
  831SOL     OW 3321   2.463   2.435   1.194 -0.1789  0.2767  0.9819
  831SOL    HW1 3322   2.422   2.361   1.240 -2.4851 -2.4818  1.9715
  831SOL    HW2 3323   2.542   2.392   1.152 -1.5812 -0.5132 -1.7891
  831SOL     MW 3324   2.468   2.420   1.194 -0.6682 -0.1915  0.7469
  832SOL     OW 3325   2.411   2.118   1.906  0.0872 -0.2066  0.2613
  832SOL    HW1 3326   2.445   2.205   1.908 -1.4654  1.8194  1.3188
  832SOL    HW2 3327   2.489   2.065   1.891  1.7717 -1.8008  0.6885
  832SOL     MW 3328   2.426   2.123   1.904  0.1046 -0.1496  0.4572
  833SOL     OW 3329   1.636   2.566   0.845 -0.2084 -0.8079 -0.5788
  833SOL    HW1 3330   1.599   2.485   0.891 -1.7000  2.4238  0.1732
  833SOL    HW2 3331   1.560   2.631   0.850 -2.1451 -2.1659  0.3338
  833SOL     MW 3332   1.621   2.564   0.851 -0.6607 -0.5607 -0.3591
  834SOL     OW 3333   2.258   2.361   0.637  0.1553  0.4815 -0.5289
  834SOL    HW1 3334   2.211   2.291   0.680 -1.5810  0.7476  2.1232
  834SOL    HW2 3335   2.335   2.380   0.685 -2.2493 -1.7996 -1.0631
  834SOL     MW 3336   2.262   2.354   0.649 -0.3910  0.2156 -0.2494
  835SOL     OW 3337   1.754   2.543   0.612  0.9840 -0.0565  0.2915
  835SOL    HW1 3338   1.720   2.548   0.701 -0.3705  1.2316 -0.9102
  835SOL    HW2 3339   1.798   2.458   0.625  1.9620 -3.2344 -3.7499
  835SOL     MW 3340   1.755   2.532   0.626  0.9343 -0.3058 -0.4003
  836SOL     OW 3341   2.082   2.095   1.694  0.6321 -0.2857  0.5950
  836SOL    HW1 3342   2.168   2.056   1.671  0.2819  0.4614  0.3600
  836SOL    HW2 3343   2.106   2.184   1.722  1.3870 -0.8115  1.4203
  836SOL     MW 3344   2.097   2.101   1.694  0.6855 -0.2565  0.6729
  837SOL     OW 3345   2.105   0.173   0.633 -0.1325 -0.0504 -0.3005
  837SOL    HW1 3346   2.021   0.159   0.601 -1.2882 -1.3565  0.3536
  837SOL    HW2 3347   2.168   0.118   0.585  1.6629 -1.3871  0.2658
  837SOL     MW 3348   2.102   0.164   0.623 -0.0481 -0.3991 -0.1395
  838SOL     OW 3349   2.895   2.058   0.901  0.5121 -0.1072  0.0142
  838SOL    HW1 3350   2.832   1.989   0.908  0.8796  1.5714 -0.8036
  838SOL    HW2 3351   2.951   2.057   0.984  2.3989 -2.9039  0.4173
  838SOL     MW 3352   2.894   2.049   0.913  0.8095 -0.2547 -0.0406
  839SOL     OW 3353   1.565   2.387   1.052 -0.5103  0.3927 -0.0520
  839SOL    HW1 3354   1.527   2.438   1.119  0.2875 -2.0704 -1.7787
  839SOL    HW2 3355   1.626   2.311   1.095  0.1488 -1.4993  1.2442
  839SOL     MW 3356   1.568   2.384   1.066 -0.3181 -0.1820 -0.1088
  840SOL     OW 3357   2.427   2.101   2.343  0.3046 -0.0984 -0.7394
  840SOL    HW1 3358   2.370   2.176   2.318  1.7990  3.7208 -0.6208
  840SOL    HW2 3359   2.452   2.128   2.431 -0.6168  0.7261  0.2045
  840SOL     MW 3360   2.423   2.115   2.351  0.3802  0.5143 -0.5992
  841SOL     OW 3361   2.326   2.297   0.106  0.1098 -0.6146  0.4013
  841SOL    HW1 3362   2.326   2.385   0.078  1.4023 -0.2882  2.2205
  841SOL    HW2 3363   2.236   2.261   0.093 -0.6596  2.2133 -1.3884
  841SOL     MW 3364   2.314   2.304   0.101  0.1788 -0.1984  0.4052
  842SOL     OW 3365   2.639   1.913   1.429 -0.5678 -0.2317  0.8712
  842SOL    HW1 3366   2.579   1.840   1.421  0.2177 -0.3366 -1.0772
  842SOL    HW2 3367   2.643   1.959   1.343 -0.6592  2.5487  1.3043
  842SOL     MW 3368   2.632   1.909   1.417 -0.4762  0.1213  0.6713
  843SOL     OW 3369   2.637   2.780   1.743 -0.1473 -0.3323  0.3138
  843SOL    HW1 3370   2.720   2.727   1.752  2.4102  0.7054  1.5842
  843SOL    HW2 3371   2.563   2.713   1.726 -2.5341  0.7881  0.4269
  843SOL     MW 3372   2.639   2.764   1.742 -0.1248 -0.0475  0.4964
  844SOL     OW 3373   2.713   2.330   1.111  0.0421  0.1471 -0.3196
  844SOL    HW1 3374   2.741   2.354   1.022  0.0796 -0.1253  1.3328
  844SOL    HW2 3375   2.785   2.362   1.170  0.6998  0.0669 -0.4954
  844SOL     MW 3376   2.727   2.337   1.107  0.1338  0.1006 -0.1248
  845SOL     OW 3377   2.853   2.594   0.291  0.5057  0.0385 -0.0900
  845SOL    HW1 3378   2.859   2.516   0.337  1.2768  2.0154 -0.2622
  845SOL    HW2 3379   2.846   2.647   0.369  2.1338  0.0734 -1.8851
  845SOL     MW 3380   2.853   2.590   0.307  0.8223  0.3039 -0.3496
  846SOL     OW 3381   1.467   2.765   0.794  0.0467 -0.3479  0.1782
  846SOL    HW1 3382   1.531   2.835   0.817  0.4672  0.0102 -1.1430
  846SOL    HW2 3383   1.379   2.799   0.814  0.5279 -1.4080  1.6461
  846SOL     MW 3384   1.464   2.778   0.800  0.1657 -0.4405  0.1976
  847SOL     OW 3385   2.493   1.848   0.220 -0.6285  0.0068  0.5366
  847SOL    HW1 3386   2.471   1.754   0.245  0.4908  0.7670  0.3102
  847SOL    HW2 3387   2.460   1.857   0.121 -0.3392 -1.7178 -2.2553
  847SOL     MW 3388   2.486   1.837   0.210 -0.4427 -0.1205  0.1384
  848SOL     OW 3389   2.681   2.065   1.206  0.3640 -0.5296 -0.0287
  848SOL    HW1 3390   2.695   2.159   1.181  0.2284 -3.1543 -2.3689
  848SOL    HW2 3391   2.706   2.025   1.119 -1.0851  2.5872 -0.2115
  848SOL     MW 3392   2.686   2.072   1.191  0.1549 -0.4647 -0.3616
  849SOL     OW 3393   1.967   2.856   0.793 -0.3109 -0.2066  0.5028
  849SOL    HW1 3394   1.938   2.824   0.879 -3.0012 -0.4667  0.6278
  849SOL    HW2 3395   2.039   2.795   0.777  1.5743  0.5139  0.0949
  849SOL     MW 3396   1.973   2.844   0.802 -0.4171 -0.1459  0.4655
  850SOL     OW 3397   2.313   1.883   1.625 -0.4766 -0.0497  0.4305
  850SOL    HW1 3398   2.235   1.845   1.588  1.1067  1.5254 -1.2336
  850SOL    HW2 3399   2.317   1.977   1.595 -0.3903  2.0261 -1.9400
  850SOL     MW 3400   2.304   1.890   1.616 -0.2563  0.4320 -0.1018
  851SOL     OW 3401   2.458   2.232   0.372  0.7641 -0.6436  0.3123
  851SOL    HW1 3402   2.480   2.242   0.281  2.4071 -0.6007 -0.2916
  851SOL    HW2 3403   2.476   2.318   0.418  1.3109  0.8115 -0.0929
  851SOL     MW 3404   2.463   2.245   0.366  1.0530 -0.4460  0.1792
  852SOL     OW 3405   2.307   2.013   0.371 -0.3935 -0.1154 -0.1029
  852SOL    HW1 3406   2.347   2.097   0.349 -1.1839 -0.2777 -0.2558
  852SOL    HW2 3407   2.352   1.948   0.313 -0.3478  0.0010  3.2797
  852SOL     MW 3408   2.318   2.016   0.361 -0.4917 -0.1215  0.3232
  853SOL     OW 3409   2.520   2.379   1.927  0.2271 -0.1779  0.1081
  853SOL    HW1 3410   2.518   2.440   1.853  1.4475  0.6337 -0.1865
  853SOL    HW2 3411   2.617   2.375   1.935 -1.3531  0.7645 -1.3254
  853SOL     MW 3412   2.532   2.387   1.918  0.1796  0.0535 -0.1199
  854SOL     OW 3413   2.873   2.284   0.737  0.2244  0.6067  0.2062
  854SOL    HW1 3414   2.810   2.284   0.662  1.8179 -0.4870 -0.3444
  854SOL    HW2 3415   2.865   2.196   0.779 -0.1374 -1.0915 -0.2856
  854SOL     MW 3416   2.864   2.273   0.733  0.3869  0.2384  0.0687
  855SOL     OW 3417   2.773   2.360   0.438  0.0944  0.5249 -0.2174
  855SOL    HW1 3418   2.680   2.385   0.421 -0.8228 -0.4843  0.1886
  855SOL    HW2 3419   2.787   2.271   0.399  2.7383  2.5784 -1.5167
  855SOL     MW 3420   2.763   2.352   0.430  0.3222  0.6627 -0.3353
  856SOL     OW 3421   2.059   1.861   0.246  0.1309 -0.7054 -0.3016
  856SOL    HW1 3422   1.967   1.871   0.279  0.0912  1.0147 -1.1529
  856SOL    HW2 3423   2.113   1.928   0.288 -2.0463  1.3032 -0.0076
  856SOL     MW 3424   2.054   1.871   0.256 -0.1616 -0.2134 -0.3751
  857SOL     OW 3425   2.475   1.953   0.568 -0.1264  0.2362  0.2435
  857SOL    HW1 3426   2.421   1.985   0.489  0.7808  0.7866 -1.3377
  857SOL    HW2 3427   2.417   1.938   0.649 -1.3152 -1.6019  2.1673
  857SOL     MW 3428   2.460   1.955   0.568 -0.1635  0.0663  0.2887
  858SOL     OW 3429   2.900   2.683   1.782  0.2874 -0.3636 -0.0130
  858SOL    HW1 3430   2.985   2.727   1.763 -1.0470  2.0628 -2.5264
  858SOL    HW2 3431   2.918   2.592   1.753 -0.1349  0.4192  1.0712
  858SOL     MW 3432   2.914   2.677   1.775  0.0556  0.0598 -0.2016
  859SOL     OW 3433   1.842   2.690   1.005 -1.0167 -0.0890 -0.3667
  859SOL    HW1 3434   1.780   2.633   0.960 -1.0494 -1.9767 -2.0750
  859SOL    HW2 3435   1.885   2.631   1.056  0.9581  1.8964  0.9987
  859SOL     MW 3436   1.839   2.675   1.005 -0.7604 -0.0761 -0.4119
  860SOL     OW 3437   2.609   2.592   0.171  0.0715 -0.6871 -0.4049
  860SOL    HW1 3438   2.695   2.609   0.221  0.2215  0.9208 -1.3537
  860SOL    HW2 3439   2.620   2.645   0.096 -0.3513  1.3837  0.9355
  860SOL     MW 3440   2.622   2.601   0.168  0.0355 -0.2017 -0.3532
  861SOL     OW 3441   1.633   2.139   1.202 -0.2101  0.1765  0.0376
  861SOL    HW1 3442   1.636   2.191   1.281  3.5960 -1.6581  2.9116
  861SOL    HW2 3443   1.559   2.080   1.217 -0.6384 -0.7033  1.4262
  861SOL     MW 3444   1.624   2.138   1.214  0.2356 -0.1817  0.6000
  862SOL     OW 3445   2.446   1.729   1.429 -0.0629 -0.2299  0.2220
  862SOL    HW1 3446   2.405   1.788   1.494 -1.4551 -1.2768 -3.2697
  862SOL    HW2 3447   2.388   1.732   1.352  0.0163 -4.5341  1.3486
  862SOL     MW 3448   2.433   1.737   1.428 -0.2362 -0.9359 -0.0900
  863SOL     OW 3449   2.995   1.703   0.987 -0.9073  0.4300 -0.3881
  863SOL    HW1 3450   3.040   1.727   1.070  1.5288 -1.8193 -0.5811
  863SOL    HW2 3451   2.904   1.713   1.012  0.7373  2.2013  2.2869
  863SOL     MW 3452   2.989   1.708   1.001 -0.3689  0.3669 -0.0606
  864SOL     OW 3453   0.016   1.790   0.738 -0.0998 -0.4796  0.3689
  864SOL    HW1 3454  -0.028   1.781   0.823  0.0902 -0.0732  1.3159
  864SOL    HW2 3455  -0.040   1.763   0.667  1.7932 -0.4312  1.0244
  864SOL     MW 3456   0.003   1.785   0.740  0.1750 -0.4196  0.5803
  865SOL     OW 3457   2.565   2.167   0.099 -0.1474  0.1024  0.1070
  865SOL    HW1 3458   2.613   2.084   0.100 -0.2963 -2.4861 -1.8425
  865SOL    HW2 3459   2.470   2.171   0.099  0.3999  0.9351  0.1697
  865SOL     MW 3460   2.559   2.156   0.099 -0.0948 -0.1293 -0.1419
  866SOL     OW 3461   2.679   2.372   1.542  0.5827 -0.6580  0.0472
  866SOL    HW1 3462   2.663   2.280   1.553  3.3294 -0.7065 -0.5383
  866SOL    HW2 3463   2.718   2.380   1.457  0.8413 -0.9158 -2.7500
  866SOL     MW 3464   2.682   2.361   1.533  0.9792 -0.6984 -0.3991
  867SOL     OW 3465   0.100   2.655   1.735 -0.0359 -0.9628 -0.0285
  867SOL    HW1 3466   0.170   2.704   1.776 -0.2739  1.2721  1.0473
  867SOL    HW2 3467   0.101   2.705   1.651 -1.7058  0.6836 -1.7412
  867SOL     MW 3468   0.110   2.668   1.729 -0.2876 -0.4507 -0.1125
  868SOL     OW 3469   2.760   2.701   0.540 -0.1990 -0.0424  0.7555
  868SOL    HW1 3470   2.736   2.619   0.570 -2.9876 -1.6138  0.0774
  868SOL    HW2 3471   2.681   2.741   0.505  0.8297  2.4855  0.5141
  868SOL     MW 3472   2.747   2.696   0.539 -0.4312  0.0838  0.6341
  869SOL     OW 3473   2.033   2.485   1.049 -0.4948 -0.4723  0.2567
  869SOL    HW1 3474   2.062   2.548   0.982 -2.5776 -1.8543 -2.1684
  869SOL    HW2 3475   1.998   2.410   0.999 -3.4646 -0.5371 -2.3668
  869SOL     MW 3476   2.032   2.484   1.034 -1.1614 -0.6632 -0.4094
  870SOL     OW 3477   2.233   3.085   0.479  0.4352 -0.3066 -0.1938
  870SOL    HW1 3478   2.308   3.132   0.440 -0.0885  0.5369  3.4727
  870SOL    HW2 3479   2.259   2.999   0.502 -2.0498 -2.2741 -1.3919
  870SOL     MW 3480   2.247   3.080   0.477  0.0382 -0.4549  0.1319
  871SOL     OW 3481   2.476   2.117   0.885  0.5522 -0.2632  0.1881
  871SOL    HW1 3482   2.392   2.095   0.843 -1.0780 -0.5189  0.9875
  871SOL    HW2 3483   2.469   2.202   0.925 -1.9141  0.4462 -1.1061
  871SOL     MW 3484   2.464   2.125   0.884  0.0117 -0.2033  0.1228
  872SOL     OW 3485   2.127   2.542   1.555 -0.1022 -0.2392  1.0886
  872SOL    HW1 3486   2.060   2.603   1.591  0.0203  0.4120  0.0870
  872SOL    HW2 3487   2.108   2.519   1.463 -1.5716 -1.2958 -1.4427
  872SOL     MW 3488   2.116   2.547   1.548 -0.2799 -0.2927  0.6225
  873SOL     OW 3489   2.863   2.115   1.832  0.3210  1.0246 -0.4159
  873SOL    HW1 3490   2.855   2.202   1.880 -0.5309  1.8873 -0.0513
  873SOL    HW2 3491   2.926   2.131   1.759 -0.3401 -1.6495 -0.4737
  873SOL     MW 3492   2.870   2.129   1.829  0.1214  0.7856 -0.3754
  874SOL     OW 3493   2.262   1.387   2.341 -0.6331  0.2285  0.4209
  874SOL    HW1 3494   2.208   1.337   2.273 -1.3614 -1.9977 -1.1084
  874SOL    HW2 3495   2.333   1.333   2.360 -2.7942 -1.8225  0.0002
  874SOL     MW 3496   2.264   1.374   2.334 -1.0143 -0.3358  0.1636
  875SOL     OW 3497   2.380   2.368   0.945  0.1129  0.0311 -0.0517
  875SOL    HW1 3498   2.426   2.416   0.871  1.5004  1.0361  0.4310
  875SOL    HW2 3499   2.404   2.413   1.027  2.8064  1.3003  1.2928
  875SOL     MW 3500   2.389   2.380   0.946  0.6513  0.3311  0.1894
  876SOL     OW 3501   3.093   2.246   1.310 -0.5910 -0.2801 -0.4891
  876SOL    HW1 3502   3.123   2.272   1.219  1.9982 -1.3050 -0.8760
  876SOL    HW2 3503   3.159   2.291   1.363 -2.2324 -1.0534 -1.1025
  876SOL     MW 3504   3.106   2.255   1.305 -0.4659 -0.5174 -0.6211
  877SOL     OW 3505   0.048   2.757   0.331 -0.7001 -0.7677 -0.0295
  877SOL    HW1 3506   0.104   2.831   0.310 -1.0679 -0.5111  2.5551
  877SOL    HW2 3507   0.032   2.721   0.245  0.3740  0.9185 -3.3185
  877SOL     MW 3508   0.054   2.762   0.317 -0.6069 -0.5114 -0.1225
  878SOL     OW 3509   2.272   1.698   1.189 -0.6336 -0.5417 -0.8689
  878SOL    HW1 3510   2.185   1.639   1.206  0.2644 -0.7338 -0.4760
  878SOL    HW2 3511   2.335   1.630   1.178 -2.6753  0.4014 -0.5529
  878SOL     MW 3512   2.269   1.681   1.190 -0.7845 -0.4426 -0.7754
  879SOL     OW 3513   2.735   2.474   0.857 -0.2123 -0.2174 -0.9721
  879SOL    HW1 3514   2.811   2.522   0.891 -2.5668 -0.2968 -1.9100
  879SOL    HW2 3515   2.769   2.412   0.790 -1.5625 -0.3038  1.2782
  879SOL     MW 3516   2.749   2.472   0.852 -0.7011 -0.2393 -0.7989
  880SOL     OW 3517   2.582   2.221   0.653 -0.0705 -0.5198  0.4654
  880SOL    HW1 3518   2.570   2.171   0.735  0.1955  0.9694  0.4966
  880SOL    HW2 3519   2.533   2.166   0.601 -0.6758  2.5847  2.9163
  880SOL     MW 3520   2.574   2.207   0.657 -0.1153  0.0863  0.7929
  881SOL     OW 3521   2.978   2.770   0.683  0.1988  0.3439 -0.0265
  881SOL    HW1 3522   2.893   2.730   0.658  1.7030 -0.8927  2.2685
  881SOL    HW2 3523   3.031   2.688   0.669 -1.9038  0.9344 -1.1264
  881SOL     MW 3524   2.974   2.754   0.678  0.1198  0.2586  0.1312
  882SOL     OW 3525   2.262   2.882   1.944  0.1981  0.0118 -0.1094
  882SOL    HW1 3526   2.246   2.902   1.849 -0.3308  2.1499  0.6374
  882SOL    HW2 3527   2.221   2.791   1.951  0.6747 -0.1377  0.4770
  882SOL     MW 3528   2.255   2.872   1.933  0.1912  0.2742  0.0665
  883SOL     OW 3529   2.426   2.171   1.312  0.0400 -0.7448 -0.5426
  883SOL    HW1 3530   2.504   2.133   1.280 -1.9996 -1.6481  0.1961
  883SOL    HW2 3531   2.362   2.163   1.234 -0.0289  2.6379  1.4932
  883SOL     MW 3532   2.428   2.165   1.297 -0.2382 -0.4177 -0.1765
  884SOL     OW 3533   1.928   1.837   1.052 -0.2569  0.1199 -0.5042
  884SOL    HW1 3534   1.918   1.934   1.049  0.9441 -0.0043  1.7292
  884SOL    HW2 3535   2.021   1.828   1.033  0.1075 -0.5938  3.0265
  884SOL     MW 3536   1.939   1.849   1.049 -0.0504  0.0093  0.2563
  885SOL     OW 3537   2.898   2.430   1.696  0.3742  0.3720 -0.1890
  885SOL    HW1 3538   2.963   2.364   1.669  1.6980  2.5859  1.0098
  885SOL    HW2 3539   2.824   2.414   1.637 -0.8814  3.1843 -3.0152
  885SOL     MW 3540   2.897   2.419   1.685  0.3832  1.0352 -0.4037
  886SOL     OW 3541   2.877   2.436   1.283  0.0538 -0.3012 -0.5966
  886SOL    HW1 3542   2.953   2.381   1.293  0.8503  1.9840 -0.9921
  886SOL    HW2 3543   2.902   2.533   1.308  3.2090  1.7229 -0.2574
  886SOL     MW 3544   2.890   2.442   1.288  0.5752  0.2674 -0.6040
  887SOL     OW 3545   2.350   2.709   1.537 -0.5639  0.2757  0.6371
  887SOL    HW1 3546   2.366   2.715   1.443  1.9230 -0.9702  0.3645
  887SOL    HW2 3547   2.268   2.655   1.538  0.4605 -0.9730 -1.3797
  887SOL     MW 3548   2.342   2.703   1.524 -0.1006 -0.0534  0.3350
  888SOL     OW 3549   2.058   2.161   1.388 -0.1263 -0.1029  0.2649
  888SOL    HW1 3550   2.134   2.125   1.344  0.0346 -0.8047  1.3257
  888SOL    HW2 3551   2.053   2.123   1.472 -0.5734  0.3233 -1.1248
  888SOL     MW 3552   2.067   2.152   1.393 -0.1640 -0.1393  0.2215
  889SOL     OW 3553   2.279   1.924   2.030  0.2711 -0.1916  0.3769
  889SOL    HW1 3554   2.368   1.910   2.070 -0.0942 -0.9454  0.9854
  889SOL    HW2 3555   2.299   2.000   1.969  0.7206  0.8050  1.2067
  889SOL     MW 3556   2.294   1.932   2.028  0.2822 -0.1596  0.5667
  890SOL     OW 3557   0.058   2.342   0.162  0.0134  0.1583  0.3141
  890SOL    HW1 3558   0.019   2.430   0.160 -0.0162  1.7793 -0.0426
  890SOL    HW2 3559   0.040   2.307   0.250 -1.9336 -2.9455  3.3837
  890SOL     MW 3560   0.050   2.349   0.173 -0.2474 -0.0373  0.6721
  891SOL     OW 3561   3.014   2.030   1.156 -0.1673 -0.1360  0.2487
  891SOL    HW1 3562   3.080   1.969   1.178  0.1843  3.8098  0.6088
  891SOL    HW2 3563   3.040   2.107   1.213  1.5163 -1.0493  1.9354
  891SOL     MW 3564   3.026   2.032   1.167  0.1012  0.2641  0.5187
  892SOL     OW 3565   2.479   2.390   2.799 -0.4060 -0.1606 -0.6761
  892SOL    HW1 3566   2.453   2.313   2.847  0.6010 -0.0196  0.8470
  892SOL    HW2 3567   2.566   2.421   2.837  1.7632 -0.0399  1.1593
  892SOL     MW 3568   2.487   2.384   2.810  0.0131 -0.1261 -0.2329
  893SOL     OW 3569   1.653   2.348   1.383 -0.4419 -0.5648 -0.3911
  893SOL    HW1 3570   1.559   2.372   1.405 -1.6545  0.4301  0.8854
  893SOL    HW2 3571   1.712   2.396   1.443  2.1763 -2.2055 -0.3272
  893SOL     MW 3572   1.649   2.357   1.394 -0.2565 -0.6500 -0.2142
  894SOL     OW 3573   2.755   1.873   0.455  0.2140  0.4818  0.0463
  894SOL    HW1 3574   2.681   1.875   0.524  0.4857 -0.5392  3.0020
  894SOL    HW2 3575   2.720   1.848   0.372  0.1673  0.2640  2.9735
  894SOL     MW 3576   2.741   1.870   0.453  0.2437  0.3184  0.8225
  895SOL     OW 3577   2.251   2.144   1.113  0.7521 -0.9243  0.3481
  895SOL    HW1 3578   2.231   2.215   1.053 -1.6511  0.9794  0.3522
  895SOL    HW2 3579   2.207   2.062   1.080 -0.1071 -3.6676  0.3391
  895SOL     MW 3580   2.242   2.143   1.101  0.3217 -1.0351  0.3475
  896SOL     OW 3581   2.216   2.768   1.070  0.5630  0.2474 -0.2150
  896SOL    HW1 3582   2.281   2.762   1.144  0.8986  2.6713 -2.3851
  896SOL    HW2 3583   2.155   2.835   1.099 -0.8268  0.2635 -0.5301
  896SOL     MW 3584   2.216   2.776   1.083  0.4239  0.5693 -0.5429
  897SOL     OW 3585   3.072   3.019   0.006  0.3963 -0.0316  0.1767
  897SOL    HW1 3586   3.136   2.945  -0.009  1.3289 -3.7078 -1.1031
  897SOL    HW2 3587   2.996   2.988  -0.033  1.8733  2.0148 -0.8584
  897SOL     MW 3588   3.071   3.005  -0.001  0.7142 -0.2466 -0.1287
  898SOL     OW 3589   2.178   0.133   1.457  0.4631  0.1083  0.0892
  898SOL    HW1 3590   2.132   0.052   1.478  0.7941  0.6346  1.6254
  898SOL    HW2 3591   2.176   0.138   1.358 -0.7490 -0.5374 -2.3509
  898SOL     MW 3592   2.172   0.123   1.447  0.3469  0.0925 -0.0301
  899SOL     OW 3593   2.899   3.028   0.600  0.6698 -0.2442  0.2258
  899SOL    HW1 3594   2.941   2.946   0.628 -1.6360  1.2192  1.3336
  899SOL    HW2 3595   2.804   3.018   0.610 -0.8747 -2.6744  2.3853
  899SOL     MW 3596   2.892   3.016   0.605  0.1618 -0.3718  0.6569
  900SOL     OW 3597   0.111   2.348   1.105  0.8420  0.5729  0.2091
  900SOL    HW1 3598   0.086   2.439   1.111 -1.7622 -0.3174 -0.7144
  900SOL    HW2 3599   0.135   2.326   1.014  1.0718  1.1932 -0.5164
  900SOL     MW 3600   0.111   2.357   1.094  0.5287  0.5373 -0.0085
  901SOL     OW 3601   1.738   2.872   1.785  0.2395  0.2305 -0.3074
  901SOL    HW1 3602   1.801   2.815   1.754 -2.1455  0.0489  2.4552
  901SOL    HW2 3603   1.667   2.848   1.725 -0.9832  1.6702  0.8601
  901SOL     MW 3604   1.737   2.861   1.773 -0.2365  0.3965  0.2111
  902SOL     OW 3605   2.641   2.114   1.639  0.1185  0.0395  0.8005
  902SOL    HW1 3606   2.644   2.046   1.567 -1.0917 -2.6506  1.5975
  902SOL    HW2 3607   2.703   2.085   1.705  0.4733  0.4891  2.2019
  902SOL     MW 3608   2.650   2.101   1.638  0.0056 -0.2561  1.0905
  903SOL     OW 3609   1.512   2.648   0.538  0.2083 -0.4201 -0.0912
  903SOL    HW1 3610   1.604   2.631   0.568  1.6302 -1.4542 -1.0747
  903SOL    HW2 3611   1.486   2.718   0.607 -1.8030  3.5988  1.9925
  903SOL     MW 3612   1.521   2.655   0.551  0.1306 -0.0263  0.0540
  904SOL     OW 3613   2.515   2.536   1.701  0.3301  0.3383 -0.1549
  904SOL    HW1 3614   2.450   2.582   1.638 -1.9550  0.9320  0.7228
  904SOL    HW2 3615   2.571   2.489   1.642 -0.6630 -0.9199  0.4740
  904SOL     MW 3616   2.514   2.536   1.685 -0.1024  0.2506  0.0438
  905SOL     OW 3617   2.323   2.464   2.089  1.0034  0.5053 -0.2661
  905SOL    HW1 3618   2.394   2.427   2.034  2.6575 -0.9901  0.6082
  905SOL    HW2 3619   2.296   2.403   2.173 -1.5446 -0.1806  1.1544
  905SOL     MW 3620   2.328   2.451   2.093  0.8855  0.2175  0.0367
  906SOL     OW 3621   2.495   2.526   0.755  0.0554 -0.1175 -0.3312
  906SOL    HW1 3622   2.583   2.518   0.787  1.8367  0.8171 -0.5161
  906SOL    HW2 3623   2.464   2.606   0.792  0.0843 -0.9573 -1.0314
  906SOL     MW 3624   2.502   2.535   0.764  0.2943 -0.1050 -0.4480
  907SOL     OW 3625   2.662   2.853   1.288  0.1740 -0.9044  0.4404
  907SOL    HW1 3626   2.723   2.904   1.348 -0.6468  0.5826  2.1917
  907SOL    HW2 3627   2.706   2.852   1.204 -4.2555 -2.7738  2.8121
  907SOL     MW 3628   2.675   2.860   1.285 -0.5188 -0.9549  0.9844
  908SOL     OW 3629   2.710   2.391   0.015 -0.9194 -0.6526 -0.2111
  908SOL    HW1 3630   2.648   2.316   0.017  1.3256 -0.5649 -2.0682
  908SOL    HW2 3631   2.685   2.467   0.077 -0.7804  1.4369 -0.6966
  908SOL     MW 3632   2.698   2.391   0.023 -0.6048 -0.3654 -0.5202
  909SOL     OW 3633   1.691   0.089   1.299 -0.0823 -0.2109  0.4131
  909SOL    HW1 3634   1.621   0.157   1.310 -0.9582 -0.1872  3.2760
  909SOL    HW2 3635   1.676   0.050   1.385 -2.1509  0.3395 -0.6805
  909SOL     MW 3636   1.679   0.093   1.312 -0.4708 -0.1351  0.6466
  910SOL     OW 3637   2.122   1.642   0.386 -0.2659  0.5033 -0.4231
  910SOL    HW1 3638   2.080   1.549   0.375  2.5729 -1.5948  0.4734
  910SOL    HW2 3639   2.089   1.704   0.321  0.8115  0.0743 -0.3491
  910SOL     MW 3640   2.112   1.638   0.376  0.2508  0.1699 -0.2951
  911SOL     OW 3641   2.353   2.146   1.574  0.5142  0.9400 -0.1914
  911SOL    HW1 3642   2.417   2.147   1.640 -0.5042  0.3432 -3.2652
  911SOL    HW2 3643   2.393   2.169   1.485 -0.6832 -1.5904 -0.5786
  911SOL     MW 3644   2.366   2.149   1.571  0.2219  0.5274 -0.6481
  912SOL     OW 3645   2.915   1.865   1.387 -0.1682 -0.0588 -0.2261
  912SOL    HW1 3646   2.950   1.914   1.315  2.9587 -0.0578 -3.8322
  912SOL    HW2 3647   2.822   1.886   1.399  3.1186 -0.9629  0.4364
  912SOL     MW 3648   2.907   1.874   1.379  0.6780 -0.1780 -0.6145
  913SOL     OW 3649   2.691   3.094   0.254 -0.0538  0.6002 -0.0393
  913SOL    HW1 3650   2.772   3.047   0.276  0.4073  2.1068 -1.5431
  913SOL    HW2 3651   2.625   3.021   0.231 -1.9347  1.3033  1.4843
  913SOL     MW 3652   2.693   3.079   0.254 -0.2411  0.8918 -0.0367
  914SOL     OW 3653   2.708   1.807   2.933 -0.0086 -0.0567  0.2649
  914SOL    HW1 3654   2.752   1.891   2.938 -2.3653 -2.4048  0.0063
  914SOL    HW2 3655   2.622   1.828   2.966 -1.4871  1.0620  0.1341
  914SOL     MW 3656   2.702   1.821   2.938 -0.5146 -0.2189  0.2135
  915SOL     OW 3657   1.822   0.122   0.108 -0.2501 -0.2391 -0.0380
  915SOL    HW1 3658   1.896   0.071   0.146  1.4984 -0.4555  1.4115
  915SOL    HW2 3659   1.745   0.084   0.145  0.5701  1.9196 -0.2003
  915SOL     MW 3660   1.821   0.110   0.118  0.0888  0.0172  0.1318
  916SOL     OW 3661   1.766   2.172   1.994  0.5058  0.1223 -0.8594
  916SOL    HW1 3662   1.788   2.266   1.989 -1.1235 -1.9568 -0.0365
  916SOL    HW2 3663   1.796   2.131   1.913 -1.0420 -0.4274 -1.2745
  916SOL     MW 3664   1.773   2.179   1.982  0.0866 -0.2245 -0.8056
  917SOL     OW 3665   2.554   2.222   2.587  0.3228 -0.1431 -0.1614
  917SOL    HW1 3666   2.527   2.281   2.659  0.5559 -1.5893  0.1689
  917SOL    HW2 3667   2.624   2.263   2.543  0.3130 -0.9576 -1.5757
  917SOL     MW 3668   2.559   2.235   2.591  0.3522 -0.4414 -0.3045
  918SOL     OW 3669   2.078   1.616   2.651 -0.4016 -0.4901  0.8437
  918SOL    HW1 3670   2.007   1.655   2.604 -1.4151 -0.0847 -1.4092
  918SOL    HW2 3671   2.150   1.679   2.636 -1.8725 -1.4796 -0.1596
  918SOL     MW 3672   2.078   1.629   2.643 -0.7294 -0.5672  0.4141
  919SOL     OW 3673   3.063   2.424   2.257 -0.4918  0.4244  0.6954
  919SOL    HW1 3674   2.992   2.360   2.249 -4.0990  0.2632  4.7920
  919SOL    HW2 3675   3.129   2.411   2.188 -3.0082  1.1917  0.6517
  919SOL     MW 3676   3.063   2.414   2.247 -1.2998  0.5044  1.2301
  920SOL     OW 3677   2.644   2.781   3.057 -0.2673  0.6724  0.4420
  920SOL    HW1 3678   2.555   2.779   3.025 -1.8355  1.8374  1.3156
  920SOL    HW2 3679   2.706   2.786   2.979 -0.2839  0.1387  2.8162
  920SOL     MW 3680   2.640   2.781   3.042 -0.4764  0.7557  0.8705
  921SOL     OW 3681   2.470   2.622   2.650 -0.4982 -0.5837  0.0671
  921SOL    HW1 3682   2.514   2.615   2.566 -0.7654  0.2628  0.4023
  921SOL    HW2 3683   2.483   2.544   2.705  1.3655 -0.7894  0.9001
  921SOL     MW 3684   2.478   2.611   2.646 -0.2876 -0.4992  0.2213
  922SOL     OW 3685   2.085   2.662   0.422  0.1130 -0.6418 -0.1097
  922SOL    HW1 3686   2.084   2.670   0.327  0.9288 -0.7946  1.4411
  922SOL    HW2 3687   2.094   2.565   0.426 -2.4630  2.9458  2.2204
  922SOL     MW 3688   2.086   2.651   0.410 -0.1192 -0.1886  0.4023
  923SOL     OW 3689   2.197   2.911   1.678 -0.0094  0.2655 -0.2099
  923SOL    HW1 3690   2.257   2.857   1.622 -1.1579 -1.0244  1.3725
  923SOL    HW2 3691   2.160   2.969   1.612  1.6664 -0.0695 -1.4324
  923SOL     MW 3692   2.200   2.911   1.662  0.0602  0.0511 -0.1624
  924SOL     OW 3693   1.067   2.735   2.622  0.4647  0.0558  0.2051
  924SOL    HW1 3694   1.149   2.783   2.596  1.3501 -0.9172  0.4844
  924SOL    HW2 3695   1.095   2.659   2.673 -0.5264 -3.1186  1.2308
  924SOL     MW 3696   1.082   2.732   2.625  0.4508 -0.4914  0.3773
  925SOL     OW 3697   2.990   0.238   2.635  0.4629 -0.3081 -0.4675
  925SOL    HW1 3698   2.953   0.227   2.545 -0.7725 -0.1733 -0.2620
  925SOL    HW2 3699   2.955   0.318   2.677 -3.2477  0.9154  0.6838
  925SOL     MW 3700   2.980   0.248   2.629 -0.1897 -0.1289 -0.2885
  926SOL     OW 3701   2.801   2.375   1.948 -0.3444  0.5639  0.3697
  926SOL    HW1 3702   2.813   2.454   1.997  1.9463 -2.7946 -0.0003
  926SOL    HW2 3703   2.836   2.404   1.860  0.0980  1.8327  0.6929
  926SOL     MW 3704   2.807   2.389   1.943  0.0162  0.2882  0.3636
  927SOL     OW 3705   2.393   0.143   0.294  0.9840 -0.4637  0.1774
  927SOL    HW1 3706   2.474   0.197   0.277  2.6642  0.3968 -0.2232
  927SOL    HW2 3707   2.371   0.103   0.205 -1.8723 -3.0495 -1.5327
  927SOL     MW 3708   2.401   0.145   0.280  0.8288 -0.6913 -0.1011
  928SOL     OW 3709   2.154   2.336   1.803 -0.0708 -0.2791  0.4646
  928SOL    HW1 3710   2.139   2.399   1.730  4.0751 -0.3020 -1.5003
  928SOL    HW2 3711   2.239   2.356   1.837  1.2348 -0.4604  0.1612
  928SOL     MW 3712   2.163   2.347   1.798  0.6485 -0.3060  0.1653
  929SOL     OW 3713   2.749   2.344   2.473 -0.1626  0.0536 -0.8149
  929SOL    HW1 3714   2.803   2.289   2.405  0.8756 -1.8384 -2.2289
  929SOL    HW2 3715   2.800   2.339   2.552 -2.3670  0.1637  2.3483
  929SOL     MW 3716   2.763   2.336   2.474 -0.3165 -0.1815 -0.5841
  930SOL     OW 3717   2.016   2.798   2.670 -0.9427 -0.0740  0.1791
  930SOL    HW1 3718   2.055   2.736   2.727  1.1009  2.3667  0.2864
  930SOL    HW2 3719   2.089   2.845   2.638 -0.2804  0.5835 -0.9988
  930SOL     MW 3720   2.031   2.796   2.674 -0.5857  0.3348  0.0378
  931SOL     OW 3721   0.047   2.787   2.442  0.1347  0.3354 -0.4735
  931SOL    HW1 3722   0.018   2.834   2.530 -0.6529  1.0022 -0.8993
  931SOL    HW2 3723   0.137   2.818   2.425 -1.2793 -0.1693  0.9018
  931SOL     MW 3724   0.055   2.797   2.451 -0.1558  0.3568 -0.3482
  932SOL     OW 3725   2.822   1.981   2.526 -0.6520  0.2343 -0.3899
  932SOL    HW1 3726   2.916   2.004   2.508  0.2767 -0.6320 -2.0986
  932SOL    HW2 3727   2.789   1.967   2.437 -3.0672 -0.9449  1.6337
  932SOL     MW 3728   2.830   1.982   2.512 -0.8481 -0.0356 -0.3483
  933SOL     OW 3729   2.091   2.804   2.207 -0.0300 -0.3358 -0.0019
  933SOL    HW1 3730   2.172   2.838   2.239  1.8350  0.5982 -1.4336
  933SOL    HW2 3731   2.035   2.875   2.199 -0.4739  2.4935 -1.2572
  933SOL     MW 3732   2.094   2.818   2.210  0.1575  0.1607 -0.3564
  934SOL     OW 3733   2.016   2.662   2.428 -0.0309  0.3510  0.1453
  934SOL    HW1 3734   2.000   2.721   2.497  0.6915  0.0639 -3.1335
  934SOL    HW2 3735   2.060   2.718   2.354 -0.5773 -1.0932 -0.9713
  934SOL     MW 3736   2.020   2.677   2.427 -0.0077  0.1226 -0.4346
  935SOL     OW 3737   2.639   1.475   1.772 -0.2864  0.0927  0.1151
  935SOL    HW1 3738   2.735   1.470   1.763  0.3065  0.7837  2.2290
  935SOL    HW2 3739   2.588   1.466   1.689  0.2212  0.7280  1.0489
  935SOL     MW 3740   2.645   1.473   1.760 -0.1412  0.2677  0.5172
  936SOL     OW 3741   2.943   2.247   0.020  0.1722 -0.0995  0.0160
  936SOL    HW1 3742   3.006   2.293   0.070 -2.2594 -1.1939 -0.3580
  936SOL    HW2 3743   2.854   2.279   0.044  2.7492 -2.2972  1.2451
  936SOL     MW 3744   2.939   2.257   0.029  0.1914 -0.5339  0.1288
  937SOL     OW 3745   1.958   2.118   2.671 -0.3315  0.3103 -0.0118
  937SOL    HW1 3746   2.036   2.100   2.725  0.3638  0.4642 -2.7415
  937SOL    HW2 3747   1.973   2.097   2.581 -2.9187  2.1731  0.1339
  937SOL     MW 3748   1.970   2.113   2.666 -0.5811  0.5764 -0.3528
  938SOL     OW 3749   2.319   1.715   1.835 -1.1151  0.2796 -0.1140
  938SOL    HW1 3750   2.334   1.760   1.747  0.2423  2.2677 -0.4857
  938SOL    HW2 3751   2.302   1.801   1.885 -0.9954  0.5237 -1.6077
  938SOL     MW 3752   2.319   1.732   1.830 -0.9202  0.5741 -0.3601
  939SOL     OW 3753   2.772   1.944   2.248 -0.2423  0.1584 -0.2407
  939SOL    HW1 3754   2.829   1.904   2.182 -0.5514 -0.2963 -1.4202
  939SOL    HW2 3755   2.682   1.925   2.209 -0.5653  1.3816 -0.6744
  939SOL     MW 3756   2.767   1.937   2.234 -0.3257  0.2598 -0.4535
  940SOL     OW 3757   2.184   0.126   2.733 -0.3502  0.0988  0.8387
  940SOL    HW1 3758   2.209   0.055   2.676  1.4151 -2.6498  1.4510
  940SOL    HW2 3759   2.264   0.138   2.788 -1.1063  3.1388  2.8467
  940SOL     MW 3760   2.198   0.118   2.733 -0.2171  0.1373  1.1844
  941SOL     OW 3761   0.130   2.458   2.024 -0.1935  0.1172 -0.1671
  941SOL    HW1 3762   0.208   2.413   2.046 -3.0901  0.2644 -2.5170
  941SOL    HW2 3763   0.112   2.402   1.947  1.2045  1.5246 -0.9600
  941SOL     MW 3764   0.138   2.445   2.017 -0.3912  0.3223 -0.5818
  942SOL     OW 3765   2.872   2.236   2.204 -0.5001 -0.1056 -0.0420
  942SOL    HW1 3766   2.845   2.263   2.114 -2.0961 -1.6078  0.5389
  942SOL    HW2 3767   2.871   2.139   2.192 -0.6473 -2.7891 -0.6729
  942SOL     MW 3768   2.868   2.227   2.190 -0.7301 -0.6579 -0.0486
  943SOL     OW 3769   0.298   2.115   2.316  0.3113  0.5730  0.3867
  943SOL    HW1 3770   0.250   2.178   2.370  1.1950 -2.6523 -1.1588
  943SOL    HW2 3771   0.341   2.061   2.381 -0.1112  0.8155 -1.4376
  943SOL     MW 3772   0.297   2.116   2.332  0.3722  0.1795 -0.0579
  944SOL     OW 3773   2.139   2.647   1.954 -0.5054  0.2281 -0.3686
  944SOL    HW1 3774   2.190   2.573   1.985  1.5065  0.1090  1.3390
  944SOL    HW2 3775   2.087   2.667   2.030 -4.4207  0.1666  0.6649
  944SOL     MW 3776   2.139   2.640   1.968 -0.7565  0.2043 -0.0070
  945SOL     OW 3777   2.817   2.775   2.827 -0.6423 -0.3750 -0.1726
  945SOL    HW1 3778   2.776   2.695   2.807  1.5543 -1.1272  1.1546
  945SOL    HW2 3779   2.821   2.830   2.741  0.9572  0.3415  2.5600
  945SOL     MW 3780   2.812   2.772   2.813 -0.1414 -0.3797  0.3630
  946SOL     OW 3781   2.465   2.653   2.233 -0.1477 -0.1611  0.1004
  946SOL    HW1 3782   2.470   2.698   2.146 -0.4259  1.7643 -4.4465
  946SOL    HW2 3783   2.418   2.575   2.210 -0.7555  0.8936  2.7484
  946SOL     MW 3784   2.459   2.648   2.219 -0.2646  0.2321 -0.1501
  947SOL     OW 3785   2.038   0.010   0.202 -0.4702 -0.1143  0.2747
  947SOL    HW1 3786   2.089  -0.053   0.142 -0.0017  1.2835  2.3326
  947SOL    HW2 3787   2.076  -0.019   0.285  0.8166  1.0640  2.1257
  947SOL     MW 3788   2.050  -0.002   0.205 -0.2386  0.2256  0.7904
  948SOL     OW 3789   1.786   3.001   2.617  0.2596  0.1808  0.0890
  948SOL    HW1 3790   1.838   2.918   2.626 -1.4821 -1.8899  1.5618
  948SOL    HW2 3791   1.753   2.988   2.528  0.2496  0.0871  0.3074
  948SOL     MW 3792   1.789   2.988   2.607  0.0285 -0.1048  0.3121
  949SOL     OW 3793   2.495   1.873   2.200  0.3164 -0.4400  0.0994
  949SOL    HW1 3794   2.466   1.807   2.260  2.8385 -1.4519 -0.6372
  949SOL    HW2 3795   2.473   1.961   2.243 -1.8543 -0.8964 -2.8118
  949SOL     MW 3796   2.488   1.876   2.214  0.3628 -0.6337 -0.3819
  950SOL     OW 3797   2.340   2.543   2.997 -0.0459 -0.5166 -0.0559
  950SOL    HW1 3798   2.400   2.491   2.945  0.4833  0.2669  0.6550
  950SOL    HW2 3799   2.258   2.553   2.959  0.4239  1.3248 -0.9129
  950SOL     MW 3800   2.337   2.537   2.985  0.0859 -0.1703 -0.0752
  951SOL     OW 3801   3.057   2.191   2.879 -0.0525 -0.4825  0.5800
  951SOL    HW1 3802   3.007   2.214   2.962 -2.8375  1.4990  1.3239
  951SOL    HW2 3803   3.057   2.096   2.861 -0.3329  1.1869 -1.0856
  951SOL     MW 3804   3.050   2.181   2.888 -0.4569 -0.0008  0.4584
  952SOL     OW 3805   3.028   1.710   2.138 -0.1800  0.3986  0.1973
  952SOL    HW1 3806   2.964   1.762   2.091 -2.9465 -0.9954  0.2882
  952SOL    HW2 3807   3.084   1.778   2.187 -0.1121  1.2004 -0.0383
  952SOL     MW 3808   3.027   1.725   2.138 -0.5360  0.3204  0.1782
  953SOL     OW 3809   1.958   1.712   2.934  0.1287  0.2841 -0.2971
  953SOL    HW1 3810   1.878   1.664   2.968 -0.3853  2.3238  3.6768
  953SOL    HW2 3811   2.002   1.661   2.865  2.3274  0.1891  2.0097
  953SOL     MW 3812   1.953   1.699   2.930  0.3510  0.5406  0.5316
  954SOL     OW 3813   2.402   2.154   2.913 -0.6695  0.3492 -0.1029
  954SOL    HW1 3814   2.312   2.129   2.901  0.3108 -1.8775 -3.9700
  954SOL    HW2 3815   2.442   2.088   2.853 -0.9971 -2.7536 -1.4175
  954SOL     MW 3816   2.396   2.142   2.903 -0.5834 -0.3540 -0.7866
  955SOL     OW 3817   1.594   1.511   2.545  0.1130 -0.4851  0.2829
  955SOL    HW1 3818   1.560   1.558   2.462 -2.4064  2.0797  0.3017
  955SOL    HW2 3819   1.684   1.548   2.560 -1.9336  2.2414  0.6531
  955SOL     MW 3820   1.601   1.522   2.536 -0.4894  0.2130  0.3343
  956SOL     OW 3821   2.735   2.493   2.860 -0.1686 -0.3145  0.2125
  956SOL    HW1 3822   2.743   2.458   2.945  1.9204  0.8515  0.8550
  956SOL    HW2 3823   2.809   2.455   2.812 -1.1338 -1.0708 -2.1790
  956SOL     MW 3824   2.746   2.483   2.865 -0.0203 -0.2605 -0.0182
  957SOL     OW 3825   2.277   2.832   0.591 -0.5096 -0.3714 -0.0972
  957SOL    HW1 3826   2.223   2.757   0.555  2.3934  0.0668  3.6733
  957SOL    HW2 3827   2.270   2.821   0.687  1.3084 -0.2399  3.5709
  957SOL     MW 3828   2.269   2.821   0.599  0.1133 -0.2962  0.8842
  958SOL     OW 3829   2.071   2.576   2.894  0.1235 -0.4092 -0.0197
  958SOL    HW1 3830   2.039   2.512   2.835  0.7126 -3.3102  3.6545
  958SOL    HW2 3831   2.008   2.585   2.966  0.3247  3.5252  1.1552
  958SOL     MW 3832   2.059   2.569   2.896  0.2278 -0.2728  0.6201
  959SOL     OW 3833   2.509   2.815   0.456 -0.0377 -0.1308 -0.0746
  959SOL    HW1 3834   2.482   2.866   0.380  0.3520  1.2473  2.5664
  959SOL    HW2 3835   2.430   2.806   0.514 -0.4205 -0.9288 -1.2074
  959SOL     MW 3836   2.495   2.820   0.453 -0.0368 -0.0543  0.1244
  960SOL     OW 3837   1.921   2.378   2.259  0.0276  0.3950 -0.2590
  960SOL    HW1 3838   1.936   2.289   2.286  0.0400  1.0235  2.4162
  960SOL    HW2 3839   1.844   2.401   2.309 -0.3557  1.4275 -0.0511
  960SOL     MW 3840   1.913   2.369   2.269 -0.0213  0.6141  0.1214
  961SOL     OW 3841   2.243   2.305   2.305 -0.3695  0.1852  0.4308
  961SOL    HW1 3842   2.157   2.272   2.282  0.0629  0.1122  0.1364
  961SOL    HW2 3843   2.241   2.352   2.386  0.3804  1.0090  0.1357
  961SOL     MW 3844   2.231   2.307   2.312 -0.2135  0.2842  0.3530
  962SOL     OW 3845   2.156   2.010   2.845 -0.1622 -0.4566  0.4632
  962SOL    HW1 3846   2.147   1.972   2.934  0.1546  0.3354  0.9375
  962SOL    HW2 3847   2.185   1.946   2.786 -2.4689  4.5121  1.4461
  962SOL     MW 3848   2.159   1.997   2.849 -0.4248  0.3035  0.6555
  963SOL     OW 3849   1.888   2.605   2.083  0.0449  0.6807 -0.0277
  963SOL    HW1 3850   1.930   2.563   2.162  0.8731 -1.0687  0.2781
  963SOL    HW2 3851   1.878   2.530   2.016 -0.5294 -1.4393 -0.7358
  963SOL     MW 3852   1.892   2.590   2.085  0.0784  0.1702 -0.0808
  964SOL     OW 3853   1.835   1.905   2.741  0.1983 -0.3948 -0.2670
  964SOL    HW1 3854   1.894   1.983   2.722 -0.4957  0.9851 -0.3999
  964SOL    HW2 3855   1.892   1.854   2.788 -1.5731  1.0686 -0.9050
  964SOL     MW 3856   1.850   1.909   2.744 -0.1270 -0.0196 -0.3687
  965SOL     OW 3857   2.127   2.617   0.805 -1.1971 -0.1934  0.5139
  965SOL    HW1 3858   2.125   2.528   0.773 -0.1302 -1.1770 -0.8959
  965SOL    HW2 3859   2.222   2.636   0.822  1.5408  0.0575 -2.1358
  965SOL     MW 3860   2.140   2.608   0.803 -0.6951 -0.2901 -0.0217
  966SOL     OW 3861   2.681   2.607   2.417  0.0170 -0.1694 -0.1128
  966SOL    HW1 3862   2.602   2.606   2.359  1.2686  2.5635 -1.3040
  966SOL    HW2 3863   2.710   2.514   2.416  3.0198  0.4771  0.5002
  966SOL     MW 3864   2.675   2.595   2.409  0.5783  0.2765 -0.1891
  967SOL     OW 3865   2.749   3.051   3.011 -0.3227  0.5422  0.5109
  967SOL    HW1 3866   2.706   2.967   3.048 -1.6343 -1.7101 -0.0908
  967SOL    HW2 3867   2.692   3.091   2.945 -1.9899 -0.2201 -0.2093
  967SOL     MW 3868   2.736   3.045   3.007 -0.7157  0.1444  0.3365
  968SOL     OW 3869   3.054   2.685   2.919  0.5309  0.5005 -0.1581
  968SOL    HW1 3870   2.970   2.710   2.878 -1.7927 -1.3631 -0.5576
  968SOL    HW2 3871   3.105   2.641   2.847  0.9870  0.2047 -1.8809
  968SOL     MW 3872   3.050   2.683   2.904  0.2845  0.2156 -0.4381
  969SOL     OW 3873   1.554   2.187   1.703 -0.1423 -0.6294 -0.5846
  969SOL    HW1 3874   1.630   2.130   1.713 -0.6769 -0.7202 -1.7705
  969SOL    HW2 3875   1.526   2.206   1.792 -1.7465  0.3249  2.6338
  969SOL     MW 3876   1.560   2.182   1.716 -0.4245 -0.5154 -0.3164
  970SOL     OW 3877   1.753   1.811   1.919 -0.4195 -0.1046 -0.3674
  970SOL    HW1 3878   1.776   1.748   1.986  0.6508 -1.1241 -1.5953
  970SOL    HW2 3879   1.665   1.784   1.893 -1.4187  0.7535  3.6864
  970SOL     MW 3880   1.744   1.799   1.925 -0.4101 -0.1259  0.0055
  971SOL     OW 3881   1.714   0.014   2.348  0.3729  0.1571 -0.1363
  971SOL    HW1 3882   1.761  -0.037   2.273 -0.2557  2.2114 -1.1027
  971SOL    HW2 3883   1.750   0.103   2.340  2.9077 -0.1616 -1.7849
  971SOL     MW 3884   1.725   0.019   2.337  0.6244  0.3861 -0.4813
  972SOL     OW 3885   0.311   2.897   2.390 -0.0787 -0.4695  0.3548
  972SOL    HW1 3886   0.349   2.824   2.443 -0.2597  0.1245  0.3231
  972SOL    HW2 3887   0.323   2.979   2.433  0.4518 -1.4174 -0.5575
  972SOL     MW 3888   0.318   2.898   2.403 -0.0326 -0.5162  0.2302
  973SOL     OW 3889   2.601   3.012   2.112  0.1227  0.1400 -0.1945
  973SOL    HW1 3890   2.571   2.925   2.079  0.8513 -1.6364 -1.1921
  973SOL    HW2 3891   2.587   3.075   2.035 -2.8178  1.0339 -4.4831
  973SOL     MW 3892   2.595   3.009   2.098 -0.1691  0.0236 -0.8920
  974SOL     OW 3893   1.953   0.161   2.598 -0.4591 -0.3304  0.2952
  974SOL    HW1 3894   2.027   0.150   2.657  0.2179 -0.3646 -2.1686
  974SOL    HW2 3895   1.910   0.076   2.593  0.2763  1.1783  0.8491
  974SOL     MW 3896   1.957   0.149   2.605 -0.2727 -0.1359  0.0432
  975SOL     OW 3897   2.212   2.496   2.518 -0.2359 -0.1978  0.2792
  975SOL    HW1 3898   2.289   2.530   2.567  1.6481  0.9672 -0.6121
  975SOL    HW2 3899   2.160   2.572   2.492 -1.1331  3.8776  0.1142
  975SOL     MW 3900   2.215   2.511   2.521 -0.1057  0.4936  0.1398
  976SOL     OW 3901   0.211   0.355   1.617 -0.4880  0.3708 -0.5275
  976SOL    HW1 3902   0.280   0.295   1.646  1.2308 -0.5334 -2.0599
  976SOL    HW2 3903   0.132   0.305   1.598  0.6418 -0.0027 -2.4542
  976SOL     MW 3904   0.210   0.340   1.618 -0.1122  0.2022 -0.9839
  977SOL     OW 3905   1.761   2.767   2.384  0.0094 -0.1352  0.1662
  977SOL    HW1 3906   1.802   2.682   2.399  0.3163  1.6784  1.2414
  977SOL    HW2 3907   1.803   2.820   2.315  1.2791  0.2933 -0.6629
  977SOL     MW 3908   1.772   2.763   2.377  0.2174  0.1607  0.1986
   3.10000   3.10000   3.10000
