977 TIP4P/2005f water molecules t=   1.45000 step= 1450
 3908
    1SOL     OW    1   0.364   0.877   0.062 -0.3770  0.1581  0.8524
    1SOL    HW1    2   0.322   0.905  -0.018  1.3702 -0.9756  1.6139
    1SOL    HW2    3   0.332   0.788   0.055  1.1002 -0.2011 -2.3023
    1SOL     MW    4   0.354   0.869   0.050  0.0484 -0.0389  0.5366
    2SOL     OW    5   0.309   3.054   1.111 -0.5992 -0.4583 -0.3184
    2SOL    HW1    6   0.357   3.129   1.078 -2.3689  0.7247 -0.6546
    2SOL    HW2    7   0.218   3.078   1.119  1.1465  1.4599 -1.0048
    2SOL     MW    8   0.303   3.067   1.108 -0.6023 -0.0491 -0.4533
    3SOL     OW    9   2.645   0.330   0.970 -0.2903  0.5040 -0.2870
    3SOL    HW1   10   2.674   0.405   0.917 -1.9067 -4.3402  0.7611
    3SOL    HW2   11   2.627   0.367   1.053  1.7713  1.2667  1.2706
    3SOL     MW   12   2.646   0.345   0.974 -0.2315 -0.0345  0.0568
    4SOL     OW   13   3.071   1.731   0.550 -0.0850 -0.4508 -0.6585
    4SOL    HW1   14   3.013   1.780   0.491  0.3286  0.8797 -1.9980
    4SOL    HW2   15   3.134   1.691   0.493  1.5756  1.8522  1.2241
    4SOL     MW   16   3.072   1.732   0.535  0.1887  0.0286 -0.5868
    5SOL     OW   17   1.638   1.481   0.626  0.3918 -0.4090 -0.2881
    5SOL    HW1   18   1.657   1.412   0.686 -0.3031 -1.0927  1.9569
    5SOL    HW2   19   1.540   1.493   0.654 -3.6149  0.5536  0.5493
    5SOL     MW   20   1.628   1.473   0.637 -0.2286 -0.3722  0.1186
    6SOL     OW   21   0.792   1.417   0.600  0.1825  0.4674  0.2873
    6SOL    HW1   22   0.699   1.430   0.604 -1.1348  0.7124 -0.9333
    6SOL    HW2   23   0.795   1.335   0.642  1.5589  1.9210 -2.1439
    6SOL     MW   24   0.780   1.408   0.606  0.1903  0.6915 -0.1945
    7SOL     OW   25   1.987   1.060   0.013 -0.4126 -0.4281  0.0331
    7SOL    HW1   26   2.055   1.120  -0.019  2.3571  2.8019  0.9748
    7SOL    HW2   27   2.009   1.051   0.105 -1.1185  1.0513  0.0593
    7SOL     MW   28   1.999   1.067   0.021 -0.1403  0.1932  0.1608
    8SOL     OW   29   0.781   1.510   1.169  0.0655 -0.2414 -0.3170
    8SOL    HW1   30   0.876   1.506   1.194 -0.5513 -0.7879 -1.1303
    8SOL    HW2   31   0.759   1.417   1.168  0.0622  0.0191  3.3474
    8SOL     MW   32   0.791   1.497   1.172 -0.0163 -0.2791  0.0592
    9SOL     OW   33   1.026   0.462   1.332 -0.1191 -0.0483 -0.7315
    9SOL    HW1   34   0.953   0.398   1.307  2.4861 -0.9213 -2.5970
    9SOL    HW2   35   1.052   0.430   1.419 -3.4925 -1.1935  1.4188
    9SOL     MW   36   1.020   0.449   1.340 -0.2204 -0.3146 -0.6940
   10SOL     OW   37   0.275   0.828   0.515  0.2905  1.0072  0.1057
   10SOL    HW1   38   0.343   0.887   0.482  1.8271 -0.1585  1.8209
   10SOL    HW2   39   0.242   0.862   0.599  0.6524 -2.4578  0.2915
   10SOL     MW   40   0.279   0.840   0.521  0.5410  0.3963  0.3565
   11SOL     OW   41   0.762   1.139   1.581 -0.2779 -0.2365 -0.1751
   11SOL    HW1   42   0.833   1.129   1.654  1.8398 -1.6521 -0.3170
   11SOL    HW2   43   0.801   1.080   1.515  1.9711 -0.2636 -3.1307
   11SOL     MW   44   0.776   1.130   1.582  0.2982 -0.4269 -0.5838
   12SOL     OW   45   3.051   1.130   0.864  0.6117 -0.1268  0.1288
   12SOL    HW1   46   3.102   1.201   0.897  0.7800  0.2173  1.5654
   12SOL    HW2   47   3.019   1.173   0.781 -0.4371  2.4198 -2.4978
   12SOL     MW   48   3.053   1.145   0.857  0.4956  0.2546 -0.0282
   13SOL     OW   49   1.837   1.418   1.275  0.5490 -0.2382 -0.4836
   13SOL    HW1   50   1.883   1.371   1.208 -0.1069  1.3725  2.6285
   13SOL    HW2   51   1.858   1.513   1.263 -1.3261 -0.3696  0.1223
   13SOL     MW   52   1.846   1.424   1.264  0.2151 -0.0430  0.0069
   14SOL     OW   53   0.566   0.324   1.856  0.2343  0.5370  1.0646
   14SOL    HW1   54   0.490   0.277   1.814 -0.8845 -0.7635  0.3149
   14SOL    HW2   55   0.627   0.336   1.780 -2.4336 -0.1293 -1.3208
   14SOL     MW   56   0.564   0.320   1.840 -0.2653  0.2775  0.6510
   15SOL     OW   57   1.993   0.359   1.058 -0.0049  0.5217  0.2659
   15SOL    HW1   58   2.053   0.409   1.112 -0.3829 -0.4558  0.1347
   15SOL    HW2   59   2.042   0.369   0.975 -0.3203 -1.3321  0.6714
   15SOL     MW   60   2.008   0.367   1.054 -0.0964  0.1481  0.3020
   16SOL     OW   61   0.238   1.818   0.264  0.1998  0.0059 -0.7666
   16SOL    HW1   62   0.324   1.778   0.284 -0.5377  1.7484 -0.6399
   16SOL    HW2   63   0.237   1.905   0.307 -0.6810  2.3086 -1.9873
   16SOL     MW   64   0.250   1.824   0.273 -0.0137  0.5396 -0.9110
   17SOL     OW   65   1.076   0.895   1.415 -0.2341  0.8147 -0.1595
   17SOL    HW1   66   1.109   0.858   1.502  1.3304 -0.0003 -0.7652
   17SOL    HW2   67   0.984   0.869   1.403  0.4838 -0.3491 -0.0671
   17SOL     MW   68   1.068   0.887   1.425  0.0670  0.5536 -0.2272
   18SOL     OW   69   0.134   1.587   0.354 -0.7582  0.3091  0.0201
   18SOL    HW1   70   0.163   1.678   0.336  2.0300  2.4421  1.6881
   18SOL    HW2   71   0.126   1.551   0.261 -0.1398 -0.0558 -3.6487
   18SOL     MW   72   0.137   1.594   0.339 -0.3087  0.5424 -0.2439
   19SOL     OW   73   0.088   1.388   0.940 -0.2847 -0.2856 -0.3047
   19SOL    HW1   74   0.131   1.397   0.854  0.8614  0.5160 -0.7061
   19SOL    HW2   75  -0.000   1.427   0.946  3.1742 -0.1552 -0.3723
   19SOL     MW   76   0.082   1.394   0.929  0.3229 -0.1627 -0.3666
   20SOL     OW   77   0.429   2.166   1.227  0.1553 -0.3388  0.5011
   20SOL    HW1   78   0.404   2.075   1.198 -3.0793 -2.2710  1.2582
   20SOL    HW2   79   0.427   2.166   1.324 -0.6633  3.1614  0.8892
   20SOL     MW   80   0.425   2.154   1.236 -0.3795 -0.1319  0.6522
   21SOL     OW   81   0.520   0.888   0.425  0.6880 -0.0259  0.5641
   21SOL    HW1   82   0.602   0.854   0.456 -0.0598 -2.6394  1.5832
   21SOL    HW2   83   0.539   0.900   0.336 -0.3841 -3.3745 -0.0814
   21SOL     MW   84   0.534   0.885   0.417  0.4479 -0.8126  0.6134
   22SOL     OW   85   1.582   0.710   0.968  0.5431 -0.2234  0.5759
   22SOL    HW1   86   1.574   0.664   0.889  1.5233 -0.8037 -0.1253
   22SOL    HW2   87   1.500   0.752   0.976  0.1494  1.0704  1.6241
   22SOL     MW   88   1.570   0.710   0.959  0.6205 -0.1293  0.6217
   23SOL     OW   89   3.077   0.712   0.693  0.2679  0.7158  0.3588
   23SOL    HW1   90   3.128   0.638   0.726 -2.8292 -0.1436 -0.2569
   23SOL    HW2   91   3.141   0.785   0.697 -1.0356  0.9097  1.8837
   23SOL     MW   92   3.092   0.712   0.698 -0.3127  0.6280  0.4788
   24SOL     OW   93   2.087   2.193  -0.003  0.3173  0.5254  0.9526
   24SOL    HW1   94   2.102   2.215   0.088  1.0038 -0.6974 -1.3897
   24SOL    HW2   95   2.103   2.100  -0.024  2.2121  1.2068  2.0239
   24SOL     MW   96   2.091   2.183   0.006  0.6579  0.4540  0.7849
   25SOL     OW   97   0.235   1.342   0.419 -0.1545 -0.3426  0.2333
   25SOL    HW1   98   0.202   1.434   0.394 -0.8284  0.0996 -2.2864
   25SOL    HW2   99   0.309   1.320   0.366 -2.5549  0.5593  1.1112
   25SOL     MW  100   0.241   1.351   0.409 -0.5601 -0.1653  0.0167
   26SOL     OW  101   2.040   1.008   0.300 -0.1535  0.0983  0.9159
   26SOL    HW1  102   1.964   1.010   0.357 -0.1002 -1.4063 -0.8165
   26SOL    HW2  103   2.090   1.083   0.313 -1.5136 -4.0221 -2.7541
   26SOL     MW  104   2.037   1.018   0.309 -0.3259 -0.6439  0.2031
   27SOL     OW  105   1.864   1.366   0.178 -0.0443 -0.7793 -0.7579
   27SOL    HW1  106   1.797   1.435   0.182  0.1688 -0.2255 -2.9340
   27SOL    HW2  107   1.920   1.389   0.254 -0.7647  0.1771 -0.4682
   27SOL     MW  108   1.862   1.378   0.189 -0.1112 -0.5801 -1.0068
   28SOL     OW  109   0.464   0.969   2.007 -0.5520 -0.4371 -0.2804
   28SOL    HW1  110   0.512   0.927   2.077 -2.0739  1.2294 -0.5651
   28SOL    HW2  111   0.379   0.929   2.019  0.4616  2.1670 -0.9539
   28SOL     MW  112   0.459   0.958   2.018 -0.6190  0.1264 -0.4068
   29SOL     OW  113   0.262   1.390   0.705  0.1814 -0.3921  0.3027
   29SOL    HW1  114   0.263   1.487   0.722  0.6485  1.9735  2.0218
   29SOL    HW2  115   0.218   1.381   0.617 -0.9255  0.1278  1.0211
   29SOL     MW  116   0.256   1.401   0.695  0.0970 -0.0114  0.6243
   30SOL     OW  117   0.801   1.243   1.229  0.6253 -0.1883  0.4185
   30SOL    HW1  118   0.709   1.255   1.257  0.6835  0.0217  1.6551
   30SOL    HW2  119   0.841   1.197   1.299 -3.7898  2.3424 -1.2749
   30SOL     MW  120   0.794   1.239   1.242  0.0505  0.1733  0.3582
   31SOL     OW  121   0.461   0.287   0.145  0.2308 -0.0577 -0.3882
   31SOL    HW1  122   0.460   0.208   0.201 -2.6594  0.6091  0.2770
   31SOL    HW2  123   0.510   0.250   0.069 -0.7809 -3.0664  0.4073
   31SOL     MW  124   0.467   0.272   0.142 -0.2840 -0.3667 -0.1955
   32SOL     OW  125   2.689   0.985   1.152  0.2201  0.3416  0.4575
   32SOL    HW1  126   2.643   0.898   1.137 -1.1538 -2.0853 -1.3789
   32SOL    HW2  127   2.777   0.973   1.124 -1.0716  0.4286  0.3203
   32SOL     MW  128   2.694   0.972   1.147 -0.1316  0.0329  0.1971
   33SOL     OW  129   1.642   1.314   0.410  0.2488 -0.2501  0.3931
   33SOL    HW1  130   1.703   1.239   0.429  2.4014 -0.5397  0.5256
   33SOL    HW2  131   1.630   1.371   0.486 -0.1406 -0.3768 -1.0242
   33SOL     MW  132   1.649   1.312   0.423  0.4815 -0.3050  0.2236
   34SOL     OW  133   1.215   1.945   1.130 -0.1675 -0.4429  0.4463
   34SOL    HW1  134   1.128   1.978   1.138  3.2344  0.7368 -0.3373
   34SOL    HW2  135   1.268   1.989   1.197  0.4289  1.7094  3.1225
   34SOL     MW  136   1.210   1.955   1.140  0.3600 -0.0033  0.6960
   35SOL     OW  137   0.316   0.158   1.825 -0.1777  0.3103  0.3369
   35SOL    HW1  138   0.365   0.114   1.894  0.3284 -0.8024 -1.7341
   35SOL    HW2  139   0.340   0.111   1.743  0.3754  1.7565  0.1518
   35SOL     MW  140   0.325   0.146   1.823 -0.0379  0.3543  0.0393
   36SOL     OW  141   1.930   1.929   0.592 -0.2541  0.4805 -0.0094
   36SOL    HW1  142   1.918   1.927   0.497  0.8755  0.7834 -1.3225
   36SOL    HW2  143   1.909   1.841   0.633  2.0211  0.3588 -0.2427
   36SOL     MW  144   1.926   1.917   0.584  0.1951  0.5044 -0.2134
   37SOL     OW  145   1.828   2.013   1.031  0.7135  0.1889  0.3751
   37SOL    HW1  146   1.750   1.978   0.990 -1.2597  3.3528  2.2076
   37SOL    HW2  147   1.786   2.078   1.091 -2.9305  0.1332 -0.5277
   37SOL     MW  148   1.812   2.017   1.033 -0.0276  0.5990  0.4978
   38SOL     OW  149   2.833   0.906   0.143  1.0298  0.6373  0.7371
   38SOL    HW1  150   2.852   0.913   0.240 -3.2767  2.4111 -0.4339
   38SOL    HW2  151   2.919   0.899   0.096  1.4816 -2.2562 -0.5116
   38SOL     MW  152   2.846   0.906   0.150  0.5212  0.4896  0.4179
   39SOL     OW  153   1.471   0.576   0.744  0.3822  0.6476 -0.2603
   39SOL    HW1  154   1.411   0.504   0.761  1.7082 -1.3233  0.7112
   39SOL    HW2  155   1.411   0.650   0.733  0.2425  2.6131 -0.8388
   39SOL     MW  156   1.455   0.577   0.745  0.5387  0.6469 -0.2085
   40SOL     OW  157   1.269   1.891   0.266  0.2430  0.7782  0.3674
   40SOL    HW1  158   1.303   1.824   0.320 -1.8726 -1.8383 -1.9404
   40SOL    HW2  159   1.226   1.951   0.331 -0.4861 -1.6614  1.6456
   40SOL     MW  160   1.268   1.890   0.282 -0.1323  0.1111  0.2316
   41SOL     OW  161   0.579   0.526   1.622 -0.5028  0.2789 -0.0891
   41SOL    HW1  162   0.644   0.579   1.575 -0.5990  3.2230  0.0260
   41SOL    HW2  163   0.504   0.572   1.606 -0.0650  1.0194  0.4902
   41SOL     MW  164   0.578   0.539   1.613 -0.4577  0.7651  0.0025
   42SOL     OW  165   1.277   3.007   1.940 -0.5175  0.1527 -0.0151
   42SOL    HW1  166   1.193   3.004   1.990 -0.0575 -1.5909 -0.2532
   42SOL    HW2  167   1.334   2.935   1.963  1.4835  1.5853 -2.0966
   42SOL     MW  168   1.274   2.997   1.950 -0.1928  0.1117 -0.3212
   43SOL     OW  169   1.497   0.140   1.682  0.1287 -0.1094  0.5323
   43SOL    HW1  170   1.580   0.104   1.650  1.0066  0.7470 -2.0849
   43SOL    HW2  171   1.435   0.080   1.650  0.6312 -0.2912  2.3161
   43SOL     MW  172   1.499   0.127   1.674  0.3108 -0.0204  0.4224
   44SOL     OW  173   1.282   0.740   1.068 -0.2644  0.3870 -0.1855
   44SOL    HW1  174   1.241   0.829   1.056 -2.4774  1.5133 -1.9476
   44SOL    HW2  175   1.308   0.721   1.158  0.8205  0.2448  0.5555
   44SOL     MW  176   1.280   0.749   1.078 -0.4132  0.5168 -0.3202
   45SOL     OW  177   1.277   0.762   0.770  0.0104  0.0731 -0.1434
   45SOL    HW1  178   1.238   0.760   0.857  0.5020  1.3955 -0.1423
   45SOL    HW2  179   1.207   0.742   0.694 -1.3842  0.2243 -1.6117
   45SOL     MW  180   1.263   0.759   0.772 -0.1087  0.2675 -0.3370
   46SOL     OW  181   0.515   1.110   0.648 -0.1759 -0.2002 -0.0449
   46SOL    HW1  182   0.498   1.096   0.554 -1.6502 -0.7865 -1.3763
   46SOL    HW2  183   0.595   1.162   0.658  0.4428  1.8468  0.5139
   46SOL     MW  184   0.523   1.115   0.637 -0.2888 -0.0075 -0.1468
   47SOL     OW  185   0.167   1.971   1.958 -0.6376 -0.0156  0.1783
   47SOL    HW1  186   0.117   1.925   1.893 -0.0376 -0.4971 -0.8519
   47SOL    HW2  187   0.154   1.934   2.042 -2.2280  1.4699 -0.7963
   47SOL     MW  188   0.158   1.960   1.960 -0.7683  0.1169 -0.0862
   48SOL     OW  189   1.161   0.504   1.016  0.5764 -0.1829  0.1382
   48SOL    HW1  190   1.065   0.518   1.025 -2.2751 -0.8283 -2.3959
   48SOL    HW2  191   1.200   0.588   1.048  0.8969  1.8047  1.2312
   48SOL     MW  192   1.153   0.517   1.021  0.2424 -0.0058 -0.0519
   49SOL     OW  193   1.690   0.628   1.539 -0.1341  0.1155  0.5590
   49SOL    HW1  194   1.711   0.581   1.619  0.5237  2.4121  1.4021
   49SOL    HW2  195   1.725   0.578   1.468  1.2534  0.6497  1.5367
   49SOL     MW  196   1.697   0.615   1.540  0.1358  0.4890  0.7993
   50SOL     OW  197   1.264   1.207   0.588  0.3079  0.9130  0.2064
   50SOL    HW1  198   1.215   1.188   0.677 -3.4319  1.3477  2.3249
   50SOL    HW2  199   1.330   1.141   0.591 -0.4546  2.9807 -1.0742
   50SOL     MW  200   1.266   1.196   0.600 -0.2861  1.2431  0.3169
   51SOL     OW  201   0.319   2.909   0.888 -0.4279 -0.1089 -0.4412
   51SOL    HW1  202   0.407   2.859   0.883  0.3460  0.9257 -1.3086
   51SOL    HW2  203   0.310   2.964   0.969 -0.3383  2.0668 -0.4371
   51SOL     MW  204   0.329   2.910   0.898 -0.3140  0.3147 -0.5551
   52SOL     OW  205   0.813   1.836   0.467  0.1143  0.1531 -0.3040
   52SOL    HW1  206   0.764   1.922   0.474 -0.0521 -0.1683  1.0001
   52SOL    HW2  207   0.808   1.801   0.378 -1.2696 -1.4972  1.3300
   52SOL     MW  208   0.806   1.843   0.456 -0.0903 -0.1070  0.0837
   53SOL     OW  209   0.434   2.153   0.485  0.1430  0.2297  0.0774
   53SOL    HW1  210   0.346   2.138   0.456 -0.4203 -0.9963  1.7548
   53SOL    HW2  211   0.426   2.239   0.528  0.1429 -0.0574 -1.3849
   53SOL     MW  212   0.421   2.162   0.487  0.0687  0.0301  0.1058
   54SOL     OW  213   2.064   0.946   0.767 -0.3220  0.4398 -0.3838
   54SOL    HW1  214   2.107   0.933   0.683  2.1177 -0.1339  0.6927
   54SOL    HW2  215   2.027   0.858   0.786 -1.4561  1.3675 -1.8530
   54SOL     MW  216   2.065   0.932   0.758 -0.1498  0.4865 -0.4356
   55SOL     OW  217   0.501   1.559   1.667 -0.1089  0.0519  0.4560
   55SOL    HW1  218   0.443   1.603   1.605 -0.1923 -0.5818  4.2308
   55SOL    HW2  219   0.559   1.491   1.626 -3.2258 -1.2793  1.1477
   55SOL     MW  220   0.501   1.556   1.653 -0.5312 -0.2073  1.0453
   56SOL     OW  221   0.630   0.880   0.163  0.5104  0.1061  0.3742
   56SOL    HW1  222   0.691   0.952   0.182  1.3166  0.7521  1.3762
   56SOL    HW2  223   0.556   0.914   0.113 -0.9291 -1.5319  1.5862
   56SOL     MW  224   0.629   0.894   0.159  0.4268 -0.0248  0.6663
   57SOL     OW  225   1.158   1.240   1.169 -0.8654  0.4472 -0.3733
   57SOL    HW1  226   1.237   1.279   1.198 -0.1235 -1.5708 -0.0187
   57SOL    HW2  227   1.116   1.214   1.254  0.4020  3.0239  2.0484
   57SOL     MW  228   1.163   1.242   1.184 -0.6003  0.5209 -0.0070
   58SOL     OW  229   0.540   1.255   1.276 -0.5860  0.0705  0.1831
   58SOL    HW1  230   0.494   1.339   1.267 -1.4000  1.8363 -3.0843
   58SOL    HW2  231   0.532   1.252   1.370 -1.9483  1.0497 -0.8657
   58SOL     MW  232   0.533   1.265   1.287 -0.8731  0.4326 -0.3864
   59SOL     OW  233   1.472   1.668   0.326 -0.4905 -0.1575  0.0938
   59SOL    HW1  234   1.521   1.719   0.386  1.2272 -0.4189 -1.5381
   59SOL    HW2  235   1.404   1.630   0.378 -1.5066  1.4763 -0.2384
   59SOL     MW  236   1.469   1.670   0.341 -0.3979  0.0236 -0.1653
   60SOL     OW  237   3.067   0.164   1.709 -0.4987  0.3981 -0.3753
   60SOL    HW1  238   3.000   0.229   1.746 -1.9364 -0.9727  1.9406
   60SOL    HW2  239   3.083   0.098   1.775  1.1169 -2.2263  2.1355
   60SOL     MW  240   3.060   0.164   1.723 -0.4752 -0.1291  0.2615
   61SOL     OW  241   1.977   1.380   3.018 -0.1301  0.2299  0.4490
   61SOL    HW1  242   1.966   1.342   3.110 -1.4306 -1.8387 -0.8271
   61SOL    HW2  243   2.036   1.313   2.983 -0.7569 -2.5451 -1.0979
   61SOL     MW  244   1.983   1.366   3.025 -0.3844 -0.4092  0.0766
   62SOL     OW  245   0.537   1.738   0.549  0.1195 -0.0862  0.4794
   62SOL    HW1  246   0.630   1.744   0.551  0.0255  1.3750  1.9500
   62SOL    HW2  247   0.504   1.651   0.533  0.8640  2.8872 -0.0359
   62SOL     MW  248   0.545   1.727   0.547  0.2053  0.4989  0.6054
   63SOL     OW  249   1.724   0.656   0.652 -0.3587  0.2559 -0.1287
   63SOL    HW1  250   1.714   0.749   0.627  0.6796  0.8190 -2.4240
   63SOL    HW2  251   1.634   0.626   0.681  0.1953  0.4729  1.1819
   63SOL     MW  252   1.711   0.664   0.653 -0.1486  0.3588 -0.2586
   64SOL     OW  253   0.258   1.659   0.758 -0.5003 -0.2319 -0.0449
   64SOL    HW1  254   0.337   1.699   0.797  1.0810 -2.5373  0.8013
   64SOL    HW2  255   0.184   1.716   0.779 -0.3556 -3.0312 -0.6367
   64SOL     MW  256   0.259   1.672   0.766 -0.2726 -0.9054 -0.0113
   65SOL     OW  257   1.549   2.308   0.362 -0.5179  0.0306 -0.4225
   65SOL    HW1  258   1.639   2.323   0.393 -1.3246 -2.0869  1.5130
   65SOL    HW2  259   1.491   2.355   0.426 -3.1129  3.9846  0.2821
   65SOL     MW  260   1.553   2.316   0.374 -0.9667  0.2729 -0.0742
   66SOL     OW  261   0.345   0.573   0.481 -0.3156  0.1400  0.0431
   66SOL    HW1  262   0.416   0.578   0.417 -1.4416 -0.8888 -0.2527
   66SOL    HW2  263   0.337   0.671   0.508  1.8672  1.3058 -0.9553
   66SOL     MW  264   0.353   0.586   0.476 -0.1762  0.1581 -0.1276
   67SOL     OW  265   1.473   0.089   1.965 -0.0673 -0.5730 -0.4202
   67SOL    HW1  266   1.476   0.141   1.887  2.9570 -2.1840  0.6384
   67SOL    HW2  267   1.412   0.016   1.940 -1.8107 -1.5833 -0.2644
   67SOL     MW  268   1.465   0.087   1.951  0.1017 -0.9189 -0.2599
   68SOL     OW  269   0.769  -0.002   2.977  0.2145 -0.2419 -0.0099
   68SOL    HW1  270   0.801   0.052   2.907  0.6149  1.3379  3.3151
   68SOL    HW2  271   0.850  -0.009   3.028 -1.4994 -1.3985 -1.7006
   68SOL     MW  272   0.784   0.004   2.975  0.0412 -0.1861  0.2057
   69SOL     OW  273   0.951   0.192   1.959 -0.0068  0.1415  0.0054
   69SOL    HW1  274   1.034   0.230   1.992  0.8810 -0.5210 -2.1813
   69SOL    HW2  275   0.944   0.105   2.002  0.5916 -0.2044  3.9044
   69SOL     MW  276   0.961   0.186   1.969  0.1893  0.0085  0.2313
   70SOL     OW  277   0.479   1.702   1.075  0.2068  0.4121 -0.1129
   70SOL    HW1  278   0.552   1.742   1.121 -2.4428  3.0397 -1.3129
   70SOL    HW2  279   0.515   1.629   1.020  0.2321 -0.5009  0.8609
   70SOL     MW  280   0.494   1.698   1.073 -0.1394  0.6383 -0.1427
   71SOL     OW  281   1.495   0.549   1.180 -0.8398 -0.0874 -0.0397
   71SOL    HW1  282   1.496   0.612   1.250  0.2606  0.4977 -1.0923
   71SOL    HW2  283   1.538   0.602   1.112  1.6335 -0.2734  0.7769
   71SOL     MW  284   1.501   0.565   1.180 -0.3683 -0.0347 -0.0709
   72SOL     OW  285   0.756   1.864   1.014 -0.4875 -0.0446  0.3977
   72SOL    HW1  286   0.733   1.946   0.973 -1.4703 -2.5979 -1.1474
   72SOL    HW2  287   0.777   1.806   0.944  1.0827 -1.5795  1.1222
   72SOL     MW  288   0.756   1.867   1.000 -0.4100 -0.5840  0.2895
   73SOL     OW  289   1.229   0.678   1.335  0.0151 -0.1954  0.3130
   73SOL    HW1  290   1.183   0.600   1.330  1.1113 -2.3517 -1.1201
   73SOL    HW2  291   1.172   0.752   1.366 -0.0913  0.7167  2.0008
   73SOL     MW  292   1.215   0.678   1.339  0.1457 -0.3596  0.3466
   74SOL     OW  293   2.885   0.225   1.055  0.2963 -0.6271  0.0177
   74SOL    HW1  294   2.918   0.157   0.991  2.6121 -1.9855 -1.0027
   74SOL    HW2  295   2.821   0.282   1.009 -1.1808 -1.8521 -2.2757
   74SOL     MW  296   2.881   0.224   1.041  0.4069 -0.9680 -0.4195
   75SOL     OW  297   1.586   1.324   0.109  0.2500  0.3661  0.1461
   75SOL    HW1  298   1.662   1.269   0.080 -0.6436  0.8468  0.8288
   75SOL    HW2  299   1.606   1.346   0.203 -0.3304 -1.0199 -0.6031
   75SOL     MW  300   1.598   1.320   0.117  0.0555  0.2467  0.1373
   76SOL     OW  301   2.990   0.619   0.460 -0.0994  0.9279 -0.4070
   76SOL    HW1  302   3.026   0.642   0.548 -2.3391 -0.1046  1.0277
   76SOL    HW2  303   3.063   0.567   0.424 -2.0101  0.3538  0.9313
   76SOL     MW  304   3.005   0.615   0.467 -0.6470  0.7159 -0.0411
   77SOL     OW  305   0.903   0.568   0.409 -0.3495  0.5529 -0.4787
   77SOL    HW1  306   0.874   0.576   0.321 -0.2136  0.3989 -0.4937
   77SOL    HW2  307   0.908   0.477   0.434 -0.6337  1.6038 -0.3970
   77SOL     MW  308   0.900   0.557   0.401 -0.3690  0.6712 -0.4699
   78SOL     OW  309   0.749   0.872   1.144 -0.7303 -0.2160  0.1490
   78SOL    HW1  310   0.797   0.947   1.096  1.5253  1.3373 -0.9804
   78SOL    HW2  311   0.659   0.875   1.121 -0.7608 -1.4186  2.5924
   78SOL     MW  312   0.744   0.882   1.135 -0.4367 -0.1697  0.3224
   79SOL     OW  313   1.876   1.644   0.612 -0.6515 -0.6785 -0.5287
   79SOL    HW1  314   1.794   1.600   0.589 -2.6036 -0.7196 -2.3054
   79SOL    HW2  315   1.876   1.636   0.708  1.1558  0.8647 -2.2047
   79SOL     MW  316   1.865   1.637   0.622 -0.6706 -0.4803 -0.9843
   80SOL     OW  317   0.067   0.960   0.375 -0.1960  0.7009  0.0805
   80SOL    HW1  318  -0.013   0.912   0.384  1.9233 -1.0796 -0.7522
   80SOL    HW2  319   0.132   0.912   0.422 -0.0620 -1.8046 -1.8619
   80SOL     MW  320   0.065   0.947   0.382  0.1013  0.1354 -0.2857
   81SOL     OW  321   1.858   1.871   0.330 -0.2379 -0.7081  0.4371
   81SOL    HW1  322   1.837   1.787   0.295 -0.1152 -3.4245 -0.1067
   81SOL    HW2  323   1.816   1.937   0.269 -0.6952  0.0477 -0.1547
   81SOL     MW  324   1.850   1.869   0.317 -0.2820 -0.9668  0.2872
   82SOL     OW  325   0.871   1.032   0.511  0.2153 -0.2314  0.0459
   82SOL    HW1  326   0.870   1.055   0.418 -0.9353 -1.1497 -0.6655
   82SOL    HW2  327   0.830   0.941   0.507  1.3571 -2.1900  2.5988
   82SOL     MW  328   0.866   1.023   0.498  0.2141 -0.6109  0.2889
   83SOL     OW  329   0.048   0.752   1.484 -0.0567  0.5795 -0.2313
   83SOL    HW1  330   0.030   0.812   1.410 -2.4359  1.3720 -2.1634
   83SOL    HW2  331   0.128   0.704   1.473  2.7712  1.1653  1.3363
   83SOL     MW  332   0.056   0.754   1.473  0.0025  0.7614 -0.2794
   84SOL     OW  333   0.040   0.203   0.897 -0.1004 -0.1768 -0.0449
   84SOL    HW1  334   0.005   0.291   0.925 -0.3901  0.9470  1.1275
   84SOL    HW2  335   0.034   0.145   0.976  0.3847  0.2392  2.9428
   84SOL     MW  336   0.034   0.207   0.911 -0.0746  0.0264  0.5040
   85SOL     OW  337   0.394   0.442   0.711  0.1632  0.2713  0.2293
   85SOL    HW1  338   0.390   0.468   0.622 -0.5726 -0.3958  1.8266
   85SOL    HW2  339   0.353   0.355   0.721 -0.1951  1.7602  0.7267
   85SOL     MW  340   0.388   0.434   0.700  0.0188  0.3797  0.5057
   86SOL     OW  341   1.190   0.247   1.144  0.4366  0.1343  0.3453
   86SOL    HW1  342   1.170   0.337   1.122  0.7379 -0.9077 -1.3533
   86SOL    HW2  343   1.280   0.237   1.172  1.8328  0.1825  3.2867
   86SOL     MW  344   1.200   0.257   1.144  0.6606  0.0032  0.5092
   87SOL     OW  345   1.053   1.498   1.208 -0.2783  0.4302 -0.1937
   87SOL    HW1  346   1.102   1.560   1.158 -1.8407 -1.3841  1.2226
   87SOL    HW2  347   1.087   1.412   1.183  2.5684 -0.5279 -0.8852
   87SOL     MW  348   1.064   1.495   1.198 -0.1088  0.0644 -0.0981
   88SOL     OW  349   1.241   1.022   0.997  0.5037 -0.0859  0.0839
   88SOL    HW1  350   1.332   1.044   0.982 -0.1713  1.5985  0.6554
   88SOL    HW2  351   1.208   1.093   1.058 -0.6072 -0.6500  3.6765
   88SOL     MW  352   1.249   1.034   1.003  0.2681  0.0619  0.6333
   89SOL     OW  353   1.738   0.728   0.363  0.4110  0.0136 -0.9113
   89SOL    HW1  354   1.707   0.639   0.374 -1.6742  0.0013 -1.5288
   89SOL    HW2  355   1.837   0.724   0.357  1.0337 -1.1063  0.1978
   89SOL     MW  356   1.747   0.716   0.364  0.2180 -0.1358 -0.8464
   90SOL     OW  357   0.858   1.161   2.879  0.1503  0.7902 -0.2247
   90SOL    HW1  358   0.859   1.062   2.880  0.3470  1.9106  0.1891
   90SOL    HW2  359   0.875   1.206   2.966  0.9941 -0.5176 -0.3063
   90SOL     MW  360   0.860   1.154   2.891  0.2876  0.7655 -0.1809
   91SOL     OW  361   2.200   0.661   0.451 -0.2386  0.1048  0.0885
   91SOL    HW1  362   2.274   0.669   0.381 -1.6670 -0.9232 -2.5859
   91SOL    HW2  363   2.175   0.572   0.438  0.8500  2.1728  0.3187
   91SOL     MW  364   2.206   0.650   0.440 -0.2835  0.2420 -0.2339
   92SOL     OW  365   1.651   0.920   0.571 -0.0769  0.0952  0.1735
   92SOL    HW1  366   1.562   0.933   0.612  1.2338  0.0139  2.1879
   92SOL    HW2  367   1.640   0.874   0.487 -0.3860  1.3385  1.3148
   92SOL     MW  368   1.638   0.916   0.565  0.0552  0.2485  0.5899
   93SOL     OW  369   1.134   0.200   0.406 -0.2200 -0.0350  0.1003
   93SOL    HW1  370   1.052   0.223   0.443  0.1210 -4.2283  0.2406
   93SOL    HW2  371   1.127   0.244   0.319  0.2867  1.9559 -0.1339
   93SOL     MW  372   1.122   0.209   0.400 -0.1082 -0.3256  0.0879
   94SOL     OW  373   1.861   1.377   1.588 -0.0981  0.2128 -0.4923
   94SOL    HW1  374   1.863   1.367   1.495  1.1124  2.2367 -2.5546
   94SOL    HW2  375   1.817   1.300   1.623  0.8107  0.9786 -0.0066
   94SOL     MW  376   1.855   1.366   1.581  0.1816  0.5809 -0.7003
   95SOL     OW  377   0.635   1.538   0.914 -0.1889 -0.8551 -0.2502
   95SOL    HW1  378   0.712   1.509   0.966 -0.0574  0.9196 -3.2517
   95SOL    HW2  379   0.599   1.456   0.873 -0.5693 -0.5322 -0.2884
   95SOL     MW  380   0.641   1.523   0.915 -0.2217 -0.5783 -0.6513
   96SOL     OW  381   1.329   1.867   1.727  0.2299 -0.1243  0.1396
   96SOL    HW1  382   1.242   1.861   1.764 -1.8179 -2.5051 -1.3504
   96SOL    HW2  383   1.332   1.779   1.690 -1.8424 -1.4911  0.9315
   96SOL     MW  384   1.318   1.855   1.727 -0.3137 -0.6188  0.0475
   97SOL     OW  385   1.113   1.458   0.870 -0.4339 -0.0307  0.7172
   97SOL    HW1  386   1.171   1.528   0.898  1.0691 -0.2267 -0.4239
   97SOL    HW2  387   1.034   1.503   0.843 -2.1148  0.6681  0.0441
   97SOL     MW  388   1.110   1.473   0.870 -0.4574  0.0356  0.4778
   98SOL     OW  389   1.422   1.355   1.152 -0.4563  0.2779 -0.2295
   98SOL    HW1  390   1.460   1.396   1.234  0.1079  2.8899 -0.0458
   98SOL    HW2  391   1.426   1.420   1.083  0.8663 -0.7868  2.3767
   98SOL     MW  392   1.427   1.369   1.154 -0.2074  0.4821  0.1386
   99SOL     OW  393   1.444   0.283   1.264 -0.6528  0.1241  0.0868
   99SOL    HW1  394   1.461   0.362   1.213 -1.3700 -1.3972  1.8198
   99SOL    HW2  395   1.458   0.307   1.350  1.1301 -1.2632 -1.1560
   99SOL     MW  396   1.449   0.296   1.269 -0.5122 -0.2597  0.1515
  100SOL     OW  397   1.020   1.167   1.388  0.0024 -0.0077 -0.3915
  100SOL    HW1  398   1.050   1.196   1.476 -0.7591 -0.8591  1.0698
  100SOL    HW2  399   1.046   1.072   1.391  2.3987 -1.5312 -1.8119
  100SOL     MW  400   1.028   1.158   1.400  0.2181 -0.3210 -0.3861
  101SOL     OW  401   0.547   1.178   0.356  0.3579 -0.3769  0.0399
  101SOL    HW1  402   0.485   1.133   0.300  0.4939  1.5120 -0.6852
  101SOL    HW2  403   0.637   1.154   0.336 -1.3423  2.7926  2.1992
  101SOL     MW  404   0.551   1.169   0.346  0.1515  0.2905  0.2292
  102SOL     OW  405   2.891   0.649   1.048 -0.2573  0.2087  0.6538
  102SOL    HW1  406   2.911   0.744   1.046 -0.2827  2.8639 -0.1221
  102SOL    HW2  407   2.832   0.645   1.127  0.5409  1.0696 -1.7135
  102SOL     MW  408   2.886   0.661   1.058 -0.1553  0.6726  0.2391
  103SOL     OW  409   1.831   0.223   1.807 -0.0644  0.1237 -0.5277
  103SOL    HW1  410   1.833   0.130   1.793 -1.0633 -0.8041  0.0186
  103SOL    HW2  411   1.825   0.225   1.902  1.0712 -1.0702  0.7520
  103SOL     MW  412   1.831   0.211   1.818 -0.0463 -0.1563 -0.2868
  104SOL     OW  413   0.106   1.523   1.598 -0.4017  0.0705  0.8222
  104SOL    HW1  414   0.169   1.467   1.642  3.7744 -0.7859 -0.3386
  104SOL    HW2  415   0.012   1.497   1.615 -1.4078 -0.3515 -2.1620
  104SOL     MW  416   0.102   1.512   1.606  0.0165 -0.0982  0.2753
  105SOL     OW  417   3.086   1.222   0.406 -0.1413 -0.0732 -0.1658
  105SOL    HW1  418   3.123   1.131   0.394 -3.3514 -0.6967 -3.2413
  105SOL    HW2  419   3.159   1.278   0.421 -0.3936 -0.9987 -1.6002
  105SOL     MW  420   3.100   1.217   0.406 -0.5982 -0.2776 -0.7609
  106SOL     OW  421   0.758   0.411   0.900 -0.2654 -0.1998  0.0160
  106SOL    HW1  422   0.679   0.464   0.919 -0.9831 -1.6850 -0.1934
  106SOL    HW2  423   0.807   0.456   0.832 -1.4463  1.6999 -2.0639
  106SOL     MW  424   0.754   0.424   0.894 -0.5159 -0.1451 -0.2861
  107SOL     OW  425   0.820   2.110   2.897 -0.6054  0.1058  0.3097
  107SOL    HW1  426   0.728   2.105   2.870  0.9096  3.4215  0.7493
  107SOL    HW2  427   0.824   2.077   2.983 -1.2329 -1.2804 -2.0098
  107SOL     MW  428   0.808   2.105   2.905 -0.4883  0.3604  0.0617
  108SOL     OW  429   1.356   1.602   1.644 -0.0485 -0.1008  0.0504
  108SOL    HW1  430   1.297   1.542   1.588 -0.7794 -0.3037 -1.0292
  108SOL    HW2  431   1.433   1.554   1.638 -1.0870 -0.2520  1.0805
  108SOL     MW  432   1.359   1.588   1.636 -0.2819 -0.1475  0.0439
  109SOL     OW  433   2.017   0.711   0.249 -0.0969 -0.3797  0.3722
  109SOL    HW1  434   2.015   0.806   0.254  0.8763  1.5106 -2.5023
  109SOL    HW2  435   2.077   0.689   0.321  0.9559 -1.6441  0.1352
  109SOL     MW  436   2.024   0.720   0.259  0.1704 -0.2971 -0.0383
  110SOL     OW  437   0.410   1.934   0.712  0.3549  0.1576 -0.0820
  110SOL    HW1  438   0.462   1.866   0.679 -1.5545 -0.1723 -1.0819
  110SOL    HW2  439   0.413   1.999   0.641 -2.3350  0.9943  4.8142
  110SOL     MW  440   0.417   1.934   0.698 -0.2520  0.2244  0.4320
  111SOL     OW  441   0.802   0.892   1.416  0.4023 -0.1519 -0.8119
  111SOL    HW1  442   0.756   0.886   1.333 -0.2000 -0.5922  1.0480
  111SOL    HW2  443   0.797   0.801   1.455  3.3127  1.1009 -0.0439
  111SOL     MW  444   0.795   0.879   1.410  0.7069 -0.0447 -0.4652
  112SOL     OW  445   1.377   1.081   1.617  0.1966 -0.1616 -0.5594
  112SOL    HW1  446   1.308   1.143   1.611  0.8748 -1.2792  2.3706
  112SOL    HW2  447   1.331   0.996   1.624 -1.1816  0.7383  0.4805
  112SOL     MW  448   1.362   1.078   1.617  0.1043 -0.1903 -0.0356
  113SOL     OW  449   1.244   3.066   1.672  0.2100  0.0221 -0.0443
  113SOL    HW1  450   1.263   3.027   1.762  0.6615 -1.8208  1.1470
  113SOL    HW2  451   1.233   2.984   1.620 -1.4479 -0.4592 -0.1083
  113SOL     MW  452   1.245   3.050   1.677  0.0508 -0.2845  0.1045
  114SOL     OW  453   0.262   2.880   1.872  0.3044 -0.0410  0.3044
  114SOL    HW1  454   0.295   2.915   1.950 -0.7367 -0.2727 -1.5663
  114SOL    HW2  455   0.205   2.961   1.851 -2.7358  1.6244 -0.1003
  114SOL     MW  456   0.259   2.895   1.880 -0.2341  0.1482  0.0041
  115SOL     OW  457   0.461   0.795   1.150  0.3646 -0.2411  0.2441
  115SOL    HW1  458   0.496   0.702   1.164  3.1637  0.9665  3.9777
  115SOL    HW2  459   0.428   0.833   1.235 -0.2803 -2.4247 -1.2759
  115SOL     MW  460   0.461   0.788   1.163  0.6488 -0.3699  0.5362
  116SOL     OW  461   0.824   1.101   1.009  0.0572  0.3462 -0.0962
  116SOL    HW1  462   0.851   1.149   0.930  1.8704 -1.1466 -0.8725
  116SOL    HW2  463   0.825   1.149   1.089 -1.5138 -2.8626 -1.4782
  116SOL     MW  464   0.828   1.113   1.009  0.0892 -0.2741 -0.3810
  117SOL     OW  465   1.118   1.184   0.801  0.5443  0.6573  0.4874
  117SOL    HW1  466   1.154   1.131   0.872 -0.3964 -2.6604 -1.8145
  117SOL    HW2  467   1.112   1.283   0.833  1.8706  1.0939 -1.3461
  117SOL     MW  468   1.122   1.190   0.815  0.5952  0.2772 -0.0582
  118SOL     OW  469   3.050   2.958   1.683  0.2648 -0.7668 -0.2878
  118SOL    HW1  470   3.092   2.955   1.768 -0.9998 -1.4310 -2.5707
  118SOL    HW2  471   2.962   2.996   1.700  2.3906 -4.0765  1.8904
  118SOL     MW  472   3.044   2.963   1.697  0.3784 -1.2911 -0.3016
  119SOL     OW  473   0.414   1.512   1.261  0.2686  0.3231  0.1488
  119SOL    HW1  474   0.452   1.556   1.187 -1.3508 -2.0685 -0.4384
  119SOL    HW2  475   0.322   1.493   1.237 -1.6857 -1.3304  2.1207
  119SOL     MW  476   0.407   1.516   1.248 -0.2029 -0.2106  0.3315
  120SOL     OW  477   0.216   0.772   1.015  0.3455 -0.0948 -0.6448
  120SOL    HW1  478   0.171   0.827   1.077  2.1314  1.8611 -0.1989
  120SOL    HW2  479   0.307   0.791   1.030 -0.6343  0.7798  2.8762
  120SOL     MW  480   0.222   0.782   1.025  0.4519  0.2787 -0.1214
  121SOL     OW  481   1.758   1.105   1.659  0.1509 -0.5435  0.1291
  121SOL    HW1  482   1.680   1.098   1.592 -0.5438 -1.7288 -2.0027
  121SOL    HW2  483   1.828   1.052   1.627 -0.8920  0.2018  2.9650
  121SOL     MW  484   1.757   1.097   1.646 -0.0783 -0.6015  0.2220
  122SOL     OW  485   0.178   0.554   0.818 -0.1036 -0.3157  0.3952
  122SOL    HW1  486   0.255   0.513   0.771 -1.9568 -1.6298  0.7451
  122SOL    HW2  487   0.214   0.627   0.872  0.4624  2.8356 -1.7302
  122SOL     MW  488   0.193   0.558   0.819 -0.2734 -0.0733  0.1609
  123SOL     OW  489   1.842   1.104   0.487 -0.0011  0.2998  0.4448
  123SOL    HW1  490   1.773   1.054   0.532 -0.3687  1.6135  0.2020
  123SOL    HW2  491   1.897   1.147   0.556  3.3262 -0.0922 -2.1372
  123SOL     MW  492   1.840   1.103   0.502  0.3894  0.4214  0.0721
  124SOL     OW  493   0.512   0.564   0.940  0.2388 -0.5052  0.2656
  124SOL    HW1  494   0.474   0.525   0.859 -0.4979  1.0487 -2.1237
  124SOL    HW2  495   0.558   0.640   0.904 -1.0566 -0.1208 -0.4609
  124SOL     MW  496   0.513   0.569   0.925 -0.0293 -0.2495 -0.1455
  125SOL     OW  497   0.741   1.774   1.731 -0.1548 -0.2768  0.4223
  125SOL    HW1  498   0.669   1.710   1.724  2.2184 -3.3008 -1.5613
  125SOL    HW2  499   0.691   1.862   1.721 -1.6645 -1.3777  4.2920
  125SOL     MW  500   0.725   1.777   1.729 -0.0408 -0.8210  0.6711
  126SOL     OW  501   2.163   1.496   1.950  0.0065 -0.2589 -0.1067
  126SOL    HW1  502   2.219   1.577   1.940  2.8054 -2.4225  2.3619
  126SOL    HW2  503   2.220   1.421   1.938 -2.8270 -1.1451 -0.0335
  126SOL     MW  504   2.178   1.497   1.947  0.0019 -0.6613  0.2287
  127SOL     OW  505   0.581   0.868   1.782 -0.0413  0.2195 -0.2457
  127SOL    HW1  506   0.654   0.813   1.816 -0.6178 -1.4769  1.3242
  127SOL    HW2  507   0.557   0.925   1.861 -0.6109 -1.7867  1.0333
  127SOL     MW  508   0.588   0.868   1.797 -0.1925 -0.2690  0.1302
  128SOL     OW  509   1.679   0.715   2.900  0.1483  0.1744  0.0382
  128SOL    HW1  510   1.740   0.683   2.830  0.8467 -3.3681 -1.5808
  128SOL    HW2  511   1.648   0.800   2.871  0.5376  0.0803  0.4430
  128SOL     MW  512   1.683   0.722   2.887  0.2919 -0.3054 -0.1220
  129SOL     OW  513   1.609   0.933   0.193 -0.0778  0.0519  0.5632
  129SOL    HW1  514   1.543   0.862   0.202 -0.4542 -1.6070  1.0025
  129SOL    HW2  515   1.666   0.903   0.259 -0.3693 -0.0968 -1.3887
  129SOL     MW  516   1.608   0.920   0.203 -0.1659 -0.1866  0.3636
  130SOL     OW  517   0.769   1.410   0.307 -0.7395  0.4505  0.0699
  130SOL    HW1  518   0.789   1.433   0.404  0.2185 -1.0419 -0.8386
  130SOL    HW2  519   0.853   1.408   0.259  0.8019 -0.6611 -0.5024
  130SOL     MW  520   0.782   1.413   0.313 -0.4097  0.1069 -0.1255
  131SOL     OW  521   3.045   0.813   0.022  0.2205 -0.1460  0.0810
  131SOL    HW1  522   3.054   0.879  -0.057 -0.8509  0.8025  0.6685
  131SOL    HW2  523   3.137   0.785   0.027  2.7274 -0.8223  0.7281
  131SOL     MW  524   3.059   0.818   0.013  0.4099 -0.1101  0.2439
  132SOL     OW  525   2.747   0.158   1.282  0.0371  0.0573 -0.1467
  132SOL    HW1  526   2.778   0.193   1.200  0.9045 -2.5707 -2.6627
  132SOL    HW2  527   2.655   0.120   1.261  0.6067 -3.9387 -0.8723
  132SOL     MW  528   2.739   0.158   1.268  0.2267 -0.8167 -0.5744
  133SOL     OW  529   1.047   0.158   1.685 -0.5309 -0.9008 -0.0900
  133SOL    HW1  530   1.121   0.097   1.703 -1.0312 -2.9759  2.8668
  133SOL    HW2  531   0.984   0.138   1.754 -1.9015 -1.7768 -1.6689
  133SOL     MW  532   1.048   0.147   1.696 -0.7777 -1.2901  0.0918
  134SOL     OW  533   1.421   2.446   1.461  0.4081 -0.4024  1.1773
  134SOL    HW1  534   1.354   2.497   1.411 -0.1509 -0.9005 -2.6295
  134SOL    HW2  535   1.441   2.482   1.549  0.5560 -1.1062  1.0294
  134SOL     MW  536   1.414   2.458   1.466  0.3538 -0.5610  0.6555
  135SOL     OW  537   3.054   0.982   2.879 -0.0602 -0.0889  0.2086
  135SOL    HW1  538   3.102   1.042   2.930 -1.1217 -1.9555  1.6378
  135SOL    HW2  539   2.968   1.030   2.880 -0.3298  0.2762  1.6683
  135SOL     MW  540   3.049   0.996   2.886 -0.2358 -0.2870  0.5898
  136SOL     OW  541   0.225   2.044   0.877  0.1400 -0.2756  0.4163
  136SOL    HW1  542   0.150   1.982   0.858  0.1614  1.0382  0.6125
  136SOL    HW2  543   0.285   2.007   0.817 -0.7232  0.3419 -1.2634
  136SOL     MW  544   0.223   2.031   0.866  0.0290 -0.0208  0.2206
  137SOL     OW  545   0.685   2.062   0.532  0.0649  0.1300  0.1361
  137SOL    HW1  546   0.696   2.061   0.628 -0.7234 -1.1512 -2.0558
  137SOL    HW2  547   0.599   2.109   0.515  0.2759 -0.1605 -2.4860
  137SOL     MW  548   0.675   2.068   0.543 -0.0112 -0.0774 -0.4990
  138SOL     OW  549   0.440   0.510   1.207 -0.3322  0.2169 -0.1153
  138SOL    HW1  550   0.347   0.494   1.239 -0.6973  0.2999  2.3824
  138SOL    HW2  551   0.455   0.490   1.115 -3.9127  0.2281  1.4918
  138SOL     MW  552   0.430   0.505   1.199 -0.8528  0.2293  0.4263
  139SOL     OW  553   2.803   0.572   1.301 -0.2440  0.2345  0.6466
  139SOL    HW1  554   2.878   0.513   1.333 -1.3595 -3.3974  1.4120
  139SOL    HW2  555   2.794   0.630   1.378  0.3291  1.3600  1.5198
  139SOL     MW  556   2.812   0.572   1.315 -0.3156 -0.0962  0.8628
  140SOL     OW  557   0.874   0.478   2.003 -0.4500  0.1162  0.0854
  140SOL    HW1  558   0.895   0.389   1.974 -2.0526  0.4359  1.3891
  140SOL    HW2  559   0.839   0.479   2.096 -0.2155 -1.0139  0.2996
  140SOL     MW  560   0.872   0.467   2.011 -0.6305  0.0093  0.2856
  141SOL     OW  561   0.996   0.652   1.673  0.0109 -0.2812 -0.2536
  141SOL    HW1  562   1.019   0.566   1.652 -1.0706  0.9437 -0.4812
  141SOL    HW2  563   1.079   0.702   1.671  1.8069  0.9311 -0.1321
  141SOL     MW  564   1.010   0.648   1.670  0.1052  0.0403 -0.2676
  142SOL     OW  565   0.850   1.174   0.749 -0.1942  0.4825  0.0755
  142SOL    HW1  566   0.860   1.132   0.663  0.9340 -0.2164  0.5211
  142SOL    HW2  567   0.945   1.180   0.771 -1.2852 -2.1820 -2.1815
  142SOL     MW  568   0.864   1.169   0.741 -0.1893  0.0387 -0.1635
  143SOL     OW  569   1.822   0.695   1.089 -0.0975  0.0946 -0.3134
  143SOL    HW1  570   1.876   0.708   1.011 -1.1367  0.4758 -1.4094
  143SOL    HW2  571   1.742   0.659   1.052 -0.3582  0.4193  1.4987
  143SOL     MW  572   1.818   0.692   1.074 -0.2690  0.1878 -0.2189
  144SOL     OW  573   0.281   1.353   1.714 -0.1957 -0.2595 -0.1392
  144SOL    HW1  574   0.347   1.427   1.698  1.2281  0.9894 -1.0764
  144SOL    HW2  575   0.312   1.319   1.802 -2.0920 -1.9145 -1.4101
  144SOL     MW  576   0.294   1.358   1.723 -0.2581 -0.3130 -0.4306
  145SOL     OW  577   0.160   0.458   1.245 -0.5681 -0.5041 -1.2364
  145SOL    HW1  578   0.190   0.365   1.241  1.2836  1.9892  1.5880
  145SOL    HW2  579   0.095   0.471   1.178  0.1425 -2.7408  1.4467
  145SOL     MW  580   0.155   0.447   1.236 -0.2300 -0.4702 -0.5098
  146SOL     OW  581   0.896   1.901   1.369 -0.1385 -0.4093 -0.3561
  146SOL    HW1  582   0.959   1.941   1.314 -0.3168  0.2101  0.3841
  146SOL    HW2  583   0.819   1.893   1.311 -0.7016 -1.1321 -1.5230
  146SOL     MW  584   0.894   1.905   1.354 -0.2363 -0.4230 -0.4124
  147SOL     OW  585   0.435   0.510   2.948 -0.0981  0.0510 -0.1993
  147SOL    HW1  586   0.380   0.560   3.013 -1.6265 -1.0528 -0.8445
  147SOL    HW2  587   0.407   0.539   2.860  1.0755 -1.0591 -1.4057
  147SOL     MW  588   0.424   0.521   2.945 -0.1449 -0.2411 -0.4436
  148SOL     OW  589   0.027   0.917   1.266 -0.1451  0.9980  0.9023
  148SOL    HW1  590   0.125   0.921   1.280  0.6619  0.7526 -1.6491
  148SOL    HW2  591   0.017   1.009   1.304 -1.9242  1.0122  1.1511
  148SOL     MW  592   0.038   0.930   1.273 -0.2733  0.9675  0.5985
  149SOL     OW  593   1.570   1.167   1.479 -0.3548  0.0908  0.2936
  149SOL    HW1  594   1.487   1.130   1.514  1.6717 -0.1835  0.0051
  149SOL    HW2  595   1.565   1.256   1.447 -0.9822 -0.6031  1.5183
  149SOL     MW  596   1.558   1.174   1.479 -0.1702 -0.0370  0.4171
  150SOL     OW  597   1.725   1.363   0.873  0.4419 -0.2424  0.2858
  150SOL    HW1  598   1.790   1.294   0.880  1.2891  1.3378  3.2244
  150SOL    HW2  599   1.775   1.446   0.893  1.7939  1.3499  1.3079
  150SOL     MW  600   1.741   1.365   0.877  0.7321  0.1762  0.8084
  151SOL     OW  601   1.692   1.837   0.799 -0.0905 -0.3254  0.2016
  151SOL    HW1  602   1.677   1.854   0.706 -1.9267 -0.0138 -0.5706
  151SOL    HW2  603   1.608   1.834   0.834  1.2485  0.1623  1.4151
  151SOL     MW  604   1.679   1.839   0.791 -0.1561 -0.2199  0.2598
  152SOL     OW  605   0.770   1.441   1.630 -0.1918  0.2687  0.2179
  152SOL    HW1  606   0.736   1.480   1.547  1.2152 -0.0077 -0.7352
  152SOL    HW2  607   0.796   1.352   1.610 -2.1882  2.7082 -0.5016
  152SOL     MW  608   0.769   1.434   1.617 -0.2695  0.5541 -0.0028
  153SOL     OW  609   2.546   1.217   0.766 -0.0426 -0.4465 -0.2995
  153SOL    HW1  610   2.631   1.193   0.732  0.4756 -0.4997  1.4703
  153SOL    HW2  611   2.506   1.127   0.767 -0.0308  1.5577 -0.8868
  153SOL     MW  612   2.552   1.202   0.762  0.0273 -0.1891 -0.1435
  154SOL     OW  613   0.113   1.758   1.745 -0.1849 -0.1365  0.4741
  154SOL    HW1  614   0.126   1.680   1.696 -2.5794  2.2728  1.9253
  154SOL    HW2  615   0.197   1.749   1.793 -2.3567 -1.6538 -0.9203
  154SOL     MW  616   0.126   1.747   1.745 -0.7874 -0.0188  0.4816
  155SOL     OW  617   1.181   0.744   0.321  0.1324 -0.3244 -0.0931
  155SOL    HW1  618   1.151   0.714   0.413  0.4193 -2.4977  1.8576
  155SOL    HW2  619   1.169   0.838   0.324 -1.5595 -1.7993 -0.0676
  155SOL     MW  620   1.176   0.752   0.334 -0.0530 -0.8058  0.1676
  156SOL     OW  621   1.548   3.043   1.118  0.1524 -0.0587 -0.0106
  156SOL    HW1  622   1.617   3.102   1.157  1.6506 -2.1132 -0.2968
  156SOL    HW2  623   1.593   2.970   1.078 -0.4453 -0.7058  0.6882
  156SOL     MW  624   1.563   3.041   1.118  0.2712 -0.4152  0.0439
  157SOL     OW  625   1.379   1.163   0.093  0.1493 -0.1166 -0.1942
  157SOL    HW1  626   1.376   1.074   0.114  0.7167  2.8064  0.7907
  157SOL    HW2  627   1.460   1.211   0.101  0.6288 -1.0231 -0.5212
  157SOL     MW  628   1.390   1.157   0.096  0.2875  0.1495 -0.1074
  158SOL     OW  629   0.447   1.697   2.288 -0.1996  0.6151 -0.2101
  158SOL    HW1  630   0.459   1.753   2.210 -0.1096 -1.0432 -0.9527
  158SOL    HW2  631   0.367   1.723   2.326 -0.1730 -0.8399 -0.5678
  158SOL     MW  632   0.438   1.707   2.282 -0.1842  0.2043 -0.3553
  159SOL     OW  633   1.245   1.613   0.476 -0.3604 -0.8481  0.2079
  159SOL    HW1  634   1.192   1.580   0.401 -1.4236  1.4334 -1.5407
  159SOL    HW2  635   1.187   1.682   0.518  0.7967  2.8952  0.2483
  159SOL     MW  636   1.231   1.618   0.471 -0.3480 -0.0532 -0.0175
  160SOL     OW  637   0.509   1.256   1.539  0.3941 -0.2165 -0.1440
  160SOL    HW1  638   0.446   1.210   1.590 -1.0970  1.1005 -0.5269
  160SOL    HW2  639   0.588   1.209   1.574 -0.0352 -1.4467 -2.2823
  160SOL     MW  640   0.511   1.243   1.550  0.1408 -0.2051 -0.4766
  161SOL     OW  641   0.455   2.207   2.571  0.2037  1.0621  0.1428
  161SOL    HW1  642   0.369   2.229   2.586  0.1421 -2.0319 -0.7813
  161SOL    HW2  643   0.451   2.139   2.498 -1.7474 -1.9093 -1.3294
  161SOL     MW  644   0.443   2.201   2.564 -0.0618  0.2619 -0.1734
  162SOL     OW  645   1.053   1.832   1.833  0.4053  0.1344 -0.4548
  162SOL    HW1  646   1.047   1.924   1.829  1.8907 -0.8203  1.0670
  162SOL    HW2  647   1.002   1.798   1.908  0.3390  1.0660 -0.4215
  162SOL     MW  648   1.046   1.840   1.842  0.5925  0.1313 -0.2496
  163SOL     OW  649   2.075   3.062   0.887  0.6095 -0.0131 -0.2865
  163SOL    HW1  650   2.048   3.154   0.860  0.7639  1.4171 -1.9818
  163SOL    HW2  651   2.031   2.998   0.832 -1.1600  1.2381  0.9789
  163SOL     MW  652   2.066   3.065   0.877  0.3964  0.3407 -0.3433
  164SOL     OW  653   0.315   0.201   0.802  0.3044  0.1786 -0.0050
  164SOL    HW1  654   0.221   0.199   0.827 -2.9353  1.9798 -0.7567
  164SOL    HW2  655   0.315   0.130   0.740  0.7585  0.9129  1.0721
  164SOL     MW  656   0.302   0.191   0.797 -0.0631  0.5131  0.0379
  165SOL     OW  657   1.198   1.322   0.346 -0.1000  0.2746 -0.1796
  165SOL    HW1  658   1.248   1.307   0.423  1.0993 -1.6083  0.8789
  165SOL    HW2  659   1.235   1.252   0.293 -2.2102 -2.6931 -1.2484
  165SOL     MW  660   1.209   1.310   0.349 -0.2202 -0.3654 -0.1810
  166SOL     OW  661   0.536   1.122   1.016 -0.3888  0.3225 -0.1541
  166SOL    HW1  662   0.519   1.156   1.105 -0.2672 -2.4309 -2.2058
  166SOL    HW2  663   0.637   1.111   1.006  0.3460 -1.1844 -0.2315
  166SOL     MW  664   0.547   1.125   1.026 -0.2758 -0.2396 -0.4350
  167SOL     OW  665   0.804   1.111   0.257 -0.2463  0.4538 -0.1373
  167SOL    HW1  666   0.781   1.209   0.245  1.2450 -0.1273  0.5329
  167SOL    HW2  667   0.872   1.099   0.190 -0.5378 -1.0530 -0.4858
  167SOL     MW  668   0.810   1.123   0.246 -0.0880  0.1783 -0.0949
  168SOL     OW  669   1.759   1.670   3.044  0.8697  0.2299  0.0641
  168SOL    HW1  670   1.679   1.725   3.034 -1.4064  0.5170 -1.1325
  168SOL    HW2  671   1.726   1.580   3.023 -0.7150 -1.2654  0.2941
  168SOL     MW  672   1.744   1.665   3.040  0.3603  0.0705 -0.0634
  169SOL     OW  673   0.289   0.952   1.340 -0.3257 -0.5307  0.1290
  169SOL    HW1  674   0.289   0.978   1.433  1.0078 -0.1619  3.0332
  169SOL    HW2  675   0.331   1.026   1.296 -2.1018  2.7429  1.1650
  169SOL     MW  676   0.294   0.965   1.346 -0.3841 -0.0501  0.6489
  170SOL     OW  677   1.163   1.502   1.455  0.6173 -0.2012 -0.7785
  170SOL    HW1  678   1.098   1.543   1.505  2.3254 -4.1464 -1.5165
  170SOL    HW2  679   1.115   1.500   1.376  0.0775  1.0972  1.8603
  170SOL     MW  680   1.148   1.507   1.451  0.7714 -0.5504 -0.5277
  171SOL     OW  681   0.490   1.419   0.532  0.1437  0.2481 -0.1207
  171SOL    HW1  682   0.458   1.378   0.616 -3.9047 -3.4832  1.1979
  171SOL    HW2  683   0.499   1.340   0.481 -2.3509 -0.5680  0.4047
  171SOL     MW  684   0.487   1.403   0.537 -0.7196 -0.3519  0.1226
  172SOL     OW  685   0.839   0.293   1.245 -0.9180 -0.4866 -0.5144
  172SOL    HW1  686   0.829   0.265   1.158 -0.8838 -0.3776  1.6547
  172SOL    HW2  687   0.859   0.217   1.296  2.3430  0.3595  1.6167
  172SOL     MW  688   0.840   0.280   1.240 -0.4832 -0.3606  0.0530
  173SOL     OW  689   0.531   1.787   0.294  0.1179 -0.9168  0.5119
  173SOL    HW1  690   0.549   1.706   0.246 -0.8925  0.8938  0.6851
  173SOL    HW2  691   0.538   1.775   0.389  1.3797  0.1883  0.1078
  173SOL     MW  692   0.534   1.775   0.300  0.1511 -0.5321  0.4814
  174SOL     OW  693   1.850   0.897   1.493  0.1143 -0.3760 -0.2706
  174SOL    HW1  694   1.802   0.814   1.499 -2.5191 -0.1772  0.1735
  174SOL    HW2  695   1.845   0.925   1.399 -2.1402  1.9866  0.3302
  174SOL     MW  696   1.843   0.890   1.481 -0.5306 -0.0380 -0.1327
  175SOL     OW  697   0.550   1.522   0.200  1.1323  0.1919 -0.0742
  175SOL    HW1  698   0.476   1.464   0.208  0.0666 -1.3000  1.8227
  175SOL    HW2  699   0.625   1.471   0.222 -1.4353  2.6084 -3.2052
  175SOL     MW  700   0.550   1.508   0.204  0.6529  0.3139 -0.2371
  176SOL     OW  701   0.153   1.461   1.194  0.5378  0.1708 -0.7189
  176SOL    HW1  702   0.136   1.426   1.098 -3.7565 -1.9982 -0.8274
  176SOL    HW2  703   0.073   1.427   1.241 -1.1320 -1.0633 -0.1645
  176SOL     MW  704   0.141   1.452   1.187 -0.2491 -0.2782 -0.6601
  177SOL     OW  705   0.541   0.315   1.453 -0.8228  0.0024 -0.0189
  177SOL    HW1  706   0.582   0.343   1.371  0.7982  2.1164  0.5707
  177SOL    HW2  707   0.549   0.395   1.507 -0.2655 -1.4235 -0.2746
  177SOL     MW  708   0.547   0.329   1.450 -0.5354  0.0932  0.0252
  178SOL     OW  709   3.092   0.511   3.001 -0.0018 -0.4376 -0.1874
  178SOL    HW1  710   3.047   0.522   3.093  1.4359 -0.1442  1.6592
  178SOL    HW2  711   3.012   0.494   2.945  0.8796 -0.1493 -1.2872
  178SOL     MW  712   3.076   0.510   3.006  0.3042 -0.3608 -0.0889
  179SOL     OW  713   1.560   1.426   1.379 -0.4802 -0.2941  0.1195
  179SOL    HW1  714   1.581   1.444   1.468 -1.2549  0.2995  0.4452
  179SOL    HW2  715   1.634   1.428   1.316 -2.1836  0.0880  0.3051
  179SOL     MW  716   1.573   1.429   1.382 -0.8072 -0.1653  0.1870
  180SOL     OW  717   2.997   0.278   0.504  0.2935  0.0898  0.1610
  180SOL    HW1  718   2.947   0.284   0.416  0.4490 -1.2077 -1.7251
  180SOL    HW2  719   3.011   0.368   0.527 -1.6314  2.1386 -0.7399
  180SOL     MW  720   2.992   0.291   0.495  0.0601  0.1889 -0.2068
  181SOL     OW  721   1.147   1.300   3.080  0.4065 -0.7648 -0.0892
  181SOL    HW1  722   1.199   1.378   3.101 -0.9503  0.2456 -0.5630
  181SOL    HW2  723   1.154   1.272   2.987 -0.9893 -1.2038  0.4917
  181SOL     MW  724   1.155   1.306   3.071  0.0434 -0.6894 -0.0751
  182SOL     OW  725   0.376   1.002   1.616  0.4426 -0.0330  0.0823
  182SOL    HW1  726   0.305   0.972   1.671 -1.9583 -0.7409 -0.3834
  182SOL    HW2  727   0.452   0.948   1.640 -1.4382 -0.7219 -0.1762
  182SOL     MW  728   0.377   0.991   1.626 -0.1223 -0.2173 -0.0132
  183SOL     OW  729   1.525   1.724   1.281 -0.1204  0.6194  0.1166
  183SOL    HW1  730   1.620   1.732   1.273  0.1463 -1.9181  1.5490
  183SOL    HW2  731   1.496   1.652   1.339 -0.0012  1.0590  0.0621
  183SOL     MW  732   1.534   1.716   1.288 -0.0695  0.3426  0.2984
  184SOL     OW  733   0.789   0.706   1.879 -0.1726  0.0717 -0.5817
  184SOL    HW1  734   0.847   0.698   1.800  1.2064 -0.3013 -0.5026
  184SOL    HW2  735   0.812   0.627   1.927  1.4298 -0.2032  0.7807
  184SOL     MW  736   0.800   0.695   1.875  0.2208 -0.0138 -0.3915
  185SOL     OW  737   1.078   0.939   1.888 -0.4773 -0.1605 -0.1732
  185SOL    HW1  738   1.064   0.850   1.916 -2.6452  1.7021  0.3700
  185SOL    HW2  739   1.108   0.982   1.965  1.9927 -1.7335 -0.6144
  185SOL     MW  740   1.080   0.933   1.902 -0.4375 -0.1223 -0.1597
  186SOL     OW  741   0.305   1.642   1.478 -0.2140 -0.1936 -0.4438
  186SOL    HW1  742   0.333   1.594   1.398 -1.2592  0.2677  0.8801
  186SOL    HW2  743   0.224   1.598   1.525  1.3716 -2.3301  0.3696
  186SOL     MW  744   0.298   1.630   1.474 -0.1427 -0.4146 -0.1618
  187SOL     OW  745   1.513   0.741   1.361 -0.1759 -0.0662  0.3477
  187SOL    HW1  746   1.576   0.718   1.429  0.4500  0.2882 -0.5313
  187SOL    HW2  747   1.423   0.719   1.390 -1.8605  2.5760 -0.0973
  187SOL     MW  748   1.510   0.735   1.374 -0.3156  0.3291  0.1730
  188SOL     OW  749   1.947   1.198   0.812 -0.0602  0.4992  0.1586
  188SOL    HW1  750   1.935   1.162   0.906  0.2664  0.4087 -1.1839
  188SOL    HW2  751   1.996   1.122   0.779  1.1259  2.4922  2.8856
  188SOL     MW  752   1.952   1.183   0.820  0.1394  0.7502  0.3413
  189SOL     OW  753   0.690   0.761   0.841  0.4826 -0.2962  0.0234
  189SOL    HW1  754   0.604   0.810   0.822 -2.3229  3.1365 -0.2032
  189SOL    HW2  755   0.742   0.825   0.887  0.0638 -1.5809 -0.1918
  189SOL     MW  756   0.685   0.776   0.844  0.0572 -0.0128 -0.0349
  190SOL     OW  757   1.853   0.334   2.136  0.2341  0.2801 -0.2677
  190SOL    HW1  758   1.868   0.295   2.221  2.7361 -0.3098 -1.4797
  190SOL    HW2  759   1.941   0.366   2.112 -1.3724 -2.2321  1.3152
  190SOL     MW  760   1.866   0.333   2.144  0.3523 -0.1291 -0.2187
  191SOL     OW  761   1.520   0.997   1.242  0.1704  0.6460  0.4364
  191SOL    HW1  762   1.526   1.072   1.299 -0.3280 -0.4350 -0.2467
  191SOL    HW2  763   1.509   0.918   1.295  1.6062  1.1987  1.9632
  191SOL     MW  764   1.520   0.997   1.256  0.2941  0.5763  0.5477
  192SOL     OW  765   0.537   2.118   2.853  0.1809  0.2431  0.8053
  192SOL    HW1  766   0.516   2.151   2.763 -3.2482  0.2146 -0.7943
  192SOL    HW2  767   0.548   2.024   2.836  0.7317  1.7833  2.5544
  192SOL     MW  768   0.536   2.110   2.839 -0.1989  0.4425  0.8250
  193SOL     OW  769   0.872   1.612   0.772  0.0366 -0.3150  0.7695
  193SOL    HW1  770   0.797   1.597   0.818  1.1732 -0.4799 -0.8382
  193SOL    HW2  771   0.875   1.547   0.697 -0.3896 -0.6077 -1.1670
  193SOL     MW  772   0.863   1.601   0.768  0.1303 -0.3754  0.3019
  194SOL     OW  773   0.522   1.338   0.798 -0.2814 -0.0310 -0.2742
  194SOL    HW1  774   0.529   1.265   0.859 -0.2529  0.6457 -0.2819
  194SOL    HW2  775   0.427   1.357   0.781 -0.0884  0.0781  0.3955
  194SOL     MW  776   0.511   1.331   0.804 -0.2522  0.0727 -0.1868
  195SOL     OW  777   1.294   1.117   2.939  0.3556  0.0416  0.1372
  195SOL    HW1  778   1.334   1.151   3.021 -2.1627  2.3026 -0.5054
  195SOL    HW2  779   1.232   1.046   2.955 -2.8655  1.0808  0.6110
  195SOL     MW  780   1.291   1.112   2.952 -0.4017  0.4770  0.1149
  196SOL     OW  781   2.258   0.974   0.540  0.0153 -0.0509  0.4288
  196SOL    HW1  782   2.248   0.945   0.451  3.4641 -1.0909 -2.2951
  196SOL    HW2  783   2.226   1.067   0.537  1.3926  0.4298 -1.4321
  196SOL     MW  784   2.253   0.982   0.528  0.6521 -0.1247 -0.1761
  197SOL     OW  785   0.606   1.271   2.232 -0.5195 -0.1610 -0.3798
  197SOL    HW1  786   0.638   1.188   2.186 -2.4802 -1.2789  0.5595
  197SOL    HW2  787   0.682   1.325   2.203  0.7534 -0.5161  0.2439
  197SOL     MW  788   0.621   1.267   2.222 -0.6102 -0.3554 -0.1735
  198SOL     OW  789   2.930   1.453   1.005  0.2244  0.1564  0.0113
  198SOL    HW1  790   2.881   1.534   0.990  2.3560  0.4753 -0.8704
  198SOL    HW2  791   2.865   1.379   0.990 -3.0873 -1.3165  2.1275
  198SOL     MW  792   2.915   1.454   1.001  0.0687  0.0041  0.1742
  199SOL     OW  793   0.730   1.329   1.882  0.2870 -0.4285 -1.1004
  199SOL    HW1  794   0.636   1.314   1.892  0.5711 -1.6815  1.7305
  199SOL    HW2  795   0.730   1.407   1.823 -1.7089  2.1219 -0.1409
  199SOL     MW  796   0.718   1.338   1.876  0.0611 -0.2574 -0.6003
  200SOL     OW  797   1.853   2.916   1.377 -0.9108  0.2274  0.5660
  200SOL    HW1  798   1.904   2.935   1.300  2.0594  4.1789  1.5968
  200SOL    HW2  799   1.779   2.978   1.382  4.0815 -1.5464  0.0040
  200SOL     MW  800   1.850   2.927   1.368  0.1397  0.5147  0.6278
  201SOL     OW  801   1.058   0.336   0.728  0.6181 -0.4437  0.1773
  201SOL    HW1  802   1.016   0.251   0.740  0.3448  0.2888 -0.5903
  201SOL    HW2  803   1.153   0.336   0.765  1.4882 -0.1977  0.3250
  201SOL     MW  804   1.065   0.324   0.734  0.6968 -0.3146  0.0955
  202SOL     OW  805   1.470   1.791   0.972 -0.1482  0.4058  0.1686
  202SOL    HW1  806   1.499   1.700   0.967  1.0929  0.4986 -0.1546
  202SOL    HW2  807   1.482   1.817   1.068  0.2677  0.8369  2.5565
  202SOL     MW  808   1.475   1.782   0.984  0.0704  0.4749  0.4410
  203SOL     OW  809   2.986   0.383   1.442  0.1474 -0.6739 -0.6351
  203SOL    HW1  810   3.048   0.327   1.387  0.8428  0.9201 -5.4745
  203SOL    HW2  811   3.036   0.390   1.522 -1.9543  1.4664 -0.4545
  203SOL     MW  812   3.000   0.377   1.445 -0.0381 -0.1812 -1.2498
  204SOL     OW  813   1.033   1.809   0.632  0.4165 -0.2585 -0.0991
  204SOL    HW1  814   1.004   1.741   0.696 -0.2264 -1.3966 -1.1312
  204SOL    HW2  815   0.960   1.803   0.571  0.5203  0.4190  0.2917
  204SOL     MW  816   1.019   1.799   0.632  0.3453 -0.3193 -0.1838
  205SOL     OW  817   1.379   3.042   1.333 -0.7235 -0.3417  0.1774
  205SOL    HW1  818   1.397   3.040   1.239 -0.1500 -2.1729  1.3763
  205SOL    HW2  819   1.329   3.122   1.353 -1.6479  0.8770 -0.5849
  205SOL     MW  820   1.375   3.052   1.323 -0.7698 -0.4225  0.2350
  206SOL     OW  821   0.468   3.068   1.351 -0.5700 -0.1181 -0.0699
  206SOL    HW1  822   0.411   3.083   1.274  0.0733  0.9697 -2.0694
  206SOL    HW2  823   0.533   3.000   1.336 -1.1086  0.2496  1.6093
  206SOL     MW  824   0.469   3.061   1.338 -0.5562  0.0739 -0.1122
  207SOL     OW  825   0.878   1.707   0.195 -0.0590  0.4227 -0.4407
  207SOL    HW1  826   0.915   1.784   0.159 -1.5440 -1.7257 -0.5905
  207SOL    HW2  827   0.952   1.653   0.213 -0.6624  0.2750 -3.1847
  207SOL     MW  828   0.893   1.710   0.193 -0.3345  0.1198 -0.8225
  208SOL     OW  829   0.726   1.609   1.421  0.1590 -0.3701 -0.0046
  208SOL    HW1  830   0.814   1.644   1.445 -1.8009 -3.3617  1.0555
  208SOL    HW2  831   0.737   1.579   1.325 -0.5980  0.4418 -2.4775
  208SOL     MW  832   0.739   1.609   1.411 -0.1995 -0.6577 -0.1910
  209SOL     OW  833   1.520   0.505   2.821  0.0789  0.2857  0.4262
  209SOL    HW1  834   1.549   0.591   2.863 -0.1875  2.7954  1.7850
  209SOL    HW2  835   1.602   0.459   2.808  1.0720  1.6173  0.9418
  209SOL     MW  836   1.535   0.510   2.825  0.1748  0.7925  0.6735
  210SOL     OW  837   1.465   1.490   0.921 -0.2060 -0.0470  0.0064
  210SOL    HW1  838   1.537   1.426   0.897 -0.3468  0.6700 -2.7148
  210SOL    HW2  839   1.406   1.491   0.841 -1.8994  1.7733 -1.6380
  210SOL     MW  840   1.467   1.482   0.907 -0.4480  0.2878 -0.5696
  211SOL     OW  841   1.723   0.300   0.991  0.0542 -0.1434 -0.1868
  211SOL    HW1  842   1.721   0.337   0.905  0.0585 -1.4119  0.6771
  211SOL    HW2  843   1.800   0.336   1.028 -1.3586  0.3866  2.6213
  211SOL     MW  844   1.733   0.310   0.984 -0.1317 -0.2409  0.2977
  212SOL     OW  845   0.290   1.087   0.207  0.5761 -0.0083 -0.3389
  212SOL    HW1  846   0.221   1.081   0.270  0.9256  0.3626  0.7834
  212SOL    HW2  847   0.307   0.992   0.175  0.9933 -0.2935  1.1831
  212SOL     MW  848   0.283   1.074   0.211  0.6772  0.0030  0.0100
  213SOL     OW  849   0.423   1.794   3.003 -0.7957  0.5149  0.2219
  213SOL    HW1  850   0.450   1.853   3.066 -1.0648 -0.9517 -0.8379
  213SOL    HW2  851   0.472   1.821   2.922 -1.8701 -0.4019  1.4841
  213SOL     MW  852   0.433   1.805   3.001 -0.9729  0.2004  0.2486
  214SOL     OW  853   0.616   0.318   2.132  0.2893 -0.4305 -0.1106
  214SOL    HW1  854   0.562   0.390   2.155  1.8498  1.3678 -0.8496
  214SOL    HW2  855   0.623   0.309   2.035  1.2164 -0.4068 -1.0173
  214SOL     MW  856   0.609   0.326   2.122  0.6175 -0.1901 -0.3277
  215SOL     OW  857   0.502   0.609   2.573 -0.1860 -0.7906 -0.1506
  215SOL    HW1  858   0.488   0.658   2.494  1.3211  1.1859  0.8410
  215SOL    HW2  859   0.415   0.619   2.620 -2.6803 -3.7088  1.9663
  215SOL     MW  860   0.489   0.617   2.569 -0.3163 -0.9149  0.2595
  216SOL     OW  861   2.975   3.054   2.704 -0.1156 -0.4589 -0.0534
  216SOL    HW1  862   2.910   3.038   2.773 -1.2814  0.6492  0.5066
  216SOL    HW2  863   2.999   3.150   2.707  1.7208  2.6585  0.7581
  216SOL     MW  864   2.969   3.065   2.714 -0.0271  0.0986  0.1276
  217SOL     OW  865   1.054   1.066   0.112 -0.5107 -0.0062  0.4999
  217SOL    HW1  866   1.081   0.982   0.060  0.1423  0.3378 -0.6703
  217SOL    HW2  867   1.104   1.131   0.066 -1.4043 -1.4488 -1.1293
  217SOL     MW  868   1.064   1.063   0.099 -0.5424 -0.1512  0.1306
  218SOL     OW  869   0.873   1.358   2.686  0.5856  0.2713  0.0494
  218SOL    HW1  870   0.866   1.299   2.760 -0.0862  0.0635  1.6394
  218SOL    HW2  871   0.966   1.391   2.685  3.5635 -1.9477 -1.1164
  218SOL     MW  872   0.884   1.354   2.696  0.8899 -0.0489  0.1054
  219SOL     OW  873   1.058   0.366   2.637 -0.1772  0.4081  0.1168
  219SOL    HW1  874   1.135   0.429   2.651 -3.0414 -0.4038 -1.8964
  219SOL    HW2  875   0.980   0.416   2.619  0.3965  0.7746  1.5619
  219SOL     MW  876   1.058   0.381   2.636 -0.4794  0.3493  0.0418
  220SOL     OW  877   1.672   0.493   2.234  0.8189 -0.0162 -0.0588
  220SOL    HW1  878   1.609   0.534   2.168 -1.0084  2.6350 -0.2945
  220SOL    HW2  879   1.719   0.428   2.175  2.8097 -0.5876 -1.0480
  220SOL     MW  880   1.670   0.490   2.217  0.8405  0.2582 -0.2204
  221SOL     OW  881   0.333   1.280   2.906  0.5718  0.0865  0.0445
  221SOL    HW1  882   0.408   1.225   2.878  1.3077  1.2439  0.6943
  221SOL    HW2  883   0.355   1.370   2.875 -2.8804 -2.0781  0.4371
  221SOL     MW  884   0.346   1.285   2.898  0.2134 -0.0464  0.1820
  222SOL     OW  885   0.511   0.912   2.696 -0.0408  0.5439  0.0825
  222SOL    HW1  886   0.461   0.970   2.646  1.1105 -0.3622 -2.7005
  222SOL    HW2  887   0.478   0.821   2.689 -0.2630 -1.3988  0.6924
  222SOL     MW  888   0.500   0.908   2.688  0.0818  0.1680 -0.2042
  223SOL     OW  889   0.013   2.003   2.569 -0.4335  0.3218  0.0411
  223SOL    HW1  890  -0.013   1.981   2.656 -2.8959 -0.7637 -1.4802
  223SOL    HW2  891   0.032   2.103   2.570  1.5805  1.1364 -0.5137
  223SOL     MW  892   0.012   2.013   2.580 -0.4927  0.2860 -0.2328
  224SOL     OW  893   1.456   0.741   2.515  0.0192 -0.1233 -0.0102
  224SOL    HW1  894   1.464   0.766   2.608 -1.2857 -3.0184 -0.6445
  224SOL    HW2  895   1.488   0.818   2.472 -0.6254  1.3103 -2.1947
  224SOL     MW  896   1.461   0.754   2.522 -0.2381 -0.3161 -0.3821
  225SOL     OW  897   2.943   1.436   2.311  0.5375 -0.1595 -0.3316
  225SOL    HW1  898   2.987   1.511   2.272  0.1349 -0.4746  0.0709
  225SOL    HW2  899   2.863   1.460   2.360 -2.0690 -1.7807 -2.3536
  225SOL     MW  900   2.938   1.449   2.312  0.1404 -0.4150 -0.5453
  226SOL     OW  901   0.399   1.497   2.755  0.3525  0.1126 -0.2326
  226SOL    HW1  902   0.489   1.512   2.779 -0.7493 -0.1517  0.7556
  226SOL    HW2  903   0.357   1.579   2.722  0.1623  2.2914 -2.9746
  226SOL     MW  904   0.405   1.510   2.753  0.1821  0.3652 -0.4640
  227SOL     OW  905   0.566   1.136   2.867 -0.0310  0.0966  1.0703
  227SOL    HW1  906   0.662   1.150   2.874  0.3020  2.6790 -2.6423
  227SOL    HW2  907   0.553   1.065   2.809 -0.4222  3.0214  1.0616
  227SOL     MW  908   0.577   1.128   2.860 -0.0387  0.8232  0.5793
  228SOL     OW  909   0.758   1.109   2.064 -0.0813  1.0285 -0.4331
  228SOL    HW1  910   0.746   1.187   2.007  0.6769  0.7883  1.4464
  228SOL    HW2  911   0.839   1.131   2.115  0.7849 -0.3704  0.7555
  228SOL     MW  912   0.767   1.122   2.063  0.1330  0.8123 -0.0283
  229SOL     OW  913   0.237   0.615   0.016  0.3363 -0.3337  0.0356
  229SOL    HW1  914   0.175   0.586  -0.053 -1.3726 -1.9620 -1.9882
  229SOL    HW2  915   0.236   0.546   0.086  2.0943 -0.8401  0.1647
  229SOL     MW  916   0.229   0.602   0.016  0.3428 -0.6153 -0.2144
  230SOL     OW  917   1.801   1.358   1.998 -0.0707 -0.3003 -0.9768
  230SOL    HW1  918   1.782   1.319   2.087  3.3858 -2.4153  1.9135
  230SOL    HW2  919   1.865   1.304   1.959  2.2034  2.8206  0.4093
  230SOL     MW  920   1.807   1.345   2.005  0.6854 -0.1676 -0.4126
  231SOL     OW  921   2.732   1.266   2.207  0.0641  0.4597  0.2770
  231SOL    HW1  922   2.786   1.345   2.230 -1.7073 -0.0034 -0.4652
  231SOL    HW2  923   2.689   1.286   2.123  0.6688  2.3721  2.6700
  231SOL     MW  924   2.734   1.279   2.199 -0.0898  0.6509  0.4948
  232SOL     OW  925   2.285   0.792   1.992  0.1822  0.3098 -0.3950
  232SOL    HW1  926   2.211   0.803   1.928 -1.2749 -1.7311 -1.2719
  232SOL    HW2  927   2.255   0.818   2.077  0.8510 -1.0873  0.8288
  232SOL     MW  928   2.271   0.797   1.995  0.0782 -0.1438 -0.3492
  233SOL     OW  929   2.085   0.472   2.085  0.6243 -0.1288  0.0478
  233SOL    HW1  930   2.147   0.407   2.055  2.9673  1.5005 -0.2626
  233SOL    HW2  931   2.140   0.533   2.127 -3.5008 -0.0710 -2.6083
  233SOL     MW  932   2.101   0.471   2.087  0.3892  0.0938 -0.3436
  234SOL     OW  933   0.259   1.045   2.619  0.0235  0.0225 -0.4199
  234SOL    HW1  934   0.185   1.025   2.565 -0.2076 -0.9655 -1.1575
  234SOL    HW2  935   0.278   1.136   2.595 -0.0772 -0.1000 -2.1923
  234SOL     MW  936   0.252   1.055   2.609 -0.0203 -0.1240 -0.7511
  235SOL     OW  937   1.007   3.034   2.798 -0.0029 -0.0596  0.3338
  235SOL    HW1  938   1.064   3.027   2.880  0.4966  0.2424  1.0919
  235SOL    HW2  939   1.024   3.130   2.788 -0.2572 -0.7652 -3.4586
  235SOL     MW  940   1.017   3.046   2.807  0.0295 -0.1129 -0.0666
  236SOL     OW  941   2.941   0.580   0.128 -0.3325  0.3053  0.3704
  236SOL    HW1  942   2.915   0.609   0.213  1.5919 -0.0194 -0.3545
  236SOL    HW2  943   2.965   0.657   0.076 -1.5995  1.3950  0.6904
  236SOL     MW  944   2.941   0.594   0.132 -0.2458  0.4062  0.3170
  237SOL     OW  945   1.948   1.069   2.171  0.6295 -0.4884  0.1799
  237SOL    HW1  946   1.874   1.066   2.111  0.7189 -1.5376 -2.3873
  237SOL    HW2  947   1.982   0.979   2.163 -0.4387  2.5406  1.3558
  237SOL     MW  948   1.943   1.056   2.162  0.5004 -0.2272 -0.0037
  238SOL     OW  949   1.091   1.771   2.967 -0.5896 -0.5942 -0.1068
  238SOL    HW1  950   1.057   1.743   2.884  0.3838 -0.5944  0.3066
  238SOL    HW2  951   1.184   1.740   2.955  1.8102  1.9568  0.2261
  238SOL     MW  952   1.099   1.763   2.954 -0.1445 -0.2577 -0.0083
  239SOL     OW  953   1.185   1.306   2.273 -0.3501 -0.5929  0.1128
  239SOL    HW1  954   1.093   1.286   2.282  0.0711 -2.1973 -1.0932
  239SOL    HW2  955   1.212   1.265   2.358  1.0978  1.0067 -0.2798
  239SOL     MW  956   1.176   1.298   2.285 -0.1035 -0.5935 -0.0981
  240SOL     OW  957   0.599   0.892   2.226 -0.0564 -0.8375 -0.8428
  240SOL    HW1  958   0.617   0.940   2.315 -0.9188  1.1384  1.0401
  240SOL    HW2  959   0.687   0.860   2.214 -0.6237 -0.5440 -1.7094
  240SOL     MW  960   0.613   0.894   2.236 -0.2450 -0.5381 -0.7087
  241SOL     OW  961   0.676   0.485   3.068  0.0250  0.0053 -0.3199
  241SOL    HW1  962   0.696   0.554   3.138  0.3043  2.3787 -0.7160
  241SOL    HW2  963   0.588   0.495   3.039  1.6477 -0.9437 -1.3139
  241SOL     MW  964   0.667   0.495   3.073  0.2760  0.1932 -0.5033
  242SOL     OW  965   1.511   1.702   2.265 -0.3975 -0.5722  0.1389
  242SOL    HW1  966   1.441   1.765   2.255  2.0273 -2.2211  0.1538
  242SOL    HW2  967   1.469   1.624   2.231  1.5922  1.1878 -0.6998
  242SOL     MW  968   1.496   1.700   2.259  0.1849 -0.5576  0.0302
  243SOL     OW  969   0.993   0.287   2.359  0.1794  1.1510 -0.4040
  243SOL    HW1  970   1.079   0.247   2.331 -4.0967 -2.1689 -0.8595
  243SOL    HW2  971   1.010   0.317   2.450  1.2386  3.9129  2.1513
  243SOL     MW  972   1.007   0.286   2.367 -0.2451  1.0774 -0.1269
  244SOL     OW  973   0.135   0.794   2.368  0.3385 -0.3880  0.3256
  244SOL    HW1  974   0.103   0.886   2.372  0.1701 -3.2172 -1.7554
  244SOL    HW2  975   0.228   0.804   2.353  0.0515  0.6039 -1.1146
  244SOL     MW  976   0.143   0.807   2.367  0.2784 -0.6304 -0.1389
  245SOL     OW  977   1.244   0.202   2.310 -0.2450  0.2697  0.4957
  245SOL    HW1  978   1.287   0.126   2.273  2.4892  0.2518  0.5820
  245SOL    HW2  979   1.299   0.206   2.390  2.3207 -0.4208  1.3065
  245SOL     MW  980   1.257   0.193   2.316  0.4543  0.1763  0.6141
  246SOL     OW  981   1.204   1.130   2.055  0.0934 -0.3599 -0.2786
  246SOL    HW1  982   1.151   1.139   2.134  1.0719  1.0827 -3.0493
  246SOL    HW2  983   1.301   1.122   2.087  0.4590  0.4888  0.1767
  246SOL     MW  984   1.209   1.130   2.069  0.2707 -0.0576 -0.5841
  247SOL     OW  985   0.767   0.644   0.153  0.1276  0.3478  0.2067
  247SOL    HW1  986   0.739   0.735   0.148  2.9451  2.6485 -2.2479
  247SOL    HW2  987   0.864   0.651   0.144 -0.8035 -2.0566 -0.0365
  247SOL     MW  988   0.776   0.657   0.151  0.3765  0.3341 -0.1493
  248SOL     OW  989   0.340   1.288   2.543 -0.0735  0.1341 -0.5105
  248SOL    HW1  990   0.333   1.310   2.451 -3.0587 -2.9326  1.1334
  248SOL    HW2  991   0.371   1.361   2.593  1.7514  0.9750  0.5968
  248SOL     MW  992   0.343   1.300   2.537 -0.2266 -0.1596 -0.1475
  249SOL     OW  993   3.021   1.906   2.838 -0.6095 -0.0027  0.1974
  249SOL    HW1  994   2.958   1.842   2.871 -1.0452  0.8709  1.3299
  249SOL    HW2  995   3.106   1.874   2.864  0.3183  1.5038 -1.1407
  249SOL     MW  996   3.024   1.893   2.846 -0.5446  0.3114  0.1703
  250SOL     OW  997   2.139   0.851   2.209 -0.4566 -0.1628 -0.0083
  250SOL    HW1  998   2.110   0.775   2.259  3.0306  0.0993 -4.1421
  250SOL    HW2  999   2.207   0.899   2.256 -2.0505  2.1356 -2.5585
  250SOL     MW 1000   2.144   0.847   2.222 -0.2068  0.1750 -0.8902
  251SOL     OW 1001   0.153   0.901   2.013 -0.0726 -0.1867  0.0455
  251SOL    HW1 1002   0.137   0.811   2.043 -1.2409 -3.5489 -2.2985
  251SOL    HW2 1003   0.134   0.901   1.920  1.7665 -2.0820 -0.1577
  251SOL     MW 1004   0.149   0.889   2.004  0.0159 -0.8804 -0.2906
  252SOL     OW 1005   1.648   0.997   2.823 -0.4923 -0.7013 -0.3155
  252SOL    HW1 1006   1.653   1.037   2.912 -2.2837 -2.3157  0.9731
  252SOL    HW2 1007   1.731   1.016   2.785  0.2116  0.7613 -1.1127
  252SOL     MW 1008   1.659   1.005   2.830 -0.6358 -0.7213 -0.2507
  253SOL     OW 1009   1.140   1.702   2.439  0.6033 -0.0424  0.8960
  253SOL    HW1 1010   1.165   1.699   2.339  3.7045  0.1457 -2.3006
  253SOL    HW2 1011   1.075   1.768   2.468 -0.4866 -1.9516 -3.1032
  253SOL     MW 1012   1.135   1.710   2.429  0.8687 -0.2695 -0.0534
  254SOL     OW 1013   0.949   1.135   2.240  0.2295  0.1404 -0.1267
  254SOL    HW1 1014   0.926   1.046   2.235 -0.4184  0.0862 -1.5569
  254SOL    HW2 1015   0.893   1.171   2.310 -0.3985 -0.9675  1.0901
  254SOL     MW 1016   0.939   1.128   2.248  0.0611 -0.0129 -0.1548
  255SOL     OW 1017   0.886   2.567   2.161  0.0761  0.4623  0.5421
  255SOL    HW1 1018   0.797   2.520   2.174 -3.8562 -0.9192  2.0688
  255SOL    HW2 1019   0.943   2.496   2.176  0.0722  3.5227  1.2855
  255SOL     MW 1020   0.882   2.552   2.165 -0.4432  0.6838  0.8416
  256SOL     OW 1021   1.209   2.764   2.990  0.0738  0.5761  0.4007
  256SOL    HW1 1022   1.150   2.708   2.941 -0.6158  1.4752  0.3254
  256SOL    HW2 1023   1.287   2.785   2.930  1.6086  0.0541 -0.6095
  256SOL     MW 1024   1.212   2.759   2.976  0.1853  0.6258  0.2575
  257SOL     OW 1025   0.036   1.904   0.056  0.1413 -0.0845  1.3841
  257SOL    HW1 1026   0.103   1.869   0.106 -3.1373  0.6849 -0.0639
  257SOL    HW2 1027   0.054   1.890  -0.036  0.5244 -0.8524  1.2932
  257SOL     MW 1028   0.047   1.898   0.050 -0.2408 -0.0843  1.1811
  258SOL     OW 1029   0.703   0.975   2.466 -0.0184 -0.3165  0.2205
  258SOL    HW1 1030   0.701   1.066   2.478  1.1593 -2.3412 -0.2525
  258SOL    HW2 1031   0.663   0.927   2.531  0.5042  2.1746  0.2284
  258SOL     MW 1032   0.698   0.981   2.476  0.2060 -0.2549  0.1591
  259SOL     OW 1033   0.806   0.487   2.276 -0.1015 -0.4757 -0.2120
  259SOL    HW1 1034   0.734   0.423   2.264  0.1104 -1.2279 -1.8826
  259SOL    HW2 1035   0.883   0.430   2.290 -1.5116 -0.6225 -1.3386
  259SOL     MW 1036   0.806   0.471   2.276 -0.2596 -0.5944 -0.5811
  260SOL     OW 1037   0.634   0.088   1.579  0.0783 -0.7038 -0.3223
  260SOL    HW1 1038   0.578   0.157   1.535  1.1670 -0.7437  1.1683
  260SOL    HW2 1039   0.715   0.101   1.528 -0.5679 -0.5556 -0.7163
  260SOL     MW 1040   0.637   0.099   1.567  0.1367 -0.6895 -0.1776
  261SOL     OW 1041   1.109   0.673   1.965 -0.3973 -0.0433 -0.2582
  261SOL    HW1 1042   1.131   0.662   2.063 -0.5553  1.6266  2.5834
  261SOL    HW2 1043   1.038   0.611   1.952  1.8723  1.4436 -0.0726
  261SOL     MW 1044   1.103   0.664   1.976 -0.1187  0.3732  0.1412
  262SOL     OW 1045   1.132   0.337   0.187  0.2882  0.4949 -0.9143
  262SOL    HW1 1046   1.236   0.338   0.166  1.9020  1.2308 -2.6993
  262SOL    HW2 1047   1.084   0.277   0.122 -0.1490 -0.1715  1.2235
  262SOL     MW 1048   1.140   0.329   0.176  0.4434  0.5041 -0.8677
  263SOL     OW 1049   0.361   0.015   2.465 -0.0964 -0.6337  0.4381
  263SOL    HW1 1050   0.297   0.086   2.486  0.0333 -2.8598  2.0539
  263SOL    HW2 1051   0.434   0.049   2.414  0.1577  1.2016  1.1339
  263SOL     MW 1052   0.362   0.029   2.461 -0.0458 -0.6852  0.7431
  264SOL     OW 1053   1.524   1.370   1.948 -0.4989  1.0332  0.4334
  264SOL    HW1 1054   1.510   1.279   1.920 -0.5784  1.4722 -1.4210
  264SOL    HW2 1055   1.617   1.368   1.984  1.3413 -2.3562  1.2450
  264SOL     MW 1056   1.535   1.357   1.949 -0.2666  0.6440  0.2958
  265SOL     OW 1057   0.725   2.758   2.302  0.0950 -0.2071 -0.0130
  265SOL    HW1 1058   0.798   2.697   2.300 -1.9993 -1.1917  0.5985
  265SOL    HW2 1059   0.706   2.756   2.397 -1.6076 -0.3114 -0.8737
  265SOL     MW 1060   0.732   2.750   2.315 -0.4060 -0.3507 -0.0459
  266SOL     OW 1061   0.890   0.857   2.151 -0.0349  0.3537  0.0537
  266SOL    HW1 1062   0.875   0.872   2.057 -4.5971  2.5250  1.8018
  266SOL    HW2 1063   0.930   0.767   2.158 -0.4634 -2.4982 -2.5699
  266SOL     MW 1064   0.894   0.847   2.139 -0.6934  0.2639 -0.0618
  267SOL     OW 1065   1.320   1.741   2.630  0.2442 -0.4459 -0.3662
  267SOL    HW1 1066   1.393   1.688   2.603 -0.9431  1.5244 -0.7842
  267SOL    HW2 1067   1.255   1.726   2.558 -2.6691 -1.4497  0.6531
  267SOL     MW 1068   1.321   1.732   2.617 -0.2969 -0.3184 -0.2869
  268SOL     OW 1069   0.119   0.930   1.745 -0.3281  0.0939  0.6912
  268SOL    HW1 1070   0.099   1.017   1.706 -0.8902 -1.0043  3.7530
  268SOL    HW2 1071   0.102   0.868   1.670  0.0367 -1.6143 -2.0140
  268SOL     MW 1072   0.114   0.933   1.730 -0.3542 -0.2764  0.7382
  269SOL     OW 1073   1.344   1.952   2.292 -0.3574 -0.3050  0.1623
  269SOL    HW1 1074   1.391   2.018   2.337  1.1891  1.8863 -1.6226
  269SOL    HW2 1075   1.258   1.935   2.336 -0.5747 -0.9264  1.6897
  269SOL     MW 1076   1.339   1.959   2.303 -0.1820 -0.0979  0.1284
  270SOL     OW 1077   1.133   0.419   1.586 -0.1883  0.8238  0.0136
  270SOL    HW1 1078   1.101   0.333   1.625  0.5758 -0.6036  1.9768
  270SOL    HW2 1079   1.214   0.390   1.542 -0.5303  0.3330  0.4238
  270SOL     MW 1080   1.140   0.404   1.586 -0.1326  0.5707  0.3267
  271SOL     OW 1081   0.829   0.084   2.462  0.4384  0.5114  0.7703
  271SOL    HW1 1082   0.884   0.006   2.476 -2.2020 -1.0560 -1.6571
  271SOL    HW2 1083   0.873   0.155   2.409 -0.3625  2.9925 -2.1017
  271SOL     MW 1084   0.842   0.083   2.457 -0.0157  0.6319  0.0711
  272SOL     OW 1085   1.452   2.826   2.838 -0.4092  0.4086 -0.3174
  272SOL    HW1 1086   1.424   2.836   2.747  0.0997 -2.4372  0.9590
  272SOL    HW2 1087   1.498   2.912   2.853  0.3367 -1.6951 -0.7263
  272SOL     MW 1088   1.454   2.839   2.828 -0.2436 -0.2444 -0.2029
  273SOL     OW 1089   1.425   0.842   2.751 -0.2172 -0.9072  0.5379
  273SOL    HW1 1090   1.482   0.918   2.777 -0.3508  1.8502  2.2394
  273SOL    HW2 1091   1.344   0.884   2.742  2.0744  0.3272  1.3938
  273SOL     MW 1092   1.422   0.857   2.754  0.0675 -0.3806  0.8753
  274SOL     OW 1093   1.426   0.722   0.188  0.1195 -1.0453  0.0618
  274SOL    HW1 1094   1.470   0.639   0.219  0.4630 -1.5044 -0.3887
  274SOL    HW2 1095   1.341   0.716   0.230  1.6789  0.8557  0.0891
  274SOL     MW 1096   1.420   0.710   0.198  0.3706 -0.8551  0.0060
  275SOL     OW 1097   1.758   0.513   1.788  0.3984 -0.0512 -0.3475
  275SOL    HW1 1098   1.830   0.558   1.831 -0.4108 -1.9679  0.5502
  275SOL    HW2 1099   1.781   0.418   1.799 -0.5820 -1.9372 -1.0212
  275SOL     MW 1100   1.771   0.506   1.795  0.1623 -0.5530 -0.3179
  276SOL     OW 1101   0.490   1.246   1.923  0.3151 -0.7235  0.3021
  276SOL    HW1 1102   0.487   1.151   1.934 -1.1518  2.2066 -0.4894
  276SOL    HW2 1103   0.408   1.271   1.974 -0.1897 -3.1773  0.9082
  276SOL     MW 1104   0.479   1.237   1.931  0.0550 -0.6607  0.2776
  277SOL     OW 1105   1.979   1.071   2.454  0.6641  0.0654 -0.3152
  277SOL    HW1 1106   1.998   1.165   2.459  1.2915  0.5920 -0.1791
  277SOL    HW2 1107   1.966   1.051   2.360 -1.7106 -0.7853  0.9774
  277SOL     MW 1108   1.980   1.081   2.442  0.4336  0.0227 -0.1267
  278SOL     OW 1109   1.407   0.671   1.766  1.0792 -0.1262  0.0492
  278SOL    HW1 1110   1.372   0.582   1.791 -2.6290 -2.7818  1.5031
  278SOL    HW2 1111   1.496   0.673   1.796 -1.6169  0.1230 -0.3400
  278SOL     MW 1112   1.414   0.660   1.773  0.2343 -0.4437  0.1897
  279SOL     OW 1113   0.531   0.109   2.281  0.1504  0.2483 -0.7332
  279SOL    HW1 1114   0.616   0.067   2.286  1.0000  1.6942  1.4644
  279SOL    HW2 1115   0.553   0.186   2.233 -2.2910  0.5665  1.9013
  279SOL     MW 1116   0.545   0.113   2.276 -0.0596  0.4811 -0.0956
  280SOL     OW 1117   1.463   1.110   2.161  0.1780  0.0670  0.6005
  280SOL    HW1 1118   1.504   1.031   2.121 -1.6362  0.5809  0.2851
  280SOL    HW2 1119   1.433   1.082   2.252 -2.4265 -0.1202  2.2063
  280SOL     MW 1120   1.465   1.096   2.168 -0.4050  0.1101  0.7707
  281SOL     OW 1121   1.372   1.149   2.679 -0.0012 -0.1295 -0.2357
  281SOL    HW1 1122   1.451   1.205   2.688  2.7986  0.1683  1.2057
  281SOL    HW2 1123   1.343   1.139   2.773  3.3354  1.7721  0.0908
  281SOL     MW 1124   1.378   1.155   2.693  0.8084  0.1607 -0.0025
  282SOL     OW 1125   1.168   1.261   1.616  0.0118 -0.0862 -0.7396
  282SOL    HW1 1126   1.147   1.340   1.562  1.4162 -1.4038  1.5875
  282SOL    HW2 1127   1.100   1.243   1.686  1.7999 -3.5273  0.4599
  282SOL     MW 1128   1.156   1.269   1.618  0.4330 -0.7141 -0.2743
  283SOL     OW 1129   0.878   1.330   0.004 -0.1530  0.2588  0.0842
  283SOL    HW1 1130   0.978   1.333  -0.006  1.9476  3.9845  1.8165
  283SOL    HW2 1131   0.861   1.419  -0.029 -3.0578  0.5860 -4.8798
  283SOL     MW 1132   0.889   1.342  -0.002 -0.2591  0.7936 -0.3422
  284SOL     OW 1133   0.411   0.732   2.337 -0.3053  0.2225 -0.9055
  284SOL    HW1 1134   0.474   0.800   2.316 -0.1025 -1.0619  0.5443
  284SOL    HW2 1135   0.428   0.654   2.278 -1.2869  1.9806 -3.4367
  284SOL     MW 1136   0.421   0.730   2.326 -0.4081  0.2850 -1.0482
  285SOL     OW 1137   0.877   0.907   2.840  0.2680  0.1438  0.4983
  285SOL    HW1 1138   0.893   0.941   2.749  1.4966 -0.4682  2.0080
  285SOL    HW2 1139   0.846   0.816   2.838  0.1203 -2.5654 -0.1834
  285SOL     MW 1140   0.875   0.899   2.828  0.4106 -0.2944  0.6075
  286SOL     OW 1141   1.107   1.477   2.620 -0.6263 -0.3759  0.1412
  286SOL    HW1 1142   1.146   1.398   2.590 -0.0251 -0.5101 -3.4135
  286SOL    HW2 1143   1.138   1.557   2.566 -0.3550  1.4805  2.1545
  286SOL     MW 1144   1.116   1.477   2.609 -0.5111 -0.1487 -0.0622
  287SOL     OW 1145   1.202   1.035   0.336  0.1322  0.5981  0.6648
  287SOL    HW1 1146   1.182   1.091   0.415 -0.4393  1.7848  1.4863
  287SOL    HW2 1147   1.145   1.044   0.264  0.3748 -1.9635  1.1151
  287SOL     MW 1148   1.192   1.043   0.337  0.0888  0.4167  0.8326
  288SOL     OW 1149   1.472   0.612   2.078  0.0795  0.0519  0.1117
  288SOL    HW1 1150   1.432   0.589   2.171 -0.2633  0.7046  0.8501
  288SOL    HW2 1151   1.474   0.707   2.054  1.6959  3.8376 -0.8913
  288SOL     MW 1152   1.467   0.622   2.087  0.2475  0.6375  0.0768
  289SOL     OW 1153   0.941   0.997   2.585 -0.7847 -0.1303  0.0717
  289SOL    HW1 1154   0.986   0.907   2.564 -1.8202 -2.6555 -0.5710
  289SOL    HW2 1155   0.856   0.995   2.544 -1.8508  0.0039  0.8057
  289SOL     MW 1156   0.935   0.985   2.577 -1.0620 -0.4458  0.0838
  290SOL     OW 1157   0.800   0.623   1.475  0.5124  0.7829 -0.3871
  290SOL    HW1 1158   0.853   0.574   1.411 -0.4191 -2.0270  0.2867
  290SOL    HW2 1159   0.863   0.645   1.543 -1.5136  1.0658  0.5242
  290SOL     MW 1160   0.815   0.619   1.476  0.1222  0.4495 -0.1779
  291SOL     OW 1161   0.182   0.374   0.142  0.1229 -0.1493  0.0701
  291SOL    HW1 1162   0.278   0.347   0.136  1.5413 -0.3309 -1.2258
  291SOL    HW2 1163   0.141   0.288   0.130 -0.4530 -0.9830  2.2702
  291SOL     MW 1164   0.189   0.359   0.140  0.2341 -0.2833  0.1894
  292SOL     OW 1165   1.049   0.599   0.132  0.2643 -0.1252 -0.3552
  292SOL    HW1 1166   1.088   0.658   0.205 -2.8645  2.2845  1.7949
  292SOL    HW2 1167   1.073   0.509   0.152  3.1457  1.4614  0.0037
  292SOL     MW 1168   1.058   0.595   0.144  0.2317  0.4021 -0.0241
  293SOL     OW 1169   0.123   0.179   2.509  0.0916 -0.1288  0.3308
  293SOL    HW1 1170   0.094   0.109   2.447 -0.7626 -1.0135  0.2781
  293SOL    HW2 1171   0.049   0.198   2.562 -1.5874 -0.2535  0.0130
  293SOL     MW 1172   0.110   0.172   2.508 -0.2427 -0.2620  0.2819
  294SOL     OW 1173   1.324   0.529   2.311 -0.6124 -0.6194  0.2392
  294SOL    HW1 1174   1.338   0.583   2.389 -1.4743  0.9271 -1.8516
  294SOL    HW2 1175   1.338   0.441   2.347  0.0428 -1.8508  2.1022
  294SOL     MW 1176   1.328   0.524   2.326 -0.6396 -0.5778  0.2091
  295SOL     OW 1177   0.865   0.540   2.524 -0.5640  0.2204 -0.5579
  295SOL    HW1 1178   0.829   0.522   2.437 -2.4137  0.3015  0.8829
  295SOL    HW2 1179   0.793   0.563   2.586  0.6734  0.7673 -1.8428
  295SOL     MW 1180   0.851   0.541   2.521 -0.6448  0.3032 -0.5373
  296SOL     OW 1181   1.225   0.221   2.033  0.2123 -0.5214  0.2206
  296SOL    HW1 1182   1.282   0.150   2.008  0.4844  1.2280  0.8475
  296SOL    HW2 1183   1.229   0.228   2.127  0.2730 -0.7709  0.9029
  296SOL     MW 1184   1.233   0.212   2.042  0.2562 -0.3235  0.3934
  297SOL     OW 1185   1.394   0.377   1.525  0.3510  0.0857  0.1923
  297SOL    HW1 1186   1.408   0.440   1.592  1.3742 -0.4107 -3.6086
  297SOL    HW2 1187   1.401   0.291   1.565 -1.2488 -0.0583 -1.0994
  297SOL     MW 1188   1.397   0.374   1.539  0.2749  0.0012 -0.4796
  298SOL     OW 1189   1.597   0.899   2.073 -0.2522  0.3304 -0.3083
  298SOL    HW1 1190   1.659   0.945   2.011  0.9217 -0.5117  0.6664
  298SOL    HW2 1191   1.660   0.859   2.130 -1.3243  1.4537  3.2846
  298SOL     MW 1192   1.614   0.900   2.072 -0.2387  0.3675  0.2944
  299SOL     OW 1193   0.568   1.137   0.054 -0.4769  0.1992  0.0078
  299SOL    HW1 1194   0.546   1.130  -0.040  1.7466  2.2026  3.6855
  299SOL    HW2 1195   0.645   1.194   0.057  0.4661  1.4543 -0.9434
  299SOL     MW 1196   0.575   1.144   0.042 -0.0591  0.6291  0.3676
  300SOL     OW 1197   1.182   1.148   2.510 -0.9656  0.6100 -0.1445
  300SOL    HW1 1198   1.123   1.087   2.549  0.0098 -1.9108  0.2442
  300SOL    HW2 1199   1.251   1.156   2.578 -0.7810 -0.4664 -1.4679
  300SOL     MW 1200   1.183   1.141   2.524 -0.8126  0.1353 -0.2678
  301SOL     OW 1201   1.413   0.993   0.715 -0.2959  0.4013  0.4357
  301SOL    HW1 1202   1.457   1.016   0.795 -0.6226  0.7764  0.7132
  301SOL    HW2 1203   1.356   0.920   0.733 -2.3390  1.1676  0.7328
  301SOL     MW 1204   1.411   0.986   0.728 -0.6086  0.5519  0.5115
  302SOL     OW 1205   0.210   1.543   2.043 -0.3370  0.5381 -0.1486
  302SOL    HW1 1206   0.214   1.449   2.050  2.0195  1.3272 -1.4852
  302SOL    HW2 1207   0.116   1.552   2.055 -0.2992 -1.1473  2.3727
  302SOL     MW 1208   0.198   1.532   2.045 -0.0211  0.4199  0.0077
  303SOL     OW 1209   0.322   1.789   2.660  1.0142 -0.0173  0.2962
  303SOL    HW1 1210   0.260   1.773   2.590  0.1715 -1.5340 -0.4366
  303SOL    HW2 1211   0.259   1.810   2.730 -2.1918 -1.2628  1.5175
  303SOL     MW 1212   0.306   1.789   2.660  0.4800 -0.3818  0.3607
  304SOL     OW 1213   0.502   2.027   2.350  0.4396 -0.3409  0.5769
  304SOL    HW1 1214   0.563   2.098   2.315 -0.7735  0.0874  4.0649
  304SOL    HW2 1215   0.566   1.968   2.393  0.6862  0.2015 -2.5173
  304SOL     MW 1216   0.518   2.029   2.351  0.3121 -0.2128  0.6289
  305SOL     OW 1217   1.106   0.675   0.569  0.4941  0.1455 -0.0144
  305SOL    HW1 1218   1.017   0.654   0.533 -3.3611  1.0947  1.7548
  305SOL    HW2 1219   1.154   0.589   0.573  0.8279 -1.8077 -0.3587
  305SOL     MW 1220   1.100   0.661   0.565  0.0295  0.0131  0.1736
  306SOL     OW 1221   1.124   1.555   0.210 -0.4618 -0.0124  0.3118
  306SOL    HW1 1222   1.118   1.462   0.244 -1.7677 -1.0498  0.1365
  306SOL    HW2 1223   1.200   1.564   0.155  0.4214 -0.5612  1.6258
  306SOL     MW 1224   1.133   1.544   0.207 -0.5176 -0.2217  0.4620
  307SOL     OW 1225   1.334   0.431   1.892  0.3747  0.1124 -0.2735
  307SOL    HW1 1226   1.292   0.365   1.953  1.6887 -0.7636  1.4782
  307SOL    HW2 1227   1.386   0.489   1.949 -0.0069  1.3222  0.2043
  307SOL     MW 1228   1.335   0.430   1.908  0.4977  0.1564  0.0206
  308SOL     OW 1229   2.237   0.500   2.670  0.3245  0.0763 -0.0539
  308SOL    HW1 1230   2.329   0.513   2.686  0.4744  1.7459 -1.2896
  308SOL    HW2 1231   2.205   0.593   2.684 -0.1558 -0.7859 -1.8609
  308SOL     MW 1232   2.245   0.514   2.674  0.2809  0.1829 -0.4554
  309SOL     OW 1233   0.477   0.564   0.231 -0.0519  0.6518 -0.0306
  309SOL    HW1 1234   0.562   0.588   0.195  2.9108 -0.9932  2.9433
  309SOL    HW2 1235   0.459   0.476   0.204 -0.5020  0.8926  1.5070
  309SOL     MW 1236   0.486   0.555   0.223  0.2796  0.4665  0.5647
  310SOL     OW 1237   0.486   0.645   1.921 -0.2836  0.3086  0.0972
  310SOL    HW1 1238   0.526   0.576   1.858  3.5070 -1.4692 -1.6645
  310SOL    HW2 1239   0.518   0.721   1.877 -2.7573 -0.7790  0.1525
  310SOL     MW 1240   0.496   0.646   1.906 -0.1099 -0.0695 -0.1280
  311SOL     OW 1241   1.952   0.649   1.929  0.2218  0.1226  0.3164
  311SOL    HW1 1242   1.893   0.658   2.002  1.1520 -3.5397  1.3314
  311SOL    HW2 1243   2.017   0.582   1.970 -1.5761 -2.3431  2.9525
  311SOL     MW 1244   1.953   0.642   1.944  0.1073 -0.6859  0.7981
  312SOL     OW 1245   1.798   2.446   0.159 -0.2206 -0.2606 -0.3215
  312SOL    HW1 1246   1.811   2.412   0.246 -0.0083  1.0244 -1.4027
  312SOL    HW2 1247   1.722   2.501   0.154  0.6418  0.1047 -1.3201
  312SOL     MW 1248   1.790   2.449   0.170 -0.0788 -0.0429 -0.5959
  313SOL     OW 1249   0.148   1.146   3.028  0.6225 -0.2095 -0.0733
  313SOL    HW1 1250   0.129   1.184   3.114 -3.0756  0.3827  0.3750
  313SOL    HW2 1251   0.222   1.193   2.990 -2.6998 -1.6448 -0.5869
  313SOL     MW 1252   0.156   1.157   3.034 -0.3038 -0.3207 -0.0819
  314SOL     OW 1253   2.166   2.955   3.069 -0.2374 -0.8341  0.8465
  314SOL    HW1 1254   2.112   3.000   2.991  2.2625 -0.3558  1.9061
  314SOL    HW2 1255   2.207   3.031   3.114 -1.6654 -0.3330 -0.6540
  314SOL     MW 1256   2.165   2.971   3.065 -0.0960 -0.7049  0.7883
  315SOL     OW 1257   1.544   1.821   2.971 -0.2473  0.1368 -0.4641
  315SOL    HW1 1258   1.511   1.894   3.036  2.1969 -0.8962 -0.7187
  315SOL    HW2 1259   1.573   1.881   2.900  1.4260 -0.0921  2.0977
  315SOL     MW 1260   1.543   1.839   2.970  0.2960 -0.0297 -0.1597
  316SOL     OW 1261   1.245   0.564   2.723 -0.1989  0.0444 -0.0318
  316SOL    HW1 1262   1.341   0.563   2.716 -1.2123  2.0726  2.0280
  316SOL    HW2 1263   1.231   0.574   2.820  0.6002 -0.7201  0.6199
  316SOL     MW 1264   1.256   0.565   2.735 -0.2272  0.2112  0.3259
  317SOL     OW 1265   0.696   1.590   2.654 -0.2618  0.5026  0.6088
  317SOL    HW1 1266   0.751   1.514   2.664 -0.0099 -0.1011 -2.2943
  317SOL    HW2 1267   0.693   1.603   2.562 -1.6533 -0.6730  2.5048
  317SOL     MW 1268   0.703   1.582   2.643 -0.4122  0.2678  0.4759
  318SOL     OW 1269   1.343   0.350   2.951 -0.3348 -0.1924 -0.0439
  318SOL    HW1 1270   1.257   0.393   2.938 -2.7488  0.5831 -2.6554
  318SOL    HW2 1271   1.406   0.398   2.895 -4.2925  0.0823  1.5566
  318SOL     MW 1272   1.340   0.362   2.942 -1.1755 -0.0538 -0.1773
  319SOL     OW 1273   0.865   0.357   2.914  0.3264  0.1684 -0.6844
  319SOL    HW1 1274   0.817   0.284   2.866  2.3354 -3.2577 -2.6074
  319SOL    HW2 1275   0.793   0.400   2.967 -1.9735  2.1891  2.2919
  319SOL     MW 1276   0.849   0.353   2.915  0.2880 -0.0171 -0.5454
  320SOL     OW 1277   1.074   1.397   1.982  0.0557  0.3095 -0.4101
  320SOL    HW1 1278   1.133   1.321   1.993 -0.4440  1.3585  0.6803
  320SOL    HW2 1279   1.139   1.461   1.970 -0.6833 -0.8802 -0.4754
  320SOL     MW 1280   1.090   1.395   1.982 -0.1077  0.2910 -0.2749
  321SOL     OW 1281   1.117   0.914   2.998 -0.5552  0.2156 -0.0210
  321SOL    HW1 1282   1.051   0.891   2.933  2.6085  0.5711  1.5906
  321SOL    HW2 1283   1.179   0.838   2.993  0.5593 -0.4883 -1.5829
  321SOL     MW 1284   1.117   0.901   2.988  0.0092  0.1697 -0.0144
  322SOL     OW 1285   1.206   0.839   1.652  0.4614  0.5757 -0.1001
  322SOL    HW1 1286   1.263   0.773   1.694  0.5334 -0.1120  0.4252
  322SOL    HW2 1287   1.160   0.873   1.735  1.4132 -0.1517  4.6892
  322SOL     MW 1288   1.207   0.835   1.668  0.5965  0.3890  0.6011
  323SOL     OW 1289   1.243   1.627   1.887 -0.1123 -0.1307  0.0840
  323SOL    HW1 1290   1.290   1.598   1.807 -1.5190 -0.3186 -0.4482
  323SOL    HW2 1291   1.199   1.707   1.869  1.7113 -0.1642 -1.5147
  323SOL     MW 1292   1.244   1.633   1.874 -0.0573 -0.1599 -0.1972
  324SOL     OW 1293   1.489   1.001   2.411 -0.4242 -0.0631  0.0195
  324SOL    HW1 1294   1.432   1.037   2.481  0.8210  1.3788 -1.2868
  324SOL    HW2 1295   1.568   1.051   2.439  0.0706  0.4338  3.5254
  324SOL     MW 1296   1.492   1.012   2.424 -0.1946  0.1927  0.3097
  325SOL     OW 1297   1.113   0.501   2.978  0.0824  0.1412  0.2112
  325SOL    HW1 1298   1.093   0.555   3.059  0.2992 -1.7547  0.6634
  325SOL    HW2 1299   1.033   0.460   2.951  2.1182 -0.5546 -0.6048
  325SOL     MW 1300   1.100   0.502   2.985  0.3796 -0.2008  0.1632
  326SOL     OW 1301   0.341   1.367   2.281  0.3575 -0.0993  0.0559
  326SOL    HW1 1302   0.440   1.338   2.270  3.2173 -1.1956 -0.1401
  326SOL    HW2 1303   0.351   1.457   2.262 -0.6623 -0.4207  1.5769
  326SOL     MW 1304   0.355   1.375   2.277  0.6003 -0.2863  0.2307
  327SOL     OW 1305   1.945   0.793   2.452  0.5069 -0.1802  0.0887
  327SOL    HW1 1306   1.901   0.744   2.529  0.0490  1.8432 -0.3390
  327SOL    HW2 1307   1.945   0.888   2.471 -1.0546  2.5033 -3.0614
  327SOL     MW 1308   1.939   0.799   2.465  0.2404  0.4408 -0.3834
  328SOL     OW 1309   0.239   1.261   2.045 -0.1149 -0.4442 -0.4569
  328SOL    HW1 1310   0.162   1.202   2.051  0.3344 -1.3915 -1.7913
  328SOL    HW2 1311   0.264   1.281   2.135  0.2569  0.3248  0.9607
  328SOL     MW 1312   0.232   1.256   2.058 -0.0065 -0.4678 -0.4459
  329SOL     OW 1313   0.083   0.169   1.344 -0.3217 -0.2254 -0.1856
  329SOL    HW1 1314   0.102   0.123   1.425  2.0062  0.4313  1.7537
  329SOL    HW2 1315   0.177   0.187   1.316  1.4494 -2.4346  0.6185
  329SOL     MW 1316   0.098   0.165   1.351  0.2191 -0.4302  0.1763
  330SOL     OW 1317   0.399   3.090   2.026  0.2561  0.3909 -0.1802
  330SOL    HW1 1318   0.484   3.063   2.059  1.0970  0.7428 -0.4770
  330SOL    HW2 1319   0.337   3.081   2.098 -2.6398 -4.2647 -0.6225
  330SOL     MW 1320   0.402   3.085   2.040 -0.0151 -0.1769 -0.2777
  331SOL     OW 1321   0.783   1.248   2.466  0.3876 -0.0135  0.0865
  331SOL    HW1 1322   0.727   1.310   2.424  1.2515  0.6897 -0.4238
  331SOL    HW2 1323   0.825   1.296   2.542 -1.2508 -0.6772  1.0708
  331SOL     MW 1324   0.781   1.262   2.471  0.2854 -0.0083  0.1491
  332SOL     OW 1325   1.333   1.663   2.895 -0.1877 -0.2261  0.1003
  332SOL    HW1 1326   1.315   1.697   2.808  0.1522 -0.0530 -0.0192
  332SOL    HW2 1327   1.421   1.704   2.911  2.1383 -1.4632  2.3875
  332SOL     MW 1328   1.342   1.673   2.885  0.1641 -0.3665  0.3863
  333SOL     OW 1329   1.714   1.403   2.912 -0.5093 -0.2261  0.3457
  333SOL    HW1 1330   1.815   1.404   2.929  2.3385  0.6991  0.6800
  333SOL    HW2 1331   1.685   1.323   2.954  0.6405  0.4207 -0.9150
  333SOL     MW 1332   1.724   1.392   2.919  0.0182 -0.0187  0.2235
  334SOL     OW 1333   1.258   3.054   2.641 -0.3695  0.4853  0.7772
  334SOL    HW1 1334   1.167   3.049   2.663 -1.4010  0.5379 -0.1041
  334SOL    HW2 1335   1.303   3.130   2.692  0.3934  1.0869  3.0394
  334SOL     MW 1336   1.252   3.063   2.650 -0.4049  0.5716  0.9594
  335SOL     OW 1337   1.316   0.735   2.988  0.4681 -0.2212 -0.0973
  335SOL    HW1 1338   1.364   0.715   3.076  1.9003 -2.7828 -0.5076
  335SOL    HW2 1339   1.369   0.744   2.907  2.0910 -1.6138  1.9299
  335SOL     MW 1340   1.329   0.733   2.989  0.8712 -0.7429  0.1160
  336SOL     OW 1341   0.959   1.195   1.767  0.1360  0.1085  0.2224
  336SOL    HW1 1342   0.915   1.258   1.816  1.9034 -0.2796 -2.1624
  336SOL    HW2 1343   0.996   1.128   1.827 -1.4019 -1.0512 -1.0530
  336SOL     MW 1344   0.958   1.195   1.782  0.1663 -0.0957 -0.2605
  337SOL     OW 1345   0.578   1.861   2.792 -0.1865 -0.0693  0.1970
  337SOL    HW1 1346   0.544   1.817   2.717 -0.3737  1.4112  1.1643
  337SOL    HW2 1347   0.675   1.848   2.794 -1.7796 -0.2015  0.2759
  337SOL     MW 1348   0.586   1.853   2.782 -0.4214  0.1086  0.3350
  338SOL     OW 1349   1.042   0.759   2.548 -0.6978  0.2167 -0.5083
  338SOL    HW1 1350   0.974   0.688   2.553  1.9148  0.8197 -1.7347
  338SOL    HW2 1351   1.118   0.716   2.580  2.2501 -1.0433 -0.0127
  338SOL     MW 1352   1.043   0.744   2.553  0.0359  0.1300 -0.6048
  339SOL     OW 1353   1.458   1.114   1.862 -0.1736  0.1254  0.0424
  339SOL    HW1 1354   1.424   1.104   1.772 -0.6899 -0.5708  0.4503
  339SOL    HW2 1355   1.390   1.078   1.918 -1.2576  1.1911 -0.8973
  339SOL     MW 1356   1.444   1.108   1.858 -0.3848  0.1742 -0.0278
  340SOL     OW 1357   1.337   1.501   0.037 -0.6715  0.4704  0.0703
  340SOL    HW1 1358   1.360   1.541  -0.047 -3.4753 -1.4548 -0.7677
  340SOL    HW2 1359   1.413   1.445   0.061  0.2055 -3.8979 -0.4442
  340SOL     MW 1360   1.350   1.499   0.029 -0.9257 -0.3600 -0.1081
  341SOL     OW 1361   0.031   1.362   2.758 -0.1159 -0.1695  0.0908
  341SOL    HW1 1362   0.089   1.293   2.789  0.7122  1.6842  2.6889
  341SOL    HW2 1363   0.010   1.343   2.671  0.4208 -3.4631  1.8196
  341SOL     MW 1364   0.036   1.350   2.751  0.0642 -0.3595  0.6617
  342SOL     OW 1365   1.375   0.333   0.124  0.2950 -0.2844  0.2870
  342SOL    HW1 1366   1.438   0.391   0.179  1.9666 -0.5302  1.2381
  342SOL    HW2 1367   1.368   0.361   0.033 -0.9015 -0.3817 -0.0410
  342SOL     MW 1368   1.383   0.344   0.119  0.3577 -0.3296  0.3692
  343SOL     OW 1369   0.303   0.298   2.219 -0.1518 -0.1494  0.3567
  343SOL    HW1 1370   0.365   0.227   2.238  2.9496 -0.9629  0.3028
  343SOL    HW2 1371   0.222   0.248   2.200  0.9528  0.5611 -4.0658
  343SOL     MW 1372   0.301   0.282   2.219  0.4031 -0.1630 -0.2339
  344SOL     OW 1373   1.718   2.029   0.166 -0.0233  0.1570 -0.5253
  344SOL    HW1 1374   1.740   2.086   0.090  0.9952  1.1228  0.8100
  344SOL    HW2 1375   1.630   2.045   0.172  2.1205 -3.2193  0.1569
  344SOL     MW 1376   1.709   2.039   0.157  0.3939 -0.1610 -0.2591
  345SOL     OW 1377   0.682   1.565   2.368  0.4024 -0.2570 -0.1092
  345SOL    HW1 1378   0.618   1.614   2.311 -1.8805  1.1079 -0.0768
  345SOL    HW2 1379   0.752   1.540   2.311  0.9000  2.3481 -0.4246
  345SOL     MW 1380   0.683   1.568   2.353  0.1668  0.2668 -0.1465
  346SOL     OW 1381   1.717   1.112   3.066 -0.1290 -0.4660 -0.6918
  346SOL    HW1 1382   1.810   1.100   3.075 -1.9304  1.1915 -3.2394
  346SOL    HW2 1383   1.686   1.047   3.134  0.4480 -0.1483  1.4532
  346SOL     MW 1384   1.725   1.102   3.076 -0.2905 -0.2054 -0.7449
  347SOL     OW 1385   1.140   0.751   2.265 -0.1047 -0.1179 -0.1617
  347SOL    HW1 1386   1.213   0.690   2.263  0.4796 -1.5289  0.6677
  347SOL    HW2 1387   1.111   0.767   2.359 -2.7528  0.5915  1.6442
  347SOL     MW 1388   1.145   0.745   2.277 -0.3770 -0.2105  0.1860
  348SOL     OW 1389   1.361   2.553   1.910  0.3223  0.4685 -0.1503
  348SOL    HW1 1390   1.335   2.505   1.992 -0.1707 -2.4665  0.8555
  348SOL    HW2 1391   1.397   2.636   1.945 -0.4673  0.0495 -0.4930
  348SOL     MW 1392   1.362   2.557   1.925  0.1531  0.0260 -0.0628
  349SOL     OW 1393   1.401   0.167   2.758 -0.5505  0.6730  0.2431
  349SOL    HW1 1394   1.367   0.228   2.822  2.1204 -0.1789  0.7527
  349SOL    HW2 1395   1.460   0.104   2.805 -0.6129  1.4982  0.7910
  349SOL     MW 1396   1.404   0.167   2.773 -0.2063  0.6695  0.3826
  350SOL     OW 1397   1.829   0.651   2.667 -0.0423  0.1324 -0.9243
  350SOL    HW1 1398   1.792   0.571   2.616  3.4656  1.8609 -0.0707
  350SOL    HW2 1399   1.898   0.618   2.723 -2.2811 -0.7762  1.2233
  350SOL     MW 1400   1.833   0.636   2.668  0.1251  0.2406 -0.5283
  351SOL     OW 1401   0.067   1.174   1.637 -0.0874 -0.6865 -0.3795
  351SOL    HW1 1402  -0.002   1.168   1.708 -1.3925  0.7372  1.5773
  351SOL    HW2 1403   0.132   1.240   1.670 -2.0528 -1.9480 -0.2264
  351SOL     MW 1404   0.066   1.182   1.651 -0.5189 -0.6651 -0.1011
  352SOL     OW 1405   0.846   1.748   2.795  0.1432  0.1057  0.3118
  352SOL    HW1 1406   0.836   1.725   2.893  1.3690  0.8236 -0.9151
  352SOL    HW2 1407   0.780   1.689   2.745 -2.0266 -1.7014 -0.2621
  352SOL     MW 1408   0.836   1.737   2.802  0.0186 -0.0380  0.0742
  353SOL     OW 1409   0.020   2.546   2.739 -0.4019  0.1920 -0.2756
  353SOL    HW1 1410   0.099   2.547   2.683 -2.1793  1.3267 -0.2819
  353SOL    HW2 1411   0.011   2.639   2.751 -0.4345  0.8207 -0.7990
  353SOL     MW 1412   0.029   2.558   2.733 -0.6407  0.4247 -0.3455
  354SOL     OW 1413   0.321   2.459   0.847  0.5439 -0.4346  0.4399
  354SOL    HW1 1414   0.346   2.450   0.940 -0.3293  0.7051 -2.1521
  354SOL    HW2 1415   0.243   2.406   0.825  1.8604 -0.2111 -2.8251
  354SOL     MW 1416   0.314   2.451   0.857  0.6024 -0.2547 -0.3329
  355SOL     OW 1417   3.053   2.203   0.334 -0.8572 -1.1252  0.0069
  355SOL    HW1 1418   2.978   2.147   0.334  1.3530  1.8555  1.1509
  355SOL    HW2 1419   3.034   2.256   0.414  1.3290 -0.0608  1.0511
  355SOL     MW 1420   3.041   2.202   0.344 -0.2771 -0.5915  0.2956
  356SOL     OW 1421   0.821   2.776   0.947  0.3322  0.6167  0.6429
  356SOL    HW1 1422   0.878   2.833   0.891  1.5375  0.2278 -0.6745
  356SOL    HW2 1423   0.733   2.791   0.908  0.8509  1.2538  1.5951
  356SOL     MW 1424   0.817   2.786   0.935  0.5597  0.6494  0.5947
  357SOL     OW 1425   1.790   2.813   0.490  0.1755 -0.2217  0.2534
  357SOL    HW1 1426   1.789   2.733   0.543  1.4190  0.2228  0.1308
  357SOL    HW2 1427   1.867   2.797   0.433  1.2012 -2.5384 -1.5257
  357SOL     MW 1428   1.800   2.801   0.489  0.4749 -0.4687  0.0025
  358SOL     OW 1429   0.447   0.166   1.025 -0.2328  0.5340  0.3777
  358SOL    HW1 1430   0.543   0.147   1.008  0.5076 -0.4633 -0.3550
  358SOL    HW2 1431   0.416   0.186   0.936  0.4073  1.5408  0.7635
  358SOL     MW 1432   0.456   0.166   1.011 -0.0506  0.5353  0.3319
  359SOL     OW 1433   0.786   2.947   1.847  0.4041  0.6283 -0.5048
  359SOL    HW1 1434   0.778   2.855   1.874 -1.2055  1.2640  1.7039
  359SOL    HW2 1435   0.833   2.946   1.763  2.2443  0.6641 -1.9298
  359SOL     MW 1436   0.791   2.935   1.839  0.4345  0.7169 -0.4014
  360SOL     OW 1437   0.556   2.756   0.866  0.0749 -0.3270 -0.2170
  360SOL    HW1 1438   0.572   2.721   0.778  0.8065  0.0156 -0.7731
  360SOL    HW2 1439   0.563   2.681   0.933 -3.0811 -2.0714 -0.2219
  360SOL     MW 1440   0.559   2.742   0.863 -0.2450 -0.5119 -0.2910
  361SOL     OW 1441   0.211   2.624   1.410  0.0845  0.6793  0.5039
  361SOL    HW1 1442   0.164   2.693   1.457 -1.1685  1.1510 -1.1968
  361SOL    HW2 1443   0.296   2.654   1.414 -1.3187 -1.1276  1.4000
  361SOL     MW 1444   0.216   2.637   1.417 -0.2660  0.5031  0.3978
  362SOL     OW 1445   1.414   2.386   0.585 -0.4486 -0.1158 -0.5869
  362SOL    HW1 1446   1.440   2.346   0.667 -2.9067  0.5416 -1.5529
  362SOL    HW2 1447   1.445   2.482   0.599  0.7212  0.1387 -0.8594
  362SOL     MW 1448   1.422   2.393   0.597 -0.6186  0.0045 -0.7503
  363SOL     OW 1449   0.313   3.063   0.644  0.0818 -0.4205 -0.2998
  363SOL    HW1 1450   0.287   3.018   0.723 -0.1329  0.4555  0.3576
  363SOL    HW2 1451   0.232   3.075   0.590  1.7652 -3.8381 -0.4799
  363SOL     MW 1452   0.299   3.059   0.648  0.2756 -0.7559 -0.2368
  364SOL     OW 1453   0.773   0.247   0.164  0.0736  0.0856 -0.5606
  364SOL    HW1 1454   0.701   0.179   0.173 -0.2235 -0.8724 -1.6517
  364SOL    HW2 1455   0.742   0.318   0.106  1.6262 -0.0715  0.3532
  364SOL     MW 1456   0.760   0.248   0.157  0.2393 -0.0615 -0.5840
  365SOL     OW 1457   0.966   2.031   1.116 -0.7560 -0.0524  0.0701
  365SOL    HW1 1458   0.908   2.106   1.116  1.2428 -1.7417  2.0402
  365SOL    HW2 1459   0.921   1.960   1.071  0.3164  4.4499  0.4495
  365SOL     MW 1460   0.952   2.032   1.110 -0.3508  0.3187  0.3801
  366SOL     OW 1461   2.948   2.656   0.950  0.3244  0.1863  0.3323
  366SOL    HW1 1462   3.031   2.687   0.979  0.2750  1.3928 -1.7040
  366SOL    HW2 1463   2.954   2.683   0.852 -0.3992  0.1109 -0.3276
  366SOL     MW 1464   2.960   2.663   0.941  0.2225  0.3356 -0.0235
  367SOL     OW 1465   1.225   2.962   0.915 -0.0855  0.5416  0.6101
  367SOL    HW1 1466   1.260   3.029   0.863 -3.1431 -0.1032 -0.0764
  367SOL    HW2 1467   1.186   2.895   0.853 -0.0519 -0.8438  2.4438
  367SOL     MW 1468   1.225   2.962   0.900 -0.4845  0.2738  0.7615
  368SOL     OW 1469   1.727   0.392   0.729  0.5871  0.2315 -0.3292
  368SOL    HW1 1470   1.773   0.333   0.674 -0.7160  2.3162  2.2299
  368SOL    HW2 1471   1.749   0.479   0.701 -0.6661 -0.6673 -0.6662
  368SOL     MW 1472   1.736   0.396   0.718  0.2499  0.3880 -0.0360
  369SOL     OW 1473   0.119   2.421   1.786  0.2435  0.4947  0.2213
  369SOL    HW1 1474   0.217   2.443   1.781 -0.3406  0.2059  0.4473
  369SOL    HW2 1475   0.086   2.512   1.779 -1.1228 -0.4996  3.4074
  369SOL     MW 1476   0.127   2.436   1.784 -0.0138  0.3254  0.6715
  370SOL     OW 1477   0.743   0.153   0.960  0.0210  0.2106  0.0864
  370SOL    HW1 1478   0.768   0.247   0.951  1.1437  1.3229  1.7037
  370SOL    HW2 1479   0.811   0.097   0.945 -2.2106 -1.6878  0.0024
  370SOL     MW 1480   0.755   0.158   0.957 -0.1253  0.1069  0.2887
  371SOL     OW 1481   1.251   2.839   1.511 -0.7511  0.0623 -0.0533
  371SOL    HW1 1482   1.223   2.747   1.524  0.4663 -1.0247  1.2226
  371SOL    HW2 1483   1.240   2.857   1.414 -1.1089 -1.6476 -0.0280
  371SOL     MW 1484   1.246   2.829   1.500 -0.6377 -0.3068  0.1183
  372SOL     OW 1485   0.818   2.310   0.491  0.1541  0.0539  0.6107
  372SOL    HW1 1486   0.768   2.228   0.499  1.1195 -0.1213  1.1104
  372SOL    HW2 1487   0.846   2.297   0.389  0.8858  0.4043 -1.8515
  372SOL     MW 1488   0.815   2.297   0.478  0.3780  0.0770  0.3518
  373SOL     OW 1489   2.863   3.016   1.389 -0.1361 -0.2995 -0.0162
  373SOL    HW1 1490   2.935   2.981   1.331  1.2990 -0.5212 -2.5278
  373SOL    HW2 1491   2.871   3.111   1.370  0.7862  0.0248 -2.5681
  373SOL     MW 1492   2.874   3.024   1.379  0.1749 -0.2859 -0.6843
  374SOL     OW 1493   1.529   0.496   0.274 -0.1334 -0.1100 -0.7995
  374SOL    HW1 1494   1.618   0.458   0.270  0.3231  0.3133  0.1420
  374SOL    HW2 1495   1.496   0.469   0.362  1.6485  1.6926  3.5127
  374SOL     MW 1496   1.536   0.487   0.285  0.1620  0.1837 -0.1063
  375SOL     OW 1497   0.955   2.128   2.335 -0.3910  0.3198  0.7835
  375SOL    HW1 1498   1.026   2.095   2.390  3.3774  2.7598  0.6088
  375SOL    HW2 1499   0.917   2.057   2.275 -0.8061  0.7547 -2.3881
  375SOL     MW 1500   0.960   2.114   2.335  0.0514  0.6991  0.3420
  376SOL     OW 1501   0.704   2.475   0.059  0.1313  0.1601 -0.4678
  376SOL    HW1 1502   0.633   2.421   0.095  1.3849  1.1600  1.5182
  376SOL    HW2 1503   0.730   2.431  -0.024 -0.4638 -2.4772 -3.3397
  376SOL     MW 1504   0.698   2.462   0.053  0.2182 -0.0560 -0.5847
  377SOL     OW 1505   1.255   2.098   0.916 -0.0576 -0.0821 -0.0501
  377SOL    HW1 1506   1.172   2.078   0.873 -0.4346  0.5012  1.0233
  377SOL    HW2 1507   1.260   2.029   0.984  0.7930 -1.7378  0.4934
  377SOL     MW 1508   1.245   2.086   0.920  0.0049 -0.2236  0.1632
  378SOL     OW 1509   0.920   2.892   1.600  0.0628  0.8557 -0.2839
  378SOL    HW1 1510   0.931   2.796   1.596 -0.9384 -0.0107 -3.7941
  378SOL    HW2 1511   0.995   2.909   1.537  3.1318  0.7730  0.7345
  378SOL     MW 1512   0.932   2.881   1.591  0.3356  0.7305 -0.6127
  379SOL     OW 1513   1.121   1.653   2.163 -0.4065 -0.2498 -0.1838
  379SOL    HW1 1514   1.046   1.591   2.157 -1.4909 -0.6180 -1.3041
  379SOL    HW2 1515   1.183   1.622   2.099 -1.5423  0.3244  0.9367
  379SOL     MW 1516   1.119   1.641   2.154 -0.6995 -0.2226 -0.1838
  380SOL     OW 1517   0.906   0.076   1.460  0.4186 -0.8554 -0.0715
  380SOL    HW1 1518   0.927  -0.012   1.431 -0.6286  0.6648 -1.3744
  380SOL    HW2 1519   0.945   0.084   1.552 -3.1309  2.5050 -0.7881
  380SOL     MW 1520   0.914   0.066   1.468 -0.1879 -0.2114 -0.3380
  381SOL     OW 1521   0.747   2.084   0.844  0.8973 -0.2033 -0.4745
  381SOL    HW1 1522   0.840   2.081   0.829 -0.1589  0.0384 -0.6800
  381SOL    HW2 1523   0.736   2.138   0.924  0.2830  0.9640  2.8010
  381SOL     MW 1524   0.758   2.091   0.852  0.6769 -0.0174 -0.0694
  382SOL     OW 1525   0.752   0.152   0.623  0.6305 -0.1793  0.4332
  382SOL    HW1 1526   0.715   0.172   0.707 -0.8411  2.1338 -0.5240
  382SOL    HW2 1527   0.733   0.060   0.603 -0.4246  1.0156  2.3484
  382SOL     MW 1528   0.744   0.143   0.631  0.2971  0.2835  0.5596
  383SOL     OW 1529   0.560   0.045   0.280  0.2002 -0.0430  0.0396
  383SOL    HW1 1530   0.628  -0.007   0.242 -0.4047  0.8458 -1.5496
  383SOL    HW2 1531   0.545  -0.006   0.361  0.9227  0.8837  1.8952
  383SOL     MW 1532   0.567   0.032   0.285  0.2157  0.1966  0.0748
  384SOL     OW 1533   0.760   2.975   0.601 -0.2510 -0.5583 -0.3559
  384SOL    HW1 1534   0.826   2.950   0.668 -0.1040 -0.7279  2.8965
  384SOL    HW2 1535   0.699   2.901   0.603  1.2578  2.6436 -1.8399
  384SOL     MW 1536   0.760   2.962   0.610 -0.0325 -0.1582 -0.1226
  385SOL     OW 1537   1.449   2.040   1.545  0.1662  0.1206  0.1881
  385SOL    HW1 1538   1.501   2.103   1.599  0.1421  0.7673 -3.1122
  385SOL    HW2 1539   1.421   1.972   1.613  0.7908  0.6976  0.6058
  385SOL     MW 1540   1.452   2.039   1.561  0.2454  0.2821 -0.1923
  386SOL     OW 1541   1.296   0.349   0.846  0.0912  0.1376  0.2799
  386SOL    HW1 1542   1.257   0.401   0.919 -0.2498  0.4305 -1.4681
  386SOL    HW2 1543   1.372   0.299   0.880 -0.7097 -1.2044  0.4157
  386SOL     MW 1544   1.301   0.349   0.860 -0.0595 -0.0009  0.0672
  387SOL     OW 1545   0.799   2.152   1.489 -0.3642 -0.5180 -0.0711
  387SOL    HW1 1546   0.870   2.209   1.464 -4.3218 -1.1503  0.7008
  387SOL    HW2 1547   0.813   2.063   1.458 -1.2275  1.2755 -0.1665
  387SOL     MW 1548   0.811   2.147   1.481 -1.0002 -0.3648  0.0181
  388SOL     OW 1549   1.527   2.748   1.284 -0.3460  0.0499  0.9852
  388SOL    HW1 1550   1.445   2.785   1.263 -0.3928 -0.2075  3.4187
  388SOL    HW2 1551   1.510   2.661   1.238 -0.7673  1.2931  1.6273
  388SOL     MW 1552   1.514   2.741   1.275 -0.4078  0.1800  1.3910
  389SOL     OW 1553   0.564   0.154   3.052 -0.0552  0.1363 -0.0923
  389SOL    HW1 1554   0.622   0.082   3.015  0.5196 -1.7460  1.2570
  389SOL    HW2 1555   0.516   0.184   2.970  4.2168 -3.1974 -0.6174
  389SOL     MW 1556   0.565   0.149   3.036  0.5843 -0.5519  0.0165
  390SOL     OW 1557   1.339   0.044   0.693  0.7825  0.3555 -0.0424
  390SOL    HW1 1558   1.400   0.024   0.627 -2.4565 -0.9878 -0.9247
  390SOL    HW2 1559   1.395   0.089   0.761  1.0145  1.5223 -2.3242
  390SOL     MW 1560   1.354   0.047   0.693  0.3857  0.3322 -0.4598
  391SOL     OW 1561   0.407   2.183   1.497 -0.0188  0.1542 -0.3414
  391SOL    HW1 1562   0.366   2.097   1.515 -0.0598  0.2110  1.3417
  391SOL    HW2 1563   0.327   2.239   1.505 -0.6831  0.9716 -1.0640
  391SOL     MW 1564   0.391   2.179   1.500 -0.1119  0.2696 -0.2147
  392SOL     OW 1565   2.071   2.229   0.296 -0.4126  0.0512 -0.5150
  392SOL    HW1 1566   2.158   2.196   0.303  0.3280 -1.5543 -0.5489
  392SOL    HW2 1567   2.043   2.232   0.383 -0.9741  1.0640 -2.4799
  392SOL     MW 1568   2.079   2.225   0.308 -0.3890 -0.0270 -0.7787
  393SOL     OW 1569   0.303   2.927   2.829 -0.4032  0.3772  0.4851
  393SOL    HW1 1570   0.375   2.894   2.778 -1.7651 -0.5558 -0.9748
  393SOL    HW2 1571   0.289   3.017   2.795 -0.9657  2.4512  1.5937
  393SOL     MW 1572   0.311   2.935   2.818 -0.6571  0.5278  0.4387
  394SOL     OW 1573   0.982   1.692   1.540  0.3305  0.6189  0.3130
  394SOL    HW1 1574   0.938   1.733   1.616 -0.8942 -1.0521  2.8213
  394SOL    HW2 1575   0.981   1.755   1.472 -1.3700 -2.6989  1.4051
  394SOL     MW 1576   0.976   1.706   1.541 -0.0555 -0.0394  0.7880
  395SOL     OW 1577   0.975   2.976   2.537  0.0236 -0.1701 -0.0902
  395SOL    HW1 1578   0.955   3.003   2.629 -0.1369 -0.0858 -0.5602
  395SOL    HW2 1579   1.037   2.907   2.540 -1.9441 -1.9984  0.8244
  395SOL     MW 1580   0.981   2.970   2.550 -0.2572 -0.4002 -0.0316
  396SOL     OW 1581   0.704   1.867   2.438 -0.0417  0.7524  0.0558
  396SOL    HW1 1582   0.793   1.865   2.478  1.4250  3.0105  0.4974
  396SOL    HW2 1583   0.669   1.780   2.416  0.4919  0.5354 -0.5073
  396SOL     MW 1584   0.711   1.856   2.440  0.2222  1.0217  0.0398
  397SOL     OW 1585   1.016   2.320   1.435 -0.2148 -0.0493  0.1037
  397SOL    HW1 1586   1.033   2.364   1.349 -0.0542  0.0297 -3.0047
  397SOL    HW2 1587   1.101   2.281   1.466  0.9979  2.1858 -0.3549
  397SOL     MW 1588   1.029   2.321   1.428 -0.0336  0.2560 -0.3669
  398SOL     OW 1589   0.622   2.728   0.612 -0.3922 -0.0731 -0.2820
  398SOL    HW1 1590   0.539   2.722   0.558 -2.5471  0.5984  1.3285
  398SOL    HW2 1591   0.657   2.636   0.631  2.0549 -1.2547  0.7855
  398SOL     MW 1592   0.616   2.715   0.607 -0.3536 -0.1404  0.0714
  399SOL     OW 1593   0.223   2.092   0.346 -0.2285  0.1923 -0.0566
  399SOL    HW1 1594   0.136   2.127   0.344  4.0292 -0.0833 -2.0571
  399SOL    HW2 1595   0.255   2.111   0.253  0.6159  1.8683 -0.7920
  399SOL     MW 1596   0.215   2.099   0.333  0.4447  0.3771 -0.4176
  400SOL     OW 1597   0.564   1.993   0.087 -0.0026 -0.2719  0.2966
  400SOL    HW1 1598   0.487   2.045   0.068 -0.6705  2.2849  0.7697
  400SOL    HW2 1599   0.550   1.953   0.172  2.8339 -0.4306 -1.7979
  400SOL     MW 1600   0.552   1.995   0.096  0.2835  0.0445  0.0827
  401SOL     OW 1601   0.814   2.099   0.081  0.0879  0.4226 -0.1291
  401SOL    HW1 1602   0.877   2.028   0.067  0.1532 -0.0965 -1.4967
  401SOL    HW2 1603   0.724   2.060   0.100  2.7329 -4.0904  2.3677
  401SOL     MW 1604   0.810   2.085   0.081  0.4455 -0.2413  0.0199
  402SOL     OW 1605   0.567   2.976   1.717  0.0710  0.1501 -0.0926
  402SOL    HW1 1606   0.644   2.960   1.780 -0.8010  3.7438 -0.8206
  402SOL    HW2 1607   0.588   3.057   1.666  0.0418 -0.1915  0.2720
  402SOL     MW 1608   0.580   2.984   1.719 -0.0479  0.5792 -0.1405
  403SOL     OW 1609   0.085   0.478   0.367  0.2019  0.6342 -0.2930
  403SOL    HW1 1610   0.168   0.521   0.402  3.3532 -0.4679  1.2256
  403SOL    HW2 1611   0.114   0.445   0.284 -0.8999 -0.1706  2.7896
  403SOL     MW 1612   0.099   0.479   0.361  0.4723  0.3826  0.3141
  404SOL     OW 1613   0.968   2.904   0.750  0.3229  0.2635  0.2353
  404SOL    HW1 1614   1.019   2.830   0.720 -0.7223 -0.2629  0.1083
  404SOL    HW2 1615   1.005   2.991   0.735 -0.0349 -0.7244 -0.8534
  404SOL     MW 1616   0.980   2.906   0.744  0.1378  0.0637  0.0749
  405SOL     OW 1617   0.503   2.458   1.526 -0.5555  0.1855 -0.3079
  405SOL    HW1 1618   0.509   2.536   1.469 -2.7354 -0.5229  2.4825
  405SOL    HW2 1619   0.496   2.376   1.485  3.1295  0.2153 -0.0953
  405SOL     MW 1620   0.503   2.457   1.513 -0.3569  0.0960  0.0883
  406SOL     OW 1621   0.349   2.406   1.109  0.9091 -0.2336  0.6507
  406SOL    HW1 1622   0.251   2.404   1.088 -0.8493 -0.6437  1.1076
  406SOL    HW2 1623   0.350   2.320   1.154  0.4411  0.5105  1.8884
  406SOL     MW 1624   0.336   2.395   1.112  0.6154 -0.1896  0.8743
  407SOL     OW 1625   0.072   2.675   1.159 -0.2508 -0.2927 -0.1096
  407SOL    HW1 1626   0.131   2.667   1.237  1.7919  0.1693  1.6481
  407SOL    HW2 1627   0.137   2.667   1.092 -0.5286 -1.7154  1.2017
  407SOL     MW 1628   0.089   2.673   1.160 -0.0179 -0.4194  0.2953
  408SOL     OW 1629   2.145   2.113   0.677 -0.5055  0.2588  0.0569
  408SOL    HW1 1630   2.083   2.151   0.739  2.4802 -2.5978  0.2336
  408SOL    HW2 1631   2.100   2.042   0.633 -0.7696  2.3104  2.5983
  408SOL     MW 1632   2.130   2.109   0.680 -0.1464  0.1526  0.4155
  409SOL     OW 1633   1.490   0.137   0.917  0.5002 -0.0393 -0.7177
  409SOL    HW1 1634   1.566   0.187   0.956  3.2881  0.5049 -0.7972
  409SOL    HW2 1635   1.497   0.054   0.960  0.7644  0.7811  1.0111
  409SOL     MW 1636   1.501   0.133   0.928  0.9029  0.1407 -0.5001
  410SOL     OW 1637   1.051   2.425   1.176 -0.2893  0.4366  0.1673
  410SOL    HW1 1638   0.989   2.444   1.103  0.1006  2.5986 -2.4670
  410SOL    HW2 1639   1.130   2.379   1.138  1.8143 -0.0376  0.7764
  410SOL     MW 1640   1.053   2.422   1.162  0.0397  0.6593 -0.0999
  411SOL     OW 1641   1.973   3.060   2.910  0.2561 -0.3200 -0.2307
  411SOL    HW1 1642   1.907   3.019   2.857 -0.1539 -0.1041  0.5555
  411SOL    HW2 1643   1.940   3.145   2.938 -0.0240 -0.3897 -1.7064
  411SOL     MW 1644   1.960   3.066   2.907  0.1650 -0.3007 -0.3217
  412SOL     OW 1645   1.063   2.248   0.620  0.3689  0.5885 -0.2969
  412SOL    HW1 1646   1.104   2.323   0.656 -0.6384 -0.2710  0.4687
  412SOL    HW2 1647   0.983   2.283   0.584  1.1860  2.3135  1.5776
  412SOL     MW 1648   1.058   2.262   0.620  0.3438  0.7027  0.0514
  413SOL     OW 1649   0.576   2.734   0.050  0.0016  1.0639 -0.1242
  413SOL    HW1 1650   0.649   2.672   0.070  0.8956 -2.6651  2.3943
  413SOL    HW2 1651   0.584   2.756  -0.039  0.2949 -0.6325  2.3346
  413SOL     MW 1652   0.587   2.729   0.041  0.1583  0.3481  0.5325
  414SOL     OW 1653   2.038   2.997   1.184  0.3176 -0.4904 -0.4122
  414SOL    HW1 1654   2.081   3.087   1.200 -1.5637  1.5627 -0.1371
  414SOL    HW2 1655   1.990   3.004   1.100  1.2318  0.8139 -1.9652
  414SOL     MW 1656   2.037   3.010   1.175  0.1900 -0.0475 -0.5808
  415SOL     OW 1657   1.693   2.801   1.079 -0.9845  0.2590 -0.1301
  415SOL    HW1 1658   1.639   2.779   1.156 -2.6135  2.0787 -0.4263
  415SOL    HW2 1659   1.781   2.812   1.108 -0.9143 -0.2418 -1.1169
  415SOL     MW 1660   1.698   2.800   1.093 -1.1902  0.4330 -0.2994
  416SOL     OW 1661   0.560   1.840   1.422  0.2971 -1.2226  0.4569
  416SOL    HW1 1662   0.484   1.845   1.471  2.7552 -1.9170 -0.4913
  416SOL    HW2 1663   0.596   1.756   1.437 -2.2623 -1.2425  1.9926
  416SOL     MW 1664   0.555   1.829   1.430  0.2837 -1.3169  0.5344
  417SOL     OW 1665   0.992   3.029   2.042  0.0232  0.2681 -0.1633
  417SOL    HW1 1666   0.929   3.045   2.109  0.1056 -2.2154  1.5233
  417SOL    HW2 1667   0.929   2.997   1.974  0.7538  4.0418  3.0460
  417SOL     MW 1668   0.975   3.027   2.042  0.1305  0.4383  0.4827
  418SOL     OW 1669   0.734   2.955   0.155  0.3243  0.4299  0.5890
  418SOL    HW1 1670   0.816   2.937   0.104 -0.2427 -1.2913 -0.9285
  418SOL    HW2 1671   0.676   2.881   0.132  0.5195  1.1782 -2.4698
  418SOL     MW 1672   0.737   2.942   0.145  0.2753  0.3016 -0.0148
  419SOL     OW 1673   0.516   2.685   1.365  0.1358  0.2334 -0.2044
  419SOL    HW1 1674   0.548   2.771   1.390 -0.4204 -1.1437 -0.6858
  419SOL    HW2 1675   0.579   2.638   1.312  0.5722 -0.7416 -0.8650
  419SOL     MW 1676   0.529   2.690   1.361  0.1200 -0.0769 -0.3551
  420SOL     OW 1677   0.774   2.226   1.077 -0.4108 -0.3742  0.5855
  420SOL    HW1 1678   0.728   2.246   1.161 -2.4063 -0.5687 -0.4447
  420SOL    HW2 1679   0.785   2.313   1.024 -0.3582  0.9075  0.4751
  420SOL     MW 1680   0.769   2.240   1.081 -0.6672 -0.2307  0.4350
  421SOL     OW 1681   2.951   0.169   3.090 -0.4671 -0.3765  0.2947
  421SOL    HW1 1682   2.879   0.159   3.032  0.0351  1.2425 -1.0750
  421SOL    HW2 1683   2.984   0.082   3.115 -0.7252  0.1410  2.6290
  421SOL     MW 1684   2.946   0.156   3.086 -0.4349 -0.0946  0.4220
  422SOL     OW 1685   0.814   2.478   0.949  0.0908  0.5297 -0.2987
  422SOL    HW1 1686   0.743   2.525   0.997 -0.7901  3.3938  0.9035
  422SOL    HW2 1687   0.817   2.526   0.866  3.1822  2.0333  0.6527
  422SOL     MW 1688   0.805   2.491   0.944  0.3824  1.1060 -0.0145
  423SOL     OW 1689   1.490   0.077   0.460 -0.5955 -0.4719 -0.0043
  423SOL    HW1 1690   1.513   0.077   0.366  0.4127  2.3056 -2.8958
  423SOL    HW2 1691   1.484   0.175   0.484  2.6161  1.2840 -3.0162
  423SOL     MW 1692   1.492   0.090   0.451 -0.0387  0.1263 -0.7832
  424SOL     OW 1693   0.653   2.297   1.307  0.2121  0.1453  0.2100
  424SOL    HW1 1694   0.572   2.248   1.278  0.0917 -0.4628 -1.1721
  424SOL    HW2 1695   0.681   2.251   1.386  0.6547  1.7205  0.0186
  424SOL     MW 1696   0.646   2.285   1.314  0.2546  0.2729  0.0024
  425SOL     OW 1697   1.718   2.756   2.060 -0.2875  0.3253 -0.3132
  425SOL    HW1 1698   1.717   2.769   1.965  1.3188  2.3366 -0.8696
  425SOL    HW2 1699   1.747   2.661   2.084  0.4467 -1.5100 -0.7397
  425SOL     MW 1700   1.722   2.745   2.050  0.0213  0.3485 -0.4429
  426SOL     OW 1701   0.842   1.741   1.990  0.1456 -0.0555 -0.3187
  426SOL    HW1 1702   0.776   1.767   1.931 -1.2107  2.2949  3.1820
  426SOL    HW2 1703   0.834   1.785   2.079  1.0233  0.4838  2.9208
  426SOL     MW 1704   0.832   1.750   1.994  0.0824  0.3258  0.5706
  427SOL     OW 1705   0.354   1.694   1.859  0.5012  0.0611  0.4193
  427SOL    HW1 1706   0.407   1.636   1.809  0.7943 -2.6284  1.9801
  427SOL    HW2 1707   0.312   1.636   1.926  0.5771  1.9738 -1.5972
  427SOL     MW 1708   0.356   1.678   1.862  0.5499 -0.0414  0.3592
  428SOL     OW 1709   0.563   2.581   1.080 -0.4885 -0.6577  0.6099
  428SOL    HW1 1710   0.492   2.514   1.071 -2.7157  1.3854 -0.1161
  428SOL    HW2 1711   0.520   2.654   1.123  1.5362  5.3187  1.4634
  428SOL     MW 1712   0.548   2.582   1.084 -0.5152  0.4004  0.6267
  429SOL     OW 1713   1.214   2.787   1.149  0.0256 -0.8019  0.2145
  429SOL    HW1 1714   1.124   2.763   1.151  0.0468  0.9565 -0.0929
  429SOL    HW2 1715   1.207   2.870   1.102  1.1894 -0.9289 -1.2631
  429SOL     MW 1716   1.202   2.795   1.143  0.1819 -0.5867 -0.0210
  430SOL     OW 1717   1.150   2.721   0.690  0.5383 -0.1430  0.2847
  430SOL    HW1 1718   1.156   2.640   0.733  0.6965  1.3784  0.3636
  430SOL    HW2 1719   1.094   2.687   0.607 -1.7267 -0.9750  2.1583
  430SOL     MW 1720   1.144   2.706   0.684  0.2603 -0.0520  0.5423
  431SOL     OW 1721   0.322   1.941   1.110 -0.2338  0.8166  0.3255
  431SOL    HW1 1722   0.376   1.863   1.084  0.5559 -2.3622  3.4430
  431SOL    HW2 1723   0.288   1.988   1.031 -0.3374  0.3158  1.5231
  431SOL     MW 1724   0.324   1.937   1.096 -0.1433  0.3311  0.8948
  432SOL     OW 1725   0.048   0.011   1.111 -0.0237  0.1224  0.2090
  432SOL    HW1 1726   0.016   0.065   1.183  1.7847 -1.3746 -0.3405
  432SOL    HW2 1727   0.003  -0.073   1.121 -2.2657 -0.7370 -0.4862
  432SOL     MW 1728   0.038   0.007   1.122 -0.0809 -0.1885  0.0448
  433SOL     OW 1729   0.662   2.877   1.484  0.2859  0.3397 -0.2190
  433SOL    HW1 1730   0.625   2.911   1.574  1.3165  2.3960  0.0235
  433SOL    HW2 1731   0.753   2.883   1.500  1.0905 -2.1077  4.7005
  433SOL     MW 1732   0.669   2.883   1.498  0.5280  0.2881  0.4621
  434SOL     OW 1733   1.551   2.795   1.559  0.2230 -0.4330 -0.7757
  434SOL    HW1 1734   1.460   2.823   1.548  1.7135 -0.7137  1.1290
  434SOL    HW2 1735   1.572   2.752   1.475  1.1071  0.2219 -1.5942
  434SOL     MW 1736   1.542   2.793   1.547  0.5363 -0.3836 -0.6324
  435SOL     OW 1737   2.753   1.768   0.204  0.1465 -0.1913 -0.1067
  435SOL    HW1 1738   2.801   1.842   0.153  0.5561  2.0397  1.6187
  435SOL    HW2 1739   2.658   1.770   0.174  1.1743 -0.1096  0.3410
  435SOL     MW 1740   2.747   1.778   0.193  0.3362  0.1138  0.1800
  436SOL     OW 1741   1.416   2.692   0.368  0.0930  0.2690 -0.2073
  436SOL    HW1 1742   1.459   2.665   0.450 -0.7031  0.2363  1.5505
  436SOL    HW2 1743   1.368   2.778   0.389 -0.2898  0.4671  1.5410
  436SOL     MW 1744   1.415   2.700   0.381 -0.0626  0.2908  0.2553
  437SOL     OW 1745   1.026   2.954   1.330  0.9064  0.2389 -0.6482
  437SOL    HW1 1746   1.028   3.005   1.248  0.0339 -2.4270 -0.7283
  437SOL    HW2 1747   1.000   2.870   1.289  1.5037  0.1292  1.8314
  437SOL     MW 1748   1.023   2.950   1.313  0.8701 -0.1273 -0.3316
  438SOL     OW 1749   0.832   2.672   1.906  0.8872  0.6419  0.0162
  438SOL    HW1 1750   0.832   2.623   1.986  0.8796  4.4836  1.9137
  438SOL    HW2 1751   0.765   2.635   1.840 -0.8400  2.1252 -0.0328
  438SOL     MW 1752   0.823   2.660   1.908  0.6583  1.3445  0.2601
  439SOL     OW 1753   1.161   2.104   0.404  0.1741  0.0373  0.0114
  439SOL    HW1 1754   1.127   2.158   0.476  1.2094 -0.8394  1.4619
  439SOL    HW2 1755   1.150   2.156   0.322  1.9583 -2.2942  0.0519
  439SOL     MW 1756   1.155   2.118   0.403  0.5461 -0.3860  0.2081
  440SOL     OW 1757   1.691   2.956   3.064  1.0527 -0.1629  0.0603
  440SOL    HW1 1758   1.646   2.945   3.146  0.0055  1.7520  0.1228
  440SOL    HW2 1759   1.780   2.932   3.084  0.9172 -2.9523  2.4395
  440SOL     MW 1760   1.697   2.952   3.078  0.8967 -0.2783  0.3825
  441SOL     OW 1761   0.361   2.664   0.511  0.1327 -0.1682 -0.3189
  441SOL    HW1 1762   0.330   2.607   0.433  0.3382 -2.2770 -0.8637
  441SOL    HW2 1763   0.368   2.755   0.479 -0.1271 -2.7603  2.2892
  441SOL     MW 1764   0.358   2.668   0.496  0.1255 -0.7884 -0.0467
  442SOL     OW 1765   3.077   2.357   0.590  0.0483 -0.0704  0.2349
  442SOL    HW1 1766   3.092   2.444   0.610 -0.0138  0.1575  2.4660
  442SOL    HW2 1767   3.000   2.327   0.636  2.2587 -0.9142 -1.6517
  442SOL     MW 1768   3.069   2.364   0.599  0.3318 -0.1517  0.2803
  443SOL     OW 1769   1.523   1.745   1.953 -0.0312  0.1138 -0.4452
  443SOL    HW1 1770   1.462   1.761   1.882 -0.5451  0.2217 -1.9827
  443SOL    HW2 1771   1.482   1.668   1.991 -2.9282  1.2331 -4.6792
  443SOL     MW 1772   1.510   1.737   1.949 -0.4812  0.2757 -1.2067
  444SOL     OW 1773   0.933   2.601   1.576  0.1454 -0.1974 -0.1026
  444SOL    HW1 1774   0.999   2.541   1.607  1.1388  0.5128 -0.3767
  444SOL    HW2 1775   0.855   2.583   1.632 -1.3890  2.7965  2.4500
  444SOL     MW 1776   0.931   2.591   1.587  0.0740  0.2913  0.1981
  445SOL     OW 1777   1.195   0.167   1.395  0.5029 -0.1040 -0.0385
  445SOL    HW1 1778   1.117   0.143   1.439  0.0698  3.9803  1.8874
  445SOL    HW2 1779   1.168   0.225   1.323 -1.8424  1.3956  1.2508
  445SOL     MW 1780   1.181   0.171   1.391  0.1363  0.6328  0.3857
  446SOL     OW 1781   2.796   2.859   1.031  0.2779 -0.3235 -0.2010
  446SOL    HW1 1782   2.716   2.900   0.983 -0.7443  0.3249 -1.2638
  446SOL    HW2 1783   2.829   2.778   0.988  1.1434  0.2822  0.3529
  446SOL     MW 1784   2.790   2.854   1.019  0.2572 -0.1581 -0.2681
  447SOL     OW 1785   0.023   1.981   1.633 -0.1388  0.0289 -0.1204
  447SOL    HW1 1786   0.057   1.904   1.671 -0.6717 -0.1993 -0.9562
  447SOL    HW2 1787  -0.045   1.956   1.563  0.1785  0.0849 -3.4499
  447SOL     MW 1788   0.019   1.968   1.628 -0.1673  0.0062 -0.6699
  448SOL     OW 1789   1.766   2.435   1.676  0.1713  0.5222 -0.3141
  448SOL    HW1 1790   1.715   2.353   1.664 -1.0696 -1.3893 -1.5154
  448SOL    HW2 1791   1.698   2.502   1.678 -0.1656 -1.7369  0.1748
  448SOL     MW 1792   1.750   2.433   1.674 -0.0369 -0.0281 -0.4081
  449SOL     OW 1793   0.908   2.904   0.387 -0.3070  0.7097  0.1349
  449SOL    HW1 1794   0.841   2.880   0.325  0.4649  2.6857  1.2964
  449SOL    HW2 1795   0.866   2.960   0.452  2.8994 -0.0596 -1.5431
  449SOL     MW 1796   0.894   2.908   0.388  0.2179  0.8689  0.0668
  450SOL     OW 1797   1.195   2.440   0.745 -0.5113 -0.4657  0.4797
  450SOL    HW1 1798   1.213   2.403   0.830 -0.2092 -0.7281  0.8304
  450SOL    HW2 1799   1.277   2.433   0.696  0.0203  0.5766 -1.1856
  450SOL     MW 1800   1.208   2.435   0.749 -0.4013 -0.3628  0.3062
  451SOL     OW 1801   0.604   2.003   1.689 -0.2699 -0.2329  0.2134
  451SOL    HW1 1802   0.656   2.064   1.743  0.9457 -0.9674  1.9539
  451SOL    HW2 1803   0.627   2.018   1.596 -0.1368 -1.8999 -1.9772
  451SOL     MW 1804   0.614   2.013   1.684 -0.0920 -0.5497  0.1540
  452SOL     OW 1805   0.328   2.626   0.049  0.3754  0.1593 -0.3138
  452SOL    HW1 1806   0.403   2.689   0.056 -0.7733 -4.5960  0.4932
  452SOL    HW2 1807   0.253   2.681   0.011 -0.6703  0.6264 -0.9811
  452SOL     MW 1808   0.328   2.642   0.045  0.0859 -0.4065 -0.2953
  453SOL     OW 1809   0.335   3.062   1.625 -0.1712  0.1465 -0.0907
  453SOL    HW1 1810   0.399   3.009   1.669 -0.7940  0.2790 -0.7768
  453SOL    HW2 1811   0.380   3.084   1.539  3.9002  1.4287 -1.3693
  453SOL     MW 1812   0.350   3.058   1.619  0.2838  0.3332 -0.3500
  454SOL     OW 1813   0.936   2.730   1.197 -0.4984  0.3698  0.3512
  454SOL    HW1 1814   0.899   2.653   1.233  2.3853 -1.5801 -2.0473
  454SOL    HW2 1815   0.897   2.740   1.108 -0.7906  0.0366 -1.3158
  454SOL     MW 1816   0.926   2.721   1.190 -0.1565  0.0686 -0.1852
  455SOL     OW 1817   1.654   2.880   0.256  0.1709  0.0132  0.1595
  455SOL    HW1 1818   1.693   2.845   0.330  0.5070 -0.1657 -1.0357
  455SOL    HW2 1819   1.627   2.801   0.214  2.7326 -0.6199  2.4412
  455SOL     MW 1820   1.656   2.865   0.260  0.5532 -0.0939  0.3029
  456SOL     OW 1821   2.709   0.303   1.530  0.4085 -0.2151 -0.3786
  456SOL    HW1 1822   2.732   0.237   1.465  1.8799  0.7557  1.3418
  456SOL    HW2 1823   2.789   0.363   1.535 -1.9614  1.6289 -0.5774
  456SOL     MW 1824   2.723   0.303   1.522  0.2900  0.1563 -0.1779
  457SOL     OW 1825   0.793   1.591   3.027 -0.3847  0.6997  0.3890
  457SOL    HW1 1826   0.710   1.542   2.999  2.2679 -2.5647 -1.5306
  457SOL    HW2 1827   0.792   1.594   3.126  0.7674 -0.1650  0.7217
  457SOL     MW 1828   0.782   1.585   3.036  0.1173  0.1549  0.1796
  458SOL     OW 1829   1.355   1.464   0.682  0.2900 -0.1900  0.8393
  458SOL    HW1 1830   1.317   1.527   0.620 -0.5603  0.3646 -0.2389
  458SOL    HW2 1831   1.314   1.380   0.657 -0.4355  1.2707 -2.5078
  458SOL     MW 1832   1.344   1.461   0.671  0.0821  0.0759  0.2554
  459SOL     OW 1833   1.544   0.029   0.200 -0.1101  0.7943 -0.2620
  459SOL    HW1 1834   1.567  -0.063   0.202 -0.7683 -0.3696  2.0457
  459SOL    HW2 1835   1.484   0.044   0.126  0.5803 -1.8213 -0.2689
  459SOL     MW 1836   1.539   0.018   0.191 -0.1058  0.2956  0.0416
  460SOL     OW 1837   1.797   2.165   0.642  0.6144  0.3648  0.3935
  460SOL    HW1 1838   1.709   2.135   0.674 -0.3228  1.6019  0.5626
  460SOL    HW2 1839   1.832   2.086   0.603 -0.3395  0.5522  0.9041
  460SOL     MW 1840   1.790   2.151   0.641  0.3649  0.5527  0.4831
  461SOL     OW 1841   0.465   2.429   0.620 -0.0734  0.5566  0.2751
  461SOL    HW1 1842   0.455   2.511   0.575 -0.1521 -0.9952  2.6596
  461SOL    HW2 1843   0.443   2.442   0.712  1.9621  1.1257 -1.2320
  461SOL     MW 1844   0.461   2.442   0.626  0.1848  0.4270  0.3908
  462SOL     OW 1845   0.316   0.243   1.256  0.4051 -0.1624  0.7594
  462SOL    HW1 1846   0.365   0.216   1.173  0.2811 -1.4998  2.3163
  462SOL    HW2 1847   0.377   0.277   1.324 -0.3637 -1.1846 -2.1134
  462SOL     MW 1848   0.330   0.244   1.254  0.2873 -0.4737  0.5858
  463SOL     OW 1849   1.002   0.070   0.692 -0.0167 -0.0634  0.3274
  463SOL    HW1 1850   1.077   0.101   0.637  0.2972 -2.4802  0.8245
  463SOL    HW2 1851   0.921   0.095   0.656  2.6117  0.1520  3.1919
  463SOL     MW 1852   1.001   0.077   0.680  0.3715 -0.3539  0.7709
  464SOL     OW 1853   0.789   3.031   2.233  0.0473  0.1968 -0.1157
  464SOL    HW1 1854   0.759   2.942   2.252 -2.0362  0.4250 -0.0728
  464SOL    HW2 1855   0.808   3.070   2.315  2.0275 -0.1462 -2.7649
  464SOL     MW 1856   0.788   3.024   2.246  0.0337  0.1817 -0.4596
  465SOL     OW 1857   0.862   0.284   0.417  0.1581  0.8872  0.0724
  465SOL    HW1 1858   0.796   0.237   0.470  0.4408  0.5159 -1.8358
  465SOL    HW2 1859   0.822   0.279   0.327 -3.5716  0.6857 -2.2367
  465SOL     MW 1860   0.848   0.277   0.412 -0.2967  0.8116 -0.4840
  466SOL     OW 1861   1.021   2.040   0.792  0.5325  0.4606 -0.4702
  466SOL    HW1 1862   1.042   1.971   0.736 -1.1448  1.1037  0.6775
  466SOL    HW2 1863   1.027   2.114   0.726 -1.6955 -1.3043 -1.4394
  466SOL     MW 1864   1.024   2.041   0.776  0.0172  0.3126 -0.4466
  467SOL     OW 1865   1.251   2.341   1.012 -0.0561  0.4333  0.0156
  467SOL    HW1 1866   1.344   2.360   1.020 -0.6049  1.5841  0.1011
  467SOL    HW2 1867   1.252   2.243   0.990 -0.3538 -0.6643 -2.1384
  467SOL     MW 1868   1.263   2.331   1.010 -0.1678  0.4403 -0.2573
  468SOL     OW 1869   0.487   2.663   1.911 -0.6067  0.3689 -0.2446
  468SOL    HW1 1870   0.491   2.572   1.879  0.3341 -0.8166 -1.3064
  468SOL    HW2 1871   0.403   2.699   1.888  0.9018 -0.2616  0.6780
  468SOL     MW 1872   0.477   2.656   1.904 -0.2835  0.1293 -0.2630
  469SOL     OW 1873   0.385   2.123   1.848  0.0853  0.3987  0.0874
  469SOL    HW1 1874   0.342   2.057   1.903  0.9401 -0.1016  2.2888
  469SOL    HW2 1875   0.439   2.070   1.784  1.6184  0.5006  2.4725
  469SOL     MW 1876   0.387   2.107   1.847  0.4004  0.3461  0.6925
  470SOL     OW 1877   3.097   2.576   0.181  0.2084 -0.2616  0.1060
  470SOL    HW1 1878   3.005   2.582   0.224  0.6359 -1.0036 -0.9228
  470SOL    HW2 1879   3.085   2.608   0.091 -0.8283  1.4995 -2.3397
  470SOL     MW 1880   3.083   2.581   0.175  0.1280 -0.1271 -0.3524
  471SOL     OW 1881   1.205   2.582   1.392 -0.2335 -0.6634 -0.3967
  471SOL    HW1 1882   1.145   2.537   1.450 -1.4474 -0.7451  1.7146
  471SOL    HW2 1883   1.163   2.558   1.312 -0.9007 -0.2044 -1.5973
  471SOL     MW 1884   1.192   2.573   1.389 -0.4817 -0.6136 -0.2765
  472SOL     OW 1885   2.787   2.083   0.353  0.0660 -0.2883 -0.2355
  472SOL    HW1 1886   2.815   2.047   0.263  0.6524 -1.7882 -2.3415
  472SOL    HW2 1887   2.768   2.002   0.405  0.0305 -0.5302 -0.3513
  472SOL     MW 1888   2.788   2.067   0.348  0.1387 -0.5181 -0.5286
  473SOL     OW 1889   0.795   2.547   1.334 -0.1128  0.0050  0.4698
  473SOL    HW1 1890   0.760   2.461   1.314 -0.3320 -1.1360  0.9061
  473SOL    HW2 1891   0.831   2.545   1.419  2.8740 -2.8236 -1.0504
  473SOL     MW 1892   0.795   2.536   1.342  0.2524 -0.5188  0.3268
  474SOL     OW 1893   0.744   2.250   1.779 -0.2108  1.0287  0.0057
  474SOL    HW1 1894   0.830   2.280   1.817  0.3079  0.9511  0.7166
  474SOL    HW2 1895   0.765   2.224   1.688 -0.0756 -0.3455 -2.9269
  474SOL     MW 1896   0.758   2.251   1.772 -0.1245  0.8371 -0.2874
  475SOL     OW 1897   1.615   3.065   1.433  0.4670  0.6703  0.2090
  475SOL    HW1 1898   1.526   3.061   1.400 -0.4857  0.6108  0.0271
  475SOL    HW2 1899   1.619   2.990   1.492  0.6449 -0.9179 -3.8683
  475SOL     MW 1900   1.604   3.055   1.437  0.3648  0.4529 -0.3530
  476SOL     OW 1901   1.415   2.631   1.033  0.3061 -0.5984  0.2257
  476SOL    HW1 1902   1.336   2.677   1.062 -0.6096 -0.2360 -2.3145
  476SOL    HW2 1903   1.450   2.690   0.964  0.0497  0.9914 -0.9709
  476SOL     MW 1904   1.409   2.645   1.028  0.1515 -0.3408 -0.2674
  477SOL     OW 1905   0.765   2.514   0.655 -0.1135  0.2325 -0.5239
  477SOL    HW1 1906   0.826   2.566   0.607 -1.0342 -0.1827  0.9783
  477SOL    HW2 1907   0.756   2.423   0.613 -1.6224 -0.7700 -1.4918
  477SOL     MW 1908   0.772   2.508   0.643 -0.4341  0.0454 -0.4534
  478SOL     OW 1909   0.179   2.678   0.876 -0.6664  0.2246 -0.0970
  478SOL    HW1 1910   0.222   2.764   0.897  0.7270 -1.3815 -2.8150
  478SOL    HW2 1911   0.244   2.613   0.841 -0.0290  2.5366 -0.0053
  478SOL     MW 1912   0.193   2.681   0.874 -0.3984  0.3178 -0.4435
  479SOL     OW 1913   1.467   1.988   1.276 -0.1073 -0.3842 -0.2718
  479SOL    HW1 1914   1.468   2.019   1.370 -0.7794 -2.1132  1.9578
  479SOL    HW2 1915   1.485   1.890   1.293 -0.9245 -2.8689  0.2022
  479SOL     MW 1916   1.470   1.979   1.291 -0.3038 -0.9402  0.0849
  480SOL     OW 1917   1.938   2.449   1.269  0.2742 -0.4311  0.5329
  480SOL    HW1 1918   1.926   2.364   1.313  0.8287 -0.7132 -0.6257
  480SOL    HW2 1919   1.968   2.429   1.184  2.0260  0.2711  0.5702
  480SOL     MW 1920   1.940   2.435   1.264  0.5785 -0.3757  0.3850
  481SOL     OW 1921   1.049   3.097   1.100 -0.1033 -0.1637  0.2731
  481SOL    HW1 1922   1.098   3.052   1.029 -0.0650  0.0742 -1.0843
  481SOL    HW2 1923   1.089   3.185   1.104  2.3551 -0.0374 -1.2134
  481SOL     MW 1924   1.061   3.103   1.091  0.2261 -0.1156 -0.1021
  482SOL     OW 1925   1.071   3.082   0.237  0.0815  0.4919 -0.0172
  482SOL    HW1 1926   1.001   3.035   0.285 -3.2968  1.2780  0.7320
  482SOL    HW2 1927   1.097   3.151   0.293 -0.0077  0.4095 -0.8151
  482SOL     MW 1928   1.065   3.085   0.251 -0.3760  0.5847 -0.0236
  483SOL     OW 1929   0.395   2.912   0.444  0.3755 -0.4607 -0.4297
  483SOL    HW1 1930   0.330   2.940   0.378  0.2609  1.1327 -1.0059
  483SOL    HW2 1931   0.369   2.962   0.524 -0.8775  1.1391 -2.9917
  483SOL     MW 1932   0.383   2.922   0.446  0.1950 -0.0394 -0.8438
  484SOL     OW 1933   1.890   1.887   1.492  0.7851  0.3445 -0.4859
  484SOL    HW1 1934   1.901   1.961   1.436 -3.1676 -1.2057  1.9166
  484SOL    HW2 1935   1.815   1.911   1.548  1.9755 -1.5485  0.3371
  484SOL     MW 1936   1.882   1.900   1.492  0.4206 -0.1098 -0.0603
  485SOL     OW 1937   0.510   2.335   0.199  0.3941 -0.2099  0.6783
  485SOL    HW1 1938   0.559   2.329   0.281 -3.7513  0.2524 -0.2781
  485SOL    HW2 1939   0.440   2.402   0.218 -0.8292  1.3004  0.7641
  485SOL     MW 1940   0.508   2.343   0.213 -0.3142  0.0503  0.5635
  486SOL     OW 1941   0.169   2.351   1.493 -0.3143 -0.5312 -0.3014
  486SOL    HW1 1942   0.166   2.429   1.442  0.2157 -0.2488  1.9093
  486SOL    HW2 1943   0.139   2.381   1.580  0.2580 -0.2383 -0.1511
  486SOL     MW 1944   0.165   2.365   1.498 -0.1689 -0.4553  0.0101
  487SOL     OW 1945   1.212   1.680   1.064 -0.0757 -0.0669  0.2672
  487SOL    HW1 1946   1.187   1.769   1.096  3.3751 -2.9183  1.1700
  487SOL    HW2 1947   1.301   1.684   1.037 -0.8812 -1.2108 -0.0590
  487SOL     MW 1948   1.220   1.692   1.065  0.2733 -0.5940  0.3433
  488SOL     OW 1949   1.616   1.882   0.506  0.1629  0.2368  0.6080
  488SOL    HW1 1950   1.685   1.887   0.440  1.4515 -1.0344 -2.6438
  488SOL    HW2 1951   1.555   1.946   0.465  0.0651 -0.5038 -1.7505
  488SOL     MW 1952   1.617   1.891   0.492  0.3200 -0.0287 -0.1322
  489SOL     OW 1953   0.747   0.782   0.551 -0.2784  0.1414 -0.7228
  489SOL    HW1 1954   0.794   0.708   0.517  1.5749 -0.1908  2.7024
  489SOL    HW2 1955   0.724   0.765   0.649 -1.9828  0.2074  0.2468
  489SOL     MW 1956   0.750   0.770   0.560 -0.2588  0.1063 -0.1430
  490SOL     OW 1957   1.424   2.083   0.460 -0.6172 -0.1545  0.0758
  490SOL    HW1 1958   1.453   2.172   0.424  1.6669  0.0738  1.6308
  490SOL    HW2 1959   1.332   2.092   0.439 -2.1279  1.8397 -0.2127
  490SOL     MW 1960   1.416   2.096   0.453 -0.5152  0.1387  0.2429
  491SOL     OW 1961   1.298   2.964   0.373 -0.5334 -0.3319  0.4784
  491SOL    HW1 1962   1.346   3.036   0.410  0.5652 -2.9560  0.6595
  491SOL    HW2 1963   1.225   3.003   0.325 -1.0590 -0.6283 -1.9598
  491SOL     MW 1964   1.295   2.979   0.372 -0.4578 -0.7172  0.1806
  492SOL     OW 1965   1.497   2.145   0.738  0.0825 -0.2405 -0.3492
  492SOL    HW1 1966   1.472   2.106   0.655  0.3181  1.2578  0.3164
  492SOL    HW2 1967   1.433   2.115   0.808  2.7285  0.3760  0.7320
  492SOL     MW 1968   1.485   2.136   0.737  0.4627  0.0385 -0.1188
  493SOL     OW 1969   0.187   3.014   0.298  0.0510 -0.1847  0.0926
  493SOL    HW1 1970   0.129   3.046   0.369  0.5251 -1.0825  0.5741
  493SOL    HW2 1971   0.193   3.084   0.227  0.8886 -0.8507 -0.1687
  493SOL     MW 1972   0.180   3.027   0.298  0.2240 -0.3910  0.1216
  494SOL     OW 1973   0.382   2.423   1.773  0.1387 -0.2847  0.0227
  494SOL    HW1 1974   0.394   2.328   1.789  1.2034  1.8572  0.2497
  494SOL    HW2 1975   0.417   2.442   1.683  1.5269  3.1143  2.7327
  494SOL     MW 1976   0.388   2.413   1.763  0.4624  0.4463  0.4102
  495SOL     OW 1977   2.909   1.641   2.632 -0.6251  0.1548 -0.5988
  495SOL    HW1 1978   2.902   1.720   2.572 -0.0966  0.1837 -3.0711
  495SOL    HW2 1979   2.862   1.663   2.714 -0.2224 -2.2337 -0.7273
  495SOL     MW 1980   2.902   1.654   2.635 -0.5022 -0.1565 -0.9420
  496SOL     OW 1981   2.928   2.381   2.667 -0.3733  0.5483 -0.0254
  496SOL    HW1 1982   2.960   2.302   2.714  1.5929 -1.6614  3.3278
  496SOL    HW2 1983   3.009   2.431   2.673 -0.4337 -1.5974  2.3194
  496SOL     MW 1984   2.943   2.377   2.674 -0.1219 -0.0264  0.7264
  497SOL     OW 1985   1.616   2.241   2.642  0.4918 -0.0726 -0.8131
  497SOL    HW1 1986   1.570   2.203   2.563  1.2065 -0.3928 -1.0389
  497SOL    HW2 1987   1.600   2.165   2.699  2.3904  0.4695 -2.7024
  497SOL     MW 1988   1.607   2.226   2.639  0.8366 -0.0433 -1.0922
  498SOL     OW 1989   1.449   2.712   2.332 -0.3916 -0.0929  0.2050
  498SOL    HW1 1990   1.464   2.617   2.302  0.1975 -2.6494 -1.5906
  498SOL    HW2 1991   1.532   2.740   2.379 -0.7248  2.4845 -0.9881
  498SOL     MW 1992   1.462   2.703   2.334 -0.3579 -0.0901 -0.1893
  499SOL     OW 1993   0.980   0.140   0.024  0.1515 -0.0449 -1.0220
  499SOL    HW1 1994   0.895   0.174   0.068  1.4668  0.4949 -0.7940
  499SOL    HW2 1995   1.008   0.068   0.087  4.5663  0.9990  3.0515
  499SOL     MW 1996   0.973   0.135   0.038  0.9075  0.1641 -0.4545
  500SOL     OW 1997   1.068   2.558   2.820 -0.5187 -0.0521 -0.7965
  500SOL    HW1 1998   1.116   2.505   2.891 -0.7439 -0.5693  1.5407
  500SOL    HW2 1999   0.976   2.554   2.852 -1.5123  2.4866  1.0759
  500SOL     MW 2000   1.062   2.551   2.834 -0.6795  0.2146 -0.2411
  501SOL     OW 2001   1.805   2.185   3.070  0.5661  0.1038 -0.0820
  501SOL    HW1 2002   1.768   2.271   3.097  0.1545  4.0970  0.7249
  501SOL    HW2 2003   1.896   2.189   3.090 -1.0135 -0.9564 -2.3130
  501SOL     MW 2004   1.812   2.197   3.076  0.3034  0.4908 -0.2699
  502SOL     OW 2005   0.144   2.795   3.054  0.3630 -0.2330  0.3217
  502SOL    HW1 2006   0.066   2.764   3.007  0.5992  0.2119  0.5368
  502SOL    HW2 2007   0.186   2.853   2.985  0.0390  2.0494  0.0772
  502SOL     MW 2008   0.139   2.798   3.038  0.3514  0.1268  0.3178
  503SOL     OW 2009   1.120   2.777   2.143 -0.7026 -0.0157  0.2404
  503SOL    HW1 2010   1.053   2.713   2.128  2.2282 -0.6597  1.8230
  503SOL    HW2 2011   1.072   2.860   2.133  0.8001  0.9396 -2.2713
  503SOL     MW 2012   1.105   2.780   2.139 -0.1176  0.0254  0.1178
  504SOL     OW 2013   0.112   2.700   2.145 -0.2681  0.1214 -0.1760
  504SOL    HW1 2014   0.143   2.613   2.152  0.4164  1.2686  0.5560
  504SOL    HW2 2015   0.025   2.683   2.119  1.6652  1.3743  2.6344
  504SOL     MW 2016   0.104   2.686   2.142  0.0773  0.4381  0.2914
  505SOL     OW 2017   1.679   2.714   2.744  0.3421 -0.3883 -0.2398
  505SOL    HW1 2018   1.685   2.716   2.647 -1.4090 -0.5603 -2.9457
  505SOL    HW2 2019   1.591   2.749   2.767 -2.5163 -4.2178 -2.7018
  505SOL     MW 2020   1.668   2.719   2.734 -0.2661 -0.9163 -0.9217
  506SOL     OW 2021   1.576   3.085   2.835  0.0306 -0.3240 -0.2780
  506SOL    HW1 2022   1.609   3.068   2.925  2.3467  0.3189 -0.2012
  506SOL    HW2 2023   1.650   3.062   2.778  0.3908 -2.2263 -0.3521
  506SOL     MW 2024   1.590   3.079   2.840  0.3837 -0.4902 -0.2777
  507SOL     OW 2025   0.898   2.797   2.866  0.5247 -0.2414 -0.0406
  507SOL    HW1 2026   0.957   2.852   2.798 -2.2656  0.7773 -2.1994
  507SOL    HW2 2027   0.806   2.823   2.853  0.3543 -1.3228  1.3405
  507SOL     MW 2028   0.894   2.808   2.855  0.1341 -0.2497 -0.1432
  508SOL     OW 2029   1.142   2.083   2.518 -0.0916 -0.2634  0.0500
  508SOL    HW1 2030   1.225   2.060   2.562 -0.8748  1.9475  0.1046
  508SOL    HW2 2031   1.122   2.170   2.564 -0.1621 -0.0389 -1.0251
  508SOL     MW 2032   1.150   2.091   2.529 -0.2043  0.0579 -0.0846
  509SOL     OW 2033   0.614   2.571   2.764 -1.0284 -0.4120  0.2645
  509SOL    HW1 2034   0.603   2.531   2.681 -0.7280 -1.8664 -0.6823
  509SOL    HW2 2035   0.533   2.556   2.813  1.7036 -3.5377  2.1150
  509SOL     MW 2036   0.602   2.564   2.760 -0.6283 -1.0163  0.3837
  510SOL     OW 2037   1.517   2.540   1.687 -0.2335 -0.3038 -0.1647
  510SOL    HW1 2038   1.519   2.632   1.659 -1.6469  2.4107  1.1366
  510SOL    HW2 2039   1.464   2.551   1.772  0.1274 -0.3266 -0.8227
  510SOL     MW 2040   1.510   2.553   1.694 -0.3723  0.0513 -0.0798
  511SOL     OW 2041   0.472   2.641   2.430  0.0748  0.2064  0.2964
  511SOL    HW1 2042   0.532   2.568   2.440  2.9995 -1.8881  0.5521
  511SOL    HW2 2043   0.488   2.640   2.336  0.7102 -1.4977  0.3715
  511SOL     MW 2044   0.482   2.631   2.419  0.5445 -0.2948  0.3401
  512SOL     OW 2045   1.060   2.001   2.811  0.4866  0.2610 -0.0460
  512SOL    HW1 2046   0.970   2.031   2.838 -1.2500 -3.0311 -2.2739
  512SOL    HW2 2047   1.076   1.922   2.866  2.2202 -1.2764  0.4713
  512SOL     MW 2048   1.050   1.994   2.822  0.4862 -0.3762 -0.2717
  513SOL     OW 2049   1.562   2.452   2.283 -0.3212 -0.0971  0.4161
  513SOL    HW1 2050   1.634   2.502   2.245 -2.1055 -0.0148  2.6852
  513SOL    HW2 2051   1.603   2.445   2.370  0.7511  0.0195  0.5452
  513SOL     MW 2052   1.577   2.457   2.290 -0.4151 -0.0708  0.7325
  514SOL     OW 2053   0.280   2.537   2.644  0.0699  0.2190 -0.6287
  514SOL    HW1 2054   0.353   2.595   2.611  1.2909  0.5698 -0.9199
  514SOL    HW2 2055   0.301   2.525   2.739  0.5495 -2.1661 -0.6115
  514SOL     MW 2056   0.292   2.543   2.652  0.2943 -0.0494 -0.6648
  515SOL     OW 2057   1.125   2.121   1.798 -0.5390 -0.5158 -0.7459
  515SOL    HW1 2058   1.086   2.206   1.805  1.3374  2.3949 -1.0942
  515SOL    HW2 2059   1.209   2.127   1.839 -1.8770 -0.7521 -1.7386
  515SOL     MW 2060   1.131   2.133   1.804 -0.4679 -0.1630 -0.9228
  516SOL     OW 2061   1.485   2.448   3.032 -0.0229  0.2304  0.1088
  516SOL    HW1 2062   1.547   2.434   2.963 -4.0534 -1.0499  0.8006
  516SOL    HW2 2063   1.406   2.440   2.980 -0.5377  1.6647  2.1896
  516SOL     MW 2064   1.483   2.445   3.016 -0.6226  0.2507  0.4746
  517SOL     OW 2065   0.610   2.464   2.152  0.4938 -0.6796  0.3683
  517SOL    HW1 2066   0.549   2.539   2.149  0.5990  2.3317 -0.3227
  517SOL    HW2 2067   0.544   2.390   2.154  1.9585  0.0243 -0.5952
  517SOL     MW 2068   0.593   2.464   2.152  0.7009 -0.1894  0.1500
  518SOL     OW 2069   1.870   0.198   3.023  0.2732 -0.7052 -0.2635
  518SOL    HW1 2070   1.820   0.236   2.948 -0.5114 -2.2710 -0.0312
  518SOL    HW2 2071   1.816   0.200   3.107 -0.4922  1.9762 -1.0410
  518SOL     MW 2072   1.856   0.204   3.024  0.0687 -0.5580 -0.3354
  519SOL     OW 2073   0.677   2.545   1.728  0.0225  0.2564 -0.1675
  519SOL    HW1 2074   0.692   2.455   1.757  2.4554  3.5060  0.0250
  519SOL    HW2 2075   0.606   2.534   1.666 -1.0153  0.7159 -2.2785
  519SOL     MW 2076   0.670   2.531   1.723  0.2065  0.7457 -0.4206
  520SOL     OW 2077   1.290   2.133   2.911  0.0509  0.2671 -0.0184
  520SOL    HW1 2078   1.210   2.084   2.874 -0.7198 -0.0204 -0.7388
  520SOL    HW2 2079   1.318   2.072   2.978  0.8620 -0.9761  1.0836
  520SOL     MW 2080   1.283   2.118   2.915  0.0562  0.0651  0.0320
  521SOL     OW 2081   1.684   2.058   2.285  0.0028  0.4610  0.0994
  521SOL    HW1 2082   1.701   2.105   2.198 -0.9808  1.5191  0.3459
  521SOL    HW2 2083   1.719   1.967   2.273 -0.9772 -0.6833 -2.4983
  521SOL     MW 2084   1.691   2.052   2.272 -0.2563  0.4496 -0.2108
  522SOL     OW 2085   2.856   2.565   2.164 -0.3300  0.1937 -0.0469
  522SOL    HW1 2086   2.930   2.524   2.204  0.7211 -0.5677 -1.5049
  522SOL    HW2 2087   2.794   2.584   2.236 -0.6466  2.1145  4.1876
  522SOL     MW 2088   2.858   2.562   2.179 -0.2331  0.3467  0.3194
  523SOL     OW 2089   0.868   1.525   2.153  0.2551  0.2970 -0.2192
  523SOL    HW1 2090   0.834   1.591   2.095 -1.2389 -0.3912 -0.5368
  523SOL    HW2 2091   0.925   1.477   2.089 -0.0063  1.2856 -0.0746
  523SOL     MW 2092   0.871   1.527   2.137  0.0235  0.3366 -0.2420
  524SOL     OW 2093   0.815   2.400   2.938  1.2899  0.5129 -0.0863
  524SOL    HW1 2094   0.760   2.440   2.871  1.1489  3.4333  1.9535
  524SOL    HW2 2095   0.817   2.302   2.924 -0.9173  0.6647 -1.7541
  524SOL     MW 2096   0.808   2.393   2.928  0.9801  0.9182 -0.0373
  525SOL     OW 2097   0.403   2.260   2.107 -0.6536 -0.0861  0.5638
  525SOL    HW1 2098   0.359   2.207   2.168  0.4334 -0.4861  1.6983
  525SOL    HW2 2099   0.390   2.220   2.018 -0.3362  0.1824 -0.9998
  525SOL     MW 2100   0.395   2.248   2.103 -0.4683 -0.1034  0.5072
  526SOL     OW 2101   0.671   2.054   2.034  0.2720 -0.5738 -0.1517
  526SOL    HW1 2102   0.724   2.106   1.979  1.0379 -2.2612 -1.7332
  526SOL    HW2 2103   0.648   2.119   2.107 -1.6679  1.1460  1.2409
  526SOL     MW 2104   0.675   2.070   2.037  0.1171 -0.5695 -0.1766
  527SOL     OW 2105   1.345   1.990   2.002 -0.5627 -0.2582 -0.2171
  527SOL    HW1 2106   1.344   1.974   2.096  0.0763 -0.4379 -0.4389
  527SOL    HW2 2107   1.371   1.902   1.971  1.4721 -0.5972 -2.3630
  527SOL     MW 2108   1.348   1.976   2.011 -0.2099 -0.3266 -0.5295
  528SOL     OW 2109   0.629   2.876   2.910 -0.4811 -0.0587 -0.0783
  528SOL    HW1 2110   0.660   2.959   2.942  0.1671 -0.3466 -1.0828
  528SOL    HW2 2111   0.580   2.907   2.838  2.7446  1.1825 -0.0293
  528SOL     MW 2112   0.626   2.891   2.904  0.0300  0.0671 -0.2043
  529SOL     OW 2113   0.964   2.353   1.881 -0.6452  0.0718  0.2473
  529SOL    HW1 2114   0.990   2.352   1.974 -2.8483 -0.4402  2.2529
  529SOL    HW2 2115   0.993   2.440   1.839  2.2457  3.4767  0.3560
  529SOL     MW 2116   0.971   2.364   1.888 -0.5544  0.4535  0.5263
  530SOL     OW 2117   1.195   2.428   3.028  0.0550 -0.2400  0.3448
  530SOL    HW1 2118   1.134   2.460   3.097 -0.8409 -2.7350 -2.2186
  530SOL    HW2 2119   1.223   2.339   3.048 -1.7483  0.8870  0.7772
  530SOL     MW 2120   1.191   2.420   3.040 -0.3011 -0.4205  0.0636
  531SOL     OW 2121   0.957   1.866   2.560 -0.0661 -0.1801  0.1491
  531SOL    HW1 2122   1.014   1.939   2.574 -0.1451  0.3007 -1.2249
  531SOL    HW2 2123   0.937   1.840   2.647 -0.6374  0.7171 -4.9570
  531SOL     MW 2124   0.962   1.872   2.573 -0.1519  0.0017 -0.7058
  532SOL     OW 2125   1.754   0.330   2.823  0.2364  0.1687  0.5220
  532SOL    HW1 2126   1.755   0.282   2.739  0.2249 -0.6863  0.3642
  532SOL    HW2 2127   1.822   0.395   2.806  3.4721  0.9224  0.7112
  532SOL     MW 2128   1.763   0.333   2.810  0.6618  0.1554  0.5262
  533SOL     OW 2129   1.859   2.652   3.041 -0.4682 -0.1355 -0.2526
  533SOL    HW1 2130   1.852   2.575   3.104  0.0245  1.8017 -1.9513
  533SOL    HW2 2131   1.773   2.660   3.003 -1.4514  1.7875  0.6579
  533SOL     MW 2132   1.846   2.643   3.044 -0.5329  0.3738 -0.3566
  534SOL     OW 2133   1.774   2.421   2.538  0.3264  0.0504 -0.1452
  534SOL    HW1 2134   1.709   2.361   2.586  0.5794 -3.0009  1.7070
  534SOL    HW2 2135   1.842   2.440   2.606 -1.2112  1.9666 -0.7003
  534SOL     MW 2136   1.774   2.416   2.553  0.1569 -0.0994  0.0259
  535SOL     OW 2137   1.906   2.405   1.924  0.2928  0.1851 -0.1807
  535SOL    HW1 2138   1.861   2.399   1.842  1.3413  0.1968  2.1991
  535SOL    HW2 2139   1.985   2.456   1.908 -0.1883 -1.6945 -1.1917
  535SOL     MW 2140   1.911   2.411   1.911  0.3676 -0.0614 -0.0001
  536SOL     OW 2141   0.493   1.815   2.064  0.5719  0.1108 -0.8106
  536SOL    HW1 2142   0.468   1.765   1.984  0.8422 -0.0486  0.6038
  536SOL    HW2 2143   0.556   1.885   2.050  1.6564  0.9708  0.6561
  536SOL     MW 2144   0.498   1.818   2.052  0.7507  0.2032 -0.4305
  537SOL     OW 2145   1.094   0.180   2.823  0.0240 -0.0174 -0.0180
  537SOL    HW1 2146   1.053   0.206   2.910 -0.9910 -0.1345  0.0511
  537SOL    HW2 2147   1.083   0.260   2.765  0.0844 -0.7440 -2.1333
  537SOL     MW 2148   1.087   0.194   2.827 -0.1019 -0.1287 -0.2880
  538SOL     OW 2149   1.401   0.088   3.071  0.3607  0.3376  0.4361
  538SOL    HW1 2150   1.372   0.179   3.098 -0.4426  0.7195  1.5056
  538SOL    HW2 2151   1.322   0.037   3.055  0.6291  0.9039 -2.5129
  538SOL     MW 2152   1.386   0.093   3.073  0.2901  0.4627  0.1881
  539SOL     OW 2153   0.746   2.812   2.588 -0.2165  0.3091 -0.4279
  539SOL    HW1 2154   0.820   2.863   2.551  2.1719 -2.0210  0.7391
  539SOL    HW2 2155   0.787   2.752   2.648  1.5370  1.8451  2.0979
  539SOL     MW 2156   0.761   2.811   2.591  0.3300  0.2044  0.0593
  540SOL     OW 2157   0.359   2.527   2.897 -0.0721 -0.0724  0.4465
  540SOL    HW1 2158   0.357   2.576   2.982  1.2780  1.7643  0.4184
  540SOL    HW2 2159   0.348   2.430   2.922 -0.9483 -4.0298 -0.2127
  540SOL     MW 2160   0.358   2.521   2.912 -0.0096 -0.3522  0.3558
  541SOL     OW 2161   0.177   2.950   2.227  0.1394 -0.8741 -0.1794
  541SOL    HW1 2162   0.143   2.869   2.191 -0.9506  1.4290 -1.0438
  541SOL    HW2 2163   0.214   2.921   2.313  2.0125  2.2379 -0.8642
  541SOL     MW 2164   0.177   2.936   2.234  0.2427 -0.1596 -0.3838
  542SOL     OW 2165   1.072   2.308   2.678 -0.2348 -0.2581 -0.1981
  542SOL    HW1 2166   1.047   2.247   2.747 -1.3867 -0.7887 -0.9748
  542SOL    HW2 2167   1.068   2.395   2.717  0.4143  0.1694  1.0182
  542SOL     MW 2168   1.068   2.312   2.692 -0.3011 -0.2717 -0.1401
  543SOL     OW 2169   1.686   2.439   2.845  0.7764  0.0161 -0.5667
  543SOL    HW1 2170   1.664   2.375   2.780  2.3117  1.0411 -2.8967
  543SOL    HW2 2171   1.693   2.523   2.803  1.8128  1.2427  0.0188
  543SOL     MW 2172   1.684   2.441   2.831  1.1157  0.3131 -0.7969
  544SOL     OW 2173   0.737   0.157   2.708  0.3158 -0.6350  0.3871
  544SOL    HW1 2174   0.650   0.180   2.723  0.5443 -1.6941 -0.9482
  544SOL    HW2 2175   0.762   0.137   2.618  3.0875  0.2627  1.9529
  544SOL     MW 2176   0.729   0.157   2.698  0.7116 -0.6563  0.4175
  545SOL     OW 2177   1.478   2.170   2.410 -0.1653  0.3103  0.0416
  545SOL    HW1 2178   1.444   2.250   2.382  0.1502 -1.6767  0.2900
  545SOL    HW2 2179   1.552   2.138   2.344 -0.0524 -0.7395 -1.7353
  545SOL     MW 2180   1.483   2.176   2.398 -0.1088 -0.0904 -0.1601
  546SOL     OW 2181   2.877   1.999   0.119  0.6065  0.0262  0.7086
  546SOL    HW1 2182   2.844   2.071   0.059  0.6728  1.6530  0.0835
  546SOL    HW2 2183   2.965   1.987   0.085  0.7751  1.8445  1.5289
  546SOL     MW 2184   2.884   2.007   0.107  0.6375  0.4807  0.7344
  547SOL     OW 2185   0.154   0.115   0.095  0.1477  0.0073  0.0375
  547SOL    HW1 2186   0.230   0.144   0.039 -1.6130  0.1637  2.0701
  547SOL    HW2 2187   0.108   0.053   0.039  2.3340  0.3371 -1.9335
  547SOL     MW 2188   0.158   0.111   0.080  0.2038  0.0715  0.0456
  548SOL     OW 2189   0.323   2.516   0.293  0.5060 -0.0206  0.1602
  548SOL    HW1 2190   0.324   2.560   0.213  2.1187 -2.3671  1.1229
  548SOL    HW2 2191   0.245   2.458   0.268 -1.5067 -1.9837 -1.8620
  548SOL     MW 2192   0.313   2.514   0.280  0.4532 -0.5892  0.0204
  549SOL     OW 2193   0.841   1.930   2.199 -0.1118  0.4811 -0.0136
  549SOL    HW1 2194   0.772   1.965   2.143  0.2630  2.5577  0.7736
  549SOL    HW2 2195   0.801   1.901   2.279  1.7135 -0.9336  3.1065
  549SOL     MW 2196   0.827   1.931   2.202  0.1785  0.5684  0.5019
  550SOL     OW 2197   1.820   1.741   2.541  0.1398  0.8770  0.2963
  550SOL    HW1 2198   1.819   1.754   2.446  2.2830  1.1980 -2.9188
  550SOL    HW2 2199   1.841   1.828   2.576  0.6360 -0.0274  0.8761
  550SOL     MW 2200   1.823   1.754   2.533  0.4880  0.8000 -0.0514
  551SOL     OW 2201   0.892   2.297   0.244 -0.3369 -0.9517  0.4954
  551SOL    HW1 2202   0.979   2.304   0.208  1.1345 -1.7337 -2.1508
  551SOL    HW2 2203   0.856   2.227   0.191  0.6782 -0.2308 -2.8681
  551SOL     MW 2204   0.899   2.289   0.232 -0.0089 -0.9598 -0.2975
  552SOL     OW 2205   1.777   1.793   2.275  0.0392 -0.3770  0.7601
  552SOL    HW1 2206   1.692   1.753   2.247  1.2679  0.7741 -2.1471
  552SOL    HW2 2207   1.842   1.765   2.218  0.1714  0.6823  1.2588
  552SOL     MW 2208   1.775   1.784   2.264  0.2187 -0.0853  0.4423
  553SOL     OW 2209   1.258   2.239   1.541 -0.3357 -0.0425 -0.1594
  553SOL    HW1 2210   1.312   2.157   1.557  0.9637  1.2636  0.6313
  553SOL    HW2 2211   1.321   2.309   1.510 -4.3323 -0.0681  2.5051
  553SOL     MW 2212   1.273   2.237   1.539 -0.6916  0.1264  0.2965
  554SOL     OW 2213   0.525   2.926   2.665 -0.4941 -0.1197  0.4563
  554SOL    HW1 2214   0.513   3.006   2.609 -0.1835 -1.0904 -1.0674
  554SOL    HW2 2215   0.596   2.869   2.625  0.5598  1.7662  0.2334
  554SOL     MW 2216   0.533   2.929   2.652 -0.3141  0.0011  0.2259
  555SOL     OW 2217   0.627   2.441   2.529 -0.7075  0.2680  0.4371
  555SOL    HW1 2218   0.587   2.355   2.548 -1.3693 -0.3691 -0.5200
  555SOL    HW2 2219   0.722   2.437   2.516  0.8095 -0.4498  2.2833
  555SOL     MW 2220   0.634   2.429   2.530 -0.5947  0.0892  0.5544
  556SOL     OW 2221   1.038   1.907   0.106  0.7104  0.5628  0.2100
  556SOL    HW1 2222   1.067   1.846   0.032  1.0574 -0.9392  3.5999
  556SOL    HW2 2223   1.111   1.906   0.162  0.9010 -0.4857 -0.3736
  556SOL     MW 2224   1.052   1.899   0.103  0.7813  0.2263  0.5802
  557SOL     OW 2225   0.983   2.666   0.494 -0.3327  0.4120  0.1892
  557SOL    HW1 2226   1.035   2.613   0.425  0.8746  2.3472 -0.7935
  557SOL    HW2 2227   0.935   2.736   0.442 -0.6487  0.8493 -1.4053
  557SOL     MW 2228   0.983   2.668   0.478 -0.2151  0.7250 -0.1509
  558SOL     OW 2229   0.214   2.288   2.971  0.6127 -0.0841 -0.1172
  558SOL    HW1 2230   0.133   2.276   2.925 -0.5868 -1.5980 -0.1274
  558SOL    HW2 2231   0.179   2.326   3.058 -1.4370  1.1880  1.9916
  558SOL     MW 2232   0.199   2.292   2.976  0.1840 -0.1160  0.1597
  559SOL     OW 2233   1.032   2.317   2.167 -0.1937  0.3454  0.0989
  559SOL    HW1 2234   1.125   2.313   2.141 -0.7652  1.3226 -1.8292
  559SOL    HW2 2235   1.014   2.245   2.231  0.5948 -0.0970 -2.6046
  559SOL     MW 2236   1.042   2.307   2.172 -0.1651  0.4160 -0.5122
  560SOL     OW 2237   1.938   2.864   0.094  0.5966 -0.2976  0.5238
  560SOL    HW1 2238   2.009   2.895   0.036 -0.0175 -0.9025 -0.0505
  560SOL    HW2 2239   1.900   2.788   0.045 -1.2799 -0.6090 -1.2439
  560SOL     MW 2240   1.943   2.858   0.080  0.2680 -0.4185  0.2148
  561SOL     OW 2241   0.350   2.149   0.098  0.0284  0.0956 -0.2831
  561SOL    HW1 2242   0.317   2.184   0.016 -2.8205  0.9670  1.3162
  561SOL    HW2 2243   0.402   2.218   0.149  0.9753 -1.9908  2.6404
  561SOL     MW 2244   0.352   2.163   0.094 -0.2225 -0.0647  0.3136
  562SOL     OW 2245   0.698   2.216   2.268 -0.3203 -0.0569 -0.5935
  562SOL    HW1 2246   0.708   2.314   2.280 -1.7000 -0.2281  1.4653
  562SOL    HW2 2247   0.790   2.199   2.277 -1.6398 -0.4579 -0.6596
  562SOL     MW 2248   0.712   2.227   2.271 -0.6764 -0.1324 -0.3306
  563SOL     OW 2249   1.232   0.432   0.530  0.0247 -0.0657 -0.7383
  563SOL    HW1 2250   1.211   0.368   0.462 -0.8153 -0.6089 -0.3099
  563SOL    HW2 2251   1.173   0.409   0.601 -3.1179  2.3869  1.4729
  563SOL     MW 2252   1.222   0.421   0.530 -0.5008  0.1862 -0.3900
  564SOL     OW 2253   1.104   2.628   2.392 -1.1089 -0.7276  0.0871
  564SOL    HW1 2254   1.163   2.681   2.342 -0.1095  2.9124 -1.7222
  564SOL    HW2 2255   1.107   2.677   2.478 -1.0890  0.0776 -2.7695
  564SOL     MW 2256   1.112   2.641   2.397 -0.9744 -0.1411 -0.5285
  565SOL     OW 2257   2.743   2.776   2.581  0.0310  0.9789 -0.4684
  565SOL    HW1 2258   2.780   2.840   2.521  1.9214 -1.2894 -1.8936
  565SOL    HW2 2259   2.723   2.707   2.519  0.9168 -2.1593 -0.7350
  565SOL     MW 2260   2.745   2.775   2.565  0.3973  0.2656 -0.6916
  566SOL     OW 2261   2.162   1.895   2.393  0.3336  0.0745 -0.6844
  566SOL    HW1 2262   2.183   1.880   2.302  0.3385  0.9437 -1.2170
  566SOL    HW2 2263   2.212   1.973   2.417  0.4408  2.0367 -3.2007
  566SOL     MW 2264   2.171   1.903   2.384  0.3484  0.4481 -1.0867
  567SOL     OW 2265   1.188   3.008   3.082  0.5793 -0.4170  0.8891
  567SOL    HW1 2266   1.183   3.015   3.179 -0.9492 -1.0227 -0.7574
  567SOL    HW2 2267   1.193   2.911   3.054  0.5341  0.3022  2.1301
  567SOL     MW 2268   1.188   2.996   3.091  0.3717 -0.4020  0.8356
  568SOL     OW 2269   1.607   2.057   2.819  0.1413 -0.5500  0.1223
  568SOL    HW1 2270   1.636   2.111   2.897 -0.9313  2.5776  1.0645
  568SOL    HW2 2271   1.690   2.038   2.773  2.0461  2.2792 -1.9796
  568SOL     MW 2272   1.621   2.062   2.823  0.2511  0.2359 -0.0307
  569SOL     OW 2273   0.133   2.307   2.466 -0.5144  0.4670 -0.3535
  569SOL    HW1 2274   0.075   2.351   2.401 -3.1087 -2.3188 -1.0035
  569SOL    HW2 2275   0.179   2.374   2.516 -0.4002  1.9632 -1.6717
  569SOL     MW 2276   0.131   2.321   2.464 -0.8416  0.2969 -0.6132
  570SOL     OW 2277   1.483   0.334   0.506 -0.4251  0.1554  0.2138
  570SOL    HW1 2278   1.403   0.376   0.534 -2.4321  1.2022  0.6570
  570SOL    HW2 2279   1.559   0.356   0.561 -0.1089  1.5545  0.2592
  570SOL     MW 2280   1.483   0.342   0.517 -0.6482  0.4781  0.2783
  571SOL     OW 2281   1.329   2.348   2.132 -0.0584 -0.2771  0.4122
  571SOL    HW1 2282   1.388   2.389   2.194 -0.2776 -0.4352 -1.4048
  571SOL    HW2 2283   1.397   2.319   2.068  2.0785  1.1245  1.5943
  571SOL     MW 2284   1.346   2.350   2.131  0.1946 -0.1130  0.3284
  572SOL     OW 2285   0.962   2.562   0.070 -0.0531  0.4537 -0.1842
  572SOL    HW1 2286   0.967   2.655   0.054  0.8823 -2.5377  0.4181
  572SOL    HW2 2287   0.873   2.538   0.079  1.5462 -0.5160 -0.7336
  572SOL     MW 2288   0.951   2.571   0.069  0.2813 -0.0689 -0.1773
  573SOL     OW 2289   1.187   2.277   0.213 -0.2445 -0.2769  0.0515
  573SOL    HW1 2290   1.266   2.236   0.176  0.6213 -0.2959  1.9637
  573SOL    HW2 2291   1.204   2.351   0.275  2.1227 -2.3990 -0.0698
  573SOL     MW 2292   1.199   2.281   0.216  0.1821 -0.5594  0.2878
  574SOL     OW 2293   1.130   2.536   0.292  0.2408 -0.1931 -0.4486
  574SOL    HW1 2294   1.203   2.603   0.268 -0.6953 -0.6793 -0.4205
  574SOL    HW2 2295   1.065   2.547   0.220 -1.6469 -1.1776 -2.6888
  574SOL     MW 2296   1.131   2.546   0.279 -0.1317 -0.3871 -0.7405
  575SOL     OW 2297   3.032   2.229   1.727 -0.1536  0.0889 -0.4086
  575SOL    HW1 2298   3.083   2.149   1.708  0.8408  0.3347 -1.0051
  575SOL    HW2 2299   3.109   2.281   1.743  1.0829 -2.2075 -3.3151
  575SOL     MW 2300   3.049   2.225   1.726  0.1408 -0.1817 -0.8708
  576SOL     OW 2301   2.856   1.852   2.022 -0.1587  0.7713 -0.1124
  576SOL    HW1 2302   2.883   1.940   1.990  2.0540 -1.8953  1.1306
  576SOL    HW2 2303   2.767   1.837   1.997  1.4657  0.7167 -0.6100
  576SOL     MW 2304   2.848   1.862   2.014  0.3476  0.4123 -0.0140
  577SOL     OW 2305   2.067   0.243   0.097 -0.3500  0.5664 -0.1238
  577SOL    HW1 2306   2.007   0.234   0.026  2.2407  1.6416 -0.5071
  577SOL    HW2 2307   2.037   0.171   0.145  1.8947  0.7566 -2.2927
  577SOL     MW 2308   2.055   0.232   0.094  0.2880  0.7333 -0.4605
  578SOL     OW 2309   1.924   2.055   2.470  0.2420  0.2385  0.5960
  578SOL    HW1 2310   1.835   2.038   2.427  1.9771  0.9290  2.3326
  578SOL    HW2 2311   1.983   1.989   2.430  1.5914  0.7215 -0.6684
  578SOL     MW 2312   1.920   2.044   2.459  0.6490  0.3934  0.6583
  579SOL     OW 2313   0.903   2.417   2.486  0.3297 -0.1168  0.3791
  579SOL    HW1 2314   0.942   2.362   2.552 -1.6550  1.5724 -1.6749
  579SOL    HW2 2315   0.979   2.460   2.431  2.9932 -0.2725 -0.9830
  579SOL     MW 2316   0.918   2.415   2.488  0.4193  0.0856 -0.0716
  580SOL     OW 2317   0.937   2.843   0.018 -0.0191 -0.2190 -0.1987
  580SOL    HW1 2318   1.030   2.869   0.013  1.2877 -1.2783  0.5591
  580SOL    HW2 2319   0.916   2.832  -0.074  0.9838  1.8017 -1.6846
  580SOL     MW 2320   0.947   2.845   0.005  0.2856 -0.0921 -0.2948
  581SOL     OW 2321   1.162   2.491   1.700  0.4855 -0.7613  0.3371
  581SOL    HW1 2322   1.239   2.499   1.764  1.7015 -1.1392  3.8676
  581SOL    HW2 2323   1.174   2.406   1.659 -1.5246  1.8364  0.2908
  581SOL     MW 2324   1.174   2.481   1.703  0.3807 -0.4684  0.7968
  582SOL     OW 2325   0.054   2.839   2.755 -0.3643  0.8675 -0.2361
  582SOL    HW1 2326   0.004   2.922   2.764  1.9361  0.6008  1.4334
  582SOL    HW2 2327   0.146   2.869   2.751  0.7482  1.0311 -1.1132
  582SOL     MW 2328   0.060   2.854   2.756  0.0860  0.8539 -0.1315
  583SOL     OW 2329   2.011   2.431   2.679  0.2459 -0.2952 -0.0620
  583SOL    HW1 2330   2.087   2.457   2.623 -1.4525 -1.1425 -0.2834
  583SOL    HW2 2331   2.026   2.342   2.694 -1.3228  0.1176  0.8715
  583SOL     MW 2332   2.023   2.423   2.673 -0.1852 -0.3525  0.0320
  584SOL     OW 2333   0.065   1.899   2.205  0.0465 -0.1707 -0.9095
  584SOL    HW1 2334   0.090   1.839   2.281  0.8569 -2.5644  0.1557
  584SOL    HW2 2335   0.115   1.982   2.231  3.0144 -0.8563  2.7385
  584SOL     MW 2336   0.075   1.902   2.218  0.5450 -0.5770 -0.2877
  585SOL     OW 2337   1.577   2.633   0.141  0.1024  0.2352 -0.5617
  585SOL    HW1 2338   1.533   2.604   0.058 -0.5205 -0.7534 -2.1659
  585SOL    HW2 2339   1.522   2.634   0.217 -0.4124  2.3631 -0.2870
  585SOL     MW 2340   1.564   2.629   0.140 -0.0477  0.3855 -0.7371
  586SOL     OW 2341   1.394   2.800   2.580 -0.1848 -0.3305 -0.2139
  586SOL    HW1 2342   1.398   2.749   2.495 -0.3587 -0.6770 -0.9762
  586SOL    HW2 2343   1.372   2.884   2.550 -0.9182 -4.4028  0.6142
  586SOL     MW 2344   1.391   2.805   2.565 -0.3045 -0.9135 -0.2052
  587SOL     OW 2345   1.386   1.475   2.147  0.4825 -0.1802  0.1779
  587SOL    HW1 2346   1.328   1.412   2.193 -0.5287 -1.3124  0.6875
  587SOL    HW2 2347   1.433   1.430   2.073 -0.6070  2.1972 -1.2460
  587SOL     MW 2348   1.384   1.461   2.143  0.2053 -0.0159  0.0573
  588SOL     OW 2349   1.379   2.021   2.637 -0.2012 -0.3178 -0.8042
  588SOL    HW1 2350   1.394   1.927   2.646  2.0695 -2.1256  1.6434
  588SOL    HW2 2351   1.391   2.061   2.725 -0.0359 -0.8048 -0.4021
  588SOL     MW 2352   1.382   2.014   2.650  0.1202 -0.6206 -0.4282
  589SOL     OW 2353   1.419   2.000   0.042 -0.4868 -0.4273  0.4626
  589SOL    HW1 2354   1.425   2.093   0.070 -0.7368  0.3210  0.2840
  589SOL    HW2 2355   1.377   1.950   0.113  0.7738  0.7474 -0.5084
  589SOL     MW 2356   1.414   2.006   0.055 -0.3535 -0.1736  0.3109
  590SOL     OW 2357   0.491   2.744   2.165  0.0940 -0.5428 -0.4323
  590SOL    HW1 2358   0.484   2.713   2.071 -0.5433 -1.5102  0.5561
  590SOL    HW2 2359   0.577   2.788   2.178  0.8147 -0.7143 -0.9596
  590SOL     MW 2360   0.501   2.745   2.154  0.1050 -0.6931 -0.3715
  591SOL     OW 2361   2.296   0.708   0.051  0.9849  0.7718  0.2341
  591SOL    HW1 2362   2.211   0.739   0.024 -3.0919 -1.5151  0.1747
  591SOL    HW2 2363   2.355   0.726  -0.030 -0.5603  1.3958 -2.1026
  591SOL     MW 2364   2.292   0.715   0.036  0.2431  0.5524 -0.0820
  592SOL     OW 2365   1.748   2.913   0.780  0.2902 -0.1907  0.5249
  592SOL    HW1 2366   1.738   2.984   0.711  1.5518 -0.6731 -1.3579
  592SOL    HW2 2367   1.833   2.875   0.768 -1.0000 -4.0525  0.6800
  592SOL     MW 2368   1.758   2.917   0.769  0.2864 -0.7639  0.2970
  593SOL     OW 2369   1.959   0.675   0.816  0.3756 -0.4009  0.0886
  593SOL    HW1 2370   1.891   0.653   0.749 -2.2630  1.1274  1.7358
  593SOL    HW2 2371   1.985   0.587   0.845 -2.1449 -1.2040 -1.8039
  593SOL     MW 2372   1.953   0.660   0.811 -0.3051 -0.3052  0.0562
  594SOL     OW 2373   2.774   1.065   1.394  0.0062 -0.3758 -0.1059
  594SOL    HW1 2374   2.865   1.071   1.386 -0.9333 -2.0461 -1.1210
  594SOL    HW2 2375   2.740   1.054   1.307  1.2665  4.7629  1.6781
  594SOL     MW 2376   2.781   1.064   1.382  0.0485  0.0818 -0.0045
  595SOL     OW 2377   0.466   0.906   0.834  0.0206 -0.1668  0.2720
  595SOL    HW1 2378   0.475   0.975   0.766  0.0525  0.6560  2.4698
  595SOL    HW2 2379   0.497   0.958   0.905 -1.8052 -3.1366  2.5488
  595SOL     MW 2380   0.471   0.922   0.835 -0.2161 -0.4501  0.8624
  596SOL     OW 2381   2.468   1.346   0.524  0.0118  0.2204  0.0774
  596SOL    HW1 2382   2.540   1.395   0.487  2.5559  0.2893 -1.1069
  596SOL    HW2 2383   2.500   1.297   0.599 -1.5347 -0.8808  2.6570
  596SOL     MW 2384   2.482   1.346   0.529  0.1434  0.0842  0.2615
  597SOL     OW 2385   2.205   0.673   1.610  0.3497  0.0097 -0.7054
  597SOL    HW1 2386   2.236   0.614   1.675  0.0458  0.7021 -0.1248
  597SOL    HW2 2387   2.125   0.618   1.579 -0.4193 -1.9769  1.6406
  597SOL     MW 2388   2.199   0.658   1.615  0.2082 -0.1610 -0.3192
  598SOL     OW 2389   2.591   1.043   2.870  0.5597 -0.3389 -0.0830
  598SOL    HW1 2390   2.574   1.013   2.780  1.3065 -4.4396  0.9760
  598SOL    HW2 2391   2.678   1.082   2.861 -0.7850  1.2221 -4.2499
  598SOL     MW 2392   2.600   1.044   2.857  0.4808 -0.6740 -0.4931
  599SOL     OW 2393   2.957   0.433   2.142 -0.2086 -0.0716 -0.1364
  599SOL    HW1 2394   2.992   0.426   2.224 -3.1987  0.5022 -0.9935
  599SOL    HW2 2395   2.997   0.508   2.099  2.0540 -1.4730  0.8182
  599SOL     MW 2396   2.967   0.442   2.147 -0.3046 -0.1808 -0.1236
  600SOL     OW 2397   1.859   1.619   0.907 -0.0613  0.0672  0.1598
  600SOL    HW1 2398   1.916   1.661   0.972  0.0493 -2.2618  1.0415
  600SOL    HW2 2399   1.797   1.687   0.877 -1.6974  1.7158  0.9038
  600SOL     MW 2400   1.859   1.633   0.912 -0.2626 -0.0226  0.3743
  601SOL     OW 2401   2.550   0.723   0.811 -0.1688  0.0380 -0.1306
  601SOL    HW1 2402   2.537   0.730   0.906 -0.2187 -0.6556  0.7943
  601SOL    HW2 2403   2.474   0.667   0.780 -2.6597 -2.9277 -0.1958
  601SOL     MW 2404   2.539   0.716   0.820 -0.5040 -0.4448 -0.0171
  602SOL     OW 2405   2.310   1.918   0.785  0.1146 -0.0476  0.3264
  602SOL    HW1 2406   2.271   1.839   0.743 -0.8590  0.1249 -0.1305
  602SOL    HW2 2407   2.266   1.989   0.747  1.2445 -0.7585  2.0172
  602SOL     MW 2408   2.299   1.917   0.774  0.1352 -0.1186  0.4892
  603SOL     OW 2409   2.966   1.342   1.982 -0.2312  0.0016 -0.0602
  603SOL    HW1 2410   2.921   1.366   2.061 -0.6929 -3.2593 -1.3515
  603SOL    HW2 2411   3.015   1.257   1.989  1.2949 -1.6977  0.6061
  603SOL     MW 2412   2.967   1.334   1.994 -0.0908 -0.6528 -0.1427
  604SOL     OW 2413   2.039   1.461   0.440  0.4078 -0.1822 -0.0020
  604SOL    HW1 2414   2.080   1.383   0.485 -1.0809  0.3469  0.4900
  604SOL    HW2 2415   1.989   1.515   0.509 -1.3129  1.0563  1.3955
  604SOL     MW 2416   2.038   1.458   0.455 -0.0156  0.0510  0.2473
  605SOL     OW 2417   2.483   1.481   0.881 -0.6488 -0.3097 -0.2977
  605SOL    HW1 2418   2.502   1.555   0.819  2.4141 -2.4431  0.9074
  605SOL    HW2 2419   2.474   1.400   0.826  0.5280 -0.6929  1.3603
  605SOL     MW 2420   2.485   1.480   0.865 -0.0894 -0.6418  0.0801
  606SOL     OW 2421   2.594   1.818   1.927  0.6175 -0.1928 -0.7473
  606SOL    HW1 2422   2.502   1.792   1.942  0.7654  0.3388 -0.1365
  606SOL    HW2 2423   2.626   1.739   1.877 -1.3470  0.6774  0.5266
  606SOL     MW 2424   2.586   1.804   1.922  0.3778 -0.0079 -0.4986
  607SOL     OW 2425   2.390   0.996   3.049 -0.0953  0.3547  0.4004
  607SOL    HW1 2426   2.462   1.030   3.001 -1.1380 -0.8297  1.5806
  607SOL    HW2 2427   2.410   1.012   3.141  0.9555 -1.1978  0.3578
  607SOL     MW 2428   2.402   1.002   3.055 -0.0942 -0.0064  0.5505
  608SOL     OW 2429   1.857   0.253   0.534  0.1734 -0.3698 -0.0408
  608SOL    HW1 2430   1.854   0.314   0.459  1.8731  2.6329  1.7617
  608SOL    HW2 2431   1.850   0.160   0.517 -1.0447 -0.9370  0.2659
  608SOL     MW 2432   1.856   0.248   0.522  0.2369 -0.0485  0.2375
  609SOL     OW 2433   2.138   1.923   3.039 -0.2431 -0.6561 -0.7805
  609SOL    HW1 2434   2.063   1.887   2.987 -0.0189  1.5712  1.8153
  609SOL    HW2 2435   2.130   1.894   3.132 -2.6890 -1.8006  1.3497
  609SOL     MW 2436   2.127   1.914   3.044 -0.5362 -0.5132 -0.1569
  610SOL     OW 2437   1.782   0.923   1.205 -0.3535 -0.4377  0.0582
  610SOL    HW1 2438   1.780   0.834   1.161  3.4216  0.5797 -0.2716
  610SOL    HW2 2439   1.686   0.950   1.203  0.7742 -1.7750  0.1635
  610SOL     MW 2440   1.769   0.915   1.199  0.2934 -0.4799  0.0286
  611SOL     OW 2441   2.455   1.667   0.676  0.5771  0.0763 -0.5518
  611SOL    HW1 2442   2.529   1.668   0.621  0.4500 -2.0730 -0.4297
  611SOL    HW2 2443   2.392   1.604   0.639  2.4367  0.4424  0.2864
  611SOL     MW 2444   2.457   1.659   0.664  0.8056 -0.1590 -0.4251
  612SOL     OW 2445   2.900   2.955   0.335  0.4950  0.2308 -0.1148
  612SOL    HW1 2446   2.923   2.988   0.422 -0.1773 -1.2107 -2.1988
  612SOL    HW2 2447   2.978   2.904   0.327 -0.1394  3.0637  0.0429
  612SOL     MW 2448   2.913   2.952   0.345  0.3226  0.4144 -0.3690
  613SOL     OW 2449   1.520   1.069   0.966  0.1802  0.6694  0.2352
  613SOL    HW1 2450   1.542   1.161   0.953  2.1637 -0.7860 -0.7070
  613SOL    HW2 2451   1.499   1.069   1.061 -0.8393  1.8586  2.7633
  613SOL     MW 2452   1.520   1.081   0.977  0.3074  0.6343  0.4444
  614SOL     OW 2453   2.021   0.486   1.428  0.2747 -0.5932  0.4012
  614SOL    HW1 2454   2.022   0.424   1.495  0.1085  1.3722 -1.3494
  614SOL    HW2 2455   1.934   0.491   1.385  0.4676  0.8407  0.4845
  614SOL     MW 2456   2.010   0.479   1.431  0.2782 -0.1447  0.1812
  615SOL     OW 2457   2.404   0.713   0.298  0.5537  0.1054 -0.2153
  615SOL    HW1 2458   2.466   0.631   0.298  1.8518 -0.0608 -0.2736
  615SOL    HW2 2459   2.362   0.723   0.209 -2.7154 -1.4410  0.6306
  615SOL     MW 2460   2.407   0.704   0.286  0.2936 -0.1206 -0.1114
  616SOL     OW 2461   2.494   0.440   1.613  0.1091 -0.1881  0.0759
  616SOL    HW1 2462   2.562   0.375   1.597 -0.0125  1.5742  0.4557
  616SOL    HW2 2463   2.483   0.484   1.528  0.3248 -3.6454 -2.7468
  616SOL     MW 2464   2.502   0.438   1.600  0.1215 -0.4117 -0.2464
  617SOL     OW 2465   2.867   0.615   1.801  0.0808 -0.2403  0.9197
  617SOL    HW1 2466   2.776   0.626   1.832  2.2073 -1.5570  4.2861
  617SOL    HW2 2467   2.875   0.520   1.793 -0.5606 -2.1930  1.0422
  617SOL     MW 2468   2.856   0.604   1.804  0.2767 -0.6717  1.3800
  618SOL     OW 2469   2.743   0.328   2.022  0.2137 -0.5198 -0.0477
  618SOL    HW1 2470   2.694   0.413   1.997  0.0303  2.1643  1.5215
  618SOL    HW2 2471   2.821   0.361   2.074  2.5972  0.0316  1.2423
  618SOL     MW 2472   2.747   0.343   2.025  0.5040 -0.0929  0.3295
  619SOL     OW 2473   2.640   0.723   0.103 -0.1517  0.0167  0.2854
  619SOL    HW1 2474   2.709   0.794   0.115  1.0608  2.4578 -0.4917
  619SOL    HW2 2475   2.639   0.675   0.184  1.4919  1.1333 -0.2072
  619SOL     MW 2476   2.649   0.726   0.115  0.2251  0.4861  0.1179
  620SOL     OW 2477   2.241   1.084   0.935 -0.0766 -0.2244  0.0666
  620SOL    HW1 2478   2.328   1.055   0.905  1.0779  2.2408  2.0814
  620SOL    HW2 2479   2.178   1.032   0.879 -1.1057  0.4897 -0.6531
  620SOL     MW 2480   2.244   1.073   0.924 -0.0600  0.1951  0.2375
  621SOL     OW 2481   1.483   2.215   1.930 -0.7241 -0.2911  0.0715
  621SOL    HW1 2482   1.423   2.140   1.950  1.3592  1.5557  0.3480
  621SOL    HW2 2483   1.574   2.192   1.967  0.1970  0.7023 -1.9933
  621SOL     MW 2484   1.487   2.202   1.938 -0.3277  0.0837 -0.1644
  622SOL     OW 2485   2.651   0.259   0.291 -0.0299 -0.2200 -0.1998
  622SOL    HW1 2486   2.750   0.270   0.279  0.2020 -1.4147 -1.1576
  622SOL    HW2 2487   2.643   0.167   0.305  1.7663  0.1826 -0.2499
  622SOL     MW 2488   2.663   0.248   0.291  0.2377 -0.3245 -0.3328
  623SOL     OW 2489   2.397   2.763   0.894 -0.2594  0.4488 -0.2746
  623SOL    HW1 2490   2.460   2.833   0.881 -2.4275 -1.7174  3.1623
  623SOL    HW2 2491   2.345   2.787   0.974 -0.9202 -0.7263  2.4212
  623SOL     MW 2492   2.398   2.775   0.903 -0.6327  0.0080  0.5346
  624SOL     OW 2493   2.171   1.598   3.040  0.1516 -0.3373 -0.0342
  624SOL    HW1 2494   2.099   1.539   3.021 -0.2929  3.9935 -0.8121
  624SOL    HW2 2495   2.139   1.682   3.025 -0.3860  0.0498 -0.7819
  624SOL     MW 2496   2.157   1.601   3.036  0.0220  0.2852 -0.2355
  625SOL     OW 2497   2.258   1.895   1.045  0.2537 -0.1145 -0.5167
  625SOL    HW1 2498   2.338   1.854   1.078 -1.6368  0.0504 -1.7750
  625SOL    HW2 2499   2.280   1.909   0.952  1.6266  1.3553 -0.6264
  625SOL     MW 2500   2.272   1.891   1.037  0.1854  0.1012 -0.6972
  626SOL     OW 2501   0.151   1.798   2.441 -0.7597 -0.2462 -0.7463
  626SOL    HW1 2502   0.116   1.727   2.493 -1.7022  2.1478  2.0402
  626SOL    HW2 2503   0.094   1.876   2.460 -2.0125  0.6681  0.3289
  626SOL     MW 2504   0.139   1.799   2.451 -1.0493  0.1903 -0.2368
  627SOL     OW 2505   2.501   0.821   2.564 -0.7699  0.5352  0.5567
  627SOL    HW1 2506   2.419   0.869   2.585 -2.0048  1.2968 -0.7228
  627SOL    HW2 2507   2.480   0.768   2.481  1.0514 -0.8099  0.0129
  627SOL     MW 2508   2.487   0.821   2.556 -0.6925  0.4582  0.3161
  628SOL     OW 2509   2.247   1.363   1.321  0.6648  0.2889 -0.6241
  628SOL    HW1 2510   2.201   1.302   1.266  1.3898 -2.6140  1.1075
  628SOL    HW2 2511   2.330   1.391   1.277  1.3761  1.9421 -1.8654
  628SOL     MW 2512   2.252   1.359   1.308  0.8543  0.1240 -0.5594
  629SOL     OW 2513   1.765   0.511   1.288 -0.0620  0.5586 -0.1353
  629SOL    HW1 2514   1.782   0.589   1.227  0.4023  0.3423 -1.7504
  629SOL    HW2 2515   1.684   0.468   1.272 -0.3470  1.9648 -1.4146
  629SOL     MW 2516   1.757   0.516   1.278 -0.0384  0.7156 -0.5172
  630SOL     OW 2517   2.396   1.876   2.993 -0.2571 -0.1480  0.2120
  630SOL    HW1 2518   2.433   1.966   2.967  3.0461  1.0882 -1.1617
  630SOL    HW2 2519   2.302   1.883   3.010 -0.2233  0.8331 -0.0484
  630SOL     MW 2520   2.389   1.889   2.992  0.1832  0.1445 -0.0036
  631SOL     OW 2521   2.082   1.709   1.531  0.4454  0.9119  0.0374
  631SOL    HW1 2522   2.058   1.651   1.604  2.0552 -1.5711 -1.6877
  631SOL    HW2 2523   2.011   1.771   1.524  0.8152 -1.9182 -0.4150
  631SOL     MW 2524   2.069   1.710   1.540  0.7066  0.2109 -0.2499
  632SOL     OW 2525   0.273   1.939   1.501 -0.0600 -0.3173  0.1068
  632SOL    HW1 2526   0.185   1.952   1.544  1.6205 -1.2087 -1.9708
  632SOL    HW2 2527   0.259   1.853   1.464  2.4145  0.2194 -0.0323
  632SOL     MW 2528   0.260   1.930   1.502  0.4882 -0.3641 -0.1857
  633SOL     OW 2529   2.639   0.538   0.301 -0.0316 -0.2534  0.5391
  633SOL    HW1 2530   2.653   0.522   0.396 -1.1645  0.4160  0.9256
  633SOL    HW2 2531   2.624   0.450   0.266  2.5633  0.7218  4.5934
  633SOL     MW 2532   2.639   0.524   0.309  0.1613 -0.0364  1.1250
  634SOL     OW 2533   2.671   3.033   0.623 -0.1555  0.0216  0.1362
  634SOL    HW1 2534   2.689   3.127   0.645  0.0909 -1.3606  2.0061
  634SOL    HW2 2535   2.612   3.034   0.546 -0.1249 -0.8193  0.5480
  634SOL     MW 2536   2.665   3.046   0.615 -0.1189 -0.2718  0.4372
  635SOL     OW 2537   2.629   0.108   1.894  0.2171 -0.5028  0.5068
  635SOL    HW1 2538   2.674   0.063   1.818 -1.0124 -0.4614 -1.5085
  635SOL    HW2 2539   2.676   0.187   1.937 -2.0796  0.1961 -0.2999
  635SOL     MW 2540   2.641   0.112   1.889 -0.2481 -0.4052  0.1345
  636SOL     OW 2541   2.738   1.596   0.881 -0.6401  0.8114  0.1307
  636SOL    HW1 2542   2.660   1.546   0.917  0.4989 -4.3995 -0.0765
  636SOL    HW2 2543   2.750   1.677   0.930 -2.5008  0.0443 -0.8461
  636SOL     MW 2544   2.729   1.600   0.892 -0.7353  0.0227 -0.0255
  637SOL     OW 2545   2.882   1.531   0.641  0.0070  0.0012 -0.0717
  637SOL    HW1 2546   2.941   1.599   0.599 -0.0047 -0.3965 -0.9142
  637SOL    HW2 2547   2.830   1.574   0.709 -0.6747 -2.0311  0.7368
  637SOL     MW 2548   2.883   1.546   0.644 -0.0845 -0.3194 -0.0762
  638SOL     OW 2549   2.753   0.500   0.551  0.4519 -0.2258  0.6757
  638SOL    HW1 2550   2.831   0.540   0.513  0.6709  0.4119  3.4932
  638SOL    HW2 2551   2.752   0.510   0.643  0.8290 -0.3589 -1.0235
  638SOL     MW 2552   2.763   0.506   0.558  0.5305 -0.1592  0.8233
  639SOL     OW 2553   1.763   3.092   0.528 -0.0100  0.1108  0.3666
  639SOL    HW1 2554   1.676   3.135   0.511  1.8526 -0.5537 -0.3447
  639SOL    HW2 2555   1.739   2.998   0.513  1.0580  0.1479  0.0867
  639SOL     MW 2556   1.748   3.086   0.523  0.3766  0.0280  0.2358
  640SOL     OW 2557   0.351   1.336   0.096 -0.4911 -0.4160  0.3011
  640SOL    HW1 2558   0.374   1.310   0.005  1.0841  1.4644  1.5758
  640SOL    HW2 2559   0.350   1.247   0.142  0.7541  1.2618  2.2511
  640SOL     MW 2560   0.354   1.321   0.090 -0.1190  0.0534  0.7266
  641SOL     OW 2561   2.168   0.415   0.367 -1.1601 -0.0080  0.3449
  641SOL    HW1 2562   2.210   0.424   0.282 -1.6141 -1.1439 -1.2603
  641SOL    HW2 2563   2.203   0.330   0.401 -0.3170  0.7038  1.8171
  641SOL     MW 2564   2.178   0.405   0.360 -1.1087 -0.0640  0.3274
  642SOL     OW 2565   0.078   0.043   0.520 -0.3780  0.7955  0.7054
  642SOL    HW1 2566   0.046   0.126   0.521 -0.9923 -0.0492 -0.5500
  642SOL    HW2 2567  -0.003   0.001   0.556 -1.9706  2.5752  1.9219
  642SOL     MW 2568   0.063   0.048   0.525 -0.6692  0.9189  0.7003
  643SOL     OW 2569   2.065   0.318   1.682 -0.0560 -0.2796 -0.9173
  643SOL    HW1 2570   1.987   0.314   1.734  1.4256 -0.8461 -0.3746
  643SOL    HW2 2571   2.043   0.263   1.611 -0.2934  1.4641 -0.9488
  643SOL     MW 2572   2.052   0.310   1.679  0.1082 -0.1243 -0.8499
  644SOL     OW 2573   2.680   1.885   0.991  0.0649  0.5433 -0.0219
  644SOL    HW1 2574   2.651   1.858   1.076 -1.0123 -1.4017  1.3846
  644SOL    HW2 2575   2.607   1.926   0.948  2.1830 -0.6871  0.0126
  644SOL     MW 2576   2.666   1.887   0.997  0.2022  0.1243  0.1682
  645SOL     OW 2577   2.834   0.825   0.715  0.1702  0.1010 -0.4613
  645SOL    HW1 2578   2.919   0.787   0.707  0.3457 -3.2106 -1.1438
  645SOL    HW2 2579   2.796   0.763   0.779 -0.8096 -1.1949  1.6539
  645SOL     MW 2580   2.840   0.812   0.722  0.0641 -0.5069 -0.2723
  646SOL     OW 2581   0.102   2.298   0.847  0.7170 -0.3563  0.0330
  646SOL    HW1 2582   0.127   2.209   0.868 -2.9961 -0.0533  1.6007
  646SOL    HW2 2583   0.054   2.288   0.763 -0.3365 -1.3829  2.0791
  646SOL     MW 2584   0.099   2.285   0.839  0.0881 -0.4518  0.5098
  647SOL     OW 2585   2.711   0.510   3.017  0.3160  0.0898 -0.0242
  647SOL    HW1 2586   2.656   0.441   3.049  1.2141  0.0543  1.1944
  647SOL    HW2 2587   2.733   0.569   3.090  0.7850 -2.1207  1.2248
  647SOL     MW 2588   2.706   0.509   3.031  0.4964 -0.2065  0.3014
  648SOL     OW 2589   2.275   0.709   1.094 -0.3682 -0.5664 -0.2081
  648SOL    HW1 2590   2.215   0.645   1.133 -2.1177 -1.1195  3.2110
  648SOL    HW2 2591   2.264   0.789   1.146  0.7024  0.2878  1.2235
  648SOL     MW 2592   2.266   0.711   1.106 -0.4578 -0.5267  0.4319
  649SOL     OW 2593   2.435   2.722   1.241  0.3566 -0.7901 -0.0137
  649SOL    HW1 2594   2.519   2.772   1.243  1.2675  1.6427  0.5879
  649SOL    HW2 2595   2.451   2.630   1.208  0.0394  1.8637 -4.6115
  649SOL     MW 2596   2.448   2.717   1.237  0.4350 -0.1190 -0.5410
  650SOL     OW 2597   2.768   0.216   0.662 -0.1023  0.3783  0.2228
  650SOL    HW1 2598   2.736   0.303   0.682  0.6535  0.6915 -0.1854
  650SOL    HW2 2599   2.855   0.235   0.619  1.0947  0.4503  1.3379
  650SOL     MW 2600   2.775   0.230   0.659  0.1553  0.4291  0.3161
  651SOL     OW 2601   0.018   0.457   1.014  0.5994  0.2199  0.2114
  651SOL    HW1 2602   0.078   0.500   0.951  2.1795 -1.4731  1.4440
  651SOL    HW2 2603  -0.057   0.519   1.035 -0.1505  0.9216  2.8707
  651SOL     MW 2604   0.016   0.471   1.008  0.7090  0.0891  0.7249
  652SOL     OW 2605   2.343   1.407   2.999  0.1708 -0.0362  0.1018
  652SOL    HW1 2606   2.402   1.449   2.935 -1.8457  0.1178 -2.4858
  652SOL    HW2 2607   2.282   1.480   3.020  1.8333 -2.4779  0.0976
  652SOL     MW 2608   2.343   1.422   2.993  0.1241 -0.3380 -0.2402
  653SOL     OW 2609   1.801   0.400   0.301  0.6557 -0.5793 -0.0541
  653SOL    HW1 2610   1.789   0.327   0.241  2.1764 -2.4229  0.7619
  653SOL    HW2 2611   1.886   0.432   0.273  0.1285  1.0097 -2.6973
  653SOL     MW 2612   1.811   0.394   0.290  0.7867 -0.6129 -0.2952
  654SOL     OW 2613   2.419   0.955   0.750  0.1940  0.2891  0.4139
  654SOL    HW1 2614   2.360   0.960   0.667 -0.4148 -1.2240  0.9011
  654SOL    HW2 2615   2.476   0.874   0.750 -0.4178  0.7001 -2.3359
  654SOL     MW 2616   2.418   0.945   0.739  0.0329  0.1437  0.1154
  655SOL     OW 2617   2.912   0.890   0.400 -0.0876 -0.1917  0.4865
  655SOL    HW1 2618   2.890   0.932   0.484  2.0040  0.2674  1.4783
  655SOL    HW2 2619   2.924   0.797   0.425  2.2931 -1.2286  0.7526
  655SOL     MW 2620   2.911   0.883   0.414  0.5025 -0.2679  0.6525
  656SOL     OW 2621   1.781   2.648   1.390  0.3667 -0.6894  0.5355
  656SOL    HW1 2622   1.799   2.743   1.394 -1.2692 -0.5924 -1.0888
  656SOL    HW2 2623   1.862   2.608   1.365  1.5675  1.3454 -0.7851
  656SOL     MW 2624   1.794   2.655   1.387  0.3093 -0.4081  0.1469
  657SOL     OW 2625   0.110   1.798   1.206 -0.4937  0.6786  0.7488
  657SOL    HW1 2626   0.189   1.851   1.194 -0.0328 -3.6024  1.2004
  657SOL    HW2 2627   0.143   1.708   1.216 -2.5674  1.0133  0.8120
  657SOL     MW 2628   0.125   1.794   1.206 -0.7065  0.1579  0.8167
  658SOL     OW 2629   2.728   1.324   0.255  0.3312  0.1222  0.2034
  658SOL    HW1 2630   2.703   1.251   0.313  0.0337 -0.2755 -5.6098
  658SOL    HW2 2631   2.742   1.400   0.313  1.3404  1.5682  1.0232
  658SOL     MW 2632   2.726   1.325   0.270  0.4251  0.2605 -0.4555
  659SOL     OW 2633   2.188   1.535   1.014 -0.0870 -0.3638  0.3187
  659SOL    HW1 2634   2.260   1.487   1.060  1.4301 -1.2613  2.5098
  659SOL    HW2 2635   2.188   1.626   1.053 -0.2713  1.6478  0.1632
  659SOL     MW 2636   2.197   1.541   1.025  0.0888 -0.2168  0.5873
  660SOL     OW 2637   2.085   1.452   1.689  0.1385  0.1807 -0.0876
  660SOL    HW1 2638   2.071   1.465   1.781 -0.4390  0.5924  2.8967
  660SOL    HW2 2639   1.997   1.430   1.651 -0.6354  1.5681 -1.9100
  660SOL     MW 2640   2.072   1.451   1.696 -0.0398  0.4181  0.0657
  661SOL     OW 2641   2.418   0.984   0.224 -0.4894  0.1409  0.1250
  661SOL    HW1 2642   2.498   1.021   0.261  1.4151  1.5703 -2.9364
  661SOL    HW2 2643   2.430   0.886   0.222  0.9459 -4.9632  0.2111
  661SOL     MW 2644   2.430   0.976   0.229 -0.0488 -0.3440 -0.2676
  662SOL     OW 2645   2.588   2.952   0.876  0.0052  0.1783  0.1305
  662SOL    HW1 2646   2.554   3.030   0.917 -2.2990  1.0041  0.2162
  662SOL    HW2 2647   2.597   2.972   0.779  0.2544  0.2734 -0.7830
  662SOL     MW 2648   2.585   2.965   0.869 -0.2659  0.2998  0.0213
  663SOL     OW 2649   2.681   1.533   0.439 -0.1663 -0.1243  0.2256
  663SOL    HW1 2650   2.657   1.617   0.399  0.6357 -1.3397 -0.3005
  663SOL    HW2 2651   2.755   1.546   0.502  2.3067  1.4056  0.6008
  663SOL     MW 2652   2.688   1.546   0.442  0.2658 -0.0828  0.2057
  664SOL     OW 2653   2.540   1.539   1.607  0.1703 -0.6683 -0.0473
  664SOL    HW1 2654   2.550   1.627   1.567  2.0108 -3.0616  0.7709
  664SOL    HW2 2655   2.454   1.512   1.597  0.2449 -0.0625  1.6012
  664SOL     MW 2656   2.530   1.547   1.600  0.4230 -0.9042  0.2782
  665SOL     OW 2657   2.796   0.771   2.074  0.4229  0.0806 -0.0221
  665SOL    HW1 2658   2.807   0.819   1.987  0.6135  3.1854  2.3733
  665SOL    HW2 2659   2.882   0.736   2.102  1.4370 -1.4781 -0.7283
  665SOL     MW 2660   2.809   0.772   2.066  0.5818  0.2846  0.2008
  666SOL     OW 2661   2.755   3.034   1.702 -0.4989 -0.0430 -0.0692
  666SOL    HW1 2662   2.761   3.048   1.606  1.4975 -2.5090 -1.7796
  666SOL    HW2 2663   2.734   2.942   1.722 -0.6671 -1.2610  0.2049
  666SOL     MW 2664   2.753   3.023   1.692 -0.2577 -0.5291 -0.2587
  667SOL     OW 2665   2.008   2.694   1.768 -0.3409  0.1695 -0.2380
  667SOL    HW1 2666   2.052   2.679   1.854 -1.8873  0.5684 -0.0065
  667SOL    HW2 2667   2.076   2.750   1.723  0.0575  0.0967 -0.5515
  667SOL     MW 2668   2.023   2.699   1.774 -0.4924  0.2125 -0.2488
  668SOL     OW 2669   2.761   0.548   0.824 -0.0782 -0.5862  0.0348
  668SOL    HW1 2670   2.822   0.580   0.899  2.1887  4.5048  1.7586
  668SOL    HW2 2671   2.693   0.613   0.803 -0.1149 -2.1723  2.5824
  668SOL     MW 2672   2.760   0.561   0.831  0.2160 -0.1238  0.5983
  669SOL     OW 2673   0.171   0.927   0.759 -0.2734  0.9187 -0.6666
  669SOL    HW1 2674   0.103   0.977   0.796 -1.3157 -1.0737 -1.1250
  669SOL    HW2 2675   0.250   0.923   0.814  0.6630  1.7830 -3.3682
  669SOL     MW 2676   0.172   0.933   0.771 -0.2874  0.7699 -1.0835
  670SOL     OW 2677   2.894   0.320   0.210  0.1952 -0.3086 -0.8478
  670SOL    HW1 2678   2.937   0.254   0.156 -0.6928  0.5339 -1.7533
  670SOL    HW2 2679   2.935   0.406   0.180 -0.0075  0.3016  1.1373
  670SOL     MW 2680   2.905   0.323   0.199  0.0513 -0.1169 -0.7053
  671SOL     OW 2681   2.003   3.025   1.561  0.2673  0.3434 -0.0681
  671SOL    HW1 2682   1.955   2.972   1.497  0.6345  1.5382 -0.4129
  671SOL    HW2 2683   1.942   3.022   1.637  0.3127 -1.9975 -1.4801
  671SOL     MW 2684   1.989   3.017   1.563  0.3218  0.1922 -0.2999
  672SOL     OW 2685   1.807   1.741   1.272  0.1715  0.3827 -0.0362
  672SOL    HW1 2686   1.811   1.796   1.349 -1.0019  3.1992 -0.2898
  672SOL    HW2 2687   1.883   1.756   1.212 -0.4590 -1.7347 -0.8074
  672SOL     MW 2688   1.818   1.750   1.274 -0.0665  0.4749 -0.1714
  673SOL     OW 2689   2.757   1.062   0.616 -0.1240  0.9613 -0.8053
  673SOL    HW1 2690   2.785   0.992   0.673 -1.7142  0.6189 -0.5435
  673SOL    HW2 2691   2.822   1.134   0.618 -2.5749  0.0386 -4.3013
  673SOL     MW 2692   2.770   1.062   0.624 -0.6572  0.7944 -1.2320
  674SOL     OW 2693   2.466   3.103   1.265  0.3801  0.6226 -0.2684
  674SOL    HW1 2694   2.434   3.097   1.174  0.1775 -1.3882  0.3664
  674SOL    HW2 2695   2.519   3.021   1.275 -0.4252  0.0839  2.3792
  674SOL     MW 2696   2.469   3.092   1.254  0.2471  0.2862  0.1647
  675SOL     OW 2697   2.952   0.935   1.040  0.7808 -0.0902  0.1904
  675SOL    HW1 2698   3.016   0.929   1.109  1.8159  1.3536 -0.6120
  675SOL    HW2 2699   2.988   0.991   0.967  0.1246 -1.2632  1.8199
  675SOL     MW 2700   2.965   0.942   1.039  0.8308 -0.0545  0.2995
  676SOL     OW 2701   2.943   1.456   1.690 -0.3255  0.9938 -0.0963
  676SOL    HW1 2702   2.871   1.404   1.652 -0.5346 -0.4559  0.1619
  676SOL    HW2 2703   2.959   1.435   1.779 -1.3119 -1.5965  3.0064
  676SOL     MW 2704   2.936   1.446   1.697 -0.4833  0.4607  0.3471
  677SOL     OW 2705   2.376   0.548   2.047 -0.3839 -0.4347 -0.1504
  677SOL    HW1 2706   2.340   0.503   1.967 -0.6661 -1.7966  1.7761
  677SOL    HW2 2707   2.349   0.642   2.027 -0.3164  1.1939  0.7913
  677SOL     MW 2708   2.368   0.555   2.034 -0.4122 -0.3995  0.2280
  678SOL     OW 2709   2.452   1.659   0.298 -0.9275  0.6579 -0.3242
  678SOL    HW1 2710   2.359   1.662   0.337 -1.7289  0.4213 -3.2929
  678SOL    HW2 2711   2.446   1.564   0.266 -2.5799 -1.8419  1.1391
  678SOL     MW 2712   2.439   1.647   0.299 -1.2512  0.2969 -0.5228
  679SOL     OW 2713   2.241   0.443   1.261  0.4556 -0.2221 -0.5937
  679SOL    HW1 2714   2.247   0.349   1.244  0.2880 -0.0964 -1.1095
  679SOL    HW2 2715   2.154   0.471   1.294  0.0494 -2.1239  0.8074
  679SOL     MW 2716   2.230   0.435   1.263  0.3799 -0.4565 -0.4769
  680SOL     OW 2717   2.308   0.155   1.476 -0.2871 -0.4200 -0.4673
  680SOL    HW1 2718   2.216   0.161   1.471 -0.8585 -1.1200  0.2193
  680SOL    HW2 2719   2.353   0.123   1.391  0.6690  0.7487 -0.3994
  680SOL     MW 2720   2.302   0.152   1.464 -0.2364 -0.3581 -0.3678
  681SOL     OW 2721   0.228   0.544   1.491  0.1515 -0.2452  0.2512
  681SOL    HW1 2722   0.239   0.470   1.543  0.7568  0.2669 -1.7282
  681SOL    HW2 2723   0.187   0.516   1.403 -0.6829  0.8359 -2.1382
  681SOL     MW 2724   0.224   0.531   1.486  0.1213 -0.0350 -0.3252
  682SOL     OW 2725   0.133   2.873   1.520 -0.9032  0.2736 -0.3519
  682SOL    HW1 2726   0.213   2.926   1.526  0.1410  1.3919  0.8529
  682SOL    HW2 2727   0.061   2.922   1.563 -0.1749 -0.4800 -0.3774
  682SOL     MW 2728   0.134   2.886   1.526 -0.6694  0.3217 -0.1963
  683SOL     OW 2729   2.085   0.834   2.980 -0.3928  0.2667 -0.0624
  683SOL    HW1 2730   2.008   0.779   2.991  1.8133  1.8545  1.4196
  683SOL    HW2 2731   2.066   0.916   3.027 -1.1087  1.4998 -1.5645
  683SOL     MW 2732   2.073   0.838   2.988 -0.1962  0.6389 -0.0651
  684SOL     OW 2733   2.178   1.690   0.689 -0.7651  0.0190 -0.1059
  684SOL    HW1 2734   2.153   1.684   0.593 -1.3571 -0.9557  0.0709
  684SOL    HW2 2735   2.147   1.601   0.715 -0.6434 -0.9770  0.8073
  684SOL     MW 2736   2.171   1.677   0.680 -0.8272 -0.2410  0.0379
  685SOL     OW 2737   2.723   1.656   1.193  0.3205 -0.0835 -0.0368
  685SOL    HW1 2738   2.775   1.668   1.273 -3.0033  2.3278 -0.6752
  685SOL    HW2 2739   2.695   1.564   1.203  1.0640  0.3022 -1.5612
  685SOL     MW 2740   2.726   1.646   1.205 -0.0199  0.2855 -0.3222
  686SOL     OW 2741   2.875   0.710   1.528 -0.1932 -0.4948  1.1470
  686SOL    HW1 2742   2.872   0.653   1.608 -0.3521 -1.5296  0.5108
  686SOL    HW2 2743   2.968   0.729   1.509  3.2143  0.4197 -0.2064
  686SOL     MW 2744   2.887   0.705   1.536  0.2354 -0.5107  0.8845
  687SOL     OW 2745   2.137   0.149   1.175  0.3837  0.4261 -0.0528
  687SOL    HW1 2746   2.208   0.104   1.125  1.7214  1.7813 -0.4688
  687SOL    HW2 2747   2.087   0.207   1.109 -2.1528  1.0268 -0.7861
  687SOL     MW 2748   2.140   0.150   1.160  0.2255  0.6842 -0.2045
  688SOL     OW 2749   2.389   0.611   1.427 -0.5537 -0.2692 -0.1947
  688SOL    HW1 2750   2.360   0.554   1.360  1.1683 -0.1242  0.6100
  688SOL    HW2 2751   2.313   0.638   1.476  0.5480 -0.2752 -2.5740
  688SOL     MW 2752   2.375   0.607   1.425 -0.1811 -0.2509 -0.4025
  689SOL     OW 2753   2.464   0.746   2.964 -0.8620  0.8448 -0.0083
  689SOL    HW1 2754   2.459   0.839   2.991  1.4065 -0.7596  1.9295
  689SOL    HW2 2755   2.532   0.701   3.014  1.8524  1.2401 -3.5553
  689SOL     MW 2756   2.472   0.753   2.974 -0.2045  0.6853 -0.2206
  690SOL     OW 2757   2.044   0.891   1.883 -0.3717  0.3059  0.2139
  690SOL    HW1 2758   2.010   0.803   1.885  0.0206  2.3187  1.7949
  690SOL    HW2 2759   2.045   0.922   1.791 -1.3057 -0.1720  1.4365
  690SOL     MW 2760   2.040   0.884   1.871 -0.4432  0.5084  0.5838
  691SOL     OW 2761   2.415   0.223   0.849  0.4498  0.3626  0.2579
  691SOL    HW1 2762   2.475   0.275   0.902 -2.0899 -0.5463 -1.2247
  691SOL    HW2 2763   2.341   0.277   0.820 -0.8053  0.3716  0.8247
  691SOL     MW 2764   2.413   0.237   0.852 -0.0509  0.2438  0.1370
  692SOL     OW 2765   2.885   1.600   1.420 -0.2452 -0.1130 -0.8346
  692SOL    HW1 2766   2.894   1.576   1.513 -0.2180 -0.3350 -2.4798
  692SOL    HW2 2767   2.890   1.695   1.427 -1.3563 -1.3564 -0.5461
  692SOL     MW 2768   2.886   1.609   1.433 -0.3882 -0.3063 -1.0136
  693SOL     OW 2769   2.321   0.447   0.108 -0.0371 -0.1569 -0.1117
  693SOL    HW1 2770   2.246   0.390   0.087 -0.0261 -0.7195 -2.3367
  693SOL    HW2 2771   2.298   0.536   0.078  0.3741 -1.6668  0.2734
  693SOL     MW 2772   2.308   0.451   0.101  0.0186 -0.4303 -0.3544
  694SOL     OW 2773   1.910   1.111   1.055  0.1426  0.0726  0.2267
  694SOL    HW1 2774   2.000   1.133   1.101 -1.0033 -1.1570  2.0291
  694SOL    HW2 2775   1.863   1.054   1.120 -1.4177 -0.7742  1.9920
  694SOL     MW 2776   1.915   1.107   1.070 -0.2145 -0.2014  0.6974
  695SOL     OW 2777   2.997   1.378   1.288 -0.6526 -0.5222  0.6908
  695SOL    HW1 2778   2.972   1.390   1.199 -0.3276  0.5054 -0.8680
  695SOL    HW2 2779   2.982   1.468   1.334 -0.1723  0.6125 -1.2237
  695SOL     MW 2780   2.992   1.391   1.282 -0.5463 -0.2369  0.2325
  696SOL     OW 2781   2.100   1.444   0.764 -0.1614  0.3230 -0.5620
  696SOL    HW1 2782   2.131   1.473   0.846  0.9876 -0.4442 -1.5380
  696SOL    HW2 2783   2.030   1.379   0.780  3.1430  0.2370 -0.3467
  696SOL     MW 2784   2.095   1.439   0.777  0.4261  0.2104 -0.6624
  697SOL     OW 2785   2.860   0.980   2.259  0.1687 -0.1793  0.1764
  697SOL    HW1 2786   2.780   1.042   2.253  0.6492 -0.7454 -2.2624
  697SOL    HW2 2787   2.825   0.903   2.208  0.1378 -0.8481  0.3675
  697SOL     MW 2788   2.845   0.978   2.251  0.2280 -0.3423 -0.1201
  698SOL     OW 2789   2.555   0.306   0.010  0.5301 -0.9269  0.0163
  698SOL    HW1 2790   2.474   0.355   0.035 -0.2600 -0.1777 -1.3560
  698SOL    HW2 2791   2.600   0.272   0.096  2.2466  0.1619  2.1000
  698SOL     MW 2792   2.550   0.308   0.025  0.6523 -0.6844  0.1102
  699SOL     OW 2793   1.899   1.622   2.097  0.5012  0.1167 -0.1404
  699SOL    HW1 2794   1.852   1.554   2.056 -0.2043 -1.0017  0.9105
  699SOL    HW2 2795   1.973   1.640   2.045  3.4878  1.6208  3.9254
  699SOL     MW 2796   1.902   1.615   2.085  0.8022  0.1676  0.5347
  700SOL     OW 2797   2.694   0.895   1.606  0.6322 -0.3364 -0.1458
  700SOL    HW1 2798   2.705   0.957   1.527 -0.9561 -0.5688 -1.0697
  700SOL    HW2 2799   2.763   0.827   1.583  3.0459  1.2301 -0.2220
  700SOL     MW 2800   2.705   0.895   1.592  0.7411 -0.1604 -0.2777
  701SOL     OW 2801   1.694   1.166   2.500 -0.4926 -0.0650  0.2527
  701SOL    HW1 2802   1.784   1.145   2.515 -0.9248  2.1863 -1.8421
  701SOL    HW2 2803   1.679   1.227   2.572 -0.9712 -0.6312 -1.0927
  701SOL     MW 2804   1.704   1.172   2.511 -0.6127  0.1573 -0.2012
  702SOL     OW 2805   2.139   0.409   0.840  0.2721  0.2671 -0.2559
  702SOL    HW1 2806   2.108   0.345   0.775  1.1417  0.6672 -2.2647
  702SOL    HW2 2807   2.199   0.465   0.794 -1.0150 -0.4473  1.1962
  702SOL     MW 2808   2.143   0.408   0.826  0.2170  0.2256 -0.3293
  703SOL     OW 2809   2.727   1.250   1.003 -0.0110 -0.2758 -0.5157
  703SOL    HW1 2810   2.661   1.255   0.935  0.9344 -2.4411  0.4083
  703SOL    HW2 2811   2.712   1.163   1.043  1.5955  0.5850 -1.3933
  703SOL     MW 2812   2.716   1.239   0.999  0.3257 -0.4479 -0.5096
  704SOL     OW 2813   3.032   1.276   0.150  0.0498 -0.0687  0.4645
  704SOL    HW1 2814   2.952   1.236   0.124 -0.8650 -0.5518  1.5957
  704SOL    HW2 2815   3.044   1.254   0.247 -0.7498  0.4109  1.3025
  704SOL     MW 2816   3.023   1.268   0.159 -0.1764 -0.0691  0.7243
  705SOL     OW 2817   2.153   1.618   1.280 -0.9482 -0.4305  0.2206
  705SOL    HW1 2818   2.105   1.637   1.365 -2.5455 -1.4035 -0.2545
  705SOL    HW2 2819   2.182   1.531   1.285 -1.2655 -0.2951 -0.5851
  705SOL     MW 2820   2.151   1.609   1.292 -1.2008 -0.5410  0.0516
  706SOL     OW 2821   2.935   1.260   0.629 -0.0471  0.0863 -0.2301
  706SOL    HW1 2822   2.983   1.261   0.545  1.9872 -3.0093  1.1393
  706SOL    HW2 2823   2.907   1.355   0.654  3.2045 -1.8522  1.6639
  706SOL     MW 2824   2.937   1.273   0.621  0.6503 -0.5779  0.2005
  707SOL     OW 2825   2.340   0.031   1.009 -0.0146 -0.5171 -0.5300
  707SOL    HW1 2826   2.351   0.109   0.954  0.5758 -2.1107  1.4963
  707SOL    HW2 2827   2.257  -0.017   0.990  0.8531  1.8296 -1.1147
  707SOL     MW 2828   2.331   0.035   0.999  0.1778 -0.4178 -0.3398
  708SOL     OW 2829   2.443   1.400   0.183  0.4878 -0.4245 -0.4214
  708SOL    HW1 2830   2.540   1.393   0.171  0.6507 -0.5894 -2.3348
  708SOL    HW2 2831   2.410   1.395   0.094  0.4937  4.0634  0.6927
  708SOL     MW 2832   2.451   1.399   0.170  0.5101  0.1459 -0.5269
  709SOL     OW 2833   1.725   1.631   0.211 -0.7863 -0.0700 -0.0089
  709SOL    HW1 2834   1.740   1.666   0.123  2.0645  1.5274  1.2169
  709SOL    HW2 2835   1.640   1.644   0.242  0.2135 -0.1225 -0.8560
  709SOL     MW 2836   1.716   1.637   0.204 -0.2783  0.1339  0.0411
  710SOL     OW 2837   2.145   1.163   1.165 -0.3982  0.4396 -0.8243
  710SOL    HW1 2838   2.196   1.163   1.083 -2.4012  0.8457  0.2298
  710SOL    HW2 2839   2.172   1.086   1.223  3.2036 -0.5445  1.7107
  710SOL     MW 2840   2.155   1.153   1.162 -0.1872  0.3633 -0.3507
  711SOL     OW 2841   2.341   0.102   1.787  0.5332  0.5140  0.5494
  711SOL    HW1 2842   2.433   0.110   1.810 -2.2791  1.0389  1.4754
  711SOL    HW2 2843   2.338   0.091   1.691 -0.5223  0.6856 -1.0243
  711SOL     MW 2844   2.353   0.102   1.777  0.0229  0.6059  0.4640
  712SOL     OW 2845   1.929   0.631   3.066 -0.4233 -0.1573  0.1938
  712SOL    HW1 2846   1.844   0.657   3.035 -0.8990 -2.9445 -1.3394
  712SOL    HW2 2847   1.921   0.641   3.162 -2.6276  1.0073 -1.8787
  712SOL     MW 2848   1.917   0.635   3.074 -0.7769 -0.3714 -0.2819
  713SOL     OW 2849   2.540   0.713   1.087  0.4512 -0.3155 -0.1355
  713SOL    HW1 2850   2.555   0.668   1.169 -0.3079  0.0802  2.4412
  713SOL    HW2 2851   2.451   0.691   1.070  0.2164  1.5677  1.1153
  713SOL     MW 2852   2.530   0.704   1.095  0.3200 -0.0148  0.3695
  714SOL     OW 2853   2.194   0.179   2.001  0.0670  0.6871 -0.1051
  714SOL    HW1 2854   2.256   0.146   2.069  0.4787  2.7541 -0.4976
  714SOL    HW2 2855   2.249   0.172   1.916  1.9880  0.7922 -0.8314
  714SOL     MW 2856   2.210   0.174   1.999  0.3748  0.9737 -0.2527
  715SOL     OW 2857   1.825   2.044   1.737 -0.2316  0.1752  0.2444
  715SOL    HW1 2858   1.908   2.077   1.716 -1.7030 -0.3287 -0.1628
  715SOL    HW2 2859   1.842   1.967   1.797  0.8345 -0.2273  0.9062
  715SOL     MW 2860   1.838   2.038   1.742 -0.2851  0.0556  0.2780
  716SOL     OW 2861   2.328   0.546   0.659 -0.0422 -0.2148 -0.8547
  716SOL    HW1 2862   2.371   0.473   0.611 -1.7108 -0.0546  1.6896
  716SOL    HW2 2863   2.278   0.610   0.602 -0.3870  2.4105  0.7155
  716SOL     MW 2864   2.327   0.545   0.645 -0.3079  0.1527 -0.3118
  717SOL     OW 2865   2.810   1.648   2.890  0.1179 -0.2623  0.2258
  717SOL    HW1 2866   2.889   1.612   2.928  0.6396  0.9799  2.1534
  717SOL    HW2 2867   2.777   1.691   2.975  1.9683  0.8545 -0.7690
  717SOL     MW 2868   2.816   1.649   2.906  0.4309  0.0489  0.3489
  718SOL     OW 2869   2.669   1.398   1.317  0.4896 -0.2339  0.2844
  718SOL    HW1 2870   2.685   1.431   1.405  1.5011 -2.0891  1.6050
  718SOL    HW2 2871   2.749   1.351   1.302 -1.5513 -0.4580  0.5946
  718SOL     MW 2872   2.682   1.396   1.327  0.3538 -0.5083  0.4996
  719SOL     OW 2873   2.180   1.232   0.571  0.2993  0.0094 -0.0470
  719SOL    HW1 2874   2.251   1.263   0.517  0.3554  0.5446  1.8428
  719SOL    HW2 2875   2.175   1.304   0.647 -2.2575  2.0380 -0.4172
  719SOL     MW 2876   2.189   1.246   0.574 -0.0306  0.3476  0.1535
  720SOL     OW 2877   2.785   1.151   0.048 -0.2210 -0.2770 -0.0447
  720SOL    HW1 2878   2.778   1.063   0.090  0.0188  0.2854  0.7230
  720SOL    HW2 2879   2.772   1.220   0.119  0.1509 -0.6736 -0.9512
  720SOL     MW 2880   2.782   1.148   0.063 -0.1403 -0.2551 -0.0630
  721SOL     OW 2881   2.487   0.872   1.413  0.0821 -0.3254 -0.3615
  721SOL    HW1 2882   2.455   0.782   1.413  0.0594  0.8859 -2.1307
  721SOL    HW2 2883   2.551   0.875   1.478 -3.5162 -2.8548 -0.9116
  721SOL     MW 2884   2.492   0.860   1.422 -0.3957 -0.4993 -0.6675
  722SOL     OW 2885   2.608   1.119   0.367  0.0572  0.0859  0.3442
  722SOL    HW1 2886   2.548   1.178   0.396  1.1952 -1.6867 -1.0052
  722SOL    HW2 2887   2.643   1.072   0.446  0.4010 -0.2342 -1.0145
  722SOL     MW 2888   2.605   1.121   0.381  0.2527 -0.1902 -0.0131
  723SOL     OW 2889   2.324   1.364   1.594 -0.1643  0.0445 -0.0161
  723SOL    HW1 2890   2.317   1.376   1.499  0.4364 -1.6105 -1.5543
  723SOL    HW2 2891   2.255   1.422   1.628  0.0422  0.0859 -1.3470
  723SOL     MW 2892   2.314   1.373   1.586 -0.0578 -0.1684 -0.3946
  724SOL     OW 2893   2.468   0.324   0.587  0.3688 -0.0632  0.3112
  724SOL    HW1 2894   2.483   0.265   0.658 -1.0750 -0.8741 -0.6667
  724SOL    HW2 2895   2.545   0.309   0.536  0.2770 -2.0799  0.7587
  724SOL     MW 2896   2.480   0.314   0.589  0.1662 -0.4363  0.2412
  725SOL     OW 2897   2.596   0.416   1.223 -0.2615  0.2132 -0.0355
  725SOL    HW1 2898   2.666   0.466   1.262  0.2588 -0.2021 -1.1899
  725SOL    HW2 2899   2.589   0.339   1.279  1.1785 -0.2074 -1.5449
  725SOL     MW 2900   2.605   0.413   1.236 -0.0028  0.1029 -0.3870
  726SOL     OW 2901   2.522   2.507   0.534  0.2786  0.5193  0.3450
  726SOL    HW1 2902   2.488   2.585   0.487 -0.7474  0.5393 -1.8215
  726SOL    HW2 2903   2.490   2.508   0.627  0.0939 -1.6848  0.3060
  726SOL     MW 2904   2.513   2.518   0.540  0.1188  0.2311  0.0540
  727SOL     OW 2905   2.851   0.339   1.775 -0.0717  0.2260 -0.2194
  727SOL    HW1 2906   2.789   0.317   1.702 -0.5470 -4.3524 -1.5129
  727SOL    HW2 2907   2.793   0.325   1.855 -0.2623  1.6896 -0.3061
  727SOL     MW 2908   2.836   0.334   1.776 -0.1595 -0.1850 -0.4015
  728SOL     OW 2909   2.843   1.151   2.857  0.3550  0.4327 -0.2658
  728SOL    HW1 2910   2.839   1.222   2.786  0.9085 -1.0829  0.5328
  728SOL    HW2 2911   2.821   1.183   2.944 -1.6061 -0.9464  0.7326
  728SOL     MW 2912   2.840   1.164   2.859  0.1693  0.0508 -0.0287
  729SOL     OW 2913   2.448   1.466   1.166 -0.6241 -0.2064 -0.0345
  729SOL    HW1 2914   2.518   1.440   1.227 -2.3731  0.3637 -0.1068
  729SOL    HW2 2915   2.485   1.438   1.081  1.6311  0.3133  0.3376
  729SOL     MW 2916   2.462   1.459   1.163 -0.5573 -0.0626  0.0050
  730SOL     OW 2917   2.262   1.183   0.291 -0.8994 -0.0140  0.2987
  730SOL    HW1 2918   2.318   1.109   0.261  1.2983 -0.9325 -1.8113
  730SOL    HW2 2919   2.310   1.267   0.275 -1.1325  2.7308  1.5096
  730SOL     MW 2920   2.276   1.184   0.285 -0.6402  0.2269  0.1801
  731SOL     OW 2921   2.791   2.068   2.870  0.1112  0.1661  0.0603
  731SOL    HW1 2922   2.751   2.043   2.789 -0.3570  0.1212 -1.0002
  731SOL    HW2 2923   2.879   2.041   2.856 -2.1211 -0.9880 -0.4316
  731SOL     MW 2924   2.797   2.061   2.858 -0.2451  0.0079 -0.1445
  732SOL     OW 2925   2.235   0.931   1.336 -0.5183  0.8458 -0.5344
  732SOL    HW1 2926   2.194   0.909   1.418  0.4574  1.2118  2.2222
  732SOL    HW2 2927   2.330   0.924   1.344 -0.1162 -0.4428 -0.6183
  732SOL     MW 2928   2.242   0.927   1.348 -0.3365  0.7240 -0.1817
  733SOL     OW 2929   2.420   2.824   3.024 -0.8568 -0.0125 -0.1430
  733SOL    HW1 2930   2.343   2.885   3.020 -0.6115 -0.8007  0.0775
  733SOL    HW2 2931   2.372   2.740   3.013 -0.0539 -0.8471  2.2412
  733SOL     MW 2932   2.404   2.821   3.022 -0.7185 -0.2266  0.2007
  734SOL     OW 2933   1.510   0.286   2.538  0.5073 -0.3668 -0.1728
  734SOL    HW1 2934   1.459   0.244   2.609 -0.7916 -2.1554  0.2023
  734SOL    HW2 2935   1.556   0.215   2.488  1.4394 -0.7211  0.5174
  734SOL     MW 2936   1.510   0.271   2.541  0.4589 -0.6495 -0.0323
  735SOL     OW 2937   2.937   0.906   2.642 -0.1256  0.5922  0.6519
  735SOL    HW1 2938   2.925   0.808   2.652  3.8588  0.4006  0.3604
  735SOL    HW2 2939   2.981   0.925   2.726 -0.8704 -1.1256  0.9637
  735SOL     MW 2940   2.942   0.895   2.654  0.3018  0.3403  0.6546
  736SOL     OW 2941   0.080   0.633   2.573 -0.0299 -0.0204  0.2432
  736SOL    HW1 2942   0.105   0.711   2.517 -0.4115  0.6239 -0.4100
  736SOL    HW2 2943   0.084   0.563   2.512 -1.4637  0.9763  1.6574
  736SOL     MW 2944   0.084   0.634   2.558 -0.2694  0.1961  0.3436
  737SOL     OW 2945   2.921   0.644   2.645 -0.0004  0.5690 -0.1713
  737SOL    HW1 2946   2.872   0.600   2.576  0.8734 -1.8342 -1.1579
  737SOL    HW2 2947   3.013   0.628   2.630 -0.6280  0.8987  0.4500
  737SOL     MW 2948   2.927   0.636   2.634  0.0321  0.2955 -0.2195
  738SOL     OW 2949   0.210   0.596   1.918 -0.0513 -0.0846 -0.3157
  738SOL    HW1 2950   0.304   0.613   1.908  0.9213  1.2877 -0.8317
  738SOL    HW2 2951   0.185   0.537   1.846 -0.0048 -1.2463  0.7596
  738SOL     MW 2952   0.219   0.590   1.907  0.0832 -0.0568 -0.2419
  739SOL     OW 2953   2.485   1.016   2.066 -0.2368 -0.0675  0.0009
  739SOL    HW1 2954   2.411   0.993   2.008  0.0433  1.9659  2.1356
  739SOL    HW2 2955   2.556   1.033   2.010 -0.6560 -0.8021  1.3526
  739SOL     MW 2956   2.484   1.015   2.051 -0.2552  0.1039  0.4609
  740SOL     OW 2957   0.160   1.789   2.918 -0.3641  0.7645  0.1989
  740SOL    HW1 2958   0.126   1.705   2.945 -2.2956  0.5539 -1.4610
  740SOL    HW2 2959   0.254   1.794   2.947 -1.6541  1.0739 -1.2564
  740SOL     MW 2960   0.168   1.778   2.926 -0.7891  0.7775 -0.2121
  741SOL     OW 2961   2.202   1.190   2.713  0.5269 -0.2941  0.5203
  741SOL    HW1 2962   2.153   1.258   2.665 -0.1174 -3.9356 -0.8674
  741SOL    HW2 2963   2.197   1.204   2.812 -0.0004 -0.7626  0.8584
  741SOL     MW 2964   2.195   1.201   2.720  0.3723 -0.8364  0.3818
  742SOL     OW 2965   1.694   1.253   2.220  0.2548  0.0970  0.5556
  742SOL    HW1 2966   1.610   1.207   2.205 -1.1055 -0.2501  0.3407
  742SOL    HW2 2967   1.693   1.261   2.316  2.7126 -1.0273  1.0462
  742SOL     MW 2968   1.683   1.248   2.231  0.3996 -0.0972  0.5920
  743SOL     OW 2969   2.492   1.258   2.724  0.2031  0.4206 -0.3149
  743SOL    HW1 2970   2.413   1.232   2.686  2.9784 -2.6759 -0.9049
  743SOL    HW2 2971   2.488   1.193   2.793 -1.2085 -2.3817  1.0446
  743SOL     MW 2972   2.481   1.246   2.728  0.3830 -0.3577 -0.2134
  744SOL     OW 2973   2.782   0.924   1.847  0.4665 -0.0675 -0.3653
  744SOL    HW1 2974   2.711   0.982   1.851  0.5890  0.2746 -0.2353
  744SOL    HW2 2975   2.766   0.909   1.753  1.0264  3.4924 -0.8389
  744SOL     MW 2976   2.771   0.930   1.835  0.5565  0.4473 -0.4107
  745SOL     OW 2977   1.742   0.441   2.493 -0.2816  0.3854 -0.8016
  745SOL    HW1 2978   1.714   0.482   2.409 -2.5440  2.2416  1.3700
  745SOL    HW2 2979   1.663   0.393   2.523  0.8682  0.9317  1.8799
  745SOL     MW 2980   1.728   0.440   2.486 -0.4284  0.7024 -0.1613
  746SOL     OW 2981   1.609   1.467   1.651 -0.0504 -0.1060  0.0550
  746SOL    HW1 2982   1.703   1.438   1.650 -2.8656 -3.2507  0.6382
  746SOL    HW2 2983   1.578   1.428   1.732 -0.5941 -1.0548  0.6413
  746SOL     MW 2984   1.617   1.458   1.661 -0.4936 -0.6461  0.2093
  747SOL     OW 2985   2.578   1.132   1.804 -0.0465 -0.4798 -0.0323
  747SOL    HW1 2986   2.502   1.104   1.747 -0.6841 -1.4613 -1.2490
  747SOL    HW2 2987   2.555   1.213   1.849  0.9485  1.0269 -1.2779
  747SOL     MW 2988   2.565   1.139   1.802  0.0006 -0.4105 -0.3572
  748SOL     OW 2989   0.091  -0.001   1.910 -0.0777 -0.0147  0.4081
  748SOL    HW1 2990   0.157   0.062   1.887 -1.5051 -0.7563 -1.2728
  748SOL    HW2 2991   0.069   0.016   1.999  1.5189  0.2769  3.9945
  748SOL     MW 2992   0.097   0.010   1.918 -0.0554 -0.0741  0.6595
  749SOL     OW 2993   2.487   0.605   2.728 -0.1191 -0.2787  0.3210
  749SOL    HW1 2994   2.508   0.680   2.669 -0.7296  0.0468 -0.7929
  749SOL    HW2 2995   2.487   0.656   2.814 -2.7019 -1.4632  0.2149
  749SOL     MW 2996   2.490   0.622   2.732 -0.5404 -0.3921  0.1600
  750SOL     OW 2997   2.059   3.048   1.964 -0.2191  0.6795 -0.0332
  750SOL    HW1 2998   2.111   3.126   1.970  0.6102 -0.0832  0.9690
  750SOL    HW2 2999   2.132   2.985   1.968  0.4154  0.1160 -2.0520
  750SOL     MW 3000   2.076   3.050   1.965 -0.0260  0.5045 -0.1674
  751SOL     OW 3001   0.071   0.400   2.370  0.5136 -0.2737  0.2606
  751SOL    HW1 3002   0.076   0.313   2.416  2.1283  1.0992  0.8814
  751SOL    HW2 3003   0.152   0.408   2.318  1.7495  1.9654 -1.3850
  751SOL     MW 3004   0.082   0.389   2.369  0.8897  0.2029  0.1254
  752SOL     OW 3005   2.132   0.750   2.715  0.0683  0.0983 -0.0539
  752SOL    HW1 3006   2.191   0.822   2.687  0.7604  0.4329 -1.7774
  752SOL    HW2 3007   2.125   0.767   2.809 -0.4248  0.6619 -0.3546
  752SOL     MW 3008   2.139   0.762   2.724  0.0946  0.2168 -0.3210
  753SOL     OW 3009   2.910   0.225   2.455 -0.0901 -0.0423  0.1899
  753SOL    HW1 3010   2.872   0.156   2.399  0.6249 -1.7900 -3.4996
  753SOL    HW2 3011   2.890   0.311   2.437  1.2862 -1.8771  0.7096
  753SOL     MW 3012   2.902   0.227   2.445  0.1858 -0.5150 -0.2283
  754SOL     OW 3013   2.258   2.970   2.577 -0.7859 -0.1641 -0.1928
  754SOL    HW1 3014   2.274   2.936   2.490  0.3181  0.1478 -1.7959
  754SOL    HW2 3015   2.331   2.916   2.615  0.7499 -2.8900 -1.3733
  754SOL     MW 3016   2.269   2.958   2.571 -0.4376 -0.4826 -0.5601
  755SOL     OW 3017   2.749   1.508   2.464 -0.1291  0.4221  0.6051
  755SOL    HW1 3018   2.762   1.418   2.512  2.3241 -3.1192 -2.4953
  755SOL    HW2 3019   2.790   1.572   2.525 -1.4151 -0.2344 -0.5536
  755SOL     MW 3020   2.756   1.504   2.478  0.0249 -0.1317  0.0432
  756SOL     OW 3021   2.188   1.196   2.980 -0.4071 -0.2869 -0.7348
  756SOL    HW1 3022   2.261   1.267   2.977 -0.3503 -1.1166  3.3649
  756SOL    HW2 3023   2.234   1.115   2.997  0.9642  1.0598 -0.0492
  756SOL     MW 3024   2.203   1.195   2.981 -0.2187 -0.2187 -0.1035
  757SOL     OW 3025   2.093   0.911   1.603  0.0911 -0.2844  0.5926
  757SOL    HW1 3026   2.119   0.821   1.624  0.5798 -0.3727 -1.1961
  757SOL    HW2 3027   2.003   0.901   1.557  1.2154  0.0012 -0.5633
  757SOL     MW 3028   2.085   0.898   1.600  0.3039 -0.2584  0.2041
  758SOL     OW 3029   2.225   1.778   2.629 -0.5069 -0.0430 -0.9698
  758SOL    HW1 3030   2.214   1.814   2.540  3.3116  0.7226  0.8476
  758SOL    HW2 3031   2.327   1.752   2.654  2.9864 -1.5169  0.8185
  758SOL     MW 3032   2.237   1.779   2.621  0.4578 -0.1364 -0.4941
  759SOL     OW 3033   1.563   1.354   2.660 -0.6416  0.1556 -0.2045
  759SOL    HW1 3034   1.542   1.434   2.611 -0.0937  0.0850  0.5926
  759SOL    HW2 3035   1.615   1.380   2.737 -0.6322 -0.1587  2.1918
  759SOL     MW 3036   1.567   1.368   2.664 -0.5681  0.1048  0.2169
  760SOL     OW 3037   2.585   2.009   2.704 -0.4130  0.0226  0.0555
  760SOL    HW1 3038   2.538   1.928   2.692 -2.0678  1.1968 -1.1403
  760SOL    HW2 3039   2.542   2.069   2.640  1.8110 -1.9724 -0.0391
  760SOL     MW 3040   2.573   2.006   2.694 -0.3379 -0.0857 -0.1148
  761SOL     OW 3041   2.183   0.365   2.425  0.0763 -0.2307 -0.0775
  761SOL    HW1 3042   2.105   0.323   2.453 -1.1470  0.8278  0.7681
  761SOL    HW2 3043   2.213   0.422   2.498  0.2317 -1.4630 -1.2209
  761SOL     MW 3044   2.177   0.367   2.439 -0.0646 -0.2537 -0.1168
  762SOL     OW 3045   0.066   0.194   2.136 -0.7338  0.0633 -0.3514
  762SOL    HW1 3046   0.027   0.134   2.196 -0.6497 -0.1560  1.2710
  762SOL    HW2 3047   0.021   0.281   2.142  0.0817  0.8815  1.2371
  762SOL     MW 3048   0.055   0.198   2.145 -0.6151  0.1423  0.0722
  763SOL     OW 3049   2.350   1.020   2.354 -0.2920  0.2996 -0.0782
  763SOL    HW1 3050   2.407   0.948   2.319  3.2190 -0.3573  0.9058
  763SOL    HW2 3051   2.405   1.103   2.362 -2.5371 -0.6422 -0.5465
  763SOL     MW 3052   2.365   1.021   2.351 -0.1250  0.0886 -0.0102
  764SOL     OW 3053   0.474   0.231   2.808  0.7118 -0.5465  0.1406
  764SOL    HW1 3054   0.389   0.201   2.788  1.0685  3.2450 -0.9996
  764SOL    HW2 3055   0.459   0.317   2.857 -1.5706 -0.1235  1.7210
  764SOL     MW 3056   0.461   0.238   2.812  0.4577  0.0095  0.1987
  765SOL     OW 3057   2.769   0.024   2.347 -0.1516 -0.6017  0.1635
  765SOL    HW1 3058   2.721   0.044   2.260 -1.8829  1.0141  2.2334
  765SOL    HW2 3059   2.788  -0.071   2.341 -0.6789 -1.4282  2.0322
  765SOL     MW 3060   2.765   0.014   2.335 -0.4496 -0.4976  0.6831
  766SOL     OW 3061   1.859   2.981   2.153  0.1499 -0.2280  0.4751
  766SOL    HW1 3062   1.911   3.014   2.087 -0.7518 -2.2632  1.0617
  766SOL    HW2 3063   1.794   2.924   2.110  0.0115  0.2313 -1.3887
  766SOL     MW 3064   1.857   2.978   2.138  0.0127 -0.4360  0.3066
  767SOL     OW 3065   2.637   0.570   1.982  0.7667 -0.5493  0.4434
  767SOL    HW1 3066   2.654   0.645   2.038  1.8699 -0.0133  1.2047
  767SOL    HW2 3067   2.540   0.567   1.989 -0.0143 -1.3601  4.0079
  767SOL     MW 3068   2.626   0.580   1.991  0.8092 -0.5856  1.0141
  768SOL     OW 3069   3.094   1.544   2.953 -0.2196  0.0693  0.4393
  768SOL    HW1 3070   3.117   1.514   3.044 -0.8655  0.6121  1.7789
  768SOL    HW2 3071   3.117   1.471   2.895 -0.3507  5.3139  2.0997
  768SOL     MW 3072   3.100   1.531   2.958 -0.3221  0.8329  0.8351
  769SOL     OW 3073   2.443   0.679   2.340 -0.8840 -0.1932 -0.6113
  769SOL    HW1 3074   2.346   0.661   2.328 -1.2763  0.5252 -0.8211
  769SOL    HW2 3075   2.493   0.621   2.283  2.7704  2.0465 -1.8407
  769SOL     MW 3076   2.437   0.669   2.331 -0.4536  0.1971 -0.8012
  770SOL     OW 3077   0.087   1.604   2.607 -0.5352 -0.2203 -0.1422
  770SOL    HW1 3078  -0.009   1.600   2.635  0.9475 -0.3483  0.9303
  770SOL    HW2 3079   0.120   1.512   2.602  1.2385 -1.3062 -0.6239
  770SOL     MW 3080   0.079   1.592   2.610 -0.1055 -0.3804 -0.0643
  771SOL     OW 3081   3.053   0.671   2.021  0.1167  0.0910  0.1426
  771SOL    HW1 3082   2.996   0.683   1.944 -2.3097  1.6897 -0.6004
  771SOL    HW2 3083   3.137   0.651   1.976 -2.0244  2.1706  1.2605
  771SOL     MW 3084   3.057   0.670   2.005 -0.4859  0.5763  0.1921
  772SOL     OW 3085   3.098   0.016   2.323 -0.2333  0.1604  0.0950
  772SOL    HW1 3086   3.019  -0.035   2.338 -0.0631 -2.4035 -2.0043
  772SOL    HW2 3087   3.165  -0.056   2.296 -1.2860 -2.4806  1.6296
  772SOL     MW 3088   3.096  -0.000   2.322 -0.3497 -0.5263  0.0205
  773SOL     OW 3089   2.446   2.832   2.733 -0.2718  0.0349  0.7066
  773SOL    HW1 3090   2.458   2.743   2.709  0.1994  1.8178 -1.8606
  773SOL    HW2 3091   2.416   2.840   2.825  0.3647 -0.8870 -0.3456
  773SOL     MW 3092   2.443   2.822   2.742 -0.1256  0.1485  0.2290
  774SOL     OW 3093   2.296   1.087   1.751 -0.0117 -0.4623  0.1335
  774SOL    HW1 3094   2.306   1.162   1.693 -0.5023 -0.1226 -0.8498
  774SOL    HW2 3095   2.235   1.024   1.710 -1.6710 -4.5805  0.0591
  774SOL     MW 3096   2.289   1.089   1.738 -0.2953 -0.9608 -0.0061
  775SOL     OW 3097   2.261   2.878   2.333  0.1035 -0.2865 -0.2764
  775SOL    HW1 3098   2.294   2.960   2.294  1.2592 -0.1500  1.1819
  775SOL    HW2 3099   2.318   2.801   2.302 -0.5207  0.5791  1.4369
  775SOL     MW 3100   2.273   2.878   2.324  0.1736 -0.1543  0.1421
  776SOL     OW 3101   0.108   1.479   0.099  0.3789  0.1229 -0.2725
  776SOL    HW1 3102   0.197   1.446   0.080 -4.0050  2.0674  2.0746
  776SOL    HW2 3103   0.044   1.406   0.123 -0.4319  0.7706 -1.8119
  776SOL     MW 3104   0.112   1.465   0.099 -0.3065  0.4649 -0.1659
  777SOL     OW 3105   2.930   1.150   1.776  0.1291  0.5411  0.0595
  777SOL    HW1 3106   2.887   1.168   1.691 -0.5523 -1.0286 -1.5868
  777SOL    HW2 3107   2.876   1.085   1.828  0.5470  1.3674  0.7465
  777SOL     MW 3108   2.917   1.143   1.771  0.0944  0.4430 -0.0671
  778SOL     OW 3109   2.881   0.434   2.826  0.2911  0.5464 -0.1445
  778SOL    HW1 3110   2.817   0.470   2.898 -1.4412  0.3065 -0.3235
  778SOL    HW2 3111   2.906   0.510   2.769 -2.2603  2.1865 -1.5510
  778SOL     MW 3112   2.876   0.449   2.828 -0.2741  0.7311 -0.3537
  779SOL     OW 3113   2.170   0.616   2.342  0.6492 -0.2687  0.6811
  779SOL    HW1 3114   2.117   0.654   2.404 -4.8361 -1.2398 -0.6962
  779SOL    HW2 3115   2.183   0.521   2.362  1.4949 -0.0926 -3.2280
  779SOL     MW 3116   2.165   0.609   2.353  0.0371 -0.3736 -0.0164
  780SOL     OW 3117   0.225   0.092   2.752 -0.0802  0.1500  0.6380
  780SOL    HW1 3118   0.164   0.124   2.818  0.1016 -1.9752 -0.5478
  780SOL    HW2 3119   0.191   0.130   2.670 -0.0325 -0.0154 -0.8713
  780SOL     MW 3120   0.212   0.101   2.750 -0.0499 -0.1522  0.2824
  781SOL     OW 3121   3.059   1.288   2.509  0.2382 -0.0435  0.0814
  781SOL    HW1 3122   3.031   1.348   2.437  0.3197  0.4479 -0.2250
  781SOL    HW2 3123   3.104   1.214   2.471  0.6110 -0.7489 -1.5468
  781SOL     MW 3124   3.061   1.286   2.494  0.2981 -0.0717 -0.1739
  782SOL     OW 3125   0.532   1.513   3.000 -0.1217  0.6076 -0.6824
  782SOL    HW1 3126   0.481   1.597   2.997 -0.2301  0.4129  1.5880
  782SOL    HW2 3127   0.546   1.507   3.089 -2.9797 -0.0767 -1.4964
  782SOL     MW 3128   0.527   1.523   3.011 -0.5131  0.4917 -0.4902
  783SOL     OW 3129   2.782   0.493   2.471  0.1700 -0.3090  0.5440
  783SOL    HW1 3130   2.728   0.476   2.390  0.7289  1.8356  1.0032
  783SOL    HW2 3131   2.746   0.442   2.545 -0.9432 -0.5103 -0.1442
  783SOL     MW 3132   2.770   0.484   2.470  0.0968 -0.0526  0.5138
  784SOL     OW 3133   0.241   0.929   2.904 -0.7309 -0.3325  0.4402
  784SOL    HW1 3134   0.198   1.009   2.945 -4.3888  1.3546  0.9011
  784SOL    HW2 3135   0.259   0.961   2.810 -1.7795 -0.0369 -1.1989
  784SOL     MW 3136   0.238   0.943   2.897 -1.3518 -0.0709  0.2848
  785SOL     OW 3137   0.449   0.521   2.177  0.0631  0.1665 -0.3903
  785SOL    HW1 3138   0.435   0.549   2.085 -0.7459  0.1358  1.3651
  785SOL    HW2 3139   0.370   0.461   2.188 -1.2700  2.3362  4.6103
  785SOL     MW 3140   0.437   0.517   2.166 -0.2195  0.4488  0.5011
  786SOL     OW 3141   1.968   0.479   2.810 -0.6155 -0.3651  0.4828
  786SOL    HW1 3142   2.003   0.468   2.902  0.8996 -0.2385  3.1294
  786SOL    HW2 3143   2.055   0.455   2.766  2.4057  1.1829  0.9787
  786SOL     MW 3144   1.984   0.474   2.816 -0.0170 -0.1441  0.8974
  787SOL     OW 3145   2.453   0.119   2.925 -0.0020 -0.1396 -0.6094
  787SOL    HW1 3146   2.519   0.070   2.869 -1.4293 -1.0849 -1.7112
  787SOL    HW2 3147   2.508   0.180   2.981  4.5109 -0.2757 -0.0359
  787SOL     MW 3148   2.469   0.120   2.925  0.4051 -0.2823 -0.6791
  788SOL     OW 3149   2.865   2.866   2.348  0.9660 -0.3074 -0.0396
  788SOL    HW1 3150   2.856   2.800   2.274 -1.8705 -0.7013 -1.1623
  788SOL    HW2 3151   2.942   2.832   2.400 -2.0928  0.4516 -0.5447
  788SOL     MW 3152   2.874   2.852   2.345  0.1882 -0.2592 -0.2544
  789SOL     OW 3153   0.092   0.242   2.940 -0.0017 -0.4480 -0.1770
  789SOL    HW1 3154   0.007   0.214   2.957  0.9162  0.2563  0.9343
  789SOL    HW2 3155   0.075   0.333   2.938 -0.4000 -1.1304 -0.6145
  789SOL     MW 3156   0.078   0.251   2.942  0.0669 -0.4451 -0.0881
  790SOL     OW 3157   3.105   1.020   2.432  0.7406  0.2081  0.0492
  790SOL    HW1 3158   3.052   0.977   2.506  1.8997 -1.9981  3.2385
  790SOL    HW2 3159   3.034   1.029   2.372 -0.8148 -0.0312 -0.6021
  790SOL     MW 3160   3.088   1.016   2.434  0.6884 -0.1146  0.3841
  791SOL     OW 3161   2.661   0.372   2.672  0.1831  0.6950  0.0237
  791SOL    HW1 3162   2.594   0.438   2.697  0.1373  1.3580 -3.3708
  791SOL    HW2 3163   2.744   0.383   2.721 -0.5908  0.3814 -1.0523
  791SOL     MW 3164   2.663   0.382   2.682  0.0750  0.7411 -0.5661
  792SOL     OW 3165   2.444   0.223   2.360 -0.1514  0.2180 -0.3298
  792SOL    HW1 3166   2.362   0.241   2.405 -0.4674  1.8910  1.0106
  792SOL    HW2 3167   2.506   0.181   2.425  3.0200  1.8199  0.8323
  792SOL     MW 3168   2.441   0.220   2.374  0.2253  0.6501  0.0004
  793SOL     OW 3169   1.791   1.030   1.942 -0.5106 -0.1567 -1.2025
  793SOL    HW1 3170   1.744   1.048   1.863  0.0576 -1.6737  0.9327
  793SOL    HW2 3171   1.876   0.987   1.912  1.6811 -2.4229 -0.3230
  793SOL     MW 3172   1.796   1.026   1.928 -0.1465 -0.6559 -0.8047
  794SOL     OW 3173   1.461   2.245   0.116 -0.5703 -0.2991 -0.3914
  794SOL    HW1 3174   1.460   2.319   0.048 -1.0826  1.2979  0.0370
  794SOL    HW2 3175   1.506   2.283   0.195 -0.2730  1.4922  0.2318
  794SOL     MW 3176   1.467   2.260   0.117 -0.5986  0.1480 -0.2527
  795SOL     OW 3177   2.275   0.961   2.605 -0.5482 -0.0649 -0.1192
  795SOL    HW1 3178   2.237   1.039   2.651 -0.5455  0.8079  1.8256
  795SOL    HW2 3179   2.272   0.968   2.507 -1.1738  1.4318  0.9349
  795SOL     MW 3180   2.270   0.973   2.598 -0.6303  0.2478  0.2764
  796SOL     OW 3181   0.292   0.668   2.756  1.0087  0.5353 -0.2020
  796SOL    HW1 3182   0.278   0.751   2.801 -0.0768 -0.5736 -0.3618
  796SOL    HW2 3183   0.203   0.661   2.713  1.3831  0.4638  1.5671
  796SOL     MW 3184   0.279   0.678   2.756  0.9149  0.3795  0.0103
  797SOL     OW 3185   2.601   0.140   2.561  0.2414  0.6130 -0.5928
  797SOL    HW1 3186   2.626   0.229   2.589 -0.5581 -4.2027 -0.7854
  797SOL    HW2 3187   2.670   0.103   2.509 -2.1233 -0.0368  1.2473
  797SOL     MW 3188   2.613   0.147   2.558 -0.1761 -0.1081 -0.3754
  798SOL     OW 3189   2.347   0.028   2.202 -0.0037  0.3752  0.3198
  798SOL    HW1 3190   2.372   0.106   2.248 -1.7147 -4.6666  0.5389
  798SOL    HW2 3191   2.432   0.016   2.161  1.1948 -0.2560  1.5648
  798SOL     MW 3192   2.362   0.037   2.203 -0.0713 -0.3733  0.5130
  799SOL     OW 3193   2.451   2.955   0.187 -0.3148  0.0467  0.1520
  799SOL    HW1 3194   2.451   2.872   0.134  1.2399  0.3472 -0.5226
  799SOL    HW2 3195   2.358   2.982   0.203  0.2491  0.6111  0.8196
  799SOL     MW 3196   2.438   2.947   0.182 -0.0353  0.1608  0.1511
  800SOL     OW 3197   1.848   3.045   1.776  0.1911  0.2448 -0.3592
  800SOL    HW1 3198   1.799   2.958   1.769 -1.0837  0.9246  3.0009
  800SOL    HW2 3199   1.925   3.034   1.834 -0.5266 -1.1495  0.7387
  800SOL     MW 3200   1.852   3.032   1.783 -0.0718  0.1505  0.2290
  801SOL     OW 3201   2.813   1.298   2.617 -0.2686  0.0511 -0.1651
  801SOL    HW1 3202   2.780   1.209   2.600  1.3393  0.3882  0.5007
  801SOL    HW2 3203   2.912   1.288   2.601 -0.9331  0.8309  2.5034
  801SOL     MW 3204   2.822   1.285   2.613 -0.1441  0.1985  0.2748
  802SOL     OW 3205   2.546   1.507   2.816 -0.2383 -0.2090  0.2800
  802SOL    HW1 3206   2.563   1.418   2.774  0.9278 -0.6728  0.1116
  802SOL    HW2 3207   2.627   1.533   2.847 -2.0919 -2.7904 -0.9971
  802SOL     MW 3208   2.559   1.499   2.815 -0.3290 -0.6108  0.0893
  803SOL     OW 3209   2.317   1.272   1.940 -0.3992 -0.0454 -0.1138
  803SOL    HW1 3210   2.309   1.233   2.026 -0.8471  0.4532  0.6281
  803SOL    HW2 3211   2.299   1.200   1.882 -0.8946  1.4504  0.7440
  803SOL     MW 3212   2.314   1.257   1.943 -0.5237  0.2177  0.0972
  804SOL     OW 3213   2.286   0.064   0.055  0.3758 -0.4180 -0.0999
  804SOL    HW1 3214   2.214   0.122   0.075  1.6144  0.2322 -1.8800
  804SOL    HW2 3215   2.339   0.091  -0.022 -0.8948  1.0919 -0.3960
  804SOL     MW 3216   2.284   0.075   0.047  0.3716 -0.1330 -0.3739
  805SOL     OW 3217   2.689   1.036   2.585  1.0993  0.5702  0.7398
  805SOL    HW1 3218   2.625   0.961   2.578  1.4403  0.9352 -0.0846
  805SOL    HW2 3219   2.776   0.997   2.593 -1.1278  1.1690  1.7910
  805SOL     MW 3220   2.692   1.021   2.585  0.8504  0.6974  0.7697
  806SOL     OW 3221   2.616   0.427   2.272  0.1123 -0.3918  0.1937
  806SOL    HW1 3222   2.556   0.357   2.311  1.0972  1.2827  0.7837
  806SOL    HW2 3223   2.630   0.404   2.184  2.0026  0.1483  1.4912
  806SOL     MW 3224   2.610   0.415   2.266  0.4917 -0.0996  0.4427
  807SOL     OW 3225   3.089   1.098   2.117 -0.5995  0.5811  0.2784
  807SOL    HW1 3226   3.136   1.017   2.103 -0.4848  0.8276  1.0061
  807SOL    HW2 3227   3.005   1.071   2.147  2.2867 -3.2847 -0.6836
  807SOL     MW 3228   3.084   1.084   2.119 -0.2036  0.1036  0.2475
  808SOL     OW 3229   2.623   3.072   2.760  0.2876 -0.9110  0.2834
  808SOL    HW1 3230   2.577   2.991   2.750  0.3109  1.2415  1.4374
  808SOL    HW2 3231   2.612   3.124   2.675 -0.5592 -0.3818  2.6722
  808SOL     MW 3232   2.616   3.068   2.748  0.1790 -0.5572  0.7508
  809SOL     OW 3233   2.540   1.232   2.394 -0.5720 -0.1957 -0.1281
  809SOL    HW1 3234   2.584   1.193   2.465  1.6983 -0.8293  0.7879
  809SOL    HW2 3235   2.595   1.227   2.312 -1.4525  1.4817  0.0882
  809SOL     MW 3236   2.553   1.226   2.393 -0.3886 -0.0580  0.0213
  810SOL     OW 3237   2.189   1.200   2.205 -0.0029 -1.0595  0.2132
  810SOL    HW1 3238   2.230   1.132   2.256  1.0308 -0.7948 -1.2838
  810SOL    HW2 3239   2.101   1.173   2.187  2.0497  2.5125  0.2204
  810SOL     MW 3240   2.183   1.187   2.209  0.4043 -0.5533  0.0166
  811SOL     OW 3241   1.545   0.094   2.282 -0.4915  0.7262 -0.1950
  811SOL    HW1 3242   1.617   0.038   2.324  3.0344 -2.0550  3.8087
  811SOL    HW2 3243   1.564   0.094   2.192 -0.7011  0.4716 -0.2761
  811SOL     MW 3244   1.557   0.086   2.276 -0.0540  0.3256  0.3225
  812SOL     OW 3245   1.432   2.793   2.040  0.0980 -0.0814  0.2487
  812SOL    HW1 3246   1.526   2.789   2.067 -1.3852 -1.9820  0.4184
  812SOL    HW2 3247   1.390   2.792   2.126 -3.2206 -1.3151 -0.8347
  812SOL     MW 3248   1.439   2.792   2.055 -0.5355 -0.4949  0.1281
  813SOL     OW 3249   1.827   0.748   2.200  0.3689 -0.0709 -0.3765
  813SOL    HW1 3250   1.783   0.660   2.210  0.0808  1.2997  1.2347
  813SOL    HW2 3251   1.863   0.764   2.289  1.9219  3.4679 -1.1357
  813SOL     MW 3252   1.826   0.738   2.213  0.5358  0.5768 -0.2641
  814SOL     OW 3253   2.745   1.253   1.592 -0.1854  0.0584 -0.5354
  814SOL    HW1 3254   2.674   1.233   1.649  0.7332  0.2373 -0.3270
  814SOL    HW2 3255   2.747   1.197   1.515 -2.0155 -0.8247 -0.3133
  814SOL     MW 3256   2.735   1.243   1.589 -0.3057 -0.0345 -0.4786
  815SOL     OW 3257   2.487   1.664   2.404 -0.0930  0.4421 -0.1185
  815SOL    HW1 3258   2.439   1.599   2.360  1.1888 -1.1799 -0.8353
  815SOL    HW2 3259   2.579   1.630   2.411 -0.4193 -0.7861  0.9639
  815SOL     MW 3260   2.493   1.651   2.399  0.0331  0.0660 -0.0703
  816SOL     OW 3261   0.734   0.648   2.731 -0.5339 -0.3857  0.2286
  816SOL    HW1 3262   0.757   0.602   2.811 -1.9734 -0.6294 -1.3690
  816SOL    HW2 3263   0.640   0.642   2.711 -3.3025 -1.7299  1.7193
  816SOL     MW 3264   0.725   0.641   2.739 -1.0891 -0.5952  0.2145
  817SOL     OW 3265   3.042   1.131   1.387 -0.1574 -0.4861  0.4774
  817SOL    HW1 3266   3.106   1.141   1.454 -1.0046 -0.2166 -1.6090
  817SOL    HW2 3267   3.046   1.217   1.345 -1.0407 -2.8713  1.3756
  817SOL     MW 3268   3.051   1.143   1.390 -0.3857 -0.7652  0.3206
  818SOL     OW 3269   1.904   1.028   2.720  0.2323 -0.2217  0.1631
  818SOL    HW1 3270   1.946   1.042   2.636  1.5051 -3.8488  0.2625
  818SOL    HW2 3271   1.982   1.006   2.775  1.3812  0.4727  0.9219
  818SOL     MW 3272   1.920   1.027   2.716  0.5518 -0.6086  0.2763
  819SOL     OW 3273   1.881   0.197   2.415 -0.7462  0.6418  0.0645
  819SOL    HW1 3274   1.823   0.269   2.432 -1.9251 -1.1985 -2.6585
  819SOL    HW2 3275   1.931   0.180   2.503 -0.1977 -0.6491  0.5295
  819SOL     MW 3276   1.880   0.204   2.429 -0.8294  0.2286 -0.2334
  820SOL     OW 3277   2.492   1.734   2.666  0.3855  0.0147  0.0534
  820SOL    HW1 3278   2.507   1.659   2.726  2.7701 -2.3089  0.2002
  820SOL    HW2 3279   2.513   1.703   2.580 -2.4013 -2.1789  2.8318
  820SOL     MW 3280   2.497   1.720   2.662  0.3324 -0.5813  0.4394
  821SOL     OW 3281   2.587   1.361   1.957  0.2495  0.2068  0.7561
  821SOL    HW1 3282   2.620   1.450   1.931 -2.2541  0.6543  1.6203
  821SOL    HW2 3283   2.491   1.369   1.964  0.3813 -0.7910  1.0204
  821SOL     MW 3284   2.579   1.374   1.954 -0.0635  0.1342  0.9050
  822SOL     OW 3285   2.851   2.702   1.446  0.0979 -0.1620 -0.1382
  822SOL    HW1 3286   2.918   2.762   1.484 -0.5896 -0.1098 -2.1475
  822SOL    HW2 3287   2.788   2.759   1.402  0.1199 -1.2152  0.1953
  822SOL     MW 3288   2.851   2.717   1.445  0.0101 -0.2941 -0.3593
  823SOL     OW 3289   2.284   0.475   1.768  0.0413  0.4483  0.2772
  823SOL    HW1 3290   2.358   0.448   1.708  2.0438 -1.3042 -1.2989
  823SOL    HW2 3291   2.209   0.414   1.743  1.2157 -0.9541  2.7998
  823SOL     MW 3292   2.284   0.463   1.757  0.4605  0.0321  0.4021
  824SOL     OW 3293   2.082   1.400   2.504  0.1495 -0.8362 -0.0759
  824SOL    HW1 3294   2.144   1.447   2.440 -0.4566  1.5297 -2.3620
  824SOL    HW2 3295   2.069   1.481   2.557  0.7914 -0.2485 -1.6656
  824SOL     MW 3296   2.088   1.417   2.502  0.1542 -0.4465 -0.5872
  825SOL     OW 3297   2.134   2.518   0.387  0.4113 -0.5964  0.1372
  825SOL    HW1 3298   2.122   2.459   0.310  4.0972 -0.7280  1.5451
  825SOL    HW2 3299   2.205   2.483   0.434  0.5394 -2.0410  0.4773
  825SOL     MW 3300   2.142   2.506   0.383  0.9145 -0.8044  0.3679
  826SOL     OW 3301   1.788   2.379   0.470 -0.1411 -0.1647 -0.0734
  826SOL    HW1 3302   1.768   2.329   0.548 -1.7232  2.0382 -0.9371
  826SOL    HW2 3303   1.840   2.448   0.496 -1.7530 -1.3587  1.4803
  826SOL     MW 3304   1.792   2.381   0.484 -0.5625 -0.0316  0.0176
  827SOL     OW 3305   1.939   2.235   0.887 -0.2349  0.6325  0.3537
  827SOL    HW1 3306   1.873   2.217   0.821 -1.4885  1.8326  3.0677
  827SOL    HW2 3307   1.926   2.173   0.956 -0.6702 -0.1903 -2.6289
  827SOL     MW 3308   1.929   2.225   0.887 -0.4577  0.6823  0.3183
  828SOL     OW 3309   0.093   2.605   0.532 -0.1219  0.4127  0.5160
  828SOL    HW1 3310   0.188   2.627   0.537  2.0220 -0.4247 -1.9373
  828SOL    HW2 3311   0.053   2.664   0.472 -1.1190  2.3330  1.1162
  828SOL     MW 3312   0.100   2.616   0.525  0.0294  0.5555  0.2715
  829SOL     OW 3313   3.011   2.889   1.203  0.3154 -0.1064 -0.2325
  829SOL    HW1 3314   2.944   2.878   1.142 -1.4336 -0.5797  0.0128
  829SOL    HW2 3315   3.064   2.809   1.197  0.9990  1.8761 -1.9886
  829SOL     MW 3316   3.009   2.877   1.194  0.1748  0.0927 -0.4318
  830SOL     OW 3317   2.545   2.805   2.018  0.5693 -0.2246 -0.3927
  830SOL    HW1 3318   2.449   2.834   2.006 -2.3032  0.4192  1.1206
  830SOL    HW2 3319   2.573   2.794   1.928 -2.2292  0.2670  0.7196
  830SOL     MW 3320   2.536   2.807   2.004 -0.1789 -0.0748 -0.0463
  831SOL     OW 3321   2.477   2.441   1.206  0.1927  0.3150 -0.1698
  831SOL    HW1 3322   2.439   2.371   1.255  0.3724 -0.4872  1.8783
  831SOL    HW2 3323   2.570   2.420   1.200  2.4726  2.1968  1.9582
  831SOL     MW 3324   2.484   2.429   1.212  0.5172  0.4575  0.3812
  832SOL     OW 3325   2.405   2.105   1.797  0.7308  0.2486 -0.5551
  832SOL    HW1 3326   2.413   2.198   1.838  0.8961 -0.8146  2.0070
  832SOL    HW2 3327   2.495   2.077   1.785 -1.8586 -0.2046 -0.0568
  832SOL     MW 3328   2.418   2.114   1.801  0.4110  0.0485 -0.1513
  833SOL     OW 3329   1.755   2.556   0.929 -0.6220  0.3468  0.1118
  833SOL    HW1 3330   1.689   2.500   0.942  1.0877  2.7249 -1.5244
  833SOL    HW2 3331   1.710   2.629   0.974  2.0841  0.3751  1.6639
  833SOL     MW 3332   1.740   2.558   0.937 -0.0393  0.6643  0.1007
  834SOL     OW 3333   2.287   2.337   0.615 -0.1424  0.0280  0.5317
  834SOL    HW1 3334   2.233   2.257   0.625  2.2474 -2.7247  5.0577
  834SOL    HW2 3335   2.359   2.300   0.563  3.9267 -2.1574 -0.5634
  834SOL     MW 3336   2.289   2.322   0.610  0.7098 -0.6235  0.9844
  835SOL     OW 3337   1.855   2.592   0.663 -0.2546 -0.7954 -0.5055
  835SOL    HW1 3338   1.813   2.552   0.737 -0.9549  1.1336 -0.1867
  835SOL    HW2 3339   1.928   2.639   0.703 -0.2153  2.4973 -1.6692
  835SOL     MW 3340   1.859   2.593   0.678 -0.3418 -0.1065 -0.6170
  836SOL     OW 3341   2.051   2.195   1.634 -0.2305 -0.1462  0.4981
  836SOL    HW1 3342   2.127   2.131   1.618 -1.1860 -2.0464 -1.7021
  836SOL    HW2 3343   2.089   2.278   1.664 -1.0152 -1.1589  0.0894
  836SOL     MW 3344   2.066   2.198   1.636 -0.4601 -0.5305  0.1539
  837SOL     OW 3345   2.077   0.203   0.701 -0.0186  0.3995 -0.3624
  837SOL    HW1 3346   2.001   0.218   0.654  3.7804 -0.7510 -0.3609
  837SOL    HW2 3347   2.135   0.164   0.637 -2.3511 -0.9825  2.1769
  837SOL     MW 3348   2.075   0.200   0.687  0.1749  0.0654 -0.0272
  838SOL     OW 3349   2.860   2.086   0.967 -0.0930  0.2656  0.0841
  838SOL    HW1 3350   2.795   2.018   0.983 -0.3348  1.0669 -0.9491
  838SOL    HW2 3351   2.887   2.109   1.053 -0.2040 -1.2219 -1.0436
  838SOL     MW 3352   2.855   2.080   0.980 -0.1396  0.1750 -0.2010
  839SOL     OW 3353   1.537   2.396   0.980 -0.0333  0.5051  0.3479
  839SOL    HW1 3354   1.493   2.470   1.012  0.6573 -1.2698  1.5423
  839SOL    HW2 3355   1.557   2.330   1.045 -0.7073  2.4782 -3.6689
  839SOL     MW 3356   1.534   2.397   0.993 -0.0311  0.5313 -0.0245
  840SOL     OW 3357   2.289   2.116   2.430  0.9524 -0.1921 -0.0254
  840SOL    HW1 3358   2.232   2.179   2.376 -2.7828 -1.1768  0.7861
  840SOL    HW2 3359   2.349   2.161   2.492  1.6535  1.1800  2.0909
  840SOL     MW 3360   2.290   2.130   2.431  0.5521 -0.1410  0.3609
  841SOL     OW 3361   2.267   2.392   0.051 -0.1845 -0.7992 -0.0230
  841SOL    HW1 3362   2.269   2.468  -0.001  0.5940  0.3481  0.7478
  841SOL    HW2 3363   2.204   2.333   0.007 -0.9488 -0.6532  0.7257
  841SOL     MW 3364   2.259   2.394   0.039 -0.1826 -0.6285  0.1775
  842SOL     OW 3365   2.658   1.987   1.421 -0.3679  0.1271 -0.4233
  842SOL    HW1 3366   2.610   1.903   1.410  3.6746 -1.1614  1.3763
  842SOL    HW2 3367   2.646   2.050   1.342 -0.7443  3.4778 -2.4825
  842SOL     MW 3368   2.650   1.985   1.409  0.1158  0.3992 -0.4576
  843SOL     OW 3369   2.651   2.769   1.777 -0.3915  0.3639 -0.2854
  843SOL    HW1 3370   2.742   2.739   1.786 -0.6031 -0.7024 -0.4721
  843SOL    HW2 3371   2.600   2.691   1.745  0.0972  0.5904  0.9884
  843SOL     MW 3372   2.656   2.755   1.774 -0.3550  0.2531 -0.1420
  844SOL     OW 3373   2.726   2.329   1.157  0.5857 -0.3993 -0.2911
  844SOL    HW1 3374   2.758   2.373   1.078  1.8097  0.5631 -0.9023
  844SOL    HW2 3375   2.780   2.355   1.235 -3.0921 -0.0725 -2.6302
  844SOL     MW 3376   2.737   2.339   1.157  0.2619 -0.2292 -0.6803
  845SOL     OW 3377   2.856   2.600   0.311  0.2851 -0.0240 -0.3687
  845SOL    HW1 3378   2.813   2.517   0.342  2.2262 -0.9354 -1.7650
  845SOL    HW2 3379   2.850   2.658   0.392  1.5841  3.0878  0.2590
  845SOL     MW 3380   2.850   2.597   0.326  0.7126  0.2664 -0.4701
  846SOL     OW 3381   1.500   2.793   0.858 -0.3438  0.1584 -0.1786
  846SOL    HW1 3382   1.587   2.828   0.858 -0.8829  2.0984  1.9785
  846SOL    HW2 3383   1.445   2.865   0.874 -2.6032 -1.1037 -3.0523
  846SOL     MW 3384   1.504   2.807   0.860 -0.7130  0.2478 -0.2731
  847SOL     OW 3385   2.480   1.885   0.155 -0.0945 -0.1639  0.4520
  847SOL    HW1 3386   2.469   1.803   0.209  0.7058  1.3160 -0.7991
  847SOL    HW2 3387   2.437   1.882   0.066 -1.7778  1.0261  2.5507
  847SOL     MW 3388   2.473   1.874   0.150 -0.2110  0.1884  0.5638
  848SOL     OW 3389   2.575   2.114   1.207  0.5448  0.0195  0.1934
  848SOL    HW1 3390   2.649   2.174   1.184  2.0527 -0.3585 -0.7731
  848SOL    HW2 3391   2.528   2.125   1.125  1.2985 -1.3370 -1.2690
  848SOL     MW 3392   2.578   2.123   1.193  0.8432 -0.2093 -0.1271
  849SOL     OW 3393   2.003   2.765   0.799  0.0685  0.7998 -0.3701
  849SOL    HW1 3394   1.983   2.757   0.895 -2.2250  2.0006  1.8259
  849SOL    HW2 3395   2.097   2.746   0.787 -1.9451  1.2809  0.0111
  849SOL     MW 3396   2.012   2.761   0.810 -0.4998  1.0217 -0.0300
  850SOL     OW 3397   2.314   1.798   1.634 -0.0270  0.1850 -0.3264
  850SOL    HW1 3398   2.252   1.748   1.579 -0.5045 -2.4441 -3.1745
  850SOL    HW2 3399   2.293   1.892   1.610  0.1534 -0.0373 -1.3600
  850SOL     MW 3400   2.303   1.804   1.624 -0.0662 -0.1912 -0.8385
  851SOL     OW 3401   2.371   2.356   0.323 -0.1876 -0.2977 -0.0880
  851SOL    HW1 3402   2.361   2.385   0.232  0.9435  1.6556  0.9959
  851SOL    HW2 3403   2.424   2.418   0.368 -0.9716  1.3059  1.5495
  851SOL     MW 3404   2.377   2.368   0.317 -0.1418  0.1716  0.2710
  852SOL     OW 3405   2.335   2.064   0.315  0.3196 -0.4689 -0.0262
  852SOL    HW1 3406   2.388   2.142   0.316  2.0068 -2.4443 -0.9430
  852SOL    HW2 3407   2.396   2.009   0.266 -2.4373 -0.1269 -0.4799
  852SOL     MW 3408   2.350   2.067   0.308  0.1784 -0.6844 -0.2070
  853SOL     OW 3409   2.460   2.355   1.920  0.4557 -0.1321 -0.3252
  853SOL    HW1 3410   2.468   2.421   1.851 -1.8899 -1.9484  1.5968
  853SOL    HW2 3411   2.547   2.343   1.953 -1.1422  0.7478 -0.0396
  853SOL     MW 3412   2.472   2.362   1.915 -0.0646 -0.2556 -0.0339
  854SOL     OW 3413   2.858   2.226   0.715 -0.1396 -0.4756 -0.4645
  854SOL    HW1 3414   2.780   2.191   0.670 -1.4174 -1.0844 -0.2859
  854SOL    HW2 3415   2.875   2.161   0.786  2.2895  1.4256 -0.0357
  854SOL     MW 3416   2.850   2.213   0.718  0.0123 -0.3051 -0.3844
  855SOL     OW 3417   2.739   2.366   0.385  0.1590 -0.0965  0.5850
  855SOL    HW1 3418   2.673   2.377   0.451  3.2358 -1.9120  0.9997
  855SOL    HW2 3419   2.741   2.272   0.367  0.4906  0.1334  0.1131
  855SOL     MW 3420   2.731   2.355   0.391  0.6087 -0.3057  0.5775
  856SOL     OW 3421   2.098   1.886   0.194 -0.3024  0.2310  0.0618
  856SOL    HW1 3422   2.006   1.871   0.222 -0.4146 -2.6847 -1.0349
  856SOL    HW2 3423   2.142   1.954   0.248  1.5947 -2.4574  0.9097
  856SOL     MW 3424   2.092   1.893   0.205 -0.0669 -0.5084  0.0290
  857SOL     OW 3425   2.498   1.951   0.548  0.1291 -0.3201 -0.0221
  857SOL    HW1 3426   2.425   1.965   0.487 -0.3121  1.1063 -0.6764
  857SOL    HW2 3427   2.453   1.903   0.613 -0.8400 -1.2627 -1.3503
  857SOL     MW 3428   2.482   1.946   0.549 -0.0570 -0.2562 -0.2837
  858SOL     OW 3429   2.908   2.657   1.790  0.7440 -0.0438 -0.0079
  858SOL    HW1 3430   3.001   2.674   1.797  0.4340 -1.2168  1.3144
  858SOL    HW2 3431   2.891   2.562   1.806  2.0356 -0.2078 -1.3898
  858SOL     MW 3432   2.918   2.647   1.793  0.8735 -0.2202 -0.0157
  859SOL     OW 3433   1.963   2.736   1.062 -0.7377  0.6037  0.0243
  859SOL    HW1 3434   1.937   2.644   1.045 -0.7908  1.1786  2.1541
  859SOL    HW2 3435   2.034   2.739   1.125 -0.2420 -0.5657 -2.6178
  859SOL     MW 3436   1.969   2.724   1.068 -0.6793  0.5253 -0.0433
  860SOL     OW 3437   2.625   2.659   0.155 -0.8762  0.3662 -0.5048
  860SOL    HW1 3438   2.708   2.631   0.213  1.2203 -3.3587  1.2804
  860SOL    HW2 3439   2.660   2.729   0.099 -2.1435  0.3147  1.2902
  860SOL     MW 3440   2.640   2.665   0.155 -0.7668 -0.1321 -0.0324
  861SOL     OW 3441   1.642   2.198   1.149  0.1852 -0.6324  0.4209
  861SOL    HW1 3442   1.668   2.263   1.218 -2.2279  0.7396  3.1714
  861SOL    HW2 3443   1.580   2.141   1.198  1.6521 -1.5636  2.2948
  861SOL     MW 3444   1.637   2.199   1.164  0.0603 -0.5743  1.0311
  862SOL     OW 3445   2.530   1.763   1.464  0.0570  0.3752 -0.7185
  862SOL    HW1 3446   2.468   1.810   1.519 -0.2393  0.4436 -1.5439
  862SOL    HW2 3447   2.483   1.754   1.374 -2.1517  0.0604  1.0093
  862SOL     MW 3448   2.516   1.768   1.459 -0.2735  0.3427 -0.5994
  863SOL     OW 3449   2.999   1.774   1.017  0.2931 -0.5110 -0.0429
  863SOL    HW1 3450   3.074   1.775   1.074 -0.2638  3.8749 -0.4887
  863SOL    HW2 3451   2.966   1.862   1.033 -1.0685 -0.7696  0.0076
  863SOL     MW 3452   3.005   1.786   1.027  0.0400  0.0335 -0.0951
  864SOL     OW 3453   0.043   1.845   0.803 -0.3900 -0.0637 -0.7075
  864SOL    HW1 3454  -0.016   1.796   0.858 -0.1348  3.1618 -0.5127
  864SOL    HW2 3455   0.020   1.830   0.714 -1.0718  0.4182  0.2628
  864SOL     MW 3456   0.032   1.836   0.798 -0.4463  0.4254 -0.5538
  865SOL     OW 3457   2.634   2.153   0.069  0.1777  0.0177  0.1671
  865SOL    HW1 3458   2.629   2.065   0.098  1.6532  0.7859  0.0369
  865SOL    HW2 3459   2.599   2.166  -0.019 -0.4452  0.2070  0.6652
  865SOL     MW 3460   2.629   2.143   0.062  0.2901  0.1440  0.2157
  866SOL     OW 3461   2.623   2.361   1.575  0.4346 -0.0197 -0.9600
  866SOL    HW1 3462   2.617   2.261   1.588 -0.4557 -0.9478 -0.4326
  866SOL    HW2 3463   2.686   2.378   1.510  0.9799  0.9000  0.5959
  866SOL     MW 3464   2.631   2.350   1.568  0.3891 -0.0208 -0.6851
  867SOL     OW 3465   0.076   2.688   1.758 -0.0696 -0.0781 -0.0404
  867SOL    HW1 3466   0.139   2.747   1.797 -2.5474 -0.2281  1.6933
  867SOL    HW2 3467   0.059   2.740   1.679  1.8152 -0.9515  2.6794
  867SOL     MW 3468   0.082   2.703   1.753 -0.1478 -0.2132  0.5472
  868SOL     OW 3469   2.733   2.689   0.565  0.3421 -0.2257 -0.3617
  868SOL    HW1 3470   2.671   2.621   0.568  0.2141  0.9668 -0.2454
  868SOL    HW2 3471   2.666   2.760   0.548 -3.0466 -0.0645  1.8193
  868SOL     MW 3472   2.716   2.689   0.563 -0.1219 -0.0471 -0.0586
  869SOL     OW 3473   2.091   2.423   1.001 -0.3804  0.1714 -0.0840
  869SOL    HW1 3474   2.172   2.420   0.952 -0.8670  3.0044 -0.3860
  869SOL    HW2 3475   2.032   2.372   0.947 -0.8775 -0.3315  1.5467
  869SOL     MW 3476   2.094   2.416   0.988 -0.5102  0.4789  0.0913
  870SOL     OW 3477   2.183   0.082   0.469  0.0537 -0.6567  0.1058
  870SOL    HW1 3478   2.263   0.103   0.411  2.3793  1.4968 -1.6088
  870SOL    HW2 3479   2.208  -0.007   0.492 -0.8869  1.7211  0.6825
  870SOL     MW 3480   2.197   0.073   0.464  0.2364 -0.0588 -0.0443
  871SOL     OW 3481   2.494   2.103   0.885  0.4954  0.2162 -0.1753
  871SOL    HW1 3482   2.427   2.035   0.859 -1.2513 -0.8854 -1.5064
  871SOL    HW2 3483   2.449   2.187   0.899  1.2768 -1.1367  2.0485
  871SOL     MW 3484   2.479   2.105   0.883  0.3680 -0.1076 -0.0575
  872SOL     OW 3485   2.063   2.572   1.503  0.0377  0.0406  0.0491
  872SOL    HW1 3486   1.975   2.571   1.544 -0.9708  4.0636 -0.1594
  872SOL    HW2 3487   2.059   2.518   1.427  0.4137  2.9692 -3.1420
  872SOL     MW 3488   2.051   2.565   1.498 -0.0458  0.9578 -0.3995
  873SOL     OW 3489   2.837   2.089   1.885 -0.6011 -0.8688 -0.0781
  873SOL    HW1 3490   2.791   2.147   1.948  2.0224 -1.0591 -1.7534
  873SOL    HW2 3491   2.892   2.148   1.836 -1.7663 -2.0065 -0.6908
  873SOL     MW 3492   2.838   2.104   1.887 -0.4087 -1.0440 -0.3800
  874SOL     OW 3493   2.327   1.429   2.336 -0.2672 -0.0105 -0.2211
  874SOL    HW1 3494   2.285   1.361   2.283 -0.3280 -0.3460 -0.8524
  874SOL    HW2 3495   2.389   1.382   2.392 -2.5428 -1.4491 -0.7465
  874SOL     MW 3496   2.330   1.414   2.337 -0.5755 -0.2446 -0.3737
  875SOL     OW 3497   2.361   2.336   0.975 -0.0084  0.5748 -0.1556
  875SOL    HW1 3498   2.402   2.392   0.908 -0.9210 -2.5950 -0.9105
  875SOL    HW2 3499   2.402   2.358   1.061  0.5736 -0.1946 -0.1348
  875SOL     MW 3500   2.372   2.346   0.978 -0.0520  0.0551 -0.2525
  876SOL     OW 3501   3.061   2.248   1.270 -0.0093  0.0990 -0.2572
  876SOL    HW1 3502   3.111   2.305   1.214  2.5850  0.1207  2.3078
  876SOL    HW2 3503   3.119   2.240   1.346  1.3872  0.1833 -0.0180
  876SOL     MW 3504   3.075   2.255   1.273  0.5172  0.1130  0.1128
  877SOL     OW 3505   0.017   2.794   0.321  0.7782 -0.2690  0.2200
  877SOL    HW1 3506   0.079   2.855   0.290 -0.2851  0.1371  2.0635
  877SOL    HW2 3507   0.015   2.710   0.269  0.7196 -0.7901  0.4200
  877SOL     MW 3508   0.025   2.791   0.310  0.6301 -0.2842  0.4896
  878SOL     OW 3509   2.415   1.732   1.229 -0.0782  0.1518 -0.2436
  878SOL    HW1 3510   2.322   1.721   1.250 -0.5114 -1.2919 -0.2432
  878SOL    HW2 3511   2.436   1.644   1.203 -0.5214  0.0314 -2.3184
  878SOL     MW 3512   2.406   1.719   1.229 -0.1938 -0.0546 -0.5173
  879SOL     OW 3513   2.761   2.407   0.893 -0.4616  0.3005  0.0598
  879SOL    HW1 3514   2.833   2.461   0.930  0.6556  2.4887  1.1811
  879SOL    HW2 3515   2.811   2.347   0.838  0.3586 -0.7406 -0.3556
  879SOL     MW 3516   2.777   2.406   0.890 -0.2060  0.4519  0.1530
  880SOL     OW 3517   2.562   2.196   0.649  0.2655  0.4608 -0.3776
  880SOL    HW1 3518   2.529   2.172   0.740  2.1419  0.2731  2.4229
  880SOL    HW2 3519   2.535   2.112   0.598 -1.8007 -4.1192 -2.5857
  880SOL     MW 3520   2.554   2.182   0.654  0.2405 -0.1683 -0.2994
  881SOL     OW 3521   2.989   2.753   0.686 -0.2613  0.1721 -0.0640
  881SOL    HW1 3522   2.914   2.707   0.656 -1.5566 -0.4784  1.0865
  881SOL    HW2 3523   3.062   2.698   0.645 -1.9241  0.5335 -2.3370
  881SOL     MW 3524   2.989   2.740   0.677 -0.6516  0.1340 -0.2121
  882SOL     OW 3525   2.274   2.860   1.973  0.5592 -0.4916  0.1738
  882SOL    HW1 3526   2.277   2.873   1.878  1.1572  0.4499 -1.8936
  882SOL    HW2 3527   2.216   2.782   1.981  0.4043 -0.1280 -1.0268
  882SOL     MW 3528   2.267   2.851   1.962  0.6176 -0.3194 -0.2574
  883SOL     OW 3529   2.361   2.229   1.351 -0.1765  0.8050 -0.0142
  883SOL    HW1 3530   2.444   2.185   1.312  1.9859 -1.7648 -1.1904
  883SOL    HW2 3531   2.284   2.201   1.293 -1.0778 -1.0426 -2.0571
  883SOL     MW 3532   2.362   2.219   1.339 -0.0101  0.2222 -0.4389
  884SOL     OW 3533   1.995   1.794   1.088 -0.5206  0.0638  0.2691
  884SOL    HW1 3534   1.951   1.867   1.049 -0.3170  0.0548  0.4580
  884SOL    HW2 3535   2.086   1.819   1.086 -0.8620  2.8797  1.2792
  884SOL     MW 3536   2.001   1.807   1.083 -0.5388  0.4342  0.4273
  885SOL     OW 3537   2.808   2.393   1.769 -0.1842 -0.1924 -0.1551
  885SOL    HW1 3538   2.892   2.348   1.736  0.3349  0.7372  0.0961
  885SOL    HW2 3539   2.743   2.385   1.700  0.4824  0.4737  0.3912
  885SOL     MW 3540   2.810   2.386   1.756 -0.0277  0.0181 -0.0499
  886SOL     OW 3541   2.857   2.389   1.396 -0.3496 -0.1544  0.3119
  886SOL    HW1 3542   2.942   2.352   1.376  0.4711 -1.1705 -0.9217
  886SOL    HW2 3543   2.881   2.481   1.389  2.6912 -0.9169  0.2229
  886SOL     MW 3544   2.871   2.396   1.392  0.1599 -0.3891  0.1374
  887SOL     OW 3545   2.319   2.695   1.496  0.7259  0.2098 -0.0711
  887SOL    HW1 3546   2.340   2.724   1.404 -1.3892 -2.3179 -1.5008
  887SOL    HW2 3547   2.232   2.660   1.480  0.9094 -1.2878  1.1807
  887SOL     MW 3548   2.311   2.694   1.482  0.4710 -0.3213 -0.0946
  888SOL     OW 3549   1.923   2.196   1.383  0.6625 -0.0942 -0.0431
  888SOL    HW1 3550   2.002   2.169   1.336 -1.7425 -0.4037 -0.6894
  888SOL    HW2 3551   1.952   2.205   1.476  0.2825  0.9100 -0.8041
  888SOL     MW 3552   1.937   2.194   1.389  0.2950 -0.0026 -0.2288
  889SOL     OW 3553   2.338   2.003   2.041 -0.4263 -0.3719  0.6233
  889SOL    HW1 3554   2.418   1.991   2.089 -1.7107  0.1363 -0.2670
  889SOL    HW2 3555   2.358   2.045   1.956  1.4061 -0.0717 -0.2931
  889SOL     MW 3556   2.351   2.007   2.036 -0.3540 -0.2653  0.3849
  890SOL     OW 3557   0.118   2.347   0.142 -0.3084  0.0024 -0.4871
  890SOL    HW1 3558   0.070   2.434   0.143 -1.3034  0.5610 -0.7806
  890SOL    HW2 3559   0.070   2.295   0.207  0.3311  2.9205 -0.0621
  890SOL     MW 3560   0.105   2.352   0.150 -0.3553  0.4611 -0.4698
  891SOL     OW 3561   2.989   1.991   1.219 -0.0496  0.2325 -0.6300
  891SOL    HW1 3562   3.071   1.956   1.202 -0.9812 -0.3781  1.5732
  891SOL    HW2 3563   3.016   2.081   1.225 -0.8914 -1.8063  2.1161
  891SOL     MW 3564   3.003   1.999   1.217 -0.2836 -0.1171  0.0230
  892SOL     OW 3565   2.461   2.371   2.791 -0.1550 -0.1719  0.1816
  892SOL    HW1 3566   2.448   2.307   2.855 -1.9151  2.6005  2.3848
  892SOL    HW2 3567   2.559   2.404   2.802  0.7210  4.3993 -1.1761
  892SOL     MW 3568   2.472   2.367   2.801 -0.2717  0.7970  0.2932
  893SOL     OW 3569   1.650   2.396   1.325  0.2492  0.0677  0.5438
  893SOL    HW1 3570   1.573   2.423   1.378  2.1165 -1.4355  1.1384
  893SOL    HW2 3571   1.704   2.473   1.333 -0.4425 -0.1410 -0.5365
  893SOL     MW 3572   1.647   2.410   1.333  0.4043 -0.1581  0.4797
  894SOL     OW 3573   2.740   1.828   0.470  0.4287 -0.2127  0.1821
  894SOL    HW1 3574   2.646   1.851   0.498 -1.4354  1.4372  2.5755
  894SOL    HW2 3575   2.746   1.812   0.373 -0.4280  4.1686  3.6413
  894SOL     MW 3576   2.728   1.829   0.461  0.0697  0.5830  0.9543
  895SOL     OW 3577   2.153   2.173   1.173  0.4502  0.0531 -0.8734
  895SOL    HW1 3578   2.160   2.262   1.134  1.1103  0.8605 -0.9209
  895SOL    HW2 3579   2.208   2.130   1.111  1.8786 -1.2300  0.6324
  895SOL     MW 3580   2.161   2.179   1.159  0.7257 -0.0097 -0.6810
  896SOL     OW 3581   2.234   2.826   1.081 -0.5974  0.0488 -0.2701
  896SOL    HW1 3582   2.302   2.789   1.141 -0.3147 -0.0111  1.5121
  896SOL    HW2 3583   2.166   2.877   1.131  0.6109  0.1330 -1.7058
  896SOL     MW 3584   2.234   2.828   1.096 -0.4006  0.0520 -0.2244
  897SOL     OW 3585   3.095   3.027   3.066 -0.0780  0.3592  0.5469
  897SOL    HW1 3586   3.149   2.951   3.074 -1.8647 -2.3011 -1.3621
  897SOL    HW2 3587   3.024   3.014   3.000 -0.2654 -0.7373 -3.4856
  897SOL     MW 3588   3.092   3.015   3.058 -0.3385 -0.1365 -0.2370
  898SOL     OW 3589   2.035   0.158   1.435  0.3133 -0.1223  0.1646
  898SOL    HW1 3590   2.021   0.070   1.474  1.4986 -0.8082 -0.6815
  898SOL    HW2 3591   2.039   0.151   1.337  0.6525 -0.5581 -0.2263
  898SOL     MW 3592   2.034   0.146   1.427  0.5144 -0.2703  0.0014
  899SOL     OW 3593   2.954   3.009   0.618 -0.7603 -0.0256 -0.1294
  899SOL    HW1 3594   2.963   2.920   0.657 -0.1225 -2.9007  0.7140
  899SOL    HW2 3595   2.858   3.031   0.614 -1.6107 -1.6512  2.5165
  899SOL     MW 3596   2.942   3.000   0.623 -0.7884 -0.6194  0.3310
  900SOL     OW 3597   0.072   2.411   1.095  0.2508 -0.2753 -0.3754
  900SOL    HW1 3598   0.058   2.508   1.095 -0.3094 -0.3494 -0.5169
  900SOL    HW2 3599   0.048   2.382   1.005 -1.1183  0.5922  0.4266
  900SOL     MW 3600   0.067   2.420   1.083 -0.0038 -0.1706 -0.2883
  901SOL     OW 3601   1.742   2.809   1.792 -0.0368 -0.3157  0.3357
  901SOL    HW1 3602   1.824   2.759   1.782 -4.0252  2.0165 -0.2457
  901SOL    HW2 3603   1.675   2.780   1.730  2.0578 -0.8322 -1.7694
  901SOL     MW 3604   1.744   2.798   1.782 -0.2866 -0.0761 -0.0188
  902SOL     OW 3605   2.656   2.108   1.665 -0.1351  0.1489 -1.0407
  902SOL    HW1 3606   2.671   2.065   1.577  0.3822  1.3255  0.7314
  902SOL    HW2 3607   2.737   2.077   1.713  0.6758  0.2710 -2.4475
  902SOL     MW 3608   2.669   2.098   1.660  0.0401  0.3203 -0.9925
  903SOL     OW 3609   1.532   2.625   0.634 -0.6305  0.8399 -0.0106
  903SOL    HW1 3610   1.612   2.594   0.674  1.2096  2.5596 -0.5840
  903SOL    HW2 3611   1.514   2.682   0.706  1.5988 -2.7473 -0.0191
  903SOL     MW 3612   1.540   2.628   0.648 -0.0936  0.5935 -0.0874
  904SOL     OW 3613   2.478   2.549   1.722 -0.2024  0.4851  0.2436
  904SOL    HW1 3614   2.436   2.602   1.651  0.5058  1.0965  0.2378
  904SOL    HW2 3615   2.543   2.494   1.673 -3.2725 -0.0267  0.9852
  904SOL     MW 3616   2.481   2.549   1.706 -0.5140  0.4982  0.3407
  905SOL     OW 3617   2.307   2.484   2.095 -0.8737  0.2185 -0.1027
  905SOL    HW1 3618   2.365   2.442   2.029  0.7401 -1.7792  0.9310
  905SOL    HW2 3619   2.286   2.392   2.140  0.5130 -1.0859  0.5640
  905SOL     MW 3620   2.312   2.466   2.092 -0.4778 -0.2172  0.1216
  906SOL     OW 3621   2.513   2.501   0.801 -0.2614  0.0103 -0.3093
  906SOL    HW1 3622   2.601   2.464   0.825  1.3020 -3.5226  0.1731
  906SOL    HW2 3623   2.506   2.591   0.828 -2.7732  0.6079 -1.8850
  906SOL     MW 3624   2.524   2.508   0.808 -0.3865 -0.3770 -0.4536
  907SOL     OW 3625   2.668   2.882   1.274  0.3625  0.1402 -0.0802
  907SOL    HW1 3626   2.736   2.927   1.327  0.1777 -2.4324  3.6298
  907SOL    HW2 3627   2.723   2.870   1.195 -1.8159  2.6382 -0.9241
  907SOL     MW 3628   2.684   2.887   1.270  0.0507  0.1304  0.2980
  908SOL     OW 3629   2.736   2.421   0.001  0.3929  0.2115  0.7610
  908SOL    HW1 3630   2.705   2.331   0.032 -0.0516 -0.8798 -0.5205
  908SOL    HW2 3631   2.691   2.490   0.052  0.4850  0.2417  0.3558
  908SOL     MW 3632   2.726   2.418   0.012  0.3464  0.0715  0.5384
  909SOL     OW 3633   1.764   0.119   1.222 -0.0490  0.4876  0.1606
  909SOL    HW1 3634   1.743   0.190   1.167 -2.4555  2.2413  1.5398
  909SOL    HW2 3635   1.706   0.132   1.302 -2.5511 -0.5527  1.3017
  909SOL     MW 3636   1.754   0.130   1.225 -0.6966  0.5818  0.4931
  910SOL     OW 3637   2.204   1.677   0.413 -0.2644 -0.7407 -0.2960
  910SOL    HW1 3638   2.164   1.589   0.411 -1.8152 -0.2483 -0.3287
  910SOL    HW2 3639   2.141   1.721   0.356  1.3205  0.4850  0.8632
  910SOL     MW 3640   2.191   1.671   0.406 -0.2599 -0.5140 -0.1474
  911SOL     OW 3641   2.296   2.051   1.558  0.1408  0.0630  0.1936
  911SOL    HW1 3642   2.333   2.086   1.641  1.2714 -2.0694  0.3578
  911SOL    HW2 3643   2.327   2.113   1.485  1.1055  2.6346 -0.2423
  911SOL     MW 3644   2.305   2.064   1.559  0.4173  0.1209  0.1577
  912SOL     OW 3645   2.909   1.872   1.444 -0.0326 -0.8257 -0.4614
  912SOL    HW1 3646   2.935   1.919   1.353  0.5479 -2.8090 -1.9533
  912SOL    HW2 3647   2.819   1.902   1.453  3.5048  1.4700  1.8142
  912SOL     MW 3648   2.901   1.882   1.433  0.5107 -0.7845 -0.3580
  913SOL     OW 3649   2.654   3.084   0.309  0.4702  0.2441 -0.7631
  913SOL    HW1 3650   2.724   3.025   0.322  0.3569  0.2775 -1.2420
  913SOL    HW2 3651   2.585   3.038   0.253  2.1729 -1.2203 -0.6481
  913SOL     MW 3652   2.654   3.070   0.303  0.6799  0.0553 -0.8111
  914SOL     OW 3653   2.678   1.849   3.026 -0.2407 -0.3608 -0.8773
  914SOL    HW1 3654   2.718   1.902   2.956 -0.0168 -1.5764 -3.3843
  914SOL    HW2 3655   2.587   1.846   3.007 -1.3262 -1.3594 -0.6459
  914SOL     MW 3656   2.671   1.856   3.014 -0.3544 -0.6530 -1.1776
  915SOL     OW 3657   1.776   0.167   0.177  0.0484 -0.0288 -1.0074
  915SOL    HW1 3658   1.833   0.095   0.219 -1.7688  0.4921  0.3833
  915SOL    HW2 3659   1.689   0.124   0.173 -1.7861 -0.5805 -1.5234
  915SOL     MW 3660   1.772   0.152   0.182 -0.4334 -0.0328 -0.8920
  916SOL     OW 3661   1.735   2.177   2.028 -0.2912 -0.0392  0.8224
  916SOL    HW1 3662   1.790   2.255   2.019 -1.5995  1.1951  0.9147
  916SOL    HW2 3663   1.763   2.127   1.952  1.6171 -1.1458  1.2343
  916SOL     MW 3664   1.746   2.180   2.016 -0.2120 -0.0223  0.8890
  917SOL     OW 3665   2.518   2.221   2.562 -0.2291  0.4846  0.5330
  917SOL    HW1 3666   2.471   2.276   2.624 -0.9358  0.9454 -0.0903
  917SOL    HW2 3667   2.595   2.260   2.527 -1.5303  1.3621 -1.3496
  917SOL     MW 3668   2.522   2.233   2.566 -0.4940  0.6612  0.2024
  918SOL     OW 3669   2.025   1.605   2.679  0.4144  0.4689 -0.1323
  918SOL    HW1 3670   1.954   1.639   2.617 -0.7698  1.3337  0.5316
  918SOL    HW2 3671   2.100   1.666   2.665  0.5814  1.1909  0.2403
  918SOL     MW 3672   2.025   1.618   2.669  0.2802  0.6783  0.0044
  919SOL     OW 3673   3.068   2.407   2.257  0.7397 -0.4477 -0.6150
  919SOL    HW1 3674   3.001   2.337   2.249 -0.1929  0.0515 -0.7284
  919SOL    HW2 3675   3.139   2.395   2.181  1.2368  1.3341 -0.4706
  919SOL     MW 3676   3.068   2.396   2.246  0.6822 -0.1467 -0.6109
  920SOL     OW 3677   2.702   2.842   3.041  0.2203 -0.0701 -0.0016
  920SOL    HW1 3678   2.610   2.855   3.024  0.1531  0.4895 -0.5248
  920SOL    HW2 3679   2.718   2.800   2.959  2.7476 -0.7209  0.7831
  920SOL     MW 3680   2.692   2.838   3.028  0.5449 -0.0821  0.0329
  921SOL     OW 3681   2.423   2.586   2.611  0.0136 -0.3398  0.2478
  921SOL    HW1 3682   2.488   2.590   2.543 -0.8107  0.5147  0.2469
  921SOL    HW2 3683   2.437   2.511   2.669  2.0552 -0.8479  1.9839
  921SOL     MW 3684   2.433   2.577   2.610  0.1742 -0.2941  0.4767
  922SOL     OW 3685   2.037   2.782   0.341  0.0636 -0.1471  0.2292
  922SOL    HW1 3686   2.018   2.797   0.249  0.3714  1.5185  0.9088
  922SOL    HW2 3687   2.079   2.695   0.346  2.0550 -1.9931  1.1718
  922SOL     MW 3688   2.040   2.772   0.330  0.3670 -0.1709  0.4432
  923SOL     OW 3689   2.195   2.863   1.674 -0.2457 -0.2247 -0.1897
  923SOL    HW1 3690   2.251   2.812   1.617 -1.6489 -0.6513  2.1070
  923SOL    HW2 3691   2.145   2.925   1.623  0.5795 -1.3588 -1.2060
  923SOL     MW 3692   2.196   2.864   1.660 -0.3219 -0.4306 -0.0208
  924SOL     OW 3693   1.118   2.756   2.625 -0.1208  0.1144  0.1807
  924SOL    HW1 3694   1.204   2.793   2.630 -1.3467 -1.1306 -0.6492
  924SOL    HW2 3695   1.123   2.684   2.687 -0.8725 -3.1248  2.2494
  924SOL     MW 3696   1.130   2.751   2.634 -0.3817 -0.4772  0.3441
  925SOL     OW 3697   3.011   0.233   2.694 -0.5835  0.0241 -0.0056
  925SOL    HW1 3698   2.948   0.215   2.618 -1.7513  0.2685 -0.3425
  925SOL    HW2 3699   2.971   0.292   2.751 -0.6258  1.4158  0.0854
  925SOL     MW 3700   2.998   0.238   2.691 -0.7432  0.2400 -0.0380
  926SOL     OW 3701   2.731   2.344   2.021  0.7994 -0.6294  0.1732
  926SOL    HW1 3702   2.771   2.428   2.050  2.0972  1.2448 -0.6615
  926SOL    HW2 3703   2.766   2.352   1.928  2.1776 -2.1006 -1.7821
  926SOL     MW 3704   2.741   2.356   2.012  1.1525 -0.5762 -0.1949
  927SOL     OW 3705   2.364   0.175   0.288  0.4908 -0.2989  0.0298
  927SOL    HW1 3706   2.449   0.222   0.296  1.6154 -0.4126 -0.0342
  927SOL    HW2 3707   2.352   0.137   0.194 -0.2698  1.1274 -1.7969
  927SOL     MW 3708   2.374   0.176   0.277  0.5388 -0.1257 -0.2197
  928SOL     OW 3709   2.179   2.427   1.756  0.2983 -0.6133 -0.0815
  928SOL    HW1 3710   2.144   2.497   1.703 -0.5980  0.5356  0.4493
  928SOL    HW2 3711   2.270   2.436   1.771 -0.7962  0.4134 -1.5790
  928SOL     MW 3712   2.186   2.438   1.751  0.0357 -0.3263 -0.2090
  929SOL     OW 3713   2.728   2.366   2.481  0.0202  0.1531 -0.1371
  929SOL    HW1 3714   2.773   2.319   2.413  2.1554  0.8955 -0.2199
  929SOL    HW2 3715   2.790   2.389   2.550  2.7109  0.7405 -0.6895
  929SOL     MW 3716   2.742   2.363   2.481  0.6569  0.3285 -0.2209
  930SOL     OW 3717   2.007   2.827   2.604  0.1448 -0.2964 -0.0126
  930SOL    HW1 3718   2.029   2.785   2.694  2.2073 -1.3800  0.2782
  930SOL    HW2 3719   2.072   2.898   2.589  3.5702  1.0448 -1.2262
  930SOL     MW 3720   2.018   2.831   2.614  0.8689 -0.2624 -0.1344
  931SOL     OW 3721  -0.005   2.763   2.476  0.4595  0.4577 -0.0100
  931SOL    HW1 3722   0.009   2.787   2.570 -0.6140  0.8559 -1.2907
  931SOL    HW2 3723   0.079   2.746   2.450  0.6438  0.0103  0.1578
  931SOL     MW 3724   0.008   2.764   2.485  0.3422  0.4512 -0.1569
  932SOL     OW 3725   2.894   1.860   2.483 -0.2778 -0.0781  0.3005
  932SOL    HW1 3726   2.956   1.924   2.517  0.5902  1.2099 -0.8558
  932SOL    HW2 3727   2.878   1.892   2.392 -0.2198  1.9357 -0.0411
  932SOL     MW 3728   2.900   1.873   2.475 -0.1556  0.3576  0.1028
  933SOL     OW 3729   2.034   2.784   2.220 -0.0445  0.3917  0.3863
  933SOL    HW1 3730   2.119   2.810   2.269 -3.0240 -2.8682 -0.1725
  933SOL    HW2 3731   1.986   2.865   2.207  1.9424  1.4608  0.2959
  933SOL     MW 3732   2.039   2.798   2.225 -0.1755  0.1026  0.3006
  934SOL     OW 3733   1.989   2.622   2.440  0.0956 -0.5734  0.0764
  934SOL    HW1 3734   1.977   2.695   2.501 -1.4453  2.2877  1.3032
  934SOL    HW2 3735   1.997   2.658   2.351 -2.9606 -3.6630  0.8154
  934SOL     MW 3736   1.989   2.636   2.436 -0.5109 -0.6036  0.3358
  935SOL     OW 3737   2.689   1.586   1.819  0.5434  0.0183 -0.4413
  935SOL    HW1 3738   2.779   1.558   1.808 -0.5680  0.0689 -2.4520
  935SOL    HW2 3739   2.645   1.555   1.723  0.5374 -1.5888 -1.4606
  935SOL     MW 3740   2.695   1.578   1.805  0.3960 -0.1871 -0.8411
  936SOL     OW 3741   2.986   2.283   0.000 -0.5712 -0.0234 -0.6757
  936SOL    HW1 3742   3.064   2.310   0.055  2.7244 -1.6643  0.0727
  936SOL    HW2 3743   2.911   2.339   0.017  1.1685  1.5428  0.1033
  936SOL     MW 3744   2.987   2.294   0.009  0.0931 -0.0332 -0.4742
  937SOL     OW 3745   2.022   2.159   2.696 -0.1431  0.4856 -0.2883
  937SOL    HW1 3746   2.111   2.122   2.699  2.8393  1.5765  0.4660
  937SOL    HW2 3747   1.985   2.127   2.612 -0.5970  2.1446  2.0246
  937SOL     MW 3748   2.029   2.150   2.686  0.1905  0.8484  0.1164
  938SOL     OW 3749   2.284   1.751   1.910  0.4210 -0.2145  0.3641
  938SOL    HW1 3750   2.298   1.766   1.816 -0.7664 -0.4878  1.2423
  938SOL    HW2 3751   2.271   1.835   1.951 -0.3176 -2.2986  1.5778
  938SOL     MW 3752   2.284   1.764   1.903  0.1669 -0.5256  0.6401
  939SOL     OW 3753   2.801   1.967   2.259 -0.0450 -0.0262 -0.3654
  939SOL    HW1 3754   2.827   1.929   2.172 -0.2918  0.5942  0.2788
  939SOL    HW2 3755   2.705   1.976   2.257  2.7118 -1.0376  1.3651
  939SOL     MW 3756   2.792   1.963   2.247  0.2861 -0.0778 -0.0521
  940SOL     OW 3757   2.263   0.142   2.683 -0.7725  0.6714 -0.5271
  940SOL    HW1 3758   2.274   0.052   2.647 -1.0445  1.1055  1.4811
  940SOL    HW2 3759   2.326   0.157   2.755  0.2468 -2.1659  0.8149
  940SOL     MW 3760   2.273   0.133   2.688 -0.6739  0.3543 -0.0851
  941SOL     OW 3761   0.157   2.411   2.053  0.3495 -0.3089 -0.2524
  941SOL    HW1 3762   0.239   2.371   2.079  2.7332 -2.0375  1.8223
  941SOL    HW2 3763   0.166   2.418   1.960 -1.8871  1.7865  1.3092
  941SOL     MW 3764   0.169   2.406   2.044  0.3689 -0.2605  0.2274
  942SOL     OW 3765   2.853   2.232   2.249  0.2055  0.3861 -0.3127
  942SOL    HW1 3766   2.827   2.246   2.159  0.3558 -0.3929 -1.3719
  942SOL    HW2 3767   2.842   2.129   2.247  0.3245 -3.5325 -0.0646
  942SOL     MW 3768   2.848   2.220   2.237  0.2410 -0.2337 -0.4197
  943SOL     OW 3769   0.234   2.109   2.290  0.4546 -0.0014 -0.3876
  943SOL    HW1 3770   0.191   2.169   2.351 -1.7547  0.2793 -0.1388
  943SOL    HW2 3771   0.313   2.070   2.343 -1.8418 -2.0235  3.0981
  943SOL     MW 3772   0.239   2.112   2.305 -0.1399 -0.2312  0.1051
  944SOL     OW 3773   2.107   2.634   1.999  0.4239 -0.3493  0.1835
  944SOL    HW1 3774   2.180   2.577   2.032  1.0121  2.1219 -2.7148
  944SOL    HW2 3775   2.069   2.680   2.072  1.9971 -0.5679  1.2817
  944SOL     MW 3776   2.112   2.633   2.013  0.7091 -0.0521 -0.0540
  945SOL     OW 3777   2.809   2.719   2.843  0.6629 -0.0220 -0.5635
  945SOL    HW1 3778   2.791   2.626   2.825  0.8178  3.7318 -1.6449
  945SOL    HW2 3779   2.800   2.757   2.756  1.3868  0.4406 -1.2297
  945SOL     MW 3780   2.806   2.712   2.829  0.7789  0.5343 -0.7941
  946SOL     OW 3781   2.431   2.669   2.232  0.0638  0.0521  0.0790
  946SOL    HW1 3782   2.484   2.691   2.146 -1.0672 -2.7684  3.9168
  946SOL    HW2 3783   2.387   2.590   2.195  0.9010 -0.7276 -1.5683
  946SOL     MW 3784   2.432   2.662   2.216  0.0250 -0.4229  0.3680
  947SOL     OW 3785   1.999   0.009   0.259  0.5971  0.5246 -0.2893
  947SOL    HW1 3786   1.988  -0.092   0.253 -0.3249 -0.2250  1.4311
  947SOL    HW2 3787   2.054   0.029   0.333 -1.3279 -1.2781  1.4515
  947SOL     MW 3788   2.005  -0.002   0.268  0.2215  0.1879  0.1674
  948SOL     OW 3789   1.800   2.999   2.701 -0.1784  0.1707  0.2534
  948SOL    HW1 3790   1.851   2.914   2.704  1.1241  0.8413 -0.5116
  948SOL    HW2 3791   1.801   3.030   2.611 -1.4660  0.6540 -1.4862
  948SOL     MW 3792   1.807   2.992   2.689 -0.1764  0.3229 -0.0771
  949SOL     OW 3793   2.509   1.965   2.313 -0.3773 -0.0750 -0.3676
  949SOL    HW1 3794   2.486   1.869   2.321 -0.8230  0.0767 -2.3933
  949SOL    HW2 3795   2.437   2.016   2.348 -2.1199  0.5424 -1.9425
  949SOL     MW 3796   2.497   1.959   2.319 -0.6660  0.0265 -0.8427
  950SOL     OW 3797   2.288   2.583   2.935  0.0748  0.1654 -0.1199
  950SOL    HW1 3798   2.310   2.513   2.874  0.2235  0.8261 -1.4636
  950SOL    HW2 3799   2.193   2.615   2.904  0.4869 -1.6662  0.6881
  950SOL     MW 3800   2.279   2.578   2.923  0.1488  0.0109 -0.1906
  951SOL     OW 3801   3.071   2.216   2.852  0.0054  0.2733  0.6679
  951SOL    HW1 3802   3.044   2.247   2.944 -1.7843  1.1051 -1.9821
  951SOL    HW2 3803   3.100   2.129   2.869  0.0596  0.6386  0.3512
  951SOL     MW 3804   3.072   2.209   2.867 -0.2236  0.4312  0.2765
  952SOL     OW 3805   3.043   1.657   2.105 -0.5196  0.3647  0.4408
  952SOL    HW1 3806   2.974   1.696   2.052  0.2895 -2.6168  0.0737
  952SOL    HW2 3807   3.102   1.730   2.135  1.1998  2.0009 -1.4651
  952SOL     MW 3808   3.042   1.672   2.102 -0.1860  0.1872  0.1409
  953SOL     OW 3809   1.956   1.783   2.890  0.5818 -0.1780  0.7506
  953SOL    HW1 3810   1.886   1.747   2.946 -2.4012  0.5609 -0.9323
  953SOL    HW2 3811   1.968   1.716   2.813  0.9707 -1.7073  3.8389
  953SOL     MW 3812   1.948   1.769   2.887  0.2395 -0.2823  0.9360
  954SOL     OW 3813   2.474   2.121   2.920  0.1443  0.1487  0.0430
  954SOL    HW1 3814   2.380   2.114   2.880 -1.8361 -1.2787 -1.9103
  954SOL    HW2 3815   2.526   2.092   2.851  0.4285  0.5325  0.4032
  954SOL     MW 3816   2.468   2.116   2.905 -0.0795  0.0110 -0.1672
  955SOL     OW 3817   1.551   1.611   2.529 -0.0969 -0.3263  0.4982
  955SOL    HW1 3818   1.527   1.647   2.440  0.5946 -3.7154 -3.3418
  955SOL    HW2 3819   1.638   1.661   2.537  1.3837  0.1975 -0.8722
  955SOL     MW 3820   1.559   1.622   2.518  0.1897 -0.7044 -0.1893
  956SOL     OW 3821   2.710   2.462   2.827 -0.2162  0.4632 -0.4825
  956SOL    HW1 3822   2.718   2.452   2.932  0.7353 -1.2169  1.9774
  956SOL    HW2 3823   2.792   2.420   2.793  2.3947  2.1043  3.3814
  956SOL     MW 3824   2.722   2.455   2.836  0.2539  0.4580  0.3518
  957SOL     OW 3825   2.260   2.916   0.471  0.3339 -0.0895  0.6113
  957SOL    HW1 3826   2.193   2.873   0.412 -0.6385 -3.0902  0.9060
  957SOL    HW2 3827   2.256   2.870   0.554  2.1115 -2.2430 -0.8351
  957SOL     MW 3828   2.251   2.904   0.474  0.4401 -0.7695  0.4594
  958SOL     OW 3829   2.043   2.670   2.829  0.4378 -0.1124 -0.0202
  958SOL    HW1 3830   2.044   2.578   2.787 -0.9339  1.1876 -1.9442
  958SOL    HW2 3831   1.978   2.663   2.904 -1.2173  0.4431 -1.6410
  958SOL     MW 3832   2.034   2.657   2.833  0.0384  0.1324 -0.4879
  959SOL     OW 3833   2.512   2.797   0.453  0.3722  0.0213  0.4691
  959SOL    HW1 3834   2.558   2.799   0.368 -0.7355  0.7669  0.3980
  959SOL    HW2 3835   2.429   2.849   0.430 -3.5444 -3.0793 -0.6311
  959SOL     MW 3836   2.507   2.804   0.439 -0.2907 -0.2895  0.3146
  960SOL     OW 3837   1.944   2.296   2.336  0.3005  0.6743 -0.0270
  960SOL    HW1 3838   1.952   2.207   2.371 -1.6824  1.2905 -0.7015
  960SOL    HW2 3839   1.900   2.347   2.406 -0.0723 -0.4957  1.3461
  960SOL     MW 3840   1.939   2.291   2.350 -0.0103  0.6012  0.0651
  961SOL     OW 3841   2.221   2.326   2.279  0.1749 -0.1894  0.5756
  961SOL    HW1 3842   2.125   2.332   2.277  1.1687  0.7243 -0.8606
  961SOL    HW2 3843   2.236   2.375   2.355 -0.3508 -1.8065 -0.3005
  961SOL     MW 3844   2.210   2.333   2.289  0.2367 -0.2822  0.2705
  962SOL     OW 3845   2.233   2.029   2.775  0.0167  0.5886  1.0619
  962SOL    HW1 3846   2.170   2.032   2.846  1.0503  0.6757  3.7204
  962SOL    HW2 3847   2.223   1.944   2.739  3.5590  4.1827  0.7838
  962SOL     MW 3848   2.223   2.018   2.780  0.6204  1.0743  1.3760
  963SOL     OW 3849   1.779   2.484   2.138  0.2167  0.3839  0.3357
  963SOL    HW1 3850   1.842   2.446   2.202  0.7595  0.6269  2.6702
  963SOL    HW2 3851   1.823   2.478   2.051 -1.9184  1.4561 -0.3704
  963SOL     MW 3852   1.793   2.478   2.135  0.0066  0.5574  0.5506
  964SOL     OW 3853   1.827   1.965   2.718 -0.2529 -1.0098 -0.0439
  964SOL    HW1 3854   1.883   2.039   2.705 -0.5588  0.2607 -0.6618
  964SOL    HW2 3855   1.877   1.904   2.785 -1.5626 -1.5935 -0.1094
  964SOL     MW 3856   1.841   1.966   2.725 -0.4660 -0.9192 -0.1341
  965SOL     OW 3857   2.245   2.712   0.681 -0.1971 -0.2862  0.4050
  965SOL    HW1 3858   2.247   2.622   0.656 -0.8997 -0.1375  0.5831
  965SOL    HW2 3859   2.321   2.734   0.738 -2.2896  0.2117  1.1587
  965SOL     MW 3860   2.255   2.703   0.685 -0.5659 -0.2009  0.5279
  966SOL     OW 3861   2.671   2.604   2.379  0.1934 -0.1342 -0.4780
  966SOL    HW1 3862   2.593   2.630   2.331  2.0557  1.6598  0.5120
  966SOL    HW2 3863   2.674   2.512   2.409 -3.0607 -0.4566  0.6887
  966SOL     MW 3864   2.661   2.595   2.377  0.0098  0.0600 -0.1934
  967SOL     OW 3865   2.826   3.062   2.941  0.0224 -0.4036  0.5501
  967SOL    HW1 3866   2.786   2.981   2.981  1.3041  0.4776 -2.2167
  967SOL    HW2 3867   2.748   3.090   2.889 -0.5159 -0.3137  1.7319
  967SOL     MW 3868   2.811   3.055   2.940  0.1205 -0.2755  0.3410
  968SOL     OW 3869   3.038   2.632   3.004 -0.0932  0.0531  0.3687
  968SOL    HW1 3870   2.953   2.657   2.962 -0.7781 -1.0731 -2.4136
  968SOL    HW2 3871   3.087   2.581   2.940 -1.1623  0.8985 -0.4256
  968SOL     MW 3872   3.033   2.629   2.990 -0.3246  0.0160 -0.1032
  969SOL     OW 3873   1.608   2.204   1.695  0.0731  0.1825  0.0727
  969SOL    HW1 3874   1.683   2.147   1.718  0.4137  0.6920 -1.1185
  969SOL    HW2 3875   1.548   2.227   1.774  2.1978  0.6401 -0.0881
  969SOL     MW 3876   1.610   2.199   1.709  0.3984  0.3101 -0.1057
  970SOL     OW 3877   1.784   1.831   1.903 -0.0249  0.2502 -0.0418
  970SOL    HW1 3878   1.817   1.783   1.977  1.7996 -0.0145  0.0488
  970SOL    HW2 3879   1.688   1.816   1.895  1.1534 -2.2249 -2.3288
  970SOL     MW 3880   1.776   1.822   1.912  0.3713 -0.1113 -0.3316
  971SOL     OW 3881   1.780   3.052   2.409  0.0928 -0.7420  0.0246
  971SOL    HW1 3882   1.787   3.024   2.315  2.0049 -0.5506 -0.2763
  971SOL    HW2 3883   1.820   3.136   2.412  0.7450 -3.9662 -0.3395
  971SOL     MW 3884   1.786   3.060   2.397  0.4311 -1.1422 -0.0632
  972SOL     OW 3885   0.261   2.856   2.459  0.0194 -0.6640 -0.1272
  972SOL    HW1 3886   0.335   2.796   2.447  2.0854 -1.4745 -1.5557
  972SOL    HW2 3887   0.298   2.952   2.460  2.0487  1.4188 -0.5722
  972SOL     MW 3888   0.276   2.861   2.458  0.5597 -0.4962 -0.3744
  973SOL     OW 3889   2.611   3.072   2.108 -0.3323 -0.1709 -0.0844
  973SOL    HW1 3890   2.607   2.977   2.083  0.3667  0.2704  0.6777
  973SOL    HW2 3891   2.619   3.118   2.026  0.2330 -0.6694  0.8343
  973SOL     MW 3892   2.612   3.065   2.094 -0.1655 -0.1784  0.1374
  974SOL     OW 3893   1.982   0.144   2.668 -0.1618 -0.1355 -0.8812
  974SOL    HW1 3894   2.077   0.162   2.689 -0.3444 -0.0565  0.3094
  974SOL    HW2 3895   1.957   0.068   2.724  0.2058 -0.6055 -1.9124
  974SOL     MW 3896   1.991   0.136   2.678 -0.1374 -0.1871 -0.8602
  975SOL     OW 3897   2.205   2.489   2.496  0.0138  0.1486 -0.2232
  975SOL    HW1 3898   2.271   2.549   2.530  0.5637 -1.3889 -0.9840
  975SOL    HW2 3899   2.131   2.545   2.460 -2.3035  0.9564  1.2426
  975SOL     MW 3900   2.204   2.504   2.496 -0.2194  0.0523 -0.1302
  976SOL     OW 3901   0.166   0.350   1.736  0.5039 -0.2880 -0.2006
  976SOL    HW1 3902   0.230   0.283   1.748 -0.1401  2.7524 -1.5187
  976SOL    HW2 3903   0.084   0.291   1.727 -0.3810 -1.0911 -3.7708
  976SOL     MW 3904   0.164   0.333   1.737  0.3022  0.0072 -0.8455
  977SOL     OW 3905   1.697   2.711   2.465  0.2741 -0.0975 -0.7788
  977SOL    HW1 3906   1.706   2.617   2.488 -2.3156  0.9609 -0.3296
  977SOL    HW2 3907   1.779   2.752   2.438  1.6802  1.3444  1.3698
  977SOL     MW 3908   1.709   2.704   2.465  0.1179  0.2324 -0.4360
   3.10000   3.10000   3.10000
