977 TIP4P/2005f water molecules t=   0.27000 step= 270
 3908
    1SOL     OW    1   0.275   0.750   0.025  0.8494 -0.5022  0.5784
    1SOL    HW1    2   0.263   0.780  -0.062  0.0621 -0.9108  1.4377
    1SOL    HW2    3   0.288   0.651   0.014  2.5531 -1.1700 -0.4250
    1SOL     MW    4   0.275   0.741   0.012  0.9703 -0.6443  0.5594
    2SOL     OW    5   0.357   3.030   1.148 -0.3644  0.1671 -0.0621
    2SOL    HW1    6   0.385   3.107   1.100  0.8107 -2.2100 -0.2694
    2SOL    HW2    7   0.265   3.052   1.165  0.3862  1.0225 -1.3865
    2SOL     MW    8   0.349   3.043   1.144 -0.1103 -0.0337 -0.2642
    3SOL     OW    9   2.670   0.400   0.923 -0.3215  0.0220  0.3301
    3SOL    HW1   10   2.684   0.481   0.876 -1.6272  2.7590 -1.6571
    3SOL    HW2   11   2.651   0.429   1.009 -1.0843  0.9618  0.1321
    3SOL     MW   12   2.670   0.415   0.928 -0.5944  0.5071  0.0418
    4SOL     OW   13   3.071   1.821   0.634 -0.4898  0.0172 -0.5196
    4SOL    HW1   14   2.989   1.852   0.604  0.6357 -2.0401  1.1696
    4SOL    HW2   15   3.107   1.778   0.557  3.4512 -1.4087  1.1424
    4SOL     MW   16   3.065   1.819   0.620  0.1787 -0.4423 -0.0775
    5SOL     OW   17   1.710   1.440   0.519 -0.3557 -0.5153  0.2351
    5SOL    HW1   18   1.758   1.401   0.590  4.0165 -0.4333 -1.7537
    5SOL    HW2   19   1.621   1.422   0.550 -0.1879 -0.6955  1.5508
    5SOL     MW   20   1.705   1.432   0.532  0.2433 -0.5282  0.1463
    6SOL     OW   21   0.873   1.410   0.611  0.3332  0.7761  0.1066
    6SOL    HW1   22   0.798   1.429   0.669 -1.3507 -0.6148  0.9671
    6SOL    HW2   23   0.894   1.314   0.634 -0.8610 -0.1900  0.0814
    6SOL     MW   24   0.866   1.400   0.621 -0.0465  0.4651  0.2168
    7SOL     OW   25   1.957   1.068   0.017  0.3075 -0.3665  0.4833
    7SOL    HW1   26   2.010   1.122  -0.039  0.5858  1.4583  0.0968
    7SOL    HW2   27   1.999   1.080   0.105  4.3204  3.8477 -1.9336
    7SOL     MW   28   1.969   1.077   0.021  0.8737  0.4303  0.1134
    8SOL     OW   29   1.009   1.305   1.047  0.1112  0.3706 -0.3160
    8SOL    HW1   30   1.099   1.287   1.071 -1.7671  3.6352 -0.4505
    8SOL    HW2   31   0.955   1.226   1.075  4.1593 -0.5803 -0.1032
    8SOL     MW   32   1.014   1.292   1.054  0.3975  0.6759 -0.3056
    9SOL     OW   33   1.025   0.477   1.365  0.4388 -0.0988 -0.8989
    9SOL    HW1   34   0.944   0.432   1.328 -0.5206  1.3491 -1.0231
    9SOL    HW2   35   1.049   0.423   1.439  0.5013 -0.4623  1.2428
    9SOL     MW   36   1.017   0.464   1.370  0.3205  0.0443 -0.6327
   10SOL     OW   37   0.304   0.850   0.469  0.3970 -0.4641 -0.0980
   10SOL    HW1   38   0.385   0.891   0.439 -1.2621 -2.1526  1.7973
   10SOL    HW2   39   0.287   0.907   0.545  1.9359 -0.1440 -0.3668
   10SOL     MW   40   0.312   0.863   0.475  0.3812 -0.6446  0.1166
   11SOL     OW   41   0.903   1.096   1.582 -0.5154 -0.2165  1.3311
   11SOL    HW1   42   0.876   1.094   1.676 -0.8034  0.0730  0.2664
   11SOL    HW2   43   0.853   1.022   1.534  0.5125 -0.9504  0.4195
   11SOL     MW   44   0.893   1.086   1.588 -0.4178 -0.2752  1.0703
   12SOL     OW   45   0.008   1.121   0.840  0.0622  1.1248 -0.0576
   12SOL    HW1   46   0.059   1.158   0.913  3.0605  1.7684  2.8091
   12SOL    HW2   47  -0.056   1.185   0.811  0.2854 -1.4810 -1.6511
   12SOL     MW   48   0.006   1.135   0.846  0.4872  0.8659  0.1104
   13SOL     OW   49   1.935   1.434   1.414 -0.1384 -0.1479 -0.8221
   13SOL    HW1   50   1.963   1.393   1.333  2.0076  0.2220 -1.3866
   13SOL    HW2   51   1.909   1.526   1.393 -1.0904 -1.1379 -0.4962
   13SOL     MW   52   1.935   1.441   1.401  0.0192 -0.2297 -0.8536
   14SOL     OW   53   0.625   0.341   1.762  0.1826 -0.4267  0.3289
   14SOL    HW1   54   0.604   0.259   1.719  0.0410  0.7665  1.4461
   14SOL    HW2   55   0.693   0.310   1.820  0.8455 -1.3914  1.2488
   14SOL     MW   56   0.631   0.326   1.764  0.2514 -0.3965  0.5977
   15SOL     OW   57   1.984   0.547   0.917  0.0928  0.2314 -0.0284
   15SOL    HW1   58   2.011   0.548   1.010  0.1381  2.9597  1.1923
   15SOL    HW2   59   2.066   0.510   0.880  1.1681  2.8108 -0.9063
   15SOL     MW   60   1.998   0.542   0.925  0.2406  0.9317  0.0168
   16SOL     OW   61   0.204   1.787   0.317  0.2111 -0.4692  0.6776
   16SOL    HW1   62   0.288   1.741   0.310 -1.8364  2.5820 -0.6028
   16SOL    HW2   63   0.232   1.877   0.321  1.5532 -0.7658 -0.2528
   16SOL     MW   64   0.218   1.793   0.316  0.1180 -0.1058  0.3859
   17SOL     OW   65   1.082   0.820   1.458  0.1025  0.1142  0.2209
   17SOL    HW1   66   1.098   0.842   1.553 -1.3691  0.1784 -0.0639
   17SOL    HW2   67   1.002   0.767   1.458 -2.5408 -0.8590  1.3788
   17SOL     MW   68   1.074   0.816   1.470 -0.4404 -0.0057  0.3361
   18SOL     OW   69   0.025   1.543   0.415 -0.1059  0.2627 -0.1133
   18SOL    HW1   70   0.070   1.607   0.351  1.0987 -1.1881 -1.0785
   18SOL    HW2   71  -0.005   1.470   0.363  2.5010  0.0836  2.2846
   18SOL     MW   72   0.027   1.542   0.400  0.3970  0.0477  0.0757
   19SOL     OW   73   0.130   1.290   1.024 -0.3468  0.3171 -0.1376
   19SOL    HW1   74   0.165   1.332   0.946  0.5670 -2.8755  0.4741
   19SOL    HW2   75   0.049   1.336   1.041  0.0044  0.5373  1.7873
   19SOL     MW   76   0.124   1.302   1.016 -0.1799 -0.0751  0.1971
   20SOL     OW   77   0.456   2.160   1.292 -0.0344 -0.1460  0.2968
   20SOL    HW1   78   0.412   2.083   1.249  2.1010  0.9193  0.3329
   20SOL    HW2   79   0.394   2.213   1.344  1.5051  0.3510 -0.2656
   20SOL     MW   80   0.442   2.157   1.293  0.4505  0.0601  0.2274
   21SOL     OW   81   0.549   0.905   0.357 -0.0757  0.0796 -0.0821
   21SOL    HW1   82   0.593   0.863   0.429 -1.3687  1.7717 -3.0547
   21SOL    HW2   83   0.573   0.855   0.281  0.7087 -1.2476 -0.7504
   21SOL     MW   84   0.558   0.893   0.357 -0.1428  0.1277 -0.5625
   22SOL     OW   85   1.544   0.557   1.140 -0.5582 -0.4866  0.1254
   22SOL    HW1   86   1.569   0.545   1.045 -1.5663  0.4587 -0.9408
   22SOL    HW2   87   1.477   0.623   1.139 -0.5911 -3.7388  1.0316
   22SOL     MW   88   1.538   0.564   1.127 -0.6956 -0.7910  0.1043
   23SOL     OW   89   3.030   0.741   0.739  0.1052  0.3410  0.2580
   23SOL    HW1   90   3.071   0.652   0.750  0.4074 -1.8110 -0.3355
   23SOL    HW2   91   3.113   0.789   0.730 -4.1612  0.3617 -0.2499
   23SOL     MW   92   3.047   0.736   0.739 -0.4179  0.0598  0.1127
   24SOL     OW   93   2.038   2.187   0.036 -0.5996  1.1099 -0.1837
   24SOL    HW1   94   2.016   2.143   0.119 -2.0092 -1.3525  0.0061
   24SOL    HW2   95   2.089   2.117  -0.013 -1.5139 -0.8969  0.4732
   24SOL     MW   96   2.042   2.172   0.041 -0.9062  0.5202 -0.0720
   25SOL     OW   97   0.247   1.441   0.550  1.4186 -0.3863 -0.1629
   25SOL    HW1   98   0.171   1.478   0.503 -3.7327 -0.7616 -1.2394
   25SOL    HW2   99   0.319   1.439   0.485 -0.4578  1.6197 -1.3448
   25SOL     MW  100   0.246   1.445   0.535  0.4914 -0.1712 -0.4608
   26SOL     OW  101   2.053   0.957   0.385  0.4629 -0.4248  0.3313
   26SOL    HW1  102   1.956   0.951   0.381 -0.3354 -1.8076 -1.4222
   26SOL    HW2  103   2.077   1.035   0.321  1.8980  0.4889  0.3380
   26SOL     MW  104   2.043   0.967   0.376  0.5469 -0.4867  0.1008
   27SOL     OW  105   1.973   1.416   0.256  0.2206  0.4353  0.3517
   27SOL    HW1  106   1.895   1.397   0.305  1.2826 -0.5219  0.3905
   27SOL    HW2  107   2.031   1.454   0.325  0.3378  1.3705  2.3533
   27SOL     MW  108   1.971   1.418   0.271  0.3762  0.4324  0.6209
   28SOL     OW  109   0.399   0.955   1.877 -0.0649  0.6526  0.6383
   28SOL    HW1  110   0.331   0.909   1.928  1.8852 -0.9905 -1.5131
   28SOL    HW2  111   0.435   0.887   1.823 -3.8998 -2.3042  0.7621
   28SOL     MW  112   0.395   0.940   1.877 -0.3136  0.0457  0.3707
   29SOL     OW  113   0.245   1.453   0.825  0.1257 -0.2086 -0.4639
   29SOL    HW1  114   0.230   1.544   0.847 -2.2191  1.4609  0.1599
   29SOL    HW2  115   0.231   1.441   0.731 -0.8422  0.8163 -1.9129
   29SOL     MW  116   0.241   1.464   0.815 -0.3114  0.1469 -0.5727
   30SOL     OW  117   0.905   1.018   1.148 -0.2718  0.4103  0.1217
   30SOL    HW1  118   0.838   1.054   1.208  0.2811  2.2502 -1.2198
   30SOL    HW2  119   0.988   1.034   1.200 -0.6713 -0.0602  1.8524
   30SOL     MW  120   0.907   1.025   1.163 -0.2516  0.5910  0.1730
   31SOL     OW  121   0.459   0.272   0.243 -0.0325  0.3733  0.3282
   31SOL    HW1  122   0.460   0.179   0.281  0.4073  0.0746  0.1453
   31SOL    HW2  123   0.442   0.262   0.147  3.2076  3.2701 -3.5395
   31SOL     MW  124   0.457   0.259   0.235  0.4530  0.7161 -0.2063
   32SOL     OW  125   2.690   1.036   1.120  0.3246 -0.2847 -0.2298
   32SOL    HW1  126   2.658   0.945   1.134  0.0707 -1.0736  1.5781
   32SOL    HW2  127   2.786   1.028   1.112 -1.9221  1.7238 -1.4762
   32SOL     MW  128   2.698   1.023   1.121 -0.0053 -0.1238 -0.1557
   33SOL     OW  129   1.752   1.249   0.321 -0.3977 -0.2608 -0.2561
   33SOL    HW1  130   1.759   1.160   0.363 -0.0697  0.4845 -1.3348
   33SOL    HW2  131   1.729   1.313   0.388 -0.4994 -0.2133  1.7247
   33SOL     MW  132   1.750   1.246   0.335 -0.3678 -0.1562 -0.1371
   34SOL     OW  133   1.252   1.854   1.133 -0.8264  0.2105  0.3684
   34SOL    HW1  134   1.159   1.874   1.149  1.5171 -2.3553  1.3036
   34SOL    HW2  135   1.301   1.891   1.213  0.1458  0.3377  1.3680
   34SOL     MW  136   1.246   1.861   1.145 -0.3889 -0.1112  0.6237
   35SOL     OW  137   0.379   0.059   1.869 -0.0877  0.5696  0.3955
   35SOL    HW1  138   0.398   0.002   1.948  0.8330  0.3495  0.8381
   35SOL    HW2  139   0.418   0.002   1.798  2.4524 -3.9691  0.3752
   35SOL     MW  140   0.386   0.044   1.870  0.3689 -0.0583  0.4512
   36SOL     OW  141   1.908   1.952   0.550 -0.0270  0.6591  0.6376
   36SOL    HW1  142   1.930   1.937   0.456  1.7211  1.0327  1.4308
   36SOL    HW2  143   1.885   1.864   0.580  0.5067  0.0708 -0.7790
   36SOL     MW  144   1.908   1.939   0.541  0.2741  0.6308  0.5554
   37SOL     OW  145   1.742   2.006   0.945 -0.2925  0.7057  0.5427
   37SOL    HW1  146   1.714   1.934   0.891 -0.0063  1.5005  3.3451
   37SOL    HW2  147   1.663   2.036   1.007  0.6340  0.1735 -1.8848
   37SOL     MW  148   1.728   2.000   0.946 -0.1325  0.7403  0.5922
   38SOL     OW  149   2.863   0.944   0.206 -0.2381  0.5146 -0.0071
   38SOL    HW1  150   2.895   0.959   0.294 -0.5070 -1.1186 -2.0705
   38SOL    HW2  151   2.924   0.878   0.167  1.4244 -1.2835 -0.8601
   38SOL     MW  152   2.875   0.937   0.213 -0.0542  0.0619 -0.3919
   39SOL     OW  153   1.459   0.695   0.861 -0.0048 -0.0257  0.0435
   39SOL    HW1  154   1.422   0.604   0.866 -0.0341  0.0524  2.5430
   39SOL    HW2  155   1.421   0.741   0.938  2.3703 -0.2302  0.1017
   39SOL     MW  156   1.449   0.689   0.872  0.3047 -0.0424  0.3810
   40SOL     OW  157   1.289   1.878   0.272 -0.2233  0.2914 -0.1384
   40SOL    HW1  158   1.297   1.791   0.310  0.2282 -1.0795 -2.1482
   40SOL    HW2  159   1.307   1.941   0.342  0.1458 -1.1877  0.3643
   40SOL     MW  160   1.292   1.875   0.286 -0.1150 -0.0846 -0.3373
   41SOL     OW  161   0.585   0.523   1.584 -0.4210  0.2145  0.1524
   41SOL    HW1  162   0.667   0.569   1.581  2.4826  0.6679 -0.5559
   41SOL    HW2  163   0.603   0.458   1.653  1.0311  1.4584  2.9792
   41SOL     MW  164   0.598   0.521   1.593  0.1537  0.4384  0.4319
   42SOL     OW  165   1.335   3.068   1.942 -0.1798 -0.3091  0.2744
   42SOL    HW1  166   1.242   3.046   1.965  1.1490  4.2334  1.2082
   42SOL    HW2  167   1.388   2.992   1.979  0.5873  1.0906 -1.5035
   42SOL     MW  168   1.330   3.055   1.950  0.0968  0.4749  0.1630
   43SOL     OW  169   1.610   0.231   1.596 -0.4625  0.1476  0.0018
   43SOL    HW1  170   1.656   0.174   1.532 -1.5495  0.3357 -0.0260
   43SOL    HW2  171   1.530   0.176   1.627  0.1011 -0.0529  1.0200
   43SOL     MW  172   1.606   0.216   1.591 -0.5316  0.1459  0.1324
   44SOL     OW  173   1.325   0.757   1.089 -0.0208 -0.2357  0.6035
   44SOL    HW1  174   1.309   0.847   1.057  0.3620 -0.6790 -0.1681
   44SOL    HW2  175   1.301   0.747   1.182 -1.2454  0.3654  2.7363
   44SOL     MW  176   1.320   0.767   1.097 -0.1319 -0.2149  0.7831
   45SOL     OW  177   1.097   0.732   0.790  0.7139 -0.7346 -0.5720
   45SOL    HW1  178   1.045   0.724   0.873 -1.2629 -0.6621  0.5514
   45SOL    HW2  179   1.130   0.641   0.793 -2.0203  2.1896  1.2258
   45SOL     MW  180   1.094   0.719   0.801  0.0923 -0.3392 -0.1865
   46SOL     OW  181   0.591   1.132   0.596 -0.1850  0.9838 -0.1504
   46SOL    HW1  182   0.579   1.147   0.497 -0.8586  1.0457 -0.9900
   46SOL    HW2  183   0.669   1.079   0.596 -1.8564 -0.0026  0.1810
   46SOL     MW  184   0.600   1.127   0.583 -0.4944  0.8618 -0.2175
   47SOL     OW  185   0.135   1.931   1.831  0.5529 -0.2087  0.1299
   47SOL    HW1  186   0.192   1.874   1.782 -1.0755  1.5081  1.0165
   47SOL    HW2  187   0.119   1.894   1.919 -1.4968  0.3072 -0.6636
   47SOL     MW  188   0.140   1.919   1.836  0.0676  0.0859  0.1422
   48SOL     OW  189   1.023   0.656   1.048  0.3668 -0.1215 -0.2828
   48SOL    HW1  190   0.956   0.693   1.107  0.6381  1.3931 -0.9260
   48SOL    HW2  191   1.100   0.700   1.073  0.8571 -3.4813 -2.5791
   48SOL     MW  192   1.025   0.667   1.059  0.4673 -0.3650 -0.6706
   49SOL     OW  193   1.875   0.751   1.600  0.6509 -0.4375 -0.0268
   49SOL    HW1  194   1.817   0.726   1.684 -2.0953  0.4653 -2.3890
   49SOL    HW2  195   1.935   0.676   1.580 -0.4293 -1.2791  0.9743
   49SOL     MW  196   1.875   0.737   1.609  0.1461 -0.4294 -0.2064
   50SOL     OW  197   1.295   0.986   0.540 -0.2254 -0.4025 -0.8261
   50SOL    HW1  198   1.283   1.020   0.632  0.5272  0.5134 -0.3679
   50SOL    HW2  199   1.303   0.893   0.546 -1.3178  4.1298  1.2054
   50SOL     MW  200   1.295   0.978   0.553 -0.2702  0.3163 -0.4976
   51SOL     OW  201   0.325   2.849   0.932  0.5476 -0.1962  0.8162
   51SOL    HW1  202   0.418   2.817   0.936 -1.3670  2.1868  1.8093
   51SOL    HW2  203   0.316   2.908   1.011  1.2821  0.3752  0.7720
   51SOL     MW  204   0.336   2.852   0.943  0.3919  0.1936  0.9414
   52SOL     OW  205   0.811   1.848   0.387 -0.3037 -0.4554 -0.1459
   52SOL    HW1  206   0.764   1.903   0.447  0.8682  0.7836 -0.6068
   52SOL    HW2  207   0.762   1.871   0.306  0.7608 -0.3878 -0.1396
   52SOL     MW  208   0.798   1.858   0.384 -0.0086 -0.2831 -0.2059
   53SOL     OW  209   0.415   2.049   0.591  0.7205  0.0103 -0.3804
   53SOL    HW1  210   0.361   2.053   0.511  1.9330  1.0823  3.2832
   53SOL    HW2  211   0.416   2.143   0.602  1.1333  4.3876 -2.6913
   53SOL     MW  212   0.408   2.062   0.582  0.9349  0.7293 -0.2020
   54SOL     OW  213   2.214   0.823   0.875 -0.2239 -0.2327  1.0350
   54SOL    HW1  214   2.252   0.786   0.795  2.0423  1.5533  0.6411
   54SOL    HW2  215   2.121   0.819   0.859 -1.0039 -1.3148 -0.6419
   54SOL     MW  216   2.206   0.817   0.862 -0.0278 -0.1398  0.7617
   55SOL     OW  217   0.534   1.471   1.560  0.6002  0.7601  0.1792
   55SOL    HW1  218   0.498   1.498   1.478  1.1776  1.9357  0.0779
   55SOL    HW2  219   0.610   1.413   1.547  0.6060  2.0764  0.9393
   55SOL     MW  220   0.539   1.467   1.548  0.6772  1.0889  0.2661
   56SOL     OW  221   0.541   0.774   0.088  0.2051  0.4605 -0.1734
   56SOL    HW1  222   0.569   0.847   0.028 -2.7091  2.1961  0.1597
   56SOL    HW2  223   0.449   0.778   0.078  1.8219 -0.5454  0.8239
   56SOL     MW  224   0.532   0.784   0.078  0.0339  0.5568  0.0021
   57SOL     OW  225   1.252   1.219   1.175 -0.0841  0.5180 -0.4040
   57SOL    HW1  226   1.341   1.224   1.208  0.2853 -0.1682  0.4484
   57SOL    HW2  227   1.207   1.171   1.250 -1.0649 -0.6575  1.7939
   57SOL     MW  228   1.258   1.213   1.189 -0.1648  0.2723 -0.0015
   58SOL     OW  229   0.697   1.097   1.295  0.0331  0.3094 -0.0295
   58SOL    HW1  230   0.642   1.171   1.264  0.1045 -2.9201 -0.3514
   58SOL    HW2  231   0.644   1.036   1.348 -0.3342  1.9035  2.2010
   58SOL     MW  232   0.683   1.099   1.298 -0.0059  0.0936  0.2223
   59SOL     OW  233   1.521   1.625   0.273 -0.0184  0.4711  0.1872
   59SOL    HW1  234   1.601   1.588   0.311  2.9851  0.3492 -1.0920
   59SOL    HW2  235   1.460   1.651   0.344 -1.3820 -0.1251 -1.1104
   59SOL     MW  236   1.524   1.623   0.287  0.1980  0.3763 -0.1528
   60SOL     OW  237   3.080   0.173   1.623 -0.2629  0.1971 -0.2760
   60SOL    HW1  238   3.021   0.242   1.648  1.6481 -0.9919 -1.0955
   60SOL    HW2  239   3.022   0.094   1.626  1.0347 -0.4510 -2.9560
   60SOL     MW  240   3.065   0.171   1.627  0.1605 -0.0453 -0.7377
   61SOL     OW  241   2.016   1.509   3.078 -0.0520  0.0710  0.4509
   61SOL    HW1  242   2.005   1.508   3.173  1.4494 -0.2122  2.1925
   61SOL    HW2  243   2.031   1.420   3.068 -2.2273  1.7633 -1.4073
   61SOL     MW  244   2.016   1.497   3.089 -0.1409  0.2569  0.4355
   62SOL     OW  245   0.600   1.629   0.581 -0.4539 -0.2455  0.4401
   62SOL    HW1  246   0.666   1.631   0.520  0.6366  0.3202 -0.1751
   62SOL    HW2  247   0.603   1.541   0.619 -2.2028  3.0997 -0.1290
   62SOL     MW  248   0.609   1.617   0.578 -0.5408  0.2705  0.2838
   63SOL     OW  249   1.714   0.710   0.692  0.4367  0.2235 -0.5559
   63SOL    HW1  250   1.693   0.757   0.611 -3.4084 -1.9414 -1.5347
   63SOL    HW2  251   1.647   0.742   0.752  2.1460  3.0319  0.4433
   63SOL     MW  252   1.703   0.721   0.689  0.1549  0.3084 -0.5532
   64SOL     OW  253   0.252   1.705   0.983 -0.4793 -0.1140 -0.4324
   64SOL    HW1  254   0.314   1.722   0.919 -0.4635  1.5798 -0.8501
   64SOL    HW2  255   0.172   1.735   0.940  2.1242 -2.6547 -0.8237
   64SOL     MW  256   0.249   1.711   0.969 -0.1337 -0.2257 -0.5392
   65SOL     OW  257   1.530   2.258   0.325  0.4722  0.9089  0.3039
   65SOL    HW1  258   1.615   2.243   0.278  1.5643  2.6144 -0.8884
   65SOL    HW2  259   1.554   2.322   0.390  3.3609 -2.0639 -2.7614
   65SOL     MW  260   1.544   2.265   0.327  0.9974  0.7417 -0.2578
   66SOL     OW  261   0.312   0.576   0.513  0.0737 -0.6096 -0.4365
   66SOL    HW1  262   0.375   0.516   0.480 -1.4568 -2.9678  0.3370
   66SOL    HW2  263   0.345   0.662   0.491 -0.7328 -1.3679  0.9994
   66SOL     MW  264   0.325   0.579   0.506 -0.2346 -1.0208 -0.1450
   67SOL     OW  265   1.536   0.183   2.035  0.5853 -0.4682 -0.0093
   67SOL    HW1  266   1.555   0.232   1.951 -0.4182  0.3325 -2.1264
   67SOL    HW2  267   1.481   0.102   2.013 -1.8029  0.6725 -0.6726
   67SOL     MW  268   1.531   0.179   2.021  0.1378 -0.2120 -0.3762
   68SOL     OW  269   0.639   0.070   2.969  0.0598  0.1891 -0.2694
   68SOL    HW1  270   0.647   0.084   2.876 -2.8756  1.3787  0.3532
   68SOL    HW2  271   0.670   0.152   3.002 -2.5756 -1.5943 -2.1462
   68SOL     MW  272   0.644   0.083   2.961 -0.6752  0.1108 -0.4349
   69SOL     OW  273   1.072   0.184   1.965 -0.6815  0.3687 -0.4102
   69SOL    HW1  274   1.160   0.219   1.984  1.0764 -3.1553  0.9988
   69SOL    HW2  275   1.072   0.093   1.992 -1.3884  3.1361 -0.2155
   69SOL     MW  276   1.084   0.177   1.971 -0.5428  0.2689 -0.1986
   70SOL     OW  277   0.586   1.816   1.120  0.8499 -0.2180 -0.4752
   70SOL    HW1  278   0.598   1.728   1.158  0.2143 -2.4205 -1.3461
   70SOL    HW2  279   0.660   1.824   1.053 -1.9502  1.0577  0.5472
   70SOL     MW  280   0.598   1.806   1.116  0.3965 -0.3403 -0.4552
   71SOL     OW  281   1.762   0.700   1.237  0.1847 -0.1371 -0.0803
   71SOL    HW1  282   1.749   0.713   1.332 -0.4140  0.9418 -0.4970
   71SOL    HW2  283   1.682   0.662   1.206 -1.9000  0.0481 -0.3588
   71SOL     MW  284   1.750   0.696   1.245 -0.1693  0.0297 -0.1720
   72SOL     OW  285   0.820   1.823   0.990 -0.2544 -0.4989 -0.0804
   72SOL    HW1  286   0.829   1.879   0.913  0.4879  1.4971 -0.0665
   72SOL    HW2  287   0.861   1.739   0.965 -0.8538  0.2499 -1.9007
   72SOL     MW  288   0.826   1.820   0.977 -0.2355 -0.1367 -0.3188
   73SOL     OW  289   1.284   0.666   1.350 -0.1758 -0.1758 -0.0647
   73SOL    HW1  290   1.280   0.573   1.368 -2.9081  0.3027 -0.6844
   73SOL    HW2  291   1.213   0.709   1.399 -0.2816 -1.1455 -2.2117
   73SOL     MW  292   1.274   0.659   1.359 -0.5502 -0.2406 -0.4298
   74SOL     OW  293   2.759   0.122   1.014  0.2382  0.3940  0.2238
   74SOL    HW1  294   2.781   0.035   0.980  2.0409 -0.6979 -0.6109
   74SOL    HW2  295   2.793   0.188   0.953 -2.4216 -0.6058 -0.7185
   74SOL     MW  296   2.766   0.119   1.001  0.1251  0.1180 -0.0107
   75SOL     OW  297   1.633   1.313   0.085 -0.4003  0.3277 -0.0220
   75SOL    HW1  298   1.686   1.311   0.167  0.5869  0.9425 -1.0030
   75SOL    HW2  299   1.658   1.239   0.036 -2.0022  1.1599 -0.1925
   75SOL     MW  300   1.643   1.303   0.090 -0.4814  0.5186 -0.1739
   76SOL     OW  301   2.920   0.670   0.475 -0.2516 -0.0641 -0.3274
   76SOL    HW1  302   2.950   0.685   0.565  0.1480  0.4052  0.9330
   76SOL    HW2  303   2.983   0.605   0.432  2.0584  2.9025 -2.1139
   76SOL     MW  304   2.932   0.664   0.481  0.1059  0.3892 -0.3968
   77SOL     OW  305   0.896   0.409   0.519  0.1459  0.0154 -0.2106
   77SOL    HW1  306   0.855   0.491   0.544 -0.5776  1.3474  0.0190
   77SOL    HW2  307   0.823   0.344   0.491  1.0124  0.6816 -0.9224
   77SOL     MW  308   0.881   0.411   0.519  0.1648  0.2790 -0.2742
   78SOL     OW  309   0.810   0.765   1.202 -1.0194 -0.2977 -0.0894
   78SOL    HW1  310   0.741   0.757   1.141  0.0305 -0.2740  2.6512
   78SOL    HW2  311   0.853   0.850   1.189  0.5153 -1.0876 -1.0227
   78SOL     MW  312   0.807   0.775   1.192 -0.6784 -0.3988  0.1491
   79SOL     OW  313   1.847   1.662   0.595  0.6813  0.5257  0.1455
   79SOL    HW1  314   1.778   1.609   0.566  2.2886  0.9311 -0.3117
   79SOL    HW2  315   1.827   1.675   0.685 -0.9323  0.8860 -0.4125
   79SOL     MW  316   1.836   1.657   0.603  0.6804  0.6267  0.0115
   80SOL     OW  317   0.154   0.985   0.296 -0.2320 -0.0859  0.2511
   80SOL    HW1  318   0.075   0.940   0.338 -1.6492  1.1732 -0.5745
   80SOL    HW2  319   0.219   0.929   0.344 -1.5707  0.0599  0.1108
   80SOL     MW  320   0.152   0.972   0.308 -0.5956  0.0994  0.1237
   81SOL     OW  321   1.916   1.898   0.230 -0.2847  0.5130 -0.1992
   81SOL    HW1  322   1.862   1.868   0.152 -0.0762 -1.4566 -1.3320
   81SOL    HW2  323   1.903   1.990   0.244  0.1494  1.4640  0.7665
   81SOL     MW  324   1.907   1.906   0.222 -0.1999  0.3786 -0.2212
   82SOL     OW  325   0.831   0.976   0.560  0.6846  0.8071 -0.1474
   82SOL    HW1  326   0.909   0.987   0.500 -1.5355 -2.5858  0.1214
   82SOL    HW2  327   0.815   0.880   0.551 -2.1689 -1.7628 -2.7286
   82SOL     MW  328   0.839   0.964   0.551  0.0152  0.0204 -0.4525
   83SOL     OW  329   0.091   0.627   1.384  1.0881  0.0782 -0.0037
   83SOL    HW1  330   0.113   0.722   1.370 -2.2902 -1.3302 -1.5935
   83SOL    HW2  331   0.168   0.591   1.428  0.5021 -3.3748 -0.3613
   83SOL     MW  332   0.104   0.635   1.388  0.5651 -0.5632 -0.2606
   84SOL     OW  333   0.072   0.289   1.039  0.5163 -0.5269 -0.6964
   84SOL    HW1  334  -0.004   0.300   0.981 -1.0374 -0.8287  1.3785
   84SOL    HW2  335   0.072   0.198   1.073 -0.8159 -1.5544 -1.7884
   84SOL     MW  336   0.062   0.279   1.036  0.1355 -0.7023 -0.5667
   85SOL     OW  337   0.413   0.430   0.752  0.2779  0.3642  0.0739
   85SOL    HW1  338   0.376   0.484   0.685  2.3748 -2.6131  4.0338
   85SOL    HW2  339   0.352   0.355   0.771 -1.4901  1.4029  0.1074
   85SOL     MW  340   0.400   0.427   0.745  0.3213  0.1084  0.6008
   86SOL     OW  341   1.187   0.435   1.130  0.2500 -0.0521 -0.0335
   86SOL    HW1  342   1.116   0.483   1.077 -0.9295  1.9935 -2.0988
   86SOL    HW2  343   1.136   0.442   1.214 -0.7711  1.1833  0.2946
   86SOL     MW  344   1.171   0.443   1.134 -0.0404  0.3808 -0.2627
   87SOL     OW  345   1.208   1.454   1.292 -0.3925  0.0256 -0.5215
   87SOL    HW1  346   1.221   1.526   1.232 -0.6060  0.6126 -1.9527
   87SOL    HW2  347   1.232   1.379   1.241 -1.2082  0.2017  0.2936
   87SOL     MW  348   1.213   1.453   1.277 -0.5283  0.1263 -0.6028
   88SOL     OW  349   1.353   1.018   0.997 -0.6910  0.1702 -0.4283
   88SOL    HW1  350   1.440   1.017   1.035 -1.9080  3.9987 -1.2702
   88SOL    HW2  351   1.311   1.088   1.050 -1.4610  0.0826 -0.1650
   88SOL     MW  352   1.359   1.027   1.009 -0.9532  0.6638 -0.5047
   89SOL     OW  353   1.743   0.592   0.306 -0.6053  0.7769  0.8628
   89SOL    HW1  354   1.793   0.556   0.374 -1.3231  2.1672 -1.1675
   89SOL    HW2  355   1.807   0.637   0.250  0.7530 -0.3104 -1.1209
   89SOL     MW  356   1.758   0.593   0.307 -0.5208  0.8169  0.3332
   90SOL     OW  357   0.684   1.210   2.781  0.7413 -0.2264 -0.6928
   90SOL    HW1  358   0.736   1.128   2.790 -0.2683 -2.1181  0.9653
   90SOL    HW2  359   0.686   1.239   2.868  0.1985 -0.4753 -1.2457
   90SOL     MW  360   0.691   1.203   2.794  0.5365 -0.5088 -0.5470
   91SOL     OW  361   2.065   0.696   0.498  0.7524 -0.5368  0.3364
   91SOL    HW1  362   2.077   0.783   0.466 -1.7610  0.5047 -0.0834
   91SOL    HW2  363   2.086   0.637   0.425  0.6194 -3.9463  0.1347
   91SOL     MW  364   2.070   0.700   0.484  0.4032 -0.8492  0.2544
   92SOL     OW  365   1.599   0.806   0.458 -0.4471  0.2327 -0.3924
   92SOL    HW1  366   1.517   0.766   0.489 -2.2827  0.1241 -0.3952
   92SOL    HW2  367   1.628   0.745   0.391 -1.2341  1.6514  1.0495
   92SOL     MW  368   1.592   0.793   0.453 -0.7931  0.4056 -0.2025
   93SOL     OW  369   1.070   0.250   0.323  0.5249 -0.0488  0.1032
   93SOL    HW1  370   1.004   0.311   0.358  2.1478  2.3979  0.3034
   93SOL    HW2  371   1.091   0.279   0.233 -1.4357  1.0313  1.8156
   93SOL     MW  372   1.064   0.262   0.316  0.4803  0.4165  0.3556
   94SOL     OW  373   1.935   1.292   1.644 -0.1823  0.5144  0.2054
   94SOL    HW1  374   1.926   1.341   1.562 -3.0212  0.2764  2.2598
   94SOL    HW2  375   1.874   1.224   1.662  3.5344  1.8605 -0.8709
   94SOL     MW  376   1.926   1.290   1.636 -0.0665  0.6606  0.3344
   95SOL     OW  377   0.867   1.531   0.974 -0.9692 -0.2171 -0.0691
   95SOL    HW1  378   0.917   1.459   1.005  0.7638 -0.0947  1.9623
   95SOL    HW2  379   0.809   1.541   1.041  1.1713  0.9359 -0.8882
   95SOL     MW  380   0.866   1.523   0.987 -0.4581 -0.0488  0.0909
   96SOL     OW  381   1.252   1.802   1.587 -0.5394  0.0179 -0.3403
   96SOL    HW1  382   1.158   1.772   1.572  0.1693  2.6675  1.0903
   96SOL    HW2  383   1.298   1.781   1.508  0.3603  0.9277  1.4955
   96SOL     MW  384   1.245   1.795   1.575 -0.3272  0.4875  0.0907
   97SOL     OW  385   1.265   1.415   0.837  0.0840 -0.7493 -0.3162
   97SOL    HW1  386   1.273   1.478   0.910  0.1955 -4.5871 -1.2380
   97SOL    HW2  387   1.188   1.447   0.789 -0.4306 -2.3918 -0.6530
   97SOL     MW  388   1.256   1.428   0.840  0.0308 -1.4724 -0.4823
   98SOL     OW  389   1.510   1.322   1.175  0.1565  0.2644 -0.3944
   98SOL    HW1  390   1.532   1.412   1.201  1.2733  1.2352 -1.0456
   98SOL    HW2  391   1.520   1.318   1.079  2.9740  1.0509 -0.2259
   98SOL     MW  392   1.514   1.333   1.166  0.6756  0.4962 -0.4581
   99SOL     OW  393   1.527   0.302   1.279  0.5106  0.3358 -0.1861
   99SOL    HW1  394   1.506   0.358   1.211 -0.3055 -0.3595 -1.3995
   99SOL    HW2  395   1.493   0.356   1.352 -3.0489  2.7776 -0.3301
   99SOL     MW  396   1.519   0.317   1.279 -0.0667  0.5662 -0.3652
  100SOL     OW  397   1.082   1.068   1.338 -0.9087 -0.1260  0.6048
  100SOL    HW1  398   1.028   1.110   1.407 -0.8577  1.3273  0.0314
  100SOL    HW2  399   1.095   0.977   1.373 -2.1705  1.2653  1.7507
  100SOL     MW  400   1.076   1.061   1.352 -1.0684  0.2493  0.6803
  101SOL     OW  401   0.607   1.168   0.317  0.0697 -0.3128 -0.3182
  101SOL    HW1  402   0.589   1.070   0.317 -0.8984 -0.9576 -0.2556
  101SOL    HW2  403   0.572   1.198   0.230 -0.5379 -0.6662 -0.7753
  101SOL     MW  404   0.600   1.159   0.306 -0.1382 -0.4445 -0.3703
  102SOL     OW  405   2.954   0.591   0.975 -0.0178  0.0506  0.3230
  102SOL    HW1  406   3.015   0.672   0.971  1.3916  1.4173 -0.3656
  102SOL    HW2  407   2.959   0.559   1.066  0.2723  0.3524 -2.1042
  102SOL     MW  408   2.963   0.597   0.987  0.2065  0.2707 -0.0881
  103SOL     OW  409   1.603   0.357   1.853  0.4814  0.1044  1.1089
  103SOL    HW1  410   1.612   0.312   1.766 -1.5798 -2.6724 -1.7257
  103SOL    HW2  411   1.679   0.345   1.904 -0.3574 -2.4218  0.7117
  103SOL     MW  412   1.614   0.349   1.848  0.0987 -0.5952  0.6825
  104SOL     OW  413   0.113   1.842   1.421  0.2348  0.1413 -0.7649
  104SOL    HW1  414   0.191   1.784   1.420 -1.2293 -1.6443  0.1248
  104SOL    HW2  415   0.048   1.776   1.425  2.0575  4.7492 -0.4385
  104SOL     MW  416   0.115   1.825   1.422  0.2821  0.5137 -0.6045
  105SOL     OW  417   0.162   1.132   0.538  0.3354 -0.1776  0.5715
  105SOL    HW1  418   0.170   1.082   0.450 -0.5830  3.2112 -0.8395
  105SOL    HW2  419   0.189   1.221   0.516  0.8196  0.4839  0.5042
  105SOL     MW  420   0.167   1.137   0.523  0.2781  0.3568  0.3765
  106SOL     OW  421   0.831   0.322   0.935 -0.0144  0.6187 -0.3160
  106SOL    HW1  422   0.782   0.385   0.884  0.7588 -0.1007 -1.3723
  106SOL    HW2  423   0.916   0.302   0.894 -2.0745  0.7110  0.6451
  106SOL     MW  424   0.836   0.328   0.923 -0.1842  0.5360 -0.3285
  107SOL     OW  425   0.802   2.200   3.038  0.1274 -0.5597 -0.2011
  107SOL    HW1  426   0.771   2.128   2.982 -0.7610  0.8325 -1.7363
  107SOL    HW2  427   0.885   2.167   3.074 -0.2781 -0.9708 -0.9415
  107SOL     MW  428   0.809   2.186   3.036 -0.0433 -0.4302 -0.5014
  108SOL     OW  429   1.414   1.585   1.469  0.1667 -0.0745 -1.0029
  108SOL    HW1  430   1.341   1.535   1.432  0.9638  1.3930 -1.2961
  108SOL    HW2  431   1.446   1.552   1.559 -1.8144 -0.0236  3.8409
  108SOL     MW  432   1.408   1.574   1.476  0.0105  0.1258 -0.4025
  109SOL     OW  433   1.963   0.761   0.214  0.1226  0.3752  0.8349
  109SOL    HW1  434   1.973   0.733   0.118 -1.5825  1.0133 -0.8419
  109SOL    HW2  435   2.029   0.827   0.227  0.5032  2.1088  0.7289
  109SOL     MW  436   1.973   0.766   0.203 -0.0522  0.6881  0.5997
  110SOL     OW  437   0.398   1.797   0.705  0.4298  0.2560 -0.3523
  110SOL    HW1  438   0.457   1.728   0.672 -0.9529 -1.7692  0.4404
  110SOL    HW2  439   0.416   1.867   0.648  1.5803 -2.9581 -0.7953
  110SOL     MW  440   0.408   1.797   0.693  0.3992 -0.4353 -0.3062
  111SOL     OW  441   0.728   0.892   1.492  0.1584 -0.5797 -0.1253
  111SOL    HW1  442   0.771   0.809   1.478 -1.6253 -0.5898  0.6538
  111SOL    HW2  443   0.675   0.890   1.574 -0.8611 -1.6265  0.8763
  111SOL     MW  444   0.727   0.881   1.501 -0.2115 -0.7192  0.1096
  112SOL     OW  445   1.306   1.103   1.632  0.1431  0.1116  0.5761
  112SOL    HW1  446   1.251   1.181   1.664 -0.0664  0.1801 -1.0057
  112SOL    HW2  447   1.253   1.025   1.668 -0.6282 -1.1315  2.8746
  112SOL     MW  448   1.292   1.103   1.641  0.0137 -0.0433  0.6706
  113SOL     OW  449   1.364   0.095   1.688  0.0170  0.0696  0.1275
  113SOL    HW1  450   1.375   0.053   1.775 -0.6656  0.6976 -1.2901
  113SOL    HW2  451   1.335   0.019   1.632  0.3453  4.0644  0.0989
  113SOL     MW  452   1.362   0.080   1.692 -0.0298  0.6795 -0.0633
  114SOL     OW  453   0.441   2.806   1.845  0.1811 -0.3495 -0.4874
  114SOL    HW1  454   0.413   2.854   1.922  0.2805  0.7095 -0.3525
  114SOL    HW2  455   0.421   2.865   1.773 -0.4038  0.3345 -2.7784
  114SOL     MW  456   0.435   2.820   1.846  0.1170 -0.1195 -0.7719
  115SOL     OW  457   0.459   0.854   1.088  0.6677 -0.0749 -0.0581
  115SOL    HW1  458   0.480   0.764   1.065 -0.9871  0.8271  1.0386
  115SOL    HW2  459   0.404   0.848   1.164 -2.3200  0.4344 -1.7095
  115SOL     MW  460   0.455   0.841   1.095  0.0552  0.1113 -0.1313
  116SOL     OW  461   0.765   1.009   0.915 -0.2238 -0.1523 -0.1077
  116SOL    HW1  462   0.811   1.056   0.842 -1.0995  1.4200  1.5521
  116SOL    HW2  463   0.824   0.999   0.989  2.8291  0.9016 -0.4755
  116SOL     MW  464   0.779   1.014   0.915  0.0634  0.1942  0.0628
  117SOL     OW  465   1.199   1.129   0.780  0.7259  0.1569  0.2209
  117SOL    HW1  466   1.235   1.073   0.844 -2.7631  3.5775 -2.1687
  117SOL    HW2  467   1.211   1.219   0.805 -1.2720  0.3203 -1.4572
  117SOL     MW  468   1.205   1.134   0.792  0.0020  0.6298 -0.3158
  118SOL     OW  469   3.092   2.957   1.724 -0.1276  0.2552  0.3576
  118SOL    HW1  470   3.105   3.016   1.807  0.7635  0.2686  1.0923
  118SOL    HW2  471   2.997   2.941   1.731  1.3400  0.0006  0.8521
  118SOL     MW  472   3.082   2.962   1.736  0.1836  0.2234  0.5198
  119SOL     OW  473   0.559   1.322   1.205  0.4357  0.1908  0.0137
  119SOL    HW1  474   0.537   1.328   1.107 -1.2639 -0.5391  1.2151
  119SOL    HW2  475   0.474   1.309   1.241  0.8059  1.6039 -2.3348
  119SOL     MW  476   0.545   1.321   1.197  0.2603  0.2809 -0.1376
  120SOL     OW  477   0.217   0.668   0.931 -0.0175  0.4714 -0.2401
  120SOL    HW1  478   0.223   0.643   1.026 -0.0551  0.3613  0.1673
  120SOL    HW2  479   0.271   0.746   0.911  1.0490  1.6920  0.5855
  120SOL     MW  480   0.225   0.675   0.941  0.1183  0.6179 -0.0774
  121SOL     OW  481   1.795   1.031   1.718  0.6158 -0.3036 -0.0216
  121SOL    HW1  482   1.708   1.045   1.691  2.5446  1.3277 -0.7514
  121SOL    HW2  483   1.823   0.949   1.690 -0.7717  1.3970 -1.0395
  121SOL     MW  484   1.787   1.022   1.711  0.6872  0.1360 -0.2522
  122SOL     OW  485   0.105   0.514   0.728  0.0164 -0.1662  0.3357
  122SOL    HW1  486   0.161   0.518   0.651  1.2475 -2.1289  0.3676
  122SOL    HW2  487   0.152   0.561   0.798  0.2597  0.7935  0.4037
  122SOL     MW  488   0.119   0.521   0.727  0.2109 -0.2986  0.3489
  123SOL     OW  489   1.793   1.019   0.466 -0.3505  0.2872 -0.0014
  123SOL    HW1  490   1.709   0.997   0.503  0.2838  0.1967  2.8076
  123SOL    HW2  491   1.846   1.040   0.548  1.2810 -0.1975  0.6823
  123SOL     MW  492   1.789   1.019   0.482 -0.0516  0.2113  0.4594
  124SOL     OW  493   0.670   0.500   0.824 -0.0362  0.3910  0.3359
  124SOL    HW1  494   0.579   0.490   0.793  1.7051 -1.8941 -0.0537
  124SOL    HW2  495   0.686   0.593   0.817 -0.6241 -2.1967 -0.2883
  124SOL     MW  496   0.660   0.511   0.819  0.1160 -0.2519  0.2021
  125SOL     OW  497   0.693   1.666   1.652 -0.5719 -0.1883  0.1419
  125SOL    HW1  498   0.621   1.603   1.638  3.8179  2.1145 -2.0093
  125SOL    HW2  499   0.656   1.754   1.635 -2.1877  1.2690  1.5634
  125SOL     MW  500   0.679   1.670   1.648 -0.2059  0.3078  0.0456
  126SOL     OW  501   2.131   1.613   1.949  0.3284 -0.0257  0.0598
  126SOL    HW1  502   2.181   1.700   1.941  1.0746  0.4106 -0.7070
  126SOL    HW2  503   2.196   1.545   1.956 -2.6354 -0.6767 -1.0823
  126SOL     MW  504   2.146   1.616   1.949  0.0358 -0.0540 -0.1921
  127SOL     OW  505   0.609   0.723   1.901  0.1750 -0.4187 -0.1920
  127SOL    HW1  506   0.685   0.674   1.925  2.2967 -0.5872  0.6280
  127SOL    HW2  507   0.625   0.815   1.929 -0.1224  2.7171  0.6893
  127SOL     MW  508   0.621   0.728   1.908  0.4157 -0.0272  0.0325
  128SOL     OW  509   1.752   0.751   2.886  0.5075  0.6595 -0.3001
  128SOL    HW1  510   1.789   0.718   2.805 -0.6981 -2.3983  2.0374
  128SOL    HW2  511   1.719   0.838   2.860  0.8337 -0.1372  0.6455
  128SOL     MW  512   1.753   0.758   2.872  0.3914  0.1509  0.1330
  129SOL     OW  513   1.482   0.962   0.203  0.0047  0.1117  0.1554
  129SOL    HW1  514   1.436   0.881   0.184  2.6407  0.0893  0.8802
  129SOL    HW2  515   1.517   0.924   0.282  3.3179  0.8274  0.5091
  129SOL     MW  516   1.481   0.947   0.211  0.7896  0.2032  0.2977
  130SOL     OW  517   0.748   1.487   0.362 -0.4313 -0.2876  0.2155
  130SOL    HW1  518   0.800   1.447   0.433  2.5328 -2.6707  1.8904
  130SOL    HW2  519   0.821   1.533   0.313  0.4062  0.9905 -0.2896
  130SOL     MW  520   0.764   1.488   0.365  0.0703 -0.4334  0.3699
  131SOL     OW  521   3.036   0.773   0.062 -0.0117 -0.7298  0.3769
  131SOL    HW1  522   3.032   0.826  -0.025 -1.8683 -0.9927 -2.5118
  131SOL    HW2  523   3.135   0.755   0.082  2.6973  1.4037 -0.3260
  131SOL     MW  524   3.048   0.777   0.053  0.1008 -0.4830 -0.0969
  132SOL     OW  525   2.737   0.167   1.276  0.8954 -0.2715  0.2655
  132SOL    HW1  526   2.751   0.162   1.180  1.8503  0.1208 -0.0813
  132SOL    HW2  527   2.647   0.128   1.291  1.1703 -0.9842 -0.9027
  132SOL     MW  528   2.727   0.161   1.265  1.0577 -0.3138  0.0656
  133SOL     OW  529   1.123   0.201   1.691  0.0221 -0.6526 -0.0265
  133SOL    HW1  530   1.211   0.161   1.685  0.2533  0.4639 -2.7552
  133SOL    HW2  531   1.093   0.195   1.782  1.4777  0.3518  0.7330
  133SOL     MW  532   1.131   0.195   1.702  0.2446 -0.3727 -0.2863
  134SOL     OW  533   1.357   2.508   1.396  0.5654  0.6017 -0.4354
  134SOL    HW1  534   1.286   2.573   1.397  2.2416 -3.2909  0.2166
  134SOL    HW2  535   1.418   2.537   1.466 -0.2230 -1.3251 -3.5285
  134SOL     MW  536   1.356   2.521   1.405  0.6825 -0.1661 -0.7575
  135SOL     OW  537   3.036   0.971   2.965 -0.0690 -0.0577  0.2818
  135SOL    HW1  538   3.106   1.043   2.979  0.9702 -0.7716 -0.1187
  135SOL    HW2  539   2.951   1.016   3.002 -2.7371  0.6765  2.4147
  135SOL     MW  540   3.034   0.986   2.972 -0.2839 -0.0550  0.5104
  136SOL     OW  541   0.271   1.995   0.852  0.5833  0.2312 -0.7046
  136SOL    HW1  542   0.193   1.940   0.868  1.9710 -0.0369  4.1088
  136SOL    HW2  543   0.313   1.942   0.775  4.1786  0.4682 -0.5100
  136SOL     MW  544   0.266   1.981   0.844  1.2408  0.2271 -0.0439
  137SOL     OW  545   0.678   1.997   0.564  0.5423 -0.0562 -0.3167
  137SOL    HW1  546   0.703   1.987   0.657  3.7915  2.6745  0.8811
  137SOL    HW2  547   0.579   2.011   0.563 -1.1236 -0.7797 -2.0655
  137SOL     MW  548   0.668   1.997   0.576  0.7512  0.2086 -0.3894
  138SOL     OW  549   0.536   0.593   1.060 -0.4530 -0.4387  0.4425
  138SOL    HW1  550   0.463   0.536   1.064  0.2294  1.4401 -2.6674
  138SOL    HW2  551   0.593   0.557   0.992 -1.8976 -3.6457 -0.7918
  138SOL     MW  552   0.534   0.580   1.052 -0.5535 -0.6139 -0.1307
  139SOL     OW  553   2.751   0.523   1.415 -0.6820 -0.4160 -0.3075
  139SOL    HW1  554   2.815   0.457   1.413 -0.0066 -1.1935  1.8150
  139SOL    HW2  555   2.808   0.603   1.449  0.5637  0.2612  0.5159
  139SOL     MW  556   2.767   0.525   1.419 -0.4285 -0.4293  0.0812
  140SOL     OW  557   0.864   0.317   2.137 -0.1232  0.3561 -0.2349
  140SOL    HW1  558   0.933   0.275   2.087 -0.8302 -1.2281  0.2536
  140SOL    HW2  559   0.904   0.298   2.226  3.2520  0.9414  3.6353
  140SOL     MW  560   0.878   0.309   2.142  0.2288  0.2243  0.3402
  141SOL     OW  561   1.008   0.608   1.764 -0.1419  0.3670 -0.1356
  141SOL    HW1  562   1.079   0.545   1.726 -0.4588 -1.7463  1.2499
  141SOL    HW2  563   1.049   0.691   1.766 -1.9463  0.6176  1.0568
  141SOL     MW  564   1.023   0.611   1.759 -0.4218  0.1213  0.2045
  142SOL     OW  565   0.929   1.139   0.731  0.1464  0.0827  0.4385
  142SOL    HW1  566   0.894   1.072   0.673 -1.3059  0.6222  1.6344
  142SOL    HW2  567   1.021   1.107   0.761 -1.7301  0.1778  2.4657
  142SOL     MW  568   0.936   1.126   0.727 -0.2928  0.1664  0.8638
  143SOL     OW  569   1.885   0.917   1.119  0.1241 -0.2730 -0.1371
  143SOL    HW1  570   1.922   0.889   1.036  1.2073 -0.6816 -0.5409
  143SOL    HW2  571   1.838   0.841   1.153 -1.0976 -0.1328 -0.2763
  143SOL     MW  572   1.883   0.903   1.112  0.1058 -0.3084 -0.2088
  144SOL     OW  573   0.138   1.170   1.545 -0.0384  0.0913 -0.3198
  144SOL    HW1  574   0.225   1.135   1.560 -1.0158 -1.7494 -1.1631
  144SOL    HW2  575   0.122   1.215   1.629  0.6508  0.9022 -0.3154
  144SOL     MW  576   0.147   1.171   1.558 -0.0764 -0.0446 -0.4305
  145SOL     OW  577   0.285   0.462   1.131  0.5648  0.7225 -0.6152
  145SOL    HW1  578   0.332   0.406   1.189 -3.5998  0.5080  0.7465
  145SOL    HW2  579   0.233   0.392   1.088  0.2529 -2.5808 -2.6203
  145SOL     MW  580   0.284   0.445   1.133 -0.0258  0.2584 -0.7001
  146SOL     OW  581   0.899   1.898   1.399  0.3405 -0.4722 -0.2826
  146SOL    HW1  582   0.934   1.916   1.302 -1.3574  0.6089 -2.1660
  146SOL    HW2  583   0.803   1.901   1.393 -0.0537 -0.9059 -0.0331
  146SOL     MW  584   0.891   1.901   1.385  0.0644 -0.3868 -0.4982
  147SOL     OW  585   0.396   0.449   2.852 -0.5755  0.1109  0.2860
  147SOL    HW1  586   0.340   0.470   2.922  2.1989  0.2934 -2.1984
  147SOL    HW2  587   0.354   0.496   2.782 -0.3636  0.7967 -0.5583
  147SOL     MW  588   0.383   0.458   2.852 -0.1815  0.2255 -0.1532
  148SOL     OW  589   0.043   0.937   1.300  0.4117  0.1804 -0.0107
  148SOL    HW1  590   0.134   0.949   1.317 -0.4790  0.1233  1.1841
  148SOL    HW2  591   0.009   0.946   1.387 -0.7956 -0.7630  3.7324
  148SOL     MW  592   0.050   0.940   1.314  0.1349  0.0484  0.6408
  149SOL     OW  593   1.420   1.120   1.394 -0.1315 -0.1215  0.6617
  149SOL    HW1  594   1.373   1.107   1.482  2.1202 -0.2851  1.8545
  149SOL    HW2  595   1.467   1.205   1.405  1.6774  0.1089  1.9841
  149SOL     MW  596   1.420   1.130   1.407  0.4043 -0.1127  0.9935
  150SOL     OW  597   1.821   1.340   0.748 -0.3047 -0.3428  0.5943
  150SOL    HW1  598   1.855   1.252   0.762  0.0698  0.1582 -0.8951
  150SOL    HW2  599   1.882   1.389   0.798  1.9285 -0.2282 -1.3723
  150SOL     MW  600   1.834   1.334   0.756  0.0394 -0.2616  0.1384
  151SOL     OW  601   1.618   1.791   0.847  0.0020  0.1684  0.4830
  151SOL    HW1  602   1.577   1.795   0.761  3.2236 -0.6802 -0.4108
  151SOL    HW2  603   1.587   1.722   0.907 -0.1693  0.3586 -0.6909
  151SOL     MW  604   1.609   1.782   0.844  0.4045  0.0815  0.2102
  152SOL     OW  605   0.773   1.344   1.544  0.4176  0.5671 -0.1353
  152SOL    HW1  606   0.789   1.253   1.531 -0.2866 -1.0974 -1.3996
  152SOL    HW2  607   0.855   1.397   1.526  0.0848  1.5283  0.2575
  152SOL     MW  608   0.786   1.339   1.540  0.2808  0.4743 -0.2503
  153SOL     OW  609   2.664   1.228   0.688 -0.1112  0.1810 -0.0967
  153SOL    HW1  610   2.727   1.210   0.623  0.0779 -1.2746  1.4347
  153SOL    HW2  611   2.609   1.146   0.686  2.7261  2.0021  1.7495
  153SOL     MW  612   2.665   1.215   0.679  0.2881  0.2292  0.3489
  154SOL     OW  613   0.320   1.778   1.703  0.0814  0.0372 -0.2810
  154SOL    HW1  614   0.364   1.763   1.626 -1.3558  0.9510 -1.1825
  154SOL    HW2  615   0.342   1.699   1.755  0.0006  0.9887  0.0296
  154SOL     MW  616   0.329   1.765   1.700 -0.1189  0.2833 -0.3590
  155SOL     OW  617   1.103   0.725   0.271  0.2872 -0.5065  0.9099
  155SOL    HW1  618   1.128   0.659   0.337 -1.6499 -1.1314  0.0396
  155SOL    HW2  619   1.097   0.806   0.324 -1.2501  0.5987  0.5384
  155SOL     MW  620   1.106   0.727   0.287 -0.1712 -0.4431  0.7461
  156SOL     OW  621   1.510   3.056   1.034 -0.6243 -1.2906  0.2767
  156SOL    HW1  622   1.580   3.123   1.056  0.3303  0.4759  0.7839
  156SOL    HW2  623   1.528   2.974   1.082 -2.4460 -0.3531  1.7390
  156SOL     MW  624   1.522   3.054   1.044 -0.7387 -0.9338  0.5366
  157SOL     OW  625   1.380   1.218   0.125 -0.7188  0.8064 -0.1340
  157SOL    HW1  626   1.398   1.125   0.148 -1.1413 -2.1539  1.7407
  157SOL    HW2  627   1.462   1.263   0.102 -1.4154  0.9262 -0.2756
  157SOL     MW  628   1.393   1.212   0.125 -0.8664  0.4316  0.0947
  158SOL     OW  629   0.380   1.646   2.284 -0.1574  0.1833 -0.1800
  158SOL    HW1  630   0.368   1.738   2.259 -1.8608  1.3489 -0.7657
  158SOL    HW2  631   0.292   1.605   2.282 -1.4470  1.0647 -2.4765
  158SOL     MW  632   0.367   1.652   2.281 -0.5523  0.4534 -0.5603
  159SOL     OW  633   1.304   1.656   0.443  0.2440  0.0665  0.4489
  159SOL    HW1  634   1.278   1.573   0.399  0.6548  4.5430 -0.1497
  159SOL    HW2  635   1.219   1.699   0.470 -0.6774 -0.3051  1.9912
  159SOL     MW  636   1.290   1.651   0.441  0.1766  0.6081  0.5734
  160SOL     OW  637   0.447   1.074   1.545  0.1032 -0.0543 -0.1130
  160SOL    HW1  638   0.444   0.993   1.593  1.6901  1.0572 -1.0541
  160SOL    HW2  639   0.481   1.138   1.607 -0.2228 -1.0571 -0.2109
  160SOL     MW  640   0.451   1.071   1.560  0.2696 -0.0400 -0.2501
  161SOL     OW  641   0.591   2.119   2.706 -0.2005  0.1005 -0.2176
  161SOL    HW1  642   0.516   2.124   2.765 -1.7504  1.2860 -0.3060
  161SOL    HW2  643   0.560   2.093   2.620 -0.6165 -1.3017  4.2455
  161SOL     MW  644   0.577   2.116   2.702 -0.4599  0.0719  0.3596
  162SOL     OW  645   1.034   1.711   1.814 -0.3946 -0.2363 -0.5473
  162SOL    HW1  646   1.032   1.805   1.849 -1.3745 -1.0493  1.2988
  162SOL    HW2  647   0.947   1.672   1.846  2.1540 -1.5404  0.2382
  162SOL     MW  648   1.022   1.718   1.823 -0.1876 -0.5157 -0.2001
  163SOL     OW  649   2.132   0.153   0.976 -0.3732  0.3595 -0.4884
  163SOL    HW1  650   2.110   0.167   0.882 -0.5348 -1.2248  1.7703
  163SOL    HW2  651   2.072   0.087   1.007  1.3912 -0.3129 -0.3406
  163SOL     MW  652   2.121   0.146   0.968 -0.1617  0.0617 -0.1709
  164SOL     OW  653   0.246   0.199   0.819 -0.3509  0.1224 -0.0154
  164SOL    HW1  654   0.157   0.213   0.834 -1.3887 -2.1429 -0.9214
  164SOL    HW2  655   0.257   0.120   0.765  0.6727  1.1343  0.3347
  164SOL     MW  656   0.236   0.191   0.814 -0.3528 -0.0430 -0.0888
  165SOL     OW  657   1.367   1.218   0.414 -0.1451 -0.0104 -0.1964
  165SOL    HW1  658   1.359   1.129   0.447  1.5687  1.3205  1.2073
  165SOL    HW2  659   1.417   1.214   0.335 -2.0897 -0.2753  0.0532
  165SOL     MW  660   1.373   1.206   0.408 -0.1756  0.1302  0.0217
  166SOL     OW  661   0.518   1.076   0.972 -0.6371 -0.1853  0.6044
  166SOL    HW1  662   0.491   1.003   1.032 -2.7332 -1.0789 -0.3691
  166SOL    HW2  663   0.617   1.061   0.968 -0.7604  2.1206 -3.7875
  166SOL     MW  664   0.528   1.064   0.979 -0.9300  0.0010 -0.1035
  167SOL     OW  665   0.915   1.147   0.263 -0.3070 -0.2799 -0.0298
  167SOL    HW1  666   0.821   1.155   0.265  2.9905  0.3527 -0.2280
  167SOL    HW2  667   0.945   1.188   0.182 -2.9857  0.5463 -2.1216
  167SOL     MW  668   0.906   1.153   0.252 -0.2253 -0.0874 -0.3320
  168SOL     OW  669   1.690   1.747   2.887  0.2530 -0.4192  0.2256
  168SOL    HW1  670   1.633   1.814   2.923 -0.9276 -2.2701 -2.2221
  168SOL    HW2  671   1.665   1.658   2.928 -0.2962 -0.9786 -2.0000
  168SOL     MW  672   1.679   1.744   2.897  0.0248 -0.7372 -0.3910
  169SOL     OW  673   0.304   0.926   1.333 -0.4421  0.4017  0.3174
  169SOL    HW1  674   0.373   0.931   1.398  1.3278 -1.0094  1.8108
  169SOL    HW2  675   0.300   1.013   1.289  1.8401  0.8916 -1.5609
  169SOL     MW  676   0.313   0.938   1.336  0.0925  0.2801  0.2666
  170SOL     OW  677   1.033   1.465   1.481  0.2164 -0.0174 -0.3396
  170SOL    HW1  678   0.977   1.544   1.462  0.6807  1.5034 -2.8834
  170SOL    HW2  679   1.083   1.454   1.402 -1.2427  0.4202  2.3367
  170SOL     MW  680   1.032   1.474   1.468  0.0852  0.2410 -0.3221
  171SOL     OW  681   0.597   1.395   0.712  0.1990 -0.5028 -0.2355
  171SOL    HW1  682   0.542   1.394   0.793 -0.9064  1.9715  1.2238
  171SOL    HW2  683   0.608   1.305   0.688  0.3531 -1.8621  0.0768
  171SOL     MW  684   0.591   1.383   0.720  0.0735 -0.3557 -0.0018
  172SOL     OW  685   0.832   0.324   1.217 -0.2427  0.3690  0.2857
  172SOL    HW1  686   0.841   0.326   1.121 -0.6986 -0.9770 -0.7548
  172SOL    HW2  687   0.752   0.370   1.238  2.3618 -2.1492 -1.0520
  172SOL     MW  688   0.823   0.331   1.207  0.0408 -0.1408 -0.0281
  173SOL     OW  689   0.463   1.675   0.321  0.3783  0.2651  0.1439
  173SOL    HW1  690   0.455   1.577   0.312 -1.9574 -2.2115  1.0860
  173SOL    HW2  691   0.499   1.674   0.409  0.9831 -0.3231 -0.9118
  173SOL     MW  692   0.467   1.662   0.332  0.1499 -0.1393  0.1289
  174SOL     OW  693   2.027   0.959   1.518  0.0371 -0.3193 -0.5957
  174SOL    HW1  694   1.985   0.890   1.574 -0.5011 -0.8168  3.0883
  174SOL    HW2  695   1.953   1.019   1.491  1.7423 -1.6749 -1.9790
  174SOL     MW  696   2.012   0.957   1.522  0.1911 -0.5638 -0.2921
  175SOL     OW  697   0.427   1.412   0.354  0.5945  0.6733 -0.2917
  175SOL    HW1  698   0.415   1.406   0.256 -0.6475  0.8286 -3.4515
  175SOL    HW2  699   0.519   1.384   0.365 -1.2267  1.7337  0.3250
  175SOL     MW  700   0.437   1.407   0.342  0.1904  0.8337 -0.6272
  176SOL     OW  701   0.297   1.214   1.259  0.1410 -0.7140 -0.3331
  176SOL    HW1  702   0.241   1.233   1.184  0.5649  1.2912 -1.6054
  176SOL    HW2  703   0.273   1.283   1.327  0.0211  2.8058  3.1584
  176SOL     MW  704   0.287   1.226   1.258  0.1811  0.0150 -0.0403
  177SOL     OW  705   0.623   0.459   1.313  0.7162 -0.0580 -0.1183
  177SOL    HW1  706   0.577   0.522   1.251  0.1361  0.9527 -2.8976
  177SOL    HW2  707   0.604   0.494   1.400  0.8886 -0.3550 -2.3682
  177SOL     MW  708   0.614   0.472   1.316  0.6624  0.0362 -0.7818
  178SOL     OW  709   3.098   0.440   2.950 -0.1399 -0.1485 -0.1170
  178SOL    HW1  710   3.038   0.464   3.025  0.1223 -1.3205 -1.7837
  178SOL    HW2  711   3.041   0.452   2.869  0.8507 -0.1539 -0.9013
  178SOL     MW  712   3.082   0.445   2.949  0.0254 -0.3038 -0.4404
  179SOL     OW  713   1.618   1.336   1.493  0.0129 -0.0114  0.0535
  179SOL    HW1  714   1.596   1.394   1.572  1.2124  3.8515  2.1629
  179SOL    HW2  715   1.710   1.322   1.499 -0.2318 -1.7491 -1.2695
  179SOL     MW  716   1.627   1.342   1.505  0.1389  0.2690  0.1572
  180SOL     OW  717   3.032   0.276   0.488  0.3136  0.5963  0.3590
  180SOL    HW1  718   2.985   0.274   0.400 -1.1735 -1.5367 -1.7810
  180SOL    HW2  719   3.076   0.359   0.483 -1.4034 -0.8685 -0.7692
  180SOL     MW  720   3.031   0.287   0.476 -0.1091  0.1216 -0.0722
  181SOL     OW  721   1.125   1.423   3.080 -0.0322  0.2704 -0.5814
  181SOL    HW1  722   1.142   1.499   3.137  0.3941  2.2399 -2.8191
  181SOL    HW2  723   1.178   1.424   2.995 -3.0453 -1.4132 -0.7060
  181SOL     MW  724   1.134   1.433   3.076 -0.3735  0.3081 -0.8931
  182SOL     OW  725   0.478   0.803   1.657  0.2021  0.0902 -0.6935
  182SOL    HW1  726   0.388   0.777   1.660  1.7404  1.0673  1.8630
  182SOL    HW2  727   0.528   0.734   1.704  2.0858 -1.1640 -2.4743
  182SOL     MW  728   0.473   0.791   1.663  0.6536  0.0537 -0.5911
  183SOL     OW  729   1.620   1.540   1.306  0.2747 -0.2651  0.0787
  183SOL    HW1  730   1.539   1.556   1.360 -2.6267  0.0038  1.1637
  183SOL    HW2  731   1.653   1.463   1.357  2.3463  0.3819  0.5812
  183SOL     MW  732   1.614   1.532   1.320  0.1652 -0.1442  0.2881
  184SOL     OW  733   0.832   0.593   1.975  0.3225  0.8025 -0.2827
  184SOL    HW1  734   0.907   0.573   1.912  0.3617 -0.8021 -3.6079
  184SOL    HW2  735   0.853   0.523   2.045  0.5056  0.3230  0.7609
  184SOL     MW  736   0.845   0.581   1.976  0.3518  0.5276 -0.5837
  185SOL     OW  737   1.115   0.962   1.939  0.1062 -0.1010 -0.0757
  185SOL    HW1  738   1.108   0.884   1.988  1.6016  1.4404 -1.8945
  185SOL    HW2  739   1.160   1.026   2.004  1.1221  1.0919 -0.3665
  185SOL     MW  740   1.120   0.960   1.954  0.4376  0.2597 -0.3541
  186SOL     OW  741   0.368   1.688   1.412  0.4536 -0.5819 -0.3248
  186SOL    HW1  742   0.419   1.745   1.353  1.5835  0.7836 -0.6587
  186SOL    HW2  743   0.323   1.625   1.356 -1.3876 -1.6885  1.9448
  186SOL     MW  744   0.369   1.687   1.397  0.3598 -0.5478 -0.0694
  187SOL     OW  745   1.508   0.672   1.477  0.1382  0.6432 -0.2493
  187SOL    HW1  746   1.478   0.688   1.566 -0.9462 -1.9828 -0.2154
  187SOL    HW2  747   1.429   0.683   1.420  0.6028 -0.4168 -2.1208
  187SOL     MW  748   1.494   0.676   1.481  0.0565  0.1569 -0.4917
  188SOL     OW  749   1.919   1.071   0.721 -0.0483 -0.8321  0.0965
  188SOL    HW1  750   1.927   0.993   0.779  2.2495 -1.2143 -0.6571
  188SOL    HW2  751   2.001   1.061   0.676 -2.9562 -0.8413 -0.3488
  188SOL     MW  752   1.931   1.060   0.723 -0.1288 -0.8837 -0.0617
  189SOL     OW  753   0.662   0.782   0.802  0.3917 -0.5144 -0.0651
  189SOL    HW1  754   0.567   0.796   0.794  2.8913  3.4919  0.4786
  189SOL    HW2  755   0.692   0.865   0.840 -3.2771  1.2378 -0.1839
  189SOL     MW  756   0.653   0.795   0.806  0.2375  0.2454 -0.0091
  190SOL     OW  757   1.858   0.362   1.967 -0.1337 -0.6040 -0.0055
  190SOL    HW1  758   1.864   0.277   1.934  1.3261  0.4699 -1.5997
  190SOL    HW2  759   1.941   0.405   1.938 -0.6153 -0.0197 -1.3628
  190SOL     MW  760   1.870   0.356   1.959 -0.0047 -0.3852 -0.3949
  191SOL     OW  761   1.601   0.932   1.485 -0.5885 -0.2987 -1.4753
  191SOL    HW1  762   1.543   0.995   1.433  0.7628  2.1356  0.8264
  191SOL    HW2  763   1.562   0.844   1.491 -2.0536  0.3374 -0.6781
  191SOL     MW  764   1.588   0.928   1.479 -0.6035  0.1064 -1.0664
  192SOL     OW  765   0.749   1.966   2.921  0.3246  0.1928 -0.4865
  192SOL    HW1  766   0.760   1.991   2.829 -0.0169  0.9587 -0.0606
  192SOL    HW2  767   0.687   1.892   2.919  1.7519 -1.6580 -1.0875
  192SOL     MW  768   0.742   1.959   2.908  0.4679  0.0497 -0.5096
  193SOL     OW  769   1.037   1.561   0.735 -0.0654  0.7503 -0.2519
  193SOL    HW1  770   0.987   1.572   0.818  0.3822  1.1845 -2.2005
  193SOL    HW2  771   0.974   1.501   0.686  1.3568 -2.9628 -1.8288
  193SOL     MW  772   1.022   1.554   0.740  0.1813  0.3177 -0.7170
  194SOL     OW  773   0.460   1.340   0.953  0.0038 -0.2176 -0.1361
  194SOL    HW1  774   0.461   1.241   0.945  2.9414 -0.8773  1.4017
  194SOL    HW2  775   0.383   1.374   0.908  1.5710  1.2799 -1.3064
  194SOL     MW  776   0.450   1.332   0.946  0.5982 -0.1071 -0.0876
  195SOL     OW  777   1.304   1.166   2.961 -0.1940  0.3378  0.6935
  195SOL    HW1  778   1.325   1.187   3.055  1.6161  1.2264  1.5850
  195SOL    HW2  779   1.231   1.102   2.968 -2.9548 -0.2346 -0.0924
  195SOL     MW  780   1.297   1.160   2.975 -0.3194  0.3795  0.7074
  196SOL     OW  781   2.167   1.050   0.603 -0.3013  0.1822  0.1641
  196SOL    HW1  782   2.125   1.016   0.524 -2.0041  1.6096  0.0099
  196SOL    HW2  783   2.178   1.143   0.579  0.5902 -1.0641 -0.7451
  196SOL     MW  784   2.163   1.058   0.589 -0.4083  0.2061  0.0238
  197SOL     OW  785   0.567   1.246   2.009 -0.0625  0.4882 -0.1473
  197SOL    HW1  786   0.583   1.155   2.004 -2.3129  1.0230 -0.0058
  197SOL    HW2  787   0.551   1.261   1.918  2.5503  0.8583  3.0541
  197SOL     MW  788   0.567   1.236   1.996 -0.0147  0.6076  0.2937
  198SOL     OW  789   2.916   1.375   1.052 -0.0021  0.2709 -0.4920
  198SOL    HW1  790   2.917   1.463   1.005  0.7977  1.9471  0.6086
  198SOL    HW2  791   2.823   1.360   1.057  3.2976  3.5067  1.0792
  198SOL     MW  792   2.904   1.385   1.046  0.5388  0.9190 -0.1395
  199SOL     OW  793   0.484   1.276   1.742  0.9250  0.3081  0.0947
  199SOL    HW1  794   0.390   1.250   1.756 -0.1733  0.5636 -1.5214
  199SOL    HW2  795   0.469   1.354   1.692 -4.8843 -1.1497  1.4723
  199SOL     MW  796   0.470   1.283   1.737  0.0136  0.1495  0.0632
  200SOL     OW  797   1.933   3.082   1.322  0.0884  0.6234  0.4091
  200SOL    HW1  798   1.946   3.063   1.226 -0.4146  1.3085 -1.4302
  200SOL    HW2  799   1.839   3.099   1.342  0.5664  1.6939  1.3518
  200SOL     MW  800   1.922   3.082   1.312  0.0851  0.8550  0.2908
  201SOL     OW  801   1.128   0.313   0.809 -0.6093 -0.3967 -0.1818
  201SOL    HW1  802   1.168   0.221   0.821  2.3916 -2.7122 -0.8828
  201SOL    HW2  803   1.132   0.312   0.716  0.0525 -2.5133 -0.1542
  201SOL     MW  804   1.134   0.301   0.799 -0.1260 -0.9815 -0.2706
  202SOL     OW  805   1.583   1.590   1.024 -0.1472  0.0183  0.1116
  202SOL    HW1  806   1.598   1.505   0.980  0.3317  0.7459 -1.1049
  202SOL    HW2  807   1.597   1.579   1.120 -2.3263 -0.6103 -0.5694
  202SOL     MW  808   1.587   1.577   1.031 -0.3715  0.0314 -0.1388
  203SOL     OW  809   3.030   0.466   1.227  0.5225 -0.2639  0.0057
  203SOL    HW1  810   3.077   0.405   1.170  0.6324  0.1695  3.8099
  203SOL    HW2  811   3.091   0.505   1.280 -0.7898 -2.3951 -2.8435
  203SOL     MW  812   3.045   0.463   1.227  0.3639 -0.4879  0.1317
  204SOL     OW  813   1.073   1.766   0.530  0.4117 -0.3513  0.1691
  204SOL    HW1  814   1.043   1.698   0.591  3.1290  0.3696 -1.0703
  204SOL    HW2  815   0.999   1.806   0.482 -0.1517 -0.0208  1.1000
  204SOL     MW  816   1.059   1.762   0.531  0.6959 -0.2126  0.1284
  205SOL     OW  817   1.393   0.075   1.322  0.0725  0.1036  0.2573
  205SOL    HW1  818   1.363   0.057   1.232 -0.6152  0.3572  0.6980
  205SOL    HW2  819   1.448   0.149   1.299 -1.7516  0.1914  0.1268
  205SOL     MW  820   1.396   0.082   1.307 -0.2589  0.1486  0.2982
  206SOL     OW  821   0.525   3.082   1.366 -0.3239 -0.2282  0.1655
  206SOL    HW1  822   0.460   3.045   1.305  1.3452 -1.4778 -0.6548
  206SOL    HW2  823   0.581   3.004   1.401 -0.5153  0.8224 -1.6215
  206SOL     MW  824   0.524   3.067   1.363 -0.1289 -0.2544 -0.1785
  207SOL     OW  825   0.982   1.549   0.213  0.4829 -0.0126  0.0500
  207SOL    HW1  826   1.001   1.646   0.211  3.8694  0.3277  1.4505
  207SOL    HW2  827   1.061   1.504   0.254  1.4282 -0.5775  3.3926
  207SOL     MW  828   0.995   1.556   0.218  1.0544 -0.0422  0.6758
  208SOL     OW  829   0.646   1.571   1.235  0.0331  0.5072 -0.3218
  208SOL    HW1  830   0.720   1.571   1.291  2.0117 -1.2946 -2.1689
  208SOL    HW2  831   0.627   1.474   1.210 -0.5979 -1.8392 -1.1616
  208SOL     MW  832   0.653   1.558   1.239  0.2109 -0.0401 -0.6763
  209SOL     OW  833   1.484   0.488   2.801 -0.5937  0.6166 -0.1380
  209SOL    HW1  834   1.512   0.556   2.862 -0.1235  0.0307  2.3476
  209SOL    HW2  835   1.556   0.422   2.807  1.3250 -1.5922 -1.1777
  209SOL     MW  836   1.497   0.488   2.810 -0.2785  0.2478  0.0528
  210SOL     OW  837   1.572   1.352   0.893 -0.6066  1.0008 -0.3237
  210SOL    HW1  838   1.658   1.342   0.856  0.8582 -0.0522 -0.1326
  210SOL    HW2  839   1.510   1.337   0.822  1.3172 -0.7409 -0.7254
  210SOL     MW  840   1.575   1.349   0.879 -0.1595  0.6320 -0.3515
  211SOL     OW  841   1.713   0.465   0.920 -0.2883  0.3904  0.3714
  211SOL    HW1  842   1.701   0.440   0.823  0.2234 -0.9676  0.9898
  211SOL    HW2  843   1.812   0.486   0.918  2.2664  0.6566 -1.0468
  211SOL     MW  844   1.725   0.464   0.907  0.1163  0.2463  0.2659
  212SOL     OW  845   0.247   1.094   0.044 -0.4091 -0.3618  0.2004
  212SOL    HW1  846   0.229   1.058   0.134 -3.7161  2.8777 -0.0452
  212SOL    HW2  847   0.332   1.055   0.018 -1.1915  1.8711  1.1555
  212SOL     MW  848   0.256   1.084   0.052 -0.9487  0.3602  0.2941
  213SOL     OW  849   0.493   1.687   3.096 -0.6236 -0.1207  0.0942
  213SOL    HW1  850   0.532   1.756   3.151 -0.1705 -1.0185  1.2864
  213SOL    HW2  851   0.499   1.722   3.011 -3.0293  0.0980 -1.9515
  213SOL     MW  852   0.499   1.700   3.092 -0.8812 -0.2103 -0.0184
  214SOL     OW  853   0.627   0.249   2.271  0.1934  0.3358  0.3937
  214SOL    HW1  854   0.555   0.307   2.246  0.3401  2.4939  0.0931
  214SOL    HW2  855   0.693   0.280   2.212  1.4878 -0.2299 -1.8520
  214SOL     MW  856   0.626   0.261   2.260  0.3836  0.5459  0.0577
  215SOL     OW  857   0.501   0.741   2.640 -0.3248  0.5292 -0.2573
  215SOL    HW1  858   0.501   0.690   2.560  0.2344 -1.4249 -0.3537
  215SOL    HW2  859   0.430   0.700   2.690  1.0628  2.6474 -1.4434
  215SOL     MW  860   0.492   0.729   2.636 -0.0679  0.5509 -0.4265
  216SOL     OW  861   3.098   3.080   2.767 -0.0503 -0.3314 -0.8365
  216SOL    HW1  862   3.039   3.044   2.838 -1.4812 -0.2589  1.8572
  216SOL    HW2  863   3.037   3.135   2.711 -2.6954  0.0800 -0.7862
  216SOL     MW  864   3.082   3.083   2.769 -0.5881 -0.2676 -0.4745
  217SOL     OW  865   0.984   1.185   3.099  0.0611 -0.3926 -0.4037
  217SOL    HW1  866   1.035   1.102   3.071  0.3340 -1.2858  0.9294
  217SOL    HW2  867   1.049   1.261   3.079  0.6664  4.5405  0.7766
  217SOL     MW  868   0.999   1.184   3.093  0.1770  0.1405 -0.0721
  218SOL     OW  869   0.916   1.395   2.483 -0.3200 -0.0734 -0.0176
  218SOL    HW1  870   0.901   1.303   2.504  2.5201  1.4974  0.0582
  218SOL    HW2  871   0.996   1.423   2.522 -1.0407 -5.0397  0.3590
  218SOL     MW  872   0.925   1.387   2.491 -0.0404 -0.5214  0.0421
  219SOL     OW  873   1.000   0.426   2.510  0.3475  0.0637 -1.0251
  219SOL    HW1  874   1.061   0.472   2.453  2.8273  0.4709  0.3900
  219SOL    HW2  875   0.952   0.493   2.551  2.5848  1.0383 -1.6651
  219SOL     MW  876   1.002   0.441   2.508  0.9699  0.2460 -0.9229
  220SOL     OW  877   1.756   0.537   2.183 -0.3255 -0.5237  0.4201
  220SOL    HW1  878   1.672   0.578   2.182  1.4943  1.5762 -0.5807
  220SOL    HW2  879   1.764   0.482   2.111 -0.0322  2.9922  1.0781
  220SOL     MW  880   1.746   0.535   2.173 -0.0467  0.2172  0.3749
  221SOL     OW  881   0.407   1.419   2.912  0.0127 -0.3607 -0.1847
  221SOL    HW1  882   0.385   1.333   2.874  3.4689 -1.1737 -3.5486
  221SOL    HW2  883   0.427   1.478   2.838 -1.0611 -3.8872 -0.5512
  221SOL     MW  884   0.407   1.415   2.897  0.3270 -0.9332 -0.6769
  222SOL     OW  885   0.334   0.961   2.652 -0.6132 -0.1100 -0.2676
  222SOL    HW1  886   0.289   0.951   2.571 -1.4952  0.7489 -1.7027
  222SOL    HW2  887   0.405   0.899   2.648 -0.2882  0.1406  0.2285
  222SOL     MW  888   0.337   0.951   2.640 -0.6867  0.0364 -0.3915
  223SOL     OW  889   3.088   1.990   2.633  0.0980 -0.3446 -0.6701
  223SOL    HW1  890   3.152   1.921   2.666  1.6245  2.1178 -0.0855
  223SOL    HW2  891   3.154   2.024   2.565 -0.0721  1.2983  1.6748
  223SOL     MW  892   3.105   1.986   2.628  0.2770  0.1971 -0.2836
  224SOL     OW  893   1.513   0.839   2.584 -0.3616  0.2477  0.2262
  224SOL    HW1  894   1.457   0.832   2.663 -2.5720  0.2902  0.3460
  224SOL    HW2  895   1.506   0.929   2.557  0.2414 -2.3104  0.7867
  224SOL     MW  896   1.505   0.850   2.591 -0.5737 -0.0842  0.3160
  225SOL     OW  897   2.908   1.483   2.227 -0.1392 -0.0422 -0.2661
  225SOL    HW1  898   2.986   1.522   2.184  0.8740  0.6026 -0.3193
  225SOL    HW2  899   2.877   1.557   2.284 -1.9304  2.0276  0.2424
  225SOL     MW  900   2.914   1.498   2.229 -0.2419  0.3160 -0.2060
  226SOL     OW  901   0.394   1.492   2.625 -0.4761 -0.2663 -0.2447
  226SOL    HW1  902   0.481   1.458   2.606  1.7429 -0.3721 -0.4697
  226SOL    HW2  903   0.399   1.584   2.619 -0.2308 -0.9154  0.0424
  226SOL     MW  904   0.406   1.500   2.622 -0.1510 -0.3659 -0.2365
  227SOL     OW  905   0.428   1.140   2.841 -0.2418 -0.3820  0.2504
  227SOL    HW1  906   0.519   1.140   2.804 -1.6008  0.8856  1.6113
  227SOL    HW2  907   0.382   1.095   2.775 -1.6271  0.5805  1.0670
  227SOL     MW  908   0.434   1.134   2.827 -0.6039 -0.0878  0.5377
  228SOL     OW  909   0.688   0.981   1.982  0.1469  0.0454 -0.1475
  228SOL    HW1  910   0.763   1.035   1.943 -2.4258 -0.0811 -2.3507
  228SOL    HW2  911   0.714   0.926   2.056  0.5449  2.7949 -1.5406
  228SOL     MW  912   0.701   0.980   1.987 -0.1400  0.3915 -0.6220
  229SOL     OW  913   0.246   0.500   3.089 -0.2708  0.2229  0.4925
  229SOL    HW1  914   0.158   0.496   3.054  2.5183  0.1612  1.3825
  229SOL    HW2  915   0.246   0.444   3.169  0.6186 -0.0481 -0.5379
  229SOL     MW  916   0.235   0.492   3.095  0.2146  0.1790  0.4740
  230SOL     OW  917   1.770   1.345   2.113 -0.0416 -0.0029 -0.1414
  230SOL    HW1  918   1.741   1.334   2.206  1.5330 -0.5683  1.5064
  230SOL    HW2  919   1.769   1.256   2.071  1.4643  0.7117  0.7070
  230SOL     MW  920   1.766   1.332   2.119  0.3648  0.0168  0.1879
  231SOL     OW  921   2.806   1.240   2.168 -0.3391  0.1627 -0.4226
  231SOL    HW1  922   2.870   1.306   2.181 -0.4111  1.7909  0.0177
  231SOL    HW2  923   2.737   1.262   2.106 -0.1765  0.5313  1.3428
  231SOL     MW  924   2.805   1.251   2.162 -0.3271  0.4261 -0.1316
  232SOL     OW  925   2.280   0.937   2.098  0.1111 -0.6159  0.0705
  232SOL    HW1  926   2.199   0.971   2.054  3.3403 -0.5535 -1.5606
  232SOL    HW2  927   2.248   0.902   2.183 -0.2297 -0.0670  2.8160
  232SOL     MW  928   2.265   0.937   2.103  0.4922 -0.5352  0.2175
  233SOL     OW  929   2.077   0.541   1.936  0.0153 -0.3591  0.1971
  233SOL    HW1  930   2.108   0.565   1.843  1.0337  0.2408 -0.2338
  233SOL    HW2  931   2.149   0.508   1.994 -0.3045 -0.7474 -1.8135
  233SOL     MW  932   2.091   0.540   1.931  0.1075 -0.3312 -0.1251
  234SOL     OW  933   0.253   0.972   2.389  0.4320  0.1755 -0.7600
  234SOL    HW1  934   0.159   1.003   2.381 -0.3972  1.2214 -2.3421
  234SOL    HW2  935   0.309   1.048   2.380 -0.0946  2.3766 -0.9166
  234SOL     MW  936   0.248   0.986   2.387  0.2531  0.6039 -0.9894
  235SOL     OW  937   0.986   3.049   2.790  0.3188 -0.0854 -0.3017
  235SOL    HW1  938   0.995   2.974   2.853  0.3210 -1.4646 -1.3087
  235SOL    HW2  939   0.977   3.131   2.837  0.0476 -1.3820  1.8523
  235SOL     MW  940   0.986   3.050   2.804  0.2833 -0.4385 -0.1503
  236SOL     OW  941   2.936   0.516   0.071 -0.1130  0.5906 -0.4117
  236SOL    HW1  942   2.853   0.534   0.021  1.6651  0.5789 -1.8153
  236SOL    HW2  943   2.982   0.606   0.075 -1.6216 -2.1297 -3.0897
  236SOL     MW  944   2.931   0.530   0.065 -0.0774  0.2302 -0.9502
  237SOL     OW  945   1.766   0.875   2.176  0.2379 -0.0553  0.6739
  237SOL    HW1  946   1.810   0.959   2.142  0.4770  0.9093  0.7181
  237SOL    HW2  947   1.806   0.846   2.258  0.4073  1.0510 -1.9099
  237SOL     MW  948   1.777   0.882   2.182  0.2918  0.2180  0.3388
  238SOL     OW  949   1.107   1.756   2.975 -0.0061 -0.2626 -0.0663
  238SOL    HW1  950   1.040   1.686   2.970 -0.4081 -0.2567  0.4579
  238SOL    HW2  951   1.190   1.701   2.983  0.3094  1.5453  2.5368
  238SOL     MW  952   1.109   1.739   2.975 -0.0175 -0.0233  0.3463
  239SOL     OW  953   1.201   1.382   2.306 -0.5719  0.1421 -0.0817
  239SOL    HW1  954   1.209   1.396   2.398 -1.3654  1.6843  0.0637
  239SOL    HW2  955   1.120   1.329   2.305 -0.7900 -1.3021 -1.2540
  239SOL     MW  956   1.191   1.377   2.318 -0.7054  0.1550 -0.2172
  240SOL     OW  957   0.612   0.835   2.249 -0.4566  0.2275  0.5632
  240SOL    HW1  958   0.625   0.906   2.311 -1.3774 -0.4032  0.4152
  240SOL    HW2  959   0.694   0.794   2.255 -1.6443  0.9140 -0.4913
  240SOL     MW  960   0.624   0.839   2.258 -0.7348  0.2349  0.4045
  241SOL     OW  961   0.651   0.378   2.954 -0.1344 -0.1474  0.5200
  241SOL    HW1  962   0.674   0.440   3.027  4.4734 -2.8438  0.9514
  241SOL    HW2  963   0.563   0.402   2.922  1.1391  0.3234 -0.0790
  241SOL     MW  964   0.643   0.389   2.960  0.6416 -0.4410  0.4979
  242SOL     OW  965   1.437   1.682   2.349  0.6421  0.4489 -0.4460
  242SOL    HW1  966   1.447   1.778   2.363  3.4688  2.9831  1.4842
  242SOL    HW2  967   1.371   1.669   2.282 -0.8848 -0.4750 -0.3152
  242SOL     MW  968   1.429   1.693   2.342  0.8136  0.6614 -0.1741
  243SOL     OW  969   0.991   0.205   2.340 -0.5101 -0.0726 -0.0710
  243SOL    HW1  970   1.075   0.183   2.297 -1.1856  1.6038 -0.0572
  243SOL    HW2  971   1.018   0.264   2.404 -1.7527 -1.1961  0.9386
  243SOL     MW  972   1.006   0.210   2.343 -0.7632  0.0003  0.0641
  244SOL     OW  973   0.201   0.715   2.278  0.1653 -0.1856  0.3201
  244SOL    HW1  974   0.219   0.812   2.298  0.3087 -0.3467 -2.6315
  244SOL    HW2  975   0.283   0.673   2.284 -3.2430  0.6030 -2.4999
  244SOL     MW  976   0.214   0.723   2.281 -0.2655 -0.1028 -0.4414
  245SOL     OW  977   1.236   0.161   2.283 -1.0627  0.1046  0.8938
  245SOL    HW1  978   1.260   0.068   2.282  0.7358 -0.3214 -1.4472
  245SOL    HW2  979   1.308   0.210   2.318 -1.7008  2.5836 -1.6650
  245SOL     MW  980   1.249   0.155   2.288 -0.9096  0.3755  0.2473
  246SOL     OW  981   1.161   1.144   2.154 -0.1191 -0.3452 -0.2143
  246SOL    HW1  982   1.115   1.099   2.227  0.0072  0.6646 -0.6816
  246SOL    HW2  983   1.255   1.160   2.188  2.5226  1.2130  1.0856
  246SOL     MW  984   1.167   1.140   2.168  0.2461 -0.0064 -0.1045
  247SOL     OW  985   0.668   0.525   0.129  0.4763 -0.1888 -0.3152
  247SOL    HW1  986   0.627   0.609   0.115 -0.0094 -2.5458 -0.9023
  247SOL    HW2  987   0.763   0.540   0.126  0.5690 -0.0301 -0.9300
  247SOL     MW  988   0.675   0.538   0.127  0.4245 -0.4789 -0.4737
  248SOL     OW  989   0.436   1.210   2.422  0.1940 -0.2405 -0.1633
  248SOL    HW1  990   0.434   1.285   2.361 -0.6173 -0.3991  1.5405
  248SOL    HW2  991   0.373   1.229   2.495 -0.8988  0.8602  3.4499
  248SOL     MW  992   0.427   1.223   2.424 -0.0572 -0.1162  0.5382
  249SOL     OW  993   0.167   1.790   2.713 -0.2807 -0.2969  0.1473
  249SOL    HW1  994   0.116   1.714   2.682  0.4618 -0.3759 -0.9398
  249SOL    HW2  995   0.198   1.762   2.799 -0.5785 -0.7232  0.3935
  249SOL     MW  996   0.164   1.776   2.721 -0.2220 -0.3636  0.0363
  250SOL     OW  997   2.156   0.882   2.366 -0.0848 -0.2348  0.2708
  250SOL    HW1  998   2.230   0.813   2.366 -1.1071  3.2919  0.4595
  250SOL    HW2  999   2.186   0.956   2.425 -0.7413 -0.5135 -2.2534
  250SOL     MW 1000   2.169   0.883   2.373 -0.3063  0.1938 -0.0374
  251SOL     OW 1001   0.189   0.824   1.996  0.2579  0.0217 -0.1647
  251SOL    HW1 1002   0.155   0.764   2.063 -0.8315 -3.0303 -1.3184
  251SOL    HW2 1003   0.172   0.779   1.919  1.0278  1.3904  1.3181
  251SOL     MW 1004   0.182   0.810   1.994  0.2158 -0.2004 -0.1212
  252SOL     OW 1005   1.701   1.011   2.829  0.8581 -0.4697 -0.4537
  252SOL    HW1 1006   1.710   1.047   2.921  1.7980  1.8080 -0.5703
  252SOL    HW2 1007   1.755   1.055   2.764 -1.2278 -0.4514 -0.7902
  252SOL     MW 1008   1.709   1.022   2.833  0.7069 -0.1668 -0.5135
  253SOL     OW 1009   1.152   1.730   2.556 -0.3011  0.2154  0.1175
  253SOL    HW1 1010   1.136   1.753   2.466  0.0219  0.3442 -0.3283
  253SOL    HW2 1011   1.055   1.740   2.586  1.7520 -1.9879  1.0361
  253SOL     MW 1012   1.137   1.734   2.548  0.0124 -0.0583  0.1799
  254SOL     OW 1013   1.021   1.029   2.343  0.3983 -0.1928 -0.9967
  254SOL    HW1 1014   0.992   0.937   2.347  1.0871  0.2700 -1.1252
  254SOL    HW2 1015   0.954   1.082   2.300  1.8427 -1.1324  0.9076
  254SOL     MW 1016   1.008   1.024   2.338  0.6798 -0.2558 -0.7624
  255SOL     OW 1017   0.792   2.410   2.242  0.5163  0.1396 -0.4687
  255SOL    HW1 1018   0.708   2.366   2.225 -2.0291 -0.3821  2.3608
  255SOL    HW2 1019   0.800   2.410   2.337 -0.0290 -0.0596  0.0119
  255SOL     MW 1020   0.782   2.404   2.252  0.1085  0.0445 -0.0320
  256SOL     OW 1021   1.164   2.832   2.903 -0.4191 -0.8170 -0.3343
  256SOL    HW1 1022   1.200   2.742   2.924 -2.7532 -0.7322 -0.5165
  256SOL    HW2 1023   1.230   2.883   2.850  2.0091  0.6923  0.1778
  256SOL     MW 1024   1.177   2.827   2.899 -0.4067 -0.6066 -0.2908
  257SOL     OW 1025   0.115   1.863   0.043  0.3909 -0.3653  0.4562
  257SOL    HW1 1026   0.145   1.840   0.135 -2.2977  1.6262 -1.6825
  257SOL    HW2 1027   0.154   1.794  -0.014  1.6662  2.0073  1.0729
  257SOL     MW 1028   0.124   1.851   0.048  0.2044  0.2105  0.2554
  258SOL     OW 1029   0.664   1.057   2.469  0.3829 -0.1212  0.3734
  258SOL    HW1 1030   0.679   1.105   2.390  0.4511  0.5322  2.2834
  258SOL    HW2 1031   0.592   1.110   2.500 -1.4066  4.2340 -0.0165
  258SOL     MW 1032   0.657   1.070   2.463  0.1558  0.5397  0.5740
  259SOL     OW 1033   0.656   0.476   2.461  0.9749  0.4617 -0.3142
  259SOL    HW1 1034   0.587   0.528   2.414  0.8076 -1.4391  0.0380
  259SOL    HW2 1035   0.675   0.394   2.404 -0.0851  0.4979 -2.2571
  259SOL     MW 1036   0.650   0.472   2.447  0.8129  0.2157 -0.5241
  260SOL     OW 1037   0.613   0.139   1.590 -0.6977 -0.5422  0.2346
  260SOL    HW1 1038   0.581   0.113   1.504 -3.5941  1.1935  0.8566
  260SOL    HW2 1039   0.706   0.155   1.572  0.5587  0.1561 -0.5202
  260SOL     MW 1040   0.621   0.137   1.576 -0.9141 -0.2211  0.2171
  261SOL     OW 1041   1.116   0.670   2.114  0.4972 -0.4785 -0.0305
  261SOL    HW1 1042   1.125   0.628   2.200  0.0529 -0.6588  0.4325
  261SOL    HW2 1043   1.185   0.639   2.060  1.7077  2.6033  2.0724
  261SOL     MW 1044   1.126   0.661   2.118  0.5983 -0.0957  0.3080
  262SOL     OW 1045   1.128   0.349   0.081  0.0790 -0.1627  0.0463
  262SOL    HW1 1046   1.217   0.314   0.081 -1.2445  0.9542  1.4327
  262SOL    HW2 1047   1.095   0.313   0.004  3.2746  0.8432 -0.4838
  262SOL     MW 1048   1.136   0.340   0.071  0.3260  0.1173  0.1593
  263SOL     OW 1049   0.486   3.019   2.519  0.5163  0.3851  0.4448
  263SOL    HW1 1050   0.403   3.064   2.528 -1.4353  1.4189  1.7458
  263SOL    HW2 1051   0.528   3.039   2.429  0.0487 -2.8065 -2.0088
  263SOL     MW 1052   0.480   3.028   2.508  0.1971  0.1004  0.2928
  264SOL     OW 1053   1.553   1.365   1.948 -0.2174  0.4629  0.0634
  264SOL    HW1 1054   1.486   1.413   1.992  0.3121  0.2557 -1.3836
  264SOL    HW2 1055   1.627   1.365   2.014  1.1339 -1.7906 -0.5623
  264SOL     MW 1056   1.554   1.372   1.962  0.0308  0.1383 -0.2100
  265SOL     OW 1057   0.678   2.742   2.245  0.4233 -0.3500  0.3663
  265SOL    HW1 1058   0.731   2.682   2.194 -3.7113  2.0199  0.2772
  265SOL    HW2 1059   0.699   2.721   2.336  0.9002 -1.7575 -0.7797
  265SOL     MW 1060   0.687   2.732   2.250 -0.0593 -0.2231  0.2034
  266SOL     OW 1061   0.894   0.781   2.266  0.1743  0.6507 -0.4496
  266SOL    HW1 1062   0.951   0.742   2.192 -0.4497 -0.2398 -1.8450
  266SOL    HW2 1063   0.889   0.709   2.334  1.6262 -0.4021  2.1947
  266SOL     MW 1064   0.901   0.767   2.265  0.2836  0.3943 -0.2848
  267SOL     OW 1065   1.378   1.804   2.686  0.2135 -0.5027  0.1117
  267SOL    HW1 1066   1.452   1.741   2.670  2.5978 -2.4722  3.0176
  267SOL    HW2 1067   1.307   1.771   2.637  2.2716  0.2105 -2.4765
  267SOL     MW 1068   1.379   1.791   2.678  0.7996 -0.6684  0.1537
  268SOL     OW 1069   0.196   0.763   1.701 -0.1209 -0.2457  0.0891
  268SOL    HW1 1070   0.120   0.808   1.665 -1.7967 -4.2259 -0.8822
  268SOL    HW2 1071   0.195   0.670   1.678 -1.2121  3.9040  1.9411
  268SOL     MW 1072   0.186   0.757   1.693 -0.4859 -0.2233  0.2053
  269SOL     OW 1073   1.448   1.962   2.444 -0.2994  0.0286  0.1786
  269SOL    HW1 1074   1.458   1.930   2.533  0.7496  1.2943 -4.7704
  269SOL    HW2 1075   1.353   1.988   2.443  2.1273  0.9397  3.8811
  269SOL     MW 1076   1.437   1.961   2.456  0.1591  0.3158  0.0141
  270SOL     OW 1077   1.177   0.458   1.616  0.1830 -0.1705 -0.4699
  270SOL    HW1 1078   1.161   0.370   1.662 -1.8217 -2.0031  0.0423
  270SOL    HW2 1079   1.267   0.449   1.583 -2.1226  1.4167  1.1438
  270SOL     MW 1080   1.187   0.445   1.618 -0.3857 -0.2029 -0.1894
  271SOL     OW 1081   0.870   3.083   2.396 -0.3393 -0.0790 -0.3755
  271SOL    HW1 1082   0.913   3.029   2.468  1.4923  0.4366 -1.0534
  271SOL    HW2 1083   0.937   3.151   2.376  1.2977  1.7220  2.2036
  271SOL     MW 1084   0.885   3.085   2.403  0.1184  0.2266 -0.1247
  272SOL     OW 1085   1.383   2.996   2.823 -0.2221 -0.5783  0.0007
  272SOL    HW1 1086   1.326   3.049   2.769 -0.0867  1.3750 -1.1929
  272SOL    HW2 1087   1.369   3.029   2.917  1.3131  0.5279  0.3433
  272SOL     MW 1088   1.374   3.007   2.828 -0.0017 -0.1746 -0.1116
  273SOL     OW 1089   1.445   0.929   2.885 -0.1247  0.2001  0.2692
  273SOL    HW1 1090   1.522   0.972   2.842 -2.3996 -0.2516 -1.1956
  273SOL    HW2 1091   1.385   0.998   2.910 -0.6365  0.2931 -1.7482
  273SOL     MW 1092   1.447   0.944   2.883 -0.4924  0.1528 -0.1902
  274SOL     OW 1093   1.344   0.731   0.136 -0.3776  0.1678 -0.0915
  274SOL    HW1 1094   1.399   0.659   0.170  0.0495 -0.3841  0.0977
  274SOL    HW2 1095   1.260   0.730   0.194 -0.8899  1.3586  2.2255
  274SOL     MW 1096   1.340   0.721   0.148 -0.3888  0.2521  0.2392
  275SOL     OW 1097   1.704   0.699   1.820  0.1142  0.6680  0.4449
  275SOL    HW1 1098   1.782   0.728   1.873 -1.0442  1.3861 -0.6207
  275SOL    HW2 1099   1.717   0.604   1.811  0.5612  0.2004 -2.0972
  275SOL     MW 1100   1.716   0.691   1.826  0.0203  0.7010 -0.0311
  276SOL     OW 1101   0.252   1.170   1.812 -0.5071  0.1085  0.1091
  276SOL    HW1 1102   0.315   1.105   1.833  0.1730  2.3974  0.0189
  276SOL    HW2 1103   0.211   1.175   1.895  2.5701  0.8547  0.0606
  276SOL     MW 1104   0.255   1.162   1.826 -0.0113  0.5090  0.0908
  277SOL     OW 1105   1.946   1.373   2.653 -0.4638  0.0159 -0.5542
  277SOL    HW1 1106   2.000   1.446   2.687  3.7754 -0.1756  2.1124
  277SOL    HW2 1107   2.003   1.299   2.677  1.7438 -0.8620 -1.4994
  277SOL     MW 1108   1.960   1.373   2.661  0.3868 -0.1252 -0.3271
  278SOL     OW 1109   1.424   0.660   1.734  0.2758 -0.0861  0.2051
  278SOL    HW1 1110   1.388   0.604   1.807  0.0492 -1.5658 -0.7444
  278SOL    HW2 1111   1.514   0.678   1.774  0.6329  0.0717  0.4923
  278SOL     MW 1112   1.431   0.655   1.749  0.2930 -0.2605  0.1177
  279SOL     OW 1113   0.573   3.056   2.278 -0.0715 -0.4261 -0.6698
  279SOL    HW1 1114   0.655   3.003   2.262  0.3549  0.8799  1.2216
  279SOL    HW2 1115   0.598   3.144   2.250 -1.5464  2.6214  3.4799
  279SOL     MW 1116   0.587   3.061   2.272 -0.2099  0.1483  0.1273
  280SOL     OW 1117   1.490   1.152   2.232  0.6244 -0.4185 -0.2169
  280SOL    HW1 1118   1.503   1.071   2.179 -0.9807 -0.5437 -0.2951
  280SOL    HW2 1119   1.501   1.110   2.316  1.5229  0.0704  1.2036
  280SOL     MW 1120   1.493   1.136   2.236  0.5311 -0.3705 -0.0398
  281SOL     OW 1121   1.260   1.421   2.843 -0.0117 -0.2282  0.4831
  281SOL    HW1 1122   1.345   1.468   2.830 -0.8001 -0.5336  0.4930
  281SOL    HW2 1123   1.283   1.332   2.870 -2.5931 -1.8762  2.6356
  281SOL     MW 1124   1.274   1.416   2.845 -0.4563 -0.4859  0.7684
  282SOL     OW 1125   1.113   1.301   1.692  0.7114  0.0044  0.0433
  282SOL    HW1 1126   1.073   1.361   1.625  2.0957  1.6675 -1.4725
  282SOL    HW2 1127   1.069   1.217   1.690 -0.8721 -0.2966  3.5557
  282SOL     MW 1128   1.102   1.298   1.683  0.6851  0.1841  0.3067
  283SOL     OW 1129   0.709   1.227   3.084 -0.0236  0.4876 -0.0008
  283SOL    HW1 1130   0.798   1.193   3.070  0.4753  2.8788  0.0295
  283SOL    HW2 1131   0.712   1.311   3.127  0.4337 -1.5386 -0.7929
  283SOL     MW 1132   0.721   1.234   3.088  0.1026  0.5358 -0.1013
  284SOL     OW 1133   0.474   0.626   2.334  0.1870  0.5253 -0.1307
  284SOL    HW1 1134   0.497   0.719   2.294  0.1647  1.7685  2.4638
  284SOL    HW2 1135   0.460   0.574   2.252 -1.7747  2.0489 -2.1600
  284SOL     MW 1136   0.475   0.631   2.318 -0.0748  0.8903 -0.0561
  285SOL     OW 1137   0.892   0.922   2.835 -0.6231  0.7176  0.4944
  285SOL    HW1 1138   0.911   0.957   2.752  2.1135  0.6102  3.2081
  285SOL    HW2 1139   0.847   0.840   2.807 -1.5428 -2.9744 -0.8045
  285SOL     MW 1140   0.889   0.916   2.821 -0.3834  0.2163  0.6811
  286SOL     OW 1141   1.173   1.461   2.595  0.2715 -0.0191  0.0983
  286SOL    HW1 1142   1.213   1.431   2.682  1.2153 -0.4031 -1.2813
  286SOL    HW2 1143   1.159   1.555   2.592 -0.6544  0.1465  3.0119
  286SOL     MW 1144   1.177   1.469   2.606  0.2739 -0.0479  0.3007
  287SOL     OW 1145   1.045   0.965   0.421 -0.6370  0.0342 -0.4135
  287SOL    HW1 1146   1.128   0.987   0.469  0.3804 -1.0258 -2.2150
  287SOL    HW2 1147   1.014   1.028   0.358 -0.8242 -1.7480  0.0517
  287SOL     MW 1148   1.052   0.976   0.419 -0.5275 -0.3408 -0.5898
  288SOL     OW 1149   1.506   0.646   2.146 -0.5138 -0.4843 -0.3661
  288SOL    HW1 1150   1.496   0.628   2.239  0.5488  0.5834 -2.9803
  288SOL    HW2 1151   1.524   0.738   2.144  1.7854 -2.4631 -1.2793
  288SOL     MW 1152   1.507   0.656   2.158 -0.0702 -0.6046 -0.8315
  289SOL     OW 1153   0.903   1.087   2.578  0.1311  0.0601  0.6668
  289SOL    HW1 1154   0.965   1.036   2.522  0.9486 -0.3321  0.3883
  289SOL    HW2 1155   0.813   1.070   2.538 -1.2039 -0.8853 -3.3105
  289SOL     MW 1156   0.899   1.078   2.565  0.0628 -0.1164  0.1053
  290SOL     OW 1157   0.858   0.631   1.529 -0.0534 -1.3046  0.0498
  290SOL    HW1 1158   0.900   0.574   1.468  0.1306  0.8519  0.0720
  290SOL    HW2 1159   0.899   0.621   1.617 -0.8198 -0.8054  2.1836
  290SOL     MW 1160   0.869   0.622   1.533 -0.1302 -0.9542  0.3343
  291SOL     OW 1161   0.197   0.345   0.218 -0.5070 -0.0689  0.2324
  291SOL    HW1 1162   0.283   0.310   0.224 -2.3451 -1.9679  0.0971
  291SOL    HW2 1163   0.152   0.272   0.176 -0.4951  1.7128  1.4038
  291SOL     MW 1164   0.202   0.331   0.213 -0.7479 -0.0844  0.3691
  292SOL     OW 1165   0.946   0.572   0.089  0.3448 -0.3736  0.1858
  292SOL    HW1 1166   0.999   0.639   0.135 -1.6922 -0.2570  0.6032
  292SOL    HW2 1167   1.000   0.493   0.095  0.7320  1.9722  0.3493
  292SOL     MW 1168   0.960   0.570   0.096  0.1271 -0.0487  0.2624
  293SOL     OW 1169   0.235   0.070   2.498  0.0189 -0.4294  0.2889
  293SOL    HW1 1170   0.159   0.027   2.457 -1.4126  2.0934 -2.0933
  293SOL    HW2 1171   0.202   0.123   2.571 -1.0649 -1.2107 -2.1251
  293SOL     MW 1172   0.221   0.071   2.502 -0.3129 -0.1997 -0.3439
  294SOL     OW 1173   1.469   0.632   2.426 -0.1998 -0.3128 -0.4555
  294SOL    HW1 1174   1.509   0.705   2.477  1.8439  1.6562  0.7720
  294SOL    HW2 1175   1.480   0.548   2.472 -0.1086  1.0741 -1.2984
  294SOL     MW 1176   1.475   0.630   2.439  0.0819  0.1300 -0.4048
  295SOL     OW 1177   0.834   0.665   2.502  1.0284  0.0933 -0.7979
  295SOL    HW1 1178   0.778   0.583   2.486  1.2446  0.8065 -0.3618
  295SOL    HW2 1179   0.816   0.674   2.597  0.1491 -0.5442  0.4362
  295SOL     MW 1180   0.824   0.655   2.512  0.9409  0.1032 -0.5775
  296SOL     OW 1181   1.296   0.313   2.074  0.5136  0.5919  0.1311
  296SOL    HW1 1182   1.387   0.297   2.086  0.3335 -3.1184  4.7510
  296SOL    HW2 1183   1.255   0.267   2.146 -0.1148 -3.0497 -1.1951
  296SOL     MW 1184   1.303   0.305   2.085  0.4069 -0.3781  0.5656
  297SOL     OW 1185   1.415   0.421   1.506  0.2010  0.2438  0.7619
  297SOL    HW1 1186   1.461   0.509   1.516 -0.3248 -1.1909  0.9530
  297SOL    HW2 1187   1.474   0.359   1.547 -0.1988 -1.2415 -1.7194
  297SOL     MW 1188   1.429   0.425   1.512  0.0788 -0.1415  0.4597
  298SOL     OW 1189   1.513   0.921   2.073  0.3478  0.2868  0.2270
  298SOL    HW1 1190   1.517   0.945   1.979  0.2723 -0.4157 -0.3661
  298SOL    HW2 1191   1.606   0.909   2.096 -1.9422 -0.7442 -1.5759
  298SOL     MW 1192   1.526   0.923   2.063  0.0357  0.0581 -0.0891
  299SOL     OW 1193   0.526   1.030   3.090 -0.0431 -0.3343  0.5851
  299SOL    HW1 1194   0.594   1.091   3.111  1.6249  0.6747 -0.0640
  299SOL    HW2 1195   0.512   1.063   2.996  2.4213  1.6935  0.2551
  299SOL     MW 1196   0.533   1.042   3.080  0.5021  0.0664  0.4559
  300SOL     OW 1197   1.228   1.129   2.504  0.2695  0.3091  0.2508
  300SOL    HW1 1198   1.178   1.054   2.468 -2.6243 -1.2897 -2.5160
  300SOL    HW2 1199   1.171   1.200   2.539 -1.4116  2.1687 -0.4145
  300SOL     MW 1200   1.214   1.128   2.504 -0.3341  0.3435 -0.2020
  301SOL     OW 1201   1.373   0.714   0.574 -0.3793  0.1065 -0.3946
  301SOL    HW1 1202   1.389   0.706   0.669  0.4157  0.2678  0.7028
  301SOL    HW2 1203   1.304   0.649   0.561 -0.2659 -3.3423  1.0983
  301SOL     MW 1204   1.366   0.704   0.585 -0.2595 -0.3272 -0.0528
  302SOL     OW 1205   0.136   1.450   1.936 -0.7122  0.2771  0.6513
  302SOL    HW1 1206   0.134   1.413   2.024  0.8570  0.2265 -0.6529
  302SOL    HW2 1207   0.100   1.534   1.951  0.5236 -1.7779  2.6463
  302SOL     MW 1208   0.131   1.456   1.950 -0.3421 -0.0007  0.7424
  303SOL     OW 1209   0.395   1.773   2.579 -0.1274 -0.4147 -0.1742
  303SOL    HW1 1210   0.383   1.737   2.491  1.1723  0.7856 -1.2977
  303SOL    HW2 1211   0.314   1.768   2.628  2.1740 -0.7949 -0.6249
  303SOL     MW 1212   0.383   1.768   2.574  0.3477 -0.3065 -0.3819
  304SOL     OW 1213   0.506   2.073   2.426  1.1171  0.1487 -0.0169
  304SOL    HW1 1214   0.511   2.158   2.382  0.0538 -1.1732 -0.5501
  304SOL    HW2 1215   0.584   2.031   2.383  0.1408  3.0631 -1.1397
  304SOL     MW 1216   0.517   2.079   2.414  0.8480  0.3588 -0.2354
  305SOL     OW 1217   1.164   0.549   0.511 -0.1930 -0.2385  0.3223
  305SOL    HW1 1218   1.070   0.566   0.538 -4.1734  1.2189 -0.6667
  305SOL    HW2 1219   1.189   0.456   0.514 -1.1101 -0.8875 -1.1725
  305SOL     MW 1220   1.155   0.539   0.515 -0.8392 -0.1318 -0.0054
  306SOL     OW 1221   1.230   1.438   0.310 -0.6175 -0.4363  0.0667
  306SOL    HW1 1222   1.258   1.351   0.339 -0.1160  1.4904 -1.8462
  306SOL    HW2 1223   1.284   1.450   0.226  2.0594  3.9652 -1.8937
  306SOL     MW 1224   1.241   1.428   0.303 -0.1981  0.3986 -0.4443
  307SOL     OW 1225   1.319   0.563   1.953  0.4437  0.3208 -0.3724
  307SOL    HW1 1226   1.319   0.468   1.983 -0.8348 -0.2657 -2.1315
  307SOL    HW2 1227   1.381   0.609   2.007 -0.1063  1.9904 -0.4026
  307SOL     MW 1228   1.327   0.556   1.964  0.2025  0.4637 -0.6085
  308SOL     OW 1229   2.103   0.607   2.700  0.1596  0.4384 -0.4652
  308SOL    HW1 1230   2.131   0.517   2.720 -1.9189 -2.3941 -0.9889
  308SOL    HW2 1231   2.189   0.647   2.717 -2.1789  0.5020  0.4346
  308SOL     MW 1232   2.118   0.601   2.705 -0.4232  0.0731 -0.4156
  309SOL     OW 1233   0.560   0.491   0.413  0.0912  0.4906  0.3608
  309SOL    HW1 1234   0.580   0.398   0.429 -0.1162 -0.9844  0.7893
  309SOL    HW2 1235   0.578   0.496   0.318 -3.5603  0.7802 -0.9283
  309SOL     MW 1236   0.565   0.479   0.403 -0.4179  0.3342  0.2473
  310SOL     OW 1237   0.424   0.528   1.915  0.2122  0.2400 -0.0576
  310SOL    HW1 1238   0.495   0.472   1.880  0.2494 -1.3402 -0.0562
  310SOL    HW2 1239   0.467   0.613   1.921  0.7422 -0.8750  1.1739
  310SOL     MW 1240   0.439   0.532   1.911  0.2871 -0.1156  0.1051
  311SOL     OW 1241   1.904   0.754   1.986  0.1748 -0.4469  0.1240
  311SOL    HW1 1242   1.851   0.758   2.067 -0.7302  2.1348  0.4957
  311SOL    HW2 1243   1.978   0.690   1.997 -3.0194 -0.1163  0.3654
  311SOL     MW 1244   1.907   0.746   1.998 -0.3660 -0.0626  0.2049
  312SOL     OW 1245   1.753   2.546   0.000  0.2049 -0.2850  0.0621
  312SOL    HW1 1246   1.798   2.562   0.081 -0.7585  1.4811 -0.7537
  312SOL    HW2 1247   1.662   2.536   0.040 -2.1738 -3.5990  0.0505
  312SOL     MW 1248   1.747   2.547   0.016 -0.2361 -0.4893 -0.0471
  313SOL     OW 1249   0.086   1.235   2.963  0.4502 -0.0393  0.0321
  313SOL    HW1 1250   0.162   1.208   3.019  0.9736  3.9337  2.4823
  313SOL    HW2 1251   0.120   1.251   2.874 -1.6797 -1.5589  0.2050
  313SOL     MW 1252   0.100   1.234   2.958  0.2383  0.2844  0.3782
  314SOL     OW 1253   2.155   3.042   2.964  0.0020 -0.3325 -0.3376
  314SOL    HW1 1254   2.108   3.098   2.892 -0.1453  1.0243  1.7922
  314SOL    HW2 1255   2.200   3.100   3.025 -0.5277  1.1311  0.1820
  314SOL     MW 1256   2.155   3.057   2.963 -0.0873  0.0396  0.0120
  315SOL     OW 1257   1.561   1.970   3.025 -0.1042  0.0779 -0.1804
  315SOL    HW1 1258   1.482   2.002   3.064  0.2432 -0.6675  2.4024
  315SOL    HW2 1259   1.582   2.033   2.952 -0.9520  1.7394 -1.4746
  315SOL     MW 1260   1.554   1.983   3.021 -0.1702  0.1988 -0.0104
  316SOL     OW 1261   1.233   0.671   2.672 -0.2392 -0.1061  0.1541
  316SOL    HW1 1262   1.303   0.624   2.628  0.0545  1.0482  0.8441
  316SOL    HW2 1263   1.229   0.640   2.758 -0.3413  0.8168 -3.3993
  316SOL     MW 1264   1.242   0.661   2.678 -0.2139  0.1680 -0.2237
  317SOL     OW 1265   0.632   1.398   2.572 -0.0589  0.4567  0.2080
  317SOL    HW1 1266   0.660   1.324   2.620  1.8439  3.7481 -0.4938
  317SOL    HW2 1267   0.698   1.435   2.514 -3.3730 -0.4993  1.5409
  317SOL     MW 1268   0.645   1.393   2.570 -0.2451  0.7648  0.2913
  318SOL     OW 1269   1.284   0.335   2.899  0.5452  0.0399 -0.0228
  318SOL    HW1 1270   1.187   0.368   2.901  1.4633  0.9616  0.5500
  318SOL    HW2 1271   1.340   0.413   2.881 -1.0928  1.0671 -1.3529
  318SOL     MW 1272   1.278   0.349   2.897  0.4502  0.2970 -0.1227
  319SOL     OW 1273   0.819   0.403   2.759  0.0682 -0.1776  0.3297
  319SOL    HW1 1274   0.791   0.350   2.684  2.4871  2.6571  0.4099
  319SOL    HW2 1275   0.761   0.381   2.833 -0.9322 -0.2280  0.7542
  319SOL     MW 1276   0.807   0.393   2.759  0.2554  0.1898  0.3963
  320SOL     OW 1277   1.004   1.324   2.023 -0.4529  0.2636 -0.1041
  320SOL    HW1 1278   1.055   1.268   2.088  2.4315 -0.8676  0.6339
  320SOL    HW2 1279   1.074   1.391   2.000  0.2849  0.8240  1.4769
  320SOL     MW 1280   1.020   1.326   2.028  0.0250  0.1883  0.2018
  321SOL     OW 1281   1.097   0.957   3.004 -0.0838 -0.1471  0.2452
  321SOL    HW1 1282   1.010   0.928   2.964 -2.3166 -0.6130  2.7002
  321SOL    HW2 1283   1.152   0.877   2.986  0.7549  1.8070  0.3690
  321SOL     MW 1284   1.093   0.942   2.996 -0.2677  0.0493  0.5855
  322SOL     OW 1285   1.198   0.819   1.704 -0.3966 -0.2994  0.4745
  322SOL    HW1 1286   1.272   0.762   1.703 -1.6911 -0.2506 -1.1367
  322SOL    HW2 1287   1.182   0.854   1.792 -1.8702 -0.3697  0.9960
  322SOL     MW 1288   1.205   0.816   1.716 -0.7618 -0.3022  0.3308
  323SOL     OW 1289   1.181   1.498   1.886  0.0156 -0.1287  0.0352
  323SOL    HW1 1290   1.164   1.439   1.812  1.5175 -2.9758 -2.7211
  323SOL    HW2 1291   1.142   1.587   1.858 -0.2586 -0.4173 -1.3403
  323SOL     MW 1292   1.173   1.502   1.872  0.1776 -0.5424 -0.5100
  324SOL     OW 1293   1.504   1.086   2.484  0.6258  0.1737 -0.0303
  324SOL    HW1 1294   1.409   1.100   2.503 -0.5502  0.9171  1.5642
  324SOL    HW2 1295   1.576   1.135   2.524  0.8532  1.5400 -2.5517
  324SOL     MW 1296   1.501   1.094   2.492  0.5007  0.4521 -0.1526
  325SOL     OW 1297   1.051   0.483   2.911  0.1400 -0.0199 -0.5756
  325SOL    HW1 1298   1.007   0.531   2.978  2.7339  1.5937  1.8919
  325SOL    HW2 1299   0.980   0.461   2.846  0.4162 -0.1641 -1.2456
  325SOL     MW 1300   1.036   0.487   2.911  0.5187  0.1740 -0.3384
  326SOL     OW 1301   0.387   1.386   2.196 -0.1635 -0.6630  0.3680
  326SOL    HW1 1302   0.451   1.345   2.138  2.0223 -3.7631  1.7455
  326SOL    HW2 1303   0.405   1.478   2.176  2.3684 -0.3708 -0.9433
  326SOL     MW 1304   0.398   1.393   2.186  0.4590 -1.0335  0.3767
  327SOL     OW 1305   1.909   0.834   2.403 -0.4100  0.4648 -0.5348
  327SOL    HW1 1306   1.886   0.791   2.489 -1.2559  0.0917  1.2203
  327SOL    HW2 1307   2.006   0.840   2.390  0.1999  0.6226 -1.4659
  327SOL     MW 1308   1.919   0.829   2.413 -0.4411  0.4364 -0.4261
  328SOL     OW 1309   0.125   1.332   2.189  0.7257  0.2633  0.5014
  328SOL    HW1 1310   0.088   1.245   2.163 -0.4455  0.9778 -0.7734
  328SOL    HW2 1311   0.219   1.325   2.185 -1.1461 -1.2039  1.1091
  328SOL     MW 1312   0.133   1.319   2.185  0.3242  0.1640  0.4134
  329SOL     OW 1313   0.118   0.169   1.386 -0.2130  0.0165 -0.1994
  329SOL    HW1 1314   0.061   0.167   1.460  2.1580 -2.4276 -3.5374
  329SOL    HW2 1315   0.184   0.237   1.403  0.6086 -2.1869  0.6946
  329SOL     MW 1316   0.119   0.178   1.398  0.2082 -0.5967 -0.5218
  330SOL     OW 1317   0.401   2.973   2.071  0.3240  0.5047 -0.4083
  330SOL    HW1 1318   0.457   3.002   2.140 -2.3163 -1.2222 -1.0223
  330SOL    HW2 1319   0.313   2.944   2.115 -2.8802  2.1803 -1.0830
  330SOL     MW 1320   0.397   2.973   2.086 -0.4471  0.4979 -0.5783
  331SOL     OW 1321   0.816   1.203   2.261  0.5601 -0.1498  0.1410
  331SOL    HW1 1322   0.780   1.199   2.168 -0.4784  1.4566 -2.0039
  331SOL    HW2 1323   0.826   1.294   2.289  0.0497  1.1850  0.6475
  331SOL     MW 1324   0.813   1.215   2.252  0.3558  0.2383 -0.0752
  332SOL     OW 1325   1.408   1.755   2.968 -0.6787  0.4698 -0.1590
  332SOL    HW1 1326   1.391   1.766   2.873 -2.1817  0.7352  0.1811
  332SOL    HW2 1327   1.452   1.834   2.990  0.4160 -0.5099  0.8359
  332SOL     MW 1328   1.412   1.767   2.958 -0.7326  0.3755  0.0172
  333SOL     OW 1329   1.723   1.505   3.015 -0.2715  0.4684 -0.1721
  333SOL    HW1 1330   1.813   1.491   3.039 -1.1970  0.8602 -0.3521
  333SOL    HW2 1331   1.679   1.444   3.075 -1.1877  0.5707 -0.8306
  333SOL     MW 1332   1.729   1.495   3.026 -0.5145  0.5336 -0.2827
  334SOL     OW 1333   1.222   3.095   2.638  0.1631 -0.0105  0.7602
  334SOL    HW1 1334   1.142   3.099   2.685  3.4438 -1.6149 -2.7083
  334SOL    HW2 1335   1.264   3.184   2.642  1.1416 -0.3517 -0.0396
  334SOL     MW 1336   1.217   3.107   2.645  0.7250 -0.2672  0.1971
  335SOL     OW 1337   1.268   0.743   2.980  0.1267 -0.1085  0.5238
  335SOL    HW1 1338   1.299   0.748   3.075 -2.0246  1.9494  3.9521
  335SOL    HW2 1339   1.321   0.805   2.930 -1.2472 -1.2593  0.8477
  335SOL     MW 1340   1.279   0.752   2.986 -0.3384  0.0112  1.0188
  336SOL     OW 1341   0.898   1.112   1.864 -0.1665  0.7815  0.2501
  336SOL    HW1 1342   0.914   1.198   1.897  0.3110  1.3931  0.1341
  336SOL    HW2 1343   0.967   1.052   1.881  1.1500 -1.2451 -3.8368
  336SOL     MW 1344   0.909   1.115   1.871  0.0702  0.5948 -0.3044
  337SOL     OW 1345   0.543   1.766   2.840 -0.6708  0.3015  0.2051
  337SOL    HW1 1346   0.510   1.794   2.751 -1.3812  2.1810 -0.9886
  337SOL    HW2 1347   0.601   1.687   2.820  0.1823 -0.3437 -0.4909
  337SOL     MW 1348   0.547   1.759   2.826 -0.6519  0.4643 -0.0442
  338SOL     OW 1349   1.063   0.833   2.524  0.4666 -0.2505 -0.0544
  338SOL    HW1 1350   0.976   0.789   2.511  0.0350  0.4189  2.5586
  338SOL    HW2 1351   1.095   0.788   2.607  0.3782 -3.3462  3.0793
  338SOL     MW 1352   1.056   0.822   2.533  0.3980 -0.5706  0.7038
  339SOL     OW 1353   1.518   1.121   1.831  0.5496 -0.5540 -0.0202
  339SOL    HW1 1354   1.445   1.122   1.767 -0.5524  1.8501  0.8108
  339SOL    HW2 1355   1.528   1.207   1.871  2.0769 -3.5890 -0.3399
  339SOL     MW 1356   1.510   1.132   1.828  0.6057 -0.6372  0.0473
  340SOL     OW 1357   1.332   1.603   0.076  0.2603  0.3263  0.6694
  340SOL    HW1 1358   1.368   1.649   0.004 -1.1699 -2.2372  0.0063
  340SOL    HW2 1359   1.405   1.589   0.139  1.6270  1.1810 -3.3773
  340SOL     MW 1360   1.346   1.607   0.075  0.2519  0.1008  0.0480
  341SOL     OW 1361   0.180   1.349   2.669  0.2609 -0.3438  0.2717
  341SOL    HW1 1362   0.263   1.390   2.636 -0.2339  2.1108 -0.4139
  341SOL    HW2 1363   0.123   1.330   2.591 -0.4717  2.2548 -3.6340
  341SOL     MW 1364   0.184   1.352   2.654  0.0989  0.3229 -0.3341
  342SOL     OW 1365   1.409   0.289   0.076 -0.3302 -0.0321 -0.6078
  342SOL    HW1 1366   1.444   0.369   0.123  1.5476  0.5084  0.2501
  342SOL    HW2 1367   1.409   0.306  -0.018 -0.7244 -1.2998 -2.1767
  342SOL     MW 1368   1.413   0.301   0.070 -0.1345 -0.1280 -0.7016
  343SOL     OW 1369   0.194   0.302   2.318  0.5964 -0.0277 -0.4407
  343SOL    HW1 1370   0.238   0.222   2.353 -0.0930 -1.4638  1.0602
  343SOL    HW2 1371   0.135   0.265   2.245 -0.2988 -0.9775  0.6418
  343SOL     MW 1372   0.192   0.286   2.313  0.3873 -0.3425 -0.0998
  344SOL     OW 1373   1.716   2.149   0.155 -0.3805 -0.6488  0.8865
  344SOL    HW1 1374   1.734   2.180   0.066 -1.3356  0.1914  2.3991
  344SOL    HW2 1375   1.647   2.081   0.146  2.7152  0.3298 -0.9124
  344SOL     MW 1376   1.710   2.144   0.142 -0.0981 -0.4088  0.8488
  345SOL     OW 1377   0.675   1.618   2.351  0.2754 -0.0426  0.0077
  345SOL    HW1 1378   0.580   1.612   2.329 -1.3617 -0.4568 -1.1935
  345SOL    HW2 1379   0.727   1.577   2.278 -1.6413 -0.7030  0.0420
  345SOL     MW 1380   0.669   1.611   2.338 -0.1935 -0.1844 -0.1462
  346SOL     OW 1381   1.698   1.043   0.020 -0.1266  0.2804  0.4409
  346SOL    HW1 1382   1.791   1.048   0.045 -2.8602 -0.5561  1.6147
  346SOL    HW2 1383   1.652   1.015   0.099  1.8116 -1.5670 -1.8905
  346SOL     MW 1384   1.704   1.040   0.033 -0.2316 -0.0737  0.2882
  347SOL     OW 1385   1.180   0.610   2.381 -0.0022 -0.6037  0.4084
  347SOL    HW1 1386   1.280   0.604   2.385 -0.9604  2.1677 -1.1619
  347SOL    HW2 1387   1.164   0.680   2.439 -0.1654  0.4788 -0.8826
  347SOL     MW 1388   1.191   0.618   2.389 -0.1502 -0.0952  0.0309
  348SOL     OW 1389   1.366   2.633   1.880 -0.2428  0.1321  0.3031
  348SOL    HW1 1390   1.416   2.560   1.924  3.3264 -0.0736  2.6815
  348SOL    HW2 1391   1.376   2.716   1.927 -0.3870 -1.7335  0.8291
  348SOL     MW 1392   1.373   2.635   1.892  0.2091 -0.1412  0.6863
  349SOL     OW 1393   1.370   0.216   2.678  0.4703  0.7069 -0.5512
  349SOL    HW1 1394   1.331   0.250   2.762 -0.1534 -3.8747  0.5366
  349SOL    HW2 1395   1.454   0.167   2.704  0.4827  0.4374 -0.1018
  349SOL     MW 1396   1.376   0.214   2.693  0.3896  0.0669 -0.3484
  350SOL     OW 1397   1.864   0.685   2.637 -0.3838  0.6717 -0.1236
  350SOL    HW1 1398   1.834   0.596   2.612  0.1406 -0.5206 -2.2346
  350SOL    HW2 1399   1.958   0.668   2.658  1.2388 -0.3449 -1.5471
  350SOL     MW 1400   1.873   0.671   2.636 -0.1005  0.3802 -0.5900
  351SOL     OW 1401   3.095   0.930   1.584  0.2598  0.2405  0.5969
  351SOL    HW1 1402   3.005   0.935   1.611  0.5156 -1.9513  0.0096
  351SOL    HW2 1403   3.129   1.020   1.589 -0.2212  1.0757 -1.9058
  351SOL     MW 1404   3.088   0.943   1.589  0.2301  0.0615  0.1892
  352SOL     OW 1405   0.779   1.611   2.759 -0.0735  0.4902 -0.3031
  352SOL    HW1 1406   0.814   1.568   2.847 -1.6090  0.7690  4.3249
  352SOL    HW2 1407   0.724   1.548   2.717  0.0248 -0.5617 -0.3547
  352SOL     MW 1408   0.777   1.597   2.765 -0.2631  0.3882  0.3007
  353SOL     OW 1409   3.035   2.401   2.759 -0.8053 -0.1424  0.4226
  353SOL    HW1 1410   3.110   2.375   2.709 -1.5319  0.2287 -0.4105
  353SOL    HW2 1411   3.008   2.485   2.719  0.6255 -0.2696  0.7708
  353SOL     MW 1412   3.041   2.408   2.747 -0.7124 -0.1102  0.3586
  354SOL     OW 1413   0.404   2.402   0.878  0.2129 -0.3623 -0.1950
  354SOL    HW1 1414   0.429   2.392   0.974 -2.3904 -0.9230 -1.3489
  354SOL    HW2 1415   0.323   2.350   0.876 -1.4444 -0.2425 -0.1426
  354SOL     MW 1416   0.397   2.394   0.891 -0.3492 -0.4205 -0.3403
  355SOL     OW 1417   0.084   2.252   0.382  0.0932 -0.3168  0.5837
  355SOL    HW1 1418  -0.006   2.212   0.384 -2.1628 -0.9367 -0.3940
  355SOL    HW2 1419   0.083   2.298   0.467  0.7050 -0.7672 -1.5506
  355SOL     MW 1420   0.072   2.253   0.394 -0.1237 -0.4580  0.1731
  356SOL     OW 1421   0.789   2.982   1.012  0.1663 -0.3925  0.7034
  356SOL    HW1 1422   0.857   2.968   0.946  0.9915  0.8076 -1.5428
  356SOL    HW2 1423   0.727   2.913   0.992  1.5328  0.6391  2.1004
  356SOL     MW 1424   0.790   2.971   1.000  0.4555 -0.0981  0.5913
  357SOL     OW 1425   1.803   2.942   0.365 -0.5268 -0.5614  0.0883
  357SOL    HW1 1426   1.748   2.893   0.427 -0.3653 -0.7655  1.2183
  357SOL    HW2 1427   1.881   2.898   0.333 -1.2442  0.7237  2.8634
  357SOL     MW 1428   1.806   2.930   0.369 -0.6002 -0.4187  0.6035
  358SOL     OW 1429   0.427   0.180   1.049 -1.1639 -0.1370 -0.7431
  358SOL    HW1 1430   0.513   0.147   1.020  1.9582 -2.5969 -0.4631
  358SOL    HW2 1431   0.369   0.185   0.971 -0.5982  2.2434 -1.7265
  358SOL     MW 1432   0.431   0.176   1.035 -0.6773 -0.1475 -0.8359
  359SOL     OW 1433   0.981   2.771   1.854  0.7201 -0.2913 -0.9722
  359SOL    HW1 1434   0.927   2.746   1.924  0.2776  1.5019 -0.0500
  359SOL    HW2 1435   1.018   2.699   1.802  3.5034  0.8280 -1.3836
  359SOL     MW 1436   0.979   2.758   1.856  1.0290  0.0930 -0.9048
  360SOL     OW 1437   0.604   2.776   0.921  0.7992  0.3335  0.6286
  360SOL    HW1 1438   0.621   2.731   0.839  1.2783  0.1044 -0.8373
  360SOL    HW2 1439   0.608   2.721   1.006  0.9359 -1.6826 -1.4803
  360SOL     MW 1440   0.606   2.763   0.921  0.8805  0.0372  0.1570
  361SOL     OW 1441   0.163   2.762   1.359 -0.6210  0.0558 -0.5606
  361SOL    HW1 1442   0.133   2.844   1.395  1.8918 -2.8531 -1.5028
  361SOL    HW2 1443   0.260   2.764   1.374 -1.9709 -3.4554  3.1066
  361SOL     MW 1444   0.172   2.773   1.365 -0.4675 -0.7912 -0.2011
  362SOL     OW 1445   1.484   2.395   0.588  0.0168  0.2811 -0.1787
  362SOL    HW1 1446   1.470   2.326   0.658  2.3950 -0.2129  0.9114
  362SOL    HW2 1447   1.501   2.468   0.647 -2.3943  0.1608 -1.8900
  362SOL     MW 1448   1.485   2.395   0.605  0.0125  0.2001 -0.2606
  363SOL     OW 1449   0.211   3.027   0.734  0.0713  0.4586  0.7082
  363SOL    HW1 1450   0.203   2.972   0.807  1.1609  1.5947 -1.0499
  363SOL    HW2 1451   0.128   3.064   0.706 -0.3575 -1.3446 -1.6296
  363SOL     MW 1452   0.199   3.024   0.740  0.1585  0.3706  0.1678
  364SOL     OW 1453   0.733   0.195   0.168 -0.0723 -0.0766 -0.6315
  364SOL    HW1 1454   0.714   0.101   0.183 -1.6534 -2.9174 -0.6385
  364SOL    HW2 1455   0.649   0.245   0.165  1.0883 -1.6255 -0.5699
  364SOL     MW 1456   0.719   0.189   0.170 -0.1278 -0.6558 -0.6243
  365SOL     OW 1457   0.991   1.970   1.132  0.2607 -0.2482 -0.1541
  365SOL    HW1 1458   0.963   2.050   1.095  0.4928 -1.0204 -0.1237
  365SOL    HW2 1459   0.939   1.906   1.091  2.9857 -0.2275 -1.9635
  365SOL     MW 1460   0.981   1.972   1.121  0.6508 -0.3474 -0.3888
  366SOL     OW 1461   2.868   2.680   1.037  0.1747  0.2969  0.4753
  366SOL    HW1 1462   2.949   2.654   1.094  1.3495 -0.6242 -2.1566
  366SOL    HW2 1463   2.899   2.688   0.946 -1.9198 -0.6838 -1.9248
  366SOL     MW 1464   2.883   2.678   1.032  0.0533  0.0460 -0.1886
  367SOL     OW 1465   1.291   2.913   0.889  0.0464  0.3165  0.1028
  367SOL    HW1 1466   1.218   2.924   0.947  4.5209 -1.1461 -1.1992
  367SOL    HW2 1467   1.258   2.857   0.813 -1.0063 -1.3803 -0.2345
  367SOL     MW 1468   1.277   2.907   0.887  0.4979 -0.1004 -0.1135
  368SOL     OW 1469   1.693   0.447   0.655  0.1790 -0.4467 -0.3108
  368SOL    HW1 1470   1.766   0.392   0.623  0.1604  1.0668 -2.4452
  368SOL    HW2 1471   1.723   0.533   0.675 -0.4911  1.4901 -0.6416
  368SOL     MW 1472   1.707   0.451   0.653  0.0881  0.0085 -0.6360
  369SOL     OW 1473   0.125   2.485   1.751 -0.2862  0.2623  0.1199
  369SOL    HW1 1474   0.218   2.453   1.755  0.2166  1.8444 -0.7026
  369SOL    HW2 1475   0.123   2.561   1.801  1.8433  0.9863 -1.3619
  369SOL     MW 1476   0.137   2.491   1.758  0.0611  0.5666 -0.1842
  370SOL     OW 1477   0.667   0.106   0.948 -0.1677 -0.3343  0.3013
  370SOL    HW1 1478   0.721   0.189   0.949  0.6606  0.7858 -0.2686
  370SOL    HW2 1479   0.726   0.027   0.960  1.7015 -0.5398  2.1108
  370SOL     MW 1480   0.682   0.107   0.950  0.1882 -0.2137  0.4648
  371SOL     OW 1481   1.334   2.975   1.533 -0.0996 -0.3669 -0.2453
  371SOL    HW1 1482   1.267   2.910   1.499 -0.2917  1.1181  0.6658
  371SOL    HW2 1483   1.350   3.039   1.462  1.7830  1.5921  2.1500
  371SOL     MW 1484   1.328   2.975   1.519  0.1234  0.0875  0.1910
  372SOL     OW 1485   0.803   2.253   0.511  0.3583 -0.5369  0.3180
  372SOL    HW1 1486   0.763   2.163   0.534 -1.0815 -0.7742  1.7673
  372SOL    HW2 1487   0.820   2.269   0.416  0.9313  2.0224  1.9602
  372SOL     MW 1488   0.800   2.243   0.501  0.2439 -0.2306  0.7259
  373SOL     OW 1489   2.830   3.023   1.391  0.3929  0.8316  0.0936
  373SOL    HW1 1490   2.888   2.986   1.321 -0.5012  0.4582 -0.0827
  373SOL    HW2 1491   2.812   3.110   1.352 -0.1464 -0.4983 -3.1385
  373SOL     MW 1492   2.835   3.030   1.377  0.2038  0.6069 -0.3561
  374SOL     OW 1493   1.492   0.535   0.223  0.3031  0.1312  0.0029
  374SOL    HW1 1494   1.583   0.545   0.233 -1.4300  2.3419 -0.3042
  374SOL    HW2 1495   1.462   0.490   0.298  0.7862  0.0407 -0.5851
  374SOL     MW 1496   1.500   0.530   0.235  0.1382  0.4109 -0.1152
  375SOL     OW 1497   1.145   2.105   2.273  0.3800  0.0872  0.1079
  375SOL    HW1 1498   1.150   2.105   2.374 -1.2144 -1.2169  1.8647
  375SOL    HW2 1499   1.127   2.008   2.253  2.7766 -0.9498 -0.6614
  375SOL     MW 1500   1.143   2.092   2.284  0.4859 -0.2217  0.2382
  376SOL     OW 1501   0.684   2.541   0.136 -0.5816 -0.0764  0.3520
  376SOL    HW1 1502   0.701   2.505   0.224 -0.3549 -0.3404 -1.8017
  376SOL    HW2 1503   0.628   2.475   0.091 -2.4915 -0.1449  0.3876
  376SOL     MW 1504   0.679   2.528   0.142 -0.8037 -0.1203  0.0725
  377SOL     OW 1505   1.219   2.075   0.938 -0.4629 -0.3624 -0.0246
  377SOL    HW1 1506   1.172   2.023   0.868  1.1613  1.4657 -3.7373
  377SOL    HW2 1507   1.244   2.014   1.005  0.0812  0.1028 -1.1025
  377SOL     MW 1508   1.216   2.060   0.938 -0.1768 -0.0598 -0.6567
  378SOL     OW 1509   0.961   2.805   1.500  0.0715 -0.0409  0.4681
  378SOL    HW1 1510   0.916   2.718   1.516 -1.4303 -1.1393 -0.4827
  378SOL    HW2 1511   0.931   2.835   1.412 -2.5036 -0.3276  1.4115
  378SOL     MW 1512   0.951   2.798   1.490 -0.4664 -0.2236  0.4671
  379SOL     OW 1513   1.053   1.836   2.303  0.1250  0.1005 -0.4202
  379SOL    HW1 1514   0.964   1.832   2.341 -0.0635 -0.2213  1.1124
  379SOL    HW2 1515   1.072   1.758   2.250  1.2508 -3.7327  0.2179
  379SOL     MW 1516   1.044   1.825   2.301  0.2486 -0.4477 -0.1338
  380SOL     OW 1517   0.886   0.217   1.556  0.4333  0.1365  0.1806
  380SOL    HW1 1518   0.916   0.186   1.466  0.7213 -0.3842 -2.5843
  380SOL    HW2 1519   0.965   0.205   1.611  3.8814 -0.7389 -0.0616
  380SOL     MW 1520   0.900   0.211   1.551  0.9262 -0.0477 -0.2162
  381SOL     OW 1521   0.816   2.019   0.800 -0.1923 -0.4239  0.0084
  381SOL    HW1 1522   0.901   2.012   0.756 -1.4597  1.4438  0.2778
  381SOL    HW2 1523   0.836   2.086   0.869 -1.0100  1.3171 -1.5400
  381SOL     MW 1524   0.830   2.027   0.803 -0.4674  0.0522 -0.1603
  382SOL     OW 1525   0.693   0.035   0.661  0.3294 -0.6396  0.7342
  382SOL    HW1 1526   0.668   0.070   0.748  2.9078  3.0981  1.3829
  382SOL    HW2 1527   0.674  -0.058   0.664 -1.9140  2.0148  1.0521
  382SOL     MW 1528   0.687   0.027   0.673  0.3736  0.2038  0.8617
  383SOL     OW 1529   0.494   0.008   0.354 -0.2989 -0.0631  0.5034
  383SOL    HW1 1530   0.530  -0.007   0.439 -1.5242 -2.3678 -3.3488
  383SOL    HW2 1531   0.404  -0.022   0.355  2.4815  0.6560  1.3427
  383SOL     MW 1532   0.487   0.002   0.366 -0.0937 -0.2723  0.1058
  384SOL     OW 1533   0.597   2.878   0.576 -0.1668  0.2638 -0.0913
  384SOL    HW1 1534   0.610   2.795   0.624  1.6452  1.7540 -0.3251
  384SOL    HW2 1535   0.504   2.891   0.572  2.5059 -1.7966 -0.0061
  384SOL     MW 1536   0.587   2.869   0.582  0.4249  0.1885 -0.1109
  385SOL     OW 1537   1.337   2.064   1.548 -0.4169  0.2751 -0.9836
  385SOL    HW1 1538   1.417   2.063   1.603  0.4333 -1.1770  0.3679
  385SOL    HW2 1539   1.289   1.986   1.587  2.7281 -1.7125  0.0464
  385SOL     MW 1540   1.341   2.053   1.560  0.1102 -0.1788 -0.6694
  386SOL     OW 1541   1.367   0.433   0.904  0.4275  0.1362  0.4558
  386SOL    HW1 1542   1.308   0.368   0.866  0.4213 -1.8722 -0.3978
  386SOL    HW2 1543   1.355   0.428   0.998  1.8820 -0.1280  0.9672
  386SOL     MW 1544   1.358   0.424   0.911  0.6186 -0.1636  0.4107
  387SOL     OW 1545   0.882   2.151   1.474 -0.5981  0.6540  0.5187
  387SOL    HW1 1546   0.952   2.208   1.450 -2.5786 -1.3905  2.7644
  387SOL    HW2 1547   0.909   2.057   1.455  2.0326 -2.7507  2.6135
  387SOL     MW 1548   0.895   2.146   1.468 -0.5123 -0.0650  1.0914
  388SOL     OW 1549   1.546   2.839   1.176 -0.4803 -0.5569 -0.1686
  388SOL    HW1 1550   1.471   2.784   1.152 -0.8968 -3.1279  1.7231
  388SOL    HW2 1551   1.612   2.784   1.134 -0.4305 -0.8524  0.2093
  388SOL     MW 1552   1.545   2.825   1.167 -0.5287 -0.9351  0.1309
  389SOL     OW 1553   0.394   0.182   3.101 -0.4364  0.4944 -0.1188
  389SOL    HW1 1554   0.450   0.105   3.083 -0.0688 -0.5620  1.4734
  389SOL    HW2 1555   0.302   0.152   3.102 -4.7905  1.0938 -0.3768
  389SOL     MW 1556   0.389   0.168   3.099 -0.9624  0.4341  0.0573
  390SOL     OW 1557   1.369   0.055   0.596 -0.4453 -0.3537 -0.8601
  390SOL    HW1 1558   1.454   0.092   0.569 -1.3268 -1.3410  0.7532
  390SOL    HW2 1559   1.363   0.048   0.692  0.4746  0.3015  0.1057
  390SOL     MW 1560   1.380   0.059   0.605 -0.4402 -0.3975 -0.5198
  391SOL     OW 1561   0.264   2.309   1.441  0.6671  0.1303 -0.0311
  391SOL    HW1 1562   0.226   2.227   1.480 -1.6708 -0.3154  1.4161
  391SOL    HW2 1563   0.202   2.384   1.452 -0.7088 -0.4194  0.4496
  391SOL     MW 1564   0.250   2.308   1.447  0.1771 -0.0010  0.2232
  392SOL     OW 1565   1.979   2.153   0.318  0.1406 -0.3481  0.1515
  392SOL    HW1 1566   1.908   2.219   0.324  0.4409 -2.8310 -0.0357
  392SOL    HW2 1567   2.042   2.182   0.389 -0.0945  0.1141  1.1727
  392SOL     MW 1568   1.978   2.165   0.328  0.1492 -0.6147  0.2616
  393SOL     OW 1569   0.225   3.009   2.924  0.8399 -0.7335 -0.4655
  393SOL    HW1 1570   0.305   3.035   2.886 -2.2895  1.5879  0.9718
  393SOL    HW2 1571   0.162   3.041   2.859  2.2898 -0.3639 -0.5049
  393SOL     MW 1572   0.227   3.017   2.910  0.6183 -0.3785 -0.2811
  394SOL     OW 1573   0.832   1.635   1.421 -0.0289 -0.3210 -0.6935
  394SOL    HW1 1574   0.765   1.656   1.491  0.8061  1.3924  1.4957
  394SOL    HW2 1575   0.868   1.725   1.408 -2.5709 -3.9551 -0.3537
  394SOL     MW 1576   0.828   1.650   1.428 -0.2541 -0.5744 -0.3598
  395SOL     OW 1577   0.929   2.902   2.578 -0.1669  0.1920 -0.0437
  395SOL    HW1 1578   0.946   2.954   2.656  3.4978  0.0561  1.7871
  395SOL    HW2 1579   1.007   2.854   2.543 -0.8212  0.9031 -2.9326
  395SOL     MW 1580   0.942   2.903   2.584  0.2303  0.2679 -0.1833
  396SOL     OW 1581   0.771   1.874   2.387  0.3512  0.2564  0.3865
  396SOL    HW1 1582   0.805   1.889   2.474 -2.5065  0.0302  0.3723
  396SOL    HW2 1583   0.725   1.789   2.391 -0.6065 -0.6565 -1.4857
  396SOL     MW 1584   0.770   1.865   2.399 -0.1522  0.1061  0.1376
  397SOL     OW 1585   1.019   2.351   1.329  0.0791 -0.3067  0.2333
  397SOL    HW1 1586   1.071   2.361   1.248 -1.0789  0.4189  1.0434
  397SOL    HW2 1587   1.094   2.354   1.394  0.6449  0.6388  3.3688
  397SOL     MW 1588   1.036   2.352   1.327  0.0010 -0.0862  0.7539
  398SOL     OW 1589   0.615   2.608   0.694  0.9633  0.2313  0.5119
  398SOL    HW1 1590   0.558   2.529   0.709  0.7051  2.6559 -0.4001
  398SOL    HW2 1591   0.699   2.577   0.658  4.9839  1.5867 -0.9122
  398SOL     MW 1592   0.618   2.593   0.692  1.4597  0.7300  0.2037
  399SOL     OW 1593   0.285   2.057   0.364  0.0711 -0.0574  0.2416
  399SOL    HW1 1594   0.229   2.129   0.346  1.5875 -2.8927 -1.8043
  399SOL    HW2 1595   0.347   2.057   0.288 -1.8121 -1.1795  2.4272
  399SOL     MW 1596   0.286   2.067   0.351  0.0227 -0.5796  0.2601
  400SOL     OW 1597   0.627   1.856   0.179 -0.0503  0.3808 -0.1585
  400SOL    HW1 1598   0.569   1.933   0.172 -2.4542 -1.7798 -1.7587
  400SOL    HW2 1599   0.579   1.802   0.243  1.0542 -1.1872 -0.0473
  400SOL     MW 1600   0.613   1.859   0.187 -0.2218 -0.1111 -0.3549
  401SOL     OW 1601   1.016   2.084   0.051 -0.3598 -0.3687  0.4181
  401SOL    HW1 1602   0.995   1.991   0.083 -1.0690 -2.1772  0.6664
  401SOL    HW2 1603   1.058   2.136   0.121 -1.7839 -1.7859 -0.1327
  401SOL     MW 1604   1.018   2.079   0.064 -0.6413 -0.7943  0.3782
  402SOL     OW 1605   0.708   2.848   1.731  0.3711  0.4899  0.7182
  402SOL    HW1 1606   0.631   2.818   1.781  0.6192  2.2657 -1.0502
  402SOL    HW2 1607   0.785   2.817   1.774  0.4442  0.7653 -0.0886
  402SOL     MW 1608   0.708   2.840   1.743  0.4135  0.7606  0.3784
  403SOL     OW 1609   0.049   0.539   0.384  0.0892 -1.0414  0.5378
  403SOL    HW1 1610   0.132   0.588   0.409 -0.1567  1.7242  2.6226
  403SOL    HW2 1611   0.084   0.482   0.307  0.7748  1.2197 -0.3629
  403SOL     MW 1612   0.065   0.538   0.377  0.1472 -0.3782  0.6940
  404SOL     OW 1613   0.974   2.893   0.821  0.1240  0.0735 -0.7412
  404SOL    HW1 1614   1.012   2.813   0.782 -1.0271  1.5108  0.1147
  404SOL    HW2 1615   1.007   2.969   0.770  1.6313 -0.7059  1.6236
  404SOL     MW 1616   0.984   2.892   0.809  0.1710  0.1603 -0.3163
  405SOL     OW 1617   0.474   2.466   1.549  0.0175 -0.3157 -0.5025
  405SOL    HW1 1618   0.454   2.546   1.499 -0.4557  4.3829 -0.0639
  405SOL    HW2 1619   0.411   2.396   1.520  1.9543  2.3790  1.2849
  405SOL     MW 1620   0.463   2.467   1.539  0.2106  0.6597 -0.2088
  406SOL     OW 1621   0.414   2.389   1.150  0.0507 -0.0562  0.1249
  406SOL    HW1 1622   0.321   2.379   1.168 -0.2790 -3.0439 -1.1304
  406SOL    HW2 1623   0.447   2.293   1.163 -0.0148 -2.1680 -0.1878
  406SOL     MW 1624   0.406   2.375   1.154 -0.0015 -0.7291 -0.0820
  407SOL     OW 1625   0.015   2.680   1.155  0.2831  0.3463 -0.0228
  407SOL    HW1 1626   0.067   2.677   1.235  0.4658 -1.7645 -5.4420
  407SOL    HW2 1627   0.075   2.640   1.095  0.6432 -1.5038  0.2401
  407SOL     MW 1628   0.029   2.674   1.157  0.3547 -0.1763 -0.7031
  408SOL     OW 1629   2.116   2.141   0.555  0.1962  0.2983  0.0646
  408SOL    HW1 1630   2.103   2.215   0.610  1.1513 -0.2389  0.1304
  408SOL    HW2 1631   2.044   2.070   0.581 -1.0733 -2.8672  2.3193
  408SOL     MW 1632   2.105   2.142   0.566  0.1547 -0.1902  0.3708
  409SOL     OW 1633   1.367   0.128   0.890 -0.7548 -0.2602 -0.0649
  409SOL    HW1 1634   1.435   0.189   0.895 -1.1868 -0.6655 -1.8581
  409SOL    HW2 1635   1.412   0.055   0.934 -1.0990  0.0725  0.3246
  409SOL     MW 1636   1.382   0.126   0.896 -0.8572 -0.2698 -0.2501
  410SOL     OW 1637   1.088   2.491   1.074  0.1817 -0.2255 -0.3704
  410SOL    HW1 1638   1.028   2.491   1.002  1.0221  2.6885 -1.2209
  410SOL    HW2 1639   1.161   2.426   1.053  1.2188  1.3729  0.8987
  410SOL     MW 1640   1.090   2.482   1.062  0.4294  0.3699 -0.3152
  411SOL     OW 1641   1.978   0.140   2.841  0.4482  0.4757 -0.0811
  411SOL    HW1 1642   1.922   0.100   2.773  0.3404 -2.8847  0.8686
  411SOL    HW2 1643   1.918   0.139   2.920  0.0780 -1.2900  1.6032
  411SOL     MW 1644   1.963   0.135   2.843  0.3851 -0.2006  0.2665
  412SOL     OW 1645   1.085   2.209   0.563  0.3580 -0.1413  0.1247
  412SOL    HW1 1646   1.131   2.291   0.595 -3.2643  2.7796  0.9108
  412SOL    HW2 1647   0.989   2.224   0.558 -0.4802 -1.2417  1.4824
  412SOL     MW 1648   1.079   2.222   0.567 -0.2305  0.0989  0.4075
  413SOL     OW 1649   0.545   2.788   0.173 -0.2336  0.0651 -0.3795
  413SOL    HW1 1650   0.590   2.696   0.167  0.1950 -1.4805  0.6426
  413SOL    HW2 1651   0.559   2.827   0.083 -0.0541  2.0424  0.2499
  413SOL     MW 1652   0.553   2.781   0.160 -0.1533  0.1221 -0.1616
  414SOL     OW 1653   1.996   3.030   1.063 -0.1821  0.5186  0.8004
  414SOL    HW1 1654   1.926   3.008   0.994 -2.1371  2.1809  3.2888
  414SOL    HW2 1655   2.077   2.979   1.047  2.0715  1.0002 -0.0016
  414SOL     MW 1656   1.998   3.021   1.052 -0.1427  0.8014  1.0229
  415SOL     OW 1657   1.740   2.687   1.060 -0.5853 -0.1267 -0.2160
  415SOL    HW1 1658   1.707   2.639   1.137 -0.3748 -0.1099 -0.0968
  415SOL    HW2 1659   1.823   2.729   1.086 -3.3450 -0.0634  0.0888
  415SOL     MW 1660   1.747   2.686   1.074 -0.9216 -0.1161 -0.1601
  416SOL     OW 1661   0.607   1.935   1.375  0.0703 -0.0136  0.5002
  416SOL    HW1 1662   0.560   2.020   1.371  0.1255 -0.1680 -0.0566
  416SOL    HW2 1663   0.614   1.915   1.279 -0.1935  0.5796 -1.0621
  416SOL     MW 1664   0.601   1.944   1.362  0.0428  0.0443  0.2206
  417SOL     OW 1665   1.036   3.012   1.977 -0.7414 -0.2620  0.2305
  417SOL    HW1 1666   0.957   3.001   2.037 -2.4234 -0.3360  0.1227
  417SOL    HW2 1667   1.033   2.950   1.904 -1.0169 -0.6653  1.2947
  417SOL     MW 1668   1.025   3.003   1.976 -0.9997 -0.3250  0.3567
  418SOL     OW 1669   0.730   3.005   0.198 -0.3128  0.2929  0.3630
  418SOL    HW1 1670   0.794   2.957   0.143  0.3300  3.0230  1.1031
  418SOL    HW2 1671   0.663   2.938   0.211 -0.4096  0.8425 -0.6731
  418SOL     MW 1672   0.730   2.990   0.193 -0.2407  0.7257  0.3240
  419SOL     OW 1673   0.453   2.702   1.396  0.5129  0.3593 -0.1546
  419SOL    HW1 1674   0.507   2.762   1.450 -0.6033 -0.3312 -1.0265
  419SOL    HW2 1675   0.508   2.709   1.316  1.3251 -0.7818 -0.8053
  419SOL     MW 1676   0.467   2.711   1.392  0.4728  0.1176 -0.3555
  420SOL     OW 1677   0.904   2.203   1.022 -0.2471 -0.4272  0.1010
  420SOL    HW1 1678   0.849   2.217   1.101 -2.9978 -1.2233 -0.5349
  420SOL    HW2 1679   0.903   2.280   0.966 -1.6581 -2.0837 -1.4463
  420SOL     MW 1680   0.897   2.215   1.025 -0.7962 -0.7508 -0.1871
  421SOL     OW 1681   2.938   0.092   0.025 -0.0147 -0.7084 -0.6724
  421SOL    HW1 1682   2.915   0.038  -0.044  1.4617 -2.0756  3.9607
  421SOL    HW2 1683   2.943   0.022   0.092  3.8669  1.0865 -0.4251
  421SOL     MW 1684   2.935   0.075   0.025  0.6922 -0.6520 -0.0285
  422SOL     OW 1685   0.872   2.463   0.868  0.0183  0.0381 -0.3907
  422SOL    HW1 1686   0.785   2.494   0.882  1.2945 -1.0087  0.3558
  422SOL    HW2 1687   0.876   2.462   0.773  0.6066 -1.1481  3.3171
  422SOL     MW 1688   0.861   2.467   0.858  0.2643 -0.2565  0.1970
  423SOL     OW 1689   1.600   0.144   0.495  0.2312  0.3506 -0.3210
  423SOL    HW1 1690   1.575   0.124   0.405 -1.0180  3.0731 -0.5871
  423SOL    HW2 1691   1.602   0.238   0.493 -1.5291 -1.3140  1.0608
  423SOL     MW 1692   1.597   0.154   0.483 -0.1659  0.4901 -0.1738
  424SOL     OW 1693   0.742   2.204   1.249  0.0090  0.2516  0.0473
  424SOL    HW1 1694   0.646   2.202   1.268  1.3696  0.0290  2.8720
  424SOL    HW2 1695   0.781   2.210   1.336 -1.4091  0.5477  1.6462
  424SOL     MW 1696   0.734   2.205   1.263  0.0014  0.2613  0.6310
  425SOL     OW 1697   1.741   2.856   2.031  0.3217  0.4159 -0.2449
  425SOL    HW1 1698   1.737   2.841   1.933 -1.2598 -1.3602 -0.4668
  425SOL    HW2 1699   1.754   2.770   2.065 -0.6737  1.7947 -0.6793
  425SOL     MW 1700   1.742   2.843   2.022 -0.0183  0.3635 -0.3315
  426SOL     OW 1701   0.736   1.612   1.917  0.2834  0.3492  0.1960
  426SOL    HW1 1702   0.704   1.625   1.826 -1.6679 -0.5135 -2.0877
  426SOL    HW2 1703   0.720   1.693   1.971 -3.6809 -0.1702 -1.8529
  426SOL     MW 1704   0.730   1.624   1.912 -0.4971  0.1668 -0.3756
  427SOL     OW 1705   0.394   1.552   1.856  0.5524  0.0964  0.0041
  427SOL    HW1 1706   0.464   1.496   1.855  1.0707  0.1612  2.6820
  427SOL    HW2 1707   0.309   1.507   1.879 -0.0725  3.2404  0.8045
  427SOL     MW 1708   0.392   1.539   1.859  0.5384  0.5198  0.4631
  428SOL     OW 1709   0.588   2.635   1.151 -0.4513 -0.0729 -0.3519
  428SOL    HW1 1710   0.677   2.600   1.176  2.5923  0.7583 -0.2249
  428SOL    HW2 1711   0.525   2.563   1.154  1.3998 -1.1758 -0.2905
  428SOL     MW 1712   0.592   2.621   1.155  0.1945 -0.1088 -0.3270
  429SOL     OW 1713   1.329   2.694   1.060  0.3075 -0.3692  0.4010
  429SOL    HW1 1714   1.244   2.646   1.075 -0.4774 -0.4815  1.0963
  429SOL    HW2 1715   1.304   2.766   1.001  0.5335 -3.7902 -0.7528
  429SOL     MW 1716   1.314   2.697   1.054  0.2337 -0.8354  0.3405
  430SOL     OW 1717   1.181   2.725   0.699  0.3003 -0.5143 -0.1528
  430SOL    HW1 1718   1.234   2.645   0.696  1.7230 -0.4873 -1.8299
  430SOL    HW2 1719   1.137   2.708   0.614  0.7379 -0.5700  0.6845
  430SOL     MW 1720   1.182   2.712   0.687  0.5457 -0.5181 -0.2636
  431SOL     OW 1721   0.331   1.953   1.141 -0.5176 -0.4477  0.2884
  431SOL    HW1 1722   0.383   1.878   1.139 -3.6036 -2.0124  2.2450
  431SOL    HW2 1723   0.294   1.949   1.051 -0.9401 -1.0602 -0.4679
  431SOL     MW 1724   0.333   1.943   1.129 -0.9805 -0.7349  0.4468
  432SOL     OW 1725   0.074   0.020   1.155 -0.8522  0.1561  0.2532
  432SOL    HW1 1726   0.070   0.066   1.235 -2.4398  2.6008 -0.8656
  432SOL    HW2 1727   0.013  -0.049   1.167  0.1779 -0.6243  3.9032
  432SOL     MW 1728   0.066   0.017   1.167 -0.9258  0.3757  0.5872
  433SOL     OW 1729   0.663   2.869   1.453  0.2649 -0.3325 -0.3191
  433SOL    HW1 1730   0.680   2.865   1.550  1.8397  0.6568 -1.3636
  433SOL    HW2 1731   0.742   2.841   1.413 -1.6958  0.3073  2.4199
  433SOL     MW 1732   0.676   2.864   1.460  0.2140 -0.1175 -0.0955
  434SOL     OW 1733   1.550   2.805   1.483 -0.4383  0.0976 -0.3367
  434SOL    HW1 1734   1.483   2.872   1.500 -0.0730 -2.3572  0.4297
  434SOL    HW2 1735   1.544   2.791   1.387  2.2415 -0.0012 -2.3001
  434SOL     MW 1736   1.540   2.812   1.473 -0.0365 -0.2394 -0.4946
  435SOL     OW 1737   2.864   1.800   0.236  0.1631 -0.2269  0.1812
  435SOL    HW1 1738   2.919   1.861   0.188 -0.0883 -1.4127 -2.4202
  435SOL    HW2 1739   2.839   1.736   0.170  1.4748  0.1037  2.2505
  435SOL     MW 1740   2.868   1.799   0.221  0.3030 -0.3398  0.1110
  436SOL     OW 1741   1.447   2.780   0.312 -0.3519 -0.3174  0.0757
  436SOL    HW1 1742   1.502   2.747   0.388 -3.2455  0.2580  1.5188
  436SOL    HW2 1743   1.393   2.852   0.345  1.9083  1.0013 -0.9036
  436SOL     MW 1744   1.447   2.785   0.326 -0.4355 -0.0675  0.1369
  437SOL     OW 1745   0.872   2.949   1.276  0.0769 -0.3408 -0.0622
  437SOL    HW1 1746   0.897   3.040   1.306  2.6555  1.1120  0.0297
  437SOL    HW2 1747   0.841   2.976   1.189  0.8363  0.0380  0.2944
  437SOL     MW 1748   0.871   2.964   1.268  0.5173 -0.0991 -0.0030
  438SOL     OW 1749   0.860   2.546   1.998  0.3360  0.5339 -0.3862
  438SOL    HW1 1750   0.857   2.500   2.088  0.6129  1.1412 -3.6936
  438SOL    HW2 1751   0.782   2.506   1.958  1.2649 -0.8247  1.3836
  438SOL     MW 1752   0.849   2.535   2.005  0.4951  0.4348 -0.5891
  439SOL     OW 1753   1.152   2.157   0.307  0.1642 -0.1113  0.2055
  439SOL    HW1 1754   1.115   2.181   0.396  2.1788 -2.3567 -0.2602
  439SOL    HW2 1755   1.160   2.246   0.265  0.5097  0.1579  2.3877
  439SOL     MW 1756   1.148   2.172   0.313  0.4756 -0.3720  0.4320
  440SOL     OW 1757   1.657   3.029   2.994  0.7602 -0.3702  0.5936
  440SOL    HW1 1758   1.621   3.000   3.078 -1.3696 -1.0080  0.3328
  440SOL    HW2 1759   1.698   2.950   2.961 -0.8131  1.2614 -2.4115
  440SOL     MW 1760   1.657   3.015   3.000  0.2716 -0.2391  0.1627
  441SOL     OW 1761   0.323   2.570   0.541 -0.4156  0.0776 -0.0879
  441SOL    HW1 1762   0.313   2.565   0.441  1.3300  1.1108  0.8378
  441SOL    HW2 1763   0.362   2.659   0.548 -0.5168  0.1889  1.1738
  441SOL     MW 1764   0.327   2.581   0.529 -0.1987  0.2286  0.2007
  442SOL     OW 1765   0.035   2.340   0.626  0.2262  0.3972  0.0492
  442SOL    HW1 1766   0.006   2.427   0.604 -0.2048 -1.2215  4.9724
  442SOL    HW2 1767  -0.048   2.292   0.624  2.8935  0.5670 -0.8642
  442SOL     MW 1768   0.020   2.345   0.623  0.5213  0.2060  0.5783
  443SOL     OW 1769   1.386   1.715   1.848 -0.8543 -0.4488  0.1950
  443SOL    HW1 1770   1.362   1.755   1.770 -2.9174 -1.3156 -0.7352
  443SOL    HW2 1771   1.325   1.636   1.847 -2.5249 -0.9604 -0.6548
  443SOL     MW 1772   1.375   1.710   1.838 -1.3469 -0.6306 -0.0398
  444SOL     OW 1773   0.849   2.574   1.572 -0.2956 -0.1556 -0.2504
  444SOL    HW1 1774   0.924   2.566   1.642  0.5181  1.3577 -1.8285
  444SOL    HW2 1775   0.772   2.589   1.628 -1.4277  0.7214  1.6661
  444SOL     MW 1776   0.849   2.575   1.589 -0.3376  0.1598 -0.2057
  445SOL     OW 1777   0.953   0.103   1.315  0.0226 -0.2378 -0.3954
  445SOL    HW1 1778   0.894   0.157   1.261  2.6180 -3.0945  0.3524
  445SOL    HW2 1779   1.026   0.084   1.260  1.7141  0.3534  0.5528
  445SOL     MW 1780   0.955   0.108   1.301  0.5882 -0.5367 -0.1716
  446SOL     OW 1781   2.753   2.926   1.016  0.7063  0.2506 -0.0643
  446SOL    HW1 1782   2.667   2.936   0.972 -0.2379  2.3698  0.4522
  446SOL    HW2 1783   2.782   2.830   1.008  1.5541  0.4709 -1.3041
  446SOL     MW 1784   2.745   2.915   1.009  0.6936  0.5593 -0.1597
  447SOL     OW 1785   3.028   2.055   1.703  0.2771 -0.0419  0.4037
  447SOL    HW1 1786   3.078   1.996   1.763 -3.0480  0.1608  2.2288
  447SOL    HW2 1787   2.991   2.005   1.626 -1.7515 -1.3291 -1.2216
  447SOL     MW 1788   3.030   2.040   1.701 -0.4293 -0.1850  0.4301
  448SOL     OW 1789   1.665   2.358   1.658  0.1757 -0.3249  0.0330
  448SOL    HW1 1790   1.609   2.279   1.646  1.4317  0.7222  1.1724
  448SOL    HW2 1791   1.614   2.432   1.631  1.1116 -3.9640 -0.2511
  448SOL     MW 1792   1.651   2.357   1.653  0.4649 -0.6669  0.1459
  449SOL     OW 1793   0.839   2.876   0.415  0.5162  0.4774  0.1783
  449SOL    HW1 1794   0.812   2.910   0.332  0.2900 -1.8475  0.1474
  449SOL    HW2 1795   0.755   2.863   0.465 -0.5168  0.4105  1.8702
  449SOL     MW 1796   0.824   2.879   0.411  0.3501  0.1618  0.3974
  450SOL     OW 1797   1.223   2.425   0.638  0.0909 -0.0935  0.3233
  450SOL    HW1 1798   1.233   2.387   0.731 -0.4120 -1.0196 -0.2936
  450SOL    HW2 1799   1.313   2.420   0.607  0.0415 -0.3785  0.4491
  450SOL     MW 1800   1.236   2.419   0.646  0.0180 -0.2533  0.2585
  451SOL     OW 1801   0.618   1.955   1.675  0.0588  0.0749  0.0696
  451SOL    HW1 1802   0.674   2.026   1.699 -0.3319 -3.5470  1.0232
  451SOL    HW2 1803   0.616   1.966   1.578 -0.4345  1.4470 -0.7481
  451SOL     MW 1804   0.625   1.966   1.665 -0.0579 -0.2220  0.0875
  452SOL     OW 1805   0.287   2.695   0.093  0.5990  0.3305  0.2700
  452SOL    HW1 1806   0.357   2.755   0.133  3.0095 -0.6374  2.7822
  452SOL    HW2 1807   0.296   2.697  -0.003  1.7890  1.8303  1.9993
  452SOL     MW 1808   0.298   2.703   0.085  1.0740  0.4006  0.8296
  453SOL     OW 1809   0.396   2.981   1.630 -0.5056 -0.2375  0.2312
  453SOL    HW1 1810   0.470   3.019   1.574 -0.4216 -0.4178 -0.5044
  453SOL    HW2 1811   0.309   3.015   1.604  0.0423  0.0462 -1.9488
  453SOL     MW 1812   0.395   2.991   1.619 -0.4222 -0.2238 -0.1535
  454SOL     OW 1813   1.050   2.778   1.161  0.2293  0.3288 -0.5163
  454SOL    HW1 1814   1.016   2.699   1.128 -1.5075  2.6970  2.3850
  454SOL    HW2 1815   0.975   2.837   1.186  0.1053  1.0377 -0.1840
  454SOL     MW 1816   1.035   2.776   1.160 -0.0162  0.7348 -0.0897
  455SOL     OW 1817   1.594   2.940   0.161 -0.2152 -0.1897 -0.0779
  455SOL    HW1 1818   1.682   2.930   0.193  1.6684 -0.4774  2.9030
  455SOL    HW2 1819   1.537   2.886   0.218  1.4328 -1.7578  1.3213
  455SOL     MW 1820   1.598   2.932   0.173  0.2507 -0.4346  0.5000
  456SOL     OW 1821   2.928   0.288   1.395  0.5778 -0.4318  0.3719
  456SOL    HW1 1822   2.858   0.254   1.343 -1.2947  1.6736 -1.0182
  456SOL    HW2 1823   2.965   0.355   1.338  1.2989 -2.7848  2.7445
  456SOL     MW 1824   2.923   0.292   1.381  0.4259 -0.4645  0.5016
  457SOL     OW 1825   0.891   1.548   3.007 -0.4441 -0.3623  0.3931
  457SOL    HW1 1826   0.820   1.524   3.063  0.4812  1.4911 -0.0646
  457SOL    HW2 1827   0.968   1.498   3.039 -1.0516  1.9083 -0.7104
  457SOL     MW 1828   0.892   1.538   3.018 -0.4022  0.1818  0.1871
  458SOL     OW 1829   1.445   1.409   0.622 -0.3887  0.5055  0.6566
  458SOL    HW1 1830   1.377   1.429   0.685 -0.5865  0.4404  3.0844
  458SOL    HW2 1831   1.413   1.333   0.573  2.1269 -2.4187 -1.3262
  458SOL     MW 1832   1.432   1.402   0.624 -0.0829  0.1111  0.7153
  459SOL     OW 1833   1.580   0.109   0.228 -0.2614  0.3183  0.2510
  459SOL    HW1 1834   1.550   0.024   0.192 -1.6283  0.2671  0.3774
  459SOL    HW2 1835   1.518   0.171   0.193 -0.0107  2.0153 -1.9871
  459SOL     MW 1836   1.568   0.106   0.218 -0.4086  0.5354 -0.0276
  460SOL     OW 1837   1.725   2.157   0.595 -0.8562 -0.0973 -0.2918
  460SOL    HW1 1838   1.638   2.143   0.610  0.4862  2.9390 -0.8852
  460SOL    HW2 1839   1.764   2.063   0.586  1.2227  0.7619 -0.1132
  460SOL     MW 1840   1.719   2.143   0.596 -0.4048  0.4166 -0.3466
  461SOL     OW 1841   0.434   2.323   0.611  0.8400 -0.1484 -0.0649
  461SOL    HW1 1842   0.368   2.395   0.598  1.0726 -0.6346  0.7295
  461SOL    HW2 1843   0.444   2.335   0.703  1.8493 -0.5313 -0.2806
  461SOL     MW 1844   0.427   2.334   0.622  1.0039 -0.2631  0.0114
  462SOL     OW 1845   0.394   0.295   1.298 -0.3753  0.4548  0.0026
  462SOL    HW1 1846   0.405   0.233   1.227 -0.7688 -1.8088 -0.6666
  462SOL    HW2 1847   0.485   0.311   1.337 -1.3018  1.9213  1.1667
  462SOL     MW 1848   0.408   0.289   1.293 -0.5495  0.3497  0.0679
  463SOL     OW 1849   1.004   0.049   0.713  0.6279  0.4545  0.2473
  463SOL    HW1 1850   1.014   0.033   0.618 -2.3774  0.1061  2.2330
  463SOL    HW2 1851   0.914   0.085   0.717 -0.7634  0.2699 -0.8238
  463SOL     MW 1852   0.993   0.052   0.701  0.0478  0.3842  0.3680
  464SOL     OW 1853   0.845   2.973   2.154 -0.3825 -0.4077  0.4995
  464SOL    HW1 1854   0.808   2.886   2.169  1.4823  0.4768 -0.9778
  464SOL    HW2 1855   0.873   3.021   2.236 -1.5313 -1.5650 -2.3370
  464SOL     MW 1856   0.844   2.968   2.167 -0.2880 -0.4437 -0.0696
  465SOL     OW 1857   0.714   0.220   0.469  0.8024 -0.4904  0.3601
  465SOL    HW1 1858   0.704   0.143   0.526 -1.9353  0.3354 -1.6131
  465SOL    HW2 1859   0.723   0.179   0.382 -0.4246  2.0625 -0.1118
  465SOL     MW 1860   0.714   0.204   0.465  0.2793 -0.0446  0.0375
  466SOL     OW 1861   1.086   1.977   0.695 -0.4119 -0.2012 -0.6063
  466SOL    HW1 1862   1.078   1.897   0.644  0.2595  0.7833 -0.9080
  466SOL    HW2 1863   1.095   2.059   0.635  0.0040 -0.1600 -2.1066
  466SOL     MW 1864   1.086   1.977   0.680 -0.2685 -0.0659 -0.8440
  467SOL     OW 1865   1.290   2.324   0.964 -0.1656 -0.2772  0.3648
  467SOL    HW1 1866   1.379   2.315   0.989  2.0059  1.5754 -0.1992
  467SOL    HW2 1867   1.251   2.229   0.972  1.9419 -1.4267 -1.6818
  467SOL     MW 1868   1.296   2.310   0.968  0.3989 -0.1844  0.0204
  468SOL     OW 1869   0.314   2.609   1.992 -0.2670  0.5654 -0.5324
  468SOL    HW1 1870   0.305   2.515   1.976 -0.4368  0.7456 -0.8798
  468SOL    HW2 1871   0.382   2.639   1.928  0.8340  1.4361  1.4814
  468SOL     MW 1872   0.322   2.600   1.982 -0.1441  0.7041 -0.3125
  469SOL     OW 1873   0.405   2.079   1.839  0.0900  0.1443  0.3715
  469SOL    HW1 1874   0.313   2.060   1.828  0.8894  0.7926  1.5743
  469SOL    HW2 1875   0.460   2.026   1.773 -0.0553  0.6881 -2.2332
  469SOL     MW 1876   0.400   2.070   1.829  0.1763  0.3016  0.1865
  470SOL     OW 1877   3.082   2.529   0.172 -0.6263 -0.4164 -0.1412
  470SOL    HW1 1878   3.005   2.503   0.224 -2.0004 -1.5497 -0.8751
  470SOL    HW2 1879   3.062   2.534   0.075  0.0622 -1.1789 -0.9560
  470SOL     MW 1880   3.069   2.526   0.166 -0.7168 -0.6665 -0.3455
  471SOL     OW 1881   1.188   2.710   1.389 -0.6328 -0.2937 -0.3689
  471SOL    HW1 1882   1.117   2.720   1.452  0.6400 -1.6033  1.6100
  471SOL    HW2 1883   1.152   2.739   1.308  0.1722  0.2332 -1.0981
  471SOL     MW 1884   1.174   2.715   1.386 -0.3587 -0.3969 -0.2040
  472SOL     OW 1885   2.929   2.124   0.374 -0.1827 -0.3395 -0.8401
  472SOL    HW1 1886   2.939   2.071   0.289 -0.0801  0.7005 -0.3456
  472SOL    HW2 1887   2.916   2.054   0.436  0.2439  0.7406  2.5238
  472SOL     MW 1888   2.928   2.108   0.371 -0.1129 -0.0598 -0.3310
  473SOL     OW 1889   0.794   2.522   1.313  0.1050  0.1603  0.0026
  473SOL    HW1 1890   0.876   2.467   1.309  1.0656  1.3697 -0.0609
  473SOL    HW2 1891   0.784   2.526   1.406  0.3790  0.6436 -0.5758
  473SOL     MW 1892   0.803   2.515   1.325  0.2679  0.3837 -0.0821
  474SOL     OW 1893   0.856   2.199   1.777  0.2452  0.3811  0.1027
  474SOL    HW1 1894   0.936   2.239   1.797 -2.4008 -1.4402  0.5396
  474SOL    HW2 1895   0.850   2.209   1.680 -0.6808  0.1815 -3.0919
  474SOL     MW 1896   0.866   2.206   1.767 -0.2261  0.1145 -0.2612
  475SOL     OW 1897   1.663   3.087   1.443 -0.3900  0.0498 -0.0722
  475SOL    HW1 1898   1.591   3.104   1.379 -2.6193 -1.2722  0.3890
  475SOL    HW2 1899   1.641   3.008   1.495 -3.6945 -1.1861  0.0703
  475SOL     MW 1900   1.650   3.079   1.442 -1.1201 -0.2877  0.0075
  476SOL     OW 1901   1.463   2.607   0.796 -0.4574 -0.6876 -0.2218
  476SOL    HW1 1902   1.418   2.602   0.885  0.4707  2.0592  1.3395
  476SOL    HW2 1903   1.530   2.673   0.808 -1.6000  1.9878  1.6957
  476SOL     MW 1904   1.466   2.615   0.809 -0.4857  0.0278  0.2372
  477SOL     OW 1905   0.855   2.534   0.592 -0.2637  0.0068  0.3334
  477SOL    HW1 1906   0.933   2.563   0.533  0.2463 -0.7285  3.6723
  477SOL    HW2 1907   0.830   2.450   0.542 -0.2914 -2.5823 -0.2533
  477SOL     MW 1908   0.862   2.527   0.578 -0.2001 -0.4318  0.6966
  478SOL     OW 1909   0.235   2.594   0.992  0.2232 -0.2565 -0.1463
  478SOL    HW1 1910   0.224   2.685   0.956 -2.0463 -1.2750 -1.9874
  478SOL    HW2 1911   0.301   2.543   0.940 -1.3250 -0.6565 -1.6480
  478SOL     MW 1912   0.242   2.600   0.980 -0.2805 -0.4437 -0.5874
  479SOL     OW 1913   1.416   1.934   1.334 -0.5880  0.6115  0.4476
  479SOL    HW1 1914   1.391   1.969   1.419  1.3526  0.1048 -2.5150
  479SOL    HW2 1915   1.491   1.878   1.360 -0.9262 -0.9946 -1.2639
  479SOL     MW 1916   1.423   1.931   1.349 -0.3765  0.3328 -0.1691
  480SOL     OW 1917   1.791   2.364   1.297 -0.2646  0.3386 -0.1709
  480SOL    HW1 1918   1.794   2.268   1.319  2.0754 -2.9157 -1.8247
  480SOL    HW2 1919   1.830   2.360   1.207 -0.2386 -0.1295 -0.8214
  480SOL     MW 1920   1.796   2.351   1.288  0.0476 -0.1525 -0.4749
  481SOL     OW 1921   1.174   0.159   1.107  0.0183  0.3058  0.5345
  481SOL    HW1 1922   1.225   0.137   1.027  0.3723 -3.0092  3.2400
  481SOL    HW2 1923   1.189   0.254   1.123  0.9281  0.6542  1.6493
  481SOL     MW 1924   1.183   0.169   1.099  0.1850 -0.0856  1.0386
  482SOL     OW 1925   1.034   3.082   0.430 -0.6832  0.4633 -0.3300
  482SOL    HW1 1926   0.952   3.031   0.429 -0.5459  2.5473 -0.8838
  482SOL    HW2 1927   1.025   3.169   0.389 -1.3188  0.7742  1.3295
  482SOL     MW 1928   1.022   3.087   0.424 -0.7489  0.7793 -0.1841
  483SOL     OW 1929   0.314   2.849   0.546 -0.6572 -0.1104  0.2126
  483SOL    HW1 1930   0.276   2.874   0.458  1.0029  0.6232 -4.1553
  483SOL    HW2 1931   0.275   2.910   0.617 -1.5366 -0.7774  0.2200
  483SOL     MW 1932   0.304   2.860   0.543 -0.5542 -0.1016 -0.3628
  484SOL     OW 1933   1.652   1.860   1.454 -0.2763  0.2554 -0.6724
  484SOL    HW1 1934   1.697   1.935   1.411 -2.8647 -0.1915 -1.3963
  484SOL    HW2 1935   1.664   1.871   1.548  0.8653  0.3610 -2.5406
  484SOL     MW 1936   1.659   1.871   1.461 -0.4672  0.2103 -1.0144
  485SOL     OW 1937   0.558   2.318   0.285  0.1322  0.2413 -0.2183
  485SOL    HW1 1938   0.550   2.291   0.375 -1.7856  4.1728 -0.5677
  485SOL    HW2 1939   0.495   2.388   0.291  0.2690  2.1367  1.2336
  485SOL     MW 1940   0.549   2.324   0.298 -0.1028  1.0101 -0.0728
  486SOL     OW 1941   0.094   2.511   1.479  0.0417 -0.7945 -0.3433
  486SOL    HW1 1942   0.118   2.593   1.444 -2.9199 -0.9722  0.8256
  486SOL    HW2 1943   0.088   2.514   1.575 -0.9935  0.0873 -1.0232
  486SOL     MW 1944   0.096   2.522   1.487 -0.4856 -0.7016 -0.2788
  487SOL     OW 1945   1.299   1.610   1.037 -0.1899  0.4196 -0.8848
  487SOL    HW1 1946   1.260   1.702   1.036 -0.8441  1.4989  0.9400
  487SOL    HW2 1947   1.392   1.621   1.034 -1.1469  0.8705  2.6560
  487SOL     MW 1948   1.306   1.624   1.036 -0.4025  0.6215 -0.1769
  488SOL     OW 1949   1.471   1.805   0.605  0.1451 -0.1209  0.1506
  488SOL    HW1 1950   1.431   1.891   0.598  0.5683 -1.6508 -1.1618
  488SOL    HW2 1951   1.407   1.746   0.570 -0.4608  2.7106 -0.6699
  488SOL     MW 1952   1.458   1.809   0.599  0.1210  0.0508 -0.1308
  489SOL     OW 1953   0.693   0.730   0.532  0.0903  0.2974  0.2404
  489SOL    HW1 1954   0.649   0.645   0.510 -0.6314 -0.2644  3.0774
  489SOL    HW2 1955   0.687   0.745   0.628  0.2769  1.4523  0.2806
  489SOL     MW 1956   0.686   0.721   0.542  0.0197  0.3756  0.6200
  490SOL     OW 1957   1.366   2.058   0.469  0.2823  0.0261  0.2243
  490SOL    HW1 1958   1.431   2.121   0.431  0.5618  0.9730 -0.6961
  490SOL    HW2 1959   1.285   2.100   0.435  0.0224 -1.4036 -2.2621
  490SOL     MW 1960   1.364   2.072   0.459  0.2849 -0.0376 -0.2252
  491SOL     OW 1961   1.298   3.008   0.386 -0.0961 -0.0673 -0.0968
  491SOL    HW1 1962   1.324   3.047   0.471 -1.5619 -0.6220  0.3570
  491SOL    HW2 1963   1.205   3.015   0.399 -2.2900 -1.3682  0.3491
  491SOL     MW 1964   1.289   3.014   0.399 -0.5790 -0.3121  0.0219
  492SOL     OW 1965   1.461   2.160   0.712 -0.0657  0.0039 -0.1081
  492SOL    HW1 1966   1.406   2.118   0.647 -1.0213  1.0398 -1.8836
  492SOL    HW2 1967   1.419   2.136   0.797 -1.5947 -1.2589 -0.1292
  492SOL     MW 1968   1.449   2.151   0.714 -0.3935 -0.0261 -0.3451
  493SOL     OW 1969   0.223   3.035   0.336  0.8561 -0.5668  0.1871
  493SOL    HW1 1970   0.137   3.059   0.379 -0.2212 -1.0289  1.7573
  493SOL    HW2 1971   0.207   3.039   0.242 -0.2673 -0.4628  0.8020
  493SOL     MW 1972   0.209   3.039   0.329  0.5658 -0.6141  0.4754
  494SOL     OW 1973   0.396   2.372   1.796  0.0461 -0.3914  0.4198
  494SOL    HW1 1974   0.409   2.273   1.802  0.9104  1.0134 -2.6847
  494SOL    HW2 1975   0.441   2.411   1.716  1.4613  2.4967  0.4408
  494SOL     MW 1976   0.403   2.364   1.786  0.3469  0.1750  0.0130
  495SOL     OW 1977   2.874   1.630   2.686  0.4220  0.2250  0.1938
  495SOL    HW1 1978   2.848   1.704   2.740  1.8784  1.8596 -1.7026
  495SOL    HW2 1979   2.856   1.559   2.742 -1.0423  0.6688 -0.2560
  495SOL     MW 1980   2.868   1.630   2.700  0.4209  0.4992 -0.1157
  496SOL     OW 1981   2.793   2.279   2.717 -0.4075 -0.2265  0.4176
  496SOL    HW1 1982   2.809   2.192   2.754  0.8824  1.1902 -2.2282
  496SOL    HW2 1983   2.884   2.321   2.728 -1.0529 -2.2640 -1.2391
  496SOL     MW 1984   2.807   2.273   2.723 -0.3225 -0.3084 -0.1501
  497SOL     OW 1985   1.518   2.367   2.573 -0.3874 -1.0045 -0.3004
  497SOL    HW1 1986   1.536   2.301   2.499  0.3936  1.2724 -1.9302
  497SOL    HW2 1987   1.471   2.313   2.639 -0.9897 -0.6232  0.5629
  497SOL     MW 1988   1.514   2.351   2.572 -0.3638 -0.6538 -0.4016
  498SOL     OW 1989   1.443   2.755   2.325  0.0238  0.2380 -0.0932
  498SOL    HW1 1990   1.438   2.657   2.318 -0.4510  0.1040 -0.1892
  498SOL    HW2 1991   1.530   2.770   2.374  3.0877 -2.5705 -0.2359
  498SOL     MW 1992   1.454   2.744   2.331  0.3654 -0.1502 -0.1247
  499SOL     OW 1993   0.982   0.072   0.081 -0.5979 -0.4187  0.0695
  499SOL    HW1 1994   0.896   0.118   0.111 -1.5322 -2.0247 -1.1700
  499SOL    HW2 1995   0.949  -0.018   0.054 -1.8638  0.9663  1.0146
  499SOL     MW 1996   0.967   0.066   0.081 -0.8882 -0.4478  0.0307
  500SOL     OW 1997   1.055   2.512   2.724 -0.4852  0.1190 -0.2119
  500SOL    HW1 1998   1.118   2.485   2.786  0.9914  0.2109 -1.3019
  500SOL    HW2 1999   0.994   2.570   2.769 -2.5300 -0.4951  0.8635
  500SOL     MW 2000   1.055   2.516   2.738 -0.5602  0.0501 -0.2138
  501SOL     OW 2001   1.809   2.264   3.025 -0.2940 -0.0680  0.3375
  501SOL    HW1 2002   1.793   2.353   3.058 -1.8609 -1.2829  2.9127
  501SOL    HW2 2003   1.898   2.239   3.060 -0.9048 -1.0601 -0.3100
  501SOL     MW 2004   1.819   2.272   3.034 -0.5814 -0.3592  0.5919
  502SOL     OW 2005   0.276   2.736   2.912 -0.4788 -0.0081  0.8813
  502SOL    HW1 2006   0.248   2.716   2.827 -1.1185 -0.9461  0.9653
  502SOL    HW2 2007   0.270   2.830   2.913  2.2721  2.0023 -0.7136
  502SOL     MW 2008   0.271   2.746   2.901 -0.2003  0.1334  0.6819
  503SOL     OW 2009   1.121   2.552   2.073 -0.0362  0.3018 -0.3156
  503SOL    HW1 2010   1.177   2.596   2.009  1.8029  1.4115  2.8027
  503SOL    HW2 2011   1.031   2.563   2.034 -3.9086  1.3378  5.7167
  503SOL     MW 2012   1.116   2.559   2.060 -0.3045  0.5849  0.8917
  504SOL     OW 2013   0.100   2.636   2.158  0.1127 -0.1804 -0.2094
  504SOL    HW1 2014   0.169   2.613   2.096  0.7349 -2.6114 -1.6280
  504SOL    HW2 2015   0.075   2.547   2.190 -1.4024  0.9218 -1.3928
  504SOL     MW 2016   0.106   2.621   2.154 -0.0051 -0.3557 -0.5527
  505SOL     OW 2017   1.585   2.797   2.739  0.3356 -0.6674 -0.0352
  505SOL    HW1 2018   1.606   2.791   2.643  4.2642  0.9949  2.7181
  505SOL    HW2 2019   1.533   2.882   2.752 -1.2766  0.8778  2.1703
  505SOL     MW 2020   1.581   2.808   2.728  0.6412 -0.2442  0.6190
  506SOL     OW 2021   1.609   0.093   2.751 -0.1318 -0.1457  0.1708
  506SOL    HW1 2022   1.602   0.030   2.818 -0.0193  3.7726 -2.1226
  506SOL    HW2 2023   1.684   0.070   2.701  0.2296  0.9760  1.9555
  506SOL     MW 2024   1.618   0.081   2.753 -0.0693  0.5193  0.1037
  507SOL     OW 2025   0.871   2.714   2.831 -0.0853  0.2095 -0.3662
  507SOL    HW1 2026   0.878   2.767   2.753 -0.6509  0.7161 -0.3444
  507SOL    HW2 2027   0.789   2.660   2.813 -0.6055 -1.2673 -2.4302
  507SOL     MW 2028   0.861   2.714   2.818 -0.2286  0.0815 -0.6356
  508SOL     OW 2029   1.174   2.121   2.532 -0.3847 -0.0948  0.5049
  508SOL    HW1 2030   1.235   2.156   2.601 -1.9265  0.3016  0.6500
  508SOL    HW2 2031   1.095   2.091   2.582 -1.6261  0.5125 -0.5145
  508SOL     MW 2032   1.171   2.121   2.548 -0.7519  0.0376  0.3896
  509SOL     OW 2033   0.632   2.556   2.818  0.5872  0.9323 -0.6611
  509SOL    HW1 2034   0.622   2.510   2.733 -0.4806  0.0555  0.0552
  509SOL    HW2 2035   0.592   2.638   2.816  0.1315  0.2627  1.8000
  509SOL     MW 2036   0.625   2.561   2.807  0.3862  0.7283 -0.2419
  510SOL     OW 2037   1.494   2.578   1.621  0.1321 -0.0532 -0.3044
  510SOL    HW1 2038   1.517   2.670   1.595 -0.1983  0.3700 -0.1325
  510SOL    HW2 2039   1.456   2.590   1.712 -0.9077 -1.3326  0.3329
  510SOL     MW 2040   1.492   2.592   1.630 -0.0487 -0.1662 -0.1976
  511SOL     OW 2041   0.345   2.514   2.486 -0.0494 -0.0825  0.7036
  511SOL    HW1 2042   0.416   2.469   2.537  0.6636  1.7941  1.1376
  511SOL    HW2 2043   0.370   2.525   2.394  0.7254 -0.5115  2.8126
  511SOL     MW 2044   0.358   2.509   2.481  0.1469  0.1085  1.0391
  512SOL     OW 2045   1.030   1.959   2.809  0.5207  0.4573  0.3669
  512SOL    HW1 2046   0.950   1.972   2.864 -0.6602 -1.1334  0.6549
  512SOL    HW2 2047   1.089   1.890   2.861 -0.5589 -0.0695  0.0323
  512SOL     MW 2048   1.027   1.951   2.823  0.2224  0.1779  0.3608
  513SOL     OW 2049   1.501   2.486   2.278  0.0543 -0.1815 -0.8688
  513SOL    HW1 2050   1.589   2.505   2.239 -0.6494  2.3488 -0.4674
  513SOL    HW2 2051   1.516   2.390   2.291 -2.1726  1.4533  2.1839
  513SOL     MW 2052   1.515   2.476   2.274 -0.3324  0.3681 -0.4131
  514SOL     OW 2053   0.194   2.335   2.678  0.0045 -0.1065 -0.0327
  514SOL    HW1 2054   0.226   2.392   2.608  1.0830  2.9881  2.2662
  514SOL    HW2 2055   0.266   2.292   2.729  0.3407 -0.6977  1.9971
  514SOL     MW 2056   0.207   2.337   2.676  0.1911  0.2238  0.5384
  515SOL     OW 2057   1.075   1.974   1.842 -0.1173  0.1025 -0.3003
  515SOL    HW1 2058   1.053   2.073   1.836 -0.2207 -1.5222 -0.9678
  515SOL    HW2 2059   1.157   1.965   1.898  2.0907 -0.1314 -0.0682
  515SOL     MW 2060   1.083   1.986   1.848  0.1604 -0.1427 -0.3577
  516SOL     OW 2061   1.297   2.581   2.913  0.0295  0.1829  0.5770
  516SOL    HW1 2062   1.310   2.577   2.816  0.6892 -0.4087  0.4400
  516SOL    HW2 2063   1.232   2.507   2.938  0.1179 -1.4713  1.0395
  516SOL     MW 2064   1.290   2.571   2.904  0.1282 -0.1134  0.6199
  517SOL     OW 2065   0.517   2.318   2.242 -0.0735  0.6816  0.3593
  517SOL    HW1 2066   0.502   2.415   2.240 -0.9327  2.4715 -3.8798
  517SOL    HW2 2067   0.475   2.283   2.166  0.6672 -1.5462 -0.7665
  517SOL     MW 2068   0.510   2.326   2.231 -0.0892  0.6238 -0.3485
  518SOL     OW 2069   1.783   0.160   3.046  0.0906 -0.7692 -0.0866
  518SOL    HW1 2070   1.806   0.169   3.143 -1.3009 -0.6826  0.3447
  518SOL    HW2 2071   1.741   0.074   3.043  2.0106 -0.8214 -0.4381
  518SOL     MW 2072   1.780   0.150   3.058  0.1603 -0.7646 -0.0761
  519SOL     OW 2073   0.623   2.389   1.951  0.2333  0.4050 -0.8197
  519SOL    HW1 2074   0.652   2.307   1.986 -0.5745  1.1844 -2.9467
  519SOL    HW2 2075   0.540   2.370   1.901 -2.0950  1.2081  0.1000
  519SOL     MW 2076   0.616   2.376   1.949 -0.1805  0.6138 -0.9790
  520SOL     OW 2077   1.214   2.120   2.925  0.2483  0.0711  0.2496
  520SOL    HW1 2078   1.136   2.071   2.901  0.2430 -1.7643  0.8643
  520SOL    HW2 2079   1.254   2.073   3.003  0.5541 -0.0026  0.5006
  520SOL     MW 2080   1.209   2.107   2.932  0.2879 -0.1808  0.3638
  521SOL     OW 2081   1.767   2.031   2.243  0.5888  0.3044 -0.0227
  521SOL    HW1 2082   1.783   2.025   2.144  0.2990 -0.9201  0.3964
  521SOL    HW2 2083   1.758   1.942   2.270  0.4655  0.6277  2.6634
  521SOL     MW 2084   1.768   2.018   2.233  0.5343  0.1855  0.3870
  522SOL     OW 2085   2.822   2.570   2.235  0.5556 -0.1583  0.5346
  522SOL    HW1 2086   2.894   2.514   2.263  0.2128  3.8761  0.2986
  522SOL    HW2 2087   2.830   2.634   2.297 -0.5288 -3.0747 -1.7804
  522SOL     MW 2088   2.832   2.571   2.247  0.3673 -0.0108  0.1980
  523SOL     OW 2089   0.812   1.485   2.153  0.4995 -0.0701 -0.2260
  523SOL    HW1 2090   0.756   1.516   2.077  0.6014  3.0662  0.9734
  523SOL    HW2 2091   0.873   1.428   2.103 -1.5863  0.2569 -0.7958
  523SOL     MW 2092   0.813   1.481   2.136  0.2377  0.3869 -0.1429
  524SOL     OW 2093   0.581   2.380   3.026  1.0595  0.1872 -0.0196
  524SOL    HW1 2094   0.580   2.445   2.956  0.5410  2.4674 -3.3024
  524SOL    HW2 2095   0.655   2.322   3.019 -1.8481  1.0365 -0.2880
  524SOL     MW 2096   0.591   2.381   3.016  0.6075  0.6001 -0.4882
  525SOL     OW 2097   0.339   2.155   2.087  0.3724  0.2713  0.2948
  525SOL    HW1 2098   0.315   2.088   2.150  2.5730  1.6915 -1.9286
  525SOL    HW2 2099   0.375   2.111   2.008  0.0045  1.6075  0.7389
  525SOL     MW 2100   0.341   2.140   2.085  0.6142  0.6350  0.0601
  526SOL     OW 2101   0.737   2.088   1.993 -0.1982  0.4197 -0.1469
  526SOL    HW1 2102   0.783   2.126   1.924 -3.8827 -1.0550  6.0442
  526SOL    HW2 2103   0.793   2.094   2.071  0.9251  1.3724 -1.0743
  526SOL     MW 2104   0.750   2.094   1.994 -0.5361  0.3508  0.5476
  527SOL     OW 2105   1.298   1.914   2.011  0.4081  0.0219 -0.1157
  527SOL    HW1 2106   1.282   1.866   2.094  0.1290 -1.5032 -1.5797
  527SOL    HW2 2107   1.337   1.851   1.948  0.9672  1.8264 -1.6138
  527SOL     MW 2108   1.301   1.899   2.013  0.4451  0.0588 -0.5065
  528SOL     OW 2109   0.606   2.903   3.021  0.2214 -0.2765  0.2340
  528SOL    HW1 2110   0.630   3.002   3.026 -0.4149 -0.3536  0.6627
  528SOL    HW2 2111   0.571   2.889   2.935  1.7152 -2.5411  1.0970
  528SOL     MW 2112   0.605   2.914   3.010  0.3346 -0.5855  0.4044
  529SOL     OW 2113   1.103   2.277   1.789  0.2950 -0.0500 -0.0699
  529SOL    HW1 2114   1.127   2.283   1.885  1.9228  0.4981  0.8745
  529SOL    HW2 2115   1.164   2.221   1.744  0.6732  2.1815  0.8838
  529SOL     MW 2116   1.114   2.270   1.796  0.5597  0.3167  0.1805
  530SOL     OW 2117   1.118   2.395   2.990  0.5228 -0.5986  0.1053
  530SOL    HW1 2118   1.055   2.430   3.060  1.0286  0.4756  0.6446
  530SOL    HW2 2119   1.104   2.303   2.989 -2.3685  0.7734  0.9390
  530SOL     MW 2120   1.108   2.387   2.999  0.2080 -0.2758  0.2865
  531SOL     OW 2121   0.897   1.814   2.614 -0.2458 -0.0624 -0.1112
  531SOL    HW1 2122   0.950   1.864   2.675 -1.0839 -1.8595 -0.8804
  531SOL    HW2 2123   0.841   1.761   2.668  1.8890 -1.2691 -0.7030
  531SOL     MW 2124   0.897   1.814   2.629 -0.0747 -0.4587 -0.2908
  532SOL     OW 2125   1.701   0.322   2.860 -0.0015 -0.6793  0.3184
  532SOL    HW1 2126   1.669   0.258   2.798 -1.0919  1.4969  3.0925
  532SOL    HW2 2127   1.723   0.274   2.940 -2.2784 -2.3311 -0.0416
  532SOL     MW 2128   1.699   0.308   2.862 -0.4458 -0.6101  0.6369
  533SOL     OW 2129   1.779   2.780   2.960  0.1163 -0.2620  0.2305
  533SOL    HW1 2130   1.745   2.703   3.005 -1.8630 -3.2177 -2.9620
  533SOL    HW2 2131   1.725   2.785   2.879 -0.8615 -1.4351 -1.9593
  533SOL     MW 2132   1.767   2.771   2.955 -0.2739 -0.8067 -0.4797
  534SOL     OW 2133   1.743   2.483   2.498 -0.3268 -0.1378  0.0333
  534SOL    HW1 2134   1.663   2.436   2.536  1.7490  1.9592  0.9468
  534SOL    HW2 2135   1.810   2.482   2.573  2.9093 -1.5064  0.3031
  534SOL     MW 2136   1.742   2.477   2.513  0.3741 -0.0417  0.1894
  535SOL     OW 2137   1.793   2.380   1.923 -0.1474 -0.5071 -0.1380
  535SOL    HW1 2138   1.723   2.352   1.866 -1.9337  0.7008 -1.7366
  535SOL    HW2 2139   1.858   2.413   1.861  0.3859 -2.9081 -0.7475
  535SOL     MW 2140   1.792   2.381   1.908 -0.3127 -0.6645 -0.4293
  536SOL     OW 2141   0.420   1.869   2.029  0.7945 -0.3555 -0.0945
  536SOL    HW1 2142   0.414   1.919   1.948 -1.7383 -1.1816 -1.6257
  536SOL    HW2 2143   0.520   1.871   2.044  1.6007 -1.0960  0.2816
  536SOL     MW 2144   0.433   1.876   2.020  0.5667 -0.5622 -0.2469
  537SOL     OW 2145   0.971   0.189   2.929 -0.3726  0.4435  0.1175
  537SOL    HW1 2146   0.971   0.138   3.013  1.6529  1.9081  0.9878
  537SOL    HW2 2147   0.883   0.219   2.900 -0.5775  0.6377 -0.8017
  537SOL     MW 2148   0.959   0.186   2.937 -0.1324  0.6623  0.1111
  538SOL     OW 2149   1.299   0.067   3.042  0.1204  0.1693  0.5814
  538SOL    HW1 2150   1.245   0.128   2.997  3.6847  1.5786 -2.1288
  538SOL    HW2 2151   1.348   0.120   3.112  1.4329  1.0458  3.4712
  538SOL     MW 2152   1.299   0.082   3.045  0.7638  0.4709  0.6051
  539SOL     OW 2153   0.740   2.707   2.501  0.0525 -0.5134 -0.1850
  539SOL    HW1 2154   0.812   2.769   2.505 -0.6334  1.2112  0.2479
  539SOL    HW2 2155   0.783   2.627   2.521 -1.6909 -0.9121 -1.0073
  539SOL     MW 2156   0.755   2.705   2.504 -0.2680 -0.3385 -0.2364
  540SOL     OW 2157   0.400   2.220   2.882 -0.6395 -0.1476 -0.6483
  540SOL    HW1 2158   0.464   2.276   2.934  1.5988  1.5418  0.2733
  540SOL    HW2 2159   0.361   2.159   2.946 -0.7653  0.0693  0.4259
  540SOL     MW 2160   0.403   2.219   2.898 -0.3608  0.1039 -0.3849
  541SOL     OW 2161   0.195   2.887   2.253 -0.1481 -0.2366  0.2881
  541SOL    HW1 2162   0.163   2.805   2.215  0.9786  0.3209 -0.9622
  541SOL    HW2 2163   0.236   2.864   2.336  1.2475  0.9130 -2.7749
  541SOL     MW 2164   0.196   2.873   2.259  0.1847 -0.0114 -0.2810
  542SOL     OW 2165   0.880   2.306   2.779  0.2098 -0.4124  0.1105
  542SOL    HW1 2166   0.855   2.297   2.876 -0.2703 -1.6421 -0.9364
  542SOL    HW2 2167   0.962   2.356   2.767  1.1399  2.4338  0.0545
  542SOL     MW 2168   0.888   2.311   2.790  0.2692 -0.1991 -0.0350
  543SOL     OW 2169   1.362   2.652   2.663  0.3682  0.1481  0.5309
  543SOL    HW1 2170   1.404   2.571   2.631  0.9579 -1.3251 -0.4546
  543SOL    HW2 2171   1.428   2.708   2.710  1.6304  2.2427 -1.3514
  543SOL     MW 2172   1.376   2.649   2.665  0.6125  0.2301  0.1525
  544SOL     OW 2173   0.696   0.085   2.595 -0.1719 -0.2414 -0.5589
  544SOL    HW1 2174   0.613   0.047   2.588  2.2588 -0.0769  0.7819
  544SOL    HW2 2175   0.751   0.054   2.529 -2.5292 -0.8339 -1.4446
  544SOL     MW 2176   0.692   0.076   2.586 -0.1622 -0.2979 -0.4988
  545SOL     OW 2177   1.571   2.227   2.331 -0.0725 -0.6103 -0.0246
  545SOL    HW1 2178   1.534   2.138   2.331  1.2325  2.3302 -1.1042
  545SOL    HW2 2179   1.658   2.205   2.321 -1.8100 -0.8337 -0.3474
  545SOL     MW 2180   1.577   2.213   2.330 -0.1296 -0.2518 -0.2096
  546SOL     OW 2181   2.975   2.019   0.111 -0.3306  0.3979 -0.0447
  546SOL    HW1 2182   2.954   2.062   0.025 -0.4463  0.5208 -0.4462
  546SOL    HW2 2183   3.050   1.956   0.095  0.3968 -3.7658 -0.2965
  546SOL     MW 2184   2.982   2.016   0.098 -0.2499 -0.1352 -0.1309
  547SOL     OW 2185   0.115   2.936   0.059 -0.6604  0.1391 -0.0245
  547SOL    HW1 2186   0.152   2.972  -0.024  1.1175 -3.1584 -2.2262
  547SOL    HW2 2187   0.163   2.853   0.071  1.2063  0.4293  0.4716
  547SOL     MW 2188   0.126   2.929   0.049 -0.1796 -0.2577 -0.2495
  548SOL     OW 2189   0.271   2.493   0.284  0.5387 -0.0942 -0.3192
  548SOL    HW1 2190   0.263   2.556   0.213  0.1328 -0.9925 -0.7723
  548SOL    HW2 2191   0.185   2.452   0.281  4.3955 -1.8821  0.5399
  548SOL     MW 2192   0.258   2.496   0.275  0.9940 -0.4486 -0.2656
  549SOL     OW 2193   0.701   1.830   2.062 -0.1303 -0.4271  0.8125
  549SOL    HW1 2194   0.730   1.889   1.992  0.9954  1.7663 -2.2884
  549SOL    HW2 2195   0.738   1.861   2.144  0.3921  1.4394  1.9439
  549SOL     MW 2196   0.710   1.842   2.064  0.0871  0.1086  0.5526
  550SOL     OW 2197   1.864   1.744   2.521 -0.1925  0.3563  0.5625
  550SOL    HW1 2198   1.834   1.741   2.432  0.6454  0.4312 -3.0998
  550SOL    HW2 2199   1.838   1.828   2.567  1.5077  1.7424 -1.2406
  550SOL     MW 2200   1.856   1.754   2.516  0.1423  0.5490 -0.1586
  551SOL     OW 2201   0.853   2.293   0.243 -0.0478  0.1310  0.0414
  551SOL    HW1 2202   0.931   2.316   0.192  0.4569 -0.9461  0.1483
  551SOL    HW2 2203   0.784   2.283   0.179 -0.4543  1.5870  0.3587
  551SOL     MW 2204   0.854   2.295   0.228 -0.0348  0.1810  0.0974
  552SOL     OW 2205   1.732   1.749   2.278  0.3086  0.1149  0.2508
  552SOL    HW1 2206   1.644   1.729   2.288  0.3861  0.6483 -0.5388
  552SOL    HW2 2207   1.775   1.701   2.201  1.8156 -0.4578 -0.6826
  552SOL     MW 2208   1.726   1.740   2.269  0.5176  0.1097  0.0235
  553SOL     OW 2209   1.211   2.313   1.521 -0.1249  0.0557  0.1452
  553SOL    HW1 2210   1.262   2.230   1.521 -1.5952 -1.6534 -3.4179
  553SOL    HW2 2211   1.272   2.380   1.487 -0.9681  0.7201 -0.5005
  553SOL     MW 2212   1.225   2.311   1.517 -0.4301 -0.0821 -0.4101
  554SOL     OW 2213   0.529   2.812   2.707  0.1462 -0.1938  0.2217
  554SOL    HW1 2214   0.536   2.902   2.677 -1.2960  2.7219  2.8557
  554SOL    HW2 2215   0.588   2.766   2.647 -1.9004  0.0035  2.2426
  554SOL     MW 2216   0.538   2.818   2.695 -0.3141  0.2169  0.8359
  555SOL     OW 2217   0.562   2.373   2.610 -0.4503 -0.2536  0.0154
  555SOL    HW1 2218   0.579   2.292   2.661  2.6206 -3.1442  1.4338
  555SOL    HW2 2219   0.644   2.397   2.557  1.7711  0.3561  0.4482
  555SOL     MW 2220   0.575   2.365   2.610  0.2480 -0.5546  0.2597
  556SOL     OW 2221   1.048   1.797   0.141  0.0171 -0.0184 -0.0506
  556SOL    HW1 2222   1.080   1.782   0.051 -0.3254 -0.7484  0.0667
  556SOL    HW2 2223   1.121   1.834   0.189 -1.4258 -2.4501 -2.7199
  556SOL     MW 2224   1.062   1.800   0.136 -0.2184 -0.4356 -0.3873
  557SOL     OW 2225   1.048   2.697   0.452 -0.1339 -0.0161 -0.3415
  557SOL    HW1 2226   1.097   2.707   0.372 -0.8757 -1.5351  1.5458
  557SOL    HW2 2227   0.990   2.776   0.466 -1.7245  1.8078  0.0872
  557SOL     MW 2228   1.047   2.709   0.444 -0.4417  0.0241 -0.0359
  558SOL     OW 2229   0.251   2.075   3.081  0.2121  0.0420  0.1632
  558SOL    HW1 2230   0.193   2.002   3.087  2.6055  1.4165 -0.2284
  558SOL    HW2 2231   0.216   2.154   3.112  1.9089 -0.3920  1.6166
  558SOL     MW 2232   0.239   2.076   3.086  0.7517  0.1661  0.3033
  559SOL     OW 2233   1.201   2.271   2.037 -0.3838  0.3759 -0.3935
  559SOL    HW1 2234   1.161   2.350   2.071 -0.9273 -1.0121  1.2773
  559SOL    HW2 2235   1.199   2.212   2.117  1.6926 -1.3273  2.4089
  559SOL     MW 2236   1.195   2.274   2.052 -0.1815 -0.0320  0.1967
  560SOL     OW 2237   1.931   2.966   0.036 -0.1532 -0.8846  0.0655
  560SOL    HW1 2238   1.994   3.001  -0.027  1.1147 -0.6239  0.8876
  560SOL    HW2 2239   1.885   2.907  -0.020  1.6038 -0.0551 -0.7624
  560SOL     MW 2240   1.933   2.963   0.020  0.2459 -0.7408  0.0648
  561SOL     OW 2241   0.482   2.089   0.163  0.0556  0.0411  0.0956
  561SOL    HW1 2242   0.407   2.103   0.091 -0.9560  1.6047 -0.2369
  561SOL    HW2 2243   0.505   2.180   0.193 -0.2445 -3.7658  0.1498
  561SOL     MW 2244   0.475   2.102   0.157 -0.1175 -0.2549  0.0589
  562SOL     OW 2245   0.867   2.136   2.234  0.1777  0.1259 -0.1077
  562SOL    HW1 2246   0.851   2.233   2.244  0.2467  0.9439  0.3029
  562SOL    HW2 2247   0.960   2.117   2.242  0.5327  0.6992  0.0635
  562SOL     MW 2248   0.877   2.146   2.236  0.2336  0.3094 -0.0309
  563SOL     OW 2249   1.242   0.288   0.546 -0.7585  0.6217  0.5223
  563SOL    HW1 2250   1.190   0.261   0.467  0.2686  0.2240  0.1679
  563SOL    HW2 2251   1.265   0.195   0.576 -0.4843  0.0577 -1.1599
  563SOL     MW 2252   1.238   0.272   0.539 -0.5868  0.4948  0.2536
  564SOL     OW 2253   1.012   2.609   2.325  0.3475  0.2589  0.5340
  564SOL    HW1 2254   1.061   2.569   2.253  0.5661  1.2689 -1.3402
  564SOL    HW2 2255   1.070   2.660   2.386 -1.4279  0.6401 -0.1067
  564SOL     MW 2256   1.026   2.610   2.323  0.1421  0.4425  0.2022
  565SOL     OW 2257   2.917   2.660   2.687 -0.3127 -0.3779 -1.1589
  565SOL    HW1 2258   2.968   2.738   2.670  0.0779  3.1320  0.1651
  565SOL    HW2 2259   2.858   2.647   2.604 -0.6876 -1.7405 -1.0596
  565SOL     MW 2260   2.916   2.668   2.674 -0.3106 -0.0946 -0.9711
  566SOL     OW 2261   2.215   1.971   2.338  0.9844 -0.8991 -0.0308
  566SOL    HW1 2262   2.247   1.951   2.249  0.2248 -0.0315 -0.2561
  566SOL    HW2 2263   2.282   2.033   2.371  1.8191  0.9839  0.0230
  566SOL     MW 2264   2.228   1.976   2.330  0.9943 -0.5362 -0.0534
  567SOL     OW 2265   1.192   2.929   0.091 -0.1077 -0.0163  0.2284
  567SOL    HW1 2266   1.196   3.023   0.096  2.5123  0.3939 -0.4289
  567SOL    HW2 2267   1.202   2.904  -0.002  0.5843 -2.7984 -0.2298
  567SOL     MW 2268   1.194   2.938   0.079  0.3293 -0.3293  0.0812
  568SOL     OW 2269   1.647   2.141   2.830  0.5268 -0.4191  0.2184
  568SOL    HW1 2270   1.727   2.183   2.876  0.9106 -1.5897  2.8253
  568SOL    HW2 2271   1.679   2.099   2.747  1.0678  3.4115  1.5120
  568SOL     MW 2272   1.662   2.141   2.825  0.6488 -0.0681  0.7330
  569SOL     OW 2273   0.106   2.210   2.449 -0.4496 -0.0982 -0.7697
  569SOL    HW1 2274   0.059   2.285   2.416  0.8741 -3.3678  0.6586
  569SOL    HW2 2275   0.130   2.230   2.540 -0.0275 -0.9032 -1.2119
  569SOL     MW 2276   0.103   2.222   2.457 -0.2193 -0.6358 -0.6396
  570SOL     OW 2277   1.497   0.404   0.482 -1.1282  0.4942  0.6664
  570SOL    HW1 2278   1.420   0.360   0.517  3.4429 -1.3149  1.4548
  570SOL    HW2 2279   1.557   0.424   0.555 -1.2220 -0.8770 -3.3081
  570SOL     MW 2280   1.495   0.401   0.496 -0.5375  0.0746  0.2460
  571SOL     OW 2281   1.473   2.412   1.992  0.2251 -0.6352 -0.2740
  571SOL    HW1 2282   1.431   2.415   2.078  0.6360 -1.8916  1.4056
  571SOL    HW2 2283   1.443   2.328   1.960 -2.0928  1.0397 -0.2602
  571SOL     MW 2284   1.464   2.401   1.999 -0.0265 -0.5800 -0.0506
  572SOL     OW 2285   0.900   2.568   3.065  0.2884  0.3219  0.2620
  572SOL    HW1 2286   0.873   2.621   2.989  1.0473 -1.0806 -1.0266
  572SOL    HW2 2287   0.822   2.570   3.121 -2.4813  0.0008  0.2191
  572SOL     MW 2288   0.886   2.575   3.063  0.0231  0.0945  0.0863
  573SOL     OW 2289   1.113   2.406   0.178 -0.2228  0.2552  0.2288
  573SOL    HW1 2290   1.203   2.395   0.136  1.7817 -1.9466 -0.9974
  573SOL    HW2 2291   1.106   2.497   0.191  0.4897  2.0546  0.2886
  573SOL     MW 2292   1.124   2.416   0.174  0.1357  0.2021  0.0749
  574SOL     OW 2293   1.181   2.687   0.207 -0.8858  0.6866  0.2293
  574SOL    HW1 2294   1.275   2.679   0.229 -0.7169 -1.2708 -0.1586
  574SOL    HW2 2295   1.177   2.763   0.155 -1.1087 -1.3533  1.7093
  574SOL     MW 2296   1.193   2.696   0.203 -0.8930  0.1592  0.3734
  575SOL     OW 2297   3.055   2.303   1.837  0.1629  0.0986  0.6109
  575SOL    HW1 2298   3.042   2.243   1.761 -3.5621  3.2316  0.4615
  575SOL    HW2 2299   3.119   2.367   1.791  0.6029  3.4878  1.5012
  575SOL     MW 2300   3.061   2.304   1.821 -0.2705  0.9591  0.7086
  576SOL     OW 2301   2.820   1.811   2.035 -0.0136  0.1574  0.1870
  576SOL    HW1 2302   2.810   1.897   1.992  1.2662  1.1340  0.9390
  576SOL    HW2 2303   2.734   1.769   2.022  1.3974 -2.4774 -0.0794
  576SOL     MW 2304   2.807   1.817   2.028  0.3414 -0.0614  0.2511
  577SOL     OW 2305   2.065   0.236   0.059  0.4361 -0.6516 -0.0947
  577SOL    HW1 2306   2.009   0.311   0.043 -0.1014  0.1013  3.0701
  577SOL    HW2 2307   2.012   0.174   0.101 -1.6793 -0.1202  3.0238
  577SOL     MW 2308   2.050   0.238   0.063  0.0861 -0.4822  0.7343
  578SOL     OW 2309   1.994   2.146   2.326 -0.1858 -0.9209  0.0225
  578SOL    HW1 2310   1.913   2.102   2.288  3.3897 -0.7845 -0.2604
  578SOL    HW2 2311   2.072   2.084   2.317 -0.0122 -2.5913  0.3744
  578SOL     MW 2312   1.994   2.132   2.320  0.3089 -1.1233  0.0316
  579SOL     OW 2313   0.832   2.441   2.517  0.2499 -0.2274  0.2571
  579SOL    HW1 2314   0.858   2.398   2.602 -1.0478  0.1625 -0.3978
  579SOL    HW2 2315   0.914   2.480   2.483  0.8481  0.7016 -1.6509
  579SOL     MW 2316   0.846   2.441   2.524  0.1576 -0.0534 -0.0811
  580SOL     OW 2317   0.910   2.901   0.026  0.2419  0.8206 -0.0764
  580SOL    HW1 2318   0.988   2.865   0.076 -0.4228  1.2668 -0.1857
  580SOL    HW2 2319   0.884   2.832  -0.026  2.9525  0.0281  0.8938
  580SOL     MW 2320   0.917   2.887   0.026  0.5118  0.7749  0.0372
  581SOL     OW 2321   1.095   2.543   1.756 -0.5997  0.2071  0.6209
  581SOL    HW1 2322   1.183   2.577   1.754 -0.5420  1.1507  1.7782
  581SOL    HW2 2323   1.102   2.447   1.763  1.7557 -0.5604 -4.3545
  581SOL     MW 2324   1.108   2.535   1.757 -0.2813  0.2303  0.1172
  582SOL     OW 2325   0.001   2.854   2.607 -0.0485  0.0270 -0.3006
  582SOL    HW1 2326   0.003   2.947   2.648  1.4378  0.6332 -1.2212
  582SOL    HW2 2327   0.093   2.843   2.591  0.7122  0.1118 -0.1346
  582SOL     MW 2328   0.014   2.865   2.611  0.2480  0.1182 -0.4002
  583SOL     OW 2329   1.965   2.480   2.682  0.6574 -0.2574 -0.2742
  583SOL    HW1 2330   2.010   2.529   2.610 -1.9975  0.7986  1.0057
  583SOL    HW2 2331   1.981   2.387   2.663  1.1904 -2.3801  0.4000
  583SOL     MW 2332   1.973   2.475   2.670  0.3774 -0.3981 -0.0164
  584SOL     OW 2333   0.152   1.842   2.127 -0.4401 -0.2034 -0.1015
  584SOL    HW1 2334   0.240   1.839   2.084  0.3718  0.4158 -1.5738
  584SOL    HW2 2335   0.170   1.884   2.210  0.2619  0.0348  0.0417
  584SOL     MW 2336   0.166   1.847   2.132 -0.2404 -0.0903 -0.2769
  585SOL     OW 2337   1.460   2.570   0.037  0.5254 -0.1059 -0.2715
  585SOL    HW1 2338   1.399   2.570  -0.046  0.8313 -1.4308 -1.7358
  585SOL    HW2 2339   1.465   2.660   0.061  0.4441 -4.1523  0.5803
  585SOL     MW 2340   1.452   2.582   0.029  0.5551 -0.8146 -0.3523
  586SOL     OW 2341   1.283   2.993   2.375 -0.7946  0.2704 -0.1697
  586SOL    HW1 2342   1.346   2.925   2.355 -0.0520 -0.2848  1.2058
  586SOL    HW2 2343   1.293   3.024   2.470 -1.7731 -0.4178  1.5991
  586SOL     MW 2344   1.292   2.988   2.385 -0.8257  0.1063  0.2451
  587SOL     OW 2345   1.193   1.630   2.198  0.1639 -0.2441 -0.2427
  587SOL    HW1 2346   1.195   1.548   2.252 -0.0625  0.5275  0.3741
  587SOL    HW2 2347   1.166   1.598   2.107  0.9193 -0.7191 -2.9717
  587SOL     MW 2348   1.190   1.615   2.193  0.2337 -0.2050 -0.5214
  588SOL     OW 2349   1.380   2.168   2.718  0.4729 -0.6195 -0.0088
  588SOL    HW1 2350   1.458   2.153   2.759 -4.0201 -1.8902  1.9996
  588SOL    HW2 2351   1.314   2.129   2.779  1.2097 -1.0440 -0.8738
  588SOL     MW 2352   1.382   2.161   2.731 -0.0227 -0.8432  0.1421
  589SOL     OW 2353   1.343   2.048   0.053  0.4660 -0.1822  0.2210
  589SOL    HW1 2354   1.350   2.143   0.068 -1.7703  0.4499  2.4681
  589SOL    HW2 2355   1.298   2.014   0.132 -0.7710  1.6145 -1.5635
  589SOL     MW 2356   1.338   2.056   0.066  0.0078  0.1383  0.2821
  590SOL     OW 2357   0.447   2.587   2.233  0.0499  0.1440  0.1210
  590SOL    HW1 2358   0.428   2.611   2.143  0.0346  0.7112  0.2368
  590SOL    HW2 2359   0.525   2.639   2.250 -0.6174  1.0586 -0.0455
  590SOL     MW 2360   0.455   2.597   2.223 -0.0402  0.3395  0.1143
  591SOL     OW 2361   2.260   0.713   3.048  0.8139  0.2431  0.6036
  591SOL    HW1 2362   2.181   0.743   3.009  0.6240  0.0104  0.7605
  591SOL    HW2 2363   2.329   0.767   3.010 -0.4662  1.2790  1.5311
  591SOL     MW 2364   2.259   0.724   3.038  0.6200  0.3491  0.7467
  592SOL     OW 2365   1.843   2.945   0.851 -0.0772  0.4209  0.0376
  592SOL    HW1 2366   1.820   2.992   0.766 -0.8860  4.0661  0.0420
  592SOL    HW2 2367   1.877   2.856   0.816  2.9310  0.0261 -1.7575
  592SOL     MW 2368   1.845   2.939   0.835  0.2130  0.8498 -0.1987
  593SOL     OW 2369   1.927   0.791   0.840 -0.3337  0.0332  0.0045
  593SOL    HW1 2370   1.856   0.770   0.776 -1.2208 -2.3523 -2.9255
  593SOL    HW2 2371   1.944   0.700   0.867 -1.4972 -0.0912 -0.6195
  593SOL     MW 2372   1.920   0.776   0.836 -0.6042 -0.2979 -0.4644
  594SOL     OW 2373   2.736   1.157   1.376  0.5287  0.3296  0.1214
  594SOL    HW1 2374   2.833   1.145   1.406  1.6692 -3.6732 -0.2244
  594SOL    HW2 2375   2.735   1.143   1.279  0.8370  0.4267 -0.7567
  594SOL     MW 2376   2.749   1.154   1.367  0.7199 -0.1857 -0.0401
  595SOL     OW 2377   0.428   0.967   0.741  0.2650 -0.4542 -0.3921
  595SOL    HW1 2378   0.472   1.035   0.679 -1.1500 -0.7073 -1.7861
  595SOL    HW2 2379   0.460   0.978   0.827  0.6914  1.3249 -1.3374
  595SOL     MW 2380   0.438   0.978   0.744  0.1346 -0.2529 -0.7007
  596SOL     OW 2381   2.442   1.358   0.594  0.0694 -0.2385 -0.1684
  596SOL    HW1 2382   2.454   1.433   0.534  1.8246  2.8528 -1.2148
  596SOL    HW2 2383   2.527   1.337   0.635 -2.0994 -0.5863  3.2792
  596SOL     MW 2384   2.455   1.365   0.592  0.0148  0.1235  0.1484
  597SOL     OW 2385   2.171   0.653   1.713 -0.2038  0.3330  0.4036
  597SOL    HW1 2386   2.250   0.608   1.736 -1.6766  0.0602 -0.7329
  597SOL    HW2 2387   2.146   0.621   1.622  2.0247  0.8686  0.2054
  597SOL     MW 2388   2.178   0.643   1.704 -0.1041  0.3677  0.2275
  598SOL     OW 2389   2.624   1.004   2.865 -0.0168  0.2317 -0.6602
  598SOL    HW1 2390   2.686   0.975   2.796 -0.0029  1.9824  5.0322
  598SOL    HW2 2391   2.670   1.028   2.947 -2.2840 -0.6231  1.6684
  598SOL     MW 2392   2.638   1.003   2.867 -0.3141  0.3499  0.3981
  599SOL     OW 2393   2.906   0.375   1.997  0.3435  0.1263  0.0643
  599SOL    HW1 2394   2.876   0.358   2.086 -0.5275 -2.5885 -2.1317
  599SOL    HW2 2395   2.941   0.464   2.006 -0.8953  0.1969  1.1271
  599SOL     MW 2396   2.907   0.385   2.010  0.0651 -0.2226 -0.0852
  600SOL     OW 2397   1.869   1.706   0.883  0.2184  0.2730  0.2534
  600SOL    HW1 2398   1.865   1.693   0.975  1.9337  1.5828 -1.4672
  600SOL    HW2 2399   1.776   1.730   0.867  2.3790 -2.4143  0.8203
  600SOL     MW 2400   1.856   1.707   0.893  0.7298  0.0913  0.1012
  601SOL     OW 2401   2.535   0.800   0.879  0.8017  0.1007 -0.1140
  601SOL    HW1 2402   2.535   0.823   0.973  0.6734 -0.2819 -0.1108
  601SOL    HW2 2403   2.479   0.718   0.871 -0.7976 -1.8302  0.3049
  601SOL     MW 2404   2.527   0.792   0.891  0.5737 -0.2046 -0.0583
  602SOL     OW 2405   2.297   1.938   0.681  0.4035 -0.2906 -0.2036
  602SOL    HW1 2406   2.223   1.878   0.692  0.3078  0.2406  1.0938
  602SOL    HW2 2407   2.257   2.010   0.635  1.2137  2.0941  1.9042
  602SOL     MW 2408   2.282   1.940   0.676  0.4977  0.0941  0.2457
  603SOL     OW 2409   2.996   1.390   1.830 -0.3092  0.0723 -0.3092
  603SOL    HW1 2410   3.088   1.406   1.860  2.0338  0.1920 -1.4142
  603SOL    HW2 2411   2.995   1.292   1.818  0.1673  1.3094 -2.4680
  603SOL     MW 2412   3.008   1.379   1.832  0.0628  0.2513 -0.7399
  604SOL     OW 2413   2.086   1.546   0.470  0.5094 -0.5029 -0.8139
  604SOL    HW1 2414   2.144   1.506   0.538  1.1684  2.0815 -1.7404
  604SOL    HW2 2415   2.008   1.566   0.525 -0.8644  1.1696 -0.4945
  604SOL     MW 2416   2.083   1.543   0.486  0.4151  0.0587 -0.8940
  605SOL     OW 2417   2.661   1.570   0.876 -0.2796  0.1381  0.2136
  605SOL    HW1 2418   2.612   1.624   0.821  0.7324 -2.3728  2.5789
  605SOL    HW2 2419   2.600   1.536   0.935  0.0481  2.0754 -2.8269
  605SOL     MW 2420   2.647   1.572   0.876 -0.1029  0.0624  0.1245
  606SOL     OW 2421   2.537   1.757   2.004  0.0742 -0.0858  0.3576
  606SOL    HW1 2422   2.444   1.759   1.992 -0.7831 -0.1428 -0.2296
  606SOL    HW2 2423   2.576   1.709   1.921 -3.2715 -1.3542 -2.7758
  606SOL     MW 2424   2.530   1.751   1.991 -0.4803 -0.2607 -0.1333
  607SOL     OW 2425   2.336   1.019   3.015 -0.0071 -0.4532  0.0028
  607SOL    HW1 2426   2.408   1.034   2.954  1.1668 -0.9121  0.0714
  607SOL    HW2 2427   2.374   1.061   3.095  2.2903  2.7823  0.1074
  607SOL     MW 2428   2.350   1.027   3.017  0.4509 -0.0869  0.0257
  608SOL     OW 2429   1.887   0.275   0.588 -0.2313  0.4753  0.0338
  608SOL    HW1 2430   1.921   0.294   0.498 -0.4490  0.7503 -1.2872
  608SOL    HW2 2431   1.870   0.176   0.595 -0.2987 -2.6027 -1.3653
  608SOL     MW 2432   1.889   0.265   0.577 -0.2689  0.1055 -0.3251
  609SOL     OW 2433   2.143   1.901   3.015 -0.0951  0.4744 -0.1514
  609SOL    HW1 2434   2.055   1.865   2.990  0.0699  2.0760 -2.6774
  609SOL    HW2 2435   2.149   1.897   3.112 -0.2047  0.1901 -1.5546
  609SOL     MW 2436   2.132   1.896   3.024 -0.0878  0.6482 -0.6699
  610SOL     OW 2437   1.856   1.093   1.351  0.0893 -0.3559 -0.3176
  610SOL    HW1 2438   1.865   1.025   1.282 -1.1021 -0.8934 -0.3355
  610SOL    HW2 2439   1.776   1.073   1.394  1.6265  2.4362  0.1899
  610SOL     MW 2440   1.847   1.081   1.348  0.1349 -0.0585 -0.2530
  611SOL     OW 2441   2.445   1.681   0.717  0.1980 -0.6424  0.0192
  611SOL    HW1 2442   2.387   1.760   0.715 -1.9927  0.2072  1.2431
  611SOL    HW2 2443   2.437   1.655   0.627 -1.3810  1.7280 -3.3706
  611SOL     MW 2444   2.436   1.688   0.705 -0.2994 -0.2175 -0.2666
  612SOL     OW 2445   2.789   2.802   0.459  0.0544  0.0310  0.0324
  612SOL    HW1 2446   2.819   2.883   0.508 -0.6664  0.5596  0.4002
  612SOL    HW2 2447   2.852   2.784   0.389  1.1557  0.4687  0.9982
  612SOL     MW 2448   2.801   2.810   0.456  0.1046  0.1585  0.2083
  613SOL     OW 2449   1.610   1.020   1.122 -0.4678  0.5139  0.1139
  613SOL    HW1 2450   1.623   1.100   1.178 -0.7563  1.7867  1.8224
  613SOL    HW2 2451   1.696   0.988   1.096 -1.8556 -0.3265  1.3272
  613SOL     MW 2452   1.623   1.027   1.126 -0.6890  0.5710  0.4994
  614SOL     OW 2453   2.041   0.546   1.493  0.3477 -0.2715 -0.2959
  614SOL    HW1 2454   2.010   0.467   1.537  1.5987 -0.8736  1.7444
  614SOL    HW2 2455   2.054   0.512   1.408  0.2530  2.3736 -1.1867
  614SOL     MW 2456   2.038   0.531   1.487  0.5002 -0.0020 -0.1442
  615SOL     OW 2457   2.252   0.823   0.188  0.9120  0.3137 -0.2908
  615SOL    HW1 2458   2.324   0.776   0.219 -2.2532 -1.5480 -1.3540
  615SOL    HW2 2459   2.238   0.786   0.101 -0.7205 -0.2839  1.1002
  615SOL     MW 2460   2.260   0.812   0.181  0.2790 -0.0108 -0.2476
  616SOL     OW 2461   2.573   0.434   1.590 -0.2458 -0.0573  0.2090
  616SOL    HW1 2462   2.514   0.372   1.546  1.6131 -0.7833  0.3775
  616SOL    HW2 2463   2.625   0.484   1.519 -0.4451  2.6028  1.2198
  616SOL     MW 2464   2.572   0.433   1.575 -0.0268  0.1979  0.3646
  617SOL     OW 2465   2.887   0.541   1.743 -0.3738 -0.0798 -0.4486
  617SOL    HW1 2466   2.807   0.581   1.789  0.0246  1.0397  0.2340
  617SOL    HW2 2467   2.853   0.450   1.740 -1.4654 -0.2905  1.3882
  617SOL     MW 2468   2.872   0.535   1.749 -0.4652  0.0401 -0.1162
  618SOL     OW 2469   2.649   0.367   1.926 -0.0186 -0.0931 -0.6807
  618SOL    HW1 2470   2.633   0.454   1.887  0.5535  2.6045  1.5066
  618SOL    HW2 2471   2.743   0.366   1.948 -0.7742  0.1916  0.5328
  618SOL     MW 2472   2.659   0.379   1.924 -0.0428  0.3004 -0.2320
  619SOL     OW 2473   2.602   0.868   0.154 -0.5339 -0.8995 -0.0126
  619SOL    HW1 2474   2.682   0.918   0.175  1.8487  0.1885  0.7584
  619SOL    HW2 2475   2.561   0.844   0.234  1.9135 -1.3322  0.4715
  619SOL     MW 2476   2.607   0.871   0.167  0.1033 -0.8131  0.1530
  620SOL     OW 2477   2.282   1.084   0.929  0.1787  0.1803  0.1205
  620SOL    HW1 2478   2.350   1.104   0.866 -0.4070  1.9631  0.9465
  620SOL    HW2 2479   2.254   0.999   0.900 -0.0141 -1.0848 -1.5769
  620SOL     MW 2480   2.288   1.076   0.917  0.0760  0.2486  0.0055
  621SOL     OW 2481   1.473   2.115   1.980 -0.2532 -0.0251 -0.0188
  621SOL    HW1 2482   1.413   2.044   1.992 -1.0189  1.4554 -0.7704
  621SOL    HW2 2483   1.505   2.144   2.067  0.3772 -1.7501  2.0350
  621SOL     MW 2484   1.470   2.110   1.993 -0.2711 -0.0574  0.1530
  622SOL     OW 2485   2.619   0.158   0.183 -0.2950 -0.0023  0.1995
  622SOL    HW1 2486   2.703   0.144   0.219 -1.8066 -1.0674 -0.2459
  622SOL    HW2 2487   2.592   0.062   0.154  1.8376 -1.0481  1.5821
  622SOL     MW 2488   2.626   0.143   0.184 -0.2131 -0.2808  0.3232
  623SOL     OW 2489   2.359   2.782   0.835 -0.5645 -0.2688 -0.2252
  623SOL    HW1 2490   2.421   2.850   0.852  1.2359 -2.7379 -0.3007
  623SOL    HW2 2491   2.301   2.783   0.910  0.2768  0.5214  0.4376
  623SOL     MW 2492   2.360   2.791   0.847 -0.2160 -0.4903 -0.1477
  624SOL     OW 2493   2.237   1.646   3.027 -0.1425  0.2406  0.5981
  624SOL    HW1 2494   2.154   1.602   3.041  2.0022  0.4661 -1.9162
  624SOL    HW2 2495   2.211   1.739   3.019 -0.0144 -0.4679  1.2349
  624SOL     MW 2496   2.223   1.653   3.028  0.1574  0.1768  0.3504
  625SOL     OW 2497   2.172   1.892   1.073 -0.4823  0.6078 -0.2235
  625SOL    HW1 2498   2.235   1.870   1.141 -1.6374 -0.0475 -0.4694
  625SOL    HW2 2499   2.211   1.867   0.993 -1.9341 -2.8550  0.5939
  625SOL     MW 2500   2.186   1.886   1.072 -0.8263  0.0645 -0.1481
  626SOL     OW 2501   0.163   1.544   2.377  0.1631 -0.4423 -0.3577
  626SOL    HW1 2502   0.148   1.459   2.330 -2.0249 -1.6666  1.3962
  626SOL    HW2 2503   0.141   1.538   2.472  1.8365  5.2152 -1.8910
  626SOL     MW 2504   0.158   1.532   2.384  0.0952  0.1426 -0.3286
  627SOL     OW 2505   2.444   0.828   2.556 -0.0470 -0.7347  0.1558
  627SOL    HW1 2506   2.390   0.913   2.570 -2.1555 -1.4985 -2.0930
  627SOL    HW2 2507   2.406   0.785   2.477  0.4278 -0.8772  1.8249
  627SOL     MW 2508   2.432   0.834   2.548 -0.2625 -0.8543  0.0793
  628SOL     OW 2509   2.294   1.373   1.386 -0.2935  0.0609  0.3441
  628SOL    HW1 2510   2.273   1.294   1.339 -2.4066  2.2644  0.7492
  628SOL    HW2 2511   2.392   1.374   1.373  1.4130 -0.0375 -2.4405
  628SOL     MW 2512   2.304   1.362   1.378 -0.3472  0.3387  0.0301
  629SOL     OW 2513   1.993   0.550   1.207 -0.3998 -0.0735  0.5443
  629SOL    HW1 2514   2.068   0.612   1.215 -0.4472 -2.0869  1.4369
  629SOL    HW2 2515   1.911   0.602   1.208  0.1873 -2.1972  0.2176
  629SOL     MW 2516   1.992   0.565   1.208 -0.3286 -0.6193  0.6190
  630SOL     OW 2517   2.524   1.796   3.065  0.4287  0.1057  0.0118
  630SOL    HW1 2518   2.459   1.843   3.008  0.1537  0.7595  1.7551
  630SOL    HW2 2519   2.491   1.707   3.083 -1.1248  3.1309 -1.1023
  630SOL     MW 2520   2.511   1.791   3.060  0.1875  0.5911  0.0948
  631SOL     OW 2521   1.979   1.794   1.599 -0.0445  0.2342 -0.0437
  631SOL    HW1 2522   2.018   1.708   1.640  3.1544 -0.6348 -3.0719
  631SOL    HW2 2523   1.938   1.767   1.513  0.0526 -0.8402 -3.9985
  631SOL     MW 2524   1.979   1.779   1.593  0.3904 -0.0222 -0.9651
  632SOL     OW 2525   0.176   2.095   1.579 -0.8655 -0.1311  0.3110
  632SOL    HW1 2526   0.099   2.087   1.628 -2.4112 -1.0672 -3.5967
  632SOL    HW2 2527   0.186   2.005   1.540  0.9180 -2.5735 -1.2654
  632SOL     MW 2528   0.167   2.082   1.580 -0.8341 -0.5769 -0.4126
  633SOL     OW 2529   2.419   0.686   0.353  0.1824  0.1935 -0.0837
  633SOL    HW1 2530   2.505   0.680   0.393  3.4203  1.7378 -2.8245
  633SOL    HW2 2531   2.368   0.607   0.370 -1.7221 -0.0338  0.8067
  633SOL     MW 2532   2.424   0.675   0.361  0.3583  0.3673 -0.3279
  634SOL     OW 2533   2.647   3.080   0.626 -0.1469  0.1173  0.2574
  634SOL    HW1 2534   2.675   3.173   0.617  0.6171 -0.2072  0.2638
  634SOL    HW2 2535   2.612   3.054   0.542  1.0906 -2.6740 -0.9719
  634SOL     MW 2536   2.646   3.089   0.614  0.1171 -0.2938  0.0960
  635SOL     OW 2537   2.630   0.130   1.804 -0.1149 -0.0834 -0.2245
  635SOL    HW1 2538   2.707   0.095   1.761 -0.7948 -1.2500 -0.0320
  635SOL    HW2 2539   2.647   0.221   1.828 -2.0705 -0.4486  2.8066
  635SOL     MW 2540   2.642   0.138   1.801 -0.4627 -0.2855  0.2008
  636SOL     OW 2541   2.936   1.644   0.972  0.5051  0.2678  0.0900
  636SOL    HW1 2542   2.858   1.692   0.945  1.5870  0.3740 -3.5017
  636SOL    HW2 2543   2.965   1.692   1.055  0.6574  0.4470  2.0085
  636SOL     MW 2544   2.929   1.657   0.980  0.6679  0.3055 -0.1308
  637SOL     OW 2545   2.903   1.489   0.702 -0.2064 -0.0251 -0.6436
  637SOL    HW1 2546   2.958   1.536   0.758 -0.4397  0.1233  1.7077
  637SOL    HW2 2547   2.818   1.489   0.745  0.2255 -2.1364 -0.4984
  637SOL     MW 2548   2.899   1.495   0.715 -0.1802 -0.2841 -0.3142
  638SOL     OW 2549   2.652   0.662   0.502  0.0199 -0.2026 -0.2281
  638SOL    HW1 2550   2.748   0.661   0.494 -1.7431 -1.0653  0.1756
  638SOL    HW2 2551   2.641   0.592   0.565 -0.6611 -1.0525 -0.8386
  638SOL     MW 2552   2.663   0.653   0.509 -0.3025 -0.4286 -0.2554
  639SOL     OW 2553   1.812   0.002   0.609  0.4492  0.2897 -1.3216
  639SOL    HW1 2554   1.725   0.053   0.602 -0.7001 -2.1670  1.1217
  639SOL    HW2 2555   1.827  -0.042   0.526  0.1535  1.5000 -0.7356
  639SOL     MW 2556   1.802   0.003   0.597  0.2585  0.1252 -0.9219
  640SOL     OW 2557   0.377   1.367   0.087 -0.1761  0.1753  0.3709
  640SOL    HW1 2558   0.407   1.392  -0.003 -0.7087  2.1224 -1.4463
  640SOL    HW2 2559   0.345   1.272   0.083  1.2102 -1.1967 -0.0798
  640SOL     MW 2560   0.377   1.358   0.075 -0.0635  0.2512  0.0717
  641SOL     OW 2561   2.248   0.449   0.368 -0.5445 -0.2624  0.3082
  641SOL    HW1 2562   2.251   0.425   0.274 -1.5564 -0.6997 -0.9219
  641SOL    HW2 2563   2.312   0.394   0.410 -1.8513  1.1032 -1.5659
  641SOL     MW 2564   2.257   0.439   0.361 -0.8504 -0.1399 -0.1014
  642SOL     OW 2565   0.016   0.008   0.549 -0.5988 -0.7571  0.6241
  642SOL    HW1 2566  -0.023   0.096   0.551 -3.0693 -0.2026 -1.6643
  642SOL    HW2 2567  -0.053  -0.050   0.587 -2.9232 -0.0446  0.1276
  642SOL     MW 2568   0.002   0.012   0.554 -1.2315 -0.5899  0.2567
  643SOL     OW 2569   2.013   0.334   1.669  0.1365  0.3617 -0.1122
  643SOL    HW1 2570   2.100   0.314   1.702 -0.0028  2.6785  1.1747
  643SOL    HW2 2571   1.996   0.273   1.593 -1.3130  2.1889 -1.3152
  643SOL     MW 2572   2.022   0.323   1.663 -0.0731  0.9085 -0.1011
  644SOL     OW 2573   2.709   1.842   0.990  0.2488  0.0287  0.4201
  644SOL    HW1 2574   2.652   1.823   1.060 -0.0174  0.9123  0.0950
  644SOL    HW2 2575   2.646   1.854   0.916 -1.6258  1.0117  0.0776
  644SOL     MW 2576   2.693   1.841   0.989 -0.0336  0.2750  0.3320
  645SOL     OW 2577   2.801   0.887   0.657  0.5450 -0.2484  0.2075
  645SOL    HW1 2578   2.868   0.836   0.703 -0.6670  1.4872  0.4308
  645SOL    HW2 2579   2.745   0.819   0.615  1.0235 -0.6564 -0.9760
  645SOL     MW 2580   2.802   0.871   0.657  0.4482 -0.0733  0.0808
  646SOL     OW 2581   0.182   2.260   0.863 -0.4438 -0.0952 -0.6164
  646SOL    HW1 2582   0.211   2.169   0.855  4.6694  0.9110  0.5091
  646SOL    HW2 2583   0.120   2.283   0.795  1.0130  0.7126  1.1111
  646SOL     MW 2584   0.178   2.251   0.853  0.4231  0.1441 -0.2400
  647SOL     OW 2585   2.729   0.539   2.977 -0.2127  0.2412 -0.0492
  647SOL    HW1 2586   2.685   0.460   2.990  1.6347  0.2699  0.3339
  647SOL    HW2 2587   2.667   0.604   2.989  0.9243  0.0306 -0.4836
  647SOL     MW 2588   2.715   0.537   2.980  0.1811  0.2172 -0.0560
  648SOL     OW 2589   2.222   0.708   1.189  0.0814  0.1288  0.1978
  648SOL    HW1 2590   2.199   0.772   1.122  1.7908 -2.2549  1.1521
  648SOL    HW2 2591   2.253   0.768   1.254 -0.3894  1.0929  0.1428
  648SOL     MW 2592   2.223   0.724   1.188  0.2448 -0.0585  0.3165
  649SOL     OW 2593   2.379   2.716   1.247  0.2720  0.2261  0.3461
  649SOL    HW1 2594   2.462   2.768   1.248 -0.5061  0.3018  0.1589
  649SOL    HW2 2595   2.395   2.628   1.205 -0.0896  3.3506 -2.1594
  649SOL     MW 2596   2.392   2.711   1.242  0.1216  0.6484 -0.0091
  650SOL     OW 2597   2.793   0.236   0.620  0.3473  0.2481  0.4157
  650SOL    HW1 2598   2.803   0.297   0.694  0.7562 -0.2183 -1.0594
  650SOL    HW2 2599   2.884   0.233   0.585  2.7431 -0.9228  0.2484
  650SOL     MW 2600   2.806   0.243   0.625  0.7174  0.0321  0.1990
  651SOL     OW 2601   2.962   0.337   0.839  0.2979  0.2521 -0.0639
  651SOL    HW1 2602   3.031   0.381   0.783  2.4488  2.8972  0.7240
  651SOL    HW2 2603   2.923   0.411   0.891  0.0440 -1.1263  1.1448
  651SOL     MW 2604   2.966   0.353   0.839  0.5482  0.4192  0.1996
  652SOL     OW 2605   2.370   1.428   2.951  0.7197 -0.2747  0.8376
  652SOL    HW1 2606   2.453   1.454   2.900  0.7500 -0.1717 -0.0849
  652SOL    HW2 2607   2.330   1.513   2.980  1.4592 -1.4637  1.3235
  652SOL     MW 2608   2.376   1.443   2.948  0.8213 -0.4180  0.7800
  653SOL     OW 2609   1.974   0.429   0.366  0.2613  0.3810 -0.2567
  653SOL    HW1 2610   1.951   0.379   0.286  1.6478 -2.0915  0.3345
  653SOL    HW2 2611   2.068   0.426   0.371  1.6884  3.2355 -2.3056
  653SOL     MW 2612   1.984   0.422   0.356  0.6325  0.4314 -0.4490
  654SOL     OW 2613   2.476   1.032   0.699  0.0680  0.1955  0.1691
  654SOL    HW1 2614   2.384   1.031   0.671  1.1904  0.0122 -0.1689
  654SOL    HW2 2615   2.491   0.948   0.747 -1.8266 -0.8022 -4.3856
  654SOL     MW 2616   2.466   1.021   0.702 -0.0339  0.0397 -0.4764
  655SOL     OW 2617   3.025   0.912   0.437 -0.3193  0.0677 -0.0857
  655SOL    HW1 2618   2.989   0.952   0.515  0.6828  1.8992 -1.2262
  655SOL    HW2 2619   2.987   0.819   0.431  0.8767 -0.1564 -0.8691
  655SOL     MW 2620   3.015   0.905   0.447 -0.0293  0.2798 -0.3396
  656SOL     OW 2621   1.941   2.774   1.228 -0.3056 -0.3745  0.1649
  656SOL    HW1 2622   1.944   2.860   1.277  1.5951 -0.3165  1.6478
  656SOL    HW2 2623   1.951   2.703   1.282  0.8838  0.4322 -3.7581
  656SOL     MW 2624   1.943   2.776   1.241  0.1021 -0.2604 -0.1570
  657SOL     OW 2625   0.246   1.512   1.235  0.0136  0.1098  0.2519
  657SOL    HW1 2626   0.153   1.500   1.248  1.0531 -0.4180  2.0209
  657SOL    HW2 2627   0.255   1.547   1.147  2.0233 -0.2786 -1.5088
  657SOL     MW 2628   0.235   1.515   1.225  0.4159 -0.0111  0.2530
  658SOL     OW 2629   2.701   1.381   0.241  0.0009 -0.0809 -0.2056
  658SOL    HW1 2630   2.650   1.314   0.291  0.4434 -1.7406  0.6577
  658SOL    HW2 2631   2.741   1.434   0.308 -0.1309 -1.7482 -0.8945
  658SOL     MW 2632   2.700   1.379   0.256  0.0419 -0.5199 -0.1826
  659SOL     OW 2633   2.241   1.557   1.015  0.3612  0.1885  0.0664
  659SOL    HW1 2634   2.335   1.521   1.027  0.2094 -0.8403 -0.3433
  659SOL    HW2 2635   2.208   1.602   1.090  3.0291  0.1991 -3.1522
  659SOL     MW 2636   2.249   1.558   1.026  0.6932  0.0541 -0.4123
  660SOL     OW 2637   2.050   1.543   1.719 -0.0490 -0.2574 -0.3005
  660SOL    HW1 2638   2.090   1.572   1.810  1.3806  0.6937 -1.6812
  660SOL    HW2 2639   1.990   1.473   1.724  2.1117  0.8099 -0.5974
  660SOL     MW 2640   2.047   1.538   1.732  0.4247  0.0089 -0.5218
  661SOL     OW 2641   2.374   1.118   0.162  0.1830 -0.4608  0.2312
  661SOL    HW1 2642   2.442   1.144   0.222 -2.5459 -3.1669  1.1876
  661SOL    HW2 2643   2.358   1.022   0.180 -0.8171 -0.6707  0.0705
  661SOL     MW 2644   2.381   1.109   0.172 -0.3090 -0.8456  0.3362
  662SOL     OW 2645   2.542   2.994   0.879 -0.2107 -0.4392 -0.1396
  662SOL    HW1 2646   2.506   3.070   0.930 -1.8441 -0.3317 -0.6200
  662SOL    HW2 2647   2.566   3.029   0.794 -0.4831 -0.0691 -0.3757
  662SOL     MW 2648   2.541   3.008   0.875 -0.4622 -0.3762 -0.2342
  663SOL     OW 2649   2.821   1.575   0.442  0.1840  0.2002  0.1900
  663SOL    HW1 2650   2.884   1.616   0.391 -0.6131  0.3702 -0.9383
  663SOL    HW2 2651   2.872   1.545   0.518 -0.5085  0.1521 -1.8581
  663SOL     MW 2652   2.836   1.576   0.446 -0.0125  0.2163 -0.2291
  664SOL     OW 2653   2.487   1.588   1.549  0.1940 -0.0403  0.0237
  664SOL    HW1 2654   2.463   1.681   1.555  1.3526 -0.2074  1.3013
  664SOL    HW2 2655   2.413   1.536   1.584 -1.5281 -2.7899 -0.1920
  664SOL     MW 2656   2.474   1.593   1.554  0.1196 -0.4251  0.1638
  665SOL     OW 2657   2.852   0.795   2.028 -0.1600 -0.3296 -0.2132
  665SOL    HW1 2658   2.847   0.858   1.954  0.4953  1.7621  1.5636
  665SOL    HW2 2659   2.933   0.750   2.023  0.1130  1.7353  0.6234
  665SOL     MW 2660   2.862   0.798   2.018 -0.0375  0.2188  0.1316
  666SOL     OW 2661   2.791   3.014   1.690 -0.3546  0.2437  0.0399
  666SOL    HW1 2662   2.794   3.033   1.595  2.3997  1.8039 -0.0975
  666SOL    HW2 2663   2.727   2.948   1.702 -0.4356  1.5840  1.0704
  666SOL     MW 2664   2.783   3.008   1.679 -0.0019  0.6264  0.1577
  667SOL     OW 2665   1.954   2.699   1.596  0.4788  0.5046  0.2700
  667SOL    HW1 2666   1.960   2.614   1.642 -1.7457  0.9300 -2.1937
  667SOL    HW2 2667   2.036   2.742   1.629  0.0987 -0.8817 -1.3558
  667SOL     MW 2668   1.966   2.694   1.607  0.1351  0.3778 -0.2696
  668SOL     OW 2669   2.746   0.639   0.805 -0.5827  0.2995 -0.1369
  668SOL    HW1 2670   2.820   0.629   0.870  1.2641 -0.7008 -1.1744
  668SOL    HW2 2671   2.698   0.708   0.846  3.8455 -3.1931  1.7626
  668SOL     MW 2672   2.749   0.646   0.819  0.2452 -0.2933 -0.0231
  669SOL     OW 2673   0.153   0.905   0.728 -0.0502 -0.7379  0.1256
  669SOL    HW1 2674   0.100   0.986   0.746  1.8769  0.1205 -0.9943
  669SOL    HW2 2675   0.247   0.931   0.740  4.6138 -1.6533  0.4828
  669SOL     MW 2676   0.159   0.919   0.732  0.8194 -0.7454  0.0250
  670SOL     OW 2677   2.919   0.280   0.233  0.4582  0.1305 -0.2252
  670SOL    HW1 2678   2.923   0.221   0.159 -0.0940 -0.2054 -0.6695
  670SOL    HW2 2679   2.924   0.371   0.192  0.2091  2.2605 -0.8900
  670SOL     MW 2680   2.920   0.284   0.218  0.3525  0.3672 -0.3716
  671SOL     OW 2681   2.167   0.002   1.615  0.1560 -0.2224 -0.1623
  671SOL    HW1 2682   2.153   0.029   1.523  2.0072  1.8027  1.3229
  671SOL    HW2 2683   2.089  -0.013   1.672 -0.7824  1.3189 -0.1352
  671SOL     MW 2684   2.155   0.003   1.610  0.2764  0.2482  0.0372
  672SOL     OW 2685   1.878   1.704   1.344 -0.0363  0.1213 -0.0263
  672SOL    HW1 2686   1.800   1.733   1.374  0.2682 -2.2818 -2.3080
  672SOL    HW2 2687   1.895   1.753   1.261 -2.7109 -2.1377 -1.5579
  672SOL     MW 2688   1.870   1.714   1.337 -0.3490 -0.4938 -0.5294
  673SOL     OW 2689   2.783   1.109   0.459  0.1127  0.1189  0.2053
  673SOL    HW1 2690   2.793   1.020   0.502 -0.0927 -0.9771 -2.1179
  673SOL    HW2 2691   2.868   1.155   0.494  1.0283 -1.7845  0.4607
  673SOL     MW 2692   2.796   1.103   0.469  0.2064 -0.2769 -0.0675
  674SOL     OW 2693   2.507   0.038   1.285  0.1463  0.8592 -0.0883
  674SOL    HW1 2694   2.473   0.058   1.196  1.9038 -1.1097  1.9325
  674SOL    HW2 2695   2.540  -0.050   1.273  0.7394 -0.7875  0.9382
  674SOL     MW 2696   2.507   0.029   1.272  0.4564  0.3822  0.3138
  675SOL     OW 2697   2.967   1.064   1.103 -0.0660 -0.1581  0.0681
  675SOL    HW1 2698   3.033   1.001   1.143 -0.6579  0.6612  1.4678
  675SOL    HW2 2699   3.010   1.115   1.039  0.7725  0.4134  2.6539
  675SOL     MW 2700   2.981   1.062   1.100 -0.0335  0.0254  0.5939
  676SOL     OW 2701   2.798   1.466   1.626 -0.6647 -0.4715 -0.2343
  676SOL    HW1 2702   2.770   1.384   1.649  0.1431  0.6209 -3.0391
  676SOL    HW2 2703   2.886   1.467   1.667 -0.8546  1.7978  3.1090
  676SOL     MW 2704   2.806   1.455   1.634 -0.5832 -0.0280 -0.1633
  677SOL     OW 2705   2.464   0.822   1.877 -0.6967 -0.1148  0.6317
  677SOL    HW1 2706   2.415   0.867   1.806  0.4370 -0.7083 -1.6768
  677SOL    HW2 2707   2.418   0.841   1.957  1.4679 -0.6988 -2.8129
  677SOL     MW 2708   2.451   0.831   1.878 -0.2615 -0.2702 -0.1273
  678SOL     OW 2709   2.492   1.579   0.454  0.3369 -0.0255  0.2219
  678SOL    HW1 2710   2.412   1.617   0.419  2.8618 -0.5710 -2.7840
  678SOL    HW2 2711   2.561   1.641   0.453 -0.9962 -1.9097  1.2635
  678SOL     MW 2712   2.491   1.592   0.449  0.4942 -0.3460 -0.0373
  679SOL     OW 2713   2.404   0.505   1.137 -0.4517 -0.2087 -0.9932
  679SOL    HW1 2714   2.353   0.425   1.148 -3.5581  0.5141 -0.8915
  679SOL    HW2 2715   2.346   0.572   1.100 -0.5992 -0.6514 -0.2105
  679SOL     MW 2716   2.390   0.503   1.133 -0.8810 -0.1718 -0.8765
  680SOL     OW 2717   2.407   0.275   1.456 -0.5729  0.1284 -0.4610
  680SOL    HW1 2718   2.334   0.252   1.511  0.8111  0.1218  0.4369
  680SOL    HW2 2719   2.423   0.200   1.394  3.0984  1.0958  1.5284
  680SOL     MW 2720   2.399   0.262   1.455  0.0941  0.2551 -0.0800
  681SOL     OW 2721   0.301   0.515   1.565 -0.1163  0.5096  0.1169
  681SOL    HW1 2722   0.269   0.438   1.608  2.4790  1.4133 -0.5151
  681SOL    HW2 2723   0.399   0.517   1.571 -0.2064  0.8101 -0.5309
  681SOL     MW 2724   0.310   0.505   1.572  0.2142  0.6685 -0.0520
  682SOL     OW 2725   0.120   3.017   1.470  0.6217  0.0059  0.0763
  682SOL    HW1 2726   0.124   3.102   1.438  0.1194  0.8194  4.0822
  682SOL    HW2 2727   0.079   3.023   1.557 -0.1488  2.0994  0.0609
  682SOL     MW 2728   0.115   3.029   1.477  0.4538  0.3894  0.6028
  683SOL     OW 2729   2.007   0.823   3.000  0.7741  0.0340 -0.3838
  683SOL    HW1 2730   1.933   0.789   2.948 -1.7580  0.9978 -0.7598
  683SOL    HW2 2731   1.972   0.901   3.041  0.2790  0.3601  2.9932
  683SOL     MW 2732   1.992   0.829   2.998  0.3747  0.2042  0.0122
  684SOL     OW 2733   2.161   1.738   0.832  0.0847  0.1434  0.6036
  684SOL    HW1 2734   2.064   1.723   0.838  0.2388 -0.2297 -0.0815
  684SOL    HW2 2735   2.194   1.664   0.889 -0.9561 -2.8432 -0.0733
  684SOL     MW 2736   2.153   1.726   0.840 -0.0323 -0.2999  0.4239
  685SOL     OW 2737   2.566   1.736   1.211 -0.0732 -0.6983  0.4708
  685SOL    HW1 2738   2.639   1.712   1.264  0.1973 -0.8790 -1.9463
  685SOL    HW2 2739   2.534   1.654   1.175  1.2347 -0.3389 -3.1892
  685SOL     MW 2740   2.571   1.722   1.214  0.1350 -0.6747 -0.3310
  686SOL     OW 2741   2.925   0.693   1.482 -0.8777  0.3953 -0.2846
  686SOL    HW1 2742   2.918   0.669   1.575 -0.5381  0.0238  1.4117
  686SOL    HW2 2743   3.013   0.669   1.459 -0.2144 -2.9848  0.0633
  686SOL     MW 2744   2.936   0.687   1.491 -0.7454 -0.0997 -0.0149
  687SOL     OW 2745   2.160   0.318   1.190  0.4752 -0.2363  0.5010
  687SOL    HW1 2746   2.134   0.263   1.117 -1.0313  1.5127 -0.6759
  687SOL    HW2 2747   2.089   0.386   1.201  0.9943  2.5874  1.1781
  687SOL     MW 2748   2.147   0.320   1.182  0.3449  0.3670  0.4350
  688SOL     OW 2749   2.336   0.563   1.415 -0.2360 -0.0364  0.1192
  688SOL    HW1 2750   2.354   0.486   1.469 -0.2867  1.5652  0.8460
  688SOL    HW2 2751   2.329   0.542   1.321 -1.3083 -4.0447 -0.4565
  688SOL     MW 2752   2.337   0.550   1.410 -0.3842 -0.3540  0.1391
  689SOL     OW 2753   2.566   0.765   2.991  0.4934  0.3118  0.2353
  689SOL    HW1 2754   2.594   0.842   2.940  1.1677 -1.4404 -0.0582
  689SOL    HW2 2755   2.571   0.796   3.086 -0.9146 -0.3730 -1.0868
  689SOL     MW 2756   2.570   0.779   2.997  0.3966 -0.0098  0.0221
  690SOL     OW 2757   2.051   1.024   1.970 -0.2073  0.1929 -0.0813
  690SOL    HW1 2758   2.030   0.930   1.996  1.6224 -0.2635  0.9604
  690SOL    HW2 2759   2.089   1.015   1.879  1.2715 -1.4024 -2.5650
  690SOL     MW 2760   2.053   1.010   1.962  0.2292 -0.0778 -0.2716
  691SOL     OW 2761   2.444   0.271   0.820  0.4181 -0.8613 -0.0795
  691SOL    HW1 2762   2.524   0.316   0.854 -1.3387  1.1596  1.3590
  691SOL    HW2 2763   2.371   0.338   0.843  0.2695  1.3941 -1.2237
  691SOL     MW 2764   2.445   0.286   0.827  0.1667 -0.2971 -0.0406
  692SOL     OW 2765   2.771   1.673   1.393  0.2828  0.6312 -0.5691
  692SOL    HW1 2766   2.733   1.653   1.481 -0.6552 -1.1077 -0.3185
  692SOL    HW2 2767   2.827   1.752   1.421  0.9719 -1.6478 -0.7343
  692SOL     MW 2768   2.773   1.680   1.409  0.2499  0.1011 -0.5578
  693SOL     OW 2769   2.276   0.409   0.104 -0.4176  0.4714 -0.0242
  693SOL    HW1 2770   2.203   0.353   0.066  0.4727  0.5986  2.9677
  693SOL    HW2 2771   2.273   0.489   0.056  0.2647 -2.6884  0.4224
  693SOL     MW 2772   2.266   0.412   0.093 -0.2101  0.0713  0.4294
  694SOL     OW 2773   1.993   1.290   1.189 -0.4330  0.0735 -0.5921
  694SOL    HW1 2774   2.080   1.250   1.185 -1.5521 -0.1534  0.1252
  694SOL    HW2 2775   1.950   1.218   1.232  2.8428 -0.9243  0.4294
  694SOL     MW 2776   1.998   1.275   1.194 -0.1485 -0.0881 -0.3627
  695SOL     OW 2777   2.972   1.491   1.320 -0.4120 -0.0942 -0.0197
  695SOL    HW1 2778   2.953   1.462   1.232 -3.6794 -0.3712 -2.0069
  695SOL    HW2 2779   2.894   1.537   1.357  0.3729 -1.3019  1.1782
  695SOL     MW 2780   2.959   1.493   1.314 -0.7395 -0.2901 -0.1238
  696SOL     OW 2781   2.035   1.406   0.920  0.1234 -0.0408 -0.1675
  696SOL    HW1 2782   2.102   1.465   0.962 -0.2481 -0.6908  2.1586
  696SOL    HW2 2783   2.014   1.336   0.981  4.2886 -0.0150  1.3305
  696SOL     MW 2784   2.041   1.405   0.934  0.6239 -0.1232  0.3371
  697SOL     OW 2785   2.869   0.940   2.293 -0.3726  0.8176 -0.0789
  697SOL    HW1 2786   2.804   1.003   2.296 -0.6080 -2.7847  1.8682
  697SOL    HW2 2787   2.853   0.895   2.209 -1.8470 -0.1748 -1.3496
  697SOL     MW 2788   2.858   0.942   2.282 -0.5982  0.2114  0.0103
  698SOL     OW 2789   2.537   0.368   0.007 -0.3156 -0.8038  0.1749
  698SOL    HW1 2790   2.442   0.370   0.025  1.8115 -1.6729  3.5041
  698SOL    HW2 2791   2.575   0.316   0.080 -0.1969 -2.4881  0.6427
  698SOL     MW 2792   2.530   0.361   0.019 -0.0193 -1.1407  0.6759
  699SOL     OW 2793   1.822   1.600   2.055 -0.1708  0.0130  0.2978
  699SOL    HW1 2794   1.819   1.508   2.088  0.9491  1.8070 -0.5752
  699SOL    HW2 2795   1.911   1.606   2.020 -1.5184  1.3091 -2.5376
  699SOL     MW 2796   1.833   1.589   2.055 -0.2008  0.4207 -0.1915
  700SOL     OW 2797   2.729   0.898   1.508  0.2148  0.4027  0.3180
  700SOL    HW1 2798   2.723   0.978   1.460 -0.8409 -1.8289  1.0375
  700SOL    HW2 2799   2.818   0.869   1.491 -1.7709  2.6762 -0.9045
  700SOL     MW 2800   2.740   0.905   1.500 -0.1865  0.4082  0.2516
  701SOL     OW 2801   1.686   1.283   2.621 -0.2379 -0.0032 -0.1453
  701SOL    HW1 2802   1.778   1.293   2.647 -1.0361  0.9292 -1.8289
  701SOL    HW2 2803   1.635   1.319   2.700  0.9408  0.6629 -0.7895
  701SOL     MW 2804   1.691   1.289   2.635 -0.1877  0.2077 -0.4525
  702SOL     OW 2805   2.236   0.449   0.813  0.5594 -0.3425  0.1819
  702SOL    HW1 2806   2.199   0.366   0.771  2.6785  1.1318  0.4417
  702SOL    HW2 2807   2.279   0.496   0.740 -1.8916 -0.9261 -1.4809
  702SOL     MW 2808   2.237   0.444   0.798  0.5156 -0.2250 -0.0032
  703SOL     OW 2809   2.660   1.285   0.993 -0.3279  0.3214 -0.6990
  703SOL    HW1 2810   2.653   1.261   0.899 -1.0644 -0.2956  0.8543
  703SOL    HW2 2811   2.676   1.200   1.037  2.8024 -0.0188  2.6379
  703SOL     MW 2812   2.661   1.270   0.987 -0.0121  0.1951 -0.0538
  704SOL     OW 2813   0.028   1.265   0.256 -0.2497  0.3116 -0.5869
  704SOL    HW1 2814  -0.058   1.238   0.232 -0.2165  0.4676  3.9803
  704SOL    HW2 2815   0.055   1.202   0.325 -0.7189 -1.5329  0.0431
  704SOL     MW 2816   0.020   1.253   0.262 -0.3072  0.0888  0.0988
  705SOL     OW 2817   2.160   1.608   1.311 -0.2790 -0.2212 -0.0888
  705SOL    HW1 2818   2.075   1.615   1.361  0.1514 -1.7829 -0.4980
  705SOL    HW2 2819   2.187   1.514   1.317 -1.6708  1.4373  1.3852
  705SOL     MW 2820   2.152   1.597   1.319 -0.4058 -0.2084  0.0517
  706SOL     OW 2821   2.997   1.256   0.574 -0.3848  0.0942  0.1608
  706SOL    HW1 2822   3.093   1.237   0.576 -1.1071  0.6127  1.5591
  706SOL    HW2 2823   3.000   1.344   0.607  1.5865 -2.4709 -0.9220
  706SOL     MW 2824   3.010   1.265   0.578 -0.2200 -0.1758  0.2024
  707SOL     OW 2825   2.388   0.095   1.030 -0.3939 -0.4526  0.1462
  707SOL    HW1 2826   2.417   0.170   0.982 -2.3240 -0.9581  1.0376
  707SOL    HW2 2827   2.294   0.095   1.026 -0.3662 -1.3782 -0.4154
  707SOL     MW 2828   2.380   0.105   1.023 -0.6449 -0.6414  0.1897
  708SOL     OW 2829   2.531   1.509   0.062 -0.4936 -0.4942 -0.1276
  708SOL    HW1 2830   2.579   1.457   0.130 -2.1624  0.0868  0.4787
  708SOL    HW2 2831   2.464   1.453   0.031 -1.4971  0.2144  0.7159
  708SOL     MW 2832   2.528   1.495   0.067 -0.8462 -0.3240  0.0637
  709SOL     OW 2833   1.713   1.749   0.111 -0.8375 -0.0031 -0.0991
  709SOL    HW1 2834   1.692   1.734   0.014 -0.9293 -0.0519 -1.7875
  709SOL    HW2 2835   1.634   1.722   0.154  2.6201 -0.2400  0.7448
  709SOL     MW 2836   1.700   1.744   0.104 -0.3934 -0.0408 -0.2106
  710SOL     OW 2837   2.231   1.162   1.194  0.3763  0.0618  0.0594
  710SOL    HW1 2838   2.251   1.147   1.099 -3.3726 -1.4809  1.9514
  710SOL    HW2 2839   2.263   1.076   1.244 -0.4889 -1.4007  2.3446
  710SOL     MW 2840   2.238   1.148   1.188 -0.2325 -0.3347  0.6105
  711SOL     OW 2841   2.333   0.194   1.726  0.4014 -0.7059 -0.2198
  711SOL    HW1 2842   2.416   0.156   1.755 -1.4377  1.0577  0.4322
  711SOL    HW2 2843   2.283   0.118   1.685 -2.1401  1.3926 -4.1865
  711SOL     MW 2844   2.338   0.179   1.724 -0.1766 -0.1963 -0.6571
  712SOL     OW 2845   1.628   0.596   3.056 -0.3882 -0.2023 -0.0702
  712SOL    HW1 2846   1.666   0.666   2.996  0.7996 -2.2782 -0.3365
  712SOL    HW2 2847   1.574   0.648   3.110  4.6638 -0.4791  0.1622
  712SOL     MW 2848   1.626   0.612   3.055  0.4351 -0.5127 -0.0747
  713SOL     OW 2849   2.591   0.797   1.152  0.0662 -0.0151 -0.0399
  713SOL    HW1 2850   2.609   0.701   1.136  0.2534  0.5511 -1.4063
  713SOL    HW2 2851   2.534   0.808   1.231 -0.7659  1.9390  0.0720
  713SOL     MW 2852   2.586   0.786   1.160 -0.0189  0.3174 -0.2055
  714SOL     OW 2853   2.274   0.175   1.994  0.3459  0.0758  0.0954
  714SOL    HW1 2854   2.336   0.165   2.068  0.2715  0.6558  1.3257
  714SOL    HW2 2855   2.320   0.187   1.910 -2.5302 -2.4654 -0.5658
  714SOL     MW 2856   2.288   0.175   1.993 -0.0434 -0.1830  0.1705
  715SOL     OW 2857   1.739   1.918   1.713 -0.1646  0.4378  0.3204
  715SOL    HW1 2858   1.826   1.898   1.682  0.6232 -1.1001 -1.7271
  715SOL    HW2 2859   1.722   1.834   1.764  0.6074 -2.8627 -3.1174
  715SOL     MW 2860   1.748   1.904   1.716  0.0412 -0.2006 -0.4033
  716SOL     OW 2861   2.315   0.699   0.641  0.6625 -0.9473  0.1393
  716SOL    HW1 2862   2.381   0.705   0.572 -2.4748 -0.1306 -0.8021
  716SOL    HW2 2863   2.227   0.677   0.603  0.8243 -0.8588  1.5567
  716SOL     MW 2864   2.312   0.697   0.627  0.2699 -0.8279  0.2021
  717SOL     OW 2865   2.822   1.442   2.928 -0.0394  0.0788  0.3025
  717SOL    HW1 2866   2.916   1.447   2.899  0.2188 -0.8854 -0.3264
  717SOL    HW2 2867   2.830   1.475   3.017  0.8455  0.5118  1.7839
  717SOL     MW 2868   2.835   1.447   2.936  0.1114  0.0087  0.4150
  718SOL     OW 2869   2.587   1.377   1.374 -0.8408 -1.0754  0.7720
  718SOL    HW1 2870   2.614   1.429   1.455  0.1815 -0.1516  1.3046
  718SOL    HW2 2871   2.646   1.300   1.373 -3.4585 -2.1591  1.8410
  718SOL     MW 2872   2.598   1.374   1.385 -1.0513 -1.0965  0.9833
  719SOL     OW 2873   2.192   1.353   0.650  0.1158  0.8256 -0.2170
  719SOL    HW1 2874   2.288   1.377   0.640  0.9350  1.1115 -3.2400
  719SOL    HW2 2875   2.165   1.388   0.735 -2.7368  1.1962 -1.3154
  719SOL     MW 2876   2.201   1.361   0.660 -0.1525  0.9122 -0.7608
  720SOL     OW 2877   2.887   1.212   0.156 -0.1822  0.6336 -0.2785
  720SOL    HW1 2878   2.853   1.126   0.191  0.0327 -2.4664 -2.2567
  720SOL    HW2 2879   2.830   1.294   0.190 -0.2000  1.4952 -0.5162
  720SOL     MW 2880   2.875   1.212   0.165 -0.1562  0.3382 -0.5709
  721SOL     OW 2881   2.471   0.808   1.401  0.2309 -0.1716  0.5048
  721SOL    HW1 2882   2.426   0.724   1.390  0.7505  2.6732 -2.9852
  721SOL    HW2 2883   2.547   0.811   1.459 -1.3093  1.8777 -0.9824
  721SOL     MW 2884   2.475   0.797   1.407  0.0963  0.4742 -0.1519
  722SOL     OW 2885   2.553   1.188   0.360  0.2591  0.7137  0.3475
  722SOL    HW1 2886   2.523   1.245   0.430 -0.9255  0.2896  0.6098
  722SOL    HW2 2887   2.635   1.156   0.406  0.1809 -0.9058 -0.2391
  722SOL     MW 2888   2.560   1.191   0.375  0.0925  0.4441  0.3047
  723SOL     OW 2889   2.283   1.434   1.654  0.4022  0.2103 -1.0950
  723SOL    HW1 2890   2.257   1.414   1.559  1.2273 -1.1529 -1.8918
  723SOL    HW2 2891   2.198   1.465   1.692  1.3064 -2.3879  0.7032
  723SOL     MW 2892   2.268   1.436   1.646  0.6304 -0.3124 -0.9629
  724SOL     OW 2893   2.490   0.387   0.562 -0.6276  0.0578 -0.3293
  724SOL    HW1 2894   2.459   0.338   0.642  1.9307  0.6680 -0.1509
  724SOL    HW2 2895   2.581   0.362   0.553 -1.0539  3.5776  0.4999
  724SOL     MW 2896   2.498   0.377   0.571 -0.3463  0.6027 -0.1963
  725SOL     OW 2897   2.669   0.530   1.162 -0.2354  0.3175 -0.0188
  725SOL    HW1 2898   2.716   0.547   1.241  0.6871 -1.7367 -1.3679
  725SOL    HW2 2899   2.579   0.487   1.178 -2.7637 -0.8128  0.8973
  725SOL     MW 2900   2.663   0.526   1.175 -0.4473 -0.1026 -0.0759
  726SOL     OW 2901   2.573   2.401   0.511  0.0087  0.4981 -0.5387
  726SOL    HW1 2902   2.515   2.462   0.454  1.8323  0.4986 -1.9762
  726SOL    HW2 2903   2.505   2.364   0.564  2.6753  0.4921  1.0973
  726SOL     MW 2904   2.556   2.404   0.510  0.6011  0.4973 -0.5125
  727SOL     OW 2905   2.817   0.302   1.643 -0.8016  0.0025 -0.4019
  727SOL    HW1 2906   2.861   0.285   1.554  0.0373 -2.9711  0.1626
  727SOL    HW2 2907   2.731   0.339   1.625 -0.6960 -1.0681 -1.1446
  727SOL     MW 2908   2.811   0.305   1.629 -0.6769 -0.5311 -0.4254
  728SOL     OW 2909   2.823   1.139   3.003 -0.5311 -0.0848  0.0234
  728SOL    HW1 2910   2.850   1.213   2.945 -3.6026  0.1261  0.2993
  728SOL    HW2 2911   2.845   1.168   3.096  0.9155 -2.0032 -0.9999
  728SOL     MW 2912   2.829   1.153   3.008 -0.7455 -0.3101 -0.0752
  729SOL     OW 2913   2.503   1.484   1.126  0.5473  0.4169  0.6337
  729SOL    HW1 2914   2.540   1.463   1.212 -1.5821 -0.6601 -2.8001
  729SOL    HW2 2915   2.527   1.403   1.083  3.4101 -2.6314  1.0163
  729SOL     MW 2916   2.511   1.470   1.132  0.6441 -0.1274  0.2312
  730SOL     OW 2917   2.103   1.161   0.237  0.2919 -0.4327  0.3861
  730SOL    HW1 2918   2.192   1.165   0.192  1.5011 -0.7075 -4.7294
  730SOL    HW2 2919   2.060   1.251   0.238 -0.0343  1.1289 -0.7984
  730SOL     MW 2920   2.109   1.174   0.231  0.4084 -0.2630 -0.4451
  731SOL     OW 2921   2.806   1.810   2.884  0.6836  0.3528  0.6574
  731SOL    HW1 2922   2.714   1.820   2.874  2.0162 -1.1480 -0.7171
  731SOL    HW2 2923   2.849   1.897   2.882  0.3425 -1.4035  0.4171
  731SOL     MW 2924   2.799   1.823   2.882  0.8144 -0.0769  0.4444
  732SOL     OW 2925   2.265   0.945   1.333 -0.1658  0.2231  0.1508
  732SOL    HW1 2926   2.182   0.946   1.389 -2.2996  1.5925  1.1211
  732SOL    HW2 2927   2.333   0.892   1.372  0.8922 -4.6617 -0.6014
  732SOL     MW 2928   2.263   0.938   1.345 -0.3078 -0.2407  0.1796
  733SOL     OW 2929   2.373   2.888   3.029 -0.1873 -0.2100 -0.0909
  733SOL    HW1 2930   2.292   2.939   3.010 -0.9751  1.1796  0.4969
  733SOL    HW2 2931   2.329   2.800   3.038 -1.5199  0.8176  2.0448
  733SOL     MW 2932   2.356   2.883   3.028 -0.4671  0.1089  0.2684
  734SOL     OW 2933   1.486   0.352   2.474 -0.1105  0.0410  0.1001
  734SOL    HW1 2934   1.449   0.290   2.532 -0.3713  0.3432 -0.5825
  734SOL    HW2 2935   1.502   0.285   2.405 -1.2585 -0.8085 -3.2648
  734SOL     MW 2936   1.483   0.335   2.472 -0.2964 -0.0313 -0.4339
  735SOL     OW 2937   3.048   0.864   2.673  0.7745  0.1802 -0.1642
  735SOL    HW1 2938   2.980   0.803   2.636  1.6916 -3.0456 -0.6228
  735SOL    HW2 2939   3.013   0.884   2.759  0.8675 -1.8359  0.8766
  735SOL     MW 2940   3.034   0.858   2.680  0.9078 -0.5114 -0.0873
  736SOL     OW 2941   0.036   0.601   2.480 -0.6449 -0.0251  0.4303
  736SOL    HW1 2942   0.091   0.635   2.406 -0.6516  0.8175 -0.4176
  736SOL    HW2 2943   0.032   0.503   2.464  1.5272 -2.3334  0.7576
  736SOL     MW 2944   0.043   0.593   2.468 -0.3592 -0.2185  0.3617
  737SOL     OW 2945   2.882   0.699   2.536  0.2934  0.2287 -0.4701
  737SOL    HW1 2946   2.823   0.643   2.485 -1.4352  1.8343  0.3668
  737SOL    HW2 2947   2.971   0.687   2.503 -0.0124 -0.3406  1.5927
  737SOL     MW 2948   2.886   0.690   2.525  0.0250  0.3654 -0.0875
  738SOL     OW 2949   0.180   0.421   1.940  0.0749  0.5602  0.5518
  738SOL    HW1 2950   0.268   0.451   1.945  0.6727 -2.4924  2.9511
  738SOL    HW2 2951   0.167   0.364   1.862 -1.9020 -0.3207  3.7129
  738SOL     MW 2952   0.190   0.417   1.930 -0.1071  0.0412  1.2854
  739SOL     OW 2953   2.567   0.980   2.116 -0.3278 -0.0027 -0.4239
  739SOL    HW1 2954   2.476   0.960   2.132 -0.0107  1.6232 -4.1871
  739SOL    HW2 2955   2.558   1.035   2.035 -0.9817 -0.7029 -0.7460
  739SOL     MW 2956   2.554   0.985   2.108 -0.3722  0.1194 -0.9629
  740SOL     OW 2957   0.232   1.682   2.951 -0.6617  0.0321 -0.3136
  740SOL    HW1 2958   0.155   1.629   2.945 -0.7936  0.5941  1.6392
  740SOL    HW2 2959   0.304   1.631   2.989  0.0107  1.0732  0.5444
  740SOL     MW 2960   0.232   1.668   2.956 -0.5904  0.2437  0.0573
  741SOL     OW 2961   2.194   1.224   2.753 -0.2728 -0.5088  0.1453
  741SOL    HW1 2962   2.233   1.310   2.733  2.4713 -0.0139  3.1225
  741SOL    HW2 2963   2.167   1.225   2.847 -0.9057  1.2266 -2.1267
  741SOL     MW 2964   2.195   1.235   2.763  0.0057 -0.2145  0.2383
  742SOL     OW 2965   1.662   1.357   2.356  0.4338 -0.2488 -0.0097
  742SOL    HW1 2966   1.595   1.289   2.343 -1.3886  1.7127 -0.6430
  742SOL    HW2 2967   1.686   1.360   2.450  3.1783 -0.3803  3.1190
  742SOL     MW 2968   1.657   1.348   2.367  0.5554 -0.0074  0.3195
  743SOL     OW 2969   2.530   1.223   2.706 -0.1573  0.0285  0.1632
  743SOL    HW1 2970   2.444   1.228   2.745  3.7634 -0.7577  0.8008
  743SOL    HW2 2971   2.576   1.154   2.752  2.4528  0.4718  1.5266
  743SOL     MW 2972   2.525   1.215   2.717  0.7044 -0.0167  0.4272
  744SOL     OW 2973   2.779   0.916   1.796 -0.0815  0.1303  0.3626
  744SOL    HW1 2974   2.730   0.986   1.837 -0.8344  0.4074 -2.3914
  744SOL    HW2 2975   2.732   0.902   1.715  0.5323 -0.5522  0.4547
  744SOL     MW 2976   2.766   0.924   1.791 -0.0998  0.0768  0.0114
  745SOL     OW 2977   1.728   0.481   2.482  0.3199 -0.5774 -0.0783
  745SOL    HW1 2978   1.732   0.520   2.390  1.5735  0.6964  0.3839
  745SOL    HW2 2979   1.641   0.434   2.481 -2.7956  0.8248  2.7301
  745SOL     MW 2980   1.717   0.480   2.470  0.0742 -0.2243  0.3532
  746SOL     OW 2981   1.584   1.504   1.696  0.1133  0.4685 -0.1845
  746SOL    HW1 2982   1.638   1.579   1.723  0.4967 -0.2796 -1.4851
  746SOL    HW2 2983   1.577   1.442   1.775 -0.7385 -0.2646  0.8457
  746SOL     MW 2984   1.590   1.506   1.710  0.0515  0.2731 -0.2202
  747SOL     OW 2985   2.595   1.122   1.885 -0.1752 -0.1922 -0.2159
  747SOL    HW1 2986   2.499   1.116   1.860 -3.4015 -2.5633 -1.3380
  747SOL    HW2 2987   2.617   1.210   1.922  0.5980 -0.3946  2.7820
  747SOL     MW 2988   2.585   1.133   1.886 -0.4989 -0.5318  0.0316
  748SOL     OW 2989   0.095   3.087   1.932 -0.2542 -0.4148 -0.5858
  748SOL    HW1 2990   0.186   3.110   1.913 -1.0261 -3.2274 -1.6747
  748SOL    HW2 2991   0.082   3.150   2.004 -0.5845  0.5695  0.0614
  748SOL     MW 2992   0.105   3.098   1.939 -0.3996 -0.6560 -0.6441
  749SOL     OW 2993   2.414   0.658   2.769  0.0737  0.0225  0.2260
  749SOL    HW1 2994   2.429   0.719   2.691 -0.0490  0.7768 -0.5846
  749SOL    HW2 2995   2.472   0.689   2.842 -2.9661 -1.4095 -1.1442
  749SOL     MW 2996   2.424   0.670   2.769 -0.3436 -0.0669 -0.0618
  750SOL     OW 2997   2.140   3.039   1.985 -0.3057  0.0092 -0.4721
  750SOL    HW1 2998   2.174   3.133   1.993 -0.9353 -1.0368  0.4254
  750SOL    HW2 2999   2.222   2.988   1.966  2.6593 -2.7235  0.5786
  750SOL     MW 3000   2.156   3.045   1.983  0.0025 -0.4894 -0.2150
  751SOL     OW 3001   3.059   0.336   2.460 -0.2250  0.0893  0.1179
  751SOL    HW1 3002   2.987   0.336   2.395 -3.1617  0.0049 -1.6867
  751SOL    HW2 3003   3.140   0.316   2.413 -2.6364  0.8613  1.3548
  751SOL     MW 3004   3.060   0.334   2.445 -0.9306  0.1800  0.0430
  752SOL     OW 3005   2.144   0.926   2.767  0.0281  0.0104 -0.0247
  752SOL    HW1 3006   2.219   0.955   2.819  1.5744  1.6311 -0.9645
  752SOL    HW2 3007   2.085   0.879   2.826 -0.3783 -0.4317  0.2007
  752SOL     MW 3008   2.146   0.924   2.782  0.1785  0.1659 -0.1189
  753SOL     OW 3009   2.865   0.320   2.268 -0.6457  0.5387 -0.0596
  753SOL    HW1 3010   2.813   0.237   2.281 -3.1231 -1.1693 -1.6071
  753SOL    HW2 3011   2.808   0.385   2.314 -0.4835  1.0130  0.0450
  753SOL     MW 3012   2.851   0.318   2.276 -0.9512  0.3759 -0.2499
  754SOL     OW 3013   2.275   2.983   2.601  0.5122 -0.7510  0.2234
  754SOL    HW1 3014   2.291   2.953   2.508  1.1573 -0.2687 -0.8329
  754SOL    HW2 3015   2.359   2.949   2.639  0.9414 -0.0308  0.4932
  754SOL     MW 3016   2.289   2.974   2.593  0.6539 -0.5924  0.1197
  755SOL     OW 3017   2.758   1.629   2.436 -0.3127 -0.3092  0.5142
  755SOL    HW1 3018   2.730   1.537   2.437  1.0306  1.4429  0.5314
  755SOL    HW2 3019   2.802   1.646   2.521  2.2755 -0.1225  1.6879
  755SOL     MW 3020   2.760   1.619   2.447  0.2060 -0.0534  0.6713
  756SOL     OW 3021   2.164   1.246   3.026  0.0349  0.2725  0.2204
  756SOL    HW1 3022   2.219   1.318   2.993 -3.0228 -1.7097 -2.3569
  756SOL    HW2 3023   2.212   1.165   3.035 -0.2634  0.7956  3.1859
  756SOL     MW 3024   2.177   1.245   3.023 -0.4078  0.0800  0.2716
  757SOL     OW 3025   2.169   0.944   1.752  0.1274 -0.4250 -0.3846
  757SOL    HW1 3026   2.183   0.847   1.758  1.5201  1.0018 -0.0376
  757SOL    HW2 3027   2.126   0.963   1.665 -0.6287  1.8889 -0.8770
  757SOL     MW 3028   2.165   0.934   1.741  0.2114  0.0686 -0.4038
  758SOL     OW 3029   2.254   1.859   2.625 -0.3063  0.5459  0.0176
  758SOL    HW1 3030   2.271   1.875   2.535 -1.0017 -0.9453 -2.0186
  758SOL    HW2 3031   2.329   1.799   2.647 -0.8179 -0.8619  1.1678
  758SOL     MW 3032   2.266   1.853   2.616 -0.4656  0.1634 -0.0993
  759SOL     OW 3033   1.535   1.431   2.797 -0.4616 -0.2201 -0.0596
  759SOL    HW1 3034   1.542   1.502   2.727 -1.8871 -1.1467 -0.2676
  759SOL    HW2 3035   1.594   1.449   2.863 -0.2018  0.7270 -0.4359
  759SOL     MW 3036   1.544   1.443   2.796 -0.6154 -0.2174 -0.1367
  760SOL     OW 3037   2.603   1.936   2.717 -0.0940  0.9461 -0.0346
  760SOL    HW1 3038   2.558   1.876   2.660  0.5770  0.8788 -0.5307
  760SOL    HW2 3039   2.689   1.945   2.678  1.3886  0.1118  0.6469
  760SOL     MW 3040   2.608   1.929   2.705  0.1902  0.8271 -0.0101
  761SOL     OW 3041   2.204   0.485   2.454 -0.6546  0.3737  0.1153
  761SOL    HW1 3042   2.109   0.468   2.435 -1.1972 -3.0205 -1.1215
  761SOL    HW2 3043   2.201   0.574   2.483 -1.2230  0.5785  1.2427
  761SOL     MW 3044   2.191   0.494   2.455 -0.8012 -0.0471  0.1009
  762SOL     OW 3045   0.020   0.184   2.137 -0.1924 -0.0610  0.2273
  762SOL    HW1 3046  -0.004   0.132   2.213  1.8135  1.8024  2.0123
  762SOL    HW2 3047  -0.034   0.261   2.122  0.3398  0.7529  1.1652
  762SOL     MW 3048   0.010   0.188   2.145  0.1425  0.2923  0.5866
  763SOL     OW 3049   2.478   1.197   2.349  0.1037 -0.1516 -0.4982
  763SOL    HW1 3050   2.514   1.156   2.279  1.0727 -0.0368  1.5309
  763SOL    HW2 3051   2.546   1.253   2.394 -2.1102  1.9421 -0.1321
  763SOL     MW 3052   2.492   1.199   2.346 -0.0606  0.1398 -0.1822
  764SOL     OW 3053   0.392   0.103   2.816 -0.3715  0.4935 -1.1358
  764SOL    HW1 3054   0.337   0.160   2.761  2.4885  0.5736  2.1656
  764SOL    HW2 3055   0.410   0.152   2.895  0.8331 -0.7851  0.2689
  764SOL     MW 3056   0.387   0.117   2.819  0.1648  0.3354 -0.5149
  765SOL     OW 3057   2.707   0.105   2.289 -0.5135  1.1435 -0.0715
  765SOL    HW1 3058   2.699   0.076   2.195  1.6365  0.6029 -0.1804
  765SOL    HW2 3059   2.751   0.034   2.338  2.2229 -1.0068 -0.1843
  765SOL     MW 3060   2.712   0.092   2.283  0.1312  0.7885 -0.1008
  766SOL     OW 3061   1.935   3.056   2.170 -0.4418  0.9353  0.3895
  766SOL    HW1 3062   2.018   3.040   2.119  0.8069 -0.0833 -0.1663
  766SOL    HW2 3063   1.864   3.038   2.116  2.3771 -0.5278 -0.6000
  766SOL     MW 3064   1.937   3.052   2.156  0.0949  0.6079  0.1856
  767SOL     OW 3065   2.679   0.639   1.911 -0.2179 -0.0883  0.7374
  767SOL    HW1 3066   2.728   0.712   1.948  0.5930  2.5252 -1.1740
  767SOL    HW2 3067   2.593   0.675   1.879 -1.0090 -2.5633 -0.5703
  767SOL     MW 3068   2.674   0.653   1.912 -0.2153 -0.0700  0.3127
  768SOL     OW 3069   3.092   1.494   2.973 -0.1734  0.1479  0.6156
  768SOL    HW1 3070   3.103   1.532   3.063  0.8230  1.7303 -2.2958
  768SOL    HW2 3071   3.121   1.403   2.978 -1.4676 -1.6640  2.5125
  768SOL     MW 3072   3.097   1.487   2.985 -0.2127  0.1176  0.4818
  769SOL     OW 3073   2.342   0.708   2.334 -0.4313 -0.4249  0.5847
  769SOL    HW1 3074   2.304   0.622   2.318  0.2880 -2.4615  0.2783
  769SOL    HW2 3075   2.426   0.693   2.295  0.0210 -1.3690  1.5879
  769SOL     MW 3076   2.348   0.694   2.327 -0.2767 -0.8182  0.6767
  770SOL     OW 3077   0.048   1.578   2.629  0.4332  1.2853 -0.2067
  770SOL    HW1 3078  -0.048   1.569   2.636  1.2187 -0.1498 -0.3135
  770SOL    HW2 3079   0.076   1.503   2.686  1.4678  0.1933  0.4944
  770SOL     MW 3080   0.039   1.567   2.637  0.6733  0.9519 -0.1283
  771SOL     OW 3081   3.074   0.605   1.964  0.0552  0.0685  0.1321
  771SOL    HW1 3082   3.046   0.570   1.884  1.9798  0.3924 -0.6993
  771SOL    HW2 3083   3.150   0.558   1.982 -1.3831 -0.7583 -1.8567
  771SOL     MW 3084   3.080   0.594   1.956  0.1194  0.0022 -0.2400
  772SOL     OW 3085   0.010   3.103   2.341  0.4619  0.1114 -0.3564
  772SOL    HW1 3086  -0.077   3.068   2.369  1.8578  4.2470  2.2970
  772SOL    HW2 3087   0.048   3.021   2.308  0.1370  1.1065  0.2824
  772SOL     MW 3088   0.003   3.087   2.341  0.6032  0.7883  0.0780
  773SOL     OW 3089   2.479   2.916   2.767 -0.0234 -0.5277  0.5295
  773SOL    HW1 3090   2.495   2.822   2.778  2.4899  0.7659  0.9611
  773SOL    HW2 3091   2.442   2.941   2.856 -0.7022 -0.0240  3.7862
  773SOL     MW 3092   2.476   2.907   2.780  0.2186 -0.2906  1.0162
  774SOL     OW 3093   2.354   1.140   1.732  0.0456 -0.1056  0.4690
  774SOL    HW1 3094   2.317   1.219   1.689  1.0716 -1.4600 -1.5140
  774SOL    HW2 3095   2.279   1.071   1.747  1.5614 -1.1719  1.5990
  774SOL     MW 3096   2.340   1.141   1.728  0.3809 -0.4250  0.3565
  775SOL     OW 3097   2.296   2.883   2.352  0.2405  0.3841 -0.2047
  775SOL    HW1 3098   2.292   2.968   2.306 -1.1173 -1.8426 -0.9212
  775SOL    HW2 3099   2.371   2.833   2.317  0.4068  0.7448 -0.1542
  775SOL     MW 3100   2.306   2.888   2.341  0.0833  0.1379 -0.2926
  776SOL     OW 3101   0.128   1.499   0.127 -0.0927  0.4664 -0.3028
  776SOL    HW1 3102   0.217   1.462   0.117 -0.7917 -1.0039 -0.4370
  776SOL    HW2 3103   0.080   1.424   0.162 -2.0243  1.1483  0.1359
  776SOL     MW 3104   0.133   1.484   0.130 -0.4398  0.3624 -0.2626
  777SOL     OW 3105   2.947   1.139   1.760  0.1499 -0.4402 -0.0060
  777SOL    HW1 3106   2.895   1.200   1.714  2.1630 -2.6919  1.7281
  777SOL    HW2 3107   2.885   1.065   1.776 -1.9934 -2.3027  0.4903
  777SOL     MW 3108   2.932   1.137   1.756  0.1328 -0.9831  0.2883
  778SOL     OW 3109   2.901   0.485   2.745 -0.6409 -0.6504 -0.0317
  778SOL    HW1 3110   2.857   0.536   2.813 -0.7966  0.2713  0.4215
  778SOL    HW2 3111   2.885   0.534   2.662  2.7180  1.0241  0.0512
  778SOL     MW 3112   2.893   0.498   2.743 -0.2183 -0.3079  0.0391
  779SOL     OW 3113   2.248   0.408   2.111  0.2944 -0.1383 -0.0009
  779SOL    HW1 3114   2.246   0.380   2.196 -0.4529 -0.9694 -1.3869
  779SOL    HW2 3115   2.242   0.322   2.067 -3.6718  1.4800 -0.9971
  779SOL     MW 3116   2.247   0.393   2.117 -0.3275 -0.0344 -0.3152
  780SOL     OW 3117   0.159   0.240   2.697 -0.1775 -0.0569 -0.3117
  780SOL    HW1 3118   0.077   0.205   2.739 -1.7638 -1.7758  1.2912
  780SOL    HW2 3119   0.157   0.328   2.737 -0.6914  1.5351  1.9410
  780SOL     MW 3120   0.148   0.247   2.708 -0.4546 -0.0736  0.1970
  781SOL     OW 3121   3.068   1.300   2.471 -0.1995  0.2461  0.4464
  781SOL    HW1 3122   3.046   1.365   2.406 -1.4586  2.9062  1.5594
  781SOL    HW2 3123   3.079   1.208   2.434  2.5212 -0.2753 -0.1005
  781SOL     MW 3124   3.066   1.297   2.457 -0.0066  0.5283  0.5211
  782SOL     OW 3125   0.696   1.501   0.086  0.0763 -0.0196  0.3029
  782SOL    HW1 3126   0.641   1.574   0.055 -3.1366 -1.4659 -0.2693
  782SOL    HW2 3127   0.711   1.493   0.179 -0.4178  0.9927 -0.4136
  782SOL     MW 3128   0.691   1.509   0.094 -0.4128 -0.0769  0.1329
  783SOL     OW 3129   2.707   0.507   2.392  0.4819  0.5922 -0.0291
  783SOL    HW1 3130   2.673   0.571   2.330 -1.1881  1.6234  1.6525
  783SOL    HW2 3131   2.643   0.509   2.467 -0.1738  2.4668 -1.1139
  783SOL     MW 3132   2.694   0.516   2.394  0.1750  0.9756  0.0497
  784SOL     OW 3133   0.208   0.823   2.858 -0.1375  0.7706  0.0149
  784SOL    HW1 3134   0.124   0.860   2.879 -2.5989 -0.0394 -0.2026
  784SOL    HW2 3135   0.241   0.874   2.788  0.3621 -2.5391 -1.0061
  784SOL     MW 3136   0.201   0.835   2.852 -0.3963  0.2271 -0.1485
  785SOL     OW 3137   0.413   0.388   2.183  0.3471 -0.1461  0.2960
  785SOL    HW1 3138   0.388   0.436   2.101  4.1539  0.2383 -1.5562
  785SOL    HW2 3139   0.334   0.343   2.215 -0.9950  0.6639 -0.3001
  785SOL     MW 3140   0.399   0.389   2.177  0.6723  0.0115 -0.0270
  786SOL     OW 3141   1.882   0.435   0.012  0.2016 -0.2180 -0.4837
  786SOL    HW1 3142   1.808   0.457   0.066  2.2468 -1.3887 -1.5964
  786SOL    HW2 3143   1.848   0.444  -0.072  1.0758 -1.0866  1.9554
  786SOL     MW 3144   1.868   0.439   0.008  0.5868 -0.4871 -0.3087
  787SOL     OW 3145   2.459   0.173   2.928  0.3833 -0.2795  0.4139
  787SOL    HW1 3146   2.532   0.120   2.910  1.4739 -1.4781  2.7854
  787SOL    HW2 3147   2.506   0.251   2.968  1.3427  1.3038  1.5396
  787SOL     MW 3148   2.475   0.177   2.931  0.6538 -0.2287  0.8753
  788SOL     OW 3149   2.867   2.997   2.429 -0.3963 -0.4581 -0.2139
  788SOL    HW1 3150   2.875   2.952   2.511 -1.2770 -0.0898  0.8393
  788SOL    HW2 3151   2.871   2.925   2.364  0.1434 -0.5034 -1.5534
  788SOL     MW 3152   2.869   2.982   2.431 -0.4413 -0.4155 -0.2517
  789SOL     OW 3153   0.116   0.163   3.102  0.0197  0.0584 -0.3748
  789SOL    HW1 3154   0.046   0.103   3.108  1.7590  1.0311 -2.0726
  789SOL    HW2 3155   0.081   0.233   3.043 -4.2424 -2.1465 -0.2894
  789SOL     MW 3156   0.102   0.165   3.095 -0.3132 -0.1042 -0.5876
  790SOL     OW 3157   3.089   1.037   2.443  0.7666  0.4140 -0.4155
  790SOL    HW1 3158   3.086   0.978   2.518  2.2991  0.9823 -1.2550
  790SOL    HW2 3159   3.021   1.002   2.373  1.2727  0.9017 -4.7229
  790SOL     MW 3160   3.080   1.025   2.443  1.0356  0.5533 -1.0946
  791SOL     OW 3161   2.543   0.465   2.598 -0.4894  0.4717  0.3970
  791SOL    HW1 3162   2.474   0.505   2.654  0.6158  2.1740 -3.1204
  791SOL    HW2 3163   2.570   0.387   2.650  0.0856 -1.0237 -0.3284
  791SOL     MW 3164   2.537   0.460   2.612 -0.2677  0.4990 -0.1628
  792SOL     OW 3165   2.412   0.198   2.462 -0.7146  0.3021 -0.4592
  792SOL    HW1 3166   2.389   0.293   2.458 -2.5983 -0.0997 -2.4971
  792SOL    HW2 3167   2.364   0.175   2.543 -0.3979  0.8940  2.2294
  792SOL     MW 3168   2.403   0.207   2.472 -0.9214  0.3272 -0.3734
  793SOL     OW 3169   1.783   1.096   2.009  0.4601 -0.4679  0.4395
  793SOL    HW1 3170   1.746   1.086   1.915  0.5962  1.4061 -0.3043
  793SOL    HW2 3171   1.880   1.094   1.997  0.9380  0.4151 -2.2568
  793SOL     MW 3172   1.791   1.094   1.995  0.5411 -0.1042 -0.0144
  794SOL     OW 3173   1.374   2.323   0.104  0.0267  0.2602 -0.1853
  794SOL    HW1 3174   1.419   2.399   0.070  0.0578 -5.3999  0.2290
  794SOL    HW2 3175   1.432   2.302   0.180  0.6954  3.9343  3.5057
  794SOL     MW 3176   1.388   2.330   0.109  0.1190 -0.0018  0.3563
  795SOL     OW 3177   2.305   1.070   2.534  0.0397 -0.1769  0.0199
  795SOL    HW1 3178   2.271   1.115   2.613 -0.1468 -0.3083 -0.2403
  795SOL    HW2 3179   2.353   1.139   2.492  0.3769 -2.6617  1.1276
  795SOL     MW 3180   2.307   1.085   2.539  0.0596 -0.5221  0.1317
  796SOL     OW 3181   0.250   0.613   2.703 -0.1307 -0.1726 -0.3533
  796SOL    HW1 3182   0.222   0.684   2.764 -1.2800 -0.4996  1.4009
  796SOL    HW2 3183   0.189   0.620   2.631  0.6016 -1.1879 -0.5745
  796SOL     MW 3184   0.238   0.623   2.702 -0.1857 -0.3497 -0.1510
  797SOL     OW 3185   2.642   0.186   2.601 -0.3053 -0.7127  0.1324
  797SOL    HW1 3186   2.580   0.207   2.538 -1.3833  0.5730 -2.9737
  797SOL    HW2 3187   2.715   0.166   2.544 -1.5028  1.7550 -1.2732
  797SOL     MW 3188   2.644   0.186   2.585 -0.6055 -0.2175 -0.4629
  798SOL     OW 3189   2.361   0.048   2.233  0.1000  0.5361 -0.6113
  798SOL    HW1 3190   2.350   0.103   2.315 -0.1825  1.2537 -0.5363
  798SOL    HW2 3191   2.455   0.055   2.230 -1.3754 -2.2413  0.1188
  798SOL     MW 3192   2.372   0.056   2.244 -0.1320  0.2643 -0.5051
  799SOL     OW 3193   2.551   2.976   0.117 -0.2628 -0.2325  0.3349
  799SOL    HW1 3194   2.484   2.957   0.053 -1.0330  2.7351 -1.5304
  799SOL    HW2 3195   2.515   2.957   0.202  0.3941  1.5109 -0.0553
  799SOL     MW 3196   2.538   2.971   0.120 -0.2778  0.3891  0.0373
  800SOL     OW 3197   1.930   3.059   1.756 -0.0387  0.2536  0.3804
  800SOL    HW1 3198   1.857   2.996   1.746 -0.6212  1.0510 -1.4505
  800SOL    HW2 3199   1.974   3.027   1.841 -0.8169 -0.2451 -0.4195
  800SOL     MW 3200   1.926   3.046   1.766 -0.2182  0.2930  0.0333
  801SOL     OW 3201   2.850   1.222   2.617 -0.1867 -0.1812  0.2165
  801SOL    HW1 3202   2.836   1.131   2.611 -0.5181  0.8811 -0.6828
  801SOL    HW2 3203   2.935   1.244   2.579 -1.0143  2.3338  1.2439
  801SOL     MW 3204   2.859   1.213   2.612 -0.3397  0.2908  0.2334
  802SOL     OW 3205   2.600   1.483   2.780 -0.2465  0.0635 -0.3994
  802SOL    HW1 3206   2.573   1.407   2.725 -2.2112 -3.8912 -0.5548
  802SOL    HW2 3207   2.681   1.462   2.840  1.7622 -0.5188 -0.3559
  802SOL     MW 3208   2.607   1.470   2.781 -0.2407 -0.5351 -0.4142
  803SOL     OW 3209   2.281   1.386   2.002 -0.5076 -0.0874  0.1765
  803SOL    HW1 3210   2.251   1.382   2.092  1.3133  0.3612  0.1613
  803SOL    HW2 3211   2.255   1.306   1.960  0.6702 -0.3822 -0.2186
  803SOL     MW 3212   2.273   1.375   2.008 -0.1120 -0.0671  0.1224
  804SOL     OW 3213   2.297   0.101   0.030  0.0307 -0.1874 -0.3811
  804SOL    HW1 3214   2.210   0.153   0.026 -1.1225 -1.2754  1.2377
  804SOL    HW2 3215   2.360   0.140  -0.042 -0.0705 -0.6235  0.3667
  804SOL     MW 3216   2.294   0.113   0.020 -0.1348 -0.3885 -0.0688
  805SOL     OW 3217   2.702   0.873   2.649  0.6476  0.5954  0.1168
  805SOL    HW1 3218   2.607   0.869   2.618  1.0499 -0.6773  0.0540
  805SOL    HW2 3219   2.753   0.819   2.592 -1.2887  0.2376  2.8517
  805SOL     MW 3220   2.696   0.865   2.637  0.4452  0.3802  0.4693
  806SOL     OW 3221   2.595   0.703   2.241 -0.4121 -0.3463 -0.2248
  806SOL    HW1 3222   2.600   0.682   2.148 -2.4551 -2.0990  0.0718
  806SOL    HW2 3223   2.612   0.793   2.256 -0.6301 -0.7618 -1.1009
  806SOL     MW 3224   2.598   0.712   2.231 -0.7104 -0.6324 -0.3012
  807SOL     OW 3225   0.063   1.106   2.067  0.4232 -0.4519  0.0546
  807SOL    HW1 3226   0.120   1.024   2.052 -0.3299 -0.0089  2.1685
  807SOL    HW2 3227  -0.019   1.082   2.035 -0.4095  1.0548 -1.0594
  807SOL     MW 3228   0.060   1.092   2.061  0.2140 -0.1946  0.1865
  808SOL     OW 3229   2.653   0.029   2.816 -0.2306 -0.7039 -0.1596
  808SOL    HW1 3230   2.581  -0.030   2.785  0.3406  0.3724 -0.8637
  808SOL    HW2 3231   2.659   0.104   2.747  1.4094 -0.1061 -2.7627
  808SOL     MW 3232   2.644   0.031   2.803  0.0611 -0.4830 -0.5959
  809SOL     OW 3233   2.688   1.350   2.405  0.1225 -0.0993 -0.9651
  809SOL    HW1 3234   2.729   1.313   2.484 -0.8277  2.8322  0.1684
  809SOL    HW2 3235   2.739   1.329   2.326 -1.3188  1.8552 -0.6771
  809SOL     MW 3236   2.700   1.343   2.405 -0.1931  0.5454 -0.7775
  810SOL     OW 3237   2.227   1.347   2.292  0.2355 -0.0261  0.5806
  810SOL    HW1 3238   2.290   1.274   2.297 -0.0129  1.4228 -0.4600
  810SOL    HW2 3239   2.164   1.338   2.361 -0.5380 -0.8734 -0.1929
  810SOL     MW 3240   2.227   1.336   2.302  0.1007  0.0532  0.3413
  811SOL     OW 3241   1.593   0.163   2.301 -0.2197 -0.0538 -0.2699
  811SOL    HW1 3242   1.682   0.129   2.307  0.4001 -2.3340 -0.1866
  811SOL    HW2 3243   1.580   0.183   2.212 -0.1778 -2.1263  1.1607
  811SOL     MW 3244   1.603   0.161   2.290 -0.1324 -0.6281 -0.0701
  812SOL     OW 3245   1.458   2.864   2.050 -0.0835 -0.2463 -0.5372
  812SOL    HW1 3246   1.553   2.880   2.053 -0.2229 -0.8164  0.2002
  812SOL    HW2 3247   1.439   2.841   2.140  0.2186 -0.5492 -0.3936
  812SOL     MW 3248   1.468   2.863   2.062 -0.0621 -0.3615 -0.4210
  813SOL     OW 3249   2.025   0.614   2.240  0.1603  0.0836  0.3998
  813SOL    HW1 3250   1.940   0.586   2.222  2.8166  0.0236 -0.0606
  813SOL    HW2 3251   2.014   0.688   2.291  2.4327 -2.3572 -0.5037
  813SOL     MW 3252   2.012   0.620   2.245  0.8106 -0.2464  0.2198
  814SOL     OW 3253   2.695   1.223   1.634  0.2637  0.1972 -0.0294
  814SOL    HW1 3254   2.642   1.188   1.709 -0.2133  0.6354  0.6155
  814SOL    HW2 3255   2.651   1.189   1.554 -0.5133 -1.0323  1.9506
  814SOL     MW 3256   2.682   1.214   1.634  0.0983  0.0928  0.3169
  815SOL     OW 3257   2.546   1.769   2.408  0.3713  0.3133  0.1242
  815SOL    HW1 3258   2.485   1.707   2.359 -1.9118 -0.8336 -2.5811
  815SOL    HW2 3259   2.632   1.718   2.411  1.4408  0.3529  0.7434
  815SOL     MW 3260   2.549   1.754   2.402  0.2112  0.1672 -0.1511
  816SOL     OW 3261   0.754   0.705   2.777  0.1790  0.2659  0.5529
  816SOL    HW1 3262   0.748   0.604   2.761 -0.9115  3.2643  0.0031
  816SOL    HW2 3263   0.659   0.727   2.739 -2.1366  0.5342  2.1497
  816SOL     MW 3264   0.741   0.694   2.770 -0.2704  0.6969  0.6910
  817SOL     OW 3265   2.971   1.236   1.453 -0.2959 -0.4255  0.1072
  817SOL    HW1 3266   3.063   1.212   1.477 -1.5164  1.2858  0.7196
  817SOL    HW2 3267   2.977   1.328   1.411 -0.4287  1.3446 -2.0095
  817SOL     MW 3268   2.984   1.245   1.451 -0.4744  0.0339 -0.0913
  818SOL     OW 3269   1.898   1.060   2.630 -0.2840 -0.1325  0.3191
  818SOL    HW1 3270   1.873   1.053   2.544  2.0007 -0.0998 -0.0502
  818SOL    HW2 3271   1.976   0.996   2.636  0.1266 -1.9436 -1.8663
  818SOL     MW 3272   1.905   1.051   2.620  0.0716 -0.3672 -0.0180
  819SOL     OW 3273   1.970   0.328   2.485 -0.0971  0.0218  0.1797
  819SOL    HW1 3274   1.894   0.384   2.509  3.1664 -0.1403  3.3149
  819SOL    HW2 3275   2.016   0.329   2.568  0.3667  1.2975 -1.1138
  819SOL     MW 3276   1.966   0.335   2.499  0.3947  0.1687  0.4227
  820SOL     OW 3277   2.458   1.680   2.655 -0.1868 -0.5217 -0.6654
  820SOL    HW1 3278   2.524   1.625   2.700 -0.0210 -0.5760 -1.5672
  820SOL    HW2 3279   2.498   1.695   2.567  1.0416 -1.3243  0.7405
  820SOL     MW 3280   2.472   1.675   2.649 -0.0028 -0.6347 -0.5989
  821SOL     OW 3281   2.579   1.373   1.989 -0.2145  0.0007 -0.3389
  821SOL    HW1 3282   2.592   1.450   1.929  0.8300  0.0509  2.5551
  821SOL    HW2 3283   2.486   1.370   1.989  1.7616 -0.4305  0.9806
  821SOL     MW 3284   2.568   1.383   1.981  0.1840 -0.0496  0.2170
  822SOL     OW 3285   2.911   2.743   1.476 -0.4451  0.1617 -0.0402
  822SOL    HW1 3286   2.923   2.730   1.566  2.6055  1.7378 -2.0509
  822SOL    HW2 3287   2.909   2.835   1.459  0.7472 -2.2737 -0.5143
  822SOL     MW 3288   2.912   2.754   1.486  0.1147  0.0483 -0.3680
  823SOL     OW 3289   2.369   0.501   1.862  0.2419  0.5012 -0.2253
  823SOL    HW1 3290   2.417   0.436   1.822 -2.3883  1.4681  0.5150
  823SOL    HW2 3291   2.354   0.484   1.952  0.9212  1.6647 -0.6811
  823SOL     MW 3292   2.373   0.490   1.868 -0.0155  0.7823 -0.1878
  824SOL     OW 3293   2.268   1.469   2.672  0.2882 -0.0698 -0.0108
  824SOL    HW1 3294   2.347   1.525   2.675 -0.0253 -0.3136 -0.6231
  824SOL    HW2 3295   2.198   1.538   2.677  0.8122 -0.2070 -0.6506
  824SOL     MW 3296   2.269   1.485   2.673  0.3160 -0.1201 -0.1760
  825SOL     OW 3297   1.869   2.582   0.249  0.3873 -0.2965  0.3194
  825SOL    HW1 3298   1.830   2.515   0.309  1.4373 -5.1543  0.8455
  825SOL    HW2 3299   1.935   2.530   0.205 -1.3126 -0.7317  0.0084
  825SOL     MW 3300   1.872   2.566   0.251  0.3016 -0.9949  0.3478
  826SOL     OW 3301   1.796   2.372   0.438  0.1471  0.5728 -0.5557
  826SOL    HW1 3302   1.770   2.282   0.472 -0.8424  0.4165  1.2123
  826SOL    HW2 3303   1.780   2.429   0.517 -4.7983 -3.4858  0.9398
  826SOL     MW 3304   1.791   2.367   0.453 -0.6359  0.0167 -0.1251
  827SOL     OW 3305   1.897   2.216   0.802 -0.2607 -0.5797  0.2773
  827SOL    HW1 3306   1.825   2.210   0.738 -0.0100  3.2316 -1.8094
  827SOL    HW2 3307   1.873   2.142   0.855  2.0470  1.0431 -1.8143
  827SOL     MW 3308   1.884   2.206   0.801  0.0769  0.1373 -0.2740
  828SOL     OW 3309   0.047   2.623   0.574  0.3165 -0.3882 -0.3505
  828SOL    HW1 3310   0.142   2.601   0.570 -0.7565  0.8988  2.4914
  828SOL    HW2 3311   0.025   2.672   0.495  0.5799 -1.6469 -1.0217
  828SOL     MW 3312   0.057   2.626   0.563  0.2097 -0.3845 -0.0641
  829SOL     OW 3313   2.982   2.931   1.196  0.1450  0.3027  0.0348
  829SOL    HW1 3314   2.901   2.927   1.141  3.3421  0.2910 -0.6767
  829SOL    HW2 3315   3.019   2.841   1.192  1.6535 -0.8537  0.4577
  829SOL     MW 3316   2.976   2.918   1.188  0.7659  0.1486 -0.0033
  830SOL     OW 3317   2.564   2.822   2.027  0.4823 -0.4923 -0.0227
  830SOL    HW1 3318   2.471   2.800   1.996  1.4543 -0.3929  0.7938
  830SOL    HW2 3319   2.613   2.803   1.945 -0.6254  0.7599  1.9767
  830SOL     MW 3320   2.558   2.816   2.012  0.4644 -0.3139  0.3488
  831SOL     OW 3321   2.366   2.433   1.175 -0.1314  0.1565  0.2033
  831SOL    HW1 3322   2.326   2.384   1.254  0.4121  0.5849  0.6830
  831SOL    HW2 3323   2.458   2.406   1.169 -2.7976 -2.6553 -0.9222
  831SOL     MW 3324   2.373   2.423   1.184 -0.4114 -0.1580  0.1181
  832SOL     OW 3325   2.356   2.196   1.861 -0.1409  0.0328  0.1734
  832SOL    HW1 3326   2.396   2.280   1.884  3.2436 -1.4250 -0.0610
  832SOL    HW2 3327   2.430   2.153   1.819  2.6139 -1.2147  1.3110
  832SOL     MW 3328   2.371   2.202   1.858  0.6691 -0.3241  0.2925
  833SOL     OW 3329   1.710   2.469   0.895 -0.3340 -0.3265  0.1951
  833SOL    HW1 3330   1.642   2.413   0.933 -2.5389  4.1390  0.0980
  833SOL    HW2 3331   1.710   2.546   0.948  2.5599 -5.5331 -2.2653
  833SOL     MW 3332   1.701   2.472   0.907 -0.2431 -0.4243 -0.1423
  834SOL     OW 3333   2.082   2.412   0.579 -0.4287  0.2435  0.5224
  834SOL    HW1 3334   1.991   2.411   0.544 -1.0294  1.4952 -3.6791
  834SOL    HW2 3335   2.137   2.375   0.508  1.8547  0.0636  0.0727
  834SOL     MW 3336   2.077   2.407   0.565 -0.2067  0.3849 -0.0913
  835SOL     OW 3337   1.781   2.580   0.632 -0.2835 -0.3335 -0.0169
  835SOL    HW1 3338   1.738   2.532   0.710 -3.1407 -1.3987  2.4632
  835SOL    HW2 3339   1.834   2.648   0.663 -0.5632  0.4075 -2.9321
  835SOL     MW 3340   1.782   2.582   0.646 -0.6974 -0.3763 -0.0743
  836SOL     OW 3341   1.893   2.177   1.576  0.1553 -0.5492 -0.2610
  836SOL    HW1 3342   1.976   2.213   1.606 -1.1528 -0.9811 -0.2583
  836SOL    HW2 3343   1.826   2.232   1.617  0.1222  0.5953  1.5474
  836SOL     MW 3344   1.895   2.189   1.585 -0.0216 -0.4552 -0.0221
  837SOL     OW 3345   2.144   0.222   0.705 -0.4362  0.4523 -0.7670
  837SOL    HW1 3346   2.057   0.233   0.662  1.5415 -0.3234  1.5158
  837SOL    HW2 3347   2.187   0.165   0.642  1.6230  4.2016  0.7279
  837SOL     MW 3348   2.138   0.216   0.691  0.0964  0.8447 -0.2685
  838SOL     OW 3349   2.930   2.026   0.933 -0.1827  0.2117 -0.1171
  838SOL    HW1 3350   2.860   1.971   0.969 -0.1135  0.1836  2.3717
  838SOL    HW2 3351   3.008   1.974   0.907 -0.4398 -0.7630  2.7784
  838SOL     MW 3352   2.931   2.012   0.934 -0.2075  0.0794  0.5933
  839SOL     OW 3353   1.544   2.338   1.034  0.1097  0.1272  0.2042
  839SOL    HW1 3354   1.555   2.408   1.094 -0.9544 -0.9480  0.3753
  839SOL    HW2 3355   1.568   2.259   1.088 -0.6137 -0.3251 -0.6915
  839SOL     MW 3356   1.549   2.337   1.049 -0.1261 -0.0743  0.1086
  840SOL     OW 3357   2.366   2.189   2.453  0.1186 -0.4449  0.3260
  840SOL    HW1 3358   2.335   2.248   2.388  0.0945 -0.4792  2.2003
  840SOL    HW2 3359   2.351   2.224   2.544 -0.8517 -2.3615 -0.2312
  840SOL     MW 3360   2.360   2.202   2.457 -0.0126 -0.7023  0.4998
  841SOL     OW 3361   2.067   2.439   0.117  0.1275  0.2808 -0.0707
  841SOL    HW1 3362   2.096   2.497   0.044  3.4377 -2.4806 -2.8314
  841SOL    HW2 3363   2.085   2.347   0.093  1.6100 -1.4760 -0.5734
  841SOL     MW 3364   2.073   2.435   0.104  0.7598 -0.3153 -0.5013
  842SOL     OW 3365   2.686   2.078   1.531 -0.1394 -0.0933 -0.2186
  842SOL    HW1 3366   2.656   2.036   1.610  2.8650  1.1870  0.2244
  842SOL    HW2 3367   2.619   2.067   1.459 -0.5477  1.1550 -1.7150
  842SOL     MW 3368   2.673   2.071   1.532  0.2031  0.2403 -0.3576
  843SOL     OW 3369   2.664   2.751   1.783 -0.2650 -0.0373 -0.1991
  843SOL    HW1 3370   2.739   2.694   1.766 -0.0469 -2.7694 -0.4021
  843SOL    HW2 3371   2.585   2.691   1.759 -0.8525  2.2185  0.9826
  843SOL     MW 3372   2.663   2.736   1.778 -0.3138 -0.1001 -0.0700
  844SOL     OW 3373   2.633   2.386   1.149 -0.6951  0.0440  0.1507
  844SOL    HW1 3374   2.676   2.411   1.064 -2.3636  0.7070 -2.9228
  844SOL    HW2 3375   2.693   2.424   1.219 -1.7262  0.6855  1.8252
  844SOL     MW 3376   2.646   2.394   1.147 -1.0513  0.2161 -0.0338
  845SOL     OW 3377   2.842   2.504   0.288 -0.1530  0.1414  0.0184
  845SOL    HW1 3378   2.800   2.412   0.286  0.7818 -2.1551  0.3933
  845SOL    HW2 3379   2.858   2.521   0.380 -4.4251  1.1025 -2.7207
  845SOL     MW 3380   2.838   2.494   0.300 -0.5933 -0.0348 -0.2935
  846SOL     OW 3381   1.595   2.855   0.797 -0.2644 -0.3722  0.2431
  846SOL    HW1 3382   1.681   2.865   0.843  0.8138  1.2846 -1.4055
  846SOL    HW2 3383   1.535   2.911   0.845  1.1243 -1.5469 -1.0826
  846SOL     MW 3384   1.599   2.864   0.809  0.0611 -0.3086 -0.1493
  847SOL     OW 3385   2.612   1.935   0.199 -0.4174 -0.7600  0.1151
  847SOL    HW1 3386   2.698   1.901   0.175 -1.8393 -0.0019  0.6877
  847SOL    HW2 3387   2.567   1.915   0.121 -0.7147 -1.2470 -2.1615
  847SOL     MW 3388   2.617   1.928   0.186 -0.6442 -0.7242 -0.1097
  848SOL     OW 3389   2.523   2.118   1.295 -0.3628  0.1158 -0.3611
  848SOL    HW1 3390   2.557   2.194   1.252  0.5643  0.2587  2.1978
  848SOL    HW2 3391   2.523   2.042   1.240 -0.2165 -2.6365  0.5375
  848SOL     MW 3392   2.528   2.118   1.282 -0.2212 -0.2285  0.0951
  849SOL     OW 3393   1.973   2.711   0.798  0.0981  0.7315  0.1744
  849SOL    HW1 3394   2.000   2.641   0.859  2.8208  0.0760  0.2111
  849SOL    HW2 3395   2.045   2.718   0.739  1.0677 -0.3552  2.9964
  849SOL     MW 3396   1.986   2.703   0.799  0.5853  0.5016  0.5516
  850SOL     OW 3397   2.174   1.959   1.680  0.3695  0.2077  0.0993
  850SOL    HW1 3398   2.113   1.894   1.641 -0.3935 -1.3057 -1.0491
  850SOL    HW2 3399   2.137   2.040   1.657  1.2790 -1.5346  0.5441
  850SOL     MW 3400   2.161   1.961   1.672  0.3888 -0.2218  0.0065
  851SOL     OW 3401   2.228   2.367   0.351 -0.2899 -0.6198  0.4925
  851SOL    HW1 3402   2.171   2.387   0.280 -0.4416  0.2604  2.6032
  851SOL    HW2 3403   2.298   2.430   0.342 -2.1704  1.1415 -2.1225
  851SOL     MW 3404   2.230   2.378   0.341 -0.5580 -0.2713  0.4260
  852SOL     OW 3405   2.298   2.119   0.224 -0.4247  0.1119 -0.8796
  852SOL    HW1 3406   2.272   2.187   0.290 -0.1514  0.7229  0.5143
  852SOL    HW2 3407   2.368   2.156   0.166 -1.5173  2.7634 -2.2147
  852SOL     MW 3408   2.304   2.133   0.225 -0.5328  0.5424 -0.8719
  853SOL     OW 3409   2.422   2.444   1.945  0.1889  0.0837  0.6455
  853SOL    HW1 3410   2.450   2.499   1.870  0.4304  0.8352  1.2889
  853SOL    HW2 3411   2.500   2.444   1.998 -0.2689 -1.2222 -0.0916
  853SOL     MW 3412   2.436   2.451   1.942  0.1603  0.0105  0.6331
  854SOL     OW 3413   2.866   2.219   0.740  0.3218  0.1623 -0.0792
  854SOL    HW1 3414   2.793   2.173   0.695 -0.9199  0.7933 -0.9220
  854SOL    HW2 3415   2.889   2.160   0.815  0.6407 -0.6357  0.9265
  854SOL     MW 3416   2.859   2.205   0.744  0.2000  0.1402 -0.0577
  855SOL     OW 3417   2.688   2.253   0.292 -0.3598  0.8237  0.1623
  855SOL    HW1 3418   2.663   2.284   0.377  0.2227  0.0829 -2.3504
  855SOL    HW2 3419   2.767   2.198   0.303 -0.1894 -1.1977  1.8371
  855SOL     MW 3420   2.695   2.250   0.305 -0.2605  0.4592  0.0518
  856SOL     OW 3421   2.199   1.876   0.178 -0.3643 -0.2902  0.2676
  856SOL    HW1 3422   2.107   1.881   0.213 -1.1875  0.1426 -0.6290
  856SOL    HW2 3423   2.242   1.965   0.195 -0.1894  1.7376  0.4640
  856SOL     MW 3424   2.193   1.888   0.185 -0.4498  0.0345  0.1752
  857SOL     OW 3425   2.533   1.912   0.456  0.9027  0.0822 -0.0070
  857SOL    HW1 3426   2.537   1.938   0.366 -1.0029 -0.8639  1.5624
  857SOL    HW2 3427   2.451   1.873   0.457  1.7708  2.4579 -0.3605
  857SOL     MW 3428   2.523   1.910   0.444  0.7658  0.2708  0.1535
  858SOL     OW 3429   2.916   2.649   1.745  0.0898 -0.7009 -0.1608
  858SOL    HW1 3430   2.979   2.689   1.802  0.7040 -1.4937 -0.2312
  858SOL    HW2 3431   2.892   2.561   1.780 -2.2899  2.4247 -0.2405
  858SOL     MW 3432   2.921   2.642   1.757 -0.1431 -0.3931 -0.1806
  859SOL     OW 3433   2.101   2.463   0.900 -0.3297  0.0598 -0.5469
  859SOL    HW1 3434   2.047   2.426   0.833 -0.4081  0.8730  2.1534
  859SOL    HW2 3435   2.169   2.399   0.911 -1.4312 -1.3914  0.8543
  859SOL     MW 3436   2.103   2.449   0.892 -0.4854 -0.0244 -0.0058
  860SOL     OW 3437   2.633   2.627   0.180  0.0086 -0.0470 -0.3652
  860SOL    HW1 3438   2.709   2.605   0.234 -1.0791 -1.0088 -1.1182
  860SOL    HW2 3439   2.659   2.710   0.138  1.1281 -1.2465  2.5859
  860SOL     MW 3440   2.647   2.635   0.181  0.0128 -0.3321 -0.0752
  861SOL     OW 3441   1.570   2.102   1.164  0.4203 -0.0603  0.3197
  861SOL    HW1 3442   1.645   2.119   1.221 -2.0958  0.5123 -0.3301
  861SOL    HW2 3443   1.511   2.050   1.221 -2.3647  0.2164 -1.1326
  861SOL     MW 3444   1.572   2.097   1.179 -0.2791  0.0518  0.0423
  862SOL     OW 3445   2.395   1.838   1.546 -0.3930  0.1689 -0.2703
  862SOL    HW1 3446   2.324   1.869   1.601  0.2779  0.1309 -2.6519
  862SOL    HW2 3447   2.357   1.831   1.459 -2.0038 -1.7070  0.7702
  862SOL     MW 3448   2.381   1.841   1.542 -0.5170 -0.0837 -0.4472
  863SOL     OW 3449   3.063   1.803   1.159 -0.0293 -0.2750  0.2130
  863SOL    HW1 3450   3.156   1.825   1.171 -0.2000 -0.3000 -1.7909
  863SOL    HW2 3451   3.027   1.891   1.186 -2.6529 -2.1617 -1.1668
  863SOL     MW 3452   3.071   1.818   1.164 -0.3980 -0.5272 -0.2335
  864SOL     OW 3453   0.038   1.851   0.892 -0.5577 -0.8439 -0.6515
  864SOL    HW1 3454  -0.015   1.816   0.963 -1.8652  0.7406 -0.8033
  864SOL    HW2 3455   0.001   1.833   0.802  0.8290  2.1463  0.3604
  864SOL     MW 3456   0.026   1.844   0.890 -0.5472 -0.2403 -0.5380
  865SOL     OW 3457   2.526   2.172   0.068  0.1861  0.0435 -0.7659
  865SOL    HW1 3458   2.574   2.110   0.137  1.0785 -1.2586  1.3729
  865SOL    HW2 3459   2.515   2.124  -0.014 -0.8437  0.4138  1.0136
  865SOL     MW 3460   2.531   2.158   0.067  0.1680 -0.0794 -0.2489
  866SOL     OW 3461   2.699   2.378   1.592 -0.4315  0.4247 -0.3045
  866SOL    HW1 3462   2.702   2.285   1.567  0.4472  2.0780 -0.6928
  866SOL    HW2 3463   2.737   2.421   1.516  3.0043  0.1726  1.0966
  866SOL     MW 3464   2.704   2.371   1.579  0.1377  0.6096 -0.1709
  867SOL     OW 3465   0.075   2.744   1.856 -0.2931  0.3071 -0.4655
  867SOL    HW1 3466   0.143   2.761   1.916 -0.4385  1.4323  0.0451
  867SOL    HW2 3467   0.059   2.820   1.801  1.7318 -1.9905 -0.2291
  867SOL     MW 3468   0.082   2.756   1.857 -0.0451  0.1524 -0.3669
  868SOL     OW 3469   2.798   2.564   0.559 -0.2368  0.4075 -0.0616
  868SOL    HW1 3470   2.718   2.507   0.551  1.2152 -2.3982 -0.9532
  868SOL    HW2 3471   2.781   2.656   0.532  0.0296  1.2835 -0.9097
  868SOL     MW 3472   2.785   2.569   0.555 -0.0101  0.1529 -0.2912
  869SOL     OW 3473   1.901   2.330   1.052  0.8267 -0.3345  0.2126
  869SOL    HW1 3474   1.975   2.386   1.018 -0.6259  0.0503 -2.2284
  869SOL    HW2 3475   1.853   2.329   0.963  0.8221  0.9684 -2.7295
  869SOL     MW 3476   1.904   2.338   1.036  0.6344 -0.1118 -0.4976
  870SOL     OW 3477   2.253   0.035   0.531 -0.6124 -0.1728 -0.3985
  870SOL    HW1 3478   2.304   0.079   0.458  1.5524 -2.2500 -1.7151
  870SOL    HW2 3479   2.269  -0.058   0.527 -0.4043  0.3031 -0.9211
  870SOL     MW 3480   2.262   0.028   0.521 -0.2993 -0.3841 -0.6411
  871SOL     OW 3481   2.472   2.042   0.878  0.0627 -0.9694  0.2616
  871SOL    HW1 3482   2.416   2.009   0.807  1.5013  0.9750  0.1636
  871SOL    HW2 3483   2.433   2.129   0.893  2.1546 -1.4370  1.3468
  871SOL     MW 3484   2.459   2.049   0.871  0.5285 -0.7746  0.3918
  872SOL     OW 3485   2.017   2.559   1.383 -0.3035 -1.0613 -0.0145
  872SOL    HW1 3486   1.979   2.620   1.455  0.3397 -1.1442  0.4719
  872SOL    HW2 3487   1.949   2.495   1.367  1.4870  0.2197 -3.1726
  872SOL     MW 3488   2.003   2.559   1.391  0.0176 -0.9032 -0.3670
  873SOL     OW 3489   2.826   2.088   1.925  0.2220  0.4240  0.5353
  873SOL    HW1 3490   2.876   2.114   2.000 -0.5418 -1.9336 -2.1450
  873SOL    HW2 3491   2.882   2.101   1.850 -0.9073  0.0567  0.1225
  873SOL     MW 3492   2.840   2.093   1.925 -0.0278  0.0645  0.1272
  874SOL     OW 3493   2.434   1.510   2.351 -0.2129 -0.1012  0.6497
  874SOL    HW1 3494   2.348   1.478   2.361 -1.6909  2.7106 -0.9795
  874SOL    HW2 3495   2.489   1.437   2.326  0.8791  1.6661  1.1312
  874SOL     MW 3496   2.430   1.496   2.349 -0.2638  0.5030  0.4982
  875SOL     OW 3497   2.322   2.307   0.908 -0.0688 -0.3683  0.0239
  875SOL    HW1 3498   2.401   2.362   0.885  1.4907  1.9102  1.4339
  875SOL    HW2 3499   2.327   2.330   1.000 -1.6322 -1.1492 -1.1963
  875SOL     MW 3500   2.333   2.317   0.917 -0.0693 -0.1707  0.0489
  876SOL     OW 3501   3.037   2.327   1.328 -0.5224  0.0316 -0.0638
  876SOL    HW1 3502   3.086   2.333   1.242  2.2771  0.6441 -0.8047
  876SOL    HW2 3503   3.065   2.391   1.392  0.0098 -1.2797  4.4511
  876SOL     MW 3504   3.047   2.336   1.325 -0.0828 -0.0606  0.4341
  877SOL     OW 3505   3.028   2.752   0.321 -0.6568 -0.1227 -0.1425
  877SOL    HW1 3506   3.010   2.835   0.279  0.4218 -0.2157  0.9591
  877SOL    HW2 3507   3.058   2.694   0.251 -0.1713 -0.1730  1.4342
  877SOL     MW 3508   3.030   2.755   0.306 -0.4505 -0.1416  0.2109
  878SOL     OW 3509   2.313   1.811   1.279 -0.5398 -0.1072  0.2453
  878SOL    HW1 3510   2.265   1.728   1.286  0.6446  1.0038  2.2336
  878SOL    HW2 3511   2.398   1.781   1.246 -1.8570  1.8842 -1.6753
  878SOL     MW 3512   2.318   1.796   1.275 -0.5573  0.3021  0.2542
  879SOL     OW 3513   2.767   2.428   0.903 -0.5522  0.0188 -0.8191
  879SOL    HW1 3514   2.836   2.490   0.930  1.4204  2.8041  0.5595
  879SOL    HW2 3515   2.812   2.361   0.856  0.7569  0.9886  3.7068
  879SOL     MW 3516   2.782   2.428   0.901 -0.1192  0.5142 -0.0401
  880SOL     OW 3517   2.645   2.041   0.666 -0.6041  0.5721  0.1173
  880SOL    HW1 3518   2.579   2.047   0.741 -3.9197 -0.0343  1.4005
  880SOL    HW2 3519   2.598   2.006   0.589  0.7450  0.4921 -2.7281
  880SOL     MW 3520   2.630   2.038   0.666 -0.8636  0.4816 -0.0888
  881SOL     OW 3521   2.923   2.688   0.769 -0.2111 -0.0093 -0.2556
  881SOL    HW1 3522   2.868   2.634   0.705  0.2654 -2.7685 -2.3270
  881SOL    HW2 3523   3.006   2.670   0.728  0.7718 -0.1914  0.4817
  881SOL     MW 3524   2.927   2.678   0.755 -0.0185 -0.3973 -0.4316
  882SOL     OW 3525   2.328   2.778   1.879 -0.1665  0.3246  0.1693
  882SOL    HW1 3526   2.301   2.798   1.791 -1.9697  1.6541  2.0214
  882SOL    HW2 3527   2.255   2.732   1.922  1.3792  0.5057 -0.6940
  882SOL     MW 3528   2.314   2.774   1.873 -0.2005  0.5239  0.2998
  883SOL     OW 3529   2.260   2.258   1.358  0.2314  0.6003  0.2393
  883SOL    HW1 3530   2.339   2.204   1.355  1.4184 -1.0080 -0.4187
  883SOL    HW2 3531   2.191   2.215   1.299 -1.3221  1.1550 -0.5138
  883SOL     MW 3532   2.261   2.245   1.350  0.1831  0.4613  0.0532
  884SOL     OW 3533   1.910   1.869   1.122 -0.7086  0.4864  0.1424
  884SOL    HW1 3534   1.864   1.911   1.050 -2.2688  1.4757  0.5363
  884SOL    HW2 3535   2.002   1.882   1.105  0.9643 -2.5597  0.8416
  884SOL     MW 3536   1.916   1.876   1.110 -0.6937  0.2150  0.2867
  885SOL     OW 3537   2.778   2.410   1.850 -0.3423  0.2039 -0.0047
  885SOL    HW1 3538   2.871   2.390   1.873  2.6933 -1.2382 -0.6753
  885SOL    HW2 3539   2.754   2.364   1.770  2.1306 -0.0370 -1.6490
  885SOL     MW 3540   2.787   2.401   1.842  0.3845 -0.0181 -0.3101
  886SOL     OW 3541   2.805   2.495   1.369 -0.2735 -1.3742  0.3352
  886SOL    HW1 3542   2.887   2.454   1.343 -0.1654 -1.1797 -1.0623
  886SOL    HW2 3543   2.836   2.586   1.392 -0.0151 -0.3080  0.5223
  886SOL     MW 3544   2.820   2.502   1.369 -0.2252 -1.2079  0.1755
  887SOL     OW 3545   2.302   2.611   1.485 -0.0113 -0.0570  0.2873
  887SOL    HW1 3546   2.342   2.636   1.400  1.6110 -1.9658  1.1957
  887SOL    HW2 3547   2.211   2.595   1.466  0.4309 -2.1213  0.4459
  887SOL     MW 3548   2.296   2.612   1.471  0.2611 -0.5812  0.4281
  888SOL     OW 3549   1.796   2.081   1.332  0.0804 -0.1281  0.2508
  888SOL    HW1 3550   1.867   2.042   1.284 -0.0589  1.0803 -0.2241
  888SOL    HW2 3551   1.841   2.107   1.416  2.8927  2.9539 -0.8010
  888SOL     MW 3552   1.811   2.079   1.336  0.4331  0.4379  0.0494
  889SOL     OW 3553   2.335   2.030   2.098  0.4441 -0.5299  0.1444
  889SOL    HW1 3554   2.425   2.025   2.135  0.7327 -1.6299  0.3974
  889SOL    HW2 3555   2.331   2.116   2.065 -1.0030 -1.5310 -0.7195
  889SOL     MW 3556   2.346   2.041   2.099  0.2912 -0.8071  0.0638
  890SOL     OW 3557   0.126   2.302   0.102  0.0842 -0.1190 -0.3112
  890SOL    HW1 3558   0.107   2.394   0.089 -0.2268 -2.0646 -1.1966
  890SOL    HW2 3559   0.099   2.281   0.194 -0.5941 -1.8718  0.8724
  890SOL     MW 3560   0.120   2.312   0.112 -0.0464 -0.6070 -0.2718
  891SOL     OW 3561   3.051   2.052   1.322 -0.0055  0.1973 -0.2081
  891SOL    HW1 3562   3.113   2.018   1.384 -3.0348 -1.1547 -1.6831
  891SOL    HW2 3563   3.058   2.145   1.326 -0.0158 -0.3170  0.0776
  891SOL     MW 3564   3.060   2.060   1.331 -0.4065 -0.0489 -0.3650
  892SOL     OW 3565   2.355   2.397   2.981  0.5207  0.4701  0.2489
  892SOL    HW1 3566   2.377   2.335   3.054 -1.2130 -2.7244 -0.7560
  892SOL    HW2 3567   2.436   2.418   2.932  0.6303  1.1405 -0.6423
  892SOL     MW 3568   2.369   2.392   2.984  0.3064  0.1370 -0.0012
  893SOL     OW 3569   1.577   2.531   1.224 -0.4146 -0.3711  0.2273
  893SOL    HW1 3570   1.509   2.546   1.293 -0.5916 -0.2819 -1.2823
  893SOL    HW2 3571   1.648   2.482   1.270 -3.3255  0.7475 -0.7468
  893SOL     MW 3572   1.578   2.527   1.239 -0.8220 -0.2117 -0.1004
  894SOL     OW 3573   2.843   1.900   0.513 -0.3292  0.4575 -0.1123
  894SOL    HW1 3574   2.769   1.948   0.562 -4.8241  0.4475 -0.3908
  894SOL    HW2 3575   2.802   1.845   0.436 -0.0266 -2.7583 -1.1218
  894SOL     MW 3576   2.828   1.899   0.510 -0.8823  0.0318 -0.2823
  895SOL     OW 3577   2.078   2.143   1.178 -0.2182  0.3035 -0.0295
  895SOL    HW1 3578   2.014   2.190   1.122  0.9166  1.3013 -0.6396
  895SOL    HW2 3579   2.127   2.078   1.126  1.1439  1.2204 -1.7595
  895SOL     MW 3580   2.076   2.141   1.163  0.1112  0.5561 -0.3382
  896SOL     OW 3581   2.198   2.838   1.062  0.0321 -0.3135  0.3582
  896SOL    HW1 3582   2.258   2.824   1.138  2.0705 -0.0539 -1.8330
  896SOL    HW2 3583   2.126   2.785   1.086  0.9625  2.5014  0.5076
  896SOL     MW 3584   2.196   2.829   1.075  0.4238  0.0922  0.0888
  897SOL     OW 3585   2.972   2.962   0.161  0.0923  0.4723  0.3763
  897SOL    HW1 3586   3.059   2.937   0.121  1.1009 -0.7616 -0.4137
  897SOL    HW2 3587   2.912   2.897   0.123  0.9791  3.9103  0.9474
  897SOL     MW 3588   2.975   2.950   0.151  0.3424  0.7631  0.3474
  898SOL     OW 3589   2.075   0.185   1.421  0.0917  0.0618  0.3626
  898SOL    HW1 3590   2.024   0.113   1.379 -0.0518 -0.5711  3.1815
  898SOL    HW2 3591   2.112   0.224   1.341 -4.9535  0.4803 -0.9462
  898SOL     MW 3592   2.073   0.181   1.405 -0.5929  0.0335  0.5618
  899SOL     OW 3593   2.896   2.971   0.672  0.5029  0.3597  0.5228
  899SOL    HW1 3594   2.882   2.880   0.705  2.4474 -0.6646 -1.4344
  899SOL    HW2 3595   2.805   3.008   0.672 -1.3371 -1.9964  0.0642
  899SOL     MW 3596   2.882   2.964   0.676  0.5167 -0.0863  0.2041
  900SOL     OW 3597   0.123   2.377   1.114 -0.0867  0.0369 -0.3766
  900SOL    HW1 3598   0.166   2.459   1.090  1.6258 -1.0722 -0.7567
  900SOL    HW2 3599   0.133   2.327   1.032  3.1831 -1.7154  1.7932
  900SOL     MW 3600   0.130   2.381   1.100  0.5707 -0.3406 -0.1405
  901SOL     OW 3601   1.730   2.813   1.740  0.1456  0.2795 -0.4435
  901SOL    HW1 3602   1.806   2.776   1.693 -0.1671  1.1365 -1.7805
  901SOL    HW2 3603   1.651   2.812   1.684  2.6174  3.3695 -0.1260
  901SOL     MW 3604   1.730   2.808   1.726  0.4304  0.8003 -0.5780
  902SOL     OW 3605   2.573   2.001   1.816 -0.0168 -0.4320  0.4013
  902SOL    HW1 3606   2.547   1.926   1.866 -0.5284  1.2432 -0.5850
  902SOL    HW2 3607   2.655   2.040   1.853 -0.3853  1.2614  2.2500
  902SOL     MW 3608   2.580   1.996   1.827 -0.1329  0.0125  0.5151
  903SOL     OW 3609   1.641   2.791   0.517 -0.3344  0.4226  0.1560
  903SOL    HW1 3610   1.670   2.704   0.555  1.3702  0.6032 -1.2412
  903SOL    HW2 3611   1.618   2.835   0.606 -0.8208  1.3807  0.9387
  903SOL     MW 3612   1.642   2.785   0.534 -0.1736  0.5728  0.0749
  904SOL     OW 3613   2.507   2.549   1.667  0.1500  0.6066  0.3273
  904SOL    HW1 3614   2.441   2.567   1.603  1.8375  3.3111  2.7297
  904SOL    HW2 3615   2.557   2.475   1.625 -2.4768 -0.1648 -1.3284
  904SOL     MW 3616   2.505   2.541   1.653  0.0260  0.8616  0.4259
  905SOL     OW 3617   2.348   2.592   2.159  0.2280 -0.0762  0.6522
  905SOL    HW1 3618   2.361   2.534   2.087  0.9348 -0.9256  3.3131
  905SOL    HW2 3619   2.327   2.528   2.231 -1.2632  0.1039  0.2677
  905SOL     MW 3620   2.347   2.576   2.159  0.1245 -0.1645  0.9526
  906SOL     OW 3621   2.508   2.471   0.817  0.0979 -0.3011 -0.3383
  906SOL    HW1 3622   2.602   2.439   0.834  0.8150 -1.6220 -1.3700
  906SOL    HW2 3623   2.498   2.559   0.844  0.3001 -1.6799  0.3597
  906SOL     MW 3624   2.519   2.478   0.823  0.2192 -0.6573 -0.3823
  907SOL     OW 3625   2.608   2.881   1.263  0.2828  0.1330 -0.3423
  907SOL    HW1 3626   2.683   2.867   1.323  0.6422  2.2897  0.8120
  907SOL    HW2 3627   2.653   2.890   1.180 -0.5521  1.4473  0.1743
  907SOL     MW 3628   2.624   2.880   1.260  0.2200  0.5910 -0.1218
  908SOL     OW 3629   2.708   2.394   0.029 -0.0416  0.5438 -0.0378
  908SOL    HW1 3630   2.690   2.311   0.085  1.6313 -3.9602 -0.6337
  908SOL    HW2 3631   2.686   2.469   0.075  0.3676 -0.5880 -0.6992
  908SOL     MW 3632   2.703   2.393   0.042  0.2331 -0.1998 -0.2037
  909SOL     OW 3633   1.620   0.228   1.015 -0.3316 -0.0869  0.4066
  909SOL    HW1 3634   1.670   0.292   0.962  0.7860 -2.1367 -1.2340
  909SOL    HW2 3635   1.608   0.268   1.100  0.9968 -1.2846 -1.2049
  909SOL     MW 3636   1.625   0.242   1.019 -0.0089 -0.5154 -0.0225
  910SOL     OW 3637   2.288   1.749   0.399  0.2034  0.5735  0.1611
  910SOL    HW1 3638   2.206   1.724   0.433  0.8327  0.1867  1.5117
  910SOL    HW2 3639   2.264   1.788   0.313 -1.6833  0.9620  2.3446
  910SOL     MW 3640   2.274   1.751   0.393  0.0375  0.5737  0.6274
  911SOL     OW 3641   2.154   2.277   1.643  0.0773  0.8451  0.5189
  911SOL    HW1 3642   2.217   2.258   1.709 -1.0351  1.5657  1.2700
  911SOL    HW2 3643   2.192   2.266   1.554 -2.0242 -1.1494 -2.6265
  911SOL     MW 3644   2.167   2.273   1.640 -0.3467  0.6770  0.2030
  912SOL     OW 3645   2.898   1.907   1.492  0.3789  0.3763  0.2750
  912SOL    HW1 3646   2.943   1.963   1.426  0.8187  1.2028 -0.7734
  912SOL    HW2 3647   2.834   1.968   1.519 -0.5624  1.9854  0.8010
  912SOL     MW 3648   2.895   1.922   1.487  0.3127  0.6976  0.2060
  913SOL     OW 3649   2.537   2.956   0.395 -0.0427 -0.0256  0.4969
  913SOL    HW1 3650   2.601   2.881   0.393  1.1348 -1.2526  0.8367
  913SOL    HW2 3651   2.451   2.913   0.407 -0.4339 -0.8799  0.4188
  913SOL     MW 3652   2.535   2.940   0.396  0.0610 -0.3002  0.5315
  914SOL     OW 3653   2.787   1.643   0.034 -0.0082  0.8805 -0.0334
  914SOL    HW1 3654   2.774   1.708  -0.030 -0.8187 -1.6719  1.1576
  914SOL    HW2 3655   2.702   1.609   0.055  5.4040 -1.9260 -3.9788
  914SOL     MW 3656   2.774   1.647   0.029  0.5990  0.1734 -0.3968
  915SOL     OW 3657   1.842   0.157   0.217  0.0054 -0.0041  0.2838
  915SOL    HW1 3658   1.892   0.112   0.285 -0.5078  0.9044  1.3570
  915SOL    HW2 3659   1.753   0.123   0.222 -0.0909 -0.4359 -4.6099
  915SOL     MW 3660   1.837   0.147   0.227 -0.0750  0.0588 -0.2203
  916SOL     OW 3661   1.825   2.085   1.972 -0.1460 -0.1845  0.6873
  916SOL    HW1 3662   1.818   2.183   1.964  1.5958 -0.8567  0.4375
  916SOL    HW2 3663   1.817   2.051   1.881 -0.0158  0.0627  0.0630
  916SOL     MW 3664   1.823   2.093   1.959  0.1010 -0.2406  0.5720
  917SOL     OW 3665   2.294   2.340   2.694  0.4790  0.3006 -0.2252
  917SOL    HW1 3666   2.300   2.303   2.784  0.5029  1.7968  0.0329
  917SOL    HW2 3667   2.285   2.433   2.695 -1.2882 -0.7240 -0.3377
  917SOL     MW 3668   2.294   2.347   2.706  0.2490  0.3628 -0.2060
  918SOL     OW 3669   2.075   1.667   2.668  0.3059  0.1704 -0.0678
  918SOL    HW1 3670   2.019   1.669   2.591  1.5311 -0.2525 -0.7454
  918SOL    HW2 3671   2.132   1.743   2.658 -0.5049 -1.4430 -1.1639
  918SOL     MW 3672   2.075   1.678   2.656  0.3606 -0.0983 -0.3018
  919SOL     OW 3673   3.067   2.397   2.277  0.1170 -0.4120  0.1014
  919SOL    HW1 3674   2.993   2.341   2.248  5.0394  1.8306  1.2113
  919SOL    HW2 3675   3.138   2.365   2.225  1.7532 -2.4723 -0.7627
  919SOL     MW 3676   3.066   2.385   2.267  0.9824 -0.3879  0.1338
  920SOL     OW 3677   2.779   2.848   0.011  0.1798 -0.2034 -0.1233
  920SOL    HW1 3678   2.695   2.887   0.039  0.3220  2.3496  0.5391
  920SOL    HW2 3679   2.763   2.781  -0.057 -0.3922 -0.4796 -0.1701
  920SOL     MW 3680   2.766   2.844   0.005  0.1231  0.0970 -0.0421
  921SOL     OW 3681   2.519   2.618   2.685 -0.4524 -0.4347 -0.3208
  921SOL    HW1 3682   2.590   2.629   2.622  0.9142 -2.3472 -0.8215
  921SOL    HW2 3683   2.544   2.547   2.740 -0.2925  4.7313 -1.8076
  921SOL     MW 3684   2.532   2.610   2.684 -0.2510 -0.0054 -0.5830
  922SOL     OW 3685   2.033   2.810   0.257  0.2030 -0.1016 -0.6566
  922SOL    HW1 3686   1.996   2.836   0.169 -0.5651 -1.9772  1.7818
  922SOL    HW2 3687   1.990   2.721   0.286  1.3714 -1.4538  2.2162
  922SOL     MW 3688   2.023   2.801   0.249  0.2558 -0.5275  0.0442
  923SOL     OW 3689   2.206   2.820   1.639  0.2709  0.3930  0.2423
  923SOL    HW1 3690   2.268   2.778   1.577 -0.8547 -1.1892  0.4950
  923SOL    HW2 3691   2.196   2.910   1.614  0.5793 -1.3842  2.8139
  923SOL     MW 3692   2.213   2.826   1.627  0.1630 -0.0502  0.6149
  924SOL     OW 3693   1.170   2.769   2.483  0.0658  0.3397  0.2856
  924SOL    HW1 3694   1.228   2.837   2.442 -0.4943 -0.5988 -2.0538
  924SOL    HW2 3695   1.232   2.737   2.546  2.7387 -0.6443 -1.5320
  924SOL     MW 3696   1.186   2.774   2.486  0.3445  0.0861 -0.2629
  925SOL     OW 3697   2.960   0.208   2.678 -0.0978  0.0703 -0.4743
  925SOL    HW1 3698   2.995   0.234   2.590  3.0511 -1.4799  4.0057
  925SOL    HW2 3699   2.922   0.285   2.714 -3.6038  0.3467 -0.1891
  925SOL     MW 3700   2.960   0.221   2.671 -0.1449 -0.0978  0.1544
  926SOL     OW 3701   2.657   2.393   2.092  0.0455  0.0949  0.1713
  926SOL    HW1 3702   2.698   2.462   2.144  0.4417  0.8951 -0.4490
  926SOL    HW2 3703   2.676   2.402   1.997 -0.9850 -0.2248  0.1832
  926SOL     MW 3704   2.665   2.403   2.087 -0.0382  0.1583  0.0910
  927SOL     OW 3705   2.362   0.158   0.301 -0.1334 -0.1577  0.4675
  927SOL    HW1 3706   2.456   0.183   0.296 -1.5354 -0.9061  2.3815
  927SOL    HW2 3707   2.344   0.151   0.211  0.7326 -0.9677 -0.5114
  927SOL     MW 3708   2.372   0.160   0.289 -0.2041 -0.3633  0.5909
  928SOL     OW 3709   2.004   2.506   1.788 -0.1280  0.1687 -0.4006
  928SOL    HW1 3710   2.083   2.448   1.783  1.9565 -1.3717 -1.8718
  928SOL    HW2 3711   2.019   2.550   1.871  0.3334 -0.3660  0.2511
  928SOL     MW 3712   2.016   2.504   1.798  0.2079 -0.1051 -0.5087
  929SOL     OW 3713   2.771   2.354   2.437  0.4025  0.2342  0.3233
  929SOL    HW1 3714   2.682   2.349   2.397 -0.9300 -1.4897  0.6481
  929SOL    HW2 3715   2.771   2.295   2.512 -2.3267  1.7923 -2.2857
  929SOL     MW 3716   2.759   2.346   2.442 -0.1334  0.2123  0.0219
  930SOL     OW 3717   2.018   2.892   2.652  0.3505  0.4950  0.4231
  930SOL    HW1 3718   2.018   2.826   2.719  1.8439  2.7873  1.1123
  930SOL    HW2 3719   2.107   2.933   2.647 -1.7613  1.1195  0.0613
  930SOL     MW 3720   2.029   2.889   2.660  0.2689  0.8798  0.4663
  931SOL     OW 3721   2.932   2.836   2.207 -0.1219 -0.0811  0.8862
  931SOL    HW1 3722   3.007   2.796   2.163 -0.1341 -0.0260 -1.3017
  931SOL    HW2 3723   2.862   2.846   2.141  1.1372 -0.2089  1.4565
  931SOL     MW 3724   2.933   2.832   2.192  0.0426 -0.0907  0.6728
  932SOL     OW 3725   2.825   1.921   2.568  0.1523  0.1094  0.3319
  932SOL    HW1 3726   2.915   1.946   2.593  1.3660 -0.1037  1.0711
  932SOL    HW2 3727   2.822   1.907   2.479 -2.1725  0.8218  1.5482
  932SOL     MW 3728   2.837   1.923   2.560  0.0057  0.1753  0.5899
  933SOL     OW 3729   2.052   2.818   2.232 -0.6317  0.3596  0.0561
  933SOL    HW1 3730   2.127   2.844   2.289  0.2797 -1.3930 -2.7686
  933SOL    HW2 3731   1.996   2.892   2.206 -2.1005 -4.2175 -2.2290
  933SOL     MW 3732   2.055   2.831   2.236 -0.7053 -0.4755 -0.6181
  934SOL     OW 3733   2.012   2.685   2.464  0.5602  0.2457 -0.0828
  934SOL    HW1 3734   2.003   2.766   2.507 -0.8725 -0.8424 -2.4118
  934SOL    HW2 3735   2.015   2.717   2.371  0.6116  1.2064 -0.4625
  934SOL     MW 3736   2.011   2.700   2.458  0.3779  0.2289 -0.4402
  935SOL     OW 3737   2.606   1.605   1.798 -0.2616 -0.3493 -0.3093
  935SOL    HW1 3738   2.688   1.568   1.767 -2.4721 -0.4373  1.9910
  935SOL    HW2 3739   2.563   1.617   1.721  1.3467 -2.1973  1.1982
  935SOL     MW 3740   2.611   1.602   1.784 -0.3411 -0.6048  0.1931
  936SOL     OW 3741   2.949   2.242   3.039  0.3056  0.2451 -0.2290
  936SOL    HW1 3742   3.033   2.262   3.076 -1.9864 -1.4976 -0.4247
  936SOL    HW2 3743   2.894   2.322   3.049 -2.5184 -1.9761  0.7740
  936SOL     MW 3744   2.953   2.255   3.045 -0.3694 -0.2779 -0.1225
  937SOL     OW 3745   1.984   2.186   2.639 -0.1452 -0.0681  0.1555
  937SOL    HW1 3746   2.049   2.136   2.696  1.1532  1.7011  0.2300
  937SOL    HW2 3747   2.008   2.178   2.543 -2.3491  0.7374 -1.0740
  937SOL     MW 3748   1.996   2.178   2.634 -0.2647  0.2716  0.0031
  938SOL     OW 3749   2.266   1.850   1.921  0.3566  0.2053 -0.0264
  938SOL    HW1 3750   2.247   1.885   1.834  2.3863 -0.5233 -0.8674
  938SOL    HW2 3751   2.290   1.922   1.977 -0.5715 -2.3249 -2.6960
  938SOL     MW 3752   2.266   1.864   1.916  0.5020 -0.2247 -0.4896
  939SOL     OW 3753   2.802   1.957   2.269  0.2360 -0.9520  0.1932
  939SOL    HW1 3754   2.812   1.888   2.208  0.4319 -0.5618 -0.5432
  939SOL    HW2 3755   2.706   1.975   2.280 -2.2990  0.4952 -1.0266
  939SOL     MW 3756   2.791   1.950   2.262 -0.0726 -0.7096 -0.0649
  940SOL     OW 3757   2.266   0.148   2.684 -0.2634 -0.0290  0.2404
  940SOL    HW1 3758   2.244   0.056   2.671  1.7313  1.8965  0.7840
  940SOL    HW2 3759   2.332   0.144   2.756 -0.9709 -0.2602  0.6808
  940SOL     MW 3760   2.272   0.135   2.692 -0.0936  0.1946  0.3702
  941SOL     OW 3761   0.173   2.369   2.074  0.1313 -0.4418 -0.1266
  941SOL    HW1 3762   0.227   2.297   2.088 -2.3746  1.9006  0.9110
  941SOL    HW2 3763   0.106   2.333   2.011 -0.1963 -2.6051 -0.4528
  941SOL     MW 3764   0.171   2.354   2.068 -0.2425 -0.4181 -0.0327
  942SOL     OW 3765   2.890   2.225   2.167  0.1405  0.2098  0.0336
  942SOL    HW1 3766   2.807   2.272   2.151 -1.0155  1.1522  0.4955
  942SOL    HW2 3767   2.871   2.145   2.225 -1.7099  0.0737 -1.5879
  942SOL     MW 3768   2.877   2.221   2.172 -0.2562  0.3162 -0.1194
  943SOL     OW 3769   0.256   2.003   2.318  0.5298  0.1578  0.2706
  943SOL    HW1 3770   0.206   2.089   2.333 -0.7264  3.2295 -0.6863
  943SOL    HW2 3771   0.339   2.024   2.362  1.9678 -0.0194  0.2329
  943SOL     MW 3772   0.260   2.017   2.326  0.5538  0.5397  0.1394
  944SOL     OW 3773   2.115   2.663   2.006 -0.3498 -0.1667 -0.4145
  944SOL    HW1 3774   2.177   2.625   2.068 -0.7357  1.5330  0.9808
  944SOL    HW2 3775   2.083   2.731   2.066  1.5367 -1.4802 -1.6484
  944SOL     MW 3776   2.119   2.667   2.022 -0.1518 -0.1157 -0.3932
  945SOL     OW 3777   2.763   2.683   2.897 -0.0571  0.1744 -0.4755
  945SOL    HW1 3778   2.719   2.594   2.892  1.7852 -0.2893 -2.4835
  945SOL    HW2 3779   2.819   2.675   2.817 -0.1534  2.8576  0.0476
  945SOL     MW 3780   2.764   2.670   2.886  0.1733  0.4672 -0.6714
  946SOL     OW 3781   2.540   2.742   2.291 -0.6741  0.7708  0.0615
  946SOL    HW1 3782   2.552   2.770   2.197 -0.4172 -1.8577 -0.5829
  946SOL    HW2 3783   2.477   2.673   2.271 -1.3618 -3.4334  1.1127
  946SOL     MW 3784   2.533   2.737   2.276 -0.7309 -0.1307  0.1151
  947SOL     OW 3785   2.049   0.035   0.352 -0.0197 -0.3051 -0.5740
  947SOL    HW1 3786   2.064  -0.030   0.287 -1.5084 -1.9882 -2.2880
  947SOL    HW2 3787   2.112   0.017   0.428  2.8337 -1.8467  3.8252
  947SOL     MW 3788   2.060   0.024   0.354  0.1604 -0.7306 -0.2197
  948SOL     OW 3789   1.831   3.095   2.616 -0.1474  0.1201 -1.0696
  948SOL    HW1 3790   1.902   3.030   2.628 -1.3385 -1.4893 -2.0590
  948SOL    HW2 3791   1.830   3.125   2.525 -1.9228 -3.2998 -1.7088
  948SOL     MW 3792   1.840   3.091   2.605 -0.5388 -0.5434 -1.2845
  949SOL     OW 3793   2.538   2.009   2.316 -0.2461 -0.7005  0.1519
  949SOL    HW1 3794   2.541   1.911   2.341  0.3416  0.2087 -0.7511
  949SOL    HW2 3795   2.486   2.059   2.379  0.2005  0.6098  1.5414
  949SOL     MW 3796   2.532   2.003   2.328 -0.1097 -0.4076  0.2161
  950SOL     OW 3797   2.193   2.632   3.041 -0.7261  0.0600 -0.2839
  950SOL    HW1 3798   2.250   2.558   3.030 -1.3396 -1.2861 -0.2995
  950SOL    HW2 3799   2.130   2.632   2.967 -0.9407 -1.5239  1.6965
  950SOL     MW 3800   2.192   2.622   3.030 -0.8354 -0.3266 -0.0246
  951SOL     OW 3801   2.899   2.056   2.858  0.4514  0.2819 -0.6355
  951SOL    HW1 3802   2.922   2.123   2.918 -0.2234  0.0642 -2.1696
  951SOL    HW2 3803   2.970   2.036   2.790  0.8623  0.8270  1.7668
  951SOL     MW 3804   2.911   2.062   2.857  0.4166  0.3251 -0.5209
  952SOL     OW 3805   3.092   1.633   2.088 -0.3931  0.0699 -0.1866
  952SOL    HW1 3806   3.011   1.671   2.063  1.2120  1.3865 -1.4820
  952SOL    HW2 3807   3.144   1.716   2.104  0.0697 -1.1650 -1.6545
  952SOL     MW 3808   3.088   1.649   2.087 -0.1203  0.0807 -0.5512
  953SOL     OW 3809   1.961   1.825   2.849  0.7309  0.4562  0.8817
  953SOL    HW1 3810   1.871   1.797   2.878 -0.0397 -0.9512 -0.0370
  953SOL    HW2 3811   2.006   1.766   2.785 -0.7063  0.2651  0.9384
  953SOL     MW 3812   1.955   1.814   2.845  0.4396  0.2453  0.7680
  954SOL     OW 3813   2.424   2.077   2.923  0.5133  0.6925  0.2189
  954SOL    HW1 3814   2.335   2.084   2.886 -2.2391 -0.2281  0.1016
  954SOL    HW2 3815   2.476   2.037   2.845  2.2790  1.3979  2.3775
  954SOL     MW 3816   2.419   2.073   2.908  0.3831  0.6641  0.4882
  955SOL     OW 3817   1.574   1.641   2.606 -0.1320  0.0187  0.0840
  955SOL    HW1 3818   1.538   1.637   2.521 -0.8451  1.8089  0.4994
  955SOL    HW2 3819   1.667   1.672   2.590  3.1079  2.3299 -1.1338
  955SOL     MW 3820   1.582   1.645   2.593  0.2014  0.5599 -0.0219
  956SOL     OW 3821   2.619   2.414   2.867 -0.1390 -0.1463  0.4335
  956SOL    HW1 3822   2.639   2.387   2.962 -1.1158  0.7105 -1.3848
  956SOL    HW2 3823   2.678   2.360   2.807  1.2066  0.2744  0.3776
  956SOL     MW 3824   2.629   2.403   2.872 -0.0904  0.0222  0.1862
  957SOL     OW 3825   2.303   2.802   0.415 -0.1170 -0.3464  0.1361
  957SOL    HW1 3826   2.255   2.832   0.335 -1.9415  0.3571 -1.8828
  957SOL    HW2 3827   2.241   2.774   0.488  3.4522 -0.0978 -0.9370
  957SOL     MW 3828   2.289   2.802   0.414  0.1132 -0.2208 -0.2719
  958SOL     OW 3829   2.007   2.690   2.851 -0.5322 -0.2990 -0.0047
  958SOL    HW1 3830   1.980   2.611   2.798  1.0241 -2.1855  0.1919
  958SOL    HW2 3831   1.932   2.713   2.899  1.0276 -0.3824 -1.5426
  958SOL     MW 3832   1.993   2.683   2.851 -0.1210 -0.5589 -0.1817
  959SOL     OW 3833   2.426   2.561   0.337  0.8177 -0.1943 -0.2987
  959SOL    HW1 3834   2.490   2.587   0.268 -0.8116  2.7579  0.5051
  959SOL    HW2 3835   2.387   2.641   0.371  3.1326  0.1975  2.0286
  959SOL     MW 3836   2.429   2.575   0.332  0.9081  0.2469  0.1144
  960SOL     OW 3837   1.948   2.420   2.305 -0.2654 -0.3807  0.1847
  960SOL    HW1 3838   1.968   2.326   2.307 -1.2040  1.7075 -3.5789
  960SOL    HW2 3839   1.897   2.440   2.380 -0.2680 -2.5674  0.0969
  960SOL     MW 3840   1.944   2.410   2.315 -0.3896 -0.3937 -0.3235
  961SOL     OW 3841   2.239   2.398   2.331 -0.2585 -0.0377  0.2482
  961SOL    HW1 3842   2.151   2.404   2.294  2.4360  3.7543  1.7600
  961SOL    HW2 3843   2.238   2.465   2.395  0.5807 -3.9803  0.4261
  961SOL     MW 3844   2.228   2.407   2.334  0.2077 -0.0576  0.4712
  962SOL     OW 3845   2.165   2.068   2.791 -0.1037 -0.0979  0.6195
  962SOL    HW1 3846   2.143   2.001   2.859 -0.7706 -1.0588  0.4756
  962SOL    HW2 3847   2.202   2.008   2.722  0.5159 -1.2329 -2.9185
  962SOL     MW 3848   2.167   2.051   2.791 -0.1100 -0.3745  0.1337
  963SOL     OW 3849   1.755   2.553   2.142  0.5632  0.4396 -0.4783
  963SOL    HW1 3850   1.823   2.510   2.191 -2.4118  1.0821 -3.6500
  963SOL    HW2 3851   1.749   2.488   2.071 -1.2653  2.3036  1.3400
  963SOL     MW 3852   1.763   2.539   2.139 -0.0706  0.7703 -0.6568
  964SOL     OW 3853   1.805   1.979   2.653 -0.2617 -0.4851  0.7150
  964SOL    HW1 3854   1.872   2.056   2.649  3.7647 -1.5428  0.4651
  964SOL    HW2 3855   1.853   1.927   2.722  1.2159  0.7579  0.5480
  964SOL     MW 3856   1.820   1.982   2.662  0.4645 -0.4606  0.6600
  965SOL     OW 3857   2.195   2.705   0.635  0.3633 -0.0715  0.3227
  965SOL    HW1 3858   2.182   2.611   0.659  0.8297 -0.7827 -0.9206
  965SOL    HW2 3859   2.249   2.742   0.712  0.0552  1.0426  1.5642
  965SOL     MW 3860   2.201   2.698   0.648  0.3842 -0.0183  0.3224
  966SOL     OW 3861   2.706   2.630   2.487 -0.1811  0.2729 -0.6015
  966SOL    HW1 3862   2.654   2.664   2.411 -1.2413  1.6785 -0.3775
  966SOL    HW2 3863   2.742   2.543   2.466 -0.1923  0.9672 -0.0988
  966SOL     MW 3864   2.704   2.623   2.474 -0.3224  0.5500 -0.5056
  967SOL     OW 3865   2.896   3.008   2.913 -0.1922 -0.5266  0.5757
  967SOL    HW1 3866   2.882   2.949   2.985  0.9195 -0.8597 -1.2115
  967SOL    HW2 3867   2.817   3.061   2.882 -0.5354  0.5607  2.3559
  967SOL     MW 3868   2.884   3.007   2.919 -0.0908 -0.4271  0.5748
  968SOL     OW 3869   3.019   2.540   3.025 -0.3328  0.2091 -0.3505
  968SOL    HW1 3870   2.962   2.606   2.992  4.2581 -2.4046  1.3143
  968SOL    HW2 3871   3.060   2.500   2.951  2.5713  0.8214  1.4254
  968SOL     MW 3872   3.017   2.543   3.011  0.6561 -0.0550  0.1035
  969SOL     OW 3873   1.546   2.095   1.724  0.7395 -0.2422  0.5915
  969SOL    HW1 3874   1.616   2.025   1.732 -2.1460  0.9703 -1.4375
  969SOL    HW2 3875   1.498   2.105   1.809 -1.3573  1.7960  1.1105
  969SOL     MW 3876   1.549   2.087   1.737  0.0821  0.1867  0.3922
  970SOL     OW 3877   1.671   1.711   1.852 -0.1744 -0.2597  0.3002
  970SOL    HW1 3878   1.736   1.665   1.908 -0.1917  0.1572  1.0614
  970SOL    HW2 3879   1.587   1.702   1.891 -1.0751 -2.0758 -0.5042
  970SOL     MW 3880   1.668   1.704   1.865 -0.2955 -0.4443  0.2945
  971SOL     OW 3881   1.855   0.100   2.373 -0.2138 -0.5846 -0.2333
  971SOL    HW1 3882   1.897   0.061   2.298  0.8302  2.5061  1.7098
  971SOL    HW2 3883   1.910   0.178   2.408  2.9909  0.2742  1.0443
  971SOL     MW 3884   1.868   0.105   2.368  0.3468 -0.0635  0.1916
  972SOL     OW 3885   0.279   2.803   2.542  0.4068 -0.0477 -0.2756
  972SOL    HW1 3886   0.332   2.723   2.560 -0.0227 -3.4771  1.1923
  972SOL    HW2 3887   0.337   2.872   2.567  0.0565 -0.4896  2.0290
  972SOL     MW 3888   0.293   2.802   2.548  0.3039 -0.5585  0.2221
  973SOL     OW 3889   2.608   3.099   2.050 -0.3049  0.2950 -0.2163
  973SOL    HW1 3890   2.565   3.012   2.045  0.6822  2.2978  1.2227
  973SOL    HW2 3891   2.615   3.126   1.960 -0.4994 -0.5019 -0.4171
  973SOL     MW 3892   2.603   3.091   2.037 -0.2003  0.4541 -0.0529
  974SOL     OW 3893   2.083   0.343   2.736  0.4716 -0.1085  0.2553
  974SOL    HW1 3894   2.164   0.293   2.735  0.6507 -0.5414 -0.5806
  974SOL    HW2 3895   2.035   0.278   2.795  2.7626  1.2761 -0.0593
  974SOL     MW 3896   2.087   0.328   2.744  0.7975  0.0170  0.1035
  975SOL     OW 3897   2.269   2.591   2.549 -0.1459 -0.3142  0.0827
  975SOL    HW1 3898   2.352   2.605   2.589 -1.3203 -0.2716 -1.0225
  975SOL    HW2 3899   2.234   2.678   2.536 -2.1908 -1.3870 -2.0614
  975SOL     MW 3900   2.275   2.605   2.552 -0.5706 -0.4501 -0.3460
  976SOL     OW 3901   0.227   0.264   1.726 -0.3561 -0.0421 -0.5986
  976SOL    HW1 3902   0.284   0.197   1.753 -0.7718  2.2755 -0.7908
  976SOL    HW2 3903   0.135   0.222   1.718 -1.6685  1.0887 -0.8886
  976SOL     MW 3904   0.222   0.249   1.728 -0.5841  0.4129 -0.6622
  977SOL     OW 3905   1.670   2.767   2.455  0.1318 -0.0446 -0.1404
  977SOL    HW1 3906   1.671   2.668   2.470 -0.7891  0.1479  2.0615
  977SOL    HW2 3907   1.756   2.805   2.459 -0.0659 -0.6611  2.1258
  977SOL     MW 3908   1.681   2.759   2.457 -0.0158 -0.1005  0.4491
   3.10000   3.10000   3.10000
