977 TIP4P/2005f water molecules t=   0.68000 step= 680
 3908
    1SOL     OW    1   0.189   0.849   3.085  0.6441  0.6549 -0.8193
    1SOL    HW1    2   0.186   0.853   2.993 -0.3492 -0.7617 -2.1753
    1SOL    HW2    3   0.172   0.763   3.125  0.2764  1.2526  1.6275
    1SOL     MW    4   0.186   0.838   3.078  0.4646  0.5469 -0.6754
    2SOL     OW    5   0.224   2.995   1.184  0.3480 -0.6024 -0.7259
    2SOL    HW1    6   0.302   3.046   1.169 -0.2019  2.1698  0.6953
    2SOL    HW2    7   0.151   3.058   1.184 -0.5077 -0.5103  2.8464
    2SOL     MW    8   0.225   3.010   1.182  0.1626 -0.2245 -0.0671
    3SOL     OW    9   2.667   0.397   0.927 -0.7405 -0.3871  0.0601
    3SOL    HW1   10   2.709   0.474   0.882  1.7462  1.2420 -2.3747
    3SOL    HW2   11   2.625   0.433   1.005  2.0674 -1.1335 -0.9200
    3SOL     MW   12   2.667   0.412   0.931 -0.0419 -0.2707 -0.3904
    4SOL     OW   13   3.046   1.705   0.600  0.4206 -0.1034 -0.1190
    4SOL    HW1   14   2.965   1.735   0.554  3.1483 -1.6476 -0.0820
    4SOL    HW2   15   3.099   1.674   0.528  0.8249  0.5169 -0.6561
    4SOL     MW   16   3.042   1.705   0.584  0.8339 -0.2253 -0.1850
    5SOL     OW   17   1.718   1.495   0.519  0.3510  0.1672 -0.3896
    5SOL    HW1   18   1.766   1.462   0.598 -3.9522  2.1990  0.6182
    5SOL    HW2   19   1.626   1.461   0.523 -1.9575 -2.0858 -2.8957
    5SOL     MW   20   1.712   1.486   0.530 -0.5213  0.1380 -0.5873
    6SOL     OW   21   0.856   1.389   0.659  0.0098  0.3862 -0.3617
    6SOL    HW1   22   0.765   1.388   0.685  0.1415 -1.2929 -1.5927
    6SOL    HW2   23   0.898   1.326   0.718 -1.0895  0.4597 -1.6009
    6SOL     MW   24   0.850   1.380   0.670 -0.1178  0.1743 -0.6876
    7SOL     OW   25   1.995   1.126   0.010  0.1229  0.2716  0.1598
    7SOL    HW1   26   1.998   1.194  -0.058 -1.7161  2.5788 -0.6104
    7SOL    HW2   27   2.062   1.152   0.076 -0.2154 -0.9330  2.2274
    7SOL     MW   28   2.005   1.139   0.010 -0.1644  0.4171  0.3310
    8SOL     OW   29   0.950   1.336   1.022 -0.1123 -0.0069 -0.0738
    8SOL    HW1   30   1.040   1.327   1.010 -0.3941 -0.1861  2.4686
    8SOL    HW2   31   0.919   1.259   1.072 -0.8774  2.9383  0.0237
    8SOL     MW   32   0.958   1.324   1.027 -0.2504  0.3581  0.2745
    9SOL     OW   33   1.050   0.457   1.352 -0.2645  0.0927  0.0923
    9SOL    HW1   34   0.974   0.394   1.338 -1.9173  0.5473  0.0809
    9SOL    HW2   35   1.110   0.419   1.416  1.9981  0.7766  1.3005
    9SOL     MW   36   1.048   0.443   1.358 -0.1840  0.2429  0.2502
   10SOL     OW   37   0.272   0.808   0.435  0.5350 -0.0099  0.2689
   10SOL    HW1   38   0.360   0.794   0.398 -3.7913  2.5440  1.9005
   10SOL    HW2   39   0.283   0.840   0.526  1.0251 -3.0156  1.9308
   10SOL     MW   40   0.285   0.810   0.442  0.0289 -0.0695  0.7034
   11SOL     OW   41   0.775   1.170   1.688 -0.2264  0.5535 -0.5664
   11SOL    HW1   42   0.831   1.159   1.763 -3.2478  4.2313  1.3124
   11SOL    HW2   43   0.779   1.083   1.630 -1.4291  1.3989  0.0543
   11SOL     MW   44   0.783   1.157   1.690 -0.7838  1.1503 -0.2366
   12SOL     OW   45   3.085   1.069   0.883 -0.1010 -0.2622 -0.2047
   12SOL    HW1   46   3.141   1.139   0.915  2.7257  0.6869 -1.7460
   12SOL    HW2   47   3.034   1.113   0.810 -0.5810  1.1975  0.4786
   12SOL     MW   48   3.086   1.084   0.877  0.2086  0.0556 -0.3179
   13SOL     OW   49   1.852   1.413   1.334  0.2579  0.0248  0.2962
   13SOL    HW1   50   1.900   1.380   1.253 -0.8297 -1.6973  1.7762
   13SOL    HW2   51   1.865   1.508   1.330  0.8537 -1.5682 -1.0203
   13SOL     MW   52   1.860   1.421   1.323  0.1930 -0.4126  0.3177
   14SOL     OW   53   0.607   0.378   1.808  0.0794  0.2107  0.5391
   14SOL    HW1   54   0.532   0.321   1.829 -1.0674  1.3576  1.1940
   14SOL    HW2   55   0.678   0.338   1.860 -0.1596 -1.7330  0.8037
   14SOL     MW   56   0.607   0.365   1.818 -0.1035  0.1056  0.6604
   15SOL     OW   57   1.953   0.481   0.950  0.5640 -0.4462 -0.2496
   15SOL    HW1   58   1.954   0.527   1.035 -1.0265 -0.1413 -0.1691
   15SOL    HW2   59   2.037   0.451   0.915  2.3691  0.8872  0.7055
   15SOL     MW   60   1.964   0.483   0.956  0.5923 -0.2300 -0.1129
   16SOL     OW   61   0.246   1.842   0.341 -0.4426  0.1791 -0.3100
   16SOL    HW1   62   0.334   1.799   0.333  1.4808  0.9701  0.1767
   16SOL    HW2   63   0.265   1.912   0.407  1.5418 -0.2795  3.8073
   16SOL     MW   64   0.260   1.846   0.348  0.0730  0.2230  0.2975
   17SOL     OW   65   1.038   0.903   1.516  0.2935  0.4620  0.2642
   17SOL    HW1   66   1.092   0.864   1.583  0.1299 -0.3885 -0.8854
   17SOL    HW2   67   0.954   0.886   1.549 -0.2015  0.8863  0.6747
   17SOL     MW   68   1.034   0.896   1.530  0.2066  0.4058  0.1667
   18SOL     OW   69   0.104   1.616   0.385 -0.0724  0.0015  0.4017
   18SOL    HW1   70   0.148   1.703   0.383 -2.1992  0.0501 -0.2139
   18SOL    HW2   71   0.101   1.591   0.295 -0.4324 -0.2274 -0.5624
   18SOL     MW   72   0.109   1.624   0.373 -0.4005 -0.0223  0.1933
   19SOL     OW   73   0.103   1.308   0.978  0.6887  0.2497  0.1111
   19SOL    HW1   74   0.134   1.348   0.895 -1.3915 -2.3287  1.5915
   19SOL    HW2   75   0.022   1.351   0.999 -1.8876 -2.2735 -1.2569
   19SOL     MW   76   0.096   1.319   0.969  0.0744 -0.4234  0.1259
   20SOL     OW   77   0.408   2.135   1.209  0.1903 -0.0677 -0.2790
   20SOL    HW1   78   0.345   2.081   1.160 -1.2770 -0.2731 -0.2650
   20SOL    HW2   79   0.365   2.165   1.284  1.2413 -0.2677 -1.3408
   20SOL     MW   80   0.394   2.132   1.212  0.1354 -0.1212 -0.4172
   21SOL     OW   81   0.531   0.807   0.356  0.0059  0.2347 -0.1990
   21SOL    HW1   82   0.606   0.818   0.418 -0.4810  0.5278  0.7296
   21SOL    HW2   83   0.560   0.783   0.267  0.4898 -2.7584  2.5691
   21SOL     MW   84   0.545   0.806   0.352  0.0055 -0.1216  0.2887
   22SOL     OW   85   1.482   0.595   1.125 -0.8343  0.7575 -0.1358
   22SOL    HW1   86   1.482   0.546   1.044 -1.1374  2.9047  2.2255
   22SOL    HW2   87   1.410   0.657   1.118 -0.6811  0.7923 -0.9822
   22SOL     MW   88   1.472   0.596   1.114 -0.8541  1.0454  0.0640
   23SOL     OW   89   0.009   0.775   0.650  0.2243 -0.1341 -0.1246
   23SOL    HW1   90   0.048   0.728   0.726 -1.1228  1.6476  0.7405
   23SOL    HW2   91   0.069   0.843   0.631  0.0366  2.0710 -1.3419
   23SOL     MW   92   0.022   0.778   0.658  0.0218  0.3919 -0.1711
   24SOL     OW   93   2.014   2.223   0.102 -0.4678 -0.1252 -0.3290
   24SOL    HW1   94   2.039   2.190   0.188  1.7420  0.6956 -0.8625
   24SOL    HW2   95   2.053   2.164   0.036  0.0147 -1.8455  3.4818
   24SOL     MW   96   2.023   2.211   0.104 -0.1126 -0.2439  0.1034
   25SOL     OW   97   0.197   1.364   0.533  0.1383  0.6279 -0.2690
   25SOL    HW1   98   0.146   1.424   0.480  1.5690  0.7418 -1.4948
   25SOL    HW2   99   0.287   1.350   0.492 -2.3768 -1.8839  0.0162
   25SOL     MW  100   0.202   1.370   0.521 -0.0048  0.3115 -0.3931
   26SOL     OW  101   1.999   0.965   0.398 -0.1081  0.7958 -0.4474
   26SOL    HW1  102   1.919   0.993   0.458 -0.9764 -0.0042 -0.9943
   26SOL    HW2  103   2.034   1.047   0.353  0.7629  0.4108 -2.2979
   26SOL     MW  104   1.993   0.980   0.400 -0.1078  0.6395 -0.7637
   27SOL     OW  105   2.053   1.410   0.208  0.2458  0.2869 -0.2665
   27SOL    HW1  106   1.968   1.383   0.246 -0.3692 -0.2471  0.6364
   27SOL    HW2  107   2.093   1.466   0.278  2.0382 -0.2268 -0.2457
   27SOL     MW  108   2.047   1.414   0.222  0.4012  0.1486 -0.1446
   28SOL     OW  109   0.392   1.074   2.014  0.0414  0.1886  0.4541
   28SOL    HW1  110   0.441   0.995   2.019 -1.6124 -2.2623 -0.6642
   28SOL    HW2  111   0.308   1.056   2.056  0.3481 -2.3101  1.9065
   28SOL     MW  112   0.388   1.061   2.020 -0.1363 -0.4645  0.4982
   29SOL     OW  113   0.211   1.464   0.790 -0.0187  0.3265 -0.7734
   29SOL    HW1  114   0.222   1.559   0.779 -2.6226 -0.0412 -2.1305
   29SOL    HW2  115   0.199   1.425   0.703 -0.0348 -0.1583 -2.3792
   29SOL     MW  116   0.211   1.472   0.777 -0.3644  0.2141 -1.1643
   30SOL     OW  117   0.814   1.187   1.210 -0.3838  0.4065  0.0331
   30SOL    HW1  118   0.745   1.221   1.267 -0.3319  1.6354 -1.0981
   30SOL    HW2  119   0.895   1.182   1.268  0.1685 -0.9262 -1.8852
   30SOL     MW  120   0.816   1.191   1.226 -0.3041  0.3928 -0.3692
   31SOL     OW  121   0.412   0.179   0.172  0.8150 -0.1834  0.6078
   31SOL    HW1  122   0.411   0.137   0.258  0.5009  2.6709  0.2514
   31SOL    HW2  123   0.412   0.110   0.106  0.1176  0.4471  0.1619
   31SOL     MW  124   0.412   0.164   0.174  0.6815  0.2764  0.5020
   32SOL     OW  125   2.790   1.000   1.132  0.1669  0.0730  0.1382
   32SOL    HW1  126   2.722   0.937   1.097  0.2421 -1.9061  0.8833
   32SOL    HW2  127   2.875   0.973   1.093 -2.2596 -0.9589 -0.7934
   32SOL     MW  128   2.792   0.988   1.123 -0.1433 -0.3243  0.1136
   33SOL     OW  129   1.839   1.316   0.357 -0.1084 -0.2086  0.1304
   33SOL    HW1  130   1.820   1.239   0.408  0.0333 -0.1675 -1.1212
   33SOL    HW2  131   1.796   1.380   0.418 -1.1358 -1.8691  0.7645
   33SOL     MW  132   1.831   1.314   0.372 -0.2252 -0.4223  0.0489
   34SOL     OW  133   1.243   1.871   1.084 -0.2339  0.1056 -0.2480
   34SOL    HW1  134   1.159   1.910   1.107  2.2574 -0.3091 -0.8340
   34SOL    HW2  135   1.299   1.885   1.166  1.4133 -0.0051  1.6646
   34SOL     MW  136   1.239   1.878   1.098  0.3122  0.0362 -0.0730
   35SOL     OW  137   0.397   0.163   1.857  0.7856  0.1021  0.0290
   35SOL    HW1  138   0.397   0.125   1.943 -0.2554 -1.7210 -0.2037
   35SOL    HW2  139   0.402   0.086   1.800  3.5123  1.3389  2.1432
   35SOL     MW  140   0.398   0.148   1.861  1.0080  0.0248  0.2773
   36SOL     OW  141   1.842   1.939   0.495  0.4556  0.0294 -0.2661
   36SOL    HW1  142   1.860   1.938   0.405 -1.0576  0.7737  0.3839
   36SOL    HW2  143   1.875   1.855   0.532  0.0143  1.1416 -0.8875
   36SOL     MW  144   1.849   1.928   0.488  0.1977  0.2743 -0.2623
   37SOL     OW  145   1.761   1.982   1.040 -0.3182  0.4855 -0.6739
   37SOL    HW1  146   1.711   1.939   0.967  1.2728 -2.2853 -0.9138
   37SOL    HW2  147   1.696   2.043   1.069 -1.1352 -1.2728 -2.8138
   37SOL     MW  148   1.746   1.984   1.034 -0.2161 -0.1121 -0.9879
   38SOL     OW  149   2.807   0.895   0.159 -0.6198 -0.0781 -0.1926
   38SOL    HW1  150   2.847   0.900   0.250 -0.0537 -2.3024 -0.5951
   38SOL    HW2  151   2.873   0.859   0.103  0.2049  0.6521 -0.8814
   38SOL     MW  152   2.821   0.891   0.163 -0.4363 -0.2752 -0.3366
   39SOL     OW  153   1.409   0.644   0.777  0.2950 -0.2952 -0.1102
   39SOL    HW1  154   1.396   0.545   0.775 -4.1799  0.9866 -0.8843
   39SOL    HW2  155   1.319   0.674   0.772  2.8883  1.4119  0.7046
   39SOL     MW  156   1.395   0.635   0.776  0.0468  0.0991 -0.1048
   40SOL     OW  157   1.190   1.914   0.223 -0.5641 -0.0994  0.1752
   40SOL    HW1  158   1.219   1.838   0.275 -0.5292 -1.9273  0.6130
   40SOL    HW2  159   1.153   1.979   0.287 -1.1054 -0.3425  0.2742
   40SOL     MW  160   1.189   1.912   0.238 -0.6309 -0.3726  0.2460
   41SOL     OW  161   0.620   0.498   1.565 -0.3876  0.8230 -0.1013
   41SOL    HW1  162   0.711   0.534   1.560 -0.3041  1.4242 -0.7803
   41SOL    HW2  163   0.613   0.457   1.657 -0.4876  1.6824 -1.3969
   41SOL     MW  164   0.631   0.498   1.576 -0.3898  1.0157 -0.3618
   42SOL     OW  165   1.240   3.009   2.009 -0.4715  0.5428 -0.5274
   42SOL    HW1  166   1.149   2.986   2.029 -1.1765 -1.4162 -1.3915
   42SOL    HW2  167   1.284   2.929   1.993  0.7358  1.0579 -1.6049
   42SOL     MW  168   1.234   2.995   2.010 -0.4052  0.3523 -0.7836
   43SOL     OW  169   1.554   0.127   1.757 -0.1758 -0.1605 -0.5429
   43SOL    HW1  170   1.607   0.092   1.684  0.4231  1.2405 -0.8795
   43SOL    HW2  171   1.463   0.088   1.752 -0.7621  3.6550  1.2639
   43SOL     MW  172   1.549   0.117   1.747 -0.1742  0.5278 -0.3489
   44SOL     OW  173   1.259   0.756   1.084 -0.2903 -0.1292 -0.5377
   44SOL    HW1  174   1.228   0.834   1.037  1.5619 -2.5852 -2.4278
   44SOL    HW2  175   1.214   0.760   1.172 -3.2087 -0.2099 -1.2866
   44SOL     MW  176   1.249   0.767   1.090 -0.4310 -0.4639 -0.8859
   45SOL     OW  177   1.152   0.716   0.737  0.6341  0.5683 -0.5254
   45SOL    HW1  178   1.120   0.671   0.812  1.4759  3.3895 -0.1604
   45SOL    HW2  179   1.125   0.671   0.654  0.5025  0.1982 -1.3547
   45SOL     MW  180   1.144   0.704   0.736  0.7278  0.8917 -0.5867
   46SOL     OW  181   0.552   1.169   0.561 -0.1477 -0.7486  0.2616
   46SOL    HW1  182   0.521   1.146   0.478 -1.5721 -0.9706  0.0630
   46SOL    HW2  183   0.646   1.165   0.552 -3.2077 -0.4768  1.0608
   46SOL     MW  184   0.561   1.166   0.549 -0.7394 -0.7421  0.3408
   47SOL     OW  185   0.164   1.919   1.781  0.0336  0.1954  0.0882
   47SOL    HW1  186   0.228   1.854   1.754 -2.2375  1.4547  2.7365
   47SOL    HW2  187   0.145   1.900   1.877  1.3735 -0.4944 -0.5162
   47SOL     MW  188   0.170   1.908   1.790 -0.0892  0.2705  0.3579
   48SOL     OW  189   1.083   0.562   0.958  0.4462 -0.7760 -0.0789
   48SOL    HW1  190   1.001   0.534   0.996  3.1833  1.4186  0.1893
   48SOL    HW2  191   1.109   0.636   1.013  1.5363 -0.3709 -0.7564
   48SOL     MW  192   1.075   0.568   0.970  0.9512 -0.4330 -0.1329
   49SOL     OW  193   1.818   0.745   1.586  0.3138 -0.1853  0.2595
   49SOL    HW1  194   1.777   0.716   1.670  0.1890 -0.5861 -2.6618
   49SOL    HW2  195   1.866   0.661   1.563  1.6253 -0.2964 -1.4316
   49SOL     MW  196   1.819   0.730   1.594  0.4704 -0.2528 -0.3491
   50SOL     OW  197   1.180   1.072   0.525  0.3929  0.3125  0.1235
   50SOL    HW1  198   1.172   1.128   0.602  0.7197  1.1380 -2.9884
   50SOL    HW2  199   1.237   1.006   0.558  0.0089  1.6392  0.9079
   50SOL     MW  200   1.187   1.071   0.539  0.3853  0.5965 -0.1836
   51SOL     OW  201   0.307   2.888   0.939 -0.4996  0.1250  0.1035
   51SOL    HW1  202   0.401   2.883   0.961  1.7145 -1.0784  1.5856
   51SOL    HW2  203   0.262   2.916   1.018  0.5791  2.0113  2.9402
   51SOL     MW  204   0.313   2.891   0.952 -0.0652  0.2151  0.6733
   52SOL     OW  205   0.804   1.830   0.456  0.8107  0.3086 -0.1140
   52SOL    HW1  206   0.758   1.911   0.463  0.4919 -1.4893 -1.7663
   52SOL    HW2  207   0.803   1.811   0.360 -1.0597  2.1801 -0.0765
   52SOL     MW  208   0.798   1.839   0.444  0.5218  0.3183 -0.3270
   53SOL     OW  209   0.457   2.151   0.654 -0.4290  0.2175 -0.2145
   53SOL    HW1  210   0.399   2.120   0.585  2.1608 -2.0646 -2.4489
   53SOL    HW2  211   0.477   2.242   0.616 -1.9521 -0.6185 -0.4321
   53SOL     MW  212   0.452   2.159   0.640 -0.2883 -0.1939 -0.5380
   54SOL     OW  213   2.132   0.874   0.868 -1.0021  0.0550 -0.2981
   54SOL    HW1  214   2.176   0.855   0.787 -1.4086  1.2135  0.1502
   54SOL    HW2  215   2.046   0.827   0.860 -1.0262 -1.8752  1.8920
   54SOL     MW  216   2.127   0.866   0.856 -1.0589 -0.0468  0.0500
   55SOL     OW  217   0.589   1.527   1.632 -0.4336 -0.1307  0.6509
   55SOL    HW1  218   0.533   1.542   1.558 -0.6534 -0.5714 -0.1292
   55SOL    HW2  219   0.646   1.464   1.591 -1.6783 -2.7044 -0.1470
   55SOL     MW  220   0.589   1.520   1.617 -0.6268 -0.5284  0.4427
   56SOL     OW  221   0.540   0.778   0.068  0.4207 -0.4168 -0.6129
   56SOL    HW1  222   0.552   0.872   0.050  1.0616  1.0096  1.1082
   56SOL    HW2  223   0.450   0.767   0.030 -0.5778  0.6704  1.8575
   56SOL     MW  224   0.529   0.789   0.061  0.3736 -0.0852 -0.0598
   57SOL     OW  225   1.219   1.218   1.116 -0.3031  0.2940 -0.5659
   57SOL    HW1  226   1.306   1.258   1.083  0.1965 -0.7771 -0.9709
   57SOL    HW2  227   1.242   1.200   1.212 -2.1680 -0.9726  3.3670
   57SOL     MW  228   1.233   1.221   1.125 -0.4832 -0.0145 -0.1004
   58SOL     OW  229   0.532   1.175   1.300 -0.0432 -0.2756 -0.0126
   58SOL    HW1  230   0.512   1.264   1.258  0.4742  1.0724 -1.4055
   58SOL    HW2  231   0.541   1.197   1.396 -2.8535 -0.4539 -1.3393
   58SOL     MW  232   0.531   1.190   1.307 -0.3457 -0.1213 -0.3714
   59SOL     OW  233   1.537   1.686   0.327  0.3469  0.0404  0.0672
   59SOL    HW1  234   1.580   1.666   0.411 -1.2015 -0.0149 -1.7763
   59SOL    HW2  235   1.458   1.737   0.356 -0.5893  0.4487  0.1324
   59SOL     MW  236   1.532   1.690   0.342  0.0191  0.0870 -0.1674
   60SOL     OW  237   0.076   0.161   1.643  0.2095  0.6411 -1.2684
   60SOL    HW1  238  -0.015   0.181   1.638 -1.0885  0.3111  1.0842
   60SOL    HW2  239   0.093   0.099   1.715  4.1664 -1.3571 -3.0161
   60SOL     MW  240   0.066   0.156   1.652  0.5603  0.3339 -1.1886
   61SOL     OW  241   2.059   1.461   3.042 -0.4357  0.2387  0.2391
   61SOL    HW1  242   2.049   1.448   3.140  0.3932  3.0456  0.3269
   61SOL    HW2  243   2.119   1.394   3.007  0.8209 -0.9089  4.5071
   61SOL     MW  244   2.066   1.451   3.050 -0.1605  0.4576  0.8138
   62SOL     OW  245   0.602   1.716   0.631 -0.8720  0.0338  0.6102
   62SOL    HW1  246   0.672   1.727   0.573  0.6562 -0.1265 -0.8353
   62SOL    HW2  247   0.599   1.619   0.650 -1.0411 -0.3577 -0.0612
   62SOL     MW  248   0.611   1.705   0.626 -0.6927 -0.0390  0.3309
   63SOL     OW  249   1.670   0.705   0.737  0.0492 -0.4234  0.2741
   63SOL    HW1  250   1.666   0.772   0.666  0.4018 -0.1166 -0.7930
   63SOL    HW2  251   1.581   0.681   0.760 -0.6886 -1.1434 -2.1988
   63SOL     MW  252   1.658   0.711   0.731 -0.0016 -0.4779 -0.1930
   64SOL     OW  253   0.269   1.715   0.740 -0.2142 -0.0534  0.2389
   64SOL    HW1  254   0.347   1.773   0.753 -3.1079  1.0158  2.6753
   64SOL    HW2  255   0.197   1.765   0.712 -1.9962  1.7102 -1.0099
   64SOL     MW  256   0.270   1.730   0.738 -0.8311  0.3204  0.3956
   65SOL     OW  257   1.544   2.354   0.402 -0.0762  0.0952  0.7098
   65SOL    HW1  258   1.637   2.358   0.383 -1.1278  0.5491  0.4425
   65SOL    HW2  259   1.541   2.379   0.492 -1.3851 -1.4299 -1.9664
   65SOL     MW  260   1.556   2.358   0.412 -0.3876 -0.0461  0.3215
   66SOL     OW  261   0.297   0.549   0.575  0.1251  0.0136 -0.4177
   66SOL    HW1  262   0.340   0.487   0.518  0.0706 -1.6263  1.8006
   66SOL    HW2  263   0.295   0.635   0.529  0.4237  1.7887  1.4470
   66SOL     MW  264   0.302   0.552   0.562  0.1573  0.0314  0.1210
   67SOL     OW  265   1.487   0.085   2.025  0.9524 -0.4133  0.2494
   67SOL    HW1  266   1.540   0.096   1.944  0.5673  0.7240  0.5180
   67SOL    HW2  267   1.431   0.013   2.009 -0.9108  1.5498  1.2835
   67SOL     MW  268   1.487   0.077   2.012  0.6558 -0.0042  0.4213
   68SOL     OW  269   0.642   0.097   2.947 -0.0003  0.5828  0.0385
   68SOL    HW1  270   0.628   0.132   2.862  0.2666  1.1561  0.4861
   68SOL    HW2  271   0.676   0.164   3.010 -0.4031  1.8589 -1.2766
   68SOL     MW  272   0.645   0.111   2.944 -0.0182  0.8268 -0.0760
   69SOL     OW  273   0.992   0.174   1.994 -0.0395  0.2742  0.6627
   69SOL    HW1  274   1.087   0.196   1.992  3.0265 -0.6018 -1.2744
   69SOL    HW2  275   0.989   0.081   2.022  0.3437 -2.7714 -1.8052
   69SOL     MW  276   1.004   0.165   1.997  0.4156 -0.2432  0.0815
   70SOL     OW  277   0.524   1.714   1.123  0.3149  0.0371 -0.3408
   70SOL    HW1  278   0.559   1.673   1.206  0.0102 -2.4150  0.7731
   70SOL    HW2  279   0.602   1.732   1.079 -1.6503 -1.0092  0.2424
   70SOL     MW  280   0.539   1.711   1.128  0.0154 -0.4245 -0.1169
   71SOL     OW  281   1.633   0.546   1.320  0.0839 -0.0769 -0.1413
   71SOL    HW1  282   1.604   0.614   1.381 -1.4290 -2.0292  1.5934
   71SOL    HW2  283   1.591   0.575   1.232 -0.4125  1.1205 -0.2074
   71SOL     MW  284   1.624   0.559   1.317 -0.1812 -0.1765  0.0788
   72SOL     OW  285   0.775   1.771   0.981 -0.2408  0.1247  0.0616
   72SOL    HW1  286   0.763   1.804   0.894 -2.7616  2.6743  1.1399
   72SOL    HW2  287   0.751   1.676   0.983 -0.1591 -1.2862  0.0726
   72SOL     MW  288   0.770   1.763   0.970 -0.5626  0.2749  0.2053
   73SOL     OW  289   1.172   0.702   1.362 -0.5104  0.1137  0.2150
   73SOL    HW1  290   1.106   0.632   1.362 -1.8920  0.1735 -0.9992
   73SOL    HW2  291   1.134   0.773   1.413  1.5378 -1.2496  0.9089
   73SOL     MW  292   1.159   0.702   1.369 -0.4225 -0.0583  0.1464
   74SOL     OW  293   2.814   0.180   0.945 -0.4839 -0.1257 -0.1981
   74SOL    HW1  294   2.818   0.158   0.854 -0.6025 -0.0113  1.3302
   74SOL    HW2  295   2.772   0.269   0.949 -0.0372  1.0874  0.6703
   74SOL     MW  296   2.809   0.189   0.933 -0.4406  0.0495  0.1181
   75SOL     OW  297   1.671   1.375   0.098 -0.2334 -0.2288 -0.4787
   75SOL    HW1  298   1.720   1.422   0.167 -1.5863  1.0673 -1.7624
   75SOL    HW2  299   1.714   1.286   0.100  2.1330 -2.1239  0.3238
   75SOL     MW  300   1.683   1.369   0.107 -0.0997 -0.3078 -0.5422
   76SOL     OW  301   3.007   0.619   0.427  0.4738 -0.2920  0.1979
   76SOL    HW1  302   3.071   0.673   0.477  1.0834  1.1690 -2.0482
   76SOL    HW2  303   3.057   0.543   0.408  0.7980  1.8036  1.9123
   76SOL     MW  304   3.022   0.616   0.431  0.5970  0.1773  0.1278
   77SOL     OW  305   0.823   0.548   0.413 -0.7454  0.4732 -0.4573
   77SOL    HW1  306   0.792   0.568   0.328 -0.4815 -1.3537  0.2463
   77SOL    HW2  307   0.754   0.492   0.456 -0.3848 -1.4401  0.7341
   77SOL     MW  308   0.810   0.543   0.408 -0.6630 -0.0203 -0.2073
   78SOL     OW  309   0.749   0.890   1.282 -0.1608  0.1648  0.1505
   78SOL    HW1  310   0.717   0.975   1.245  0.4483 -0.9998  0.9621
   78SOL    HW2  311   0.793   0.836   1.216 -1.8964  1.1991 -0.1826
   78SOL     MW  312   0.751   0.894   1.269 -0.3094  0.1476  0.2136
   79SOL     OW  313   1.916   1.700   0.602  0.3264 -0.6098 -0.2435
   79SOL    HW1  314   1.823   1.672   0.584 -0.4642  0.5273 -2.2145
   79SOL    HW2  315   1.921   1.712   0.700  1.4174  0.0908 -4.3446
   79SOL     MW  316   1.905   1.697   0.613  0.3661 -0.3673 -1.0447
   80SOL     OW  317   0.078   0.954   0.298 -0.5138 -0.5539  0.0768
   80SOL    HW1  318  -0.016   0.934   0.336 -0.1166 -0.7561  0.7210
   80SOL    HW2  319   0.149   0.897   0.335 -1.3453 -2.5092 -0.8627
   80SOL     MW  320   0.075   0.944   0.308 -0.5711 -0.8386  0.0378
   81SOL     OW  321   1.901   1.907   0.243 -0.5014  0.0150  0.3615
   81SOL    HW1  322   1.858   1.827   0.205 -1.2401 -0.2678 -0.7762
   81SOL    HW2  323   1.839   1.977   0.232 -0.0634 -3.4048  0.4196
   81SOL     MW  324   1.887   1.906   0.237 -0.5411 -0.4736  0.2190
   82SOL     OW  325   0.816   1.075   0.526  0.3451 -0.6143  0.0277
   82SOL    HW1  326   0.847   1.116   0.446 -1.8546 -1.2450 -1.3436
   82SOL    HW2  327   0.825   0.987   0.511  1.7046 -0.6870 -0.0797
   82SOL     MW  328   0.821   1.068   0.514  0.2343 -0.7071 -0.1674
   83SOL     OW  329   0.142   0.585   1.340 -0.9095  0.1366  0.4110
   83SOL    HW1  330   0.140   0.674   1.310 -1.1845 -3.4165 -1.2154
   83SOL    HW2  331   0.204   0.571   1.414  1.1635  1.6292 -0.4104
   83SOL     MW  332   0.150   0.595   1.346 -0.6722 -0.1353  0.0880
   84SOL     OW  333   0.074   0.243   0.918 -0.0940  0.6421  0.3209
   84SOL    HW1  334   0.010   0.291   0.861  0.1509  0.4342 -0.2926
   84SOL    HW2  335   0.022   0.174   0.963 -2.1775  2.6334  2.4004
   84SOL     MW  336   0.059   0.240   0.916 -0.3366  0.8774  0.5143
   85SOL     OW  337   0.484   0.435   0.756 -0.6773 -0.0685 -0.6444
   85SOL    HW1  338   0.430   0.503   0.724  0.0069 -3.6751 -0.5396
   85SOL    HW2  339   0.433   0.357   0.763  3.2054 -1.4646  2.0819
   85SOL     MW  340   0.470   0.433   0.753 -0.0747 -0.7286 -0.2709
   86SOL     OW  341   1.221   0.349   1.082  0.1562 -0.3443 -0.0289
   86SOL    HW1  342   1.164   0.423   1.068 -0.3006 -0.2712 -1.3112
   86SOL    HW2  343   1.258   0.363   1.172  0.1208  0.1383  0.8269
   86SOL     MW  344   1.219   0.361   1.092  0.0913 -0.2709 -0.0852
   87SOL     OW  345   1.140   1.434   1.287 -0.1608 -0.5399  0.9414
   87SOL    HW1  346   1.153   1.521   1.240  0.9977  0.3896  1.4775
   87SOL    HW2  347   1.136   1.359   1.221  0.5133  1.2106 -1.3427
   87SOL     MW  348   1.141   1.436   1.272  0.0810 -0.1863  0.7108
   88SOL     OW  349   1.207   0.994   0.957 -0.1205 -0.1517 -0.7961
   88SOL    HW1  350   1.304   0.995   0.945  2.3186 -1.7600 -1.9921
   88SOL    HW2  351   1.196   1.078   1.009  0.6681  0.4803 -2.1361
   88SOL     MW  352   1.218   1.006   0.963  0.3053 -0.2805 -1.1307
   89SOL     OW  353   1.761   0.675   0.331  0.1301  0.0386  0.5375
   89SOL    HW1  354   1.795   0.590   0.367  1.1165  1.5422 -0.7772
   89SOL    HW2  355   1.842   0.725   0.327 -0.4697 -0.6304  1.5658
   89SOL     MW  356   1.776   0.670   0.335  0.1811  0.1487  0.4997
   90SOL     OW  357   0.685   1.164   2.797  0.3748  0.2742 -0.4989
   90SOL    HW1  358   0.715   1.074   2.836  1.5553 -2.9610  1.7477
   90SOL    HW2  359   0.680   1.220   2.873 -0.7486 -3.3060  0.4166
   90SOL     MW  360   0.688   1.160   2.812  0.3823 -0.6250 -0.0817
   91SOL     OW  361   2.195   0.643   0.532 -0.0480  0.1208  0.5064
   91SOL    HW1  362   2.235   0.716   0.490  0.6209  0.9792  0.5371
   91SOL    HW2  363   2.223   0.567   0.479 -0.0769  2.0802 -0.1922
   91SOL     MW  364   2.204   0.642   0.520  0.0364  0.4925  0.4183
   92SOL     OW  365   1.626   0.848   0.509 -0.0684 -0.3841  0.4841
   92SOL    HW1  366   1.528   0.858   0.514  0.4574 -1.5997 -0.5535
   92SOL    HW2  367   1.652   0.769   0.456  1.0309 -0.7247  0.7882
   92SOL     MW  368   1.616   0.839   0.502  0.1460 -0.5894  0.3874
   93SOL     OW  369   1.009   0.312   0.388 -0.2317 -0.8204  0.4504
   93SOL    HW1  370   0.920   0.335   0.358 -0.0460  0.1152 -0.7324
   93SOL    HW2  371   1.061   0.292   0.309  0.0092  0.3026 -0.2665
   93SOL     MW  372   1.004   0.312   0.374 -0.1754 -0.5488  0.1997
   94SOL     OW  373   1.870   1.397   1.622 -0.3573  1.1695  0.1146
   94SOL    HW1  374   1.882   1.387   1.527 -0.3731  0.9372 -2.8298
   94SOL    HW2  375   1.841   1.312   1.652  0.1673 -0.0932  2.8508
   94SOL     MW  376   1.867   1.385   1.613 -0.2902  0.9723  0.0871
   95SOL     OW  377   0.739   1.507   0.989  0.9549 -0.3394  0.0152
   95SOL    HW1  378   0.809   1.440   1.000  0.1804  1.5596  1.7609
   95SOL    HW2  379   0.658   1.459   0.969  0.2565  1.3776 -3.3984
   95SOL     MW  380   0.738   1.492   0.988  0.7606  0.1377 -0.2048
   96SOL     OW  381   1.244   1.843   1.635 -0.3226  0.5658  0.7523
   96SOL    HW1  382   1.163   1.825   1.672  3.5584 -0.8667 -1.0748
   96SOL    HW2  383   1.259   1.773   1.564  0.2661 -4.0326  0.2661
   96SOL     MW  384   1.236   1.831   1.630  0.2672 -0.2299  0.4471
   97SOL     OW  385   1.272   1.440   0.815 -0.0044 -0.4064 -0.5385
   97SOL    HW1  386   1.269   1.473   0.905  0.8107  0.6021  2.5884
   97SOL    HW2  387   1.199   1.494   0.776 -0.5362  0.3810  0.4217
   97SOL     MW  388   1.262   1.452   0.821  0.0329 -0.1694  0.0008
   98SOL     OW  389   1.470   1.302   1.054 -0.2627 -0.2001  0.1578
   98SOL    HW1  390   1.499   1.362   1.116  1.2661 -1.7777 -1.5753
   98SOL    HW2  391   1.510   1.330   0.973 -2.0988 -0.3740 -0.7753
   98SOL     MW  392   1.479   1.313   1.051 -0.3032 -0.4312 -0.1939
   99SOL     OW  393   1.371   0.379   1.348 -0.2312 -0.0189  0.5590
   99SOL    HW1  394   1.427   0.435   1.296 -1.2456 -0.5088  0.7526
   99SOL    HW2  395   1.417   0.376   1.433 -1.8260 -0.1588 -0.4438
   99SOL     MW  396   1.384   0.386   1.353 -0.5755 -0.1020  0.4523
  100SOL     OW  397   1.032   1.154   1.382 -0.2082  0.2534 -0.6654
  100SOL    HW1  398   1.004   1.204   1.457 -1.5826  0.5121 -1.0257
  100SOL    HW2  399   1.052   1.064   1.419 -0.2113 -0.1124  1.3454
  100SOL     MW  400   1.031   1.149   1.397 -0.3899  0.2392 -0.4476
  101SOL     OW  401   0.520   1.076   0.296 -0.4109  0.2055  0.5896
  101SOL    HW1  402   0.498   0.983   0.301 -1.7316  2.3622  0.3480
  101SOL    HW2  403   0.486   1.103   0.217 -1.5805 -2.7612  3.0012
  101SOL     MW  404   0.512   1.067   0.286 -0.7395  0.0986  0.8759
  102SOL     OW  405   2.936   0.600   0.989 -0.5783 -0.7846  0.2114
  102SOL    HW1  406   2.967   0.693   1.013 -1.0907 -0.5323  1.4648
  102SOL    HW2  407   3.003   0.541   1.032 -0.7397 -0.7598 -2.5732
  102SOL     MW  408   2.949   0.604   0.998 -0.6672 -0.7480  0.0094
  103SOL     OW  409   1.760   0.375   1.829 -0.0636 -0.0458 -0.4567
  103SOL    HW1  410   1.691   0.307   1.810  0.1381 -2.6000 -1.0018
  103SOL    HW2  411   1.814   0.337   1.891 -4.1053  3.3198 -0.8273
  103SOL     MW  412   1.758   0.361   1.835 -0.5702  0.0612 -0.5775
  104SOL     OW  413   0.148   1.762   1.544 -0.5312 -0.1214  0.4623
  104SOL    HW1  414   0.108   1.696   1.610 -2.7898 -1.2295  0.1448
  104SOL    HW2  415   0.114   1.719   1.466 -0.1775  0.0405  1.3352
  104SOL     MW  416   0.138   1.748   1.542 -0.7826 -0.2462  0.5356
  105SOL     OW  417   0.023   1.166   0.498 -0.5016 -0.3699  0.1028
  105SOL    HW1  418   0.068   1.101   0.442  1.4450  0.6149 -0.7462
  105SOL    HW2  419   0.089   1.235   0.519 -0.9461  1.9645 -3.4461
  105SOL     MW  420   0.038   1.166   0.493 -0.3034  0.0680 -0.4775
  106SOL     OW  421   0.873   0.372   1.039  0.0325 -0.5173 -0.0319
  106SOL    HW1  422   0.807   0.429   0.997  1.4073  2.9922 -1.1725
  106SOL    HW2  423   0.914   0.320   0.973  0.0899  0.1172  1.2542
  106SOL     MW  424   0.870   0.373   1.024  0.2214  0.0294 -0.0127
  107SOL     OW  425   0.762   2.153   2.985 -0.1123  0.0392 -0.5447
  107SOL    HW1  426   0.691   2.099   2.940  2.1392  0.4708  1.4288
  107SOL    HW2  427   0.781   2.134   3.076 -0.6710  0.8408  0.3964
  107SOL     MW  428   0.755   2.144   2.991  0.1110  0.2019 -0.1601
  108SOL     OW  429   1.317   1.542   1.503 -0.3452  0.0906  0.3051
  108SOL    HW1  430   1.245   1.476   1.490 -3.5450 -0.9204 -1.0602
  108SOL    HW2  431   1.369   1.512   1.583 -1.7147 -0.1010  2.1542
  108SOL     MW  432   1.315   1.530   1.512 -0.9481 -0.0680  0.3689
  109SOL     OW  433   1.995   0.762   0.179 -0.2724  0.2456 -0.0131
  109SOL    HW1  434   2.002   0.798   0.091  1.1236  1.7562 -2.1251
  109SOL    HW2  435   2.019   0.838   0.227  0.1400 -0.0746  2.2762
  109SOL     MW  436   2.000   0.777   0.174 -0.0338  0.4027  0.0103
  110SOL     OW  437   0.458   1.911   0.778  0.2320 -0.0561 -0.1069
  110SOL    HW1  438   0.532   1.849   0.768  0.8837  2.5561 -2.0876
  110SOL    HW2  439   0.482   1.992   0.725  1.4645 -2.6084  0.4025
  110SOL     MW  440   0.471   1.914   0.769  0.4806 -0.0482 -0.3011
  111SOL     OW  441   0.758   0.937   1.539 -0.0960 -0.2738  0.2617
  111SOL    HW1  442   0.745   0.921   1.442  1.8229  0.0547 -0.8695
  111SOL    HW2  443   0.673   0.918   1.578  0.4274 -0.2813 -0.2549
  111SOL     MW  444   0.745   0.933   1.531  0.2263 -0.2315  0.0443
  112SOL     OW  445   1.338   1.058   1.610  0.0459 -0.1544 -0.1406
  112SOL    HW1  446   1.267   1.125   1.622 -1.8186 -0.2073  0.1099
  112SOL    HW2  447   1.289   0.976   1.626 -1.1545 -1.4619  0.2907
  112SOL     MW  448   1.322   1.056   1.614 -0.3585 -0.3339 -0.0506
  113SOL     OW  449   1.288   0.034   1.742  0.6950  0.1004 -0.1609
  113SOL    HW1  450   1.300  -0.022   1.820 -0.0602 -0.1240  0.6797
  113SOL    HW2  451   1.283  -0.029   1.664 -0.2435  0.4151  0.8106
  113SOL     MW  452   1.289   0.018   1.742  0.4715  0.1123  0.0782
  114SOL     OW  453   0.378   2.852   1.943 -0.9136  0.2624  0.1755
  114SOL    HW1  454   0.394   2.913   2.015  0.3171 -1.9774  1.7195
  114SOL    HW2  455   0.353   2.908   1.862 -3.8322  1.6068 -1.0108
  114SOL     MW  456   0.376   2.868   1.942 -1.1363  0.1442  0.2227
  115SOL     OW  457   0.500   0.825   1.122  0.6028  0.4360  0.7331
  115SOL    HW1  458   0.524   0.734   1.110 -2.3492 -0.4292 -0.8932
  115SOL    HW2  459   0.442   0.834   1.195  2.1313 -1.9337  3.2144
  115SOL     MW  460   0.495   0.814   1.130  0.4150  0.0092  0.8459
  116SOL     OW  461   0.782   1.006   1.018 -0.0495 -0.2671  0.4500
  116SOL    HW1  462   0.821   1.055   0.947 -1.4096  4.4498  1.0485
  116SOL    HW2  463   0.789   1.065   1.095 -1.7650  1.6399  1.8958
  116SOL     MW  464   0.788   1.020   1.019 -0.4553  0.6069  0.7197
  117SOL     OW  465   1.155   1.210   0.757 -0.7952  0.2555  0.5205
  117SOL    HW1  466   1.178   1.137   0.811 -0.9294 -0.4062  0.0691
  117SOL    HW2  467   1.214   1.285   0.788  1.9131  0.7248  1.6641
  117SOL     MW  468   1.166   1.210   0.768 -0.4556  0.2301  0.6118
  118SOL     OW  469   3.036   2.915   1.698  0.2466 -0.2588  0.1473
  118SOL    HW1  470   3.083   2.969   1.763  2.3159  0.7476 -1.4953
  118SOL    HW2  471   2.948   2.958   1.690  2.7654 -0.9861  1.9860
  118SOL     MW  472   3.031   2.928   1.706  0.8519 -0.2219  0.1731
  119SOL     OW  473   0.451   1.412   1.214 -0.0283  0.0687 -0.4324
  119SOL    HW1  474   0.466   1.460   1.135  1.1729  0.8467  2.6922
  119SOL    HW2  475   0.361   1.374   1.215  2.1938  2.1019  0.0592
  119SOL     MW  476   0.441   1.414   1.204  0.4234  0.4396  0.0447
  120SOL     OW  477   0.281   0.702   0.991  0.0861  0.0868 -0.3039
  120SOL    HW1  478   0.269   0.622   1.036  0.2218  0.7067 -1.4900
  120SOL    HW2  479   0.360   0.744   1.023  0.4008 -0.9150 -1.4735
  120SOL     MW  480   0.290   0.697   1.001  0.1455  0.0364 -0.6147
  121SOL     OW  481   1.800   1.152   1.716 -0.5646  0.2613  0.0656
  121SOL    HW1  482   1.713   1.122   1.738 -1.6238  0.6430 -0.0675
  121SOL    HW2  483   1.824   1.095   1.640 -0.7448 -0.0052 -0.2213
  121SOL     MW  484   1.792   1.141   1.709 -0.7281  0.2765  0.0102
  122SOL     OW  485   0.134   0.588   0.798 -0.3219 -0.4191 -0.1721
  122SOL    HW1  486   0.189   0.572   0.721 -0.6432 -2.9754  0.7375
  122SOL    HW2  487   0.186   0.639   0.861 -3.1693 -2.9500  1.7127
  122SOL     MW  488   0.148   0.593   0.796 -0.7400 -1.0903  0.1966
  123SOL     OW  489   1.806   1.081   0.579 -0.0205 -0.4902  0.2166
  123SOL    HW1  490   1.734   1.020   0.580 -0.4113  0.1161 -1.0176
  123SOL    HW2  491   1.855   1.068   0.662  3.5011 -0.8224  1.3915
  123SOL     MW  492   1.803   1.071   0.590  0.3926 -0.4541  0.2088
  124SOL     OW  493   0.669   0.527   0.924  0.5290 -0.1510 -0.1038
  124SOL    HW1  494   0.611   0.491   0.856  1.1834 -0.2409 -0.5569
  124SOL    HW2  495   0.683   0.618   0.888 -0.2578 -0.7001  0.5383
  124SOL     MW  496   0.663   0.534   0.910  0.5115 -0.2353 -0.0789
  125SOL     OW  497   0.699   1.756   1.706  0.0496  0.6615  0.1506
  125SOL    HW1  498   0.650   1.674   1.681 -0.2276 -0.2463 -0.2692
  125SOL    HW2  499   0.638   1.829   1.704  0.3974 -3.5688 -0.3064
  125SOL     MW  500   0.684   1.755   1.702  0.0589 -0.0164  0.0349
  126SOL     OW  501   2.134   1.606   1.948  0.2704 -0.5589  0.1854
  126SOL    HW1  502   2.189   1.681   1.914  0.2897 -0.4303 -0.9889
  126SOL    HW2  503   2.205   1.544   1.975  0.7336 -1.9040  0.2804
  126SOL     MW  504   2.151   1.607   1.947  0.3340 -0.7194  0.0430
  127SOL     OW  505   0.692   0.772   1.867  0.1399  0.8661 -0.3548
  127SOL    HW1  506   0.771   0.715   1.891 -1.4956  1.4335  2.0645
  127SOL    HW2  507   0.707   0.851   1.919  0.2304  2.4711 -0.8553
  127SOL     MW  508   0.704   0.775   1.877 -0.0640  1.1528 -0.1016
  128SOL     OW  509   1.840   0.773   2.907  0.1566 -0.5992  0.8656
  128SOL    HW1  510   1.852   0.771   2.812  2.0781 -1.5092  2.0086
  128SOL    HW2  511   1.772   0.841   2.913  3.3946  0.4805  2.4595
  128SOL     MW  512   1.832   0.781   2.895  0.8373 -0.5768  1.2267
  129SOL     OW  513   1.633   0.932   0.177  0.4843 -0.0239  0.4838
  129SOL    HW1  514   1.565   0.869   0.182  1.2972 -0.8491  0.5960
  129SOL    HW2  515   1.683   0.913   0.258  0.7241  0.5550  0.0885
  129SOL     MW  516   1.631   0.921   0.189  0.6232 -0.0564  0.4464
  130SOL     OW  517   0.767   1.387   0.392 -0.5285 -0.6206 -0.3379
  130SOL    HW1  518   0.796   1.380   0.481 -0.9412  1.5696  3.2545
  130SOL    HW2  519   0.834   1.429   0.343 -3.1415 -2.5275 -3.5043
  130SOL     MW  520   0.780   1.391   0.397 -0.9277 -0.5832 -0.2817
  131SOL     OW  521   3.008   0.837   3.051 -0.2443  0.1994 -0.0014
  131SOL    HW1  522   2.989   0.902   2.984 -2.1625 -0.6963 -1.8628
  131SOL    HW2  523   3.095   0.866   3.085 -0.7693 -2.2307 -1.1181
  131SOL     MW  524   3.017   0.850   3.047 -0.5667 -0.2394 -0.3943
  132SOL     OW  525   2.753   0.149   1.211 -0.5989  0.5703 -0.0908
  132SOL    HW1  526   2.776   0.156   1.118 -1.7244  0.7401  1.4649
  132SOL    HW2  527   2.657   0.144   1.195  0.2337  1.7884 -2.5237
  132SOL     MW  528   2.744   0.150   1.196 -0.6375  0.7534 -0.2065
  133SOL     OW  529   1.032   0.166   1.720 -0.0610  0.0067 -0.1878
  133SOL    HW1  530   1.110   0.111   1.731 -1.0815 -0.9158 -1.0198
  133SOL    HW2  531   0.999   0.180   1.810 -1.7016 -0.5240 -1.0687
  133SOL     MW  532   1.038   0.161   1.734 -0.4121 -0.1850 -0.4138
  134SOL     OW  533   1.416   2.521   1.423  0.1263 -0.4938 -0.1779
  134SOL    HW1  534   1.348   2.588   1.413 -1.0917  0.0506 -0.1633
  134SOL    HW2  535   1.479   2.564   1.477  0.5389  1.1192  1.7725
  134SOL     MW  536   1.415   2.535   1.428  0.0201 -0.2091  0.0813
  135SOL     OW  537   3.053   1.031   2.833  0.0605 -0.0761 -0.2713
  135SOL    HW1  538   3.126   1.075   2.880  3.2619  2.4316  1.3735
  135SOL    HW2  539   2.975   1.079   2.862 -1.2172  1.2130  1.5440
  135SOL     MW  540   3.053   1.043   2.843  0.3143  0.4248  0.1852
  136SOL     OW  541   0.260   2.055   0.898 -0.3752  0.1202  0.5827
  136SOL    HW1  542   0.175   2.016   0.871  1.1101  2.5282  3.0140
  136SOL    HW2  543   0.336   2.012   0.851  0.5799 -1.6554 -0.8707
  136SOL     MW  544   0.259   2.044   0.889 -0.0532  0.2036  0.7117
  137SOL     OW  545   0.691   2.074   0.531 -0.8013 -0.0980  0.4566
  137SOL    HW1  546   0.732   2.060   0.621  0.7619  2.7613 -1.0085
  137SOL    HW2  547   0.601   2.104   0.564 -0.6948 -1.2196 -0.8812
  137SOL     MW  548   0.685   2.076   0.547 -0.5810  0.1313  0.0868
  138SOL     OW  549   0.505   0.534   1.137 -0.0488  0.3239 -0.5147
  138SOL    HW1  550   0.432   0.466   1.116  0.6227  1.5029 -1.3225
  138SOL    HW2  551   0.560   0.541   1.061 -2.1933  2.3823 -1.3006
  138SOL     MW  552   0.503   0.526   1.124 -0.2432  0.7510 -0.7250
  139SOL     OW  553   2.732   0.578   1.380  0.9681  0.0393 -0.1540
  139SOL    HW1  554   2.779   0.496   1.364 -1.7803  3.0610  0.9135
  139SOL    HW2  555   2.802   0.643   1.399  0.9749 -1.7165  0.8425
  139SOL     MW  556   2.748   0.576   1.380  0.6064  0.2064  0.1183
  140SOL     OW  557   0.823   0.370   2.073 -0.9412 -0.2302  0.3460
  140SOL    HW1  558   0.869   0.296   2.037 -2.2943 -0.6724  0.7030
  140SOL    HW2  559   0.868   0.396   2.154  0.4100 -1.9331 -0.7595
  140SOL     MW  560   0.835   0.363   2.079 -0.9414 -0.5132  0.2472
  141SOL     OW  561   1.089   0.562   1.788 -0.1026  0.1385 -0.4259
  141SOL    HW1  562   1.132   0.493   1.736 -0.0043  1.6473  2.6250
  141SOL    HW2  563   1.133   0.646   1.763 -1.5594 -0.1297  3.9123
  141SOL     MW  564   1.100   0.564   1.778 -0.2818  0.3022  0.5490
  142SOL     OW  565   0.889   1.132   0.789 -0.1351  0.1757 -0.7224
  142SOL    HW1  566   0.874   1.120   0.695  0.3914 -1.7593 -0.1216
  142SOL    HW2  567   0.986   1.118   0.798 -0.1472  1.6513 -1.0825
  142SOL     MW  568   0.900   1.129   0.778 -0.0672  0.1151 -0.6907
  143SOL     OW  569   1.751   0.791   1.097 -0.3458  0.1966  0.0739
  143SOL    HW1  570   1.778   0.801   1.006 -0.2643 -2.7761 -0.6062
  143SOL    HW2  571   1.660   0.784   1.102  2.3428 -1.1590 -1.6258
  143SOL     MW  572   1.743   0.791   1.086  0.0197 -0.3745 -0.2401
  144SOL     OW  573   0.213   1.240   1.521  0.7183  0.0270 -0.0877
  144SOL    HW1  574   0.294   1.194   1.520  0.7922 -0.4297 -1.2102
  144SOL    HW2  575   0.214   1.289   1.604  0.8149 -0.4311 -1.6634
  144SOL     MW  576   0.224   1.240   1.532  0.7408 -0.0937 -0.4437
  145SOL     OW  577   0.282   0.399   1.063 -0.4210  0.1841 -0.0007
  145SOL    HW1  578   0.282   0.347   1.148 -0.3171  0.5562  1.3858
  145SOL    HW2  579   0.230   0.337   0.995 -0.9887  0.3645 -0.2738
  145SOL     MW  580   0.275   0.384   1.065 -0.4822  0.2570  0.1462
  146SOL     OW  581   0.856   1.957   1.348 -0.0917 -0.4894  0.3723
  146SOL    HW1  582   0.908   1.961   1.260 -0.0964  1.7844  0.0286
  146SOL    HW2  583   0.760   1.941   1.329  2.6355  0.8725 -3.6722
  146SOL     MW  584   0.850   1.955   1.334  0.2675 -0.0097 -0.2067
  147SOL     OW  585   0.385   0.396   3.002  0.0842  0.0039  0.4544
  147SOL    HW1  586   0.337   0.388   3.086 -0.7087 -1.1457 -0.0518
  147SOL    HW2  587   0.339   0.462   2.951  1.6405 -1.1304  0.3076
  147SOL     MW  588   0.373   0.404   3.006  0.1849 -0.2974  0.3683
  148SOL     OW  589   0.095   0.893   1.309 -0.2278  0.0093 -0.2115
  148SOL    HW1  590   0.181   0.915   1.284  1.9071  0.7569 -0.3078
  148SOL    HW2  591   0.087   0.925   1.402 -0.1055 -0.7469 -1.5745
  148SOL     MW  592   0.105   0.900   1.318  0.0700  0.0082 -0.4040
  149SOL     OW  593   1.371   1.184   1.342 -0.1162  0.4246 -0.6990
  149SOL    HW1  594   1.356   1.150   1.431 -1.7091  2.4217 -1.4179
  149SOL    HW2  595   1.445   1.248   1.343  1.9382  0.2138 -3.6305
  149SOL     MW  596   1.379   1.188   1.354 -0.0553  0.6603 -1.1807
  150SOL     OW  597   1.869   1.395   0.739  0.2922  0.4616  0.1902
  150SOL    HW1  598   1.867   1.298   0.749  1.2419 -1.2863  0.9755
  150SOL    HW2  599   1.965   1.415   0.743  0.2932  2.1472 -1.5334
  150SOL     MW  600   1.881   1.385   0.741  0.4176  0.4534  0.0664
  151SOL     OW  601   1.633   1.841   0.854  0.2777 -0.7564  0.3092
  151SOL    HW1  602   1.605   1.868   0.766 -1.2501  1.3502  2.1153
  151SOL    HW2  603   1.570   1.788   0.890 -1.2957  1.6629 -0.4791
  151SOL     MW  604   1.621   1.838   0.847 -0.1315 -0.1593  0.4435
  152SOL     OW  605   0.736   1.349   1.496  0.6191  0.4312  1.0029
  152SOL    HW1  606   0.762   1.290   1.566 -1.2287 -1.7609  0.5391
  152SOL    HW2  607   0.817   1.386   1.461 -0.8952 -0.5778 -1.8418
  152SOL     MW  608   0.750   1.346   1.501  0.1755  0.0089  0.5663
  153SOL     OW  609   2.630   1.259   0.755 -0.3019  0.4048 -0.0334
  153SOL    HW1  610   2.693   1.218   0.685  1.1152  1.2020  1.9791
  153SOL    HW2  611   2.553   1.202   0.757  0.1197 -0.6541 -2.6125
  153SOL     MW  612   2.628   1.246   0.746 -0.0593  0.3703 -0.1081
  154SOL     OW  613   0.378   1.751   1.732 -0.4248 -0.1221  0.2888
  154SOL    HW1  614   0.375   1.724   1.637  0.0555  3.1209 -1.3596
  154SOL    HW2  615   0.361   1.672   1.784  0.2559 -0.4773 -4.0648
  154SOL     MW  616   0.375   1.737   1.726 -0.2716  0.2589 -0.5031
  155SOL     OW  617   1.183   0.711   0.295  0.3889  0.9692 -0.4977
  155SOL    HW1  618   1.151   0.660   0.375  1.7472 -0.8950  1.1929
  155SOL    HW2  619   1.132   0.788   0.286 -0.4628 -0.2329 -1.8248
  155SOL     MW  620   1.172   0.714   0.305  0.4557  0.5647 -0.4497
  156SOL     OW  621   1.589   3.017   1.032  0.0899  0.6656  0.1638
  156SOL    HW1  622   1.618   3.095   1.076  0.3324 -1.7352 -1.2288
  156SOL    HW2  623   1.631   2.944   1.079  0.9538 -3.4676 -1.2501
  156SOL     MW  624   1.599   3.017   1.044  0.2359 -0.1965 -0.2065
  157SOL     OW  625   1.431   1.137   0.122  0.5579 -0.2568 -0.3080
  157SOL    HW1  626   1.489   1.068   0.126  1.8000 -0.9097 -1.8723
  157SOL    HW2  627   1.486   1.212   0.099 -0.8837  2.9521  2.4719
  157SOL     MW  628   1.446   1.138   0.120  0.5316  0.0805 -0.1476
  158SOL     OW  629   0.452   1.624   2.215  0.5380 -0.0771 -0.2801
  158SOL    HW1  630   0.449   1.695   2.153  2.8782  1.4212 -0.7537
  158SOL    HW2  631   0.378   1.636   2.274 -0.2112  0.5731  0.3701
  158SOL     MW  632   0.442   1.635   2.215  0.7479  0.2064 -0.2568
  159SOL     OW  633   1.259   1.732   0.410 -0.3788  0.1846 -0.3515
  159SOL    HW1  634   1.248   1.636   0.401  1.0266 -1.7844 -1.3383
  159SOL    HW2  635   1.194   1.766   0.481  0.3950  1.4703 -0.5576
  159SOL     MW  636   1.249   1.724   0.418 -0.0913  0.0944 -0.5089
  160SOL     OW  637   0.491   1.153   1.599  0.5807  0.1167  0.2443
  160SOL    HW1  638   0.502   1.071   1.642  1.0685 -0.9383  0.7154
  160SOL    HW2  639   0.561   1.210   1.637  3.5171  1.0898  0.6274
  160SOL     MW  640   0.502   1.150   1.610  1.0325  0.1059  0.3570
  161SOL     OW  641   0.511   2.171   2.555 -0.2189  0.0668 -0.3809
  161SOL    HW1  642   0.424   2.193   2.527  0.3243 -0.2821 -1.9591
  161SOL    HW2  643   0.557   2.128   2.480 -0.7261  0.2377 -0.6394
  161SOL     MW  644   0.505   2.168   2.542 -0.2141  0.0433 -0.6232
  162SOL     OW  645   1.060   1.763   1.847 -0.3976 -0.3450  0.6059
  162SOL    HW1  646   1.045   1.853   1.866 -0.6797  1.2550 -0.1441
  162SOL    HW2  647   0.973   1.726   1.872  2.8019 -0.5408 -0.5630
  162SOL     MW  648   1.046   1.770   1.853 -0.0127 -0.1597  0.3527
  163SOL     OW  649   2.105   0.068   0.988  0.4007 -0.4512  0.0127
  163SOL    HW1  650   2.089   0.095   0.901 -1.8173 -1.5587 -1.1564
  163SOL    HW2  651   2.041   0.001   1.005  0.7785  1.2902 -1.5919
  163SOL     MW  652   2.094   0.063   0.979  0.1579 -0.3676 -0.3533
  164SOL     OW  653   0.350   0.203   0.810  0.0717 -0.0507  0.8575
  164SOL    HW1  654   0.259   0.207   0.830  0.6567  2.2176  0.0719
  164SOL    HW2  655   0.345   0.127   0.748  0.2252 -2.0904  0.8933
  164SOL     MW  656   0.338   0.193   0.805  0.1691 -0.0205  0.7585
  165SOL     OW  657   1.330   1.238   0.362 -0.0208 -0.0670  0.4960
  165SOL    HW1  658   1.263   1.194   0.410  0.0547  0.4492 -3.4044
  165SOL    HW2  659   1.339   1.191   0.276 -1.4482  0.3389 -2.4760
  165SOL     MW  660   1.323   1.226   0.357 -0.1991  0.0547 -0.4107
  166SOL     OW  661   0.522   1.080   0.983  0.4641  0.4575 -0.1150
  166SOL    HW1  662   0.501   1.014   1.049  0.8145 -1.3245  0.8743
  166SOL    HW2  663   0.618   1.076   0.989 -0.3657 -1.1216  1.1228
  166SOL     MW  664   0.532   1.071   0.992  0.4009  0.0141  0.1789
  167SOL     OW  665   0.805   1.064   0.241 -0.1634 -0.6845  0.2694
  167SOL    HW1  666   0.711   1.062   0.254  3.2822 -0.1368  1.4759
  167SOL    HW2  667   0.830   1.152   0.197  1.3982 -0.4451  1.2113
  167SOL     MW  668   0.796   1.076   0.237  0.4972 -0.5806  0.5529
  168SOL     OW  669   1.650   1.666   2.936  0.1449 -0.0507  0.2249
  168SOL    HW1  670   1.559   1.644   2.951  0.5295  0.5785  0.4023
  168SOL    HW2  671   1.704   1.578   2.934 -1.5671 -1.4489 -1.3103
  168SOL     MW  672   1.645   1.651   2.937 -0.0302 -0.1521  0.0458
  169SOL     OW  673   0.382   0.942   1.344  0.0826 -0.4186  0.4152
  169SOL    HW1  674   0.411   0.902   1.429 -0.6595 -1.8518  0.8812
  169SOL    HW2  675   0.441   1.022   1.328  2.5918 -0.9898  0.5828
  169SOL     MW  676   0.393   0.948   1.353  0.3157 -0.6831  0.4988
  170SOL     OW  677   0.980   1.452   1.486 -0.3807  0.3160 -0.1444
  170SOL    HW1  678   0.953   1.546   1.509 -1.6939  0.5316 -1.7930
  170SOL    HW2  679   1.039   1.461   1.398  0.2232  0.3761 -2.0805
  170SOL     MW  680   0.984   1.466   1.477 -0.4743  0.3524 -0.6174
  171SOL     OW  681   0.585   1.432   0.656 -0.2702 -0.2915  0.5562
  171SOL    HW1  682   0.549   1.411   0.747  2.0246 -0.9742 -0.0366
  171SOL    HW2  683   0.565   1.351   0.608 -1.2005  0.9598  0.1560
  171SOL     MW  684   0.578   1.419   0.662 -0.0901 -0.2165  0.4252
  172SOL     OW  685   0.833   0.301   1.296  0.2161 -0.3326  0.3654
  172SOL    HW1  686   0.836   0.344   1.210 -1.2044  0.8474 -0.5835
  172SOL    HW2  687   0.735   0.297   1.310 -0.6651  3.3448 -0.4788
  172SOL     MW  688   0.821   0.306   1.287 -0.0876  0.3083  0.1288
  173SOL     OW  689   0.452   1.656   0.375 -0.2235  0.1775 -0.1054
  173SOL    HW1  690   0.448   1.557   0.363 -0.6648  1.7150  0.2363
  173SOL    HW2  691   0.435   1.676   0.468 -0.2500  2.3939 -0.1165
  173SOL     MW  692   0.450   1.646   0.386 -0.2852  0.6728 -0.0618
  174SOL     OW  693   1.895   0.992   1.501 -0.3290  0.3461  0.6294
  174SOL    HW1  694   1.879   0.901   1.524 -1.5065 -2.4307  0.7912
  174SOL    HW2  695   1.851   0.984   1.414  0.7657 -1.2683  2.1959
  174SOL     MW  696   1.887   0.979   1.492 -0.3399 -0.2333  0.8574
  175SOL     OW  697   0.475   1.385   0.352  0.0307  0.4455  0.5317
  175SOL    HW1  698   0.444   1.368   0.266  1.8725 -1.4185 -0.7127
  175SOL    HW2  699   0.568   1.344   0.355  1.3518  1.1841  0.5560
  175SOL     MW  700   0.483   1.378   0.341  0.4480  0.2970  0.3707
  176SOL     OW  701   0.199   1.361   1.230  0.0285  0.0320 -0.2535
  176SOL    HW1  702   0.184   1.333   1.142 -1.2600 -2.5199  1.3016
  176SOL    HW2  703   0.172   1.293   1.296  0.5345 -0.2989 -1.5410
  176SOL     MW  704   0.194   1.348   1.227 -0.0747 -0.3484 -0.2182
  177SOL     OW  705   0.578   0.351   1.335  0.1154  0.4878  0.2710
  177SOL    HW1  706   0.563   0.422   1.261 -0.3549  0.2128 -1.4516
  177SOL    HW2  707   0.606   0.396   1.418 -0.5170 -0.9539 -0.9375
  177SOL     MW  708   0.580   0.367   1.336 -0.0301  0.2613 -0.1158
  178SOL     OW  709   3.077   0.402   2.897  0.6855  0.3180  0.7891
  178SOL    HW1  710   3.033   0.440   2.973  3.2179 -0.4719  0.6044
  178SOL    HW2  711   3.013   0.428   2.827  3.2714  1.6180 -1.5914
  178SOL     MW  712   3.062   0.411   2.898  1.3608  0.3853  0.4507
  179SOL     OW  713   1.583   1.347   1.412  0.0358 -0.3237 -0.2092
  179SOL    HW1  714   1.559   1.378   1.499 -1.1628 -1.2658 -0.2364
  179SOL    HW2  715   1.675   1.365   1.401 -1.4717  0.5664  0.6361
  179SOL     MW  716   1.592   1.353   1.422 -0.3212 -0.3306 -0.1012
  180SOL     OW  717   2.999   0.195   0.464  0.7158  0.1519  0.2601
  180SOL    HW1  718   2.930   0.234   0.402 -1.3012 -0.3796  2.1705
  180SOL    HW2  719   3.042   0.267   0.511 -1.2178 -1.1714 -0.3287
  180SOL     MW  720   2.995   0.210   0.462  0.1946 -0.0928  0.4345
  181SOL     OW  721   1.161   1.346   3.048 -0.4871  0.1727  0.0482
  181SOL    HW1  722   1.235   1.391   3.098  0.5439 -2.1986  2.7141
  181SOL    HW2  723   1.205   1.264   3.018 -0.3227  1.3544  1.6691
  181SOL     MW  724   1.177   1.341   3.051 -0.3294  0.0158  0.6138
  182SOL     OW  725   0.523   0.886   1.661  0.7392  0.2999 -0.0509
  182SOL    HW1  726   0.436   0.852   1.687 -0.6706  0.5837 -1.6161
  182SOL    HW2  727   0.573   0.866   1.737  0.7166  1.9739  0.4161
  182SOL     MW  728   0.518   0.879   1.674  0.5502  0.5582 -0.1958
  183SOL     OW  729   1.510   1.540   1.219  0.0803  0.7418 -0.3157
  183SOL    HW1  730   1.418   1.564   1.231 -0.8103 -0.3363 -0.4227
  183SOL    HW2  731   1.542   1.492   1.303  1.3888 -0.7100  1.5969
  183SOL     MW  732   1.502   1.537   1.232  0.1355  0.4080 -0.0775
  184SOL     OW  733   0.885   0.615   1.980  0.4262  0.2886  0.2497
  184SOL    HW1  734   0.955   0.600   1.915 -0.8865 -0.4013 -1.0619
  184SOL    HW2  735   0.864   0.529   2.021  0.0040 -2.8231 -0.2117
  184SOL     MW  736   0.892   0.602   1.977  0.1973 -0.2130  0.0158
  185SOL     OW  737   1.196   0.970   1.939  0.3367  0.8142 -0.3446
  185SOL    HW1  738   1.221   0.886   1.981 -2.2670 -0.7822  0.7572
  185SOL    HW2  739   1.278   1.026   1.954  3.9115 -1.0588  3.2646
  185SOL     MW  740   1.210   0.967   1.947  0.4649  0.3564  0.2770
  186SOL     OW  741   0.397   1.644   1.439 -0.0560  0.0440  0.3696
  186SOL    HW1  742   0.405   1.560   1.390 -1.5452 -1.0632  0.6160
  186SOL    HW2  743   0.332   1.685   1.384 -0.6127 -1.6084  3.6314
  186SOL     MW  744   0.390   1.638   1.425 -0.3260 -0.3201  0.8324
  187SOL     OW  745   1.439   0.732   1.432 -0.0445 -0.3904  0.0252
  187SOL    HW1  746   1.444   0.698   1.520 -0.0756  1.0679  0.1277
  187SOL    HW2  747   1.347   0.712   1.412  1.2539 -1.4465  0.0880
  187SOL     MW  748   1.428   0.725   1.441  0.1227 -0.3373  0.0470
  188SOL     OW  749   1.931   1.128   0.830  0.4664  0.2004  0.6094
  188SOL    HW1  750   1.928   1.162   0.916  0.8521 -0.3362  0.4257
  188SOL    HW2  751   2.018   1.089   0.829  1.1167  2.6737  0.7100
  188SOL     MW  752   1.942   1.127   0.841  0.6031  0.4559  0.5984
  189SOL     OW  753   0.724   0.797   0.797  0.1966 -0.1838 -0.0665
  189SOL    HW1  754   0.637   0.843   0.790  1.9969  2.5970 -1.3474
  189SOL    HW2  755   0.771   0.854   0.858  0.2958  2.1939  2.0961
  189SOL     MW  756   0.719   0.811   0.804  0.4472  0.4968  0.0498
  190SOL     OW  757   1.861   0.225   2.029  0.1174  0.4328  0.5210
  190SOL    HW1  758   1.817   0.167   2.093  0.8959  0.8522  0.4758
  190SOL    HW2  759   1.930   0.168   1.994  1.9793  0.9193 -1.0934
  190SOL     MW  760   1.864   0.209   2.033  0.4658  0.5523  0.3020
  191SOL     OW  761   1.496   0.943   1.226  0.9378 -0.0574 -0.4092
  191SOL    HW1  762   1.450   1.026   1.252 -1.6132 -1.7064  2.4897
  191SOL    HW2  763   1.460   0.876   1.286  3.2153 -2.7786 -1.1284
  191SOL     MW  764   1.486   0.945   1.238  0.9017 -0.6340 -0.1216
  192SOL     OW  765   0.592   2.047   2.819 -0.3502  0.4666 -0.2081
  192SOL    HW1  766   0.548   2.079   2.748  0.7525 -0.1852  0.3271
  192SOL    HW2  767   0.591   1.949   2.814 -1.4436 -0.2834 -0.6496
  192SOL     MW  768   0.586   2.038   2.809 -0.3490  0.2817 -0.1958
  193SOL     OW  769   1.046   1.583   0.755  0.3334 -0.2915  0.6039
  193SOL    HW1  770   0.986   1.620   0.830  1.8840 -0.5138  4.0232
  193SOL    HW2  771   0.992   1.517   0.706  0.6063 -0.3670 -0.1197
  193SOL     MW  772   1.031   1.579   0.758  0.5740 -0.3308  0.9596
  194SOL     OW  773   0.484   1.358   0.915 -0.8591  0.1024  0.0846
  194SOL    HW1  774   0.465   1.272   0.955  1.5092  1.9522 -0.4357
  194SOL    HW2  775   0.395   1.394   0.895  1.1878  2.9015  0.1875
  194SOL     MW  776   0.470   1.351   0.918 -0.2766  0.7158  0.0295
  195SOL     OW  777   1.280   1.126   2.979 -0.3984 -0.2894  0.8429
  195SOL    HW1  778   1.342   1.142   3.047 -3.2388  0.1567 -1.7277
  195SOL    HW2  779   1.215   1.056   3.004 -1.1317 -2.1602  0.0240
  195SOL     MW  780   1.280   1.119   2.991 -0.8699 -0.4774  0.3957
  196SOL     OW  781   2.171   1.060   0.632 -0.2544  0.1815  0.0292
  196SOL    HW1  782   2.148   1.026   0.546  2.5605  1.7306 -1.2228
  196SOL    HW2  783   2.187   1.155   0.618  0.9922 -0.7436 -2.5024
  196SOL     MW  784   2.170   1.068   0.619  0.2815  0.2638 -0.4700
  197SOL     OW  785   0.692   1.261   2.020 -0.2903  0.0472  0.3088
  197SOL    HW1  786   0.669   1.168   2.025  0.1654 -3.8440  0.8191
  197SOL    HW2  787   0.654   1.289   1.937  0.0681 -0.8862 -0.9609
  197SOL     MW  788   0.684   1.252   2.010 -0.1828 -0.5893  0.2086
  198SOL     OW  789   2.970   1.419   1.070  0.3585 -0.4750  0.0186
  198SOL    HW1  790   2.958   1.514   1.074 -0.2269 -1.2151 -0.2152
  198SOL    HW2  791   2.890   1.371   1.041  0.6378 -4.2809 -0.4067
  198SOL     MW  792   2.958   1.426   1.067  0.3181 -1.0748 -0.0683
  199SOL     OW  793   0.528   1.336   1.819 -0.4392  0.2868  0.0412
  199SOL    HW1  794   0.448   1.285   1.796 -0.1822 -0.0820 -1.1928
  199SOL    HW2  795   0.538   1.407   1.752 -0.8482 -0.9658 -1.7694
  199SOL     MW  796   0.519   1.339   1.807 -0.4592  0.0728 -0.3605
  200SOL     OW  797   1.881   3.090   1.341 -0.3527  0.5947  0.2142
  200SOL    HW1  798   1.886   3.059   1.249  1.7558 -1.8145 -2.5083
  200SOL    HW2  799   1.809   3.151   1.344  0.7796 -0.2227  1.5099
  200SOL     MW  800   1.872   3.094   1.330  0.0749  0.1690  0.0259
  201SOL     OW  801   0.967   0.233   0.820 -0.3650 -0.1119 -0.1541
  201SOL    HW1  802   0.965   0.140   0.801 -1.4623  0.9487 -0.2991
  201SOL    HW2  803   1.036   0.276   0.758  1.2257 -0.8234 -0.3624
  201SOL     MW  804   0.976   0.227   0.810 -0.2999 -0.0659 -0.2007
  202SOL     OW  805   1.523   1.628   0.956  0.2567 -0.1240 -0.4847
  202SOL    HW1  806   1.563   1.559   0.908 -0.5244  0.2221  0.6529
  202SOL    HW2  807   1.543   1.607   1.051  2.3150 -3.2620 -0.7135
  202SOL     MW  808   1.531   1.616   0.962  0.4252 -0.4923 -0.3648
  203SOL     OW  809   3.091   0.466   1.158 -0.1767  0.0882  0.4322
  203SOL    HW1  810   3.146   0.390   1.131 -0.0497  1.8061  0.1897
  203SOL    HW2  811   3.153   0.511   1.218 -0.2712 -1.1232  0.1017
  203SOL     MW  812   3.107   0.462   1.162 -0.1724  0.1550  0.3566
  204SOL     OW  813   1.054   1.801   0.581 -0.4346  0.1742 -0.1927
  204SOL    HW1  814   1.054   1.715   0.631 -0.1468  0.3423  5.2738
  204SOL    HW2  815   0.961   1.825   0.553 -1.9088 -0.2608  0.8297
  204SOL     MW  816   1.042   1.793   0.584 -0.5911  0.1390  0.6635
  205SOL     OW  817   1.347   0.108   1.344 -0.3945  0.2265 -0.1550
  205SOL    HW1  818   1.322   0.097   1.253  1.6618  0.2074  0.8395
  205SOL    HW2  819   1.353   0.207   1.357 -0.2449 -0.7167  1.1667
  205SOL     MW  820   1.345   0.119   1.334 -0.1034  0.0996  0.1506
  206SOL     OW  821   0.422   3.053   1.400  0.2967 -0.5775 -0.2496
  206SOL    HW1  822   0.343   3.022   1.364  0.1020  1.0941  0.7745
  206SOL    HW2  823   0.497   2.987   1.380 -3.1046  0.4887  0.5840
  206SOL     MW  824   0.421   3.040   1.393 -0.1778 -0.2163 -0.0045
  207SOL     OW  825   0.969   1.513   0.213 -0.2164 -0.3318 -0.0659
  207SOL    HW1  826   0.937   1.603   0.220  1.5068  1.5793  0.4671
  207SOL    HW2  827   1.057   1.509   0.242  0.8113 -0.5818 -0.8064
  207SOL     MW  828   0.976   1.524   0.218  0.1465 -0.1127 -0.0933
  208SOL     OW  829   0.678   1.625   1.327  0.4646  0.2058 -0.2100
  208SOL    HW1  830   0.757   1.654   1.374  1.1628 -0.3160 -3.2499
  208SOL    HW2  831   0.699   1.542   1.282 -2.0056 -0.5827 -0.6990
  208SOL     MW  832   0.691   1.618   1.328  0.2308  0.0329 -0.6756
  209SOL     OW  833   1.584   0.527   2.886  0.0857 -0.2555  0.3087
  209SOL    HW1  834   1.640   0.552   2.961  0.2148 -1.7794  0.5318
  209SOL    HW2  835   1.630   0.450   2.851 -3.1399  2.1946  2.2558
  209SOL     MW  836   1.597   0.521   2.891 -0.3228 -0.1333  0.5950
  210SOL     OW  837   1.586   1.389   0.829 -0.2667 -0.4053  0.1305
  210SOL    HW1  838   1.683   1.393   0.828  1.3541  1.0906 -0.1379
  210SOL    HW2  839   1.558   1.410   0.740  0.2867 -0.0367 -1.9608
  210SOL     MW  840   1.595   1.392   0.817  0.0202 -0.1593 -0.1809
  211SOL     OW  841   1.643   0.397   0.972  0.1946 -0.2634 -0.0060
  211SOL    HW1  842   1.594   0.376   0.888 -1.5425  0.1885 -0.5212
  211SOL    HW2  843   1.723   0.445   0.950 -2.0796 -0.9891 -0.7999
  211SOL     MW  844   1.647   0.401   0.958 -0.3347 -0.2995 -0.1787
  212SOL     OW  845   0.210   1.119   0.102 -0.5131 -0.4377 -0.8339
  212SOL    HW1  846   0.159   1.096   0.182 -1.8627  1.7518  0.7689
  212SOL    HW2  847   0.227   1.034   0.060 -0.8798 -1.3939  0.6991
  212SOL     MW  848   0.206   1.104   0.107 -0.7395 -0.2750 -0.4202
  213SOL     OW  849   0.427   1.708   3.027 -0.4442 -0.6806  0.2035
  213SOL    HW1  850   0.452   1.753   3.110  1.7938 -0.3977 -1.2443
  213SOL    HW2  851   0.491   1.746   2.962  0.9050  0.9355 -2.4171
  213SOL     MW  852   0.438   1.719   3.030  0.0291 -0.4301 -0.3333
  214SOL     OW  853   0.603   0.288   2.223  0.0234 -0.2907  0.0574
  214SOL    HW1  854   0.527   0.334   2.190 -2.0296 -0.5523 -1.8104
  214SOL    HW2  855   0.675   0.322   2.157  1.4375  2.5391 -1.8688
  214SOL     MW  856   0.603   0.298   2.210 -0.0609  0.0481 -0.4432
  215SOL     OW  857   0.497   0.653   2.662  0.3665  0.4454  0.6082
  215SOL    HW1  858   0.520   0.638   2.573  0.7783 -0.6485  1.1635
  215SOL    HW2  859   0.438   0.584   2.685  0.7657 -1.5042 -2.4149
  215SOL     MW  860   0.492   0.642   2.654  0.4735  0.0438  0.2826
  216SOL     OW  861   2.997   3.080   2.653 -0.7887 -0.4840 -0.2342
  216SOL    HW1  862   2.940   3.049   2.724 -1.6915 -1.4699  0.6565
  216SOL    HW2  863   2.966   3.169   2.624 -1.4929  2.5587 -3.5868
  216SOL     MW  864   2.986   3.088   2.659 -1.0007 -0.2127 -0.5590
  217SOL     OW  865   0.907   1.223   0.037  0.1177 -0.0980 -0.0339
  217SOL    HW1  866   0.941   1.135   0.030 -2.2091  0.9322  0.9303
  217SOL    HW2  867   0.982   1.272   0.013  0.0361 -2.8016 -1.9377
  217SOL     MW  868   0.921   1.218   0.033 -0.2001 -0.3188 -0.1578
  218SOL     OW  869   0.900   1.311   2.549  0.2890  0.1034 -0.0373
  218SOL    HW1  870   0.907   1.217   2.560 -0.5972 -0.2978 -3.0036
  218SOL    HW2  871   0.983   1.355   2.565 -2.1426  0.8678 -0.5000
  218SOL     MW  872   0.912   1.304   2.553 -0.1487  0.1513 -0.4897
  219SOL     OW  873   1.090   0.488   2.592  0.2644 -0.0543  0.3688
  219SOL    HW1  874   1.136   0.546   2.651 -0.6404 -0.1224  1.5546
  219SOL    HW2  875   1.036   0.556   2.549 -1.7415  1.4977  2.4903
  219SOL     MW  876   1.089   0.505   2.594 -0.1197  0.1415  0.8051
  220SOL     OW  877   1.802   0.438   2.214 -0.0593  0.7643  0.3321
  220SOL    HW1  878   1.722   0.484   2.182 -1.9101 -2.6007 -0.1834
  220SOL    HW2  879   1.823   0.383   2.142 -1.2907  1.8265  0.0809
  220SOL     MW  880   1.794   0.437   2.200 -0.4660  0.4605  0.2309
  221SOL     OW  881   0.375   1.359   2.902 -0.0964 -0.3281 -0.1764
  221SOL    HW1  882   0.380   1.259   2.898 -2.7416 -1.0760  1.2309
  221SOL    HW2  883   0.419   1.385   2.822 -1.1467  3.1055  0.3190
  221SOL     MW  884   0.381   1.349   2.891 -0.5840  0.0262  0.0746
  222SOL     OW  885   0.330   0.904   2.664  0.7558  0.2914  0.3319
  222SOL    HW1  886   0.307   0.942   2.582 -0.4896  0.2420  3.3435
  222SOL    HW2  887   0.394   0.834   2.646 -1.5031 -0.9569  0.9337
  222SOL     MW  888   0.336   0.900   2.651  0.2934  0.1202  0.8087
  223SOL     OW  889   0.040   2.067   2.620 -0.3262 -0.1763  0.3028
  223SOL    HW1  890   0.088   1.986   2.659 -2.5170 -2.0882 -0.2432
  223SOL    HW2  891   0.090   2.127   2.564 -1.3629 -0.4952 -1.4483
  223SOL     MW  892   0.053   2.065   2.618 -0.7520 -0.4707 -0.0003
  224SOL     OW  893   1.521   0.811   2.615  0.5560  0.3691  0.0587
  224SOL    HW1  894   1.475   0.822   2.704 -1.4406  0.9904  1.0553
  224SOL    HW2  895   1.510   0.893   2.573 -1.0035  1.5029 -1.4133
  224SOL     MW  896   1.513   0.823   2.622  0.0868  0.6006 -0.0041
  225SOL     OW  897   2.974   1.508   2.316 -0.1220 -0.2995 -0.2433
  225SOL    HW1  898   3.025   1.574   2.271 -1.2077 -0.0522 -0.8959
  225SOL    HW2  899   2.919   1.557   2.380 -1.4507 -2.0884 -0.5823
  225SOL     MW  900   2.974   1.523   2.318 -0.4405 -0.5029 -0.3741
  226SOL     OW  901   0.465   1.421   2.623  0.2997  0.0669  0.5260
  226SOL    HW1  902   0.559   1.442   2.604  3.3525  1.8941 -0.5499
  226SOL    HW2  903   0.432   1.511   2.629  1.5681 -1.1570  2.5013
  226SOL     MW  904   0.473   1.435   2.621  0.8698  0.1465  0.6447
  227SOL     OW  905   0.424   1.083   2.859 -0.3453 -0.0710  0.3140
  227SOL    HW1  906   0.520   1.093   2.824  0.9990  0.8569  2.0709
  227SOL    HW2  907   0.382   1.027   2.800 -1.4601  3.0092  1.3791
  227SOL     MW  908   0.431   1.077   2.846 -0.3150  0.4578  0.6864
  228SOL     OW  909   0.736   0.982   2.052  0.4834  0.0223 -0.1710
  228SOL    HW1  910   0.808   1.021   2.007 -1.5646 -1.1109  2.0762
  228SOL    HW2  911   0.758   0.921   2.122 -0.1765 -1.3803 -0.0772
  228SOL     MW  912   0.748   0.979   2.055  0.1261 -0.3123  0.1379
  229SOL     OW  913   0.145   0.576   0.022  0.2617 -0.2513  0.4986
  229SOL    HW1  914   0.071   0.562  -0.034  1.1999 -1.4852  2.7905
  229SOL    HW2  915   0.138   0.502   0.081 -3.4506  0.5849 -1.5733
  229SOL     MW  916   0.134   0.565   0.022 -0.1043 -0.3038  0.5276
  230SOL     OW  917   1.762   1.394   2.025  0.3072 -0.6713 -0.1239
  230SOL    HW1  918   1.734   1.369   2.113 -2.0933 -0.5452 -0.5074
  230SOL    HW2  919   1.833   1.335   2.003  0.2277 -1.0946 -0.2205
  230SOL     MW  920   1.767   1.383   2.034 -0.0200 -0.7105 -0.1872
  231SOL     OW  921   2.761   1.331   2.232  0.4520 -0.2416 -0.2112
  231SOL    HW1  922   2.836   1.390   2.228 -3.2069  1.6455  2.3717
  231SOL    HW2  923   2.690   1.380   2.184 -1.7690  0.7494 -0.1985
  231SOL     MW  924   2.762   1.345   2.225 -0.3238  0.1381  0.1313
  232SOL     OW  925   2.250   0.809   2.134 -0.5911  0.0229 -0.8344
  232SOL    HW1  926   2.187   0.851   2.081  1.0790 -1.9233  0.3683
  232SOL    HW2  927   2.227   0.850   2.218  1.1069  0.0370 -1.2695
  232SOL     MW  928   2.239   0.820   2.138 -0.1467 -0.2321 -0.7331
  233SOL     OW  929   2.056   0.490   1.963  0.1004 -0.7397 -0.5389
  233SOL    HW1  930   2.078   0.396   1.943 -0.7335 -0.2575 -1.1095
  233SOL    HW2  931   2.109   0.521   2.037 -2.7391  0.7510 -0.9258
  233SOL     MW  932   2.066   0.481   1.970 -0.3842 -0.4794 -0.6652
  234SOL     OW  933   0.274   1.005   2.397  0.2404  0.1116  0.8361
  234SOL    HW1  934   0.190   1.049   2.378 -2.0748 -0.1136  0.0340
  234SOL    HW2  935   0.349   1.067   2.378  0.3281 -0.0433 -0.3215
  234SOL     MW  936   0.273   1.019   2.392 -0.0535  0.0614  0.5775
  235SOL     OW  937   1.148   3.076   2.724 -0.0358 -0.1408  0.2812
  235SOL    HW1  938   1.221   3.020   2.754  3.0800 -1.6455 -0.9341
  235SOL    HW2  939   1.139   3.156   2.784  0.8432  0.0505  1.2593
  235SOL     MW  940   1.156   3.079   2.736  0.4913 -0.3141  0.2499
  236SOL     OW  941   2.944   0.518   0.006  0.3257  0.1380 -0.1766
  236SOL    HW1  942   2.854   0.509  -0.040 -0.6557 -0.2192 -1.1840
  236SOL    HW2  943   2.956   0.612   0.010 -0.2137 -0.6157  0.2441
  236SOL     MW  944   2.933   0.529   0.001  0.1250 -0.0086 -0.2540
  237SOL     OW  945   1.926   1.027   2.191  0.0635  0.5961  0.7076
  237SOL    HW1  946   1.969   1.072   2.114  2.3522  1.2108  0.7802
  237SOL    HW2  947   1.875   1.103   2.222  0.3336  2.5481 -2.5233
  237SOL     MW  948   1.925   1.043   2.185  0.4011  0.9348  0.2909
  238SOL     OW  949   1.089   1.781   3.016  0.1936  0.3061 -0.4821
  238SOL    HW1  950   1.033   1.700   2.996  1.3934 -0.7787 -0.3875
  238SOL    HW2  951   1.183   1.757   3.013  0.7492 -2.5452  0.8348
  238SOL     MW  952   1.094   1.767   3.013  0.4252 -0.2132 -0.2959
  239SOL     OW  953   1.271   1.369   2.360 -0.0328 -0.0373  0.2626
  239SOL    HW1  954   1.238   1.433   2.430 -2.6254  1.1140  0.6264
  239SOL    HW2  955   1.242   1.278   2.398 -1.8861 -3.5382 -0.5307
  239SOL     MW  956   1.263   1.366   2.374 -0.6194 -0.3473  0.2059
  240SOL     OW  957   0.730   0.808   2.264 -0.5156 -0.6412  0.1304
  240SOL    HW1  958   0.725   0.879   2.329 -0.0659 -0.8855 -0.7367
  240SOL    HW2  959   0.822   0.768   2.270  0.5497  0.1364  0.7381
  240SOL     MW  960   0.741   0.812   2.273 -0.3157 -0.5709  0.0962
  241SOL     OW  961   0.662   0.362   0.019 -0.1308  0.4849  0.3256
  241SOL    HW1  962   0.673   0.446   0.061 -0.0288 -0.5675 -0.3620
  241SOL    HW2  963   0.569   0.363  -0.011 -0.1782  1.1143 -1.9275
  241SOL     MW  964   0.651   0.373   0.020 -0.1236  0.4291 -0.0624
  242SOL     OW  965   1.489   1.684   2.325 -0.6935  0.3605  0.3884
  242SOL    HW1  966   1.460   1.779   2.350  0.0524  1.5930  1.4553
  242SOL    HW2  967   1.424   1.653   2.257  1.1789 -1.3650 -0.1146
  242SOL     MW  968   1.477   1.693   2.320 -0.3480  0.2955  0.4628
  243SOL     OW  969   1.033   0.245   2.435  0.1208 -0.1081  0.3908
  243SOL    HW1  970   1.106   0.245   2.375  0.8626  1.0045 -1.5124
  243SOL    HW2  971   1.039   0.330   2.473 -0.9341  0.2753 -0.4009
  243SOL     MW  972   1.043   0.256   2.432  0.0795  0.0893  0.0352
  244SOL     OW  973   0.248   0.734   2.376 -0.0019 -0.1411 -0.5405
  244SOL    HW1  974   0.244   0.830   2.389 -1.7592  0.5135 -0.6525
  244SOL    HW2  975   0.339   0.724   2.351 -2.1194 -1.7788 -1.5863
  244SOL     MW  976   0.260   0.745   2.374 -0.5131 -0.2708 -0.6933
  245SOL     OW  977   1.287   0.240   2.324 -0.1577  0.0551 -0.0274
  245SOL    HW1  978   1.346   0.170   2.322  0.4200  0.9696  0.4561
  245SOL    HW2  979   1.336   0.298   2.379  0.6092  0.2993  0.7886
  245SOL     MW  980   1.301   0.239   2.331  0.0197  0.2080  0.1440
  246SOL     OW  981   1.177   1.232   2.136 -0.1017  0.4385 -0.4426
  246SOL    HW1  982   1.136   1.160   2.186 -0.6023 -1.3353 -0.4639
  246SOL    HW2  983   1.193   1.300   2.207  0.2344 -0.0090 -2.2574
  246SOL     MW  984   1.174   1.231   2.152 -0.1234  0.1454 -0.6848
  247SOL     OW  985   0.776   0.596   0.114 -0.1288 -0.0694  0.0975
  247SOL    HW1  986   0.734   0.678   0.084 -0.0699  0.4813 -0.7604
  247SOL    HW2  987   0.869   0.611   0.100  2.4980 -0.9085  0.7027
  247SOL     MW  988   0.783   0.609   0.108  0.2256 -0.1074  0.0642
  248SOL     OW  989   0.471   1.204   2.437  0.0882  0.4313 -0.9156
  248SOL    HW1  990   0.484   1.258   2.357  0.9093 -0.3963  1.4349
  248SOL    HW2  991   0.454   1.267   2.507  1.4750  2.1171 -1.2112
  248SOL     MW  992   0.471   1.220   2.435  0.3795  0.5445 -0.6444
  249SOL     OW  993   0.135   1.839   2.693 -0.3341  0.4055  0.0892
  249SOL    HW1  994   0.087   1.755   2.657 -0.1882  1.0838  0.6884
  249SOL    HW2  995   0.148   1.824   2.790  1.1923 -0.2903  1.9670
  249SOL     MW  996   0.130   1.826   2.701 -0.1135  0.4032  0.4160
  250SOL     OW  997   2.191   0.858   2.418 -0.1060 -0.2619 -0.4877
  250SOL    HW1  998   2.257   0.781   2.411  1.7244 -0.2687  0.3114
  250SOL    HW2  999   2.209   0.904   2.501 -0.3647  1.7083  0.7901
  250SOL     MW 1000   2.202   0.854   2.428  0.1014 -0.0028 -0.2137
  251SOL     OW 1001   0.163   0.946   2.053 -0.5608  0.2400  0.0648
  251SOL    HW1 1002   0.156   0.863   2.095  1.1046  2.6688  0.4515
  251SOL    HW2 1003   0.178   0.927   1.955  2.3043  2.6131 -3.0726
  251SOL     MW 1004   0.164   0.933   2.046  0.0370  0.8736 -0.2981
  252SOL     OW 1005   1.682   0.998   2.900  0.1467 -0.2308 -0.7476
  252SOL    HW1 1006   1.707   1.040   2.987  1.0094 -1.8479  1.0219
  252SOL    HW2 1007   1.739   1.039   2.834 -1.4643  0.6150 -1.7145
  252SOL     MW 1008   1.693   1.009   2.903  0.0479 -0.3326 -0.6417
  253SOL     OW 1009   1.176   1.777   2.561  0.3023  0.2724 -0.0780
  253SOL    HW1 1010   1.168   1.762   2.466  1.8208 -0.4544 -2.2012
  253SOL    HW2 1011   1.117   1.841   2.587  2.7445 -0.6600  1.6107
  253SOL     MW 1012   1.167   1.783   2.552  0.8249  0.0535 -0.1353
  254SOL     OW 1013   1.026   1.044   2.268 -0.5272 -0.2252  0.4319
  254SOL    HW1 1014   1.002   0.956   2.234  0.3050 -0.0421 -0.0918
  254SOL    HW2 1015   0.941   1.092   2.269  2.9982 -0.1021  1.2067
  254SOL     MW 1016   1.012   1.039   2.264  0.0477 -0.1848  0.4650
  255SOL     OW 1017   0.833   2.550   2.197  0.0748 -0.2863  0.0380
  255SOL    HW1 1018   0.758   2.495   2.226 -3.0790  1.5544 -1.5247
  255SOL    HW2 1019   0.910   2.523   2.244  0.6426 -0.4019 -0.5572
  255SOL     MW 1020   0.833   2.539   2.207 -0.2664 -0.0587 -0.2467
  256SOL     OW 1021   1.218   2.811   2.828  0.1032 -0.6156 -0.0414
  256SOL    HW1 1022   1.180   2.727   2.788  3.5304 -2.8399 -2.0185
  256SOL    HW2 1023   1.317   2.819   2.828  0.7574  0.9100  0.6168
  256SOL     MW 1024   1.226   2.801   2.823  0.6417 -0.7078 -0.2155
  257SOL     OW 1025   0.118   1.930   0.100  0.2910  0.0946  0.2253
  257SOL    HW1 1026   0.144   1.880   0.178 -2.6395  0.5495 -0.8030
  257SOL    HW2 1027   0.122   1.874   0.021 -0.1015  2.0774 -2.4355
  257SOL     MW 1028   0.122   1.916   0.100 -0.1474  0.4162 -0.2615
  258SOL     OW 1029   0.716   1.019   2.453 -0.2841  0.2629  0.7806
  258SOL    HW1 1030   0.740   1.087   2.394  0.6181 -1.7399  0.7615
  258SOL    HW2 1031   0.624   1.021   2.462  2.9011  1.2548  1.4408
  258SOL     MW 1032   0.707   1.029   2.447  0.2552  0.1295  0.8652
  259SOL     OW 1033   0.738   0.489   2.351  0.1778 -0.3798  0.4324
  259SOL    HW1 1034   0.669   0.557   2.357  0.8328 -1.8197 -0.1265
  259SOL    HW2 1035   0.694   0.404   2.336  1.2476 -0.2500  2.4717
  259SOL     MW 1036   0.723   0.487   2.350  0.4054 -0.5526  0.6277
  260SOL     OW 1037   0.568   0.139   1.588 -0.8127 -0.2399  0.5072
  260SOL    HW1 1038   0.527   0.090   1.515 -2.3645 -0.2033  1.9216
  260SOL    HW2 1039   0.667   0.137   1.573  1.2194 -2.2488 -0.1182
  260SOL     MW 1040   0.575   0.132   1.576 -0.7494 -0.5002  0.6113
  261SOL     OW 1041   1.267   0.723   2.013  0.6127  0.3523  0.1192
  261SOL    HW1 1042   1.288   0.738   2.107  1.8039  2.0383 -1.4159
  261SOL    HW2 1043   1.290   0.630   1.986  0.5981  0.6914  0.0785
  261SOL     MW 1044   1.273   0.713   2.022  0.7680  0.6195 -0.0887
  262SOL     OW 1045   1.117   0.280   0.149 -0.6776  0.2638  0.0767
  262SOL    HW1 1046   1.209   0.270   0.125 -0.6145  2.3726  0.3186
  262SOL    HW2 1047   1.065   0.220   0.103  1.8788  1.0597 -0.4895
  262SOL     MW 1048   1.122   0.271   0.140 -0.3320  0.6471  0.0339
  263SOL     OW 1049   0.443   3.034   2.536  0.3313 -0.1901  0.8447
  263SOL    HW1 1050   0.367   3.092   2.548  0.9129 -0.4760 -1.6775
  263SOL    HW2 1051   0.474   3.061   2.449 -1.3444 -2.5696  0.8696
  263SOL     MW 1052   0.437   3.045   2.526  0.1870 -0.5418  0.5152
  264SOL     OW 1053   1.523   1.296   1.937  0.0481 -0.6039  0.7211
  264SOL    HW1 1054   1.480   1.347   2.008  0.1179  0.0553 -0.3222
  264SOL    HW2 1055   1.615   1.324   1.953 -0.9771 -0.7869 -1.9127
  264SOL     MW 1056   1.530   1.306   1.948 -0.0780 -0.5411  0.2359
  265SOL     OW 1057   0.680   2.780   2.254 -0.4021  0.6571  0.5525
  265SOL    HW1 1058   0.735   2.725   2.200  0.7722 -1.9578  0.8310
  265SOL    HW2 1059   0.710   2.770   2.347 -2.0097  0.0479 -2.4925
  265SOL     MW 1060   0.691   2.772   2.259 -0.4592  0.2317  0.1875
  266SOL     OW 1061   1.005   0.771   2.204  0.8743 -0.7134  0.4299
  266SOL    HW1 1062   0.984   0.738   2.112 -1.5201 -3.0040  0.6080
  266SOL    HW2 1063   1.094   0.759   2.228  1.3406  1.0660  0.9636
  266SOL     MW 1064   1.014   0.765   2.195  0.6199 -0.7808  0.5238
  267SOL     OW 1065   1.373   1.660   2.726  0.0087  0.3180  0.4097
  267SOL    HW1 1066   1.461   1.658   2.683 -1.7910  1.6213 -0.6394
  267SOL    HW2 1067   1.320   1.729   2.679  0.1476  0.3768 -0.3589
  267SOL     MW 1068   1.378   1.669   2.714 -0.2104  0.4977  0.1699
  268SOL     OW 1069   0.274   0.827   1.764  0.1083  0.1729 -0.2943
  268SOL    HW1 1070   0.189   0.839   1.712 -0.3820  1.2165 -2.1033
  268SOL    HW2 1071   0.289   0.732   1.759  0.5121 -0.9746 -1.3803
  268SOL     MW 1072   0.265   0.816   1.757  0.0969  0.1592 -0.6762
  269SOL     OW 1073   1.400   1.938   2.363  0.2248  0.0435 -0.0944
  269SOL    HW1 1074   1.429   2.004   2.300  1.9566 -1.0056 -1.2308
  269SOL    HW2 1075   1.341   1.980   2.417  0.3700 -0.1427 -0.0356
  269SOL     MW 1076   1.396   1.952   2.362  0.4725 -0.1195 -0.2365
  270SOL     OW 1077   1.186   0.379   1.599  0.3276 -0.1191 -0.4058
  270SOL    HW1 1078   1.142   0.299   1.636 -2.0203 -0.1602 -3.1756
  270SOL    HW2 1079   1.279   0.350   1.595 -0.7149  1.2682  1.3479
  270SOL     MW 1080   1.192   0.365   1.603 -0.1197  0.0585 -0.5399
  271SOL     OW 1081   0.898   3.097   2.492  0.0548  0.2038  0.0433
  271SOL    HW1 1082   0.973   3.038   2.518 -0.3674  0.2195  2.3855
  271SOL    HW2 1083   0.927   3.192   2.500 -2.5096 -1.5499  0.6676
  271SOL     MW 1084   0.912   3.102   2.497 -0.3393 -0.0255  0.4347
  272SOL     OW 1085   1.469   2.882   2.784 -0.2777  0.1332  0.1953
  272SOL    HW1 1086   1.441   2.938   2.712  0.4287 -1.2863  1.7082
  272SOL    HW2 1087   1.493   2.952   2.853 -1.0156 -0.2586 -0.8376
  272SOL     MW 1088   1.469   2.898   2.783 -0.2819 -0.1058  0.2586
  273SOL     OW 1089   1.440   0.895   2.867  0.4178  0.4923 -0.4211
  273SOL    HW1 1090   1.533   0.913   2.878 -1.4691  0.2552 -1.6392
  273SOL    HW2 1091   1.395   0.978   2.871  0.1676  1.6105 -0.7488
  273SOL     MW 1092   1.447   0.908   2.869  0.1358  0.6086 -0.6250
  274SOL     OW 1093   1.425   0.755   0.204  0.0284 -0.2954 -0.1166
  274SOL    HW1 1094   1.455   0.664   0.200 -1.1886  1.8673 -0.3457
  274SOL    HW2 1095   1.342   0.748   0.260 -0.6652  0.8162  1.3907
  274SOL     MW 1096   1.418   0.742   0.211 -0.2237  0.1366  0.0521
  275SOL     OW 1097   1.690   0.640   1.786  0.0730 -0.2824  0.5243
  275SOL    HW1 1098   1.729   0.665   1.868  2.4212 -0.5124  1.2776
  275SOL    HW2 1099   1.706   0.543   1.788 -0.7222 -1.4755 -0.1096
  275SOL     MW 1100   1.697   0.631   1.797  0.2779 -0.4701  0.5400
  276SOL     OW 1101   0.282   1.229   1.805  0.4487  0.0222  0.3007
  276SOL    HW1 1102   0.321   1.163   1.865  1.1902 -0.1005 -1.4471
  276SOL    HW2 1103   0.210   1.274   1.849  1.4403 -2.8330  0.1618
  276SOL     MW 1104   0.278   1.226   1.819  0.6774 -0.3707  0.0518
  277SOL     OW 1105   1.874   1.280   2.485 -0.2537 -0.0569 -0.7820
  277SOL    HW1 1106   1.949   1.347   2.493  0.1062  2.1371 -1.4146
  277SOL    HW2 1107   1.885   1.228   2.565  0.5358 -0.4063 -0.1345
  277SOL     MW 1108   1.885   1.282   2.497 -0.1021  0.1865 -0.7800
  278SOL     OW 1109   1.436   0.629   1.708  0.1870 -0.1427 -0.5529
  278SOL    HW1 1110   1.409   0.574   1.786  0.4185 -2.5385 -0.0350
  278SOL    HW2 1111   1.529   0.643   1.712  0.2394 -0.4901  0.1836
  278SOL     MW 1112   1.445   0.624   1.719  0.2244 -0.5047 -0.3874
  279SOL     OW 1113   0.520   0.033   2.254  0.5191  0.3046  0.0257
  279SOL    HW1 1114   0.608  -0.006   2.258  0.3566 -2.7851 -1.4258
  279SOL    HW2 1115   0.539   0.129   2.255  3.1639  1.4076  2.2089
  279SOL     MW 1116   0.534   0.041   2.255  0.8466  0.0425  0.1222
  280SOL     OW 1117   1.500   1.076   2.169 -0.5275 -0.4075  0.0402
  280SOL    HW1 1118   1.548   1.015   2.113 -0.9907 -1.5378  0.9540
  280SOL    HW2 1119   1.487   1.035   2.257 -1.4743  1.4569  1.0230
  280SOL     MW 1120   1.505   1.062   2.173 -0.7135 -0.3107  0.2905
  281SOL     OW 1121   1.293   1.278   2.730 -0.2285  0.3264 -0.2060
  281SOL    HW1 1122   1.388   1.306   2.732 -2.2681 -0.6716  1.3884
  281SOL    HW2 1123   1.269   1.247   2.816 -1.8165 -1.4393 -3.4290
  281SOL     MW 1124   1.302   1.277   2.742 -0.7071 -0.0382 -0.4209
  282SOL     OW 1125   1.131   1.291   1.662  0.3347 -0.2460 -0.6009
  282SOL    HW1 1126   1.084   1.358   1.609 -0.3969 -0.8454  5.3790
  282SOL    HW2 1127   1.090   1.293   1.750  2.7909 -0.2532  1.0206
  282SOL     MW 1128   1.120   1.300   1.667  0.5623 -0.3261  0.4021
  283SOL     OW 1129   0.652   1.293   3.047  0.4602 -0.4871 -0.8369
  283SOL    HW1 1130   0.742   1.263   3.075  0.3323  0.4632  2.4205
  283SOL    HW2 1131   0.645   1.380   3.095  0.7817  1.8256  2.4261
  283SOL     MW 1132   0.663   1.301   3.057  0.4858 -0.0566  0.0234
  284SOL     OW 1133   0.541   0.664   2.370  0.1652  0.1168  0.2854
  284SOL    HW1 1134   0.605   0.712   2.312  0.4788  1.0730 -1.4278
  284SOL    HW2 1135   0.495   0.602   2.304 -1.4475 -1.2556 -0.3264
  284SOL     MW 1136   0.543   0.662   2.354 -0.0062  0.0619 -0.0214
  285SOL     OW 1137   0.856   0.940   2.838 -0.3933 -0.2157 -0.4689
  285SOL    HW1 1138   0.879   0.967   2.744  2.1031 -1.1367 -0.5806
  285SOL    HW2 1139   0.821   0.851   2.829 -0.5394  0.9058 -1.0343
  285SOL     MW 1140   0.855   0.932   2.824 -0.0832 -0.1893 -0.5582
  286SOL     OW 1141   1.122   1.493   2.580  1.0909  0.1278 -0.0321
  286SOL    HW1 1142   1.196   1.443   2.620  1.9146 -0.0108 -2.1374
  286SOL    HW2 1143   1.142   1.584   2.590 -0.0627  0.0905 -1.5586
  286SOL     MW 1144   1.134   1.498   2.586  1.0474  0.1045 -0.5113
  287SOL     OW 1145   1.050   0.951   0.288  0.3713 -0.0070 -0.2865
  287SOL    HW1 1146   1.093   1.006   0.358  0.8668 -0.7746 -0.3672
  287SOL    HW2 1147   0.969   0.993   0.262  0.7217 -2.7334 -0.4786
  287SOL     MW 1148   1.045   0.964   0.294  0.4829 -0.4680 -0.3225
  288SOL     OW 1149   1.599   0.634   2.116 -0.2474 -0.0375  0.0444
  288SOL    HW1 1150   1.564   0.647   2.206  1.4416 -1.6082  0.4835
  288SOL    HW2 1151   1.606   0.726   2.081 -0.7188 -0.0948 -2.8577
  288SOL     MW 1152   1.595   0.648   2.123 -0.0867 -0.2523 -0.2806
  289SOL     OW 1153   0.957   1.021   2.592 -0.7560 -0.5027 -0.4477
  289SOL    HW1 1154   1.007   0.936   2.581  0.1682  2.0950 -1.5781
  289SOL    HW2 1155   0.878   1.021   2.536 -1.8932  2.5193 -1.2208
  289SOL     MW 1156   0.953   1.010   2.583 -0.7841  0.2387 -0.6989
  290SOL     OW 1157   0.884   0.550   1.575  0.3728  0.3288 -0.0627
  290SOL    HW1 1158   0.940   0.505   1.512  1.5261  1.4200 -1.5177
  290SOL    HW2 1159   0.936   0.550   1.654  1.8469 -0.4786  0.6570
  290SOL     MW 1160   0.898   0.544   1.577  0.7194  0.3663 -0.1597
  291SOL     OW 1161   0.164   0.340   0.145  0.0550  0.0651 -0.0829
  291SOL    HW1 1162   0.243   0.288   0.157 -1.2637  1.5943 -0.9216
  291SOL    HW2 1163   0.104   0.284   0.091  3.4988  2.2023  0.1055
  291SOL     MW 1164   0.167   0.326   0.140  0.3354  0.5488 -0.1687
  292SOL     OW 1165   1.048   0.553   0.091  0.0253 -0.2563  0.0693
  292SOL    HW1 1166   1.105   0.604   0.153 -1.3176  1.5702  1.9385
  292SOL    HW2 1167   1.070   0.458   0.085 -0.3461  1.3270  1.0794
  292SOL     MW 1168   1.059   0.547   0.098 -0.2009  0.1936  0.4492
  293SOL     OW 1169   0.244   0.146   2.440 -0.0748  0.0496 -0.4354
  293SOL    HW1 1170   0.183   0.092   2.384 -0.0480 -1.4757 -0.0105
  293SOL    HW2 1171   0.185   0.200   2.489  1.6952  0.7102 -0.2118
  293SOL     MW 1172   0.228   0.146   2.439  0.1623 -0.0645 -0.3498
  294SOL     OW 1173   1.501   0.616   2.398 -0.0574 -0.3971  0.1860
  294SOL    HW1 1174   1.503   0.676   2.472 -1.9404 -0.3908  0.7006
  294SOL    HW2 1175   1.485   0.531   2.432  1.6001  3.2515 -2.3164
  294SOL     MW 1176   1.499   0.613   2.412 -0.0872  0.0851 -0.0763
  295SOL     OW 1177   0.901   0.670   2.512 -0.3802 -0.6068 -0.2030
  295SOL    HW1 1178   0.860   0.616   2.444  3.9981  2.8593  1.3151
  295SOL    HW2 1179   0.848   0.658   2.597 -4.3791  2.1958 -2.9717
  295SOL     MW 1180   0.889   0.661   2.514 -0.3301  0.2203 -0.3680
  296SOL     OW 1181   1.261   0.288   2.060 -0.1536  0.0116  0.0793
  296SOL    HW1 1182   1.338   0.228   2.036  1.5939 -0.7064 -2.4426
  296SOL    HW2 1183   1.265   0.268   2.156  0.8788 -1.0705 -0.7342
  296SOL     MW 1184   1.272   0.277   2.070  0.2132 -0.2259 -0.3608
  297SOL     OW 1185   1.479   0.350   1.598 -0.1914 -0.1765 -0.2015
  297SOL    HW1 1186   1.470   0.427   1.654 -3.0265 -0.0900  1.1080
  297SOL    HW2 1187   1.518   0.279   1.652  0.3401 -1.8542 -4.1824
  297SOL     MW 1188   1.483   0.350   1.612 -0.4953 -0.3864 -0.5540
  298SOL     OW 1189   1.649   0.886   2.014  0.2971 -0.6754 -0.5016
  298SOL    HW1 1190   1.636   0.911   1.920  1.3280  1.8820 -1.5438
  298SOL    HW2 1191   1.744   0.902   2.022  0.4417  0.3415 -1.8334
  298SOL     MW 1192   1.660   0.891   2.003  0.4522 -0.2038 -0.8148
  299SOL     OW 1193   0.569   1.050   3.103  0.3129  0.5683 -0.0846
  299SOL    HW1 1194   0.601   1.141   3.093 -1.5020 -0.3216 -1.9043
  299SOL    HW2 1195   0.490   1.064   3.053 -1.5222  0.7206  2.3593
  299SOL     MW 1196   0.563   1.064   3.095 -0.1687  0.4709 -0.0022
  300SOL     OW 1197   1.186   1.156   2.506  0.0216 -0.2149  0.3624
  300SOL    HW1 1198   1.107   1.093   2.512 -1.6252  1.4290 -0.8196
  300SOL    HW2 1199   1.224   1.185   2.589  1.2033  2.0628 -3.4914
  300SOL     MW 1200   1.181   1.151   2.517 -0.0397  0.3025 -0.3021
  301SOL     OW 1201   1.380   0.913   0.667  0.2458 -0.1578  0.7232
  301SOL    HW1 1202   1.451   0.914   0.737  0.7073  0.0142  2.2342
  301SOL    HW2 1203   1.317   0.850   0.711 -2.0318  0.9198  1.7850
  301SOL     MW 1204   1.381   0.904   0.682  0.0062  0.0071  1.0627
  302SOL     OW 1205   0.091   1.498   2.034  0.4029 -0.0287  0.0324
  302SOL    HW1 1206   0.102   1.431   2.108  1.1245  0.1947 -0.6705
  302SOL    HW2 1207   0.070   1.586   2.073  0.9570 -0.1571 -0.8559
  302SOL     MW 1208   0.089   1.501   2.049  0.5712 -0.0161 -0.1775
  303SOL     OW 1209   0.379   1.688   2.615  0.6405  0.3787  0.4858
  303SOL    HW1 1210   0.381   1.686   2.519 -2.1513 -2.9271  0.0182
  303SOL    HW2 1211   0.292   1.723   2.647 -0.2148 -2.3047  1.9003
  303SOL     MW 1212   0.367   1.692   2.607  0.1593 -0.4115  0.6107
  304SOL     OW 1213   0.656   2.064   2.359 -0.8477 -0.0207 -0.0788
  304SOL    HW1 1214   0.726   2.102   2.306 -1.9549  0.5350  0.4347
  304SOL    HW2 1215   0.699   1.985   2.389 -0.7967 -0.9535  0.1081
  304SOL     MW 1216   0.671   2.059   2.356 -0.9871 -0.0705  0.0136
  305SOL     OW 1217   1.089   0.578   0.529  0.3542 -0.0101  0.5307
  305SOL    HW1 1218   1.006   0.546   0.483  1.4471  1.5013  0.9282
  305SOL    HW2 1219   1.140   0.497   0.555 -1.0111 -0.9760 -1.3042
  305SOL     MW 1220   1.085   0.563   0.526  0.3182  0.0619  0.3411
  306SOL     OW 1221   1.222   1.485   0.269  0.1532 -0.2257 -0.3431
  306SOL    HW1 1222   1.249   1.412   0.317  1.1356  0.9817 -0.7742
  306SOL    HW2 1223   1.276   1.481   0.188 -1.4843  0.8881  2.2048
  306SOL     MW 1224   1.232   1.475   0.264  0.0668  0.0806 -0.0638
  307SOL     OW 1225   1.387   0.483   1.938 -0.1250 -0.0632  0.0087
  307SOL    HW1 1226   1.344   0.408   1.991 -1.1118 -1.7304  2.0919
  307SOL    HW2 1227   1.463   0.527   1.983  3.8357  0.4146  1.3040
  307SOL     MW 1228   1.392   0.479   1.951  0.2674 -0.2201  0.4545
  308SOL     OW 1229   2.151   0.598   2.696 -0.8609  0.2147 -0.0798
  308SOL    HW1 1230   2.243   0.560   2.703  1.3229 -1.8489  0.8761
  308SOL    HW2 1231   2.165   0.694   2.694 -2.2819 -2.3382  1.1124
  308SOL     MW 1232   2.165   0.606   2.697 -0.7603 -0.3944  0.2036
  309SOL     OW 1233   0.405   0.376   0.407 -0.7374  0.1640  0.2598
  309SOL    HW1 1234   0.484   0.347   0.453  1.1510  2.4443 -0.5193
  309SOL    HW2 1235   0.412   0.342   0.317 -0.1049 -0.2210  0.5733
  309SOL     MW 1236   0.417   0.367   0.401 -0.4048  0.4140  0.1984
  310SOL     OW 1237   0.484   0.593   1.917 -0.2287 -0.2790 -0.0600
  310SOL    HW1 1238   0.535   0.516   1.885 -0.1956 -0.2708  2.9793
  310SOL    HW2 1239   0.552   0.658   1.887  3.9519 -0.9551  0.2804
  310SOL     MW 1240   0.500   0.591   1.909  0.3273 -0.3671  0.3859
  311SOL     OW 1241   1.895   0.736   1.973  0.5612 -0.1240 -0.0015
  311SOL    HW1 1242   1.884   0.734   2.069 -1.7520 -0.1210  0.8831
  311SOL    HW2 1243   1.944   0.651   1.951 -0.1671 -2.2297 -0.8634
  311SOL     MW 1244   1.900   0.724   1.983  0.1599 -0.4014  0.0015
  312SOL     OW 1245   1.671   2.505   0.116 -0.2570 -0.1100 -0.1779
  312SOL    HW1 1246   1.742   2.530   0.178 -1.6768  1.1101  3.4952
  312SOL    HW2 1247   1.605   2.568   0.132  0.3469  1.1132  0.8771
  312SOL     MW 1248   1.672   2.517   0.126 -0.3646  0.2124  0.4460
  313SOL     OW 1249   0.092   1.223   2.969  0.1633 -0.2889  0.0724
  313SOL    HW1 1250   0.105   1.202   3.062  0.1237 -1.5020  0.1822
  313SOL    HW2 1251   0.168   1.261   2.941 -0.8156 -0.4287  4.0657
  313SOL     MW 1252   0.104   1.225   2.978  0.0289 -0.4674  0.6137
  314SOL     OW 1253   2.126   2.969   3.011 -0.5519 -0.0119 -0.0365
  314SOL    HW1 1254   2.056   3.001   2.954 -0.0338 -1.9825 -1.8527
  314SOL    HW2 1255   2.170   3.045   3.041 -1.7424 -0.6111 -1.8042
  314SOL     MW 1256   2.122   2.984   3.008 -0.6406 -0.3509 -0.5094
  315SOL     OW 1257   1.513   1.895   0.050  0.4615  0.5858  0.1744
  315SOL    HW1 1258   1.441   1.962   0.074  0.6227  2.0673  0.2072
  315SOL    HW2 1259   1.543   1.933  -0.035  0.4754  0.1645 -0.6235
  315SOL     MW 1260   1.508   1.909   0.042  0.4846  0.7257  0.0735
  316SOL     OW 1261   1.298   0.665   2.688  0.6786 -0.1307  0.3920
  316SOL    HW1 1262   1.381   0.687   2.643 -0.6239 -0.2230 -1.5767
  316SOL    HW2 1263   1.305   0.672   2.781 -2.9258  1.7244  1.5196
  316SOL     MW 1264   1.310   0.669   2.694  0.0312  0.1019  0.2810
  317SOL     OW 1265   0.701   1.500   2.540 -0.2064  0.1733  0.3129
  317SOL    HW1 1266   0.769   1.430   2.529  1.5218  1.0839  1.2249
  317SOL    HW2 1267   0.705   1.547   2.451 -0.5887  1.5247 -0.0351
  317SOL     MW 1268   0.711   1.497   2.527 -0.0288  0.4718  0.3873
  318SOL     OW 1269   1.344   0.405   2.937 -0.1696 -0.6978 -0.0912
  318SOL    HW1 1270   1.264   0.461   2.932 -1.9846  3.6985  1.1239
  318SOL    HW2 1271   1.418   0.463   2.916 -0.7297  1.2353 -0.7010
  318SOL     MW 1272   1.343   0.420   2.934 -0.4830  0.1373 -0.0113
  319SOL     OW 1273   0.769   0.418   2.860 -0.3201  0.2144  0.0255
  319SOL    HW1 1274   0.714   0.351   2.821  1.5028 -0.7589 -0.0717
  319SOL    HW2 1275   0.749   0.412   2.957 -0.4889 -0.6444  1.1283
  319SOL     MW 1276   0.759   0.408   2.868 -0.1018 -0.0273  0.1582
  320SOL     OW 1277   1.043   1.326   1.925  0.9184 -0.0772  0.2765
  320SOL    HW1 1278   1.106   1.279   1.984 -0.6683  1.2143  0.0754
  320SOL    HW2 1279   1.087   1.411   1.911 -0.0366  1.4741 -0.9660
  320SOL     MW 1280   1.057   1.331   1.931  0.5831  0.2978  0.0860
  321SOL     OW 1281   1.036   0.994   3.042  0.6421  0.1545 -0.2726
  321SOL    HW1 1282   0.987   0.975   2.959 -0.1369 -2.6083 -1.3728
  321SOL    HW2 1283   1.079   0.920   3.082  0.6352  0.6788  2.0597
  321SOL     MW 1284   1.035   0.982   3.036  0.5384 -0.1408 -0.1100
  322SOL     OW 1285   1.201   0.791   1.717  0.7604 -0.0723 -0.4172
  322SOL    HW1 1286   1.289   0.756   1.732  2.2644 -0.6528  3.2599
  322SOL    HW2 1287   1.186   0.861   1.781 -0.4898 -0.3744 -1.2376
  322SOL     MW 1288   1.211   0.796   1.727  0.7939 -0.1887 -0.0403
  323SOL     OW 1289   1.209   1.543   1.886  0.0069  0.2767 -0.2062
  323SOL    HW1 1290   1.235   1.488   1.809  1.2612 -0.2072  1.5381
  323SOL    HW2 1291   1.152   1.612   1.852 -0.1535 -0.6076  1.9224
  323SOL     MW 1292   1.205   1.545   1.871  0.1512  0.0962  0.3048
  324SOL     OW 1293   1.468   1.005   2.435  0.4500  0.2051 -0.2342
  324SOL    HW1 1294   1.377   1.052   2.420  1.3461  0.9236 -0.0324
  324SOL    HW2 1295   1.516   1.074   2.475 -1.2209 -1.7194 -1.1682
  324SOL     MW 1296   1.462   1.020   2.438  0.3478  0.0460 -0.3308
  325SOL     OW 1297   1.090   0.514   2.898  0.1450 -0.3448  0.0701
  325SOL    HW1 1298   1.083   0.565   2.981 -2.8245 -1.0829  0.7534
  325SOL    HW2 1299   1.009   0.519   2.857  1.8991  1.0656  0.6768
  325SOL     MW 1300   1.078   0.521   2.903 -0.0154 -0.2561  0.2403
  326SOL     OW 1301   0.478   1.353   2.216 -0.2613 -0.9131  0.0888
  326SOL    HW1 1302   0.541   1.333   2.146  2.8356  0.0780  0.0405
  326SOL    HW2 1303   0.472   1.452   2.229 -1.5496 -2.1188 -0.1039
  326SOL     MW 1304   0.486   1.363   2.209 -0.0227 -0.9414  0.0570
  327SOL     OW 1305   1.892   0.868   2.459  0.3470 -0.2456 -0.3881
  327SOL    HW1 1306   1.901   0.776   2.504 -0.4103 -0.5983 -1.1226
  327SOL    HW2 1307   1.977   0.883   2.409  3.0707 -0.3079  1.1776
  327SOL     MW 1308   1.905   0.857   2.459  0.6064 -0.3003 -0.2785
  328SOL     OW 1309   0.190   1.276   2.219  0.1302 -0.5766 -0.7031
  328SOL    HW1 1310   0.163   1.253   2.128  1.8374  0.2320  0.5854
  328SOL    HW2 1311   0.283   1.290   2.216  1.2876  0.4373  0.6005
  328SOL     MW 1312   0.199   1.275   2.206  0.5082 -0.3361 -0.3611
  329SOL     OW 1313   0.131   0.088   1.390 -0.2710 -0.7326 -0.1704
  329SOL    HW1 1314   0.117   0.136   1.473 -0.6604 -0.4749  2.1998
  329SOL    HW2 1315   0.217   0.123   1.363  2.3041  0.8362 -2.3571
  329SOL     MW 1316   0.140   0.099   1.397  0.0173 -0.4916 -0.1462
  330SOL     OW 1317   0.311   3.092   2.082 -0.5730 -0.2715 -0.2006
  330SOL    HW1 1318   0.388   3.117   2.142  1.0697  3.7581 -2.9605
  330SOL    HW2 1319   0.255   3.042   2.133 -0.2518 -0.0098  1.5842
  330SOL     MW 1320   0.314   3.089   2.096 -0.3139  0.2947 -0.3293
  331SOL     OW 1321   0.795   1.204   2.283  0.9990 -0.1326 -0.1902
  331SOL    HW1 1322   0.763   1.236   2.199  0.4817 -0.3740  1.3966
  331SOL    HW2 1323   0.778   1.268   2.349 -0.3336 -0.1074  0.4489
  331SOL     MW 1324   0.788   1.216   2.281  0.7549 -0.1611  0.1035
  332SOL     OW 1325   1.353   1.687   2.998  0.1830 -0.0978  0.0681
  332SOL    HW1 1326   1.357   1.684   2.901 -0.5603  0.9093  3.5444
  332SOL    HW2 1327   1.390   1.770   3.021  1.5387  0.6121  0.3610
  332SOL     MW 1328   1.359   1.698   2.988  0.2638  0.1288  0.5654
  333SOL     OW 1329   1.801   1.454   2.971 -0.1024 -0.1622  0.1611
  333SOL    HW1 1330   1.900   1.468   2.986  0.9053  1.5310 -1.5545
  333SOL    HW2 1331   1.764   1.429   3.056 -1.5281 -0.8561 -3.8235
  333SOL     MW 1332   1.809   1.453   2.985 -0.1576 -0.0304 -0.5909
  334SOL     OW 1333   1.382   3.081   2.582  0.6128 -0.2234 -0.5185
  334SOL    HW1 1334   1.293   3.108   2.611  1.1779  0.9138  0.5515
  334SOL    HW2 1335   1.433   3.160   2.604  1.3978  1.0681 -1.5196
  334SOL     MW 1336   1.377   3.095   2.588  0.7910  0.0971 -0.5094
  335SOL     OW 1337   1.254   0.775   3.022  0.2452  0.0194 -0.5388
  335SOL    HW1 1338   1.297   0.775   3.108 -1.0292 -3.0436  0.1128
  335SOL    HW2 1339   1.309   0.829   2.967 -0.3363 -2.8498 -0.0394
  335SOL     MW 1340   1.267   0.782   3.026  0.0003 -0.7633 -0.3869
  336SOL     OW 1341   0.940   1.086   1.897  0.1776 -0.4354  0.5724
  336SOL    HW1 1342   0.955   1.179   1.918 -1.3413  0.1856  0.6644
  336SOL    HW2 1343   1.013   1.037   1.927  0.3399 -0.1902 -1.2934
  336SOL     MW 1344   0.951   1.092   1.904 -0.0014 -0.3211  0.3384
  337SOL     OW 1345   0.614   1.775   2.823  0.7104  0.1371 -0.4802
  337SOL    HW1 1346   0.557   1.749   2.748 -0.3037  2.3484  0.8235
  337SOL    HW2 1347   0.706   1.755   2.792  2.7523 -0.7394  1.3621
  337SOL     MW 1348   0.619   1.769   2.809  0.8460  0.3132 -0.0651
  338SOL     OW 1349   1.139   0.841   2.529  0.1213  0.2507 -0.4470
  338SOL    HW1 1350   1.058   0.788   2.511  0.7088 -0.4663  0.7982
  338SOL    HW2 1351   1.186   0.795   2.598  0.8836 -0.6028  0.7327
  338SOL     MW 1352   1.134   0.828   2.536  0.2994  0.0435 -0.1271
  339SOL     OW 1353   1.550   1.041   1.790  0.3737  0.2472  0.3294
  339SOL    HW1 1354   1.478   1.060   1.727 -2.6661  0.9228 -1.1025
  339SOL    HW2 1355   1.533   1.104   1.862  0.5398  0.2651 -0.2839
  339SOL     MW 1356   1.538   1.052   1.791 -0.0054  0.3387  0.0596
  340SOL     OW 1357   1.396   1.473   0.056  0.4396 -0.2439 -0.2909
  340SOL    HW1 1358   1.393   1.556   0.014 -0.8655 -1.2539  1.2584
  340SOL    HW2 1359   1.485   1.468   0.087  0.0670  1.6611  0.7626
  340SOL     MW 1360   1.407   1.483   0.054  0.2182 -0.1259  0.0525
  341SOL     OW 1361   0.106   1.400   2.684 -0.2022  0.1723 -0.2187
  341SOL    HW1 1362   0.193   1.373   2.654 -0.3983  0.5367  0.4122
  341SOL    HW2 1363   0.048   1.363   2.613  2.0610 -2.1978  2.7502
  341SOL     MW 1364   0.110   1.392   2.671  0.0705 -0.0923  0.2563
  342SOL     OW 1365   1.389   0.299   0.088 -0.2003  0.2444 -0.2194
  342SOL    HW1 1366   1.432   0.377   0.121 -3.4843 -0.5203 -0.1235
  342SOL    HW2 1367   1.366   0.322  -0.005 -0.2359 -2.3039 -1.6929
  342SOL     MW 1368   1.392   0.312   0.080 -0.6383 -0.1927 -0.4012
  343SOL     OW 1369   0.210   0.310   2.224 -0.0213 -0.1103  0.1024
  343SOL    HW1 1370   0.252   0.261   2.301  0.6942  1.1293  0.8155
  343SOL    HW2 1371   0.164   0.245   2.166  2.5904 -2.4231  0.6157
  343SOL     MW 1372   0.209   0.295   2.226  0.4177 -0.2519  0.2642
  344SOL     OW 1373   1.679   2.064   0.190  0.3053 -0.3785 -0.4191
  344SOL    HW1 1374   1.679   2.129   0.117  0.2335  2.3908  1.0396
  344SOL    HW2 1375   1.635   1.991   0.156  2.1665 -0.8297 -1.3407
  344SOL     MW 1376   1.673   2.063   0.176  0.5414 -0.0727 -0.3483
  345SOL     OW 1377   0.739   1.631   2.314  0.1492  0.2137 -0.4611
  345SOL    HW1 1378   0.650   1.632   2.269 -3.6034  3.2265 -0.7504
  345SOL    HW2 1379   0.797   1.586   2.250  0.9004 -2.6881  1.0763
  345SOL     MW 1380   0.735   1.625   2.300 -0.2468  0.2284 -0.2964
  346SOL     OW 1381   1.739   1.127   0.040  0.1460  0.8843 -0.0346
  346SOL    HW1 1382   1.836   1.119   0.037 -0.0323  1.7382 -2.6891
  346SOL    HW2 1383   1.708   1.060   0.100  2.4247 -2.4288 -2.8291
  346SOL     MW 1384   1.747   1.117   0.047  0.4232  0.5598 -0.7535
  347SOL     OW 1385   1.277   0.764   2.293 -0.1508  0.4628 -0.0739
  347SOL    HW1 1386   1.345   0.713   2.336  0.3375  1.7113  0.7393
  347SOL    HW2 1387   1.240   0.811   2.364 -2.9494 -4.6502  0.1490
  347SOL     MW 1388   1.281   0.764   2.308 -0.4556 -0.0470  0.0628
  348SOL     OW 1389   1.332   2.599   1.861  0.7313  0.4222  0.0963
  348SOL    HW1 1390   1.371   2.529   1.915  1.0235  3.7416 -1.0586
  348SOL    HW2 1391   1.369   2.677   1.900  3.0441  0.4941 -2.3263
  348SOL     MW 1392   1.342   2.600   1.873  1.0750  0.8696 -0.3757
  349SOL     OW 1393   1.407   0.257   2.705 -0.3924 -0.0080  0.4497
  349SOL    HW1 1394   1.365   0.309   2.777 -0.1455 -0.1589  0.7041
  349SOL    HW2 1395   1.497   0.269   2.729  0.8398  2.9516 -1.2428
  349SOL     MW 1396   1.413   0.266   2.717 -0.1972  0.3625  0.2600
  350SOL     OW 1397   1.890   0.642   2.609  0.3400 -0.3492  0.2109
  350SOL    HW1 1398   1.835   0.563   2.586  0.1537  0.9170  1.0376
  350SOL    HW2 1399   1.984   0.613   2.623  3.7801 -1.9506 -1.4779
  350SOL     MW 1400   1.895   0.627   2.608  0.7693 -0.3934  0.0971
  351SOL     OW 1401   0.105   0.935   1.590 -0.8068  0.2206 -0.4205
  351SOL    HW1 1402   0.028   0.973   1.633 -2.2302  0.1886 -0.1402
  351SOL    HW2 1403   0.172   1.008   1.576 -0.9929 -0.7750 -3.6967
  351SOL     MW 1404   0.104   0.949   1.594 -1.0192  0.0851 -0.8158
  352SOL     OW 1405   0.847   1.665   2.720  0.1485  0.5995 -0.3942
  352SOL    HW1 1406   0.871   1.613   2.801  1.0197  2.2717 -1.7028
  352SOL    HW2 1407   0.819   1.594   2.659  0.3606 -0.8740 -0.0841
  352SOL     MW 1408   0.846   1.649   2.723  0.2914  0.6257 -0.5260
  353SOL     OW 1409   3.051   2.456   2.722  0.3150 -0.4409  0.5844
  353SOL    HW1 1410   3.146   2.468   2.723 -0.7577  0.1865  1.5857
  353SOL    HW2 1411   3.002   2.534   2.698  0.1751  3.0662  2.8187
  353SOL     MW 1412   3.057   2.468   2.719  0.1550  0.1046  1.0113
  354SOL     OW 1413   0.371   2.472   0.852 -0.5886  0.1101 -0.1262
  354SOL    HW1 1414   0.374   2.443   0.947  1.6878  1.3961  0.9793
  354SOL    HW2 1415   0.296   2.412   0.815 -0.7751  1.2793 -1.6605
  354SOL     MW 1416   0.362   2.460   0.860 -0.3129  0.4340 -0.1828
  355SOL     OW 1417   0.025   2.213   0.385  0.0048  0.4058 -0.5762
  355SOL    HW1 1418  -0.052   2.152   0.382 -0.0837  1.1188 -0.3804
  355SOL    HW2 1419   0.014   2.269   0.457 -0.6616  0.2615 -3.9815
  355SOL     MW 1420   0.014   2.212   0.394 -0.0948  0.4808 -0.9996
  356SOL     OW 1421   0.874   2.883   1.063 -0.5109 -0.0138 -0.2223
  356SOL    HW1 1422   0.905   2.877   0.968 -0.4432 -0.5086 -2.0495
  356SOL    HW2 1423   0.783   2.869   1.063 -0.8119  1.7750  0.3752
  356SOL     MW 1424   0.866   2.880   1.051 -0.5417  0.1570 -0.3846
  357SOL     OW 1425   1.789   2.943   0.389  0.4414 -0.0652  0.7510
  357SOL    HW1 1426   1.727   2.886   0.441 -1.1675 -1.2765 -1.9005
  357SOL    HW2 1427   1.850   2.880   0.380  0.7270  4.7987  1.1845
  357SOL     MW 1428   1.789   2.927   0.395  0.2668  0.4167  0.4584
  358SOL     OW 1429   0.450   0.070   1.071  0.9375 -0.1269 -0.0795
  358SOL    HW1 1430   0.542   0.045   1.056  1.0213 -2.8610 -0.6796
  358SOL    HW2 1431   0.429   0.113   0.989  1.0444 -0.5891 -0.6262
  358SOL     MW 1432   0.459   0.073   1.058  0.9627 -0.5486 -0.2308
  359SOL     OW 1433   0.896   2.837   1.830 -0.3383 -0.4125  0.1915
  359SOL    HW1 1434   0.882   2.747   1.874  0.4744  1.1496  2.0260
  359SOL    HW2 1435   0.968   2.834   1.765  1.3014 -2.8996 -3.7015
  359SOL     MW 1436   0.904   2.825   1.827 -0.0147 -0.5345 -0.0801
  360SOL     OW 1437   0.585   2.796   1.015 -0.0585  0.1315 -0.1989
  360SOL    HW1 1438   0.619   2.758   0.931  0.8180 -0.7449  1.6371
  360SOL    HW2 1439   0.570   2.713   1.065 -0.8306  1.8489  0.0923
  360SOL     MW 1440   0.587   2.780   1.011 -0.0447  0.2425  0.0818
  361SOL     OW 1441   0.187   2.714   1.334 -0.1785  0.3130  0.1350
  361SOL    HW1 1442   0.139   2.791   1.368  1.6358 -2.3355  0.6708
  361SOL    HW2 1443   0.270   2.711   1.377  0.0700  0.2773  0.9368
  361SOL     MW 1444   0.192   2.724   1.344  0.0936 -0.0412  0.3115
  362SOL     OW 1445   1.451   2.444   0.654  0.7182  0.0910 -0.3377
  362SOL    HW1 1446   1.462   2.370   0.709 -2.0904  1.9454 -1.4931
  362SOL    HW2 1447   1.479   2.520   0.710 -2.0268  0.0066  1.2525
  362SOL     MW 1448   1.456   2.444   0.669 -0.0145  0.3245 -0.2803
  363SOL     OW 1449   0.302   3.074   0.688 -0.1576  0.1365  0.4674
  363SOL    HW1 1450   0.312   3.020   0.771 -1.9611  1.1796 -0.7854
  363SOL    HW2 1451   0.208   3.066   0.669  1.6385 -0.1354 -0.7022
  363SOL     MW 1452   0.291   3.066   0.696 -0.1586  0.2383  0.1478
  364SOL     OW 1453   0.715   0.223   0.228 -0.8820  0.0247 -0.0935
  364SOL    HW1 1454   0.639   0.165   0.229  1.9681  1.2627  1.4746
  364SOL    HW2 1455   0.700   0.285   0.155 -1.8287 -1.9621 -0.7243
  364SOL     MW 1456   0.703   0.224   0.218 -0.6308 -0.0741  0.0301
  365SOL     OW 1457   0.957   1.957   1.098  0.9652 -0.4202 -0.0263
  365SOL    HW1 1458   0.912   2.042   1.062 -0.1341  2.4761  0.3115
  365SOL    HW2 1459   0.896   1.890   1.056 -1.7355 -2.6140  0.3953
  365SOL     MW 1460   0.943   1.959   1.088  0.4638 -0.3275  0.0739
  366SOL     OW 1461   2.862   2.616   1.074 -0.4579 -0.0607  0.5934
  366SOL    HW1 1462   2.939   2.641   1.129 -1.0841 -0.2388 -0.4033
  366SOL    HW2 1463   2.883   2.630   0.980 -0.0333  0.6500 -1.1817
  366SOL     MW 1464   2.875   2.621   1.069 -0.4845  0.0096  0.2277
  367SOL     OW 1465   1.237   2.848   0.903 -0.0923  0.1912  0.2592
  367SOL    HW1 1466   1.202   2.940   0.889  3.9294  1.3505 -0.4180
  367SOL    HW2 1467   1.214   2.801   0.823 -2.0484  1.6755 -0.4829
  367SOL     MW 1468   1.229   2.854   0.890  0.1803  0.5400  0.0719
  368SOL     OW 1469   1.673   0.437   0.667 -0.0447 -0.2925 -0.0181
  368SOL    HW1 1470   1.737   0.370   0.680  0.9176  0.4132 -1.3581
  368SOL    HW2 1471   1.709   0.524   0.700  0.2809  1.4704  0.2170
  368SOL     MW 1472   1.686   0.440   0.673  0.1252  0.0332 -0.1639
  369SOL     OW 1473   0.169   2.457   1.670 -0.1816  0.4023 -0.0878
  369SOL    HW1 1474   0.243   2.448   1.729  0.1264  0.3119 -2.6768
  369SOL    HW2 1475   0.124   2.539   1.690 -1.0061  0.3633  1.1874
  369SOL     MW 1476   0.173   2.466   1.680 -0.2497  0.3852 -0.2612
  370SOL     OW 1477   0.750   0.067   1.008 -0.0935 -0.1645  0.2361
  370SOL    HW1 1478   0.824   0.120   1.024 -1.2519  0.2484 -1.4262
  370SOL    HW2 1479   0.792  -0.016   1.028 -1.6482 -0.0748 -3.9430
  370SOL     MW 1480   0.766   0.063   1.013 -0.4515 -0.0982 -0.5346
  371SOL     OW 1481   1.333   2.995   1.515 -0.0300 -0.5186  0.1653
  371SOL    HW1 1482   1.265   2.925   1.506  0.3854 -0.8438  1.1839
  371SOL    HW2 1483   1.320   3.061   1.447 -0.1267  1.6848  1.9446
  371SOL     MW 1484   1.323   2.994   1.505  0.0121 -0.2708  0.5344
  372SOL     OW 1485   0.778   2.322   0.471 -0.0096  0.3766 -0.7931
  372SOL    HW1 1486   0.739   2.231   0.491 -0.6016 -0.3331 -1.4182
  372SOL    HW2 1487   0.796   2.302   0.375 -2.5234  0.5488  0.1581
  372SOL     MW 1488   0.775   2.308   0.461 -0.4193  0.3057 -0.7501
  373SOL     OW 1489   2.798   3.025   1.378 -0.0942 -0.1727  0.3543
  373SOL    HW1 1490   2.883   2.990   1.347  1.4728  0.8187  1.9496
  373SOL    HW2 1491   2.787   3.109   1.328 -0.2252 -2.0730 -0.3601
  373SOL     MW 1492   2.808   3.031   1.368  0.0953 -0.2926  0.4706
  374SOL     OW 1493   1.541   0.502   0.219 -0.0516 -0.8951  0.5615
  374SOL    HW1 1494   1.636   0.502   0.198  1.9620  0.1927 -2.9773
  374SOL    HW2 1495   1.538   0.484   0.313 -1.8171 -1.6499 -0.1818
  374SOL     MW 1496   1.553   0.499   0.229 -0.0189 -0.8512 -0.0035
  375SOL     OW 1497   1.107   2.098   2.284 -0.1911  0.0392  0.1681
  375SOL    HW1 1498   1.151   2.090   2.364 -0.5778  0.9376 -0.6601
  375SOL    HW2 1499   1.114   2.015   2.240 -1.1210  0.4842 -0.1323
  375SOL     MW 1500   1.114   2.086   2.289 -0.3648  0.2165  0.0192
  376SOL     OW 1501   0.672   2.515   0.067 -0.3106  0.1674  0.4647
  376SOL    HW1 1502   0.644   2.480   0.151 -1.6560 -2.8169  1.7844
  376SOL    HW2 1503   0.632   2.455  -0.006  0.1095  0.0863 -0.5588
  376SOL     MW 1504   0.663   2.502   0.068 -0.4327 -0.2371  0.5038
  377SOL     OW 1505   1.333   1.984   0.859  0.4136 -0.0785 -0.1287
  377SOL    HW1 1506   1.251   1.980   0.811 -0.2056  0.2703  1.5870
  377SOL    HW2 1507   1.305   1.929   0.936  3.3760 -0.1076  0.4315
  377SOL     MW 1508   1.319   1.976   0.863  0.7227 -0.0363  0.1716
  378SOL     OW 1509   1.029   2.830   1.568  0.0430 -0.1098  0.3446
  378SOL    HW1 1510   1.014   2.738   1.547 -0.2122 -0.2766  0.6158
  378SOL    HW2 1511   0.971   2.876   1.506  0.1158  1.8524  2.6212
  378SOL     MW 1512   1.020   2.824   1.557  0.0189  0.1271  0.6807
  379SOL     OW 1513   1.131   1.762   2.294 -0.2270 -0.0960  0.4350
  379SOL    HW1 1514   1.039   1.780   2.317 -1.8032 -2.1010 -0.2401
  379SOL    HW2 1515   1.140   1.708   2.213  1.0977  0.4360 -1.4521
  379SOL     MW 1516   1.120   1.757   2.286 -0.2602 -0.2904  0.0969
  380SOL     OW 1517   0.829   0.072   1.574 -0.2745 -0.0199  0.2941
  380SOL    HW1 1518   0.882   0.052   1.491  1.2914 -0.1532 -0.7725
  380SOL    HW2 1519   0.890   0.106   1.644  0.0086 -1.6997  1.8175
  380SOL     MW 1520   0.844   0.074   1.572 -0.0305 -0.2591  0.3544
  381SOL     OW 1521   0.812   2.005   0.775 -0.1875  0.3305 -0.0137
  381SOL    HW1 1522   0.905   2.005   0.750 -0.3829 -1.3770  1.2379
  381SOL    HW2 1523   0.811   2.054   0.860  0.6306 -0.9791  2.6248
  381SOL     MW 1524   0.824   2.012   0.783 -0.1054 -0.0676  0.4995
  382SOL     OW 1525   0.672   0.099   0.720 -0.3205  0.2824 -0.1818
  382SOL    HW1 1526   0.684   0.122   0.816 -1.2702 -0.5277  0.8382
  382SOL    HW2 1527   0.651   0.007   0.727 -1.0417  0.5996 -1.9762
  382SOL     MW 1528   0.671   0.090   0.734 -0.5409  0.2174 -0.2839
  383SOL     OW 1529   0.498   0.023   0.365  0.4754 -0.2684  0.2644
  383SOL    HW1 1530   0.514  -0.030   0.290 -0.1080  1.7437 -2.4983
  383SOL    HW2 1531   0.459  -0.041   0.426  1.2921 -0.4682 -0.3659
  383SOL     MW 1532   0.495   0.007   0.363  0.5062 -0.0293 -0.1833
  384SOL     OW 1533   0.646   2.914   0.650 -0.0307 -0.0153  0.2293
  384SOL    HW1 1534   0.631   2.822   0.692  1.6858  0.2391  0.5455
  384SOL    HW2 1535   0.573   2.916   0.592 -0.0221  0.3433 -0.6401
  384SOL     MW 1536   0.635   2.902   0.648  0.1969  0.0656  0.1563
  385SOL     OW 1537   1.346   2.071   1.511  0.2411  0.0709  0.2068
  385SOL    HW1 1538   1.427   2.094   1.562  0.8249  2.9209 -1.6702
  385SOL    HW2 1539   1.310   2.002   1.576  0.6313 -0.1184 -1.0321
  385SOL     MW 1540   1.352   2.065   1.526  0.3696  0.4220 -0.2043
  386SOL     OW 1541   1.344   0.378   0.848 -0.5040  0.1868  0.3975
  386SOL    HW1 1542   1.259   0.350   0.807 -4.0799  3.0703 -2.5521
  386SOL    HW2 1543   1.312   0.381   0.939  0.0513  0.9789 -1.0282
  386SOL     MW 1544   1.329   0.375   0.854 -0.9025  0.6718 -0.1798
  387SOL     OW 1545   0.864   2.213   1.434  0.6164 -0.2759 -0.1076
  387SOL    HW1 1546   0.942   2.252   1.391  1.3129  0.4117  1.7169
  387SOL    HW2 1547   0.864   2.119   1.404  0.8516 -0.6712 -0.1210
  387SOL     MW 1548   0.874   2.206   1.425  0.7393 -0.2373  0.1314
  388SOL     OW 1549   1.558   2.759   1.223 -0.3699 -0.2461 -0.4590
  388SOL    HW1 1550   1.478   2.719   1.189 -1.7494 -0.2407  1.0018
  388SOL    HW2 1551   1.628   2.697   1.194  0.7496  1.0927 -2.1817
  388SOL     MW 1552   1.557   2.745   1.215 -0.4042 -0.0687 -0.4936
  389SOL     OW 1553   0.361   3.085   3.050  0.5971 -0.0898  0.0655
  389SOL    HW1 1554   0.425   3.028   3.016 -0.5998 -2.7812  0.7680
  389SOL    HW2 1555   0.323   3.123   2.973 -1.4673  1.5332 -2.1093
  389SOL     MW 1556   0.365   3.082   3.035  0.1668 -0.2308 -0.1288
  390SOL     OW 1557   1.303   0.081   0.651  0.2738  0.1833  0.1344
  390SOL    HW1 1558   1.382   0.110   0.600 -1.4364  2.9525 -1.2009
  390SOL    HW2 1559   1.324   0.056   0.739 -0.2474  3.9504  0.1597
  390SOL     MW 1560   1.316   0.081   0.656 -0.0206  1.0457 -0.0384
  391SOL     OW 1561   0.278   2.249   1.411  0.3479  0.4308 -0.5148
  391SOL    HW1 1562   0.222   2.179   1.453 -0.5227 -0.9563 -0.4270
  391SOL    HW2 1563   0.216   2.316   1.369  0.4912 -2.4005 -1.7147
  391SOL     MW 1564   0.262   2.248   1.411  0.2520 -0.1258 -0.6615
  392SOL     OW 1565   2.069   2.119   0.387  0.0219 -0.0320  0.2604
  392SOL    HW1 1566   2.161   2.109   0.408 -0.1364 -1.0975  0.1672
  392SOL    HW2 1567   2.054   2.189   0.445  1.7392 -0.2549 -3.4388
  392SOL     MW 1568   2.079   2.127   0.397  0.2276 -0.2020 -0.2400
  393SOL     OW 1569   0.185   3.020   2.718  0.3593 -0.2355 -0.4059
  393SOL    HW1 1570   0.234   3.104   2.742  0.5116  0.9479 -1.4237
  393SOL    HW2 1571   0.091   3.049   2.736 -0.4259 -2.0728 -0.0676
  393SOL     MW 1572   0.179   3.035   2.724  0.2758 -0.3218 -0.4956
  394SOL     OW 1573   0.884   1.711   1.505  0.3907  0.8521 -0.2872
  394SOL    HW1 1574   0.826   1.740   1.574  0.5297 -0.2599  3.0683
  394SOL    HW2 1575   0.877   1.789   1.441 -0.0843  1.8513 -0.5390
  394SOL     MW 1576   0.876   1.725   1.506  0.3464  0.8372  0.1223
  395SOL     OW 1577   0.996   2.819   2.646  0.5857 -0.8568 -0.1283
  395SOL    HW1 1578   1.046   2.896   2.684  0.5422  0.9111 -0.1493
  395SOL    HW2 1579   1.067   2.768   2.597 -0.4325  0.3520 -1.3880
  395SOL     MW 1580   1.012   2.822   2.645  0.4456 -0.4641 -0.2973
  396SOL     OW 1581   0.875   1.873   2.384 -0.2024 -0.1803  0.3098
  396SOL    HW1 1582   0.905   1.887   2.476  0.9057  2.2692 -0.6997
  396SOL    HW2 1583   0.837   1.782   2.382  0.5344  2.1787 -0.3726
  396SOL     MW 1584   0.874   1.863   2.396  0.0410  0.4541  0.0865
  397SOL     OW 1585   1.041   2.353   1.310 -0.7822 -0.4787  0.0252
  397SOL    HW1 1586   1.083   2.359   1.223  2.6862 -3.3596  0.5361
  397SOL    HW2 1587   1.113   2.364   1.380  0.8481  3.7878 -0.7389
  397SOL     MW 1588   1.056   2.355   1.308 -0.1095 -0.2959 -0.0082
  398SOL     OW 1589   0.610   2.668   0.774 -0.4882  0.4488 -0.0347
  398SOL    HW1 1590   0.524   2.624   0.802 -3.9571 -1.2642 -1.7402
  398SOL    HW2 1591   0.663   2.598   0.736 -0.1965  0.2624 -0.8053
  398SOL     MW 1592   0.606   2.653   0.773 -0.9074  0.1982 -0.3614
  399SOL     OW 1593   0.266   2.081   0.460  0.0637  0.0438  0.2419
  399SOL    HW1 1594   0.196   2.146   0.432 -0.2436  1.1280 -1.0684
  399SOL    HW2 1595   0.326   2.085   0.381 -0.7781  2.6773 -1.2885
  399SOL     MW 1596   0.264   2.090   0.446 -0.0879  0.5343 -0.1329
  400SOL     OW 1597   0.564   1.805   0.172  0.0311  0.7005  0.6360
  400SOL    HW1 1598   0.550   1.899   0.194 -0.9490  0.7456  1.8997
  400SOL    HW2 1599   0.540   1.758   0.245 -1.3833 -0.4280 -4.8976
  400SOL     MW 1600   0.559   1.811   0.185 -0.2848  0.5576  0.0727
  401SOL     OW 1601   0.916   2.082   0.137 -0.2309 -0.4405 -0.2067
  401SOL    HW1 1602   0.916   1.985   0.132 -0.5825 -0.4027 -1.2410
  401SOL    HW2 1603   0.972   2.103   0.220  2.3930 -0.8740  0.7056
  401SOL     MW 1604   0.923   2.072   0.147  0.0689 -0.4927 -0.2228
  402SOL     OW 1605   0.681   2.956   1.684  0.1261  0.1638  0.0638
  402SOL    HW1 1606   0.746   2.900   1.733  1.4553  1.0805 -0.0606
  402SOL    HW2 1607   0.719   3.046   1.679 -2.1793  4.2661  1.1608
  402SOL     MW 1608   0.695   2.961   1.690 -0.0027  0.8260  0.1921
  403SOL     OW 1609   0.088   0.418   0.404  0.2590  0.0903 -0.0030
  403SOL    HW1 1610   0.154   0.461   0.460  0.1961 -0.5304  1.9421
  403SOL    HW2 1611   0.126   0.371   0.335 -0.6193  1.9420  0.1656
  403SOL     MW 1612   0.102   0.418   0.402  0.1348  0.2527  0.2759
  404SOL     OW 1613   0.927   2.834   0.801 -0.7551  0.3922 -0.5063
  404SOL    HW1 1614   1.003   2.790   0.768  0.9019  0.1069  0.8534
  404SOL    HW2 1615   0.919   2.919   0.757  0.4141  1.0622  0.5265
  404SOL     MW 1616   0.936   2.839   0.791 -0.3822  0.4429 -0.1906
  405SOL     OW 1617   0.491   2.363   1.511 -0.8391 -0.5697 -0.1440
  405SOL    HW1 1618   0.476   2.451   1.476 -0.2216 -0.4099 -2.0947
  405SOL    HW2 1619   0.404   2.315   1.486  2.0170  2.6711  0.2244
  405SOL     MW 1620   0.477   2.368   1.503 -0.3808 -0.1210 -0.3527
  406SOL     OW 1621   0.340   2.400   1.102 -0.0725  0.2441  0.7020
  406SOL    HW1 1622   0.241   2.395   1.085 -1.6533  0.8634  0.7375
  406SOL    HW2 1623   0.369   2.310   1.106 -1.2305  0.2769 -0.5454
  406SOL     MW 1624   0.331   2.387   1.100 -0.4339  0.3301  0.5421
  407SOL     OW 1625   0.019   2.750   1.129 -0.5418 -0.3232 -0.4086
  407SOL    HW1 1626   0.092   2.756   1.189  0.6438 -2.4332  3.0794
  407SOL    HW2 1627   0.058   2.699   1.060 -0.1739  2.3502  3.0138
  407SOL     MW 1628   0.034   2.744   1.128 -0.3368 -0.2488  0.5032
  408SOL     OW 1629   2.074   2.052   0.725 -0.4461  0.1191  0.4350
  408SOL    HW1 1630   2.033   2.091   0.798  0.8065  0.9281  0.2650
  408SOL    HW2 1631   2.001   1.995   0.689 -0.8151 -0.6578  0.3360
  408SOL     MW 1632   2.059   2.049   0.729 -0.3295  0.1233  0.3995
  409SOL     OW 1633   1.366   0.012   0.929 -0.6495  1.0664  0.3144
  409SOL    HW1 1634   1.386   0.105   0.915  0.9536 -0.2240  1.3908
  409SOL    HW2 1635   1.441  -0.018   0.981  0.2515 -2.3590 -0.3525
  409SOL     MW 1636   1.379   0.020   0.934 -0.3191  0.4442  0.3684
  410SOL     OW 1637   1.123   2.424   1.068  0.3933  0.5565 -0.2803
  410SOL    HW1 1638   1.044   2.416   1.007 -2.1595  1.5090  1.1318
  410SOL    HW2 1639   1.190   2.369   1.035  0.8593  0.6978 -0.5482
  410SOL     MW 1640   1.121   2.416   1.056  0.1180  0.7008 -0.1293
  411SOL     OW 1641   1.961   0.030   2.862 -0.1798 -0.0322 -0.3282
  411SOL    HW1 1642   1.893  -0.002   2.805  0.2840 -0.3346  0.9077
  411SOL    HW2 1643   1.911   0.059   2.945 -0.2746 -0.2329  1.6580
  411SOL     MW 1644   1.945   0.030   2.866 -0.1311 -0.0986  0.0969
  412SOL     OW 1645   1.014   2.249   0.597 -0.8878  0.4562 -0.0557
  412SOL    HW1 1646   1.085   2.319   0.620  0.3088  0.5654  0.9157
  412SOL    HW2 1647   0.936   2.293   0.554 -2.7512 -1.3405 -1.4746
  412SOL     MW 1648   1.013   2.264   0.595 -0.9758  0.2336 -0.1148
  413SOL     OW 1649   0.555   2.741   0.020 -0.3414 -0.3025 -0.7658
  413SOL    HW1 1650   0.590   2.649   0.044 -1.0946 -0.8735  0.6497
  413SOL    HW2 1651   0.603   2.780  -0.057 -0.3605 -0.8784  3.8543
  413SOL     MW 1652   0.566   2.734   0.013 -0.4433 -0.4538  0.0305
  414SOL     OW 1653   1.909   2.997   1.076  0.8741  0.2565 -0.3320
  414SOL    HW1 1654   1.862   2.995   0.988 -1.1127  1.0131  0.5418
  414SOL    HW2 1655   1.946   2.913   1.089 -1.8458 -0.8875  0.7244
  414SOL     MW 1656   1.908   2.986   1.066  0.2531  0.2054 -0.0773
  415SOL     OW 1657   1.725   2.569   1.126 -0.0918 -0.5997 -0.1948
  415SOL    HW1 1658   1.700   2.506   1.193  1.2682  3.8321  0.7662
  415SOL    HW2 1659   1.792   2.634   1.158 -0.8979  0.6130  2.2876
  415SOL     MW 1660   1.731   2.569   1.139 -0.0187  0.1450  0.2595
  416SOL     OW 1661   0.560   1.946   1.375 -0.6878 -0.0711 -0.4928
  416SOL    HW1 1662   0.502   1.984   1.312  0.8306 -0.6372 -0.7250
  416SOL    HW2 1663   0.531   1.854   1.380 -0.9490  3.0796  1.8999
  416SOL     MW 1664   0.548   1.939   1.367 -0.5219  0.2699 -0.2077
  417SOL     OW 1665   0.956   3.006   2.044  0.3992  0.2224  0.7053
  417SOL    HW1 1666   0.876   3.013   2.095 -1.7020  1.4004  0.0438
  417SOL    HW2 1667   0.938   2.956   1.963 -1.2040 -1.0486 -0.7283
  417SOL     MW 1668   0.943   3.000   2.040 -0.0896  0.2101  0.4289
  418SOL     OW 1669   0.608   2.948   0.176  0.4215 -0.2025 -0.0173
  418SOL    HW1 1670   0.671   2.985   0.107 -0.3008 -1.4753  0.1757
  418SOL    HW2 1671   0.582   2.858   0.139  2.0633  1.0361  1.0138
  418SOL     MW 1672   0.613   2.941   0.162  0.5428 -0.2070  0.1442
  419SOL     OW 1673   0.461   2.628   1.405 -0.1994 -0.5666  0.2599
  419SOL    HW1 1674   0.508   2.711   1.417  1.8255 -0.4908 -1.2176
  419SOL    HW2 1675   0.500   2.585   1.327  0.8349  2.7237 -3.5311
  419SOL     MW 1676   0.473   2.633   1.396  0.2043 -0.1224 -0.4352
  420SOL     OW 1677   0.826   2.166   1.004  0.2496  0.4821 -0.1295
  420SOL    HW1 1678   0.756   2.188   1.072 -0.5934 -2.5939 -3.3181
  420SOL    HW2 1679   0.847   2.250   0.971  2.1683 -1.6232  0.6170
  420SOL     MW 1680   0.819   2.180   1.009  0.3915 -0.2015 -0.4517
  421SOL     OW 1681   2.940   0.081   0.024 -0.0308  0.0806 -0.5237
  421SOL    HW1 1682   2.906   0.051  -0.062  0.7415 -0.7172 -1.6587
  421SOL    HW2 1683   2.964   0.000   0.074  0.8232 -0.7716  1.2138
  421SOL     MW 1684   2.938   0.066   0.019  0.1838 -0.1371 -0.4442
  422SOL     OW 1685   0.892   2.423   0.915  0.4037  0.4917 -0.4313
  422SOL    HW1 1686   0.846   2.495   0.956  1.4935  0.0433  0.6473
  422SOL    HW2 1687   0.891   2.452   0.828 -0.7833 -1.3772 -0.0895
  422SOL     MW 1688   0.885   2.436   0.909  0.3908  0.1859 -0.2439
  423SOL     OW 1689   1.521   0.164   0.504 -0.2371  0.3151  0.0095
  423SOL    HW1 1690   1.514   0.122   0.420 -0.1860 -2.1856  2.0450
  423SOL    HW2 1691   1.504   0.254   0.472  3.7080 -2.9346 -0.7072
  423SOL     MW 1692   1.518   0.170   0.489  0.2901 -0.4436  0.1835
  424SOL     OW 1693   0.676   2.242   1.197  0.1646  0.3118 -0.4406
  424SOL    HW1 1694   0.609   2.187   1.240 -0.8176 -1.4596  1.3447
  424SOL    HW2 1695   0.738   2.273   1.265  2.9296  0.9240  0.1966
  424SOL     MW 1696   0.676   2.239   1.211  0.3998  0.1589 -0.1210
  425SOL     OW 1697   1.713   2.853   1.955  0.2212  0.3006  0.3360
  425SOL    HW1 1698   1.759   2.864   1.866  1.4986  0.7550 -2.5151
  425SOL    HW2 1699   1.759   2.773   1.988  0.3135  0.2939  2.8305
  425SOL     MW 1700   1.725   2.844   1.947  0.4019  0.3597  0.2890
  426SOL     OW 1701   0.824   1.681   1.927  0.6111  0.6417  0.3719
  426SOL    HW1 1702   0.768   1.706   1.852 -0.4017 -1.7829  0.3572
  426SOL    HW2 1703   0.787   1.743   1.993  2.1849  0.0577 -2.9916
  426SOL     MW 1704   0.812   1.692   1.926  0.6851  0.2447 -0.0738
  427SOL     OW 1705   0.342   1.536   1.904 -0.2051  0.2404  0.1548
  427SOL    HW1 1706   0.413   1.476   1.908 -1.8032 -0.0825  1.1220
  427SOL    HW2 1707   0.280   1.526   1.976 -0.5366  1.3672 -4.1018
  427SOL     MW 1708   0.343   1.527   1.914 -0.4597  0.3465 -0.2792
  428SOL     OW 1709   0.576   2.547   1.170  0.1369  0.2821  0.2184
  428SOL    HW1 1710   0.647   2.501   1.217  0.4955  0.5341  0.0608
  428SOL    HW2 1711   0.505   2.488   1.142 -0.5231  1.3969 -1.0067
  428SOL     MW 1712   0.576   2.533   1.172  0.0971  0.4625  0.0360
  429SOL     OW 1713   1.312   2.623   1.068  0.3724  0.0713  0.1786
  429SOL    HW1 1714   1.236   2.566   1.052 -0.6722 -1.3745 -0.1107
  429SOL    HW2 1715   1.277   2.711   1.035 -0.4706  1.1150 -0.8919
  429SOL     MW 1716   1.297   2.627   1.061  0.1234  0.0182 -0.0008
  430SOL     OW 1717   1.163   2.709   0.663  0.1726 -0.0428 -0.1660
  430SOL    HW1 1718   1.171   2.612   0.677  1.9456 -0.1794  0.7573
  430SOL    HW2 1719   1.104   2.718   0.592  0.8123  1.1825 -0.0854
  430SOL     MW 1720   1.156   2.698   0.656  0.4909  0.1008 -0.0335
  431SOL     OW 1721   0.275   1.887   1.125 -0.9852  0.0167 -0.2660
  431SOL    HW1 1722   0.364   1.841   1.125 -0.4497  2.2964 -0.6534
  431SOL    HW2 1723   0.286   1.939   1.044 -3.8064 -0.7286 -0.3629
  431SOL     MW 1724   0.288   1.887   1.115 -1.2868  0.2191 -0.3299
  432SOL     OW 1725   0.013   0.068   1.134 -0.0396 -0.8116 -0.5058
  432SOL    HW1 1726   0.012   0.106   1.227 -2.5849 -0.7732  0.8977
  432SOL    HW2 1727  -0.051  -0.003   1.127  3.6368 -1.6681  0.0314
  432SOL     MW 1728   0.004   0.064   1.146  0.1096 -0.9196 -0.2498
  433SOL     OW 1729   0.623   2.847   1.414  0.2628  0.2019 -0.0968
  433SOL    HW1 1730   0.628   2.886   1.507  1.3883 -2.2571  0.0193
  433SOL    HW2 1731   0.713   2.869   1.386  1.2197 -0.2529  1.3486
  433SOL     MW 1732   0.635   2.855   1.423  0.5375 -0.1826  0.1092
  434SOL     OW 1733   1.584   2.851   1.481 -0.1430  0.8404 -0.3518
  434SOL    HW1 1734   1.499   2.893   1.508  1.2059  0.3272  0.2117
  434SOL    HW2 1735   1.582   2.819   1.392 -1.8107 -2.8844 -1.0345
  434SOL     MW 1736   1.573   2.853   1.473 -0.1850  0.2813 -0.3675
  435SOL     OW 1737   2.818   1.793   0.183 -0.3690  0.7197  0.2855
  435SOL    HW1 1738   2.868   1.861   0.142  0.2533  0.5041  0.4575
  435SOL    HW2 1739   2.795   1.728   0.109  0.7363 -0.6740 -1.5557
  435SOL     MW 1740   2.822   1.793   0.168 -0.1411  0.5074  0.0653
  436SOL     OW 1741   1.276   2.756   0.305 -0.3436  0.4494  0.0675
  436SOL    HW1 1742   1.333   2.731   0.375 -1.5794  1.3664  1.2518
  436SOL    HW2 1743   1.245   2.842   0.329 -0.9172  1.3891  1.4632
  436SOL     MW 1744   1.279   2.764   0.317 -0.5823  0.6944  0.4079
  437SOL     OW 1745   0.873   2.898   1.354 -0.2483  0.1148  0.1790
  437SOL    HW1 1746   0.884   2.982   1.309  0.4557  0.6187  1.2698
  437SOL    HW2 1747   0.937   2.838   1.311  0.4597  0.4946 -0.3777
  437SOL     MW 1748   0.883   2.901   1.342 -0.0620  0.2314  0.2495
  438SOL     OW 1749   0.890   2.604   1.961  0.1211 -0.7884  0.2255
  438SOL    HW1 1750   0.865   2.587   2.053 -0.3335  3.0576 -0.7685
  438SOL    HW2 1751   0.854   2.542   1.896 -1.8941 -0.8940  1.6635
  438SOL     MW 1752   0.882   2.594   1.965 -0.2048 -0.2949  0.2841
  439SOL     OW 1753   1.093   2.125   0.355 -0.3760  0.2203  0.0004
  439SOL    HW1 1754   1.045   2.139   0.433  2.5794  0.8293  0.6708
  439SOL    HW2 1755   1.105   2.216   0.330 -0.0470  0.4520 -0.7831
  439SOL     MW 1756   1.088   2.139   0.362  0.0573  0.3312 -0.0145
  440SOL     OW 1757   1.655   2.907   3.040  0.6451  0.3253 -0.3191
  440SOL    HW1 1758   1.603   2.882   3.114 -1.7679  2.6451  1.7601
  440SOL    HW2 1759   1.724   2.838   3.034  0.7952  1.2701  1.9615
  440SOL     MW 1760   1.657   2.894   3.049  0.3465  0.7560  0.2562
  441SOL     OW 1761   0.348   2.621   0.524 -0.0360  0.4374 -0.1954
  441SOL    HW1 1762   0.325   2.600   0.429  3.0553 -0.0726 -0.7458
  441SOL    HW2 1763   0.378   2.713   0.527  1.2847  3.3876  0.7154
  441SOL     MW 1764   0.349   2.630   0.512  0.5461  0.7593 -0.1479
  442SOL     OW 1765   3.049   2.354   0.632  0.0027  0.4957  0.3394
  442SOL    HW1 1766   3.068   2.445   0.599 -0.5841 -0.1447  1.8376
  442SOL    HW2 1767   2.966   2.353   0.679 -0.7333 -0.8494 -1.2083
  442SOL     MW 1768   3.041   2.366   0.634 -0.1718  0.2337  0.3329
  443SOL     OW 1769   1.356   1.761   1.852 -0.4059 -0.5697  0.2979
  443SOL    HW1 1770   1.299   1.784   1.774 -0.5905  0.8297  0.9187
  443SOL    HW2 1771   1.338   1.675   1.885 -0.8167 -1.6224  1.6538
  443SOL     MW 1772   1.346   1.752   1.846 -0.4844 -0.5240  0.5587
  444SOL     OW 1773   0.922   2.571   1.546  0.1900 -0.0660  0.2425
  444SOL    HW1 1774   0.990   2.534   1.606  2.9230  1.5632  2.0853
  444SOL    HW2 1775   0.842   2.580   1.600  0.1748 -2.4385 -1.1358
  444SOL     MW 1776   0.920   2.567   1.561  0.5486 -0.1641  0.3038
  445SOL     OW 1777   0.949   0.050   1.257  0.2487 -0.9680 -0.4798
  445SOL    HW1 1778   0.916   0.141   1.250  0.3344  2.0267 -0.1348
  445SOL    HW2 1779   1.015   0.029   1.190  2.3185  0.6648  1.7477
  445SOL     MW 1780   0.953   0.060   1.248  0.5331 -0.3574 -0.1404
  446SOL     OW 1781   2.695   2.844   1.097  0.3813  0.2427  0.6197
  446SOL    HW1 1782   2.678   2.869   1.004  0.8395 -0.6241 -1.2482
  446SOL    HW2 1783   2.721   2.750   1.103 -1.0614  0.4182  1.8901
  446SOL     MW 1784   2.696   2.835   1.086  0.2514  0.1515  0.5409
  447SOL     OW 1785   3.023   2.065   1.652 -0.0456  0.0822 -0.5228
  447SOL    HW1 1786   3.080   2.006   1.703 -0.1772  0.6330 -0.3149
  447SOL    HW2 1787   2.945   2.023   1.621  0.9805  1.5859  1.2642
  447SOL     MW 1788   3.020   2.051   1.655  0.0724  0.3533 -0.2596
  448SOL     OW 1789   1.679   2.352   1.672 -0.1096 -0.8105 -0.2447
  448SOL    HW1 1790   1.617   2.273   1.674  0.8449 -1.1017 -0.4458
  448SOL    HW2 1791   1.619   2.427   1.656  3.0264 -2.4550  0.8128
  448SOL     MW 1792   1.663   2.351   1.670  0.4301 -1.0659 -0.1317
  449SOL     OW 1793   0.768   2.867   0.380 -0.3784 -0.4440 -0.4965
  449SOL    HW1 1794   0.719   2.888   0.298  0.6394 -1.5661 -1.1847
  449SOL    HW2 1795   0.720   2.905   0.450  2.1146 -3.0008 -0.3826
  449SOL     MW 1796   0.755   2.875   0.378  0.0848 -0.9294 -0.5723
  450SOL     OW 1797   1.186   2.437   0.699 -0.0334  0.2730 -0.1981
  450SOL    HW1 1798   1.208   2.373   0.769 -2.3009 -1.2683 -2.2158
  450SOL    HW2 1799   1.281   2.451   0.665 -0.3369  2.8183 -0.3558
  450SOL     MW 1800   1.201   2.430   0.704 -0.3726  0.4055 -0.4852
  451SOL     OW 1801   0.610   2.021   1.634  0.6671  0.3953  0.2984
  451SOL    HW1 1802   0.659   2.103   1.629  1.7340  2.6957  0.0759
  451SOL    HW2 1803   0.589   2.002   1.541 -2.8764 -0.6047  0.5482
  451SOL     MW 1804   0.614   2.030   1.621  0.3403  0.5669  0.3020
  452SOL     OW 1805   0.277   2.752   0.057  0.0579  0.0857  0.2632
  452SOL    HW1 1806   0.361   2.727   0.027 -1.0530  1.3518 -1.7076
  452SOL    HW2 1807   0.229   2.758  -0.031  1.1599 -1.6859 -1.6097
  452SOL     MW 1808   0.282   2.749   0.041  0.0567  0.0190 -0.2440
  453SOL     OW 1809   0.390   3.025   1.719 -0.3459  0.5502 -0.1564
  453SOL    HW1 1810   0.487   3.003   1.710  1.5910  0.7459 -0.7973
  453SOL    HW2 1811   0.358   3.015   1.627 -1.2821 -0.8993  0.4003
  453SOL     MW 1812   0.399   3.021   1.706 -0.2139  0.3848 -0.1675
  454SOL     OW 1813   1.021   2.690   1.218 -0.3972 -0.3259 -0.5221
  454SOL    HW1 1814   0.976   2.608   1.239 -1.3786 -0.6675  1.1978
  454SOL    HW2 1815   0.976   2.737   1.146 -2.6429  1.5159  0.4547
  454SOL     MW 1816   1.009   2.685   1.211 -0.8230 -0.1280 -0.1663
  455SOL     OW 1817   1.519   2.932   0.195 -0.0859  0.5605 -0.0135
  455SOL    HW1 1818   1.598   2.907   0.244  1.3965 -2.4466 -0.2291
  455SOL    HW2 1819   1.452   2.860   0.209 -0.0394 -0.5397 -1.1627
  455SOL     MW 1820   1.521   2.919   0.204  0.1158  0.0186 -0.1936
  456SOL     OW 1821   2.893   0.357   1.320  0.4785  0.0896 -0.2506
  456SOL    HW1 1822   2.860   0.288   1.257 -0.2525  0.3243 -1.2163
  456SOL    HW2 1823   2.959   0.397   1.261 -1.1271  0.0194 -1.3362
  456SOL     MW 1824   2.898   0.353   1.304  0.1702  0.1113 -0.5212
  457SOL     OW 1825   0.930   1.562   3.000 -0.0489 -0.8309  0.0841
  457SOL    HW1 1826   0.836   1.552   3.014 -0.2274 -0.0790 -2.0509
  457SOL    HW2 1827   0.969   1.504   3.065 -0.3684  3.2632  0.0707
  457SOL     MW 1828   0.923   1.553   3.011 -0.1146 -0.1915 -0.1993
  458SOL     OW 1829   1.457   1.402   0.573 -0.4618 -0.4839 -0.8274
  458SOL    HW1 1830   1.382   1.435   0.627 -1.2262  0.2667 -1.6530
  458SOL    HW2 1831   1.415   1.349   0.504  1.9050  2.3858  0.0559
  458SOL     MW 1832   1.442   1.400   0.571 -0.2504 -0.0062 -0.8198
  459SOL     OW 1833   1.558   0.108   0.224 -0.3105 -0.1938 -0.1459
  459SOL    HW1 1834   1.552   0.012   0.209 -0.4053 -1.3244 -2.9339
  459SOL    HW2 1835   1.491   0.154   0.168 -0.1382 -2.5759 -1.2060
  459SOL     MW 1836   1.548   0.102   0.215 -0.3003 -0.6573 -0.6536
  460SOL     OW 1837   1.794   2.138   0.669 -0.5195  0.0191  0.6772
  460SOL    HW1 1838   1.700   2.143   0.687  2.9404  1.2018 -1.6334
  460SOL    HW2 1839   1.806   2.085   0.589  0.3525 -2.7632  0.8861
  460SOL     MW 1840   1.784   2.132   0.661  0.0520 -0.1919  0.3999
  461SOL     OW 1841   0.498   2.420   0.620  0.1064 -0.6608 -0.1189
  461SOL    HW1 1842   0.458   2.501   0.585 -1.6198 -1.0533  1.9934
  461SOL    HW2 1843   0.489   2.429   0.718  1.9380  0.6070 -0.6256
  461SOL     MW 1844   0.492   2.432   0.629  0.1203 -0.5453  0.0930
  462SOL     OW 1845   0.320   0.242   1.281  0.2900 -0.1088  0.1530
  462SOL    HW1 1846   0.353   0.162   1.217  1.5031 -2.3377 -1.0794
  462SOL    HW2 1847   0.402   0.268   1.320 -2.9966  0.1051  1.2349
  462SOL     MW 1848   0.335   0.235   1.278  0.0164 -0.3746  0.1332
  463SOL     OW 1849   0.923   3.083   0.682 -0.6757 -0.1158  0.3234
  463SOL    HW1 1850   0.953   3.087   0.589 -1.4872 -3.4632 -1.0817
  463SOL    HW2 1851   0.840   3.125   0.682  2.3114  0.6695 -1.0551
  463SOL     MW 1852   0.916   3.089   0.670 -0.3887 -0.4538 -0.0439
  464SOL     OW 1853   0.775   3.045   2.237  0.2692  0.3867  0.1376
  464SOL    HW1 1854   0.756   2.947   2.263 -0.5089 -3.9134  1.8058
  464SOL    HW2 1855   0.829   3.083   2.309 -0.1249  3.2793  4.1556
  464SOL     MW 1856   0.780   3.037   2.250  0.1145  0.2010  0.8878
  465SOL     OW 1857   0.658   0.304   0.498 -0.2799 -0.1041 -0.4911
  465SOL    HW1 1858   0.682   0.229   0.554  0.4858  0.2411  0.6100
  465SOL    HW2 1859   0.662   0.271   0.405 -1.3172 -0.0914 -2.2425
  465SOL     MW 1860   0.662   0.290   0.493 -0.3157 -0.0568 -0.5769
  466SOL     OW 1861   1.076   2.019   0.749  0.1547 -0.1880  0.1261
  466SOL    HW1 1862   1.092   1.949   0.688 -0.5411  0.1894 -0.5576
  466SOL    HW2 1863   1.077   2.101   0.696  0.2838  0.1951 -1.4548
  466SOL     MW 1864   1.079   2.021   0.734  0.0799 -0.0877 -0.1727
  467SOL     OW 1865   1.265   2.251   0.880  0.0185 -0.1471  0.0711
  467SOL    HW1 1866   1.353   2.289   0.906 -0.9468  2.0479 -0.7170
  467SOL    HW2 1867   1.297   2.161   0.880  2.9425  0.7443  0.1770
  467SOL     MW 1868   1.281   2.244   0.884  0.2769  0.2602 -0.0189
  468SOL     OW 1869   0.359   2.584   1.998 -0.2188 -0.3076 -0.1788
  468SOL    HW1 1870   0.402   2.519   1.937  0.3956  3.0428 -1.8227
  468SOL    HW2 1871   0.361   2.674   1.956  0.4977 -0.1917  0.4495
  468SOL     MW 1872   0.365   2.587   1.985 -0.0432  0.1497 -0.3128
  469SOL     OW 1873   0.378   2.134   1.773 -0.3737  0.0570  0.0607
  469SOL    HW1 1874   0.299   2.078   1.766  1.3714  1.2808 -0.7222
  469SOL    HW2 1875   0.445   2.079   1.733 -0.0419  0.0047 -1.9270
  469SOL     MW 1876   0.376   2.119   1.767 -0.0996  0.2116 -0.3048
  470SOL     OW 1877   3.057   2.605   0.110 -0.4872 -0.8239 -1.1284
  470SOL    HW1 1878   2.969   2.577   0.126 -0.3099  0.2686 -2.6647
  470SOL    HW2 1879   3.058   2.630   0.017  1.7970  1.8922 -1.3019
  470SOL     MW 1880   3.045   2.605   0.100 -0.1624 -0.3214 -1.3540
  471SOL     OW 1881   1.236   2.725   1.397  0.5977  0.4320  0.4868
  471SOL    HW1 1882   1.164   2.760   1.449 -0.6067 -0.5573  1.6329
  471SOL    HW2 1883   1.190   2.702   1.317 -0.4886 -0.1777 -0.6119
  471SOL     MW 1884   1.220   2.727   1.393  0.2954  0.2210  0.4931
  472SOL     OW 1885   2.905   2.056   0.380  0.3202  0.1381  0.1620
  472SOL    HW1 1886   2.924   2.064   0.278 -0.7102 -2.7752 -0.1453
  472SOL    HW2 1887   2.887   1.967   0.413  0.0415 -0.2360  0.4165
  472SOL     MW 1888   2.905   2.046   0.371  0.1474 -0.2956  0.1550
  473SOL     OW 1889   0.792   2.470   1.328  0.1851 -0.1868  0.6087
  473SOL    HW1 1890   0.865   2.404   1.329 -0.4017 -0.2434 -0.6543
  473SOL    HW2 1891   0.805   2.524   1.398  3.8401 -2.5691 -1.1189
  473SOL     MW 1892   0.803   2.468   1.338  0.5899 -0.5086  0.2141
  474SOL     OW 1893   0.767   2.269   1.690 -0.5742 -0.1716 -0.4771
  474SOL    HW1 1894   0.831   2.290   1.756 -1.1623 -0.0087  0.1805
  474SOL    HW2 1895   0.802   2.286   1.608  0.9243 -1.6816  1.8734
  474SOL     MW 1896   0.780   2.274   1.687 -0.4541 -0.3493 -0.0802
  475SOL     OW 1897   1.619   0.050   1.482  0.3354 -0.3334  0.5917
  475SOL    HW1 1898   1.540   0.077   1.430 -1.8139 -1.0735 -1.3640
  475SOL    HW2 1899   1.611  -0.045   1.489 -2.0373 -1.5854 -0.6036
  475SOL     MW 1900   1.607   0.041   1.476 -0.2612 -0.5962  0.1759
  476SOL     OW 1901   1.497   2.624   0.865 -0.0322 -0.0352  0.0413
  476SOL    HW1 1902   1.416   2.643   0.921 -1.2740  0.0899  1.8836
  476SOL    HW2 1903   1.511   2.714   0.827  0.6178  0.3230 -2.9662
  476SOL     MW 1904   1.488   2.638   0.867 -0.1102  0.0286 -0.1125
  477SOL     OW 1905   0.812   2.509   0.670 -0.3247 -0.0298  0.0681
  477SOL    HW1 1906   0.839   2.575   0.607 -0.3971  3.6372 -0.2901
  477SOL    HW2 1907   0.782   2.443   0.606 -0.2688  1.1406 -1.6464
  477SOL     MW 1908   0.812   2.509   0.653 -0.3269  0.6085 -0.2054
  478SOL     OW 1909   0.169   2.660   0.896 -0.1581  0.2908  0.2316
  478SOL    HW1 1910   0.209   2.746   0.887 -0.8588  1.1677 -1.7180
  478SOL    HW2 1911   0.221   2.596   0.859 -2.6956  2.6175 -2.4895
  478SOL     MW 1912   0.181   2.663   0.890 -0.5853  0.7135 -0.3847
  479SOL     OW 1913   1.421   1.914   1.288 -0.4273 -0.0851 -0.4490
  479SOL    HW1 1914   1.400   1.962   1.368  1.0054 -0.2476 -0.0754
  479SOL    HW2 1915   1.492   1.860   1.311 -1.8754  1.5246 -0.1519
  479SOL     MW 1916   1.428   1.913   1.301 -0.4293  0.1058 -0.3605
  480SOL     OW 1917   1.846   2.397   1.380 -0.0172  0.3506 -0.2171
  480SOL    HW1 1918   1.853   2.305   1.410  0.7046  0.5509 -1.6308
  480SOL    HW2 1919   1.893   2.402   1.299  2.2230  0.4289  1.4400
  480SOL     MW 1920   1.853   2.386   1.374  0.3736  0.3873 -0.1850
  481SOL     OW 1921   1.176   0.071   1.111  0.2009 -0.7056  0.1254
  481SOL    HW1 1922   1.237   0.032   1.052 -0.4812 -0.4050  0.0921
  481SOL    HW2 1923   1.166   0.167   1.094 -2.5966  1.1274  1.5779
  481SOL     MW 1924   1.183   0.078   1.101 -0.2582 -0.4241  0.3127
  482SOL     OW 1925   0.964   0.012   0.403 -0.1976 -0.0067  0.0786
  482SOL    HW1 1926   0.896  -0.043   0.363 -2.3441 -0.7436  0.2286
  482SOL    HW2 1927   0.944   0.104   0.394  0.4051 -0.0425 -1.3138
  482SOL     MW 1928   0.952   0.017   0.397 -0.4013 -0.1087 -0.0853
  483SOL     OW 1929   0.387   2.891   0.502 -0.5579  0.5494 -0.2700
  483SOL    HW1 1930   0.305   2.892   0.447 -0.5625  0.1023 -1.2853
  483SOL    HW2 1931   0.362   2.949   0.583 -1.2594  0.2347  1.1877
  483SOL     MW 1932   0.373   2.899   0.506 -0.6511  0.4489 -0.2116
  484SOL     OW 1933   1.677   1.867   1.396  0.0051 -0.3726 -0.6160
  484SOL    HW1 1934   1.710   1.950   1.368  0.7554  0.5082  0.9040
  484SOL    HW2 1935   1.678   1.872   1.490 -1.9891 -1.6588 -1.7720
  484SOL     MW 1936   1.681   1.878   1.405 -0.1590 -0.4261 -0.5679
  485SOL     OW 1937   0.558   2.370   0.276 -0.2279  0.8091 -0.5382
  485SOL    HW1 1938   0.596   2.372   0.363  0.6591  1.5124  3.3313
  485SOL    HW2 1939   0.510   2.451   0.297  1.8098  2.4814 -0.3351
  485SOL     MW 1940   0.556   2.381   0.290  0.1579  1.1225 -0.0008
  486SOL     OW 1941   0.119   2.464   1.393  0.7497 -0.0871 -0.0245
  486SOL    HW1 1942   0.153   2.554   1.378 -1.2824 -2.1913  1.7075
  486SOL    HW2 1943   0.137   2.448   1.484  0.2926  1.2697  0.4925
  486SOL     MW 1944   0.126   2.474   1.403  0.4213 -0.1857  0.2723
  487SOL     OW 1945   1.271   1.602   1.089  0.1041 -0.0564  0.4725
  487SOL    HW1 1946   1.230   1.693   1.093 -1.5038  0.4663  2.6769
  487SOL    HW2 1947   1.350   1.620   1.032  1.2690  2.0555 -2.5105
  487SOL     MW 1948   1.276   1.616   1.082  0.0456  0.2912  0.3698
  488SOL     OW 1949   1.602   1.859   0.576  0.8591  0.0919  0.0188
  488SOL    HW1 1950   1.670   1.910   0.532 -0.2946 -0.7804 -0.1561
  488SOL    HW2 1951   1.519   1.888   0.541 -0.1473 -1.8816 -1.5007
  488SOL     MW 1952   1.600   1.870   0.566  0.5741 -0.2836 -0.2047
  489SOL     OW 1953   0.771   0.806   0.508 -0.0192  0.2522  0.7190
  489SOL    HW1 1954   0.800   0.716   0.484 -0.3608 -0.3480  1.7970
  489SOL    HW2 1955   0.760   0.796   0.602 -2.3941 -0.1907  0.8482
  489SOL     MW 1956   0.773   0.793   0.517 -0.3776  0.1145  0.8783
  490SOL     OW 1957   1.409   2.110   0.430  0.0530  0.0091  0.2498
  490SOL    HW1 1958   1.469   2.189   0.416 -0.3177  2.5509  0.1118
  490SOL    HW2 1959   1.322   2.139   0.415 -0.4346 -0.2410 -1.8278
  490SOL     MW 1960   1.405   2.125   0.426 -0.0602  0.3115 -0.0425
  491SOL     OW 1961   1.192   2.979   0.427 -0.0350  0.2750  0.4457
  491SOL    HW1 1962   1.211   3.032   0.502 -0.2555  0.4443 -0.9876
  491SOL    HW2 1963   1.107   3.012   0.412 -0.2794  1.1597  1.5227
  491SOL     MW 1964   1.183   2.990   0.435 -0.0963  0.4141  0.3987
  492SOL     OW 1965   1.525   2.136   0.709  0.9201  0.2462  0.5473
  492SOL    HW1 1966   1.493   2.117   0.614  2.7206 -3.6062 -0.5245
  492SOL    HW2 1967   1.479   2.073   0.770  0.5630 -1.0935  0.4332
  492SOL     MW 1968   1.514   2.125   0.705  1.1105 -0.4388  0.3908
  493SOL     OW 1969   0.142   2.913   0.414 -0.4962 -0.1631  0.0753
  493SOL    HW1 1970   0.109   2.988   0.461  1.5240 -0.4772 -0.1839
  493SOL    HW2 1971   0.156   2.941   0.321  0.6368  0.3574 -0.4741
  493SOL     MW 1972   0.140   2.927   0.408 -0.0802 -0.1359 -0.0314
  494SOL     OW 1973   0.443   2.411   1.781 -0.0928 -0.1782 -0.4702
  494SOL    HW1 1974   0.444   2.315   1.816 -1.1122  0.3354  1.3224
  494SOL    HW2 1975   0.464   2.406   1.690  0.2032  0.8110  1.5175
  494SOL     MW 1976   0.446   2.398   1.774 -0.1883  0.0200  0.0285
  495SOL     OW 1977   2.906   1.653   2.717 -0.6933  0.4430  0.1300
  495SOL    HW1 1978   2.883   1.738   2.752  0.0905  1.5082 -0.2269
  495SOL    HW2 1979   2.927   1.591   2.786  2.2072  0.3198 -0.3896
  495SOL     MW 1980   2.906   1.656   2.731 -0.2072  0.5673  0.0143
  496SOL     OW 1981   2.847   2.305   2.643  0.5895  0.2804 -0.1258
  496SOL    HW1 1982   2.868   2.237   2.708  1.2220 -2.0929 -0.8802
  496SOL    HW2 1983   2.931   2.350   2.642  0.7630  1.8396  0.4094
  496SOL     MW 1984   2.861   2.302   2.651  0.6958  0.1730 -0.1547
  497SOL     OW 1985   1.496   2.304   2.503  0.1616 -0.1228  0.6510
  497SOL    HW1 1986   1.476   2.262   2.420  0.0304  1.1778  0.3480
  497SOL    HW2 1987   1.495   2.231   2.564 -0.0381  2.7054 -0.5667
  497SOL     MW 1988   1.493   2.289   2.500  0.1180  0.4219  0.4503
  498SOL     OW 1989   1.597   2.736   2.243 -0.0742 -0.3902  0.5328
  498SOL    HW1 1990   1.629   2.650   2.203 -1.2835 -0.6010  1.8607
  498SOL    HW2 1991   1.646   2.738   2.325  0.4395  0.1524 -2.8098
  498SOL     MW 1992   1.607   2.725   2.249 -0.1660 -0.3465  0.2670
  499SOL     OW 1993   0.929   0.149   0.002 -0.1320  0.1055  0.0291
  499SOL    HW1 1994   0.857   0.190   0.051 -0.3515 -1.2415 -0.9492
  499SOL    HW2 1995   0.905   0.060   0.003  1.7557  2.2473 -3.5077
  499SOL     MW 1996   0.916   0.143   0.008  0.0881  0.2104 -0.5666
  500SOL     OW 1997   1.017   2.443   2.785 -0.4340 -0.0419  0.0149
  500SOL    HW1 1998   1.055   2.416   2.867 -0.3069 -0.5554 -0.8064
  500SOL    HW2 1999   0.999   2.534   2.802 -3.0562  0.3620 -0.1761
  500SOL     MW 2000   1.019   2.451   2.798 -0.7632 -0.0564 -0.1187
  501SOL     OW 2001   1.740   2.226   3.068  0.2281  0.2545 -0.2177
  501SOL    HW1 2002   1.722   2.315   3.092  2.4269 -0.7132  2.1104
  501SOL    HW2 2003   1.832   2.208   3.088 -0.2562 -0.6255 -0.1422
  501SOL     MW 2004   1.750   2.235   3.074  0.4543  0.0107  0.0994
  502SOL     OW 2005   0.120   2.793   2.930 -0.4168  0.3116  0.3382
  502SOL    HW1 2006   0.039   2.750   2.899  0.5726 -1.7322 -1.9414
  502SOL    HW2 2007   0.145   2.854   2.856 -0.3650  1.0513 -2.0092
  502SOL     MW 2008   0.113   2.796   2.916 -0.2794  0.1396 -0.2723
  503SOL     OW 2009   1.143   2.614   2.069 -0.4546  0.0353 -0.7300
  503SOL    HW1 2010   1.210   2.617   1.994  0.6820  0.3889  1.3324
  503SOL    HW2 2011   1.060   2.613   2.019 -1.5967  1.7268  1.1368
  503SOL     MW 2012   1.141   2.614   2.052 -0.4553  0.3051 -0.2116
  504SOL     OW 2013   0.089   2.648   2.057  0.0794 -0.1080 -0.2255
  504SOL    HW1 2014   0.182   2.631   2.041  1.4338  2.7712 -0.1774
  504SOL    HW2 2015   0.055   2.564   2.089  2.1855 -0.6399 -1.9168
  504SOL     MW 2016   0.097   2.634   2.059  0.5359  0.2017 -0.4423
  505SOL     OW 2017   1.639   2.680   2.729  0.1951 -0.0081 -0.2522
  505SOL    HW1 2018   1.686   2.698   2.642 -0.3418 -0.3769 -0.5099
  505SOL    HW2 2019   1.574   2.753   2.739  0.1377 -0.0548 -0.4281
  505SOL     MW 2020   1.637   2.692   2.719  0.1167 -0.0629 -0.3094
  506SOL     OW 2021   1.611   0.037   2.847  0.6870 -0.1178  0.3445
  506SOL    HW1 2022   1.650   0.018   2.936 -0.2808 -2.0968  1.2613
  506SOL    HW2 2023   1.661  -0.025   2.792  1.3889 -1.7089 -1.2025
  506SOL     MW 2024   1.623   0.027   2.852  0.6519 -0.5888  0.2614
  507SOL     OW 2025   0.877   2.688   2.858  0.3835  0.0522  0.1974
  507SOL    HW1 2026   0.924   2.740   2.794  2.1333  0.1599  2.2262
  507SOL    HW2 2027   0.788   2.671   2.824  1.1644 -0.1472  0.2596
  507SOL     MW 2028   0.871   2.693   2.845  0.7174  0.0401  0.4733
  508SOL     OW 2029   1.251   2.119   2.530 -0.3064  0.1242  0.0344
  508SOL    HW1 2030   1.313   2.104   2.605  1.1561  0.8854  0.3650
  508SOL    HW2 2031   1.179   2.171   2.554  1.9536 -1.8485 -0.0343
  508SOL     MW 2032   1.250   2.124   2.543  0.1847 -0.0357  0.0689
  509SOL     OW 2033   0.620   2.625   2.800  0.5289  0.1256 -0.4555
  509SOL    HW1 2034   0.602   2.575   2.726  0.8235  3.1064  1.9154
  509SOL    HW2 2035   0.601   2.719   2.775  0.1515  0.6238 -1.4909
  509SOL     MW 2036   0.615   2.631   2.787  0.5180  0.5846 -0.2793
  510SOL     OW 2037   1.562   2.604   1.658  0.2814  0.2275 -0.3669
  510SOL    HW1 2038   1.560   2.696   1.623  1.5509 -3.3307 -1.0409
  510SOL    HW2 2039   1.512   2.613   1.748  0.4139  3.2563  1.9775
  510SOL     MW 2040   1.555   2.617   1.666  0.4664  0.1577 -0.1465
  511SOL     OW 2041   0.370   2.605   2.539  0.8509  0.5314 -0.4182
  511SOL    HW1 2042   0.452   2.571   2.567 -1.1979 -0.1014 -1.0531
  511SOL    HW2 2043   0.373   2.578   2.443 -1.5692 -0.8950 -0.5157
  511SOL     MW 2044   0.381   2.597   2.530  0.2613  0.2597 -0.5148
  512SOL     OW 2045   1.013   2.032   2.890 -0.2885  0.3417  0.1109
  512SOL    HW1 2046   0.930   2.083   2.892 -2.4391 -0.5339 -1.4892
  512SOL    HW2 2047   1.018   1.966   2.960 -1.5271 -1.7842 -1.2051
  512SOL     MW 2048   1.003   2.030   2.899 -0.7357 -0.0543 -0.2739
  513SOL     OW 2049   1.701   2.458   2.208 -0.2965 -0.2798  0.3294
  513SOL    HW1 2050   1.774   2.521   2.171  1.3268  1.3609 -1.4862
  513SOL    HW2 2051   1.713   2.427   2.301  1.6622 -1.6356  0.9418
  513SOL     MW 2052   1.712   2.462   2.215  0.1761 -0.2422  0.1706
  514SOL     OW 2053   0.233   2.387   2.663  0.3097  0.4085  0.3827
  514SOL    HW1 2054   0.281   2.468   2.631  1.8907  0.7475  0.1078
  514SOL    HW2 2055   0.283   2.361   2.741  2.3251  1.0933  1.1046
  514SOL     MW 2056   0.246   2.394   2.669  0.7842  0.5436  0.4417
  515SOL     OW 2057   1.070   2.039   1.921 -0.1022  0.9015  0.3634
  515SOL    HW1 2058   1.024   2.127   1.937  1.6339  3.2122 -0.0088
  515SOL    HW2 2059   1.149   2.047   1.966 -1.0901  1.7436 -0.7840
  515SOL     MW 2060   1.074   2.051   1.929 -0.0035  1.3175  0.1629
  516SOL     OW 2061   1.411   2.510   2.958  0.2766 -0.4368  0.1570
  516SOL    HW1 2062   1.423   2.506   2.862  1.7154  2.4589  0.0251
  516SOL    HW2 2063   1.322   2.478   2.967 -1.7521  1.3312 -1.0787
  516SOL     MW 2064   1.401   2.505   2.947  0.1987  0.1785 -0.0234
  517SOL     OW 2065   0.607   2.393   2.266 -0.0586  1.0598  0.0338
  517SOL    HW1 2066   0.540   2.467   2.280 -2.4954 -1.8664  3.8998
  517SOL    HW2 2067   0.555   2.320   2.216 -2.0372 -4.0952 -0.3097
  517SOL     MW 2068   0.591   2.393   2.262 -0.6412 -0.0064  0.4986
  518SOL     OW 2069   1.833   0.034  -0.002  0.9281  0.3892  0.1111
  518SOL    HW1 2070   1.799   0.107   0.055 -2.4967 -0.0092  0.9425
  518SOL    HW2 2071   1.766  -0.035  -0.001 -2.7869  0.7230  0.3098
  518SOL     MW 2072   1.819   0.035   0.005 -0.0139  0.3807  0.2470
  519SOL     OW 2073   0.711   2.538   1.731 -0.0051  0.0589 -0.0903
  519SOL    HW1 2074   0.711   2.443   1.699  0.1022 -2.6902  0.7667
  519SOL    HW2 2075   0.620   2.559   1.722  0.5679 -3.4809 -1.0418
  519SOL     MW 2076   0.699   2.529   1.725  0.0847 -0.7709 -0.1028
  520SOL     OW 2077   1.209   2.194   2.953 -0.0134  0.0275  0.0476
  520SOL    HW1 2078   1.129   2.135   2.927 -2.1163 -0.0836  2.7129
  520SOL    HW2 2079   1.231   2.155   3.044  1.2324  0.4832  1.3842
  520SOL     MW 2080   1.201   2.181   2.961 -0.1265  0.0730  0.5756
  521SOL     OW 2081   1.765   2.051   2.240 -0.2557 -0.4867 -0.1943
  521SOL    HW1 2082   1.802   2.073   2.152 -0.1076 -0.0419 -0.7115
  521SOL    HW2 2083   1.756   1.953   2.249  1.8437 -1.3691 -1.7670
  521SOL     MW 2084   1.768   2.041   2.230  0.0408 -0.5444 -0.4700
  522SOL     OW 2085   2.908   2.517   2.269  0.2201 -0.1445  0.0801
  522SOL    HW1 2086   2.993   2.473   2.280  3.0508 -0.3625  1.9775
  522SOL    HW2 2087   2.934   2.605   2.279 -2.2839 -2.2926 -0.2909
  522SOL     MW 2088   2.922   2.523   2.272  0.2632 -0.4567  0.2815
  523SOL     OW 2089   0.902   1.515   2.143 -0.0418 -0.2269 -0.2242
  523SOL    HW1 2090   0.902   1.561   2.054 -0.3304  0.9497  0.5084
  523SOL    HW2 2091   0.908   1.425   2.107  2.4512  0.5048 -0.6548
  523SOL     MW 2092   0.903   1.509   2.126  0.2491  0.0249 -0.1843
  524SOL     OW 2093   0.601   2.390   2.938 -0.6117  0.1040  0.0866
  524SOL    HW1 2094   0.628   2.467   2.887  1.8687 -0.0346 -0.1786
  524SOL    HW2 2095   0.671   2.326   2.931  0.7051 -2.0746 -2.9452
  524SOL     MW 2096   0.614   2.392   2.931 -0.1107 -0.2017 -0.3484
  525SOL     OW 2097   0.463   2.191   2.134 -0.2256  0.2940  0.0414
  525SOL    HW1 2098   0.425   2.116   2.194  0.6993 -0.6771  3.0485
  525SOL    HW2 2099   0.532   2.156   2.073 -0.9679 -2.0726  1.0930
  525SOL     MW 2100   0.467   2.177   2.134 -0.2015 -0.1463  0.5769
  526SOL     OW 2101   0.691   2.129   1.987  0.0161 -0.3995 -0.0808
  526SOL    HW1 2102   0.710   2.177   1.900  1.1758 -0.2488  3.8296
  526SOL    HW2 2103   0.749   2.157   2.060 -0.7373 -3.0714 -2.3613
  526SOL     MW 2104   0.701   2.139   1.986  0.0697 -0.7321  0.1342
  527SOL     OW 2105   1.315   1.926   2.072  0.3167  0.5638  0.4526
  527SOL    HW1 2106   1.317   1.884   2.156  0.8364  3.0153 -1.1690
  527SOL    HW2 2107   1.326   1.865   2.003  1.4452  1.5915  0.5654
  527SOL     MW 2108   1.317   1.913   2.074  0.5341  1.0228  0.2535
  528SOL     OW 2109   0.673   2.928   2.924  0.4710 -0.5388 -0.2869
  528SOL    HW1 2110   0.666   3.024   2.931  2.0759 -0.4108  1.7410
  528SOL    HW2 2111   0.665   2.915   2.823 -0.8874 -0.0660 -1.1044
  528SOL     MW 2112   0.671   2.939   2.912  0.5035 -0.4595 -0.1272
  529SOL     OW 2113   0.936   2.321   1.898 -0.0936  0.5013  0.3789
  529SOL    HW1 2114   0.972   2.340   1.982  1.4523  3.0958 -1.7506
  529SOL    HW2 2115   1.014   2.354   1.843  0.1142  1.6317  0.5910
  529SOL     MW 2116   0.951   2.328   1.902  0.1378  0.9928  0.1259
  530SOL     OW 2117   1.136   2.454   3.057  0.2426 -0.1089  0.3027
  530SOL    HW1 2118   1.044   2.452   3.075 -1.4240  0.3338  1.8561
  530SOL    HW2 2119   1.153   2.359   3.040 -2.2523  0.5681  2.3461
  530SOL     MW 2120   1.126   2.441   3.057 -0.3064  0.0389  0.7773
  531SOL     OW 2121   0.958   1.902   2.650  0.6813 -0.1607  0.0538
  531SOL    HW1 2122   1.000   1.949   2.726  2.0311 -0.1124 -2.1821
  531SOL    HW2 2123   0.915   1.817   2.683 -1.0983 -1.7781  1.2003
  531SOL     MW 2124   0.958   1.897   2.664  0.6246 -0.3677 -0.0899
  532SOL     OW 2125   1.702   0.282   2.835  0.0572  0.3530  0.1981
  532SOL    HW1 2126   1.680   0.192   2.845 -0.2377  2.2555 -1.7013
  532SOL    HW2 2127   1.797   0.292   2.875  0.4556  0.4177  1.8884
  532SOL     MW 2128   1.711   0.272   2.842  0.0709  0.6126  0.1705
  533SOL     OW 2129   1.806   2.644   2.986  0.0869 -0.0865 -0.1910
  533SOL    HW1 2130   1.756   2.582   3.041  1.2471 -1.2700 -0.6455
  533SOL    HW2 2131   1.745   2.666   2.911 -3.8063 -1.8824 -1.4887
  533SOL     MW 2132   1.791   2.639   2.983 -0.2737 -0.4796 -0.4222
  534SOL     OW 2133   1.762   2.401   2.460  0.7794 -0.3477 -0.1105
  534SOL    HW1 2134   1.680   2.358   2.483 -1.9325  1.3683  0.0199
  534SOL    HW2 2135   1.803   2.390   2.550 -0.4074  2.4713 -2.0168
  534SOL     MW 2136   1.757   2.394   2.475  0.2650  0.2506 -0.3449
  535SOL     OW 2137   1.828   2.327   1.946 -0.2289 -0.2010  0.7099
  535SOL    HW1 2138   1.773   2.341   1.871  1.8571 -1.8670 -0.4418
  535SOL    HW2 2139   1.915   2.359   1.913  1.9697  0.3925  1.7862
  535SOL     MW 2140   1.832   2.333   1.932  0.3364 -0.3425  0.7000
  536SOL     OW 2141   0.471   1.821   2.020  0.3575  0.6497  0.0718
  536SOL    HW1 2142   0.454   1.801   1.930 -1.5126 -0.3156  0.7277
  536SOL    HW2 2143   0.564   1.844   2.031 -1.0849 -1.4258 -0.5836
  536SOL     MW 2144   0.481   1.821   2.009 -0.0796  0.2485  0.0719
  537SOL     OW 2145   1.113   0.178   2.894  0.5087 -0.2080  0.0858
  537SOL    HW1 2146   1.040   0.160   2.950 -0.8392  0.8414 -1.1917
  537SOL    HW2 2147   1.118   0.273   2.879 -0.8197  3.4043  0.1217
  537SOL     MW 2148   1.104   0.188   2.899  0.1556  0.4071 -0.0780
  538SOL     OW 2149   1.329   0.039   2.972  0.2420  0.9299 -0.0994
  538SOL    HW1 2150   1.251   0.091   2.948  0.3564  1.1422 -2.1027
  538SOL    HW2 2151   1.404   0.082   2.931  2.7304 -0.2405 -0.4172
  538SOL     MW 2152   1.329   0.051   2.964  0.5854  0.8035 -0.4057
  539SOL     OW 2153   0.777   2.746   2.504 -0.0236  0.3598  0.1922
  539SOL    HW1 2154   0.847   2.792   2.551 -0.1092  1.0027 -0.2443
  539SOL    HW2 2155   0.791   2.652   2.508 -1.7784 -2.5175  0.4113
  539SOL     MW 2156   0.788   2.740   2.511 -0.2665  0.0650  0.1635
  540SOL     OW 2157   0.347   2.258   2.899  0.4006  0.4642  0.0016
  540SOL    HW1 2158   0.435   2.294   2.910 -0.9940  1.4033  1.4714
  540SOL    HW2 2159   0.326   2.211   2.978 -2.4192 -1.0252 -2.8377
  540SOL     MW 2160   0.356   2.257   2.911 -0.1555  0.3916 -0.1791
  541SOL     OW 2161   0.142   2.908   2.207 -0.1348  0.0540  0.3387
  541SOL    HW1 2162   0.145   2.831   2.152  0.7197  1.3357 -0.4527
  541SOL    HW2 2163   0.197   2.880   2.289  1.4050  0.0083  0.2729
  541SOL     MW 2164   0.150   2.894   2.210  0.1811  0.2170  0.2256
  542SOL     OW 2165   1.006   2.250   2.604  0.8799  0.2878 -1.0177
  542SOL    HW1 2166   0.976   2.168   2.641  1.4166  4.0466 -1.6527
  542SOL    HW2 2167   1.019   2.313   2.678  0.0450  1.7278  0.1851
  542SOL     MW 2168   1.003   2.247   2.619  0.8406  0.9737 -0.9428
  543SOL     OW 2169   1.422   2.512   2.681 -0.6071  0.2544  0.0968
  543SOL    HW1 2170   1.444   2.438   2.620  1.1588 -2.8856 -1.3837
  543SOL    HW2 2171   1.502   2.567   2.691  0.8482  0.6700  0.7543
  543SOL     MW 2172   1.436   2.510   2.674 -0.1821 -0.1050 -0.0118
  544SOL     OW 2173   0.574   0.229   2.705  0.2168  0.2669 -0.3888
  544SOL    HW1 2174   0.488   0.211   2.761  0.3208  0.9135 -0.9258
  544SOL    HW2 2175   0.556   0.182   2.626 -1.0528  0.0781  0.1106
  544SOL     MW 2176   0.560   0.221   2.702  0.0630  0.3273 -0.3937
  545SOL     OW 2177   1.509   2.166   2.259  0.1899  0.2383 -0.1146
  545SOL    HW1 2178   1.475   2.172   2.170 -0.8927 -1.5146  0.4569
  545SOL    HW2 2179   1.606   2.134   2.253  0.6031 -2.7440  1.2828
  545SOL     MW 2180   1.517   2.163   2.246  0.1016 -0.3865  0.1452
  546SOL     OW 2181   2.963   2.036   0.121 -0.1842  0.6398  0.0471
  546SOL    HW1 2182   2.969   2.116   0.062 -2.2440  1.3374 -3.7640
  546SOL    HW2 2183   3.051   2.006   0.144 -0.8934 -0.8790  2.4269
  546SOL     MW 2184   2.976   2.043   0.116 -0.5496  0.5315 -0.1418
  547SOL     OW 2185   0.218   2.995   0.145  0.7395 -0.3215 -0.6213
  547SOL    HW1 2186   0.247   3.046   0.075 -1.2396 -2.2334  0.2526
  547SOL    HW2 2187   0.257   2.909   0.115 -0.4602 -3.0174 -1.3629
  547SOL     MW 2188   0.227   2.990   0.132  0.3201 -0.9295 -0.6039
  548SOL     OW 2189   0.311   2.536   0.261 -0.0690  0.1384 -0.7035
  548SOL    HW1 2190   0.291   2.610   0.208 -1.7893 -0.1919  1.8606
  548SOL    HW2 2191   0.241   2.476   0.244  3.0123  0.9371  1.0402
  548SOL     MW 2192   0.299   2.538   0.252  0.1106  0.2002 -0.1351
  549SOL     OW 2193   0.719   1.877   2.079  0.6291 -0.0551  0.1556
  549SOL    HW1 2194   0.716   1.950   2.016 -1.8716 -1.9029  0.6491
  549SOL    HW2 2195   0.767   1.910   2.158  1.9524  0.1579  0.0515
  549SOL     MW 2196   0.725   1.891   2.081  0.4737 -0.2708  0.2070
  550SOL     OW 2197   1.828   1.756   2.518 -0.2549  0.0138 -0.5268
  550SOL    HW1 2198   1.816   1.781   2.428  0.3249 -0.8875  1.3537
  550SOL    HW2 2199   1.818   1.837   2.561 -2.0350 -3.0825 -1.2221
  550SOL     MW 2200   1.825   1.770   2.512 -0.4133 -0.5136 -0.3705
  551SOL     OW 2201   0.865   2.348   0.205  0.1925  0.1232  0.5840
  551SOL    HW1 2202   0.952   2.382   0.200  0.6058  1.9290  1.7019
  551SOL    HW2 2203   0.854   2.278   0.142 -0.2393  0.3123  2.0067
  551SOL     MW 2204   0.875   2.343   0.196  0.1900  0.3864  0.9192
  552SOL     OW 2205   1.737   1.763   2.238 -0.0668  0.6283 -0.0717
  552SOL    HW1 2206   1.648   1.727   2.264  0.7895 -2.6303  1.0101
  552SOL    HW2 2207   1.762   1.723   2.146  0.9427 -0.5064 -5.9715
  552SOL     MW 2208   1.729   1.753   2.229  0.1794  0.0487 -0.7074
  553SOL     OW 2209   1.237   2.324   1.497 -0.1942 -0.0365 -0.1398
  553SOL    HW1 2210   1.269   2.231   1.497 -1.5024 -2.0306  0.0535
  553SOL    HW2 2211   1.314   2.379   1.475  0.6637  2.6141  0.1276
  553SOL     MW 2212   1.252   2.319   1.494 -0.2536  0.0501 -0.0790
  554SOL     OW 2213   0.582   2.871   2.677 -0.2247  0.4007  0.0644
  554SOL    HW1 2214   0.511   2.929   2.637  0.2787 -0.5126  1.5595
  554SOL    HW2 2215   0.640   2.852   2.601 -0.8163 -2.9884  0.6279
  554SOL     MW 2216   0.580   2.876   2.662 -0.2363 -0.1670  0.3360
  555SOL     OW 2217   0.605   2.474   2.581  0.0932  0.3537 -0.0870
  555SOL    HW1 2218   0.558   2.386   2.583  0.8986 -4.1576 -0.1946
  555SOL    HW2 2219   0.696   2.448   2.543  3.6873 -3.4513  0.1472
  555SOL     MW 2220   0.611   2.459   2.576  0.6736 -0.7435 -0.0703
  556SOL     OW 2221   0.932   1.788   0.171 -0.0223 -0.3727  0.3022
  556SOL    HW1 2222   0.938   1.745   0.083 -0.2235  0.9813 -1.5593
  556SOL    HW2 2223   1.024   1.818   0.193  1.0086  0.6739  0.7023
  556SOL     MW 2224   0.945   1.786   0.162  0.0872 -0.0559  0.1094
  557SOL     OW 2225   0.933   2.707   0.505  0.7296  0.2281  0.2656
  557SOL    HW1 2226   0.967   2.660   0.431  2.2383  1.9253 -0.0236
  557SOL    HW2 2227   0.877   2.771   0.464  0.5371  3.6955 -0.6493
  557SOL     MW 2228   0.930   2.709   0.490  0.9033  0.9095  0.1067
  558SOL     OW 2229   0.254   2.176   0.051  0.1253 -0.8649  0.0880
  558SOL    HW1 2230   0.183   2.116   0.064 -0.2959 -1.5957  0.7401
  558SOL    HW2 2231   0.231   2.243   0.115 -1.2649  1.7035 -1.9149
  558SOL     MW 2232   0.242   2.177   0.061 -0.1137 -0.6225 -0.0903
  559SOL     OW 2233   1.128   2.297   2.102 -0.2816 -0.0249 -0.2299
  559SOL    HW1 2234   1.153   2.382   2.146 -2.4877  2.6727 -0.8209
  559SOL    HW2 2235   1.133   2.225   2.170 -0.8496 -2.6119  1.7899
  559SOL     MW 2236   1.132   2.299   2.117 -0.6477 -0.0103 -0.0414
  560SOL     OW 2237   1.925   2.837   0.044  0.0488  0.9683 -0.1831
  560SOL    HW1 2238   1.993   2.894   0.001  0.8568  2.4221 -2.0208
  560SOL    HW2 2239   1.897   2.759  -0.008  0.1320 -1.3162  3.4983
  560SOL     MW 2240   1.930   2.834   0.032  0.1664  0.8587  0.0602
  561SOL     OW 2241   0.451   2.117   0.233  0.1376  0.4106 -0.0922
  561SOL    HW1 2242   0.393   2.127   0.154  0.6145 -1.9797 -1.0882
  561SOL    HW2 2243   0.502   2.207   0.240 -3.6647 -1.1553 -3.1176
  561SOL     MW 2244   0.450   2.130   0.224 -0.3012 -0.1114 -0.6228
  562SOL     OW 2245   0.858   2.188   2.220  0.7681 -0.3698  0.1089
  562SOL    HW1 2246   0.835   2.272   2.263 -1.2233  0.6585  1.4003
  562SOL    HW2 2247   0.937   2.149   2.264  2.2382 -0.8447 -0.6475
  562SOL     MW 2248   0.865   2.194   2.231  0.6993 -0.2968  0.1795
  563SOL     OW 2249   1.146   0.318   0.617 -0.4494 -0.2255  0.5252
  563SOL    HW1 2250   1.084   0.315   0.544 -1.7577  0.3316  2.1814
  563SOL    HW2 2251   1.197   0.238   0.619  0.8582  1.0097 -0.5514
  563SOL     MW 2252   1.144   0.307   0.608 -0.4495  0.0109  0.6017
  564SOL     OW 2253   1.091   2.534   2.334 -0.2937  0.0045 -0.1385
  564SOL    HW1 2254   1.114   2.577   2.245 -0.5339  1.3967 -0.3791
  564SOL    HW2 2255   1.148   2.576   2.404  0.0877 -1.0096 -0.6999
  564SOL     MW 2256   1.101   2.546   2.332 -0.2751  0.0544 -0.2443
  565SOL     OW 2257   2.878   2.668   2.587 -0.0529  0.7594  0.1104
  565SOL    HW1 2258   2.922   2.752   2.554  1.4546 -2.1353 -0.5270
  565SOL    HW2 2259   2.795   2.656   2.543 -1.3352 -3.3407  1.7690
  565SOL     MW 2260   2.873   2.678   2.577 -0.0232 -0.1635  0.2451
  566SOL     OW 2261   2.170   1.851   2.419 -0.4122 -0.6326  0.3569
  566SOL    HW1 2262   2.162   1.823   2.327  2.0901 -0.0972 -0.0873
  566SOL    HW2 2263   2.229   1.931   2.417 -1.6396 -0.7900  3.3521
  566SOL     MW 2264   2.177   1.858   2.406 -0.2440 -0.5827  0.6935
  567SOL     OW 2265   1.136   2.955   3.054  0.0658  0.3019 -0.5580
  567SOL    HW1 2266   1.211   3.006   3.065 -0.6348 -2.3569  1.4670
  567SOL    HW2 2267   1.159   2.883   2.993 -0.2908 -0.1601 -0.7022
  567SOL     MW 2268   1.149   2.952   3.047 -0.0737 -0.1098 -0.3099
  568SOL     OW 2269   1.583   2.030   2.928 -0.4899  0.5206  0.1174
  568SOL    HW1 2270   1.634   2.097   2.970 -0.4038 -0.8676 -1.5366
  568SOL    HW2 2271   1.656   1.993   2.877  1.1560 -1.2629 -1.5826
  568SOL     MW 2272   1.599   2.034   2.927 -0.2614  0.1021 -0.3251
  569SOL     OW 2273   0.215   2.233   2.442 -0.3024  0.2830  0.0252
  569SOL    HW1 2274   0.145   2.284   2.390  0.0382  1.0685  0.9620
  569SOL    HW2 2275   0.221   2.289   2.522  2.6691 -0.5495  0.8939
  569SOL     MW 2276   0.207   2.247   2.445  0.1346  0.2768  0.2635
  570SOL     OW 2277   1.485   0.426   0.477 -0.0655 -0.2354 -0.4566
  570SOL    HW1 2278   1.437   0.505   0.489  0.3542  1.0338 -0.9517
  570SOL    HW2 2279   1.559   0.424   0.546  2.0205  2.7007 -0.0898
  570SOL     MW 2280   1.488   0.436   0.487  0.2651  0.3194 -0.4735
  571SOL     OW 2281   1.494   2.421   2.002 -0.0626 -0.4184 -0.0131
  571SOL    HW1 2282   1.558   2.404   2.072  0.9656 -0.2344  1.1148
  571SOL    HW2 2283   1.469   2.338   1.971  1.6071  0.8833  0.9971
  571SOL     MW 2284   1.499   2.407   2.008  0.2934 -0.2224  0.2690
  572SOL     OW 2285   0.937   2.640   0.043  0.0721 -0.6726 -0.9621
  572SOL    HW1 2286   0.924   2.687  -0.038  0.7813 -2.9667 -0.5781
  572SOL    HW2 2287   0.855   2.593   0.053 -0.2545 -1.6233 -0.0173
  572SOL     MW 2288   0.924   2.640   0.033  0.1226 -1.1007 -0.7868
  573SOL     OW 2289   1.161   2.364   0.259  0.2132 -0.5258  0.0625
  573SOL    HW1 2290   1.240   2.370   0.199 -0.9004 -0.0807  2.2576
  573SOL    HW2 2291   1.127   2.454   0.270 -0.0182  3.0589 -1.2835
  573SOL     MW 2292   1.167   2.377   0.253  0.0357  0.0059  0.1746
  574SOL     OW 2293   1.048   2.616   0.288  0.1191 -0.0168 -0.3354
  574SOL    HW1 2294   1.131   2.673   0.289 -0.1282  2.6396 -0.6377
  574SOL    HW2 2295   1.009   2.623   0.201 -0.9191 -0.3475  0.9503
  574SOL     MW 2296   1.054   2.625   0.277 -0.0505  0.2901 -0.2056
  575SOL     OW 2297   3.079   2.316   1.795  0.4053  0.4170 -0.2650
  575SOL    HW1 2298   3.061   2.244   1.731  1.1322 -1.9641 -0.8325
  575SOL    HW2 2299   3.128   2.380   1.743 -0.5439  1.5607  1.8781
  575SOL     MW 2300   3.083   2.315   1.780  0.3760  0.2537 -0.0571
  576SOL     OW 2301   2.839   1.805   2.024  1.1219 -0.5741  0.4936
  576SOL    HW1 2302   2.878   1.867   1.958 -0.6326 -0.1414 -2.7615
  576SOL    HW2 2303   2.747   1.800   1.992  0.2302 -0.1339  1.1295
  576SOL     MW 2304   2.832   1.813   2.011  0.7728 -0.4589  0.1480
  577SOL     OW 2305   2.132   0.300   0.075  0.5048 -0.1037 -0.5630
  577SOL    HW1 2306   2.075   0.309   0.001 -0.7425 -3.1308  1.2045
  577SOL    HW2 2307   2.086   0.234   0.130 -1.8111 -3.0542  0.9978
  577SOL     MW 2308   2.119   0.292   0.072  0.0347 -0.8924 -0.1239
  578SOL     OW 2309   1.940   2.036   2.458 -0.8144  0.5530 -0.1468
  578SOL    HW1 2310   1.876   2.041   2.389  2.3722  0.3409  1.1636
  578SOL    HW2 2311   1.997   1.962   2.439 -1.2354  1.1950 -1.0631
  578SOL     MW 2312   1.939   2.027   2.447 -0.4495  0.6097 -0.0948
  579SOL     OW 2313   0.860   2.471   2.507 -0.1679  0.0781  0.1775
  579SOL    HW1 2314   0.894   2.400   2.562 -0.5926 -1.3183  0.4936
  579SOL    HW2 2315   0.937   2.524   2.483 -1.4480  0.9475 -1.1588
  579SOL     MW 2316   0.875   2.468   2.511 -0.3929  0.0085  0.0429
  580SOL     OW 2317   0.855   2.996   0.008 -0.2140  0.1139 -0.3064
  580SOL    HW1 2318   0.947   2.966   0.013 -0.0738  1.4253  0.6550
  580SOL    HW2 2319   0.832   2.947  -0.072 -0.4259 -0.0871  0.4689
  580SOL     MW 2320   0.864   2.985  -0.002 -0.2234  0.2604 -0.0773
  581SOL     OW 2321   1.141   2.449   1.732  0.2886  0.0906 -0.6638
  581SOL    HW1 2322   1.210   2.511   1.765 -1.1271 -0.2840 -0.4351
  581SOL    HW2 2323   1.186   2.383   1.679 -1.2711  0.9126 -3.8719
  581SOL     MW 2324   1.156   2.448   1.729 -0.1040  0.1497 -1.0569
  582SOL     OW 2325  -0.002   2.867   2.516 -0.3182  0.6663 -0.0550
  582SOL    HW1 2326  -0.038   2.950   2.554  1.2878 -0.7126 -0.9341
  582SOL    HW2 2327   0.094   2.866   2.524  0.0764 -1.3703  2.6351
  582SOL     MW 2328   0.006   2.878   2.522 -0.0542  0.2157  0.1840
  583SOL     OW 2329   1.970   2.406   2.661  0.0792 -0.5154 -0.2547
  583SOL    HW1 2330   2.051   2.442   2.627 -0.9380 -1.3267 -2.1544
  583SOL    HW2 2331   1.987   2.311   2.689  3.0871  0.2743  0.2912
  583SOL     MW 2332   1.983   2.398   2.660  0.3419 -0.5183 -0.4333
  584SOL     OW 2333   0.217   1.898   2.086 -0.3169  0.1355  1.0861
  584SOL    HW1 2334   0.302   1.889   2.046  1.9407 -2.4909  1.5986
  584SOL    HW2 2335   0.239   1.976   2.140 -0.1090  2.5334  0.3075
  584SOL     MW 2336   0.231   1.907   2.088  0.0084  0.1054  1.0510
  585SOL     OW 2337   1.448   2.660   0.080 -0.3055 -0.1411  0.3864
  585SOL    HW1 2338   1.420   2.618   0.000  1.0343 -2.3670 -1.4570
  585SOL    HW2 2339   1.377   2.681   0.132  0.6083 -0.3958  0.3884
  585SOL     MW 2340   1.435   2.657   0.076 -0.0082 -0.4684  0.1434
  586SOL     OW 2341   1.395   2.832   2.455  0.4439  0.0729  0.7770
  586SOL    HW1 2342   1.465   2.813   2.397 -2.0222 -0.7726  0.1952
  586SOL    HW2 2343   1.395   2.927   2.454  1.1962  3.7406 -2.7340
  586SOL     MW 2344   1.404   2.842   2.447  0.2178  0.4452  0.2370
  587SOL     OW 2345   1.296   1.590   2.165  0.4114 -0.1233  0.4147
  587SOL    HW1 2346   1.288   1.512   2.224  1.3949  1.4996  0.4691
  587SOL    HW2 2347   1.262   1.561   2.081 -1.7079  0.0932  3.4549
  587SOL     MW 2348   1.291   1.576   2.162  0.2615  0.1194  0.8230
  588SOL     OW 2349   1.405   2.144   2.759 -0.0288 -0.6972 -0.2515
  588SOL    HW1 2350   1.472   2.123   2.826 -0.4719  2.6543  2.4020
  588SOL    HW2 2351   1.341   2.183   2.820 -1.7121  1.0993  2.7374
  588SOL     MW 2352   1.406   2.147   2.776 -0.3093 -0.0180  0.4930
  589SOL     OW 2353   1.307   2.079   0.070 -0.4093 -0.3353 -0.3338
  589SOL    HW1 2354   1.332   2.135   0.143 -0.4081  0.5143  0.1819
  589SOL    HW2 2355   1.257   2.008   0.121  0.4422  0.0876  0.9723
  589SOL     MW 2356   1.304   2.077   0.087 -0.2968 -0.1674 -0.0935
  590SOL     OW 2357   0.429   2.599   2.269  0.3669  1.0375 -0.1652
  590SOL    HW1 2358   0.402   2.601   2.171  0.1237  0.0365 -1.1207
  590SOL    HW2 2359   0.473   2.684   2.278  1.4350  0.6728 -1.7140
  590SOL     MW 2360   0.431   2.610   2.257  0.4757  0.8573 -0.4956
  591SOL     OW 2361   2.274   0.734   3.072  0.2632  0.1456 -0.2857
  591SOL    HW1 2362   2.216   0.812   3.043 -0.4160 -0.2933 -4.6835
  591SOL    HW2 2363   2.358   0.748   3.037 -0.0810  2.9656  0.4753
  591SOL     MW 2364   2.277   0.746   3.064  0.1282  0.4597 -0.7656
  592SOL     OW 2365   1.813   2.951   0.827 -0.7508 -0.6819  0.0786
  592SOL    HW1 2366   1.801   3.005   0.748 -1.3609  0.9147  0.7409
  592SOL    HW2 2367   1.872   2.882   0.802 -1.4581  0.5550  1.9361
  592SOL     MW 2368   1.819   2.949   0.813 -0.9246 -0.3081  0.4110
  593SOL     OW 2369   1.893   0.729   0.863  0.1124 -0.3244  0.2319
  593SOL    HW1 2370   1.808   0.735   0.817 -0.3773  2.1620  0.1142
  593SOL    HW2 2371   1.923   0.637   0.870 -1.3083 -0.5287  1.9599
  593SOL     MW 2372   1.886   0.718   0.858 -0.1397 -0.0233  0.4443
  594SOL     OW 2373   2.767   1.163   1.368  0.3526  0.1397 -0.8850
  594SOL    HW1 2374   2.845   1.213   1.386 -1.6015  0.3875 -0.4731
  594SOL    HW2 2375   2.783   1.112   1.288  0.2572  0.3635 -1.8418
  594SOL     MW 2376   2.779   1.163   1.360  0.0822  0.2019 -0.9569
  595SOL     OW 2377   0.510   0.950   0.746 -0.1871  1.1151 -0.1838
  595SOL    HW1 2378   0.537   1.007   0.675  2.1966 -1.5086  1.7093
  595SOL    HW2 2379   0.518   1.000   0.829  0.2901  1.5038  0.3736
  595SOL     MW 2380   0.515   0.964   0.747  0.1903  0.8203  0.1395
  596SOL     OW 2381   2.512   1.346   0.513  0.7638  0.1962  0.3607
  596SOL    HW1 2382   2.549   1.424   0.479 -1.3551 -0.5119  0.0244
  596SOL    HW2 2383   2.560   1.314   0.589 -2.2948 -1.3958  1.6121
  596SOL     MW 2384   2.523   1.352   0.518  0.0807 -0.1073  0.4814
  597SOL     OW 2385   2.179   0.688   1.605  0.3503  0.0789  0.0765
  597SOL    HW1 2386   2.213   0.628   1.668 -0.8185  1.6750  1.1545
  597SOL    HW2 2387   2.100   0.637   1.574 -0.2493  0.4871 -3.3508
  597SOL     MW 2388   2.173   0.674   1.609  0.1170  0.3434 -0.2335
  598SOL     OW 2389   2.592   0.982   2.891  0.0172 -0.3614 -0.4006
  598SOL    HW1 2390   2.598   0.939   2.813 -1.2178  0.4552  0.1575
  598SOL    HW2 2391   2.660   1.047   2.902 -1.0232  2.3322 -0.6707
  598SOL     MW 2392   2.602   0.985   2.882 -0.2830  0.1017 -0.3626
  599SOL     OW 2393   2.915   0.409   2.085  0.1354  0.1054  0.1742
  599SOL    HW1 2394   2.889   0.413   2.177  0.7976  0.7279  0.0100
  599SOL    HW2 2395   2.962   0.499   2.070  2.0213  0.6862 -0.0516
  599SOL     MW 2396   2.917   0.421   2.095  0.4716  0.2642  0.1228
  600SOL     OW 2397   1.915   1.764   0.885  0.0879  0.0586 -0.0804
  600SOL    HW1 2398   1.923   1.796   0.979 -2.1258 -1.8529  0.4839
  600SOL    HW2 2399   1.821   1.775   0.871  2.3354 -2.0929  3.6149
  600SOL     MW 2400   1.904   1.770   0.896  0.0923 -0.4774  0.4816
  601SOL     OW 2401   2.509   0.808   0.832 -0.0521 -0.1099 -0.3388
  601SOL    HW1 2402   2.519   0.798   0.928  1.6330 -1.2318  2.5420
  601SOL    HW2 2403   2.441   0.740   0.802 -0.0770 -0.7461 -0.5028
  601SOL     MW 2404   2.501   0.798   0.841  0.1670 -0.3419  0.0197
  602SOL     OW 2405   2.293   1.961   0.827 -0.1720 -0.4222 -0.0786
  602SOL    HW1 2406   2.266   1.870   0.855  1.6676 -2.3622 -1.3316
  602SOL    HW2 2407   2.215   1.991   0.778 -2.0256 -0.2510 -0.4481
  602SOL     MW 2408   2.279   1.953   0.824 -0.1738 -0.6556 -0.2927
  603SOL     OW 2409   3.075   1.374   1.815 -0.2400  0.0947  0.4827
  603SOL    HW1 2410   3.126   1.405   1.890  1.1168 -2.8529 -0.7981
  603SOL    HW2 2411   3.060   1.280   1.821 -1.2028 -2.2275  1.5259
  603SOL     MW 2412   3.080   1.366   1.826 -0.1880 -0.6006  0.4513
  604SOL     OW 2413   2.120   1.549   0.468  0.1776  0.1385  0.3821
  604SOL    HW1 2414   2.136   1.469   0.514  1.8215  1.3173  0.1590
  604SOL    HW2 2415   2.059   1.594   0.523  3.2625 -3.9977 -1.7902
  604SOL     MW 2416   2.114   1.544   0.481  0.8015 -0.2517  0.0660
  605SOL     OW 2417   2.650   1.527   0.834  0.0227 -0.0053 -0.6307
  605SOL    HW1 2418   2.613   1.598   0.776  1.0004  0.7952  0.0283
  605SOL    HW2 2419   2.620   1.438   0.805 -1.9628 -0.2029  3.8117
  605SOL     MW 2420   2.641   1.525   0.822 -0.1103  0.0743  0.0424
  606SOL     OW 2421   2.581   1.858   1.904  0.3938  0.0303  0.1438
  606SOL    HW1 2422   2.486   1.845   1.905  0.3977  2.6230 -2.2947
  606SOL    HW2 2423   2.618   1.786   1.853 -0.8888  0.6877 -2.5627
  606SOL     MW 2424   2.573   1.847   1.898  0.2251  0.4591 -0.5351
  607SOL     OW 2425   2.352   1.036   3.044 -0.3299 -0.2397  0.0120
  607SOL    HW1 2426   2.424   1.005   2.989  0.4030 -1.8819  1.3821
  607SOL    HW2 2427   2.382   1.025   3.140  3.0809 -0.9678  0.7719
  607SOL     MW 2428   2.365   1.030   3.050  0.2168 -0.5524  0.2931
  608SOL     OW 2429   1.903   0.295   0.620 -0.5626 -0.1859  0.3373
  608SOL    HW1 2430   1.891   0.343   0.537  0.7732 -1.4237  0.3159
  608SOL    HW2 2431   1.866   0.203   0.599  2.7999  0.1565 -4.0264
  608SOL     MW 2432   1.897   0.289   0.606  0.0573 -0.3040 -0.2412
  609SOL     OW 2433   2.093   2.003   3.048 -0.1022  0.4456  0.0274
  609SOL    HW1 2434   2.012   1.949   3.048 -0.2747  0.6346  1.1189
  609SOL    HW2 2435   2.141   1.964   3.125  2.3545  2.1938  0.1341
  609SOL     MW 2436   2.089   1.991   3.058  0.1991  0.7012  0.1855
  610SOL     OW 2437   1.772   1.013   1.255 -0.7213 -0.2194  0.0986
  610SOL    HW1 2438   1.775   0.943   1.189 -0.3145  0.5260  0.8549
  610SOL    HW2 2439   1.680   1.026   1.263  2.3078 -2.1363  1.1238
  610SOL     MW 2440   1.760   1.006   1.247 -0.2680 -0.3739  0.3336
  611SOL     OW 2441   2.512   1.750   0.694  0.6528 -0.0842 -0.1310
  611SOL    HW1 2442   2.463   1.798   0.759 -0.5854  1.1467  0.2797
  611SOL    HW2 2443   2.475   1.783   0.613 -2.8025  4.8215  0.6354
  611SOL     MW 2444   2.501   1.761   0.692  0.0335  0.7255  0.0243
  612SOL     OW 2445   2.811   2.836   0.388  0.2124 -0.2844 -0.2733
  612SOL    HW1 2446   2.860   2.868   0.466  0.4398  0.9316 -0.7663
  612SOL    HW2 2447   2.877   2.799   0.328 -1.1187 -0.4936 -0.7866
  612SOL     MW 2448   2.827   2.835   0.391  0.0667 -0.1516 -0.4061
  613SOL     OW 2449   1.481   0.989   0.940 -0.1594  0.2083 -0.3951
  613SOL    HW1 2450   1.491   1.083   0.961 -0.7282  1.2461  2.0351
  613SOL    HW2 2451   1.481   0.949   1.031  1.8179 -1.7035 -1.1254
  613SOL     MW 2452   1.483   0.996   0.955  0.0265  0.0930 -0.1708
  614SOL     OW 2453   1.974   0.533   1.503  0.0742 -0.2935 -0.1674
  614SOL    HW1 2454   1.964   0.448   1.540 -0.5596  1.8530  1.3878
  614SOL    HW2 2455   1.954   0.537   1.409 -2.5474 -0.1460 -0.0475
  614SOL     MW 2456   1.970   0.522   1.496 -0.3553  0.0092  0.0536
  615SOL     OW 2457   2.374   0.748   0.292  0.3454 -0.3012  0.1815
  615SOL    HW1 2458   2.450   0.701   0.326  0.9463 -0.1096  0.5732
  615SOL    HW2 2459   2.352   0.717   0.207  1.6276 -0.2676  1.0608
  615SOL     MW 2460   2.381   0.738   0.285  0.5939 -0.2715  0.3492
  616SOL     OW 2461   2.520   0.421   1.595 -0.3074  0.5990  0.3067
  616SOL    HW1 2462   2.493   0.351   1.542  1.3867 -0.6120 -0.2673
  616SOL    HW2 2463   2.564   0.478   1.534 -1.4739 -0.6299 -0.0220
  616SOL     MW 2464   2.522   0.420   1.580 -0.2378  0.2771  0.1876
  617SOL     OW 2465   2.928   0.550   1.741 -0.2394 -0.2413  0.4064
  617SOL    HW1 2466   2.831   0.546   1.758  0.0670 -0.0441  0.7047
  617SOL    HW2 2467   2.963   0.464   1.710 -0.8962 -1.8139 -1.1868
  617SOL     MW 2468   2.920   0.538   1.739 -0.2856 -0.4228  0.2355
  618SOL     OW 2469   2.690   0.326   1.952  0.1945  0.3630 -0.6525
  618SOL    HW1 2470   2.671   0.400   1.894  1.4262 -0.0999  0.3024
  618SOL    HW2 2471   2.764   0.357   2.010  1.9154 -1.1190 -3.1843
  618SOL     MW 2472   2.697   0.340   1.952  0.5841  0.1063 -0.8605
  619SOL     OW 2473   2.663   0.661   0.126  0.0719 -0.1819 -0.3736
  619SOL    HW1 2474   2.688   0.745   0.158 -2.5487 -2.3938  1.9473
  619SOL    HW2 2475   2.632   0.618   0.208 -0.9324 -1.5532 -1.5104
  619SOL     MW 2476   2.662   0.667   0.141 -0.4064 -0.6546 -0.2173
  620SOL     OW 2477   2.319   1.040   1.000 -0.4786  0.1736  0.7698
  620SOL    HW1 2478   2.383   1.037   0.929  1.5911  1.8423  2.4630
  620SOL    HW2 2479   2.253   0.975   0.966  2.5853  1.4229 -2.7603
  620SOL     MW 2480   2.319   1.031   0.986  0.1988  0.5586  0.5274
  621SOL     OW 2481   1.459   2.136   1.946 -0.0525 -0.2729 -0.0161
  621SOL    HW1 2482   1.406   2.069   1.980  2.3869 -1.7264  0.5402
  621SOL    HW2 2483   1.548   2.102   1.953 -1.1296 -0.2147 -0.8753
  621SOL     MW 2484   1.464   2.123   1.951  0.1273 -0.4570 -0.0561
  622SOL     OW 2485   2.593   0.177   0.267  0.0455  0.2053 -0.2271
  622SOL    HW1 2486   2.691   0.177   0.256 -1.7077 -1.9883  1.9972
  622SOL    HW2 2487   2.580   0.084   0.281 -0.4263  1.7152  0.8451
  622SOL     MW 2488   2.604   0.164   0.267 -0.2480  0.1151  0.2078
  623SOL     OW 2489   2.350   2.809   0.863  0.3267  0.2507 -0.0066
  623SOL    HW1 2490   2.413   2.880   0.889 -1.3559  1.0120  0.6755
  623SOL    HW2 2491   2.295   2.803   0.938  2.1470 -0.3238  1.0949
  623SOL     MW 2492   2.351   2.817   0.876  0.3449  0.2754  0.2287
  624SOL     OW 2493   2.187   1.698   3.009 -0.3482  0.5348  0.1531
  624SOL    HW1 2494   2.143   1.613   3.021  1.4421  0.0268 -0.8910
  624SOL    HW2 2495   2.110   1.746   3.016 -1.2676  1.9064 -0.7659
  624SOL     MW 2496   2.171   1.693   3.011 -0.2333  0.6487 -0.1059
  625SOL     OW 2497   2.199   2.027   1.126  0.3163 -0.8495 -0.3900
  625SOL    HW1 2498   2.279   1.995   1.162 -1.1938 -0.5239 -0.3835
  625SOL    HW2 2499   2.208   2.079   1.046  2.0990  1.1685 -0.5019
  625SOL     MW 2500   2.211   2.029   1.121  0.3523 -0.5403 -0.4039
  626SOL     OW 2501   0.213   1.595   2.368 -0.1080  0.2584  0.2878
  626SOL    HW1 2502   0.175   1.527   2.319  0.4224  1.7218  0.0047
  626SOL    HW2 2503   0.147   1.623   2.438  0.9900 -0.1496 -0.2862
  626SOL     MW 2504   0.200   1.590   2.371  0.1068  0.3977  0.1747
  627SOL     OW 2505   2.448   0.784   2.638  0.1100 -0.0738  0.4804
  627SOL    HW1 2506   2.437   0.879   2.635 -0.0610  0.8159 -1.2576
  627SOL    HW2 2507   2.431   0.741   2.551 -2.6573 -0.5999  0.8011
  627SOL     MW 2508   2.445   0.791   2.626 -0.2777 -0.0259  0.2934
  628SOL     OW 2509   2.263   1.348   1.361  1.0455 -0.4640 -0.0908
  628SOL    HW1 2510   2.230   1.280   1.296  1.7165  0.1219 -0.3747
  628SOL    HW2 2511   2.357   1.336   1.351 -1.3773  2.0711 -0.9913
  628SOL     MW 2512   2.271   1.337   1.351  0.8144 -0.0522 -0.2470
  629SOL     OW 2513   1.893   0.556   1.230 -0.9444  0.2519 -0.2957
  629SOL    HW1 2514   1.929   0.643   1.224 -0.4898 -0.3243 -1.7127
  629SOL    HW2 2515   1.799   0.562   1.238 -2.4300 -0.6119  1.9624
  629SOL     MW 2516   1.885   0.568   1.231 -1.0804  0.0619 -0.1847
  630SOL     OW 2517   2.435   1.818   3.062  0.1214 -0.3587 -0.5832
  630SOL    HW1 2518   2.436   1.870   2.986  0.9769  2.7681 -0.2235
  630SOL    HW2 2519   2.346   1.778   3.067 -2.8287  2.3459 -1.9398
  630SOL     MW 2520   2.423   1.820   3.052 -0.1549  0.4107 -0.7147
  631SOL     OW 2521   1.968   1.827   1.582  0.0084  0.2009 -0.2428
  631SOL    HW1 2522   1.982   1.744   1.636 -0.3674 -0.8059  1.2670
  631SOL    HW2 2523   1.930   1.785   1.508  0.0042  0.0695  2.1387
  631SOL     MW 2524   1.965   1.810   1.579 -0.0418  0.0507  0.2706
  632SOL     OW 2525   0.117   2.026   1.476  0.8576 -0.4514  0.0071
  632SOL    HW1 2526   0.051   2.053   1.543 -1.7350 -0.7625  1.3510
  632SOL    HW2 2527   0.146   1.939   1.510 -2.2889  1.4117 -0.5228
  632SOL     MW 2528   0.112   2.018   1.489  0.1004 -0.2466  0.1145
  633SOL     OW 2529   2.577   0.587   0.380  0.4250 -0.2956 -0.6267
  633SOL    HW1 2530   2.636   0.563   0.453  1.2079 -2.9835  2.1286
  633SOL    HW2 2531   2.501   0.524   0.392  0.4240 -1.2770  0.9318
  633SOL     MW 2532   2.574   0.576   0.391  0.5281 -0.7797 -0.0575
  634SOL     OW 2533   2.677   3.046   0.618  0.2459  0.0389  0.0699
  634SOL    HW1 2534   2.715   3.136   0.623  1.1192  2.5575 -0.6315
  634SOL    HW2 2535   2.654   3.028   0.528  1.4717 -0.3345 -0.6551
  634SOL     MW 2536   2.679   3.055   0.607  0.5228  0.3219 -0.1183
  635SOL     OW 2537   2.610   0.082   1.860 -0.0428  0.4730 -0.2989
  635SOL    HW1 2538   2.686   0.040   1.822  1.1764 -1.3551 -2.6404
  635SOL    HW2 2539   2.648   0.163   1.907  1.1446  1.3001  1.7315
  635SOL     MW 2540   2.625   0.087   1.861  0.2747  0.3410 -0.3399
  636SOL     OW 2541   2.951   1.674   1.107 -0.4204 -0.5248  0.4879
  636SOL    HW1 2542   2.871   1.693   1.157 -1.4790  0.5838  1.4427
  636SOL    HW2 2543   3.014   1.742   1.128  1.3010  0.4164 -1.9480
  636SOL     MW 2544   2.949   1.686   1.116 -0.3330 -0.2544  0.2925
  637SOL     OW 2545   2.876   1.486   0.655 -0.9488 -0.1814  0.6088
  637SOL    HW1 2546   2.938   1.559   0.650 -2.6627 -0.0874 -1.2750
  637SOL    HW2 2547   2.807   1.509   0.722  0.1783 -1.9345  2.5294
  637SOL     MW 2548   2.875   1.499   0.663 -1.0263 -0.4003  0.6137
  638SOL     OW 2549   2.783   0.493   0.550 -0.2590 -0.5308  0.0445
  638SOL    HW1 2550   2.857   0.520   0.500  0.4723 -0.5415  2.2532
  638SOL    HW2 2551   2.791   0.539   0.631 -0.3400  0.8621  0.5605
  638SOL     MW 2552   2.794   0.503   0.554 -0.1732 -0.3484  0.4040
  639SOL     OW 2553   1.772   0.064   0.561  0.3401 -0.0169 -0.0354
  639SOL    HW1 2554   1.684   0.113   0.545 -1.2511 -0.1404  0.1484
  639SOL    HW2 2555   1.765  -0.019   0.512  0.2966 -0.1684  0.9323
  639SOL     MW 2556   1.760   0.059   0.552  0.1244 -0.0532  0.1165
  640SOL     OW 2557   0.365   1.350   0.096 -0.2349 -0.1424  0.6379
  640SOL    HW1 2558   0.401   1.359   0.008 -0.1383 -2.4381  0.4793
  640SOL    HW2 2559   0.318   1.264   0.105 -0.0638 -0.1625 -0.4907
  640SOL     MW 2560   0.364   1.340   0.085 -0.1996 -0.4479  0.4681
  641SOL     OW 2561   2.237   0.432   0.360 -0.2478 -0.3172 -0.3821
  641SOL    HW1 2562   2.230   0.452   0.265 -1.0282 -0.3284 -0.7849
  641SOL    HW2 2563   2.244   0.340   0.368  0.0357  0.0497 -1.3614
  641SOL     MW 2564   2.237   0.422   0.348 -0.3133 -0.2703 -0.5644
  642SOL     OW 2565   0.048   0.006   0.590  0.1356 -0.3477 -0.2406
  642SOL    HW1 2566  -0.006   0.060   0.529  3.6926  1.4890 -2.1127
  642SOL    HW2 2567  -0.000  -0.077   0.608 -0.8551 -1.9929 -0.1348
  642SOL     MW 2568   0.034   0.002   0.584  0.4742 -0.3224 -0.4736
  643SOL     OW 2569   2.094   0.320   1.675 -0.3448 -0.0555 -1.0284
  643SOL    HW1 2570   2.083   0.224   1.693 -1.6140 -1.4948 -0.4784
  643SOL    HW2 2571   2.114   0.308   1.581  0.2582  1.7010 -2.1385
  643SOL     MW 2572   2.095   0.305   1.665 -0.4327 -0.0136 -1.1023
  644SOL     OW 2573   2.746   1.981   1.054 -0.1091  0.1842 -0.2592
  644SOL    HW1 2574   2.733   1.900   1.101  0.2322  2.7261 -0.1817
  644SOL    HW2 2575   2.658   2.016   1.024  0.2385  0.2155  2.3764
  644SOL     MW 2576   2.732   1.975   1.056 -0.0182  0.5237  0.0988
  645SOL     OW 2577   2.862   0.859   0.670  0.5591 -0.3000 -0.2685
  645SOL    HW1 2578   2.953   0.836   0.678  0.0578  0.9289  0.5790
  645SOL    HW2 2579   2.821   0.774   0.685  0.8059 -0.6549 -0.4909
  645SOL     MW 2580   2.869   0.845   0.673  0.5255 -0.1847 -0.1860
  646SOL     OW 2581   0.181   2.300   0.772  0.2584  0.2670 -0.1283
  646SOL    HW1 2582   0.193   2.207   0.795  0.4745 -4.5243  1.9663
  646SOL    HW2 2583   0.105   2.300   0.717  3.2084 -0.8863 -0.4352
  646SOL     MW 2584   0.173   2.288   0.768  0.6762 -0.5173  0.1076
  647SOL     OW 2585   2.694   0.484   2.974 -0.5744 -0.3012 -0.0289
  647SOL    HW1 2586   2.642   0.425   3.033 -2.5920 -1.6418 -2.9960
  647SOL    HW2 2587   2.640   0.566   2.976  3.2826 -0.7656  0.3803
  647SOL     MW 2588   2.680   0.487   2.982 -0.3317 -0.5393 -0.3664
  648SOL     OW 2589   2.132   0.728   1.130 -0.0685 -0.2267  1.0397
  648SOL    HW1 2590   2.124   0.756   1.037  0.7713  2.7186 -0.8959
  648SOL    HW2 2591   2.122   0.808   1.188 -0.6322 -0.0550  2.1798
  648SOL     MW 2592   2.129   0.743   1.125 -0.0321  0.1846  0.9348
  649SOL     OW 2593   2.297   2.739   1.295  0.0220 -0.1801  0.0356
  649SOL    HW1 2594   2.371   2.792   1.329 -0.1005  1.6396  0.5167
  649SOL    HW2 2595   2.337   2.658   1.264 -1.0156 -2.5417 -2.4984
  649SOL     MW 2596   2.312   2.736   1.295 -0.1311 -0.2516 -0.2353
  650SOL     OW 2597   2.794   0.182   0.669 -0.3447  0.3693 -0.1703
  650SOL    HW1 2598   2.780   0.275   0.665  2.0659  1.3509 -2.2022
  650SOL    HW2 2599   2.870   0.179   0.611  0.1541  0.2993 -0.2461
  650SOL     MW 2600   2.802   0.194   0.661  0.0391  0.4896 -0.4484
  651SOL     OW 2601   2.991   0.411   0.766  0.3795 -0.0868  0.9263
  651SOL    HW1 2602   3.057   0.487   0.764  0.8308  1.4577  0.1363
  651SOL    HW2 2603   2.952   0.411   0.851 -1.0395 -0.0692 -0.2862
  651SOL     MW 2604   2.995   0.421   0.777  0.2518  0.1193  0.6621
  652SOL     OW 2605   2.419   1.503   3.004  0.4334 -0.3810 -0.5662
  652SOL    HW1 2606   2.480   1.504   2.926 -0.2272 -0.7211 -0.9616
  652SOL    HW2 2607   2.359   1.573   2.998 -1.5468 -0.1284 -1.6031
  652SOL     MW 2608   2.419   1.512   2.993  0.0850 -0.3926 -0.7552
  653SOL     OW 2609   1.902   0.441   0.356 -0.4071 -0.4139  0.3345
  653SOL    HW1 2610   1.882   0.371   0.299  0.3079  1.1038 -0.2779
  653SOL    HW2 2611   1.999   0.450   0.378 -0.9567 -0.7437  0.5341
  653SOL     MW 2612   1.912   0.433   0.351 -0.3853 -0.2572  0.2800
  654SOL     OW 2613   2.450   1.052   0.745 -0.5492 -0.3087 -0.1835
  654SOL    HW1 2614   2.360   1.043   0.713  0.5362 -0.7875 -0.5073
  654SOL    HW2 2615   2.486   0.960   0.763 -0.1893 -1.1933 -1.7791
  654SOL     MW 2616   2.443   1.038   0.743 -0.3585 -0.4886 -0.4367
  655SOL     OW 2617   2.944   0.882   0.390 -0.0925  0.2115 -0.1154
  655SOL    HW1 2618   2.926   0.930   0.471 -3.3937 -0.8551 -1.0045
  655SOL    HW2 2619   2.947   0.788   0.418 -1.8631 -0.1660  1.0691
  655SOL     MW 2620   2.942   0.876   0.404 -0.7617  0.0210 -0.0764
  656SOL     OW 2621   1.906   2.750   1.282 -0.5808  0.0641  0.4113
  656SOL    HW1 2622   1.900   2.826   1.337 -1.2269 -2.1311 -0.4463
  656SOL    HW2 2623   1.945   2.685   1.334 -0.6603  0.2962  0.7873
  656SOL     MW 2624   1.910   2.751   1.296 -0.6765 -0.1949  0.3477
  657SOL     OW 2625   0.157   1.650   1.279 -0.3159  0.7218 -0.5254
  657SOL    HW1 2626   0.164   1.678   1.189  3.0582 -0.7432 -1.9995
  657SOL    HW2 2627   0.155   1.552   1.272 -0.0535  0.8151 -1.7631
  657SOL     MW 2628   0.158   1.641   1.266  0.1639  0.5408 -0.8832
  658SOL     OW 2629   2.702   1.299   0.216  0.3609 -0.0946  0.2302
  658SOL    HW1 2630   2.658   1.230   0.266  1.5386  1.1015  0.1282
  658SOL    HW2 2631   2.730   1.368   0.277 -0.8684 -0.6542 -0.7964
  658SOL     MW 2632   2.700   1.299   0.231  0.3541 -0.0106  0.0813
  659SOL     OW 2633   2.274   1.481   1.076  0.0356 -0.1498  0.0459
  659SOL    HW1 2634   2.359   1.491   1.043 -1.3014 -3.4105  1.0962
  659SOL    HW2 2635   2.259   1.538   1.153 -0.3665  1.0805 -1.0319
  659SOL     MW 2636   2.283   1.490   1.082 -0.1939 -0.4177  0.0423
  660SOL     OW 2637   2.024   1.602   1.698 -0.2546 -0.1585  0.4077
  660SOL    HW1 2638   2.063   1.596   1.789  0.6594 -0.4597 -0.6052
  660SOL    HW2 2639   1.952   1.532   1.687 -2.2955  2.3796 -3.0974
  660SOL     MW 2640   2.019   1.592   1.708 -0.4033  0.1366 -0.1884
  661SOL     OW 2641   2.377   1.008   0.231 -0.4258  0.1029  0.3137
  661SOL    HW1 2642   2.464   1.041   0.275  1.4923 -0.5657  2.1393
  661SOL    HW2 2643   2.376   0.911   0.240  1.1557  0.3548 -2.7151
  661SOL     MW 2644   2.388   1.000   0.238  0.0360  0.0480  0.1549
  662SOL     OW 2645   2.595   2.984   0.877 -0.2694  0.4797 -0.6607
  662SOL    HW1 2646   2.540   3.053   0.900  0.1240 -1.4932  0.1359
  662SOL    HW2 2647   2.612   2.993   0.782  0.4943 -0.7457 -1.0317
  662SOL     MW 2648   2.590   2.994   0.867 -0.1167  0.0577 -0.6046
  663SOL     OW 2649   2.767   1.491   0.397 -0.0100 -0.6418  0.8784
  663SOL    HW1 2650   2.721   1.582   0.397 -4.3657  0.2994  3.0259
  663SOL    HW2 2651   2.806   1.491   0.488 -1.3473 -0.4936  1.9078
  663SOL     MW 2652   2.766   1.503   0.409 -0.7611 -0.4980  1.2975
  664SOL     OW 2653   2.502   1.511   1.606 -0.0836  0.7080 -0.2330
  664SOL    HW1 2654   2.467   1.596   1.575 -3.3744 -2.0291  1.1993
  664SOL    HW2 2655   2.425   1.472   1.647  1.4684 -0.9638 -0.6454
  664SOL     MW 2656   2.487   1.517   1.607 -0.3130  0.1263 -0.0985
  665SOL     OW 2657   2.864   0.879   2.010 -0.3535  0.4833 -0.1698
  665SOL    HW1 2658   2.841   0.905   1.919  1.1706 -1.0433  1.7258
  665SOL    HW2 2659   2.935   0.817   1.986 -1.9693  0.6680 -0.5746
  665SOL     MW 2660   2.870   0.874   1.995 -0.3656  0.3062  0.0269
  666SOL     OW 2661   2.783   3.015   1.689 -0.4081  0.0576  0.4483
  666SOL    HW1 2662   2.786   3.036   1.595  1.8642  0.9681  0.7228
  666SOL    HW2 2663   2.712   2.947   1.677 -1.3845  2.1432 -1.5496
  666SOL     MW 2664   2.774   3.009   1.675 -0.2371  0.4529  0.2209
  667SOL     OW 2665   1.977   2.640   1.711 -0.1201  0.2544  0.1355
  667SOL    HW1 2666   2.000   2.565   1.769 -2.9215 -1.3391  0.0882
  667SOL    HW2 2667   2.054   2.697   1.698 -0.1355  0.9525 -0.2483
  667SOL     MW 2668   1.991   2.638   1.717 -0.4918  0.1362  0.0786
  668SOL     OW 2669   2.734   0.624   0.787  0.1499 -0.0073  0.3901
  668SOL    HW1 2670   2.812   0.633   0.839  0.9304  1.0430  0.0636
  668SOL    HW2 2671   2.682   0.700   0.796  3.3141 -1.7250 -2.5977
  668SOL     MW 2672   2.738   0.635   0.795  0.6703 -0.0954 -0.0472
  669SOL     OW 2673   0.242   0.935   0.674 -0.2118  0.2129  0.3732
  669SOL    HW1 2674   0.200   1.003   0.734 -0.0753 -1.1885 -0.8618
  669SOL    HW2 2675   0.335   0.928   0.705  2.3675 -1.3119  0.7399
  669SOL     MW 2676   0.249   0.943   0.686  0.1465 -0.1732  0.2586
  670SOL     OW 2677   2.839   0.247   0.225 -0.1626 -0.6684 -0.1198
  670SOL    HW1 2678   2.862   0.183   0.152 -0.4125  0.8333 -0.3993
  670SOL    HW2 2679   2.840   0.332   0.178  0.5019 -0.0364 -0.5033
  670SOL     MW 2680   2.842   0.249   0.209 -0.1079 -0.3868 -0.2073
  671SOL     OW 2681   2.086   2.931   1.491 -0.1830 -0.4303 -0.4204
  671SOL    HW1 2682   2.071   2.973   1.408 -1.2843  2.9480 -1.9092
  671SOL    HW2 2683   2.063   3.002   1.550  0.8688  0.5190 -1.8584
  671SOL     MW 2684   2.081   2.946   1.488 -0.1895  0.1407 -0.8066
  672SOL     OW 2685   1.891   1.685   1.366  0.3492 -0.6051  0.4449
  672SOL    HW1 2686   1.807   1.731   1.380 -1.5250 -1.8312  1.5260
  672SOL    HW2 2687   1.939   1.732   1.293 -2.1859  0.4778  0.1161
  672SOL     MW 2688   1.886   1.697   1.358 -0.2326 -0.6240  0.5442
  673SOL     OW 2689   2.747   1.091   0.577 -0.0883 -0.1560 -0.4719
  673SOL    HW1 2690   2.753   1.006   0.622 -3.4976 -0.9463  1.0672
  673SOL    HW2 2691   2.827   1.138   0.595 -2.9131  1.0044  2.7111
  673SOL     MW 2692   2.758   1.086   0.586 -0.9109 -0.1072  0.1511
  674SOL     OW 2693   2.489   0.082   1.221 -0.9681 -0.1615  0.6713
  674SOL    HW1 2694   2.443   0.070   1.134  0.5564 -0.6275  0.4692
  674SOL    HW2 2695   2.529  -0.005   1.237  0.8784 -0.4572  1.3621
  674SOL     MW 2696   2.488   0.069   1.212 -0.5234 -0.2620  0.7358
  675SOL     OW 2697   3.029   0.873   1.064  0.0771  0.2478  0.1043
  675SOL    HW1 2698   3.075   0.859   1.143  0.5349  0.0983 -1.7701
  675SOL    HW2 2699   3.063   0.933   0.999 -1.8807 -0.0647  1.5871
  675SOL     MW 2700   3.039   0.879   1.066 -0.1208  0.1868  0.0526
  676SOL     OW 2701   2.855   1.471   1.671 -0.6645 -0.2068  0.3764
  676SOL    HW1 2702   2.813   1.394   1.627  2.4335  0.5244  1.8333
  676SOL    HW2 2703   2.940   1.444   1.710 -0.4362 -0.5527  1.1845
  676SOL     MW 2704   2.861   1.457   1.671 -0.2256 -0.1559  0.6752
  677SOL     OW 2705   2.411   0.649   1.970  0.2434 -0.2411 -0.2839
  677SOL    HW1 2706   2.359   0.620   1.892 -0.4480 -0.1156  0.3787
  677SOL    HW2 2707   2.344   0.711   2.004 -2.5778 -0.0258  0.4471
  677SOL     MW 2708   2.395   0.654   1.964 -0.2201 -0.1961 -0.1001
  678SOL     OW 2709   2.527   1.646   0.387 -0.3665  0.1902 -0.0954
  678SOL    HW1 2710   2.458   1.719   0.403 -0.2457  2.9928  0.6047
  678SOL    HW2 2711   2.518   1.615   0.293 -4.1839 -1.9874 -2.2721
  678SOL     MW 2712   2.517   1.652   0.376 -0.8543  0.2727 -0.2902
  679SOL     OW 2713   2.268   0.468   1.164 -0.3107 -0.5488 -0.2339
  679SOL    HW1 2714   2.202   0.402   1.149 -2.1584  0.8738  1.4273
  679SOL    HW2 2715   2.230   0.553   1.151  2.1446  0.2505 -0.5395
  679SOL     MW 2716   2.254   0.470   1.160 -0.2305 -0.2556 -0.0550
  680SOL     OW 2717   2.346   0.152   1.471 -0.1910 -0.4038  0.3663
  680SOL    HW1 2718   2.249   0.166   1.439 -0.3580 -1.1180 -2.1267
  680SOL    HW2 2719   2.409   0.128   1.400  1.4581 -2.5773 -0.2351
  680SOL     MW 2720   2.341   0.151   1.458  0.0046 -0.7848 -0.0420
  681SOL     OW 2721   0.345   0.573   1.553  0.1551 -0.7163  0.3872
  681SOL    HW1 2722   0.326   0.492   1.599  0.0435  0.7853 -0.2532
  681SOL    HW2 2723   0.438   0.575   1.574 -0.1696  2.4555  2.5713
  681SOL     MW 2724   0.355   0.563   1.562  0.0975 -0.0997  0.5909
  682SOL     OW 2725   0.088   2.913   1.482 -0.4653  0.2175  0.3143
  682SOL    HW1 2726   0.072   3.005   1.444 -1.3788  1.2558 -0.7757
  682SOL    HW2 2727   0.019   2.906   1.546  0.3552 -0.6431 -0.4851
  682SOL     MW 2728   0.077   2.924   1.485 -0.4776  0.2410  0.0650
  683SOL     OW 2729   2.064   0.895   3.020  0.1279 -0.5071 -0.7322
  683SOL    HW1 2730   1.989   0.855   2.976  1.0111 -0.0025  0.8396
  683SOL    HW2 2731   2.039   0.981   3.054 -0.2490 -2.0269 -0.5497
  683SOL     MW 2732   2.051   0.901   3.019  0.1947 -0.6410 -0.5007
  684SOL     OW 2733   2.207   1.718   0.919  0.1951 -0.1510 -0.3081
  684SOL    HW1 2734   2.113   1.714   0.938  1.4112 -0.6991 -0.8194
  684SOL    HW2 2735   2.255   1.652   0.956 -0.5033  2.1810  0.5563
  684SOL     MW 2736   2.201   1.709   0.927  0.2634  0.0843 -0.2615
  685SOL     OW 2737   2.678   1.742   1.234  0.1220  0.2818  0.0084
  685SOL    HW1 2738   2.735   1.716   1.310  1.6586 -1.5732 -1.4284
  685SOL    HW2 2739   2.638   1.663   1.192 -0.0444  1.1978 -2.6210
  685SOL     MW 2740   2.680   1.728   1.238  0.3028  0.1579 -0.5281
  686SOL     OW 2741   2.919   0.738   1.526  0.4487 -0.0449  0.0473
  686SOL    HW1 2742   2.938   0.673   1.596  0.5352  0.9002 -1.1977
  686SOL    HW2 2743   3.002   0.769   1.491 -3.4331  1.9697 -0.0137
  686SOL     MW 2744   2.932   0.734   1.530 -0.0521  0.3456 -0.1250
  687SOL     OW 2745   2.073   0.282   1.123 -0.0745 -0.4423 -0.0074
  687SOL    HW1 2746   2.086   0.198   1.075  0.9463 -0.0943  4.5587
  687SOL    HW2 2747   1.991   0.321   1.098  2.0633 -0.1823 -1.3729
  687SOL     MW 2748   2.064   0.276   1.114  0.3423 -0.3621  0.4149
  688SOL     OW 2749   2.393   0.661   1.408  0.1293  0.0618 -0.3313
  688SOL    HW1 2750   2.343   0.593   1.367  1.2309  1.5519 -1.1462
  688SOL    HW2 2751   2.345   0.686   1.489  3.2100 -0.7660 -0.7812
  688SOL     MW 2752   2.380   0.655   1.413  0.6811  0.1492 -0.4982
  689SOL     OW 2753   2.541   0.734   2.997 -0.1090  0.1839  0.2644
  689SOL    HW1 2754   2.571   0.823   2.973 -3.4627 -0.8268  0.5053
  689SOL    HW2 2755   2.571   0.732   3.092  2.5352  3.8243 -1.1911
  689SOL     MW 2756   2.549   0.746   3.007 -0.2026  0.5309  0.1042
  690SOL     OW 2757   2.074   0.943   1.954  0.2281 -0.2747  0.2052
  690SOL    HW1 2758   2.005   0.881   1.971 -0.0110  0.4919  2.2044
  690SOL    HW2 2759   2.089   0.925   1.861 -0.6941  0.6352  0.2115
  690SOL     MW 2760   2.067   0.932   1.944  0.0749 -0.0535  0.4698
  691SOL     OW 2761   2.442   0.257   0.817 -0.2833  0.7210  0.5282
  691SOL    HW1 2762   2.511   0.304   0.867 -0.3892 -0.5869  3.3593
  691SOL    HW2 2763   2.360   0.295   0.859 -0.0962 -1.3197 -1.1580
  691SOL     MW 2764   2.440   0.268   0.829 -0.2726  0.2791  0.6792
  692SOL     OW 2765   2.829   1.654   1.453  0.1357 -0.6037  0.0308
  692SOL    HW1 2766   2.841   1.604   1.535 -0.4059  1.6729 -1.7608
  692SOL    HW2 2767   2.847   1.754   1.476 -1.9718 -0.5106  2.3429
  692SOL     MW 2768   2.833   1.661   1.467 -0.2138 -0.2911  0.0995
  693SOL     OW 2769   2.328   0.489   0.081 -0.3929  0.7239 -0.7617
  693SOL    HW1 2770   2.258   0.426   0.079  2.8351 -1.5746 -0.3073
  693SOL    HW2 2771   2.297   0.558   0.028  1.6232 -1.4846  3.7209
  693SOL     MW 2772   2.315   0.490   0.074  0.2990  0.1292 -0.1103
  694SOL     OW 2773   1.921   1.215   1.090  0.3399 -0.3265 -0.4900
  694SOL    HW1 2774   2.008   1.186   1.129  0.2797  0.8749 -0.9923
  694SOL    HW2 2775   1.856   1.158   1.132 -0.1364  2.3669 -0.6568
  694SOL     MW 2776   1.924   1.203   1.100  0.2692  0.1874 -0.5783
  695SOL     OW 2777   3.023   1.467   1.335 -0.2583  0.5170  0.6642
  695SOL    HW1 2778   3.001   1.447   1.244 -0.7781  0.1060 -1.1114
  695SOL    HW2 2779   2.974   1.542   1.350 -0.7385 -2.8899  2.5449
  695SOL     MW 2780   3.013   1.474   1.325 -0.3902  0.0132  0.6781
  696SOL     OW 2781   2.117   1.379   0.882  0.0261  0.0538  0.3059
  696SOL    HW1 2782   2.156   1.425   0.959 -0.7874 -3.2318 -1.3263
  696SOL    HW2 2783   2.049   1.322   0.916  0.0692 -0.9641 -1.0986
  696SOL     MW 2784   2.113   1.377   0.896 -0.0756 -0.5140 -0.0948
  697SOL     OW 2785   2.924   1.102   2.162 -0.0648  0.1679 -0.1379
  697SOL    HW1 2786   2.856   1.159   2.187 -0.5895  2.0929  0.6408
  697SOL    HW2 2787   2.891   1.027   2.105 -2.1213 -0.0563 -0.6006
  697SOL     MW 2788   2.910   1.099   2.158 -0.4053  0.3923 -0.0962
  698SOL     OW 2789   2.559   0.314   0.039 -0.1815 -0.2129 -0.0775
  698SOL    HW1 2790   2.490   0.379   0.066 -0.6388 -0.2947 -0.2422
  698SOL    HW2 2791   2.560   0.255   0.112 -2.5281 -3.1894  0.3255
  698SOL     MW 2792   2.550   0.315   0.052 -0.5514 -0.6164 -0.0460
  699SOL     OW 2793   1.822   1.667   1.993  0.3754 -0.0688 -0.3429
  699SOL    HW1 2794   1.809   1.578   2.013 -0.9930  0.6063  0.4105
  699SOL    HW2 2795   1.920   1.680   1.990  1.7424  0.9317 -0.7123
  699SOL     MW 2796   1.833   1.657   1.996  0.3752  0.1522 -0.2922
  700SOL     OW 2797   2.698   0.925   1.521 -0.2162 -0.0566 -0.3381
  700SOL    HW1 2798   2.762   0.960   1.462  0.8804  1.3184  1.0107
  700SOL    HW2 2799   2.728   0.835   1.523 -1.4798  0.7052  0.5668
  700SOL     MW 2800   2.711   0.918   1.513 -0.2382  0.2253 -0.0408
  701SOL     OW 2801   1.591   1.245   2.516 -0.1599 -0.4890 -0.4602
  701SOL    HW1 2802   1.682   1.270   2.504  0.2948  0.9398  0.4009
  701SOL    HW2 2803   1.579   1.265   2.610  1.6862 -2.2856  0.0070
  701SOL     MW 2804   1.601   1.251   2.527  0.1437 -0.5376 -0.2850
  702SOL     OW 2805   2.207   0.382   0.867  0.3867  0.1875 -0.1282
  702SOL    HW1 2806   2.174   0.316   0.799 -1.2660 -0.5655  1.1704
  702SOL    HW2 2807   2.251   0.459   0.823 -0.0958  1.1494  0.3454
  702SOL     MW 2808   2.209   0.383   0.852  0.1050  0.2151  0.1056
  703SOL     OW 2809   2.749   1.254   1.020 -0.2455 -0.6094 -0.3670
  703SOL    HW1 2810   2.702   1.234   0.945  1.7436 -1.0972 -0.0754
  703SOL    HW2 2811   2.753   1.171   1.064  0.6363  2.2482 -1.3486
  703SOL     MW 2812   2.744   1.241   1.016  0.1333 -0.2967 -0.4580
  704SOL     OW 2813   0.025   1.311   0.250 -0.0349 -0.4758  0.4562
  704SOL    HW1 2814  -0.034   1.266   0.191  0.2107 -1.4379 -1.6971
  704SOL    HW2 2815   0.025   1.267   0.336  2.0427  1.2456 -3.6311
  704SOL     MW 2816   0.017   1.299   0.253  0.2716 -0.3756 -0.3672
  705SOL     OW 2817   2.227   1.612   1.319 -0.3570  0.3441  0.7107
  705SOL    HW1 2818   2.148   1.626   1.351  3.2382  0.3362 -2.3666
  705SOL    HW2 2819   2.249   1.525   1.345 -1.4797  0.9265  0.4651
  705SOL     MW 2820   2.219   1.603   1.326 -0.0308  0.4199  0.2723
  706SOL     OW 2821   2.957   1.223   0.698  0.5515 -0.2385 -0.2595
  706SOL    HW1 2822   3.020   1.211   0.629 -2.6270  2.0771  1.0614
  706SOL    HW2 2823   2.932   1.316   0.686 -0.5235 -1.4512  1.2489
  706SOL     MW 2824   2.962   1.234   0.687 -0.0097 -0.0930  0.1138
  707SOL     OW 2825   2.388   0.054   0.982 -0.3729 -0.9433  0.5675
  707SOL    HW1 2826   2.410   0.126   0.918  3.8509  1.7114 -0.8567
  707SOL    HW2 2827   2.293   0.062   0.986 -1.0126  2.6249 -0.6250
  707SOL     MW 2828   2.379   0.064   0.974  0.1000 -0.1223  0.2222
  708SOL     OW 2829   2.572   1.540   0.133 -0.2606 -0.5202 -0.4984
  708SOL    HW1 2830   2.624   1.465   0.152 -0.5987 -0.9041  0.1120
  708SOL    HW2 2831   2.503   1.521   0.067 -1.0194 -2.2697  3.3572
  708SOL     MW 2832   2.569   1.527   0.127 -0.4053 -0.8017  0.0908
  709SOL     OW 2833   1.719   1.714   0.122 -0.0161  0.2478 -0.4321
  709SOL    HW1 2834   1.668   1.722   0.041  1.7046 -3.3425  0.5535
  709SOL    HW2 2835   1.661   1.700   0.196 -0.4884 -1.0589  1.9007
  709SOL     MW 2836   1.705   1.713   0.121  0.1486 -0.3983  0.0057
  710SOL     OW 2837   2.180   1.148   1.193  0.2800 -0.0350  0.2537
  710SOL    HW1 2838   2.257   1.132   1.138 -0.9953 -1.7184  1.1867
  710SOL    HW2 2839   2.182   1.070   1.254  1.6275 -0.0421  2.0916
  710SOL     MW 2840   2.191   1.135   1.194  0.2895 -0.2581  0.6193
  711SOL     OW 2841   2.348   0.134   1.751  0.2700 -0.2276  0.4384
  711SOL    HW1 2842   2.426   0.092   1.787 -1.2672  0.4504 -1.8910
  711SOL    HW2 2843   2.362   0.134   1.651  2.3899  2.5020  0.5726
  711SOL     MW 2844   2.360   0.129   1.742  0.3469  0.2220  0.1488
  712SOL     OW 2845   1.896   0.573   3.074  0.2386 -0.7154 -0.1444
  712SOL    HW1 2846   1.869   0.649   3.018  0.9528 -0.7025 -0.6597
  712SOL    HW2 2847   1.910   0.601   3.161 -1.1921  2.7449  1.6394
  712SOL     MW 2848   1.894   0.587   3.078  0.1441 -0.2571  0.0229
  713SOL     OW 2849   2.562   0.814   1.104  0.2206  0.1932  0.5437
  713SOL    HW1 2850   2.583   0.734   1.151  2.1094  3.1014 -0.4454
  713SOL    HW2 2851   2.524   0.874   1.173 -0.6337  0.3790 -0.4209
  713SOL     MW 2852   2.560   0.811   1.119  0.3571  0.6014  0.2859
  714SOL     OW 2853   2.167   0.209   1.965  0.4968  0.1301 -0.1691
  714SOL    HW1 2854   2.218   0.184   2.052 -0.7341 -1.7585 -1.2112
  714SOL    HW2 2855   2.233   0.184   1.898  2.8183  1.5151  1.2808
  714SOL     MW 2856   2.182   0.202   1.968  0.6407  0.0636 -0.1153
  715SOL     OW 2857   1.718   1.913   1.680 -0.4076  0.7091  0.0907
  715SOL    HW1 2858   1.810   1.930   1.658 -3.0697 -1.8686  0.4491
  715SOL    HW2 2859   1.718   1.818   1.695  1.9833 -0.2039  0.7368
  715SOL     MW 2860   1.730   1.902   1.679 -0.4434  0.2485  0.2232
  716SOL     OW 2861   2.356   0.591   0.741 -0.6823  0.4296 -0.6183
  716SOL    HW1 2862   2.420   0.540   0.692 -0.0600  0.1292 -0.5561
  716SOL    HW2 2863   2.296   0.620   0.670 -0.5341  0.4222 -2.4682
  716SOL     MW 2864   2.357   0.588   0.725 -0.5806  0.3890 -0.8542
  717SOL     OW 2865   2.884   1.431   2.910  0.5531  0.5877  0.0486
  717SOL    HW1 2866   2.978   1.439   2.928 -1.4042  0.0358  1.6045
  717SOL    HW2 2867   2.838   1.473   2.982 -2.6168  1.3348  0.3671
  717SOL     MW 2868   2.890   1.437   2.922 -0.1234  0.6135  0.2959
  718SOL     OW 2869   2.541   1.372   1.347  0.5432 -0.2624  0.2701
  718SOL    HW1 2870   2.567   1.418   1.430  0.2139 -1.8158 -2.1952
  718SOL    HW2 2871   2.600   1.302   1.324 -0.5183  0.4313  1.5795
  718SOL     MW 2872   2.552   1.369   1.355  0.3597 -0.3758  0.1176
  719SOL     OW 2873   2.224   1.315   0.633  0.1732 -0.1285  0.1308
  719SOL    HW1 2874   2.307   1.359   0.643  0.8833  0.6160  0.6291
  719SOL    HW2 2875   2.186   1.330   0.719 -1.3954 -0.0325 -2.0634
  719SOL     MW 2876   2.230   1.323   0.646  0.0599 -0.0176 -0.0929
  720SOL     OW 2877   2.927   1.167   0.110 -0.0174 -0.0247 -0.4108
  720SOL    HW1 2878   2.900   1.078   0.126 -3.8846  0.4077  0.6466
  720SOL    HW2 2879   2.840   1.219   0.138  0.6590  3.4735  2.6264
  720SOL     MW 2880   2.912   1.162   0.116 -0.4384  0.4939  0.1295
  721SOL     OW 2881   2.495   0.889   1.354 -0.3002 -0.3020 -0.0619
  721SOL    HW1 2882   2.463   0.800   1.382 -2.1319  0.0798 -0.3290
  721SOL    HW2 2883   2.561   0.926   1.421 -2.1697  2.3429  0.1108
  721SOL     MW 2884   2.499   0.882   1.366 -0.7886  0.0974 -0.0743
  722SOL     OW 2885   2.560   1.121   0.370  0.2840  0.1054  0.2460
  722SOL    HW1 2886   2.522   1.192   0.425  2.4319  0.0222 -0.3832
  722SOL    HW2 2887   2.630   1.077   0.427  2.2095 -3.5807  2.0128
  722SOL     MW 2888   2.564   1.124   0.385  0.8215 -0.3919  0.3961
  723SOL     OW 2889   2.228   1.403   1.664  0.5167  0.0465 -0.2881
  723SOL    HW1 2890   2.223   1.366   1.576 -2.7188 -0.0623 -1.7596
  723SOL    HW2 2891   2.162   1.473   1.665  0.6438  0.4602  1.2102
  723SOL     MW 2892   2.219   1.408   1.652  0.1066  0.0867 -0.2846
  724SOL     OW 2893   2.527   0.419   0.605 -0.1622  0.2077  0.6033
  724SOL    HW1 2894   2.509   0.345   0.666 -2.4032 -0.2656 -2.1183
  724SOL    HW2 2895   2.623   0.422   0.595 -0.7848 -1.8246 -0.5829
  724SOL     MW 2896   2.538   0.409   0.611 -0.5400 -0.1228  0.0877
  725SOL     OW 2897   2.543   0.522   1.140 -0.4574 -0.4295 -0.0384
  725SOL    HW1 2898   2.556   0.511   1.234 -0.6431  0.0907  3.7164
  725SOL    HW2 2899   2.457   0.486   1.129  0.4930  2.7899  0.9827
  725SOL     MW 2900   2.533   0.516   1.151 -0.3565  0.0639  0.5917
  726SOL     OW 2901   2.567   2.458   0.564  0.2252  0.1132 -0.1594
  726SOL    HW1 2902   2.495   2.497   0.509  0.8236  2.0005 -0.6572
  726SOL    HW2 2903   2.542   2.371   0.607 -2.1077 -1.5560  2.5979
  726SOL     MW 2904   2.554   2.452   0.563 -0.0037  0.1419  0.1388
  727SOL     OW 2905   2.927   0.265   1.570 -0.5073  0.5153  0.5602
  727SOL    HW1 2906   2.936   0.304   1.484 -0.0830 -3.8631  1.2805
  727SOL    HW2 2907   2.835   0.272   1.589 -0.4323  0.1872 -2.1479
  727SOL     MW 2908   2.916   0.271   1.561 -0.4414 -0.1057  0.2980
  728SOL     OW 2909   2.829   1.144   2.939  0.1852 -0.6112 -0.5967
  728SOL    HW1 2910   2.837   1.233   2.901  1.2773  0.9723 -0.7881
  728SOL    HW2 2911   2.876   1.158   3.022 -0.6526 -1.2490  0.6353
  728SOL     MW 2912   2.836   1.157   2.945  0.2187 -0.4864 -0.4594
  729SOL     OW 2913   2.547   1.540   1.099 -0.1903  0.0812 -0.9793
  729SOL    HW1 2914   2.571   1.465   1.151 -0.2151  1.3967  0.7610
  729SOL    HW2 2915   2.592   1.527   1.017 -3.2373 -0.6334  1.9026
  729SOL     MW 2916   2.556   1.528   1.095 -0.5956  0.1605 -0.3694
  730SOL     OW 2917   2.139   1.133   0.238  0.1302  0.2256 -0.5831
  730SOL    HW1 2918   2.226   1.107   0.265  0.1609  1.6501  0.7840
  730SOL    HW2 2919   2.126   1.229   0.251  2.3262  1.0186 -2.3374
  730SOL     MW 2920   2.149   1.143   0.243  0.4240  0.5182 -0.6342
  731SOL     OW 2921   2.852   1.865   2.879  0.0889  0.5000 -0.1126
  731SOL    HW1 2922   2.784   1.904   2.814  2.4832 -3.6180  1.2821
  731SOL    HW2 2923   2.902   1.943   2.908  1.2201  0.2354 -2.1697
  731SOL     MW 2924   2.850   1.880   2.874  0.5540 -0.0782 -0.2000
  732SOL     OW 2925   2.211   0.942   1.332 -0.7393  0.5288  0.0603
  732SOL    HW1 2926   2.202   0.961   1.426 -0.2701 -1.8276  0.6039
  732SOL    HW2 2927   2.299   0.912   1.323 -0.3151  1.7124  3.6862
  732SOL     MW 2928   2.221   0.940   1.343 -0.6214  0.3740  0.6104
  733SOL     OW 2929   2.337   2.802   3.009 -0.7622 -0.3620 -0.0846
  733SOL    HW1 2930   2.251   2.850   3.001 -0.5365 -0.2332  2.5093
  733SOL    HW2 2931   2.309   2.708   3.020 -2.6193 -0.8218 -0.5768
  733SOL     MW 2932   2.322   2.796   3.010 -0.9775 -0.4057  0.1927
  734SOL     OW 2933   1.492   0.354   2.466 -0.1835  0.3090 -0.5133
  734SOL    HW1 2934   1.453   0.330   2.550 -1.1695 -0.8386  1.0591
  734SOL    HW2 2935   1.537   0.275   2.426 -1.5221  0.3823 -2.2815
  734SOL     MW 2936   1.493   0.340   2.472 -0.4902  0.1673 -0.5392
  735SOL     OW 2937   2.979   0.949   2.582 -0.0810  0.1380  0.8311
  735SOL    HW1 2938   2.958   0.852   2.595 -1.0004 -0.3162 -2.2174
  735SOL    HW2 2939   3.039   0.978   2.647 -1.3372  0.0617  0.6761
  735SOL     MW 2940   2.984   0.940   2.592 -0.3680  0.0680  0.4084
  736SOL     OW 2941   0.095   0.619   2.567  0.8344 -0.3811  0.1646
  736SOL    HW1 2942   0.146   0.672   2.509  0.7878  2.0123  0.2076
  736SOL    HW2 2943   0.086   0.535   2.516  0.5019 -0.0488  1.1258
  736SOL     MW 2944   0.101   0.615   2.553  0.7844 -0.0215  0.2971
  737SOL     OW 2945   2.937   0.680   2.611 -0.1630 -0.2580  0.3264
  737SOL    HW1 2946   2.881   0.672   2.532  0.0281 -0.1469  0.3271
  737SOL    HW2 2947   3.032   0.671   2.585 -0.3074  0.2522  1.2462
  737SOL     MW 2948   2.943   0.677   2.597 -0.1568 -0.1760  0.4478
  738SOL     OW 2949   0.210   0.518   1.927  0.6625 -0.0119 -0.3831
  738SOL    HW1 2950   0.305   0.547   1.931 -0.1180 -1.4760 -3.8662
  738SOL    HW2 2951   0.214   0.459   1.850  2.5516  0.3995 -3.6329
  738SOL     MW 2952   0.223   0.514   1.918  0.8087 -0.1508 -1.2714
  739SOL     OW 2953   2.470   1.021   2.128 -0.4132  0.6202 -0.1606
  739SOL    HW1 2954   2.378   0.996   2.116 -1.1450  0.5583  1.3253
  739SOL    HW2 2955   2.497   1.069   2.049 -0.3381  1.7334  1.3285
  739SOL     MW 2956   2.461   1.024   2.116 -0.4998  0.7589  0.2320
  740SOL     OW 2957   0.173   1.768   2.965  0.7553  0.6349  0.3619
  740SOL    HW1 2958   0.129   1.683   2.952 -0.1115 -0.8905 -2.9434
  740SOL    HW2 2959   0.265   1.736   2.973  0.1415 -2.4754  2.3507
  740SOL     MW 2960   0.180   1.753   2.964  0.5599  0.0233  0.1882
  741SOL     OW 2961   2.270   1.279   2.719  0.3055  0.2414 -0.0261
  741SOL    HW1 2962   2.200   1.325   2.671  1.5894 -1.1832 -0.1124
  741SOL    HW2 2963   2.237   1.264   2.810 -4.1629  1.2526 -1.3125
  741SOL     MW 2964   2.256   1.283   2.725 -0.1146  0.1868 -0.2072
  742SOL     OW 2965   1.581   1.333   2.221 -0.2967 -0.2147 -0.1708
  742SOL    HW1 2966   1.549   1.244   2.202  0.5134 -0.4062 -0.9935
  742SOL    HW2 2967   1.555   1.346   2.313  0.9072  0.3283 -1.7091
  742SOL     MW 2968   1.573   1.323   2.231 -0.0310 -0.1683 -0.4823
  743SOL     OW 2969   2.527   1.226   2.773  0.4963 -0.2713  0.7250
  743SOL    HW1 2970   2.437   1.246   2.756 -2.2469  1.1327 -1.9469
  743SOL    HW2 2971   2.529   1.129   2.793  0.4438  0.6898 -2.4274
  743SOL     MW 2972   2.515   1.216   2.774  0.1274  0.0407 -0.0435
  744SOL     OW 2973   2.750   0.978   1.793 -0.0107 -0.0728 -0.0724
  744SOL    HW1 2974   2.663   1.008   1.826 -0.7268 -0.0608 -1.3978
  744SOL    HW2 2975   2.735   0.942   1.700  1.0867  1.0143 -0.7936
  744SOL     MW 2976   2.736   0.977   1.785  0.0396  0.0722 -0.3424
  745SOL     OW 2977   1.778   0.419   2.497  0.6957  0.2871  0.2698
  745SOL    HW1 2978   1.779   0.425   2.399  1.9587 -0.9827 -0.7403
  745SOL    HW2 2979   1.689   0.396   2.522 -1.8773 -0.1062 -1.0412
  745SOL     MW 2980   1.767   0.417   2.487  0.5229  0.0677 -0.0365
  746SOL     OW 2981   1.498   1.469   1.708  0.2420  0.2329  0.3724
  746SOL    HW1 2982   1.554   1.546   1.723 -0.6672  2.1631  0.4663
  746SOL    HW2 2983   1.518   1.408   1.781  2.0545 -0.6807 -3.1034
  746SOL     MW 2984   1.508   1.471   1.719  0.3612  0.3670 -0.0738
  747SOL     OW 2985   2.556   1.172   1.917 -0.3606 -0.3703 -0.2843
  747SOL    HW1 2986   2.487   1.183   1.851  3.7982 -1.4753 -0.3132
  747SOL    HW2 2987   2.562   1.258   1.961 -4.6526  0.0004 -0.5967
  747SOL     MW 2988   2.548   1.184   1.914 -0.3782 -0.4672 -0.3293
  748SOL     OW 2989   0.089   3.084   1.855  0.0854  0.3430  0.6153
  748SOL    HW1 2990   0.177   3.118   1.873  2.6612 -0.4714 -0.4244
  748SOL    HW2 2991   0.034   3.131   1.921  0.1275  0.4667  3.3134
  748SOL     MW 2992   0.093   3.095   1.866  0.4308  0.2519  0.8341
  749SOL     OW 2993   2.405   0.547   2.760 -0.0893 -0.5021 -0.2662
  749SOL    HW1 2994   2.421   0.636   2.732  0.6652  1.6075 -0.1497
  749SOL    HW2 2995   2.410   0.556   2.859  0.1621  0.2519 -2.0682
  749SOL     MW 2996   2.408   0.560   2.770  0.0434 -0.1243 -0.4886
  750SOL     OW 2997   2.057   3.071   1.957 -0.0901  0.3368  0.2600
  750SOL    HW1 2998   2.100   3.159   1.951 -1.3144 -0.6123  2.3636
  750SOL    HW2 2999   2.134   3.012   1.955  2.7520 -2.2544 -1.4812
  750SOL     MW 3000   2.073   3.075   1.956  0.1233 -0.1303  0.3078
  751SOL     OW 3001   0.030   0.402   2.393 -0.0406  0.7361 -0.6698
  751SOL    HW1 3002  -0.056   0.360   2.374 -0.4126 -4.3500  0.7233
  751SOL    HW2 3003   0.085   0.383   2.318 -3.0360 -0.8222 -2.2809
  751SOL     MW 3004   0.026   0.394   2.380 -0.4849 -0.1406 -0.6986
  752SOL     OW 3005   2.139   0.893   2.744 -0.3544 -0.5657  0.3096
  752SOL    HW1 3006   2.219   0.945   2.727 -1.9016  2.9353 -0.9009
  752SOL    HW2 3007   2.129   0.892   2.840  0.4289  0.9847  1.5603
  752SOL     MW 3008   2.148   0.900   2.755 -0.4552  0.1008  0.3149
  753SOL     OW 3009   2.851   0.368   2.344 -0.2831 -0.5272  0.0384
  753SOL    HW1 3010   2.779   0.305   2.323  1.2883 -1.9725 -1.7521
  753SOL    HW2 3011   2.807   0.448   2.368  3.1936  0.3023 -1.0268
  753SOL     MW 3012   2.836   0.370   2.344  0.3830 -0.6084 -0.3384
  754SOL     OW 3013   2.205   3.024   2.615  0.0415 -0.1581  0.7896
  754SOL    HW1 3014   2.223   3.017   2.519 -0.8728 -0.9576  1.4222
  754SOL    HW2 3015   2.272   2.966   2.646 -1.1850 -1.3117  0.0400
  754SOL     MW 3016   2.216   3.016   2.606 -0.2410 -0.4158  0.7741
  755SOL     OW 3017   2.769   1.591   2.493 -1.0507  0.7537  0.0467
  755SOL    HW1 3018   2.722   1.509   2.512  2.2230 -2.1716 -1.8855
  755SOL    HW2 3019   2.811   1.614   2.575 -1.1384 -1.5541 -1.0929
  755SOL     MW 3020   2.768   1.584   2.507 -0.6304  0.0633 -0.3586
  756SOL     OW 3021   2.222   1.265   2.985  0.3228  0.4747  0.5759
  756SOL    HW1 3022   2.285   1.326   3.013 -1.9275  0.1416 -0.0820
  756SOL    HW2 3023   2.267   1.181   3.015 -1.5350 -0.2253 -1.2359
  756SOL     MW 3024   2.236   1.262   2.993 -0.2192  0.3384  0.2501
  757SOL     OW 3025   2.138   0.972   1.632 -0.5657  0.0642 -0.0193
  757SOL    HW1 3026   2.143   0.877   1.627 -1.5357  0.9270 -2.1339
  757SOL    HW2 3027   2.063   0.988   1.577 -1.9116  0.0756  0.4537
  757SOL     MW 3028   2.129   0.962   1.624 -0.8713  0.1795 -0.2359
  758SOL     OW 3029   2.242   1.742   2.667 -0.1875  0.6623 -0.2560
  758SOL    HW1 3030   2.220   1.755   2.578 -2.4211 -1.1802  2.3889
  758SOL    HW2 3031   2.337   1.724   2.683  0.1334 -0.3430  0.5484
  758SOL     MW 3032   2.251   1.742   2.657 -0.4399  0.2866  0.1991
  759SOL     OW 3033   1.558   1.386   2.765  0.3191 -0.5308 -0.3688
  759SOL    HW1 3034   1.558   1.476   2.726  2.0100  1.3681 -3.9846
  759SOL    HW2 3035   1.554   1.402   2.854 -1.0234  2.0284 -1.2918
  759SOL     MW 3036   1.558   1.400   2.771  0.3651  0.0574 -0.9676
  760SOL     OW 3037   2.676   1.980   2.678  0.2713 -0.1067  0.3964
  760SOL    HW1 3038   2.619   1.906   2.666  1.4218 -2.1748 -1.9595
  760SOL    HW2 3039   2.747   1.984   2.612 -2.5803 -0.9500 -0.3651
  760SOL     MW 3040   2.678   1.970   2.668  0.0469 -0.4909 -0.0149
  761SOL     OW 3041   2.114   0.409   2.454  0.1693  0.9708 -0.8729
  761SOL    HW1 3042   2.045   0.341   2.446 -2.4772 -3.3161  1.8599
  761SOL    HW2 3043   2.103   0.436   2.542 -2.6780 -0.7072 -0.0025
  761SOL     MW 3044   2.103   0.403   2.465 -0.5556  0.1838 -0.3975
  762SOL     OW 3045   0.014   0.162   2.065 -0.3503 -0.0079 -0.3293
  762SOL    HW1 3046  -0.020   0.131   2.149 -2.8419  0.9530 -0.1602
  762SOL    HW2 3047  -0.034   0.247   2.049 -0.5527  0.8301  2.9856
  762SOL     MW 3048   0.003   0.169   2.074 -0.7058  0.2295  0.1304
  763SOL     OW 3049   2.427   1.169   2.351 -0.0034 -0.2452  0.1605
  763SOL    HW1 3050   2.454   1.123   2.266  0.0041 -2.0676  1.4332
  763SOL    HW2 3051   2.506   1.224   2.377 -0.6050  0.8369 -0.5952
  763SOL     MW 3052   2.441   1.170   2.343 -0.0818 -0.3429  0.2287
  764SOL     OW 3053   0.321   0.172   2.815 -0.0555  0.0390  0.3022
  764SOL    HW1 3054   0.265   0.224   2.751  2.9805  0.8940 -0.6787
  764SOL    HW2 3055   0.314   0.221   2.897  2.7339  0.0687  0.1691
  764SOL     MW 3056   0.312   0.186   2.817  0.7131  0.1557  0.1552
  765SOL     OW 3057   2.701   0.156   2.323 -0.4854 -0.4499  0.0276
  765SOL    HW1 3058   2.628   0.127   2.274 -1.3429  2.0132 -0.4280
  765SOL    HW2 3059   2.759   0.080   2.309 -0.4324 -0.4196  1.4594
  765SOL     MW 3060   2.699   0.142   2.315 -0.5915 -0.1209  0.1564
  766SOL     OW 3061   1.856   3.009   2.126 -0.3701 -0.2910  0.6697
  766SOL    HW1 3062   1.927   3.038   2.063 -0.0133  2.5352  1.1493
  766SOL    HW2 3063   1.787   2.958   2.078 -2.7039  0.0177  1.8173
  766SOL     MW 3064   1.856   3.006   2.111 -0.6309  0.1226  0.8844
  767SOL     OW 3065   2.676   0.603   1.857  0.3348 -0.3381 -0.2052
  767SOL    HW1 3066   2.679   0.684   1.911 -0.9563  1.6246  0.9254
  767SOL    HW2 3067   2.583   0.574   1.862 -0.9030 -0.2610  1.1817
  767SOL     MW 3068   2.664   0.610   1.865  0.0012 -0.0690  0.1270
  768SOL     OW 3069   0.042   1.525   2.912  0.3336 -0.1887  0.4357
  768SOL    HW1 3070   0.071   1.495   3.000 -0.2517 -3.0434  0.2378
  768SOL    HW2 3071   0.078   1.468   2.839  0.9867  0.5962 -1.5752
  768SOL     MW 3072   0.051   1.514   2.914  0.3425 -0.4618  0.1443
  769SOL     OW 3073   2.356   0.655   2.415  0.2470  0.2602 -0.6104
  769SOL    HW1 3074   2.314   0.569   2.398 -1.7970 -2.2332 -1.9003
  769SOL    HW2 3075   2.425   0.664   2.347 -0.0818 -1.1069 -0.7176
  769SOL     MW 3076   2.359   0.645   2.404 -0.0661 -0.2492 -0.7947
  770SOL     OW 3077   0.039   1.625   2.569 -0.2799  0.2421 -0.0984
  770SOL    HW1 3078  -0.060   1.637   2.581 -1.3597 -2.3603 -1.8583
  770SOL    HW2 3079   0.063   1.549   2.625  0.8652  0.8631 -0.6169
  770SOL     MW 3080   0.029   1.616   2.578 -0.2713 -0.0193 -0.3990
  771SOL     OW 3081   3.059   0.626   1.981  0.6928  0.3023 -0.4138
  771SOL    HW1 3082   3.021   0.599   1.893 -1.4483 -1.8702 -1.0493
  771SOL    HW2 3083   3.149   0.608   1.968 -2.0665 -0.0997  3.5107
  771SOL     MW 3084   3.066   0.620   1.968  0.0462 -0.0374  0.0201
  772SOL     OW 3085   0.019   0.022   2.331  0.1069  0.4553 -0.5709
  772SOL    HW1 3086  -0.068  -0.009   2.325  1.7061  1.3898 -1.3881
  772SOL    HW2 3087   0.058  -0.058   2.288  0.0457 -0.0900 -2.2154
  772SOL     MW 3088   0.013   0.008   2.324  0.3098  0.5067 -0.8957
  773SOL     OW 3089   2.419   2.902   2.756 -0.1533  0.0485 -0.0323
  773SOL    HW1 3090   2.423   2.821   2.710  1.0181 -1.3729 -0.5563
  773SOL    HW2 3091   2.397   2.878   2.845  1.3473  2.3884 -0.4344
  773SOL     MW 3092   2.417   2.888   2.762  0.1992  0.1697 -0.1545
  774SOL     OW 3093   2.315   1.181   1.783  0.2188  0.0761  0.3617
  774SOL    HW1 3094   2.303   1.256   1.723  2.3433 -1.6562 -1.0436
  774SOL    HW2 3095   2.274   1.107   1.731  0.1900 -1.0376 -4.6348
  774SOL     MW 3096   2.308   1.181   1.768  0.4953 -0.2994 -0.4830
  775SOL     OW 3097   2.307   2.980   2.358 -0.6550  0.2822  0.3462
  775SOL    HW1 3098   2.327   3.059   2.312 -1.6041 -0.8009 -1.0608
  775SOL    HW2 3099   2.387   2.929   2.345  0.6002  2.5742 -2.9107
  775SOL     MW 3100   2.320   2.984   2.350 -0.6146  0.4417 -0.2692
  776SOL     OW 3101   0.139   1.493   0.089  0.3302  0.0218 -0.3229
  776SOL    HW1 3102   0.227   1.458   0.091 -0.6406  0.8543  2.7085
  776SOL    HW2 3103   0.095   1.436   0.150  2.1977 -2.5982 -0.3890
  776SOL     MW 3104   0.144   1.481   0.098  0.4485 -0.2141  0.0684
  777SOL     OW 3105   3.010   1.102   1.721  0.1260 -0.2761 -0.1660
  777SOL    HW1 3106   3.000   1.136   1.630 -0.0042 -1.3609 -1.0602
  777SOL    HW2 3107   2.923   1.085   1.752 -2.2506 -0.6610  0.7742
  777SOL     MW 3108   2.997   1.104   1.713 -0.2048 -0.4700 -0.1599
  778SOL     OW 3109   2.837   0.432   2.761 -0.4804 -0.2235  0.1370
  778SOL    HW1 3110   2.775   0.435   2.838  1.1813  0.0031  1.2562
  778SOL    HW2 3111   2.857   0.526   2.740 -1.8618  3.1433 -2.0755
  778SOL     MW 3112   2.831   0.445   2.768 -0.4434  0.2506 -0.0073
  779SOL     OW 3113   2.175   0.545   2.198 -1.0964 -0.2176  0.8170
  779SOL    HW1 3114   2.191   0.642   2.194  1.1109  1.9622 -0.3082
  779SOL    HW2 3115   2.109   0.532   2.263  0.8519  0.5338 -1.2496
  779SOL     MW 3116   2.168   0.556   2.206 -0.5481  0.1692  0.3959
  780SOL     OW 3117   0.107   0.290   2.669 -0.5336 -0.2684  0.3609
  780SOL    HW1 3118   0.083   0.354   2.734  0.4491  0.3657  1.6796
  780SOL    HW2 3119   0.024   0.273   2.627 -0.7044 -1.7865 -1.6193
  780SOL     MW 3120   0.093   0.296   2.672 -0.4265 -0.3850  0.2737
  781SOL     OW 3121   3.052   1.300   2.477  0.3149  0.2927  0.7253
  781SOL    HW1 3122   3.028   1.371   2.416  0.3690 -1.3196 -0.8962
  781SOL    HW2 3123   3.074   1.227   2.421 -0.0352 -0.2508  0.7868
  781SOL     MW 3124   3.052   1.300   2.462  0.2758  0.0083  0.5194
  782SOL     OW 3125   0.664   1.575   3.088  0.6169 -0.8906 -0.6552
  782SOL    HW1 3126   0.580   1.589   3.045  1.5051 -2.2102  1.7749
  782SOL    HW2 3127   0.665   1.647   3.158 -0.4340  0.0005 -1.7055
  782SOL     MW 3128   0.653   1.586   3.091  0.5954 -0.9471 -0.4732
  783SOL     OW 3129   2.721   0.598   2.423  0.0618 -0.7391 -0.3937
  783SOL    HW1 3130   2.675   0.624   2.341 -3.0988 -0.2639  1.0589
  783SOL    HW2 3131   2.654   0.541   2.466  1.5680 -0.6048 -0.9704
  783SOL     MW 3132   2.706   0.594   2.418 -0.1565 -0.6587 -0.2781
  784SOL     OW 3133   0.130   0.825   2.813  0.5953  0.3529 -0.2910
  784SOL    HW1 3134   0.045   0.877   2.805 -0.3624 -0.9238 -0.4598
  784SOL    HW2 3135   0.196   0.862   2.751 -0.7055  1.4174 -2.0424
  784SOL     MW 3136   0.127   0.837   2.804  0.2973  0.3249 -0.5444
  785SOL     OW 3137   0.418   0.500   2.179  0.2456  0.5216 -0.0800
  785SOL    HW1 3138   0.421   0.558   2.100  0.5116  1.0141  1.2437
  785SOL    HW2 3139   0.340   0.442   2.163  1.2517 -1.8555  0.9079
  785SOL     MW 3140   0.408   0.500   2.167  0.4135  0.2729  0.2250
  786SOL     OW 3141   1.936   0.345   2.958  0.6603 -0.0778  0.2905
  786SOL    HW1 3142   1.904   0.426   2.998  0.3848 -2.7277 -2.2301
  786SOL    HW2 3143   2.014   0.374   2.904  0.2610 -1.9624 -0.3855
  786SOL     MW 3144   1.942   0.359   2.956  0.5713 -0.6760 -0.1312
  787SOL     OW 3145   2.457   0.160   2.938 -0.0148  0.5582  0.5793
  787SOL    HW1 3146   2.522   0.091   2.913 -2.6701  1.0433 -0.8306
  787SOL    HW2 3147   2.503   0.219   2.998 -0.4504  1.0152 -4.1051
  787SOL     MW 3148   2.472   0.159   2.942 -0.4226  0.6825 -0.2248
  788SOL     OW 3149   2.844   3.010   2.343 -0.7136 -0.1059 -0.1578
  788SOL    HW1 3150   2.872   3.005   2.436  0.7099  0.4638 -2.2943
  788SOL    HW2 3151   2.871   2.928   2.300  0.9220 -1.5717 -2.8609
  788SOL     MW 3152   2.852   2.998   2.350 -0.3099 -0.2241 -0.7964
  789SOL     OW 3153   0.080   0.176   3.036  0.0731 -0.5548  0.2447
  789SOL    HW1 3154   0.010   0.146   3.095  1.0481 -0.6651  3.5377
  789SOL    HW2 3155   0.040   0.236   2.972 -0.4085 -2.0936 -1.0470
  789SOL     MW 3156   0.065   0.180   3.035  0.1382 -0.7724  0.5088
  790SOL     OW 3157   3.098   1.065   2.362  0.5623  0.3548  0.2453
  790SOL    HW1 3158   3.050   1.015   2.422 -0.9705  1.1763 -3.0241
  790SOL    HW2 3159   3.045   1.066   2.283  1.9429 -0.0055 -1.8459
  790SOL     MW 3160   3.085   1.059   2.359  0.5422  0.4156 -0.4620
  791SOL     OW 3161   2.592   0.405   2.609 -0.7256  0.1236  0.2196
  791SOL    HW1 3162   2.535   0.453   2.666  0.5448 -1.7368  1.7973
  791SOL    HW2 3163   2.674   0.391   2.662  3.8286  0.5692  1.8643
  791SOL     MW 3164   2.595   0.409   2.623  0.0429 -0.0630  0.6447
  792SOL     OW 3165   2.352   0.277   2.419  0.2010  0.6655 -0.0061
  792SOL    HW1 3166   2.261   0.317   2.414  1.7277 -0.0667 -1.1506
  792SOL    HW2 3167   2.393   0.270   2.506  0.3859  0.1466 -0.6055
  792SOL     MW 3168   2.345   0.281   2.430  0.4268  0.5004 -0.2362
  793SOL     OW 3169   1.943   1.184   1.930 -0.4963 -0.1720  0.3243
  793SOL    HW1 3170   1.890   1.165   1.843  1.2838 -1.1479 -1.8027
  793SOL    HW2 3171   2.010   1.118   1.922 -1.4459 -0.3207 -0.6169
  793SOL     MW 3172   1.945   1.173   1.918 -0.3867 -0.3204 -0.0805
  794SOL     OW 3173   1.389   2.349   0.126 -0.2208 -0.4876 -0.0593
  794SOL    HW1 3174   1.411   2.357   0.028  0.1082 -0.1724  1.7061
  794SOL    HW2 3175   1.469   2.381   0.170 -1.1237 -2.2795  1.0489
  794SOL     MW 3176   1.403   2.354   0.119 -0.2965 -0.6825  0.3199
  795SOL     OW 3177   2.339   1.047   2.609  0.5253  0.1443  0.2584
  795SOL    HW1 3178   2.315   1.136   2.654 -0.7735  1.0311  3.3771
  795SOL    HW2 3179   2.360   1.066   2.517  2.0047 -1.6055 -0.5974
  795SOL     MW 3180   2.338   1.061   2.603  0.5491  0.0304  0.5570
  796SOL     OW 3181   0.264   0.558   2.782  0.4263  0.2881 -0.1408
  796SOL    HW1 3182   0.224   0.617   2.842  2.1663  1.8264 -2.8318
  796SOL    HW2 3183   0.208   0.556   2.698 -0.7250 -0.7133  0.0201
  796SOL     MW 3184   0.252   0.565   2.779  0.5040  0.3590 -0.4746
  797SOL     OW 3185   2.657   0.100   2.578  0.2657  0.0492 -0.1324
  797SOL    HW1 3186   2.609   0.178   2.595  1.9957 -1.2423 -3.1294
  797SOL    HW2 3187   2.700   0.098   2.490 -1.1013  1.4538 -0.3630
  797SOL     MW 3188   2.656   0.110   2.569  0.3136  0.0641 -0.5583
  798SOL     OW 3189   2.290   0.114   2.209 -0.3623  0.2670  0.7709
  798SOL    HW1 3190   2.289   0.168   2.289 -2.3073  1.0702  1.8811
  798SOL    HW2 3191   2.382   0.112   2.179  0.8051  0.2067 -1.3845
  798SOL     MW 3192   2.302   0.121   2.216 -0.4649  0.3650  0.6330
  799SOL     OW 3193   2.560   2.929   0.066  0.1121  0.1222 -0.6516
  799SOL    HW1 3194   2.470   2.922   0.033  0.6942  1.1732 -1.0479
  799SOL    HW2 3195   2.540   2.938   0.156 -1.1454 -0.4526 -2.9358
  799SOL     MW 3196   2.545   2.929   0.073  0.0230  0.1850 -1.0053
  800SOL     OW 3197   1.953   3.095   1.692  0.2590  0.2926 -0.3538
  800SOL    HW1 3198   1.902   3.015   1.673 -0.9039  1.5704  1.0420
  800SOL    HW2 3199   1.995   3.075   1.776 -1.5472 -0.9223 -2.9322
  800SOL     MW 3200   1.952   3.082   1.701 -0.1328  0.3009 -0.5099
  801SOL     OW 3201   2.810   1.283   2.627  0.0526  0.1983  0.7554
  801SOL    HW1 3202   2.776   1.195   2.618 -0.3278 -0.1937 -1.4622
  801SOL    HW2 3203   2.886   1.266   2.575 -0.8044 -1.7692  1.8651
  801SOL     MW 3204   2.815   1.269   2.619 -0.1106 -0.1130  0.6092
  802SOL     OW 3205   2.621   1.475   2.769 -0.2027  0.8619 -0.1888
  802SOL    HW1 3206   2.587   1.383   2.749  0.8431 -0.2450  1.0568
  802SOL    HW2 3207   2.709   1.448   2.793 -0.1107 -2.9754  0.4530
  802SOL     MW 3208   2.628   1.460   2.770 -0.0526  0.2096  0.0602
  803SOL     OW 3209   2.300   1.401   1.994 -0.7818 -0.3080 -0.4216
  803SOL    HW1 3210   2.267   1.373   2.082  1.5017 -0.1069  1.5149
  803SOL    HW2 3211   2.261   1.342   1.929  1.0371 -0.0148 -2.3172
  803SOL     MW 3212   2.291   1.389   1.997 -0.2405 -0.2428 -0.4162
  804SOL     OW 3213   2.283   0.069   0.041  0.7300  0.4769 -0.1730
  804SOL    HW1 3214   2.228   0.145   0.045  1.7684 -1.8380 -0.5773
  804SOL    HW2 3215   2.339   0.102  -0.030  0.0222 -3.9683 -3.7714
  804SOL     MW 3216   2.283   0.084   0.033  0.7736 -0.4151 -0.7011
  805SOL     OW 3217   2.710   1.027   2.558 -0.6346  0.1883 -0.0387
  805SOL    HW1 3218   2.685   1.010   2.467  1.3915 -1.0489 -0.2651
  805SOL    HW2 3219   2.796   0.979   2.567 -0.0491  3.1444 -0.4623
  805SOL     MW 3220   2.718   1.018   2.547 -0.2900  0.4151 -0.1245
  806SOL     OW 3221   2.562   0.593   2.196  0.1043 -0.7535 -0.1392
  806SOL    HW1 3222   2.584   0.505   2.194 -1.8931 -1.3580  1.9512
  806SOL    HW2 3223   2.504   0.611   2.121 -0.3285 -1.5659 -0.8314
  806SOL     MW 3224   2.557   0.584   2.186 -0.2164 -0.9404  0.0453
  807SOL     OW 3225   0.053   1.177   2.011 -0.5983  0.5594 -0.6109
  807SOL    HW1 3226   0.083   1.086   2.016  1.9133  0.1397 -1.5326
  807SOL    HW2 3227  -0.039   1.164   2.039 -4.9938 -0.9982  1.8099
  807SOL     MW 3228   0.045   1.163   2.016 -0.8469  0.2985 -0.4131
  808SOL     OW 3229   2.633   3.063   2.820 -0.3326  0.0714  0.1094
  808SOL    HW1 3230   2.565   2.991   2.803  1.3461  0.7157 -0.2426
  808SOL    HW2 3231   2.635   3.114   2.741  0.3482 -0.2636  2.0926
  808SOL     MW 3232   2.624   3.060   2.807 -0.0213  0.1122  0.3247
  809SOL     OW 3233   2.600   1.343   2.446  0.2658 -0.4950 -0.8665
  809SOL    HW1 3234   2.650   1.292   2.505  0.8953 -0.9684 -0.3667
  809SOL    HW2 3235   2.652   1.364   2.371 -2.4818 -2.5141 -2.2941
  809SOL     MW 3236   2.613   1.339   2.444 -0.0136 -0.8239 -0.9889
  810SOL     OW 3237   2.211   1.299   2.232 -0.6633  0.1444 -0.5361
  810SOL    HW1 3238   2.281   1.255   2.281  1.4159  0.5317 -0.8735
  810SOL    HW2 3239   2.128   1.283   2.268  1.3409 -1.9287 -1.6727
  810SOL     MW 3240   2.209   1.291   2.243 -0.1245 -0.0780 -0.7306
  811SOL     OW 3241   1.558   0.130   2.291  0.3588 -0.5006  0.3159
  811SOL    HW1 3242   1.633   0.068   2.316  0.7519  0.4125 -1.3838
  811SOL    HW2 3243   1.550   0.123   2.195  2.7490  3.4984  0.3349
  811SOL     MW 3244   1.567   0.121   2.282  0.7261  0.1475  0.0941
  812SOL     OW 3245   1.442   2.814   1.981  0.3810  0.1995  0.4462
  812SOL    HW1 3246   1.531   2.831   1.950 -1.2483  0.1098 -1.5160
  812SOL    HW2 3247   1.463   2.788   2.073 -0.0661 -0.0830  1.4920
  812SOL     MW 3248   1.457   2.813   1.989  0.1070  0.1504  0.3253
  813SOL     OW 3249   1.881   0.699   2.233 -0.2819  0.2190 -0.0202
  813SOL    HW1 3250   1.826   0.616   2.220 -2.7420 -2.7607 -0.6972
  813SOL    HW2 3251   1.847   0.757   2.304 -1.9672 -1.6115  1.0426
  813SOL     MW 3252   1.869   0.696   2.241 -0.8288 -0.4157  0.0307
  814SOL     OW 3253   2.691   1.243   1.635  0.4817  0.3681  0.0253
  814SOL    HW1 3254   2.711   1.161   1.681  0.3567  2.8751 -1.2920
  814SOL    HW2 3255   2.695   1.209   1.541 -0.4496 -2.1968 -2.2403
  814SOL     MW 3256   2.694   1.228   1.629  0.3423  0.3605 -0.4474
  815SOL     OW 3257   2.543   1.735   2.394  0.3979 -0.4747 -0.4082
  815SOL    HW1 3258   2.480   1.668   2.372  3.8419  2.9800  2.2386
  815SOL    HW2 3259   2.626   1.682   2.409 -2.5882 -3.9040 -0.4186
  815SOL     MW 3260   2.546   1.719   2.393  0.4583 -0.4714 -0.0603
  816SOL     OW 3261   0.769   0.655   2.750 -0.0002 -0.7163  0.3760
  816SOL    HW1 3262   0.772   0.571   2.795  0.7138 -0.5951 -2.5745
  816SOL    HW2 3263   0.670   0.647   2.747  0.1177 -1.4292  2.0056
  816SOL     MW 3264   0.757   0.643   2.756  0.1096 -0.7943  0.2018
  817SOL     OW 3265   3.041   1.238   1.469 -0.2772  0.0107  0.3847
  817SOL    HW1 3266   3.132   1.246   1.495  1.1130 -1.0355  0.9066
  817SOL    HW2 3267   3.034   1.326   1.434  3.0899  1.7173 -0.2930
  817SOL     MW 3268   3.052   1.251   1.468  0.3505  0.0978  0.3642
  818SOL     OW 3269   1.876   1.016   2.693  0.1160 -0.5665 -0.4728
  818SOL    HW1 3270   1.847   0.986   2.605 -0.2405 -1.6288  2.4912
  818SOL    HW2 3271   1.959   0.968   2.701  1.6173  2.0201  0.5472
  818SOL     MW 3272   1.883   1.006   2.682  0.2671 -0.3654  0.0528
  819SOL     OW 3273   1.941   0.206   2.430 -0.2533  0.2986 -0.2001
  819SOL    HW1 3274   1.888   0.277   2.458 -0.1971 -2.5139  3.5390
  819SOL    HW2 3275   1.987   0.174   2.510  1.6762 -1.0909  1.6218
  819SOL     MW 3276   1.940   0.211   2.445  0.0087 -0.2558  0.5336
  820SOL     OW 3277   2.523   1.758   2.687 -0.2600 -0.1081 -0.3473
  820SOL    HW1 3278   2.572   1.676   2.724 -1.0225 -2.1730 -2.1008
  820SOL    HW2 3279   2.534   1.754   2.593  0.2628 -0.1384  2.1120
  820SOL     MW 3280   2.531   1.746   2.680 -0.2917 -0.3846 -0.2542
  821SOL     OW 3281   2.562   1.415   2.059  0.7011  0.2494  0.1095
  821SOL    HW1 3282   2.584   1.468   1.982 -2.0509  2.0990 -1.6534
  821SOL    HW2 3283   2.462   1.416   2.042 -1.4813  1.6371 -0.6193
  821SOL     MW 3284   2.552   1.422   2.047  0.0500  0.6765 -0.2193
  822SOL     OW 3285   2.719   2.644   1.376 -0.6038  0.2898 -0.2523
  822SOL    HW1 3286   2.767   2.657   1.454  1.3123  0.0049 -3.5550
  822SOL    HW2 3287   2.659   2.715   1.376  0.3101  0.4362  0.4083
  822SOL     MW 3288   2.717   2.655   1.386 -0.2304  0.2715 -0.6009
  823SOL     OW 3289   2.305   0.467   1.777 -0.3243  0.4748 -0.2257
  823SOL    HW1 3290   2.364   0.451   1.705 -1.7927  0.5969 -1.5835
  823SOL    HW2 3291   2.222   0.429   1.746  1.1798  1.8965 -2.8614
  823SOL     MW 3292   2.302   0.460   1.764 -0.3196  0.6785 -0.7526
  824SOL     OW 3293   2.116   1.456   2.521 -0.5724 -0.3826 -0.4496
  824SOL    HW1 3294   2.192   1.494   2.475  0.6841 -1.5417 -0.2414
  824SOL    HW2 3295   2.088   1.524   2.583  0.6772 -1.1092 -0.9355
  824SOL     MW 3296   2.122   1.470   2.523 -0.2418 -0.6314 -0.4863
  825SOL     OW 3297   1.870   2.548   0.293  0.9616  0.0047  0.0522
  825SOL    HW1 3298   1.867   2.471   0.353 -0.8301  1.6438  0.3151
  825SOL    HW2 3299   1.937   2.523   0.227  1.8450  0.6044  1.4071
  825SOL     MW 3300   1.878   2.535   0.292  0.8417  0.3001  0.2656
  826SOL     OW 3301   1.883   2.366   0.534  0.1710  0.5237  0.0593
  826SOL    HW1 3302   1.840   2.292   0.588  2.5733 -2.7997  0.9689
  826SOL    HW2 3303   1.876   2.448   0.582  0.2951  0.2941 -0.9784
  826SOL     MW 3304   1.876   2.367   0.547  0.5043  0.0549  0.0424
  827SOL     OW 3305   1.931   2.202   0.942 -0.4985  0.1127  0.2473
  827SOL    HW1 3306   1.880   2.260   0.885  0.5743 -5.3271 -0.1031
  827SOL    HW2 3307   1.874   2.137   0.985 -0.6528 -1.0006  1.4424
  827SOL     MW 3308   1.917   2.201   0.940 -0.3773 -0.7519  0.3587
  828SOL     OW 3309   0.078   2.616   0.596  0.4990 -0.2572  0.5836
  828SOL    HW1 3310   0.170   2.595   0.583 -0.6036 -0.7220 -1.9555
  828SOL    HW2 3311   0.051   2.649   0.505  1.1468  3.3997 -0.8839
  828SOL     MW 3312   0.086   2.617   0.582  0.4390  0.1639  0.0550
  829SOL     OW 3313   2.924   2.957   1.140 -0.4378  0.0046  0.1053
  829SOL    HW1 3314   2.838   2.918   1.125  0.9835 -0.1110  0.6256
  829SOL    HW2 3315   2.984   2.880   1.136  0.0520 -1.1211 -0.8069
  829SOL     MW 3316   2.920   2.942   1.138 -0.1857 -0.1591  0.0536
  830SOL     OW 3317   2.516   2.887   2.022  0.2997  0.1005  0.2962
  830SOL    HW1 3318   2.426   2.906   1.994  1.0665  0.4019 -1.9176
  830SOL    HW2 3319   2.559   2.838   1.954 -0.7064 -0.5626 -0.6168
  830SOL     MW 3320   2.509   2.883   2.009  0.2682  0.0527 -0.1163
  831SOL     OW 3321   2.390   2.474   1.275  0.2069  0.0423  0.8242
  831SOL    HW1 3322   2.358   2.423   1.357 -0.1745 -2.5610  2.2096
  831SOL    HW2 3323   2.481   2.439   1.263 -0.9260  0.3550 -0.0352
  831SOL     MW 3324   2.398   2.462   1.284  0.0071 -0.2600  0.8936
  832SOL     OW 3325   2.402   2.184   1.920  0.0919  0.3855  0.0019
  832SOL    HW1 3326   2.416   2.267   1.969 -0.6454  0.1536  0.1150
  832SOL    HW2 3327   2.493   2.170   1.885  0.2233 -4.3097  1.5377
  832SOL     MW 3328   2.416   2.193   1.922  0.0120 -0.2646  0.2195
  833SOL     OW 3329   1.768   2.408   0.859 -0.0161  0.1468 -0.0279
  833SOL    HW1 3330   1.683   2.382   0.891  5.3477 -1.7734 -0.3318
  833SOL    HW2 3331   1.794   2.459   0.938 -0.8175  5.6133  2.4587
  833SOL     MW 3332   1.760   2.411   0.874  0.5858  0.6147  0.2601
  834SOL     OW 3333   2.136   2.476   0.578 -0.1177 -0.4746 -0.3645
  834SOL    HW1 3334   2.070   2.412   0.560 -1.2062  0.8546  0.7187
  834SOL    HW2 3335   2.184   2.467   0.502  3.4599  0.5969 -1.3681
  834SOL     MW 3336   2.133   2.466   0.566  0.2107 -0.1579 -0.3540
  835SOL     OW 3337   1.789   2.595   0.661 -0.0341 -0.6330 -0.2882
  835SOL    HW1 3338   1.762   2.530   0.731 -0.7040 -0.0342 -3.3178
  835SOL    HW2 3339   1.852   2.653   0.696 -1.3077  0.6837  0.1617
  835SOL     MW 3340   1.794   2.594   0.675 -0.2905 -0.3803 -0.6286
  836SOL     OW 3341   1.902   2.204   1.618  0.1517 -0.0771 -0.0672
  836SOL    HW1 3342   1.979   2.247   1.653 -0.2314  1.1576 -0.3971
  836SOL    HW2 3343   1.827   2.263   1.634  1.3984  2.2111  0.5271
  836SOL     MW 3344   1.902   2.217   1.624  0.2656  0.3877 -0.0323
  837SOL     OW 3345   2.136   0.181   0.722  0.2680  0.6485  0.2871
  837SOL    HW1 3346   2.054   0.234   0.700  0.4183  1.8783 -2.9219
  837SOL    HW2 3347   2.174   0.151   0.633  0.6406 -2.3798 -0.1289
  837SOL     MW 3348   2.130   0.184   0.707  0.3370  0.4112 -0.1912
  838SOL     OW 3349   2.955   2.130   0.933  0.1837  0.7606 -0.2470
  838SOL    HW1 3350   2.901   2.081   0.997 -1.4595  0.2954  0.0464
  838SOL    HW2 3351   2.990   2.064   0.877  0.4071 -0.4974  0.2447
  838SOL     MW 3352   2.952   2.115   0.934 -0.0036  0.5332 -0.1434
  839SOL     OW 3353   1.517   2.351   0.959  0.3863 -0.2234 -0.0213
  839SOL    HW1 3354   1.527   2.435   1.005 -0.5148 -0.1519  1.1664
  839SOL    HW2 3355   1.535   2.279   1.024  0.7751 -0.3275  1.5517
  839SOL     MW 3356   1.520   2.353   0.974  0.3187 -0.2277  0.3430
  840SOL     OW 3357   2.348   2.090   2.412 -0.1600  0.3033 -0.2091
  840SOL    HW1 3358   2.306   2.157   2.361 -0.7555 -6.0578 -1.1189
  840SOL    HW2 3359   2.385   2.143   2.484  0.8958 -0.9291 -0.3270
  840SOL     MW 3360   2.347   2.106   2.415 -0.0993 -0.6986 -0.3447
  841SOL     OW 3361   2.077   2.477   0.135  0.0250 -0.0777 -0.2649
  841SOL    HW1 3362   2.130   2.494   0.057 -0.0144 -0.8301  0.1460
  841SOL    HW2 3363   2.063   2.379   0.124  1.4652 -2.7760  1.2466
  841SOL     MW 3364   2.082   2.466   0.123  0.2098 -0.5330 -0.0112
  842SOL     OW 3365   2.603   1.974   1.565  0.4632 -0.6736  0.3701
  842SOL    HW1 3366   2.556   1.895   1.569 -1.4683 -0.5743 -0.7644
  842SOL    HW2 3367   2.559   2.027   1.501 -0.1852  0.4337  0.5064
  842SOL     MW 3368   2.591   1.971   1.557  0.1228 -0.5144  0.2384
  843SOL     OW 3369   2.614   2.761   1.804 -0.7058 -0.3684  0.0521
  843SOL    HW1 3370   2.695   2.738   1.750  2.9039 -0.2835 -2.5811
  843SOL    HW2 3371   2.550   2.700   1.786  1.5555  1.8783  1.9685
  843SOL     MW 3372   2.617   2.750   1.795  0.0688 -0.0608 -0.0425
  844SOL     OW 3373   2.601   2.303   1.196  0.4802 -0.2433  0.5145
  844SOL    HW1 3374   2.630   2.338   1.114 -4.4394 -1.1670 -0.1964
  844SOL    HW2 3375   2.678   2.338   1.249  0.1361  1.7218  2.3900
  844SOL     MW 3376   2.615   2.312   1.192 -0.2143 -0.1059  0.6681
  845SOL     OW 3377   2.847   2.490   0.268  0.0676  0.0953  0.1371
  845SOL    HW1 3378   2.805   2.406   0.268  1.7047  0.0101  1.2427
  845SOL    HW2 3379   2.851   2.520   0.358 -1.1165 -0.6401 -0.8870
  845SOL     MW 3380   2.842   2.483   0.280  0.1274 -0.0130  0.1479
  846SOL     OW 3381   1.540   2.895   0.769  0.5476 -0.4299  0.2592
  846SOL    HW1 3382   1.599   2.921   0.844  1.8726  0.3537  1.4044
  846SOL    HW2 3383   1.446   2.915   0.793 -2.6339 -1.0883  0.2373
  846SOL     MW 3384   1.535   2.901   0.782  0.3026 -0.4134  0.4074
  847SOL     OW 3385   2.579   1.924   0.175  0.1672  0.0487  0.5547
  847SOL    HW1 3386   2.655   1.856   0.181  0.5737 -0.6964  0.0939
  847SOL    HW2 3387   2.522   1.887   0.101 -2.0103 -2.5215  0.9964
  847SOL     MW 3388   2.582   1.910   0.166 -0.0665 -0.3887  0.5522
  848SOL     OW 3389   2.501   2.116   1.364  0.3586 -0.0827  1.1634
  848SOL    HW1 3390   2.551   2.165   1.296  0.8778  0.1270  0.8275
  848SOL    HW2 3391   2.475   2.031   1.329  0.3620 -1.3485  0.9715
  848SOL     MW 3392   2.504   2.112   1.350  0.4275 -0.2220  1.0937
  849SOL     OW 3393   2.005   2.745   0.748  0.3595  0.0612  0.3745
  849SOL    HW1 3394   2.039   2.672   0.800  0.6095  2.8785 -1.8749
  849SOL    HW2 3395   2.088   2.777   0.699  2.6590 -0.6692 -0.5148
  849SOL     MW 3396   2.020   2.740   0.749  0.6959  0.3366 -0.0396
  850SOL     OW 3397   2.191   1.945   1.652  0.6507 -0.2750 -0.6470
  850SOL    HW1 3398   2.126   1.888   1.614  1.4947 -1.6162 -1.8916
  850SOL    HW2 3399   2.163   2.035   1.628 -2.4461 -1.6587  1.5759
  850SOL     MW 3400   2.179   1.949   1.644  0.3535 -0.6345 -0.5179
  851SOL     OW 3401   2.261   2.421   0.337  0.4560 -0.0578 -0.0593
  851SOL    HW1 3402   2.198   2.434   0.263  1.3088  2.2814  0.8716
  851SOL    HW2 3403   2.328   2.492   0.335 -1.1274  1.2596  1.1974
  851SOL     MW 3404   2.261   2.432   0.327  0.3596  0.4247  0.2293
  852SOL     OW 3405   2.362   2.161   0.242  0.2019 -0.3406  0.3688
  852SOL    HW1 3406   2.334   2.228   0.305  0.0683  0.8660 -0.0306
  852SOL    HW2 3407   2.462   2.178   0.233 -0.7692  0.1184 -1.0332
  852SOL     MW 3408   2.371   2.172   0.250  0.0562 -0.1208  0.1311
  853SOL     OW 3409   2.485   2.425   2.017 -0.3206 -0.0921  0.1139
  853SOL    HW1 3410   2.498   2.464   1.931  0.5455 -0.9401 -2.1694
  853SOL    HW2 3411   2.569   2.420   2.054 -1.5850 -1.9141 -0.2238
  853SOL     MW 3412   2.498   2.430   2.010 -0.3732 -0.4444 -0.2319
  854SOL     OW 3413   2.794   2.267   0.761 -0.1696 -0.0664 -0.6030
  854SOL    HW1 3414   2.733   2.201   0.730  0.0492  0.5800 -0.0473
  854SOL    HW2 3415   2.854   2.215   0.819 -0.5783  1.4635  1.9934
  854SOL     MW 3416   2.794   2.252   0.765 -0.1947  0.2207 -0.1871
  855SOL     OW 3417   2.701   2.258   0.357  0.0477  0.0009 -0.0172
  855SOL    HW1 3418   2.694   2.314   0.429 -0.1089 -2.5345  0.9182
  855SOL    HW2 3419   2.771   2.194   0.366  2.3950 -0.8173 -1.2074
  855SOL     MW 3420   2.709   2.257   0.367  0.3368 -0.4416 -0.0509
  856SOL     OW 3421   2.209   1.926   0.200 -0.1943  0.5231  0.1036
  856SOL    HW1 3422   2.120   1.937   0.243  0.3724 -0.9027 -0.3351
  856SOL    HW2 3423   2.267   2.005   0.205  0.9165  1.6665  0.4283
  856SOL     MW 3424   2.205   1.938   0.206  0.0271  0.4859  0.0886
  857SOL     OW 3425   2.577   1.963   0.441  0.1108  0.1232 -0.0026
  857SOL    HW1 3426   2.603   2.047   0.462  0.1886 -1.0217  1.9772
  857SOL    HW2 3427   2.554   1.957   0.341 -1.8332 -0.6849 -3.3178
  857SOL     MW 3428   2.578   1.974   0.430 -0.1354 -0.1345 -0.1788
  858SOL     OW 3429   2.824   2.670   1.661 -0.0002  0.3123  0.6471
  858SOL    HW1 3430   2.916   2.673   1.680 -0.4417 -0.0578 -2.3445
  858SOL    HW2 3431   2.811   2.590   1.707  1.1523 -3.0363 -0.4297
  858SOL     MW 3432   2.835   2.660   1.669  0.0936 -0.1784  0.1103
  859SOL     OW 3433   2.126   2.533   0.897  0.2153 -0.0877  0.2717
  859SOL    HW1 3434   2.122   2.450   0.845  0.8760 -1.4553 -0.5711
  859SOL    HW2 3435   2.222   2.548   0.906 -1.3029  1.3776 -0.5536
  859SOL     MW 3436   2.138   2.524   0.891  0.1022 -0.0748  0.0516
  860SOL     OW 3437   2.616   2.589   0.165  0.0734 -0.0975  0.9976
  860SOL    HW1 3438   2.678   2.547   0.220  0.4812  0.9218  0.5148
  860SOL    HW2 3439   2.667   2.647   0.109 -0.7194 -0.6509 -3.4789
  860SOL     MW 3440   2.631   2.591   0.165  0.0226 -0.0360  0.3432
  861SOL     OW 3441   1.548   2.138   1.116  0.2267  0.3682 -0.2619
  861SOL    HW1 3442   1.590   2.206   1.182  1.4194 -0.8781  3.2473
  861SOL    HW2 3443   1.489   2.081   1.160 -2.4752 -0.3587  0.0787
  861SOL     MW 3444   1.545   2.139   1.130  0.0276  0.1079  0.2460
  862SOL     OW 3445   2.409   1.764   1.555 -0.4331 -0.0688 -0.5202
  862SOL    HW1 3446   2.345   1.832   1.583  2.9485  0.5211  4.9365
  862SOL    HW2 3447   2.413   1.785   1.458 -0.3441  1.0555 -0.8376
  862SOL     MW 3448   2.401   1.776   1.546  0.0248  0.1574  0.1579
  863SOL     OW 3449   0.004   1.913   1.114 -0.3653 -0.0794 -0.2097
  863SOL    HW1 3450   0.099   1.896   1.113  2.4908  0.7996 -2.2359
  863SOL    HW2 3451  -0.025   1.964   1.195 -0.1092 -0.3839  1.7531
  863SOL     MW 3452   0.013   1.918   1.125  0.0453 -0.0036 -0.2180
  864SOL     OW 3453   0.028   1.922   0.838 -0.1523  0.1895 -0.6675
  864SOL    HW1 3454   0.003   1.918   0.932  1.0532  1.7381 -1.4732
  864SOL    HW2 3455  -0.014   1.841   0.805 -0.3909 -3.5883 -1.2450
  864SOL     MW 3456   0.019   1.911   0.846 -0.0247 -0.1046 -0.8500
  865SOL     OW 3457   2.611   2.137   3.095  0.1676 -0.1259 -0.2203
  865SOL    HW1 3458   2.616   2.061   3.157 -0.7967 -0.2549  0.6443
  865SOL    HW2 3459   2.555   2.102   3.025 -0.5369 -1.4060 -0.1917
  865SOL     MW 3460   2.605   2.122   3.094 -0.0526 -0.3118 -0.1024
  866SOL     OW 3461   2.687   2.309   1.600  0.0200 -0.1660  0.0453
  866SOL    HW1 3462   2.668   2.215   1.594 -1.9282 -1.0373  0.4917
  866SOL    HW2 3463   2.758   2.322   1.537 -1.7586 -0.8147  1.0383
  866SOL     MW 3464   2.694   2.298   1.591 -0.4717 -0.3666  0.2352
  867SOL     OW 3465   0.005   2.657   1.782  0.2904 -0.1741  0.0047
  867SOL    HW1 3466   0.016   2.665   1.874 -3.0365  0.7607 -1.7388
  867SOL    HW2 3467  -0.024   2.745   1.752 -1.6974  0.0835 -2.9123
  867SOL     MW 3468   0.003   2.670   1.790 -0.4108 -0.0168 -0.6102
  868SOL     OW 3469   2.822   2.584   0.533 -0.0762  0.0309 -0.0882
  868SOL    HW1 3470   2.736   2.548   0.551  0.9073 -0.4629 -0.5777
  868SOL    HW2 3471   2.807   2.661   0.475 -3.6338  2.0035  0.2029
  868SOL     MW 3472   2.808   2.589   0.528 -0.4158  0.2260 -0.1144
  869SOL     OW 3473   1.991   2.382   1.155 -0.1028 -0.1194  0.7884
  869SOL    HW1 3474   2.075   2.411   1.123 -0.0170 -1.2037  0.3535
  869SOL    HW2 3475   1.965   2.321   1.081 -0.9677 -1.2768 -1.2976
  869SOL     MW 3476   1.998   2.378   1.141 -0.2056 -0.4151  0.4558
  870SOL     OW 3477   2.163   0.045   0.481  0.1573 -0.3165 -0.0888
  870SOL    HW1 3478   2.223   0.092   0.412  1.2109  0.1105 -2.5766
  870SOL    HW2 3479   2.199  -0.044   0.490  1.3157  1.8224 -0.7410
  870SOL     MW 3480   2.176   0.039   0.473  0.4491  0.0220 -0.5031
  871SOL     OW 3481   2.478   2.124   0.954  0.2870 -0.0147 -0.0344
  871SOL    HW1 3482   2.405   2.077   0.912  1.0918  0.9196  1.0133
  871SOL    HW2 3483   2.442   2.200   0.998  1.3344 -2.4253  2.6061
  871SOL     MW 3484   2.464   2.128   0.955  0.5314 -0.2095  0.4522
  872SOL     OW 3485   2.036   2.561   1.465  0.0456  0.3368  0.8151
  872SOL    HW1 3486   1.999   2.578   1.555  2.4884  0.6518  1.8337
  872SOL    HW2 3487   1.987   2.485   1.430  0.1831  0.4448 -0.1435
  872SOL     MW 3488   2.025   2.553   1.472  0.3861  0.3926  0.8230
  873SOL     OW 3489   2.916   2.077   1.918 -0.2466 -0.5043 -0.6541
  873SOL    HW1 3490   2.935   2.138   1.990  0.8553  0.9492 -1.0404
  873SOL    HW2 3491   2.948   2.098   1.830  1.1884 -0.8259  1.5516
  873SOL     MW 3492   2.923   2.088   1.916  0.0881 -0.3550 -0.4141
  874SOL     OW 3493   2.391   1.523   2.373 -0.4694  0.3407 -0.0961
  874SOL    HW1 3494   2.354   1.483   2.299  0.6717 -0.0006 -0.2670
  874SOL    HW2 3495   2.453   1.467   2.422 -2.8865  0.4584  3.1200
  874SOL     MW 3496   2.394   1.510   2.370 -0.6377  0.3112  0.3057
  875SOL     OW 3497   2.282   2.341   1.067  0.0777  0.1767 -0.2747
  875SOL    HW1 3498   2.335   2.400   1.012 -2.2279  0.8305  0.3503
  875SOL    HW2 3499   2.302   2.381   1.154 -2.1914 -0.7111 -0.1822
  875SOL     MW 3500   2.291   2.354   1.071 -0.5259  0.1458 -0.1800
  876SOL     OW 3501   3.042   2.318   1.239 -0.6721 -0.0089 -0.1570
  876SOL    HW1 3502   3.070   2.334   1.146 -0.1711  1.6273  1.3221
  876SOL    HW2 3503   3.110   2.365   1.294  0.5173 -0.4355  2.5113
  876SOL     MW 3504   3.054   2.327   1.234 -0.4490  0.1507  0.3902
  877SOL     OW 3505   3.079   2.721   0.365 -0.8537  0.0555 -0.3584
  877SOL    HW1 3506   3.142   2.790   0.384 -0.6748 -0.6151  1.0752
  877SOL    HW2 3507   3.100   2.674   0.287  2.0978  1.6339 -1.0368
  877SOL     MW 3508   3.090   2.724   0.357 -0.4407  0.1753 -0.2588
  878SOL     OW 3509   2.427   1.863   1.285  0.2609  0.4054  0.2148
  878SOL    HW1 3510   2.362   1.792   1.276  0.1819 -1.0988  3.0782
  878SOL    HW2 3511   2.504   1.827   1.245  2.0212 -1.2696  0.2054
  878SOL     MW 3512   2.428   1.849   1.278  0.4827 -0.0141  0.5914
  879SOL     OW 3513   2.675   2.431   0.959  0.1120  0.3485  0.0292
  879SOL    HW1 3514   2.732   2.488   1.010  1.9523  0.5420  0.1379
  879SOL    HW2 3515   2.724   2.392   0.881 -0.3719 -0.8583 -0.8345
  879SOL     MW 3516   2.689   2.433   0.955  0.2909  0.2148 -0.0704
  880SOL     OW 3517   2.532   2.171   0.678  0.5523  0.1564 -0.2257
  880SOL    HW1 3518   2.525   2.151   0.773 -0.2924  0.4232  4.4404
  880SOL    HW2 3519   2.481   2.105   0.634 -0.8229  3.8211 -1.1491
  880SOL     MW 3520   2.524   2.160   0.685  0.2594  0.6751  0.2681
  881SOL     OW 3521   2.966   2.652   0.774  0.0119  0.1024  0.4653
  881SOL    HW1 3522   2.921   2.628   0.692 -1.4001 -1.9525 -0.7652
  881SOL    HW2 3523   3.059   2.652   0.746 -0.4082  0.8887 -2.6967
  881SOL     MW 3524   2.972   2.649   0.760 -0.2298 -0.0650 -0.1143
  882SOL     OW 3525   2.236   2.889   1.956  0.3733  0.1453 -0.3593
  882SOL    HW1 3526   2.240   2.869   1.863 -1.6519  0.6258 -1.9774
  882SOL    HW2 3527   2.177   2.819   1.991 -0.4008  0.9661 -1.6312
  882SOL     MW 3528   2.229   2.877   1.948  0.0040  0.3170 -0.7406
  883SOL     OW 3529   2.317   2.291   1.468  0.4032 -0.2976  0.7686
  883SOL    HW1 3530   2.384   2.218   1.447  3.5211 -2.0124 -1.5536
  883SOL    HW2 3531   2.246   2.262   1.407 -0.9419 -1.7072 -0.1975
  883SOL     MW 3532   2.316   2.277   1.457  0.6371 -0.7098  0.3348
  884SOL     OW 3533   1.963   1.850   1.156 -0.3092  0.0257  0.1621
  884SOL    HW1 3534   1.881   1.895   1.141  0.1300 -0.0928 -1.3917
  884SOL    HW2 3535   2.035   1.900   1.124  1.9681 -1.2827 -0.6014
  884SOL     MW 3536   1.961   1.862   1.150  0.0492 -0.1626 -0.1437
  885SOL     OW 3537   2.834   2.421   1.805  0.1357 -0.0898  0.6944
  885SOL    HW1 3538   2.923   2.378   1.799  0.7716 -0.3503  0.7660
  885SOL    HW2 3539   2.768   2.371   1.749 -1.9962 -0.4113  0.0450
  885SOL     MW 3540   2.837   2.409   1.797 -0.0617 -0.1666  0.6182
  886SOL     OW 3541   2.793   2.387   1.360  0.1983 -0.1313 -0.3961
  886SOL    HW1 3542   2.879   2.382   1.316  2.4907 -0.5308 -0.5468
  886SOL    HW2 3543   2.787   2.482   1.379 -0.0994  0.1335  2.7683
  886SOL     MW 3544   2.804   2.399   1.357  0.4615 -0.1491  0.0016
  887SOL     OW 3545   2.310   2.600   1.528  0.5290 -0.3728  0.1946
  887SOL    HW1 3546   2.329   2.650   1.444  0.1108  1.0736  0.1848
  887SOL    HW2 3547   2.216   2.568   1.515 -0.4654  0.5685 -0.7464
  887SOL     MW 3548   2.300   2.602   1.515  0.3426 -0.0578  0.0691
  888SOL     OW 3549   1.839   2.119   1.344 -0.0545 -0.3452 -0.2839
  888SOL    HW1 3550   1.909   2.108   1.281  1.2563 -0.0515 -1.3367
  888SOL    HW2 3551   1.878   2.114   1.431 -0.5612  1.1847  1.0174
  888SOL     MW 3552   1.854   2.117   1.347  0.0516 -0.1046 -0.2511
  889SOL     OW 3553   2.337   1.986   2.107  0.0762  0.6475  0.0956
  889SOL    HW1 3554   2.412   1.969   2.165 -1.1148  0.3601 -0.5879
  889SOL    HW2 3555   2.363   2.054   2.043 -0.0488  0.4984 -0.4393
  889SOL     MW 3556   2.350   1.993   2.106 -0.0975  0.5899 -0.0652
  890SOL     OW 3557   0.101   2.388   0.172 -0.1890 -0.2737 -0.4505
  890SOL    HW1 3558   0.042   2.457   0.145 -0.4497 -1.0610  1.7360
  890SOL    HW2 3559   0.050   2.334   0.230  0.0775  1.1223 -0.2707
  890SOL     MW 3560   0.087   2.390   0.176 -0.1882 -0.1934 -0.1383
  891SOL     OW 3561   3.000   2.045   1.324  0.2151  0.2422 -0.1617
  891SOL    HW1 3562   3.075   2.039   1.388 -0.4296 -0.2829  0.7624
  891SOL    HW2 3563   3.009   2.135   1.295  0.7427 -0.1853 -1.9480
  891SOL     MW 3564   3.011   2.056   1.329  0.1997  0.1165 -0.2754
  892SOL     OW 3565   2.440   2.358   2.849  0.4033  0.0283  0.0833
  892SOL    HW1 3566   2.432   2.261   2.861 -0.7746 -0.5161 -1.1789
  892SOL    HW2 3567   2.528   2.388   2.868 -1.6104  0.3364 -0.1541
  892SOL     MW 3568   2.451   2.349   2.853 -0.0178 -0.0029 -0.1146
  893SOL     OW 3569   1.602   2.332   1.298 -0.3265 -0.0668  0.1765
  893SOL    HW1 3570   1.536   2.395   1.338 -0.7627  0.1458 -1.3615
  893SOL    HW2 3571   1.680   2.343   1.351 -2.7065  0.0903  0.9150
  893SOL     MW 3572   1.603   2.342   1.311 -0.6980 -0.0180  0.0710
  894SOL     OW 3573   2.806   1.785   0.463  0.3177 -0.4641 -0.0030
  894SOL    HW1 3574   2.713   1.806   0.505 -0.8506  2.6233  3.6120
  894SOL    HW2 3575   2.802   1.777   0.370 -1.9495 -1.2034  3.4268
  894SOL     MW 3576   2.793   1.787   0.456 -0.1356 -0.1543  0.9265
  895SOL     OW 3577   2.113   2.196   1.315 -0.3228 -0.1607  0.0995
  895SOL    HW1 3578   2.098   2.275   1.270  0.2829  1.5943  2.4666
  895SOL    HW2 3579   2.151   2.136   1.240 -0.2583  0.6422  0.0137
  895SOL     MW 3580   2.116   2.198   1.299 -0.2343  0.1768  0.4005
  896SOL     OW 3581   2.139   2.812   1.084 -0.3875 -0.1813 -0.2974
  896SOL    HW1 3582   2.194   2.793   1.161  1.9342  0.7698 -0.2840
  896SOL    HW2 3583   2.098   2.733   1.075  3.2841  0.0472 -0.5778
  896SOL     MW 3584   2.141   2.799   1.093  0.4032 -0.0256 -0.3326
  897SOL     OW 3585   3.011   2.903   0.108 -0.2787  0.0587  0.1887
  897SOL    HW1 3586   3.091   2.856   0.135  2.0749 -1.4972 -1.0825
  897SOL    HW2 3587   2.927   2.854   0.101 -3.4996 -1.7028 -0.7192
  897SOL     MW 3588   3.011   2.890   0.110 -0.3931 -0.3790 -0.0988
  898SOL     OW 3589   2.065   0.252   1.404 -0.1869 -0.4097  0.3448
  898SOL    HW1 3590   1.997   0.189   1.423  1.6455  0.2615  1.7415
  898SOL    HW2 3591   2.062   0.260   1.311 -0.9887 -0.5512 -1.1776
  898SOL     MW 3592   2.055   0.244   1.395 -0.0509 -0.3398  0.3282
  899SOL     OW 3593   2.926   2.908   0.639  0.2849  0.4794  0.0732
  899SOL    HW1 3594   2.933   2.830   0.694  0.3275  1.9916 -0.3923
  899SOL    HW2 3595   2.845   2.955   0.662  2.0490  0.8768 -0.0721
  899SOL     MW 3596   2.916   2.904   0.649  0.5233  0.7313 -0.0074
  900SOL     OW 3597   0.074   2.414   0.994 -0.3912  0.3261  0.0117
  900SOL    HW1 3598   0.082   2.508   0.966 -1.2898  2.7254  2.3988
  900SOL    HW2 3599   0.099   2.366   0.914  1.5514  1.0566 -2.2614
  900SOL     MW 3600   0.078   2.420   0.980 -0.2535  0.7390  0.0267
  901SOL     OW 3601   1.814   2.849   1.686 -0.3680 -0.4775 -0.0558
  901SOL    HW1 3602   1.871   2.774   1.689  0.1491 -0.6615  0.6738
  901SOL    HW2 3603   1.757   2.841   1.609 -1.3857  1.4649  1.0609
  901SOL     MW 3604   1.814   2.838   1.676 -0.4340 -0.2455  0.1878
  902SOL     OW 3605   2.646   2.129   1.849  0.3931 -0.0504 -0.2818
  902SOL    HW1 3606   2.625   2.034   1.845 -0.9909 -1.8652 -1.5059
  902SOL    HW2 3607   2.730   2.121   1.892  1.9555  3.2172 -1.6354
  902SOL     MW 3608   2.655   2.116   1.854  0.4166  0.1413 -0.6219
  903SOL     OW 3609   1.599   2.789   0.532  0.0720  0.0633 -0.2328
  903SOL    HW1 3610   1.643   2.715   0.574 -0.6741  0.6015  0.4801
  903SOL    HW2 3611   1.566   2.840   0.610 -0.4673  0.1811  2.2238
  903SOL     MW 3612   1.600   2.786   0.547 -0.0976  0.1499  0.1853
  904SOL     OW 3613   2.512   2.499   1.717 -0.1854 -0.2693 -0.0640
  904SOL    HW1 3614   2.443   2.525   1.659  0.3365 -0.7249  0.5997
  904SOL    HW2 3615   2.553   2.428   1.674  1.1201  0.7911  0.3173
  904SOL     MW 3616   2.508   2.493   1.704  0.0557 -0.1895  0.0739
  905SOL     OW 3617   2.309   2.543   2.177  0.3712  0.3450 -0.5742
  905SOL    HW1 3618   2.382   2.498   2.126  0.6143 -2.0612 -2.2312
  905SOL    HW2 3619   2.275   2.464   2.238 -2.9308 -0.6446  0.4730
  905SOL     MW 3620   2.314   2.527   2.178 -0.0324 -0.1030 -0.6546
  906SOL     OW 3621   2.412   2.519   0.927  0.3482  0.8424 -0.0909
  906SOL    HW1 3622   2.508   2.494   0.927  0.8220 -0.1524  1.7327
  906SOL    HW2 3623   2.395   2.611   0.896  0.3841  0.4390  0.1655
  906SOL     MW 3624   2.423   2.528   0.923  0.4155  0.6580  0.1835
  907SOL     OW 3625   2.564   2.872   1.331  0.4823 -0.4203  0.1546
  907SOL    HW1 3626   2.643   2.920   1.358 -0.1896 -0.2319 -0.5198
  907SOL    HW2 3627   2.597   2.846   1.238  0.3705 -2.1796 -1.0909
  907SOL     MW 3628   2.579   2.875   1.323  0.3789 -0.6275 -0.0987
  908SOL     OW 3629   2.777   2.379   0.010 -0.0795  0.2351  0.0215
  908SOL    HW1 3630   2.739   2.292   0.019 -0.8026 -2.9028 -0.0014
  908SOL    HW2 3631   2.714   2.424   0.066 -0.3706  0.4185 -2.0271
  908SOL     MW 3632   2.764   2.374   0.019 -0.2134 -0.1547 -0.2518
  909SOL     OW 3633   1.627   0.176   1.173  0.7363 -0.0146 -0.1377
  909SOL    HW1 3634   1.629   0.254   1.114 -0.6131  1.2955 -0.8849
  909SOL    HW2 3635   1.605   0.219   1.259  0.5669 -0.8474  1.8613
  909SOL     MW 3636   1.625   0.192   1.176  0.5359  0.0484  0.0274
  910SOL     OW 3637   2.305   1.803   0.430 -0.6109 -0.0315 -0.4606
  910SOL    HW1 3638   2.236   1.737   0.453 -0.4809  0.4765  0.2468
  910SOL    HW2 3639   2.275   1.857   0.355 -1.1217  0.8320 -0.2680
  910SOL     MW 3640   2.292   1.801   0.423 -0.6612  0.1495 -0.3418
  911SOL     OW 3641   2.210   2.235   1.707 -0.2342 -0.1945  0.3107
  911SOL    HW1 3642   2.286   2.200   1.759 -1.3160 -0.2228  1.5616
  911SOL    HW2 3643   2.251   2.263   1.619  1.8433 -0.9642 -0.5478
  911SOL     MW 3644   2.226   2.234   1.702 -0.1028 -0.2998  0.3624
  912SOL     OW 3645   2.849   1.905   1.499  0.5862  0.0084  0.4887
  912SOL    HW1 3646   2.873   1.962   1.423 -0.5415  2.0182 -2.0887
  912SOL    HW2 3647   2.761   1.937   1.520  1.6351 -0.1677  2.2665
  912SOL     MW 3648   2.840   1.916   1.492  0.5758  0.2503  0.3832
  913SOL     OW 3649   2.583   3.007   0.361  0.0363  0.1031 -0.0592
  913SOL    HW1 3650   2.652   2.941   0.360  0.3254 -0.6793  0.9003
  913SOL    HW2 3651   2.506   2.961   0.394 -0.0118  0.9925 -3.1060
  913SOL     MW 3652   2.582   2.993   0.365  0.0681  0.1172 -0.3346
  914SOL     OW 3653   2.754   1.668   3.047  0.0118  0.4718  0.2291
  914SOL    HW1 3654   2.791   1.734   2.990  1.0714  1.3162 -2.0038
  914SOL    HW2 3655   2.662   1.674   3.065  1.4596 -0.8038 -2.9923
  914SOL     MW 3656   2.747   1.677   3.042  0.3426  0.4149 -0.4906
  915SOL     OW 3657   1.780   0.250   0.213 -0.8284 -0.1622  0.4909
  915SOL    HW1 3658   1.845   0.188   0.240 -0.1238  2.1318  0.0078
  915SOL    HW2 3659   1.700   0.197   0.218 -0.0274 -0.4656  1.9512
  915SOL     MW 3660   1.778   0.235   0.217 -0.6297  0.1004  0.6198
  916SOL     OW 3661   1.725   2.058   1.947  0.7238 -0.1623  0.0238
  916SOL    HW1 3662   1.802   2.116   1.937 -1.0442  1.7847  1.9056
  916SOL    HW2 3663   1.736   1.996   1.873 -0.7140 -1.9590  1.9346
  916SOL     MW 3664   1.737   2.058   1.936  0.3008 -0.1425  0.5242
  917SOL     OW 3665   2.420   2.321   2.554 -0.1579 -0.0950 -0.4503
  917SOL    HW1 3666   2.431   2.370   2.635 -1.4627 -0.5529 -1.4581
  917SOL    HW2 3667   2.493   2.344   2.494  2.1800 -2.0742  1.5621
  917SOL     MW 3668   2.431   2.330   2.557 -0.0216 -0.4166 -0.3178
  918SOL     OW 3669   1.996   1.644   2.721 -0.3968 -0.1038  0.3308
  918SOL    HW1 3670   1.943   1.674   2.641  0.8992  1.8541  0.6115
  918SOL    HW2 3671   2.085   1.677   2.704  0.1663  1.4168  0.0017
  918SOL     MW 3672   2.001   1.652   2.708 -0.1515  0.3551  0.3244
  919SOL     OW 3673   0.043   2.358   2.241 -0.4253  0.3729  0.0808
  919SOL    HW1 3674  -0.029   2.307   2.200 -2.1589 -1.2459 -0.0335
  919SOL    HW2 3675   0.104   2.324   2.178  1.4866 -0.6886  1.8483
  919SOL     MW 3676   0.042   2.347   2.228 -0.4018  0.0193  0.2989
  920SOL     OW 3677   2.782   2.783   0.021  0.3707 -0.1037  0.0037
  920SOL    HW1 3678   2.708   2.842   0.049 -0.3442  2.6450 -0.2593
  920SOL    HW2 3679   2.759   2.774  -0.074  0.0345 -1.4218  1.3227
  920SOL     MW 3680   2.770   2.790   0.012  0.2320  0.0851  0.1430
  921SOL     OW 3681   2.392   2.638   2.669 -0.4648  0.1117 -0.5339
  921SOL    HW1 3682   2.453   2.606   2.606 -1.2034 -3.5578 -0.2448
  921SOL    HW2 3683   2.425   2.605   2.747  1.8356 -1.0710 -4.0225
  921SOL     MW 3684   2.404   2.630   2.671 -0.2587 -0.5285 -0.9560
  922SOL     OW 3685   2.007   2.784   0.308  0.1600  0.5237  0.3915
  922SOL    HW1 3686   1.982   2.793   0.214  2.1691  3.0390  2.4149
  922SOL    HW2 3687   1.982   2.692   0.328 -1.4343 -2.7150 -0.2549
  922SOL     MW 3688   2.000   2.773   0.298  0.2148  0.4283  0.5732
  923SOL     OW 3689   2.207   2.796   1.685 -0.0503  0.2802 -0.3898
  923SOL    HW1 3690   2.272   2.731   1.651 -0.9329 -1.4801  1.2718
  923SOL    HW2 3691   2.164   2.834   1.608  0.5115 -0.7336  0.8074
  923SOL     MW 3692   2.210   2.792   1.670 -0.0926 -0.0858 -0.0126
  924SOL     OW 3693   1.200   2.661   2.562  0.4606 -1.0314 -0.0237
  924SOL    HW1 3694   1.261   2.732   2.536  0.8271  2.2398 -1.5805
  924SOL    HW2 3695   1.258   2.594   2.602 -2.9778  0.2477  3.1671
  924SOL     MW 3696   1.216   2.662   2.564  0.0553 -0.4310  0.1919
  925SOL     OW 3697   2.930   0.248   2.595 -0.6221  0.4997 -0.1236
  925SOL    HW1 3698   2.914   0.273   2.509  3.1991  1.5545  0.9682
  925SOL    HW2 3699   2.894   0.318   2.658 -0.4482 -0.2611 -0.9015
  925SOL     MW 3700   2.923   0.261   2.592 -0.0950  0.5385 -0.0822
  926SOL     OW 3701   2.743   2.416   2.094 -0.0127  0.1050 -0.3672
  926SOL    HW1 3702   2.804   2.466   2.151  2.0052 -0.1217 -1.3827
  926SOL    HW2 3703   2.787   2.432   2.010  2.5489  1.2099  0.0676
  926SOL     MW 3704   2.757   2.425   2.091  0.5915  0.2209 -0.4438
  927SOL     OW 3705   2.325   0.160   0.308 -0.2840 -0.5893  0.2290
  927SOL    HW1 3706   2.418   0.167   0.333  2.6893 -0.8295  1.5751
  927SOL    HW2 3707   2.320   0.122   0.215  0.7460 -1.7695 -1.8508
  927SOL     MW 3708   2.337   0.156   0.299  0.2442 -0.7767  0.1322
  928SOL     OW 3709   2.080   2.434   1.868  0.1079 -0.4615  0.0608
  928SOL    HW1 3710   2.140   2.376   1.820  0.1408 -2.0931 -0.4647
  928SOL    HW2 3711   2.127   2.463   1.944  2.1743 -0.9607  1.2334
  928SOL     MW 3712   2.094   2.430   1.872  0.3849 -0.7426  0.1462
  929SOL     OW 3713   2.657   2.370   2.410 -0.0632 -0.1035  0.0536
  929SOL    HW1 3714   2.714   2.355   2.332  1.3907 -0.6450 -0.8675
  929SOL    HW2 3715   2.713   2.338   2.479  0.3751  0.3892 -3.0062
  929SOL     MW 3716   2.672   2.364   2.409  0.1864 -0.1099 -0.4717
  930SOL     OW 3717   2.000   2.841   2.682 -0.1412 -0.3592  0.3490
  930SOL    HW1 3718   2.048   2.766   2.723 -0.7860  1.8784 -0.9701
  930SOL    HW2 3719   2.059   2.914   2.682 -0.6302  0.6812  1.2617
  930SOL     MW 3720   2.014   2.841   2.687 -0.2908  0.0733  0.2954
  931SOL     OW 3721   2.988   2.776   2.279  0.5452  0.2461  0.6122
  931SOL    HW1 3722   3.046   2.792   2.356  1.8339 -1.6099  0.0279
  931SOL    HW2 3723   3.051   2.771   2.203  2.8116 -0.0708 -1.4173
  931SOL     MW 3724   3.004   2.777   2.279  1.0143 -0.0406  0.2673
  932SOL     OW 3725   2.900   1.984   2.502 -0.4297  0.1682  0.2258
  932SOL    HW1 3726   2.992   2.002   2.518 -1.4348  0.6273  1.2893
  932SOL    HW2 3727   2.878   1.989   2.408 -2.2511 -1.0532  1.7219
  932SOL     MW 3728   2.909   1.987   2.491 -0.8026  0.0676  0.5635
  933SOL     OW 3729   2.071   2.880   2.248 -0.2314 -0.0593  0.2336
  933SOL    HW1 3730   2.163   2.907   2.257  0.0464 -1.1714  0.3531
  933SOL    HW2 3731   2.027   2.950   2.198  0.5271 -1.3535 -3.3573
  933SOL     MW 3732   2.077   2.893   2.243 -0.0947 -0.3768 -0.2244
  934SOL     OW 3733   2.016   2.708   2.454  0.4148 -0.3005  0.3522
  934SOL    HW1 3734   2.016   2.769   2.530  0.6834  0.2120 -2.0252
  934SOL    HW2 3735   2.045   2.761   2.382  1.3025 -0.1972  0.0927
  934SOL     MW 3736   2.020   2.723   2.455  0.5673 -0.2193  0.0043
  935SOL     OW 3737   2.658   1.593   1.829  0.9070  0.2581  0.2157
  935SOL    HW1 3738   2.745   1.577   1.802 -0.8569 -0.9573  1.0065
  935SOL    HW2 3739   2.600   1.563   1.758 -2.0802  0.3812 -2.2675
  935SOL     MW 3740   2.662   1.587   1.816  0.2802  0.1140 -0.0076
  936SOL     OW 3741   3.025   2.276   3.072 -0.0498 -0.0256  0.2297
  936SOL    HW1 3742   3.103   2.315   3.116  0.0630  1.3831 -1.6181
  936SOL    HW2 3743   2.947   2.329   3.076  1.2671 -0.5838 -0.4788
  936SOL     MW 3744   3.025   2.288   3.079  0.1388  0.0866 -0.1076
  937SOL     OW 3745   2.000   2.148   2.709 -0.3738 -0.6057  0.0778
  937SOL    HW1 3746   2.082   2.090   2.715  2.9095 -2.6078  0.0852
  937SOL    HW2 3747   1.988   2.129   2.618  1.1659 -1.9098 -1.5531
  937SOL     MW 3748   2.009   2.138   2.698  0.2625 -1.0419 -0.1364
  938SOL     OW 3749   2.309   1.810   1.890 -0.4160  0.0632 -0.3723
  938SOL    HW1 3750   2.277   1.859   1.809  0.5100  0.9723  0.0801
  938SOL    HW2 3751   2.305   1.874   1.963 -6.2357 -0.3481 -2.3470
  938SOL     MW 3752   2.304   1.825   1.889 -1.0616  0.1289 -0.5732
  939SOL     OW 3753   2.805   1.991   2.221 -0.1951  0.4640 -0.1456
  939SOL    HW1 3754   2.819   1.935   2.144 -1.2434  0.3300 -2.9882
  939SOL    HW2 3755   2.711   1.990   2.232  0.4393 -0.8420 -2.4555
  939SOL     MW 3756   2.795   1.984   2.212 -0.2497  0.2740 -0.8254
  940SOL     OW 3757   2.327   0.167   2.701  0.0118  0.3554 -0.2447
  940SOL    HW1 3758   2.297   0.075   2.680 -1.1270 -1.0929  0.5406
  940SOL    HW2 3759   2.385   0.160   2.773 -2.0182  1.6893 -2.1797
  940SOL     MW 3760   2.331   0.154   2.708 -0.4063  0.3403 -0.3964
  941SOL     OW 3761   0.190   2.261   2.030  0.0258 -0.1625 -0.5389
  941SOL    HW1 3762   0.279   2.233   2.022 -2.7407  0.7072 -0.5203
  941SOL    HW2 3763   0.153   2.285   1.937  1.0802 -1.1055 -1.3357
  941SOL     MW 3764   0.197   2.261   2.017 -0.2001 -0.1721 -0.6416
  942SOL     OW 3765   2.934   2.216   2.140  0.0311 -0.6556  0.2714
  942SOL    HW1 3766   2.860   2.282   2.128 -0.9185  2.5544  3.5285
  942SOL    HW2 3767   2.890   2.133   2.166  0.1558  1.3575  0.5912
  942SOL     MW 3768   2.918   2.214   2.142 -0.0777  0.0336  0.7433
  943SOL     OW 3769   0.364   2.014   2.313 -0.1296 -0.0438 -0.6995
  943SOL    HW1 3770   0.308   2.073   2.364 -0.3032  0.1915  2.5592
  943SOL    HW2 3771   0.436   2.010   2.372  0.6495  0.4768  0.7965
  943SOL     MW 3772   0.366   2.021   2.327 -0.0497  0.0559 -0.0721
  944SOL     OW 3773   2.111   2.685   2.065 -0.2388 -0.0979 -0.1240
  944SOL    HW1 3774   2.191   2.647   2.109  2.8075  4.1408  0.2589
  944SOL    HW2 3775   2.079   2.744   2.134  0.6677  0.4775  1.0931
  944SOL     MW 3776   2.118   2.688   2.080  0.2827  0.5372  0.0871
  945SOL     OW 3777   2.743   2.697   2.829  0.2005 -0.5373  0.0279
  945SOL    HW1 3778   2.710   2.611   2.861 -2.3733 -0.9977  0.9683
  945SOL    HW2 3779   2.766   2.679   2.737 -1.1127  0.1139 -0.0410
  945SOL     MW 3780   2.742   2.684   2.821 -0.3124 -0.5121  0.1429
  946SOL     OW 3781   2.491   2.742   2.259  0.4033 -0.2908  0.8134
  946SOL    HW1 3782   2.502   2.792   2.176 -3.2349 -1.0325 -0.1966
  946SOL    HW2 3783   2.437   2.673   2.220  1.8665  2.6536 -1.9546
  946SOL     MW 3784   2.485   2.739   2.243  0.1164 -0.0002  0.3149
  947SOL     OW 3785   2.006   0.104   0.245 -0.2741 -0.3077  0.6167
  947SOL    HW1 3786   1.994   0.017   0.192  0.5411 -2.3768 -1.5050
  947SOL    HW2 3787   2.047   0.075   0.329 -1.2182  0.5895 -0.5432
  947SOL     MW 3788   2.010   0.089   0.249 -0.2911 -0.4623  0.1837
  948SOL     OW 3789   1.780   3.013   2.671  0.0114 -0.4582 -0.2109
  948SOL    HW1 3790   1.845   2.941   2.665 -1.5940  1.3613 -0.7280
  948SOL    HW2 3791   1.762   3.047   2.576 -0.3171  0.9201  0.7964
  948SOL     MW 3792   1.786   3.008   2.658 -0.2438 -0.0363 -0.1462
  949SOL     OW 3793   2.548   1.972   2.266 -0.1092  0.2228  0.4544
  949SOL    HW1 3794   2.540   1.883   2.300 -0.9038 -0.2838 -0.4284
  949SOL    HW2 3795   2.499   2.026   2.331  1.7374 -1.6563 -0.1060
  949SOL     MW 3796   2.540   1.967   2.279  0.0296 -0.0920  0.2640
  950SOL     OW 3797   2.254   2.537   3.002  1.2974 -0.0533  0.5822
  950SOL    HW1 3798   2.301   2.471   2.956  0.2842 -0.6442 -0.9041
  950SOL    HW2 3799   2.182   2.570   2.942  0.1002  0.9168 -2.4989
  950SOL     MW 3800   2.251   2.533   2.988  1.0058 -0.0033 -0.0204
  951SOL     OW 3801   2.955   2.131   2.827  0.4435  0.2129  0.2097
  951SOL    HW1 3802   3.006   2.188   2.885  1.4506 -3.0528 -2.2842
  951SOL    HW2 3803   3.018   2.110   2.754 -0.7956  3.2044 -1.3292
  951SOL     MW 3804   2.970   2.136   2.825  0.4129  0.1767 -0.3224
  952SOL     OW 3805   3.088   1.723   2.164 -0.0915 -0.4043 -0.4552
  952SOL    HW1 3806   3.005   1.767   2.141 -1.2926 -1.1894 -1.8886
  952SOL    HW2 3807   3.167   1.778   2.181  2.1780 -2.8944  2.7931
  952SOL     MW 3808   3.087   1.736   2.163  0.0495 -0.8365 -0.2157
  953SOL     OW 3809   1.902   1.787   2.929 -0.6248 -0.3549 -0.1135
  953SOL    HW1 3810   1.819   1.752   2.971  2.6452  0.6426 -1.8637
  953SOL    HW2 3811   1.930   1.730   2.863 -2.4287  0.4992  1.6058
  953SOL     MW 3812   1.895   1.775   2.926 -0.4314 -0.1106 -0.1175
  954SOL     OW 3813   2.489   2.056   2.868 -0.1303  0.2801 -0.1020
  954SOL    HW1 3814   2.399   2.044   2.826  0.9790  1.4223 -0.1176
  954SOL    HW2 3815   2.558   2.020   2.804 -3.6700 -0.6095 -1.9276
  954SOL     MW 3816   2.486   2.049   2.854 -0.4510  0.3134 -0.3449
  955SOL     OW 3817   1.599   1.611   2.585 -0.1845 -0.4235  0.9800
  955SOL    HW1 3818   1.557   1.625   2.489 -0.2848 -1.8789  1.9434
  955SOL    HW2 3819   1.684   1.653   2.583  1.0364 -1.3931  0.0539
  955SOL     MW 3820   1.605   1.618   2.572 -0.0367 -0.7435  0.9849
  956SOL     OW 3821   2.712   2.428   2.855 -0.0887  0.0318  0.2254
  956SOL    HW1 3822   2.751   2.408   2.941  0.0236 -2.0440  0.9481
  956SOL    HW2 3823   2.749   2.371   2.792  0.7333 -0.1572 -2.6193
  956SOL     MW 3824   2.722   2.418   2.858  0.0346 -0.2670 -0.0546
  957SOL     OW 3825   2.281   2.881   0.388  0.4469 -0.2466 -0.4263
  957SOL    HW1 3826   2.191   2.870   0.355  0.1608  2.2621 -0.8169
  957SOL    HW2 3827   2.274   2.852   0.481  0.2115  3.5076 -0.9398
  957SOL     MW 3828   2.268   2.876   0.396  0.3781  0.5797 -0.5456
  958SOL     OW 3829   2.024   2.593   2.836 -0.1834  0.4224  0.0995
  958SOL    HW1 3830   1.974   2.527   2.792 -2.2923  2.5137  1.4323
  958SOL    HW2 3831   1.958   2.605   2.909 -1.3665 -1.3594 -0.0402
  958SOL     MW 3832   2.009   2.586   2.840 -0.6177  0.4633  0.2570
  959SOL     OW 3833   2.437   2.633   0.371 -0.3527 -0.0774 -0.0229
  959SOL    HW1 3834   2.507   2.632   0.302  2.9631 -0.0177 -2.8611
  959SOL    HW2 3835   2.375   2.708   0.353 -0.9499  0.7371 -0.0045
  959SOL     MW 3836   2.438   2.643   0.360  0.0060  0.0379 -0.3949
  960SOL     OW 3837   1.962   2.308   2.262  0.1038 -0.2163  0.3325
  960SOL    HW1 3838   1.892   2.290   2.197  0.0473  1.6887 -0.3443
  960SOL    HW2 3839   1.912   2.336   2.337 -3.1547 -1.7382 -1.2907
  960SOL     MW 3840   1.946   2.310   2.263 -0.3336 -0.1658  0.0290
  961SOL     OW 3841   2.236   2.319   2.298  0.7414  0.3913  0.0131
  961SOL    HW1 3842   2.141   2.302   2.286  0.4295  0.1797 -1.5642
  961SOL    HW2 3843   2.249   2.361   2.386  1.6268 -1.4940 -1.3055
  961SOL     MW 3844   2.225   2.322   2.308  0.8171  0.1146 -0.3690
  962SOL     OW 3845   2.238   2.023   2.801 -0.1317  0.0471  0.0498
  962SOL    HW1 3846   2.179   2.025   2.876  0.2026 -1.0222 -0.6914
  962SOL    HW2 3847   2.243   1.931   2.772  2.7050 -1.2714  3.0524
  962SOL     MW 3848   2.231   2.011   2.807  0.2867 -0.2679  0.3482
  963SOL     OW 3849   1.837   2.612   2.016 -0.5438  0.3821  0.4075
  963SOL    HW1 3850   1.935   2.626   2.038  1.9318 -0.2918  2.8933
  963SOL    HW2 3851   1.833   2.526   1.964 -0.1989 -0.9282 -2.0329
  963SOL     MW 3852   1.849   2.603   2.012 -0.1717  0.1203  0.4135
  964SOL     OW 3853   1.796   1.965   2.750 -0.6846 -0.3000  0.0442
  964SOL    HW1 3854   1.870   2.029   2.771 -0.3052 -0.0484  0.8938
  964SOL    HW2 3855   1.825   1.884   2.793  0.3219 -2.2242  1.0640
  964SOL     MW 3856   1.809   1.963   2.758 -0.5017 -0.5207  0.2908
  965SOL     OW 3857   2.242   2.756   0.617 -0.4706 -0.2281  0.5155
  965SOL    HW1 3858   2.213   2.665   0.628  0.9067  0.7117 -0.5355
  965SOL    HW2 3859   2.299   2.771   0.696 -0.2632  4.4393  0.1795
  965SOL     MW 3860   2.246   2.746   0.629 -0.2615  0.5117  0.3325
  966SOL     OW 3861   2.613   2.622   2.495 -0.0624  0.3965  0.7624
  966SOL    HW1 3862   2.582   2.675   2.423  0.8258  1.3558 -0.9982
  966SOL    HW2 3863   2.636   2.536   2.446  1.7645 -3.2677 -0.6877
  966SOL     MW 3864   2.612   2.618   2.479  0.2958  0.0396  0.3387
  967SOL     OW 3865   2.884   3.011   2.903 -0.7361  0.2206  0.2291
  967SOL    HW1 3866   2.902   2.939   2.967 -1.2782 -0.3181  0.5594
  967SOL    HW2 3867   2.791   3.020   2.885 -1.2560  0.5238  0.5313
  967SOL     MW 3868   2.874   3.002   2.909 -0.8762  0.1895  0.3126
  968SOL     OW 3869   3.001   2.605   2.932 -0.0982  0.4942 -0.3180
  968SOL    HW1 3870   2.912   2.610   2.906  1.2695 -0.1315  0.4397
  968SOL    HW2 3871   3.028   2.530   2.873  3.0894 -1.5126 -0.2750
  968SOL     MW 3872   2.993   2.596   2.921  0.5028  0.1469 -0.2123
  969SOL     OW 3873   1.532   2.128   1.683  0.0306  0.3180 -0.1098
  969SOL    HW1 3874   1.593   2.055   1.681  2.4037  0.3083 -4.8513
  969SOL    HW2 3875   1.482   2.118   1.763  1.7607 -0.4526 -3.1239
  969SOL     MW 3876   1.533   2.117   1.693  0.5720  0.2151 -1.1331
  970SOL     OW 3877   1.656   1.675   1.783 -0.3911  0.5070 -0.7486
  970SOL    HW1 3878   1.723   1.669   1.848 -1.0292 -3.4093  0.8303
  970SOL    HW2 3879   1.586   1.722   1.822  0.2802 -2.1685 -0.9642
  970SOL     MW 3880   1.655   1.680   1.797 -0.3867 -0.3627 -0.5687
  971SOL     OW 3881   1.778   3.083   2.386 -0.6297 -0.8990  0.2343
  971SOL    HW1 3882   1.818   3.020   2.334 -1.2506  0.0099 -2.4724
  971SOL    HW2 3883   1.851   3.151   2.400  0.3840  2.8078  1.5378
  971SOL     MW 3884   1.793   3.084   2.381 -0.5779 -0.2900  0.0491
  972SOL     OW 3885   0.257   2.843   2.435 -0.1029  0.4078  0.0646
  972SOL    HW1 3886   0.295   2.773   2.489 -2.1910 -1.2243 -2.1289
  972SOL    HW2 3887   0.303   2.919   2.471 -0.3796 -1.9040 -1.9377
  972SOL     MW 3888   0.268   2.843   2.447 -0.4149 -0.1126 -0.4890
  973SOL     OW 3889   2.547   0.029   2.135  0.1113 -0.1292 -0.0356
  973SOL    HW1 3890   2.551  -0.056   2.092 -1.3188  0.2731 -0.9616
  973SOL    HW2 3891   2.593   0.077   2.069  1.1357  0.7358 -2.3560
  973SOL     MW 3892   2.554   0.024   2.121  0.0578  0.0380 -0.4639
  974SOL     OW 3893   2.056   0.234   2.694 -0.3413 -0.9318 -0.2246
  974SOL    HW1 3894   2.153   0.226   2.702  3.1263  0.9689  1.9199
  974SOL    HW2 3895   2.025   0.166   2.758 -0.3311  0.5901  0.8391
  974SOL     MW 3896   2.065   0.224   2.703  0.1175 -0.4802  0.1987
  975SOL     OW 3897   2.176   2.504   2.526  0.0277 -0.4626 -0.3516
  975SOL    HW1 3898   2.253   2.563   2.549 -0.0470  1.5395 -2.1745
  975SOL    HW2 3899   2.111   2.560   2.482 -2.7850 -2.4885 -0.8593
  975SOL     MW 3900   2.177   2.519   2.524 -0.3533 -0.4657 -0.6591
  976SOL     OW 3901   0.261   0.342   1.723 -0.6111  0.1741 -0.1725
  976SOL    HW1 3902   0.320   0.279   1.775 -0.9735 -2.8633  2.2806
  976SOL    HW2 3903   0.201   0.281   1.675 -0.7923 -3.4478 -0.1461
  976SOL     MW 3904   0.261   0.325   1.723 -0.6828 -0.7045  0.1547
  977SOL     OW 3905   1.741   2.674   2.466  0.0904 -0.8370  0.1255
  977SOL    HW1 3906   1.723   2.580   2.452 -1.7733 -0.9798 -0.1427
  977SOL    HW2 3907   1.834   2.689   2.460  0.3257 -2.3307 -1.2842
  977SOL     MW 3908   1.751   2.664   2.463 -0.1244 -1.0529 -0.0959
   3.10000   3.10000   3.10000
