977 TIP4P/2005f water molecules t=   1.79000 step= 1790
 3908
    1SOL     OW    1   0.388   0.771   0.095 -0.5000 -0.5723 -0.2425
    1SOL    HW1    2   0.340   0.717   0.030 -1.6812  1.8631  0.1848
    1SOL    HW2    3   0.398   0.715   0.169  1.3083  1.7643  1.1698
    1SOL     MW    4   0.383   0.756   0.096 -0.4173  0.0573  0.0002
    2SOL     OW    5   0.297   3.000   1.098 -0.4847 -0.7000  0.0205
    2SOL    HW1    6   0.335   3.088   1.082  1.2844  0.0961  1.2046
    2SOL    HW2    7   0.203   3.019   1.111  0.1541 -0.6371 -1.4121
    2SOL     MW    8   0.290   3.014   1.097 -0.1670 -0.5866 -0.0123
    3SOL     OW    9   2.681   0.352   0.967  0.0379 -0.5067 -0.7672
    3SOL    HW1   10   2.724   0.434   0.918  0.8286 -1.0968 -0.3768
    3SOL    HW2   11   2.666   0.386   1.067  0.1069 -0.5598  2.5402
    3SOL     MW   12   2.685   0.367   0.973  0.1513 -0.5915 -0.2793
    4SOL     OW   13   2.928   1.692   0.537  0.2175  0.3796  0.1185
    4SOL    HW1   14   2.876   1.769   0.526 -1.6814 -2.0579  1.3131
    4SOL    HW2   15   2.998   1.686   0.472  0.2146  2.1690 -1.1962
    4SOL     MW   16   2.930   1.701   0.527 -0.0334  0.2941  0.1027
    5SOL     OW   17   1.608   1.413   0.614  0.0170  0.4100 -0.4878
    5SOL    HW1   18   1.651   1.419   0.700 -1.4386  0.4332  1.6889
    5SOL    HW2   19   1.530   1.463   0.627 -1.2110  0.5767  1.2636
    5SOL     MW   20   1.603   1.421   0.627 -0.3370  0.4350  0.0305
    6SOL     OW   21   0.797   1.430   0.611 -0.5210  0.0742 -0.0615
    6SOL    HW1   22   0.703   1.435   0.625  1.8086 -0.2957 -0.8761
    6SOL    HW2   23   0.820   1.346   0.662  2.6250 -0.9565  0.1336
    6SOL     MW   24   0.788   1.419   0.619  0.2015 -0.1106 -0.1433
    7SOL     OW   25   1.952   1.027   0.020 -0.4805  0.3170  0.0636
    7SOL    HW1   26   2.025   1.089  -0.008  1.7752 -0.5912  1.8146
    7SOL    HW2   27   1.960   1.013   0.115  1.5869 -0.2852  3.4155
    7SOL     MW   28   1.963   1.033   0.029  0.0899  0.1177  0.7369
    8SOL     OW   29   0.816   1.424   1.024  0.2277 -0.8527 -0.5725
    8SOL    HW1   30   0.869   1.502   1.043  0.7065  2.6405  0.7449
    8SOL    HW2   31   0.800   1.388   1.108 -0.3353  1.1268 -2.6840
    8SOL     MW   32   0.821   1.429   1.038  0.2166 -0.1306 -0.6773
    9SOL     OW   33   0.922   0.522   1.318 -0.2971  0.2339  0.0366
    9SOL    HW1   34   0.878   0.442   1.281 -0.3469  0.5683 -0.2105
    9SOL    HW2   35   0.973   0.481   1.390  1.0860  0.6552  1.0414
    9SOL     MW   36   0.923   0.506   1.322 -0.1212  0.3336  0.1366
   10SOL     OW   37   0.309   0.820   0.488  0.3983 -0.0095  0.1978
   10SOL    HW1   38   0.394   0.869   0.470  0.6188  0.3143  0.3783
   10SOL    HW2   39   0.265   0.880   0.558 -0.7814 -1.1992  2.0975
   10SOL     MW   40   0.315   0.834   0.495  0.2717 -0.1237  0.4723
   11SOL     OW   41   0.771   1.119   1.463 -0.4185 -0.2243  0.2537
   11SOL    HW1   42   0.798   1.120   1.555  0.9277 -1.8654  0.2127
   11SOL    HW2   43   0.807   1.034   1.413  2.0325 -0.3207 -0.7046
   11SOL     MW   44   0.779   1.108   1.469  0.0825 -0.4535  0.1218
   12SOL     OW   45   0.067   1.078   0.917  0.1077  0.2462  0.2089
   12SOL    HW1   46   0.102   1.163   0.936  1.4101 -1.3878 -1.5184
   12SOL    HW2   47  -0.014   1.098   0.857 -0.9430 -0.2551 -1.7593
   12SOL     MW   48   0.061   1.092   0.911  0.1409 -0.0355 -0.2787
   13SOL     OW   49   1.815   1.415   1.320  0.5840 -0.1836  0.2863
   13SOL    HW1   50   1.826   1.323   1.286 -1.8039 -0.1887  2.3442
   13SOL    HW2   51   1.892   1.468   1.295  0.2849  0.2400  0.3728
   13SOL     MW   52   1.827   1.410   1.312  0.2295 -0.1284  0.5692
   14SOL     OW   53   0.582   0.297   1.827  0.0507 -0.4309 -0.4500
   14SOL    HW1   54   0.531   0.224   1.784  0.5623 -1.4036 -0.0483
   14SOL    HW2   55   0.676   0.286   1.805  2.8158 -1.0781  0.8625
   14SOL     MW   56   0.587   0.286   1.819  0.4830 -0.6446 -0.2238
   15SOL     OW   57   2.039   0.442   0.970  0.6679  0.0777 -0.3090
   15SOL    HW1   58   2.080   0.522   1.004 -1.1106 -0.2115 -1.4050
   15SOL    HW2   59   2.054   0.448   0.876  2.2552  3.1348  0.2604
   15SOL     MW   60   2.046   0.454   0.962  0.6427  0.4429 -0.3785
   16SOL     OW   61   0.244   1.841   0.270 -1.0148  0.4620 -0.2595
   16SOL    HW1   62   0.323   1.794   0.284 -3.2563  2.7647 -1.1246
   16SOL    HW2   63   0.274   1.930   0.303 -0.4737  0.4929  0.4191
   16SOL     MW   64   0.258   1.846   0.276 -1.2392  0.7699 -0.2841
   17SOL     OW   65   1.113   0.877   1.420  0.1530  0.5644 -0.0153
   17SOL    HW1   66   1.149   0.852   1.503 -1.2110  0.3025 -1.0434
   17SOL    HW2   67   1.015   0.862   1.420 -0.1321  0.7763  1.0915
   17SOL     MW   68   1.105   0.872   1.431 -0.0646  0.5578 -0.0049
   18SOL     OW   69   0.048   1.653   0.356  0.4229  0.2658  0.1611
   18SOL    HW1   70   0.114   1.725   0.349 -1.1429 -0.8239 -0.7904
   18SOL    HW2   71   0.022   1.615   0.270 -0.2991 -2.3019  1.9838
   18SOL     MW   72   0.053   1.658   0.343  0.1211 -0.2168  0.2760
   19SOL     OW   73   0.103   1.350   0.971 -0.1223  0.1268 -0.1443
   19SOL    HW1   74   0.120   1.407   0.897 -2.5995  0.0712 -2.2895
   19SOL    HW2   75   0.007   1.359   0.982 -1.8320 -0.2632 -1.2150
   19SOL     MW   76   0.092   1.359   0.963 -0.6747  0.0680 -0.5686
   20SOL     OW   77   0.448   2.118   1.261  0.1019  0.2638  0.1162
   20SOL    HW1   78   0.405   2.045   1.215 -0.1576 -0.0473  0.6916
   20SOL    HW2   79   0.397   2.139   1.345 -1.2431 -3.8512 -0.1112
   20SOL     MW   80   0.436   2.111   1.266 -0.1098 -0.3202  0.1621
   21SOL     OW   81   0.555   0.907   0.433  0.0286  0.1744  0.2465
   21SOL    HW1   82   0.611   0.967   0.497 -0.0704  1.7568  0.5716
   21SOL    HW2   83   0.614   0.880   0.366  0.4578 -0.5808  1.4187
   21SOL     MW   84   0.570   0.911   0.433  0.0721  0.2835  0.4441
   22SOL     OW   85   1.546   0.716   1.021 -0.0479 -0.0659 -0.2161
   22SOL    HW1   86   1.534   0.698   0.929  2.7790  0.7754 -0.9608
   22SOL    HW2   87   1.486   0.786   1.035 -1.8297  0.7070 -1.8601
   22SOL     MW   88   1.536   0.723   1.011  0.0900  0.1471 -0.5313
   23SOL     OW   89   3.057   0.817   0.699  0.4627 -0.1006 -0.7636
   23SOL    HW1   90   3.111   0.756   0.751  0.3663 -3.1183 -0.8409
   23SOL    HW2   91   3.119   0.892   0.699  1.0315  1.4209 -1.8516
   23SOL     MW   92   3.072   0.819   0.706  0.5251 -0.2980 -0.9173
   24SOL     OW   93   2.086   2.128   0.071  0.1861 -0.0715 -0.1509
   24SOL    HW1   94   2.032   2.100   0.148  0.5746 -1.5504  0.0628
   24SOL    HW2   95   2.117   2.043   0.048 -0.0925  1.4161 -0.1012
   24SOL     MW   96   2.083   2.113   0.078  0.2006 -0.0703 -0.1161
   25SOL     OW   97   0.232   1.441   0.405  0.3761  0.3373 -0.3440
   25SOL    HW1   98   0.159   1.515   0.408  0.7003 -2.4488  1.7435
   25SOL    HW2   99   0.295   1.467   0.331 -2.4730 -0.2062 -0.8805
   25SOL     MW  100   0.231   1.454   0.396  0.0430 -0.1020 -0.1394
   26SOL     OW  101   1.982   1.038   0.297 -0.3228 -0.5558  0.7425
   26SOL    HW1  102   1.951   1.068   0.385 -1.5137 -1.4781  0.3343
   26SOL    HW2  103   2.060   1.092   0.276 -0.8630 -0.4299 -1.3874
   26SOL     MW  104   1.989   1.049   0.306 -0.5512 -0.6609  0.4077
   27SOL     OW  105   1.866   1.367   0.139  0.0779 -0.0768  0.0758
   27SOL    HW1  106   1.812   1.437   0.173  1.3003  0.3625 -1.2382
   27SOL    HW2  107   1.930   1.365   0.210 -0.7179  1.4668 -0.3928
   27SOL     MW  108   1.867   1.376   0.153  0.1342  0.1848 -0.1594
   28SOL     OW  109   0.441   0.939   2.054  0.0472  0.0687 -0.3863
   28SOL    HW1  110   0.481   0.934   2.138  1.1781 -1.0416 -0.2446
   28SOL    HW2  111   0.355   0.905   2.078  0.8417 -0.6836 -0.3411
   28SOL     MW  112   0.435   0.934   2.068  0.3012 -0.1771 -0.3617
   29SOL     OW  113   0.160   1.444   0.711  0.1026  0.1788 -0.2811
   29SOL    HW1  114   0.204   1.531   0.715 -0.3377 -0.2608 -1.2429
   29SOL    HW2  115   0.165   1.410   0.622  2.0304  0.6794  0.2619
   29SOL     MW  116   0.166   1.451   0.700  0.2989  0.1869 -0.3363
   30SOL     OW  117   0.740   1.270   1.247 -0.3406 -0.0901 -0.0801
   30SOL    HW1  118   0.645   1.264   1.248  1.3205 -1.6316  2.3644
   30SOL    HW2  119   0.767   1.222   1.329  2.3566  1.5970 -1.8306
   30SOL     MW  120   0.731   1.263   1.258  0.2344 -0.0709  0.0115
   31SOL     OW  121   0.503   0.228   0.216 -0.2893  0.0157 -0.3219
   31SOL    HW1  122   0.564   0.163   0.260 -1.4938  1.0775 -3.1199
   31SOL    HW2  123   0.509   0.205   0.123 -0.8032  1.6227  0.7332
   31SOL     MW  124   0.512   0.217   0.209 -0.5161  0.3678 -0.5519
   32SOL     OW  125   2.726   0.978   1.069  0.2652  0.1875  0.2520
   32SOL    HW1  126   2.672   0.929   1.128  3.3900  2.8008 -1.0053
   32SOL    HW2  127   2.825   0.955   1.085  1.5916  0.2693 -0.5395
   32SOL     MW  128   2.732   0.968   1.079  0.8525  0.5431 -0.0183
   33SOL     OW  129   1.605   1.227   0.424  0.2603 -0.1405 -0.0243
   33SOL    HW1  130   1.694   1.220   0.388 -0.0215  0.2265  2.0649
   33SOL    HW2  131   1.605   1.288   0.498 -1.3891 -1.9208  1.6019
   33SOL     MW  132   1.617   1.234   0.429  0.0055 -0.3270  0.4659
   34SOL     OW  133   1.131   1.972   1.160 -0.1675  0.2806  0.6373
   34SOL    HW1  134   1.072   2.039   1.187 -0.2401  1.3975  2.6402
   34SOL    HW2  135   1.206   1.981   1.209 -1.9690  1.5336 -1.2805
   34SOL     MW  136   1.133   1.982   1.170 -0.4148  0.5932  0.6485
   35SOL     OW  137   0.328   0.139   1.684 -0.1470  0.1045 -0.4353
   35SOL    HW1  138   0.336   0.097   1.771 -2.6747 -1.6711 -0.9585
   35SOL    HW2  139   0.303   0.071   1.617 -1.0311  0.7069 -1.8609
   35SOL     MW  140   0.326   0.125   1.687 -0.5971 -0.0503 -0.6924
   36SOL     OW  141   1.930   1.995   0.601  0.3409 -0.3927 -0.4164
   36SOL    HW1  142   1.923   1.999   0.511  1.4517  2.2898  2.4253
   36SOL    HW2  143   1.970   1.911   0.634  2.1090  0.0387 -1.3099
   36SOL     MW  144   1.935   1.985   0.593  0.7207  0.0181 -0.1594
   37SOL     OW  145   1.758   2.071   0.956 -1.0512 -0.0537 -0.6300
   37SOL    HW1  146   1.683   2.016   0.922 -0.0494 -0.7856 -1.0152
   37SOL    HW2  147   1.729   2.100   1.041 -0.1816 -2.2769 -4.1844
   37SOL     MW  148   1.744   2.068   0.963 -0.8043 -0.4436 -1.1498
   38SOL     OW  149   2.799   0.966   0.024  0.0050  0.3769  0.0298
   38SOL    HW1  150   2.842   0.960   0.110 -1.8980 -2.8453 -0.5471
   38SOL    HW2  151   2.867   0.950  -0.052  1.1722  2.3092 -0.7853
   38SOL     MW  152   2.814   0.963   0.025 -0.0921  0.2067 -0.1538
   39SOL     OW  153   1.525   0.668   0.732  0.5133 -0.0025 -0.3187
   39SOL    HW1  154   1.503   0.575   0.760  1.3383  1.3474  1.9858
   39SOL    HW2  155   1.442   0.712   0.711  2.6364 -1.5994 -0.4124
   39SOL     MW  156   1.511   0.661   0.733  0.9023 -0.0351 -0.0270
   40SOL     OW  157   1.276   1.870   0.253  0.0409 -0.0375 -0.1926
   40SOL    HW1  158   1.346   1.810   0.287 -0.1265 -1.1319 -2.0849
   40SOL    HW2  159   1.233   1.903   0.336  2.3550  0.1624  1.0023
   40SOL     MW  160   1.280   1.866   0.268  0.3241 -0.1555 -0.2846
   41SOL     OW  161   0.516   0.490   1.568 -0.1792 -0.3325  0.9376
   41SOL    HW1  162   0.602   0.527   1.542  3.3019  1.7756 -2.0822
   41SOL    HW2  163   0.446   0.523   1.516  0.1168  0.2871  1.8993
   41SOL     MW  164   0.518   0.499   1.557  0.3191  0.0274  0.6660
   42SOL     OW  165   1.234   2.893   2.001 -0.0473 -0.3505 -0.0756
   42SOL    HW1  166   1.149   2.892   2.047  3.5262  3.1374  0.5265
   42SOL    HW2  167   1.298   2.831   2.041  0.6023 -0.8464  2.0893
   42SOL     MW  168   1.231   2.885   2.013  0.5099  0.0443  0.2895
   43SOL     OW  169   1.400   0.116   1.696 -0.4811  0.5432  0.1795
   43SOL    HW1  170   1.480   0.083   1.652  0.2823 -2.3532 -0.6160
   43SOL    HW2  171   1.336   0.044   1.706 -0.2718  0.3074 -0.2768
   43SOL     MW  172   1.402   0.102   1.692 -0.3527  0.1299  0.0143
   44SOL     OW  173   1.226   0.842   0.961 -0.3708  0.1996 -0.2820
   44SOL    HW1  174   1.165   0.915   0.952 -1.9358 -1.3163  1.9821
   44SOL    HW2  175   1.175   0.782   1.014  1.1151 -0.5244 -1.5287
   44SOL     MW  176   1.212   0.844   0.967 -0.3812 -0.0960 -0.1477
   45SOL     OW  177   1.293   0.805   0.710 -0.3367 -0.3492 -0.4544
   45SOL    HW1  178   1.264   0.812   0.802  0.4283  0.4550  0.6592
   45SOL    HW2  179   1.231   0.746   0.652 -0.0576  0.9971 -4.0769
   45SOL     MW  180   1.281   0.798   0.715 -0.1990 -0.0654 -0.7854
   46SOL     OW  181   0.423   1.122   0.675  0.0130  0.0043 -0.0534
   46SOL    HW1  182   0.452   1.153   0.591 -1.3717  0.6638  1.1961
   46SOL    HW2  183   0.415   1.206   0.723  0.1894  1.0659  1.5188
   46SOL     MW  184   0.426   1.137   0.670 -0.1464  0.2313  0.3189
   47SOL     OW  185   0.089   1.978   1.955 -0.0879 -0.4872  0.2691
   47SOL    HW1  186   0.077   1.910   1.890 -0.6149 -0.1082  2.9108
   47SOL    HW2  187   0.111   1.933   2.036  3.5932 -1.1682  2.0031
   47SOL     MW  188   0.090   1.963   1.957  0.3283 -0.5270  0.8464
   48SOL     OW  189   1.236   0.496   1.012  0.6640 -0.1695  0.4528
   48SOL    HW1  190   1.201   0.445   0.937 -1.3757  0.0615 -0.3264
   48SOL    HW2  191   1.172   0.543   1.064  0.5588 -0.6972  1.3453
   48SOL     MW  192   1.223   0.495   1.009  0.3810 -0.2086  0.4678
   49SOL     OW  193   1.699   0.726   1.546  0.6242  0.3703 -0.1450
   49SOL    HW1  194   1.730   0.663   1.609 -0.7323  1.2716 -0.7507
   49SOL    HW2  195   1.746   0.694   1.470  0.9715 -1.2832  1.5913
   49SOL     MW  196   1.709   0.714   1.544  0.4911  0.2711  0.0042
   50SOL     OW  197   1.324   1.201   0.642  0.0523 -0.3498  0.1657
   50SOL    HW1  198   1.243   1.216   0.706 -0.5294 -1.4020  1.9579
   50SOL    HW2  199   1.374   1.128   0.675 -2.0492  0.9067 -0.9041
   50SOL     MW  200   1.320   1.194   0.655 -0.3017 -0.3228  0.2610
   51SOL     OW  201   0.350   2.875   0.855 -0.3662 -0.2147 -0.2893
   51SOL    HW1  202   0.440   2.847   0.884  0.6480  2.1389  4.9212
   51SOL    HW2  203   0.323   2.937   0.925 -0.9062 -1.0140  0.0700
   51SOL     MW  204   0.358   2.880   0.868 -0.3036 -0.0096  0.4456
   52SOL     OW  205   0.783   1.825   0.484  0.2364  0.0761  0.2558
   52SOL    HW1  206   0.767   1.918   0.508 -1.7103  0.2181 -0.3878
   52SOL    HW2  207   0.807   1.819   0.393 -2.8521 -0.8372 -0.8731
   52SOL     MW  208   0.784   1.837   0.475 -0.4280 -0.0257  0.0219
   53SOL     OW  209   0.481   2.167   0.582  0.5486 -0.0179  0.1922
   53SOL    HW1  210   0.434   2.112   0.513 -3.3062 -0.4200  0.6040
   53SOL    HW2  211   0.460   2.258   0.556  1.7907  1.8177 -0.9711
   53SOL     MW  212   0.472   2.172   0.569  0.2039  0.1713  0.0931
   54SOL     OW  213   2.026   0.982   0.732  0.3318  0.3460 -0.2714
   54SOL    HW1  214   2.075   0.981   0.650  0.8629  0.9150 -0.1011
   54SOL    HW2  215   2.016   0.890   0.754 -3.7134  0.7190 -0.5514
   54SOL     MW  216   2.031   0.970   0.724 -0.1319  0.4703 -0.2858
   55SOL     OW  217   0.419   1.529   1.722  0.2667 -0.3454  0.3067
   55SOL    HW1  218   0.373   1.563   1.641 -1.4445  1.0241 -0.2122
   55SOL    HW2  219   0.509   1.529   1.697 -2.5886  0.0415  1.2321
   55SOL     MW  220   0.425   1.534   1.708 -0.3358 -0.1137  0.3603
   56SOL     OW  221   0.643   0.911   0.148  0.6274  0.2470  0.6038
   56SOL    HW1  222   0.650   1.007   0.142 -0.8548  2.0964 -1.7743
   56SOL    HW2  223   0.557   0.877   0.117  1.3607  1.2266  0.2380
   56SOL     MW  224   0.633   0.919   0.143  0.5286  0.6202  0.2417
   57SOL     OW  225   1.111   1.298   1.155  0.2696  0.5136  0.5076
   57SOL    HW1  226   1.189   1.345   1.186  0.0250  0.6550 -1.3831
   57SOL    HW2  227   1.096   1.243   1.237  0.5913  0.8604  2.3108
   57SOL     MW  228   1.119   1.297   1.170  0.2798  0.5780  0.4960
   58SOL     OW  229   0.422   1.271   1.292  0.0316 -0.6678  0.1430
   58SOL    HW1  230   0.390   1.365   1.286  1.0782 -0.4009 -2.7583
   58SOL    HW2  231   0.426   1.256   1.383 -1.7106 -0.6553 -1.9359
   58SOL     MW  232   0.418   1.282   1.303 -0.0602 -0.6309 -0.5141
   59SOL     OW  233   1.424   1.691   0.370  0.5282 -0.0686 -0.0545
   59SOL    HW1  234   1.492   1.708   0.431  3.2367 -0.7331  1.9211
   59SOL    HW2  235   1.340   1.699   0.427 -0.8480  0.2595  2.1000
   59SOL     MW  236   1.422   1.694   0.386  0.7039 -0.1130  0.4904
   60SOL     OW  237   3.093   0.174   1.648 -0.2043 -0.3807 -0.0873
   60SOL    HW1  238   3.007   0.211   1.653  0.5527 -0.9576  0.3316
   60SOL    HW2  239   3.109   0.152   1.745  0.4810  1.4369 -1.7078
   60SOL     MW  240   3.084   0.176   1.661 -0.0140 -0.2170 -0.2458
   61SOL     OW  241   1.982   1.353   2.969  0.1872  0.0246  0.2849
   61SOL    HW1  242   1.949   1.350   3.062  1.3617  0.8011 -0.8335
   61SOL    HW2  243   2.061   1.292   2.969 -1.4871  2.1300  0.5675
   61SOL     MW  244   1.988   1.345   2.982  0.1212  0.4048  0.1746
   62SOL     OW  245   0.578   1.733   0.647  0.2494  0.3899 -0.7982
   62SOL    HW1  246   0.649   1.743   0.584  0.2867  2.6527 -1.5829
   62SOL    HW2  247   0.534   1.651   0.622 -0.6904 -1.3347 -0.7231
   62SOL     MW  248   0.582   1.724   0.636  0.1303  0.4609 -0.8919
   63SOL     OW  249   1.748   0.716   0.554 -0.4022 -0.3895 -0.8611
   63SOL    HW1  250   1.704   0.801   0.527 -0.1336 -0.2786 -1.3593
   63SOL    HW2  251   1.679   0.679   0.614 -1.0158 -2.7023  0.9437
   63SOL     MW  252   1.733   0.722   0.558 -0.4477 -0.6800 -0.6887
   64SOL     OW  253   0.254   1.692   0.670 -0.5194 -0.2784 -0.4200
   64SOL    HW1  254   0.302   1.764   0.704  1.1217  0.3145 -2.7898
   64SOL    HW2  255   0.164   1.724   0.676 -3.4651 -0.7038  1.1085
   64SOL     MW  256   0.248   1.706   0.675 -0.6916 -0.2563 -0.5310
   65SOL     OW  257   1.481   2.295   0.398  0.0725  0.1916  0.2308
   65SOL    HW1  258   1.564   2.342   0.405  0.7884  1.2788 -2.0795
   65SOL    HW2  259   1.415   2.341   0.460 -1.6962  0.2302 -0.6884
   65SOL     MW  260   1.483   2.307   0.407 -0.0664  0.3402 -0.1953
   66SOL     OW  261   0.394   0.544   0.532  0.0987 -0.4572 -0.0051
   66SOL    HW1  262   0.460   0.539   0.459 -0.9889 -0.4288  0.0371
   66SOL    HW2  263   0.383   0.634   0.556 -1.0203 -4.0356  0.8490
   66SOL     MW  264   0.401   0.555   0.525 -0.1924 -0.9256  0.1132
   67SOL     OW  265   1.368   0.060   1.978 -0.8608 -0.0791  0.4319
   67SOL    HW1  266   1.400   0.072   1.885 -1.3293  0.8568 -1.6637
   67SOL    HW2  267   1.320  -0.024   1.990  2.1044  0.2480  1.4895
   67SOL     MW  268   1.366   0.051   1.967 -0.5314  0.0875  0.2950
   68SOL     OW  269   0.760   0.101   2.896  0.3704  0.0253 -0.4612
   68SOL    HW1  270   0.755   0.166   2.826 -4.2063 -0.1662 -1.8208
   68SOL    HW2  271   0.848   0.121   2.938 -1.3680  1.4052 -0.5650
   68SOL     MW  272   0.771   0.112   2.892 -0.4628  0.1821 -0.6543
   69SOL     OW  273   1.095   0.276   1.977  0.2213 -0.5557  0.1409
   69SOL    HW1  274   1.180   0.288   2.028  1.4294 -1.2402 -0.4394
   69SOL    HW2  275   1.043   0.224   2.038  2.0288 -2.7229  1.5841
   69SOL     MW  276   1.099   0.271   1.992  0.6192 -0.9319  0.2548
   70SOL     OW  277   0.540   1.728   1.127  0.4464 -0.4821  0.2669
   70SOL    HW1  278   0.633   1.760   1.111 -0.5128  3.5042  1.7907
   70SOL    HW2  279   0.549   1.649   1.074  1.9680  0.4830  1.0359
   70SOL     MW  280   0.553   1.722   1.118  0.5206  0.1712  0.5694
   71SOL     OW  281   1.562   0.581   1.263  0.3760 -0.2175 -0.7232
   71SOL    HW1  282   1.494   0.655   1.294 -1.3565 -0.6675  0.4672
   71SOL    HW2  283   1.568   0.587   1.165  0.6689  2.6102 -1.1654
   71SOL     MW  284   1.554   0.592   1.254  0.1861  0.0962 -0.6245
   72SOL     OW  285   0.778   1.821   1.024 -0.4172  0.1035  0.2122
   72SOL    HW1  286   0.783   1.906   0.982  1.9978 -1.0686  3.2549
   72SOL    HW2  287   0.819   1.756   0.970  2.1985  1.8484  0.6355
   72SOL     MW  288   0.784   1.823   1.011  0.2466  0.1791  0.6695
   73SOL     OW  289   1.090   0.698   1.169 -0.4202 -0.3209 -1.0964
   73SOL    HW1  290   1.020   0.649   1.212 -1.4665  3.3511  2.5944
   73SOL    HW2  291   1.123   0.764   1.239  0.2824  1.0550  1.8805
   73SOL     MW  292   1.085   0.700   1.184 -0.4656  0.3451 -0.2167
   74SOL     OW  293   2.798   0.065   0.967  0.3535  0.2049  0.0263
   74SOL    HW1  294   2.879   0.084   0.922  0.9991 -0.6675 -0.2343
   74SOL    HW2  295   2.760   0.150   0.957  1.9990  1.2476 -2.7380
   74SOL     MW  296   2.804   0.079   0.960  0.6558  0.2273 -0.3728
   75SOL     OW  297   1.504   1.316   0.178 -0.2285  0.2874 -0.0759
   75SOL    HW1  298   1.562   1.279   0.111 -1.2227 -0.6927 -1.0644
   75SOL    HW2  299   1.530   1.272   0.264  0.8742 -1.8567 -1.2393
   75SOL     MW  300   1.515   1.305   0.180 -0.2142 -0.1248 -0.3599
   76SOL     OW  301   3.060   0.704   0.455  0.7386  0.1524  0.1151
   76SOL    HW1  302   3.079   0.748   0.544 -0.9942  0.7526 -0.4423
   76SOL    HW2  303   3.127   0.640   0.450 -0.2180  0.2058 -0.3275
   76SOL     MW  304   3.071   0.701   0.466  0.3838  0.2386 -0.0168
   77SOL     OW  305   0.868   0.628   0.445  0.6641 -0.1483  0.3680
   77SOL    HW1  306   0.836   0.656   0.357  1.8681  1.2842 -1.3466
   77SOL    HW2  307   0.838   0.534   0.456  0.7967  0.1472  1.5776
   77SOL     MW  308   0.860   0.620   0.435  0.8405  0.0797  0.3014
   78SOL     OW  309   0.823   0.875   1.078  0.0972  0.1979  0.0199
   78SOL    HW1  310   0.849   0.961   1.036  2.7633  0.7041 -1.0283
   78SOL    HW2  311   0.733   0.892   1.115  1.2028 -0.1507 -0.0786
   78SOL     MW  312   0.814   0.889   1.077  0.5949  0.2187 -0.1314
   79SOL     OW  313   1.863   1.509   0.535  0.5506  0.1817 -0.3543
   79SOL    HW1  314   1.776   1.488   0.573  0.8465 -1.0774  0.5224
   79SOL    HW2  315   1.920   1.507   0.608 -2.1958 -1.6068 -0.0219
   79SOL     MW  316   1.859   1.506   0.550  0.2273 -0.2204 -0.1948
   80SOL     OW  317   0.208   0.990   0.286  0.3517  0.5030  0.0817
   80SOL    HW1  318   0.179   0.938   0.210  0.7168 -0.4699 -2.3963
   80SOL    HW2  319   0.240   0.924   0.347  1.2267  1.1122 -0.8906
   80SOL     MW  320   0.209   0.974   0.284  0.5153  0.4550 -0.3735
   81SOL     OW  321   1.840   1.858   0.377 -0.0282 -0.7869  0.4587
   81SOL    HW1  322   1.810   1.773   0.354 -0.9085 -1.6065 -1.6535
   81SOL    HW2  323   1.784   1.916   0.329 -1.1385  0.4802 -1.0483
   81SOL     MW  324   1.829   1.854   0.368 -0.2909 -0.7278 -0.0189
   82SOL     OW  325   0.968   1.023   0.563  0.1979 -0.5871  0.5306
   82SOL    HW1  326   0.944   1.097   0.508 -0.6514 -0.7970 -0.5924
   82SOL    HW2  327   0.894   0.968   0.584  0.4779  0.0496 -2.4813
   82SOL     MW  328   0.955   1.026   0.559  0.1228 -0.5308 -0.0150
   83SOL     OW  329   3.093   0.738   1.571 -0.5500  0.0681  0.0827
   83SOL    HW1  330   3.080   0.799   1.488 -1.6051 -0.8542 -2.6432
   83SOL    HW2  331   3.165   0.679   1.550 -0.4445 -3.1315 -1.3961
   83SOL     MW  332   3.101   0.738   1.557 -0.6753 -0.4757 -0.4721
   84SOL     OW  333  -0.001   0.178   0.909 -0.4036 -0.2954  0.0108
   84SOL    HW1  334  -0.001   0.271   0.947  0.1207  0.2803 -0.7168
   84SOL    HW2  335   0.024   0.114   0.974  0.7631  1.0962 -4.5623
   84SOL     MW  336   0.002   0.182   0.922 -0.1805 -0.0358 -0.6886
   85SOL     OW  337   0.352   0.496   0.807  0.4163 -0.3805  0.5416
   85SOL    HW1  338   0.364   0.497   0.709  0.5324 -2.3403  1.1830
   85SOL    HW2  339   0.310   0.409   0.816 -0.0238  2.2518  0.3153
   85SOL     MW  340   0.348   0.485   0.795  0.3735 -0.2918  0.5964
   86SOL     OW  341   1.298   0.284   1.193  0.2462 -0.0187  0.4266
   86SOL    HW1  342   1.300   0.371   1.159 -0.8800 -1.4896  1.3291
   86SOL    HW2  343   1.383   0.273   1.237 -0.9096 -1.9350  1.4047
   86SOL     MW  344   1.309   0.294   1.194 -0.0549 -0.4656  0.6747
   87SOL     OW  345   1.031   1.573   1.171 -0.1482  0.6283 -0.0165
   87SOL    HW1  346   1.100   1.620   1.122  2.2083 -0.7800  0.3242
   87SOL    HW2  347   1.058   1.481   1.170  2.7148 -0.6468  0.6510
   87SOL     MW  348   1.043   1.567   1.165  0.5405  0.2743  0.1165
   88SOL     OW  349   1.149   1.104   0.967  0.0165  0.4096 -0.1726
   88SOL    HW1  350   1.243   1.092   0.984  0.2250  2.4106 -1.7265
   88SOL    HW2  351   1.121   1.158   1.042 -1.7841  0.5748  1.9409
   88SOL     MW  352   1.157   1.110   0.979 -0.1935  0.6954 -0.0988
   89SOL     OW  353   1.790   0.693   0.236  0.2030  0.4210  0.1733
   89SOL    HW1  354   1.737   0.638   0.288  1.5623 -0.2188  1.2122
   89SOL    HW2  355   1.860   0.729   0.291  2.6116 -1.4219 -0.1302
   89SOL     MW  356   1.792   0.691   0.250  0.7001  0.0934  0.2704
   90SOL     OW  357   0.780   1.213   2.837 -0.2691 -0.3685 -0.7275
   90SOL    HW1  358   0.817   1.123   2.834 -1.2343 -1.9523 -0.1478
   90SOL    HW2  359   0.809   1.252   2.917 -1.1426  1.1012 -3.2145
   90SOL     MW  360   0.788   1.207   2.847 -0.5117 -0.3836 -0.9792
   91SOL     OW  361   2.252   0.616   0.514  0.0622 -0.4854  0.1551
   91SOL    HW1  362   2.318   0.669   0.462 -0.3452  0.7178  0.1455
   91SOL    HW2  363   2.247   0.531   0.463  2.8412 -0.6926  2.4859
   91SOL     MW  364   2.260   0.612   0.501  0.3751 -0.3540  0.4613
   92SOL     OW  365   1.639   0.947   0.490  0.1180 -0.1147 -0.2212
   92SOL    HW1  366   1.580   0.977   0.556 -0.2105  0.3634 -3.3542
   92SOL    HW2  367   1.587   0.970   0.409 -0.2368  2.4384  0.8950
   92SOL     MW  368   1.624   0.954   0.488  0.0279  0.2852 -0.4873
   93SOL     OW  369   1.084   0.271   0.398 -0.0758  0.0141  0.9986
   93SOL    HW1  370   0.992   0.293   0.402  0.0734 -0.1155 -2.4500
   93SOL    HW2  371   1.112   0.301   0.309  2.0991 -2.6882  0.3380
   93SOL     MW  372   1.076   0.278   0.386  0.2308 -0.3595  0.4564
   94SOL     OW  373   1.893   1.374   1.590  0.7174  0.8055 -0.7927
   94SOL    HW1  374   1.857   1.402   1.509  0.5927  0.7125 -0.6685
   94SOL    HW2  375   1.865   1.278   1.604  2.7020 -1.4173  2.4659
   94SOL     MW  376   1.885   1.365   1.581  0.9628  0.4999 -0.3464
   95SOL     OW  377   0.584   1.546   0.918  0.0353 -0.0396  0.1452
   95SOL    HW1  378   0.658   1.505   0.972 -0.7350 -2.1748 -1.3135
   95SOL    HW2  379   0.513   1.484   0.912 -0.9035 -1.4724  0.3215
   95SOL     MW  380   0.584   1.532   0.924 -0.1902 -0.5104 -0.0240
   96SOL     OW  381   1.341   1.837   1.689  0.4513 -0.1584  0.3549
   96SOL    HW1  382   1.261   1.844   1.746 -0.0180  2.2574  2.9344
   96SOL    HW2  383   1.335   1.743   1.668  1.2584 -0.9258  1.7519
   96SOL     MW  384   1.330   1.825   1.694  0.4959  0.0591  0.8795
   97SOL     OW  385   1.105   1.582   0.843 -0.2945  0.1699  0.0495
   97SOL    HW1  386   1.139   1.663   0.890  2.2721 -0.0321  0.3572
   97SOL    HW2  387   1.006   1.592   0.844 -1.6420  0.5556 -0.2080
   97SOL     MW  388   1.096   1.594   0.850 -0.1337  0.1941  0.0561
   98SOL     OW  389   1.347   1.396   1.228  0.1428 -0.2620  0.1865
   98SOL    HW1  390   1.408   1.436   1.284 -0.8709  0.4718  1.0775
   98SOL    HW2  391   1.394   1.414   1.142 -0.9745  1.8815 -0.9504
   98SOL     MW  392   1.361   1.404   1.224 -0.1384  0.1176  0.1541
   99SOL     OW  393   1.532   0.314   1.313  0.9105  0.3814 -0.7364
   99SOL    HW1  394   1.538   0.407   1.285  0.5126 -0.4104 -0.9239
   99SOL    HW2  395   1.466   0.319   1.390 -1.9489  1.6232  0.3748
   99SOL     MW  396   1.524   0.327   1.319  0.4807  0.4408 -0.6145
  100SOL     OW  397   1.071   1.168   1.394  0.3242 -0.3124  0.0208
  100SOL    HW1  398   1.041   1.201   1.477  2.4502  0.2571 -0.9220
  100SOL    HW2  399   1.093   1.079   1.410 -0.3889  1.5893 -0.9294
  100SOL     MW  400   1.070   1.161   1.407  0.5106  0.0137 -0.2290
  101SOL     OW  401   0.556   1.221   0.428 -0.0394 -0.2023  0.4950
  101SOL    HW1  402   0.503   1.229   0.344 -0.5762  0.6559 -3.7318
  101SOL    HW2  403   0.646   1.187   0.412  2.3302 -0.1679  0.6459
  101SOL     MW  404   0.561   1.217   0.415  0.2024 -0.0845 -0.0428
  102SOL     OW  405   2.925   0.602   1.095 -1.0782  0.0629 -0.0753
  102SOL    HW1  406   2.965   0.687   1.095  0.8712  0.0329 -1.4151
  102SOL    HW2  407   2.887   0.582   1.176  1.5688  0.8996 -2.5934
  102SOL     MW  408   2.925   0.611   1.106 -0.4717  0.1694 -0.5843
  103SOL     OW  409   1.848   0.276   1.764  0.0604  0.3641 -0.1259
  103SOL    HW1  410   1.853   0.187   1.731 -0.2088 -0.0229  0.3843
  103SOL    HW2  411   1.861   0.268   1.861  0.0557  0.8460 -1.2433
  103SOL     MW  412   1.850   0.263   1.772  0.0243  0.3766 -0.2060
  104SOL     OW  413   0.054   1.516   1.689  0.0903 -0.2591 -0.0915
  104SOL    HW1  414   0.093   1.428   1.716 -0.3415  2.7340 -0.3986
  104SOL    HW2  415  -0.045   1.507   1.682  0.3268 -2.4072 -1.8012
  104SOL     MW  416   0.046   1.504   1.692  0.0646 -0.1476 -0.3576
  105SOL     OW  417   0.070   1.211   0.429  0.5187 -0.4557  0.2167
  105SOL    HW1  418   0.110   1.145   0.373  3.6791  1.1336  0.9124
  105SOL    HW2  419   0.134   1.281   0.413 -2.0175 -1.1743  0.6871
  105SOL     MW  420   0.084   1.212   0.419  0.6010 -0.3409  0.3706
  106SOL     OW  421   0.800   0.258   0.827  0.4711 -0.4503  0.0653
  106SOL    HW1  422   0.730   0.314   0.866 -1.2419  1.2935 -0.4697
  106SOL    HW2  423   0.846   0.217   0.900 -0.3649 -0.2117 -1.2546
  106SOL     MW  424   0.797   0.260   0.842  0.1348 -0.1887 -0.1795
  107SOL     OW  425   0.775   2.220   2.885  0.3933 -0.0676 -0.2310
  107SOL    HW1  426   0.682   2.212   2.903 -0.8600 -1.2957 -0.6342
  107SOL    HW2  427   0.820   2.174   2.957 -0.6431  1.6960  1.0433
  107SOL     MW  428   0.769   2.213   2.897  0.0912  0.0031 -0.1161
  108SOL     OW  429   1.320   1.581   1.650 -0.4011 -0.4831  0.1717
  108SOL    HW1  430   1.256   1.570   1.573 -1.4935 -2.9844 -2.3503
  108SOL    HW2  431   1.369   1.508   1.635 -0.7329  0.8677  1.0371
  108SOL     MW  432   1.318   1.570   1.638 -0.5890 -0.6349 -0.0468
  109SOL     OW  433   2.033   0.776   0.336 -0.0531  0.3196 -0.1707
  109SOL    HW1  434   2.031   0.868   0.346 -0.4269 -1.2063 -0.4075
  109SOL    HW2  435   2.075   0.737   0.415 -0.2244  1.4240  0.0701
  109SOL     MW  436   2.038   0.783   0.348 -0.1250  0.2640 -0.1702
  110SOL     OW  437   0.411   1.916   0.767 -0.1418 -0.1186  0.6995
  110SOL    HW1  438   0.477   1.860   0.723  0.9392 -1.9372 -0.1192
  110SOL    HW2  439   0.451   1.999   0.769 -2.7665 -0.4541  1.5212
  110SOL     MW  440   0.425   1.919   0.762 -0.3455 -0.4028  0.6999
  111SOL     OW  441   0.838   0.893   1.361 -0.6461 -0.0297  0.4878
  111SOL    HW1  442   0.828   0.885   1.268  0.8713 -0.0598  0.2017
  111SOL    HW2  443   0.804   0.811   1.388  1.1984 -1.4856 -0.9001
  111SOL     MW  444   0.832   0.881   1.352 -0.2025 -0.2258  0.2669
  112SOL     OW  445   1.379   1.143   1.612 -0.8409  0.4776  0.2726
  112SOL    HW1  446   1.296   1.187   1.595 -0.6887 -0.1771  1.1076
  112SOL    HW2  447   1.348   1.055   1.634  0.4125  1.0167 -0.5603
  112SOL     MW  448   1.364   1.137   1.613 -0.6555  0.4624  0.2729
  113SOL     OW  449   1.222   2.987   1.714 -0.1204 -0.1370 -0.2766
  113SOL    HW1  450   1.177   2.944   1.784  1.6028  0.9220  0.3408
  113SOL    HW2  451   1.190   2.950   1.632  0.1636 -2.6739  1.4135
  113SOL     MW  452   1.212   2.977   1.712  0.1445 -0.3320  0.0279
  114SOL     OW  453   0.373   2.890   1.776 -0.0644  0.1752  0.3308
  114SOL    HW1  454   0.453   2.929   1.756 -0.5615  0.6177 -1.0541
  114SOL    HW2  455   0.363   2.930   1.860  1.3878  1.7129 -1.8262
  114SOL     MW  456   0.382   2.901   1.784  0.0616  0.4364 -0.1365
  115SOL     OW  457   0.551   0.847   1.179  0.1418  0.7354  0.1187
  115SOL    HW1  458   0.514   0.770   1.135  0.3859  1.6486  1.1982
  115SOL    HW2  459   0.489   0.856   1.247  2.6307 -0.1827 -2.1792
  115SOL     MW  460   0.538   0.838   1.182  0.5024  0.7348 -0.0421
  116SOL     OW  461   0.681   1.119   0.986  0.0716 -0.3759  0.6352
  116SOL    HW1  462   0.747   1.178   0.939 -2.2415  1.6874 -1.8242
  116SOL    HW2  463   0.703   1.149   1.077 -1.8107  0.5756  1.0711
  116SOL     MW  464   0.693   1.131   0.992 -0.4819  0.0218  0.3682
  117SOL     OW  465   1.108   1.302   0.803  0.1911 -0.0766 -0.3527
  117SOL    HW1  466   1.108   1.222   0.863 -0.8189 -2.0633  0.9810
  117SOL    HW2  467   1.083   1.389   0.843 -1.7943  0.9038  1.3080
  117SOL     MW  468   1.104   1.303   0.816 -0.2041 -0.2094  0.0424
  118SOL     OW  469   3.064   2.938   1.796 -0.3850  0.4053  0.0352
  118SOL    HW1  470   3.094   3.011   1.853 -2.7844  2.2372 -0.2958
  118SOL    HW2  471   2.978   2.976   1.778  0.9823 -0.3765 -0.0234
  118SOL     MW  472   3.057   2.953   1.801 -0.5212  0.5438 -0.0162
  119SOL     OW  473   0.358   1.540   1.277 -0.2410  0.1741 -0.0725
  119SOL    HW1  474   0.394   1.628   1.273 -1.2993 -1.4574  0.2352
  119SOL    HW2  475   0.269   1.540   1.234  0.1516 -0.1691 -2.1906
  119SOL     MW  476   0.351   1.552   1.271 -0.3289 -0.0865 -0.3114
  120SOL     OW  477   0.287   0.878   0.986  0.5463  1.1450 -0.0289
  120SOL    HW1  478   0.279   0.970   1.013  0.8090  1.7020  0.1133
  120SOL    HW2  479   0.366   0.867   0.932 -0.6252  1.0439 -0.9233
  120SOL     MW  480   0.296   0.889   0.983  0.4264  1.2052 -0.1282
  121SOL     OW  481   1.761   1.123   1.594 -0.7982 -0.4315 -0.6358
  121SOL    HW1  482   1.691   1.122   1.527 -2.3035  0.1318  0.9834
  121SOL    HW2  483   1.824   1.060   1.572  0.4107  1.2015  0.4971
  121SOL     MW  484   1.760   1.115   1.583 -0.8373 -0.1417 -0.2727
  122SOL     OW  485   0.153   0.652   0.883  0.7307  0.3131  0.0581
  122SOL    HW1  486   0.227   0.590   0.858 -0.0732 -0.3544 -1.6476
  122SOL    HW2  487   0.191   0.733   0.930 -0.3351 -2.9850  1.3925
  122SOL     MW  488   0.168   0.654   0.886  0.4841 -0.2101  0.0091
  123SOL     OW  489   1.879   1.108   0.534 -0.0916  0.0819 -0.0983
  123SOL    HW1  490   1.793   1.069   0.510  1.4437 -0.7832  0.0166
  123SOL    HW2  491   1.902   1.073   0.619  0.7587  1.8855  0.3875
  123SOL     MW  492   1.870   1.098   0.542  0.2231  0.2058 -0.0191
  124SOL     OW  493   0.593   0.463   0.895  0.0555 -0.0825 -1.2436
  124SOL    HW1  494   0.506   0.498   0.857 -1.3777 -1.8142 -1.2018
  124SOL    HW2  495   0.650   0.540   0.880 -0.9308 -0.3208  0.1842
  124SOL     MW  496   0.589   0.478   0.888 -0.2637 -0.3425 -1.0497
  125SOL     OW  497   0.684   1.693   1.735  0.3079  0.3542 -0.0532
  125SOL    HW1  498   0.676   1.711   1.642 -1.2836 -1.6795  1.5178
  125SOL    HW2  499   0.620   1.747   1.774 -2.8717 -0.1461 -2.0125
  125SOL     MW  500   0.674   1.703   1.728 -0.3216  0.0198 -0.1045
  126SOL     OW  501   2.115   1.537   1.912  0.1820  0.1171 -0.1691
  126SOL    HW1  502   2.167   1.614   1.898  0.3449  0.6704 -3.1600
  126SOL    HW2  503   2.175   1.462   1.923 -2.2029 -2.3480  0.5923
  126SOL     MW  504   2.130   1.537   1.911 -0.1112 -0.1351 -0.4632
  127SOL     OW  505   0.491   0.782   1.826 -0.0789  0.2066 -0.0487
  127SOL    HW1  506   0.580   0.783   1.817 -0.4759  0.7386  3.7108
  127SOL    HW2  507   0.469   0.838   1.904 -1.7391  1.1143  3.3994
  127SOL     MW  508   0.499   0.790   1.835 -0.3504  0.3966  0.9022
  128SOL     OW  509   1.744   0.724   2.877  0.3141 -0.0168 -0.0999
  128SOL    HW1  510   1.783   0.713   2.792  0.7101 -0.0587  1.6135
  128SOL    HW2  511   1.768   0.809   2.902  0.5471  0.7471 -1.9505
  128SOL     MW  512   1.752   0.734   2.869  0.3971  0.0785 -0.1180
  129SOL     OW  513   1.567   0.888   0.172  0.2331  0.7435 -0.1081
  129SOL    HW1  514   1.487   0.845   0.137 -0.7558  0.2109 -1.8960
  129SOL    HW2  515   1.641   0.826   0.169  2.2168  0.6975  0.0186
  129SOL     MW  516   1.566   0.875   0.167  0.3644  0.6672 -0.3272
  130SOL     OW  517   0.835   1.444   0.337  0.6660 -0.1481 -0.4218
  130SOL    HW1  518   0.830   1.452   0.430 -0.4747 -5.1614 -0.8470
  130SOL    HW2  519   0.921   1.484   0.317 -0.9312 -2.4133 -0.6845
  130SOL     MW  520   0.846   1.450   0.346  0.3048 -1.1084 -0.5125
  131SOL     OW  521   0.062   0.778   0.113  0.0465  0.3290 -0.3996
  131SOL    HW1  522   0.049   0.818   0.022 -0.9552 -1.2953 -0.4510
  131SOL    HW2  523   0.139   0.720   0.106  1.3017 -0.7860 -1.3514
  131SOL     MW  524   0.071   0.776   0.100  0.0799 -0.0324 -0.5320
  132SOL     OW  525   2.714   0.086   1.254 -0.0096  0.1829  0.1030
  132SOL    HW1  526   2.763   0.082   1.174  1.6898 -1.0776  0.5598
  132SOL    HW2  527   2.632   0.029   1.243  1.8084 -2.0814 -0.2644
  132SOL     MW  528   2.710   0.078   1.242  0.4545 -0.2822  0.1148
  133SOL     OW  529   1.049   0.103   1.735  0.6000 -0.1246  0.5939
  133SOL    HW1  530   1.104   0.026   1.732 -1.6990 -0.0068  1.7836
  133SOL    HW2  531   1.081   0.156   1.814 -1.5242 -0.4860  2.4022
  133SOL     MW  532   1.060   0.100   1.745  0.0164 -0.1567  0.9894
  134SOL     OW  533   1.407   2.492   1.448  0.0769  0.4593 -0.4037
  134SOL    HW1  534   1.346   2.546   1.390 -0.4811  2.9151  1.8001
  134SOL    HW2  535   1.432   2.543   1.523  3.3777  0.3499  1.8092
  134SOL     MW  536   1.402   2.506   1.450  0.4388  0.7689  0.1791
  135SOL     OW  537   3.018   1.003   2.960  0.2011  0.4163 -0.3374
  135SOL    HW1  538   3.097   1.048   2.986 -1.7938 -0.2238 -0.6168
  135SOL    HW2  539   2.965   1.085   2.934 -1.0475  1.4646  0.5122
  135SOL     MW  540   3.021   1.020   2.960 -0.2269  0.4702 -0.2622
  136SOL     OW  541   0.158   1.991   0.871  0.0698  0.2823 -0.4530
  136SOL    HW1  542   0.065   1.963   0.859 -2.2064  0.5915  1.4987
  136SOL    HW2  543   0.210   1.936   0.806  1.6115 -1.9802  1.8387
  136SOL     MW  544   0.153   1.980   0.861 -0.0271  0.0246  0.1069
  137SOL     OW  545   0.744   2.085   0.590 -0.1829  0.4134 -0.3144
  137SOL    HW1  546   0.778   2.078   0.683 -1.1082 -2.5900  1.4472
  137SOL    HW2  547   0.654   2.117   0.600  1.0216  0.7391  0.9857
  137SOL     MW  548   0.737   2.088   0.603 -0.1461  0.0601  0.0896
  138SOL     OW  549   0.483   0.597   1.105  0.4887 -0.1118 -0.8757
  138SOL    HW1  550   0.396   0.566   1.113  3.0451  1.4383 -2.4011
  138SOL    HW2  551   0.528   0.550   1.037 -1.3743  0.5880  1.3973
  138SOL     MW  552   0.478   0.587   1.097  0.5802  0.1850 -0.7771
  139SOL     OW  553   2.856   0.516   1.364  0.2019 -0.4761 -0.2166
  139SOL    HW1  554   2.940   0.460   1.361  1.1643 -1.8289 -0.2549
  139SOL    HW2  555   2.849   0.552   1.454 -2.4206 -1.2836  0.0078
  139SOL     MW  556   2.866   0.513   1.375 -0.0171 -0.7611 -0.1920
  140SOL     OW  557   0.887   0.473   1.984  0.1349  0.7277  0.3024
  140SOL    HW1  558   0.965   0.416   1.969 -2.0348 -0.6603 -2.3951
  140SOL    HW2  559   0.857   0.461   2.080 -0.4784  1.1555  3.1171
  140SOL     MW  560   0.893   0.464   1.994 -0.2323  0.6010  0.3179
  141SOL     OW  561   1.106   0.635   1.684  0.5306  0.2118  0.5557
  141SOL    HW1  562   1.099   0.558   1.625  0.6294 -0.3556  0.0638
  141SOL    HW2  563   1.159   0.602   1.756 -2.5329  1.8286  0.5233
  141SOL     MW  564   1.112   0.621   1.685  0.1395  0.3502  0.4865
  142SOL     OW  565   0.865   1.204   0.745 -0.5823 -0.6981  0.2153
  142SOL    HW1  566   0.909   1.132   0.690  0.8886 -0.6808  1.4119
  142SOL    HW2  567   0.951   1.245   0.772  2.6164 -2.6315  3.0121
  142SOL     MW  568   0.882   1.200   0.741  0.0338 -0.9509  0.7422
  143SOL     OW  569   1.837   0.721   1.051 -0.0464  0.1172  0.6269
  143SOL    HW1  570   1.878   0.753   0.970  2.6316  0.0684 -1.9937
  143SOL    HW2  571   1.747   0.705   1.029 -0.0721  0.6036  0.2102
  143SOL     MW  572   1.830   0.724   1.037  0.3036  0.1749  0.2262
  144SOL     OW  573   0.235   1.332   1.743  0.4617 -0.1085  0.5008
  144SOL    HW1  574   0.308   1.398   1.722 -1.0407 -0.6403  3.4449
  144SOL    HW2  575   0.264   1.259   1.794  0.2070 -0.1838  1.8793
  144SOL     MW  576   0.248   1.331   1.747  0.2298 -0.1886  1.0711
  145SOL     OW  577   0.240   0.493   1.187 -0.0763 -0.1006 -0.0579
  145SOL    HW1  578   0.259   0.405   1.227 -0.4715  2.5066  0.8973
  145SOL    HW2  579   0.181   0.464   1.117 -2.6067 -1.3646 -1.0042
  145SOL     MW  580   0.235   0.477   1.183 -0.4623  0.0766 -0.0567
  146SOL     OW  581   0.789   1.972   1.526  0.3130 -0.3267  0.4518
  146SOL    HW1  582   0.823   2.008   1.438  1.5428  1.8030 -2.2742
  146SOL    HW2  583   0.753   1.882   1.501  0.4934 -2.3614 -0.1446
  146SOL     MW  584   0.789   1.965   1.511  0.4990 -0.3142  0.0134
  147SOL     OW  585   0.452   0.517   2.982 -0.8413  0.4836  0.8813
  147SOL    HW1  586   0.370   0.498   3.026  2.1271 -1.6551  2.7758
  147SOL    HW2  587   0.424   0.588   2.921 -0.8044  1.0375  0.1143
  147SOL     MW  588   0.438   0.524   2.979 -0.4448  0.2745  1.0300
  148SOL     OW  589   0.037   0.908   1.343 -0.6617 -0.3522 -0.8375
  148SOL    HW1  590   0.133   0.908   1.330 -0.1085 -1.2931 -0.6192
  148SOL    HW2  591   0.014   0.998   1.331  0.5430  0.8340 -0.7035
  148SOL     MW  592   0.047   0.920   1.340 -0.4298 -0.3198 -0.7910
  149SOL     OW  593   1.557   1.189   1.434 -0.6481  0.2935  0.8959
  149SOL    HW1  594   1.484   1.156   1.504  1.0234  0.5618  2.3988
  149SOL    HW2  595   1.544   1.284   1.431  0.1613 -0.2021  0.7101
  149SOL     MW  596   1.546   1.197   1.443 -0.3208  0.2635  1.0697
  150SOL     OW  597   1.722   1.460   0.856 -0.2437 -0.3548  0.4484
  150SOL    HW1  598   1.784   1.396   0.891  2.7988  0.7360  2.5966
  150SOL    HW2  599   1.765   1.544   0.859  1.4383 -0.6207  2.8132
  150SOL     MW  600   1.736   1.462   0.861  0.3796 -0.2459  1.0438
  151SOL     OW  601   1.612   1.888   0.829 -0.1161 -0.0124  0.2837
  151SOL    HW1  602   1.577   1.871   0.740 -0.4993 -0.0908  1.0635
  151SOL    HW2  603   1.558   1.829   0.884 -1.3533 -0.5918 -1.3895
  151SOL     MW  604   1.601   1.878   0.824 -0.3299 -0.0992  0.1658
  152SOL     OW  605   0.652   1.411   1.582 -0.0049 -0.2871  0.7091
  152SOL    HW1  606   0.700   1.477   1.521 -0.8210 -1.3233  1.4897
  152SOL    HW2  607   0.623   1.349   1.519  1.3302  2.1991 -2.9191
  152SOL     MW  608   0.654   1.411   1.566  0.0636 -0.0958  0.3334
  153SOL     OW  609   2.595   1.232   0.723  0.6034 -0.0661  0.2104
  153SOL    HW1  610   2.677   1.231   0.673  1.6127 -0.4753 -1.2860
  153SOL    HW2  611   2.543   1.152   0.716 -1.6322 -2.6530 -2.0876
  153SOL     MW  612   2.599   1.221   0.716  0.4416 -0.4614 -0.2903
  154SOL     OW  613   0.127   1.775   1.760  0.2193  0.3442 -0.3245
  154SOL    HW1  614   0.098   1.674   1.737 -1.1822  0.2564 -1.5501
  154SOL    HW2  615   0.225   1.779   1.775 -0.2990 -0.9306  2.6856
  154SOL     MW  616   0.136   1.762   1.759 -0.0340  0.1644 -0.0890
  155SOL     OW  617   1.205   0.689   0.293 -0.6273 -0.4828  0.3792
  155SOL    HW1  618   1.195   0.664   0.382 -2.0235  1.1146 -4.7009
  155SOL    HW2  619   1.182   0.784   0.303 -3.6992  2.0367 -0.8655
  155SOL     MW  620   1.201   0.698   0.306 -1.2168  0.0604 -0.4553
  156SOL     OW  621   1.561   0.009   1.088 -0.2983  0.1141  0.4333
  156SOL    HW1  622   1.629   0.041   1.147  2.0343 -0.3633  3.0646
  156SOL    HW2  623   1.578  -0.088   1.075 -1.4325  1.1269  0.8661
  156SOL     MW  624   1.572   0.000   1.094 -0.1402  0.1848  0.8376
  157SOL     OW  625   1.293   1.137   0.184 -1.2957  0.0141 -0.3411
  157SOL    HW1  626   1.314   1.077   0.253  3.0566 -1.2008  0.6034
  157SOL    HW2  627   1.367   1.198   0.184 -0.9806  1.7220  0.7922
  157SOL     MW  628   1.306   1.137   0.193 -0.6799  0.0792 -0.0670
  158SOL     OW  629   0.385   1.651   2.278 -0.2904  0.1378  0.7029
  158SOL    HW1  630   0.438   1.713   2.223  2.4962 -1.1323 -0.2933
  158SOL    HW2  631   0.319   1.630   2.212 -1.5930  1.7935  1.7012
  158SOL     MW  632   0.383   1.656   2.262 -0.0946  0.1887  0.7032
  159SOL     OW  633   1.204   1.707   0.521 -0.0520  0.5205 -0.3287
  159SOL    HW1  634   1.166   1.660   0.446  1.7494 -0.7497  0.1303
  159SOL    HW2  635   1.131   1.735   0.576  1.6304  0.9515 -1.6870
  159SOL     MW  636   1.189   1.704   0.518  0.4076  0.4098 -0.4473
  160SOL     OW  637   0.497   1.137   1.541 -0.4224  0.7989  0.0082
  160SOL    HW1  638   0.465   1.069   1.595  1.8340 -3.9347 -2.1175
  160SOL    HW2  639   0.585   1.111   1.506  1.1044 -1.1368  0.3677
  160SOL     MW  640   0.505   1.125   1.544  0.0768 -0.0811 -0.2248
  161SOL     OW  641   0.477   2.287   2.685  0.1555  0.4870 -0.0319
  161SOL    HW1  642   0.395   2.322   2.663  1.3531 -2.4482 -0.9551
  161SOL    HW2  643   0.491   2.208   2.628  1.8349  0.6981  0.2083
  161SOL     MW  644   0.468   2.281   2.674  0.5351  0.1276 -0.1220
  162SOL     OW  645   1.077   1.806   1.808  0.0008 -0.5484 -0.5084
  162SOL    HW1  646   1.078   1.889   1.862  2.1258  0.2224  0.4503
  162SOL    HW2  647   1.041   1.740   1.872 -1.0661 -0.8938  3.3842
  162SOL     MW  648   1.073   1.808   1.824  0.1404 -0.4923  0.1317
  163SOL     OW  649   2.131   3.060   0.805  0.0954 -0.6915  0.2850
  163SOL    HW1  650   2.127   3.134   0.743  0.8412 -1.0892 -2.0094
  163SOL    HW2  651   2.062   3.003   0.785 -0.7991  0.7092 -1.9452
  163SOL     MW  652   2.122   3.062   0.795  0.0758 -0.5591 -0.3120
  164SOL     OW  653   0.257   0.241   0.838 -0.8246  0.4609 -0.6841
  164SOL    HW1  654   0.159   0.237   0.864 -0.9299  1.9502 -1.6228
  164SOL    HW2  655   0.273   0.168   0.778 -0.1729  1.6302 -1.0259
  164SOL     MW  656   0.247   0.231   0.833 -0.7525  0.8117 -0.8531
  165SOL     OW  657   1.166   1.293   0.385 -0.3299 -0.4617 -0.1924
  165SOL    HW1  658   1.209   1.264   0.470  0.8694  1.4270 -2.5648
  165SOL    HW2  659   1.213   1.246   0.313  0.1429 -1.9605 -3.3205
  165SOL     MW  660   1.178   1.283   0.387 -0.1093 -0.4103 -0.9182
  166SOL     OW  661   0.384   1.144   1.037 -0.9125 -0.4658 -0.0383
  166SOL    HW1  662   0.398   1.181   1.124  1.2189 -1.6842  1.6647
  166SOL    HW2  663   0.450   1.076   1.024 -1.4599  0.7662  2.7798
  166SOL     MW  664   0.394   1.140   1.047 -0.7035 -0.4640  0.5582
  167SOL     OW  665   0.831   1.179   0.369 -0.6837  0.4022  0.2067
  167SOL    HW1  666   0.850   1.271   0.336 -0.4468  1.1637 -1.4396
  167SOL    HW2  667   0.880   1.130   0.301  1.0805  2.0205  1.2719
  167SOL     MW  668   0.840   1.184   0.356 -0.4197  0.7162  0.1300
  168SOL     OW  669   1.727   1.632   3.022 -0.6234 -0.4261  0.2644
  168SOL    HW1  670   1.648   1.672   2.983 -2.3165 -2.0210 -0.8940
  168SOL    HW2  671   1.721   1.537   2.996 -0.4417 -0.1091 -0.9124
  168SOL     MW  672   1.716   1.625   3.013 -0.8228 -0.5947 -0.0437
  169SOL     OW  673   0.299   0.958   1.329 -0.1484 -0.3404  0.1577
  169SOL    HW1  674   0.312   0.917   1.409 -2.1548  1.5218  0.7110
  169SOL    HW2  675   0.322   1.050   1.335 -0.6951 -1.7640 -1.1666
  169SOL     MW  676   0.303   0.965   1.340 -0.4853 -0.2826  0.0560
  170SOL     OW  677   1.112   1.528   1.453 -0.0906  0.7599 -0.1499
  170SOL    HW1  678   1.063   1.600   1.487 -1.3739 -2.1013  2.5018
  170SOL    HW2  679   1.135   1.554   1.365 -2.7717  0.9413  0.1993
  170SOL     MW  680   1.109   1.541   1.446 -0.6136  0.4063  0.2461
  171SOL     OW  681   0.477   1.482   0.540 -0.5278  0.7513 -0.2384
  171SOL    HW1  682   0.387   1.476   0.516  3.7700  2.5105 -1.6088
  171SOL    HW2  683   0.535   1.405   0.513 -0.5399 -0.2701 -2.4478
  171SOL     MW  684   0.473   1.471   0.534  0.0377  0.8487 -0.7107
  172SOL     OW  685   0.748   0.298   1.291  0.0364  0.0201 -0.7051
  172SOL    HW1  686   0.774   0.251   1.209  0.2017 -2.6274 -3.1142
  172SOL    HW2  687   0.808   0.254   1.360  2.2734  1.7340  2.0158
  172SOL     MW  688   0.760   0.286   1.290  0.3533 -0.1031 -0.6640
  173SOL     OW  689   0.502   1.768   0.333 -0.2867  0.5430 -0.3605
  173SOL    HW1  690   0.537   1.680   0.324  1.6862 -2.8665 -0.1523
  173SOL    HW2  691   0.464   1.777   0.419  1.3818 -0.6576  0.4306
  173SOL     MW  692   0.502   1.758   0.343  0.1937 -0.0652 -0.2287
  174SOL     OW  693   1.915   0.906   1.502  0.4810 -0.8206  0.6203
  174SOL    HW1  694   1.856   0.832   1.516 -2.6541  0.0995  0.0770
  174SOL    HW2  695   1.897   0.928   1.413  2.1634  0.0399  2.5045
  174SOL     MW  696   1.905   0.899   1.492  0.2893 -0.5857  0.7973
  175SOL     OW  697   0.595   1.465   0.226  0.2246  0.2050  0.2290
  175SOL    HW1  698   0.612   1.385   0.175 -0.5233 -0.5959  0.8330
  175SOL    HW2  699   0.670   1.483   0.281  1.5823  0.7107  1.5555
  175SOL     MW  700   0.607   1.457   0.227  0.3051  0.1660  0.4837
  176SOL     OW  701   0.102   1.513   1.210  0.4459 -0.1506  0.9020
  176SOL    HW1  702   0.098   1.437   1.150 -0.7928 -1.6943  0.5720
  176SOL    HW2  703   0.049   1.489   1.286  1.2612  2.7494 -0.4335
  176SOL     MW  704   0.095   1.499   1.212  0.3900  0.0283  0.6822
  177SOL     OW  705   0.509   0.263   1.432 -0.1076 -0.2837  0.2184
  177SOL    HW1  706   0.573   0.295   1.367 -0.6217 -3.0757 -2.4510
  177SOL    HW2  707   0.513   0.338   1.495  0.2109 -0.0807  1.5181
  177SOL     MW  708   0.518   0.277   1.431 -0.1334 -0.6253  0.0376
  178SOL     OW  709   3.066   0.562   2.973  0.1077  0.7051 -0.4301
  178SOL    HW1  710   2.977   0.524   2.963  4.8988 -0.7942 -0.6572
  178SOL    HW2  711   3.077   0.598   2.881  2.0477  1.5671 -1.1650
  178SOL     MW  712   3.056   0.562   2.960  0.9958  0.6210 -0.5571
  179SOL     OW  713   1.565   1.489   1.357  0.0563 -0.2228  0.0769
  179SOL    HW1  714   1.607   1.500   1.445 -3.6400 -0.3131  1.9637
  179SOL    HW2  715   1.653   1.465   1.313  0.5852  2.8880  2.2600
  179SOL     MW  716   1.582   1.488   1.363 -0.3616  0.1757  0.6138
  180SOL     OW  717   0.019   0.253   0.414  0.2640  0.2574  0.2065
  180SOL    HW1  718  -0.059   0.296   0.363 -1.5384  0.8997 -1.4418
  180SOL    HW2  719   0.073   0.328   0.419 -0.4950  0.7942 -2.8503
  180SOL     MW  720   0.016   0.268   0.408 -0.0740  0.4129 -0.4143
  181SOL     OW  721   1.067   1.339   0.018  0.4213 -0.0768  0.6390
  181SOL    HW1  722   1.118   1.423   0.025 -3.4949  1.9060  0.0573
  181SOL    HW2  723   1.129   1.275  -0.012 -2.0687  0.1921 -2.5274
  181SOL     MW  724   1.082   1.342   0.015 -0.4239  0.2203  0.1444
  182SOL     OW  725   0.362   0.870   1.603 -0.1096 -0.5963  0.4038
  182SOL    HW1  726   0.292   0.901   1.666  1.6166  0.5718  2.8626
  182SOL    HW2  727   0.412   0.824   1.668 -1.6242  0.6154  1.6385
  182SOL     MW  728   0.359   0.868   1.620 -0.0817 -0.2823  0.8911
  183SOL     OW  729   1.567   1.746   1.281 -0.6894  0.1589 -0.1136
  183SOL    HW1  730   1.662   1.752   1.275 -2.9465  0.9485  3.4885
  183SOL    HW2  731   1.555   1.654   1.321  0.4727 -0.9830  0.2295
  183SOL     MW  732   1.578   1.735   1.286 -0.8339  0.1124  0.4069
  184SOL     OW  733   0.819   0.624   1.746  0.1919 -0.0790 -0.3390
  184SOL    HW1  734   0.914   0.651   1.731  0.3449 -0.3424  0.0885
  184SOL    HW2  735   0.824   0.572   1.827  1.8364  1.2029  0.3467
  184SOL     MW  736   0.833   0.621   1.754  0.4290  0.0554 -0.1921
  185SOL     OW  737   1.109   0.966   1.873 -0.3509  0.0518  0.0988
  185SOL    HW1  738   1.094   0.877   1.917 -0.9539 -0.5875  1.4450
  185SOL    HW2  739   1.158   1.019   1.934 -2.6590 -0.1386 -0.2894
  185SOL     MW  740   1.114   0.961   1.887 -0.7350 -0.0576  0.2252
  186SOL     OW  741   0.266   1.605   1.526 -0.3227  0.4525  0.0488
  186SOL    HW1  742   0.291   1.570   1.435  0.5560 -2.5838  1.2768
  186SOL    HW2  743   0.179   1.566   1.545  0.5160  1.6741  1.0422
  186SOL     MW  744   0.258   1.595   1.516 -0.0961  0.2131  0.3419
  187SOL     OW  745   1.415   0.796   1.336 -0.1183  0.3257  0.1395
  187SOL    HW1  746   1.423   0.803   1.432  2.1222  0.2370  1.3817
  187SOL    HW2  747   1.324   0.823   1.322 -0.5401  1.0158 -1.0970
  187SOL     MW  748   1.404   0.801   1.347  0.1217  0.4050  0.1402
  188SOL     OW  749   1.847   1.233   0.932 -0.3288  0.0894 -0.1457
  188SOL    HW1  750   1.874   1.214   1.025 -1.3696 -0.4652  0.9887
  188SOL    HW2  751   1.844   1.146   0.897 -0.7531  1.6661 -0.2595
  188SOL     MW  752   1.850   1.219   0.940 -0.5221  0.2242 -0.0110
  189SOL     OW  753   0.715   0.728   0.852  0.2843 -0.0434 -0.5447
  189SOL    HW1  754   0.643   0.787   0.857  1.6413 -1.5558  1.4336
  189SOL    HW2  755   0.756   0.744   0.934  1.6316  0.8477 -0.8823
  189SOL     MW  756   0.711   0.738   0.864  0.6411 -0.1254 -0.3283
  190SOL     OW  757   1.876   0.263   2.050 -0.1325 -0.1775 -0.2019
  190SOL    HW1  758   1.872   0.233   2.136 -1.3886  1.0355  0.8510
  190SOL    HW2  759   1.958   0.310   2.059 -0.5840  1.2231  1.2364
  190SOL     MW  760   1.886   0.265   2.063 -0.3578  0.1673  0.1268
  191SOL     OW  761   1.558   1.004   1.225 -0.2243  0.7789 -0.1969
  191SOL    HW1  762   1.550   1.078   1.293 -1.1204  1.4440  0.9826
  191SOL    HW2  763   1.523   0.930   1.275  0.1068  1.8516  0.0463
  191SOL     MW  764   1.553   1.004   1.241 -0.2989  1.0082 -0.0092
  192SOL     OW  765   0.529   2.190   2.954 -0.2821  0.5683 -0.1627
  192SOL    HW1  766   0.474   2.225   2.885 -1.9635  1.8225  2.2774
  192SOL    HW2  767   0.529   2.097   2.921 -0.5375 -1.1621  0.0471
  192SOL     MW  768   0.521   2.182   2.941 -0.5376  0.5055  0.1869
  193SOL     OW  769   0.825   1.617   0.791  0.3211  0.5903 -0.2843
  193SOL    HW1  770   0.728   1.605   0.803 -4.0880 -0.8754  2.1965
  193SOL    HW2  771   0.828   1.554   0.721  2.2469  2.0559  2.2900
  193SOL     MW  772   0.813   1.608   0.783 -0.0065  0.5903  0.3827
  194SOL     OW  773   0.397   1.353   0.857 -0.5082 -0.2054 -0.4081
  194SOL    HW1  774   0.377   1.293   0.922 -1.1103 -0.6383 -0.0025
  194SOL    HW2  775   0.316   1.370   0.807 -0.4818  2.8252  0.4921
  194SOL     MW  776   0.384   1.347   0.859 -0.5841  0.1373 -0.2358
  195SOL     OW  777   1.205   1.117   3.015  0.3173 -0.0317 -0.2372
  195SOL    HW1  778   1.253   1.091   3.097  0.4024  3.8347  2.2180
  195SOL    HW2  779   1.150   1.039   2.995 -0.0888 -3.0096 -2.2830
  195SOL     MW  780   1.204   1.103   3.023  0.2750  0.0855 -0.1832
  196SOL     OW  781   2.246   1.017   0.508  0.3211 -0.5234  0.1212
  196SOL    HW1  782   2.272   1.016   0.419 -3.2336  1.5648  2.6598
  196SOL    HW2  783   2.218   1.105   0.527  2.2264 -0.9432 -2.1992
  196SOL     MW  784   2.246   1.029   0.499  0.1035 -0.3032  0.1500
  197SOL     OW  785   0.614   1.342   2.161 -0.1597 -0.1183  0.3511
  197SOL    HW1  786   0.606   1.285   2.088 -0.7824 -1.8357  1.4049
  197SOL    HW2  787   0.698   1.384   2.143  0.6236  0.5336 -1.9333
  197SOL     MW  788   0.624   1.340   2.149 -0.1385 -0.2589  0.1887
  198SOL     OW  789   2.936   1.394   1.019 -0.1963  0.4741 -0.2474
  198SOL    HW1  790   2.916   1.484   0.992 -1.4852 -1.6491  0.6349
  198SOL    HW2  791   2.850   1.339   1.004  0.1441  2.4689  1.9515
  198SOL     MW  792   2.922   1.399   1.013 -0.3214  0.4572  0.1592
  199SOL     OW  793   0.667   1.253   1.816 -0.1651  0.0701 -0.5621
  199SOL    HW1  794   0.571   1.225   1.823 -2.0872  0.6429  0.5409
  199SOL    HW2  795   0.664   1.341   1.769 -0.8182  1.5433 -0.6642
  199SOL     MW  796   0.654   1.261   1.811 -0.5048  0.3401 -0.4300
  200SOL     OW  797   1.836   2.972   1.290 -0.3226 -0.0425 -0.1881
  200SOL    HW1  798   1.911   2.980   1.224  3.8228 -0.5938  1.5128
  200SOL    HW2  799   1.808   3.060   1.292  0.9777 -3.2607  0.4345
  200SOL     MW  800   1.842   2.985   1.281  0.3959 -0.5398  0.1185
  201SOL     OW  801   1.191   0.299   0.827 -0.2061  0.1032  0.6050
  201SOL    HW1  802   1.146   0.220   0.813  0.8441  0.5871  1.4303
  201SOL    HW2  803   1.276   0.270   0.850 -0.7861 -2.0151  0.2277
  201SOL     MW  804   1.196   0.284   0.828 -0.1441 -0.1125  0.6641
  202SOL     OW  805   1.472   1.736   1.025  0.0487  0.1630 -0.2437
  202SOL    HW1  806   1.477   1.646   0.988 -1.0890 -4.2199 -0.4255
  202SOL    HW2  807   1.514   1.723   1.112 -0.6947 -1.1216  0.9964
  202SOL     MW  808   1.478   1.722   1.032 -0.1995 -0.5848 -0.1040
  203SOL     OW  809   3.089   0.380   1.327  0.6320  0.6083  0.0904
  203SOL    HW1  810   3.101   0.286   1.299  1.3582  1.9874  2.5379
  203SOL    HW2  811   3.164   0.421   1.287  1.9592  0.5041  1.8364
  203SOL     MW  812   3.100   0.373   1.318  0.9029  0.7765  0.6437
  204SOL     OW  813   1.011   1.834   0.660  0.1860  0.1650  0.1711
  204SOL    HW1  814   0.955   1.789   0.719 -0.9476 -0.4055 -0.8348
  204SOL    HW2  815   0.961   1.844   0.579  0.3254  1.1714 -1.3501
  204SOL     MW  816   0.997   1.829   0.657  0.0548  0.2225 -0.1623
  205SOL     OW  817   1.416   3.001   1.296 -0.0832 -0.0533 -0.3871
  205SOL    HW1  818   1.470   3.037   1.227  1.2678  0.6797  2.0883
  205SOL    HW2  819   1.342   3.061   1.309  0.1957 -0.1775 -2.7706
  205SOL     MW  820   1.414   3.014   1.289  0.1318  0.0271 -0.3750
  206SOL     OW  821   0.367   2.923   1.350  0.0976 -0.6169  0.1279
  206SOL    HW1  822   0.352   2.958   1.263  0.7888  1.5845  0.8265
  206SOL    HW2  823   0.461   2.930   1.360 -0.8539 -0.6495  2.0146
  206SOL     MW  824   0.378   2.929   1.339  0.0633 -0.3307  0.4690
  207SOL     OW  825   0.891   1.752   0.215 -0.0860 -0.2780  0.1833
  207SOL    HW1  826   0.936   1.808   0.150 -2.7505  2.5548 -1.5329
  207SOL    HW2  827   0.953   1.692   0.253 -2.0599  0.1985 -1.1086
  207SOL     MW  828   0.905   1.751   0.212 -0.6980  0.1587 -0.2136
  208SOL     OW  829   0.786   1.539   1.334  0.0455 -0.6404  0.5651
  208SOL    HW1  830   0.868   1.586   1.292 -0.4802  1.5577 -2.5827
  208SOL    HW2  831   0.790   1.459   1.285  2.0205  0.2528 -1.0137
  208SOL     MW  832   0.798   1.535   1.322  0.2367 -0.2325 -0.0586
  209SOL     OW  833   1.630   0.477   2.824  0.1633  0.0091 -0.1983
  209SOL    HW1  834   1.676   0.545   2.868 -0.9269 -0.9308 -0.3588
  209SOL    HW2  835   1.679   0.397   2.829 -0.7633 -0.5064  3.9404
  209SOL     MW  836   1.642   0.475   2.830 -0.1028 -0.1829  0.3265
  210SOL     OW  837   1.489   1.417   0.992 -0.1710 -0.2034  0.0760
  210SOL    HW1  838   1.578   1.407   0.967 -0.1763 -0.8052  0.3983
  210SOL    HW2  839   1.447   1.420   0.905  0.1303  1.1515  0.1456
  210SOL     MW  840   1.495   1.416   0.977 -0.1320 -0.1040  0.1277
  211SOL     OW  841   1.749   0.473   0.901 -0.0869  0.3670 -0.2408
  211SOL    HW1  842   1.753   0.503   0.810  1.5024  0.2471  2.3592
  211SOL    HW2  843   1.838   0.471   0.948 -0.6300 -0.2898 -0.1262
  211SOL     MW  844   1.761   0.477   0.895  0.0511  0.2645  0.1174
  212SOL     OW  845   0.365   1.199   0.196  0.1495  0.0211  0.3105
  212SOL    HW1  846   0.313   1.124   0.216  4.0098  0.9442 -1.8832
  212SOL    HW2  847   0.424   1.157   0.131 -0.5489  1.0985 -2.0277
  212SOL     MW  848   0.366   1.184   0.190  0.5667  0.2850 -0.2875
  213SOL     OW  849   0.395   1.823   3.024  0.4517 -0.6090  0.3593
  213SOL    HW1  850   0.458   1.876   3.079  1.2034 -1.8200  0.1998
  213SOL    HW2  851   0.426   1.852   2.933  1.7144  0.1991 -2.0119
  213SOL     MW  852   0.407   1.834   3.019  0.7175 -0.6621  0.0254
  214SOL     OW  853   0.583   0.333   2.099 -0.5735  0.3764  0.7069
  214SOL    HW1  854   0.501   0.384   2.121  2.9911 -0.4849  3.3681
  214SOL    HW2  855   0.597   0.348   2.001 -1.3065 -3.7932 -2.3763
  214SOL     MW  856   0.574   0.342   2.089 -0.1999 -0.2874  0.6512
  215SOL     OW  857   0.507   0.495   2.511 -0.6243 -0.9877 -0.4919
  215SOL    HW1  858   0.479   0.546   2.432 -1.0081  1.2766 -1.2030
  215SOL    HW2  859   0.479   0.413   2.476 -1.5680 -0.4152 -3.9059
  215SOL     MW  860   0.500   0.491   2.496 -0.7995 -0.6134 -1.0362
  216SOL     OW  861   2.913   3.090   2.803  0.3943  0.1665  0.5675
  216SOL    HW1  862   2.822   3.095   2.786  2.1031 -1.0331 -1.2986
  216SOL    HW2  863   2.958   3.146   2.746 -0.3074  0.2046  3.5306
  216SOL     MW  864   2.907   3.098   2.793  0.5272  0.0132  0.7123
  217SOL     OW  865   0.951   1.093   0.147 -0.3418  0.1456  0.4764
  217SOL    HW1  866   0.974   1.040   0.070 -1.0494  0.2398  0.0926
  217SOL    HW2  867   0.988   1.171   0.121 -1.2317 -0.3389 -0.4380
  217SOL     MW  868   0.959   1.096   0.134 -0.5526  0.0941  0.3051
  218SOL     OW  869   0.850   1.362   2.602 -0.0789 -0.1458  0.2515
  218SOL    HW1  870   0.840   1.312   2.681  1.1928  2.2032  0.0149
  218SOL    HW2  871   0.928   1.412   2.619  0.4464  0.2531  1.3936
  218SOL     MW  872   0.859   1.362   2.615  0.1582  0.2167  0.3710
  219SOL     OW  873   1.047   0.458   2.588 -0.3727  0.4176 -0.5425
  219SOL    HW1  874   1.098   0.524   2.647  0.1610  1.9889  0.6064
  219SOL    HW2  875   0.970   0.501   2.559  0.1112 -1.2757 -0.3247
  219SOL     MW  876   1.043   0.472   2.592 -0.2385  0.4015 -0.3622
  220SOL     OW  877   1.704   0.521   2.194 -0.2904 -0.1225 -0.0881
  220SOL    HW1  878   1.621   0.569   2.176  0.8669  0.8390 -0.7220
  220SOL    HW2  879   1.711   0.453   2.128 -1.8076 -0.9138  2.4998
  220SOL     MW  880   1.694   0.519   2.183 -0.3379 -0.1001  0.1697
  221SOL     OW  881   0.387   1.388   2.938  0.0243  0.0169  0.4255
  221SOL    HW1  882   0.418   1.296   2.916 -0.5518 -1.8688  0.8825
  221SOL    HW2  883   0.466   1.452   2.928  0.5946  1.2920  0.7844
  221SOL     MW  884   0.401   1.384   2.934  0.0235 -0.0636  0.5332
  222SOL     OW  885   0.526   0.912   2.731 -0.1726 -0.1850  0.4037
  222SOL    HW1  886   0.439   0.893   2.697 -0.4030 -0.5617 -2.5369
  222SOL    HW2  887   0.569   0.821   2.727  2.4470 -1.1608  1.2516
  222SOL     MW  888   0.520   0.897   2.726  0.1426 -0.3635  0.1276
  223SOL     OW  889   3.080   2.026   2.529 -0.6363 -0.4969 -0.6254
  223SOL    HW1  890   3.099   2.036   2.624 -0.0968 -0.5675 -1.2919
  223SOL    HW2  891   3.129   2.097   2.484 -1.2094 -1.0666  0.5433
  223SOL     MW  892   3.089   2.037   2.535 -0.6407 -0.5814 -0.5592
  224SOL     OW  893   1.467   0.664   2.430  0.1424 -0.9068 -0.3261
  224SOL    HW1  894   1.545   0.629   2.483  4.1681  1.2664 -0.1048
  224SOL    HW2  895   1.469   0.756   2.461 -2.1130 -2.0711 -2.5908
  224SOL     MW  896   1.478   0.671   2.441  0.3760 -0.7737 -0.5957
  225SOL     OW  897   2.941   1.496   2.229 -0.0279 -0.1008 -0.5679
  225SOL    HW1  898   2.991   1.578   2.204  0.5746  0.5719 -3.7225
  225SOL    HW2  899   2.859   1.510   2.281 -2.4466  0.1915 -2.3051
  225SOL     MW  900   2.937   1.509   2.232 -0.2675  0.0265 -1.2133
  226SOL     OW  901   0.443   1.569   2.695  0.2802  0.2715 -0.0017
  226SOL    HW1  902   0.522   1.587   2.644  0.4279 -0.3523  0.5643
  226SOL    HW2  903   0.399   1.656   2.695  0.0894 -0.6010  1.8130
  226SOL     MW  904   0.448   1.583   2.688  0.2745  0.0741  0.3124
  227SOL     OW  905   0.499   1.149   2.896  0.2657 -0.0213 -0.6521
  227SOL    HW1  906   0.586   1.172   2.863 -1.7408  0.5087 -0.0296
  227SOL    HW2  907   0.483   1.061   2.876  1.9000  0.5318 -1.5626
  227SOL     MW  908   0.509   1.140   2.889  0.2166  0.1216 -0.6901
  228SOL     OW  909   0.756   1.113   2.033  0.6476 -0.2589 -0.4142
  228SOL    HW1  910   0.720   1.163   1.963 -0.0315 -0.8203  3.4349
  228SOL    HW2  911   0.844   1.144   2.036 -0.0903  0.1229  1.4630
  228SOL     MW  912   0.763   1.124   2.024  0.4606 -0.2826  0.3413
  229SOL     OW  913   0.213   0.566   0.040  0.1615 -0.7705  0.1059
  229SOL    HW1  914   0.126   0.554  -0.009  1.9238  2.1941 -0.0452
  229SOL    HW2  915   0.218   0.485   0.096 -1.1574  1.8567  2.3819
  229SOL     MW  916   0.202   0.554   0.041  0.2200 -0.0327  0.3863
  230SOL     OW  917   1.732   1.369   2.090  0.8208 -0.4407  1.3042
  230SOL    HW1  918   1.666   1.329   2.148 -1.7177  2.7572  2.0959
  230SOL    HW2  919   1.772   1.302   2.036 -1.4790 -1.3000 -2.4450
  230SOL     MW  920   1.728   1.355   2.090  0.1824 -0.1321  0.9140
  231SOL     OW  921   2.732   1.285   2.217  0.1166  0.1165 -0.1025
  231SOL    HW1  922   2.807   1.343   2.202 -3.2916  2.4380 -2.8833
  231SOL    HW2  923   2.680   1.308   2.135 -1.2522  1.5136 -2.7081
  231SOL     MW  924   2.735   1.295   2.204 -0.5136  0.6071 -0.8132
  232SOL     OW  925   2.293   0.895   1.949  0.0106 -0.2769  0.3128
  232SOL    HW1  926   2.212   0.921   1.908 -0.7211  2.1415  0.8730
  232SOL    HW2  927   2.264   0.842   2.023 -0.7091  0.1554 -1.1995
  232SOL     MW  928   2.278   0.892   1.953 -0.1809  0.0993  0.1872
  233SOL     OW  929   2.103   0.435   2.037  0.1911  0.5538  0.3313
  233SOL    HW1  930   2.148   0.359   2.024 -2.8055  0.7977  0.1767
  233SOL    HW2  931   2.102   0.445   2.130 -0.9896  0.3123 -2.2163
  233SOL     MW  932   2.109   0.426   2.047 -0.3600  0.5541 -0.0252
  234SOL     OW  933   0.249   1.059   2.672  0.3849 -0.2220 -0.0463
  234SOL    HW1  934   0.174   1.062   2.616  0.5040  0.1955  1.5774
  234SOL    HW2  935   0.289   1.145   2.676 -3.7468 -1.0003 -2.8686
  234SOL     MW  936   0.245   1.071   2.665 -0.1445 -0.2696 -0.2045
  235SOL     OW  937   1.146   0.012   2.844  0.2476  0.3645 -0.0863
  235SOL    HW1  938   1.137   0.008   2.938 -1.2942 -1.8849  0.5399
  235SOL    HW2  939   1.114   0.104   2.826 -0.6603  2.8330  0.6695
  235SOL     MW  940   1.140   0.024   2.854 -0.0756  0.3934  0.0960
  236SOL     OW  941   2.980   0.593   0.185 -0.3199 -0.3704 -0.6905
  236SOL    HW1  942   3.020   0.612   0.271 -2.1050  0.9976 -0.1850
  236SOL    HW2  943   3.027   0.652   0.120 -2.6558  3.1983 -0.4377
  236SOL     MW  944   2.991   0.603   0.188 -0.8636  0.2810 -0.5904
  237SOL     OW  945   1.890   1.066   2.111  0.2689  0.8485 -0.3783
  237SOL    HW1  946   1.814   1.037   2.157 -1.4110 -3.6092 -0.7707
  237SOL    HW2  947   1.869   1.045   2.017  0.5715 -1.2989 -1.3673
  237SOL     MW  948   1.877   1.060   2.105  0.0872 -0.0230 -0.5606
  238SOL     OW  949   1.078   1.717   2.921  0.2319  0.0572 -0.1244
  238SOL    HW1  950   1.037   1.658   2.854  0.9482  0.2517 -3.5587
  238SOL    HW2  951   1.169   1.683   2.921 -0.2024 -0.9295 -2.4753
  238SOL     MW  952   1.084   1.704   2.912  0.2691 -0.0473 -0.8877
  239SOL     OW  953   1.183   1.314   2.346 -0.2408 -0.2560 -0.1535
  239SOL    HW1  954   1.112   1.377   2.365  3.0221  2.1360  2.0511
  239SOL    HW2  955   1.201   1.266   2.425 -1.8487 -0.1046 -0.3317
  239SOL     MW  956   1.176   1.316   2.359 -0.0225  0.0795  0.1138
  240SOL     OW  957   0.587   0.868   2.287  0.0759 -0.4384  0.8594
  240SOL    HW1  958   0.620   0.921   2.362  1.7766  2.8653 -0.2486
  240SOL    HW2  959   0.668   0.855   2.242  0.9475 -1.3384 -0.6868
  240SOL     MW  960   0.602   0.873   2.291  0.4153 -0.1213  0.5092
  241SOL     OW  961   0.711   0.446  -0.000  0.2036  0.3670  0.0485
  241SOL    HW1  962   0.716   0.496   0.081 -2.2089  0.2039 -0.6898
  241SOL    HW2  963   0.624   0.470  -0.040  2.3689 -1.2739  2.7424
  241SOL     MW  964   0.700   0.456   0.005  0.1710  0.1290  0.3065
  242SOL     OW  965   1.496   1.612   2.303 -0.1965 -0.3857 -0.0092
  242SOL    HW1  966   1.443   1.685   2.323 -0.6307 -0.6523 -0.3374
  242SOL    HW2  967   1.434   1.546   2.275  1.4483  1.9497 -3.5549
  242SOL     MW  968   1.481   1.613   2.302 -0.0367 -0.1127 -0.5203
  243SOL     OW  969   1.006   0.267   2.382 -0.8205 -0.5204  0.2398
  243SOL    HW1  970   1.090   0.215   2.384 -1.7902 -1.2433  0.3503
  243SOL    HW2  971   1.027   0.341   2.447 -1.5991  0.9889  0.2623
  243SOL     MW  972   1.020   0.270   2.391 -1.0512 -0.4167  0.2574
  244SOL     OW  973   0.092   0.786   2.372  0.1227  0.1549  0.2106
  244SOL    HW1  974   0.053   0.871   2.398  0.7388 -0.2911 -2.1190
  244SOL    HW2  975   0.181   0.800   2.357 -1.0007  2.7041  2.5252
  244SOL     MW  976   0.098   0.799   2.373  0.0558  0.4324  0.2086
  245SOL     OW  977   1.241   0.147   2.431  0.6562 -0.6026 -0.3638
  245SOL    HW1  978   1.296   0.138   2.354 -1.5696 -1.0546  2.8006
  245SOL    HW2  979   1.273   0.076   2.492  0.0412  0.4956 -1.2383
  245SOL     MW  980   1.253   0.136   2.429  0.2814 -0.5174 -0.0617
  246SOL     OW  981   1.204   1.138   2.098 -0.6101 -0.2159 -0.6285
  246SOL    HW1  982   1.157   1.129   2.184 -0.3963  0.6964  1.8685
  246SOL    HW2  983   1.283   1.090   2.122  0.7769 -2.5390  0.8152
  246SOL     MW  984   1.208   1.130   2.112 -0.3989 -0.4021 -0.1086
  247SOL     OW  985   0.767   0.662   0.188  0.0540 -0.8939  0.0203
  247SOL    HW1  986   0.721   0.747   0.173 -0.3139  0.5314  1.0927
  247SOL    HW2  987   0.856   0.666   0.139  0.5605  1.6805 -3.5694
  247SOL     MW  988   0.773   0.674   0.180  0.0723 -0.3662 -0.3118
  248SOL     OW  989   0.301   1.320   2.607  0.2874 -0.0858  0.4326
  248SOL    HW1  990   0.320   1.313   2.516  1.0540  0.7322  1.0522
  248SOL    HW2  991   0.354   1.393   2.636 -1.6537  0.7811  0.3901
  248SOL     MW  992   0.311   1.328   2.599  0.1324  0.1365  0.5088
  249SOL     OW  993   3.029   1.923   2.783 -0.2444  0.2414  0.1806
  249SOL    HW1  994   2.960   1.859   2.762  0.9581 -0.9266  2.9636
  249SOL    HW2  995   3.088   1.872   2.835  0.7343 -0.7105 -1.8037
  249SOL     MW  996   3.028   1.908   2.787  0.0434 -0.0383  0.2860
  250SOL     OW  997   2.249   0.750   2.173  0.3322 -0.7231  0.3863
  250SOL    HW1  998   2.193   0.672   2.201  0.2112  1.4751 -1.7793
  250SOL    HW2  999   2.328   0.762   2.231  0.9926 -1.4553  0.8984
  250SOL     MW 1000   2.252   0.741   2.185  0.4034 -0.5297  0.1681
  251SOL     OW 1001   0.162   0.872   2.040  0.2607 -0.0504 -0.1089
  251SOL    HW1 1002   0.079   0.830   2.076 -2.0693 -0.0376 -0.2544
  251SOL    HW2 1003   0.151   0.892   1.949  3.1418 -1.3923  1.5913
  251SOL     MW 1004   0.149   0.869   2.032  0.3334 -0.2258  0.0962
  252SOL     OW 1005   1.709   1.033   2.890 -0.0076  0.4809  0.0257
  252SOL    HW1 1006   1.744   1.078   2.967 -0.5698  1.5610  0.6507
  252SOL    HW2 1007   1.790   1.027   2.844 -3.5329  1.2165  0.2931
  252SOL     MW 1008   1.725   1.038   2.894 -0.5469  0.7205  0.1435
  253SOL     OW 1009   1.144   1.684   2.535  0.1090 -0.0488  0.5240
  253SOL    HW1 1010   1.141   1.637   2.448  0.4550 -0.5270 -2.2998
  253SOL    HW2 1011   1.056   1.736   2.534  1.4495 -0.5344  2.6019
  253SOL     MW 1012   1.132   1.684   2.524  0.3315 -0.1760  0.4256
  254SOL     OW 1013   0.977   1.091   2.242  0.4300 -1.0670  0.1129
  254SOL    HW1 1014   0.925   1.010   2.248 -1.3936 -1.7682 -0.2068
  254SOL    HW2 1015   0.920   1.158   2.284 -1.7169  0.7541  0.1485
  254SOL     MW 1016   0.963   1.089   2.248 -0.0939 -0.9192  0.0754
  255SOL     OW 1017   0.851   2.512   2.147 -0.2351 -1.1565  0.1972
  255SOL    HW1 1018   0.779   2.447   2.132  0.0006  1.8340 -2.7526
  255SOL    HW2 1019   0.928   2.467   2.186  2.4883  0.4942  0.5952
  255SOL     MW 1020   0.852   2.497   2.150  0.1553 -0.5441 -0.1395
  256SOL     OW 1021   1.325   2.777   3.066  0.6009 -0.0841  0.2157
  256SOL    HW1 1022   1.342   2.683   3.062 -1.6360  0.0865 -1.1252
  256SOL    HW2 1023   1.375   2.790   2.985 -0.1792 -2.1488  0.9501
  256SOL     MW 1024   1.334   2.766   3.055  0.2028 -0.3340  0.1357
  257SOL     OW 1025   0.050   1.926   0.072  0.8311  0.2920 -0.2185
  257SOL    HW1 1026   0.100   1.873   0.129 -1.5655 -0.2906  1.1473
  257SOL    HW2 1027   0.064   1.887  -0.018 -1.1425  0.5107 -2.1045
  257SOL     MW 1028   0.059   1.914   0.067  0.2545  0.2440 -0.2872
  258SOL     OW 1029   0.695   1.019   2.509  0.1875 -0.4355 -0.1562
  258SOL    HW1 1030   0.702   1.106   2.462 -1.0818  0.3064 -3.1813
  258SOL    HW2 1031   0.622   1.005   2.571 -3.7833 -1.9135 -0.0146
  258SOL     MW 1032   0.687   1.029   2.511 -0.5039 -0.5326 -0.5366
  259SOL     OW 1033   0.819   0.451   2.222 -0.0493 -0.5922 -0.5208
  259SOL    HW1 1034   0.732   0.414   2.195  2.2819  0.5542 -0.8896
  259SOL    HW2 1035   0.859   0.370   2.257 -0.8376 -2.2646 -0.5654
  259SOL     MW 1036   0.813   0.436   2.223  0.1543 -0.6616 -0.5753
  260SOL     OW 1037   0.632   0.107   1.602 -0.3039  0.2628 -0.0406
  260SOL    HW1 1038   0.593   0.178   1.555 -0.4565 -0.9786 -2.3818
  260SOL    HW2 1039   0.722   0.104   1.562 -0.5915  1.3112  2.1442
  260SOL     MW 1040   0.638   0.116   1.590 -0.3620  0.2373 -0.0613
  261SOL     OW 1041   1.016   0.730   2.013  0.0117 -0.4281 -0.2446
  261SOL    HW1 1042   1.085   0.710   2.077 -1.1257  3.4800 -1.4294
  261SOL    HW2 1043   0.976   0.644   1.994 -2.0775 -2.1282 -0.9611
  261SOL     MW 1044   1.020   0.716   2.019 -0.4140 -0.1368 -0.4954
  262SOL     OW 1045   1.128   0.312   0.130  0.0968 -0.8008 -0.2874
  262SOL    HW1 1046   1.225   0.310   0.106 -0.3222  2.6932  0.4801
  262SOL    HW2 1047   1.085   0.252   0.066  2.1404 -1.5079  0.3516
  262SOL     MW 1048   1.135   0.304   0.118  0.3112 -0.4331 -0.1018
  263SOL     OW 1049   0.429   3.087   2.470  0.1139  0.0083 -0.5202
  263SOL    HW1 1050   0.340   3.117   2.497 -0.5818 -1.5467 -2.1215
  263SOL    HW2 1051   0.464   3.152   2.405  0.7113 -0.4936 -4.3567
  263SOL     MW 1052   0.422   3.099   2.465  0.1009 -0.2631 -1.2377
  264SOL     OW 1053   1.549   1.501   1.909 -0.0199  0.2209 -0.0613
  264SOL    HW1 1054   1.489   1.426   1.924 -1.2228  0.3245 -0.0731
  264SOL    HW2 1055   1.631   1.475   1.965  2.3453 -1.3620 -0.3987
  264SOL     MW 1056   1.552   1.487   1.919  0.1334  0.0257 -0.1074
  265SOL     OW 1057   0.726   2.808   2.286 -0.3035 -0.5054  0.2063
  265SOL    HW1 1058   0.820   2.790   2.274 -0.8258 -0.4593 -0.8713
  265SOL    HW2 1059   0.706   2.780   2.376 -0.6617 -0.1945 -0.5805
  265SOL     MW 1060   0.736   2.802   2.296 -0.4197 -0.4583 -0.0397
  266SOL     OW 1061   0.816   0.861   2.164 -0.6101  0.2412  0.8672
  266SOL    HW1 1062   0.790   0.932   2.105  0.0774  0.7451 -1.1864
  266SOL    HW2 1063   0.890   0.821   2.108  2.3648 -1.2776 -0.8241
  266SOL     MW 1064   0.823   0.865   2.149 -0.1269  0.1073  0.3731
  267SOL     OW 1065   1.392   1.724   2.663 -0.0613  0.5099  0.4045
  267SOL    HW1 1066   1.463   1.694   2.602 -0.3636  1.7237 -0.0165
  267SOL    HW2 1067   1.308   1.717   2.611 -3.5828 -2.5108 -0.2954
  267SOL     MW 1068   1.390   1.719   2.648 -0.5658  0.2715  0.2566
  268SOL     OW 1069   0.133   0.910   1.752 -0.3006  0.5279 -0.1877
  268SOL    HW1 1070   0.048   0.951   1.755 -0.2807 -0.8658  3.0794
  268SOL    HW2 1071   0.107   0.830   1.705  0.1800 -1.6490 -3.0665
  268SOL     MW 1072   0.119   0.905   1.746 -0.2346  0.0568 -0.1365
  269SOL     OW 1073   1.374   1.874   2.354  0.2394 -0.4688  0.4500
  269SOL    HW1 1074   1.426   1.950   2.375 -0.9607 -1.7716  4.5254
  269SOL    HW2 1075   1.295   1.902   2.403  1.7799  1.5975 -1.2446
  269SOL     MW 1076   1.370   1.888   2.363  0.2843 -0.3681  0.7641
  270SOL     OW 1077   1.077   0.429   1.503 -0.0851  0.7494 -0.0808
  270SOL    HW1 1078   1.040   0.360   1.558  3.0022 -1.0967 -1.1008
  270SOL    HW2 1079   1.170   0.416   1.501 -2.7795  2.9883  0.5019
  270SOL     MW 1080   1.085   0.418   1.510 -0.0333  0.8012 -0.1385
  271SOL     OW 1081   0.853   0.082   2.505 -1.1571  0.0200  0.0931
  271SOL    HW1 1082   0.888   0.038   2.583  0.7130 -0.2332  0.9824
  271SOL    HW2 1083   0.901   0.154   2.468 -0.1958 -1.7910  1.9517
  271SOL     MW 1084   0.864   0.085   2.510 -0.7835 -0.2524  0.4557
  272SOL     OW 1085   1.476   2.771   2.798  0.0212  0.0764  0.1348
  272SOL    HW1 1086   1.416   2.781   2.730  0.7824 -0.6092  3.0086
  272SOL    HW2 1087   1.524   2.863   2.803  0.4632  1.1988 -0.2333
  272SOL     MW 1088   1.475   2.785   2.790  0.1799  0.1340  0.4654
  273SOL     OW 1089   1.477   0.813   2.827 -0.1223 -0.0140  0.0903
  273SOL    HW1 1090   1.571   0.826   2.846 -0.9345  1.3002  0.1038
  273SOL    HW2 1091   1.445   0.898   2.805 -0.8254  0.0351 -1.2737
  273SOL     MW 1092   1.485   0.826   2.827 -0.3222  0.1659 -0.0878
  274SOL     OW 1093   1.398   0.633   0.123 -0.1454 -0.1865 -0.0234
  274SOL    HW1 1094   1.475   0.589   0.161  0.8611 -1.4209 -1.3342
  274SOL    HW2 1095   1.332   0.646   0.197 -1.0286 -0.7769  0.8536
  274SOL     MW 1096   1.400   0.629   0.138 -0.1292 -0.4273 -0.0806
  275SOL     OW 1097   1.838   0.553   1.713 -0.1991 -0.0561 -0.5220
  275SOL    HW1 1098   1.870   0.604   1.793  1.9860 -1.2006 -1.2699
  275SOL    HW2 1099   1.842   0.461   1.743 -0.5330  1.3671 -2.1431
  275SOL     MW 1100   1.843   0.548   1.728  0.0451 -0.0193 -0.8345
  276SOL     OW 1101   0.364   1.170   1.933 -0.2981 -0.1855 -0.2877
  276SOL    HW1 1102   0.378   1.099   1.998  2.2146 -0.6502  0.0722
  276SOL    HW2 1103   0.334   1.242   1.991 -0.5857  1.6682  0.8726
  276SOL     MW 1104   0.362   1.170   1.949 -0.0045 -0.0023 -0.0872
  277SOL     OW 1105   1.985   1.124   2.488 -0.6429  0.0361 -0.2836
  277SOL    HW1 1106   2.056   1.188   2.510 -2.0487 -0.0222  1.4626
  277SOL    HW2 1107   1.935   1.171   2.422  0.2289  0.2539 -4.2638
  277SOL     MW 1108   1.988   1.139   2.482 -0.7134  0.0571 -0.5784
  278SOL     OW 1109   1.457   0.601   1.632  0.1629 -0.2517 -0.5205
  278SOL    HW1 1110   1.470   0.569   1.728  0.2089 -0.1943  1.3314
  278SOL    HW2 1111   1.538   0.646   1.603  1.9343  2.9560  1.7344
  278SOL     MW 1112   1.469   0.603   1.641  0.4027  0.1791  0.0213
  279SOL     OW 1113   0.512   0.127   2.247 -0.3132 -0.1008  0.2361
  279SOL    HW1 1114   0.588   0.063   2.228  1.0013 -1.3247 -2.8441
  279SOL    HW2 1115   0.529   0.197   2.182 -0.3402  0.4161 -1.3100
  279SOL     MW 1116   0.524   0.128   2.236 -0.1433 -0.1941 -0.3743
  280SOL     OW 1117   1.424   0.993   2.225  0.1259 -0.4414  0.4322
  280SOL    HW1 1118   1.500   0.957   2.172  1.9020  0.0229  1.4365
  280SOL    HW2 1119   1.431   0.976   2.319  0.3208  0.2332  0.9033
  280SOL     MW 1120   1.435   0.986   2.230  0.3860 -0.2911  0.6269
  281SOL     OW 1121   1.346   1.081   2.758  0.5277 -0.3557 -0.2042
  281SOL    HW1 1122   1.410   1.152   2.738  2.4376 -2.4476  1.9723
  281SOL    HW2 1123   1.288   1.114   2.830  0.4720  0.9669 -0.7007
  281SOL     MW 1124   1.347   1.095   2.765  0.7723 -0.4572  0.0175
  282SOL     OW 1125   1.150   1.283   1.640 -0.4326 -0.2752  0.4153
  282SOL    HW1 1126   1.126   1.365   1.592 -0.2045  4.2161 -0.2471
  282SOL    HW2 1127   1.072   1.259   1.682  0.5526  1.3969 -1.6098
  282SOL     MW 1128   1.137   1.291   1.639 -0.2725  0.5380  0.0607
  283SOL     OW 1129   0.816   1.368   3.051  0.2196 -0.4395 -0.4913
  283SOL    HW1 1130   0.910   1.351   3.068  1.4817 -1.1684 -1.9121
  283SOL    HW2 1131   0.814   1.468   3.051 -2.8519  0.5354  1.3977
  283SOL     MW 1132   0.828   1.379   3.053 -0.0191 -0.4070 -0.4296
  284SOL     OW 1133   0.368   0.695   2.338  0.0396 -0.0080 -0.2940
  284SOL    HW1 1134   0.441   0.757   2.325 -0.2795 -0.5780 -2.0674
  284SOL    HW2 1135   0.381   0.651   2.255  0.1853  0.9584  0.6971
  284SOL     MW 1136   0.379   0.698   2.325  0.0167  0.0443 -0.3972
  285SOL     OW 1137   0.859   0.846   2.829 -0.2682  0.3600 -0.5743
  285SOL    HW1 1138   0.891   0.882   2.746 -0.3399  0.8505  0.2714
  285SOL    HW2 1139   0.778   0.800   2.814 -2.5177 -0.3344 -0.9898
  285SOL     MW 1140   0.852   0.845   2.816 -0.5745  0.3331 -0.5176
  286SOL     OW 1141   1.078   1.488   2.705 -0.1784 -0.3501  0.2682
  286SOL    HW1 1142   1.117   1.404   2.674 -1.5781 -0.1150  0.4845
  286SOL    HW2 1143   1.086   1.551   2.626 -2.3618  1.5246  0.7152
  286SOL     MW 1144   1.084   1.485   2.691 -0.6512 -0.0717  0.3557
  287SOL     OW 1145   1.123   0.948   0.335 -0.5071  0.1994 -0.1730
  287SOL    HW1 1146   1.087   0.975   0.426  0.7039  2.4941 -0.4752
  287SOL    HW2 1147   1.067   0.982   0.268 -0.5506 -2.1585  0.8699
  287SOL     MW 1148   1.111   0.956   0.338 -0.3531  0.1911 -0.0753
  288SOL     OW 1149   1.499   0.682   2.127  0.2427  0.3109 -0.1053
  288SOL    HW1 1150   1.425   0.702   2.195 -3.3608  1.1179  0.5710
  288SOL    HW2 1151   1.561   0.759   2.115  1.0015  1.0196  0.1388
  288SOL     MW 1152   1.497   0.695   2.134 -0.1326  0.5109  0.0161
  289SOL     OW 1153   0.936   0.960   2.598  0.7568  0.0806 -0.0800
  289SOL    HW1 1154   0.977   0.899   2.539 -0.0224 -1.4558 -2.3365
  289SOL    HW2 1155   0.843   0.990   2.553 -0.8924  0.1951 -1.6432
  289SOL     MW 1156   0.929   0.956   2.584  0.4364 -0.1070 -0.5840
  290SOL     OW 1157   0.735   0.669   1.484 -0.0526  0.4426 -0.7107
  290SOL    HW1 1158   0.787   0.615   1.426 -1.6835 -1.0018 -1.5993
  290SOL    HW2 1159   0.755   0.650   1.573 -3.1082  0.4653 -2.3975
  290SOL     MW 1160   0.744   0.659   1.488 -0.6709  0.2550 -1.0505
  291SOL     OW 1161   0.237   0.343   0.194  0.4033  0.1307 -0.0913
  291SOL    HW1 1162   0.328   0.326   0.216 -0.4948 -0.2559 -3.1833
  291SOL    HW2 1163   0.214   0.248   0.187 -1.6257  0.5094  0.1809
  291SOL     MW 1164   0.246   0.328   0.196  0.0171  0.1297 -0.4633
  292SOL     OW 1165   1.023   0.572   0.096 -0.1080  0.7119  0.2523
  292SOL    HW1 1166   1.077   0.620   0.157  1.3135 -1.8096 -2.0035
  292SOL    HW2 1167   1.060   0.486   0.101  1.3882  1.2990  0.1591
  292SOL     MW 1168   1.035   0.567   0.105  0.2770  0.4567 -0.0577
  293SOL     OW 1169   0.148   0.100   2.538  0.4592  0.5781 -0.2718
  293SOL    HW1 1170   0.117   0.033   2.484  0.3033  2.5955  0.4899
  293SOL    HW2 1171   0.063   0.144   2.553  1.6387  0.8427  1.9071
  293SOL     MW 1172   0.133   0.097   2.533  0.5943  0.8792  0.1162
  294SOL     OW 1173   1.339   0.445   2.356 -0.2538 -0.1846 -0.2387
  294SOL    HW1 1174   1.385   0.532   2.379 -0.0681  1.6599 -0.4031
  294SOL    HW2 1175   1.293   0.430   2.436 -1.5082 -0.0187 -1.2375
  294SOL     MW 1176   1.339   0.454   2.370 -0.3948  0.0807 -0.3922
  295SOL     OW 1177   0.845   0.622   2.465  0.1136  0.5823  0.6070
  295SOL    HW1 1178   0.819   0.582   2.379  0.0503 -0.7820  1.7108
  295SOL    HW2 1179   0.771   0.632   2.524 -0.1387  0.0762  1.8061
  295SOL     MW 1180   0.832   0.618   2.461  0.0720  0.3355  0.9108
  296SOL     OW 1181   1.358   0.327   2.062 -0.0321  0.1995 -0.1120
  296SOL    HW1 1182   1.371   0.236   2.034  0.2935 -0.3532  1.9392
  296SOL    HW2 1183   1.369   0.322   2.158 -0.7487  0.6401 -1.4897
  296SOL     MW 1184   1.361   0.314   2.071 -0.0837  0.1847 -0.0232
  297SOL     OW 1185   1.361   0.360   1.541 -0.4038  0.3891 -0.0318
  297SOL    HW1 1186   1.392   0.442   1.585 -1.5510  3.0837  1.8094
  297SOL    HW2 1187   1.373   0.286   1.602  3.0326 -1.9805 -1.3114
  297SOL     MW 1188   1.367   0.361   1.555 -0.1018  0.4320  0.0423
  298SOL     OW 1189   1.647   0.924   2.104  0.0860  0.5180  0.5376
  298SOL    HW1 1190   1.663   0.964   2.012 -1.0136 -0.9727  3.0064
  298SOL    HW2 1191   1.725   0.869   2.122 -0.4603  1.6551  0.6862
  298SOL     MW 1192   1.659   0.922   2.094 -0.1311  0.4714  0.8830
  299SOL     OW 1193   0.634   1.182   0.063 -0.3655 -0.0205  0.5520
  299SOL    HW1 1194   0.585   1.159  -0.025 -1.6665  1.2189 -2.4113
  299SOL    HW2 1195   0.708   1.238   0.031  1.6229 -0.8016 -0.7236
  299SOL     MW 1196   0.637   1.186   0.047 -0.2748  0.0400 -0.0073
  300SOL     OW 1197   1.150   1.172   2.577  0.7223 -0.0592  1.2825
  300SOL    HW1 1198   1.078   1.106   2.580  0.6834  2.1910 -0.2068
  300SOL    HW2 1199   1.215   1.144   2.643  0.2626  1.9151  1.6070
  300SOL     MW 1200   1.149   1.160   2.586  0.6565  0.4982  1.1288
  301SOL     OW 1201   1.509   0.986   0.740 -0.1970 -0.2842 -0.7998
  301SOL    HW1 1202   1.516   1.005   0.835  0.1765  0.1975 -0.2230
  301SOL    HW2 1203   1.435   0.921   0.727 -2.4596 -0.0130  0.4836
  301SOL     MW 1204   1.500   0.980   0.751 -0.4463 -0.1849 -0.5544
  302SOL     OW 1205   0.192   1.607   2.043 -0.5893  0.1339  0.1262
  302SOL    HW1 1206   0.200   1.518   2.068 -1.2362  2.5869  0.2673
  302SOL    HW2 1207   0.105   1.634   2.077 -1.7153 -1.4173  0.4394
  302SOL     MW 1208   0.182   1.599   2.051 -0.8232  0.2529  0.1862
  303SOL     OW 1209   0.279   1.792   2.703  0.4986  0.3954 -0.5164
  303SOL    HW1 1210   0.239   1.816   2.622 -0.3471  0.1285  3.0667
  303SOL    HW2 1211   0.211   1.768   2.769  0.0898 -1.9959 -2.1506
  303SOL     MW 1212   0.265   1.792   2.701  0.3331  0.0447 -0.2593
  304SOL     OW 1213   0.529   2.079   2.466 -0.0852  0.2829  0.2500
  304SOL    HW1 1214   0.576   2.153   2.422  4.2719  1.3402  0.8753
  304SOL    HW2 1215   0.564   2.000   2.430  0.0272  1.6402 -1.5525
  304SOL     MW 1216   0.540   2.079   2.456  0.5045  0.6015  0.0947
  305SOL     OW 1217   1.149   0.650   0.558 -0.5697 -0.0046  0.0058
  305SOL    HW1 1218   1.058   0.636   0.563  0.3457  1.4008  0.4468
  305SOL    HW2 1219   1.185   0.560   0.559 -2.2511  3.5899  0.2028
  305SOL     MW 1220   1.142   0.636   0.559 -0.6707  0.6551  0.0900
  306SOL     OW 1221   1.118   1.561   0.292 -0.0247 -0.1664 -0.3075
  306SOL    HW1 1222   1.142   1.475   0.321  0.2368  1.1047  1.7076
  306SOL    HW2 1223   1.196   1.589   0.240  0.2574  2.3162 -0.1791
  306SOL     MW 1224   1.131   1.553   0.289  0.0470  0.3289 -0.0247
  307SOL     OW 1225   1.459   0.514   1.887  0.0406  0.3662 -0.6185
  307SOL    HW1 1226   1.445   0.436   1.942  1.6634 -0.2424 -0.2458
  307SOL    HW2 1227   1.487   0.585   1.948  1.0321  2.7714 -2.7855
  307SOL     MW 1228   1.461   0.513   1.902  0.3856  0.6033 -0.8553
  308SOL     OW 1229   2.256   0.578   2.765  0.7264  0.1711  0.0008
  308SOL    HW1 1230   2.351   0.566   2.790 -0.4729 -1.9033 -0.6321
  308SOL    HW2 1231   2.238   0.661   2.718 -1.2999  2.0884  2.9324
  308SOL     MW 1232   2.266   0.587   2.762  0.3008  0.1503  0.3041
  309SOL     OW 1233   0.499   0.539   0.278  0.3284 -0.2999  0.0707
  309SOL    HW1 1234   0.577   0.593   0.258 -0.4932  0.4814  1.9038
  309SOL    HW2 1235   0.503   0.446   0.242 -3.2325 -1.4394  2.5712
  309SOL     MW 1236   0.510   0.533   0.271 -0.2498 -0.3471  0.6425
  310SOL     OW 1237   0.368   0.536   1.836 -0.4327 -0.3602 -0.0670
  310SOL    HW1 1238   0.426   0.473   1.792 -0.6690 -0.0474 -2.2712
  310SOL    HW2 1239   0.418   0.616   1.816  0.8337  1.1138 -2.7814
  310SOL     MW 1240   0.382   0.538   1.828 -0.2968 -0.1245 -0.7160
  311SOL     OW 1241   2.004   0.658   1.934  0.2596  0.4280 -0.0586
  311SOL    HW1 1242   1.975   0.695   2.017 -1.8607 -0.6462  1.2052
  311SOL    HW2 1243   2.043   0.569   1.965  1.6462  1.4291 -1.7295
  311SOL     MW 1244   2.006   0.651   1.949  0.1628  0.4183 -0.1123
  312SOL     OW 1245   1.724   2.480   0.157  0.0971  0.0250  0.2103
  312SOL    HW1 1246   1.714   2.448   0.249 -1.4970 -2.9370  1.1218
  312SOL    HW2 1247   1.668   2.556   0.149  1.0296  2.3379 -1.2013
  312SOL     MW 1248   1.715   2.486   0.168  0.0098 -0.0607  0.1443
  313SOL     OW 1249   0.155   1.165   3.018 -0.3753 -0.4498  0.4587
  313SOL    HW1 1250   0.135   1.215   3.096 -1.1631 -1.8233 -0.0132
  313SOL    HW2 1251   0.140   1.237   2.949  2.0678  0.8729 -0.5508
  313SOL     MW 1252   0.150   1.181   3.019 -0.1569 -0.4565  0.2632
  314SOL     OW 1253   2.186   2.890   0.004  0.6228 -0.2562 -0.1331
  314SOL    HW1 1254   2.110   2.910  -0.062 -1.1877  0.2616 -0.4970
  314SOL    HW2 1255   2.237   2.965   0.012  1.7164  3.2476  0.3272
  314SOL     MW 1256   2.182   2.902  -0.004  0.5282  0.2744 -0.1204
  315SOL     OW 1257   1.543   1.855   3.011  0.0566 -0.2755 -0.1408
  315SOL    HW1 1258   1.467   1.898   3.052 -0.2053  3.0248  2.0359
  315SOL    HW2 1259   1.579   1.927   2.950 -1.0091  2.4440  1.4115
  315SOL     MW 1260   1.538   1.870   3.008 -0.1186  0.5188  0.3512
  316SOL     OW 1261   1.212   0.706   2.690  0.2421  0.5163  0.5475
  316SOL    HW1 1262   1.304   0.729   2.706 -0.9534  0.1963 -2.6471
  316SOL    HW2 1263   1.185   0.695   2.778 -0.6771 -0.3845 -2.0272
  316SOL     MW 1264   1.221   0.707   2.704 -0.0369  0.3552 -0.2137
  317SOL     OW 1265   0.716   1.623   2.609 -0.2763  1.1903 -0.7863
  317SOL    HW1 1266   0.743   1.529   2.623  1.4639 -1.7277  0.8804
  317SOL    HW2 1267   0.696   1.630   2.520 -0.7154  3.9536  1.9101
  317SOL     MW 1268   0.717   1.612   2.599 -0.1047  1.1699 -0.2106
  318SOL     OW 1269   1.360   0.404   2.886 -0.2799  0.2517  0.0963
  318SOL    HW1 1270   1.276   0.448   2.876 -1.5362  2.0253 -0.4927
  318SOL    HW2 1271   1.422   0.467   2.855  1.1525 -0.5239 -1.2641
  318SOL     MW 1272   1.357   0.418   2.881 -0.2567  0.3834 -0.1609
  319SOL     OW 1273   0.809   0.509   2.852  0.7316  0.0383  0.3315
  319SOL    HW1 1274   0.770   0.434   2.799 -2.1210  0.6963 -0.6275
  319SOL    HW2 1275   0.777   0.497   2.938 -1.0168 -1.4915 -0.3224
  319SOL     MW 1276   0.800   0.498   2.857  0.1245 -0.0767  0.1187
  320SOL     OW 1277   1.015   1.330   1.976 -0.3895 -0.2150 -0.1005
  320SOL    HW1 1278   1.079   1.278   2.032  0.1684  1.0183  1.4509
  320SOL    HW2 1279   1.064   1.405   1.938  0.4957 -0.9099 -1.2714
  320SOL     MW 1280   1.030   1.333   1.978 -0.1991 -0.1440 -0.0503
  321SOL     OW 1281   1.039   0.900   3.046  0.3197 -0.0375  0.1478
  321SOL    HW1 1282   0.960   0.876   2.993 -0.7586  3.0515 -1.5043
  321SOL    HW2 1283   1.114   0.844   3.025 -1.8839  0.2896 -0.4797
  321SOL     MW 1284   1.038   0.889   3.036 -0.1133  0.4132 -0.1529
  322SOL     OW 1285   1.313   0.866   1.648  0.9225  0.2346 -0.0426
  322SOL    HW1 1286   1.336   0.771   1.652 -0.2636 -1.5193 -2.8651
  322SOL    HW2 1287   1.254   0.878   1.721  1.3687 -0.3794  0.1372
  322SOL     MW 1288   1.308   0.855   1.658  0.8248 -0.0778 -0.3913
  323SOL     OW 1289   1.194   1.525   1.887  0.0552  0.0810 -0.2570
  323SOL    HW1 1290   1.213   1.542   1.794 -0.9203  1.3642 -0.2601
  323SOL    HW2 1291   1.219   1.606   1.928 -1.3756  1.3010  0.4737
  323SOL     MW 1292   1.200   1.538   1.880 -0.2623  0.4113 -0.1610
  324SOL     OW 1293   1.446   0.932   2.516  0.4394 -0.3368 -0.3009
  324SOL    HW1 1294   1.372   0.975   2.562 -3.0185  2.4639  1.4723
  324SOL    HW2 1295   1.528   0.968   2.540 -2.1354 -2.0990 -0.6335
  324SOL     MW 1296   1.447   0.942   2.525 -0.3566 -0.1998 -0.1108
  325SOL     OW 1297   1.087   0.526   2.910  0.3769 -0.1227 -0.4164
  325SOL    HW1 1298   1.075   0.561   3.003 -0.1040 -1.5975  1.3786
  325SOL    HW2 1299   0.996   0.532   2.875  0.0779 -2.0613  2.7747
  325SOL     MW 1300   1.074   0.531   2.918  0.2740 -0.5731  0.2415
  326SOL     OW 1301   0.410   1.381   2.335  0.0531 -0.7479  0.6190
  326SOL    HW1 1302   0.483   1.364   2.273  0.3957 -2.5077  0.4282
  326SOL    HW2 1303   0.395   1.480   2.341 -1.1676  2.5795 -0.4906
  326SOL     MW 1304   0.417   1.392   2.328 -0.0627 -0.5411  0.4474
  327SOL     OW 1305   1.970   0.767   2.437 -0.3622 -0.3170 -0.2903
  327SOL    HW1 1306   1.952   0.696   2.498 -1.6248 -0.4707  0.3039
  327SOL    HW2 1307   1.984   0.842   2.497 -1.2666  0.0846  0.3332
  327SOL     MW 1308   1.969   0.767   2.453 -0.6481 -0.2843 -0.1296
  328SOL     OW 1309   0.242   1.341   2.122  0.3370 -0.0447 -0.1241
  328SOL    HW1 1310   0.176   1.266   2.116  1.1602  0.7422 -0.9853
  328SOL    HW2 1311   0.288   1.356   2.208  3.8565  3.0672  0.5302
  328SOL     MW 1312   0.239   1.333   2.133  0.9100  0.4697 -0.1514
  329SOL     OW 1313   0.071   0.104   1.361 -0.0380  0.2167 -0.1189
  329SOL    HW1 1314   0.041   0.142   1.451  1.2073 -1.1160 -0.5467
  329SOL    HW2 1315   0.163   0.130   1.354 -0.4905  1.3871  1.5558
  329SOL     MW 1316   0.079   0.112   1.372  0.0666  0.1953  0.0456
  330SOL     OW 1317   0.360   0.050   1.996 -0.5077  0.2648 -0.3024
  330SOL    HW1 1318   0.437   0.104   2.016  0.5040 -0.5640 -1.0410
  330SOL    HW2 1319   0.342  -0.005   2.071  1.2012  1.9741  0.3676
  330SOL     MW 1320   0.368   0.050   2.009 -0.1487  0.3810 -0.3115
  331SOL     OW 1321   0.773   1.226   2.371 -0.0685 -0.0230  0.4373
  331SOL    HW1 1322   0.711   1.271   2.310 -1.9004  2.2543 -2.0552
  331SOL    HW2 1323   0.800   1.270   2.449  0.3710  0.9910 -3.2423
  331SOL     MW 1324   0.769   1.238   2.373 -0.2522  0.4113 -0.3771
  332SOL     OW 1325   1.340   1.650   2.914  0.0312 -0.1826  0.1430
  332SOL    HW1 1326   1.329   1.657   2.815 -0.0009  0.2526 -0.0244
  332SOL    HW2 1327   1.411   1.711   2.932 -1.7697  3.8960 -0.6739
  332SOL     MW 1328   1.348   1.659   2.904 -0.2107  0.4129  0.0131
  333SOL     OW 1329   1.699   1.383   2.933 -0.1388  0.0395 -0.0498
  333SOL    HW1 1330   1.773   1.338   2.890  1.2017 -1.9819  1.9218
  333SOL    HW2 1331   1.669   1.328   3.004 -1.9988  2.3739 -3.1485
  333SOL     MW 1332   1.705   1.370   2.937 -0.2073  0.0808 -0.1985
  334SOL     OW 1333   1.338   3.070   2.622 -0.4853 -0.5865  0.9122
  334SOL    HW1 1334   1.301   3.051   2.705  2.6930  1.1410 -0.7453
  334SOL    HW2 1335   1.411   3.128   2.642 -1.0805  1.8223 -2.4559
  334SOL     MW 1336   1.343   3.075   2.635 -0.1445 -0.0408  0.2492
  335SOL     OW 1337   1.281   0.752   2.994  0.0301  0.6844  0.2122
  335SOL    HW1 1338   1.304   0.733   3.089 -0.1906  1.2815 -4.2674
  335SOL    HW2 1339   1.355   0.773   2.939 -3.7381 -0.1690 -0.5475
  335SOL     MW 1340   1.294   0.752   3.000 -0.4962  0.6506 -0.4791
  336SOL     OW 1341   0.918   1.155   1.718  0.3353 -0.2509 -0.3619
  336SOL    HW1 1342   0.862   1.212   1.779 -0.7552  0.7394 -0.6203
  336SOL    HW2 1343   0.945   1.075   1.769  1.8991 -2.7602  0.6622
  336SOL     MW 1344   0.915   1.152   1.733  0.3978 -0.4513 -0.2609
  337SOL     OW 1345   0.471   1.944   2.792  0.0608 -0.1956  0.1726
  337SOL    HW1 1346   0.402   1.886   2.749 -3.3986 -0.8522  3.7989
  337SOL    HW2 1347   0.555   1.904   2.776 -1.8831 -1.5385  1.0090
  337SOL     MW 1348   0.473   1.931   2.784 -0.6521 -0.4594  0.7614
  338SOL     OW 1349   1.086   0.752   2.448  0.6271 -0.0068 -0.2141
  338SOL    HW1 1350   1.000   0.702   2.460  1.0648 -1.0195 -0.1838
  338SOL    HW2 1351   1.137   0.721   2.524  1.7653  0.5266  1.1179
  338SOL     MW 1352   1.082   0.741   2.460  0.8351 -0.0700 -0.0344
  339SOL     OW 1353   1.374   1.273   1.926 -0.7586 -0.0505  0.0410
  339SOL    HW1 1354   1.360   1.265   1.834 -1.2039 -1.0838  1.0187
  339SOL    HW2 1355   1.297   1.243   1.976 -2.1878  1.7177 -1.4679
  339SOL     MW 1356   1.362   1.268   1.921 -1.0059  0.0465 -0.0291
  340SOL     OW 1357   1.308   1.516   0.084 -0.0329  0.6711  0.1292
  340SOL    HW1 1358   1.342   1.531   0.001  2.0396 -1.2317  0.9482
  340SOL    HW2 1359   1.370   1.452   0.129  0.7459 -1.4564  1.5513
  340SOL     MW 1360   1.321   1.509   0.079  0.3433  0.1393  0.4249
  341SOL     OW 1361   0.147   1.357   2.838 -0.6816  0.2768 -0.4506
  341SOL    HW1 1362   0.237   1.379   2.875 -0.3764 -0.6494 -1.4292
  341SOL    HW2 1363   0.175   1.346   2.746  1.3885 -1.2432  1.8066
  341SOL     MW 1364   0.162   1.359   2.830 -0.3682 -0.0459 -0.2819
  342SOL     OW 1365   1.393   0.329   0.043 -0.4153  0.0000 -0.3069
  342SOL    HW1 1366   1.386   0.426   0.055  0.6803  3.2210  2.7477
  342SOL    HW2 1367   1.394   0.324  -0.054 -3.3889 -1.0557 -2.0839
  342SOL     MW 1368   1.392   0.341   0.032 -0.6631  0.2857 -0.1384
  343SOL     OW 1369   0.220   0.250   2.164  0.2281  0.5393 -0.0756
  343SOL    HW1 1370   0.259   0.166   2.132  4.7285  0.3211  0.4049
  343SOL    HW2 1371   0.128   0.238   2.147  0.2914 -1.3024 -1.3092
  343SOL     MW 1372   0.213   0.237   2.158  0.8302  0.2675 -0.1749
  344SOL     OW 1373   1.710   2.020   0.176 -0.3870  0.4116 -0.3422
  344SOL    HW1 1374   1.751   2.085   0.124 -1.8119  0.5808  1.5020
  344SOL    HW2 1375   1.645   1.990   0.123  2.5274  3.4298  4.7065
  344SOL     MW 1376   1.707   2.025   0.162 -0.1905  0.8322  0.5673
  345SOL     OW 1377   0.656   1.621   2.321 -0.0436 -0.0759 -0.4227
  345SOL    HW1 1378   0.561   1.633   2.335 -0.2848  0.7212  1.2811
  345SOL    HW2 1379   0.665   1.554   2.258 -2.6639  1.8244 -0.7221
  345SOL     MW 1380   0.645   1.613   2.314 -0.4211  0.2800 -0.2374
  346SOL     OW 1381   1.680   1.151   0.036  0.7281 -0.0157  0.2368
  346SOL    HW1 1382   1.747   1.192   0.099 -0.4547  2.9395  1.9043
  346SOL    HW2 1383   1.663   1.058   0.061 -2.2035 -0.6903 -3.9915
  346SOL     MW 1384   1.686   1.144   0.048  0.1853  0.2852 -0.1011
  347SOL     OW 1385   1.174   0.633   2.224 -0.0703  0.6518  0.3816
  347SOL    HW1 1386   1.231   0.556   2.250  1.3493  0.5996 -0.6325
  347SOL    HW2 1387   1.151   0.693   2.296 -0.4986 -0.0901  0.2136
  347SOL     MW 1388   1.178   0.631   2.237  0.0605  0.5470  0.2257
  348SOL     OW 1389   1.310   2.575   1.950 -0.3366  0.3609  0.5094
  348SOL    HW1 1390   1.321   2.492   2.011  0.8218  1.6295  0.6286
  348SOL    HW2 1391   1.340   2.646   2.004  0.9100  2.7508  1.4656
  348SOL     MW 1392   1.315   2.573   1.965 -0.0193  0.8436  0.6513
  349SOL     OW 1393   1.481   0.172   2.775  0.3081 -0.0017 -0.2003
  349SOL    HW1 1394   1.431   0.253   2.806 -0.2956  1.6141 -4.1111
  349SOL    HW2 1395   1.504   0.108   2.839  1.8454  0.9073 -0.2911
  349SOL     MW 1396   1.478   0.175   2.788  0.4313  0.3315 -0.7283
  350SOL     OW 1397   1.859   0.630   2.656  0.1279  0.2910 -0.4128
  350SOL    HW1 1398   1.785   0.574   2.636  2.7261 -1.0236  0.1555
  350SOL    HW2 1399   1.919   0.576   2.722 -0.5159  0.5450  0.3551
  350SOL     MW 1400   1.857   0.616   2.662  0.3858  0.1510 -0.2365
  351SOL     OW 1401   0.076   1.188   1.549  0.0320  0.1713 -0.1500
  351SOL    HW1 1402   0.092   1.111   1.603  2.3336  2.2034  2.1114
  351SOL    HW2 1403   0.120   1.257   1.602  1.9550 -0.5852  1.7352
  351SOL     MW 1404   0.084   1.187   1.563  0.5894  0.3396  0.3971
  352SOL     OW 1405   0.741   1.838   2.777  0.4565 -0.5396 -0.1295
  352SOL    HW1 1406   0.750   1.791   2.860 -3.0032 -1.0518  1.2097
  352SOL    HW2 1407   0.723   1.763   2.716 -0.7796 -1.8394 -1.2540
  352SOL     MW 1408   0.740   1.822   2.780 -0.1631 -0.7787 -0.1011
  353SOL     OW 1409   3.084   2.587   2.623 -0.1518 -0.5373  0.2157
  353SOL    HW1 1410   3.143   2.512   2.625 -0.0476 -1.6237 -0.3879
  353SOL    HW2 1411   3.104   2.643   2.547 -0.4987 -1.4258  1.0828
  353SOL     MW 1412   3.094   2.585   2.613 -0.1838 -0.7979  0.2505
  354SOL     OW 1413   0.378   2.415   0.840  0.0574 -0.0585 -0.3614
  354SOL    HW1 1414   0.417   2.379   0.923  0.8647 -0.7510  0.2087
  354SOL    HW2 1415   0.294   2.360   0.832  2.3198  0.0788  1.1534
  354SOL     MW 1416   0.372   2.403   0.850  0.4624 -0.1318 -0.0863
  355SOL     OW 1417   0.110   2.222   0.392  0.6263 -0.1050 -0.2732
  355SOL    HW1 1418   0.018   2.179   0.371  1.7703 -0.0762  0.3695
  355SOL    HW2 1419   0.083   2.264   0.474  1.1140 -1.2074 -2.2745
  355SOL     MW 1420   0.094   2.222   0.400  0.8416 -0.2467 -0.4524
  356SOL     OW 1421   0.759   2.945   1.057 -0.0212  0.5877 -0.2381
  356SOL    HW1 1422   0.815   2.955   0.979 -1.5296 -0.1982 -0.2331
  356SOL    HW2 1423   0.714   2.863   1.039 -1.8070 -0.7809 -0.6847
  356SOL     MW 1424   0.761   2.936   1.044 -0.4558  0.3035 -0.2963
  357SOL     OW 1425   1.845   2.790   0.454 -0.2067  0.2272  0.4115
  357SOL    HW1 1426   1.792   2.748   0.521  1.0544 -2.5299  1.0092
  357SOL    HW2 1427   1.932   2.742   0.456 -0.7610  0.0782  0.6296
  357SOL     MW 1428   1.850   2.778   0.463 -0.1134 -0.1562  0.5191
  358SOL     OW 1429   0.420   0.148   1.062 -0.1734  0.1039  0.1097
  358SOL    HW1 1430   0.516   0.166   1.073  1.6095 -0.1721  1.4545
  358SOL    HW2 1431   0.394   0.189   0.980  2.0771  0.0869 -0.5947
  358SOL     MW 1432   0.429   0.156   1.053  0.3588  0.0653  0.1942
  359SOL     OW 1433   0.861   2.986   1.864  0.1257 -0.0590  0.4514
  359SOL    HW1 1434   0.866   2.897   1.912 -1.4310  0.6251  3.3730
  359SOL    HW2 1435   0.894   2.976   1.773 -0.3815 -2.7529 -3.3087
  359SOL     MW 1436   0.866   2.973   1.858 -0.1466 -0.3242  0.3408
  360SOL     OW 1437   0.587   2.770   0.936 -0.0270 -0.6967  0.2257
  360SOL    HW1 1438   0.621   2.773   0.849  0.4545 -1.3933  1.0125
  360SOL    HW2 1439   0.597   2.675   0.968  0.2167 -0.1466 -0.1027
  360SOL     MW 1440   0.593   2.758   0.929  0.0687 -0.7161  0.2862
  361SOL     OW 1441   0.183   2.685   1.395 -0.5385  0.5351 -0.1094
  361SOL    HW1 1442   0.120   2.722   1.462 -0.6649  1.4933  2.4763
  361SOL    HW2 1443   0.247   2.754   1.383 -1.5152 -1.5921  3.2089
  361SOL     MW 1444   0.183   2.699   1.402 -0.6840  0.3808  0.6696
  362SOL     OW 1445   1.371   2.421   0.617 -0.1203  0.2672 -0.1127
  362SOL    HW1 1446   1.421   2.359   0.673 -0.4342 -0.1856  2.2454
  362SOL    HW2 1447   1.419   2.500   0.641  0.8575  2.1705  1.2986
  362SOL     MW 1448   1.384   2.423   0.627 -0.0327  0.4586  0.3846
  363SOL     OW 1449   0.312   0.011   0.691  0.1874 -0.3803 -0.4521
  363SOL    HW1 1450   0.320  -0.063   0.754  1.6565 -1.4446  0.2079
  363SOL    HW2 1451   0.231   0.001   0.643 -0.0818 -0.2922 -2.0484
  363SOL     MW 1452   0.302  -0.000   0.693  0.3457 -0.5091 -0.5757
  364SOL     OW 1453   0.801   0.196   0.145 -0.1647  0.1758  0.2243
  364SOL    HW1 1454   0.754   0.117   0.161  0.4976  2.0924  1.9398
  364SOL    HW2 1455   0.746   0.255   0.086 -2.1332  2.5030 -0.3451
  364SOL     MW 1456   0.788   0.193   0.139 -0.3370  0.7358  0.3755
  365SOL     OW 1457   0.883   2.028   1.291 -0.1075  0.1652  0.2513
  365SOL    HW1 1458   0.861   2.085   1.215  1.0690  0.3447 -1.1082
  365SOL    HW2 1459   0.886   1.942   1.258  1.3969 -2.2175  0.6831
  365SOL     MW 1460   0.881   2.024   1.277  0.2462 -0.1255  0.1289
  366SOL     OW 1461   2.902   2.661   0.954 -0.3438  0.1039  0.5065
  366SOL    HW1 1462   2.979   2.659   1.005  1.5771 -2.0486  0.7107
  366SOL    HW2 1463   2.937   2.694   0.865 -3.1693  0.0022 -1.7519
  366SOL     MW 1464   2.916   2.665   0.949 -0.4631 -0.1935  0.2355
  367SOL     OW 1465   1.271   3.007   1.009  0.5566  0.3143  0.1394
  367SOL    HW1 1466   1.361   3.043   1.036  1.2565 -0.4187 -2.1124
  367SOL    HW2 1467   1.272   2.971   0.922  1.1107  1.3740  2.2378
  367SOL     MW 1468   1.283   3.007   1.001  0.7220  0.3574  0.1191
  368SOL     OW 1469   1.693   0.437   0.605  0.0663 -0.3001 -0.2465
  368SOL    HW1 1470   1.762   0.373   0.605 -0.1252 -1.3313 -1.0893
  368SOL    HW2 1471   1.729   0.512   0.555 -1.0347 -1.4266  0.4361
  368SOL     MW 1472   1.707   0.439   0.598 -0.1042 -0.5848 -0.2677
  369SOL     OW 1473   0.144   2.387   1.750  0.2852  0.6940  0.2130
  369SOL    HW1 1474   0.235   2.382   1.769  2.4276  1.5966  0.3214
  369SOL    HW2 1475   0.125   2.480   1.747 -0.6701  0.3121  0.3679
  369SOL     MW 1476   0.153   2.398   1.752  0.4418  0.7627  0.2478
  370SOL     OW 1477   0.713   0.126   1.056  0.2864  0.1998  0.3429
  370SOL    HW1 1478   0.689   0.132   0.965  0.7045 -1.6961  0.4647
  370SOL    HW2 1479   0.743   0.032   1.078  1.9507  0.9921  1.2045
  370SOL     MW 1480   0.714   0.115   1.047  0.5611  0.0542  0.4726
  371SOL     OW 1481   1.126   2.902   1.477 -0.2598 -0.2644  0.0400
  371SOL    HW1 1482   1.159   2.849   1.403  1.2658  0.8931  0.1792
  371SOL    HW2 1483   1.101   2.978   1.426 -0.8831  0.0670 -1.1768
  371SOL     MW 1484   1.127   2.905   1.460 -0.1408 -0.0679 -0.1022
  372SOL     OW 1485   0.799   2.320   0.462 -0.1509 -0.3561  0.3004
  372SOL    HW1 1486   0.760   2.237   0.493  2.5909 -0.9276  0.3698
  372SOL    HW2 1487   0.850   2.292   0.383 -1.7079  0.0699 -0.5536
  372SOL     MW 1488   0.801   2.305   0.455  0.0054 -0.3753  0.1969
  373SOL     OW 1489   2.834   2.994   1.421 -0.5460 -0.4895 -0.4207
  373SOL    HW1 1490   2.925   2.974   1.395 -0.8712 -0.2686  1.7245
  373SOL    HW2 1491   2.802   3.048   1.358 -1.2225 -0.4417 -0.2899
  373SOL     MW 1492   2.842   2.998   1.409 -0.6782 -0.4541 -0.1204
  374SOL     OW 1493   1.599   0.487   0.264 -0.1550 -0.1445 -0.1295
  374SOL    HW1 1494   1.675   0.444   0.228  1.3872 -1.0435 -1.1366
  374SOL    HW2 1495   1.564   0.426   0.325 -1.1877  1.0653 -1.1414
  374SOL     MW 1496   1.604   0.473   0.267 -0.0878 -0.1035 -0.3959
  375SOL     OW 1497   1.092   2.071   2.232  0.7402 -0.3164 -0.5201
  375SOL    HW1 1498   1.082   2.044   2.325 -0.1918  0.2789  0.4994
  375SOL    HW2 1499   1.026   2.018   2.192 -0.8994  0.3364  0.6006
  375SOL     MW 1500   1.082   2.060   2.239  0.4009 -0.1517 -0.2377
  376SOL     OW 1501   0.815   2.529   0.131  0.2799  0.1349  0.5651
  376SOL    HW1 1502   0.750   2.468   0.172 -0.7138 -3.4990  1.1830
  376SOL    HW2 1503   0.812   2.492   0.039  0.5537 -2.9869 -0.9030
  376SOL     MW 1504   0.806   2.516   0.124  0.1849 -0.7564  0.4529
  377SOL     OW 1505   1.350   2.084   0.921 -0.7139  0.4982  0.1969
  377SOL    HW1 1506   1.267   2.057   0.881 -0.4550 -1.4502 -0.7779
  377SOL    HW2 1507   1.378   2.002   0.966  0.5042 -2.4360  1.0891
  377SOL     MW 1508   1.343   2.070   0.922 -0.5190 -0.1460  0.1860
  378SOL     OW 1509   0.886   2.866   1.584 -0.2559  0.3777  0.6863
  378SOL    HW1 1510   0.893   2.778   1.628  2.0705 -2.5840  5.3587
  378SOL    HW2 1511   0.975   2.883   1.550  2.4007  0.2911  0.5257
  378SOL     MW 1512   0.899   2.857   1.585  0.4015 -0.0245  1.2816
  379SOL     OW 1513   1.066   1.562   2.290 -0.5335 -0.4882  0.1778
  379SOL    HW1 1514   0.977   1.565   2.248  0.0897  2.1400 -2.1423
  379SOL    HW2 1515   1.135   1.546   2.226  0.8200  1.4672 -0.6288
  379SOL     MW 1516   1.063   1.560   2.276 -0.2727  0.1166 -0.2348
  380SOL     OW 1517   0.883   0.132   1.482  0.8039 -0.1829  0.5253
  380SOL    HW1 1518   0.901   0.062   1.417 -1.7305 -0.0841  1.2545
  380SOL    HW2 1519   0.926   0.104   1.565  0.4043  1.8795 -0.5646
  380SOL     MW 1520   0.891   0.119   1.485  0.4168  0.1023  0.4777
  381SOL     OW 1521   0.837   2.057   0.876 -0.3330  0.1585  0.7789
  381SOL    HW1 1522   0.934   2.048   0.866  1.4844 -1.3760  0.5076
  381SOL    HW2 1523   0.827   2.130   0.935  0.7761 -1.5426 -0.6562
  381SOL     MW 1524   0.849   2.065   0.883  0.0531 -0.2684  0.5537
  382SOL     OW 1525   0.855   0.132   0.591  0.2601 -0.7923  0.7356
  382SOL    HW1 1526   0.837   0.178   0.678 -0.6760  0.6070  2.1888
  382SOL    HW2 1527   0.800   0.058   0.590  1.7069  0.5880 -0.7797
  382SOL     MW 1528   0.846   0.129   0.603  0.3275 -0.4255  0.7274
  383SOL     OW 1529   0.643   0.020   0.309 -0.0034 -0.3205  0.2347
  383SOL    HW1 1530   0.695  -0.055   0.279  0.1611  1.2402  1.8381
  383SOL    HW2 1531   0.573  -0.007   0.365  0.1106  0.1644 -3.4723
  383SOL     MW 1532   0.641   0.007   0.312  0.0333 -0.0506 -0.0428
  384SOL     OW 1533   0.768   2.972   0.608 -0.0815 -0.1636 -0.0072
  384SOL    HW1 1534   0.821   2.966   0.690  2.5149  2.1150 -5.0843
  384SOL    HW2 1535   0.707   2.896   0.616  1.4964  0.8018 -0.0621
  384SOL     MW 1536   0.767   2.961   0.620  0.4693  0.2644 -0.6843
  385SOL     OW 1537   1.353   2.065   1.523  0.2515 -0.0378  0.0574
  385SOL    HW1 1538   1.429   2.102   1.572  3.0872 -1.8198  1.2973
  385SOL    HW2 1539   1.347   1.982   1.572  0.4194  0.8123  2.2153
  385SOL     MW 1540   1.362   2.059   1.536  0.6478 -0.1607  0.5057
  386SOL     OW 1541   1.469   0.420   0.861 -0.1629 -0.9867 -0.6432
  386SOL    HW1 1542   1.402   0.458   0.920  1.4928  1.0597 -0.7976
  386SOL    HW2 1543   1.547   0.434   0.916 -2.2067 -3.2223  1.2635
  386SOL     MW 1544   1.470   0.427   0.876 -0.2141 -1.0116 -0.4120
  387SOL     OW 1545   0.783   2.233   1.573 -0.1340  0.8771 -0.3910
  387SOL    HW1 1546   0.859   2.271   1.529  1.3793  1.8689 -1.0777
  387SOL    HW2 1547   0.795   2.134   1.564 -0.1575  3.2785 -0.7813
  387SOL     MW 1548   0.795   2.225   1.566  0.0625  1.3248 -0.5331
  388SOL     OW 1549   1.453   2.798   1.452 -0.2502  0.4604  1.0940
  388SOL    HW1 1550   1.450   2.874   1.389  0.1149 -1.7808  0.9335
  388SOL    HW2 1551   1.495   2.729   1.404  1.8678  2.4049  2.9287
  388SOL     MW 1552   1.458   2.799   1.437  0.0774  0.4213  1.3149
  389SOL     OW 1553   0.473   0.133   3.062 -0.3578 -0.4106  0.1844
  389SOL    HW1 1554   0.514   0.063   3.013 -0.4411  0.4625 -1.5202
  389SOL    HW2 1555   0.452   0.194   2.984  0.2612 -0.0686 -0.1311
  389SOL     MW 1556   0.476   0.132   3.046 -0.2871 -0.2503 -0.0821
  390SOL     OW 1557   1.369   0.023   0.725  0.2007 -0.2007 -0.5639
  390SOL    HW1 1558   1.397  -0.004   0.639  1.3635 -2.0266  2.6030
  390SOL    HW2 1559   1.462   0.042   0.762  1.0116  0.3896 -2.2756
  390SOL     MW 1560   1.385   0.022   0.719  0.4611 -0.3637 -0.3719
  391SOL     OW 1561   0.313   2.170   1.517 -0.2989 -0.3188 -0.1746
  391SOL    HW1 1562   0.331   2.166   1.612  1.4715 -0.7941  1.8588
  391SOL    HW2 1563   0.284   2.261   1.510  0.3461 -0.0763  2.0589
  391SOL     MW 1564   0.311   2.181   1.528  0.0198 -0.3495  0.3884
  392SOL     OW 1565   1.936   2.161   0.310 -0.1157 -0.5612  0.0875
  392SOL    HW1 1566   1.991   2.236   0.326 -0.2539  0.1897 -0.6088
  392SOL    HW2 1567   1.849   2.193   0.332  1.5228 -0.6159  0.4863
  392SOL     MW 1568   1.932   2.175   0.315  0.0822 -0.4694  0.0482
  393SOL     OW 1569   0.245   2.954   2.831 -0.1425  0.0929 -0.4895
  393SOL    HW1 1570   0.333   2.950   2.787  0.2165  1.6504 -2.3367
  393SOL    HW2 1571   0.219   3.045   2.829 -0.5522  0.4685 -2.1023
  393SOL     MW 1572   0.253   2.966   2.825 -0.1492  0.3480 -0.9460
  394SOL     OW 1573   1.014   1.791   1.549 -0.6740 -0.0827  0.6314
  394SOL    HW1 1574   1.025   1.792   1.646 -1.8636 -0.9594 -0.5937
  394SOL    HW2 1575   0.948   1.858   1.531  0.9288 -0.6735 -0.5344
  394SOL     MW 1576   1.007   1.800   1.559 -0.6195 -0.2763  0.3159
  395SOL     OW 1577   0.954   2.935   2.704 -0.1190  0.4881  0.3626
  395SOL    HW1 1578   1.021   3.004   2.745 -1.4261  2.0722 -1.0475
  395SOL    HW2 1579   1.009   2.866   2.666  1.5548 -0.8949  0.4053
  395SOL     MW 1580   0.970   2.935   2.704 -0.0706  0.5146  0.1822
  396SOL     OW 1581   0.734   1.892   2.360 -0.7007 -0.9080 -0.2243
  396SOL    HW1 1582   0.802   1.875   2.427 -0.4780  3.1547  1.6708
  396SOL    HW2 1583   0.692   1.811   2.328 -0.3755 -2.1053 -1.0221
  396SOL     MW 1584   0.738   1.879   2.365 -0.6284 -0.5300 -0.0796
  397SOL     OW 1585   1.006   2.293   1.378  0.1963 -0.1475 -0.1890
  397SOL    HW1 1586   1.030   2.341   1.302 -1.1645 -1.1552 -0.0692
  397SOL    HW2 1587   1.077   2.280   1.438  1.1161 -3.1560  0.1086
  397SOL     MW 1588   1.018   2.298   1.376  0.1381 -0.6774 -0.1339
  398SOL     OW 1589   0.638   2.732   0.655  0.2252 -0.0774  0.0584
  398SOL    HW1 1590   0.603   2.718   0.566  2.3077  0.3736 -2.7503
  398SOL    HW2 1591   0.723   2.687   0.646  0.6647  0.2413 -0.1329
  398SOL     MW 1592   0.644   2.724   0.642  0.5580  0.0242 -0.3374
  399SOL     OW 1593   0.329   2.067   0.362 -0.8573 -0.8245 -0.0255
  399SOL    HW1 1594   0.247   2.118   0.366 -0.7465  1.7891  1.0226
  399SOL    HW2 1595   0.388   2.106   0.292  0.7423  0.7444 -1.7917
  399SOL     MW 1596   0.326   2.079   0.353 -0.6316 -0.2727 -0.1203
  400SOL     OW 1597   0.591   1.934   0.089  0.1109 -0.1903  0.2893
  400SOL    HW1 1598   0.563   2.031   0.105  1.0709  4.2692  0.6664
  400SOL    HW2 1599   0.569   1.884   0.169  0.0168 -0.7321  2.0058
  400SOL     MW 1600   0.584   1.940   0.102  0.2252  0.3266  0.5655
  401SOL     OW 1601   0.866   2.039   0.003 -0.1520 -0.4444 -0.2381
  401SOL    HW1 1602   0.933   1.968   0.010  0.6116  0.9425 -2.4628
  401SOL    HW2 1603   0.782   1.993   0.026  0.1033 -0.4522 -2.1061
  401SOL     MW 1604   0.864   2.024   0.007 -0.0176 -0.2625 -0.7781
  402SOL     OW 1605   0.620   3.008   1.805  0.4274 -0.3037  0.8465
  402SOL    HW1 1606   0.713   2.993   1.823  1.2187  1.0163  4.2117
  402SOL    HW2 1607   0.611   3.084   1.754 -0.2574 -3.1051  0.1444
  402SOL     MW 1608   0.631   3.016   1.800  0.4414 -0.4991  1.1979
  403SOL     OW 1609   0.151   0.497   0.389 -0.4565 -0.2939  0.5461
  403SOL    HW1 1610   0.233   0.523   0.438  0.5715  1.6937 -1.2090
  403SOL    HW2 1611   0.178   0.444   0.319  0.5915 -0.2200  0.6022
  403SOL     MW 1612   0.166   0.493   0.386 -0.1826 -0.0219  0.3219
  404SOL     OW 1613   0.922   2.956   0.838  0.4351 -0.0133 -0.2947
  404SOL    HW1 1614   1.002   2.901   0.817  0.4111  0.2498 -0.1789
  404SOL    HW2 1615   0.966   3.039   0.828  1.0433 -1.2837  1.4333
  404SOL     MW 1616   0.939   2.959   0.834  0.5122 -0.1462 -0.0514
  405SOL     OW 1617   0.527   2.463   1.510  0.1154 -0.3418  0.2107
  405SOL    HW1 1618   0.526   2.554   1.469  0.9382  2.5685 -0.6797
  405SOL    HW2 1619   0.548   2.414   1.430 -1.4560  1.3777  0.8541
  405SOL     MW 1620   0.530   2.468   1.494  0.0166  0.2691  0.1781
  406SOL     OW 1621   0.453   2.353   1.092  0.2519 -0.1525 -0.1705
  406SOL    HW1 1622   0.364   2.386   1.112  0.0513 -0.0232  2.1792
  406SOL    HW2 1623   0.460   2.263   1.119  3.5390 -1.2793 -2.5015
  406SOL     MW 1624   0.442   2.346   1.098  0.6592 -0.2841 -0.1680
  407SOL     OW 1625   0.040   2.642   1.107  0.2386  0.0758 -0.7546
  407SOL    HW1 1626   0.082   2.652   1.189 -1.2629 -0.2634  1.3887
  407SOL    HW2 1627   0.112   2.638   1.041 -0.9513 -0.3589 -0.9141
  407SOL     MW 1628   0.055   2.643   1.109 -0.1165 -0.0263 -0.4928
  408SOL     OW 1629   2.140   2.140   0.711  0.2459 -0.1671 -0.4161
  408SOL    HW1 1630   2.071   2.195   0.761 -1.1518  3.6160 -0.9568
  408SOL    HW2 1631   2.068   2.099   0.650  0.1649  0.6865 -0.4405
  408SOL     MW 1632   2.121   2.142   0.709  0.0508  0.4447 -0.4906
  409SOL     OW 1633   1.614   0.092   0.833 -0.4349 -0.1492 -0.0980
  409SOL    HW1 1634   1.610   0.186   0.824  1.0308 -0.0765  2.3249
  409SOL    HW2 1635   1.597   0.076   0.927 -1.7791  2.3602 -0.1439
  409SOL     MW 1636   1.611   0.102   0.844 -0.4189  0.1915  0.2157
  410SOL     OW 1637   1.104   2.419   1.150  0.1264  0.1028  0.0329
  410SOL    HW1 1638   1.042   2.408   1.079  0.1878  0.4453 -0.1054
  410SOL    HW2 1639   1.184   2.398   1.100  1.1412  0.1191 -1.3425
  410SOL     MW 1640   1.107   2.415   1.134  0.2684  0.1501 -0.1668
  411SOL     OW 1641   1.987   2.937   2.921 -0.4071 -0.0473 -0.3667
  411SOL    HW1 1642   1.992   2.900   2.833  3.4755  0.1114 -1.1205
  411SOL    HW2 1643   1.954   3.025   2.905  0.6345 -1.4104  0.5054
  411SOL     MW 1644   1.984   2.944   2.907  0.2426 -0.2062 -0.3511
  412SOL     OW 1645   1.056   2.263   0.639 -0.4917 -0.9533 -0.1821
  412SOL    HW1 1646   1.066   2.355   0.675 -2.7070  0.4783 -1.0470
  412SOL    HW2 1647   0.976   2.258   0.589  0.5231 -0.7366  2.6461
  412SOL     MW 1648   1.047   2.275   0.638 -0.6501 -0.7358  0.0769
  413SOL     OW 1649   0.632   2.693   0.042 -0.0143 -0.0218 -0.2191
  413SOL    HW1 1650   0.703   2.633   0.079  1.0238 -1.1015  0.0606
  413SOL    HW2 1651   0.657   2.690  -0.053  2.9755 -1.4048 -1.3043
  413SOL     MW 1652   0.645   2.685   0.034  0.5171 -0.3467 -0.3254
  414SOL     OW 1653   2.030   3.008   1.093  0.2171 -0.7195  0.2148
  414SOL    HW1 1654   2.067   3.094   1.115  3.0503 -1.4585 -1.0579
  414SOL    HW2 1655   1.997   3.008   1.007  1.4320 -2.1648  1.5976
  414SOL     MW 1656   2.030   3.020   1.084  0.7512 -1.0077  0.2293
  415SOL     OW 1657   1.629   2.845   1.124  0.5257 -0.2480  0.1787
  415SOL    HW1 1658   1.687   2.877   1.194  0.3336 -0.0384 -1.1327
  415SOL    HW2 1659   1.687   2.786   1.079  0.5779 -1.0451  3.6378
  415SOL     MW 1660   1.645   2.841   1.127  0.5072 -0.3255  0.4620
  416SOL     OW 1661   0.630   1.755   1.440 -0.1796  1.0127 -0.3698
  416SOL    HW1 1662   0.570   1.815   1.408  0.5835 -0.8530 -0.7618
  416SOL    HW2 1663   0.648   1.692   1.369  0.9908  0.6861 -2.3310
  416SOL     MW 1664   0.624   1.755   1.427  0.0755  0.7235 -0.6803
  417SOL     OW 1665   0.953   0.054   2.056 -0.5040  0.3335 -0.7212
  417SOL    HW1 1666   0.875   0.055   2.114  2.5031  0.5653  0.1895
  417SOL    HW2 1667   0.926   0.006   1.980  0.2307 -1.5699 -0.1826
  417SOL     MW 1668   0.939   0.048   2.054 -0.0103  0.1130 -0.5300
  418SOL     OW 1669   0.772   2.893   0.179  1.0818 -0.3299  0.1607
  418SOL    HW1 1670   0.842   2.883   0.114  1.1653  0.5437 -0.1697
  418SOL    HW2 1671   0.706   2.821   0.158  0.0337 -0.7017 -2.3114
  418SOL     MW 1672   0.773   2.882   0.168  0.9546 -0.2637 -0.2090
  419SOL     OW 1673   0.627   2.689   1.340 -0.0985  0.1409 -0.4094
  419SOL    HW1 1674   0.626   2.769   1.394  2.6306  0.8205 -3.7939
  419SOL    HW2 1675   0.696   2.631   1.375  4.4289  1.8912 -0.4782
  419SOL     MW 1676   0.636   2.692   1.352  0.8589  0.4615 -0.8650
  420SOL     OW 1677   0.793   2.246   1.105  0.8087  0.0549  0.0835
  420SOL    HW1 1678   0.739   2.265   1.188 -1.0571 -1.9739 -0.8414
  420SOL    HW2 1679   0.802   2.329   1.064 -2.2942 -1.4203  0.0689
  420SOL     MW 1680   0.787   2.260   1.110  0.1531 -0.4074 -0.0405
  421SOL     OW 1681   2.886   0.172   0.085  0.0801 -0.2623  0.2349
  421SOL    HW1 1682   2.817   0.119   0.046 -0.7388 -0.5219  3.9696
  421SOL    HW2 1683   2.943   0.095   0.099  0.3879 -0.4200  0.8784
  421SOL     MW 1684   2.885   0.155   0.082  0.0127 -0.3174  0.8125
  422SOL     OW 1685   0.874   2.483   0.967 -0.6864 -0.4005  0.2964
  422SOL    HW1 1686   0.803   2.524   1.012  0.6869  0.7634  1.4918
  422SOL    HW2 1687   0.864   2.495   0.875 -0.4218 -1.3336  0.2738
  422SOL     MW 1688   0.863   2.490   0.961 -0.4703 -0.3701  0.4512
  423SOL     OW 1689   1.506   0.035   0.490  0.3496 -0.0221 -0.0828
  423SOL    HW1 1690   1.544   0.008   0.400  1.6163 -3.9635 -0.8543
  423SOL    HW2 1691   1.490   0.125   0.481  0.0255 -0.7802  0.3442
  423SOL     MW 1692   1.509   0.043   0.477  0.4740 -0.6422 -0.1282
  424SOL     OW 1693   0.666   2.279   1.332  0.0503  0.4956  0.6819
  424SOL    HW1 1694   0.614   2.206   1.305  0.7719  0.0539  1.6748
  424SOL    HW2 1695   0.718   2.249   1.406 -0.7224 -1.7254  1.0862
  424SOL     MW 1696   0.666   2.266   1.338  0.0436  0.1443  0.8662
  425SOL     OW 1697   1.697   2.807   2.048 -0.0473 -0.2701  0.3673
  425SOL    HW1 1698   1.741   2.838   1.965  0.8282  1.9102  0.0044
  425SOL    HW2 1699   1.743   2.724   2.065  2.5225  0.5524 -2.9952
  425SOL     MW 1700   1.709   2.800   2.039  0.4073  0.1261 -0.1242
  426SOL     OW 1701   0.884   1.681   1.941 -0.4901 -0.1302  0.0027
  426SOL    HW1 1702   0.821   1.663   1.866  1.0054 -1.9098 -2.8379
  426SOL    HW2 1703   0.865   1.772   1.969 -0.8878 -2.2614 -3.8014
  426SOL     MW 1704   0.873   1.691   1.935 -0.3453 -0.6462 -0.8740
  427SOL     OW 1705   0.382   1.757   1.874 -0.0624  0.1926 -0.9247
  427SOL    HW1 1706   0.410   1.680   1.832 -1.8556  3.4443  1.0392
  427SOL    HW2 1707   0.308   1.725   1.928 -0.3843  0.9767  0.8274
  427SOL     MW 1708   0.376   1.743   1.876 -0.3415  0.7251 -0.4344
  428SOL     OW 1709   0.642   2.564   1.086  1.0919 -0.0528 -0.2677
  428SOL    HW1 1710   0.581   2.487   1.077 -1.8680 -0.4687 -0.1248
  428SOL    HW2 1711   0.615   2.619   1.155  1.8231 -1.0099 -1.4222
  428SOL     MW 1712   0.631   2.561   1.094  0.7979 -0.2340 -0.4011
  429SOL     OW 1713   1.191   2.751   1.081  0.4310  0.3533  0.2129
  429SOL    HW1 1714   1.099   2.755   1.108 -0.6173  1.7505  0.6859
  429SOL    HW2 1715   1.231   2.835   1.081  0.4487  0.4757  1.6880
  429SOL     MW 1716   1.184   2.762   1.085  0.2950  0.5538  0.4699
  430SOL     OW 1717   1.162   2.815   0.818  0.1548  0.5023 -0.0245
  430SOL    HW1 1718   1.161   2.776   0.909 -1.1435  0.4034  0.2704
  430SOL    HW2 1719   1.124   2.764   0.750 -1.2670  0.8287  0.2606
  430SOL     MW 1720   1.157   2.803   0.821 -0.2041  0.5323  0.0520
  431SOL     OW 1721   0.330   1.916   1.105 -0.2882  0.0892  0.1403
  431SOL    HW1 1722   0.396   1.854   1.078  0.7121 -3.2769 -0.6718
  431SOL    HW2 1723   0.299   1.959   1.028  0.8260 -0.1311  1.3975
  431SOL     MW 1724   0.335   1.913   1.091 -0.0092 -0.3840  0.1990
  432SOL     OW 1725   0.034   3.083   1.113 -0.6616  0.2303  0.1024
  432SOL    HW1 1726   0.032   3.118   1.204  1.8684  2.0556  2.4440
  432SOL    HW2 1727  -0.008   3.002   1.136  0.6617  2.4337 -2.4465
  432SOL     MW 1728   0.028   3.077   1.128 -0.1532  0.7619  0.0750
  433SOL     OW 1729   0.635   2.919   1.484 -0.1125 -0.1694  0.1385
  433SOL    HW1 1730   0.605   3.001   1.518 -0.9064  0.2372  0.0551
  433SOL    HW2 1731   0.716   2.914   1.538  4.0752 -0.3510  2.8105
  433SOL     MW 1732   0.641   2.929   1.495  0.3353 -0.1397  0.4800
  434SOL     OW 1733   1.503   2.836   1.721 -0.5124 -0.1522  0.3957
  434SOL    HW1 1734   1.423   2.866   1.764 -2.2261  0.1006  0.7468
  434SOL    HW2 1735   1.484   2.822   1.625  0.2543  3.0990  1.1666
  434SOL     MW 1736   1.490   2.838   1.714 -0.6374  0.3101  0.5438
  435SOL     OW 1737   2.696   1.768   0.227  0.0544  0.7300  0.5761
  435SOL    HW1 1738   2.757   1.816   0.165 -0.0658 -0.7502  0.3795
  435SOL    HW2 1739   2.607   1.782   0.212 -1.0155  0.9091  0.7950
  435SOL     MW 1740   2.692   1.776   0.217 -0.1027  0.5583  0.5790
  436SOL     OW 1741   1.341   2.716   0.357  0.3774  0.4925  0.2946
  436SOL    HW1 1742   1.389   2.689   0.433  0.6137  1.1996 -0.9655
  436SOL    HW2 1743   1.313   2.802   0.385 -2.2433  0.9194  1.8655
  436SOL     MW 1744   1.344   2.724   0.370  0.0628  0.6421  0.3356
  437SOL     OW 1745   0.946   3.035   1.290 -0.5942  0.3188  0.0864
  437SOL    HW1 1746   0.971   3.077   1.210 -2.5664 -1.9246 -0.5224
  437SOL    HW2 1747   0.900   2.949   1.267  1.1245 -0.7007  1.9333
  437SOL     MW 1748   0.943   3.029   1.276 -0.6277 -0.1117  0.2498
  438SOL     OW 1749   0.890   2.712   1.967 -0.2757  0.1120 -0.4510
  438SOL    HW1 1750   0.889   2.640   2.036  0.7321 -0.6138  3.4356
  438SOL    HW2 1751   0.830   2.676   1.894 -3.0940  1.2858  1.2281
  438SOL     MW 1752   0.882   2.698   1.966 -0.5146  0.1711  0.2833
  439SOL     OW 1753   1.194   2.067   0.431 -0.2383 -0.0925  0.4655
  439SOL    HW1 1754   1.124   2.092   0.487 -0.4096 -0.9340 -2.4524
  439SOL    HW2 1755   1.209   2.146   0.370  0.2896  0.7064  1.7614
  439SOL     MW 1756   1.186   2.081   0.430 -0.1912 -0.0981  0.2515
  440SOL     OW 1757   1.765   2.826   2.997  0.2652 -1.4362  0.0372
  440SOL    HW1 1758   1.759   2.836   3.091 -1.4401  1.8523  0.6558
  440SOL    HW2 1759   1.849   2.865   2.979 -0.4497 -1.3359  1.5096
  440SOL     MW 1760   1.775   2.832   3.007 -0.0541 -0.9891  0.3131
  441SOL     OW 1761   0.510   2.692   0.419  0.0698  0.9527 -0.2638
  441SOL    HW1 1762   0.484   2.653   0.340 -0.6481  0.9383  0.2789
  441SOL    HW2 1763   0.481   2.784   0.419 -1.0088 -2.1703  1.6720
  441SOL     MW 1764   0.503   2.699   0.409 -0.1672  0.5388  0.0633
  442SOL     OW 1765   0.028   2.354   0.645 -0.3083  0.3075  0.0694
  442SOL    HW1 1766   0.038   2.443   0.598 -0.0024 -0.2957 -1.7177
  442SOL    HW2 1767  -0.063   2.341   0.653  1.3940  1.5493 -0.0607
  442SOL     MW 1768   0.018   2.364   0.640 -0.0433  0.3918 -0.1835
  443SOL     OW 1769   1.470   1.749   1.932 -0.0062  0.1594 -0.1519
  443SOL    HW1 1770   1.441   1.755   1.843 -2.5127  0.2302 -0.4068
  443SOL    HW2 1771   1.484   1.654   1.950 -0.8847  2.6096  0.1512
  443SOL     MW 1772   1.468   1.737   1.922 -0.4528  0.4920 -0.1455
  444SOL     OW 1773   0.944   2.594   1.607 -0.5545  0.1250 -0.2605
  444SOL    HW1 1774   1.008   2.551   1.658 -0.3480  0.2670 -1.8495
  444SOL    HW2 1775   0.870   2.598   1.667  1.1819 -1.0836  2.3117
  444SOL     MW 1776   0.943   2.589   1.621 -0.2982 -0.0157 -0.1308
  445SOL     OW 1777   1.210   0.077   1.408 -0.3840  0.1372 -0.3076
  445SOL    HW1 1778   1.169   0.101   1.489 -1.0762 -1.6808 -0.2598
  445SOL    HW2 1779   1.218   0.151   1.350  0.9811 -0.8209  0.8770
  445SOL     MW 1780   1.206   0.090   1.411 -0.2952 -0.2291 -0.1450
  446SOL     OW 1781   2.737   2.860   1.044 -0.9282 -0.0772 -0.0323
  446SOL    HW1 1782   2.740   2.939   0.995  0.2864 -1.5821  2.5875
  446SOL    HW2 1783   2.759   2.784   0.991 -1.9943 -1.9689  3.1963
  446SOL     MW 1784   2.741   2.860   1.031 -0.9086 -0.5254  0.7393
  447SOL     OW 1785   0.027   1.937   1.564  0.3842  0.2141  0.2119
  447SOL    HW1 1786   0.051   1.877   1.637 -0.1469  1.4574 -0.2241
  447SOL    HW2 1787  -0.052   1.902   1.513  1.8354 -0.9638  1.5244
  447SOL     MW 1788   0.020   1.924   1.567  0.5056  0.2228  0.3275
  448SOL     OW 1789   1.716   2.348   1.664 -0.0472 -0.1660  0.1137
  448SOL    HW1 1790   1.665   2.272   1.670  0.8723 -0.7667 -1.1952
  448SOL    HW2 1791   1.651   2.417   1.672 -0.5029  0.9003  0.3082
  448SOL     MW 1792   1.701   2.347   1.666  0.0140 -0.1046 -0.0333
  449SOL     OW 1793   0.922   2.923   0.397  0.4847 -0.5786  0.1905
  449SOL    HW1 1794   0.880   2.860   0.337  0.1206 -1.7210 -0.0013
  449SOL    HW2 1795   0.863   2.926   0.474  1.4650 -1.2997  1.3828
  449SOL     MW 1796   0.909   2.915   0.399  0.5660 -0.8244  0.3225
  450SOL     OW 1797   1.135   2.487   0.745  0.4229  1.2852 -0.7201
  450SOL    HW1 1798   1.149   2.444   0.839 -1.9196  0.5400  1.7033
  450SOL    HW2 1799   1.216   2.466   0.692  0.5986  1.0962 -1.7180
  450SOL     MW 1800   1.148   2.478   0.750  0.1370  1.1619 -0.5320
  451SOL     OW 1801   0.555   1.993   1.697  0.2568  0.3452  0.2049
  451SOL    HW1 1802   0.628   1.983   1.638 -1.3652  0.4450  0.5471
  451SOL    HW2 1803   0.485   1.958   1.635 -1.6426  1.1156 -0.1949
  451SOL     MW 1804   0.556   1.987   1.681 -0.2078  0.4600  0.1973
  452SOL     OW 1805   0.351   2.643   3.089 -0.9507 -0.2908 -0.5206
  452SOL    HW1 1806   0.438   2.680   3.101  1.6785 -2.0315  2.9248
  452SOL    HW2 1807   0.293   2.719   3.105 -1.8334  0.3590 -2.2066
  452SOL     MW 1808   0.355   2.658   3.093 -0.7203 -0.4347 -0.2885
  453SOL     OW 1809   0.231   3.012   1.560 -0.5713 -0.2248  0.2268
  453SOL    HW1 1810   0.283   2.970   1.625 -0.3584  2.2463  2.5553
  453SOL    HW2 1811   0.270   2.974   1.483  0.6580  0.1005  1.5857
  453SOL     MW 1812   0.243   3.002   1.559 -0.3811  0.1442  0.7133
  454SOL     OW 1813   0.899   2.778   1.194  0.3509 -0.1069 -0.4456
  454SOL    HW1 1814   0.857   2.707   1.230  4.1704  0.2029 -1.2675
  454SOL    HW2 1815   0.839   2.830   1.138 -1.6648  0.3833  1.4974
  454SOL     MW 1816   0.886   2.776   1.191  0.5889 -0.0013 -0.2977
  455SOL     OW 1817   1.787   2.863   0.183 -0.5888 -0.0523 -0.5265
  455SOL    HW1 1818   1.825   2.853   0.270 -1.9199 -1.4973  2.0015
  455SOL    HW2 1819   1.709   2.801   0.185 -0.8293 -1.1472  0.4610
  455SOL     MW 1820   1.782   2.854   0.194 -0.7961 -0.3874 -0.0627
  456SOL     OW 1821   2.757   0.270   1.457 -0.0392 -0.0789  0.0266
  456SOL    HW1 1822   2.771   0.208   1.387 -0.2252  0.5730 -0.4424
  456SOL    HW2 1823   2.788   0.358   1.425  0.1362 -0.2855  0.4283
  456SOL     MW 1824   2.763   0.274   1.443 -0.0406 -0.0202  0.0177
  457SOL     OW 1825   0.783   1.648   3.039 -0.2214 -0.0458  0.2810
  457SOL    HW1 1826   0.689   1.623   3.051  1.0223  0.3915  3.0008
  457SOL    HW2 1827   0.809   1.678   3.125 -1.7092  0.9469 -1.1284
  457SOL     MW 1828   0.774   1.648   3.052 -0.2536  0.1429  0.4539
  458SOL     OW 1829   1.346   1.473   0.694  0.2615 -0.0224  0.0639
  458SOL    HW1 1830   1.269   1.516   0.712  1.0016  0.6130  0.8430
  458SOL    HW2 1831   1.328   1.381   0.670  1.0867 -0.5101  0.1245
  458SOL     MW 1832   1.334   1.467   0.693  0.4681 -0.0029  0.1747
  459SOL     OW 1833   1.600   3.062   0.245 -0.5531 -0.2186  0.0345
  459SOL    HW1 1834   1.655   2.988   0.213 -0.5123 -1.4872  2.3735
  459SOL    HW2 1835   1.529   3.074   0.181 -0.0825 -2.5336  1.3689
  459SOL     MW 1836   1.598   3.054   0.232 -0.4856 -0.6914  0.5192
  460SOL     OW 1837   1.786   2.230   0.621 -0.5786  0.3171  0.3259
  460SOL    HW1 1838   1.701   2.220   0.664  0.5670  0.5645 -0.6354
  460SOL    HW2 1839   1.820   2.136   0.616 -1.4652 -0.6439 -1.2862
  460SOL     MW 1840   1.779   2.216   0.626 -0.5444  0.2230 -0.0136
  461SOL     OW 1841   0.400   2.414   0.533 -0.0853  0.7032 -0.6194
  461SOL    HW1 1842   0.423   2.499   0.502 -1.5171 -1.5952 -0.0200
  461SOL    HW2 1843   0.372   2.427   0.624 -0.2659 -1.6300 -2.5129
  461SOL     MW 1844   0.399   2.427   0.541 -0.2981  0.0921 -0.7901
  462SOL     OW 1845   0.284   0.242   1.274 -0.0857  0.1092  0.4780
  462SOL    HW1 1846   0.316   0.200   1.194 -0.3960  0.2257  1.3969
  462SOL    HW2 1847   0.350   0.225   1.341 -1.7036 -2.7674 -1.4862
  462SOL     MW 1848   0.297   0.234   1.272 -0.3401 -0.2550  0.3401
  463SOL     OW 1849   1.098   0.051   0.743  0.0756  0.0602 -0.7615
  463SOL    HW1 1850   1.181   0.019   0.705  0.4673  0.6604  1.7791
  463SOL    HW2 1851   1.056   0.088   0.663  0.6940  1.7303 -0.7439
  463SOL     MW 1852   1.104   0.052   0.727  0.2088  0.3597 -0.4240
  464SOL     OW 1853   0.736   3.073   2.276 -0.1777  0.1391  0.3799
  464SOL    HW1 1854   0.732   2.974   2.286 -1.3750 -0.7227  2.4400
  464SOL    HW2 1855   0.752   3.095   2.371  1.5387 -1.2708 -0.8617
  464SOL     MW 1856   0.738   3.063   2.290 -0.1092 -0.1606  0.4879
  465SOL     OW 1857   0.826   0.336   0.378  0.2439 -0.0540 -0.9129
  465SOL    HW1 1858   0.824   0.261   0.434 -0.1781  1.2542 -1.1850
  465SOL    HW2 1859   0.818   0.305   0.290  1.2713 -1.9763  1.8620
  465SOL     MW 1860   0.825   0.322   0.374  0.3238 -0.1350 -0.5826
  466SOL     OW 1861   1.114   2.048   0.798  0.3645  0.5818 -0.7980
  466SOL    HW1 1862   1.087   1.986   0.736  2.5058  0.1277  2.0972
  466SOL    HW2 1863   1.103   2.138   0.763  2.1312  1.2163  3.1560
  466SOL     MW 1864   1.109   2.052   0.786  0.8801  0.6056  0.1057
  467SOL     OW 1865   1.279   2.348   0.958 -0.1176 -0.1237  0.6793
  467SOL    HW1 1866   1.360   2.373   1.003 -0.7985  2.6986  0.9151
  467SOL    HW2 1867   1.297   2.253   0.951 -1.0162 -2.0451  2.8799
  467SOL     MW 1868   1.292   2.339   0.963 -0.3260 -0.0048  1.0008
  468SOL     OW 1869   0.533   2.678   1.912 -0.0782 -0.4662  0.0277
  468SOL    HW1 1870   0.491   2.586   1.895  1.5169 -3.6778 -1.1545
  468SOL    HW2 1871   0.479   2.746   1.856  1.5166  2.7986  0.7001
  468SOL     MW 1872   0.520   2.675   1.902  0.3427 -0.4591 -0.0395
  469SOL     OW 1873   0.325   2.129   1.816 -0.0937  0.7203 -0.2451
  469SOL    HW1 1874   0.261   2.068   1.854  0.9779  0.9853 -1.9410
  469SOL    HW2 1875   0.402   2.079   1.790 -1.3383  1.0798 -0.3769
  469SOL     MW 1876   0.327   2.115   1.818 -0.1165  0.8027 -0.4862
  470SOL     OW 1877   3.049   2.581   0.087 -0.2097 -0.0877  0.0801
  470SOL    HW1 1878   2.978   2.601   0.150 -0.1337  1.1178 -0.4012
  470SOL    HW2 1879   3.019   2.619   0.004 -0.9510  0.7074 -0.3108
  470SOL     MW 1880   3.036   2.589   0.084 -0.2974  0.1763 -0.0350
  471SOL     OW 1881   1.163   2.636   1.362 -0.5198  0.4627 -0.1989
  471SOL    HW1 1882   1.094   2.615   1.424  1.4291  1.1064  1.6918
  471SOL    HW2 1883   1.149   2.605   1.274  2.0801 -1.7917  1.4796
  471SOL     MW 1884   1.152   2.629   1.359  0.0804  0.2502  0.2721
  472SOL     OW 1885   2.965   2.124   0.343  0.8053  0.2873  0.3062
  472SOL    HW1 1886   2.935   2.097   0.255  0.6523  0.7252  0.7228
  472SOL    HW2 1887   2.893   2.077   0.392 -2.8054 -1.4210 -0.4172
  472SOL     MW 1888   2.952   2.114   0.338  0.3087  0.1197  0.2658
  473SOL     OW 1889   0.858   2.539   1.335  0.2041 -0.0210 -0.2421
  473SOL    HW1 1890   0.882   2.458   1.294  1.1234  2.2822 -1.7660
  473SOL    HW2 1891   0.916   2.554   1.410  0.0911 -0.9046 -1.4045
  473SOL     MW 1892   0.869   2.531   1.340  0.3105  0.1663 -0.5965
  474SOL     OW 1893   0.664   2.291   1.850  0.7169 -0.2398 -0.3033
  474SOL    HW1 1894   0.745   2.308   1.893 -0.5881  1.4765 -0.4407
  474SOL    HW2 1895   0.679   2.265   1.763 -1.5235 -1.3238  3.4768
  474SOL     MW 1896   0.676   2.290   1.844  0.2491 -0.1564  0.1773
  475SOL     OW 1897   1.588   3.067   1.543  0.3707  0.1134 -0.3845
  475SOL    HW1 1898   1.524   3.025   1.492  2.5041 -1.1899 -0.4247
  475SOL    HW2 1899   1.641   2.992   1.559 -0.3320 -0.2486  1.0098
  475SOL     MW 1900   1.586   3.052   1.539  0.5595 -0.1063 -0.2059
  476SOL     OW 1901   1.428   2.637   1.175 -0.6549  0.8454  0.2204
  476SOL    HW1 1902   1.354   2.671   1.136 -0.5059 -0.4400 -0.4613
  476SOL    HW2 1903   1.493   2.707   1.158  0.5479  1.5960  1.0609
  476SOL     MW 1904   1.427   2.650   1.168 -0.4765  0.7749  0.2413
  477SOL     OW 1905   0.839   2.539   0.699  0.4241 -0.2159  0.8475
  477SOL    HW1 1906   0.926   2.571   0.680  0.4465  2.3151 -1.3193
  477SOL    HW2 1907   0.825   2.483   0.624 -0.5936 -1.0530 -1.5339
  477SOL     MW 1908   0.849   2.536   0.687  0.2928  0.0076  0.2474
  478SOL     OW 1909   0.236   2.644   0.911  0.0456  0.9718 -0.5620
  478SOL    HW1 1910   0.282   2.730   0.900  0.5601 -2.0169 -1.0035
  478SOL    HW2 1911   0.301   2.578   0.880  0.0463  1.9758 -0.3584
  478SOL     MW 1912   0.251   2.647   0.905  0.1136  0.7099 -0.5934
  479SOL     OW 1913   1.413   1.979   1.270  0.2434 -0.5663  0.0618
  479SOL    HW1 1914   1.394   1.999   1.364 -0.9588 -1.1823 -1.0241
  479SOL    HW2 1915   1.443   1.890   1.273 -1.6492 -1.0994  0.1478
  479SOL     MW 1916   1.414   1.970   1.283 -0.1649 -0.7179 -0.0701
  480SOL     OW 1917   2.007   2.440   1.363 -0.2648  0.7640  0.4623
  480SOL    HW1 1918   2.028   2.350   1.382  1.1855 -0.6066  0.5301
  480SOL    HW2 1919   1.990   2.437   1.264 -0.9891 -1.5739  1.4336
  480SOL     MW 1920   2.008   2.428   1.353 -0.1690  0.2747  0.5994
  481SOL     OW 1921   1.054   0.112   1.065  0.3219 -0.1303  0.0448
  481SOL    HW1 1922   1.124   0.056   1.030  1.3560 -0.2507  1.1049
  481SOL    HW2 1923   1.106   0.181   1.106  0.6885  1.2216 -1.7998
  481SOL     MW 1924   1.070   0.113   1.066  0.5067  0.0322 -0.0587
  482SOL     OW 1925   1.068   0.026   0.265  0.1885 -0.5475 -0.3866
  482SOL    HW1 1926   1.003  -0.036   0.304 -2.9299  0.0416 -1.5811
  482SOL    HW2 1927   1.071   0.110   0.311 -1.7100  0.5887  0.7026
  482SOL     MW 1928   1.060   0.029   0.276 -0.4735 -0.3199 -0.4005
  483SOL     OW 1929   0.436   3.003   0.465  0.6565 -0.2684  0.0060
  483SOL    HW1 1930   0.368   2.993   0.399 -0.6511  1.5409 -1.1356
  483SOL    HW2 1931   0.392   3.048   0.542 -0.1076  0.3005  4.5107
  483SOL     MW 1932   0.421   3.007   0.467  0.3832  0.0454  0.4497
  484SOL     OW 1933   1.828   2.005   1.424 -0.2429  0.1779 -0.5839
  484SOL    HW1 1934   1.872   2.084   1.401  0.6738  0.2598 -1.6280
  484SOL    HW2 1935   1.831   2.002   1.524 -0.4681 -2.9656 -0.1448
  484SOL     MW 1936   1.834   2.015   1.434 -0.1517 -0.2260 -0.6637
  485SOL     OW 1937   0.607   2.411   0.274  0.3007  0.5462  0.2253
  485SOL    HW1 1938   0.666   2.417   0.356  3.5026 -0.3021  1.8867
  485SOL    HW2 1939   0.516   2.429   0.299  1.0025 -1.8081  1.4635
  485SOL     MW 1940   0.603   2.414   0.288  0.8157  0.1236  0.6079
  486SOL     OW 1941   0.190   2.414   1.420 -0.1098 -0.3090 -0.2831
  486SOL    HW1 1942   0.198   2.505   1.391 -1.4342 -1.8213 -1.6000
  486SOL    HW2 1943   0.172   2.427   1.512 -0.6064 -0.7200  0.8554
  486SOL     MW 1944   0.188   2.428   1.428 -0.3500 -0.5628 -0.3066
  487SOL     OW 1945   1.193   1.753   1.021 -0.5917 -0.3691  0.0157
  487SOL    HW1 1946   1.173   1.833   1.067 -0.2983  2.4267 -0.8553
  487SOL    HW2 1947   1.286   1.756   1.007  0.2991  1.7668 -1.1504
  487SOL     MW 1948   1.203   1.764   1.025 -0.4355  0.2816 -0.2531
  488SOL     OW 1949   1.597   1.822   0.567 -0.0224  0.4459 -0.3888
  488SOL    HW1 1950   1.678   1.810   0.523 -0.9170 -1.2090 -0.4229
  488SOL    HW2 1951   1.564   1.910   0.539 -1.7944  1.7403  1.5256
  488SOL     MW 1952   1.603   1.832   0.558 -0.3742  0.3983 -0.1407
  489SOL     OW 1953   0.785   0.829   0.625 -0.1019 -0.0017 -0.2474
  489SOL    HW1 1954   0.800   0.762   0.556  1.0226 -0.6395  0.9835
  489SOL    HW2 1955   0.754   0.788   0.709 -0.6070  0.7174 -0.3325
  489SOL     MW 1956   0.783   0.815   0.627 -0.0202  0.0090 -0.0962
  490SOL     OW 1957   1.441   2.065   0.537 -0.2660  0.2110  0.3436
  490SOL    HW1 1958   1.459   2.136   0.468  0.0023  0.4902 -1.5996
  490SOL    HW2 1959   1.351   2.049   0.523 -0.6590  1.9428  0.4339
  490SOL     MW 1960   1.432   2.073   0.526 -0.2825  0.4764  0.0991
  491SOL     OW 1961   1.244   2.995   0.410  0.5681  0.4053 -0.2943
  491SOL    HW1 1962   1.320   3.041   0.395 -2.9330  0.0012  1.4539
  491SOL    HW2 1963   1.175   3.032   0.351 -2.8438 -0.7310 -1.3357
  491SOL     MW 1964   1.245   3.006   0.400 -0.3440  0.2021 -0.2010
  492SOL     OW 1965   1.523   2.211   0.740  0.2240 -0.5527 -0.7668
  492SOL    HW1 1966   1.488   2.157   0.670  2.3206 -2.9570 -1.4624
  492SOL    HW2 1967   1.491   2.167   0.817 -1.6176 -0.7494  0.3408
  492SOL     MW 1968   1.514   2.198   0.741  0.2576 -0.8959 -0.7125
  493SOL     OW 1969   0.216   2.954   0.288  0.7294 -0.7274  0.1973
  493SOL    HW1 1970   0.165   3.017   0.346 -2.8962 -2.1849 -3.0794
  493SOL    HW2 1971   0.222   3.006   0.208  3.0542  2.8143 -1.2941
  493SOL     MW 1972   0.210   2.969   0.285  0.5578 -0.4524 -0.4318
  494SOL     OW 1973   0.421   2.447   1.775  0.5608 -0.1694  0.0936
  494SOL    HW1 1974   0.478   2.379   1.803 -0.4287  0.7778  1.7889
  494SOL    HW2 1975   0.458   2.474   1.693 -1.6245 -4.1681  0.4827
  494SOL     MW 1976   0.434   2.441   1.768  0.1419 -0.5720  0.3686
  495SOL     OW 1977   2.837   1.742   2.569 -0.0192 -0.3813  0.0648
  495SOL    HW1 1978   2.796   1.832   2.576 -0.0180  2.6426 -1.2046
  495SOL    HW2 1979   2.831   1.715   2.664 -0.3239  0.2949 -0.4561
  495SOL     MW 1980   2.831   1.750   2.582 -0.0592  0.1069 -0.1714
  496SOL     OW 1981   2.925   2.364   2.660  0.1067 -0.4096 -0.3620
  496SOL    HW1 1982   2.955   2.326   2.740 -0.0811  2.7616 -0.5783
  496SOL    HW2 1983   2.964   2.453   2.658  0.7219  0.1425 -0.1333
  496SOL     MW 1984   2.934   2.371   2.670  0.1631  0.0817 -0.3603
  497SOL     OW 1985   1.551   2.211   2.661 -0.4088  0.6577 -0.0592
  497SOL    HW1 1986   1.488   2.145   2.629 -0.1496  1.4423  1.5631
  497SOL    HW2 1987   1.610   2.165   2.723 -0.5335 -1.4814  0.5447
  497SOL     MW 1988   1.550   2.197   2.665 -0.3910  0.4790  0.2345
  498SOL     OW 1989   1.489   2.672   2.369 -0.0915 -0.2787 -0.5910
  498SOL    HW1 1990   1.462   2.580   2.365  0.1557 -0.1429  0.1677
  498SOL    HW2 1991   1.581   2.679   2.378 -1.1736 -0.0470  1.5847
  498SOL     MW 1992   1.497   2.661   2.369 -0.2016 -0.2302 -0.2039
  499SOL     OW 1993   0.989   0.156   3.064 -0.5970 -0.4535  0.6754
  499SOL    HW1 1994   0.912   0.165   3.134 -0.2360  3.0616 -0.4218
  499SOL    HW2 1995   1.055   0.106   3.111  1.7509 -1.1577  1.4012
  499SOL     MW 1996   0.987   0.150   3.079 -0.2396 -0.0827  0.6264
  500SOL     OW 1997   1.048   2.495   2.764  0.3328 -0.1384  0.4746
  500SOL    HW1 1998   1.128   2.481   2.817 -0.5105 -2.2234 -1.3089
  500SOL    HW2 1999   0.979   2.499   2.830 -1.5918  0.3478  0.6910
  500SOL     MW 2000   1.049   2.494   2.780 -0.0324 -0.3493  0.2678
  501SOL     OW 2001   1.766   2.212   3.083 -0.2954  0.2590 -0.2262
  501SOL    HW1 2002   1.733   2.300   3.071 -0.8854 -0.5922 -1.6496
  501SOL    HW2 2003   1.862   2.218   3.081  1.3713  0.0249  2.7402
  501SOL     MW 2004   1.774   2.224   3.081 -0.1533  0.1158 -0.0226
  502SOL     OW 2005   0.139   2.820   3.052 -0.3553  0.2914 -0.1549
  502SOL    HW1 2006   0.082   2.757   3.016  1.1221 -0.3483 -0.1365
  502SOL    HW2 2007   0.181   2.859   2.973  0.9321 -3.8374 -4.0682
  502SOL     MW 2008   0.137   2.817   3.036  0.0095 -0.3377 -0.6688
  503SOL     OW 2009   0.984   2.869   2.169  0.3038  0.9002 -0.1287
  503SOL    HW1 2010   0.947   2.811   2.101  2.6142 -2.3616  2.9688
  503SOL    HW2 2011   0.954   2.953   2.157  2.8902 -1.4646  1.3524
  503SOL     MW 2012   0.975   2.872   2.158  0.9499  0.1578  0.4754
  504SOL     OW 2013   0.054   2.740   2.153  0.5611 -0.2409 -0.2938
  504SOL    HW1 2014   0.073   2.669   2.087  1.8899 -0.9469  0.1480
  504SOL    HW2 2015   0.062   2.713   2.248 -1.5552 -0.5062 -1.4430
  504SOL     MW 2016   0.057   2.727   2.156  0.4572 -0.3690 -0.3871
  505SOL     OW 2017   1.720   2.731   2.672 -0.1311  0.1026  0.2361
  505SOL    HW1 2018   1.687   2.775   2.593 -1.2897  1.2694 -0.2258
  505SOL    HW2 2019   1.649   2.735   2.736  1.6211 -1.2710 -0.5971
  505SOL     MW 2020   1.706   2.737   2.670 -0.0528  0.0753  0.0652
  506SOL     OW 2021   1.610   2.990   2.820  0.2639 -0.2159  0.2250
  506SOL    HW1 2022   1.641   2.958   2.905 -0.3388 -0.6937  0.4619
  506SOL    HW2 2023   1.686   3.006   2.760  0.4620 -0.8701  0.6278
  506SOL     MW 2024   1.624   2.988   2.823  0.2105 -0.3653  0.3094
  507SOL     OW 2025   0.819   2.753   2.887 -0.2358  0.7872  0.0318
  507SOL    HW1 2026   0.881   2.796   2.831 -0.7730 -2.2738  3.1680
  507SOL    HW2 2027   0.758   2.829   2.907  1.6635 -0.0396 -0.5796
  507SOL     MW 2028   0.819   2.769   2.882 -0.0561  0.2743  0.3650
  508SOL     OW 2029   1.136   2.027   2.528  0.7785  0.3298 -0.3088
  508SOL    HW1 2030   1.206   2.023   2.592 -1.8918  0.5600  0.3332
  508SOL    HW2 2031   1.089   2.108   2.543 -2.2588 -1.9976 -2.3353
  508SOL     MW 2032   1.139   2.037   2.538  0.0254  0.0531 -0.4915
  509SOL     OW 2033   0.578   2.537   2.903 -0.6764 -0.3073 -0.5248
  509SOL    HW1 2034   0.564   2.537   2.805  1.1876 -0.1109 -4.6095
  509SOL    HW2 2035   0.508   2.481   2.933 -1.0281 -0.8856 -2.2541
  509SOL     MW 2036   0.567   2.530   2.894 -0.4769 -0.3577 -1.2919
  510SOL     OW 2037   1.511   2.534   1.715 -0.0867 -0.7595 -0.1433
  510SOL    HW1 2038   1.516   2.628   1.735  0.5265  0.3420  0.2237
  510SOL    HW2 2039   1.444   2.505   1.770 -0.2960  0.0863 -0.3965
  510SOL     MW 2040   1.503   2.542   1.725 -0.0334 -0.5025 -0.1283
  511SOL     OW 2041   0.388   2.604   2.449  0.7640 -0.1755  0.2603
  511SOL    HW1 2042   0.455   2.618   2.511 -1.7897 -1.6550 -0.7234
  511SOL    HW2 2043   0.422   2.579   2.362 -1.8649 -0.5635  2.9856
  511SOL     MW 2044   0.402   2.602   2.446  0.0802 -0.4219  0.4901
  512SOL     OW 2045   1.012   1.981   2.839 -0.5787 -0.3247  0.1476
  512SOL    HW1 2046   0.931   2.019   2.868  0.5218  0.1444  1.9216
  512SOL    HW2 2047   1.032   1.900   2.886  0.8423  0.0525 -0.4151
  512SOL     MW 2048   1.004   1.975   2.849 -0.2460 -0.2131  0.3074
  513SOL     OW 2049   1.453   2.416   2.400 -0.0524  0.2730  0.1331
  513SOL    HW1 2050   1.549   2.415   2.429  2.6958  2.9511 -2.6683
  513SOL    HW2 2051   1.432   2.321   2.404  2.0246 -0.7544  1.0208
  513SOL     MW 2052   1.463   2.403   2.405  0.5842  0.4908 -0.1194
  514SOL     OW 2053   0.226   2.433   2.624 -0.3711  0.0939  0.5658
  514SOL    HW1 2054   0.259   2.497   2.554  3.6290 -0.5717 -1.9962
  514SOL    HW2 2055   0.251   2.470   2.715 -1.6135 -1.8370  2.2309
  514SOL     MW 2056   0.234   2.446   2.627 -0.0073 -0.2487  0.4474
  515SOL     OW 2057   1.128   2.040   1.947  0.6499  0.7834 -0.0761
  515SOL    HW1 2058   1.061   2.104   1.943  3.6568  0.2043 -0.9027
  515SOL    HW2 2059   1.178   2.054   2.029 -1.6602 -0.2628 -1.5284
  515SOL     MW 2060   1.126   2.050   1.958  0.7419  0.5689 -0.3768
  516SOL     OW 2061   1.455   2.533   3.040  0.0594  0.1922 -0.4688
  516SOL    HW1 2062   1.524   2.514   2.980 -2.3630 -0.1970  0.7526
  516SOL    HW2 2063   1.382   2.487   3.008  1.0443 -0.8092 -2.0022
  516SOL     MW 2064   1.455   2.524   3.028 -0.1303  0.0087 -0.5100
  517SOL     OW 2065   0.594   2.400   2.128 -0.0140  0.4331  0.3850
  517SOL    HW1 2066   0.583   2.498   2.129  0.2562 -3.8379 -0.5692
  517SOL    HW2 2067   0.518   2.354   2.092  0.6252 -1.1624 -2.6718
  517SOL     MW 2068   0.582   2.407   2.123  0.1060 -0.3409 -0.1442
  518SOL     OW 2069   1.891   0.090   2.951  0.3177 -0.4170  0.1063
  518SOL    HW1 2070   1.828   0.135   2.893 -0.8864  0.3839  0.2090
  518SOL    HW2 2071   1.846   0.096   3.038 -1.9397  1.8269 -0.3963
  518SOL     MW 2072   1.876   0.097   2.955 -0.1390 -0.0153  0.0535
  519SOL     OW 2073   0.723   2.573   1.778 -0.1323 -0.1454  0.2025
  519SOL    HW1 2074   0.696   2.476   1.777  0.4298 -3.3921  0.6461
  519SOL    HW2 2075   0.658   2.617   1.831 -0.7962 -0.3307  3.0225
  519SOL     MW 2076   0.711   2.566   1.785 -0.1458 -0.5983  0.6331
  520SOL     OW 2077   1.221   2.146   2.917  0.0063  0.7601  0.0741
  520SOL    HW1 2078   1.154   2.080   2.891  0.5923  0.8989  1.3722
  520SOL    HW2 2079   1.266   2.111   2.993 -0.2414  1.9346  2.1121
  520SOL     MW 2080   1.218   2.133   2.924  0.0509  0.9334  0.5142
  521SOL     OW 2081   1.749   2.022   2.227  0.3182 -0.2787  0.0654
  521SOL    HW1 2082   1.764   2.068   2.143  2.4712  0.3384  0.8665
  521SOL    HW2 2083   1.757   1.928   2.219  1.0214 -0.3440  0.7888
  521SOL     MW 2084   1.752   2.016   2.215  0.6950 -0.2059  0.2665
  522SOL     OW 2085   2.824   2.578   2.200  0.3870  0.5127  0.2982
  522SOL    HW1 2086   2.882   2.521   2.242 -0.1737 -0.8479  1.4633
  522SOL    HW2 2087   2.778   2.630   2.265 -1.4822 -0.1823  1.6128
  522SOL     MW 2088   2.826   2.577   2.214  0.0664  0.2415  0.6253
  523SOL     OW 2089   0.835   1.498   2.135  0.1094  0.3446  0.3501
  523SOL    HW1 2090   0.821   1.575   2.076 -0.9401 -1.3648 -0.6962
  523SOL    HW2 2091   0.897   1.439   2.084  1.0622 -0.0815  0.6435
  523SOL     MW 2092   0.841   1.500   2.120  0.0966  0.0628  0.2507
  524SOL     OW 2093   0.860   2.455   2.968 -0.4620  0.0426 -0.2990
  524SOL    HW1 2094   0.811   2.530   2.927 -1.2849 -1.5791  1.0142
  524SOL    HW2 2095   0.818   2.375   2.936  2.1325 -3.0193  1.4011
  524SOL     MW 2096   0.848   2.455   2.959 -0.2282 -0.5754  0.0986
  525SOL     OW 2097   0.364   2.300   2.041 -0.1142  0.7577 -0.7236
  525SOL    HW1 2098   0.364   2.223   2.107  1.3024 -0.3490  0.6558
  525SOL    HW2 2099   0.360   2.259   1.953 -1.8647 -1.0939  0.8880
  525SOL     MW 2100   0.363   2.285   2.038 -0.1582  0.3674 -0.3290
  526SOL     OW 2101   0.641   2.111   2.061 -0.1631  0.4310  0.5651
  526SOL    HW1 2102   0.627   2.145   1.974  1.8630  0.4143  0.7157
  526SOL    HW2 2103   0.674   2.190   2.106  0.6402  0.0025 -0.3244
  526SOL     MW 2104   0.643   2.126   2.055  0.2102  0.3722  0.4676
  527SOL     OW 2105   1.394   1.979   2.098  0.0816 -0.3507  1.0359
  527SOL    HW1 2106   1.374   1.968   2.195  0.3640  0.2776  3.0280
  527SOL    HW2 2107   1.423   1.891   2.071 -0.5422  0.0509  0.5456
  527SOL     MW 2108   1.395   1.966   2.108  0.0366 -0.2148  1.2340
  528SOL     OW 2109   0.643   2.951   2.955 -0.4148  0.9640 -0.0866
  528SOL    HW1 2110   0.701   3.023   2.938  0.3074  0.4881  0.4562
  528SOL    HW2 2111   0.579   2.947   2.883  0.1269 -1.0085 -0.7650
  528SOL     MW 2112   0.643   2.960   2.943 -0.2481  0.6410 -0.1045
  529SOL     OW 2113   0.961   2.267   1.949  0.5202  0.0077  0.1136
  529SOL    HW1 2114   0.999   2.297   2.034 -1.8489  0.1570  1.5627
  529SOL    HW2 2115   1.015   2.310   1.887 -1.7352  2.9431  1.5200
  529SOL     MW 2116   0.973   2.276   1.952 -0.0899  0.4147  0.4903
  530SOL     OW 2117   1.232   2.411   2.971 -0.7017 -0.0918 -0.5216
  530SOL    HW1 2118   1.167   2.417   3.040  3.3460  2.3051 -0.1203
  530SOL    HW2 2119   1.228   2.319   2.941  2.4494 -1.2303  1.0625
  530SOL     MW 2120   1.223   2.400   2.976  0.2481  0.0742 -0.2597
  531SOL     OW 2121   0.931   1.852   2.570 -0.2106 -0.1858  0.5608
  531SOL    HW1 2122   1.006   1.909   2.579  1.0527 -1.1299 -4.4344
  531SOL    HW2 2123   0.887   1.853   2.649 -0.7668 -0.8216 -2.8552
  531SOL     MW 2124   0.935   1.860   2.581 -0.1173 -0.3943 -0.5490
  532SOL     OW 2125   1.754   0.227   2.770 -0.7284 -0.7592 -0.3055
  532SOL    HW1 2126   1.659   0.209   2.746  0.1622 -1.7393 -0.7559
  532SOL    HW2 2127   1.813   0.205   2.695 -1.3256 -1.7625  1.1880
  532SOL     MW 2128   1.749   0.222   2.757 -0.6897 -1.0209 -0.1679
  533SOL     OW 2129   1.917   2.584   0.006  0.7932 -0.7533  0.1198
  533SOL    HW1 2130   1.857   2.533   0.063  0.1283  1.0922  1.2965
  533SOL    HW2 2131   1.863   2.669  -0.006  0.3555  1.0144 -0.5862
  533SOL     MW 2132   1.902   2.589   0.012  0.6477 -0.2766  0.1819
  534SOL     OW 2133   1.711   2.371   2.480 -0.3344 -0.4141  0.4375
  534SOL    HW1 2134   1.679   2.292   2.522  0.4271 -0.1122  0.0600
  534SOL    HW2 2135   1.783   2.409   2.539  0.8424  1.7255  0.4829
  534SOL     MW 2136   1.716   2.365   2.493 -0.0786 -0.0920  0.3937
  535SOL     OW 2137   1.892   2.411   1.862 -0.0993 -0.2505  0.1160
  535SOL    HW1 2138   1.852   2.394   1.776 -0.6157 -1.5733  1.4239
  535SOL    HW2 2139   1.983   2.389   1.838 -1.6623  0.9660 -1.6469
  535SOL     MW 2140   1.899   2.406   1.847 -0.3736 -0.2645  0.0559
  536SOL     OW 2141   0.489   1.848   2.133 -0.5236  0.3574  0.3517
  536SOL    HW1 2142   0.465   1.817   2.042  1.1698 -1.8766  3.1297
  536SOL    HW2 2143   0.544   1.919   2.119 -0.9504 -0.9088  1.5786
  536SOL     MW 2144   0.493   1.853   2.119 -0.3565 -0.1044  0.8801
  537SOL     OW 2145   1.080   0.263   2.777 -0.1218  0.4342 -0.1533
  537SOL    HW1 2146   1.062   0.313   2.855  0.1565  2.2932  1.0276
  537SOL    HW2 2147   1.062   0.328   2.702 -0.1822 -0.2627 -1.0434
  537SOL     MW 2148   1.075   0.278   2.777 -0.0930  0.5875 -0.1150
  538SOL     OW 2149   1.431   0.042   0.070  0.1126 -0.0700  0.2542
  538SOL    HW1 2150   1.431   0.137   0.061  0.2374 -1.7845 -1.7676
  538SOL    HW2 2151   1.339   0.026   0.045 -2.6296  1.1811  1.1265
  538SOL     MW 2152   1.419   0.052   0.066 -0.2327 -0.1311  0.1026
  539SOL     OW 2153   0.691   2.786   2.592  0.4150  0.0507  0.4457
  539SOL    HW1 2154   0.783   2.782   2.628  1.6015 -0.2392  0.0201
  539SOL    HW2 2155   0.650   2.697   2.618 -1.5798  0.4040 -1.4751
  539SOL     MW 2156   0.698   2.774   2.601  0.3084  0.0591  0.1361
  540SOL     OW 2157   0.258   2.462   2.894  0.4655 -0.2749 -0.1459
  540SOL    HW1 2158   0.288   2.537   2.950 -0.3314 -1.1375 -2.6498
  540SOL    HW2 2159   0.254   2.383   2.953  0.3952  1.5996 -0.0112
  540SOL     MW 2160   0.262   2.462   2.910  0.3511 -0.1414 -0.4585
  541SOL     OW 2161   0.252   2.954   2.143 -0.0441  0.2186  0.0731
  541SOL    HW1 2162   0.201   2.885   2.108  0.6097 -0.1647 -0.1358
  541SOL    HW2 2163   0.292   2.926   2.230  0.2934  0.2124  1.8237
  541SOL     MW 2164   0.251   2.941   2.150  0.0867  0.1672  0.2765
  542SOL     OW 2165   0.980   2.275   2.588 -0.1445  0.5350 -0.0414
  542SOL    HW1 2166   0.907   2.242   2.638 -1.4124 -1.0361 -1.3158
  542SOL    HW2 2167   1.034   2.327   2.655  0.1010 -0.2650  0.2181
  542SOL     MW 2168   0.978   2.278   2.603 -0.2794  0.2221 -0.1753
  543SOL     OW 2169   1.593   2.434   2.819 -0.8244 -0.0524  0.4933
  543SOL    HW1 2170   1.567   2.359   2.764  1.3807  2.0444  1.9892
  543SOL    HW2 2171   1.593   2.496   2.746  1.0373 -1.8039 -0.7282
  543SOL     MW 2172   1.589   2.432   2.802 -0.2878 -0.0068  0.5295
  544SOL     OW 2173   0.705   0.292   2.712 -0.2013  0.5464  0.2235
  544SOL    HW1 2174   0.611   0.285   2.736  1.4302  2.2414  2.7703
  544SOL    HW2 2175   0.722   0.234   2.638  1.4912 -0.9062  0.6948
  544SOL     MW 2176   0.695   0.284   2.705  0.2373  0.5784  0.6217
  545SOL     OW 2177   1.484   2.122   2.326  0.1186  0.0562  0.0249
  545SOL    HW1 2178   1.443   2.146   2.245  1.7665 -1.5432 -0.0367
  545SOL    HW2 2179   1.583   2.111   2.310 -1.1489  0.2925  2.0756
  545SOL     MW 2180   1.492   2.123   2.313  0.1688 -0.1237  0.2874
  546SOL     OW 2181   2.875   1.946   0.124 -0.1515 -0.0720  0.3909
  546SOL    HW1 2182   2.855   2.015   0.060 -2.2435  1.2249 -0.6312
  546SOL    HW2 2183   2.973   1.941   0.112  0.1003  0.2494  3.5331
  546SOL     MW 2184   2.885   1.955   0.114 -0.3943  0.1415  0.6706
  547SOL     OW 2185   0.222   0.080   0.098 -0.1504  0.6591  0.3726
  547SOL    HW1 2186   0.306   0.091   0.050  3.5768 -0.0839  0.6509
  547SOL    HW2 2187   0.155   0.035   0.050  0.4644  0.5453  0.8540
  547SOL     MW 2188   0.224   0.075   0.086  0.4225  0.5460  0.4728
  548SOL     OW 2189   0.324   2.505   0.244  0.6460  0.7247  0.4534
  548SOL    HW1 2190   0.341   2.561   0.167  0.4448  1.1102  1.2436
  548SOL    HW2 2191   0.248   2.457   0.224 -0.3003 -1.3353  1.3352
  548SOL     MW 2192   0.316   2.506   0.231  0.4946  0.5038  0.6740
  549SOL     OW 2193   0.848   1.934   2.108 -0.3591  0.4917 -0.0614
  549SOL    HW1 2194   0.790   1.997   2.073  0.5713 -3.0352 -0.8208
  549SOL    HW2 2195   0.823   1.924   2.199 -1.5046 -1.8548  1.2022
  549SOL     MW 2196   0.837   1.941   2.115 -0.3874 -0.2833  0.0051
  550SOL     OW 2197   1.889   1.697   2.500 -0.8539 -0.4670 -0.1131
  550SOL    HW1 2198   1.864   1.727   2.413  1.7160 -1.4651  1.3423
  550SOL    HW2 2199   1.843   1.747   2.565 -0.2280 -3.4194 -1.9136
  550SOL     MW 2200   1.880   1.707   2.497 -0.4323 -0.9882 -0.1586
  551SOL     OW 2201   0.918   2.214   0.212  0.5093  0.2760 -0.4665
  551SOL    HW1 2202   1.012   2.222   0.209 -2.0061 -2.5104 -3.1432
  551SOL    HW2 2203   0.903   2.151   0.136  1.5277 -2.1497 -1.8751
  551SOL     MW 2204   0.929   2.206   0.202  0.3118 -0.4117 -1.0055
  552SOL     OW 2205   1.757   1.729   2.248  0.1525  0.1090  0.3936
  552SOL    HW1 2206   1.671   1.702   2.244  4.5573  0.1503 -2.4998
  552SOL    HW2 2207   1.799   1.685   2.167 -2.1991 -1.1162  1.9436
  552SOL     MW 2208   1.752   1.720   2.237  0.4234 -0.0472  0.2163
  553SOL     OW 2209   1.228   2.316   1.557  0.2586 -0.2306  0.3577
  553SOL    HW1 2210   1.260   2.226   1.538 -0.7419  0.3556  1.3658
  553SOL    HW2 2211   1.286   2.383   1.517 -0.6555 -2.6358  3.8927
  553SOL     MW 2212   1.240   2.313   1.550  0.0060 -0.4706  0.9571
  554SOL     OW 2213   0.483   2.946   2.699  0.2757  0.6812 -0.0840
  554SOL    HW1 2214   0.475   3.011   2.634 -1.3523 -0.8423 -0.1075
  554SOL    HW2 2215   0.556   2.889   2.672 -1.3266 -0.8666 -2.1126
  554SOL     MW 2216   0.491   2.947   2.687 -0.1505  0.2760 -0.3547
  555SOL     OW 2217   0.625   2.529   2.633  0.8058  0.3588  0.2198
  555SOL    HW1 2218   0.576   2.442   2.620  0.2785  0.1766 -1.8252
  555SOL    HW2 2219   0.708   2.517   2.583 -1.4252  0.6086  1.4689
  555SOL     MW 2220   0.630   2.516   2.625  0.4419  0.3677  0.1148
  556SOL     OW 2221   1.066   1.871   0.059  0.2890 -0.3777 -0.0303
  556SOL    HW1 2222   1.082   1.815  -0.016  0.1580  2.0375 -0.9540
  556SOL    HW2 2223   1.125   1.852   0.128  2.9902  1.2149 -0.9725
  556SOL     MW 2224   1.076   1.861   0.058  0.6281  0.1511 -0.2765
  557SOL     OW 2225   1.050   2.725   0.557  0.2196 -0.2667  0.3355
  557SOL    HW1 2226   1.076   2.659   0.502  1.7503  1.3980  1.4768
  557SOL    HW2 2227   1.028   2.802   0.502  0.9098 -3.1723 -0.9873
  557SOL     MW 2228   1.051   2.727   0.542  0.5127 -0.4304  0.3116
  558SOL     OW 2229   0.204   2.237   3.040  0.4631  0.1383 -0.7059
  558SOL    HW1 2230   0.195   2.144   3.017  3.5603  0.2571  1.4326
  558SOL    HW2 2231   0.158   2.251   3.126 -0.0504  1.7733  3.3707
  558SOL     MW 2232   0.196   2.226   3.048  0.8040  0.3697  0.1141
  559SOL     OW 2233   1.063   2.349   2.202 -0.2063 -0.5344  1.2235
  559SOL    HW1 2234   1.156   2.360   2.187  0.9292 -1.5058  0.1981
  559SOL    HW2 2235   1.054   2.264   2.246 -0.4551  0.5888 -1.4285
  559SOL     MW 2236   1.074   2.340   2.206 -0.0893 -0.5144  0.7383
  560SOL     OW 2237   2.147   2.670   0.167  0.4738  0.1301 -0.1446
  560SOL    HW1 2238   2.188   2.748   0.126  2.7456 -1.8215  1.7324
  560SOL    HW2 2239   2.075   2.640   0.110  0.5326  0.2925 -1.1421
  560SOL     MW 2240   2.143   2.676   0.154  0.7813 -0.1060 -0.0286
  561SOL     OW 2241   0.495   2.173   0.184 -0.2744  0.2412  0.7576
  561SOL    HW1 2242   0.425   2.214   0.132 -0.4239  0.9894 -0.7511
  561SOL    HW2 2243   0.535   2.250   0.231 -0.8300  1.0075 -1.3452
  561SOL     MW 2244   0.491   2.189   0.183 -0.3674  0.4411  0.2811
  562SOL     OW 2245   0.675   2.275   2.360 -0.8549  0.3904 -0.4176
  562SOL    HW1 2246   0.614   2.323   2.309 -0.4553 -2.1968 -2.1646
  562SOL    HW2 2247   0.744   2.318   2.408 -2.7746 -0.1819 -0.7155
  562SOL     MW 2248   0.676   2.287   2.360 -1.0555 -0.0264 -0.6874
  563SOL     OW 2249   1.227   0.392   0.579  0.2564 -0.0458 -0.0235
  563SOL    HW1 2250   1.168   0.339   0.526  4.2986  1.2517 -0.3729
  563SOL    HW2 2251   1.225   0.359   0.664  0.5522  2.4832 -1.7020
  563SOL     MW 2252   1.219   0.381   0.583  0.8287  0.4591 -0.2911
  564SOL     OW 2253   1.017   2.670   2.359 -0.3609  0.1732 -0.4312
  564SOL    HW1 2254   1.044   2.733   2.286 -1.5804 -2.8054 -0.1895
  564SOL    HW2 2255   1.047   2.694   2.450 -0.6731  0.4778 -1.8926
  564SOL     MW 2256   1.024   2.682   2.361 -0.5630 -0.1796 -0.5921
  565SOL     OW 2257   2.757   2.813   2.590 -0.2252 -0.7800  1.0063
  565SOL    HW1 2258   2.744   2.888   2.531  0.9232 -0.9284  1.4083
  565SOL    HW2 2259   2.718   2.732   2.550 -0.9255  2.8569  0.5682
  565SOL     MW 2260   2.750   2.812   2.577 -0.1661 -0.3197  1.0015
  566SOL     OW 2261   2.193   1.964   2.350 -0.1978  0.1798 -0.0049
  566SOL    HW1 2262   2.188   1.934   2.263 -0.4906 -1.6561  1.0208
  566SOL    HW2 2263   2.280   1.997   2.342 -2.2405 -0.6273  1.8717
  566SOL     MW 2264   2.204   1.964   2.338 -0.5060 -0.1689  0.3780
  567SOL     OW 2265   1.176   3.060   0.028 -0.4519  0.8901 -0.4978
  567SOL    HW1 2266   1.157   3.077   0.120  0.9376  0.1631 -1.4701
  567SOL    HW2 2267   1.212   2.968   0.033 -2.7258 -1.1028 -0.7640
  567SOL     MW 2268   1.178   3.050   0.041 -0.5686  0.5313 -0.6612
  568SOL     OW 2269   1.648   2.029   2.845 -0.0867 -0.2329  0.4809
  568SOL    HW1 2270   1.706   2.080   2.903 -0.4000 -2.2212 -1.4435
  568SOL    HW2 2271   1.714   1.975   2.794  0.6336 -1.9678 -1.8690
  568SOL     MW 2272   1.665   2.029   2.846 -0.0330 -0.7241 -0.0831
  569SOL     OW 2273   0.118   2.252   2.443  0.3624 -0.2092  0.2445
  569SOL    HW1 2274   0.052   2.314   2.404  0.4442 -1.5022  1.6895
  569SOL    HW2 2275   0.160   2.296   2.515  0.4508  2.7205 -3.1072
  569SOL     MW 2276   0.115   2.266   2.447  0.3849  0.0067 -0.0070
  570SOL     OW 2277   1.497   0.327   0.459  0.2362 -0.2956 -0.1573
  570SOL    HW1 2278   1.410   0.328   0.500 -2.8058 -0.4201 -1.2416
  570SOL    HW2 2279   1.551   0.381   0.519 -0.4266 -1.9749 -2.7407
  570SOL     MW 2280   1.493   0.335   0.473 -0.2526 -0.5336 -0.6412
  571SOL     OW 2281   1.343   2.384   2.140  0.2580 -0.1012 -0.0441
  571SOL    HW1 2282   1.403   2.416   2.211  0.4998 -0.0118 -0.5928
  571SOL    HW2 2283   1.402   2.327   2.084  0.0413  0.0882 -1.6908
  571SOL     MW 2284   1.359   2.381   2.142  0.2613 -0.0644 -0.3337
  572SOL     OW 2285   1.090   2.583   0.085  0.6426  0.5172  0.1007
  572SOL    HW1 2286   1.098   2.676   0.040  1.3027 -1.3284  3.8240
  572SOL    HW2 2287   0.993   2.573   0.104 -0.1351 -0.0868 -0.3965
  572SOL     MW 2288   1.078   2.594   0.082  0.6271  0.1940  0.5263
  573SOL     OW 2289   1.183   2.271   0.255  0.0222  0.3022  0.4809
  573SOL    HW1 2290   1.251   2.295   0.194  0.1418 -0.9685 -0.5126
  573SOL    HW2 2291   1.172   2.352   0.308 -0.7819  0.4838  3.1588
  573SOL     MW 2292   1.190   2.285   0.254 -0.0681  0.1585  0.7031
  574SOL     OW 2293   1.157   2.524   0.355 -0.1860  0.6091  0.3477
  574SOL    HW1 2294   1.222   2.598   0.358  0.8668  3.5513 -0.7896
  574SOL    HW2 2295   1.138   2.531   0.259 -1.5479 -0.8881  2.6791
  574SOL     MW 2296   1.163   2.535   0.343 -0.2268  0.7998  0.5053
  575SOL     OW 2297   3.071   2.196   1.613  0.0218  0.0312 -0.5695
  575SOL    HW1 2298   3.087   2.103   1.589 -1.2403 -0.3547 -1.1483
  575SOL    HW2 2299   3.152   2.233   1.643 -0.0132 -0.2184  1.6183
  575SOL     MW 2300   3.084   2.188   1.614 -0.1494 -0.0526 -0.3572
  576SOL     OW 2301   2.879   1.879   1.960  1.0995  0.3183  0.1910
  576SOL    HW1 2302   2.918   1.942   1.902 -0.2992  0.4492 -2.0569
  576SOL    HW2 2303   2.816   1.842   1.897 -2.8609 -0.5260 -0.3916
  576SOL     MW 2304   2.876   1.883   1.944  0.3924  0.2242 -0.1825
  577SOL     OW 2305   2.108   0.139   0.015  0.0383 -0.2799  0.3498
  577SOL    HW1 2306   2.043   0.132  -0.060 -0.0629 -0.8874 -2.3415
  577SOL    HW2 2307   2.072   0.099   0.091  2.1519  0.1479 -0.8814
  577SOL     MW 2308   2.095   0.133   0.015  0.3038 -0.3036 -0.1678
  578SOL     OW 2309   1.986   2.141   2.361  0.0320 -0.2943 -0.7162
  578SOL    HW1 2310   1.911   2.093   2.321  0.5640 -0.1941  1.7679
  578SOL    HW2 2311   2.073   2.093   2.342  0.4335  1.1901 -0.1838
  578SOL     MW 2312   1.987   2.128   2.353  0.1552 -0.0853 -0.3182
  579SOL     OW 2313   0.836   2.482   2.474  0.2316  1.1726  0.5502
  579SOL    HW1 2314   0.888   2.416   2.511  1.5742  2.9339 -1.9568
  579SOL    HW2 2315   0.886   2.548   2.429  0.0842  0.2766  0.3270
  579SOL     MW 2316   0.849   2.482   2.473  0.3893  1.2868  0.1900
  580SOL     OW 2317   0.972   2.861   3.090 -0.0010  0.0795  0.3562
  580SOL    HW1 2318   1.027   2.935   3.064 -0.7828 -0.1137  2.2699
  580SOL    HW2 2319   0.904   2.831   3.022 -1.3719 -1.5739  1.2303
  580SOL     MW 2320   0.971   2.867   3.078 -0.2850 -0.1641  0.7241
  581SOL     OW 2321   1.120   2.441   1.779 -0.3633  0.1653 -0.0097
  581SOL    HW1 2322   1.178   2.494   1.835  1.1123 -0.5222  2.0816
  581SOL    HW2 2323   1.177   2.401   1.716  1.2631  0.5765  0.7062
  581SOL     MW 2324   1.136   2.443   1.778  0.0460  0.1288  0.3607
  582SOL     OW 2325   3.086   2.956   2.653  0.0639  0.6067  0.0916
  582SOL    HW1 2326   3.008   2.977   2.707  1.1063 -3.7663 -2.2017
  582SOL    HW2 2327   3.140   2.905   2.715 -0.1774 -2.5844 -1.5684
  582SOL     MW 2328   3.083   2.952   2.669  0.1696 -0.3913 -0.4300
  583SOL     OW 2329   1.951   2.417   2.642 -0.3778  0.0741  0.8031
  583SOL    HW1 2330   2.034   2.424   2.596 -2.7878  0.3280 -0.1504
  583SOL    HW2 2331   1.943   2.319   2.648  0.3624 -1.6102  0.0601
  583SOL     MW 2332   1.961   2.405   2.637 -0.5981 -0.1146  0.5792
  584SOL     OW 2333   0.179   1.905   2.198  0.6704  0.2871  0.2569
  584SOL    HW1 2334   0.168   1.878   2.288  1.8493  4.6417  1.0508
  584SOL    HW2 2335   0.246   1.975   2.212 -0.6629 -0.1552  1.5963
  584SOL     MW 2336   0.186   1.910   2.212  0.6500  0.8033  0.5384
  585SOL     OW 2337   1.553   2.706   0.167  0.1007 -0.2895  0.0390
  585SOL    HW1 2338   1.503   2.699   0.086 -1.1600  1.6341 -0.8303
  585SOL    HW2 2339   1.485   2.722   0.235  2.2578  0.4086 -0.5077
  585SOL     MW 2340   1.537   2.707   0.165  0.2190  0.0564 -0.1478
  586SOL     OW 2341   1.339   2.814   2.552 -0.1322 -0.3770 -0.0617
  586SOL    HW1 2342   1.386   2.778   2.475 -1.0055  0.0521  0.3251
  586SOL    HW2 2343   1.359   2.907   2.546  1.9029  1.5119  0.1927
  586SOL     MW 2344   1.348   2.821   2.541  0.0211 -0.0712  0.0229
  587SOL     OW 2345   1.332   1.442   2.169 -0.6397 -0.0891 -0.1240
  587SOL    HW1 2346   1.285   1.377   2.220  0.6910  0.4115 -1.7162
  587SOL    HW2 2347   1.345   1.401   2.080  2.4530  0.4604 -0.7285
  587SOL     MW 2348   1.327   1.428   2.164 -0.0561  0.0494 -0.4138
  588SOL     OW 2349   1.341   2.015   2.702 -0.4029  0.0636 -0.3102
  588SOL    HW1 2350   1.372   1.930   2.728  0.3550  1.5275 -1.1743
  588SOL    HW2 2351   1.314   2.066   2.780 -2.4584 -0.0958  1.1763
  588SOL     MW 2352   1.342   2.011   2.716 -0.5741  0.2357 -0.2281
  589SOL     OW 2353   1.362   2.024   0.047 -0.9188 -0.2552 -0.4148
  589SOL    HW1 2354   1.396   2.101   0.101 -1.3517  1.2692 -0.4809
  589SOL    HW2 2355   1.332   1.964   0.115 -0.7454 -1.6909 -0.7192
  589SOL     MW 2356   1.362   2.026   0.063 -0.9530 -0.2435 -0.4636
  590SOL     OW 2357   0.515   2.666   2.176 -0.3296  0.0595  0.6810
  590SOL    HW1 2358   0.511   2.669   2.080 -1.4996 -2.2259 -1.7594
  590SOL    HW2 2359   0.589   2.719   2.210  0.0904 -0.4650 -0.0751
  590SOL     MW 2360   0.524   2.673   2.168 -0.4286 -0.3113  0.2593
  591SOL     OW 2361   2.207   0.672   0.160 -0.2111 -0.4252  0.3734
  591SOL    HW1 2362   2.133   0.707   0.218 -1.7730  2.0143  1.6866
  591SOL    HW2 2363   2.191   0.740   0.096 -0.5997  1.0394 -2.3239
  591SOL     MW 2364   2.195   0.686   0.159 -0.4685  0.0899  0.1908
  592SOL     OW 2365   1.660   2.915   0.800  0.0399 -0.5947 -0.6113
  592SOL    HW1 2366   1.661   3.008   0.793 -1.2901 -0.4338  0.6928
  592SOL    HW2 2367   1.753   2.888   0.813  0.5964  1.7616  0.2899
  592SOL     MW 2368   1.672   2.924   0.801 -0.0622 -0.2626 -0.3204
  593SOL     OW 2369   1.927   0.714   0.752  0.3488 -0.2035  0.0121
  593SOL    HW1 2370   1.866   0.726   0.677  0.3135  0.2776 -3.6265
  593SOL    HW2 2371   1.975   0.636   0.721 -2.9412 -0.9105  0.1392
  593SOL     MW 2372   1.925   0.705   0.738 -0.0899 -0.2333 -0.4512
  594SOL     OW 2373   2.806   0.999   1.399  0.4432  0.0831 -0.5914
  594SOL    HW1 2374   2.879   1.027   1.347 -0.7104  0.1926 -3.6049
  594SOL    HW2 2375   2.731   1.032   1.355  2.7095 -0.1498 -2.9275
  594SOL     MW 2376   2.806   1.008   1.386  0.5900  0.0668 -1.2973
  595SOL     OW 2377   0.531   0.918   0.843  0.3005  0.4902  0.2997
  595SOL    HW1 2378   0.488   0.944   0.761 -2.3951 -0.4763  0.0858
  595SOL    HW2 2379   0.575   0.998   0.884 -1.2417 -0.0129  0.0544
  595SOL     MW 2380   0.531   0.932   0.838 -0.2586  0.2963  0.2391
  596SOL     OW 2381   2.458   1.371   0.480 -0.3250  0.1096 -0.4472
  596SOL    HW1 2382   2.442   1.445   0.424 -2.3710  0.9000  1.2566
  596SOL    HW2 2383   2.514   1.417   0.539 -0.0496 -1.6223 -0.7048
  596SOL     MW 2384   2.463   1.387   0.481 -0.5586 -0.0146 -0.2564
  597SOL     OW 2385   2.234   0.644   1.564 -0.2257 -0.1964 -0.2785
  597SOL    HW1 2386   2.267   0.616   1.647 -1.7640 -0.5662 -1.9967
  597SOL    HW2 2387   2.175   0.574   1.531  0.6252  3.8601  1.2461
  597SOL     MW 2388   2.230   0.631   1.571 -0.3164  0.2900 -0.3040
  598SOL     OW 2389   2.594   1.036   2.896  0.1506 -0.1811  0.1102
  598SOL    HW1 2390   2.596   0.941   2.899 -0.4947 -0.7750 -1.8634
  598SOL    HW2 2391   2.681   1.071   2.890 -0.8362 -2.0617 -0.0093
  598SOL     MW 2392   2.606   1.028   2.895 -0.0648 -0.5076 -0.1659
  599SOL     OW 2393   3.078   0.473   2.276 -0.4445  0.3136  0.1102
  599SOL    HW1 2394   3.171   0.487   2.313 -0.3293  1.3318 -0.4397
  599SOL    HW2 2395   3.077   0.528   2.196  0.9485  2.2942 -3.2535
  599SOL     MW 2396   3.090   0.482   2.271 -0.2455  0.7092 -0.4062
  600SOL     OW 2397   1.823   1.709   0.834 -0.2388  0.0070  0.1807
  600SOL    HW1 2398   1.862   1.747   0.913 -1.3805 -1.5730  0.0679
  600SOL    HW2 2399   1.748   1.768   0.814  0.4050 -0.0774 -0.1696
  600SOL     MW 2400   1.818   1.722   0.842 -0.3045 -0.2126  0.1196
  601SOL     OW 2401   2.549   0.764   0.852 -0.1871 -0.1042  0.8381
  601SOL    HW1 2402   2.551   0.733   0.939  0.6792  1.1896 -1.3964
  601SOL    HW2 2403   2.501   0.703   0.799 -1.8453  2.2373 -1.4407
  601SOL     MW 2404   2.543   0.752   0.857 -0.2916  0.3755  0.2427
  602SOL     OW 2405   2.261   1.907   0.763  0.1032  0.8572  0.1290
  602SOL    HW1 2406   2.195   1.843   0.732 -0.0959 -1.6735 -1.4863
  602SOL    HW2 2407   2.229   1.989   0.743  1.7239 -2.9474 -1.8163
  602SOL     MW 2408   2.248   1.910   0.756  0.2908  0.0213 -0.3408
  603SOL     OW 2409   2.987   1.366   1.963  0.1184 -0.1246  0.1769
  603SOL    HW1 2410   2.976   1.407   2.044 -0.0076 -0.1843 -1.5392
  603SOL    HW2 2411   3.044   1.298   1.984  0.9412  1.0359 -3.2051
  603SOL     MW 2412   2.993   1.363   1.976  0.2103  0.0206 -0.4957
  604SOL     OW 2413   2.016   1.373   0.345  0.0484  0.4997 -0.3828
  604SOL    HW1 2414   2.087   1.342   0.403 -2.8718  0.2575  0.6964
  604SOL    HW2 2415   1.942   1.385   0.406 -0.5214 -0.8177  1.2279
  604SOL     MW 2416   2.016   1.371   0.360 -0.4120  0.2940 -0.0279
  605SOL     OW 2417   2.432   1.446   0.811  0.2428  0.3612  0.6131
  605SOL    HW1 2418   2.424   1.505   0.738 -1.5493 -1.9481 -1.8534
  605SOL    HW2 2419   2.485   1.373   0.778 -0.0916  0.0486  1.9119
  605SOL     MW 2420   2.438   1.444   0.797 -0.0378  0.0153  0.4590
  606SOL     OW 2421   2.699   1.756   1.802 -0.0171 -0.0099 -0.4127
  606SOL    HW1 2422   2.611   1.762   1.835  0.1641  0.2290  1.4655
  606SOL    HW2 2423   2.707   1.656   1.804  0.5484  0.9278 -1.9182
  606SOL     MW 2424   2.688   1.743   1.806  0.0814  0.1453 -0.3635
  607SOL     OW 2425   2.381   0.971   3.074 -0.2571  0.7931  0.1183
  607SOL    HW1 2426   2.458   1.018   3.039 -0.1274  0.1896  1.2833
  607SOL    HW2 2427   2.394   0.984   3.172 -0.8287 -2.8616 -1.4378
  607SOL     MW 2428   2.393   0.979   3.083 -0.3154  0.2313  0.0667
  608SOL     OW 2429   1.871   0.248   0.506  0.2061 -0.0080 -0.1335
  608SOL    HW1 2430   1.865   0.278   0.413  2.0623  0.0539 -3.5782
  608SOL    HW2 2431   1.835   0.155   0.515 -1.7600  0.1953 -2.0529
  608SOL     MW 2432   1.865   0.240   0.495  0.1916  0.0270 -0.8412
  609SOL     OW 2433   2.130   1.886   3.060  0.1102  0.1287  0.1984
  609SOL    HW1 2434   2.058   1.833   3.014 -0.2080  1.1023 -0.6322
  609SOL    HW2 2435   2.122   1.844   3.146 -1.5921 -1.1026 -1.0400
  609SOL     MW 2436   2.120   1.873   3.066 -0.1564  0.0947 -0.0746
  610SOL     OW 2437   1.814   0.943   1.205 -0.3605 -0.1168 -0.4178
  610SOL    HW1 2438   1.819   0.859   1.159  1.1103 -0.6073  1.0406
  610SOL    HW2 2439   1.714   0.962   1.236 -2.9979  1.7854 -0.8636
  610SOL     MW 2440   1.801   0.934   1.203 -0.5144  0.0695 -0.2842
  611SOL     OW 2441   2.462   1.656   0.601  0.1380 -0.3049 -0.5297
  611SOL    HW1 2442   2.462   1.617   0.518 -2.0748 -2.2967  1.4932
  611SOL    HW2 2443   2.450   1.746   0.585  0.6652  0.3251  1.1867
  611SOL     MW 2444   2.461   1.663   0.588 -0.0844 -0.4846 -0.0363
  612SOL     OW 2445   2.874   2.916   0.358 -0.3899 -0.4589  0.3990
  612SOL    HW1 2446   2.892   2.941   0.454  0.1344 -2.0567  2.3186
  612SOL    HW2 2447   2.966   2.900   0.329  0.1924  1.2699  1.3253
  612SOL     MW 2448   2.889   2.917   0.367 -0.2439 -0.4416  0.7745
  613SOL     OW 2449   1.427   1.104   1.002 -0.3433 -0.2057 -0.1720
  613SOL    HW1 2450   1.454   1.197   1.005  1.7823 -1.9318  0.1888
  613SOL    HW2 2451   1.455   1.077   1.092 -1.9184  2.6379  1.5310
  613SOL     MW 2452   1.435   1.112   1.015 -0.2707 -0.0583  0.1003
  614SOL     OW 2453   2.038   0.472   1.411  0.4312  0.1372  0.9408
  614SOL    HW1 2454   2.011   0.418   1.491  0.9774 -0.4852 -0.0169
  614SOL    HW2 2455   1.966   0.521   1.376 -0.4163 -0.8393 -0.7760
  614SOL     MW 2456   2.025   0.471   1.417  0.3914 -0.0738  0.5879
  615SOL     OW 2457   2.415   0.726   0.335 -0.3449  0.1610 -0.1054
  615SOL    HW1 2458   2.474   0.652   0.353 -1.3214  1.3803  1.8023
  615SOL    HW2 2459   2.355   0.700   0.268  0.3046 -0.2874 -3.6111
  615SOL     MW 2460   2.415   0.712   0.329 -0.3881  0.2627 -0.3163
  616SOL     OW 2461   2.588   0.409   1.626 -0.0383 -0.1494  0.5445
  616SOL    HW1 2462   2.601   0.328   1.572 -1.5161  0.0062 -1.9820
  616SOL    HW2 2463   2.557   0.463   1.554  1.8663 -0.0085 -0.2386
  616SOL     MW 2464   2.586   0.405   1.609  0.0180 -0.1103  0.1078
  617SOL     OW 2465   2.834   0.546   1.851 -0.2090 -0.0477 -0.2868
  617SOL    HW1 2466   2.759   0.541   1.905  0.3085 -0.9882 -2.6875
  617SOL    HW2 2467   2.854   0.466   1.805  2.0299  1.3358 -0.6442
  617SOL     MW 2468   2.827   0.535   1.852  0.1547  0.0108 -0.6507
  618SOL     OW 2469   2.815   0.260   2.003  0.2646  0.0496 -0.2420
  618SOL    HW1 2470   2.746   0.269   2.074  0.1056 -1.4973  0.6640
  618SOL    HW2 2471   2.901   0.227   2.040  0.7020  1.5465  2.3638
  618SOL     MW 2472   2.818   0.257   2.017  0.3013  0.0430  0.2214
  619SOL     OW 2473   2.705   0.720   0.082  0.4314  0.3607  0.0169
  619SOL    HW1 2474   2.739   0.806   0.071  1.2337 -0.0890  0.1951
  619SOL    HW2 2475   2.761   0.681   0.144  0.8970  0.1102 -0.4060
  619SOL     MW 2476   2.717   0.726   0.089  0.5987  0.2683 -0.0154
  620SOL     OW 2477   2.232   1.029   0.943 -0.0871 -0.2650 -0.2894
  620SOL    HW1 2478   2.296   1.018   0.872  0.2014 -0.0938 -0.3697
  620SOL    HW2 2479   2.151   1.016   0.893  0.4212  1.1432 -1.9215
  620SOL     MW 2480   2.230   1.026   0.927  0.0181 -0.0566 -0.5153
  621SOL     OW 2481   1.507   2.200   2.007  0.4209  0.3009 -0.3917
  621SOL    HW1 2482   1.478   2.104   2.019 -1.9517  2.1355 -2.7696
  621SOL    HW2 2483   1.604   2.196   2.007 -0.9168 -3.3308  0.4750
  621SOL     MW 2484   1.516   2.187   2.008 -0.0686  0.0638 -0.5911
  622SOL     OW 2485   2.641   0.294   0.218 -0.0183 -0.0770 -0.0759
  622SOL    HW1 2486   2.709   0.352   0.261  0.6520 -0.7192 -0.1364
  622SOL    HW2 2487   2.690   0.216   0.199 -1.0546  1.1659 -1.5394
  622SOL     MW 2488   2.656   0.291   0.221 -0.0666  0.0022 -0.2770
  623SOL     OW 2489   2.367   2.773   0.821 -0.3966  0.2744 -0.0423
  623SOL    HW1 2490   2.428   2.841   0.808  0.8983 -1.5206  0.0506
  623SOL    HW2 2491   2.325   2.787   0.910  0.3758  0.8034 -0.9584
  623SOL     MW 2492   2.369   2.784   0.831 -0.1238  0.1073 -0.1509
  624SOL     OW 2493   2.115   1.571   3.049 -0.2445  0.8426 -0.2909
  624SOL    HW1 2494   2.087   1.488   3.016  0.8533 -0.2154 -0.5934
  624SOL    HW2 2495   2.037   1.624   3.035  0.3674 -2.8632 -0.6718
  624SOL     MW 2496   2.101   1.567   3.043 -0.0190  0.2141 -0.3811
  625SOL     OW 2497   2.171   1.856   1.010  0.0309  0.2534  0.1434
  625SOL    HW1 2498   2.220   1.787   1.058 -1.6976  1.5030 -0.7627
  625SOL    HW2 2499   2.215   1.856   0.925 -1.7924 -0.7378  0.4199
  625SOL     MW 2500   2.183   1.847   1.005 -0.4377  0.2875  0.0603
  626SOL     OW 2501   0.164   1.848   2.467 -1.2447 -0.4189 -0.1904
  626SOL    HW1 2502   0.130   1.765   2.480  1.1127  2.3115 -0.4412
  626SOL    HW2 2503   0.082   1.897   2.494 -0.2031  2.6918  1.6940
  626SOL     MW 2504   0.148   1.843   2.473 -0.7963  0.3518  0.0251
  627SOL     OW 2505   2.620   0.812   2.579 -0.1025 -0.1367  0.4412
  627SOL    HW1 2506   2.540   0.860   2.612 -0.7766  0.8085  0.7466
  627SOL    HW2 2507   2.582   0.757   2.509 -0.8358 -1.9237  1.3146
  627SOL     MW 2508   2.605   0.811   2.574 -0.2882 -0.2478  0.5968
  628SOL     OW 2509   2.352   1.443   1.292  0.2200 -0.2803 -0.0825
  628SOL    HW1 2510   2.354   1.356   1.251  1.1999 -1.2559 -0.9866
  628SOL    HW2 2511   2.397   1.494   1.225  1.2298  0.2768  1.0875
  628SOL     MW 2512   2.358   1.438   1.278  0.4825 -0.3355 -0.0474
  629SOL     OW 2513   1.815   0.630   1.322  0.1452  0.3006 -0.1555
  629SOL    HW1 2514   1.849   0.643   1.234 -0.5043 -0.6662 -1.2712
  629SOL    HW2 2515   1.727   0.595   1.302  2.7637 -2.2076  0.3054
  629SOL     MW 2516   1.808   0.627   1.308  0.4050 -0.1579 -0.2419
  630SOL     OW 2517   2.390   1.912   3.065 -0.3406  0.4271 -0.2060
  630SOL    HW1 2518   2.393   1.994   3.008  1.2827  4.1825  0.0283
  630SOL    HW2 2519   2.300   1.872   3.058 -0.4224 -0.3045  0.5176
  630SOL     MW 2520   2.379   1.917   3.056 -0.1372  0.8260 -0.0796
  631SOL     OW 2521   2.096   1.843   1.497  0.3226  0.0193 -0.0379
  631SOL    HW1 2522   2.080   1.757   1.544 -0.6277 -0.0463  0.9317
  631SOL    HW2 2523   2.010   1.871   1.464 -0.0106  2.8995  0.2140
  631SOL     MW 2524   2.082   1.835   1.499  0.1532  0.3907  0.1233
  632SOL     OW 2525   0.346   1.864   1.488  0.9382 -0.3461 -0.6090
  632SOL    HW1 2526   0.282   1.940   1.491 -0.7193  3.0176 -1.8664
  632SOL    HW2 2527   0.294   1.788   1.509 -3.5254  1.4709  2.6215
  632SOL     MW 2528   0.331   1.864   1.491  0.1306  0.3375 -0.3487
  633SOL     OW 2529   2.590   0.518   0.358  0.7137 -0.0562 -0.3287
  633SOL    HW1 2530   2.669   0.522   0.406 -1.6010  0.8641  0.2953
  633SOL    HW2 2531   2.575   0.435   0.317  0.9814 -0.6228  1.8062
  633SOL     MW 2532   2.598   0.507   0.359  0.4436 -0.0096  0.0353
  634SOL     OW 2533   2.698   3.066   0.585  0.6965 -0.1353 -0.0783
  634SOL    HW1 2534   2.713   3.157   0.551  2.5771 -1.0291 -1.1532
  634SOL    HW2 2535   2.646   3.027   0.514  0.4652  0.2593 -0.2847
  634SOL     MW 2536   2.693   3.073   0.571  0.9141 -0.2011 -0.2473
  635SOL     OW 2537   2.634   0.023   1.884  0.1884 -0.5784 -0.0712
  635SOL    HW1 2538   2.671  -0.031   1.812 -1.1427  0.9247  3.3371
  635SOL    HW2 2539   2.716   0.072   1.910  1.3883  0.4570  1.6593
  635SOL     MW 2540   2.650   0.022   1.878  0.1711 -0.2435  0.6068
  636SOL     OW 2541   2.711   1.689   0.763  0.0905 -0.4135  0.2740
  636SOL    HW1 2542   2.636   1.699   0.703  0.0799 -1.7969 -0.0639
  636SOL    HW2 2543   2.706   1.776   0.802 -2.8517 -0.6705 -0.1919
  636SOL     MW 2544   2.700   1.702   0.760 -0.2991 -0.6300  0.1680
  637SOL     OW 2545   2.895   1.473   0.698  0.6500 -0.8188  0.7290
  637SOL    HW1 2546   2.929   1.532   0.629  0.9775 -1.8378  0.4902
  637SOL    HW2 2547   2.831   1.526   0.742  0.6675 -1.3734 -2.6402
  637SOL     MW 2548   2.891   1.488   0.695  0.6956 -1.0264  0.2530
  638SOL     OW 2549   2.832   0.540   0.534 -0.2312 -0.1235  0.0716
  638SOL    HW1 2550   2.906   0.589   0.503  0.6279  1.0568  2.4952
  638SOL    HW2 2551   2.843   0.554   0.624 -0.5215  2.1683 -2.1601
  638SOL     MW 2552   2.843   0.548   0.542 -0.1562  0.3346  0.0969
  639SOL     OW 2553   1.812   3.086   0.546  0.9396  0.6223 -0.0736
  639SOL    HW1 2554   1.724   3.066   0.564 -1.5676  1.5710  0.1495
  639SOL    HW2 2555   1.868   3.011   0.523 -0.3507 -3.1663  0.6071
  639SOL     MW 2556   1.808   3.073   0.546  0.4385  0.2476  0.0457
  640SOL     OW 2557   0.290   1.427   0.090  0.0767  0.3797  0.0333
  640SOL    HW1 2558   0.345   1.428   0.016 -4.3305  0.0482 -2.3751
  640SOL    HW2 2559   0.313   1.343   0.138  2.3708 -0.5966 -2.4761
  640SOL     MW 2560   0.301   1.416   0.087 -0.2021  0.2071 -0.6155
  641SOL     OW 2561   2.272   0.338   0.416  0.9536  0.4213  0.0816
  641SOL    HW1 2562   2.300   0.292   0.337  0.4013  1.6307  1.3214
  641SOL    HW2 2563   2.341   0.337   0.480  1.7201 -0.7358  1.2963
  641SOL     MW 2564   2.285   0.332   0.414  0.9818  0.4282  0.4055
  642SOL     OW 2565   0.086   3.087   0.489  0.4716 -0.1937 -0.3623
  642SOL    HW1 2566   0.053   3.176   0.467 -0.0133 -0.0622 -4.1351
  642SOL    HW2 2567   0.030   3.042   0.553 -0.5204 -0.6413 -2.4003
  642SOL     MW 2568   0.074   3.093   0.494  0.2767 -0.2354 -1.1290
  643SOL     OW 2569   2.127   0.321   1.672  0.4172  0.7966  0.3268
  643SOL    HW1 2570   2.048   0.288   1.713  0.8512  0.0919  0.8132
  643SOL    HW2 2571   2.157   0.257   1.605  1.6863 -0.6146 -0.8919
  643SOL     MW 2572   2.121   0.308   1.668  0.6419  0.5174  0.2302
  644SOL     OW 2573   2.692   1.878   0.943  0.7979  0.2549  0.3103
  644SOL    HW1 2574   2.653   1.828   1.016 -1.4701  0.2623 -3.0380
  644SOL    HW2 2575   2.624   1.950   0.941  0.3965  0.8633  0.0909
  644SOL     MW 2576   2.678   1.881   0.952  0.4457  0.3361 -0.1604
  645SOL     OW 2577   2.791   0.936   0.795  0.1787  0.8143  0.1955
  645SOL    HW1 2578   2.878   0.901   0.784  0.1892  2.5339 -0.6111
  645SOL    HW2 2579   2.759   0.912   0.881  2.6833  2.5582 -0.6928
  645SOL     MW 2580   2.798   0.928   0.805  0.5106  1.2713 -0.0281
  646SOL     OW 2581   0.135   2.266   0.870 -0.2960  0.2780  0.5101
  646SOL    HW1 2582   0.133   2.161   0.866 -3.5988  0.3696  0.7661
  646SOL    HW2 2583   0.098   2.285   0.782 -1.8979  0.1905  1.3506
  646SOL     MW 2584   0.130   2.254   0.858 -0.9431  0.2785  0.6548
  647SOL     OW 2585   2.788   0.515   2.995  0.1091  0.1712  0.3190
  647SOL    HW1 2586   2.704   0.476   3.012  0.4187  0.3335  1.8521
  647SOL    HW2 2587   2.800   0.591   3.048  1.4769 -1.2631  1.5529
  647SOL     MW 2588   2.778   0.520   3.004  0.3304  0.0033  0.6841
  648SOL     OW 2589   2.158   0.631   1.126 -0.9111 -0.0590 -0.0676
  648SOL    HW1 2590   2.196   0.592   1.200 -2.0185 -0.6595 -1.6989
  648SOL    HW2 2591   2.195   0.719   1.113 -0.7953 -1.8473 -3.0480
  648SOL     MW 2592   2.168   0.638   1.134 -1.0419 -0.3742 -0.6761
  649SOL     OW 2593   2.395   2.699   1.313  0.1410 -0.2445  0.2573
  649SOL    HW1 2594   2.477   2.738   1.333  0.1304 -1.2354  0.6823
  649SOL    HW2 2595   2.413   2.603   1.296 -1.0736  0.2768 -2.9704
  649SOL     MW 2596   2.408   2.691   1.313 -0.0206 -0.3065 -0.1125
  650SOL     OW 2597   2.735   0.248   0.509 -0.0212 -0.0543 -0.7564
  650SOL    HW1 2598   2.788   0.318   0.542 -0.2878 -1.4386  0.6883
  650SOL    HW2 2599   2.786   0.207   0.442 -1.2972 -2.7098 -0.4765
  650SOL     MW 2600   2.749   0.252   0.505 -0.2248 -0.5873 -0.5289
  651SOL     OW 2601   0.031   0.438   0.997 -0.3910  0.1028 -0.0501
  651SOL    HW1 2602   0.075   0.507   0.938 -0.9591 -2.2688 -2.6912
  651SOL    HW2 2603  -0.036   0.491   1.049 -0.2702  1.3420  2.4366
  651SOL     MW 2604   0.028   0.454   0.996 -0.4500 -0.0466 -0.0705
  652SOL     OW 2605   2.379   1.446   2.973 -0.7279 -0.0063 -0.6120
  652SOL    HW1 2606   2.441   1.447   2.900  0.9078 -0.7499 -0.3180
  652SOL    HW2 2607   2.343   1.537   2.974 -2.6469 -0.8863 -2.5354
  652SOL     MW 2608   2.382   1.458   2.964 -0.7653 -0.2206 -0.8270
  653SOL     OW 2609   1.852   0.350   0.228  0.1327  0.5017 -0.2208
  653SOL    HW1 2610   1.834   0.265   0.184  0.7491  1.9686  1.4650
  653SOL    HW2 2611   1.896   0.407   0.169  0.5458 -1.1573 -0.7559
  653SOL     MW 2612   1.855   0.346   0.214  0.2686  0.4763 -0.0690
  654SOL     OW 2613   2.425   0.994   0.739 -0.3048  0.2369 -0.7124
  654SOL    HW1 2614   2.360   0.970   0.669 -0.3021 -0.9058  1.3417
  654SOL    HW2 2615   2.489   0.920   0.767  1.8414 -0.5028 -0.3508
  654SOL     MW 2616   2.425   0.981   0.734 -0.0213 -0.0115 -0.3936
  655SOL     OW 2617   2.877   0.929   0.279  0.0090  0.3189 -0.0183
  655SOL    HW1 2618   2.862   0.981   0.359  0.2837  1.2364 -0.7868
  655SOL    HW2 2619   2.953   0.877   0.304  0.3428  0.8445  0.2989
  655SOL     MW 2620   2.885   0.929   0.293  0.0893  0.5093 -0.0779
  656SOL     OW 2621   1.791   2.648   1.420 -0.2651  0.2046 -0.0140
  656SOL    HW1 2622   1.855   2.702   1.377  1.2546 -1.5505  1.1248
  656SOL    HW2 2623   1.818   2.560   1.397  0.0386 -0.9457  1.8998
  656SOL     MW 2624   1.803   2.643   1.411 -0.0245 -0.1788  0.3888
  657SOL     OW 2625   0.072   1.776   1.120  0.4901 -0.2460 -0.3045
  657SOL    HW1 2626   0.146   1.830   1.118 -2.4039  1.5097 -1.1230
  657SOL    HW2 2627   0.094   1.685   1.135  1.0036 -0.1877  1.1682
  657SOL     MW 2628   0.085   1.771   1.122  0.1760 -0.0067 -0.2182
  658SOL     OW 2629   2.640   1.344   0.223 -0.1312 -0.2428 -0.2294
  658SOL    HW1 2630   2.621   1.269   0.281  0.5448 -0.6833 -0.1679
  658SOL    HW2 2631   2.685   1.407   0.274 -1.1859 -2.2778 -0.9884
  658SOL     MW 2632   2.644   1.342   0.237 -0.1811 -0.5694 -0.3214
  659SOL     OW 2633   2.113   1.419   1.032 -0.6733 -0.3283  0.0831
  659SOL    HW1 2634   2.168   1.341   1.056  1.2291 -3.0769  0.2113
  659SOL    HW2 2635   2.066   1.443   1.112  1.1291 -0.4299 -0.3407
  659SOL     MW 2636   2.114   1.412   1.046 -0.1845 -0.7044  0.0441
  660SOL     OW 2637   2.087   1.571   1.594 -0.3502  0.7689  0.0155
  660SOL    HW1 2638   2.128   1.574   1.680  1.3708 -0.0738 -0.0164
  660SOL    HW2 2639   1.996   1.527   1.602 -1.5918  0.3896 -2.0563
  660SOL     MW 2640   2.080   1.566   1.607 -0.2870  0.6077 -0.2621
  661SOL     OW 2641   2.416   0.987   0.246  0.4469  0.0267  0.0374
  661SOL    HW1 2642   2.488   1.037   0.286 -1.1412  0.0901 -0.6130
  661SOL    HW2 2643   2.430   0.906   0.288 -1.4261  0.3576  0.7887
  661SOL     MW 2644   2.427   0.983   0.257 -0.0098  0.0787  0.0507
  662SOL     OW 2645   2.545   2.968   0.821 -0.4641  0.3016 -0.5280
  662SOL    HW1 2646   2.487   3.040   0.849  0.2379  2.0047 -2.3221
  662SOL    HW2 2647   2.603   3.006   0.759 -1.6848 -0.3453  3.4321
  662SOL     MW 2648   2.545   2.982   0.817 -0.5326  0.4410 -0.2423
  663SOL     OW 2649   2.711   1.553   0.405 -0.1299  0.0695 -0.2313
  663SOL    HW1 2650   2.728   1.614   0.338 -0.8532  0.3702  1.7127
  663SOL    HW2 2651   2.770   1.584   0.481  2.1182 -0.7426  1.7340
  663SOL     MW 2652   2.721   1.565   0.406  0.0713  0.0020  0.2845
  664SOL     OW 2653   2.535   1.445   1.515 -0.3018 -0.0236 -0.2461
  664SOL    HW1 2654   2.515   1.517   1.456 -1.3408 -2.8982 -0.9258
  664SOL    HW2 2655   2.454   1.395   1.516 -0.9422 -1.1781  1.1135
  664SOL     MW 2656   2.522   1.448   1.507 -0.5234 -0.5552 -0.1564
  665SOL     OW 2657   2.861   0.791   2.117  0.1279 -0.3654  0.2820
  665SOL    HW1 2658   2.817   0.822   2.035  0.7967 -2.1348 -0.5785
  665SOL    HW2 2659   2.936   0.736   2.089 -0.5420 -0.8070 -0.3918
  665SOL     MW 2660   2.865   0.788   2.103  0.1278 -0.6571  0.0796
  666SOL     OW 2661   2.816   2.995   1.701  0.8558 -0.3813  0.3433
  666SOL    HW1 2662   2.834   3.017   1.607 -3.5173  2.2031 -0.7247
  666SOL    HW2 2663   2.787   2.905   1.697  2.8148 -2.3910  0.0907
  666SOL     MW 2664   2.815   2.986   1.688  0.5373 -0.3055  0.1691
  667SOL     OW 2665   2.013   2.731   1.726  0.4904 -0.4581  0.1934
  667SOL    HW1 2666   2.031   2.741   1.816  1.4977  0.7333 -1.7674
  667SOL    HW2 2667   2.073   2.799   1.685 -0.9311  1.0432  1.4825
  667SOL     MW 2668   2.023   2.741   1.733  0.4357 -0.1028  0.1048
  668SOL     OW 2669   2.781   0.563   0.827  0.3965  0.5093 -0.2763
  668SOL    HW1 2670   2.829   0.582   0.903 -0.4194 -1.0222 -1.8711
  668SOL    HW2 2671   2.728   0.643   0.823  1.1539  0.6906  1.1132
  668SOL     MW 2672   2.781   0.576   0.837  0.3887  0.3312 -0.3034
  669SOL     OW 2673   0.175   0.992   0.684 -0.4568  0.3302 -0.1937
  669SOL    HW1 2674   0.150   1.005   0.775  0.0778 -0.6374  0.2025
  669SOL    HW2 2675   0.242   1.066   0.667  0.1753 -1.7277 -0.1349
  669SOL     MW 2676   0.180   1.003   0.694 -0.3029 -0.0690 -0.1337
  670SOL     OW 2677   2.914   0.352   0.290  0.5235 -0.3561  0.0730
  670SOL    HW1 2678   2.912   0.285   0.223 -0.5662 -1.5225  0.6989
  670SOL    HW2 2679   2.936   0.435   0.246  4.0100  1.2144 -1.0192
  670SOL     MW 2680   2.917   0.354   0.275  0.8398 -0.3028  0.0115
  671SOL     OW 2681   2.043   3.052   1.481  0.5220  0.0884 -0.3871
  671SOL    HW1 2682   1.966   3.026   1.427 -0.7487  0.9387 -1.2720
  671SOL    HW2 2683   2.003   3.067   1.566  1.6543  0.9211  0.4519
  671SOL     MW 2684   2.028   3.051   1.485  0.5038  0.3105 -0.3932
  672SOL     OW 2685   1.835   1.773   1.300  0.1462  0.5271  0.2127
  672SOL    HW1 2686   1.830   1.860   1.350 -0.8275 -2.3973 -1.4544
  672SOL    HW2 2687   1.861   1.804   1.214  1.0300  0.8027 -1.3696
  672SOL     MW 2688   1.838   1.789   1.295  0.1343  0.1776 -0.2160
  673SOL     OW 2689   2.803   1.086   0.533  0.2376  0.1145 -0.2534
  673SOL    HW1 2690   2.792   1.025   0.600 -0.4401  0.8613 -1.4747
  673SOL    HW2 2691   2.853   1.160   0.568 -0.7048  4.7051 -1.7118
  673SOL     MW 2692   2.808   1.088   0.546  0.0238  0.8187 -0.6070
  674SOL     OW 2693   2.473   3.085   1.208 -0.4475 -0.4983 -0.1523
  674SOL    HW1 2694   2.460   3.105   1.112  1.3741  0.5213 -0.0572
  674SOL    HW2 2695   2.406   3.026   1.231  1.5142 -1.3596 -1.0954
  674SOL     MW 2696   2.462   3.080   1.198  0.0516 -0.4774 -0.2641
  675SOL     OW 2697   2.998   0.881   1.094 -0.5192 -0.6799  0.1733
  675SOL    HW1 2698   3.036   0.896   1.180  1.6706 -0.5886 -1.2616
  675SOL    HW2 2699   3.064   0.913   1.034 -2.6068  2.4628  3.8331
  675SOL     MW 2700   3.012   0.887   1.097 -0.5057 -0.2532  0.4669
  676SOL     OW 2701   2.893   1.462   1.698  0.1601 -0.7470  0.5952
  676SOL    HW1 2702   2.880   1.370   1.663  1.3924  0.5857 -0.3015
  676SOL    HW2 2703   2.925   1.437   1.786  0.2323  3.6062 -1.4296
  676SOL     MW 2704   2.895   1.446   1.705  0.3322  0.0032  0.2097
  677SOL     OW 2705   2.482   0.668   1.915 -0.1040  1.0491 -0.3807
  677SOL    HW1 2706   2.441   0.580   1.896  0.8072  1.7639  0.1717
  677SOL    HW2 2707   2.414   0.730   1.899  0.1604 -3.1648 -3.6991
  677SOL     MW 2708   2.468   0.665   1.910  0.0511  0.5875 -0.7456
  678SOL     OW 2709   2.382   1.581   0.325 -0.2105 -0.2620  0.0625
  678SOL    HW1 2710   2.292   1.561   0.356 -1.5322 -2.4642 -0.0177
  678SOL    HW2 2711   2.395   1.514   0.250  0.0038  0.2936  0.2760
  678SOL     MW 2712   2.372   1.570   0.319 -0.3566 -0.4793  0.0801
  679SOL     OW 2713   2.292   0.417   1.289  0.3487  0.2658  0.3433
  679SOL    HW1 2714   2.285   0.355   1.216 -1.0903 -1.4783  0.7289
  679SOL    HW2 2715   2.199   0.427   1.326  0.0698 -1.5320 -2.6120
  679SOL     MW 2716   2.278   0.410   1.284  0.1221 -0.2015  0.0043
  680SOL     OW 2717   2.472   0.132   1.483  0.0014  0.4016 -0.3162
  680SOL    HW1 2718   2.378   0.157   1.471  1.4493 -2.0210  1.7158
  680SOL    HW2 2719   2.500   0.090   1.405 -3.6610  2.4142  2.0336
  680SOL     MW 2720   2.463   0.130   1.471 -0.2908  0.3475  0.2620
  681SOL     OW 2721   0.229   0.617   1.458  0.0214 -0.6441 -0.5875
  681SOL    HW1 2722   0.203   0.529   1.482  0.4086 -2.4425  0.7012
  681SOL    HW2 2723   0.234   0.622   1.364  2.4337  3.3052  1.5647
  681SOL     MW 2724   0.226   0.606   1.449  0.3908 -0.3603 -0.1335
  682SOL     OW 2725   3.094   2.864   1.533 -0.7056  0.0226 -0.5005
  682SOL    HW1 2726   3.158   2.925   1.507 -1.4574 -3.1685 -0.0554
  682SOL    HW2 2727   3.058   2.884   1.621 -0.9123  2.1212  1.4513
  682SOL     MW 2728   3.097   2.875   1.541 -0.8320 -0.1216 -0.1843
  683SOL     OW 2729   2.083   0.808   3.014  0.5964 -1.0761 -0.0877
  683SOL    HW1 2730   2.028   0.729   3.024 -2.8354  0.6229  0.2665
  683SOL    HW2 2731   2.040   0.882   3.057  0.1929 -0.4889  0.1828
  683SOL     MW 2732   2.070   0.807   3.021  0.0904 -0.7745 -0.0053
  684SOL     OW 2733   2.054   1.752   0.648  0.0672 -0.1607 -0.0365
  684SOL    HW1 2734   2.059   1.695   0.570 -0.5002  0.2732  0.6825
  684SOL    HW2 2735   1.972   1.724   0.691  0.7367 -0.4494 -2.3518
  684SOL     MW 2736   2.044   1.741   0.643  0.0807 -0.1416 -0.2472
  685SOL     OW 2737   2.670   1.737   1.182 -0.4405  0.2562 -0.4290
  685SOL    HW1 2738   2.698   1.708   1.269  0.8464  3.0817  1.8356
  685SOL    HW2 2739   2.591   1.692   1.175 -0.7698  0.5366 -1.9775
  685SOL     MW 2740   2.664   1.727   1.192 -0.3142  0.6660 -0.3345
  686SOL     OW 2741   2.840   0.654   1.610 -0.7177 -0.4497 -0.2113
  686SOL    HW1 2742   2.828   0.618   1.695  1.4176 -0.3507 -0.5927
  686SOL    HW2 2743   2.937   0.678   1.608  0.0353  1.0239 -0.9840
  686SOL     MW 2744   2.851   0.652   1.621 -0.3366 -0.2422 -0.3636
  687SOL     OW 2745   2.107   0.168   1.121  0.3419 -0.0081 -0.3979
  687SOL    HW1 2746   2.185   0.165   1.064  0.6599  4.7231  1.3751
  687SOL    HW2 2747   2.035   0.213   1.082  1.5073 -0.0320 -2.9881
  687SOL     MW 2748   2.108   0.173   1.108  0.5376  0.6130 -0.5057
  688SOL     OW 2749   2.473   0.579   1.415 -0.2742 -0.3214  0.4268
  688SOL    HW1 2750   2.420   0.512   1.368 -1.5237 -2.2645  1.7417
  688SOL    HW2 2751   2.402   0.615   1.472  0.0848  0.9476  0.5852
  688SOL     MW 2752   2.456   0.574   1.417 -0.3917 -0.4103  0.6212
  689SOL     OW 2753   2.508   0.742   3.002 -0.1699 -0.1814 -0.2168
  689SOL    HW1 2754   2.451   0.812   3.037 -0.6753  1.7823 -1.8466
  689SOL    HW2 2755   2.567   0.730   3.080  1.2890 -3.0128 -0.4967
  689SOL     MW 2756   2.508   0.750   3.017 -0.0441 -0.2959 -0.4688
  690SOL     OW 2757   2.039   0.918   1.851 -0.2536  0.9973 -0.4295
  690SOL    HW1 2758   2.034   0.823   1.874  1.9338  2.0861  0.7025
  690SOL    HW2 2759   2.052   0.914   1.758  0.8357 -2.4988  1.7740
  690SOL     MW 2760   2.040   0.905   1.842  0.1787  0.6797  0.0106
  691SOL     OW 2761   2.439   0.296   0.886  0.2263  0.2138 -0.0057
  691SOL    HW1 2762   2.530   0.322   0.911  0.1982  0.3148  0.6500
  691SOL    HW2 2763   2.391   0.377   0.863 -0.6060 -1.5718  0.5056
  691SOL     MW 2764   2.445   0.310   0.886  0.1127 -0.0085  0.1483
  692SOL     OW 2765   2.795   1.623   1.402 -0.7832  0.3850 -0.3236
  692SOL    HW1 2766   2.795   1.577   1.488  0.4600 -0.1506  1.4786
  692SOL    HW2 2767   2.859   1.699   1.401 -0.6304 -1.8948  2.7915
  692SOL     MW 2768   2.803   1.627   1.413 -0.5990  0.0135  0.3252
  693SOL     OW 2769   2.302   0.434   0.006 -0.4607  0.9711  0.1272
  693SOL    HW1 2770   2.231   0.379  -0.038 -3.3725 -0.9599  0.0593
  693SOL    HW2 2771   2.261   0.514   0.029  0.8492 -0.7131 -1.0623
  693SOL     MW 2772   2.287   0.437   0.003 -0.6721  0.4941 -0.0387
  694SOL     OW 2773   1.925   1.187   1.202  0.2755  0.2244 -0.0367
  694SOL    HW1 2774   2.018   1.180   1.190 -0.9207 -0.2562  0.3594
  694SOL    HW2 2775   1.890   1.091   1.204 -1.5627  2.7377  0.3064
  694SOL     MW 2776   1.932   1.173   1.200 -0.1249  0.4926  0.0608
  695SOL     OW 2777   2.913   1.407   1.286  0.2563  0.2818 -0.1406
  695SOL    HW1 2778   2.930   1.409   1.194 -0.3534 -1.1879  1.7157
  695SOL    HW2 2779   2.887   1.501   1.312  1.0588  0.7301 -3.3111
  695SOL     MW 2780   2.912   1.420   1.277  0.2817  0.1470 -0.3140
  696SOL     OW 2781   2.035   1.415   0.737  0.3152 -0.5699 -0.0869
  696SOL    HW1 2782   2.090   1.437   0.816  2.8284 -0.3790 -1.8153
  696SOL    HW2 2783   1.994   1.334   0.767 -0.2806 -0.4172 -1.0893
  696SOL     MW 2784   2.037   1.407   0.751  0.5682 -0.5246 -0.4472
  697SOL     OW 2785   2.907   1.051   2.219 -0.4119 -0.2554  0.2169
  697SOL    HW1 2786   2.817   1.089   2.219 -1.4730 -1.1077  1.1307
  697SOL    HW2 2787   2.888   0.963   2.195 -1.0845 -1.6324 -0.1052
  697SOL     MW 2788   2.893   1.044   2.216 -0.6406 -0.5496  0.2949
  698SOL     OW 2789   2.565   0.389   3.062 -0.9706  0.3606  0.4320
  698SOL    HW1 2790   2.473   0.417   3.068  1.1398  1.6891 -0.6984
  698SOL    HW2 2791   2.586   0.342   3.146 -2.5513  0.1799 -2.4087
  698SOL     MW 2792   2.556   0.386   3.074 -0.9007  0.5120 -0.0919
  699SOL     OW 2793   1.867   1.607   2.037  0.1089 -0.6777 -0.9313
  699SOL    HW1 2794   1.853   1.515   2.068 -1.3414 -1.4386  1.1210
  699SOL    HW2 2795   1.947   1.595   1.987  0.4775 -0.2712  0.2325
  699SOL     MW 2796   1.876   1.593   2.035 -0.0338 -0.7244 -0.5070
  700SOL     OW 2797   2.686   0.874   1.609  0.1620  0.2523  0.3556
  700SOL    HW1 2798   2.727   0.910   1.526 -0.6810  1.1183 -0.7028
  700SOL    HW2 2799   2.720   0.786   1.617 -2.6648 -1.9637 -0.6815
  700SOL     MW 2800   2.696   0.867   1.599 -0.3222  0.0742  0.0791
  701SOL     OW 2801   1.674   1.068   2.531 -0.3329 -0.3263  0.8365
  701SOL    HW1 2802   1.758   1.048   2.577 -0.4667  1.8495  0.3452
  701SOL    HW2 2803   1.652   1.147   2.585  2.3830  2.2447 -0.2579
  701SOL     MW 2804   1.682   1.076   2.544  0.0078  0.3000  0.6273
  702SOL     OW 2805   2.061   0.469   0.676 -0.1366  0.0161 -0.0431
  702SOL    HW1 2806   2.073   0.379   0.646 -1.1066  2.9859  2.2995
  702SOL    HW2 2807   2.131   0.514   0.626  0.0990 -1.8057 -1.7165
  702SOL     MW 2808   2.072   0.463   0.666 -0.2335  0.1676  0.0452
  703SOL     OW 2809   2.699   1.252   0.979  0.0647 -0.3833  0.1994
  703SOL    HW1 2810   2.678   1.237   0.888 -2.8646  1.2478  1.1797
  703SOL    HW2 2811   2.704   1.168   1.031  1.2979 -0.5319  3.2476
  703SOL     MW 2812   2.697   1.239   0.974 -0.1591 -0.1877  0.7309
  704SOL     OW 2813   3.067   1.262   0.147 -0.2577  0.5218  0.5839
  704SOL    HW1 2814   2.973   1.265   0.125 -1.2552 -0.8629 -1.4021
  704SOL    HW2 2815   3.081   1.248   0.240 -0.2865 -1.7976 -0.2189
  704SOL     MW 2816   3.057   1.261   0.157 -0.3931  0.0331  0.2160
  705SOL     OW 2817   2.033   1.580   1.302 -0.1042  0.8779  0.0579
  705SOL    HW1 2818   1.997   1.667   1.308 -2.5463  0.3439 -1.7454
  705SOL    HW2 2819   2.077   1.573   1.390  0.1967  0.7239  1.1651
  705SOL     MW 2820   2.034   1.591   1.314 -0.3867  0.7871 -0.0339
  706SOL     OW 2821   2.996   1.215   0.702 -0.1222 -0.3315 -0.3363
  706SOL    HW1 2822   3.056   1.208   0.632  0.8159  0.1137  1.2593
  706SOL    HW2 2823   2.988   1.311   0.720  0.4027 -0.0593 -0.2741
  706SOL     MW 2824   3.003   1.227   0.695  0.0708 -0.2368 -0.1176
  707SOL     OW 2825   2.351   0.055   0.970 -0.5555 -0.1404 -0.3808
  707SOL    HW1 2826   2.359   0.148   0.930  1.1816  3.7774  0.0750
  707SOL    HW2 2827   2.278   0.014   0.925 -0.0242  3.1051 -0.7801
  707SOL     MW 2828   2.343   0.062   0.959 -0.2562  0.8048 -0.3733
  708SOL     OW 2829   2.403   1.393   0.130  0.5240  0.7795 -0.4384
  708SOL    HW1 2830   2.498   1.379   0.146 -0.0327  0.0505 -1.8190
  708SOL    HW2 2831   2.389   1.407   0.032  0.2584  0.3217  0.4250
  708SOL     MW 2832   2.414   1.393   0.119  0.4155  0.6229 -0.5066
  709SOL     OW 2833   1.708   1.632   0.204 -0.3740 -0.4365  0.1145
  709SOL    HW1 2834   1.717   1.637   0.107 -0.0473 -0.9817 -0.3240
  709SOL    HW2 2835   1.620   1.654   0.227 -1.8404  1.9030  1.9582
  709SOL     MW 2836   1.698   1.635   0.194 -0.5244 -0.1998  0.2999
  710SOL     OW 2837   2.199   1.166   1.172  0.9006  0.0395 -0.2937
  710SOL    HW1 2838   2.241   1.134   1.088  2.8505 -2.1954  0.8905
  710SOL    HW2 2839   2.224   1.100   1.244  1.9005 -0.6554  1.8349
  710SOL     MW 2840   2.208   1.153   1.171  1.2898 -0.3471  0.1434
  711SOL     OW 2841   2.383   0.108   1.790 -0.5092 -0.1834  0.2412
  711SOL    HW1 2842   2.466   0.071   1.827  0.9877 -1.7597 -3.1584
  711SOL    HW2 2843   2.383   0.086   1.698  1.2004 -0.1775  1.7064
  711SOL     MW 2844   2.394   0.100   1.783 -0.0861 -0.3906 -0.0140
  712SOL     OW 2845   1.882   0.610   3.074 -0.1764  0.3658 -0.3172
  712SOL    HW1 2846   1.811   0.634   3.017  4.2203 -1.4559 -0.1062
  712SOL    HW2 2847   1.857   0.647   3.163  0.8998  2.9962  0.6566
  712SOL     MW 2848   1.869   0.618   3.078  0.5457  0.4725 -0.1609
  713SOL     OW 2849   2.552   0.680   1.116  0.5313  0.0078  0.0856
  713SOL    HW1 2850   2.552   0.604   1.168 -0.0208  0.5176  2.0142
  713SOL    HW2 2851   2.543   0.751   1.181  2.6163  0.1807  1.1840
  713SOL     MW 2852   2.551   0.679   1.132  0.7336  0.0979  0.4850
  714SOL     OW 2853   2.235   0.199   2.012  0.5795  0.1085  0.1989
  714SOL    HW1 2854   2.271   0.141   2.077  0.0788 -2.4482 -1.2729
  714SOL    HW2 2855   2.285   0.186   1.932 -2.2196 -0.7944 -1.9165
  714SOL     MW 2856   2.247   0.189   2.010  0.1441 -0.3479 -0.2744
  715SOL     OW 2857   1.826   2.001   1.719  0.0430 -0.1274 -0.4672
  715SOL    HW1 2858   1.922   2.007   1.722 -2.6812 -2.0267 -0.9762
  715SOL    HW2 2859   1.812   1.914   1.764  0.5832 -1.9968 -1.2016
  715SOL     MW 2860   1.837   1.990   1.725 -0.2452 -0.6246 -0.6313
  716SOL     OW 2861   2.451   0.560   0.704  0.3741 -0.3180  0.6043
  716SOL    HW1 2862   2.469   0.468   0.674  0.7694 -0.6777 -0.3497
  716SOL    HW2 2863   2.387   0.585   0.644  0.6491  0.3337  2.9173
  716SOL     MW 2864   2.445   0.551   0.692  0.4625 -0.2795  0.7836
  717SOL     OW 2865   2.805   1.632   2.820 -0.8754  0.5223 -0.0574
  717SOL    HW1 2866   2.887   1.604   2.859  2.5469 -1.1638 -0.4558
  717SOL    HW2 2867   2.748   1.652   2.896 -2.1252 -2.3682 -2.3070
  717SOL     MW 2868   2.808   1.631   2.835 -0.5888 -0.0815 -0.4068
  718SOL     OW 2869   2.651   1.344   1.289 -0.3732 -0.2129  0.5972
  718SOL    HW1 2870   2.615   1.379   1.375 -0.9636  1.9681  1.8688
  718SOL    HW2 2871   2.740   1.387   1.282  0.3735  0.2790 -2.0069
  718SOL     MW 2872   2.658   1.354   1.299 -0.3526  0.1398  0.4214
  719SOL     OW 2873   2.200   1.278   0.560 -0.0912 -0.3031 -0.2400
  719SOL    HW1 2874   2.283   1.318   0.530 -0.4853  0.6736  0.1386
  719SOL    HW2 2875   2.167   1.347   0.621  1.8611  3.3230 -2.1773
  719SOL     MW 2876   2.207   1.293   0.564  0.1144  0.3042 -0.4457
  720SOL     OW 2877   2.805   1.277   0.016  0.0185 -0.5009 -0.1383
  720SOL    HW1 2878   2.787   1.180   0.008  0.6283 -1.3834 -0.3595
  720SOL    HW2 2879   2.746   1.312   0.081  0.2146  1.3141  0.1693
  720SOL     MW 2880   2.794   1.269   0.024  0.1248 -0.3779 -0.1269
  721SOL     OW 2881   2.550   0.849   1.350  0.2771  0.4066 -0.2363
  721SOL    HW1 2882   2.533   0.752   1.361 -0.6421 -1.8650  2.6545
  721SOL    HW2 2883   2.603   0.869   1.427  1.9663 -0.8372 -3.9059
  721SOL     MW 2884   2.555   0.839   1.362  0.3787 -0.0572 -0.3390
  722SOL     OW 2885   2.586   1.155   0.389  0.0426  0.1242  0.6438
  722SOL    HW1 2886   2.551   1.213   0.456 -1.5523 -0.2721 -1.6960
  722SOL    HW2 2887   2.670   1.117   0.420  2.0386  0.7593  0.4930
  722SOL     MW 2888   2.593   1.158   0.402  0.0955  0.1557  0.3152
  723SOL     OW 2889   2.283   1.341   1.559  0.4559 -0.5505  0.3279
  723SOL    HW1 2890   2.290   1.351   1.468  1.6634  0.4848  1.6108
  723SOL    HW2 2891   2.206   1.404   1.575  0.3270 -0.1326 -2.2327
  723SOL     MW 2892   2.274   1.351   1.549  0.5982 -0.3588  0.1593
  724SOL     OW 2893   2.460   0.288   0.607 -0.6971 -0.2862 -0.1691
  724SOL    HW1 2894   2.464   0.277   0.702 -1.1483 -2.3898 -0.9536
  724SOL    HW2 2895   2.548   0.292   0.573 -0.9103  0.8199 -0.8983
  724SOL     MW 2896   2.472   0.287   0.615 -0.7848 -0.4178 -0.3688
  725SOL     OW 2897   2.614   0.427   1.222  0.2652  0.2752 -0.0632
  725SOL    HW1 2898   2.684   0.447   1.281 -0.5881 -0.9529 -1.6854
  725SOL    HW2 2899   2.578   0.340   1.252 -0.3179  1.0844 -0.9160
  725SOL     MW 2900   2.618   0.418   1.234  0.0757  0.2199 -0.3897
  726SOL     OW 2901   2.505   2.494   0.428  0.2156 -0.5444 -0.3786
  726SOL    HW1 2902   2.530   2.584   0.416 -1.0650 -1.4155  0.4601
  726SOL    HW2 2903   2.485   2.491   0.526  1.1711 -0.2264 -1.2173
  726SOL     MW 2904   2.506   2.505   0.440  0.1727 -0.6174 -0.3786
  727SOL     OW 2905   2.866   0.304   1.746 -0.2100  0.5261  0.0424
  727SOL    HW1 2906   2.795   0.325   1.686 -0.7185  0.1031  2.2381
  727SOL    HW2 2907   2.834   0.292   1.831  1.1961 -0.4763 -0.5763
  727SOL     MW 2908   2.852   0.305   1.749 -0.0916  0.3381  0.2505
  728SOL     OW 2909   2.833   1.172   2.863 -0.4142  0.3368 -0.0387
  728SOL    HW1 2910   2.835   1.210   2.776  0.1937 -2.0136  1.9370
  728SOL    HW2 2911   2.816   1.241   2.931  0.0816  0.2976 -0.2181
  728SOL     MW 2912   2.831   1.186   2.860 -0.2686  0.0215  0.1983
  729SOL     OW 2913   2.525   1.517   1.069  0.2432 -0.1500 -1.0883
  729SOL    HW1 2914   2.568   1.439   1.107 -3.0783 -1.0595  0.6972
  729SOL    HW2 2915   2.516   1.501   0.976  2.6035  1.2856 -2.1229
  729SOL     MW 2916   2.529   1.505   1.062  0.1164 -0.0805 -0.9893
  730SOL     OW 2917   2.209   1.180   0.181 -0.8894 -0.0817 -0.0152
  730SOL    HW1 2918   2.286   1.128   0.173  0.4063 -2.9449  1.4908
  730SOL    HW2 2919   2.239   1.268   0.157 -1.2130 -0.4619 -0.2078
  730SOL     MW 2920   2.223   1.185   0.177 -0.7611 -0.5096  0.1581
  731SOL     OW 2921   2.756   2.028   2.888  0.0923 -0.7738  0.5285
  731SOL    HW1 2922   2.681   2.023   2.833  2.0171 -1.3842 -0.2524
  731SOL    HW2 2923   2.839   2.006   2.847 -1.3134 -0.7288 -2.1279
  731SOL     MW 2924   2.757   2.024   2.875  0.1608 -0.8484  0.0750
  732SOL     OW 2925   2.312   0.964   1.360  0.6215  0.0915 -0.4370
  732SOL    HW1 2926   2.274   0.956   1.448 -0.5880  1.4186 -3.1066
  732SOL    HW2 2927   2.395   0.914   1.359  1.2875 -3.1869  0.3301
  732SOL     MW 2928   2.318   0.957   1.372  0.5498 -0.1660 -0.6880
  733SOL     OW 2929   2.395   2.724   2.993  0.1040 -0.6469 -0.0319
  733SOL    HW1 2930   2.315   2.764   3.022 -0.2257 -3.2081 -2.1495
  733SOL    HW2 2931   2.392   2.630   3.020 -0.5934  0.9246  1.1437
  733SOL     MW 2932   2.384   2.717   3.000 -0.0315 -0.7775 -0.1562
  734SOL     OW 2933   1.501   0.270   2.509 -0.6150 -0.4073 -0.2714
  734SOL    HW1 2934   1.518   0.235   2.594 -0.0371  0.7396  0.3035
  734SOL    HW2 2935   1.416   0.236   2.477 -2.3709  0.6086 -1.2077
  734SOL     MW 2936   1.492   0.261   2.516 -0.7704 -0.1220 -0.3191
  735SOL     OW 2937   3.003   0.887   2.665  0.2912 -0.0866 -0.2962
  735SOL    HW1 2938   2.985   0.790   2.667 -0.9273 -1.8115  0.6520
  735SOL    HW2 2939   3.006   0.912   2.758  0.7666 -0.7458 -0.1530
  735SOL     MW 2940   3.001   0.878   2.678  0.1932 -0.4011 -0.1522
  736SOL     OW 2941   0.130   0.561   2.554 -0.2247 -0.1429 -0.3351
  736SOL    HW1 2942   0.120   0.635   2.486 -0.4806 -1.0832  0.7887
  736SOL    HW2 2943   0.191   0.503   2.516  1.0983  0.8450 -1.7739
  736SOL     MW 2944   0.136   0.563   2.540 -0.0839 -0.1366 -0.3766
  737SOL     OW 2945   2.968   0.615   2.662  0.1467 -0.5865 -0.5021
  737SOL    HW1 2946   2.894   0.621   2.596  0.8093  0.6841 -2.1299
  737SOL    HW2 2947   3.043   0.583   2.620 -0.1484 -0.5069  1.6693
  737SOL     MW 2948   2.968   0.611   2.648  0.1952 -0.4084 -0.4304
  738SOL     OW 2949   0.124   0.441   1.860  0.1727 -0.7754 -0.4692
  738SOL    HW1 2950   0.209   0.485   1.849 -0.8681  0.8303  0.0737
  738SOL    HW2 2951   0.108   0.402   1.778  0.9978  0.1001 -0.0964
  738SOL     MW 2952   0.133   0.442   1.848  0.1443 -0.4480 -0.3484
  739SOL     OW 2953   2.491   0.983   2.113  0.3395  0.0841 -0.4208
  739SOL    HW1 2954   2.436   0.954   2.043  4.1079  0.4465  3.3063
  739SOL    HW2 2955   2.551   1.037   2.062  1.9185 -3.9445 -1.9551
  739SOL     MW 2956   2.492   0.986   2.097  1.0450 -0.3996 -0.1315
  740SOL     OW 2957   0.111   1.779   2.963 -0.0779 -0.5764  0.7563
  740SOL    HW1 2958   0.066   1.692   2.942 -1.4210 -2.2113  0.1982
  740SOL    HW2 2959   0.194   1.757   3.001 -0.2435 -2.0016 -1.6702
  740SOL     MW 2960   0.116   1.764   2.965 -0.2770 -0.9802  0.3625
  741SOL     OW 2961   2.215   1.140   2.711  1.0505  0.1137 -0.1151
  741SOL    HW1 2962   2.189   1.223   2.676  1.3090 -2.5673  2.7772
  741SOL    HW2 2963   2.202   1.145   2.811  2.2974 -0.8114 -1.7988
  741SOL     MW 2964   2.210   1.152   2.719  1.2491 -0.3621  0.0444
  742SOL     OW 2965   1.586   1.231   2.271 -0.8573 -0.1997  0.3411
  742SOL    HW1 2966   1.532   1.155   2.265 -1.5542  0.8426 -1.8921
  742SOL    HW2 2967   1.647   1.224   2.343  0.6797 -1.6280  0.5029
  742SOL     MW 2968   1.587   1.220   2.280 -0.7465 -0.2506  0.0678
  743SOL     OW 2969   2.488   1.230   2.725 -0.0877 -0.2486 -0.1948
  743SOL    HW1 2970   2.394   1.206   2.751 -2.5766 -1.3821 -0.9243
  743SOL    HW2 2971   2.543   1.176   2.786 -2.0864  1.8053  3.1320
  743SOL     MW 2972   2.483   1.220   2.737 -0.6798 -0.1271  0.1479
  744SOL     OW 2973   2.671   0.869   1.907  0.5619 -0.3419  0.5939
  744SOL    HW1 2974   2.638   0.929   1.841  1.7904 -0.7876  0.7396
  744SOL    HW2 2975   2.601   0.801   1.916 -0.8617 -1.6731  1.2542
  744SOL     MW 2976   2.657   0.868   1.899  0.5362 -0.5763  0.7002
  745SOL     OW 2977   1.673   0.498   2.500 -0.0319  0.1373  0.1456
  745SOL    HW1 2978   1.672   0.518   2.404  1.8021 -0.8192  0.9267
  745SOL    HW2 2979   1.620   0.420   2.502 -0.0303  0.7077  0.6382
  745SOL     MW 2980   1.666   0.490   2.487  0.2103  0.0863  0.3136
  746SOL     OW 2981   1.620   1.455   1.639 -0.6289  0.6735 -0.4532
  746SOL    HW1 2982   1.701   1.399   1.648 -1.6218 -1.5259 -1.5894
  746SOL    HW2 2983   1.598   1.499   1.722 -0.2594  1.0660 -2.8409
  746SOL     MW 2984   1.628   1.453   1.651 -0.7112  0.4351 -0.9182
  747SOL     OW 2985   2.611   1.111   1.818 -0.0602  0.1829 -0.2438
  747SOL    HW1 2986   2.527   1.143   1.775 -1.6314 -0.2063 -0.9991
  747SOL    HW2 2987   2.618   1.167   1.899 -1.1030 -1.4086  0.9478
  747SOL     MW 2988   2.601   1.123   1.823 -0.4051 -0.0784 -0.1862
  748SOL     OW 2989   0.063   0.113   1.905  0.4517  0.5362 -0.0564
  748SOL    HW1 2990   0.151   0.159   1.899 -0.4096 -1.2406  1.2553
  748SOL    HW2 2991   0.019   0.154   1.982  0.7434  0.1821 -1.7094
  748SOL     MW 2992   0.069   0.124   1.915  0.3765  0.2550 -0.1015
  749SOL     OW 2993   2.543   0.587   2.774  0.1198 -0.3326  0.5715
  749SOL    HW1 2994   2.576   0.660   2.722 -0.9930 -1.4084  0.2637
  749SOL    HW2 2995   2.553   0.627   2.864  0.1249 -1.0289 -0.2524
  749SOL     MW 2996   2.549   0.602   2.779 -0.0264 -0.5664  0.4222
  750SOL     OW 2997   2.020   3.075   1.987  0.1921 -0.0855 -0.2524
  750SOL    HW1 2998   2.043   3.166   1.988 -0.5811  0.2228 -1.0441
  750SOL    HW2 2999   2.107   3.028   1.970 -0.1113  0.9589  1.6429
  750SOL     MW 3000   2.034   3.081   1.985  0.0501  0.0930 -0.1068
  751SOL     OW 3001   0.288   0.324   2.428  1.0463  0.6013  0.0734
  751SOL    HW1 3002   0.232   0.256   2.459  1.9124  3.9415 -0.0054
  751SOL    HW2 3003   0.316   0.299   2.339 -1.7886 -1.2412 -0.8795
  751SOL     MW 3004   0.284   0.312   2.421  0.7865  0.7989 -0.0627
  752SOL     OW 3005   2.142   0.814   2.720  0.1583  0.4459 -0.0183
  752SOL    HW1 3006   2.211   0.872   2.684 -1.7750  0.6898 -0.5073
  752SOL    HW2 3007   2.156   0.804   2.815  0.3636  2.5980  0.3334
  752SOL     MW 3008   2.153   0.820   2.728 -0.0697  0.7620 -0.0364
  753SOL     OW 3009   2.799   0.182   2.410 -0.8658 -0.5068  0.0142
  753SOL    HW1 3010   2.776   0.095   2.369 -1.2258 -1.8709  0.5834
  753SOL    HW2 3011   2.767   0.248   2.348  0.3460 -1.1696 -0.3423
  753SOL     MW 3012   2.792   0.179   2.397 -0.7534 -0.7742  0.0423
  754SOL     OW 3013   2.240   2.946   2.593  0.8296 -0.1981  0.1588
  754SOL    HW1 3014   2.267   2.928   2.501  1.1491  3.2171 -0.8763
  754SOL    HW2 3015   2.307   2.905   2.650 -1.3794 -1.5097  2.3234
  754SOL     MW 3016   2.253   2.938   2.588  0.5803  0.0794  0.3078
  755SOL     OW 3017   2.742   1.530   2.395  0.5492  0.1314 -0.1052
  755SOL    HW1 3018   2.764   1.456   2.454 -1.2046 -2.3508 -1.8988
  755SOL    HW2 3019   2.765   1.613   2.446 -0.0684  0.4546  0.6369
  755SOL     MW 3020   2.748   1.531   2.409  0.2363 -0.1535 -0.2440
  756SOL     OW 3021   2.221   1.188   2.977  0.5347 -0.5807  0.5017
  756SOL    HW1 3022   2.272   1.266   2.993 -0.5860 -0.2717 -0.1931
  756SOL    HW2 3023   2.267   1.114   3.014 -0.3335  1.1065  1.2436
  756SOL     MW 3024   2.234   1.188   2.984  0.2723 -0.3173  0.5079
  757SOL     OW 3025   2.164   0.899   1.599 -0.1720  0.3598  0.0803
  757SOL    HW1 3026   2.194   0.806   1.590  0.6950  2.1221  2.1339
  757SOL    HW2 3027   2.077   0.917   1.547 -2.4441 -0.3730 -0.8466
  757SOL     MW 3028   2.156   0.889   1.591 -0.3574  0.4956  0.2290
  758SOL     OW 3029   2.205   1.839   2.622  0.1295 -0.7533  0.0024
  758SOL    HW1 3030   2.178   1.850   2.535  0.7547 -0.0558 -0.3592
  758SOL    HW2 3031   2.300   1.848   2.616  1.1979 -3.4808  2.0963
  758SOL     MW 3032   2.214   1.841   2.609  0.3530 -1.0211  0.2310
  759SOL     OW 3033   1.535   1.288   2.707  0.2033  0.2992  0.2837
  759SOL    HW1 3034   1.552   1.373   2.662 -1.7443 -1.8702  1.3773
  759SOL    HW2 3035   1.582   1.291   2.793 -0.5206  0.1444 -0.3314
  759SOL     MW 3036   1.543   1.300   2.712 -0.1491 -0.0074  0.3468
  760SOL     OW 3037   2.540   1.986   2.732  0.8085  0.3444 -0.0614
  760SOL    HW1 3038   2.511   1.901   2.694 -0.5909  0.0166 -3.0334
  760SOL    HW2 3039   2.528   2.044   2.659  1.1625 -2.2615 -0.4513
  760SOL     MW 3040   2.534   1.982   2.717  0.6706 -0.0426 -0.5050
  761SOL     OW 3041   2.172   0.414   2.560  0.2300  0.2064  0.0437
  761SOL    HW1 3042   2.104   0.374   2.610  3.5874  0.8333 -0.5161
  761SOL    HW2 3043   2.223   0.478   2.618 -0.3304 -1.5861  3.1496
  761SOL     MW 3044   2.170   0.417   2.574  0.5991  0.0526  0.3796
  762SOL     OW 3045   3.057   0.204   2.140  0.1917  0.4514  0.1308
  762SOL    HW1 3046   3.083   0.139   2.207 -1.8008  0.8461 -1.6694
  762SOL    HW2 3047   3.039   0.294   2.182 -1.1777  0.0741  0.1401
  762SOL     MW 3048   3.058   0.208   2.155 -0.2518  0.4537 -0.1055
  763SOL     OW 3049   2.328   1.025   2.343 -0.3051 -0.0021  0.0118
  763SOL    HW1 3050   2.375   1.005   2.262  3.3577  0.1050  2.7737
  763SOL    HW2 3051   2.376   1.113   2.354  1.4823  1.5773 -0.2786
  763SOL     MW 3052   2.340   1.034   2.333  0.4140  0.2204  0.3379
  764SOL     OW 3053   0.434   0.276   2.820 -0.6141  0.0264  0.1366
  764SOL    HW1 3054   0.343   0.245   2.816 -0.9414  1.4119  1.1491
  764SOL    HW2 3055   0.433   0.362   2.860  1.0694  2.5860 -2.9823
  764SOL     MW 3056   0.422   0.284   2.825 -0.4351  0.5470 -0.1413
  765SOL     OW 3057   2.727   3.015   2.370 -0.3183 -0.3655  0.6258
  765SOL    HW1 3058   2.665   3.002   2.302  0.0217  2.5339  1.9869
  765SOL    HW2 3059   2.811   2.978   2.335  0.6179  1.1813 -1.7177
  765SOL     MW 3060   2.730   3.008   2.356 -0.1499  0.2211  0.4962
  766SOL     OW 3061   1.876   2.941   2.180  0.2121  0.1068  0.1430
  766SOL    HW1 3062   1.912   3.004   2.116 -0.0541  0.5981  1.2105
  766SOL    HW2 3063   1.810   2.892   2.124  3.1104 -1.4067  1.1197
  766SOL     MW 3064   1.872   2.943   2.164  0.5594 -0.0281  0.4127
  767SOL     OW 3065   2.664   0.600   2.095 -0.4066  0.3043  0.2496
  767SOL    HW1 3066   2.726   0.664   2.134 -3.1721  3.0312  0.3830
  767SOL    HW2 3067   2.593   0.651   2.058 -1.2776  0.9022  3.3717
  767SOL     MW 3068   2.663   0.616   2.096 -0.8864  0.7430  0.6791
  768SOL     OW 3069   3.068   1.557   2.906 -0.2820  0.3402  0.2694
  768SOL    HW1 3070   3.082   1.538   3.007 -1.0368 -1.2291  4.5976
  768SOL    HW2 3071   3.126   1.481   2.869  0.5179  1.3667 -0.8589
  768SOL     MW 3072   3.077   1.545   2.915 -0.2761  0.2685  0.6916
  769SOL     OW 3073   2.480   0.680   2.350  0.2328 -0.0829 -0.7055
  769SOL    HW1 3074   2.414   0.613   2.346  0.6591 -3.4593 -1.2018
  769SOL    HW2 3075   2.532   0.668   2.272  0.0299 -2.5220  0.1581
  769SOL     MW 3076   2.478   0.670   2.339  0.2623 -0.8502 -0.6570
  770SOL     OW 3077   0.006   1.646   2.543 -0.1414  0.4459 -0.7635
  770SOL    HW1 3078  -0.095   1.646   2.539 -0.1177 -3.0118 -2.8978
  770SOL    HW2 3079   0.020   1.554   2.543  4.4877 -0.9657  3.0582
  770SOL     MW 3080  -0.005   1.634   2.543  0.4725 -0.1965 -0.5409
  771SOL     OW 3081   3.043   0.607   1.999 -0.2328  0.3807 -0.6077
  771SOL    HW1 3082   2.963   0.590   1.942 -1.5143  1.9555 -1.8435
  771SOL    HW2 3083   3.125   0.566   1.959  0.8624 -2.3120 -0.8010
  771SOL     MW 3084   3.044   0.599   1.987 -0.2574  0.2332 -0.7963
  772SOL     OW 3085   0.064   3.087   2.300  0.1403 -0.6590 -0.6394
  772SOL    HW1 3086  -0.007   3.022   2.301  2.5402 -2.1024  1.8507
  772SOL    HW2 3087   0.129   3.048   2.243  0.1716 -0.1503  2.4146
  772SOL     MW 3088   0.063   3.073   2.292  0.4611 -0.7824  0.0921
  773SOL     OW 3089   2.444   2.835   2.743  0.2760 -0.3045 -0.2201
  773SOL    HW1 3090   2.444   2.752   2.696  0.6985 -1.1418 -0.5963
  773SOL    HW2 3091   2.433   2.799   2.833  2.0008 -1.6414  1.9221
  773SOL     MW 3092   2.442   2.819   2.749  0.5593 -0.5914  0.0129
  774SOL     OW 3093   2.362   1.146   1.737 -0.4474 -0.1742  0.0635
  774SOL    HW1 3094   2.345   1.206   1.663  0.2383  1.3179 -0.7044
  774SOL    HW2 3095   2.306   1.065   1.730 -1.0325  0.9833 -0.1157
  774SOL     MW 3096   2.352   1.143   1.726 -0.4341  0.1754 -0.0614
  775SOL     OW 3097   2.315   2.935   2.332 -0.5583  0.0884  0.3536
  775SOL    HW1 3098   2.338   3.018   2.283  1.0419  0.5207 -0.6699
  775SOL    HW2 3099   2.354   2.857   2.302  0.5029 -1.0578 -0.1853
  775SOL     MW 3100   2.323   2.936   2.322 -0.2072 -0.0058  0.1475
  776SOL     OW 3101   0.037   1.539   0.093 -0.0648  0.2499 -0.4830
  776SOL    HW1 3102   0.126   1.512   0.090 -1.2514 -0.0719  0.8738
  776SOL    HW2 3103  -0.003   1.458   0.110  2.6644  0.4265 -0.5103
  776SOL     MW 3104   0.044   1.525   0.095  0.1387  0.2308 -0.3076
  777SOL     OW 3105   2.960   0.989   1.753 -0.4962 -0.3504  0.0227
  777SOL    HW1 3106   2.924   1.069   1.707  2.1588 -1.2252  0.4597
  777SOL    HW2 3107   2.894   0.920   1.740  1.4031 -0.3543 -1.2825
  777SOL     MW 3108   2.946   0.991   1.745  0.1047 -0.4663 -0.0918
  778SOL     OW 3109   2.888   0.380   2.770  0.0707 -0.9318 -0.0636
  778SOL    HW1 3110   2.859   0.417   2.857 -2.6870 -2.4748 -1.3953
  778SOL    HW2 3111   2.936   0.450   2.721 -0.2568 -2.1012  0.8130
  778SOL     MW 3112   2.890   0.394   2.775 -0.3364 -1.2897 -0.1236
  779SOL     OW 3113   2.110   0.548   2.314 -0.0099 -0.0880  0.1392
  779SOL    HW1 3114   2.057   0.614   2.344  1.4406 -4.1376  0.6382
  779SOL    HW2 3115   2.120   0.493   2.386 -1.6634 -0.3967 -2.6147
  779SOL     MW 3116   2.105   0.549   2.327 -0.0367 -0.6630 -0.1583
  780SOL     OW 3117   0.177   0.121   2.841 -0.5179 -0.1409 -0.0496
  780SOL    HW1 3118   0.115   0.166   2.903 -0.0844  1.6672  0.1257
  780SOL    HW2 3119   0.145   0.104   2.752  2.9395  0.7265  0.5446
  780SOL     MW 3120   0.165   0.125   2.837 -0.0045  0.2121  0.0519
  781SOL     OW 3121   3.050   1.371   2.459 -0.4051  0.5064 -0.5062
  781SOL    HW1 3122   3.022   1.406   2.374 -2.4205  0.1875 -0.7979
  781SOL    HW2 3123   3.106   1.291   2.453  2.4303 -0.8968 -2.1621
  781SOL     MW 3124   3.054   1.365   2.447 -0.2969  0.2792 -0.7632
  782SOL     OW 3125   0.539   1.572   3.049  0.7111 -0.1215  0.3948
  782SOL    HW1 3126   0.492   1.656   3.056  0.2375  1.1826  1.9592
  782SOL    HW2 3127   0.542   1.554   3.145  1.6187 -0.9508 -2.4398
  782SOL     MW 3128   0.533   1.581   3.063  0.7683 -0.0588  0.2272
  783SOL     OW 3129   2.796   0.568   2.449  0.5107  0.2283 -0.1721
  783SOL    HW1 3130   2.857   0.524   2.393 -1.1239 -0.5261 -2.8820
  783SOL    HW2 3131   2.732   0.506   2.475  2.4386 -0.4964 -1.1698
  783SOL     MW 3132   2.796   0.554   2.445  0.5494  0.0332 -0.6613
  784SOL     OW 3133   0.214   0.922   2.896 -0.1216 -0.0381 -0.5492
  784SOL    HW1 3134   0.232   1.009   2.948 -0.8135 -0.0910 -1.0823
  784SOL    HW2 3135   0.234   0.964   2.811 -1.8604 -0.4700  1.6346
  784SOL     MW 3136   0.219   0.939   2.892 -0.4423 -0.1021 -0.3314
  785SOL     OW 3137   0.347   0.482   2.116  0.0876  0.2441  0.2409
  785SOL    HW1 3138   0.332   0.504   2.023 -1.9882 -0.2392  2.0906
  785SOL    HW2 3139   0.288   0.411   2.139 -0.6619  2.2400 -3.1115
  785SOL     MW 3140   0.337   0.475   2.106 -0.2852  0.4437  0.0426
  786SOL     OW 3141   2.016   0.504   2.831  0.6900 -0.1979 -0.0594
  786SOL    HW1 3142   2.015   0.523   2.925  0.8912 -1.9121 -0.9450
  786SOL    HW2 3143   2.098   0.539   2.801  3.2025 -0.7462  3.7260
  786SOL     MW 3144   2.026   0.512   2.839  1.0480 -0.4964  0.3232
  787SOL     OW 3145   2.441   0.184   2.925 -0.0967 -0.4961  0.3700
  787SOL    HW1 3146   2.502   0.130   2.875  1.7665  0.4694 -0.1932
  787SOL    HW2 3147   2.487   0.258   2.958 -2.7169 -1.3030  0.6161
  787SOL     MW 3148   2.455   0.186   2.922 -0.1966 -0.4752  0.3281
  788SOL     OW 3149   2.965   2.914   2.277 -0.0130 -0.4741 -0.0028
  788SOL    HW1 3150   2.989   2.882   2.194  0.4690  2.1574 -0.0277
  788SOL    HW2 3151   3.026   2.874   2.342 -1.0472 -0.2662  0.1255
  788SOL     MW 3152   2.977   2.904   2.275 -0.0859 -0.0994  0.0109
  789SOL     OW 3153   0.029   0.258   3.017  0.5821  0.4003  0.0356
  789SOL    HW1 3154  -0.060   0.244   3.041 -0.8642 -2.9636 -1.0056
  789SOL    HW2 3155   0.074   0.270   3.099  0.4013 -0.1925 -2.0994
  789SOL     MW 3156   0.023   0.258   3.031  0.3674 -0.1217 -0.3835
  790SOL     OW 3157   0.022   1.061   2.507  0.1491  0.0897  0.2500
  790SOL    HW1 3158  -0.011   0.998   2.569  0.5197  0.3243 -1.5342
  790SOL    HW2 3159  -0.049   1.062   2.445 -1.6176 -1.2738  0.7097
  790SOL     MW 3160   0.008   1.052   2.507 -0.0351 -0.0593  0.0752
  791SOL     OW 3161   2.656   0.388   2.636  0.2324  0.3116  0.2316
  791SOL    HW1 3162   2.611   0.458   2.679  1.0136 -1.6780 -0.6467
  791SOL    HW2 3163   2.744   0.380   2.675 -1.3848 -1.3692 -0.8532
  791SOL     MW 3164   2.662   0.396   2.647  0.1221 -0.1726 -0.0274
  792SOL     OW 3165   2.435   0.236   2.370  0.8933  0.4987 -0.6020
  792SOL    HW1 3166   2.362   0.272   2.417 -2.3544 -2.5522  1.4017
  792SOL    HW2 3167   2.476   0.195   2.447 -3.0342 -1.4481 -3.1638
  792SOL     MW 3168   2.431   0.235   2.386 -0.0534 -0.1607 -0.6756
  793SOL     OW 3169   1.746   1.041   1.873  0.1907  0.2722  0.6724
  793SOL    HW1 3170   1.695   1.058   1.788  0.3292 -0.5297 -1.1836
  793SOL    HW2 3171   1.810   0.975   1.845 -0.3449 -3.7138  1.8383
  793SOL     MW 3172   1.748   1.035   1.858  0.1383 -0.3595  0.5814
  794SOL     OW 3173   1.432   2.301   0.115  0.5516  0.2651 -0.4012
  794SOL    HW1 3174   1.472   2.365   0.053  0.5762  1.7707  1.3446
  794SOL    HW2 3175   1.460   2.332   0.200  0.5530 -1.5672  1.0239
  794SOL     MW 3176   1.441   2.314   0.118  0.5550  0.2220  0.0172
  795SOL     OW 3177   2.359   0.929   2.599 -0.0015  0.2428  0.4531
  795SOL    HW1 3178   2.315   1.008   2.624  1.8017  0.4681  0.9999
  795SOL    HW2 3179   2.361   0.941   2.505 -0.2926 -0.9321 -0.5705
  795SOL     MW 3180   2.353   0.941   2.590  0.1980  0.1175  0.3902
  796SOL     OW 3181   0.320   0.691   2.780 -0.0187  0.2382  0.2767
  796SOL    HW1 3182   0.279   0.760   2.833  0.3578 -2.0027  2.1836
  796SOL    HW2 3183   0.251   0.671   2.716 -0.7015  0.1578 -0.7215
  796SOL     MW 3184   0.305   0.698   2.779 -0.0591 -0.0680  0.3966
  797SOL     OW 3185   2.590   0.143   2.572  0.2023  0.0344  0.5990
  797SOL    HW1 3186   2.610   0.235   2.602 -0.2528  3.2090  1.2523
  797SOL    HW2 3187   2.659   0.128   2.507 -0.2674 -0.9633  0.0545
  797SOL     MW 3188   2.602   0.153   2.567  0.0803  0.3217  0.6133
  798SOL     OW 3189   2.368   0.049   2.192 -0.2569  0.3714  0.0870
  798SOL    HW1 3190   2.386   0.102   2.273 -0.6236  2.0162 -0.7692
  798SOL    HW2 3191   2.452   0.003   2.180 -0.6751  1.1496 -0.1777
  798SOL     MW 3192   2.382   0.050   2.201 -0.3604  0.6911 -0.0609
  799SOL     OW 3193   2.515   2.949   0.205  0.6781  0.0997 -0.1608
  799SOL    HW1 3194   2.563   2.918   0.128 -0.7989 -0.8593  1.2131
  799SOL    HW2 3195   2.447   3.013   0.172 -1.5285  1.2196  2.0072
  799SOL     MW 3196   2.512   2.953   0.191  0.1921  0.1210  0.3065
  800SOL     OW 3197   1.922   3.089   1.712  0.1121 -0.1625 -0.5762
  800SOL    HW1 3198   1.866   3.013   1.737 -0.1312  0.6618  1.3926
  800SOL    HW2 3199   1.977   3.099   1.793 -2.2192  1.0284  0.3194
  800SOL     MW 3200   1.922   3.080   1.726 -0.2276  0.1034 -0.1983
  801SOL     OW 3201   2.822   1.291   2.611  0.1188  0.2746  0.6318
  801SOL    HW1 3202   2.803   1.212   2.553 -0.2474 -1.5642  2.2138
  801SOL    HW2 3203   2.910   1.319   2.589  0.6399  1.4714 -0.0311
  801SOL     MW 3204   2.831   1.284   2.601  0.1393  0.1899  0.7531
  802SOL     OW 3205   2.566   1.504   2.777  0.3730  0.1641 -0.1848
  802SOL    HW1 3206   2.569   1.423   2.726  0.8712  1.2513 -2.8601
  802SOL    HW2 3207   2.652   1.529   2.797 -1.1947  1.4512  0.4562
  802SOL     MW 3208   2.578   1.497   2.773  0.2319  0.4774 -0.4532
  803SOL     OW 3209   2.286   1.329   1.958  0.1823  0.3295 -0.4400
  803SOL    HW1 3210   2.244   1.275   2.022 -0.7527  0.5135  0.3096
  803SOL    HW2 3211   2.305   1.267   1.890 -3.0827  0.0584  2.4844
  803SOL     MW 3212   2.283   1.314   1.957 -0.3719  0.3180  0.0447
  804SOL     OW 3213   2.353   0.030   0.040  0.2224 -0.5468 -0.2048
  804SOL    HW1 3214   2.263   0.070   0.028  0.1406 -1.3211  0.5701
  804SOL    HW2 3215   2.395   0.076  -0.035 -0.4195 -0.2305  0.7129
  804SOL     MW 3216   2.347   0.042   0.029  0.1269 -0.6072  0.0186
  805SOL     OW 3217   2.786   1.021   2.535  0.8334  0.5261  0.1857
  805SOL    HW1 3218   2.718   0.952   2.526  2.7562 -2.2859 -0.5550
  805SOL    HW2 3219   2.858   0.971   2.576 -0.6773  0.4358 -0.2738
  805SOL     MW 3220   2.787   1.006   2.539  0.8878  0.1432  0.0273
  806SOL     OW 3221   2.663   0.327   2.224 -0.8351  0.0046 -0.1355
  806SOL    HW1 3222   2.576   0.327   2.257 -0.0023 -2.3813 -0.1872
  806SOL    HW2 3223   2.666   0.411   2.187  0.0990 -1.8327  1.3983
  806SOL     MW 3224   2.652   0.338   2.223 -0.6019 -0.5526  0.0601
  807SOL     OW 3225   0.033   1.157   2.076  0.1592  0.0030  0.3510
  807SOL    HW1 3226   0.030   1.078   2.027  0.8536  0.6503  0.4753
  807SOL    HW2 3227  -0.043   1.142   2.132 -0.7212  0.5073  0.0504
  807SOL     MW 3228   0.022   1.145   2.077  0.1347  0.1550  0.3277
  808SOL     OW 3229   2.587   3.086   2.786  0.2751  0.0023 -0.6035
  808SOL    HW1 3230   2.530   3.007   2.788  1.7222  0.1001  1.3650
  808SOL    HW2 3231   2.585   3.119   2.694  0.1745 -0.4520  1.5060
  808SOL     MW 3232   2.579   3.080   2.774  0.4527 -0.0447 -0.0654
  809SOL     OW 3233   2.497   1.243   2.408 -0.1596  0.1030 -0.2646
  809SOL    HW1 3234   2.515   1.201   2.488  1.4607  1.0379  2.8219
  809SOL    HW2 3235   2.574   1.244   2.353  2.1058  1.4881 -0.4237
  809SOL     MW 3236   2.509   1.238   2.411  0.3531  0.4091  0.1217
  810SOL     OW 3237   2.147   1.176   2.171 -0.3427 -0.1813 -0.0882
  810SOL    HW1 3238   2.179   1.097   2.218 -2.6379 -1.7130  2.1820
  810SOL    HW2 3239   2.056   1.144   2.155 -0.3576  0.5379  2.4921
  810SOL     MW 3240   2.139   1.161   2.175 -0.6475 -0.2885  0.5518
  811SOL     OW 3241   1.517   0.087   2.246  0.3037 -0.0933 -0.2320
  811SOL    HW1 3242   1.592   0.050   2.306  1.3988 -0.5088  0.6990
  811SOL    HW2 3243   1.513   0.054   2.161 -2.6681 -1.9675  2.9415
  811SOL     MW 3244   1.527   0.078   2.243  0.0561 -0.3954  0.3096
  812SOL     OW 3245   1.447   2.762   2.117  0.3779 -0.3565 -0.1036
  812SOL    HW1 3246   1.544   2.773   2.090 -1.2110  1.9106  0.6029
  812SOL    HW2 3247   1.446   2.741   2.210 -1.6549 -2.3180 -1.7513
  812SOL     MW 3248   1.460   2.760   2.126 -0.0999 -0.3161 -0.2277
  813SOL     OW 3249   1.856   0.730   2.171  0.3582 -0.4366  0.3716
  813SOL    HW1 3250   1.798   0.655   2.191 -1.6282 -0.0625  0.4328
  813SOL    HW2 3251   1.892   0.764   2.256  2.1794  0.2886 -1.8721
  813SOL     MW 3252   1.854   0.724   2.185  0.3364 -0.2915  0.0836
  814SOL     OW 3253   2.809   1.207   1.639  0.6974  0.1072  0.4312
  814SOL    HW1 3254   2.734   1.167   1.691 -1.4529  1.6382  2.0157
  814SOL    HW2 3255   2.805   1.175   1.547 -2.4800 -1.3424 -0.0460
  814SOL     MW 3256   2.799   1.198   1.633 -0.0056  0.1180  0.5773
  815SOL     OW 3257   2.479   1.622   2.346  0.0133 -0.3186  0.1530
  815SOL    HW1 3258   2.405   1.554   2.347 -0.2962  0.5684  0.0264
  815SOL    HW2 3259   2.556   1.572   2.343  2.3777  1.3337  1.6522
  815SOL     MW 3260   2.479   1.606   2.345  0.2844  0.0164  0.3341
  816SOL     OW 3261   0.662   0.680   2.668  0.5801  0.3868  0.1452
  816SOL    HW1 3262   0.706   0.623   2.729 -1.9608  0.8315 -0.3576
  816SOL    HW2 3263   0.593   0.623   2.621 -1.9866 -1.4537  1.2235
  816SOL     MW 3264   0.658   0.665   2.670 -0.0938  0.2026  0.2211
  817SOL     OW 3265   3.040   1.154   1.330  0.3181  0.2539 -0.5464
  817SOL    HW1 3266   3.103   1.180   1.397 -0.0778 -1.7275 -2.8545
  817SOL    HW2 3267   2.981   1.234   1.318 -0.4138  1.1934 -2.4423
  817SOL     MW 3268   3.040   1.168   1.338  0.1693  0.1164 -1.1011
  818SOL     OW 3269   1.910   0.961   2.687 -0.3779 -0.2792  0.2914
  818SOL    HW1 3270   1.960   1.021   2.631  0.9339  0.6480 -0.8395
  818SOL    HW2 3271   1.974   0.903   2.727  2.4345  1.9423  0.9422
  818SOL     MW 3272   1.925   0.961   2.685  0.1663  0.1362  0.2280
  819SOL     OW 3273   1.914   0.254   2.331  0.8004 -0.1192  0.1396
  819SOL    HW1 3274   1.861   0.320   2.369  1.8292 -3.1890 -1.3187
  819SOL    HW2 3275   1.953   0.213   2.407  1.6496 -0.4646 -1.3991
  819SOL     MW 3276   1.912   0.257   2.346  1.0482 -0.5698 -0.2558
  820SOL     OW 3277   2.478   1.740   2.600 -0.1873 -0.3988 -0.2764
  820SOL    HW1 3278   2.539   1.671   2.633  0.8106 -2.7137  1.5841
  820SOL    HW2 3279   2.484   1.717   2.508  0.3860  3.6331 -0.1099
  820SOL     MW 3280   2.486   1.728   2.592  0.0200 -0.1722 -0.0090
  821SOL     OW 3281   2.569   1.319   2.008 -0.3395 -0.1558  0.4953
  821SOL    HW1 3282   2.591   1.388   1.941  0.2298 -1.7510 -1.1626
  821SOL    HW2 3283   2.479   1.328   2.023 -1.8274  0.5209 -0.1963
  821SOL     MW 3284   2.560   1.329   2.001 -0.4607 -0.2770  0.1853
  822SOL     OW 3285   2.918   2.637   1.446 -0.4235 -0.4776  0.3075
  822SOL    HW1 3286   2.847   2.698   1.430  0.0753  2.1712  0.0329
  822SOL    HW2 3287   2.988   2.694   1.484  1.3055 -1.3786  0.9931
  822SOL     MW 3288   2.918   2.652   1.449 -0.1295 -0.2470  0.3617
  823SOL     OW 3289   2.356   0.469   1.786  0.0431  0.0373  0.3894
  823SOL    HW1 3290   2.434   0.448   1.730  1.5993 -1.1412  1.4634
  823SOL    HW2 3291   2.288   0.399   1.774  2.3612 -0.2422 -1.9113
  823SOL     MW 3292   2.357   0.457   1.777  0.5543 -0.1551  0.2275
  824SOL     OW 3293   2.114   1.367   2.588  0.2805 -0.1343 -0.2740
  824SOL    HW1 3294   2.168   1.397   2.510 -0.3637 -0.2462 -0.9584
  824SOL    HW2 3295   2.091   1.453   2.634 -0.4395 -0.0229 -2.6332
  824SOL     MW 3296   2.118   1.382   2.584  0.1005 -0.1344 -0.6756
  825SOL     OW 3297   2.130   2.373   0.353 -0.2101 -0.5710  0.0525
  825SOL    HW1 3298   2.187   2.380   0.272 -0.2363 -2.0082  2.3770
  825SOL    HW2 3299   2.185   2.386   0.431  3.0040  0.5731  0.3165
  825SOL     MW 3300   2.145   2.376   0.352  0.2105 -0.6097  0.3940
  826SOL     OW 3301   1.750   2.401   0.425  0.2739  0.4656 -0.0659
  826SOL    HW1 3302   1.765   2.338   0.497  2.7107  0.4782  2.2746
  826SOL    HW2 3303   1.807   2.478   0.442  0.5520  0.7614  0.5435
  826SOL     MW 3304   1.759   2.403   0.437  0.6321  0.5062  0.3234
  827SOL     OW 3305   1.927   2.269   0.861 -0.0192 -0.3175 -0.1535
  827SOL    HW1 3306   1.872   2.272   0.782  0.1599 -0.4073  1.6113
  827SOL    HW2 3307   1.884   2.191   0.891 -2.3342 -0.0254  1.1588
  827SOL     MW 3308   1.914   2.259   0.855 -0.3010 -0.2908  0.2525
  828SOL     OW 3309   0.099   2.618   0.548  0.2493  0.6961 -0.0922
  828SOL    HW1 3310   0.178   2.644   0.593 -1.3870 -1.2140 -0.1882
  828SOL    HW2 3311   0.089   2.670   0.467  0.4191 -0.3372  1.3703
  828SOL     MW 3312   0.108   2.628   0.543  0.0558  0.3077  0.0881
  829SOL     OW 3313   2.998   2.856   1.200 -0.1037 -0.2419 -0.0779
  829SOL    HW1 3314   2.913   2.847   1.150  2.5257 -0.6715  2.5787
  829SOL    HW2 3315   3.049   2.780   1.178 -0.1340  1.3817 -0.7698
  829SOL     MW 3316   2.993   2.845   1.190  0.2392 -0.0844  0.1813
  830SOL     OW 3317   2.508   2.794   1.993 -0.2912  0.3753 -0.1746
  830SOL    HW1 3318   2.421   2.838   1.966 -2.9574  0.9955 -1.6888
  830SOL    HW2 3319   2.559   2.781   1.914 -0.8635 -0.6982  2.0320
  830SOL     MW 3320   2.504   2.798   1.979 -0.7185  0.3155 -0.0832
  831SOL     OW 3321   2.466   2.424   1.238 -0.0066  0.1205  0.2088
  831SOL    HW1 3322   2.458   2.333   1.265 -1.3357  0.9648 -3.3724
  831SOL    HW2 3323   2.555   2.424   1.197  0.4798 -0.6350 -2.0006
  831SOL     MW 3324   2.477   2.412   1.236 -0.1178  0.1322 -0.5552
  832SOL     OW 3325   2.434   2.108   1.912 -0.1537 -0.4803  0.2481
  832SOL    HW1 3326   2.448   2.207   1.919  0.5022  1.8283  0.5125
  832SOL    HW2 3327   2.482   2.082   1.835 -0.9799  1.2329 -2.2680
  832SOL     MW 3328   2.443   2.118   1.903 -0.1762  0.0504 -0.0490
  833SOL     OW 3329   1.616   2.498   0.804 -0.5886 -0.4130 -0.1820
  833SOL    HW1 3330   1.614   2.418   0.855  2.6812  0.5498 -3.4828
  833SOL    HW2 3331   1.528   2.546   0.820  0.0333 -0.7792 -0.4065
  833SOL     MW 3332   1.604   2.494   0.813 -0.0751 -0.3343 -0.6471
  834SOL     OW 3333   2.207   2.404   0.644 -0.8274  0.6201 -0.6351
  834SOL    HW1 3334   2.207   2.305   0.655 -2.5155 -0.1071  0.6389
  834SOL    HW2 3335   2.295   2.430   0.685  1.9406  1.5602 -1.2311
  834SOL     MW 3336   2.219   2.394   0.651 -0.6849  0.6482 -0.5457
  835SOL     OW 3337   1.875   2.583   0.668  0.4522  0.9585  0.0744
  835SOL    HW1 3338   1.805   2.531   0.709 -1.2491 -1.0737  5.0996
  835SOL    HW2 3339   1.942   2.593   0.730 -2.2796  0.9756  0.9450
  835SOL     MW 3340   1.874   2.578   0.682 -0.1327  0.6927  0.8523
  836SOL     OW 3341   2.089   2.061   1.760  0.0823  0.0457  0.5077
  836SOL    HW1 3342   2.173   2.011   1.747  0.7460 -0.2929  0.7322
  836SOL    HW2 3343   2.116   2.153   1.774  0.5011 -0.3112 -1.0231
  836SOL     MW 3344   2.103   2.066   1.760  0.2252 -0.0461  0.3353
  837SOL     OW 3345   2.126   0.183   0.650 -0.3795  0.5233  0.1125
  837SOL    HW1 3346   2.043   0.175   0.613  3.6174 -0.0824  2.3968
  837SOL    HW2 3347   2.176   0.158   0.575 -0.9055  1.4618  1.5645
  837SOL     MW 3348   2.122   0.179   0.635  0.0785  0.5672  0.6055
  838SOL     OW 3349   2.931   2.046   0.913 -0.1230 -0.5630  0.2187
  838SOL    HW1 3350   2.854   1.991   0.912  1.0910  2.0012  1.0617
  838SOL    HW2 3351   2.962   2.027   1.000  1.7093 -0.5888 -1.6323
  838SOL     MW 3352   2.925   2.036   0.924  0.2789 -0.2280  0.0857
  839SOL     OW 3353   1.526   2.387   1.076 -0.1852 -0.2430 -0.2648
  839SOL    HW1 3354   1.527   2.460   1.137  1.0990  1.0355 -2.5410
  839SOL    HW2 3355   1.572   2.314   1.131  2.1711  3.6751 -4.4221
  839SOL     MW 3356   1.532   2.387   1.091  0.2951  0.4426 -1.1136
  840SOL     OW 3357   2.408   2.113   2.318 -0.4378  0.1862 -0.4349
  840SOL    HW1 3358   2.347   2.185   2.296 -0.4258 -0.9844  1.5194
  840SOL    HW2 3359   2.463   2.141   2.398  0.0851 -0.0553  0.8062
  840SOL     MW 3360   2.407   2.126   2.326 -0.3673 -0.0001 -0.0133
  841SOL     OW 3361   2.298   2.295   0.120 -0.4674 -0.5123  0.2245
  841SOL    HW1 3362   2.296   2.339   0.031 -1.7011  2.2340  1.0399
  841SOL    HW2 3363   2.218   2.241   0.113 -1.5377 -0.7233 -0.9536
  841SOL     MW 3364   2.288   2.294   0.108 -0.7714 -0.1778  0.1766
  842SOL     OW 3365   2.670   1.938   1.486  0.1547  0.3324  0.0116
  842SOL    HW1 3366   2.598   1.875   1.480 -0.5393  2.6627  1.0602
  842SOL    HW2 3367   2.675   1.979   1.402  0.3570 -2.1349  0.1972
  842SOL     MW 3368   2.661   1.935   1.474  0.0899  0.3144  0.1744
  843SOL     OW 3369   2.652   2.773   1.760  0.3808 -0.3019 -0.1996
  843SOL    HW1 3370   2.716   2.722   1.799 -1.7611  0.3390 -1.2047
  843SOL    HW2 3371   2.589   2.706   1.721  0.8660 -0.9477  2.0819
  843SOL     MW 3372   2.652   2.757   1.760  0.1622 -0.3026 -0.0312
  844SOL     OW 3373   2.675   2.337   1.086 -0.0882  0.2975  0.1248
  844SOL    HW1 3374   2.707   2.358   0.998  0.5898 -1.9732 -1.3579
  844SOL    HW2 3375   2.742   2.369   1.148  0.1828 -2.2103  0.7709
  844SOL     MW 3376   2.688   2.344   1.083  0.0370 -0.3330  0.0144
  845SOL     OW 3377   2.840   2.617   0.276  0.0295  0.0912  0.2943
  845SOL    HW1 3378   2.822   2.533   0.328  1.4393  0.5211 -1.7397
  845SOL    HW2 3379   2.829   2.700   0.331 -1.7330  0.1493 -1.4698
  845SOL     MW 3380   2.836   2.617   0.290 -0.0170  0.1556 -0.2068
  846SOL     OW 3381   1.447   2.731   0.774 -0.5112 -0.3936  0.2131
  846SOL    HW1 3382   1.517   2.794   0.792  0.4852 -1.6403 -2.0113
  846SOL    HW2 3383   1.362   2.772   0.796 -1.5197  1.8416  0.0748
  846SOL     MW 3384   1.445   2.745   0.779 -0.5128 -0.2631 -0.0986
  847SOL     OW 3385   2.446   1.814   0.222 -0.6109  0.0493 -0.0568
  847SOL    HW1 3386   2.416   1.731   0.259  0.6875 -2.4741  2.7026
  847SOL    HW2 3387   2.401   1.829   0.133 -0.4930 -1.7489 -2.4720
  847SOL     MW 3388   2.436   1.805   0.215 -0.4240 -0.5209 -0.0114
  848SOL     OW 3389   2.709   2.059   1.197  0.7765  0.3828 -0.1811
  848SOL    HW1 3390   2.717   2.126   1.130 -0.8333  3.0373 -0.0691
  848SOL    HW2 3391   2.702   1.977   1.145 -0.7618 -2.1679  2.9678
  848SOL     MW 3392   2.709   2.057   1.182  0.3612  0.3965  0.2491
  849SOL     OW 3393   1.938   2.846   0.823 -0.0574  0.2256 -0.4150
  849SOL    HW1 3394   1.884   2.794   0.885 -1.1751  0.5274  2.1414
  849SOL    HW2 3395   1.999   2.786   0.781 -3.1658 -1.9658  2.7259
  849SOL     MW 3396   1.939   2.831   0.826 -0.6150 -0.0237  0.3367
  850SOL     OW 3397   2.323   1.943   1.614 -0.7001  0.0378 -0.0412
  850SOL    HW1 3398   2.246   1.914   1.562  1.1863 -0.3992  0.0173
  850SOL    HW2 3399   2.341   2.031   1.584  2.0893  2.2334 -1.6558
  850SOL     MW 3400   2.315   1.951   1.603 -0.0832  0.2698 -0.2465
  851SOL     OW 3401   2.547   2.199   0.413  0.6988  0.2218  0.6364
  851SOL    HW1 3402   2.573   2.174   0.320 -0.3195 -0.2304 -0.6455
  851SOL    HW2 3403   2.535   2.294   0.409  0.4886  2.2744  3.1373
  851SOL     MW 3404   2.549   2.208   0.400  0.5367  0.4330  0.7972
  852SOL     OW 3405   2.309   2.005   0.357  0.7448  0.3945  0.3060
  852SOL    HW1 3406   2.289   2.087   0.313  2.7814 -0.7129  0.3740
  852SOL    HW2 3407   2.363   1.954   0.292  0.2757  0.9265 -0.2211
  852SOL     MW 3408   2.313   2.009   0.342  0.9516  0.3186  0.2454
  853SOL     OW 3409   2.521   2.395   1.900 -0.2020  0.2577 -0.0990
  853SOL    HW1 3410   2.526   2.449   1.819 -2.3118  1.8668 -1.4165
  853SOL    HW2 3411   2.610   2.391   1.932 -2.6746  2.2729  0.7822
  853SOL     MW 3412   2.533   2.401   1.894 -0.8066  0.7359 -0.1566
  854SOL     OW 3413   2.864   2.260   0.731  0.4915  0.3722  0.2026
  854SOL    HW1 3414   2.769   2.239   0.723  1.2224  0.7796 -3.0422
  854SOL    HW2 3415   2.910   2.181   0.771 -0.2134 -1.4193  0.1876
  854SOL     MW 3416   2.857   2.247   0.736  0.4949  0.1896 -0.2275
  855SOL     OW 3417   2.798   2.381   0.428  0.1707  0.1278 -0.1907
  855SOL    HW1 3418   2.715   2.335   0.422  0.0685 -1.5754  1.2293
  855SOL    HW2 3419   2.862   2.313   0.416  1.4664 -0.5670 -0.5038
  855SOL     MW 3420   2.795   2.366   0.425  0.3281 -0.1886 -0.0446
  856SOL     OW 3421   2.097   1.851   0.237  0.3375 -0.5396 -0.1239
  856SOL    HW1 3422   2.013   1.865   0.279 -0.8659 -1.9785 -2.1900
  856SOL    HW2 3423   2.163   1.907   0.278  2.2441 -2.5951  2.3852
  856SOL     MW 3424   2.095   1.860   0.248  0.4303 -1.0006 -0.0654
  857SOL     OW 3425   2.454   1.915   0.580 -0.1749  0.3312 -0.3103
  857SOL    HW1 3426   2.407   1.953   0.508  1.0757 -0.1826  1.2649
  857SOL    HW2 3427   2.383   1.908   0.649 -2.2288  0.3708 -0.3505
  857SOL     MW 3428   2.439   1.919   0.580 -0.2809  0.2686 -0.1078
  858SOL     OW 3429   2.924   2.682   1.815  0.4191 -0.4641  0.3278
  858SOL    HW1 3430   3.000   2.724   1.852  0.0641 -1.1832  1.9641
  858SOL    HW2 3431   2.946   2.606   1.766 -0.2232  0.9308 -0.1188
  858SOL     MW 3432   2.937   2.677   1.814  0.2875 -0.3750  0.4848
  859SOL     OW 3433   1.764   2.648   0.978 -0.5476 -0.1248  0.4207
  859SOL    HW1 3434   1.704   2.598   0.922 -0.1832 -1.3210 -2.6259
  859SOL    HW2 3435   1.827   2.592   1.020  2.6787 -0.4330  0.9765
  859SOL     MW 3436   1.765   2.634   0.976 -0.0739 -0.3233  0.0921
  860SOL     OW 3437   2.630   2.585   0.105 -0.0254 -0.0084 -1.0162
  860SOL    HW1 3438   2.707   2.591   0.167 -0.3396 -1.3370 -0.8050
  860SOL    HW2 3439   2.641   2.674   0.060 -0.2933  0.8753  0.0327
  860SOL     MW 3440   2.642   2.597   0.107 -0.1022 -0.0671 -0.8499
  861SOL     OW 3441   1.608   2.158   1.180 -0.2023  0.3497  0.1025
  861SOL    HW1 3442   1.646   2.195   1.262  1.0846 -0.6917  3.1227
  861SOL    HW2 3443   1.527   2.106   1.207  0.3509 -1.6472 -0.5719
  861SOL     MW 3444   1.602   2.156   1.194  0.0405 -0.0511  0.4120
  862SOL     OW 3445   2.413   1.713   1.431  0.3975 -0.1516  0.0606
  862SOL    HW1 3446   2.372   1.782   1.485 -0.7382  1.8344  2.9065
  862SOL    HW2 3447   2.340   1.672   1.384 -0.8694 -0.8639  0.5990
  862SOL     MW 3448   2.398   1.716   1.432  0.0805  0.0164  0.5071
  863SOL     OW 3449   2.907   1.701   0.965 -0.7618 -0.8889 -0.2633
  863SOL    HW1 3450   2.887   1.761   1.037 -0.4553  0.2131 -0.2013
  863SOL    HW2 3451   2.834   1.720   0.906  0.9417 -0.7023 -1.7224
  863SOL     MW 3452   2.895   1.712   0.967 -0.4966 -0.7189 -0.4476
  864SOL     OW 3453   3.106   1.755   0.774 -0.5751  0.0957  0.2430
  864SOL    HW1 3454   3.040   1.723   0.837 -1.5964 -0.6480 -1.6814
  864SOL    HW2 3455   3.051   1.755   0.691 -1.7590 -2.0254  0.6754
  864SOL     MW 3456   3.090   1.751   0.771 -0.8661 -0.2823  0.0462
  865SOL     OW 3457   2.545   2.142   0.131 -0.1756  0.1493  0.0368
  865SOL    HW1 3458   2.517   2.055   0.097 -4.5742  0.1303 -0.4529
  865SOL    HW2 3459   2.454   2.188   0.129  1.4212 -0.8165  1.1392
  865SOL     MW 3460   2.529   2.137   0.126 -0.5453  0.0193  0.1176
  866SOL     OW 3461   2.735   2.356   1.517  0.3469  0.3034 -0.3138
  866SOL    HW1 3462   2.756   2.260   1.530 -0.4792  0.5565 -0.5094
  866SOL    HW2 3463   2.774   2.372   1.433 -0.7120  1.6396 -0.4294
  866SOL     MW 3464   2.743   2.345   1.507  0.0982  0.5131 -0.3548
  867SOL     OW 3465   0.122   2.661   1.733  0.5454 -0.0567 -0.1362
  867SOL    HW1 3466   0.213   2.685   1.724  1.5808  0.2656 -0.7051
  867SOL    HW2 3467   0.070   2.732   1.699  2.1417 -2.0680  0.7762
  867SOL     MW 3468   0.127   2.674   1.727  0.8926 -0.2795 -0.0908
  868SOL     OW 3469   2.748   2.679   0.601  0.1377 -0.3863  0.3179
  868SOL    HW1 3470   2.725   2.596   0.576  1.5726  1.1052  0.0796
  868SOL    HW2 3471   2.671   2.734   0.570  0.8301  0.2730 -1.0311
  868SOL     MW 3472   2.735   2.676   0.593  0.4184 -0.1025  0.1085
  869SOL     OW 3473   1.937   2.473   1.069 -0.6410  0.1968  0.3730
  869SOL    HW1 3474   2.002   2.501   1.007 -0.2976 -1.3414  1.3833
  869SOL    HW2 3475   1.927   2.390   1.024 -1.1985 -0.9368 -1.4622
  869SOL     MW 3476   1.944   2.466   1.055 -0.6692 -0.1557  0.2642
  870SOL     OW 3477   2.194   3.079   0.454 -0.9863  0.3813  0.0785
  870SOL    HW1 3478   2.273   3.114   0.415  1.2525  0.0828  0.9493
  870SOL    HW2 3479   2.222   2.991   0.487  1.7504 -1.3831 -0.1987
  870SOL     MW 3480   2.208   3.072   0.453 -0.3298  0.1091  0.1569
  871SOL     OW 3481   2.477   2.083   0.919  0.3213 -0.6681  0.0073
  871SOL    HW1 3482   2.406   2.039   0.869 -0.5636 -0.4180 -0.6064
  871SOL    HW2 3483   2.435   2.168   0.934 -3.1194 -1.6718  0.6834
  871SOL     MW 3484   2.462   2.088   0.914 -0.2494 -0.7675  0.0156
  872SOL     OW 3485   2.107   2.496   1.631 -0.4040 -0.5751 -0.7277
  872SOL    HW1 3486   2.074   2.582   1.662 -0.3157 -0.9215  0.8695
  872SOL    HW2 3487   2.060   2.492   1.545  0.6694 -1.0444 -0.0663
  872SOL     MW 3488   2.096   2.507   1.624 -0.2507 -0.6827 -0.4297
  873SOL     OW 3489   2.856   2.154   1.836 -0.1106 -0.6298  0.2289
  873SOL    HW1 3490   2.853   2.234   1.884 -0.2468 -0.2070 -1.4727
  873SOL    HW2 3491   2.914   2.169   1.763 -0.8248  0.2305  1.1816
  873SOL     MW 3492   2.863   2.167   1.833 -0.2228 -0.4605  0.1301
  874SOL     OW 3493   2.287   1.422   2.343  0.6656  0.1405  0.4396
  874SOL    HW1 3494   2.237   1.392   2.269  0.3841  1.8955  1.2205
  874SOL    HW2 3495   2.359   1.360   2.364  3.2352 -3.6208  2.0178
  874SOL     MW 3496   2.290   1.410   2.336  0.9675 -0.1242  0.7509
  875SOL     OW 3497   2.384   2.346   0.976 -0.2698 -0.1640  0.7033
  875SOL    HW1 3498   2.399   2.416   0.914 -0.7479 -1.2663 -1.4008
  875SOL    HW2 3499   2.398   2.391   1.065  1.7929 -0.9259  0.4241
  875SOL     MW 3500   2.387   2.361   0.980 -0.0607 -0.4100  0.3889
  876SOL     OW 3501   3.090   2.219   1.324  0.2515 -0.3795 -0.0353
  876SOL    HW1 3502   3.170   2.262   1.295 -0.1009  0.8348  1.6796
  876SOL    HW2 3503   3.094   2.176   1.412 -1.3548 -2.5439 -1.5381
  876SOL     MW 3504   3.101   2.219   1.332 -0.0070 -0.5048 -0.0073
  877SOL     OW 3505   0.023   2.773   0.295  0.3350  0.5338 -0.2956
  877SOL    HW1 3506   0.087   2.841   0.278 -0.9539  3.4846 -2.6497
  877SOL    HW2 3507   0.018   2.712   0.216 -1.6810  1.8890 -0.6670
  877SOL     MW 3508   0.031   2.774   0.283 -0.1011  1.1019 -0.6552
  878SOL     OW 3509   2.263   1.662   1.160  0.0368  0.4956 -0.1715
  878SOL    HW1 3510   2.180   1.614   1.209 -0.7756 -0.4953  0.0547
  878SOL    HW2 3511   2.299   1.599   1.089 -0.1231 -0.1509 -0.2137
  878SOL     MW 3512   2.257   1.647   1.157 -0.0915  0.2795 -0.1472
  879SOL     OW 3513   2.729   2.468   0.848 -0.2337 -0.4117 -0.0729
  879SOL    HW1 3514   2.774   2.539   0.895 -0.8780 -1.2051 -0.3836
  879SOL    HW2 3515   2.806   2.413   0.820 -2.1789  0.8519 -0.8508
  879SOL     MW 3516   2.745   2.470   0.851 -0.5753 -0.3497 -0.2165
  880SOL     OW 3517   2.612   2.212   0.684 -0.3472 -0.2385 -0.1676
  880SOL    HW1 3518   2.567   2.146   0.730 -2.0742 -0.4790  0.6376
  880SOL    HW2 3519   2.598   2.202   0.583 -2.6001  0.2795  0.6470
  880SOL     MW 3520   2.604   2.202   0.677 -0.8723 -0.2019  0.0461
  881SOL     OW 3521   2.989   2.756   0.687  0.2250 -0.3065 -0.8469
  881SOL    HW1 3522   2.898   2.719   0.657 -0.4709 -0.0199  0.0342
  881SOL    HW2 3523   3.056   2.704   0.647 -1.8607 -1.5361  2.7218
  881SOL     MW 3524   2.986   2.745   0.678 -0.1420 -0.4309 -0.2598
  882SOL     OW 3525   2.230   2.899   1.939  0.3282  0.0358  0.1383
  882SOL    HW1 3526   2.236   2.904   1.842  0.1785  1.2680  0.5151
  882SOL    HW2 3527   2.206   2.811   1.962 -0.5697  1.8974 -1.4666
  882SOL     MW 3528   2.228   2.888   1.929  0.1900  0.4440 -0.0237
  883SOL     OW 3529   2.457   2.144   1.298 -0.1742  0.1285  0.1782
  883SOL    HW1 3530   2.522   2.109   1.240  0.3772 -0.5781 -2.3848
  883SOL    HW2 3531   2.367   2.142   1.258 -0.8833 -1.5816  0.2243
  883SOL     MW 3532   2.454   2.139   1.285 -0.1950 -0.1903 -0.1539
  884SOL     OW 3533   1.904   1.862   1.054 -0.3041 -0.2538  0.1433
  884SOL    HW1 3534   1.871   1.947   1.013 -0.8535 -0.1511  3.2541
  884SOL    HW2 3535   2.001   1.865   1.056 -1.0932  1.7303  1.8940
  884SOL     MW 3536   1.912   1.873   1.049 -0.4807  0.0215  0.7847
  885SOL     OW 3537   2.942   2.440   1.688  0.0598  0.4891  0.6130
  885SOL    HW1 3538   2.993   2.367   1.654  0.8790  0.2839 -1.1239
  885SOL    HW2 3539   2.866   2.444   1.624 -1.2087 -0.4843 -2.1368
  885SOL     MW 3540   2.939   2.431   1.675  0.0005  0.3336  0.0210
  886SOL     OW 3541   2.857   2.415   1.269 -0.4310 -0.4947  0.7059
  886SOL    HW1 3542   2.929   2.356   1.277  3.2761  0.2787 -3.7898
  886SOL    HW2 3543   2.893   2.496   1.316 -0.0256  0.5203  0.4166
  886SOL     MW 3544   2.871   2.418   1.276  0.1116 -0.2587  0.0746
  887SOL     OW 3545   2.315   2.675   1.572 -0.2387 -0.1574  0.4536
  887SOL    HW1 3546   2.353   2.662   1.482  1.6721 -2.3704  0.0316
  887SOL    HW2 3547   2.253   2.603   1.586 -0.8363 -2.8623 -1.3210
  887SOL     MW 3548   2.312   2.664   1.562 -0.0655 -0.8063  0.1638
  888SOL     OW 3549   2.056   2.170   1.424  0.2644 -0.2555  0.3251
  888SOL    HW1 3550   2.144   2.170   1.387  0.1279  1.3898  0.9076
  888SOL    HW2 3551   2.066   2.170   1.518  0.7021  1.7063 -1.6318
  888SOL     MW 3552   2.069   2.170   1.431  0.3042  0.2204  0.1438
  889SOL     OW 3553   2.271   1.909   2.100 -0.5130  0.6021 -0.2183
  889SOL    HW1 3554   2.362   1.880   2.131  0.5090 -0.4830 -0.7786
  889SOL    HW2 3555   2.282   1.999   2.073 -1.3207  0.8965  3.2527
  889SOL     MW 3556   2.285   1.917   2.100 -0.4847  0.4978  0.1657
  890SOL     OW 3557   0.075   2.331   0.151  0.4353 -0.2046  0.0596
  890SOL    HW1 3558   0.027   2.418   0.142  0.0114 -0.3281  0.7066
  890SOL    HW2 3559   0.086   2.306   0.245 -2.5051 -0.1060 -3.0274
  890SOL     MW 3560   0.070   2.339   0.162 -0.0086 -0.2079 -0.2623
  891SOL     OW 3561   2.993   1.980   1.166 -0.2786 -0.0779  0.6653
  891SOL    HW1 3562   3.037   1.901   1.148  0.3067  2.5240 -2.4377
  891SOL    HW2 3563   3.064   2.042   1.200 -1.1665  1.7632 -2.7327
  891SOL     MW 3564   3.008   1.978   1.168 -0.3185  0.5083 -0.1925
  892SOL     OW 3565   2.468   2.354   2.765 -0.2448 -0.1819 -0.5671
  892SOL    HW1 3566   2.453   2.282   2.828 -0.4010  1.7696 -3.1904
  892SOL    HW2 3567   2.561   2.392   2.782  1.3379 -1.3669  0.7001
  892SOL     MW 3568   2.478   2.350   2.776 -0.0566 -0.0808 -0.7460
  893SOL     OW 3569   1.628   2.335   1.408  0.0316 -0.2149 -0.2558
  893SOL    HW1 3570   1.556   2.403   1.418  0.1592 -3.3752 -0.8112
  893SOL    HW2 3571   1.661   2.327   1.497 -2.7643  0.9819  0.8357
  893SOL     MW 3572   1.623   2.343   1.421 -0.3204 -0.4740 -0.1851
  894SOL     OW 3573   2.754   1.966   0.471  0.2137  0.3388 -0.2093
  894SOL    HW1 3574   2.668   1.977   0.509 -3.8728 -0.2000 -0.7227
  894SOL    HW2 3575   2.740   1.915   0.388  0.5618  1.7075 -0.9027
  894SOL     MW 3576   2.741   1.961   0.465 -0.2796  0.4483 -0.3685
  895SOL     OW 3577   2.230   2.136   1.153 -0.3372  0.5061  0.7465
  895SOL    HW1 3578   2.235   2.197   1.084 -1.3716  0.8058 -1.0210
  895SOL    HW2 3579   2.225   2.049   1.111 -1.4450 -1.7458 -0.8333
  895SOL     MW 3580   2.230   2.133   1.138 -0.6198  0.2485  0.3048
  896SOL     OW 3581   2.231   2.828   1.069  0.2539  0.3987 -0.1873
  896SOL    HW1 3582   2.251   2.787   1.151  0.3547 -0.7603 -0.9780
  896SOL    HW2 3583   2.152   2.883   1.078  0.5534 -0.7926  2.1436
  896SOL     MW 3584   2.223   2.830   1.081  0.3067  0.0886  0.0159
  897SOL     OW 3585   3.096   3.051   3.083 -0.3568  0.5352 -0.6241
  897SOL    HW1 3586   3.135   2.964   3.097 -0.6270 -2.4954  0.9083
  897SOL    HW2 3587   3.060   3.051   2.999  1.1744  1.0464  0.9163
  897SOL     MW 3588   3.096   3.039   3.074 -0.1904  0.2028 -0.2187
  898SOL     OW 3589   2.205   0.160   1.448 -0.0026  0.0354 -0.3762
  898SOL    HW1 3590   2.166   0.076   1.467 -0.2119 -0.8483 -2.4395
  898SOL    HW2 3591   2.173   0.186   1.361 -1.5775  2.5353 -2.0628
  898SOL     MW 3592   2.195   0.153   1.439 -0.2380  0.2486 -0.8709
  899SOL     OW 3593   2.959   3.025   0.635 -0.0782 -0.4368  0.0813
  899SOL    HW1 3594   2.940   2.937   0.667  2.9625 -1.7165  1.2700
  899SOL    HW2 3595   2.874   3.062   0.629  0.4600 -0.1141 -0.0659
  899SOL     MW 3596   2.945   3.018   0.638  0.3940 -0.5631  0.2187
  900SOL     OW 3597   0.166   2.381   1.137 -0.0295 -0.5840  0.2691
  900SOL    HW1 3598   0.103   2.454   1.133  0.6988 -0.1643 -0.1192
  900SOL    HW2 3599   0.163   2.345   1.046 -0.0593 -1.9072 -0.3030
  900SOL     MW 3600   0.157   2.386   1.124  0.0626 -0.7032  0.1424
  901SOL     OW 3601   1.767   2.861   1.794  0.1681  0.1664  0.0242
  901SOL    HW1 3602   1.827   2.796   1.736 -3.4909 -4.1551  1.7187
  901SOL    HW2 3603   1.676   2.840   1.762 -2.4006  0.3684  0.5681
  901SOL     MW 3604   1.763   2.850   1.782 -0.6536 -0.3772  0.3195
  902SOL     OW 3605   2.618   2.103   1.707  0.0452 -0.3497  0.2741
  902SOL    HW1 3606   2.640   2.030   1.651  1.6909 -0.5493  2.7545
  902SOL    HW2 3607   2.696   2.122   1.759  0.2035  0.8089  0.8596
  902SOL     MW 3608   2.631   2.096   1.706  0.2832 -0.2231  0.6786
  903SOL     OW 3609   1.516   2.650   0.530  0.5361 -0.1848  0.1109
  903SOL    HW1 3610   1.603   2.658   0.494  0.2130 -0.7882 -1.8434
  903SOL    HW2 3611   1.501   2.680   0.619  1.0072 -1.5799 -0.5822
  903SOL     MW 3612   1.526   2.655   0.537  0.5556 -0.4485 -0.2384
  904SOL     OW 3613   2.538   2.536   1.662  0.5324 -0.1578 -0.2220
  904SOL    HW1 3614   2.456   2.569   1.623 -0.0894 -0.9201 -2.3543
  904SOL    HW2 3615   2.583   2.474   1.597  1.5687  0.1236 -0.0983
  904SOL     MW 3616   2.533   2.532   1.648  0.5871 -0.2213 -0.4870
  905SOL     OW 3617   2.330   2.485   2.098 -0.0035  0.3742 -0.1009
  905SOL    HW1 3618   2.404   2.429   2.054  2.4507  1.7342 -0.2636
  905SOL    HW2 3619   2.298   2.419   2.171  0.5851  1.0390  0.2218
  905SOL     MW 3620   2.336   2.469   2.102  0.3980  0.6414 -0.0798
  906SOL     OW 3621   2.464   2.524   0.736  0.0145 -0.2867  0.4891
  906SOL    HW1 3622   2.551   2.503   0.763 -1.3385 -0.8263  2.1003
  906SOL    HW2 3623   2.449   2.616   0.750 -0.1342 -1.6333  2.3034
  906SOL     MW 3624   2.474   2.534   0.741 -0.1837 -0.5356  0.9411
  907SOL     OW 3625   2.677   2.775   1.307  0.3479 -0.4186  0.3537
  907SOL    HW1 3626   2.706   2.850   1.351  1.7680 -0.0083 -2.8918
  907SOL    HW2 3627   2.687   2.792   1.214  1.6467  1.6556 -1.2871
  907SOL     MW 3628   2.682   2.787   1.301  0.7066 -0.0908 -0.2910
  908SOL     OW 3629   2.672   2.348   3.078 -0.1112 -0.5453  0.0593
  908SOL    HW1 3630   2.638   2.282   3.133 -0.9820  1.9370 -2.4035
  908SOL    HW2 3631   2.659   2.424   3.143  0.1718  1.3804  0.8602
  908SOL     MW 3632   2.666   2.349   3.094 -0.1888  0.0363 -0.1599
  909SOL     OW 3633   1.716   0.116   1.310 -0.1982  0.1107  0.2432
  909SOL    HW1 3634   1.660   0.199   1.300  1.2525 -0.2874  0.1762
  909SOL    HW2 3635   1.702   0.082   1.398 -0.9001  2.5308 -3.0287
  909SOL     MW 3636   1.706   0.122   1.320 -0.0994  0.3775 -0.1973
  910SOL     OW 3637   2.137   1.619   0.420 -0.0754 -0.0565  0.3267
  910SOL    HW1 3638   2.082   1.542   0.402  1.0407  1.8928  1.4892
  910SOL    HW2 3639   2.114   1.689   0.354 -2.0664 -1.1941 -0.5575
  910SOL     MW 3640   2.127   1.618   0.409 -0.1908  0.0506  0.3634
  911SOL     OW 3641   2.410   2.198   1.560  0.0728  0.5700 -0.2224
  911SOL    HW1 3642   2.485   2.174   1.619  1.9157 -0.8360  2.5913
  911SOL    HW2 3643   2.453   2.199   1.477 -0.5248  1.7791  1.8699
  911SOL     MW 3644   2.426   2.195   1.557  0.2371  0.5440  0.4249
  912SOL     OW 3645   2.910   1.862   1.409  0.0345 -0.0768  0.5039
  912SOL    HW1 3646   2.892   1.911   1.327 -1.4212 -0.7176 -1.0239
  912SOL    HW2 3647   2.824   1.880   1.448  1.6377  2.5897 -0.3395
  912SOL     MW 3648   2.896   1.871   1.403  0.0540  0.1905  0.1911
  913SOL     OW 3649   2.703   0.012   0.284 -0.4392  0.2406  0.6375
  913SOL    HW1 3650   2.764  -0.061   0.303 -0.8295 -2.2143 -1.1590
  913SOL    HW2 3651   2.623  -0.030   0.257  2.0991 -0.9297  2.1953
  913SOL     MW 3652   2.701  -0.003   0.283 -0.1558 -0.2377  0.6060
  914SOL     OW 3653   2.651   1.800   3.005 -0.3719  0.0457  0.5564
  914SOL    HW1 3654   2.700   1.875   2.971 -0.4713  0.6186 -0.0471
  914SOL    HW2 3655   2.562   1.817   2.991 -1.6347 -0.1143  2.4147
  914SOL     MW 3656   2.646   1.812   2.999 -0.5516  0.1002  0.7220
  915SOL     OW 3657   1.827   0.106   0.125 -0.0891 -0.3823  0.9219
  915SOL    HW1 3658   1.896   0.050   0.172  1.3140  0.0274  1.1194
  915SOL    HW2 3659   1.750   0.081   0.175  3.1662  0.1126 -1.1603
  915SOL     MW 3660   1.826   0.095   0.138  0.5255 -0.2630  0.6732
  916SOL     OW 3661   1.790   2.158   1.982  0.2046  0.4458 -0.1681
  916SOL    HW1 3662   1.829   2.240   1.964  0.2424 -0.5963  0.7011
  916SOL    HW2 3663   1.841   2.102   1.924 -1.8709  1.6371  0.1172
  916SOL     MW 3664   1.802   2.162   1.972 -0.0643  0.4655 -0.0158
  917SOL     OW 3665   2.536   2.186   2.541 -0.3417 -0.0052 -0.1067
  917SOL    HW1 3666   2.512   2.267   2.578  0.2901  0.5263  0.6646
  917SOL    HW2 3667   2.632   2.192   2.526  2.2611  1.5102 -3.2005
  917SOL     MW 3668   2.546   2.198   2.544  0.0851  0.2649 -0.4132
  918SOL     OW 3669   2.049   1.605   2.715  0.0722  0.1594 -0.3417
  918SOL    HW1 3670   1.986   1.609   2.647  1.3389 -1.1116  1.1749
  918SOL    HW2 3671   2.114   1.669   2.676  1.0502  0.4444 -2.4790
  918SOL     MW 3672   2.049   1.614   2.701  0.3683  0.0293 -0.4236
  919SOL     OW 3673   3.037   2.402   2.286 -0.4564 -0.4320 -0.5050
  919SOL    HW1 3674   2.977   2.332   2.249  1.6270  1.5715 -3.6671
  919SOL    HW2 3675   3.104   2.425   2.224 -0.2404  2.1050 -0.4013
  919SOL     MW 3676   3.038   2.396   2.273 -0.1530  0.1671 -0.9086
  920SOL     OW 3677   2.649   2.831   3.090  0.1337 -0.0068 -0.9906
  920SOL    HW1 3678   2.568   2.786   3.063 -1.5474 -0.2870  1.8629
  920SOL    HW2 3679   2.701   2.813   3.016 -1.5740  0.5256  1.0507
  920SOL     MW 3680   2.645   2.823   3.077 -0.3134  0.0264 -0.3448
  921SOL     OW 3681   2.444   2.605   2.599  0.3090  0.3651 -0.3901
  921SOL    HW1 3682   2.533   2.601   2.562  0.9573 -2.3021  2.3587
  921SOL    HW2 3683   2.445   2.521   2.646 -0.5425  0.1636 -0.9993
  921SOL     MW 3684   2.456   2.593   2.600  0.2822 -0.0134 -0.1078
  922SOL     OW 3685   2.087   2.649   0.426  0.1344 -0.5748  0.0554
  922SOL    HW1 3686   2.107   2.655   0.327  1.3860 -2.6919 -1.0880
  922SOL    HW2 3687   2.102   2.562   0.443  0.8540  0.2779 -1.6384
  922SOL     MW 3688   2.091   2.638   0.415  0.3945 -0.7416 -0.3189
  923SOL     OW 3689   2.202   2.915   1.661  0.2238 -0.4109  0.0116
  923SOL    HW1 3690   2.262   2.848   1.624  0.1666  0.7488 -1.0547
  923SOL    HW2 3691   2.156   2.963   1.592  0.1505 -1.1641 -0.4767
  923SOL     MW 3692   2.204   2.913   1.647  0.2066 -0.3573 -0.1935
  924SOL     OW 3693   1.088   2.724   2.606  0.5222 -0.6724  0.0314
  924SOL    HW1 3694   1.180   2.738   2.584 -1.9330  0.0244  0.3907
  924SOL    HW2 3695   1.087   2.637   2.645  0.0906 -0.6576  2.4932
  924SOL     MW 3696   1.100   2.714   2.608  0.1413 -0.5785  0.4036
  925SOL     OW 3697   2.979   0.183   2.613 -0.0226 -0.5927  0.0902
  925SOL    HW1 3698   2.920   0.176   2.543  1.6782 -1.3635  2.0958
  925SOL    HW2 3699   2.928   0.250   2.667  0.9530  1.0892  1.9968
  925SOL     MW 3700   2.965   0.191   2.611  0.3305 -0.4725  0.6064
  926SOL     OW 3701   2.813   2.408   1.948  0.3032  0.2689 -0.1671
  926SOL    HW1 3702   2.815   2.491   2.005  0.8159  0.7373 -1.9419
  926SOL    HW2 3703   2.859   2.428   1.868 -0.7454 -0.7212 -0.1129
  926SOL     MW 3704   2.819   2.421   1.945  0.2325  0.2001 -0.3941
  927SOL     OW 3705   2.392   0.097   0.315 -0.1666 -0.0487 -0.0001
  927SOL    HW1 3706   2.474   0.120   0.352 -0.5038  1.6576  0.3510
  927SOL    HW2 3707   2.388   0.118   0.215 -1.5111  0.4394  0.8706
  927SOL     MW 3708   2.403   0.103   0.306 -0.3885  0.2408  0.1611
  928SOL     OW 3709   2.153   2.319   1.830  0.2745 -0.5875  0.2805
  928SOL    HW1 3710   2.153   2.402   1.777 -0.5205  0.1183  0.3389
  928SOL    HW2 3711   2.186   2.347   1.913 -2.7978 -0.6811  2.5852
  928SOL     MW 3712   2.157   2.334   1.834 -0.2358 -0.5067  0.5923
  929SOL     OW 3713   2.742   2.360   2.446 -0.7520  0.0439  0.4649
  929SOL    HW1 3714   2.776   2.320   2.363  2.8667  0.0855  1.3685
  929SOL    HW2 3715   2.823   2.357   2.510  3.4555  2.5514  0.3502
  929SOL     MW 3716   2.757   2.354   2.444  0.2806  0.3803  0.5690
  930SOL     OW 3717   2.014   2.836   2.668  0.2414  0.1281 -0.0234
  930SOL    HW1 3718   2.024   2.747   2.708 -3.5750  1.2377  1.6299
  930SOL    HW2 3719   2.099   2.881   2.645 -0.9935  0.7232  1.0357
  930SOL     MW 3720   2.027   2.830   2.670 -0.4251  0.3530  0.3345
  931SOL     OW 3721   0.044   2.785   2.448 -0.2001  0.3092  0.3714
  931SOL    HW1 3722   0.019   2.836   2.526  1.0667 -2.7429 -1.6086
  931SOL    HW2 3723   0.132   2.823   2.424 -1.2788 -0.8852  2.7355
  931SOL     MW 3724   0.053   2.797   2.455 -0.1753 -0.2511  0.4221
  932SOL     OW 3725   2.775   2.026   2.470  0.2642  0.6101 -0.6143
  932SOL    HW1 3726   2.856   2.039   2.516 -1.2537  2.2829  1.1812
  932SOL    HW2 3727   2.793   2.005   2.377  1.2331 -0.8292 -1.4626
  932SOL     MW 3728   2.788   2.025   2.463  0.1918  0.6409 -0.4893
  933SOL     OW 3729   2.104   2.800   2.226  0.0750 -0.0111  0.3657
  933SOL    HW1 3730   2.173   2.857   2.235 -1.2658  0.7813  0.1364
  933SOL    HW2 3731   2.034   2.852   2.209  1.4524 -3.7641 -1.5829
  933SOL     MW 3732   2.104   2.814   2.225  0.0798 -0.4017  0.0783
  934SOL     OW 3733   2.015   2.670   2.450  0.1146  0.0568  0.3354
  934SOL    HW1 3734   2.018   2.745   2.506 -2.0868  0.5309  0.3496
  934SOL    HW2 3735   2.064   2.697   2.363 -1.9344  1.5889 -0.7626
  934SOL     MW 3736   2.022   2.684   2.446 -0.4462  0.3215  0.1924
  935SOL     OW 3737   2.630   1.474   1.777 -0.3711  0.1848  0.0950
  935SOL    HW1 3738   2.723   1.451   1.748  1.9714  2.4392 -0.1947
  935SOL    HW2 3739   2.578   1.457   1.698  0.0806  0.5280  1.0675
  935SOL     MW 3740   2.635   1.469   1.763 -0.0024  0.5275  0.1851
  936SOL     OW 3741   2.922   2.218   0.044  0.0871 -0.1915 -0.3168
  936SOL    HW1 3742   2.987   2.274   0.077  1.7887 -0.0644 -0.1282
  936SOL    HW2 3743   2.850   2.269   0.008 -4.7856 -2.3270  0.5384
  936SOL     MW 3744   2.921   2.232   0.043 -0.3313 -0.4565 -0.1791
  937SOL     OW 3745   1.926   2.111   2.626 -0.9296  0.6314 -0.7641
  937SOL    HW1 3746   2.005   2.105   2.683 -1.3757 -0.2579  0.2082
  937SOL    HW2 3747   1.958   2.113   2.534 -0.1019 -1.2235  1.0258
  937SOL     MW 3748   1.940   2.110   2.621 -0.8793  0.2693 -0.3997
  938SOL     OW 3749   2.255   1.781   1.842 -0.7116  0.3593 -0.4066
  938SOL    HW1 3750   2.302   1.816   1.770  1.8291 -0.6277  3.3735
  938SOL    HW2 3751   2.281   1.819   1.929  2.0296 -0.4932 -0.4225
  938SOL     MW 3752   2.265   1.791   1.844 -0.0147  0.1166  0.0901
  939SOL     OW 3753   2.781   1.957   2.185  0.5765 -0.0434 -0.2421
  939SOL    HW1 3754   2.829   1.937   2.101 -0.4816 -0.1148 -1.8286
  939SOL    HW2 3755   2.691   1.920   2.181  0.9656 -1.1601  0.6306
  939SOL     MW 3756   2.775   1.949   2.174  0.4883 -0.2002 -0.3363
  940SOL     OW 3757   2.167   0.105   2.775  0.4680 -0.2963  0.0968
  940SOL    HW1 3758   2.218   0.028   2.776 -3.1424  0.3467 -0.8938
  940SOL    HW2 3759   2.212   0.177   2.821  0.7283 -1.1462  1.3246
  940SOL     MW 3760   2.179   0.104   2.781  0.0260 -0.3236  0.1281
  941SOL     OW 3761   0.103   2.449   2.081 -0.1825 -0.4993  0.7075
  941SOL    HW1 3762   0.180   2.396   2.113  0.3860  0.6396  2.1413
  941SOL    HW2 3763   0.098   2.446   1.984  0.1738  2.1180 -1.9837
  941SOL     MW 3764   0.113   2.441   2.073 -0.0605 -0.0037  0.5416
  942SOL     OW 3765   2.835   2.238   2.200  0.0940  0.7502 -0.3419
  942SOL    HW1 3766   2.828   2.299   2.123  0.7552  2.1953 -0.2689
  942SOL    HW2 3767   2.829   2.142   2.190  0.5606 -0.4707 -1.0604
  942SOL     MW 3768   2.833   2.234   2.188  0.2428  0.7798 -0.4271
  943SOL     OW 3769   0.320   2.120   2.274 -0.1296 -0.3412 -0.6575
  943SOL    HW1 3770   0.249   2.174   2.301  2.5023 -1.5493 -2.7601
  943SOL    HW2 3771   0.361   2.091   2.355 -1.8837  3.3088  1.3240
  943SOL     MW 3772   0.316   2.123   2.288 -0.0138 -0.0190 -0.6735
  944SOL     OW 3773   2.148   2.651   1.963  0.1265 -0.0960 -0.2647
  944SOL    HW1 3774   2.209   2.586   1.998 -0.0503  1.3437 -0.1314
  944SOL    HW2 3775   2.067   2.651   2.012 -2.0430  0.8248  2.5010
  944SOL     MW 3776   2.145   2.643   1.974 -0.1831  0.2154  0.1178
  945SOL     OW 3777   2.755   2.722   2.862 -0.3535 -0.0896  0.4664
  945SOL    HW1 3778   2.737   2.629   2.832  1.8035 -1.0366 -1.4060
  945SOL    HW2 3779   2.765   2.762   2.778 -1.0828 -0.8188  1.8067
  945SOL     MW 3780   2.754   2.715   2.847 -0.1651 -0.3107  0.3962
  946SOL     OW 3781   2.470   2.685   2.246 -0.6060  0.3377 -0.2125
  946SOL    HW1 3782   2.492   2.725   2.167  0.5686  0.1657 -0.3345
  946SOL    HW2 3783   2.421   2.607   2.219  0.2013 -2.6869  0.3769
  946SOL     MW 3784   2.467   2.680   2.232 -0.3445 -0.0840 -0.1508
  947SOL     OW 3785   2.049   3.099   0.230 -0.4425 -0.2068 -0.0298
  947SOL    HW1 3786   2.060   3.006   0.206  0.5033 -1.9711 -4.3207
  947SOL    HW2 3787   2.067   3.114   0.327 -0.9966 -0.2264 -2.5758
  947SOL     MW 3788   2.053   3.088   0.239 -0.3909 -0.4422 -0.9319
  948SOL     OW 3789   1.811   3.040   2.609  0.0598  0.0515  0.5459
  948SOL    HW1 3790   1.844   2.952   2.609  0.3088  1.6673  1.4605
  948SOL    HW2 3791   1.775   3.065   2.520 -0.8060 -0.2895 -0.1536
  948SOL     MW 3792   1.810   3.032   2.597 -0.0216  0.2197  0.5742
  949SOL     OW 3793   2.523   1.868   2.210  0.0683  0.1096  0.5349
  949SOL    HW1 3794   2.495   1.798   2.268 -2.7208  0.5358  0.3732
  949SOL    HW2 3795   2.502   1.951   2.251 -0.5964 -0.8228  1.9653
  949SOL     MW 3796   2.516   1.870   2.223 -0.3874  0.0428  0.7023
  950SOL     OW 3797   2.315   2.443   2.992 -0.1862 -0.5333 -0.2021
  950SOL    HW1 3798   2.381   2.431   2.920 -1.3530 -0.1803 -1.7116
  950SOL    HW2 3799   2.242   2.475   2.939  2.9272  0.3381 -3.4943
  950SOL     MW 3800   2.314   2.446   2.975  0.0706 -0.3718 -0.8356
  951SOL     OW 3801   3.042   2.228   2.876 -0.3131  0.1993  0.0080
  951SOL    HW1 3802   3.003   2.211   2.963  1.7736 -0.0384 -0.3477
  951SOL    HW2 3803   3.083   2.144   2.856  1.4351 -1.0394 -0.4868
  951SOL     MW 3804   3.042   2.215   2.885  0.1929  0.0045 -0.1042
  952SOL     OW 3805   3.053   1.737   2.122  0.5254 -0.2812 -0.2045
  952SOL    HW1 3806   3.012   1.794   2.052  1.5883 -0.1604 -2.2778
  952SOL    HW2 3807   3.113   1.794   2.169  0.1091  1.7334 -3.2016
  952SOL     MW 3808   3.056   1.752   2.119  0.6107  0.0006 -0.8735
  953SOL     OW 3809   1.941   1.754   2.942  0.0432  0.9908  0.0037
  953SOL    HW1 3810   1.859   1.725   2.985 -0.6906 -0.7290  1.7181
  953SOL    HW2 3811   1.955   1.678   2.878  2.3134  0.0415  0.2093
  953SOL     MW 3812   1.932   1.740   2.939  0.2459  0.6386  0.2571
  954SOL     OW 3813   2.369   2.132   2.905  0.1465 -0.5423  0.2579
  954SOL    HW1 3814   2.276   2.125   2.877 -0.4148 -0.6625  2.2631
  954SOL    HW2 3815   2.415   2.087   2.836  0.3214  0.6797  1.4842
  954SOL     MW 3816   2.363   2.125   2.892  0.0956 -0.3970  0.6843
  955SOL     OW 3817   1.570   1.515   2.549  0.1577 -0.0254  0.0422
  955SOL    HW1 3818   1.543   1.544   2.456 -2.5464  1.7929  3.1743
  955SOL    HW2 3819   1.656   1.557   2.542 -1.9283  0.2167  1.3558
  955SOL     MW 3820   1.578   1.524   2.536 -0.4743  0.2465  0.6288
  956SOL     OW 3821   2.725   2.447   2.813 -0.4727 -0.3991 -0.1715
  956SOL    HW1 3822   2.723   2.425   2.902 -3.1444  0.2396 -2.8501
  956SOL    HW2 3823   2.804   2.410   2.766 -0.6790  0.2512 -0.7057
  956SOL     MW 3824   2.735   2.439   2.819 -0.8525 -0.2290 -0.5954
  957SOL     OW 3825   2.254   2.831   0.536  0.4394 -0.0145 -0.4830
  957SOL    HW1 3826   2.196   2.766   0.496 -0.1519  3.9953  0.8601
  957SOL    HW2 3827   2.265   2.801   0.631 -0.6517  3.7304 -0.9835
  957SOL     MW 3828   2.248   2.818   0.544  0.2174  1.0086 -0.3718
  958SOL     OW 3829   2.081   2.543   2.852 -0.2151 -0.4073 -0.8118
  958SOL    HW1 3830   2.012   2.506   2.795  0.6311  3.1049 -0.4531
  958SOL    HW2 3831   2.029   2.566   2.931 -1.4699 -1.2138 -0.1428
  958SOL     MW 3832   2.065   2.541   2.855 -0.2690 -0.0503 -0.6762
  959SOL     OW 3833   2.503   2.791   0.444 -0.1135 -0.2552 -0.3183
  959SOL    HW1 3834   2.514   2.845   0.365  0.5152  1.5095 -0.5704
  959SOL    HW2 3835   2.408   2.796   0.462  1.4664 -0.9586  0.6387
  959SOL     MW 3836   2.492   2.799   0.436  0.1779 -0.1151 -0.2253
  960SOL     OW 3837   1.923   2.400   2.284 -0.0638 -0.1500  0.6141
  960SOL    HW1 3838   1.940   2.315   2.328  2.1767 -0.3887 -2.4104
  960SOL    HW2 3839   1.836   2.418   2.323  0.7978 -1.5838  1.1712
  960SOL     MW 3840   1.914   2.391   2.295  0.3455 -0.3707  0.2886
  961SOL     OW 3841   2.231   2.339   2.294  0.0014 -0.2120 -0.4731
  961SOL    HW1 3842   2.136   2.336   2.281  1.1801  0.7147  0.3204
  961SOL    HW2 3843   2.223   2.399   2.372 -1.6315  0.9571 -0.9037
  961SOL     MW 3844   2.217   2.347   2.303 -0.0586  0.0646 -0.4252
  962SOL     OW 3845   2.123   2.033   2.810  0.0479  0.6441  0.3011
  962SOL    HW1 3846   2.113   1.994   2.896  2.3431 -3.0160 -0.9722
  962SOL    HW2 3847   2.163   1.959   2.748  0.4975 -3.1219  0.2476
  962SOL     MW 3848   2.127   2.018   2.813  0.4101 -0.3357  0.1260
  963SOL     OW 3849   1.853   2.573   2.082 -0.2828 -0.5170 -0.0408
  963SOL    HW1 3850   1.900   2.521   2.146 -1.1498 -1.8180 -2.3873
  963SOL    HW2 3851   1.844   2.508   2.007 -0.6577  0.1862 -1.2545
  963SOL     MW 3852   1.858   2.557   2.080 -0.4466 -0.5958 -0.5105
  964SOL     OW 3853   1.829   1.870   2.718 -0.2148 -0.0869 -0.7280
  964SOL    HW1 3854   1.867   1.958   2.686  0.5341 -1.1867 -1.2168
  964SOL    HW2 3855   1.872   1.829   2.792  0.4563 -2.1316  1.1619
  964SOL     MW 3856   1.840   1.876   2.724 -0.0274 -0.5018 -0.5431
  965SOL     OW 3857   2.097   2.580   0.798  0.7636 -0.3617  0.0279
  965SOL    HW1 3858   2.132   2.510   0.737  1.2600 -1.2476  1.5542
  965SOL    HW2 3859   2.174   2.613   0.840  0.1253  0.9340  2.3557
  965SOL     MW 3860   2.112   2.575   0.796  0.7449 -0.3076  0.5364
  966SOL     OW 3861   2.654   2.611   2.429 -0.0735  0.0250  0.4658
  966SOL    HW1 3862   2.598   2.615   2.349 -1.7126  1.1183  4.0122
  966SOL    HW2 3863   2.694   2.523   2.433  1.0044 -0.7374  0.0271
  966SOL     MW 3864   2.652   2.600   2.419 -0.1476  0.0686  0.8758
  967SOL     OW 3865   2.702   0.026   3.056 -0.4958  0.7030  0.3625
  967SOL    HW1 3866   2.714  -0.063   3.073 -2.0341  0.3433  3.8332
  967SOL    HW2 3867   2.688   0.025   2.959 -0.0701  1.7330 -0.4850
  967SOL     MW 3868   2.702   0.014   3.045 -0.6426  0.7914  0.7086
  968SOL     OW 3869   3.031   2.685   2.889 -0.9772 -0.1540 -0.1150
  968SOL    HW1 3870   2.952   2.735   2.864  1.1192 -0.9636 -0.8681
  968SOL    HW2 3871   3.056   2.644   2.807  1.2294 -0.9419  2.8381
  968SOL     MW 3872   3.024   2.686   2.875 -0.4095 -0.3648  0.1752
  969SOL     OW 3873   1.559   2.121   1.704 -0.0894 -0.6861  0.5876
  969SOL    HW1 3874   1.639   2.063   1.701  2.0889  0.8194  1.7086
  969SOL    HW2 3875   1.534   2.127   1.796  0.3268 -2.6009 -2.6869
  969SOL     MW 3876   1.566   2.114   1.716  0.2529 -0.7401  0.3035
  970SOL     OW 3877   1.756   1.802   1.891 -0.1827  0.0590 -0.5865
  970SOL    HW1 3878   1.806   1.732   1.936 -1.6697  0.4250  2.0942
  970SOL    HW2 3879   1.662   1.782   1.895 -1.2264  3.1732 -0.0813
  970SOL     MW 3880   1.750   1.790   1.898 -0.5166  0.5182 -0.1661
  971SOL     OW 3881   1.743   0.010   2.364 -0.0515 -0.5107  0.0564
  971SOL    HW1 3882   1.764  -0.072   2.311  1.3663  0.9619 -1.5199
  971SOL    HW2 3883   1.802   0.084   2.332 -1.1125  3.2498 -1.5748
  971SOL     MW 3884   1.754   0.009   2.353 -0.0044  0.1797 -0.3668
  972SOL     OW 3885   0.314   2.868   2.384  0.1239 -0.1062 -0.0648
  972SOL    HW1 3886   0.356   2.785   2.414 -0.8206  0.0182 -1.3470
  972SOL    HW2 3887   0.362   2.937   2.428  1.0476  0.7300  1.3150
  972SOL     MW 3888   0.326   2.866   2.394  0.1211  0.0206 -0.0519
  973SOL     OW 3889   2.622   3.010   2.123  0.3891  0.2099 -0.6231
  973SOL    HW1 3890   2.584   2.931   2.076  0.8959  3.4402  0.5424
  973SOL    HW2 3891   2.612   3.063   2.048  3.0354 -0.4568 -1.2802
  973SOL     MW 3892   2.616   3.007   2.107  0.8051  0.5482 -0.5560
  974SOL     OW 3893   1.975   0.150   2.574  0.4967  0.2209 -0.2146
  974SOL    HW1 3894   2.055   0.146   2.627 -1.0430  0.1317 -1.1190
  974SOL    HW2 3895   1.933   0.064   2.584  0.0777  0.7860 -0.9451
  974SOL     MW 3896   1.980   0.138   2.583  0.2383  0.2837 -0.4303
  975SOL     OW 3897   2.199   2.493   2.518 -0.4598 -0.1485 -0.1229
  975SOL    HW1 3898   2.287   2.540   2.530 -1.3283 -1.5889 -1.1764
  975SOL    HW2 3899   2.128   2.563   2.504  2.3807 -1.1701 -1.1309
  975SOL     MW 3900   2.202   2.509   2.518 -0.1996 -0.4733 -0.3949
  976SOL     OW 3901   0.182   0.369   1.584 -0.0387  0.0059 -0.1336
  976SOL    HW1 3902   0.255   0.314   1.605 -0.7176 -1.3527  3.2310
  976SOL    HW2 3903   0.122   0.298   1.601 -0.4806  1.8084  1.6072
  976SOL     MW 3904   0.184   0.352   1.589 -0.1866  0.0645  0.5400
  977SOL     OW 3905   1.753   2.754   2.384  0.2493 -0.0737  0.1484
  977SOL    HW1 3906   1.802   2.703   2.445  4.5319  0.3592 -3.3794
  977SOL    HW2 3907   1.827   2.771   2.326  1.8885 -0.6905 -0.5085
  977SOL     MW 3908   1.770   2.750   2.384  1.0306 -0.0980 -0.4037
   3.10000   3.10000   3.10000
