977 TIP4P/2005f water molecules t=   1.83000 step= 1830
 3908
    1SOL     OW    1   0.388   0.767   0.101  0.3473 -0.1604  0.4568
    1SOL    HW1    2   0.312   0.724   0.068 -0.3787  3.5036  0.0208
    1SOL    HW2    3   0.421   0.701   0.165  1.5512 -1.0119  1.0680
    1SOL     MW    4   0.383   0.752   0.105  0.4104  0.2106  0.4799
    2SOL     OW    5   0.280   2.986   1.098 -0.5009 -0.1246  0.0997
    2SOL    HW1    6   0.325   3.072   1.086 -0.0376  1.3615  2.0601
    2SOL    HW2    7   0.190   3.016   1.114  0.1500 -1.6392 -1.3285
    2SOL     MW    8   0.274   3.001   1.098 -0.3539 -0.1284  0.1699
    3SOL     OW    9   2.698   0.332   0.946  0.7102 -0.4578 -0.9237
    3SOL    HW1   10   2.739   0.414   0.904  1.3134 -0.8625  0.9513
    3SOL    HW2   11   2.675   0.362   1.043 -1.3779 -0.2205  4.5503
    3SOL     MW   12   2.701   0.347   0.953  0.5143 -0.4799  0.0459
    4SOL     OW   13   2.938   1.707   0.542  0.2932  0.4269  0.2452
    4SOL    HW1   14   2.890   1.788   0.528 -0.1328  1.6654 -2.5571
    4SOL    HW2   15   3.018   1.698   0.487  1.6610 -2.8138  0.6852
    4SOL     MW   16   2.942   1.716   0.533  0.4174  0.1627 -0.0665
    5SOL     OW   17   1.610   1.439   0.611  0.3134  0.7619 -0.1658
    5SOL    HW1   18   1.661   1.442   0.692  0.1420 -0.7408  1.3294
    5SOL    HW2   19   1.526   1.472   0.634 -0.9953  0.6255  2.0144
    5SOL     MW   20   1.606   1.444   0.625  0.1181  0.5456  0.3191
    6SOL     OW   21   0.785   1.423   0.605 -0.5309 -0.0974  0.0889
    6SOL    HW1   22   0.700   1.407   0.577  1.2966  0.3666 -3.0888
    6SOL    HW2   23   0.803   1.337   0.648 -0.6562 -0.7683  0.7592
    6SOL     MW   24   0.776   1.409   0.607 -0.3063 -0.1247 -0.2419
    7SOL     OW   25   1.961   1.034   0.030  0.5711  0.3087 -0.0936
    7SOL    HW1   26   2.037   1.084   0.052 -0.6818 -2.0640  1.1770
    7SOL    HW2   27   1.932   0.994   0.118  1.0316 -2.3836  3.8250
    7SOL     MW   28   1.967   1.035   0.045  0.4665 -0.3596  0.5911
    8SOL     OW   29   0.824   1.402   1.000  0.2084 -0.4840 -0.6256
    8SOL    HW1   30   0.905   1.447   1.036  0.7969 -1.6346 -1.3331
    8SOL    HW2   31   0.812   1.344   1.073  0.9109  1.0039  2.4326
    8SOL     MW   32   0.833   1.401   1.014  0.3787 -0.4395 -0.3155
    9SOL     OW   33   0.896   0.540   1.307 -0.7159  0.3128 -0.4590
    9SOL    HW1   34   0.842   0.462   1.292 -0.0863  0.8801 -0.6651
    9SOL    HW2   35   0.951   0.511   1.379 -0.5629  1.8693  0.5323
    9SOL     MW   36   0.896   0.526   1.315 -0.6126  0.5930 -0.3554
   10SOL     OW   37   0.313   0.813   0.502 -0.0276 -0.1862  0.4599
   10SOL    HW1   38   0.400   0.855   0.483  1.4131 -0.2448 -0.2466
   10SOL    HW2   39   0.279   0.873   0.573 -1.0038 -1.8703 -0.8685
   10SOL     MW   40   0.320   0.826   0.509  0.0337 -0.4161  0.1914
   11SOL     OW   41   0.752   1.120   1.494 -0.6088  0.0849  0.6640
   11SOL    HW1   42   0.834   1.157   1.524  0.2350  1.7084  1.5146
   11SOL    HW2   43   0.762   1.033   1.450  1.8969 -1.0268 -0.3308
   11SOL     MW   44   0.764   1.114   1.492 -0.1669  0.1525  0.6450
   12SOL     OW   45   0.050   1.087   0.916 -0.8931  0.2405 -0.1882
   12SOL    HW1   46   0.072   1.159   0.972 -0.5441  0.4902  0.6847
   12SOL    HW2   47  -0.014   1.131   0.849 -1.0940 -1.0596 -0.1125
   12SOL     MW   48   0.044   1.102   0.915 -0.8736  0.1019 -0.0631
   13SOL     OW   49   1.839   1.408   1.329  0.4418  0.1275 -0.4119
   13SOL    HW1   50   1.873   1.334   1.270 -1.0394 -1.8088  1.4545
   13SOL    HW2   51   1.899   1.485   1.320  0.5079 -0.0298 -0.8075
   13SOL     MW   52   1.851   1.409   1.320  0.2551 -0.1487 -0.2178
   14SOL     OW   53   0.585   0.272   1.823  0.1398 -0.2477  0.2474
   14SOL    HW1   54   0.579   0.228   1.738  2.1541 -1.8698  2.3731
   14SOL    HW2   55   0.659   0.333   1.820 -2.5575 -0.5727 -0.8234
   14SOL     MW   56   0.594   0.274   1.812  0.0497 -0.5046  0.3866
   15SOL     OW   57   2.054   0.436   0.951  0.0871 -0.5991 -0.0805
   15SOL    HW1   58   2.080   0.517   1.000  0.0966  1.2626 -4.4010
   15SOL    HW2   59   2.067   0.458   0.856 -1.1815  0.5423 -1.0998
   15SOL     MW   60   2.059   0.450   0.945 -0.0790 -0.2029 -0.7850
   16SOL     OW   61   0.202   1.837   0.256 -0.3607 -0.2123  0.0424
   16SOL    HW1   62   0.277   1.787   0.248 -0.6453 -0.8969 -1.1317
   16SOL    HW2   63   0.233   1.906   0.319  1.7739 -0.4172 -0.3234
   16SOL     MW   64   0.216   1.840   0.263 -0.1166 -0.3297 -0.1608
   17SOL     OW   65   1.118   0.896   1.411  0.0914  0.2092 -0.5292
   17SOL    HW1   66   1.137   0.877   1.503 -0.2310  0.2905  0.9552
   17SOL    HW2   67   1.019   0.882   1.399  0.2349  0.1687  1.5143
   17SOL     MW   68   1.108   0.892   1.422  0.0678  0.2146 -0.0637
   18SOL     OW   69   0.057   1.651   0.360 -0.0468 -0.1790 -0.1347
   18SOL    HW1   70   0.119   1.730   0.346 -0.8421 -0.5430  0.6247
   18SOL    HW2   71   0.014   1.630   0.276 -0.0339 -0.4934  1.4332
   18SOL     MW   72   0.059   1.659   0.347 -0.1500 -0.2685  0.1724
   19SOL     OW   73   0.085   1.360   0.961 -0.4278  0.3349 -0.0504
   19SOL    HW1   74   0.105   1.392   0.874 -0.6581  2.2195 -0.9083
   19SOL    HW2   75  -0.008   1.384   0.973 -2.0939  0.7549 -0.6925
   19SOL     MW   76   0.075   1.367   0.951 -0.6780  0.6390 -0.2483
   20SOL     OW   77   0.449   2.118   1.269  0.1115  0.2204  0.2728
   20SOL    HW1   78   0.402   2.052   1.220 -2.6330 -0.6125  1.9856
   20SOL    HW2   79   0.405   2.132   1.354  0.5775 -1.4922 -1.3633
   20SOL     MW   80   0.437   2.111   1.274 -0.1891 -0.1154  0.2829
   21SOL     OW   81   0.560   0.919   0.443  0.3484  0.3503  0.3708
   21SOL    HW1   82   0.640   0.896   0.492 -3.4817 -3.6379 -4.3555
   21SOL    HW2   83   0.592   0.946   0.355  1.3881  0.1881 -0.4123
   21SOL     MW   84   0.575   0.919   0.438 -0.0198 -0.1973 -0.3561
   22SOL     OW   85   1.547   0.726   0.994 -0.0526  0.2868 -0.8451
   22SOL    HW1   86   1.558   0.683   0.909 -0.0315  0.0105 -1.4028
   22SOL    HW2   87   1.449   0.727   1.009 -1.4409 -0.1325  0.0525
   22SOL     MW   88   1.535   0.720   0.984 -0.2330  0.1950 -0.8003
   23SOL     OW   89   3.077   0.811   0.685  0.3763 -0.1057  0.1902
   23SOL    HW1   90   3.118   0.771   0.766  1.4582 -2.6649  0.4722
   23SOL    HW2   91   3.132   0.891   0.675  0.6828  1.6046 -2.0921
   23SOL     MW   92   3.090   0.816   0.694  0.5595 -0.2177 -0.0737
   24SOL     OW   93   2.075   2.133   0.069 -0.8818  0.4294  0.1726
   24SOL    HW1   94   2.028   2.128   0.155 -1.5983 -0.0516 -1.8738
   24SOL    HW2   95   2.069   2.044   0.045  1.5427  0.8172  0.7293
   24SOL     MW   96   2.068   2.121   0.077 -0.6565  0.4171 -0.0240
   25SOL     OW   97   0.235   1.453   0.393 -0.2354  0.0919 -0.6711
   25SOL    HW1   98   0.158   1.533   0.388 -3.2543  0.1642  1.2541
   25SOL    HW2   99   0.242   1.422   0.306  1.7374  2.2510  2.7799
   25SOL     MW  100   0.226   1.460   0.381 -0.3734  0.3863  0.0383
   26SOL     OW  101   1.974   1.030   0.307 -0.2777  0.1635 -0.0486
   26SOL    HW1  102   1.928   1.077   0.379 -1.3642 -0.0308 -0.3427
   26SOL    HW2  103   2.052   1.081   0.285  1.1868 -1.6014 -0.5642
   26SOL     MW  104   1.979   1.043   0.314 -0.2278 -0.0950 -0.1555
   27SOL     OW  105   1.860   1.370   0.120  0.0594  0.1923 -0.3698
   27SOL    HW1  106   1.793   1.432   0.146 -0.5350 -0.0801  0.5415
   27SOL    HW2  107   1.909   1.362   0.201 -1.1281  0.1416 -0.9141
   27SOL     MW  108   1.858   1.377   0.134 -0.1757  0.1497 -0.3214
   28SOL     OW  109   0.441   0.933   2.052 -0.0575  0.0840  0.4050
   28SOL    HW1  110   0.477   0.933   2.139 -1.0329  1.6282  2.0396
   28SOL    HW2  111   0.348   0.917   2.067  1.0226 -3.9686 -2.3691
   28SOL     MW  112   0.434   0.931   2.065 -0.0436 -0.2469  0.2547
   29SOL     OW  113   0.169   1.436   0.702  0.2074 -0.5980 -0.1484
   29SOL    HW1  114   0.182   1.531   0.684  0.5806 -1.7000  1.2997
   29SOL    HW2  115   0.214   1.386   0.636 -1.0618  0.8172 -2.0949
   29SOL     MW  116   0.177   1.442   0.691  0.0892 -0.5567 -0.2142
   30SOL     OW  117   0.725   1.271   1.234 -0.5749 -0.3373 -0.3713
   30SOL    HW1  118   0.630   1.265   1.247 -0.0168  1.0810 -3.1440
   30SOL    HW2  119   0.761   1.208   1.296 -2.6348  2.8041  1.0546
   30SOL     MW  120   0.717   1.262   1.244 -0.7731  0.2643 -0.5490
   31SOL     OW  121   0.491   0.249   0.199  0.0109  0.4309 -0.1656
   31SOL    HW1  122   0.493   0.175   0.257 -0.7453  2.6530 -2.8232
   31SOL    HW2  123   0.502   0.208   0.111 -1.1452  1.0499  0.3913
   31SOL     MW  124   0.492   0.234   0.195 -0.2414  0.8057 -0.4428
   32SOL     OW  125   2.753   0.991   1.081  0.4448  0.5606  0.2815
   32SOL    HW1  126   2.678   0.936   1.089 -1.2871 -2.7704 -1.0647
   32SOL    HW2  127   2.836   0.938   1.116  1.7410 -0.6490  0.0473
   32SOL     MW  128   2.754   0.977   1.087  0.3873 -0.0385  0.0730
   33SOL     OW  129   1.616   1.221   0.414  0.4203 -0.1771  0.0002
   33SOL    HW1  130   1.694   1.208   0.464  0.7800  0.9548 -2.4927
   33SOL    HW2  131   1.573   1.288   0.466  0.3911  1.4276  0.3384
   33SOL     MW  132   1.621   1.228   0.427  0.4639  0.1840 -0.2840
   34SOL     OW  133   1.133   1.992   1.185  0.6147  0.2539  0.2276
   34SOL    HW1  134   1.069   1.999   1.257 -1.4333 -0.3819  0.6447
   34SOL    HW2  135   1.217   1.987   1.217  0.2938  0.4382  4.8114
   34SOL     MW  136   1.135   1.992   1.198  0.3022  0.1943  0.8874
   35SOL     OW  137   0.317   0.145   1.672 -0.4040  0.0462 -0.1722
   35SOL    HW1  138   0.326   0.151   1.766  2.8248  3.7888 -1.1862
   35SOL    HW2  139   0.302   0.052   1.646  2.0807 -0.2963  2.6339
   35SOL     MW  140   0.316   0.134   1.681  0.3499  0.4948  0.0643
   36SOL     OW  141   1.950   1.995   0.585  0.2347  0.0738 -0.2526
   36SOL    HW1  142   1.925   1.983   0.496  0.3852 -0.0473 -3.2546
   36SOL    HW2  143   1.981   1.910   0.629  1.8079  1.5837 -0.6254
   36SOL     MW  144   1.951   1.982   0.579  0.4621  0.2571 -0.6979
   37SOL     OW  145   1.736   2.078   0.945 -0.3264  0.3868 -0.0321
   37SOL    HW1  146   1.666   2.019   0.903 -2.6933  0.8442  2.9041
   37SOL    HW2  147   1.698   2.121   1.016  3.7856 -2.6006  0.5888
   37SOL     MW  148   1.722   2.076   0.949 -0.0961  0.0530  0.4372
   38SOL     OW  149   2.807   0.990   0.029  0.4017  0.5971  0.4925
   38SOL    HW1  150   2.844   0.973   0.117  0.4326 -2.1662 -1.3230
   38SOL    HW2  151   2.885   0.970  -0.036 -0.8465  0.7415 -2.7973
   38SOL     MW  152   2.822   0.985   0.032  0.2411  0.2516 -0.1811
   39SOL     OW  153   1.552   0.656   0.732  0.2020 -0.4939  0.0453
   39SOL    HW1  154   1.533   0.565   0.708 -0.2252  1.9687 -1.1332
   39SOL    HW2  155   1.470   0.702   0.726  2.7931 -0.5466  0.3730
   39SOL     MW  156   1.539   0.650   0.728  0.4875 -0.1760 -0.0669
   40SOL     OW  157   1.277   1.873   0.240 -0.0315  0.1708  0.0302
   40SOL    HW1  158   1.326   1.805   0.284  1.6877  1.8239 -0.1747
   40SOL    HW2  159   1.216   1.908   0.308 -0.6718 -1.9959 -1.1427
   40SOL     MW  160   1.275   1.869   0.255  0.1108  0.1031 -0.1515
   41SOL     OW  161   0.512   0.496   1.590 -0.1073  0.1553  0.5430
   41SOL    HW1  162   0.581   0.551   1.542  0.7637  0.6287 -2.8961
   41SOL    HW2  163   0.430   0.540   1.607 -1.9552  1.5069 -0.7826
   41SOL     MW  164   0.510   0.509   1.586 -0.2362  0.3961 -0.0857
   42SOL     OW  165   1.240   2.899   1.999 -0.1643  0.4548  0.0038
   42SOL    HW1  166   1.170   2.893   2.058  2.5206 -0.5379 -1.3152
   42SOL    HW2  167   1.318   2.841   2.027  1.6478  0.9159 -1.6986
   42SOL     MW  168   1.241   2.891   2.011  0.4290  0.3847 -0.3948
   43SOL     OW  169   1.388   0.125   1.698 -0.2925  0.5354 -0.1253
   43SOL    HW1  170   1.465   0.076   1.664  0.4299 -0.5441  0.0751
   43SOL    HW2  171   1.308   0.076   1.682  0.9101 -2.8262  2.5573
   43SOL     MW  172   1.388   0.112   1.691 -0.0385 -0.0506  0.2551
   44SOL     OW  173   1.210   0.837   0.960 -0.2830 -0.1198 -0.0448
   44SOL    HW1  174   1.189   0.930   0.957 -1.6585 -1.0638 -1.3422
   44SOL    HW2  175   1.140   0.805   1.015 -0.4729  1.2873  0.1131
   44SOL     MW  176   1.198   0.845   0.967 -0.4895 -0.0587 -0.1952
   45SOL     OW  177   1.303   0.804   0.693  0.3262 -0.2756 -0.2102
   45SOL    HW1  178   1.271   0.830   0.780  1.9620  1.1765  1.1486
   45SOL    HW2  179   1.230   0.751   0.641 -1.3877 -0.2613 -2.5699
   45SOL     MW  180   1.289   0.800   0.698  0.3159 -0.0822 -0.3423
   46SOL     OW  181   0.420   1.130   0.673 -0.1224  0.1997 -0.1139
   46SOL    HW1  182   0.475   1.158   0.603  1.1423 -0.5404  0.6010
   46SOL    HW2  183   0.399   1.216   0.715  0.8879  0.9061  0.5952
   46SOL     MW  184   0.424   1.145   0.670  0.1778  0.1952  0.0740
   47SOL     OW  185   0.099   1.969   1.961  0.4873  0.3118 -0.1938
   47SOL    HW1  186   0.103   1.898   1.901  0.7308  0.9303 -0.4554
   47SOL    HW2  187   0.126   1.931   2.047  1.4164 -2.5501  1.0202
   47SOL     MW  188   0.103   1.955   1.964  0.6420  0.0158 -0.0681
   48SOL     OW  189   1.260   0.492   1.038  0.5245 -0.2034  0.7738
   48SOL    HW1  190   1.216   0.449   0.964  0.9229  1.2167 -0.6575
   48SOL    HW2  191   1.215   0.570   1.072  2.0596  0.8979 -0.1331
   48SOL     MW  192   1.248   0.497   1.033  0.7796  0.1293  0.4653
   49SOL     OW  193   1.714   0.735   1.548 -0.2714 -0.1727  0.0997
   49SOL    HW1  194   1.748   0.662   1.604 -0.6405 -0.0858 -2.0118
   49SOL    HW2  195   1.752   0.708   1.464  1.3720 -2.1355  1.7837
   49SOL     MW  196   1.724   0.722   1.544 -0.1032 -0.4202  0.0433
   50SOL     OW  197   1.319   1.197   0.643 -0.1682  0.1224 -0.4204
   50SOL    HW1  198   1.221   1.192   0.674  1.8453 -0.5941  1.5386
   50SOL    HW2  199   1.366   1.118   0.666 -0.3971 -0.7566 -0.1148
   50SOL     MW  200   1.313   1.186   0.650  0.0672 -0.0881 -0.1216
   51SOL     OW  201   0.350   2.893   0.849 -0.0260  0.6774 -0.2802
   51SOL    HW1  202   0.443   2.865   0.852  2.5259  1.3521  0.0773
   51SOL    HW2  203   0.335   2.936   0.936  1.3627  0.8713  0.1982
   51SOL     MW  204   0.360   2.895   0.861  0.4939  0.7920 -0.1699
   52SOL     OW  205   0.795   1.835   0.484  0.6311  0.2907 -0.4578
   52SOL    HW1  206   0.783   1.930   0.498  1.1605 -0.1181  2.9748
   52SOL    HW2  207   0.827   1.814   0.396  2.6832  1.1260 -0.9258
   52SOL     MW  208   0.797   1.845   0.474  0.9717  0.3470 -0.0667
   53SOL     OW  209   0.489   2.159   0.583 -0.2894 -0.4025 -0.1852
   53SOL    HW1  210   0.447   2.115   0.505  1.6920 -0.1459 -1.0578
   53SOL    HW2  211   0.467   2.255   0.575 -2.1076  1.3244  0.9602
   53SOL     MW  212   0.480   2.166   0.572 -0.2679 -0.1408 -0.1492
   54SOL     OW  213   2.038   0.994   0.718  0.5259  0.1008 -0.3821
   54SOL    HW1  214   2.119   0.984   0.667 -1.1181  0.4852 -2.3872
   54SOL    HW2  215   2.016   0.910   0.756  1.4573 -0.2574  0.2143
   54SOL     MW  216   2.046   0.982   0.716  0.4319  0.1042 -0.5680
   55SOL     OW  217   0.425   1.526   1.735  0.2282 -0.2894  0.1290
   55SOL    HW1  218   0.383   1.550   1.649 -0.7927  0.9014 -1.3628
   55SOL    HW2  219   0.508   1.495   1.708  0.8742  3.7551  0.4789
   55SOL     MW  220   0.431   1.525   1.720  0.1787  0.4014 -0.0217
   56SOL     OW  221   0.659   0.916   0.170  0.1581 -0.2576  0.5217
   56SOL    HW1  222   0.674   1.007   0.136 -0.4022  1.8412  0.0903
   56SOL    HW2  223   0.581   0.876   0.136  0.8377  1.3261  0.8253
   56SOL     MW  224   0.651   0.923   0.161  0.1738  0.2283  0.5049
   57SOL     OW  225   1.107   1.317   1.174 -0.3492  0.4759  0.3518
   57SOL    HW1  226   1.185   1.356   1.213 -0.6572 -0.8075 -0.8677
   57SOL    HW2  227   1.087   1.253   1.248  1.0103 -1.3020  0.3376
   57SOL     MW  228   1.114   1.313   1.189 -0.2105  0.0720  0.1891
   58SOL     OW  229   0.429   1.246   1.288  0.3515 -0.1450  0.1936
   58SOL    HW1  230   0.394   1.336   1.301 -1.3380 -2.0502  0.4266
   58SOL    HW2  231   0.451   1.215   1.373  2.5280 -2.8865 -1.5490
   58SOL     MW  232   0.427   1.254   1.301  0.4158 -0.7581 -0.0056
   59SOL     OW  233   1.463   1.682   0.382  0.9687 -0.4222 -0.0291
   59SOL    HW1  234   1.512   1.738   0.440  2.3643  1.2540  2.6908
   59SOL    HW2  235   1.381   1.657   0.430 -0.0544 -1.4719  1.7824
   59SOL     MW  236   1.459   1.686   0.396  1.0178 -0.3395  0.5688
   60SOL     OW  237   3.083   0.165   1.635 -0.3452 -0.1963 -0.0903
   60SOL    HW1  238   3.007   0.221   1.648 -0.1861  0.5133 -1.6351
   60SOL    HW2  239   3.129   0.171   1.725 -0.4957  1.0110 -2.5938
   60SOL     MW  240   3.079   0.173   1.648 -0.3440  0.0566 -0.6245
   61SOL     OW  241   1.986   1.349   2.989  0.0626 -0.3241  0.6449
   61SOL    HW1  242   1.954   1.339   3.084  0.0534 -0.1212 -0.4192
   61SOL    HW2  243   2.050   1.283   2.977 -1.7029  3.3731  1.7882
   61SOL     MW  244   1.990   1.339   3.000 -0.1716  0.1905  0.6553
   62SOL     OW  245   0.572   1.748   0.610 -0.5510  0.3235 -0.6793
   62SOL    HW1  246   0.662   1.757   0.587 -0.4111  1.6983 -2.7893
   62SOL    HW2  247   0.555   1.656   0.585 -1.2830 -0.5966 -1.5208
   62SOL     MW  248   0.582   1.737   0.603 -0.6291  0.3835 -1.0687
   63SOL     OW  249   1.725   0.683   0.533 -0.3594 -0.9104 -0.5413
   63SOL    HW1  250   1.726   0.763   0.480  0.0804 -1.2063  0.0471
   63SOL    HW2  251   1.656   0.699   0.602 -2.1445 -1.5961  2.3355
   63SOL     MW  252   1.716   0.696   0.535 -0.5369 -1.0399 -0.0841
   64SOL     OW  253   0.228   1.697   0.652 -0.4528  0.3269 -0.6185
   64SOL    HW1  254   0.299   1.754   0.683 -0.1037  1.2037  2.9539
   64SOL    HW2  255   0.149   1.739   0.687 -4.1276  0.5849 -1.3517
   64SOL     MW  256   0.227   1.710   0.661 -0.8916  0.4766 -0.2439
   65SOL     OW  257   1.491   2.309   0.396  0.4899  0.2054  0.0120
   65SOL    HW1  258   1.578   2.349   0.411  1.3983  2.2225 -1.5246
   65SOL    HW2  259   1.430   2.350   0.464 -1.4383  0.4427 -0.3083
   65SOL     MW  260   1.495   2.320   0.407  0.3554  0.5028 -0.2330
   66SOL     OW  261   0.386   0.534   0.535 -0.2444  0.2876 -0.0623
   66SOL    HW1  262   0.446   0.519   0.457 -0.0814 -0.6589  1.7401
   66SOL    HW2  263   0.362   0.624   0.532 -1.8150 -0.8625  1.0689
   66SOL     MW  264   0.391   0.544   0.525 -0.4301  0.0110  0.3247
   67SOL     OW  265   1.341   0.052   1.991 -0.7074 -0.3248  0.1476
   67SOL    HW1  266   1.373   0.090   1.905  1.1050 -2.0499  0.0557
   67SOL    HW2  267   1.294  -0.029   1.978 -0.1695  0.8205  1.8199
   67SOL     MW  268   1.339   0.047   1.978 -0.3973 -0.4013  0.3561
   68SOL     OW  269   0.772   0.098   2.882  0.7252  0.0748 -0.0383
   68SOL    HW1  270   0.766   0.177   2.827 -0.0840  0.4015 -1.9963
   68SOL    HW2  271   0.847   0.117   2.937 -1.4577 -1.5809 -0.5932
   68SOL     MW  272   0.781   0.111   2.882  0.3304 -0.1005 -0.3698
   69SOL     OW  273   1.104   0.263   1.975  0.3491  0.1265 -0.3443
   69SOL    HW1  274   1.193   0.276   2.020 -0.0584 -2.1963  0.8148
   69SOL    HW2  275   1.056   0.201   2.036 -4.0983  1.7745  1.2381
   69SOL     MW  276   1.109   0.257   1.989 -0.2915  0.0374  0.0174
   70SOL     OW  277   0.544   1.715   1.139  0.0435 -0.5573 -0.0059
   70SOL    HW1  278   0.634   1.747   1.144 -1.3802  1.3940  3.0015
   70SOL    HW2  279   0.553   1.647   1.074 -3.9482  0.3893 -1.3532
   70SOL     MW  280   0.557   1.710   1.131 -0.6710 -0.1749  0.2131
   71SOL     OW  281   1.568   0.582   1.228  0.0658  0.4901 -0.6508
   71SOL    HW1  282   1.507   0.634   1.291  0.2426  1.4092 -3.5024
   71SOL    HW2  283   1.550   0.601   1.133  1.8390 -1.5592 -1.6226
   71SOL     MW  284   1.558   0.591   1.223  0.3231  0.3410 -1.1552
   72SOL     OW  285   0.782   1.836   1.036  0.2592  0.5960  0.2836
   72SOL    HW1  286   0.793   1.913   0.981  1.2379 -2.2589  0.8661
   72SOL    HW2  287   0.820   1.760   0.992  2.2730  0.2519  0.6600
   72SOL     MW  288   0.789   1.836   1.023  0.6540  0.1739  0.4101
   73SOL     OW  289   1.078   0.687   1.144 -0.0665 -0.1659 -0.5836
   73SOL    HW1  290   1.018   0.615   1.168 -1.6228 -2.3314  1.9698
   73SOL    HW2  291   1.075   0.753   1.215 -1.5423 -3.9237 -1.7751
   73SOL     MW  292   1.070   0.686   1.157 -0.4666 -0.9474 -0.4039
   74SOL     OW  293   2.817   0.080   0.968  0.4728  0.3003  0.3251
   74SOL    HW1  294   2.906   0.096   0.934 -0.6388  3.1252 -2.4856
   74SOL    HW2  295   2.781   0.169   0.953 -0.1635  1.7431  0.2223
   74SOL     MW  296   2.824   0.094   0.962  0.2422  0.8634 -0.0593
   75SOL     OW  297   1.488   1.315   0.173 -0.5461  0.1756 -0.1276
   75SOL    HW1  298   1.563   1.272   0.130  1.1216  0.3070 -0.3935
   75SOL    HW2  299   1.515   1.341   0.261 -0.8110 -2.1215 -0.5929
   75SOL     MW  300   1.501   1.313   0.179 -0.3610 -0.1101 -0.2241
   76SOL     OW  301   3.065   0.701   0.437 -0.2988 -0.2030 -0.8789
   76SOL    HW1  302   3.099   0.737   0.524  0.3970  0.7667 -0.2644
   76SOL    HW2  303   3.132   0.636   0.420 -0.6389 -2.1571 -2.4936
   76SOL     MW  304   3.079   0.697   0.446 -0.2518 -0.3329 -1.0108
   77SOL     OW  305   0.889   0.617   0.457 -0.3188 -0.8180 -0.3840
   77SOL    HW1  306   0.851   0.665   0.379 -1.0963  1.5803  1.2375
   77SOL    HW2  307   0.866   0.525   0.443  1.3496  0.7632  0.6075
   77SOL     MW  308   0.881   0.611   0.445 -0.2013 -0.2929 -0.0393
   78SOL     OW  309   0.827   0.880   1.080 -0.4817  0.2657  0.1835
   78SOL    HW1  310   0.807   0.971   1.056  0.5552 -1.8115 -0.7340
   78SOL    HW2  311   0.740   0.858   1.120  1.3283 -2.0346  0.0442
   78SOL     MW  312   0.813   0.889   1.082 -0.1061 -0.3119  0.0441
   79SOL     OW  313   1.873   1.508   0.531 -0.1258  0.0268  0.0102
   79SOL    HW1  314   1.778   1.508   0.544  1.1219 -1.1498  2.3378
   79SOL    HW2  315   1.914   1.472   0.607  0.3766  0.4321  1.2375
   79SOL     MW  316   1.866   1.503   0.543  0.1051 -0.0749  0.4793
   80SOL     OW  317   0.223   0.997   0.286  0.2471 -0.1575  0.2086
   80SOL    HW1  318   0.170   0.944   0.221  0.2479  0.3400 -0.8634
   80SOL    HW2  319   0.254   0.932   0.349  0.0745 -1.4556 -0.3233
   80SOL     MW  320   0.220   0.982   0.286  0.2244 -0.2631 -0.0030
   81SOL     OW  321   1.825   1.827   0.361 -0.2986 -0.3797 -0.8886
   81SOL    HW1  322   1.780   1.744   0.346 -2.2070 -3.0855  0.1894
   81SOL    HW2  323   1.783   1.888   0.304 -1.6456  0.8864 -1.3939
   81SOL     MW  324   1.814   1.824   0.351 -0.7281 -0.5696 -0.8130
   82SOL     OW  325   0.974   1.016   0.568  0.2546  0.0265  0.0126
   82SOL    HW1  326   0.927   1.070   0.503 -0.1868  1.3240 -1.2876
   82SOL    HW2  327   0.919   0.947   0.604 -1.3345  1.3614 -1.8598
   82SOL     MW  328   0.961   1.014   0.564 -0.0133  0.3738 -0.4060
   83SOL     OW  329   3.085   0.738   1.554  0.0205  0.2010 -0.4757
   83SOL    HW1  330   3.076   0.796   1.472 -1.0461 -1.5449 -1.7579
   83SOL    HW2  331   3.161   0.677   1.538  2.4318 -1.4375 -2.8838
   83SOL     MW  332   3.094   0.738   1.541  0.1979 -0.2455 -0.9626
   84SOL     OW  333   3.080   0.171   0.904 -0.4788 -0.2071  0.3856
   84SOL    HW1  334   3.085   0.270   0.926  0.0272  0.7674 -1.8293
   84SOL    HW2  335   3.095   0.123   0.983  0.7605  0.0840 -2.4594
   84SOL     MW  336   3.083   0.178   0.917 -0.2485 -0.0401 -0.2820
   85SOL     OW  337   0.357   0.480   0.804  0.0570 -0.0993 -0.2820
   85SOL    HW1  338   0.362   0.514   0.712 -0.5601 -0.5271 -0.4328
   85SOL    HW2  339   0.299   0.401   0.795  1.5950 -0.7038 -1.5161
   85SOL     MW  340   0.350   0.474   0.791  0.1785 -0.2355 -0.4647
   86SOL     OW  341   1.288   0.273   1.210 -0.2763 -0.0989  0.2109
   86SOL    HW1  342   1.274   0.348   1.156 -1.0634  1.0617  1.5481
   86SOL    HW2  343   1.375   0.290   1.246 -0.4907 -3.3253  2.8392
   86SOL     MW  344   1.298   0.285   1.207 -0.4084 -0.3715  0.7341
   87SOL     OW  345   1.025   1.579   1.176 -0.7296 -0.0158  0.3556
   87SOL    HW1  346   1.079   1.653   1.142  1.3460 -1.2021 -0.8425
   87SOL    HW2  347   1.086   1.505   1.162  2.5587 -1.1960 -0.3756
   87SOL     MW  348   1.040   1.579   1.170 -0.0219 -0.3280  0.1011
   88SOL     OW  349   1.150   1.118   0.986  0.4057  0.2146  1.1017
   88SOL    HW1  350   1.246   1.119   0.996 -0.5713  1.6269 -0.7847
   88SOL    HW2  351   1.123   1.179   1.053 -1.7104  0.7662  1.6924
   88SOL     MW  352   1.159   1.126   0.996 -0.0024  0.4737  0.9308
   89SOL     OW  353   1.795   0.715   0.230 -0.0542  0.5779 -0.5005
   89SOL    HW1  354   1.748   0.642   0.273 -1.2383 -1.1185  1.2723
   89SOL    HW2  355   1.871   0.734   0.285 -0.4805  0.6382  0.9454
   89SOL     MW  356   1.799   0.708   0.243 -0.2667  0.3621 -0.0758
   90SOL     OW  357   0.761   1.196   2.798 -0.1874 -0.5321 -0.5657
   90SOL    HW1  358   0.796   1.109   2.823 -0.4168  0.1016 -4.2550
   90SOL    HW2  359   0.786   1.249   2.873 -0.6351 -1.6828 -2.3453
   90SOL     MW  360   0.769   1.191   2.811 -0.2767 -0.6003 -1.2873
   91SOL     OW  361   2.255   0.592   0.526  0.1134 -0.2305  0.4315
   91SOL    HW1  362   2.321   0.646   0.476  0.7666 -1.0502  1.0536
   91SOL    HW2  363   2.256   0.505   0.472 -0.3646  0.3900 -0.7279
   91SOL     MW  364   2.264   0.588   0.512  0.1365 -0.2567  0.3606
   92SOL     OW  365   1.646   0.951   0.476  0.3191  0.3228 -0.3658
   92SOL    HW1  366   1.604   0.948   0.562 -0.4653  1.8661  0.1249
   92SOL    HW2  367   1.627   1.045   0.455 -0.2941 -1.7080  2.4742
   92SOL     MW  368   1.638   0.963   0.484  0.1347  0.2585  0.0737
   93SOL     OW  369   1.091   0.254   0.407  0.3822 -0.6018 -0.2184
   93SOL    HW1  370   0.998   0.257   0.421  2.1293 -0.8690  1.2282
   93SOL    HW2  371   1.108   0.287   0.316 -0.9589  1.0730 -0.2378
   93SOL     MW  372   1.081   0.259   0.397  0.4358 -0.4161 -0.0301
   94SOL     OW  373   1.913   1.392   1.572  0.4048 -0.2323  0.1625
   94SOL    HW1  374   1.886   1.397   1.480 -0.8259  3.3130  0.2635
   94SOL    HW2  375   1.912   1.298   1.598 -0.7098  1.6917  0.3423
   94SOL     MW  376   1.909   1.380   1.563  0.0954  0.4893  0.1996
   95SOL     OW  377   0.590   1.532   0.926  0.4816 -0.2809  0.2208
   95SOL    HW1  378   0.664   1.485   0.967 -0.4594  1.9229 -0.2499
   95SOL    HW2  379   0.529   1.466   0.893 -1.5004 -3.2133  1.4721
   95SOL     MW  380   0.592   1.517   0.927  0.0960 -0.3771  0.3238
   96SOL     OW  381   1.351   1.840   1.710 -0.2355  0.1639  0.0263
   96SOL    HW1  382   1.262   1.824   1.751  0.7159 -1.4793  1.3402
   96SOL    HW2  383   1.359   1.756   1.670  1.2155 -1.1053  1.7244
   96SOL     MW  384   1.340   1.827   1.710  0.0815 -0.2203  0.4237
   97SOL     OW  385   1.091   1.572   0.833 -0.2120 -0.5195 -0.3181
   97SOL    HW1  386   1.120   1.647   0.887  1.3622  0.6040 -1.2574
   97SOL    HW2  387   0.992   1.568   0.839 -0.2050 -1.4767  0.7304
   97SOL     MW  388   1.082   1.581   0.841 -0.0034 -0.4976 -0.3037
   98SOL     OW  389   1.359   1.395   1.226  0.4067 -0.1785 -0.1835
   98SOL    HW1  390   1.427   1.437   1.280  1.3793  3.2435  0.8572
   98SOL    HW2  391   1.410   1.385   1.144 -0.7913  1.2179 -0.1261
   98SOL     MW  392   1.375   1.400   1.222  0.3769  0.4573 -0.0386
   99SOL     OW  393   1.554   0.330   1.301  0.2878  0.1430 -0.0787
   99SOL    HW1  394   1.558   0.422   1.270  0.3603  1.0424  0.6725
   99SOL    HW2  395   1.503   0.332   1.389 -0.9468 -0.1491  0.4364
   99SOL     MW  396   1.548   0.343   1.309  0.1345  0.2231  0.0884
  100SOL     OW  397   1.082   1.157   1.392  0.3091 -0.3143 -0.1459
  100SOL    HW1  398   1.145   1.201   1.444 -0.7998  0.9522  0.7503
  100SOL    HW2  399   1.105   1.066   1.396 -0.4486  1.0645  1.2502
  100SOL     MW  400   1.093   1.151   1.399  0.0628  0.0347  0.1566
  101SOL     OW  401   0.548   1.223   0.444 -0.5856  0.4902  0.6340
  101SOL    HW1  402   0.481   1.166   0.395 -0.4665 -1.1110 -0.2087
  101SOL    HW2  403   0.642   1.203   0.425  0.9058 -1.5591  0.6475
  101SOL     MW  404   0.552   1.213   0.435 -0.3731  0.0085  0.5246
  102SOL     OW  405   2.894   0.606   1.081 -0.7103  0.0979 -0.2992
  102SOL    HW1  406   2.923   0.697   1.080  1.2310 -1.3950 -0.7692
  102SOL    HW2  407   2.884   0.571   1.163 -0.3278 -1.3775 -1.1436
  102SOL     MW  408   2.897   0.613   1.091 -0.4037 -0.2937 -0.4726
  103SOL     OW  409   1.859   0.283   1.760  0.2617  0.0292  0.1608
  103SOL    HW1  410   1.857   0.192   1.725  2.5670 -0.2630 -1.4119
  103SOL    HW2  411   1.851   0.268   1.855  1.3389 -0.6562 -1.9806
  103SOL     MW  412   1.858   0.269   1.768  0.7080 -0.0998 -0.3292
  104SOL     OW  413   0.059   1.521   1.675  0.0840 -0.0056 -0.1152
  104SOL    HW1  414   0.100   1.442   1.721 -2.4942  0.3065 -1.9103
  104SOL    HW2  415  -0.040   1.513   1.686 -0.3617  0.9733  1.6545
  104SOL     MW  416   0.051   1.509   1.683 -0.3150  0.1647 -0.1185
  105SOL     OW  417   0.087   1.199   0.436  0.1854 -0.1107  0.3305
  105SOL    HW1  418   0.130   1.125   0.393  0.3717  1.4935 -2.3854
  105SOL    HW2  419   0.149   1.268   0.422  0.7432 -1.9219  1.0657
  105SOL     MW  420   0.101   1.198   0.428  0.2836 -0.1380  0.0692
  106SOL     OW  421   0.807   0.248   0.838  0.2873 -0.0594  0.6872
  106SOL    HW1  422   0.736   0.319   0.826 -3.1403 -1.4462  1.7391
  106SOL    HW2  423   0.880   0.294   0.875  2.3346  2.1157 -4.1979
  106SOL     MW  424   0.807   0.264   0.841  0.1052  0.0446  0.1814
  107SOL     OW  425   0.798   2.206   2.880  0.4988 -0.4880 -0.1831
  107SOL    HW1  426   0.705   2.210   2.893 -0.7122 -1.8594  1.7668
  107SOL    HW2  427   0.825   2.132   2.932  1.0280  0.7198 -0.9929
  107SOL     MW  428   0.789   2.197   2.889  0.4088 -0.5096 -0.0326
  108SOL     OW  429   1.305   1.554   1.639  0.0668 -0.2871 -0.0508
  108SOL    HW1  430   1.242   1.541   1.562 -0.9807 -1.0787 -0.6646
  108SOL    HW2  431   1.379   1.500   1.608  0.6541 -2.8554 -5.4671
  108SOL     MW  432   1.307   1.545   1.625  0.0061 -0.7304 -0.8464
  109SOL     OW  433   2.037   0.771   0.344  0.1397 -0.1134  0.3867
  109SOL    HW1  434   2.027   0.864   0.320  2.0445 -2.1932  3.0653
  109SOL    HW2  435   2.068   0.777   0.432  0.2274 -0.9968 -0.3406
  109SOL     MW  436   2.040   0.784   0.353  0.4026 -0.5044  0.6442
  110SOL     OW  437   0.404   1.904   0.791 -0.1688 -0.1858  0.3093
  110SOL    HW1  438   0.462   1.829   0.768 -0.7251 -3.1180  1.5906
  110SOL    HW2  439   0.425   1.967   0.723  1.4330  1.3097 -1.2728
  110SOL     MW  440   0.415   1.902   0.779 -0.0308 -0.3753  0.2696
  111SOL     OW  441   0.841   0.880   1.363  0.3808 -0.2450  0.1230
  111SOL    HW1  442   0.819   0.886   1.271 -0.3784  0.2902 -0.9310
  111SOL    HW2  443   0.786   0.807   1.388  1.8906  0.6121 -3.1968
  111SOL     MW  444   0.831   0.871   1.354  0.4799 -0.0613 -0.4541
  112SOL     OW  445   1.348   1.151   1.645 -0.5076  0.0916  1.0753
  112SOL    HW1  446   1.262   1.195   1.648  0.2930 -0.1272 -0.6766
  112SOL    HW2  447   1.325   1.059   1.647 -1.5253  1.1003  1.4569
  112SOL     MW  448   1.333   1.144   1.646 -0.5362  0.1958  0.8945
  113SOL     OW  449   1.225   2.978   1.725 -0.1166 -0.4688  0.4655
  113SOL    HW1  450   1.184   2.926   1.792 -0.7724  0.9111  0.8727
  113SOL    HW2  451   1.186   2.957   1.642  1.8961 -0.1745 -0.1513
  113SOL     MW  452   1.215   2.969   1.723  0.0624 -0.2479  0.4379
  114SOL     OW  453   0.368   2.898   1.787 -0.3173 -0.0477  0.1731
  114SOL    HW1  454   0.448   2.944   1.791 -3.0475  1.7490  2.5615
  114SOL    HW2  455   0.317   2.952   1.845 -0.9667  0.3441  1.2060
  114SOL     MW  456   0.372   2.911   1.795 -0.7632  0.2410  0.6245
  115SOL     OW  457   0.563   0.879   1.179  0.2247  0.3809 -0.0943
  115SOL    HW1  458   0.546   0.789   1.152 -0.3809  2.8251 -0.4777
  115SOL    HW2  459   0.475   0.905   1.193 -0.7334  1.1758 -1.1386
  115SOL     MW  460   0.549   0.871   1.177  0.0184  0.8083 -0.2827
  116SOL     OW  461   0.682   1.113   1.003  0.1599  0.2092  0.2696
  116SOL    HW1  462   0.745   1.152   0.938  1.9152 -3.6403  1.6368
  116SOL    HW2  463   0.692   1.173   1.078 -1.3555 -1.2808  0.0225
  116SOL     MW  464   0.691   1.126   1.004  0.1915 -0.4953  0.4174
  117SOL     OW  465   1.106   1.303   0.788 -0.3381  0.2423 -0.6403
  117SOL    HW1  466   1.108   1.246   0.861  0.6675 -0.3351 -1.5518
  117SOL    HW2  467   1.116   1.401   0.808 -1.4788  0.6631  0.3409
  117SOL     MW  468   1.107   1.308   0.801 -0.3559  0.2216 -0.6311
  118SOL     OW  469   3.072   2.959   1.809  0.8110  0.4604  0.3819
  118SOL    HW1  470   3.102   3.050   1.815 -1.1208 -0.9555  0.5151
  118SOL    HW2  471   2.977   2.980   1.791  2.0005  1.8046  1.2028
  118SOL     MW  472   3.063   2.974   1.807  0.7131  0.4510  0.5078
  119SOL     OW  473   0.372   1.534   1.280  0.6187 -0.4943  0.2006
  119SOL    HW1  474   0.420   1.578   1.213  1.7929  0.1618  1.1954
  119SOL    HW2  475   0.280   1.520   1.254  0.6959 -1.7444 -1.4958
  119SOL     MW  476   0.367   1.538   1.267  0.7838 -0.5727  0.1080
  120SOL     OW  477   0.297   0.895   0.979 -0.0625 -0.5784 -0.2305
  120SOL    HW1  478   0.280   0.989   0.992  0.0517 -0.3481 -1.1984
  120SOL    HW2  479   0.381   0.882   0.933 -1.7581 -0.3286 -2.7435
  120SOL     MW  480   0.306   0.906   0.975 -0.2712 -0.5151 -0.6898
  121SOL     OW  481   1.751   1.111   1.594 -0.0057 -0.0728  0.3740
  121SOL    HW1  482   1.667   1.134   1.552 -0.5815  0.0195  0.4152
  121SOL    HW2  483   1.789   1.034   1.551  3.3728 -2.2952  0.8298
  121SOL     MW  484   1.745   1.104   1.582  0.3641 -0.3539  0.4396
  122SOL     OW  485   0.164   0.669   0.879 -0.0115  0.7905  0.0455
  122SOL    HW1  486   0.239   0.603   0.872  0.7585 -0.0967 -0.5924
  122SOL    HW2  487   0.206   0.756   0.890 -0.5416 -2.2409 -2.2631
  122SOL     MW  488   0.179   0.672   0.879  0.0202  0.2735 -0.3433
  123SOL     OW  489   1.861   1.115   0.537 -0.6320  0.1027  0.2423
  123SOL    HW1  490   1.791   1.048   0.535  0.1263  1.3104 -1.7200
  123SOL    HW2  491   1.931   1.080   0.595 -1.5418  0.4554  2.5071
  123SOL     MW  492   1.861   1.101   0.544 -0.6520  0.3086  0.2822
  124SOL     OW  493   0.627   0.453   0.855  1.2708 -0.1185 -0.7770
  124SOL    HW1  494   0.535   0.474   0.822  0.0826  0.5290 -3.7030
  124SOL    HW2  495   0.669   0.539   0.850  2.7370 -2.0796  0.0728
  124SOL     MW  496   0.620   0.467   0.850  1.3075 -0.2918 -1.0509
  125SOL     OW  497   0.683   1.710   1.726 -0.0770  0.3953 -0.1738
  125SOL    HW1  498   0.686   1.702   1.634 -0.1096  1.1309 -2.0017
  125SOL    HW2  499   0.614   1.777   1.750 -0.9376  2.7215 -0.8582
  125SOL     MW  500   0.674   1.717   1.717 -0.1949  0.7992 -0.5053
  126SOL     OW  501   2.119   1.548   1.893  0.1331  0.3218 -0.5516
  126SOL    HW1  502   2.163   1.633   1.901  0.6708  2.5879 -1.7078
  126SOL    HW2  503   2.186   1.480   1.908 -1.1473 -1.7822 -0.8508
  126SOL     MW  504   2.134   1.551   1.896  0.0351  0.3432 -0.7436
  127SOL     OW  505   0.496   0.786   1.841  0.2061 -0.3168  0.1102
  127SOL    HW1  506   0.586   0.749   1.831  3.8183 -0.5625 -1.1811
  127SOL    HW2  507   0.489   0.844   1.916  0.1488 -0.9515  2.6306
  127SOL     MW  508   0.507   0.789   1.849  0.6751 -0.4329  0.2724
  128SOL     OW  509   1.754   0.743   2.869  0.0068  0.5052 -0.4489
  128SOL    HW1  510   1.814   0.718   2.796 -0.1405  2.7441  0.8531
  128SOL    HW2  511   1.764   0.839   2.875  0.2429  2.1116  0.3323
  128SOL     MW  512   1.763   0.752   2.860  0.0185  1.0125 -0.1740
  129SOL     OW  513   1.585   0.918   0.161  0.5346  0.6899 -0.2791
  129SOL    HW1  514   1.543   0.839   0.127  1.4911  1.2534 -0.7061
  129SOL    HW2  515   1.646   0.888   0.231  0.4884  1.4234  0.6308
  129SOL     MW  516   1.587   0.904   0.166  0.6547  0.8610 -0.2154
  130SOL     OW  517   0.867   1.441   0.329  1.0379  0.4955 -0.2010
  130SOL    HW1  518   0.849   1.487   0.406 -1.4675 -2.2292 -0.1051
  130SOL    HW2  519   0.957   1.453   0.313 -0.2942 -0.5723 -0.7253
  130SOL     MW  520   0.876   1.448   0.337  0.5316 -0.0049 -0.2575
  131SOL     OW  521   0.064   0.802   0.089 -0.1756  0.6107 -0.7742
  131SOL    HW1  522   0.052   0.816  -0.001  0.5195  1.0017  1.3871
  131SOL    HW2  523   0.125   0.723   0.093  2.4030 -0.0267 -0.3032
  131SOL     MW  524   0.070   0.793   0.078  0.2563  0.5782 -0.4269
  132SOL     OW  525   2.728   0.083   1.244  0.1653 -0.0983 -0.3909
  132SOL    HW1  526   2.765   0.091   1.156  0.2348 -1.2945 -1.9814
  132SOL    HW2  527   2.637   0.050   1.233  1.3417  1.1237 -1.2718
  132SOL     MW  528   2.721   0.080   1.231  0.3297 -0.0949 -0.7169
  133SOL     OW  529   1.062   0.109   1.745  0.1770  0.2300  0.0063
  133SOL    HW1  530   1.108   0.029   1.766  1.2957  1.7147 -0.3652
  133SOL    HW2  531   1.086   0.171   1.818  1.7576  0.5929 -2.3171
  133SOL     MW  532   1.071   0.107   1.757  0.5331  0.4737 -0.3493
  134SOL     OW  533   1.408   2.505   1.450  0.0461 -0.1001  0.0812
  134SOL    HW1  534   1.399   2.590   1.407  1.7677 -1.8503  0.2073
  134SOL    HW2  535   1.415   2.517   1.548 -1.7653  1.5682  3.4781
  134SOL     MW  536   1.408   2.518   1.457  0.0343 -0.1109  0.5460
  135SOL     OW  537   3.019   1.015   2.943 -0.0663 -0.0096 -0.5699
  135SOL    HW1  538   3.095   1.065   2.960 -0.3109 -2.0403  0.8571
  135SOL    HW2  539   2.960   1.084   2.900 -1.0867  2.4247 -0.0349
  135SOL     MW  540   3.021   1.030   2.940 -0.2332  0.0437 -0.3110
  136SOL     OW  541   0.153   1.997   0.864  0.0349  0.0330 -0.4007
  136SOL    HW1  542   0.083   1.929   0.837 -2.0484  0.5889  1.8268
  136SOL    HW2  543   0.232   1.980   0.811  0.3624  1.0398  1.2264
  136SOL     MW  544   0.154   1.985   0.854 -0.1967  0.2391  0.1079
  137SOL     OW  545   0.741   2.083   0.594 -0.1103 -0.3500  0.3931
  137SOL    HW1  546   0.770   2.097   0.688  1.5406  1.4959 -1.1285
  137SOL    HW2  547   0.646   2.108   0.594  0.6714 -0.8706  1.4963
  137SOL     MW  548   0.732   2.088   0.607  0.2107 -0.1751  0.3379
  138SOL     OW  549   0.503   0.600   1.078  0.5502  0.2082 -0.5430
  138SOL    HW1  550   0.420   0.566   1.098  0.6765 -0.5676 -0.7134
  138SOL    HW2  551   0.542   0.545   1.017 -0.5174  0.9425  1.3931
  138SOL     MW  552   0.497   0.588   1.073  0.4260  0.2027 -0.3101
  139SOL     OW  553   2.857   0.494   1.350  0.0571 -0.2409 -0.6690
  139SOL    HW1  554   2.952   0.464   1.352  1.9297 -1.3393  0.4089
  139SOL    HW2  555   2.845   0.542   1.434 -1.4521 -0.6338 -0.5493
  139SOL     MW  556   2.868   0.497   1.361  0.1050 -0.4377 -0.5110
  140SOL     OW  557   0.902   0.495   1.963  0.3677 -0.3497 -0.7415
  140SOL    HW1  558   0.976   0.437   1.970  1.3328  2.0325 -0.2412
  140SOL    HW2  559   0.851   0.483   2.043 -1.6886  0.0419  1.0002
  140SOL     MW  560   0.905   0.486   1.975  0.2237  0.0163 -0.4457
  141SOL     OW  561   1.115   0.651   1.706 -0.1477  0.4057  0.5718
  141SOL    HW1  562   1.121   0.571   1.649  1.1601  0.8990  0.2656
  141SOL    HW2  563   1.124   0.616   1.790  1.2741  0.3688  1.1100
  141SOL     MW  564   1.117   0.636   1.710  0.2124  0.4659  0.6024
  142SOL     OW  565   0.848   1.177   0.760 -0.6246 -0.5923  0.1982
  142SOL    HW1  566   0.892   1.119   0.692  0.4453  0.4996  1.7763
  142SOL    HW2  567   0.923   1.239   0.775  1.9555  1.1889  1.1363
  142SOL     MW  568   0.863   1.177   0.753 -0.1430 -0.2132  0.5302
  143SOL     OW  569   1.838   0.726   1.058  0.1568  0.0250 -0.2331
  143SOL    HW1  570   1.896   0.663   1.008 -0.0911 -0.1445  0.6689
  143SOL    HW2  571   1.747   0.701   1.039 -2.0407 -0.3503  0.1633
  143SOL     MW  572   1.834   0.715   1.049 -0.1659 -0.0469 -0.0618
  144SOL     OW  573   0.245   1.323   1.761 -0.1451  0.2534 -0.1215
  144SOL    HW1  574   0.312   1.394   1.742 -1.4146 -1.2645  1.7202
  144SOL    HW2  575   0.280   1.259   1.822  2.1682  0.4943 -0.3794
  144SOL     MW  576   0.259   1.324   1.766 -0.0074  0.0849  0.0875
  145SOL     OW  577   0.229   0.493   1.180 -0.0103 -0.2081 -0.1172
  145SOL    HW1  578   0.237   0.398   1.195  0.9846  2.6331 -0.2722
  145SOL    HW2  579   0.146   0.494   1.128 -2.6218  0.3396 -0.6315
  145SOL     MW  580   0.219   0.480   1.175 -0.2236  0.2390 -0.2055
  146SOL     OW  581   0.796   1.963   1.540 -0.2389  0.2624  0.4077
  146SOL    HW1  582   0.846   1.982   1.465  2.6064  0.4939  1.8567
  146SOL    HW2  583   0.732   1.897   1.500 -0.3464 -0.4031 -2.0945
  146SOL     MW  584   0.794   1.957   1.525  0.1223  0.2051  0.2688
  147SOL     OW  585   0.433   0.528   3.004 -0.1954  0.2644  0.2613
  147SOL    HW1  586   0.351   0.541   3.052 -1.5115 -1.4072 -1.1405
  147SOL    HW2  587   0.424   0.597   2.935  2.5508 -0.2188 -1.3290
  147SOL     MW  588   0.421   0.539   3.001 -0.0067 -0.0199 -0.1334
  148SOL     OW  589   0.014   0.887   1.316 -0.3104 -0.5325 -0.2200
  148SOL    HW1  590   0.110   0.887   1.314 -0.2151 -1.0351  0.8599
  148SOL    HW2  591  -0.006   0.976   1.290  1.1501  1.5512  0.3121
  148SOL     MW  592   0.024   0.899   1.312 -0.1051 -0.3239 -0.0073
  149SOL     OW  593   1.540   1.206   1.441 -0.2495  0.5513 -0.4861
  149SOL    HW1  594   1.467   1.194   1.511 -1.5192 -0.9844  3.8948
  149SOL    HW2  595   1.535   1.296   1.408 -2.1011  1.7675  1.6037
  149SOL     MW  596   1.530   1.216   1.446 -0.6614  0.5091  0.3677
  150SOL     OW  597   1.713   1.457   0.876 -0.6140  0.1384  0.1449
  150SOL    HW1  598   1.761   1.380   0.901  2.1657  1.5661  0.0146
  150SOL    HW2  599   1.778   1.524   0.877  0.8838 -0.7357  3.1354
  150SOL     MW  600   1.728   1.456   0.880 -0.0496  0.2114  0.5223
  151SOL     OW  601   1.597   1.869   0.828 -0.2979 -0.7249 -0.3538
  151SOL    HW1  602   1.561   1.853   0.738 -1.0036 -0.3105  0.1369
  151SOL    HW2  603   1.537   1.813   0.882 -1.9191 -1.4333 -1.7945
  151SOL     MW  604   1.584   1.859   0.823 -0.6049 -0.7637 -0.4792
  152SOL     OW  605   0.654   1.415   1.595  0.1541  0.4085  0.1369
  152SOL    HW1  606   0.721   1.445   1.535 -3.8979 -3.1311 -0.1616
  152SOL    HW2  607   0.600   1.349   1.544  0.5288 -0.1354 -1.4953
  152SOL     MW  608   0.656   1.410   1.581 -0.3311 -0.1302 -0.1179
  153SOL     OW  609   2.608   1.218   0.725  0.3874 -0.3740  0.4495
  153SOL    HW1  610   2.695   1.181   0.712 -0.9587 -0.7486 -2.6181
  153SOL    HW2  611   2.539   1.153   0.716 -1.6322 -1.9866 -1.5828
  153SOL     MW  612   2.610   1.205   0.722 -0.0566 -0.6362 -0.2234
  154SOL     OW  613   0.127   1.782   1.756 -0.1609  0.1262  0.2286
  154SOL    HW1  614   0.098   1.679   1.746  0.2602 -1.5028 -1.4366
  154SOL    HW2  615   0.227   1.783   1.773  0.4903  1.2597 -0.1856
  154SOL     MW  616   0.136   1.769   1.757 -0.0194  0.0608 -0.0457
  155SOL     OW  617   1.169   0.687   0.293 -0.3376 -0.0325  0.0906
  155SOL    HW1  618   1.175   0.657   0.384 -3.1914  2.2400 -4.1182
  155SOL    HW2  619   1.151   0.784   0.304 -3.5004  2.3654  0.4684
  155SOL     MW  620   1.167   0.696   0.307 -1.1315  0.5837 -0.4149
  156SOL     OW  621   1.564   0.012   1.101  0.3507 -0.1097 -0.3150
  156SOL    HW1  622   1.592   0.068   1.177  0.3977  1.2212  3.7162
  156SOL    HW2  623   1.600  -0.079   1.122 -0.5163  0.7266 -0.0106
  156SOL     MW  624   1.573   0.007   1.114  0.2425  0.1762  0.2571
  157SOL     OW  625   1.260   1.147   0.168 -0.6370  0.2712 -0.6412
  157SOL    HW1  626   1.275   1.051   0.188 -0.4077 -0.3768  0.7946
  157SOL    HW2  627   1.347   1.179   0.187  1.9539 -2.0886 -0.9634
  157SOL     MW  628   1.274   1.138   0.173 -0.2649 -0.1256 -0.4943
  158SOL     OW  629   0.370   1.651   2.302 -0.4709  0.0435  0.7719
  158SOL    HW1  630   0.368   1.717   2.232 -1.5822 -2.0895 -2.7653
  158SOL    HW2  631   0.281   1.666   2.331 -0.8401  0.1868  2.6953
  158SOL     MW  632   0.358   1.662   2.297 -0.6662 -0.2190  0.5590
  159SOL     OW  633   1.208   1.719   0.504  0.0351  0.3033 -0.2625
  159SOL    HW1  634   1.156   1.687   0.431  1.7994  0.1519 -2.0037
  159SOL    HW2  635   1.149   1.767   0.558  0.3938 -1.0951 -1.6566
  159SOL     MW  636   1.194   1.721   0.501  0.3152  0.0989 -0.6761
  160SOL     OW  637   0.490   1.149   1.534 -0.3123  0.5043 -0.4401
  160SOL    HW1  638   0.435   1.074   1.572 -0.4632 -0.7475  5.0219
  160SOL    HW2  639   0.584   1.127   1.543  0.7339 -2.9717  1.1708
  160SOL     MW  640   0.495   1.136   1.540 -0.1942 -0.1195  0.4931
  161SOL     OW  641   0.486   2.303   2.673  0.4969  0.1392 -0.2198
  161SOL    HW1  642   0.394   2.318   2.647 -2.0339  2.8902 -2.5592
  161SOL    HW2  643   0.504   2.221   2.630 -2.5294  2.1204 -2.4890
  161SOL     MW  644   0.476   2.294   2.664 -0.2363  0.7635 -0.8279
  162SOL     OW  645   1.092   1.802   1.818  0.6240  0.3000  0.3043
  162SOL    HW1  646   1.069   1.884   1.867 -0.2029  0.8934  0.6444
  162SOL    HW2  647   1.016   1.744   1.846 -1.7630 -1.1550  3.0446
  162SOL     MW  648   1.079   1.805   1.828  0.1999  0.1863  0.7108
  163SOL     OW  649   2.135   3.042   0.806  0.1258 -0.2277  0.0195
  163SOL    HW1  650   2.092   3.112   0.756 -1.3991 -0.3605  0.4018
  163SOL    HW2  651   2.071   2.970   0.808 -1.7208 -2.2687 -0.6781
  163SOL     MW  652   2.121   3.042   0.799 -0.3191 -0.5145 -0.0221
  164SOL     OW  653   0.231   0.248   0.809 -0.5940 -0.5127 -0.6056
  164SOL    HW1  654   0.141   0.226   0.853 -1.0073  0.1863 -0.5329
  164SOL    HW2  655   0.259   0.172   0.758 -1.3036 -1.0033 -1.7040
  164SOL     MW  656   0.223   0.235   0.809 -0.7422 -0.4852 -0.7409
  165SOL     OW  657   1.156   1.286   0.373 -0.3088  0.1592  0.1673
  165SOL    HW1  658   1.195   1.253   0.447 -3.4812  0.7265 -1.5259
  165SOL    HW2  659   1.199   1.235   0.298  3.6146  1.1717 -1.6790
  165SOL     MW  660   1.167   1.275   0.373 -0.2097  0.3677 -0.2997
  166SOL     OW  661   0.355   1.147   1.054 -0.6235  0.8496  0.3331
  166SOL    HW1  662   0.357   1.198   1.136  1.3553 -0.2406  3.2504
  166SOL    HW2  663   0.438   1.110   1.044 -0.5854  2.9631 -0.3681
  166SOL     MW  664   0.366   1.149   1.063 -0.3574  0.9846  0.6255
  167SOL     OW  665   0.803   1.179   0.385 -0.6939 -0.6747  0.4139
  167SOL    HW1  666   0.851   1.268   0.379  0.8252  0.4721  0.9761
  167SOL    HW2  667   0.837   1.148   0.301  0.8130  0.6436  1.8321
  167SOL     MW  668   0.814   1.187   0.373 -0.2947 -0.3495  0.6752
  168SOL     OW  669   1.699   1.624   3.036 -0.6323  0.3304  0.5003
  168SOL    HW1  670   1.643   1.705   3.031 -2.1576  0.7562 -1.1760
  168SOL    HW2  671   1.647   1.552   2.996 -1.0933  0.7197  0.1684
  168SOL     MW  672   1.685   1.625   3.030 -0.8944  0.4379  0.2354
  169SOL     OW  673   0.301   0.937   1.341  0.2359 -0.4649  0.1925
  169SOL    HW1  674   0.323   0.899   1.423 -0.6988 -3.0771 -0.0393
  169SOL    HW2  675   0.297   1.028   1.344 -1.3617 -1.2789  2.6631
  169SOL     MW  676   0.303   0.944   1.352 -0.0982 -0.9170  0.4879
  170SOL     OW  677   1.104   1.557   1.460 -0.3644  0.7077  0.0300
  170SOL    HW1  678   1.078   1.646   1.482 -0.3982  1.3701  1.5334
  170SOL    HW2  679   1.075   1.538   1.373  0.8113 -1.8548 -0.4901
  170SOL     MW  680   1.096   1.566   1.452 -0.2137  0.4570  0.1598
  171SOL     OW  681   0.481   1.506   0.524  0.2245  0.4936 -0.5346
  171SOL    HW1  682   0.394   1.531   0.523  1.6984 -0.9767  1.2686
  171SOL    HW2  683   0.501   1.425   0.479  1.5449  1.7135  2.4476
  171SOL     MW  684   0.472   1.499   0.518  0.5932  0.4606  0.0968
  172SOL     OW  685   0.760   0.294   1.274  0.4223 -0.0526  0.1830
  172SOL    HW1  686   0.740   0.250   1.188 -1.7665 -0.9173 -2.8208
  172SOL    HW2  687   0.809   0.213   1.304 -0.3992 -0.2191  0.0227
  172SOL     MW  688   0.764   0.277   1.266  0.0251 -0.1887 -0.2345
  173SOL     OW  689   0.500   1.771   0.315  0.0677 -0.0431 -0.5308
  173SOL    HW1  690   0.499   1.672   0.297 -0.5836 -2.1675 -0.6256
  173SOL    HW2  691   0.533   1.788   0.402  0.7002 -0.0745 -0.2803
  173SOL     MW  692   0.504   1.760   0.324  0.0652 -0.3276 -0.5103
  174SOL     OW  693   1.913   0.887   1.513  0.1639  0.0006  0.1128
  174SOL    HW1  694   1.846   0.827   1.549 -0.3915  0.6249 -0.5338
  174SOL    HW2  695   1.922   0.860   1.424 -0.9166 -1.2162 -2.2513
  174SOL     MW  696   1.905   0.876   1.506 -0.0520 -0.0776 -0.2844
  175SOL     OW  697   0.599   1.478   0.224 -0.1850  0.2479 -0.1298
  175SOL    HW1  698   0.540   1.410   0.254 -0.7702  2.7687  1.5061
  175SOL    HW2  699   0.692   1.456   0.235  0.7669  0.0529  0.8761
  175SOL     MW  700   0.603   1.466   0.229 -0.1366  0.5548  0.2187
  176SOL     OW  701   0.099   1.506   1.230 -0.6692  0.0068  0.0998
  176SOL    HW1  702   0.119   1.483   1.137  1.1399 -0.3893 -0.1092
  176SOL    HW2  703   0.017   1.464   1.243  1.0284 -2.4807 -0.8196
  176SOL     MW  704   0.091   1.497   1.220 -0.2065 -0.3736 -0.0491
  177SOL     OW  705   0.506   0.258   1.424  0.4152  0.3387  0.0390
  177SOL    HW1  706   0.582   0.284   1.373 -0.9037  0.6205 -2.7720
  177SOL    HW2  707   0.500   0.336   1.479 -1.1077  0.6531 -0.4780
  177SOL     MW  708   0.515   0.272   1.424  0.0403  0.4174 -0.4001
  178SOL     OW  709   3.098   0.599   2.956  0.4931  0.7744 -0.6341
  178SOL    HW1  710   3.034   0.561   3.007  2.7708  4.3277  0.8710
  178SOL    HW2  711   3.046   0.617   2.882  2.0960  0.2826  3.1754
  178SOL     MW  712   3.082   0.596   2.953  1.0051  1.1784  0.0671
  179SOL     OW  713   1.560   1.484   1.375  0.1238 -0.2278 -0.0655
  179SOL    HW1  714   1.588   1.493   1.468  0.0310 -1.2635 -0.8693
  179SOL    HW2  715   1.650   1.462   1.337 -1.5307  0.3043 -2.4505
  179SOL     MW  716   1.576   1.482   1.382 -0.1068 -0.2943 -0.4862
  180SOL     OW  717   0.040   0.246   0.424  0.6426 -0.6107  0.4727
  180SOL    HW1  718  -0.038   0.274   0.371 -0.1519 -0.0358 -0.6670
  180SOL    HW2  719   0.061   0.334   0.453  1.3655  0.9453 -0.4868
  180SOL     MW  720   0.033   0.262   0.421  0.6331 -0.3295  0.1957
  181SOL     OW  721   1.080   1.335   0.039  0.5490  0.1183  0.3593
  181SOL    HW1  722   1.164   1.354   0.074 -0.9494 -3.3397  2.6258
  181SOL    HW2  723   1.102   1.298  -0.044 -1.4633 -2.2525 -0.1912
  181SOL     MW  724   1.094   1.332   0.032  0.0858 -0.6508  0.5857
  182SOL     OW  725   0.358   0.874   1.613 -0.0157  0.6961 -0.1338
  182SOL    HW1  726   0.272   0.883   1.658  0.9203  0.1765 -0.0628
  182SOL    HW2  727   0.409   0.850   1.687 -2.6617 -0.3453  1.5306
  182SOL     MW  728   0.353   0.872   1.629 -0.2413  0.4901  0.0952
  183SOL     OW  729   1.545   1.744   1.282  0.0171 -0.0736 -0.0561
  183SOL    HW1  730   1.638   1.750   1.278 -1.3399 -2.8033 -0.7727
  183SOL    HW2  731   1.529   1.649   1.316 -0.6022 -0.3429  2.0360
  183SOL     MW  732   1.555   1.732   1.286 -0.2437 -0.4693  0.1254
  184SOL     OW  733   0.835   0.627   1.729  0.4799  0.2128 -0.7219
  184SOL    HW1  734   0.930   0.646   1.715 -1.1445  0.5431  0.3431
  184SOL    HW2  735   0.837   0.564   1.802  1.8581  0.6331 -0.7355
  184SOL     MW  736   0.848   0.621   1.737  0.4474  0.3119 -0.5832
  185SOL     OW  737   1.089   0.966   1.876 -0.6674 -0.0793  0.0635
  185SOL    HW1  738   1.061   0.874   1.905  0.9343  0.1898 -1.0777
  185SOL    HW2  739   1.142   1.002   1.945  2.1457  1.0063 -1.9704
  185SOL     MW  740   1.093   0.959   1.889 -0.0849  0.0995 -0.3554
  186SOL     OW  741   0.255   1.617   1.532  0.1416  0.3756 -0.1514
  186SOL    HW1  742   0.264   1.595   1.438  0.4011  0.1155  0.8760
  186SOL    HW2  743   0.168   1.582   1.560  0.9686  1.7029  1.3238
  186SOL     MW  744   0.245   1.610   1.523  0.2850  0.5164  0.1788
  187SOL     OW  745   1.410   0.817   1.349 -0.1372  0.6473  0.5987
  187SOL    HW1  746   1.451   0.828   1.437  0.5753  0.6663 -0.0444
  187SOL    HW2  747   1.320   0.826   1.381 -0.3098 -0.8484 -0.1732
  187SOL     MW  748   1.403   0.820   1.365 -0.0660  0.4525  0.4120
  188SOL     OW  749   1.847   1.226   0.931  0.3027 -0.2974 -0.0858
  188SOL    HW1  750   1.896   1.229   1.016  0.1243  0.0777 -0.1525
  188SOL    HW2  751   1.836   1.133   0.921  0.2493 -1.7473  0.6282
  188SOL     MW  752   1.852   1.214   0.941  0.2721 -0.4392 -0.0004
  189SOL     OW  753   0.725   0.716   0.852 -0.0239 -0.1071  0.0489
  189SOL    HW1  754   0.646   0.764   0.856  1.9136 -1.4556 -1.1607
  189SOL    HW2  755   0.770   0.746   0.933  0.0273 -0.5610  2.1101
  189SOL     MW  756   0.721   0.726   0.864  0.2385 -0.3449  0.1613
  190SOL     OW  757   1.876   0.271   2.044  0.2685  0.4963 -0.3546
  190SOL    HW1  758   1.902   0.227   2.127 -1.6187 -1.8168  2.0197
  190SOL    HW2  759   1.955   0.317   2.016  0.3499  0.6285  0.7481
  190SOL     MW  760   1.890   0.271   2.051  0.0302  0.2085  0.1041
  191SOL     OW  761   1.533   1.039   1.228 -0.6367  0.4324 -0.0614
  191SOL    HW1  762   1.537   1.099   1.307 -1.8836  2.7605  0.9647
  191SOL    HW2  763   1.489   0.962   1.262 -1.7277  1.2386  1.2915
  191SOL     MW  764   1.528   1.036   1.243 -0.9452  0.8459  0.2525
  192SOL     OW  765   0.506   2.197   2.952 -0.3985 -0.0641 -0.0110
  192SOL    HW1  766   0.471   2.271   2.903  0.3051  1.2225 -0.6226
  192SOL    HW2  767   0.482   2.126   2.890 -0.3727  0.5332  0.9390
  192SOL     MW  768   0.498   2.197   2.938 -0.3023  0.1845  0.0337
  193SOL     OW  769   0.837   1.656   0.792  0.0508  0.7148 -0.2507
  193SOL    HW1  770   0.742   1.656   0.825 -3.3517  1.2137  0.7066
  193SOL    HW2  771   0.823   1.586   0.736  3.2644  2.5529  1.6458
  193SOL     MW  772   0.823   1.647   0.789  0.0259  1.0231  0.1258
  194SOL     OW  773   0.383   1.341   0.839 -0.1873 -0.1908 -0.4260
  194SOL    HW1  774   0.362   1.293   0.914 -0.2458 -1.8222  0.1364
  194SOL    HW2  775   0.301   1.378   0.807  0.7105 -1.4193 -0.5763
  194SOL     MW  776   0.370   1.339   0.845 -0.0766 -0.5682 -0.3717
  195SOL     OW  777   1.221   1.119   3.002  0.5524  0.1473 -0.3412
  195SOL    HW1  778   1.260   1.120   3.090  2.8627 -2.3320 -0.8164
  195SOL    HW2  779   1.142   1.059   3.011 -4.1404 -0.0579 -3.1764
  195SOL     MW  780   1.216   1.111   3.015  0.2381 -0.2069 -0.7779
  196SOL     OW  781   2.247   0.994   0.519 -0.1487 -0.6800  0.4723
  196SOL    HW1  782   2.303   0.972   0.448  1.7266  1.5057 -0.6942
  196SOL    HW2  783   2.229   1.085   0.508  1.1445 -1.8025 -3.7304
  196SOL     MW  784   2.252   1.003   0.508  0.2694 -0.5397 -0.2361
  197SOL     OW  785   0.614   1.330   2.175 -0.0012 -0.6062  0.4436
  197SOL    HW1  786   0.639   1.253   2.125  0.4998 -0.5214 -2.3442
  197SOL    HW2  787   0.653   1.401   2.124  0.0519  2.0149 -0.7938
  197SOL     MW  788   0.622   1.329   2.162  0.0719 -0.2492 -0.0875
  198SOL     OW  789   2.923   1.411   1.015 -0.0854  0.1059 -0.1170
  198SOL    HW1  790   2.907   1.505   0.985 -3.1364 -1.4038 -0.6276
  198SOL    HW2  791   2.842   1.354   0.988  0.0066  0.7266  2.2148
  198SOL     MW  792   2.910   1.416   1.007 -0.4758 -0.0114  0.1233
  199SOL     OW  793   0.653   1.250   1.808 -0.3042 -0.6291  0.1009
  199SOL    HW1  794   0.557   1.239   1.822  1.6918  0.4322  0.8792
  199SOL    HW2  795   0.658   1.333   1.750  0.0287  2.4210  1.9106
  199SOL     MW  796   0.641   1.259   1.802  0.0031 -0.0866  0.4424
  200SOL     OW  797   1.841   2.966   1.287  0.1245 -0.0186  0.1838
  200SOL    HW1  798   1.894   2.980   1.204  2.7860  0.2872  0.5922
  200SOL    HW2  799   1.802   3.049   1.295  2.1470 -1.5220 -0.4395
  200SOL     MW  800   1.843   2.979   1.277  0.7425 -0.1766  0.1555
  201SOL     OW  801   1.182   0.295   0.850 -0.2420 -0.0337  0.3877
  201SOL    HW1  802   1.155   0.212   0.817  2.1408  0.9776 -0.3735
  201SOL    HW2  803   1.277   0.293   0.834  1.0552 -1.3565  1.1728
  201SOL     MW  804   1.191   0.284   0.844  0.2435 -0.0748  0.3909
  202SOL     OW  805   1.466   1.723   1.011 -0.3578 -0.4237 -0.2519
  202SOL    HW1  806   1.482   1.623   1.012  0.3328 -1.0845 -1.3803
  202SOL    HW2  807   1.506   1.750   1.095  0.4150 -1.7828  2.0445
  202SOL     MW  808   1.474   1.713   1.022 -0.1647 -0.6902 -0.0978
  203SOL     OW  809   0.012   0.406   1.337  0.4106  0.3235  0.5645
  203SOL    HW1  810   0.022   0.313   1.342 -1.2576  2.4781 -2.9892
  203SOL    HW2  811   0.099   0.434   1.304 -0.2492  1.4481 -1.5337
  203SOL     MW  812   0.025   0.398   1.333  0.1034  0.7561 -0.1812
  204SOL     OW  813   1.003   1.842   0.656 -0.1661  0.1135 -0.1477
  204SOL    HW1  814   0.985   1.771   0.720  0.5158  0.7517  1.9270
  204SOL    HW2  815   0.922   1.849   0.602 -1.7902 -0.0581  0.6323
  204SOL     MW  816   0.990   1.833   0.658 -0.2905  0.1750  0.2289
  205SOL     OW  817   1.404   3.009   1.296 -0.7968  0.1716  0.8081
  205SOL    HW1  818   1.423   3.032   1.208 -0.8572 -0.8178  0.6296
  205SOL    HW2  819   1.357   3.085   1.329  1.6185  0.8190  0.0047
  205SOL     MW  820   1.400   3.022   1.289 -0.4861  0.1264  0.6786
  206SOL     OW  821   0.368   2.895   1.365 -0.3519 -0.8631  0.3658
  206SOL    HW1  822   0.358   2.908   1.272  1.4587  0.5922  0.3763
  206SOL    HW2  823   0.460   2.884   1.374  0.2463  1.0572  1.0777
  206SOL     MW  824   0.379   2.896   1.354 -0.0341 -0.4177  0.4611
  207SOL     OW  825   0.872   1.741   0.220 -0.3443 -0.4222  0.2973
  207SOL    HW1  826   0.952   1.782   0.179 -0.7078 -0.3659 -2.6449
  207SOL    HW2  827   0.893   1.657   0.257 -3.2366 -1.8163  0.1220
  207SOL     MW  828   0.885   1.735   0.219 -0.7738 -0.5987 -0.1140
  208SOL     OW  829   0.792   1.522   1.353  0.1039 -0.3523  0.4553
  208SOL    HW1  830   0.870   1.543   1.296 -0.8970 -1.7519  3.3293
  208SOL    HW2  831   0.755   1.444   1.304  0.1030 -0.6642 -2.4431
  208SOL     MW  832   0.797   1.514   1.339 -0.0283 -0.5781  0.4521
  209SOL     OW  833   1.617   0.474   2.826 -0.5547  0.0065  0.3035
  209SOL    HW1  834   1.653   0.559   2.833  1.4668 -0.0196 -0.9337
  209SOL    HW2  835   1.684   0.422   2.780 -1.4363  0.7451 -3.5815
  209SOL     MW  836   1.631   0.478   2.821 -0.4043  0.1005 -0.3723
  210SOL     OW  837   1.470   1.414   0.980 -0.6125  0.0343 -0.7253
  210SOL    HW1  838   1.555   1.414   0.941 -1.4444 -1.9583  0.3111
  210SOL    HW2  839   1.418   1.426   0.901 -0.3313  0.2254 -0.6504
  210SOL     MW  840   1.475   1.415   0.964 -0.6851 -0.2034 -0.5787
  211SOL     OW  841   1.748   0.479   0.897  0.0908 -0.3015 -0.3780
  211SOL    HW1  842   1.739   0.449   0.811  1.7266  0.0957  1.1086
  211SOL    HW2  843   1.834   0.460   0.932 -3.3708  0.2248 -1.5260
  211SOL     MW  844   1.758   0.472   0.890 -0.1501 -0.1797 -0.3334
  212SOL     OW  845   0.388   1.203   0.207  0.3942  0.2662  0.5492
  212SOL    HW1  846   0.330   1.126   0.206  4.6960  0.5779 -1.3953
  212SOL    HW2  847   0.465   1.164   0.157 -0.8495  1.0483  0.3014
  212SOL     MW  848   0.391   1.188   0.201  0.7977  0.4105  0.2600
  213SOL     OW  849   0.418   1.793   3.040  0.3607 -0.6175  0.6422
  213SOL    HW1  850   0.480   1.851   3.085  0.9400 -0.4062 -0.9156
  213SOL    HW2  851   0.443   1.827   2.950  0.5158 -1.1526 -1.7843
  213SOL     MW  852   0.429   1.805   3.034  0.4576 -0.6602  0.1165
  214SOL     OW  853   0.573   0.355   2.117 -0.3984  0.7842  0.3053
  214SOL    HW1  854   0.487   0.405   2.120  1.5750 -0.2243  1.3559
  214SOL    HW2  855   0.572   0.320   2.022  1.9356 -0.0619 -1.3687
  214SOL     MW  856   0.562   0.357   2.105  0.1699  0.5395  0.2231
  215SOL     OW  857   0.500   0.492   2.490  0.5816  1.0950 -0.3466
  215SOL    HW1  858   0.472   0.558   2.426  1.7144 -0.0910  0.0185
  215SOL    HW2  859   0.438   0.427   2.458  0.5884 -0.8171  3.0595
  215SOL     MW  860   0.488   0.492   2.477  0.7319  0.6862  0.1510
  216SOL     OW  861   2.918   3.095   2.834  0.0765  0.1421  0.5482
  216SOL    HW1  862   2.839   3.044   2.841 -0.3590 -1.0380  1.8351
  216SOL    HW2  863   2.912   3.150   2.761 -1.2757 -0.6368  3.4547
  216SOL     MW  864   2.907   3.096   2.825 -0.1593 -0.1164  1.1015
  217SOL     OW  865   0.946   1.094   0.151 -0.0544 -0.1754 -0.0921
  217SOL    HW1  866   0.963   1.019   0.093  0.3814  1.7697  0.1011
  217SOL    HW2  867   1.010   1.153   0.118  1.1022  0.9059 -1.1447
  217SOL     MW  868   0.957   1.092   0.139  0.1557  0.2239 -0.2055
  218SOL     OW  869   0.840   1.373   2.611 -0.7965  0.2994 -0.1781
  218SOL    HW1  870   0.820   1.304   2.673  2.5306  2.9411  1.8428
  218SOL    HW2  871   0.926   1.404   2.643  0.8470  0.6978 -1.1429
  218SOL     MW  872   0.849   1.368   2.623 -0.1407  0.7005 -0.0388
  219SOL     OW  873   1.038   0.474   2.566  0.2643  0.2322 -0.4054
  219SOL    HW1  874   1.112   0.526   2.611 -1.1529 -2.1026 -1.3798
  219SOL    HW2  875   0.970   0.535   2.539  0.4488 -0.6628 -2.0933
  219SOL     MW  876   1.039   0.489   2.568  0.1016 -0.1940 -0.7566
  220SOL     OW  877   1.687   0.502   2.208 -0.5427 -0.4983  0.6833
  220SOL    HW1  878   1.621   0.571   2.189 -0.2128 -0.0415 -0.2087
  220SOL    HW2  879   1.669   0.431   2.149  1.0251 -0.6248 -0.9276
  220SOL     MW  880   1.676   0.501   2.198 -0.2923 -0.4547  0.3530
  221SOL     OW  881   0.375   1.382   2.947 -0.3128 -0.0750  0.2031
  221SOL    HW1  882   0.417   1.296   2.920 -1.4700 -2.1587 -0.3461
  221SOL    HW2  883   0.453   1.444   2.972  1.1788  1.3341 -2.2451
  221SOL     MW  884   0.390   1.379   2.947 -0.2687 -0.1640 -0.1924
  222SOL     OW  885   0.521   0.912   2.734 -0.1851  0.0133 -0.0985
  222SOL    HW1  886   0.432   0.884   2.759 -0.3597  0.9193  1.0550
  222SOL    HW2  887   0.563   0.823   2.717  0.9691 -0.2960  0.6231
  222SOL     MW  888   0.515   0.897   2.735 -0.0559  0.0920  0.1489
  223SOL     OW  889   3.043   2.030   2.509 -0.9301  0.2635 -0.0967
  223SOL    HW1  890   3.019   1.979   2.586  0.0193  2.7960  0.0866
  223SOL    HW2  891   3.096   2.103   2.541 -2.2238  0.4155 -2.1000
  223SOL     MW  892   3.047   2.033   2.523 -0.9755  0.6177 -0.3368
  224SOL     OW  893   1.469   0.649   2.422 -0.1561 -0.0737 -0.0771
  224SOL    HW1  894   1.549   0.599   2.459  0.4983 -1.5935  1.2133
  224SOL    HW2  895   1.481   0.731   2.464  0.5506 -1.2002 -1.4419
  224SOL     MW  896   1.481   0.653   2.432  0.0235 -0.4228 -0.0869
  225SOL     OW  897   2.942   1.497   2.192  0.0477  0.0855 -0.5411
  225SOL    HW1  898   2.995   1.577   2.166 -1.9837  0.3626 -1.9036
  225SOL    HW2  899   2.863   1.518   2.241 -0.7150  1.3046 -2.3007
  225SOL     MW  900   2.939   1.510   2.195 -0.3210  0.2829 -0.9531
  226SOL     OW  901   0.453   1.569   2.694  0.2227  0.0847 -0.1243
  226SOL    HW1  902   0.537   1.590   2.654 -0.0018 -1.7774 -1.8221
  226SOL    HW2  903   0.399   1.649   2.685 -0.4447 -1.7547  2.4126
  226SOL     MW  904   0.457   1.582   2.687  0.1050 -0.4037 -0.0136
  227SOL     OW  905   0.524   1.149   2.878  0.7022  0.2042 -0.2398
  227SOL    HW1  906   0.615   1.162   2.848 -0.7313  0.4877  1.1120
  227SOL    HW2  907   0.499   1.063   2.852  0.7154 -1.9294  0.7846
  227SOL     MW  908   0.533   1.139   2.870  0.5148 -0.0399  0.0737
  228SOL     OW  909   0.781   1.099   2.024  0.4140 -0.0770 -0.2321
  228SOL    HW1  910   0.746   1.152   1.959 -1.4295 -0.9260  1.1701
  228SOL    HW2  911   0.851   1.148   2.065  2.6675 -1.1866 -0.3493
  228SOL     MW  912   0.785   1.112   2.021  0.4681 -0.3354 -0.0626
  229SOL     OW  913   0.200   0.552   0.033 -0.5902 -0.1348 -0.3760
  229SOL    HW1  914   0.146   0.542  -0.050 -0.2730  2.9986  1.3501
  229SOL    HW2  915   0.229   0.464   0.069 -1.2550  0.0834  1.0780
  229SOL     MW  916   0.197   0.539   0.027 -0.6361  0.3074  0.0436
  230SOL     OW  917   1.753   1.353   2.122  0.5025 -0.5992  0.5558
  230SOL    HW1  918   1.716   1.359   2.212 -2.6913  1.4025  1.2204
  230SOL    HW2  919   1.811   1.273   2.114  4.0168  0.8163  1.4003
  230SOL     MW  920   1.755   1.344   2.133  0.5448 -0.1484  0.7549
  231SOL     OW  921   2.726   1.287   2.217 -0.2402 -0.3466  0.5477
  231SOL    HW1  922   2.796   1.345   2.191  0.0998 -1.2370 -0.8353
  231SOL    HW2  923   2.673   1.295   2.135  0.5133  3.2069 -3.0980
  231SOL     MW  924   2.728   1.296   2.203 -0.0959  0.0048 -0.1158
  232SOL     OW  925   2.289   0.885   1.961 -0.1772 -0.1589  0.8467
  232SOL    HW1  926   2.202   0.925   1.936 -1.5176 -2.1793 -3.3653
  232SOL    HW2  927   2.260   0.821   2.030 -1.3381  1.1435  0.0245
  232SOL     MW  928   2.273   0.882   1.967 -0.5072 -0.2537  0.1825
  233SOL     OW  929   2.102   0.444   2.055  0.2260 -0.0240  0.5516
  233SOL    HW1  930   2.158   0.374   2.041 -2.6010  2.4258  0.7801
  233SOL    HW2  931   2.106   0.458   2.146 -1.8387 -1.7760 -2.1929
  233SOL     MW  932   2.110   0.436   2.065 -0.4194  0.0681  0.2197
  234SOL     OW  933   0.258   1.053   2.651  0.4634 -0.0340 -0.6132
  234SOL    HW1  934   0.183   1.057   2.594 -0.3769  2.8021 -0.0477
  234SOL    HW2  935   0.294   1.138   2.654 -2.6694 -1.5655 -1.2440
  234SOL     MW  936   0.253   1.065   2.644 -0.0608  0.1381 -0.6218
  235SOL     OW  937   1.149   0.020   2.831  0.0203  0.1486 -0.5332
  235SOL    HW1  938   1.198   0.032   2.914  0.5307  0.0557 -0.3798
  235SOL    HW2  939   1.111   0.107   2.823 -1.7179  1.5678  0.1813
  235SOL     MW  940   1.151   0.033   2.841 -0.1417  0.3236 -0.4187
  236SOL     OW  941   2.962   0.595   0.174 -0.1980  0.3717  0.1155
  236SOL    HW1  942   2.976   0.628   0.262  0.7795 -0.3856 -0.6875
  236SOL    HW2  943   3.030   0.629   0.115 -2.0215 -1.3598  0.7869
  236SOL     MW  944   2.973   0.604   0.178 -0.3096  0.0433  0.0982
  237SOL     OW  945   1.901   1.099   2.110  0.3543  0.9911  0.0320
  237SOL    HW1  946   1.820   1.039   2.132 -2.1064 -1.6306  0.8973
  237SOL    HW2  947   1.899   1.106   2.014 -2.6906 -0.9921  0.7872
  237SOL     MW  948   1.890   1.092   2.100 -0.3721  0.3835  0.2458
  238SOL     OW  949   1.087   1.718   2.903  0.0289 -0.0228 -0.4688
  238SOL    HW1  950   1.044   1.632   2.921  2.5239  0.8111  2.0639
  238SOL    HW2  951   1.180   1.692   2.900  0.6595 -1.6241 -0.7283
  238SOL     MW  952   1.094   1.703   2.905  0.4413 -0.1241 -0.1689
  239SOL     OW  953   1.173   1.299   2.351 -0.1846 -0.2489  0.0469
  239SOL    HW1  954   1.103   1.363   2.346 -1.8549 -3.9121  2.1847
  239SOL    HW2  955   1.173   1.258   2.438  0.8869  1.6757  1.6081
  239SOL     MW  956   1.164   1.302   2.362 -0.2636 -0.4783  0.5349
  240SOL     OW  957   0.579   0.851   2.315 -0.3202 -0.6213  0.1365
  240SOL    HW1  958   0.591   0.902   2.397 -0.1656  0.3400 -0.3510
  240SOL    HW2  959   0.659   0.868   2.281 -1.9352 -0.2860  0.7017
  240SOL     MW  960   0.591   0.860   2.321 -0.5129 -0.4502  0.1467
  241SOL     OW  961   0.705   0.454   0.004 -0.5376 -0.0364 -0.2170
  241SOL    HW1  962   0.721   0.526   0.067 -3.4923 -0.3994  1.1374
  241SOL    HW2  963   0.614   0.466  -0.026  3.0906  2.3263  1.8939
  241SOL     MW  964   0.695   0.465   0.009 -0.4487  0.2274  0.2402
  242SOL     OW  965   1.494   1.612   2.297  0.0416 -0.0120 -0.4103
  242SOL    HW1  966   1.453   1.686   2.342  1.1734 -0.2325  2.9672
  242SOL    HW2  967   1.424   1.562   2.261  1.1342  1.4766  1.3054
  242SOL     MW  968   1.479   1.615   2.298  0.3351  0.1553  0.2617
  243SOL     OW  969   0.977   0.252   2.393 -0.4004 -0.1489  0.3580
  243SOL    HW1  970   1.065   0.222   2.366 -2.2212 -1.6562 -0.5922
  243SOL    HW2  971   0.996   0.325   2.458  0.2328 -1.2292  0.2545
  243SOL     MW  972   0.991   0.257   2.398 -0.5571 -0.4903  0.2190
  244SOL     OW  973   0.101   0.787   2.387  0.2078 -0.2321  0.4322
  244SOL    HW1  974   0.083   0.877   2.392  3.4811 -0.7020  1.1452
  244SOL    HW2  975   0.185   0.775   2.341  1.8550  1.2220 -1.2751
  244SOL     MW  976   0.110   0.797   2.382  0.8570 -0.1022  0.3010
  245SOL     OW  977   1.263   0.122   2.413  0.5938 -0.7871 -0.4612
  245SOL    HW1  978   1.345   0.114   2.374 -2.0532  0.9531 -0.6026
  245SOL    HW2  979   1.275   0.077   2.498  1.2603  1.4106 -2.3787
  245SOL     MW  980   1.275   0.115   2.419  0.3325 -0.2675 -0.7328
  246SOL     OW  981   1.186   1.117   2.083 -0.4742 -0.7794 -0.2451
  246SOL    HW1  982   1.117   1.103   2.152 -0.6118 -0.1469  2.1456
  246SOL    HW2  983   1.259   1.079   2.138  1.4832 -1.2552  1.7695
  246SOL     MW  984   1.186   1.110   2.099 -0.2341 -0.7587  0.3361
  247SOL     OW  985   0.770   0.643   0.182  0.2576 -0.4276  0.1024
  247SOL    HW1  986   0.748   0.734   0.155  0.3412  1.5365 -0.3821
  247SOL    HW2  987   0.869   0.630   0.168  2.2990  0.6828 -2.5237
  247SOL     MW  988   0.780   0.653   0.177  0.5380 -0.0220 -0.3080
  248SOL     OW  989   0.321   1.330   2.616  0.6850  0.3342  0.1815
  248SOL    HW1  990   0.350   1.336   2.526  0.3010 -0.9012 -0.5890
  248SOL    HW2  991   0.377   1.390   2.664  1.7692  0.5245 -1.8350
  248SOL     MW  992   0.332   1.339   2.610  0.7774  0.1963 -0.1862
  249SOL     OW  993   3.027   1.925   2.794  0.1629  0.0456  0.0912
  249SOL    HW1  994   2.999   1.839   2.772  0.5559 -0.6887  1.5692
  249SOL    HW2  995   3.076   1.911   2.875 -1.1979 -1.6073  1.4607
  249SOL     MW  996   3.030   1.912   2.802  0.0352 -0.2694  0.4669
  250SOL     OW  997   2.267   0.727   2.186  0.3560 -0.7957  0.3671
  250SOL    HW1  998   2.206   0.666   2.227  1.8267  2.7921 -2.0226
  250SOL    HW2  999   2.359   0.699   2.217  0.4864  0.1853 -0.0443
  250SOL     MW 1000   2.271   0.715   2.195  0.5673 -0.1929 -0.0025
  251SOL     OW 1001   0.171   0.870   2.031  0.0698 -0.2042 -0.2898
  251SOL    HW1 1002   0.127   0.795   2.066  3.8796  1.9306 -0.9692
  251SOL    HW2 1003   0.152   0.880   1.940 -2.3630  3.2753  0.4570
  251SOL     MW 1004   0.163   0.862   2.024  0.2514  0.5365 -0.2809
  252SOL     OW 1005   1.705   1.039   2.883 -0.0470 -0.1802 -0.3492
  252SOL    HW1 1006   1.715   1.072   2.972 -1.3311 -0.0827 -0.4510
  252SOL    HW2 1007   1.790   1.046   2.854 -0.2278 -0.9103  1.8576
  252SOL     MW 1008   1.718   1.045   2.891 -0.2403 -0.2637 -0.0715
  253SOL     OW 1009   1.146   1.678   2.544 -0.2713  0.0713  0.1900
  253SOL    HW1 1010   1.115   1.622   2.466  2.0222 -2.9777 -2.5056
  253SOL    HW2 1011   1.064   1.734   2.560  0.1948 -1.2368 -1.0588
  253SOL     MW 1012   1.131   1.678   2.536  0.0928 -0.5035 -0.3304
  254SOL     OW 1013   0.978   1.056   2.251  0.2796 -0.6050  0.2330
  254SOL    HW1 1014   0.925   0.976   2.230 -3.1403 -0.7292  0.1200
  254SOL    HW2 1015   0.928   1.107   2.318 -0.0575  0.8990  0.2302
  254SOL     MW 1016   0.965   1.052   2.257 -0.2161 -0.4230  0.2178
  255SOL     OW 1017   0.855   2.490   2.142 -0.0639 -0.1925 -0.1343
  255SOL    HW1 1018   0.763   2.466   2.136  1.9972 -0.0713 -3.8446
  255SOL    HW2 1019   0.905   2.430   2.202  2.2057 -1.1919 -0.3380
  255SOL     MW 1020   0.849   2.479   2.149  0.5075 -0.3084 -0.6507
  256SOL     OW 1021   1.343   2.786   3.069  0.3759  0.5607 -0.0146
  256SOL    HW1 1022   1.347   2.693   3.090  1.1911  0.9132 -1.0516
  256SOL    HW2 1023   1.386   2.773   2.985 -1.5366 -1.1542  0.9262
  256SOL     MW 1024   1.349   2.772   3.060  0.2312  0.3809 -0.0273
  257SOL     OW 1025   0.063   1.951   0.067 -0.0243  0.8896 -0.5318
  257SOL    HW1 1026   0.111   1.922   0.144 -2.5940 -2.0466  2.0762
  257SOL    HW2 1027   0.081   1.887  -0.005 -0.8715  2.0056 -2.4193
  257SOL     MW 1028   0.071   1.939   0.068 -0.4751  0.6495 -0.4367
  258SOL     OW 1029   0.688   0.994   2.507  0.3359 -0.4681  0.3865
  258SOL    HW1 1030   0.695   1.075   2.458 -3.8072  0.9740 -1.1102
  258SOL    HW2 1031   0.644   1.001   2.597 -1.0039  0.0417  2.6081
  258SOL     MW 1032   0.683   1.006   2.512 -0.3875 -0.2105  0.4821
  259SOL     OW 1033   0.808   0.422   2.238 -0.2789 -0.7205  0.5236
  259SOL    HW1 1034   0.727   0.372   2.230  1.1819  1.6127  2.4022
  259SOL    HW2 1035   0.867   0.354   2.278 -0.9740 -1.3457  1.3129
  259SOL     MW 1036   0.805   0.407   2.242 -0.1779 -0.4951  0.8756
  260SOL     OW 1037   0.637   0.088   1.609  0.3925 -0.7683  0.2132
  260SOL    HW1 1038   0.569   0.133   1.562  2.9744 -2.5671 -2.2635
  260SOL    HW2 1039   0.718   0.118   1.565 -2.4588 -2.6790  0.3080
  260SOL     MW 1040   0.638   0.098   1.597  0.3569 -1.2577 -0.1010
  261SOL     OW 1041   1.015   0.724   2.009  0.4264  0.2995  0.2152
  261SOL    HW1 1042   1.076   0.706   2.081 -1.2276  3.0075  0.3485
  261SOL    HW2 1043   0.961   0.645   1.987 -3.7443 -0.3427  0.2352
  261SOL     MW 1044   1.016   0.711   2.016 -0.3422  0.5720  0.2354
  262SOL     OW 1045   1.135   0.302   0.133 -0.3415 -0.1752  0.5182
  262SOL    HW1 1046   1.221   0.317   0.086 -0.8089  3.1639  0.3904
  262SOL    HW2 1047   1.081   0.242   0.079 -0.9496  0.7314  0.0859
  262SOL     MW 1048   1.139   0.296   0.120 -0.4834  0.3850  0.4443
  263SOL     OW 1049   0.424  -0.003   2.458 -0.5220  0.1525  0.4005
  263SOL    HW1 1050   0.365   0.043   2.514  1.8530  0.4276  0.5016
  263SOL    HW2 1051   0.447   0.044   2.378 -1.2837  0.5083 -0.3403
  263SOL     MW 1052   0.419   0.009   2.455 -0.3091  0.2357  0.3161
  264SOL     OW 1053   1.555   1.488   1.906  0.1651 -0.5585 -0.0356
  264SOL    HW1 1054   1.471   1.437   1.903 -1.0653  0.3131  0.1741
  264SOL    HW2 1055   1.594   1.459   1.993 -0.9197  1.3374 -0.8627
  264SOL     MW 1056   1.549   1.477   1.917 -0.1404 -0.1933 -0.1171
  265SOL     OW 1057   0.713   2.787   2.308 -0.1009 -0.4036  0.8551
  265SOL    HW1 1058   0.790   2.740   2.274 -1.3523 -1.7781 -0.4576
  265SOL    HW2 1059   0.721   2.778   2.403 -1.3861 -0.3324  1.2305
  265SOL     MW 1060   0.725   2.780   2.316 -0.4356 -0.5755  0.7314
  266SOL     OW 1061   0.819   0.867   2.170  0.1056 -0.1828 -0.1597
  266SOL    HW1 1062   0.795   0.939   2.113  0.4310 -0.0466 -0.7664
  266SOL    HW2 1063   0.874   0.818   2.100  1.4906  0.7011 -1.3915
  266SOL     MW 1064   0.823   0.870   2.153  0.3313 -0.0482 -0.4023
  267SOL     OW 1065   1.382   1.745   2.666  0.2316  0.2552  0.1084
  267SOL    HW1 1066   1.441   1.676   2.637  0.0804  2.7359  0.6436
  267SOL    HW2 1067   1.304   1.738   2.606 -3.5535 -0.2773 -1.2203
  267SOL     MW 1068   1.380   1.735   2.655 -0.2877  0.5122  0.0037
  268SOL     OW 1069   0.111   0.921   1.742 -0.5957  0.1337 -0.3451
  268SOL    HW1 1070   0.035   0.970   1.766  0.5943  1.5140 -0.7062
  268SOL    HW2 1071   0.062   0.846   1.701 -2.9111 -3.0462  0.2688
  268SOL     MW 1072   0.095   0.918   1.739 -0.7442 -0.1037 -0.3117
  269SOL     OW 1073   1.379   1.851   2.381  0.0815 -0.8092  0.5415
  269SOL    HW1 1074   1.412   1.938   2.410 -3.8417  0.8834  2.5367
  269SOL    HW2 1075   1.290   1.859   2.405  1.6017  0.6202  1.5083
  269SOL     MW 1076   1.371   1.864   2.388 -0.2355 -0.3973  0.9323
  270SOL     OW 1077   1.091   0.446   1.515  0.5751  0.2769  0.1714
  270SOL    HW1 1078   1.038   0.370   1.529 -0.8094  1.6322  0.6449
  270SOL    HW2 1079   1.180   0.421   1.517 -3.1052 -2.0545  2.6800
  270SOL     MW 1080   1.096   0.433   1.517 -0.0931  0.1481  0.5649
  271SOL     OW 1081   0.805   0.079   2.524 -1.1722  0.0112  0.5980
  271SOL    HW1 1082   0.847   0.006   2.572 -0.5870  1.1150  1.4627
  271SOL    HW2 1083   0.865   0.138   2.483 -2.3110 -3.1241  0.4076
  271SOL     MW 1084   0.819   0.077   2.525 -1.2452 -0.2568  0.6870
  272SOL     OW 1085   1.466   2.768   2.809 -0.4206 -0.1387  0.1605
  272SOL    HW1 1086   1.420   2.765   2.731 -2.0725  0.5253  0.7949
  272SOL    HW2 1087   1.492   2.864   2.821  1.0546  1.5778 -0.0617
  272SOL     MW 1088   1.463   2.780   2.801 -0.4439  0.1754  0.2149
  273SOL     OW 1089   1.462   0.821   2.815 -0.2077 -0.0753 -0.3861
  273SOL    HW1 1090   1.547   0.790   2.838 -1.1329  0.7726 -1.0053
  273SOL    HW2 1091   1.477   0.917   2.799  0.7207  0.9278  0.3563
  273SOL     MW 1092   1.476   0.830   2.816 -0.2073  0.1690 -0.3698
  274SOL     OW 1093   1.403   0.625   0.119  0.1124  0.2606 -0.1315
  274SOL    HW1 1094   1.466   0.574   0.172  0.3712 -3.0630 -1.3139
  274SOL    HW2 1095   1.324   0.632   0.177 -0.9434 -1.6568  0.2151
  274SOL     MW 1096   1.401   0.619   0.133  0.0072 -0.4309 -0.2418
  275SOL     OW 1097   1.839   0.555   1.697  0.4308 -0.2165 -0.1483
  275SOL    HW1 1098   1.898   0.584   1.766 -4.1913  2.7492 -1.1119
  275SOL    HW2 1099   1.815   0.468   1.724  1.3307  1.5828  0.0790
  275SOL     MW 1100   1.843   0.548   1.709 -0.0603  0.4122 -0.2454
  276SOL     OW 1101   0.365   1.168   1.930  0.4752 -0.5173  0.1893
  276SOL    HW1 1102   0.388   1.090   1.983 -0.2754  0.8027  1.8345
  276SOL    HW2 1103   0.346   1.235   1.998  1.3160  2.8375  0.1277
  276SOL     MW 1104   0.365   1.166   1.946  0.4871  0.0995  0.3982
  277SOL     OW 1105   1.959   1.132   2.473 -0.3577  0.2936 -0.4717
  277SOL    HW1 1106   1.968   1.224   2.488 -0.8221 -0.7533 -1.1229
  277SOL    HW2 1107   2.022   1.117   2.402 -0.1899 -0.3896  1.7167
  277SOL     MW 1108   1.968   1.142   2.466 -0.3969  0.0653 -0.2689
  278SOL     OW 1109   1.467   0.608   1.612  0.1579  0.3062 -0.7453
  278SOL    HW1 1110   1.469   0.586   1.705  1.9397  0.8240  1.7936
  278SOL    HW2 1111   1.558   0.634   1.585  1.5093  1.1855 -1.6515
  278SOL     MW 1112   1.479   0.609   1.620  0.5713  0.4905 -0.5299
  279SOL     OW 1113   0.506   0.108   2.241 -0.2423 -0.5669 -0.1293
  279SOL    HW1 1114   0.598   0.083   2.226  1.4432 -1.0285 -3.7394
  279SOL    HW2 1115   0.522   0.202   2.226  2.1059  0.3967 -2.4980
  279SOL     MW 1116   0.520   0.117   2.237  0.2899 -0.5007 -0.9182
  280SOL     OW 1117   1.413   0.989   2.249 -0.8024 -0.0709  0.1734
  280SOL    HW1 1118   1.504   0.980   2.215 -0.3266  1.7315  1.4455
  280SOL    HW2 1119   1.405   0.958   2.339  1.1275  0.3522  1.0412
  280SOL     MW 1120   1.424   0.983   2.256 -0.4850  0.2227  0.4557
  281SOL     OW 1121   1.376   1.065   2.760  0.9920 -0.1051  0.2930
  281SOL    HW1 1122   1.415   1.154   2.751  1.1115 -0.4774 -1.0097
  281SOL    HW2 1123   1.325   1.070   2.843 -2.1396 -0.4273 -1.4194
  281SOL     MW 1124   1.374   1.077   2.769  0.5946 -0.1967 -0.1048
  282SOL     OW 1125   1.126   1.298   1.643 -0.8232  0.6108 -0.1151
  282SOL    HW1 1126   1.095   1.392   1.627 -1.4929  0.0723  1.2007
  282SOL    HW2 1127   1.047   1.251   1.662  0.9163  1.9190 -0.9375
  282SOL     MW 1128   1.111   1.304   1.643 -0.6821  0.7123 -0.0500
  283SOL     OW 1129   0.818   1.354   3.032 -0.1214 -0.1007 -0.4683
  283SOL    HW1 1130   0.899   1.344   3.083  1.4373 -3.0808  0.1477
  283SOL    HW2 1131   0.807   1.450   3.023  0.1030 -0.7106 -1.1255
  283SOL     MW 1132   0.827   1.365   3.037  0.1139 -0.5744 -0.4738
  284SOL     OW 1133   0.369   0.690   2.327 -0.2941 -0.5582 -0.0991
  284SOL    HW1 1134   0.450   0.746   2.319 -1.9757  0.6536 -0.1615
  284SOL    HW2 1135   0.384   0.631   2.253  2.6848  3.0141 -0.9110
  284SOL     MW 1136   0.381   0.690   2.317 -0.1229  0.0730 -0.2144
  285SOL     OW 1137   0.851   0.872   2.815  0.0460  0.8547 -0.3253
  285SOL    HW1 1138   0.906   0.898   2.744 -0.1903  0.6424  0.0972
  285SOL    HW2 1139   0.778   0.814   2.784  0.6403  1.2984  0.5374
  285SOL     MW 1140   0.849   0.868   2.801  0.0932  0.8852 -0.1558
  286SOL     OW 1141   1.066   1.470   2.716  0.1076 -0.7500  0.5300
  286SOL    HW1 1142   1.128   1.400   2.719 -0.8617  0.6865  1.2830
  286SOL    HW2 1143   1.103   1.530   2.644 -1.5440  0.7923 -1.1965
  286SOL     MW 1144   1.079   1.469   2.707 -0.2382 -0.3570  0.4016
  287SOL     OW 1145   1.103   0.951   0.329 -0.4277 -0.0086  0.0497
  287SOL    HW1 1146   1.065   0.950   0.420 -0.2878 -0.4648 -2.0740
  287SOL    HW2 1147   1.059   1.019   0.282 -1.7161 -0.3030  0.1478
  287SOL     MW 1148   1.093   0.960   0.335 -0.5792 -0.1076 -0.2176
  288SOL     OW 1149   1.498   0.700   2.110 -0.4365  0.3068 -0.6471
  288SOL    HW1 1150   1.420   0.685   2.174  1.9997  0.6400  0.0958
  288SOL    HW2 1151   1.522   0.797   2.110  0.8423 -0.8188 -0.1375
  288SOL     MW 1152   1.491   0.710   2.119  0.0537  0.2022 -0.4818
  289SOL     OW 1153   0.973   0.965   2.583  0.9761  0.3662 -0.1378
  289SOL    HW1 1154   1.031   0.915   2.523  3.0776 -1.7839 -2.0449
  289SOL    HW2 1155   0.879   0.963   2.545 -1.3851 -0.4521 -3.3443
  289SOL     MW 1156   0.968   0.958   2.570  0.9419 -0.0254 -0.8125
  290SOL     OW 1157   0.719   0.663   1.464 -0.4623 -0.2139  0.0445
  290SOL    HW1 1158   0.777   0.624   1.397 -2.2566 -3.1575  0.8066
  290SOL    HW2 1159   0.760   0.660   1.547 -1.6186 -3.1042 -1.1817
  290SOL     MW 1160   0.732   0.657   1.466 -0.8516 -0.9836 -0.0167
  291SOL     OW 1161   0.247   0.342   0.198  0.1309 -0.1038  0.3609
  291SOL    HW1 1162   0.341   0.325   0.207 -1.4477  2.2000  0.3556
  291SOL    HW2 1163   0.221   0.250   0.198  0.0458  1.2952 -0.2681
  291SOL     MW 1164   0.256   0.327   0.199 -0.0886  0.3848  0.2772
  292SOL     OW 1165   1.029   0.589   0.098 -0.1990  0.2994 -0.1143
  292SOL    HW1 1166   1.084   0.622   0.169 -1.2106 -2.5954  0.0667
  292SOL    HW2 1167   1.047   0.493   0.104  4.7834 -1.2066 -1.0011
  292SOL     MW 1168   1.038   0.580   0.108  0.3249 -0.2812 -0.2074
  293SOL     OW 1169   0.159   0.134   2.532  0.0564  0.4859 -0.3223
  293SOL    HW1 1170   0.169   0.084   2.454  0.5934  0.4779  0.2240
  293SOL    HW2 1171   0.065   0.123   2.544  1.5611  2.9450 -0.2805
  293SOL     MW 1172   0.148   0.126   2.523  0.3258  0.8093 -0.2447
  294SOL     OW 1173   1.310   0.437   2.327 -1.0917 -0.3112 -1.0374
  294SOL    HW1 1174   1.357   0.518   2.359  0.0221  2.1240 -0.4540
  294SOL    HW2 1175   1.238   0.430   2.391 -1.2845 -1.0127  0.1739
  294SOL     MW 1176   1.306   0.447   2.340 -0.9702 -0.0825 -0.8006
  295SOL     OW 1177   0.852   0.634   2.485 -0.0977  0.3670  0.2195
  295SOL    HW1 1178   0.805   0.588   2.417  2.0331  1.9471  0.1153
  295SOL    HW2 1179   0.790   0.658   2.555 -0.8210 -0.9439  0.8638
  295SOL     MW 1180   0.838   0.631   2.486  0.0880  0.4025  0.2908
  296SOL     OW 1181   1.358   0.333   2.062 -0.0500  0.5888  0.1749
  296SOL    HW1 1182   1.393   0.245   2.079  0.0948 -0.3237  0.5066
  296SOL    HW2 1183   1.346   0.365   2.150  0.2032 -2.4229 -0.4183
  296SOL     MW 1184   1.361   0.326   2.076  0.0025  0.0710  0.1404
  297SOL     OW 1185   1.353   0.370   1.532  0.0766  0.1283 -0.3395
  297SOL    HW1 1186   1.391   0.454   1.558 -0.7387  3.4835 -1.2290
  297SOL    HW2 1187   1.343   0.314   1.611 -1.4992 -1.6665  0.5235
  297SOL     MW 1188   1.356   0.374   1.546 -0.2389  0.3342 -0.3430
  298SOL     OW 1189   1.671   0.928   2.128  0.8110 -0.0584  0.4145
  298SOL    HW1 1190   1.673   0.942   2.028  1.3515 -0.8333  1.4073
  298SOL    HW2 1191   1.735   0.855   2.146  2.3609  1.5058  1.4671
  298SOL     MW 1192   1.680   0.920   2.117  1.0868  0.0458  0.6844
  299SOL     OW 1193   0.615   1.181   0.063 -0.2461 -0.3263 -0.2110
  299SOL    HW1 1194   0.581   1.160  -0.033 -1.8029 -0.1136 -0.6338
  299SOL    HW2 1195   0.678   1.256   0.045 -2.3205  2.7771 -2.0841
  299SOL     MW 1196   0.619   1.188   0.048 -0.7252  0.1113 -0.5139
  300SOL     OW 1197   1.166   1.183   2.625  0.0581  0.1229  1.1693
  300SOL    HW1 1198   1.106   1.110   2.626 -0.5966  2.7160 -0.2392
  300SOL    HW2 1199   1.243   1.151   2.675  0.4754  2.1469  0.9670
  300SOL     MW 1200   1.168   1.169   2.631  0.0268  0.7321  0.9568
  301SOL     OW 1201   1.486   0.986   0.712 -0.5301  0.4362 -0.5670
  301SOL    HW1 1202   1.471   1.014   0.803  0.2496 -0.9964 -1.1163
  301SOL    HW2 1203   1.417   0.918   0.689 -2.6412  0.6047 -1.2364
  301SOL     MW 1204   1.475   0.981   0.721 -0.7057  0.2694 -0.7278
  302SOL     OW 1205   0.191   1.613   2.042  0.7107  0.0718 -0.3773
  302SOL    HW1 1206   0.198   1.524   2.066  2.2660 -0.2195  0.1363
  302SOL    HW2 1207   0.099   1.639   2.063 -0.2296 -2.0726 -1.4727
  302SOL     MW 1208   0.180   1.605   2.048  0.7918 -0.2495 -0.4540
  303SOL     OW 1209   0.280   1.791   2.684 -0.0984 -0.2549 -0.8198
  303SOL    HW1 1210   0.238   1.823   2.604 -2.5343  1.0215  3.9435
  303SOL    HW2 1211   0.209   1.781   2.745  0.6647  3.4729 -1.0797
  303SOL     MW 1212   0.265   1.794   2.681 -0.3191  0.4054 -0.2256
  304SOL     OW 1213   0.526   2.087   2.475 -0.3303 -0.0110  0.0516
  304SOL    HW1 1214   0.567   2.164   2.436  2.5537  0.7936  2.1764
  304SOL    HW2 1215   0.587   2.015   2.462  2.7955  0.6399  1.1093
  304SOL     MW 1216   0.540   2.088   2.468  0.4626  0.1811  0.4715
  305SOL     OW 1217   1.117   0.647   0.553  0.0325 -0.4375  0.2045
  305SOL    HW1 1218   1.028   0.631   0.515 -1.3780 -0.0002  1.6211
  305SOL    HW2 1219   1.165   0.556   0.559 -0.8536  2.1256 -1.5366
  305SOL     MW 1220   1.112   0.633   0.549 -0.2706 -0.0417  0.1616
  306SOL     OW 1221   1.111   1.550   0.292 -0.2221 -0.7466 -0.0379
  306SOL    HW1 1222   1.145   1.470   0.326  0.3337  0.9007  1.2215
  306SOL    HW2 1223   1.175   1.562   0.219  0.5684  0.6013  1.1441
  306SOL     MW 1224   1.124   1.541   0.286 -0.0445 -0.3514  0.2842
  307SOL     OW 1225   1.465   0.535   1.873 -0.1964  0.5614  0.0241
  307SOL    HW1 1226   1.422   0.455   1.904  2.1297 -1.2345 -0.4494
  307SOL    HW2 1227   1.481   0.585   1.956  2.5811  0.1900  0.3244
  307SOL     MW 1228   1.461   0.531   1.888  0.4770  0.2755  0.0013
  308SOL     OW 1229   2.291   0.581   2.761  0.2970  0.1763 -0.2406
  308SOL    HW1 1230   2.389   0.583   2.781 -0.4407 -2.9325 -0.4281
  308SOL    HW2 1231   2.250   0.669   2.763  1.3596  1.0104 -0.5743
  308SOL     MW 1232   2.298   0.593   2.764  0.3398 -0.1238 -0.3094
  309SOL     OW 1233   0.512   0.523   0.285  0.8557 -0.8021  0.0626
  309SOL    HW1 1234   0.599   0.567   0.277 -2.0316  3.5481  1.1819
  309SOL    HW2 1235   0.519   0.435   0.237 -2.6845  1.2375 -2.1730
  309SOL     MW 1236   0.525   0.517   0.278  0.0077  0.0410 -0.0847
  310SOL     OW 1237   0.373   0.532   1.830  0.4294 -0.0901  0.2693
  310SOL    HW1 1238   0.455   0.483   1.818  0.9128  0.3037  1.4369
  310SOL    HW2 1239   0.407   0.624   1.843  1.5391  1.9480 -0.8150
  310SOL     MW 1240   0.388   0.538   1.830  0.6396  0.2307  0.2803
  311SOL     OW 1241   2.005   0.685   1.926  0.0329  0.4357 -0.3711
  311SOL    HW1 1242   1.952   0.718   2.004  1.1029  5.3328  1.6685
  311SOL    HW2 1243   2.057   0.613   1.969 -2.3925  1.3653 -1.3594
  311SOL     MW 1244   2.005   0.680   1.942 -0.1459  1.2045 -0.2324
  312SOL     OW 1245   1.723   2.478   0.161  0.1727 -0.0738  0.0253
  312SOL    HW1 1246   1.747   2.475   0.257 -0.0843 -1.5648  0.6435
  312SOL    HW2 1247   1.653   2.544   0.156 -1.1699  1.4989 -2.6369
  312SOL     MW 1248   1.717   2.487   0.173 -0.0383 -0.0630 -0.2444
  313SOL     OW 1249   0.133   1.145   3.041 -0.7946 -0.2718  0.5614
  313SOL    HW1 1250   0.086   1.186   3.113 -0.5826  0.0036  1.5024
  313SOL    HW2 1251   0.134   1.222   2.978  0.6331  0.0359  1.0201
  313SOL     MW 1252   0.127   1.160   3.042 -0.5783 -0.1949  0.7461
  314SOL     OW 1253   2.211   2.893   3.092  0.4396 -0.2921 -0.5312
  314SOL    HW1 1254   2.146   2.910   3.019  0.2165  1.2319 -0.7652
  314SOL    HW2 1255   2.261   2.970   3.107  0.4356  2.7361  2.8161
  314SOL     MW 1256   2.209   2.906   3.084  0.4096  0.3085 -0.1204
  315SOL     OW 1257   1.522   1.847   3.019 -0.6048 -0.5748  0.4014
  315SOL    HW1 1258   1.446   1.904   3.047 -3.1528  2.5782 -0.5391
  315SOL    HW2 1259   1.561   1.898   2.946 -0.7868  2.0031  0.1659
  315SOL     MW 1260   1.517   1.861   3.013 -0.9650  0.1814  0.2463
  316SOL     OW 1261   1.218   0.714   2.702  0.3638  0.0413  0.3639
  316SOL    HW1 1262   1.302   0.746   2.720 -0.1769  1.3125 -0.6658
  316SOL    HW2 1263   1.186   0.715   2.790 -3.4298 -0.1474  1.0789
  316SOL     MW 1264   1.225   0.718   2.716 -0.2081  0.1841  0.3224
  317SOL     OW 1265   0.700   1.642   2.580 -0.3672 -0.2060 -0.8041
  317SOL    HW1 1266   0.759   1.561   2.595  1.0709 -0.9590  1.5003
  317SOL    HW2 1267   0.663   1.628   2.497 -4.0935 -0.4561 -0.1646
  317SOL     MW 1268   0.703   1.630   2.571 -0.6691 -0.3384 -0.4157
  318SOL     OW 1269   1.356   0.413   2.873  0.5321  0.0956 -0.4666
  318SOL    HW1 1270   1.291   0.486   2.861 -1.8188  0.1705  0.1181
  318SOL    HW2 1271   1.438   0.452   2.853 -0.1677  1.1826 -3.0230
  318SOL     MW 1272   1.358   0.428   2.868  0.1296  0.2489 -0.7268
  319SOL     OW 1273   0.827   0.511   2.857  0.4360  0.2662  0.0177
  319SOL    HW1 1274   0.810   0.424   2.812 -2.0413  0.1096  0.2640
  319SOL    HW2 1275   0.786   0.500   2.940  0.3853  0.1597  0.2118
  319SOL     MW 1276   0.820   0.498   2.862  0.1024  0.2315  0.0758
  320SOL     OW 1277   1.003   1.325   1.986 -0.1033 -0.1957  0.6175
  320SOL    HW1 1278   1.079   1.270   2.005 -0.9316  0.1585 -3.1357
  320SOL    HW2 1279   1.038   1.400   1.937 -0.9265  0.5881  0.3833
  320SOL     MW 1280   1.018   1.328   1.982 -0.3212 -0.0455  0.0914
  321SOL     OW 1281   1.035   0.906   3.044 -0.1124  0.3011  0.0226
  321SOL    HW1 1282   0.976   0.861   2.982 -1.4900 -0.5890  1.8412
  321SOL    HW2 1283   1.120   0.861   3.047 -1.4355  1.4605 -1.7716
  321SOL     MW 1284   1.039   0.894   3.036 -0.4687  0.3366  0.0258
  322SOL     OW 1285   1.340   0.868   1.643  0.4200  0.0404 -0.1022
  322SOL    HW1 1286   1.384   0.783   1.657  2.3920  1.0110  0.0261
  322SOL    HW2 1287   1.288   0.877   1.723 -0.5015 -1.1065  0.1666
  322SOL     MW 1288   1.339   0.858   1.655  0.5586  0.0172 -0.0498
  323SOL     OW 1289   1.183   1.530   1.887 -0.5260  0.2366  0.2295
  323SOL    HW1 1290   1.221   1.522   1.800 -2.1685 -3.0005 -0.4138
  323SOL    HW2 1291   1.166   1.625   1.896 -1.1477 -0.0299 -2.6865
  323SOL     MW 1292   1.186   1.542   1.877 -0.8247 -0.2257 -0.2401
  324SOL     OW 1293   1.441   0.916   2.500  0.1366 -0.2256 -0.1299
  324SOL    HW1 1294   1.379   0.950   2.575 -1.2650 -2.7523  0.2896
  324SOL    HW2 1295   1.524   0.958   2.514 -3.0840 -1.5250 -0.1789
  324SOL     MW 1296   1.444   0.926   2.512 -0.4733 -0.7304 -0.0810
  325SOL     OW 1297   1.094   0.522   2.906  0.2869  0.2886  0.0628
  325SOL    HW1 1298   1.087   0.546   3.000 -2.6653 -0.9493 -1.1007
  325SOL    HW2 1299   1.001   0.522   2.875  0.0508 -1.3851  1.8623
  325SOL     MW 1300   1.081   0.525   2.914 -0.1338 -0.0955  0.1468
  326SOL     OW 1301   0.399   1.362   2.358 -0.4020 -0.3162  0.4800
  326SOL    HW1 1302   0.480   1.343   2.309 -0.9281 -1.6556 -0.9830
  326SOL    HW2 1303   0.387   1.461   2.362 -0.4403  2.4492  1.9007
  326SOL     MW 1304   0.408   1.372   2.352 -0.4765 -0.1280  0.4744
  327SOL     OW 1305   1.954   0.750   2.424 -0.0615 -0.0947 -0.7035
  327SOL    HW1 1306   1.937   0.725   2.516  0.4397 -1.7960 -0.2720
  327SOL    HW2 1307   1.986   0.839   2.423 -0.5184 -1.5052  0.3198
  327SOL     MW 1308   1.956   0.759   2.436 -0.0557 -0.5053 -0.5116
  328SOL     OW 1309   0.260   1.342   2.115 -0.0894 -0.2019 -0.0737
  328SOL    HW1 1310   0.171   1.302   2.117  2.3290  0.5182 -3.0210
  328SOL    HW2 1311   0.309   1.343   2.201  2.8430  0.2098  1.8402
  328SOL     MW 1312   0.255   1.336   2.126  0.6166 -0.0526 -0.2100
  329SOL     OW 1313   0.057   0.116   1.363 -0.4863  0.2359  0.1117
  329SOL    HW1 1314   0.058   0.077   1.451 -0.5822  3.2675 -2.8438
  329SOL    HW2 1315   0.148   0.133   1.336  1.0929 -0.2949  2.4054
  329SOL     MW 1316   0.069   0.113   1.371 -0.2906  0.5659  0.0244
  330SOL     OW 1317   0.341   0.069   1.974 -0.7453  0.0824 -0.5264
  330SOL    HW1 1318   0.434   0.047   1.975 -1.2219  0.8627 -1.6068
  330SOL    HW2 1319   0.309   0.007   2.040  2.1192  0.2318  0.8676
  330SOL     MW 1320   0.349   0.058   1.983 -0.4302  0.2051 -0.4850
  331SOL     OW 1321   0.771   1.241   2.373  0.4402  0.4335  0.5769
  331SOL    HW1 1322   0.718   1.285   2.301 -2.0239 -0.0409 -0.1873
  331SOL    HW2 1323   0.794   1.288   2.448 -1.6364 -2.1163 -2.5317
  331SOL     MW 1324   0.767   1.253   2.373 -0.1589  0.0345  0.0659
  332SOL     OW 1325   1.351   1.650   2.935  0.3365  0.0253  0.8485
  332SOL    HW1 1326   1.359   1.673   2.839 -2.5976  1.2291  1.6302
  332SOL    HW2 1327   1.409   1.715   2.980  5.3399 -0.3137 -1.1391
  332SOL     MW 1328   1.360   1.662   2.928  0.6095  0.1394  0.6894
  333SOL     OW 1329   1.695   1.369   2.923 -0.0214 -0.3571 -0.0128
  333SOL    HW1 1330   1.793   1.379   2.927  0.0285 -1.1320 -3.1738
  333SOL    HW2 1331   1.681   1.291   2.973  2.7470 -2.5387 -1.3568
  333SOL     MW 1332   1.706   1.360   2.930  0.3505 -0.7472 -0.6072
  334SOL     OW 1333   1.326   3.066   2.647 -0.6102  0.0764  0.6172
  334SOL    HW1 1334   1.252   3.076   2.706  1.2615 -2.5614 -2.0150
  334SOL    HW2 1335   1.400   3.107   2.692  0.7786 -0.9099  0.1002
  334SOL     MW 1336   1.326   3.072   2.661 -0.1800 -0.4018  0.2017
  335SOL     OW 1337   1.267   0.771   3.005  0.0784 -0.0683  0.5668
  335SOL    HW1 1338   1.299   0.705   3.068 -3.6052  5.0259 -1.1358
  335SOL    HW2 1339   1.342   0.810   2.958 -2.7391 -0.4647  1.2318
  335SOL     MW 1340   1.281   0.768   3.007 -0.7794  0.5515  0.4299
  336SOL     OW 1341   0.928   1.134   1.704  0.0540 -0.6976 -0.1049
  336SOL    HW1 1342   0.846   1.159   1.750  0.9866  0.1664 -1.7509
  336SOL    HW2 1343   0.984   1.083   1.774  0.2906 -2.9439  0.3025
  336SOL     MW 1344   0.924   1.130   1.720  0.2083 -0.8800 -0.2683
  337SOL     OW 1345   0.484   1.950   2.819  0.5173  0.5337  0.7180
  337SOL    HW1 1346   0.435   1.898   2.755  1.2050 -1.2649  0.8830
  337SOL    HW2 1347   0.572   1.925   2.798  1.9666 -0.3980  2.4436
  337SOL     MW 1348   0.489   1.940   2.808  0.7993  0.1734  0.9674
  338SOL     OW 1349   1.101   0.766   2.458  0.1303  0.7346  0.5084
  338SOL    HW1 1350   1.013   0.720   2.466  0.0313  0.9444  0.0603
  338SOL    HW2 1351   1.143   0.738   2.540  0.1187 -1.0473  0.3352
  338SOL     MW 1352   1.095   0.756   2.470  0.1157  0.5272  0.4264
  339SOL     OW 1353   1.353   1.277   1.920 -0.1038  0.0636 -0.1279
  339SOL    HW1 1354   1.378   1.235   1.838  0.3404  0.0960 -1.0087
  339SOL    HW2 1355   1.309   1.215   1.977 -1.2310 -1.9872 -2.3844
  339SOL     MW 1356   1.350   1.263   1.916 -0.1939 -0.2027 -0.5418
  340SOL     OW 1357   1.312   1.534   0.091 -0.0750  0.3401  0.3348
  340SOL    HW1 1358   1.315   1.568  -0.000 -0.8876  0.4906 -3.7610
  340SOL    HW2 1359   1.391   1.473   0.095  0.0787 -0.6428 -2.0465
  340SOL     MW 1360   1.323   1.530   0.080 -0.1619  0.2303 -0.5198
  341SOL     OW 1361   0.124   1.371   2.823 -0.9422  0.2372 -0.0585
  341SOL    HW1 1362   0.220   1.389   2.844  1.2335 -1.5189 -0.6619
  341SOL    HW2 1363   0.135   1.340   2.735  1.6956  2.4525 -0.2369
  341SOL     MW 1364   0.138   1.369   2.814 -0.3071  0.2978 -0.1616
  342SOL     OW 1365   1.377   0.334   0.036  0.2718 -0.2619  0.0630
  342SOL    HW1 1366   1.453   0.373   0.089  0.0361  1.0291  0.2183
  342SOL    HW2 1367   1.381   0.372  -0.053 -1.2688 -0.1961 -2.3947
  342SOL     MW 1368   1.388   0.344   0.032  0.0374 -0.0828 -0.2407
  343SOL     OW 1369   0.243   0.260   2.163  0.7549  0.0590  0.0907
  343SOL    HW1 1370   0.291   0.186   2.120  0.7435 -0.1025 -0.2604
  343SOL    HW2 1371   0.148   0.241   2.149 -1.9089  2.6275 -1.0015
  343SOL     MW 1372   0.237   0.248   2.155  0.4019  0.3766 -0.0998
  344SOL     OW 1373   1.696   2.037   0.181 -0.2333  0.4517  0.1663
  344SOL    HW1 1374   1.703   2.066   0.095  0.7400 -1.5650  1.1801
  344SOL    HW2 1375   1.617   1.984   0.182 -4.7632 -2.8695  0.5402
  344SOL     MW 1376   1.686   2.034   0.170 -0.7025 -0.2526  0.3494
  345SOL     OW 1377   0.647   1.620   2.322 -0.2912 -0.4824  0.0754
  345SOL    HW1 1378   0.565   1.618   2.271  1.8608  0.5191 -2.0651
  345SOL    HW2 1379   0.721   1.597   2.267  2.1542 -0.1308 -0.5068
  345SOL     MW 1380   0.646   1.617   2.308  0.3154 -0.3039 -0.2838
  346SOL     OW 1381   1.681   1.163   0.046 -0.0982  0.0550  0.1859
  346SOL    HW1 1382   1.777   1.188   0.049 -1.9648  3.3664 -2.0505
  346SOL    HW2 1383   1.675   1.081   0.101 -2.7715 -0.5932  2.0888
  346SOL     MW 1384   1.693   1.155   0.053 -0.6972  0.4063  0.1419
  347SOL     OW 1385   1.184   0.655   2.218  0.5480  0.4286 -0.5564
  347SOL    HW1 1386   1.218   0.571   2.253 -0.7731  1.3105 -1.1014
  347SOL    HW2 1387   1.170   0.722   2.286  0.0435  0.3247 -1.2485
  347SOL     MW 1388   1.186   0.653   2.232  0.3072  0.5312 -0.7197
  348SOL     OW 1389   1.301   2.580   1.959 -0.3862 -0.3687 -0.3994
  348SOL    HW1 1390   1.306   2.493   2.010  0.8324 -0.9525 -1.2627
  348SOL    HW2 1391   1.353   2.646   2.014  1.1098  0.1041  3.2792
  348SOL     MW 1392   1.308   2.577   1.973 -0.0281 -0.3834 -0.0280
  349SOL     OW 1393   1.475   0.173   2.763 -0.8249 -0.1582  0.3356
  349SOL    HW1 1394   1.437   0.245   2.819 -0.1844  1.0021 -0.6997
  349SOL    HW2 1395   1.489   0.090   2.813  1.7921 -2.6675 -0.9438
  349SOL     MW 1396   1.472   0.172   2.777 -0.3951 -0.3362  0.0302
  350SOL     OW 1397   1.866   0.635   2.647  0.0979  0.0807  0.0331
  350SOL    HW1 1398   1.806   0.583   2.593  1.5501  0.4904 -0.7333
  350SOL    HW2 1399   1.939   0.570   2.683 -1.4592 -1.9890  1.1494
  350SOL     MW 1400   1.868   0.620   2.645  0.0841 -0.1383  0.0793
  351SOL     OW 1401   0.096   1.193   1.562  0.5048 -0.0816  0.0938
  351SOL    HW1 1402   0.064   1.120   1.613 -0.0106  1.1707  1.4974
  351SOL    HW2 1403   0.141   1.250   1.629 -0.6285 -1.3618  3.1707
  351SOL     MW 1404   0.098   1.191   1.577  0.2873 -0.0853  0.6850
  352SOL     OW 1405   0.744   1.812   2.790  0.0297 -0.3048  0.7536
  352SOL    HW1 1406   0.781   1.753   2.857  1.5888 -1.7739 -0.8534
  352SOL    HW2 1407   0.721   1.753   2.717 -1.6548 -0.7093  0.7114
  352SOL     MW 1408   0.746   1.796   2.789  0.0132 -0.5520  0.5360
  353SOL     OW 1409   3.087   2.565   2.637  0.0118  0.2404  0.5648
  353SOL    HW1 1410   3.175   2.524   2.625 -0.0207 -3.6281 -1.5140
  353SOL    HW2 1411   3.082   2.644   2.586  2.8105 -1.8747 -1.3465
  353SOL     MW 1412   3.098   2.570   2.629  0.3768 -0.5491  0.0384
  354SOL     OW 1413   0.371   2.412   0.819 -0.5673  0.0985 -0.5700
  354SOL    HW1 1414   0.422   2.389   0.901 -0.3004 -2.5742 -0.8450
  354SOL    HW2 1415   0.286   2.361   0.829  1.2493  0.8631 -0.7569
  354SOL     MW 1416   0.367   2.403   0.831 -0.2924 -0.1532 -0.6310
  355SOL     OW 1417   0.123   2.229   0.398 -0.2402  0.9040  0.5682
  355SOL    HW1 1418   0.022   2.209   0.382 -1.3613  0.3391 -1.4343
  355SOL    HW2 1419   0.110   2.286   0.471  0.3685 -0.3329 -1.1802
  355SOL     MW 1420   0.108   2.234   0.405 -0.3078  0.6663  0.0733
  356SOL     OW 1421   0.744   2.968   1.036 -0.2144  0.5810 -0.6791
  356SOL    HW1 1422   0.824   2.975   0.984 -1.2317  2.9559 -0.9080
  356SOL    HW2 1423   0.679   2.908   0.989  0.6600 -5.0982 -0.0072
  356SOL     MW 1424   0.746   2.961   1.023 -0.2333  0.1450 -0.6207
  357SOL     OW 1425   1.844   2.792   0.474  0.2341  0.2878  0.1800
  357SOL    HW1 1426   1.852   2.736   0.554 -2.2367 -2.3371 -0.6770
  357SOL    HW2 1427   1.916   2.764   0.419  0.0209 -1.1946  2.0971
  357SOL     MW 1428   1.854   2.781   0.477 -0.1200 -0.2541  0.3199
  358SOL     OW 1429   0.422   0.145   1.065 -0.0684 -0.4325 -0.0289
  358SOL    HW1 1430   0.518   0.145   1.042  0.4726  0.7314 -0.5466
  358SOL    HW2 1431   0.379   0.186   0.989 -0.3621  1.4014 -0.1267
  358SOL     MW 1432   0.429   0.151   1.052 -0.0358 -0.0370 -0.1101
  359SOL     OW 1433   0.890   2.957   1.877  0.7472 -1.0382  0.2702
  359SOL    HW1 1434   0.890   2.859   1.901 -1.4965 -0.7184  1.6587
  359SOL    HW2 1435   0.909   2.961   1.781  1.5128  0.5904 -2.9122
  359SOL     MW 1436   0.893   2.945   1.868  0.5522 -0.7811  0.0335
  360SOL     OW 1437   0.576   2.762   0.925 -0.5494  0.0554 -0.4636
  360SOL    HW1 1438   0.612   2.734   0.841  2.4173  1.0397 -1.1186
  360SOL    HW2 1439   0.600   2.697   0.993 -1.6660 -0.9368 -2.7253
  360SOL     MW 1440   0.584   2.750   0.923 -0.3053  0.0544 -0.8484
  361SOL     OW 1441   0.159   2.705   1.386 -0.5101  0.3312 -0.6731
  361SOL    HW1 1442   0.082   2.748   1.429  0.9486 -0.4789 -1.0200
  361SOL    HW2 1443   0.227   2.768   1.384 -2.0262  1.3220  1.2535
  361SOL     MW 1444   0.158   2.719   1.391 -0.5177  0.3550 -0.4647
  362SOL     OW 1445   1.372   2.427   0.615  0.2337  0.0352 -0.4600
  362SOL    HW1 1446   1.435   2.379   0.672  2.5327 -0.5238 -1.0058
  362SOL    HW2 1447   1.435   2.497   0.587  1.8625  1.9584  1.1415
  362SOL     MW 1448   1.388   2.430   0.619  0.7519  0.2152 -0.3207
  363SOL     OW 1449   0.315   3.095   0.671 -0.1649 -0.1006 -0.4128
  363SOL    HW1 1450   0.320   3.034   0.746  1.7891 -0.8012  0.2306
  363SOL    HW2 1451   0.232   3.085   0.623 -1.0343 -0.2659 -1.3842
  363SOL     MW 1452   0.304   3.085   0.675 -0.0218 -0.2148 -0.4561
  364SOL     OW 1453   0.778   0.209   0.153 -0.9225  0.1369  0.1465
  364SOL    HW1 1454   0.708   0.156   0.185 -1.7441  0.5204  0.2843
  364SOL    HW2 1455   0.738   0.288   0.098 -0.3327  1.0054 -2.8562
  364SOL     MW 1456   0.763   0.212   0.150 -0.9531  0.3021 -0.2315
  365SOL     OW 1457   0.881   2.025   1.283 -0.2095 -0.1398 -0.2103
  365SOL    HW1 1458   0.866   2.116   1.255  1.7624  0.5955  0.7445
  365SOL    HW2 1459   0.863   1.974   1.200 -3.4399 -1.3252 -2.1025
  365SOL     MW 1460   0.877   2.030   1.268 -0.3755 -0.1992 -0.3340
  366SOL     OW 1461   2.889   2.659   0.954 -0.2050  0.1271 -0.5585
  366SOL    HW1 1462   2.963   2.635   1.012  1.4363 -1.9462  3.8542
  366SOL    HW2 1463   2.940   2.694   0.877 -0.5288 -1.4152 -0.3551
  366SOL     MW 1464   2.905   2.660   0.952 -0.0312 -0.3499  0.0505
  367SOL     OW 1465   1.289   3.028   1.015  0.2827  0.6673 -0.0133
  367SOL    HW1 1466   1.374   3.063   1.020 -3.2728 -0.6174 -0.5260
  367SOL    HW2 1467   1.261   3.016   0.927  2.1627  1.2384 -0.0675
  367SOL     MW 1468   1.296   3.031   1.004  0.0616  0.5731 -0.0881
  368SOL     OW 1469   1.703   0.420   0.596  0.1384 -0.1421 -0.0866
  368SOL    HW1 1470   1.787   0.379   0.575  0.3511 -2.2377  1.1233
  368SOL    HW2 1471   1.712   0.513   0.575  0.3315 -2.3851  0.4990
  368SOL     MW 1472   1.715   0.427   0.590  0.1919 -0.7145  0.1503
  369SOL     OW 1473   0.157   2.407   1.757  0.0403  0.2287  0.0403
  369SOL    HW1 1474   0.250   2.382   1.765  1.9348 -1.3107 -0.4046
  369SOL    HW2 1475   0.160   2.502   1.749  0.5263 -0.6079  0.4200
  369SOL     MW 1476   0.170   2.416   1.757  0.3544 -0.0848  0.0317
  370SOL     OW 1477   0.713   0.126   1.074 -0.4080 -0.0545  0.1931
  370SOL    HW1 1478   0.756   0.174   1.003  1.5066  1.1995  0.3671
  370SOL    HW2 1479   0.726   0.026   1.060 -0.3176  0.6280 -1.1637
  370SOL     MW 1480   0.720   0.119   1.063 -0.1435  0.2010  0.0371
  371SOL     OW 1481   1.119   2.894   1.467 -0.0444 -0.2630 -0.0135
  371SOL    HW1 1482   1.125   2.814   1.412  0.1202  2.4768 -1.4606
  371SOL    HW2 1483   1.168   2.953   1.409  0.7253  0.4994 -0.5088
  371SOL     MW 1484   1.126   2.891   1.452  0.0789  0.1991 -0.2697
  372SOL     OW 1485   0.804   2.312   0.466  0.3295 -0.0650  0.2754
  372SOL    HW1 1486   0.772   2.226   0.499  1.8052 -0.2291 -0.3529
  372SOL    HW2 1487   0.864   2.282   0.398 -0.8841  0.2512 -0.6406
  372SOL     MW 1488   0.808   2.297   0.461  0.3641 -0.0449  0.0716
  373SOL     OW 1489   2.806   2.976   1.411 -0.2615 -0.0428  0.1782
  373SOL    HW1 1490   2.893   2.946   1.398 -3.0962 -0.6458  0.1974
  373SOL    HW2 1491   2.790   3.039   1.348 -2.2323 -2.0793 -1.9769
  373SOL     MW 1492   2.816   2.980   1.401 -0.8956 -0.3910 -0.1036
  374SOL     OW 1493   1.596   0.477   0.253 -0.0562 -0.3840 -0.0583
  374SOL    HW1 1494   1.683   0.441   0.234  1.6228 -0.6100 -1.4571
  374SOL    HW2 1495   1.562   0.424   0.319  0.1390 -0.2289 -1.1682
  374SOL     MW 1496   1.603   0.466   0.259  0.1911 -0.3934 -0.3893
  375SOL     OW 1497   1.107   2.055   2.218  0.3318 -0.5458 -0.2531
  375SOL    HW1 1498   1.128   2.044   2.313 -1.8317 -0.3720 -0.7715
  375SOL    HW2 1499   1.021   2.011   2.214 -0.4830 -0.3541 -0.0419
  375SOL     MW 1500   1.098   2.048   2.230 -0.0612 -0.4976 -0.2936
  376SOL     OW 1501   0.835   2.520   0.141  0.7194  0.2109  0.1319
  376SOL    HW1 1502   0.771   2.486   0.208 -0.1946 -3.1492  2.8137
  376SOL    HW2 1503   0.825   2.446   0.076 -0.1011 -2.4392 -0.3430
  376SOL     MW 1504   0.825   2.505   0.141  0.4906 -0.5820  0.4230
  377SOL     OW 1505   1.344   2.092   0.936  0.1896 -0.0468  0.4076
  377SOL    HW1 1506   1.265   2.078   0.883  1.7332 -0.8975 -0.4532
  377SOL    HW2 1507   1.347   2.007   0.977 -0.7677  2.9684 -0.3096
  377SOL     MW 1508   1.334   2.079   0.934  0.2669  0.2388  0.1994
  378SOL     OW 1509   0.880   2.873   1.630 -0.3494  0.0842  0.9405
  378SOL    HW1 1510   0.908   2.779   1.619  2.1123 -2.9508  1.5813
  378SOL    HW2 1511   0.951   2.912   1.581  1.2245  1.3152 -1.2557
  378SOL     MW 1512   0.893   2.865   1.622  0.1830 -0.1538  0.7353
  379SOL     OW 1513   1.061   1.557   2.296  0.1327 -0.1617  0.3862
  379SOL    HW1 1514   0.973   1.527   2.268  0.2041  0.7868 -0.7072
  379SOL    HW2 1515   1.123   1.557   2.221  0.1152  0.2634 -1.3354
  379SOL     MW 1516   1.057   1.553   2.283  0.1398  0.0195  0.0148
  380SOL     OW 1517   0.909   0.134   1.511  0.7548  0.0961  0.8813
  380SOL    HW1 1518   0.933   0.061   1.451 -1.1881 -0.2584  1.1441
  380SOL    HW2 1519   0.941   0.104   1.597 -0.8849  1.3883  0.0920
  380SOL     MW 1520   0.917   0.121   1.514  0.2821  0.2198  0.8119
  381SOL     OW 1521   0.836   2.058   0.901  0.0417  0.2592  0.4505
  381SOL    HW1 1522   0.930   2.080   0.883  0.6512 -0.0619  1.8278
  381SOL    HW2 1523   0.820   2.114   0.976 -0.4799 -1.1810 -1.1189
  381SOL     MW 1524   0.846   2.068   0.908  0.0533  0.0268  0.4252
  382SOL     OW 1525   0.866   0.120   0.599  0.2883 -0.1344 -0.3790
  382SOL    HW1 1526   0.860   0.160   0.690 -1.6447  1.5450  1.0571
  382SOL    HW2 1527   0.813   0.043   0.604  0.3607  0.9501 -0.7528
  382SOL     MW 1528   0.858   0.115   0.612  0.0428  0.2303 -0.2388
  383SOL     OW 1529   0.648   0.007   0.310  0.2446 -0.4021 -0.1874
  383SOL    HW1 1530   0.675  -0.056   0.248 -0.7137  1.5306  0.5292
  383SOL    HW2 1531   0.604  -0.035   0.381  0.3631  0.9292 -2.4411
  383SOL     MW 1532   0.646  -0.007   0.312  0.1338  0.0285 -0.3902
  384SOL     OW 1533   0.774   2.967   0.609  0.2537 -0.5958  0.4165
  384SOL    HW1 1534   0.800   2.947   0.702 -0.5851  1.9880 -1.3332
  384SOL    HW2 1535   0.716   2.892   0.591  0.1193  2.2163 -1.4516
  384SOL     MW 1536   0.770   2.955   0.619  0.1253  0.1162 -0.0608
  385SOL     OW 1537   1.371   2.060   1.533  0.4619 -0.1110 -0.0442
  385SOL    HW1 1538   1.438   2.082   1.605  0.4476  0.0991  3.2971
  385SOL    HW2 1539   1.340   1.977   1.575  1.3389 -0.3619  2.6368
  385SOL     MW 1540   1.376   2.052   1.548  0.5757 -0.1164  0.7504
  386SOL     OW 1541   1.462   0.388   0.845 -0.1389 -0.5331 -0.2735
  386SOL    HW1 1542   1.419   0.429   0.920  2.0676 -0.6424 -0.1132
  386SOL    HW2 1543   1.549   0.418   0.867 -1.5333 -0.7605  1.1947
  386SOL     MW 1544   1.467   0.397   0.858 -0.0317 -0.5775 -0.0586
  387SOL     OW 1545   0.796   2.268   1.569  0.6017  0.1218  0.0826
  387SOL    HW1 1546   0.883   2.277   1.524  2.6799  0.0218  0.7822
  387SOL    HW2 1547   0.786   2.175   1.576  1.5134  3.6321  0.5516
  387SOL     MW 1548   0.806   2.257   1.564  0.9962  0.5717  0.2368
  388SOL     OW 1549   1.456   2.802   1.492  0.1670 -0.1876  0.3595
  388SOL    HW1 1550   1.410   2.859   1.431  2.2204 -0.1046  2.5388
  388SOL    HW2 1551   1.538   2.780   1.450  0.6135  0.8594 -0.7378
  388SOL     MW 1552   1.460   2.806   1.478  0.4968 -0.0385  0.5022
  389SOL     OW 1553   0.456   0.115   3.058 -0.4186 -0.4614 -0.1844
  389SOL    HW1 1554   0.517   0.040   3.051  0.1787 -1.5705 -1.8904
  389SOL    HW2 1555   0.479   0.167   2.975  0.8506 -0.8128  1.1560
  389SOL     MW 1556   0.467   0.112   3.046 -0.1724 -0.6541 -0.2326
  390SOL     OW 1557   1.372   0.010   0.713 -0.1750 -0.3488 -0.2648
  390SOL    HW1 1558   1.431   0.005   0.639  2.3590  0.6316  1.3377
  390SOL    HW2 1559   1.444   0.033   0.781 -0.5379 -1.4257 -0.6463
  390SOL     MW 1560   1.389   0.012   0.712  0.1114 -0.3615 -0.1037
  391SOL     OW 1561   0.310   2.155   1.512 -0.1621 -0.3087 -0.4015
  391SOL    HW1 1562   0.300   2.165   1.611  2.0901 -0.4324 -0.3179
  391SOL    HW2 1563   0.252   2.226   1.480 -0.8115  0.2906  1.4377
  391SOL     MW 1564   0.301   2.166   1.521  0.0494 -0.2460 -0.1478
  392SOL     OW 1565   1.946   2.144   0.320  0.4948 -0.5772  0.2609
  392SOL    HW1 1566   1.998   2.214   0.360  0.2104  1.2239  0.1661
  392SOL    HW2 1567   1.866   2.183   0.295  0.6675 -0.4067 -1.2895
  392SOL     MW 1568   1.943   2.158   0.322  0.4801 -0.3171  0.0439
  393SOL     OW 1569   0.232   2.951   2.810 -0.3943 -0.2066 -0.4308
  393SOL    HW1 1570   0.321   2.930   2.776 -0.1922  0.4290 -0.2899
  393SOL    HW2 1571   0.229   3.045   2.823  0.3198  0.9410 -1.5543
  393SOL     MW 1572   0.244   2.961   2.807 -0.2734  0.0287 -0.5604
  394SOL     OW 1573   0.988   1.775   1.560 -0.4692 -0.4877  0.4370
  394SOL    HW1 1574   1.026   1.794   1.647 -0.7511 -0.5322 -1.0725
  394SOL    HW2 1575   0.903   1.815   1.565  0.3308 -1.6788 -1.8099
  394SOL     MW 1576   0.982   1.783   1.572 -0.4008 -0.6507 -0.0587
  395SOL     OW 1577   0.956   2.950   2.716  0.0693  0.2673  0.4271
  395SOL    HW1 1578   1.020   2.994   2.780 -0.7139 -0.3223 -1.9412
  395SOL    HW2 1579   1.006   2.873   2.681 -0.2041 -2.8652 -0.4350
  395SOL     MW 1580   0.971   2.946   2.720 -0.0701 -0.2238  0.0009
  396SOL     OW 1581   0.714   1.870   2.356 -0.1783  0.0781  0.2798
  396SOL    HW1 1582   0.785   1.837   2.412  1.0351 -2.2949 -1.6809
  396SOL    HW2 1583   0.652   1.798   2.333 -3.4621  2.3779 -2.1083
  396SOL     MW 1584   0.715   1.856   2.360 -0.4514  0.0685 -0.2940
  397SOL     OW 1585   1.019   2.286   1.382  0.4243 -0.0193  0.3045
  397SOL    HW1 1586   1.047   2.310   1.296 -1.5874  1.2504  1.1065
  397SOL    HW2 1587   1.085   2.297   1.454  0.0374 -0.8880  1.9183
  397SOL     MW 1588   1.032   2.291   1.380  0.1078  0.0336  0.6232
  398SOL     OW 1589   0.657   2.725   0.660  0.4698 -0.4626  0.2350
  398SOL    HW1 1590   0.610   2.704   0.577 -1.7152 -2.0484  0.1660
  398SOL    HW2 1591   0.733   2.666   0.653  1.0847  1.8479 -1.4764
  398SOL     MW 1592   0.661   2.714   0.648  0.2627 -0.3670  0.0001
  399SOL     OW 1593   0.318   2.057   0.382  0.2627 -0.3351  0.8881
  399SOL    HW1 1594   0.242   2.112   0.394  1.9259  0.4870  3.5427
  399SOL    HW2 1595   0.370   2.100   0.311  0.1087  0.4119 -2.8572
  399SOL     MW 1596   0.315   2.070   0.374  0.4619 -0.1281  0.7442
  400SOL     OW 1597   0.596   1.933   0.111  0.2236 -0.1153  0.5931
  400SOL    HW1 1598   0.560   2.023   0.147 -1.0667  2.7560  1.9601
  400SOL    HW2 1599   0.585   1.862   0.177 -0.2116 -1.9490  0.9097
  400SOL     MW 1600   0.590   1.936   0.124 -0.0040  0.0216  0.8152
  401SOL     OW 1601   0.853   2.028   3.084 -0.3388 -0.5175 -0.3870
  401SOL    HW1 1602   0.923   1.962   3.096 -1.3460 -0.6195 -1.1349
  401SOL    HW2 1603   0.779   1.993   3.134  0.1808  2.7336  1.2004
  401SOL     MW 1604   0.852   2.015   3.092 -0.4031 -0.1020 -0.2762
  402SOL     OW 1605   0.607   3.006   1.827 -0.3746  0.2486  0.3539
  402SOL    HW1 1606   0.694   2.971   1.835 -0.0105 -1.9579 -1.2082
  402SOL    HW2 1607   0.609   3.077   1.769 -0.9492  1.1171  2.6074
  402SOL     MW 1608   0.618   3.011   1.821 -0.4024  0.0720  0.4451
  403SOL     OW 1609   0.149   0.497   0.415  0.0890  0.0451  0.8079
  403SOL    HW1 1610   0.224   0.483   0.476  0.9060  1.1229 -1.8803
  403SOL    HW2 1611   0.169   0.449   0.340  0.2346  0.6655  0.9590
  403SOL     MW 1612   0.161   0.489   0.413  0.2160  0.2692  0.4732
  404SOL     OW 1613   0.941   2.962   0.828  0.3565  0.2125 -0.2753
  404SOL    HW1 1614   1.015   2.896   0.829 -0.0485  1.2207  0.2520
  404SOL    HW2 1615   0.990   3.040   0.803  0.4630  1.3954  1.7799
  404SOL     MW 1616   0.957   2.963   0.825  0.3171  0.5016  0.0654
  405SOL     OW 1617   0.528   2.465   1.516  0.2471  0.2667 -0.0266
  405SOL    HW1 1618   0.532   2.544   1.459 -2.6307 -2.3816  0.6139
  405SOL    HW2 1619   0.567   2.407   1.453 -1.0331  1.7513  0.4620
  405SOL     MW 1620   0.533   2.468   1.500 -0.3015  0.1131  0.1224
  406SOL     OW 1621   0.467   2.351   1.089  0.2462 -0.0566 -0.0226
  406SOL    HW1 1622   0.369   2.354   1.094 -1.0235  2.6683 -2.9571
  406SOL    HW2 1623   0.494   2.276   1.146  0.3910 -0.9128  2.3544
  406SOL     MW 1624   0.458   2.342   1.097  0.0977  0.1899 -0.0962
  407SOL     OW 1625   0.053   2.637   1.091  0.2737 -0.0800 -0.2791
  407SOL    HW1 1626   0.100   2.667   1.170  1.4023  0.2133  2.3777
  407SOL    HW2 1627   0.120   2.645   1.019 -0.2950 -2.2434 -0.1987
  407SOL     MW 1628   0.068   2.642   1.092  0.3476 -0.3268  0.0821
  408SOL     OW 1629   2.136   2.158   0.699 -0.0891  0.3970 -0.0683
  408SOL    HW1 1630   2.069   2.171   0.775 -1.8558  3.8418 -0.5971
  408SOL    HW2 1631   2.066   2.098   0.651  0.1977  0.6276 -0.9495
  408SOL     MW 1632   2.118   2.152   0.702 -0.2843  0.8819 -0.2543
  409SOL     OW 1633   1.597   0.094   0.839 -0.3433 -0.1305  0.2386
  409SOL    HW1 1634   1.669   0.154   0.815  1.5320 -0.6205  1.1849
  409SOL    HW2 1635   1.606   0.078   0.933  2.1643  0.8315  0.8853
  409SOL     MW 1636   1.608   0.100   0.848  0.2349 -0.0682  0.4488
  410SOL     OW 1637   1.093   2.430   1.158 -0.5278  0.5270  0.4235
  410SOL    HW1 1638   1.037   2.477   1.098 -0.6082 -0.6220 -0.4539
  410SOL    HW2 1639   1.159   2.400   1.097 -0.0916  0.5872  1.1117
  410SOL     MW 1640   1.094   2.432   1.142 -0.4809  0.3833  0.3985
  411SOL     OW 1641   1.991   2.935   2.917  0.0568  0.0254  0.3918
  411SOL    HW1 1642   1.994   2.915   2.821  1.4330 -1.9458 -1.0282
  411SOL    HW2 1643   1.954   3.025   2.923  2.2703 -1.2260 -0.1324
  411SOL     MW 1644   1.986   2.944   2.905  0.5304 -0.3998  0.1353
  412SOL     OW 1645   1.026   2.239   0.622 -0.7595 -0.3595 -0.6037
  412SOL    HW1 1646   1.095   2.306   0.642 -0.1104  1.0025 -1.0575
  412SOL    HW2 1647   0.949   2.282   0.591 -0.2774  1.2609 -3.5575
  412SOL     MW 1648   1.025   2.254   0.621 -0.6103  0.0340 -1.0533
  413SOL     OW 1649   0.626   2.695   0.033 -0.3661  0.0979 -0.3449
  413SOL    HW1 1650   0.706   2.645   0.059  1.6393 -1.2097 -0.9720
  413SOL    HW2 1651   0.622   2.660  -0.058 -0.7190 -0.6585  1.0806
  413SOL     MW 1652   0.636   2.684   0.024 -0.1481 -0.1744 -0.2396
  414SOL     OW 1653   2.040   2.985   1.103  0.3228 -0.0868 -0.0137
  414SOL    HW1 1654   2.026   3.078   1.116 -2.1821 -1.4061  2.2425
  414SOL    HW2 1655   2.048   2.963   1.011 -1.5771 -0.3738 -1.9164
  414SOL     MW 1656   2.039   2.994   1.092 -0.2583 -0.2987  0.0329
  415SOL     OW 1657   1.648   2.841   1.141  0.1561  0.1823  0.3838
  415SOL    HW1 1658   1.713   2.839   1.210 -1.3039 -0.1330 -0.0176
  415SOL    HW2 1659   1.689   2.783   1.077  1.5932  0.1318  3.3945
  415SOL     MW 1660   1.662   2.833   1.141  0.1531  0.1341  0.7281
  416SOL     OW 1661   0.630   1.788   1.430  0.3538  0.3457  0.1300
  416SOL    HW1 1662   0.536   1.795   1.439 -2.6811  3.8656 -2.4539
  416SOL    HW2 1663   0.647   1.712   1.370 -2.1958  0.1431  0.5087
  416SOL     MW 1664   0.620   1.779   1.423 -0.3830  0.7834 -0.1610
  417SOL     OW 1665   0.935   0.056   2.055 -0.6551 -0.1619  0.5528
  417SOL    HW1 1666   0.854   0.065   2.094  1.2765 -0.8353 -0.4084
  417SOL    HW2 1667   0.924  -0.006   1.985  1.5863 -1.0645  1.3714
  417SOL     MW 1668   0.923   0.049   2.051 -0.1045 -0.3698  0.5339
  418SOL     OW 1669   0.792   2.881   0.181 -0.2557 -0.1469  0.4662
  418SOL    HW1 1670   0.862   2.859   0.118 -0.6375  0.9744 -0.9017
  418SOL    HW2 1671   0.712   2.825   0.161  0.9397 -1.5365  0.6824
  418SOL     MW 1672   0.790   2.871   0.170 -0.1484 -0.1823  0.3142
  419SOL     OW 1673   0.637   2.687   1.323  0.0729  0.0349 -0.2705
  419SOL    HW1 1674   0.630   2.767   1.367  1.3465 -1.1072  1.5387
  419SOL    HW2 1675   0.721   2.641   1.336  1.4164 -0.5842 -1.1896
  419SOL     MW 1676   0.647   2.691   1.331  0.4182 -0.1975 -0.1530
  420SOL     OW 1677   0.820   2.232   1.106  0.5904 -0.4443  0.3858
  420SOL    HW1 1678   0.757   2.279   1.165 -0.6095 -0.2783 -2.7365
  420SOL    HW2 1679   0.876   2.299   1.071  0.1052 -1.7560  1.2156
  420SOL     MW 1680   0.819   2.247   1.109  0.3680 -0.5954  0.0833
  421SOL     OW 1681   2.910   0.150   0.092  0.9373 -1.0002 -0.4364
  421SOL    HW1 1682   2.828   0.126   0.052  1.0142  0.2482  3.1257
  421SOL    HW2 1683   2.945   0.063   0.087 -0.6669  0.3651 -1.7851
  421SOL     MW 1684   2.904   0.136   0.086  0.7358 -0.6554 -0.1443
  422SOL     OW 1685   0.877   2.457   0.976  0.7215 -0.5612 -0.0676
  422SOL    HW1 1686   0.792   2.479   1.010  3.9731 -1.2484  1.5083
  422SOL    HW2 1687   0.884   2.490   0.889 -0.2704 -1.1712 -0.4344
  422SOL     MW 1688   0.867   2.465   0.969  1.0196 -0.7323  0.0919
  423SOL     OW 1689   1.523   0.033   0.485  0.1227  0.3287  0.2332
  423SOL    HW1 1690   1.566  -0.005   0.408  3.1331 -1.0338  1.0482
  423SOL    HW2 1691   1.500   0.122   0.466 -0.1300  1.0340  0.6871
  423SOL     MW 1692   1.526   0.040   0.473  0.4866  0.2420  0.4006
  424SOL     OW 1693   0.649   2.293   1.348 -0.7876  0.2539 -0.0885
  424SOL    HW1 1694   0.598   2.218   1.319  1.6669 -0.8972 -2.0269
  424SOL    HW2 1695   0.709   2.255   1.411  0.2541  1.4837  0.0121
  424SOL     MW 1696   0.650   2.278   1.353 -0.3263  0.2643 -0.3310
  425SOL     OW 1697   1.712   2.794   2.053  0.3979 -0.3494  0.3353
  425SOL    HW1 1698   1.745   2.817   1.961 -0.1291  0.4823 -2.1499
  425SOL    HW2 1699   1.768   2.717   2.070  1.2923 -0.0767 -1.0139
  425SOL     MW 1700   1.724   2.787   2.043  0.4464 -0.2037 -0.1706
  426SOL     OW 1701   0.857   1.680   1.931 -0.7340  0.2537  0.0830
  426SOL    HW1 1702   0.778   1.681   1.871 -1.3053  2.6316 -0.3582
  426SOL    HW2 1703   0.852   1.743   1.998  2.0061  0.0194 -2.4629
  426SOL     MW 1704   0.846   1.689   1.932 -0.4479  0.5365 -0.3111
  427SOL     OW 1705   0.371   1.759   1.863  0.1466 -0.3662  0.1183
  427SOL    HW1 1706   0.409   1.683   1.817 -2.4322  2.0508  2.5255
  427SOL    HW2 1707   0.310   1.714   1.929 -3.3699 -0.9273 -2.2943
  427SOL     MW 1708   0.368   1.743   1.865 -0.6576 -0.1213  0.1176
  428SOL     OW 1709   0.653   2.549   1.097 -0.3546 -0.4048  0.6388
  428SOL    HW1 1710   0.585   2.475   1.091 -1.9618 -0.4431 -0.1339
  428SOL    HW2 1711   0.634   2.598   1.173 -2.0760  0.8038 -1.2279
  428SOL     MW 1712   0.641   2.545   1.107 -0.7938 -0.2504  0.2906
  429SOL     OW 1713   1.193   2.772   1.088 -0.0119  0.6181 -0.0041
  429SOL    HW1 1714   1.116   2.764   1.145 -1.2782  0.6141 -1.8562
  429SOL    HW2 1715   1.216   2.860   1.067  0.5377  0.2896  0.4327
  429SOL     MW 1716   1.186   2.782   1.093 -0.1065  0.5742 -0.1908
  430SOL     OW 1717   1.173   2.825   0.809  0.7118 -0.1592 -0.3958
  430SOL    HW1 1718   1.173   2.773   0.891 -2.7894  1.0146 -0.4996
  430SOL    HW2 1719   1.126   2.780   0.741 -1.1761 -0.0271 -0.0471
  430SOL     MW 1720   1.167   2.812   0.811  0.0008  0.0131 -0.3635
  431SOL     OW 1721   0.323   1.911   1.112  0.0338 -0.2249  0.3424
  431SOL    HW1 1722   0.408   1.866   1.122  3.1684 -0.0899  1.2842
  431SOL    HW2 1723   0.304   1.922   1.021 -1.3335 -0.5383 -0.7792
  431SOL     MW 1724   0.332   1.907   1.101  0.2669 -0.2485  0.3186
  432SOL     OW 1725   0.021   3.098   1.119 -0.3634  0.1237  0.3745
  432SOL    HW1 1726   0.007   3.144   1.202 -2.4303  1.3527  0.9200
  432SOL    HW2 1727  -0.017   3.017   1.147  3.1095  1.7412 -3.6213
  432SOL     MW 1728   0.014   3.094   1.134 -0.1779  0.4993 -0.0807
  433SOL     OW 1729   0.637   2.927   1.494  0.0882  0.1231  0.0165
  433SOL    HW1 1730   0.646   3.022   1.506 -1.3852  1.7636 -1.1952
  433SOL    HW2 1731   0.707   2.910   1.558  1.4868  1.9656  4.0604
  433SOL     MW 1732   0.647   2.937   1.504  0.0783  0.5826  0.3902
  434SOL     OW 1733   1.484   2.827   1.750 -0.4379 -0.4824  0.9550
  434SOL    HW1 1734   1.425   2.897   1.783  2.1795  1.3264  0.9252
  434SOL    HW2 1735   1.465   2.819   1.652 -1.0813  2.1363  1.2188
  434SOL     MW 1736   1.474   2.835   1.742 -0.1774  0.1018  0.9859
  435SOL     OW 1737   2.702   1.789   0.268  0.0828  0.7295  1.1717
  435SOL    HW1 1738   2.769   1.839   0.213 -1.1023 -0.7258  1.8657
  435SOL    HW2 1739   2.619   1.799   0.234 -0.2572 -1.7941  0.1194
  435SOL     MW 1740   2.700   1.797   0.257 -0.1184  0.2046  1.1244
  436SOL     OW 1741   1.347   2.749   0.356  0.6073  0.5814 -0.1267
  436SOL    HW1 1742   1.412   2.735   0.421 -1.5328  1.0548 -3.0278
  436SOL    HW2 1743   1.338   2.843   0.367 -0.1859  0.8168  1.0855
  436SOL     MW 1744   1.355   2.760   0.366  0.2203  0.6749 -0.3495
  437SOL     OW 1745   0.923   3.046   1.299 -0.4245  0.3142  0.1603
  437SOL    HW1 1746   0.965   3.109   1.240  1.1277  0.2253 -1.0504
  437SOL    HW2 1747   0.908   2.970   1.243 -2.7614  3.8252  0.4373
  437SOL     MW 1748   0.926   3.044   1.284 -0.5280  0.7657  0.0371
  438SOL     OW 1749   0.871   2.711   1.968 -0.2803 -0.2065 -0.0930
  438SOL    HW1 1750   0.865   2.647   2.043 -2.0377 -1.0885  3.6655
  438SOL    HW2 1751   0.858   2.659   1.887  0.0080 -0.5225  2.6140
  438SOL     MW 1752   0.868   2.696   1.967 -0.4741 -0.3645  0.7600
  439SOL     OW 1753   1.176   2.063   0.446 -0.6247 -0.1103  0.0909
  439SOL    HW1 1754   1.138   2.095   0.526  1.1134  1.2591  2.1632
  439SOL    HW2 1755   1.182   2.146   0.392  0.5483 -0.0493  1.2102
  439SOL     MW 1756   1.172   2.078   0.449 -0.2406  0.0784  0.5120
  440SOL     OW 1757   1.769   2.776   3.008  0.4136 -1.1328  0.0181
  440SOL    HW1 1758   1.789   2.783   3.103 -0.5468 -2.8894  2.0785
  440SOL    HW2 1759   1.846   2.807   2.966  0.0116  0.2938  1.3485
  440SOL     MW 1760   1.782   2.781   3.015  0.2338 -1.1763  0.4655
  441SOL     OW 1761   0.501   2.725   0.415 -0.3557  1.0209 -0.0475
  441SOL    HW1 1762   0.460   2.692   0.333 -1.5666 -0.0722 -0.6918
  441SOL    HW2 1763   0.511   2.816   0.412  1.7970 -2.2241  1.2771
  441SOL     MW 1764   0.497   2.733   0.403 -0.2315  0.4485  0.0423
  442SOL     OW 1765   0.022   2.369   0.630 -0.0118  0.3907 -0.3980
  442SOL    HW1 1766   0.011   2.467   0.628 -0.0810 -2.1709  0.2697
  442SOL    HW2 1767  -0.061   2.336   0.660  0.7764  0.4816  0.2251
  442SOL     MW 1768   0.010   2.377   0.634  0.0830  0.0647 -0.2277
  443SOL     OW 1769   1.469   1.779   1.933  0.3508  0.6302  0.2498
  443SOL    HW1 1770   1.429   1.799   1.848 -0.8030 -0.7032  0.2765
  443SOL    HW2 1771   1.466   1.684   1.940 -3.3804  3.4058  3.2688
  443SOL     MW 1772   1.463   1.769   1.923 -0.2937  0.8205  0.6517
  444SOL     OW 1773   0.931   2.589   1.604 -0.3736 -0.0302 -0.0641
  444SOL    HW1 1774   0.995   2.563   1.666  0.7348 -1.5108 -0.8794
  444SOL    HW2 1775   0.849   2.586   1.651  0.1578 -1.4611  0.4406
  444SOL     MW 1776   0.929   2.585   1.618 -0.1573 -0.4144 -0.1051
  445SOL     OW 1777   1.203   0.079   1.390  0.0758  0.1864 -0.5400
  445SOL    HW1 1778   1.161   0.127   1.461 -0.7776  0.7223 -1.0478
  445SOL    HW2 1779   1.230   0.142   1.324 -0.0551 -2.5593 -2.5260
  445SOL     MW 1780   1.201   0.094   1.390 -0.0541 -0.1052 -0.8690
  446SOL     OW 1781   2.707   2.852   1.064 -0.4003 -0.1549  0.1738
  446SOL    HW1 1782   2.663   2.913   1.007 -4.1274  0.7421  1.4915
  446SOL    HW2 1783   2.759   2.791   1.010 -1.8586 -2.5019  1.7067
  446SOL     MW 1784   2.708   2.852   1.049 -1.0844 -0.3462  0.5499
  447SOL     OW 1785   0.043   1.949   1.565  0.3978  0.3281 -0.2563
  447SOL    HW1 1786   0.074   1.887   1.635 -1.5852 -0.8638  0.5522
  447SOL    HW2 1787  -0.043   1.913   1.533  2.1182  1.7726  0.9182
  447SOL     MW 1788   0.036   1.936   1.570  0.3632  0.3615  0.0053
  448SOL     OW 1789   1.703   2.343   1.671 -0.5938 -0.1614  0.0934
  448SOL    HW1 1790   1.663   2.259   1.676  1.0264 -1.1728  0.9109
  448SOL    HW2 1791   1.630   2.402   1.684 -0.8544  0.0310 -0.8058
  448SOL     MW 1792   1.688   2.340   1.673 -0.4144 -0.2694  0.0826
  449SOL     OW 1793   0.950   2.897   0.405  0.5467 -0.5044  0.1060
  449SOL    HW1 1794   0.891   2.869   0.334  0.8794 -1.0338 -1.4247
  449SOL    HW2 1795   0.884   2.920   0.474  0.6320  1.3010  1.0648
  449SOL     MW 1796   0.933   2.897   0.405  0.6019 -0.3361  0.0306
  450SOL     OW 1797   1.153   2.526   0.731  0.6368  0.3805  0.5734
  450SOL    HW1 1798   1.180   2.509   0.824 -0.7821  0.4317 -2.4873
  450SOL    HW2 1799   1.230   2.501   0.675  0.2625 -1.4697 -2.1692
  450SOL     MW 1800   1.166   2.520   0.736  0.4002  0.1432 -0.1923
  451SOL     OW 1801   0.551   2.004   1.698 -0.2723  0.0747 -0.0466
  451SOL    HW1 1802   0.637   1.979   1.672  0.7012 -1.2535  0.1065
  451SOL    HW2 1803   0.501   1.968   1.622  1.1601  3.0886 -0.5291
  451SOL     MW 1804   0.555   1.996   1.685  0.0451  0.2971 -0.0901
  452SOL     OW 1805   0.323   2.626   3.087 -0.7744 -0.4691  0.1117
  452SOL    HW1 1806   0.404   2.675   3.068  0.9394  1.7962  0.3389
  452SOL    HW2 1807   0.261   2.697   3.073 -1.8269 -1.9910  0.8334
  452SOL     MW 1808   0.326   2.642   3.082 -0.6872 -0.3710  0.2369
  453SOL     OW 1809   0.211   3.003   1.573 -0.3624 -0.2804  0.0499
  453SOL    HW1 1810   0.265   2.951   1.629  0.7210  0.0903 -0.3846
  453SOL    HW2 1811   0.252   2.979   1.493 -2.5595 -0.6975  1.1690
  453SOL     MW 1812   0.224   2.993   1.570 -0.5094 -0.2865  0.1402
  454SOL     OW 1813   0.941   2.777   1.185  1.1518  0.0262 -0.1398
  454SOL    HW1 1814   0.921   2.699   1.230  0.9067  0.8434  1.3514
  454SOL    HW2 1815   0.870   2.789   1.124  2.0820 -0.2852 -0.6678
  454SOL     MW 1816   0.929   2.768   1.183  1.2422  0.0929 -0.0127
  455SOL     OW 1817   1.756   2.851   0.178 -0.2852 -0.3834 -0.1980
  455SOL    HW1 1818   1.780   2.849   0.274 -1.5691  0.5953  2.4271
  455SOL    HW2 1819   1.672   2.798   0.173 -2.4111 -0.9105  2.0352
  455SOL     MW 1820   1.748   2.844   0.190 -0.7351 -0.3238  0.4430
  456SOL     OW 1821   2.758   0.262   1.460 -0.0604 -0.3351  0.2022
  456SOL    HW1 1822   2.756   0.195   1.391  2.0755 -1.2116 -0.9125
  456SOL    HW2 1823   2.802   0.339   1.421 -2.4495  0.0403  0.7920
  456SOL     MW 1824   2.764   0.264   1.446 -0.0938 -0.4012  0.1329
  457SOL     OW 1825   0.804   1.661   3.052  0.8260  0.3461  0.1464
  457SOL    HW1 1826   0.711   1.633   3.067  1.0854  0.6817  2.4627
  457SOL    HW2 1827   0.831   1.682   3.140  0.2071  0.9289  0.3894
  457SOL     MW 1828   0.795   1.660   3.066  0.7786  0.4672  0.4840
  458SOL     OW 1829   1.360   1.469   0.710  0.2288 -0.3081  0.7911
  458SOL    HW1 1830   1.293   1.537   0.693 -0.9576  3.5272 -1.8248
  458SOL    HW2 1831   1.326   1.381   0.695  0.8599 -0.4167 -0.3019
  458SOL     MW 1832   1.347   1.467   0.706  0.1555  0.1836  0.3017
  459SOL     OW 1833   1.605   3.046   0.253  0.0348 -0.1537 -0.4184
  459SOL    HW1 1834   1.653   2.969   0.214  1.4185  0.4624 -0.2053
  459SOL    HW2 1835   1.534   3.066   0.190  0.9561 -1.9875  0.5553
  459SOL     MW 1836   1.602   3.038   0.240  0.3389 -0.3144 -0.2618
  460SOL     OW 1837   1.769   2.236   0.637  0.0600  0.0128  0.3015
  460SOL    HW1 1838   1.686   2.217   0.685  1.3250 -0.0003 -1.1932
  460SOL    HW2 1839   1.820   2.151   0.633 -2.0391  0.9285 -1.1761
  460SOL     MW 1840   1.764   2.222   0.643 -0.0500  0.1319 -0.0907
  461SOL     OW 1841   0.400   2.437   0.520  0.2031  0.5792  0.2632
  461SOL    HW1 1842   0.401   2.517   0.474  0.4123  0.4356 -1.7767
  461SOL    HW2 1843   0.394   2.459   0.610 -0.5935 -0.1095 -1.5505
  461SOL     MW 1844   0.400   2.450   0.526  0.1256  0.4694 -0.2453
  462SOL     OW 1845   0.285   0.245   1.288  0.1371  0.0401  0.0405
  462SOL    HW1 1846   0.326   0.179   1.233 -0.5027  0.6128 -0.1350
  462SOL    HW2 1847   0.358   0.249   1.353 -1.8790 -1.2389 -0.8464
  462SOL     MW 1848   0.300   0.237   1.289 -0.2134 -0.0531 -0.0997
  463SOL     OW 1849   1.103   0.065   0.725  0.2008  0.3450 -0.4682
  463SOL    HW1 1850   1.170   0.012   0.683 -2.4048 -1.3615  0.7256
  463SOL    HW2 1851   1.033   0.079   0.657 -0.0943  1.7108  1.8416
  463SOL     MW 1852   1.102   0.060   0.711 -0.1819  0.3000 -0.0060
  464SOL     OW 1853   0.738   3.080   2.280  0.1991  0.3501 -0.1034
  464SOL    HW1 1854   0.734   2.980   2.280  0.6365 -0.2590  0.4344
  464SOL    HW2 1855   0.744   3.091   2.380 -0.4918 -1.6181 -0.5601
  464SOL     MW 1856   0.738   3.068   2.294  0.1656  0.0101 -0.0927
  465SOL     OW 1857   0.834   0.343   0.373  0.1275  0.5647  0.6006
  465SOL    HW1 1858   0.804   0.268   0.423 -0.1452 -1.2112 -1.1159
  465SOL    HW2 1859   0.826   0.309   0.281  0.1466  1.0800  2.8376
  465SOL     MW 1860   0.829   0.328   0.367  0.0940  0.3984  0.6693
  466SOL     OW 1861   1.121   2.054   0.788 -0.4282 -0.4060 -0.2110
  466SOL    HW1 1862   1.084   1.973   0.764  0.7619 -1.2018  0.9448
  466SOL    HW2 1863   1.085   2.126   0.729  1.6503  3.3252  2.3328
  466SOL     MW 1864   1.111   2.053   0.777  0.0031 -0.0187  0.2771
  467SOL     OW 1865   1.275   2.348   0.979 -0.1741  0.2376  0.1329
  467SOL    HW1 1866   1.363   2.367   1.008 -0.4043  1.6928 -0.1486
  467SOL    HW2 1867   1.290   2.256   0.952  0.3289 -1.4572  0.4257
  467SOL     MW 1868   1.289   2.339   0.979 -0.1381  0.2060  0.1344
  468SOL     OW 1869   0.507   2.664   1.913 -0.9390  0.5462  0.1926
  468SOL    HW1 1870   0.452   2.589   1.869  1.1436 -6.5952 -0.0602
  468SOL    HW2 1871   0.467   2.745   1.880 -0.7823 -2.4713  0.1155
  468SOL     MW 1872   0.495   2.665   1.903 -0.6435 -0.7942  0.1491
  469SOL     OW 1873   0.322   2.152   1.805 -0.2151  0.2895 -0.2580
  469SOL    HW1 1874   0.252   2.094   1.825  1.7067  0.1365  1.8751
  469SOL    HW2 1875   0.399   2.101   1.778 -0.8699  1.4509 -3.3101
  469SOL     MW 1876   0.323   2.138   1.804 -0.0480  0.4226 -0.3792
  470SOL     OW 1877   3.037   2.584   0.094 -0.0057  0.0045  0.2285
  470SOL    HW1 1878   2.952   2.589   0.143 -1.2339  0.8147  0.0785
  470SOL    HW2 1879   3.015   2.586  -0.001 -1.0101  0.7045  0.3082
  470SOL     MW 1880   3.023   2.585   0.088 -0.3003  0.2038  0.2192
  471SOL     OW 1881   1.152   2.648   1.367 -0.5281 -0.2384  0.4751
  471SOL    HW1 1882   1.075   2.610   1.409 -1.0222  0.6182 -1.4325
  471SOL    HW2 1883   1.187   2.589   1.301  2.4841  3.5686 -2.2363
  471SOL     MW 1884   1.146   2.635   1.364 -0.1958  0.3769 -0.1343
  472SOL     OW 1885   2.971   2.133   0.357 -0.0183  0.4202  0.2494
  472SOL    HW1 1886   2.955   2.085   0.277 -0.0047 -2.7396  2.0428
  472SOL    HW2 1887   2.909   2.074   0.412 -2.4868 -0.6168  1.0604
  472SOL     MW 1888   2.961   2.119   0.354 -0.3422 -0.1335  0.5930
  473SOL     OW 1889   0.864   2.547   1.324  0.0764 -0.0130  0.2048
  473SOL    HW1 1890   0.903   2.463   1.311  1.5923  0.9987  0.3737
  473SOL    HW2 1891   0.866   2.551   1.419  3.7295  0.8852 -1.5921
  473SOL     MW 1892   0.869   2.536   1.335  0.7584  0.2390 -0.0100
  474SOL     OW 1893   0.698   2.284   1.840  1.1579 -0.3655 -0.1024
  474SOL    HW1 1894   0.789   2.274   1.864  0.8133  0.8247  1.7227
  474SOL    HW2 1895   0.687   2.267   1.751 -0.6220  3.3533 -1.9673
  474SOL     MW 1896   0.708   2.280   1.832  0.8776  0.2822 -0.1077
  475SOL     OW 1897   1.602   3.078   1.521  0.2126  0.5009 -0.6815
  475SOL    HW1 1898   1.547   3.014   1.478 -0.5925 -1.6763  2.3832
  475SOL    HW2 1899   1.633   3.025   1.594 -0.9005  0.2354 -0.6371
  475SOL     MW 1900   1.599   3.063   1.525 -0.0405  0.1786 -0.2713
  476SOL     OW 1901   1.421   2.669   1.183  0.0203  0.8035  0.1850
  476SOL    HW1 1902   1.346   2.707   1.150  2.9808  0.6274 -0.2997
  476SOL    HW2 1903   1.489   2.737   1.167  2.0343 -1.9383  0.8254
  476SOL     MW 1904   1.420   2.683   1.176  0.6766  0.4185  0.2056
  477SOL     OW 1905   0.851   2.536   0.708  0.1406  0.0655 -0.1283
  477SOL    HW1 1906   0.941   2.568   0.691  2.0722 -0.9478  0.6180
  477SOL    HW2 1907   0.850   2.469   0.636  0.9111 -0.0643 -0.5866
  477SOL     MW 1908   0.863   2.531   0.696  0.4971 -0.0853 -0.0903
  478SOL     OW 1909   0.225   2.653   0.891 -0.5154 -0.2836 -0.6005
  478SOL    HW1 1910   0.275   2.738   0.879 -0.1664 -1.5071  2.0365
  478SOL    HW2 1911   0.289   2.583   0.866  1.1867  2.1407 -1.8333
  478SOL     MW 1912   0.240   2.655   0.886 -0.2448 -0.1251 -0.4152
  479SOL     OW 1913   1.404   1.971   1.267 -0.4726  0.4353  0.0732
  479SOL    HW1 1914   1.396   2.002   1.359 -0.3890 -1.4461 -0.9127
  479SOL    HW2 1915   1.444   1.884   1.282 -2.0178 -0.5907 -1.0300
  479SOL     MW 1916   1.408   1.963   1.281 -0.6655  0.0517 -0.2025
  480SOL     OW 1917   1.994   2.453   1.374 -0.6598  0.3027 -0.3598
  480SOL    HW1 1918   1.986   2.355   1.366 -0.8717 -1.6569 -1.0504
  480SOL    HW2 1919   1.960   2.484   1.292  1.2456 -1.9443  1.9438
  480SOL     MW 1920   1.989   2.444   1.362 -0.4363 -0.2523 -0.1470
  481SOL     OW 1921   1.072   0.099   1.070  0.4625 -0.4983  0.2727
  481SOL    HW1 1922   1.141   0.031   1.059  0.4996  0.2672 -0.6522
  481SOL    HW2 1923   1.129   0.174   1.070  0.8758 -1.4227  0.4209
  481SOL     MW 1924   1.089   0.100   1.068  0.5220 -0.5193  0.1702
  482SOL     OW 1925   1.050   0.009   0.260 -0.4641 -0.6187  0.0551
  482SOL    HW1 1926   1.021  -0.061   0.319 -2.0135  0.0772  1.6684
  482SOL    HW2 1927   1.044   0.096   0.299 -0.6949  0.9941  0.8084
  482SOL     MW 1928   1.045   0.012   0.273 -0.6990 -0.3141  0.3673
  483SOL     OW 1929   0.458   2.990   0.462  0.7740 -0.5261 -0.1289
  483SOL    HW1 1930   0.391   2.977   0.390  2.9190 -0.3625 -4.5652
  483SOL    HW2 1931   0.405   3.033   0.534 -3.2779 -0.8155  1.7847
  483SOL     MW 1932   0.442   2.994   0.462  0.5224 -0.5427 -0.4617
  484SOL     OW 1933   1.826   2.020   1.420  0.1929  0.6501  0.3878
  484SOL    HW1 1934   1.883   2.099   1.411  0.6827  3.2814 -1.8380
  484SOL    HW2 1935   1.788   2.023   1.511  0.3454 -1.9784 -0.2730
  484SOL     MW 1936   1.829   2.031   1.431  0.2777  0.6505  0.0069
  485SOL     OW 1937   0.623   2.416   0.293  0.0162 -0.0479  0.1885
  485SOL    HW1 1938   0.668   2.401   0.384  3.2857  1.2800  2.0878
  485SOL    HW2 1939   0.550   2.473   0.304  1.5826  1.7366 -0.5043
  485SOL     MW 1940   0.619   2.421   0.306  0.6542  0.3627  0.3477
  486SOL     OW 1941   0.182   2.394   1.436 -0.4217 -0.4374  0.8779
  486SOL    HW1 1942   0.219   2.477   1.413  1.6693 -1.4038  0.0084
  486SOL    HW2 1943   0.144   2.419   1.520  1.1553 -0.8828  0.9104
  486SOL     MW 1944   0.182   2.408   1.444  0.0622 -0.6237  0.7674
  487SOL     OW 1945   1.182   1.758   1.030 -0.4820  0.3575  0.4637
  487SOL    HW1 1946   1.169   1.833   1.083  2.5621  1.0928  0.9523
  487SOL    HW2 1947   1.274   1.734   1.043  1.5781 -0.8040 -0.5235
  487SOL     MW 1948   1.193   1.765   1.039  0.1914  0.3013  0.3979
  488SOL     OW 1949   1.592   1.841   0.549 -0.2616  0.6949 -0.4472
  488SOL    HW1 1950   1.670   1.860   0.498  2.5441 -2.6156 -1.3170
  488SOL    HW2 1951   1.537   1.922   0.547  0.5719  2.2484  1.2594
  488SOL     MW 1952   1.595   1.854   0.542  0.2185  0.4631 -0.3368
  489SOL     OW 1953   0.787   0.831   0.601 -0.1549 -0.1207 -0.5236
  489SOL    HW1 1954   0.795   0.767   0.530  1.4512  0.3260  0.0535
  489SOL    HW2 1955   0.767   0.784   0.685  0.4038  0.2980 -1.3392
  489SOL     MW 1956   0.785   0.816   0.603  0.1307 -0.0065 -0.5550
  490SOL     OW 1957   1.438   2.060   0.522 -0.0769 -0.3281 -0.8213
  490SOL    HW1 1958   1.460   2.129   0.454  0.1392 -0.1113 -2.4489
  490SOL    HW2 1959   1.349   2.043   0.503  0.3281 -0.5971 -1.3205
  490SOL     MW 1960   1.429   2.067   0.511  0.0050 -0.3350 -1.1019
  491SOL     OW 1961   1.271   2.996   0.407  0.6481  0.1254  0.0159
  491SOL    HW1 1962   1.339   3.051   0.444  5.7745  0.1601  1.9924
  491SOL    HW2 1963   1.214   3.049   0.350  1.5919  0.5910 -2.5305
  491SOL     MW 1964   1.273   3.010   0.404  1.4490  0.1914 -0.0593
  492SOL     OW 1965   1.527   2.201   0.738 -0.4833  0.0233  0.5471
  492SOL    HW1 1966   1.493   2.141   0.674  0.9474  2.0686  1.8643
  492SOL    HW2 1967   1.499   2.154   0.818  0.9826 -2.9955  1.8187
  492SOL     MW 1968   1.518   2.187   0.740 -0.1011 -0.1052  0.8887
  493SOL     OW 1969   0.255   2.955   0.286  0.7109  0.2850  0.2386
  493SOL    HW1 1970   0.185   2.992   0.343  3.0534  1.2442 -0.3641
  493SOL    HW2 1971   0.235   3.005   0.203  2.2220 -0.0187 -3.1328
  493SOL     MW 1972   0.243   2.966   0.283  1.2194  0.3715 -0.2858
  494SOL     OW 1973   0.438   2.441   1.774  0.2054 -0.1506 -0.3744
  494SOL    HW1 1974   0.479   2.364   1.810  1.9684 -1.1580 -1.9414
  494SOL    HW2 1975   0.487   2.458   1.698 -1.9907  2.4845  2.6582
  494SOL     MW 1976   0.449   2.433   1.769  0.1482  0.0642 -0.1810
  495SOL     OW 1977   2.828   1.731   2.558 -0.1098  0.1750 -0.3748
  495SOL    HW1 1978   2.795   1.824   2.541 -2.9921 -1.5458 -0.2192
  495SOL    HW2 1979   2.795   1.727   2.649  1.6767 -1.5168 -0.7728
  495SOL     MW 1980   2.819   1.743   2.568 -0.2544 -0.2753 -0.4068
  496SOL     OW 1981   2.926   2.350   2.648 -0.3478 -0.6948 -0.1606
  496SOL    HW1 1982   2.954   2.309   2.728 -0.8520  1.0835 -0.1247
  496SOL    HW2 1983   2.989   2.422   2.645  0.5331 -0.4600 -0.0234
  496SOL     MW 1984   2.938   2.354   2.658 -0.2981 -0.4292 -0.1378
  497SOL     OW 1985   1.541   2.222   2.667 -0.3417  0.3668  0.2644
  497SOL    HW1 1986   1.448   2.215   2.669  0.7969 -2.2211 -1.0624
  497SOL    HW2 1987   1.576   2.140   2.706  0.2630  0.1646 -0.1631
  497SOL     MW 1988   1.533   2.211   2.672 -0.1117 -0.0013  0.0330
  498SOL     OW 1989   1.488   2.683   2.358  0.2794  0.3128  0.0177
  498SOL    HW1 1990   1.462   2.592   2.357 -0.4244  1.5954 -2.5784
  498SOL    HW2 1991   1.581   2.686   2.355  0.2335  1.1210  0.0019
  498SOL     MW 1992   1.497   2.672   2.358  0.1805  0.5887 -0.3269
  499SOL     OW 1993   0.966   0.148   3.069 -0.8028  0.0555 -0.5741
  499SOL    HW1 1994   0.903   0.126   3.143 -0.9053 -0.6794  2.4485
  499SOL    HW2 1995   1.035   0.080   3.087  2.6888 -0.3102  0.4477
  499SOL     MW 1996   0.967   0.136   3.081 -0.3556 -0.0897 -0.0405
  500SOL     OW 1997   1.051   2.484   2.775 -0.3093 -0.1577 -0.3053
  500SOL    HW1 1998   1.127   2.470   2.840  0.0375 -0.6547 -1.2941
  500SOL    HW2 1999   0.972   2.511   2.825 -2.6444 -0.2588 -0.2953
  500SOL     MW 2000   1.050   2.485   2.790 -0.5716 -0.2366 -0.4345
  501SOL     OW 2001   1.765   2.216   3.070 -0.0600  0.1079 -0.4087
  501SOL    HW1 2002   1.699   2.282   3.086 -1.0431 -1.4534  1.7320
  501SOL    HW2 2003   1.847   2.255   3.103 -0.0794 -0.7725 -1.9505
  501SOL     MW 2004   1.767   2.230   3.076 -0.1923 -0.2143 -0.3297
  502SOL     OW 2005   0.130   2.827   3.029 -0.2810  0.3934 -0.4948
  502SOL    HW1 2006   0.056   2.784   2.988 -0.9441  0.6212 -3.8111
  502SOL    HW2 2007   0.174   2.867   2.955  0.0300 -1.9042 -3.3428
  502SOL     MW 2008   0.126   2.826   3.014 -0.3274  0.1203 -1.3081
  503SOL     OW 2009   1.015   2.897   2.163  1.0041  0.7581 -0.7051
  503SOL    HW1 2010   0.981   2.840   2.092 -2.1184 -2.0846  3.3624
  503SOL    HW2 2011   0.991   2.986   2.144  0.5376  3.4640  2.5693
  503SOL     MW 2012   1.007   2.901   2.151  0.5305  0.7400  0.2636
  504SOL     OW 2013   0.082   2.725   2.135  0.6740 -0.5011 -0.2147
  504SOL    HW1 2014   0.102   2.631   2.117  0.0284  1.8808 -0.7739
  504SOL    HW2 2015   0.059   2.744   2.221  2.8575 -0.0630 -2.4374
  504SOL     MW 2016   0.082   2.715   2.144  0.8769 -0.1291 -0.5817
  505SOL     OW 2017   1.716   2.729   2.682 -0.1676 -0.1038  0.2879
  505SOL    HW1 2018   1.729   2.726   2.587  1.5449 -3.7176  2.0447
  505SOL    HW2 2019   1.626   2.749   2.700  0.9607 -0.3868 -2.4111
  505SOL     MW 2020   1.706   2.731   2.672  0.2072 -0.6179  0.1636
  506SOL     OW 2021   1.632   2.996   2.837  0.5806  0.2262  0.3619
  506SOL    HW1 2022   1.679   2.926   2.884 -0.4101  0.0959  1.8977
  506SOL    HW2 2023   1.688   3.030   2.765  1.3738  0.9772  2.1773
  506SOL     MW 2024   1.646   2.991   2.834  0.5546  0.3081  0.8041
  507SOL     OW 2025   0.813   2.785   2.894 -0.3031  1.0710  0.1462
  507SOL    HW1 2026   0.860   2.845   2.843  0.2994  0.6455  1.4720
  507SOL    HW2 2027   0.746   2.844   2.938  0.6285 -0.0793 -0.8589
  507SOL     MW 2028   0.811   2.801   2.893 -0.1007  0.8631  0.1885
  508SOL     OW 2029   1.138   2.043   2.497  0.0155  0.5376 -0.8751
  508SOL    HW1 2030   1.210   2.020   2.557 -2.6329  0.9065 -0.3467
  508SOL    HW2 2031   1.109   2.132   2.518 -2.7032  0.2502 -2.3817
  508SOL     MW 2032   1.143   2.051   2.508 -0.6927  0.5484 -1.0042
  509SOL     OW 2033   0.559   2.523   2.885 -0.4650 -0.1075  0.2046
  509SOL    HW1 2034   0.603   2.568   2.805  2.0089 -0.1758 -2.6569
  509SOL    HW2 2035   0.464   2.531   2.868 -1.7681 -0.2479  2.9695
  509SOL     MW 2036   0.552   2.530   2.872 -0.3105 -0.1351  0.1918
  510SOL     OW 2037   1.504   2.521   1.711 -0.2771  0.1083 -0.1556
  510SOL    HW1 2038   1.508   2.617   1.712 -0.4543  0.0735  1.3312
  510SOL    HW2 2039   1.459   2.503   1.795 -0.7386 -1.3313  2.8117
  510SOL     MW 2040   1.499   2.531   1.722 -0.3614 -0.0862  0.4321
  511SOL     OW 2041   0.416   2.594   2.465  0.9825 -0.1232  0.0758
  511SOL    HW1 2042   0.497   2.571   2.506 -0.3773 -0.0311  2.1926
  511SOL    HW2 2043   0.424   2.605   2.372 -1.0397 -0.7060  3.2803
  511SOL     MW 2044   0.428   2.593   2.458  0.5363 -0.1879  0.7779
  512SOL     OW 2045   1.001   1.976   2.847 -0.0969 -0.1157  0.0478
  512SOL    HW1 2046   0.919   1.969   2.894 -0.3264 -0.1406 -0.2027
  512SOL    HW2 2047   1.047   1.894   2.863  1.4165  0.7091  1.3657
  512SOL     MW 2048   0.996   1.965   2.855  0.0725 -0.0102  0.1886
  513SOL     OW 2049   1.460   2.403   2.401 -0.0359 -0.7648 -0.0502
  513SOL    HW1 2050   1.557   2.388   2.419  2.2803  1.2721  0.1587
  513SOL    HW2 2051   1.432   2.311   2.397  0.1677 -0.0544 -1.4360
  513SOL     MW 2052   1.469   2.389   2.403  0.2966 -0.4023 -0.2055
  514SOL     OW 2053   0.219   2.434   2.630  0.0319  0.0384 -0.0763
  514SOL    HW1 2054   0.273   2.502   2.577 -1.1764 -1.3474 -5.1834
  514SOL    HW2 2055   0.242   2.455   2.726  2.0553  1.5453  0.7414
  514SOL     MW 2056   0.230   2.446   2.636  0.1394  0.0544 -0.6422
  515SOL     OW 2057   1.157   2.060   1.931  0.4799  0.3365 -0.3168
  515SOL    HW1 2058   1.090   2.123   1.924  0.8191 -1.9023 -0.0766
  515SOL    HW2 2059   1.161   2.039   2.021  1.7762  2.3303 -2.7995
  515SOL     MW 2060   1.149   2.066   1.942  0.6957  0.3042 -0.6127
  516SOL     OW 2061   1.448   2.526   3.038 -0.3563 -0.4975  0.5703
  516SOL    HW1 2062   1.508   2.498   2.968 -3.6324  0.1274  1.1151
  516SOL    HW2 2063   1.369   2.486   3.009  0.4201  1.9999 -0.4145
  516SOL     MW 2064   1.446   2.517   3.025 -0.6862 -0.0856  0.5122
  517SOL     OW 2065   0.591   2.416   2.130 -0.4939  1.1382 -0.2088
  517SOL    HW1 2066   0.571   2.513   2.154  0.1603 -1.8328 -2.2204
  517SOL    HW2 2067   0.516   2.377   2.079 -1.4300 -1.9025  0.1346
  517SOL     MW 2068   0.578   2.423   2.126 -0.5311  0.3450 -0.4289
  518SOL     OW 2069   1.894   0.080   2.969  0.1044 -0.1375  0.7259
  518SOL    HW1 2070   1.830   0.107   2.900 -2.5138 -0.8796  0.2721
  518SOL    HW2 2071   1.835   0.071   3.046 -0.8677 -1.3167  0.3855
  518SOL     MW 2072   1.878   0.082   2.970 -0.3693 -0.3910  0.6212
  519SOL     OW 2073   0.735   2.554   1.781  0.2917 -0.4882 -0.0590
  519SOL    HW1 2074   0.723   2.456   1.809  2.9678 -0.2785  1.0967
  519SOL    HW2 2075   0.669   2.593   1.827  0.4880 -1.5988  0.9606
  519SOL     MW 2076   0.725   2.546   1.791  0.6707 -0.6071  0.2280
  520SOL     OW 2077   1.221   2.149   2.928 -0.5110 -0.3708 -0.2083
  520SOL    HW1 2078   1.142   2.121   2.884  0.9371 -1.1062  0.1620
  520SOL    HW2 2079   1.249   2.086   2.998  0.9217  1.6314  4.4097
  520SOL     MW 2080   1.215   2.137   2.932 -0.1309 -0.2036  0.4499
  521SOL     OW 2081   1.769   2.016   2.237  0.3295 -0.0819  0.1405
  521SOL    HW1 2082   1.765   2.044   2.145 -1.0215 -0.4469  1.0047
  521SOL    HW2 2083   1.766   1.920   2.247  0.8078 -0.3298  1.1722
  521SOL     MW 2084   1.768   2.007   2.226  0.2143 -0.1628  0.3907
  522SOL     OW 2085   2.841   2.594   2.215  0.4355  0.2932  0.2440
  522SOL    HW1 2086   2.920   2.543   2.234  3.4927  0.2377  0.5730
  522SOL    HW2 2087   2.784   2.589   2.292  1.9392  0.6659  1.8845
  522SOL     MW 2088   2.844   2.586   2.227  1.0373  0.3351  0.5038
  523SOL     OW 2089   0.848   1.498   2.131  0.4023 -0.1525 -0.3464
  523SOL    HW1 2090   0.849   1.565   2.060 -1.3119  0.2854  0.6872
  523SOL    HW2 2091   0.881   1.417   2.085 -0.0607 -0.3602 -1.5042
  523SOL     MW 2092   0.852   1.496   2.116  0.1151 -0.1221 -0.3628
  524SOL     OW 2093   0.839   2.461   2.960 -0.9709  0.0207 -0.0398
  524SOL    HW1 2094   0.751   2.491   2.957  1.8551  2.1050 -2.8725
  524SOL    HW2 2095   0.836   2.371   2.930  2.0260  0.0605  0.1055
  524SOL     MW 2096   0.827   2.453   2.955 -0.2027  0.3010 -0.3944
  525SOL     OW 2097   0.350   2.310   2.028 -0.4714  0.1391 -0.0200
  525SOL    HW1 2098   0.325   2.243   2.101 -1.7979 -1.2440 -1.3731
  525SOL    HW2 2099   0.352   2.262   1.943  0.4072 -0.3372  0.9942
  525SOL     MW 2100   0.347   2.295   2.026 -0.5305 -0.1062 -0.0647
  526SOL     OW 2101   0.636   2.119   2.077 -0.1609  0.0991  0.5882
  526SOL    HW1 2102   0.637   2.196   2.023  0.1581 -0.1176  0.9280
  526SOL    HW2 2103   0.657   2.154   2.160 -0.3035  0.5089 -1.0601
  526SOL     MW 2104   0.639   2.133   2.081 -0.1376  0.1246  0.4155
  527SOL     OW 2105   1.397   1.960   2.130  0.2657 -0.4427  0.4378
  527SOL    HW1 2106   1.370   1.892   2.199 -1.2423 -0.6861  1.0150
  527SOL    HW2 2107   1.410   1.910   2.049  0.8677  0.1217  0.4325
  527SOL     MW 2108   1.395   1.945   2.128  0.1461 -0.4004  0.5133
  528SOL     OW 2109   0.625   2.992   2.939 -0.6586  1.0257 -0.5409
  528SOL    HW1 2110   0.689   3.059   2.914 -0.1306  0.8212  0.7127
  528SOL    HW2 2111   0.561   2.996   2.867 -0.2091  0.6741  0.1136
  528SOL     MW 2112   0.625   3.002   2.926 -0.5297  0.9523 -0.2891
  529SOL     OW 2113   0.973   2.280   1.953  0.3350  0.4512  0.0551
  529SOL    HW1 2114   0.996   2.310   2.041 -0.8985  0.0054 -1.5221
  529SOL    HW2 2115   1.026   2.331   1.896 -0.1418 -0.4054 -0.6210
  529SOL     MW 2116   0.983   2.291   1.957  0.1093  0.2794 -0.2422
  530SOL     OW 2117   1.216   2.428   2.961 -0.2417  0.5424  0.5700
  530SOL    HW1 2118   1.149   2.445   3.023  0.1259  0.5990 -0.9781
  530SOL    HW2 2119   1.220   2.331   2.944  2.4182  1.2389 -0.8113
  530SOL     MW 2120   1.207   2.417   2.967  0.1578  0.6418  0.1835
  531SOL     OW 2121   0.932   1.852   2.569  0.1893  0.6131  0.0165
  531SOL    HW1 2122   0.988   1.927   2.554  2.0073  0.4071 -2.5250
  531SOL    HW2 2123   0.891   1.863   2.650 -1.6217 -4.1737 -0.0113
  531SOL     MW 2124   0.934   1.863   2.578  0.1902 -0.0457 -0.3225
  532SOL     OW 2125   1.750   0.200   2.762  0.2368 -0.3727 -0.1885
  532SOL    HW1 2126   1.652   0.217   2.763  2.0266  1.1062  1.0776
  532SOL    HW2 2127   1.774   0.185   2.674 -0.1423  0.1602  0.5728
  532SOL     MW 2128   1.740   0.201   2.751  0.4229 -0.1072  0.0790
  533SOL     OW 2129   1.951   2.572   0.003  0.5870 -0.1516 -0.3127
  533SOL    HW1 2130   1.884   2.525   0.053  0.4035 -1.7439 -0.2383
  533SOL    HW2 2131   1.891   2.640  -0.040  1.0412 -0.6542  1.5522
  533SOL     MW 2132   1.934   2.574   0.004  0.6227 -0.4280 -0.0569
  534SOL     OW 2133   1.715   2.366   2.499  0.1335 -0.0183  0.6596
  534SOL    HW1 2134   1.662   2.303   2.546  1.3480 -2.3434 -0.2460
  534SOL    HW2 2135   1.779   2.405   2.569  1.1023  1.2856  0.2347
  534SOL     MW 2136   1.717   2.363   2.514  0.4216 -0.1530  0.4840
  535SOL     OW 2137   1.883   2.391   1.866  0.0099 -0.6597 -0.0930
  535SOL    HW1 2138   1.835   2.389   1.781  1.7413 -1.8020  1.0847
  535SOL    HW2 2139   1.970   2.362   1.838 -0.6135  0.1033  0.5577
  535SOL     MW 2140   1.888   2.387   1.851  0.1561 -0.7097  0.1482
  536SOL     OW 2141   0.484   1.862   2.139  0.0140  0.3870 -0.3214
  536SOL    HW1 2142   0.476   1.852   2.049 -0.9209 -0.3815  2.0326
  536SOL    HW2 2143   0.495   1.957   2.149  0.8320  2.7784  1.1799
  536SOL     MW 2144   0.484   1.873   2.128 -0.0014  0.6011  0.1873
  537SOL     OW 2145   1.072   0.282   2.774 -0.1938  0.3198 -0.3695
  537SOL    HW1 2146   1.102   0.352   2.839 -0.3136  0.8621  2.4128
  537SOL    HW2 2147   1.045   0.336   2.699 -0.2904  0.0343  1.7452
  537SOL     MW 2148   1.072   0.298   2.773 -0.2224  0.3537  0.2766
  538SOL     OW 2149   1.424   0.051   0.062  0.0490  0.5156 -0.1644
  538SOL    HW1 2150   1.394   0.139   0.055 -1.0033 -0.4142 -1.3438
  538SOL    HW2 2151   1.338   0.007   0.037 -0.9958  0.2044 -0.8926
  538SOL     MW 2152   1.408   0.057   0.058 -0.2277  0.3519 -0.4161
  539SOL     OW 2153   0.702   2.802   2.593  0.3285  0.8885  0.0313
  539SOL    HW1 2154   0.760   2.856   2.649  0.1185  1.3525 -1.5436
  539SOL    HW2 2155   0.709   2.710   2.634  0.3555  0.2162 -1.7294
  539SOL     MW 2156   0.711   2.797   2.606  0.3044  0.8610 -0.4088
  540SOL     OW 2157   0.284   2.457   2.884  0.7154 -0.1844  0.0099
  540SOL    HW1 2158   0.286   2.520   2.960 -0.8999 -1.3381 -1.4783
  540SOL    HW2 2159   0.283   2.367   2.927  3.1333  1.2876  0.4172
  540SOL     MW 2160   0.284   2.453   2.900  0.8213 -0.1424 -0.1327
  541SOL     OW 2161   0.251   2.952   2.142 -0.1896 -0.2310 -0.3442
  541SOL    HW1 2162   0.201   2.877   2.109  1.6674 -1.5754 -2.2439
  541SOL    HW2 2163   0.304   2.921   2.217  1.9913 -0.3317 -1.0466
  541SOL     MW 2164   0.251   2.938   2.148  0.3432 -0.4217 -0.6875
  542SOL     OW 2165   0.974   2.288   2.592 -0.1002  0.4405  0.4934
  542SOL    HW1 2166   0.919   2.238   2.654  0.5319 -1.1121  0.0681
  542SOL    HW2 2167   1.018   2.354   2.655  1.2030 -0.5012 -1.0067
  542SOL     MW 2168   0.973   2.290   2.608  0.1552  0.1114  0.2393
  543SOL     OW 2169   1.578   2.436   2.826  0.2719 -0.0723 -0.3437
  543SOL    HW1 2170   1.569   2.367   2.762  2.5942  2.2900  1.7745
  543SOL    HW2 2171   1.658   2.478   2.799 -0.7546 -0.5655  0.9650
  543SOL     MW 2172   1.587   2.433   2.814  0.4428  0.1743  0.1084
  544SOL     OW 2173   0.694   0.307   2.721 -0.3510  0.2216 -0.1508
  544SOL    HW1 2174   0.601   0.314   2.708 -0.2437  1.1507  2.5262
  544SOL    HW2 2175   0.728   0.266   2.639  1.2263 -0.8941 -0.5000
  544SOL     MW 2176   0.687   0.302   2.708 -0.1287  0.1970  0.1563
  545SOL     OW 2177   1.501   2.132   2.336  0.7358 -0.0922  0.3344
  545SOL    HW1 2178   1.459   2.073   2.275  0.1992  0.7516 -0.2922
  545SOL    HW2 2179   1.594   2.124   2.326 -3.4877  1.8546 -1.6376
  545SOL     MW 2180   1.508   2.123   2.327  0.1078  0.2760 -0.0084
  546SOL     OW 2181   2.880   1.955   0.134  0.4953  0.2905  0.0034
  546SOL    HW1 2182   2.888   2.040   0.082 -0.3226  2.6814  0.5012
  546SOL    HW2 2183   2.961   1.916   0.102  0.3577 -0.0727  1.5474
  546SOL     MW 2184   2.892   1.961   0.123  0.3692  0.5581  0.2728
  547SOL     OW 2185   0.217   0.086   0.108 -0.5539 -0.5151  0.0678
  547SOL    HW1 2186   0.283   0.103   0.035  1.2301  0.2750 -1.2897
  547SOL    HW2 2187   0.143   0.042   0.074 -1.1382  0.8469  0.1003
  547SOL     MW 2188   0.216   0.082   0.094 -0.3956 -0.2312 -0.1071
  548SOL     OW 2189   0.350   2.540   0.254  0.6793  0.8905  0.2115
  548SOL    HW1 2190   0.324   2.541   0.163  1.6132  1.2644  0.0138
  548SOL    HW2 2191   0.323   2.451   0.292  1.4684 -0.0214  1.1209
  548SOL     MW 2192   0.343   2.528   0.247  0.9066  0.8195  0.3054
  549SOL     OW 2193   0.839   1.940   2.114 -0.2322  0.0516  0.3090
  549SOL    HW1 2194   0.783   2.004   2.080  1.6161 -2.0313 -1.3627
  549SOL    HW2 2195   0.803   1.913   2.200 -0.3406 -0.1023  1.6232
  549SOL     MW 2196   0.827   1.945   2.121 -0.0026 -0.2435  0.2618
  550SOL     OW 2197   1.854   1.664   2.504 -1.0347 -0.6606  0.1207
  550SOL    HW1 2198   1.836   1.689   2.412  1.6085 -1.8171  2.0183
  550SOL    HW2 2199   1.848   1.737   2.564 -2.0110 -5.0112  1.5718
  550SOL     MW 2200   1.851   1.677   2.500 -0.8148 -1.3872  0.5625
  551SOL     OW 2201   0.923   2.218   0.196 -0.0580  0.2460  0.0219
  551SOL    HW1 2202   1.012   2.244   0.196  0.0877 -1.1641 -3.1004
  551SOL    HW2 2203   0.916   2.170   0.107  0.8068  1.2127 -1.1729
  551SOL     MW 2204   0.934   2.215   0.184  0.0753  0.1875 -0.5477
  552SOL     OW 2205   1.764   1.735   2.259  0.1659  0.0097  0.1929
  552SOL    HW1 2206   1.681   1.697   2.256  0.2816  1.4835 -3.7772
  552SOL    HW2 2207   1.802   1.704   2.172 -3.5465 -0.3808  1.3272
  552SOL     MW 2208   1.758   1.726   2.247 -0.3086  0.1527 -0.1812
  553SOL     OW 2209   1.237   2.302   1.575  0.3843 -0.1126  0.0941
  553SOL    HW1 2210   1.281   2.216   1.563 -2.4116  0.6188 -0.7144
  553SOL    HW2 2211   1.277   2.368   1.522 -1.3899 -2.4746  3.4717
  553SOL     MW 2212   1.248   2.299   1.566 -0.2187 -0.3277  0.4331
  554SOL     OW 2213   0.501   2.967   2.694  0.5081  0.3918 -0.0998
  554SOL    HW1 2214   0.494   3.021   2.619  1.1257  0.6305 -1.0740
  554SOL    HW2 2215   0.564   2.896   2.671  0.1505 -0.4781 -0.0378
  554SOL     MW 2216   0.509   2.964   2.681  0.5424  0.3085 -0.2202
  555SOL     OW 2217   0.632   2.528   2.629 -0.1224 -0.0949 -0.3823
  555SOL    HW1 2218   0.585   2.438   2.639 -0.4645 -1.2712 -1.4855
  555SOL    HW2 2219   0.713   2.516   2.571  0.6514 -0.1809  0.3758
  555SOL     MW 2220   0.636   2.514   2.623 -0.0654 -0.2614 -0.4278
  556SOL     OW 2221   1.079   1.863   0.048 -0.2036 -0.2659 -0.3482
  556SOL    HW1 2222   1.075   1.809  -0.029  0.6504  1.1944 -0.7715
  556SOL    HW2 2223   1.153   1.845   0.105  1.6313 -0.6878  0.4433
  556SOL     MW 2224   1.088   1.853   0.045  0.1512 -0.1289 -0.2996
  557SOL     OW 2225   1.056   2.713   0.571 -0.2845  0.1275  0.3069
  557SOL    HW1 2226   1.082   2.649   0.510 -1.3394  0.1589 -2.0238
  557SOL    HW2 2227   1.015   2.782   0.521  2.9691 -1.0017  0.7807
  557SOL     MW 2228   1.054   2.714   0.556  0.0056 -0.0174  0.0619
  558SOL     OW 2229   0.228   2.234   3.027  0.4954 -0.1942 -0.2403
  558SOL    HW1 2230   0.256   2.156   3.070  1.4975 -1.9736 -1.3303
  558SOL    HW2 2231   0.165   2.277   3.089 -2.5168  0.9376  2.9480
  558SOL     MW 2232   0.223   2.229   3.041  0.2302 -0.2796  0.0365
  559SOL     OW 2233   1.062   2.320   2.238 -0.0333 -0.8621  0.7699
  559SOL    HW1 2234   1.128   2.389   2.218  0.7682  0.3287 -0.2628
  559SOL    HW2 2235   1.102   2.234   2.227 -1.2223  1.2075 -0.4392
  559SOL     MW 2236   1.076   2.318   2.234 -0.0844 -0.4319  0.4741
  560SOL     OW 2237   2.164   2.667   0.159  0.2665  0.1055 -0.3432
  560SOL    HW1 2238   2.168   2.745   0.108 -0.0689 -1.0168  0.7056
  560SOL    HW2 2239   2.093   2.611   0.120  0.9902 -1.9801 -0.4167
  560SOL     MW 2240   2.155   2.670   0.147  0.3178 -0.3178 -0.2145
  561SOL     OW 2241   0.485   2.193   0.192 -0.0336  0.4724 -0.2352
  561SOL    HW1 2242   0.497   2.215   0.098  1.4291  1.8311 -0.4066
  561SOL    HW2 2243   0.525   2.271   0.233 -1.0296 -0.3410  1.1268
  561SOL     MW 2244   0.492   2.206   0.185  0.0279  0.5444 -0.0781
  562SOL     OW 2245   0.656   2.298   2.349 -0.1538  0.7742  0.1076
  562SOL    HW1 2246   0.603   2.349   2.286  1.1526  0.1052  1.4351
  562SOL    HW2 2247   0.726   2.335   2.391 -0.6838 -3.4838 -0.2359
  562SOL     MW 2248   0.658   2.310   2.346 -0.0514  0.1241  0.2374
  563SOL     OW 2249   1.256   0.405   0.579  0.3416  0.1018  0.0700
  563SOL    HW1 2250   1.199   0.344   0.521  2.8419  1.1683 -0.7332
  563SOL    HW2 2251   1.239   0.373   0.663  2.3668  2.4124  0.5021
  563SOL     MW 2252   1.246   0.393   0.583  0.9387  0.5474  0.0210
  564SOL     OW 2253   0.997   2.675   2.338 -0.0971  0.7389 -0.3419
  564SOL    HW1 2254   1.010   2.761   2.300 -1.5019 -3.5589 -0.1015
  564SOL    HW2 2255   1.041   2.668   2.427 -0.8061  0.8252 -2.1241
  564SOL     MW 2256   1.004   2.685   2.345 -0.3760  0.1832 -0.5453
  565SOL     OW 2257   2.750   2.800   2.624  0.0934 -0.0997  0.4272
  565SOL    HW1 2258   2.726   2.876   2.571 -2.9136 -2.1159 -0.6793
  565SOL    HW2 2259   2.736   2.724   2.567 -2.0092  3.7077  2.4934
  565SOL     MW 2260   2.745   2.800   2.609 -0.5808  0.1366  0.5538
  566SOL     OW 2261   2.180   1.953   2.368 -0.0305 -0.2275  0.5549
  566SOL    HW1 2262   2.177   1.928   2.279 -1.2732 -1.1702  0.0892
  566SOL    HW2 2263   2.241   2.024   2.357  0.1724 -3.7165  0.8897
  566SOL     MW 2264   2.188   1.959   2.355 -0.1677 -0.8122  0.5376
  567SOL     OW 2265   1.170   3.068   0.007  0.3944 -0.2231 -0.2633
  567SOL    HW1 2266   1.140   3.082   0.098 -0.0212 -1.2471 -2.2986
  567SOL    HW2 2267   1.180   2.970   0.007 -3.3119 -0.4437 -0.6187
  567SOL     MW 2268   1.168   3.057   0.019 -0.1494 -0.3873 -0.5787
  568SOL     OW 2269   1.656   2.028   2.851  0.1114  0.2745  0.1885
  568SOL    HW1 2270   1.704   2.090   2.898 -0.4761  0.0151 -1.8790
  568SOL    HW2 2271   1.722   1.983   2.796  1.9212 -1.8389  0.2633
  568SOL     MW 2272   1.671   2.030   2.850  0.2727 -0.0386 -0.0744
  569SOL     OW 2273   0.126   2.245   2.441  0.1383 -0.2145 -0.4045
  569SOL    HW1 2274   0.072   2.299   2.384  0.4285  0.2920  3.7119
  569SOL    HW2 2275   0.154   2.303   2.510 -0.3340 -0.0125  0.8102
  569SOL     MW 2276   0.123   2.260   2.443  0.1143 -0.1210  0.2989
  570SOL     OW 2277   1.488   0.308   0.452  0.0047 -0.2789  0.0578
  570SOL    HW1 2278   1.408   0.325   0.508 -1.4136 -2.3174  0.7854
  570SOL    HW2 2279   1.560   0.346   0.506 -2.2856 -0.7663 -2.4262
  570SOL     MW 2280   1.487   0.316   0.466 -0.4846 -0.6122 -0.1740
  571SOL     OW 2281   1.352   2.376   2.137  0.1277 -0.1330  0.2821
  571SOL    HW1 2282   1.392   2.384   2.224  1.6453  1.3054 -0.8066
  571SOL    HW2 2283   1.425   2.333   2.083 -1.0313 -1.5477 -2.7215
  571SOL     MW 2284   1.367   2.372   2.141  0.1750 -0.1299 -0.2579
  572SOL     OW 2285   1.110   2.594   0.093  0.2095  0.6145  0.1739
  572SOL    HW1 2286   1.110   2.685   0.077  0.4526 -5.9533 -2.3235
  572SOL    HW2 2287   1.012   2.573   0.106  0.9599 -0.5519  1.0683
  572SOL     MW 2288   1.097   2.603   0.093  0.3406 -0.4060 -0.0376
  573SOL     OW 2289   1.193   2.286   0.273  0.2825  0.4787  0.3306
  573SOL    HW1 2290   1.273   2.297   0.220  1.8434 -1.8893 -0.2539
  573SOL    HW2 2291   1.176   2.377   0.298  0.0752  2.0774  1.4643
  573SOL     MW 2292   1.202   2.299   0.269  0.4611  0.3772  0.4031
  574SOL     OW 2293   1.149   2.550   0.373 -0.3622  0.5844  0.4425
  574SOL    HW1 2294   1.223   2.612   0.378  0.2285  2.2390  1.3334
  574SOL    HW2 2295   1.111   2.580   0.293  2.6765 -1.8452  0.5608
  574SOL     MW 2296   1.153   2.562   0.363  0.1167  0.4822  0.5756
  575SOL     OW 2297   3.071   2.201   1.611  0.0862  0.2429  0.3715
  575SOL    HW1 2298   3.096   2.110   1.582 -0.7986  0.3261 -0.7353
  575SOL    HW2 2299   3.149   2.246   1.645  1.5824  2.1003 -1.2520
  575SOL     MW 2300   3.084   2.195   1.612  0.1668  0.4989  0.0113
  576SOL     OW 2301   2.912   1.881   1.940  0.5370 -0.0598 -0.3946
  576SOL    HW1 2302   2.913   1.972   1.911  2.0984  0.5489 -0.8872
  576SOL    HW2 2303   2.890   1.846   1.855  0.1333 -2.0272 -3.0805
  576SOL     MW 2304   2.909   1.888   1.925  0.6898 -0.2391 -0.8140
  577SOL     OW 2305   2.125   0.143   0.013  0.5351  0.3441  0.1235
  577SOL    HW1 2306   2.061   0.138  -0.063  0.3672  0.7868 -1.7892
  577SOL    HW2 2307   2.085   0.099   0.084  0.7806 -0.2190 -0.9066
  577SOL     MW 2308   2.111   0.137   0.013  0.5453  0.3282 -0.2648
  578SOL     OW 2309   1.979   2.127   2.335 -0.5975 -0.4444 -0.4890
  578SOL    HW1 2310   1.897   2.087   2.293  0.5449 -1.2760 -1.0352
  578SOL    HW2 2311   2.056   2.055   2.338  1.8756  0.3810  0.4588
  578SOL     MW 2312   1.978   2.112   2.330 -0.1205 -0.4452 -0.4360
  579SOL     OW 2313   0.852   2.515   2.485  0.1952  0.1125  0.0621
  579SOL    HW1 2314   0.895   2.436   2.499  1.0339  1.6564 -0.2072
  579SOL    HW2 2315   0.902   2.574   2.428  0.5589 -1.2100  0.4819
  579SOL     MW 2316   0.864   2.513   2.479  0.3538  0.1417  0.0820
  580SOL     OW 2317   0.980   2.855   3.103  0.3629 -0.5683 -0.0360
  580SOL    HW1 2318   0.939   2.935   3.073  0.9195  0.4474  1.1872
  580SOL    HW2 2319   0.947   2.776   3.044  2.5459 -0.8903 -1.6328
  580SOL     MW 2320   0.970   2.855   3.091  0.7243 -0.4768 -0.0853
  581SOL     OW 2321   1.106   2.454   1.785 -0.4892  0.3329  0.0562
  581SOL    HW1 2322   1.176   2.506   1.829  0.5146  0.8535  0.9226
  581SOL    HW2 2323   1.154   2.401   1.723  0.9303  1.4727  0.0401
  581SOL     MW 2324   1.122   2.453   1.782 -0.1695  0.5520  0.1683
  582SOL     OW 2325   0.000   2.955   2.655  0.4410  0.2879  0.3713
  582SOL    HW1 2326  -0.048   3.014   2.707  3.2148 -1.0974  0.2288
  582SOL    HW2 2327   0.093   2.982   2.668 -0.8390  1.1980 -0.5736
  582SOL     MW 2328   0.006   2.966   2.664  0.6381  0.2252  0.2278
  583SOL     OW 2329   1.928   2.404   2.658 -0.6421 -0.5276 -0.0150
  583SOL    HW1 2330   1.988   2.421   2.586 -0.4733 -1.6176  0.0793
  583SOL    HW2 2331   1.911   2.305   2.644 -0.6423 -1.1852  0.1364
  583SOL     MW 2332   1.933   2.393   2.646 -0.6199 -0.7581  0.0175
  584SOL     OW 2333   0.192   1.899   2.211 -0.0307 -0.6178 -0.1824
  584SOL    HW1 2334   0.172   1.881   2.304  1.6568  4.4866  1.2355
  584SOL    HW2 2335   0.248   1.979   2.228 -1.8601 -0.6777 -0.4537
  584SOL     MW 2336   0.197   1.907   2.225 -0.0494  0.0477 -0.0311
  585SOL     OW 2337   1.550   2.697   0.167 -0.6125 -0.3574  0.0820
  585SOL    HW1 2338   1.522   2.697   0.074 -0.4926 -1.2729 -1.0011
  585SOL    HW2 2339   1.475   2.723   0.220  0.7864 -0.5435 -1.6879
  585SOL     MW 2340   1.536   2.701   0.162 -0.4121 -0.5028 -0.2945
  586SOL     OW 2341   1.342   2.791   2.560  0.3243 -0.6060  0.4303
  586SOL    HW1 2342   1.382   2.779   2.473 -1.1608 -1.0131  2.3034
  586SOL    HW2 2343   1.331   2.886   2.565  0.1671  0.7079 -0.6939
  586SOL     MW 2344   1.346   2.802   2.549  0.1076 -0.4863  0.5291
  587SOL     OW 2345   1.314   1.450   2.153 -0.4488 -0.0207 -0.2884
  587SOL    HW1 2346   1.285   1.382   2.212 -0.5581  0.6761 -1.6198
  587SOL    HW2 2347   1.298   1.414   2.064 -3.2282  5.8132  0.3727
  587SOL     MW 2348   1.308   1.436   2.149 -0.8300  0.8410 -0.3768
  588SOL     OW 2349   1.330   2.024   2.695 -0.2369 -0.0057 -0.3299
  588SOL    HW1 2350   1.350   1.933   2.700  1.2319  0.6111  1.7102
  588SOL    HW2 2351   1.291   2.056   2.779 -0.7494  1.5772 -0.0108
  588SOL     MW 2352   1.327   2.016   2.707 -0.1107  0.2845 -0.0186
  589SOL     OW 2353   1.341   2.028   0.026  0.2499  0.4819 -0.5939
  589SOL    HW1 2354   1.379   2.115   0.048 -1.2228 -0.3721 -0.3849
  589SOL    HW2 2355   1.325   1.986   0.110 -2.5848 -1.8095 -0.3049
  589SOL     MW 2356   1.344   2.034   0.040 -0.3184  0.0669 -0.5282
  590SOL     OW 2357   0.498   2.653   2.205 -0.3094 -0.5379  0.9984
  590SOL    HW1 2358   0.501   2.649   2.107 -1.4152 -0.7801 -2.5686
  590SOL    HW2 2359   0.569   2.712   2.243 -1.3580  0.0704  0.9193
  590SOL     MW 2360   0.508   2.660   2.197 -0.5937 -0.4896  0.5173
  591SOL     OW 2361   2.201   0.666   0.151 -0.0790 -0.0773 -0.0735
  591SOL    HW1 2362   2.124   0.691   0.204 -1.0832 -0.8992 -1.5246
  591SOL    HW2 2363   2.166   0.707   0.071  1.8655  2.8840 -1.3596
  591SOL     MW 2364   2.186   0.675   0.147  0.0450  0.2050 -0.4346
  592SOL     OW 2365   1.654   2.900   0.774 -0.3646 -0.2792 -0.6717
  592SOL    HW1 2366   1.638   2.994   0.778  1.0048  2.1591 -2.1340
  592SOL    HW2 2367   1.745   2.890   0.751 -1.5649 -1.0190  0.0166
  592SOL     MW 2368   1.664   2.911   0.771 -0.3423 -0.0551 -0.7738
  593SOL     OW 2369   1.933   0.713   0.741  0.3554  0.2495 -0.2058
  593SOL    HW1 2370   1.859   0.686   0.684 -1.9667 -0.9582 -1.8313
  593SOL    HW2 2371   1.992   0.644   0.715 -2.2550  0.4686 -0.8395
  593SOL     MW 2372   1.931   0.700   0.730 -0.2954  0.1191 -0.5039
  594SOL     OW 2373   2.817   1.015   1.366 -0.0070  0.5320 -0.3275
  594SOL    HW1 2374   2.903   1.065   1.378  2.1801  2.9923 -3.5859
  594SOL    HW2 2375   2.786   1.040   1.278  2.1719 -0.0112 -3.8867
  594SOL     MW 2376   2.824   1.025   1.356  0.5690  0.7850 -1.2270
  595SOL     OW 2377   0.536   0.939   0.852  0.5387  0.5206  0.4006
  595SOL    HW1 2378   0.508   1.013   0.793 -0.7573 -0.0992 -0.6534
  595SOL    HW2 2379   0.583   0.979   0.929 -1.9133  0.8650 -1.1384
  595SOL     MW 2380   0.539   0.954   0.854  0.0442  0.4843  0.0585
  596SOL     OW 2381   2.444   1.364   0.481  0.0888 -0.2373  0.1350
  596SOL    HW1 2382   2.418   1.430   0.419  0.8050 -1.4369  0.4515
  596SOL    HW2 2383   2.515   1.419   0.507 -0.9983  0.1756  0.5593
  596SOL     MW 2384   2.450   1.380   0.476  0.0398 -0.3411  0.2327
  597SOL     OW 2385   2.230   0.638   1.565 -0.3660 -0.1649 -0.0444
  597SOL    HW1 2386   2.242   0.569   1.627  0.7420  1.2235  1.7556
  597SOL    HW2 2387   2.177   0.604   1.492  2.7037 -0.3460  4.1788
  597SOL     MW 2388   2.225   0.625   1.563  0.1852 -0.0056  0.7503
  598SOL     OW 2389   2.587   1.023   2.899 -0.2555 -0.0671 -0.2024
  598SOL    HW1 2390   2.612   0.945   2.850  0.0508 -0.5715  0.4175
  598SOL    HW2 2391   2.657   1.084   2.900 -1.2812 -0.4755  0.1259
  598SOL     MW 2392   2.600   1.021   2.893 -0.3504 -0.1875 -0.0773
  599SOL     OW 2393   3.058   0.484   2.262 -0.5295  0.1502 -0.1059
  599SOL    HW1 2394   3.072   0.539   2.334 -2.9499  0.2364 -3.6557
  599SOL    HW2 2395   3.066   0.543   2.178 -0.6709  1.3689 -1.8101
  599SOL     MW 2396   3.061   0.499   2.260 -0.8675  0.3224 -0.7991
  600SOL     OW 2397   1.823   1.709   0.839  0.1450 -0.0409  0.1112
  600SOL    HW1 2398   1.856   1.750   0.920 -0.4612  0.0929 -0.2393
  600SOL    HW2 2399   1.736   1.748   0.825  1.2010 -1.0025 -0.9856
  600SOL     MW 2400   1.816   1.719   0.848  0.2043 -0.1502 -0.0797
  601SOL     OW 2401   2.541   0.766   0.870 -0.0938 -0.1659  0.4880
  601SOL    HW1 2402   2.550   0.747   0.962 -0.1527  1.3624 -1.9803
  601SOL    HW2 2403   2.501   0.693   0.824 -2.7782  1.7615 -1.9397
  601SOL     MW 2404   2.537   0.754   0.876 -0.4558  0.2900 -0.1580
  602SOL     OW 2405   2.261   1.921   0.764 -0.1940  0.6503  0.1664
  602SOL    HW1 2406   2.202   1.855   0.721 -1.3453 -0.6642 -0.1415
  602SOL    HW2 2407   2.243   2.010   0.725  1.8848 -4.1276  0.2866
  602SOL     MW 2408   2.251   1.924   0.753 -0.0716 -0.1535  0.1417
  603SOL     OW 2409   2.991   1.371   1.957  0.0604 -0.0035 -0.2352
  603SOL    HW1 2410   2.965   1.418   2.033  0.1134  2.9753 -0.6417
  603SOL    HW2 2411   3.027   1.293   1.991  0.8171 -1.3073  1.6929
  603SOL     MW 2412   2.992   1.367   1.971  0.1672  0.2175 -0.0345
  604SOL     OW 2413   2.025   1.390   0.359  0.3795  0.1443  0.0354
  604SOL    HW1 2414   2.089   1.342   0.413  0.1521  3.6858  1.8364
  604SOL    HW2 2415   1.963   1.435   0.418 -0.5168 -1.1991  1.5472
  604SOL     MW 2416   2.025   1.389   0.374  0.2312  0.4343  0.4725
  605SOL     OW 2417   2.437   1.453   0.813 -0.1175 -0.0215 -0.5798
  605SOL    HW1 2418   2.443   1.528   0.752  0.1904  0.8184  0.0425
  605SOL    HW2 2419   2.484   1.386   0.766  0.5662  1.0448 -1.8145
  605SOL     MW 2420   2.444   1.454   0.799  0.0133  0.2300 -0.6606
  606SOL     OW 2421   2.693   1.759   1.791 -0.4329 -0.1373 -0.3154
  606SOL    HW1 2422   2.634   1.802   1.852  1.6067  2.0764 -0.2786
  606SOL    HW2 2423   2.662   1.670   1.795  1.7040  2.6720  3.4056
  606SOL     MW 2424   2.681   1.753   1.800  0.1182  0.5254  0.1804
  607SOL     OW 2425   2.383   0.991   3.079  0.5998  0.3291  0.2752
  607SOL    HW1 2426   2.459   1.005   3.016 -0.4265 -2.3713 -1.4931
  607SOL    HW2 2427   2.406   1.032   3.165 -0.0558 -0.8763 -1.8915
  607SOL     MW 2428   2.396   0.998   3.082  0.3779 -0.1863 -0.2440
  608SOL     OW 2429   1.886   0.255   0.490  0.9352  0.2045 -0.3918
  608SOL    HW1 2430   1.888   0.294   0.396 -1.5714 -0.4922 -2.1895
  608SOL    HW2 2431   1.889   0.157   0.481 -2.4463  0.1594 -1.9153
  608SOL     MW 2432   1.886   0.247   0.476  0.1583  0.1066 -0.8300
  609SOL     OW 2433   2.126   1.891   3.074 -0.2202  0.0217  0.7565
  609SOL    HW1 2434   2.043   1.854   3.033 -0.3736  1.8685 -2.6501
  609SOL    HW2 2435   2.125   1.855   3.163 -2.3696 -1.4469 -0.5486
  609SOL     MW 2436   2.115   1.881   3.081 -0.5240  0.0716  0.1348
  610SOL     OW 2437   1.809   0.954   1.205  0.2386  0.6393  0.1822
  610SOL    HW1 2438   1.809   0.893   1.133 -1.4024 -1.3929  0.4843
  610SOL    HW2 2439   1.711   0.970   1.235 -2.5517  1.4837  3.1850
  610SOL     MW 2440   1.796   0.948   1.200 -0.3461  0.4826  0.6182
  611SOL     OW 2441   2.470   1.637   0.593  0.1763 -0.1593  0.1502
  611SOL    HW1 2442   2.444   1.615   0.503  1.5998 -3.1027 -1.8516
  611SOL    HW2 2443   2.477   1.728   0.594 -0.6315  0.2787 -0.1285
  611SOL     MW 2444   2.468   1.646   0.582  0.2575 -0.4898 -0.1507
  612SOL     OW 2445   2.872   2.888   0.383  0.4294 -0.7750  0.7070
  612SOL    HW1 2446   2.906   2.943   0.457 -0.4720 -1.1709 -1.1408
  612SOL    HW2 2447   2.956   2.873   0.336 -0.3747  0.8737 -0.7007
  612SOL     MW 2448   2.887   2.894   0.386  0.2044 -0.6097  0.2775
  613SOL     OW 2449   1.419   1.108   0.988 -0.0048  0.3134 -0.8036
  613SOL    HW1 2450   1.437   1.200   0.988 -1.2693 -1.4431  0.3351
  613SOL    HW2 2451   1.471   1.081   1.069 -0.1948  2.7405  0.4940
  613SOL     MW 2452   1.428   1.116   0.999 -0.1967  0.4019 -0.4821
  614SOL     OW 2453   2.059   0.478   1.440  0.5355  0.2008  0.7222
  614SOL    HW1 2454   2.053   0.452   1.532  1.6086  0.6657 -2.1982
  614SOL    HW2 2455   1.975   0.515   1.406 -1.3367 -0.2761 -0.8327
  614SOL     MW 2456   2.047   0.479   1.448  0.4300  0.1992  0.1317
  615SOL     OW 2457   2.403   0.735   0.326 -0.0845 -0.1715 -0.2980
  615SOL    HW1 2458   2.471   0.669   0.325 -1.8532  1.1748  1.5742
  615SOL    HW2 2459   2.334   0.718   0.265 -1.4140  2.4722 -1.0274
  615SOL     MW 2460   2.403   0.724   0.318 -0.4933  0.3549 -0.1472
  616SOL     OW 2461   2.581   0.399   1.646 -0.0032 -0.3523  0.5017
  616SOL    HW1 2462   2.602   0.338   1.572 -0.2648  1.1275 -0.2236
  616SOL    HW2 2463   2.560   0.477   1.592 -1.2308 -1.2993 -0.8715
  616SOL     MW 2464   2.581   0.402   1.629 -0.1997 -0.2820  0.2248
  617SOL     OW 2465   2.822   0.555   1.845 -0.4578  0.2229 -0.1414
  617SOL    HW1 2466   2.738   0.564   1.890 -2.3610  1.4602  0.9537
  617SOL    HW2 2467   2.833   0.464   1.801  0.4440  1.5817  1.5379
  617SOL     MW 2468   2.812   0.544   1.845 -0.5899  0.5654  0.2247
  618SOL     OW 2469   2.820   0.247   2.005 -0.1564 -0.2898 -0.1774
  618SOL    HW1 2470   2.755   0.283   2.070  1.5829 -2.2535  1.5363
  618SOL    HW2 2471   2.902   0.223   2.054 -0.8297 -1.5344  1.3673
  618SOL     MW 2472   2.822   0.249   2.020 -0.0157 -0.7131  0.2525
  619SOL     OW 2473   2.725   0.725   0.079  0.2896  0.2883 -0.5247
  619SOL    HW1 2474   2.751   0.811   0.054 -0.3281  1.0930  2.5995
  619SOL    HW2 2475   2.768   0.717   0.165  1.1061 -0.5072  0.5358
  619SOL     MW 2476   2.734   0.735   0.087  0.3158  0.2895  0.0274
  620SOL     OW 2477   2.228   1.018   0.922 -0.1902 -0.3067 -0.3891
  620SOL    HW1 2478   2.297   1.020   0.854 -1.8709  0.7837 -2.7012
  620SOL    HW2 2479   2.150   1.008   0.868 -0.3991  0.5921  0.7968
  620SOL     MW 2480   2.227   1.017   0.906 -0.4395 -0.0443 -0.5377
  621SOL     OW 2481   1.514   2.205   1.981  0.0466 -0.0909 -0.5921
  621SOL    HW1 2482   1.482   2.129   2.035  3.4485  0.2801 -1.3821
  621SOL    HW2 2483   1.604   2.223   2.008 -1.8168  0.9190 -1.0959
  621SOL     MW 2484   1.522   2.197   1.992  0.2496  0.0913 -0.7628
  622SOL     OW 2485   2.643   0.282   0.209  0.3378 -0.4283 -0.2495
  622SOL    HW1 2486   2.735   0.308   0.189 -1.9229 -0.0947  0.4813
  622SOL    HW2 2487   2.650   0.188   0.215 -0.0053 -1.4270 -0.7429
  622SOL     MW 2488   2.656   0.273   0.207 -0.0057 -0.5160 -0.2181
  623SOL     OW 2489   2.344   2.773   0.817 -0.6512  0.0400 -0.2458
  623SOL    HW1 2490   2.408   2.839   0.805 -2.1262 -1.3124  0.7456
  623SOL    HW2 2491   2.313   2.779   0.914  2.9370 -1.8609 -0.7316
  623SOL     MW 2492   2.349   2.782   0.828 -0.3723 -0.3893 -0.1791
  624SOL     OW 2493   2.119   1.589   3.037  0.5267  0.1071 -0.3643
  624SOL    HW1 2494   2.055   1.519   3.022 -1.1301 -0.4053 -0.0864
  624SOL    HW2 2495   2.072   1.661   3.067 -0.5353  0.5585  1.0047
  624SOL     MW 2496   2.104   1.590   3.039  0.1680  0.0991 -0.1470
  625SOL     OW 2497   2.159   1.896   1.021 -0.2587  1.3937  0.2290
  625SOL    HW1 2498   2.214   1.832   1.072 -0.7234  1.4431 -0.0489
  625SOL    HW2 2499   2.201   1.895   0.935 -2.5897  1.8359  0.4149
  625SOL     MW 2500   2.172   1.887   1.016 -0.6276  1.4586  0.2168
  626SOL     OW 2501   0.143   1.850   2.456 -0.3140 -0.1944  0.0337
  626SOL    HW1 2502   0.099   1.761   2.486  3.5064  0.8664 -2.3371
  626SOL    HW2 2503   0.070   1.915   2.470 -0.0140  1.6578  0.0544
  626SOL     MW 2504   0.128   1.847   2.462  0.2297  0.1899 -0.2763
  627SOL     OW 2505   2.600   0.799   2.600 -0.3482 -0.4313  0.5497
  627SOL    HW1 2506   2.507   0.832   2.586 -1.3264 -1.4090  0.2922
  627SOL    HW2 2507   2.630   0.778   2.511  0.3220  1.0611  0.1563
  627SOL     MW 2508   2.592   0.800   2.586 -0.3889 -0.3634  0.4638
  628SOL     OW 2509   2.351   1.411   1.291 -0.3195 -0.9530 -0.0707
  628SOL    HW1 2510   2.381   1.340   1.234 -0.4124 -0.2993  0.7990
  628SOL    HW2 2511   2.403   1.484   1.259  0.9587 -1.4597  0.3372
  628SOL     MW 2512   2.362   1.411   1.279 -0.1631 -0.9336  0.0979
  629SOL     OW 2513   1.835   0.625   1.315  0.4435 -0.2042  0.0344
  629SOL    HW1 2514   1.878   0.668   1.240  0.6695 -0.9655 -0.7349
  629SOL    HW2 2515   1.757   0.597   1.270  2.0868 -0.6275 -0.4632
  629SOL     MW 2516   1.830   0.627   1.299  0.6901 -0.3605 -0.1328
  630SOL     OW 2517   2.401   1.925   3.067  0.4002 -0.0575  0.4561
  630SOL    HW1 2518   2.402   2.004   3.009  2.6438  2.7366  0.5459
  630SOL    HW2 2519   2.312   1.883   3.070  0.2531 -0.6385 -1.4366
  630SOL     MW 2520   2.390   1.930   3.060  0.6768  0.2345  0.2183
  631SOL     OW 2521   2.102   1.850   1.489 -0.1940  0.3552 -0.3429
  631SOL    HW1 2522   2.087   1.763   1.534  1.9209 -0.1727 -1.0644
  631SOL    HW2 2523   2.016   1.895   1.495 -0.2022 -1.1781  1.0571
  631SOL     MW 2524   2.088   1.844   1.496  0.0840  0.0833 -0.2534
  632SOL     OW 2525   0.379   1.873   1.472  0.8873  0.3708 -0.2153
  632SOL    HW1 2526   0.311   1.944   1.490  1.4164 -0.9070  1.9719
  632SOL    HW2 2527   0.326   1.790   1.489 -2.3088 -1.7214  1.0061
  632SOL     MW 2528   0.363   1.872   1.477  0.5354 -0.0738  0.2344
  633SOL     OW 2529   2.613   0.532   0.364  0.5829  0.6347  0.3623
  633SOL    HW1 2530   2.689   0.539   0.417 -0.4764  1.3149 -0.3459
  633SOL    HW2 2531   2.616   0.458   0.304  0.5575  0.3510 -1.5272
  633SOL     MW 2532   2.623   0.523   0.363  0.4398  0.6870  0.0196
  634SOL     OW 2533   2.706   3.066   0.590 -0.0721  0.2340  0.2751
  634SOL    HW1 2534   2.736   3.158   0.583 -0.0947 -1.3417  0.7518
  634SOL    HW2 2535   2.691   3.044   0.499  0.0723  0.8506  1.3705
  634SOL     MW 2536   2.708   3.075   0.577 -0.0560  0.1075  0.4825
  635SOL     OW 2537   2.655   0.024   1.865  0.7979  0.5948 -0.9696
  635SOL    HW1 2538   2.724  -0.011   1.809 -2.8324  1.8640  0.7436
  635SOL    HW2 2539   2.685   0.116   1.884 -0.5590 -1.6743  0.8885
  635SOL     MW 2540   2.668   0.032   1.860  0.1399  0.4629 -0.4984
  636SOL     OW 2541   2.703   1.664   0.759 -0.3036 -0.8855 -0.0828
  636SOL    HW1 2542   2.622   1.642   0.715  0.7961  2.4536 -0.8559
  636SOL    HW2 2543   2.675   1.748   0.795  0.7334 -0.2834 -0.6314
  636SOL     MW 2544   2.689   1.672   0.758 -0.0217 -0.3655 -0.2572
  637SOL     OW 2545   2.915   1.448   0.718  0.4282 -0.4122  0.3785
  637SOL    HW1 2546   2.983   1.503   0.688 -0.3690 -1.3407  1.4560
  637SOL    HW2 2547   2.837   1.501   0.715 -0.5371  0.7646 -2.4260
  637SOL     MW 2548   2.914   1.462   0.714  0.1956 -0.3794  0.1507
  638SOL     OW 2549   2.821   0.541   0.540 -0.4617 -0.0135  0.2127
  638SOL    HW1 2550   2.910   0.574   0.521  0.3989 -0.8354  0.4163
  638SOL    HW2 2551   2.825   0.543   0.633  3.2653  0.3578 -0.4582
  638SOL     MW 2552   2.833   0.546   0.550  0.1436 -0.0730  0.1510
  639SOL     OW 2553   1.831   3.087   0.544  0.2970 -0.4165 -0.0096
  639SOL    HW1 2554   1.741   3.129   0.540 -3.0120  1.1944 -1.7323
  639SOL    HW2 2555   1.840   3.001   0.500  2.0619  0.6629 -1.5023
  639SOL     MW 2556   1.821   3.081   0.538  0.0933 -0.0615 -0.4338
  640SOL     OW 2557   0.285   1.447   0.095 -0.1612  0.1609  0.4507
  640SOL    HW1 2558   0.329   1.433   0.014  0.4325  1.9810  0.2388
  640SOL    HW2 2559   0.320   1.370   0.144  1.7580  0.4679 -1.6435
  640SOL     MW 2560   0.295   1.435   0.091  0.1704  0.4416  0.1465
  641SOL     OW 2561   2.297   0.366   0.416  0.2676  0.4442 -0.5297
  641SOL    HW1 2562   2.299   0.289   0.363 -0.2001 -1.0655  0.3733
  641SOL    HW2 2563   2.371   0.363   0.473  0.0237  1.8566 -1.1024
  641SOL     MW 2564   2.307   0.356   0.416  0.1737  0.4314 -0.4861
  642SOL     OW 2565   0.100   3.086   0.473  0.2828  0.0887 -0.0479
  642SOL    HW1 2566   0.096   3.182   0.452 -2.3578  0.3956 -1.0106
  642SOL    HW2 2567   0.026   3.057   0.527  3.1172 -2.0066 -0.2115
  642SOL     MW 2568   0.090   3.094   0.478  0.3084 -0.1472 -0.1965
  643SOL     OW 2569   2.143   0.348   1.676  0.0380  0.6722  0.0391
  643SOL    HW1 2570   2.067   0.320   1.729 -0.1319  0.3457  0.5538
  643SOL    HW2 2571   2.166   0.272   1.616  1.3588 -0.2348 -0.9552
  643SOL     MW 2572   2.136   0.334   1.675  0.1898  0.5094 -0.0242
  644SOL     OW 2573   2.698   1.908   0.951 -0.1936  0.4981  0.3992
  644SOL    HW1 2574   2.674   1.883   1.040 -2.0432 -0.2468 -2.7536
  644SOL    HW2 2575   2.628   1.980   0.942  1.2907  2.1837 -1.0460
  644SOL     MW 2576   2.685   1.914   0.962 -0.2418  0.6222 -0.2074
  645SOL     OW 2577   2.807   0.976   0.782  0.4581  0.9965 -0.2732
  645SOL    HW1 2578   2.881   0.917   0.783 -0.1464  0.5806 -2.7776
  645SOL    HW2 2579   2.773   0.981   0.868 -0.1765 -0.5768 -1.1266
  645SOL     MW 2580   2.812   0.969   0.793  0.2946  0.7340 -0.7162
  646SOL     OW 2581   0.126   2.278   0.891 -0.0404  0.2180 -0.0682
  646SOL    HW1 2582   0.138   2.173   0.886 -1.8603 -1.5757  1.0520
  646SOL    HW2 2583   0.090   2.300   0.803 -0.0892 -0.9594 -1.2423
  646SOL     MW 2584   0.123   2.267   0.879 -0.2869 -0.1740 -0.0753
  647SOL     OW 2585   2.793   0.510   3.009  0.0409 -0.4314  0.3790
  647SOL    HW1 2586   2.705   0.483   2.991  0.1778  0.5636 -1.7613
  647SOL    HW2 2587   2.794   0.587   3.064 -0.5717  0.0944  0.8580
  647SOL     MW 2588   2.782   0.516   3.014 -0.0219 -0.2308  0.1598
  648SOL     OW 2589   2.128   0.633   1.122 -0.3432 -0.0004 -0.1241
  648SOL    HW1 2590   2.196   0.585   1.171  0.0406 -1.1750  1.7299
  648SOL    HW2 2591   2.169   0.700   1.071 -2.4525  2.1352  0.3819
  648SOL     MW 2592   2.142   0.635   1.122 -0.5709  0.1264  0.1872
  649SOL     OW 2593   2.407   2.687   1.312  0.4455 -0.3866 -0.0630
  649SOL    HW1 2594   2.494   2.723   1.324 -0.0400  2.5326  0.2506
  649SOL    HW2 2595   2.413   2.590   1.304  0.4566  1.0338 -1.2706
  649SOL     MW 2596   2.419   2.679   1.312  0.3829  0.1860 -0.1810
  650SOL     OW 2597   2.728   0.236   0.494 -0.3749 -0.1484 -0.1097
  650SOL    HW1 2598   2.778   0.316   0.493  0.7343  0.5515  0.6160
  650SOL    HW2 2599   2.694   0.228   0.404 -2.3366 -1.0586  0.1370
  650SOL     MW 2600   2.730   0.246   0.482 -0.4874 -0.1762  0.0186
  651SOL     OW 2601   0.015   0.442   1.004 -0.3786  0.4147  0.0839
  651SOL    HW1 2602   0.065   0.518   0.965  0.3171 -0.8712 -0.8710
  651SOL    HW2 2603  -0.071   0.486   1.033 -1.4171  0.1032  1.4649
  651SOL     MW 2604   0.010   0.458   1.002 -0.4239  0.2040  0.1401
  652SOL     OW 2605   2.349   1.437   2.935 -0.9660 -0.2374 -0.8596
  652SOL    HW1 2606   2.399   1.489   2.871 -1.6582 -0.4639 -2.8181
  652SOL    HW2 2607   2.275   1.494   2.961  1.9396  0.0304  1.1526
  652SOL     MW 2608   2.345   1.452   2.930 -0.6740 -0.2319 -0.8525
  653SOL     OW 2609   1.854   0.371   0.224 -0.1485  0.3256 -0.0289
  653SOL    HW1 2610   1.825   0.286   0.188  0.8052  2.0421  0.8529
  653SOL    HW2 2611   1.914   0.414   0.161  0.8147  0.1568 -1.3455
  653SOL     MW 2612   1.858   0.366   0.211  0.1044  0.5298 -0.0863
  654SOL     OW 2613   2.431   1.004   0.725  0.4697  0.2510 -0.1628
  654SOL    HW1 2614   2.392   1.008   0.639 -0.4631  1.4207  3.4715
  654SOL    HW2 2615   2.464   0.912   0.751  1.3324 -0.6542 -1.3333
  654SOL     MW 2616   2.431   0.992   0.717  0.4605  0.2859  0.1622
  655SOL     OW 2617   2.885   0.945   0.288  0.2244  0.5372  0.4833
  655SOL    HW1 2618   2.849   0.980   0.368  1.3332 -0.3982  0.0531
  655SOL    HW2 2619   2.962   0.898   0.322 -0.0617 -0.0511  0.3446
  655SOL     MW 2620   2.891   0.943   0.303  0.3329  0.3362  0.4082
  656SOL     OW 2621   1.777   2.653   1.424 -0.5824  0.1969  0.3073
  656SOL    HW1 2622   1.860   2.698   1.424 -0.0871  0.8955  0.7465
  656SOL    HW2 2623   1.798   2.559   1.436  0.0991 -0.1115 -1.4902
  656SOL     MW 2624   1.791   2.647   1.425 -0.4271  0.2483  0.1281
  657SOL     OW 2625   0.089   1.778   1.108  0.3710 -0.0616 -0.0513
  657SOL    HW1 2626   0.172   1.816   1.123 -0.7523  2.5906 -1.1370
  657SOL    HW2 2627   0.076   1.697   1.157  0.7492  0.4547 -0.2295
  657SOL     MW 2628   0.098   1.772   1.117  0.2727  0.3565 -0.2181
  658SOL     OW 2629   2.655   1.344   0.214  0.5845  0.3496  0.1557
  658SOL    HW1 2630   2.653   1.269   0.272 -1.9753  0.9530 -0.8736
  658SOL    HW2 2631   2.688   1.416   0.262  0.8276 -1.6344 -1.8547
  658SOL     MW 2632   2.659   1.343   0.228  0.2789  0.1674 -0.2453
  659SOL     OW 2633   2.098   1.399   1.036 -0.2181 -0.4826  0.1739
  659SOL    HW1 2634   2.159   1.328   1.073  0.8521  0.9785  0.3694
  659SOL    HW2 2635   2.080   1.458   1.107 -0.2683  0.8142  0.2777
  659SOL     MW 2636   2.104   1.397   1.050 -0.0836 -0.1187  0.2134
  660SOL     OW 2637   2.078   1.596   1.597 -0.0282  0.7247  0.3008
  660SOL    HW1 2638   2.082   1.618   1.692  1.4326 -0.3038  1.0355
  660SOL    HW2 2639   2.011   1.521   1.579 -1.4840 -0.5050 -1.7181
  660SOL     MW 2640   2.070   1.589   1.607 -0.0275  0.4267  0.1314
  661SOL     OW 2641   2.417   0.991   0.255 -0.1950  0.0857  0.3704
  661SOL    HW1 2642   2.489   1.034   0.303 -2.4564  0.3304 -0.6054
  661SOL    HW2 2643   2.430   0.899   0.272 -1.1117  2.7961  0.4142
  661SOL     MW 2644   2.428   0.984   0.264 -0.6143  0.4756  0.2475
  662SOL     OW 2645   2.531   2.990   0.801 -0.4098  0.4632 -0.3011
  662SOL    HW1 2646   2.488   3.055   0.855  1.3844  1.0648 -2.9834
  662SOL    HW2 2647   2.566   3.035   0.729 -1.5840  0.7597 -0.0700
  662SOL     MW 2648   2.530   3.004   0.798 -0.3280  0.5817 -0.6245
  663SOL     OW 2649   2.710   1.548   0.400  0.1697 -0.3197 -0.3489
  663SOL    HW1 2650   2.697   1.623   0.346  1.3362 -0.8315  0.3157
  663SOL    HW2 2651   2.802   1.559   0.430 -3.5334 -0.1053  0.9498
  663SOL     MW 2652   2.720   1.560   0.397 -0.1650 -0.3590 -0.0898
  664SOL     OW 2653   2.533   1.455   1.532  0.1924  0.6825  0.9716
  664SOL    HW1 2654   2.497   1.535   1.499  1.5575  0.8939  1.2973
  664SOL    HW2 2655   2.450   1.402   1.528 -0.8755  0.8981 -1.5760
  664SOL     MW 2656   2.517   1.458   1.527  0.2316  0.7388  0.6784
  665SOL     OW 2657   2.864   0.778   2.121  0.2911 -0.4248  0.3069
  665SOL    HW1 2658   2.807   0.817   2.049 -1.6674 -2.7251  0.6036
  665SOL    HW2 2659   2.945   0.747   2.080  0.1248  1.6827 -0.7167
  665SOL     MW 2660   2.867   0.779   2.106  0.0108 -0.4503  0.2110
  666SOL     OW 2661   2.818   2.982   1.706 -0.7831 -0.1125 -0.1338
  666SOL    HW1 2662   2.838   2.986   1.612  1.9363 -2.4256  0.6961
  666SOL    HW2 2663   2.748   2.914   1.704 -1.3617 -1.8207  0.0242
  666SOL     MW 2664   2.811   2.974   1.693 -0.5007 -0.6430 -0.0035
  667SOL     OW 2665   2.023   2.713   1.733 -0.0794 -0.4788  0.1276
  667SOL    HW1 2666   2.049   2.685   1.819 -1.8636  3.1904  2.1736
  667SOL    HW2 2667   2.082   2.791   1.717  0.6492 -2.5211 -0.3856
  667SOL     MW 2668   2.034   2.719   1.742 -0.2187 -0.2641  0.3298
  668SOL     OW 2669   2.792   0.588   0.821 -0.0919  0.6014 -0.0569
  668SOL    HW1 2670   2.844   0.595   0.898 -0.9849  1.2953  1.3928
  668SOL    HW2 2671   2.734   0.661   0.834  2.2706  0.4017 -1.3011
  668SOL     MW 2672   2.791   0.598   0.833  0.1020  0.6666 -0.0298
  669SOL     OW 2673   0.173   1.000   0.674  0.4949  0.3720 -0.2355
  669SOL    HW1 2674   0.136   1.014   0.761  0.3983  1.4443  1.0008
  669SOL    HW2 2675   0.254   1.057   0.671 -1.4237 -1.3515 -0.4210
  669SOL     MW 2676   0.179   1.010   0.685  0.2290  0.2861 -0.0968
  670SOL     OW 2677   2.914   0.340   0.273 -0.2206 -0.2347 -0.5098
  670SOL    HW1 2678   2.932   0.275   0.209 -2.2342 -0.0660  0.9618
  670SOL    HW2 2679   2.915   0.424   0.227 -0.4271  1.7929 -1.8357
  670SOL     MW 2680   2.916   0.343   0.258 -0.5135  0.0550 -0.4905
  671SOL     OW 2681   2.052   3.041   1.463 -0.0613 -0.5625 -0.3946
  671SOL    HW1 2682   1.991   3.003   1.397  0.4526  0.4960 -0.4547
  671SOL    HW2 2683   1.999   3.059   1.538  0.5861 -0.0254 -0.7410
  671SOL     MW 2684   2.037   3.039   1.464  0.0919 -0.3520 -0.4482
  672SOL     OW 2685   1.833   1.777   1.299 -0.4412 -0.0029  0.0087
  672SOL    HW1 2686   1.818   1.864   1.357 -2.8940 -0.6547  0.1737
  672SOL    HW2 2687   1.844   1.810   1.212 -1.2428  0.2670  1.0252
  672SOL     MW 2688   1.832   1.793   1.295 -0.8706 -0.0533  0.1646
  673SOL     OW 2689   2.819   1.094   0.530  0.5325 -0.4763 -0.2164
  673SOL    HW1 2690   2.794   1.032   0.595 -1.8483  1.1456  2.0327
  673SOL    HW2 2691   2.901   1.132   0.574 -0.6038  3.9847  3.1547
  673SOL     MW 2692   2.827   1.091   0.545  0.0684  0.3263  0.5251
  674SOL     OW 2693   2.457   3.066   1.204 -0.3524 -0.4824 -0.0884
  674SOL    HW1 2694   2.387   3.076   1.139  0.5375 -0.6099  1.1092
  674SOL    HW2 2695   2.503   2.983   1.188  3.0513 -0.1804 -0.9287
  674SOL     MW 2696   2.454   3.056   1.193  0.2141 -0.4594 -0.0412
  675SOL     OW 2697   2.980   0.865   1.094 -0.6135 -0.4806 -0.5168
  675SOL    HW1 2698   3.025   0.863   1.182  1.4987  1.7989 -1.4641
  675SOL    HW2 2699   3.043   0.913   1.044  2.2419 -2.0937  1.1129
  675SOL     MW 2700   2.994   0.871   1.099  0.0419 -0.3926 -0.4268
  676SOL     OW 2701   2.891   1.443   1.724  0.0009 -0.6045  0.9536
  676SOL    HW1 2702   2.886   1.356   1.680 -0.1674  0.2090 -1.9633
  676SOL    HW2 2703   2.925   1.408   1.809 -0.6941  2.8879  0.2630
  676SOL     MW 2704   2.895   1.427   1.730 -0.1130 -0.0364  0.4776
  677SOL     OW 2705   2.470   0.703   1.892 -0.0729  0.6399 -0.5881
  677SOL    HW1 2706   2.407   0.647   1.847  0.2992  1.6873  1.6037
  677SOL    HW2 2707   2.414   0.767   1.931 -2.5564 -0.1653 -2.2315
  677SOL     MW 2708   2.455   0.704   1.892 -0.3515  0.6719 -0.5157
  678SOL     OW 2709   2.373   1.575   0.327 -0.3172  0.1880  0.1562
  678SOL    HW1 2710   2.282   1.575   0.359 -1.9641  0.7452 -1.3461
  678SOL    HW2 2711   2.373   1.517   0.243  0.3848  0.4754 -1.2821
  678SOL     MW 2712   2.361   1.567   0.320 -0.4419  0.2994 -0.2317
  679SOL     OW 2713   2.287   0.423   1.290 -0.2245  0.4047 -0.3246
  679SOL    HW1 2714   2.265   0.347   1.238 -2.2951  0.4646  1.9232
  679SOL    HW2 2715   2.214   0.442   1.351 -0.4692 -1.9690 -0.9705
  679SOL     MW 2716   2.275   0.416   1.291 -0.5300  0.0994 -0.1133
  680SOL     OW 2717   2.465   0.149   1.477 -0.3779  0.5734 -0.1261
  680SOL    HW1 2718   2.375   0.162   1.445  3.0815 -0.6174 -0.6709
  680SOL    HW2 2719   2.493   0.067   1.446 -0.9600 -3.0289  1.6439
  680SOL     MW 2720   2.457   0.140   1.469  0.0017 -0.0590  0.0355
  681SOL     OW 2721   0.228   0.590   1.448 -0.0191 -0.7395 -0.0986
  681SOL    HW1 2722   0.216   0.514   1.506 -2.2697 -0.7871  3.0172
  681SOL    HW2 2723   0.244   0.556   1.364 -0.9338 -0.2396 -1.7296
  681SOL     MW 2724   0.228   0.576   1.445 -0.4367 -0.6798  0.0973
  682SOL     OW 2725   3.072   2.863   1.525 -0.4196  0.3032 -0.1537
  682SOL    HW1 2726   3.140   2.924   1.523 -0.8934 -1.7833  2.3828
  682SOL    HW2 2727   3.025   2.859   1.612 -1.4918 -3.8651  0.0874
  682SOL     MW 2728   3.075   2.870   1.536 -0.6236 -0.5221  0.2128
  683SOL     OW 2729   2.099   0.774   3.020  0.4615 -0.5821  0.2601
  683SOL    HW1 2730   2.039   0.698   3.032  0.0683  0.0003 -1.2016
  683SOL    HW2 2731   2.061   0.856   3.052  0.0183  0.2786  2.0295
  683SOL     MW 2732   2.086   0.775   3.025  0.3512 -0.3917  0.3007
  684SOL     OW 2733   2.058   1.751   0.656  0.2168  0.0216  0.5523
  684SOL    HW1 2734   2.068   1.702   0.571 -2.1113 -0.9018  0.7436
  684SOL    HW2 2735   1.986   1.704   0.695  0.3709  0.9841 -1.3092
  684SOL     MW 2736   2.050   1.739   0.650 -0.0700  0.0268  0.3320
  685SOL     OW 2737   2.649   1.752   1.166 -0.2366  0.2289 -0.3620
  685SOL    HW1 2738   2.683   1.699   1.239 -1.0465 -1.5810  0.5501
  685SOL    HW2 2739   2.619   1.682   1.110 -4.9844  0.2299 -2.0892
  685SOL     MW 2740   2.649   1.736   1.168 -0.9699 -0.0098 -0.4695
  686SOL     OW 2741   2.819   0.639   1.581 -0.3737 -0.3356 -0.9622
  686SOL    HW1 2742   2.802   0.602   1.664 -0.9143  2.3186 -2.2649
  686SOL    HW2 2743   2.915   0.662   1.585  0.4826  1.1673 -0.2328
  686SOL     MW 2744   2.829   0.637   1.592 -0.3320  0.2129 -1.0379
  687SOL     OW 2745   2.128   0.181   1.102  0.8052  0.2550 -0.4084
  687SOL    HW1 2746   2.174   0.119   1.052 -2.8088  0.3987 -1.4476
  687SOL    HW2 2747   2.111   0.264   1.057  1.8492  1.4991 -1.9314
  687SOL     MW 2748   2.132   0.183   1.090  0.4661  0.4381 -0.7464
  688SOL     OW 2749   2.462   0.585   1.452  0.0780  0.5440  0.9591
  688SOL    HW1 2750   2.430   0.543   1.370 -1.1001 -0.4428 -0.0128
  688SOL    HW2 2751   2.376   0.604   1.495  0.7132  1.8782  1.3538
  688SOL     MW 2752   2.446   0.582   1.446  0.0064  0.5898  0.8829
  689SOL     OW 2753   2.501   0.737   2.994 -0.1239  0.0967  0.1377
  689SOL    HW1 2754   2.433   0.796   3.031 -3.3772 -0.2610 -0.5741
  689SOL    HW2 2755   2.564   0.740   3.066  1.4212 -1.2605  0.5919
  689SOL     MW 2756   2.501   0.745   3.008 -0.3493 -0.1296  0.1037
  690SOL     OW 2757   2.025   0.952   1.842 -0.4987  0.7396  0.0413
  690SOL    HW1 2758   2.006   0.857   1.847  1.2988  1.4854 -1.4939
  690SOL    HW2 2759   2.074   0.959   1.763 -1.9847  1.4566 -0.4927
  690SOL     MW 2760   2.029   0.941   1.832 -0.4576  0.9326 -0.2317
  691SOL     OW 2761   2.432   0.303   0.882 -0.2302  0.4791 -0.4216
  691SOL    HW1 2762   2.521   0.289   0.912 -0.7305 -0.9995  1.7182
  691SOL    HW2 2763   2.423   0.390   0.850  0.1880 -0.8654 -0.1712
  691SOL     MW 2764   2.442   0.312   0.881 -0.2410  0.1066 -0.1063
  692SOL     OW 2765   2.769   1.629   1.399 -0.6192  0.0865 -0.2955
  692SOL    HW1 2766   2.730   1.597   1.481  0.3653  3.2816  0.1399
  692SOL    HW2 2767   2.844   1.691   1.412  0.8792 -3.4989  2.4631
  692SOL     MW 2768   2.774   1.633   1.412 -0.2916  0.0350  0.1260
  693SOL     OW 2769   2.267   0.465   0.007 -0.9393  0.0862  0.0559
  693SOL    HW1 2770   2.236   0.377   0.032  1.6781  3.0992 -0.0061
  693SOL    HW2 2771   2.249   0.522   0.080 -2.5669  1.7055 -1.2625
  693SOL     MW 2772   2.261   0.461   0.020 -0.8087  0.6974 -0.1262
  694SOL     OW 2773   1.933   1.195   1.194  0.5040  0.0523 -0.2685
  694SOL    HW1 2774   2.024   1.189   1.220  1.2930  0.6195  0.7231
  694SOL    HW2 2775   1.894   1.102   1.210 -1.0219  0.2898 -1.1681
  694SOL     MW 2776   1.940   1.182   1.199  0.4068  0.1585 -0.2564
  695SOL     OW 2777   2.932   1.420   1.279  0.3847  0.4817  0.1614
  695SOL    HW1 2778   2.901   1.428   1.186 -0.4011 -1.2176  1.2451
  695SOL    HW2 2779   2.881   1.488   1.331  1.0614  1.1833 -1.7679
  695SOL     MW 2780   2.921   1.430   1.273  0.3703  0.3500  0.0498
  696SOL     OW 2781   2.048   1.391   0.738 -0.0713 -0.5747  0.3912
  696SOL    HW1 2782   2.081   1.448   0.806  0.8407 -1.5564 -1.5372
  696SOL    HW2 2783   1.992   1.335   0.792  1.3765 -1.7873  0.9003
  696SOL     MW 2784   2.045   1.391   0.754  0.2401 -0.8642  0.2040
  697SOL     OW 2785   2.904   1.041   2.227  0.3539  0.3218  0.1538
  697SOL    HW1 2786   2.832   1.103   2.225  0.6422 -2.2578 -0.9923
  697SOL    HW2 2787   2.862   0.955   2.216 -1.0262 -2.5475  0.7987
  697SOL     MW 2788   2.889   1.038   2.225  0.2098 -0.3971  0.0876
  698SOL     OW 2789   2.535   0.396   3.071 -0.6613  0.0854  0.3929
  698SOL    HW1 2790   2.438   0.418   3.074  0.6130  0.3768 -1.2990
  698SOL    HW2 2791   2.562   0.376   3.160 -1.1438 -1.6586 -3.5723
  698SOL     MW 2792   2.525   0.396   3.083 -0.5568 -0.1062 -0.3535
  699SOL     OW 2793   1.872   1.577   2.012  0.0869 -0.4779 -0.6633
  699SOL    HW1 2794   1.845   1.489   2.046  0.3227 -0.7393  2.5053
  699SOL    HW2 2795   1.952   1.560   1.965 -0.0406 -0.0641 -0.5265
  699SOL     MW 2796   1.879   1.563   2.010  0.1012 -0.4578 -0.2272
  700SOL     OW 2797   2.692   0.886   1.611  0.4609  0.4446 -0.1185
  700SOL    HW1 2798   2.743   0.946   1.556 -2.4740 -0.6035 -1.1986
  700SOL    HW2 2799   2.738   0.802   1.597 -0.0193 -1.6476 -0.2502
  700SOL     MW 2800   2.705   0.883   1.602  0.0103  0.0303 -0.2784
  701SOL     OW 2801   1.664   1.075   2.563 -0.4953  0.1004  0.8113
  701SOL    HW1 2802   1.722   1.014   2.604 -1.4756  2.2242  0.5864
  701SOL    HW2 2803   1.627   1.119   2.644 -0.7967 -2.4700  0.4159
  701SOL     MW 2804   1.667   1.073   2.579 -0.6644  0.0415  0.7294
  702SOL     OW 2805   2.059   0.477   0.682  0.2513 -0.0331  0.0839
  702SOL    HW1 2806   2.093   0.389   0.673 -1.1466  4.0212 -0.6309
  702SOL    HW2 2807   2.118   0.526   0.619  1.4474 -0.0316  1.6397
  702SOL     MW 2808   2.071   0.472   0.673  0.2247  0.5020  0.1948
  703SOL     OW 2809   2.701   1.243   0.996 -0.0280  0.0605  0.1232
  703SOL    HW1 2810   2.676   1.240   0.903 -0.3723  0.0133 -0.7946
  703SOL    HW2 2811   2.712   1.152   1.039  0.5911 -0.0509  2.4483
  703SOL     MW 2812   2.699   1.231   0.989  0.0083  0.0396  0.3088
  704SOL     OW 2813   3.058   1.285   0.160 -0.1883  0.3972  0.0238
  704SOL    HW1 2814   2.966   1.279   0.127 -0.1104  1.3228  0.2692
  704SOL    HW2 2815   3.068   1.230   0.237  0.0412  1.8289  1.9442
  704SOL     MW 2816   3.048   1.277   0.166 -0.1478  0.7083  0.3096
  705SOL     OW 2817   2.032   1.606   1.302  0.3119  0.7036 -0.0958
  705SOL    HW1 2818   1.980   1.684   1.301 -2.0115 -0.7365  1.1128
  705SOL    HW2 2819   2.085   1.610   1.384  0.8818 -3.3879  0.3229
  705SOL     MW 2820   2.032   1.617   1.313  0.0806 -0.0262  0.1189
  706SOL     OW 2821   3.010   1.193   0.690  0.8908 -0.7111 -0.1529
  706SOL    HW1 2822   3.077   1.214   0.623  1.3464 -0.0508 -2.9066
  706SOL    HW2 2823   2.960   1.277   0.702  1.7555  0.1452  0.7481
  706SOL     MW 2824   3.012   1.207   0.683  1.0650 -0.5110 -0.3973
  707SOL     OW 2825   2.339   0.061   0.952 -0.4115 -0.3729 -0.2339
  707SOL    HW1 2826   2.335   0.152   0.915 -2.7314  2.9845 -1.2272
  707SOL    HW2 2827   2.280   0.012   0.897  3.1639 -0.1680 -1.1824
  707SOL     MW 2828   2.331   0.067   0.940 -0.2459  0.0971 -0.4901
  708SOL     OW 2829   2.401   1.418   0.115 -0.3474  0.3379 -0.3846
  708SOL    HW1 2830   2.494   1.392   0.130 -0.2099  0.5404 -2.5158
  708SOL    HW2 2831   2.383   1.423   0.019 -0.4362 -0.9242  0.5954
  708SOL     MW 2832   2.411   1.415   0.105 -0.3410  0.1981 -0.5365
  709SOL     OW 2833   1.695   1.619   0.213 -0.1758 -0.4108  0.3603
  709SOL    HW1 2834   1.684   1.623   0.116  0.7294 -0.7555 -0.3802
  709SOL    HW2 2835   1.609   1.600   0.258 -1.9791  0.1911  1.3856
  709SOL     MW 2836   1.682   1.617   0.206 -0.2943 -0.3768  0.3979
  710SOL     OW 2837   2.239   1.162   1.169  0.5654  0.1987 -0.3881
  710SOL    HW1 2838   2.242   1.126   1.078  3.8008 -0.1422 -0.8301
  710SOL    HW2 2839   2.273   1.097   1.238 -0.9523 -2.5722  0.2395
  710SOL     MW 2840   2.244   1.149   1.166  0.7920 -0.2119 -0.3636
  711SOL     OW 2841   2.376   0.095   1.791 -0.0903 -0.2626  0.0738
  711SOL    HW1 2842   2.453   0.044   1.822  0.9164 -2.1649 -2.7414
  711SOL    HW2 2843   2.393   0.119   1.702  1.7763 -0.5787 -1.0907
  711SOL     MW 2844   2.388   0.091   1.784  0.2888 -0.5553 -0.4513
  712SOL     OW 2845   1.893   0.621   3.078 -0.1030  0.0466  0.1214
  712SOL    HW1 2846   1.829   0.660   3.013  2.2329 -1.2632  1.5907
  712SOL    HW2 2847   1.856   0.639   3.169  2.3211  1.7972  1.0630
  712SOL     MW 2848   1.879   0.628   3.081  0.5251  0.1047  0.4395
  713SOL     OW 2849   2.571   0.684   1.125  0.4039  0.0377 -0.1665
  713SOL    HW1 2850   2.587   0.592   1.148 -0.0193 -0.9453  2.3349
  713SOL    HW2 2851   2.562   0.726   1.212  1.4836  0.8188 -0.1871
  713SOL     MW 2852   2.572   0.677   1.139  0.4905  0.0111  0.1609
  714SOL     OW 2853   2.240   0.200   2.004 -0.2728  0.1398 -0.2993
  714SOL    HW1 2854   2.275   0.157   2.080  0.3447  1.2408 -0.7182
  714SOL    HW2 2855   2.291   0.173   1.929  0.0805  0.6747  0.4223
  714SOL     MW 2856   2.252   0.191   2.004 -0.1447  0.3556 -0.2594
  715SOL     OW 2857   1.824   1.993   1.698  0.2550  0.1112 -0.4368
  715SOL    HW1 2858   1.918   2.013   1.714 -1.6522 -1.4463 -0.7478
  715SOL    HW2 2859   1.815   1.912   1.752 -0.1589 -0.9344  0.9725
  715SOL     MW 2860   1.835   1.985   1.707 -0.0512 -0.2322 -0.2919
  716SOL     OW 2861   2.454   0.541   0.727 -0.0447 -0.7926  0.3940
  716SOL    HW1 2862   2.489   0.472   0.672  0.7578  1.9394  1.8734
  716SOL    HW2 2863   2.394   0.577   0.667 -0.7888  0.1319  0.0900
  716SOL     MW 2864   2.451   0.536   0.711 -0.0370 -0.3102  0.5491
  717SOL     OW 2865   2.787   1.652   2.826 -0.2361  0.9947  0.3598
  717SOL    HW1 2866   2.870   1.619   2.863  2.9991 -0.8077  2.5983
  717SOL    HW2 2867   2.751   1.707   2.895 -3.1946 -3.4665 -0.7405
  717SOL     MW 2868   2.793   1.655   2.840 -0.1996  0.1683  0.5100
  718SOL     OW 2869   2.639   1.328   1.299 -0.0019 -0.7282  0.0689
  718SOL    HW1 2870   2.586   1.374   1.369 -1.6477  1.6800  0.2479
  718SOL    HW2 2871   2.729   1.338   1.330 -1.0611 -0.3500 -0.9276
  718SOL     MW 2872   2.644   1.336   1.312 -0.3588 -0.3605 -0.0389
  719SOL     OW 2873   2.199   1.273   0.537 -0.3652 -0.5646 -0.6576
  719SOL    HW1 2874   2.282   1.327   0.537  0.7345 -2.4193  0.5540
  719SOL    HW2 2875   2.160   1.307   0.623  1.1582  2.0184  0.2586
  719SOL     MW 2876   2.205   1.284   0.548 -0.0191 -0.4685 -0.3769
  720SOL     OW 2877   2.815   1.247   0.021  0.4457 -0.7549  0.2917
  720SOL    HW1 2878   2.795   1.148   0.022  2.6691 -2.3213  0.5150
  720SOL    HW2 2879   2.757   1.292   0.080 -0.6580 -0.3688 -0.4995
  720SOL     MW 2880   2.805   1.240   0.029  0.5934 -0.9106  0.2167
  721SOL     OW 2881   2.570   0.832   1.343  0.4603 -0.4971  0.1872
  721SOL    HW1 2882   2.533   0.754   1.393 -0.0405 -1.3277  3.0194
  721SOL    HW2 2883   2.628   0.869   1.402  0.5329 -1.4094 -0.9195
  721SOL     MW 2884   2.573   0.826   1.357  0.4038 -0.7271  0.4148
  722SOL     OW 2885   2.575   1.145   0.401 -0.4677 -0.1128  0.2295
  722SOL    HW1 2886   2.523   1.213   0.446  0.4800 -2.1984  0.2712
  722SOL    HW2 2887   2.658   1.129   0.451  0.8105 -0.7094 -1.0388
  722SOL     MW 2888   2.579   1.152   0.414 -0.1740 -0.4667  0.0677
  723SOL     OW 2889   2.290   1.331   1.554 -0.0139  0.1946 -0.3720
  723SOL    HW1 2890   2.294   1.348   1.462 -3.3059  0.0499 -0.8506
  723SOL    HW2 2891   2.241   1.404   1.585  2.4720 -1.5831 -1.1851
  723SOL     MW 2892   2.284   1.343   1.546 -0.1202 -0.0590 -0.5424
  724SOL     OW 2893   2.460   0.273   0.607  0.6165 -0.5355  0.4737
  724SOL    HW1 2894   2.449   0.273   0.702  0.0365  0.6920  0.2147
  724SOL    HW2 2895   2.543   0.231   0.589  1.6383 -0.8966 -0.1463
  724SOL     MW 2896   2.470   0.268   0.617  0.6748 -0.4212  0.3577
  725SOL     OW 2897   2.632   0.426   1.207  0.6611 -0.0216 -0.2779
  725SOL    HW1 2898   2.708   0.461   1.247  0.8715 -1.3837 -0.6083
  725SOL    HW2 2899   2.589   0.385   1.278 -0.2431  0.5542 -1.9770
  725SOL     MW 2900   2.636   0.425   1.222  0.5695 -0.1253 -0.5456
  726SOL     OW 2901   2.508   2.472   0.431 -0.1158 -0.1510  0.3303
  726SOL    HW1 2902   2.466   2.528   0.368 -0.0735 -0.6047 -0.2443
  726SOL    HW2 2903   2.523   2.525   0.503 -1.1136 -1.0100 -3.3820
  726SOL     MW 2904   2.504   2.486   0.432 -0.2418 -0.3242 -0.2353
  727SOL     OW 2905   2.863   0.313   1.737  0.0309 -0.1457 -0.1264
  727SOL    HW1 2906   2.795   0.305   1.673  1.2157 -0.2374 -0.6387
  727SOL    HW2 2907   2.833   0.294   1.823 -0.5291  0.7757 -3.7163
  727SOL     MW 2908   2.850   0.309   1.740  0.1133 -0.0362 -0.6676
  728SOL     OW 2909   2.818   1.181   2.859 -0.5015  0.1963  0.1787
  728SOL    HW1 2910   2.829   1.249   2.795  0.1794 -3.2451 -0.4631
  728SOL    HW2 2911   2.821   1.220   2.951  0.9983  1.0302 -0.6349
  728SOL     MW 2912   2.820   1.195   2.863 -0.2138 -0.1478 -0.0133
  729SOL     OW 2913   2.538   1.516   1.054  0.5212 -0.1183  0.3688
  729SOL    HW1 2914   2.603   1.448   1.061  1.7647  1.9616 -0.1640
  729SOL    HW2 2915   2.486   1.486   0.979  1.8608  0.9449 -1.7613
  729SOL     MW 2916   2.539   1.503   1.045  0.8620  0.2964  0.0174
  730SOL     OW 2917   2.179   1.165   0.192 -0.5863 -0.4076  0.3949
  730SOL    HW1 2918   2.251   1.098   0.201  1.5054 -2.3278  0.4283
  730SOL    HW2 2919   2.220   1.238   0.150 -2.7231 -0.0771 -0.5039
  730SOL     MW 2920   2.194   1.166   0.188 -0.5922 -0.6173  0.2807
  731SOL     OW 2921   2.766   1.996   2.906  0.2590 -0.5901  0.4733
  731SOL    HW1 2922   2.712   1.994   2.832  2.1460  0.4994  2.0432
  731SOL    HW2 2923   2.856   2.021   2.886  0.6998 -2.0296 -0.7415
  731SOL     MW 2924   2.771   1.999   2.893  0.5662 -0.6363  0.5201
  732SOL     OW 2925   2.317   0.980   1.342 -0.0073  0.4234 -0.2217
  732SOL    HW1 2926   2.284   0.950   1.423 -0.7487  1.9855  0.0648
  732SOL    HW2 2927   2.409   0.951   1.330  1.5894 -1.6604 -1.7982
  732SOL     MW 2928   2.325   0.972   1.351  0.1056  0.3546 -0.3919
  733SOL     OW 2929   2.400   2.703   2.993  0.0396 -0.3474 -0.3300
  733SOL    HW1 2930   2.342   2.747   3.050  0.4707 -2.5216  2.9733
  733SOL    HW2 2931   2.370   2.612   2.988 -0.6778  1.7954  1.8428
  733SOL     MW 2932   2.388   2.697   3.000  0.0019 -0.3515  0.3925
  734SOL     OW 2933   1.495   0.262   2.507  0.1700  0.3308 -0.1734
  734SOL    HW1 2934   1.463   0.223   2.589  1.7944 -1.9561  0.6724
  734SOL    HW2 2935   1.422   0.265   2.444  1.6371  0.2449 -0.4311
  734SOL     MW 2936   1.481   0.258   2.509  0.5779  0.0177 -0.0958
  735SOL     OW 2937   3.008   0.877   2.676  0.0242 -0.2041  0.4618
  735SOL    HW1 2938   2.994   0.780   2.661  1.6403 -1.8286  1.3520
  735SOL    HW2 2939   3.037   0.885   2.767  1.0034 -0.1472  0.1797
  735SOL     MW 2940   3.010   0.865   2.686  0.3666 -0.4109  0.5420
  736SOL     OW 2941   0.123   0.564   2.535 -0.1236  0.3550 -0.5081
  736SOL    HW1 2942   0.135   0.656   2.490  1.3305 -0.3571 -0.1120
  736SOL    HW2 2943   0.195   0.506   2.499  0.1923 -1.4714 -1.5550
  736SOL     MW 2944   0.134   0.569   2.525  0.1099  0.0201 -0.5939
  737SOL     OW 2945   2.983   0.591   2.644  0.5200 -0.5931 -0.1881
  737SOL    HW1 2946   2.916   0.604   2.573 -0.2821  0.3461 -0.2065
  737SOL    HW2 2947   3.066   0.570   2.608 -0.7221 -0.5944  0.3813
  737SOL     MW 2948   2.985   0.590   2.630  0.2503 -0.4693 -0.1154
  738SOL     OW 2949   0.114   0.418   1.848 -0.4998 -0.2869 -0.0402
  738SOL    HW1 2950   0.205   0.434   1.864 -0.2356 -0.4701 -0.4467
  738SOL    HW2 2951   0.110   0.400   1.754 -0.9059 -2.2723 -1.0548
  738SOL     MW 2952   0.125   0.417   1.838 -0.5185 -0.5730 -0.2277
  739SOL     OW 2953   2.516   0.985   2.104  0.1836  0.0601 -0.1293
  739SOL    HW1 2954   2.455   1.002   2.038  5.9187 -1.9942  0.3446
  739SOL    HW2 2955   2.536   0.895   2.088 -0.6467  1.1633 -0.3300
  739SOL     MW 2956   2.511   0.975   2.093  0.8307 -0.0654 -0.0933
  740SOL     OW 2957   0.120   1.764   2.963  0.5423  0.3107 -0.2290
  740SOL    HW1 2958   0.072   1.686   2.942 -0.4597 -1.0492 -1.2451
  740SOL    HW2 2959   0.209   1.740   2.987  2.2873 -1.4271 -0.2117
  740SOL     MW 2960   0.125   1.750   2.964  0.6403 -0.0980 -0.3608
  741SOL     OW 2961   2.249   1.149   2.714 -0.1345  0.3566  0.2338
  741SOL    HW1 2962   2.203   1.206   2.656  1.4774 -0.2678  1.0904
  741SOL    HW2 2963   2.222   1.174   2.811 -1.3803  1.2856 -0.7714
  741SOL     MW 2964   2.239   1.160   2.719 -0.0862  0.3968  0.2142
  742SOL     OW 2965   1.555   1.221   2.289 -0.6491 -0.1067  0.7819
  742SOL    HW1 2966   1.468   1.197   2.258 -2.0912 -0.6321  0.1020
  742SOL    HW2 2967   1.580   1.160   2.361  0.7898  0.8133  1.3368
  742SOL     MW 2968   1.547   1.210   2.295 -0.6495 -0.0547  0.7654
  743SOL     OW 2969   2.494   1.229   2.714  1.2773  0.3101 -0.4473
  743SOL    HW1 2970   2.393   1.210   2.727 -1.5335 -1.3487  1.5323
  743SOL    HW2 2971   2.529   1.148   2.748  1.0519  0.1985 -2.1635
  743SOL     MW 2972   2.485   1.215   2.720  0.8767  0.0765 -0.4125
  744SOL     OW 2973   2.706   0.849   1.935  0.9618  0.0214  0.1253
  744SOL    HW1 2974   2.679   0.940   1.927 -1.5247  0.0736  3.6200
  744SOL    HW2 2975   2.636   0.802   1.884  0.6353 -1.2049 -0.7215
  744SOL     MW 2976   2.693   0.855   1.927  0.5907 -0.1335  0.4746
  745SOL     OW 2977   1.683   0.491   2.494  0.3079 -0.3518 -0.4376
  745SOL    HW1 2978   1.676   0.480   2.399  0.6131 -0.8692  1.5195
  745SOL    HW2 2979   1.641   0.411   2.522  1.9512 -2.4804 -1.7235
  745SOL     MW 2980   1.677   0.479   2.485  0.5650 -0.7009 -0.3490
  746SOL     OW 2981   1.587   1.479   1.628 -0.3713  0.5838  0.6494
  746SOL    HW1 2982   1.676   1.460   1.598 -2.5118  2.2727  2.1397
  746SOL    HW2 2983   1.589   1.483   1.723 -3.2334 -1.5554 -0.5713
  746SOL     MW 2984   1.599   1.477   1.637 -1.0313  0.5244  0.6849
  747SOL     OW 2985   2.616   1.128   1.811  0.2846  0.2035  0.1750
  747SOL    HW1 2986   2.533   1.117   1.756 -0.2533  2.1343 -1.3855
  747SOL    HW2 2987   2.586   1.178   1.889  1.5164  2.2388 -1.9546
  747SOL     MW 2988   2.601   1.133   1.814  0.3762  0.7268 -0.3119
  748SOL     OW 2989   0.082   0.120   1.896  0.4773 -0.1907 -0.1247
  748SOL    HW1 2990   0.164   0.112   1.938 -1.9226  0.6984 -3.4591
  748SOL    HW2 2991   0.031   0.183   1.949  2.9142  0.9654 -1.7020
  748SOL     MW 2992   0.086   0.127   1.909  0.4822  0.0791 -0.7727
  749SOL     OW 2993   2.547   0.585   2.784  0.5763  0.3930  0.0545
  749SOL    HW1 2994   2.577   0.661   2.735 -0.9602  0.3830 -0.5985
  749SOL    HW2 2995   2.537   0.629   2.875  1.0553 -0.5749  0.3254
  749SOL     MW 2996   2.550   0.601   2.790  0.4368  0.2639  0.0041
  750SOL     OW 2997   2.028   3.078   1.978  0.4833  0.0056 -0.1894
  750SOL    HW1 2998   2.072   3.163   1.996  0.4287  1.4419 -2.2657
  750SOL    HW2 2999   2.110   3.024   1.953 -0.5054  0.1068  0.3957
  750SOL     MW 3000   2.045   3.082   1.977  0.3456  0.2084 -0.3862
  751SOL     OW 3001   0.300   0.335   2.421 -0.6394 -0.2113 -0.4700
  751SOL    HW1 3002   0.268   0.265   2.471 -3.7514 -0.0492 -1.2961
  751SOL    HW2 3003   0.279   0.318   2.330  1.8812 -0.8628 -0.1301
  751SOL     MW 3004   0.293   0.324   2.416 -0.7174 -0.2759 -0.5342
  752SOL     OW 3005   2.144   0.834   2.732  0.1402  0.2126  0.3123
  752SOL    HW1 3006   2.230   0.859   2.695 -1.6837  1.9498  1.6305
  752SOL    HW2 3007   2.142   0.847   2.827  1.7985 -2.7032  0.7903
  752SOL     MW 3008   2.155   0.839   2.740  0.1184  0.0571  0.5493
  753SOL     OW 3009   2.783   0.154   2.404 -0.0244 -0.3878 -0.1057
  753SOL    HW1 3010   2.760   0.058   2.390 -0.5318 -1.1931 -1.3518
  753SOL    HW2 3011   2.761   0.202   2.325  2.3928 -0.6198  0.2943
  753SOL     MW 3012   2.777   0.148   2.392  0.2276 -0.5246 -0.2173
  754SOL     OW 3013   2.266   2.949   2.616  0.4236  0.3135  0.6325
  754SOL    HW1 3014   2.286   2.921   2.527 -0.6914 -0.9676  0.4341
  754SOL    HW2 3015   2.339   2.919   2.671 -1.2775  0.2844  3.4573
  754SOL     MW 3016   2.278   2.941   2.612  0.0521  0.1407  0.9791
  755SOL     OW 3017   2.749   1.539   2.401  0.0435 -0.1445  0.1033
  755SOL    HW1 3018   2.751   1.460   2.454  1.0380  0.9447  1.0481
  755SOL    HW2 3019   2.756   1.612   2.470 -1.2244  3.3765 -1.8907
  755SOL     MW 3020   2.750   1.538   2.417  0.0074  0.4638 -0.0351
  756SOL     OW 3021   2.228   1.184   2.985 -0.1715  0.4004 -0.2317
  756SOL    HW1 3022   2.286   1.261   2.987 -0.1386  0.9899  0.2787
  756SOL    HW2 3023   2.281   1.105   3.011  0.2728  0.3965 -1.5522
  756SOL     MW 3024   2.243   1.184   2.988 -0.1086  0.4777 -0.3386
  757SOL     OW 3025   2.173   0.920   1.607  0.7728  0.2736  0.3794
  757SOL    HW1 3026   2.192   0.824   1.607 -0.3772  2.2827  0.9392
  757SOL    HW2 3027   2.086   0.942   1.565 -0.0888  2.1364 -2.7900
  757SOL     MW 3028   2.164   0.910   1.601  0.5074  0.7844  0.0351
  758SOL     OW 3029   2.215   1.811   2.625  0.5305 -0.3314  0.1323
  758SOL    HW1 3030   2.187   1.857   2.546 -3.8463 -1.6951 -2.3098
  758SOL    HW2 3031   2.309   1.795   2.617  1.7032  2.5876 -0.1267
  758SOL     MW 3032   2.224   1.815   2.613  0.1077 -0.1262 -0.2241
  759SOL     OW 3033   1.544   1.286   2.717  0.2396 -0.0259 -0.1901
  759SOL    HW1 3034   1.544   1.354   2.650  2.0261 -0.5152  2.9038
  759SOL    HW2 3035   1.609   1.317   2.785 -2.2781 -3.5895  1.4174
  759SOL     MW 3036   1.552   1.299   2.717  0.1431 -0.5607  0.4302
  760SOL     OW 3037   2.562   1.991   2.718  0.5278  0.0558 -0.4902
  760SOL    HW1 3038   2.524   1.905   2.687 -1.1228  0.2785 -0.5201
  760SOL    HW2 3039   2.549   2.045   2.641 -0.7364 -1.4749  1.3420
  760SOL     MW 3040   2.555   1.987   2.704  0.1432 -0.1168 -0.2524
  761SOL     OW 3041   2.186   0.416   2.556  0.4436  0.1517 -0.5551
  761SOL    HW1 3042   2.136   0.348   2.595  0.5136 -1.5954  2.7861
  761SOL    HW2 3043   2.226   0.476   2.623  1.6298 -2.5904  0.1615
  761SOL     MW 3044   2.185   0.415   2.570  0.6094 -0.4406 -0.0197
  762SOL     OW 3045   3.055   0.226   2.150  0.2046  0.3781  0.3867
  762SOL    HW1 3046   3.054   0.153   2.209  0.4346  2.5000  1.0857
  762SOL    HW2 3047   3.049   0.314   2.200 -4.0732  0.7154 -1.5866
  762SOL     MW 3048   3.054   0.228   2.164 -0.3295  0.7026  0.2185
  763SOL     OW 3049   2.332   1.031   2.342  0.0427  0.1813 -0.0155
  763SOL    HW1 3050   2.371   0.994   2.263  0.9124  0.0893 -0.0039
  763SOL    HW2 3051   2.398   1.106   2.361  1.2618  0.1529 -1.4950
  763SOL     MW 3052   2.346   1.036   2.334  0.3183  0.1654 -0.2092
  764SOL     OW 3053   0.414   0.284   2.827 -0.6364  0.0706  0.1309
  764SOL    HW1 3054   0.342   0.220   2.826  0.0465 -0.8004 -0.7882
  764SOL    HW2 3055   0.395   0.353   2.894  0.7079 -1.3257  4.4322
  764SOL     MW 3056   0.402   0.285   2.836 -0.3689 -0.2285  0.5771
  765SOL     OW 3057   2.726   3.000   2.391  0.0270 -0.8362  0.2501
  765SOL    HW1 3058   2.679   3.008   2.310 -0.1481 -0.2675  0.9040
  765SOL    HW2 3059   2.815   2.963   2.369  1.4413  1.0265  0.2091
  765SOL     MW 3060   2.732   2.996   2.378  0.1905 -0.5154  0.3310
  766SOL     OW 3061   1.896   2.954   2.186  0.5562  0.5919 -0.3284
  766SOL    HW1 3062   1.935   3.009   2.114  1.0882  1.0856  0.5949
  766SOL    HW2 3063   1.830   2.899   2.135  1.9320 -1.5540  1.1348
  766SOL     MW 3064   1.893   2.954   2.169  0.8079  0.3739 -0.0135
  767SOL     OW 3065   2.640   0.604   2.130 -0.5306 -0.3191  0.7438
  767SOL    HW1 3066   2.719   0.662   2.125 -1.4893  0.6648  0.2726
  767SOL    HW2 3067   2.588   0.643   2.059  1.1816  2.1216  0.3088
  767SOL     MW 3068   2.644   0.617   2.120 -0.4312  0.1327  0.6243
  768SOL     OW 3069   3.043   1.556   2.929 -0.9800 -0.4217  0.3349
  768SOL    HW1 3070   3.071   1.545   3.024  0.9199  0.8356  3.9493
  768SOL    HW2 3071   3.094   1.478   2.895 -1.2952 -0.0648 -0.8293
  768SOL     MW 3072   3.053   1.544   2.937 -0.7709 -0.2087  0.6582
  769SOL     OW 3073   2.484   0.664   2.325  0.0797 -0.2603 -0.1308
  769SOL    HW1 3074   2.505   0.603   2.399  3.9319  0.5497 -0.3909
  769SOL    HW2 3075   2.547   0.644   2.253 -1.1180 -3.3203 -1.7806
  769SOL     MW 3076   2.495   0.653   2.325  0.4299 -0.5571 -0.3828
  770SOL     OW 3077   3.106   1.635   2.526 -0.4227 -0.5676 -0.2059
  770SOL    HW1 3078   3.017   1.668   2.540  4.2929 -0.0491  3.6174
  770SOL    HW2 3079   3.077   1.538   2.509 -4.5452 -0.3466 -3.2658
  770SOL     MW 3080   3.090   1.626   2.526 -0.3445 -0.4701 -0.1052
  771SOL     OW 3081   3.050   0.615   1.985  0.5153 -0.0055  0.0119
  771SOL    HW1 3082   2.972   0.594   1.930 -0.2191  0.2202 -1.0843
  771SOL    HW2 3083   3.133   0.576   1.949  1.2033  1.4070 -1.3056
  771SOL     MW 3084   3.050   0.607   1.973  0.5092  0.2106 -0.3065
  772SOL     OW 3085   0.071   3.084   2.287  0.0215  0.3520 -0.1583
  772SOL    HW1 3086   0.001   3.017   2.292  1.0287  0.9858 -0.6474
  772SOL    HW2 3087   0.138   3.038   2.234 -1.8168  1.3369  0.9813
  772SOL     MW 3088   0.070   3.069   2.281 -0.0882  0.5656 -0.0725
  773SOL     OW 3089   2.463   2.821   2.748  0.7219 -0.2485  0.1310
  773SOL    HW1 3090   2.457   2.744   2.694 -0.2276 -0.5617  0.9525
  773SOL    HW2 3091   2.418   2.785   2.827 -0.2974  0.6598  1.8060
  773SOL     MW 3092   2.456   2.806   2.751  0.4622 -0.1700  0.4604
  774SOL     OW 3093   2.325   1.140   1.741 -1.1168 -0.4539  0.1187
  774SOL    HW1 3094   2.321   1.209   1.673 -1.2490  0.2348 -0.4178
  774SOL    HW2 3095   2.294   1.059   1.707 -0.2221  0.4168  1.8230
  774SOL     MW 3096   2.321   1.138   1.728 -1.0162 -0.2482  0.2728
  775SOL     OW 3097   2.304   2.926   2.340 -0.1822 -0.3334  0.1991
  775SOL    HW1 3098   2.326   3.010   2.298  0.7176 -0.4571  0.3708
  775SOL    HW2 3099   2.363   2.857   2.317  1.6347 -1.5023 -0.7535
  775SOL     MW 3100   2.315   2.928   2.332  0.1762 -0.5040  0.0961
  776SOL     OW 3101   0.031   1.534   0.084 -0.3379 -0.2210  0.1128
  776SOL    HW1 3102   0.119   1.509   0.073 -2.3143 -2.2149 -0.1608
  776SOL    HW2 3103  -0.004   1.454   0.111  1.0035  0.6357 -1.1481
  776SOL     MW 3104   0.038   1.520   0.086 -0.4217 -0.3711 -0.0897
  777SOL     OW 3105   2.949   0.975   1.754 -0.5584 -0.1408  0.2038
  777SOL    HW1 3106   2.909   1.058   1.726  0.8875 -3.4610 -1.8496
  777SOL    HW2 3107   2.880   0.917   1.783  0.7333 -0.0625  2.0454
  777SOL     MW 3108   2.935   0.978   1.754 -0.1972 -0.5685  0.1758
  778SOL     OW 3109   2.882   0.355   2.779 -0.1173  0.0553  0.6325
  778SOL    HW1 3110   2.886   0.368   2.875  2.0842 -1.7988 -0.9167
  778SOL    HW2 3111   2.919   0.441   2.741  1.7107 -2.9154 -2.5101
  778SOL     MW 3112   2.888   0.368   2.787  0.4143 -0.5813  0.0135
  779SOL     OW 3113   2.109   0.538   2.316  0.0762 -0.0310  0.2264
  779SOL    HW1 3114   2.054   0.599   2.356 -1.2111 -4.0454 -1.1109
  779SOL    HW2 3115   2.146   0.498   2.392 -2.2816  2.3540  1.6781
  779SOL     MW 3116   2.106   0.541   2.331 -0.4047 -0.2460  0.2415
  780SOL     OW 3117   0.177   0.121   2.829  0.2693  0.3501 -0.5446
  780SOL    HW1 3118   0.115   0.164   2.893  0.4702 -2.8076  0.7715
  780SOL    HW2 3119   0.153   0.133   2.739  0.4046 -0.6605 -0.1039
  780SOL     MW 3120   0.166   0.128   2.826  0.3137 -0.1998 -0.3128
  781SOL     OW 3121   3.034   1.380   2.437 -0.2068  0.0566 -0.4218
  781SOL    HW1 3122   3.019   1.416   2.349  0.0199 -1.3507 -2.9632
  781SOL    HW2 3123   3.113   1.326   2.447 -2.0705  1.2025  0.6154
  781SOL     MW 3124   3.043   1.378   2.427 -0.4228  0.0221 -0.6202
  782SOL     OW 3125   0.540   1.567   3.073 -0.2837 -0.5244  0.7007
  782SOL    HW1 3126   0.495   1.652   3.061 -0.1276  1.1547  0.5351
  782SOL    HW2 3127   0.533   1.567   3.168  1.6565  0.0695 -2.6736
  782SOL     MW 3128   0.533   1.578   3.084 -0.0071 -0.2245  0.2337
  783SOL     OW 3129   2.816   0.570   2.436  0.3402  0.1111 -0.2524
  783SOL    HW1 3130   2.865   0.535   2.358  1.1584 -2.4563 -0.5680
  783SOL    HW2 3131   2.762   0.502   2.473 -1.2074 -1.0731 -1.6238
  783SOL     MW 3132   2.815   0.556   2.430  0.2440 -0.3839 -0.4750
  784SOL     OW 3133   0.207   0.913   2.888  0.0013 -0.1151  0.0485
  784SOL    HW1 3134   0.211   0.960   2.973  0.9563 -1.5639 -3.1778
  784SOL    HW2 3135   0.219   0.984   2.820 -3.5943 -2.3255  0.2964
  784SOL     MW 3136   0.209   0.928   2.891 -0.3471 -0.5979 -0.3444
  785SOL     OW 3137   0.354   0.512   2.122  0.5451  0.9890  0.0745
  785SOL    HW1 3138   0.349   0.520   2.026 -4.1515 -0.4755  0.5850
  785SOL    HW2 3139   0.296   0.440   2.144 -1.7135  2.7535 -2.6827
  785SOL     MW 3140   0.345   0.504   2.112 -0.3726  1.0286 -0.2220
  786SOL     OW 3141   2.031   0.487   2.839 -0.0702 -0.6942  0.2268
  786SOL    HW1 3142   1.989   0.501   2.920  1.9425  1.6789  0.1905
  786SOL    HW2 3143   2.122   0.504   2.848  0.8798  0.1169  0.2909
  786SOL     MW 3144   2.038   0.491   2.851  0.3207 -0.2741  0.2305
  787SOL     OW 3145   2.430   0.162   2.933 -0.2866 -0.4346 -0.0810
  787SOL    HW1 3146   2.496   0.100   2.898  0.2178 -1.5441  0.1004
  787SOL    HW2 3147   2.477   0.235   2.969 -0.5769 -1.6484 -0.0386
  787SOL     MW 3148   2.445   0.164   2.933 -0.2584 -0.7411 -0.0515
  788SOL     OW 3149   2.955   2.896   2.279 -0.4095 -0.5865  0.1166
  788SOL    HW1 3150   2.927   2.846   2.200 -5.1317 -1.7915 -0.3608
  788SOL    HW2 3151   3.001   2.840   2.342  2.3736  2.3326 -0.9280
  788SOL     MW 3152   2.957   2.882   2.277 -0.6653 -0.3604 -0.0842
  789SOL     OW 3153   0.038   0.273   3.016  0.1640  0.4366  0.0455
  789SOL    HW1 3154  -0.035   0.234   3.069 -1.6688  0.6114  0.8403
  789SOL    HW2 3155   0.108   0.272   3.078  1.9212  0.1446  0.4813
  789SOL     MW 3156   0.037   0.268   3.031  0.1540  0.4211  0.2078
  790SOL     OW 3157   0.021   1.061   2.496  0.0822 -0.0840 -0.5769
  790SOL    HW1 3158  -0.016   0.997   2.554  1.1933  2.3599 -0.6388
  790SOL    HW2 3159  -0.058   1.097   2.451 -2.2292 -1.7118  0.4702
  790SOL     MW 3160   0.006   1.057   2.498 -0.0762  0.0237 -0.4469
  791SOL     OW 3161   2.666   0.403   2.631  0.2992  0.5744 -0.2070
  791SOL    HW1 3162   2.614   0.471   2.680  0.7403 -1.6751 -2.1408
  791SOL    HW2 3163   2.742   0.377   2.689 -1.7185  0.4802 -0.0166
  791SOL     MW 3164   2.669   0.409   2.645  0.0912  0.2652 -0.4370
  792SOL     OW 3165   2.444   0.255   2.364  0.0137  0.3746  0.4807
  792SOL    HW1 3166   2.365   0.303   2.400  1.1746  2.6662  0.7243
  792SOL    HW2 3167   2.489   0.232   2.445 -3.8676  0.9404 -0.8381
  792SOL     MW 3168   2.440   0.258   2.379 -0.3452  0.7516  0.3388
  793SOL     OW 3169   1.752   1.031   1.877  0.2707 -0.3078 -0.3584
  793SOL    HW1 3170   1.734   1.090   1.800 -2.5939 -2.8474  0.2653
  793SOL    HW2 3171   1.843   0.994   1.852  2.3528  1.9817 -1.5012
  793SOL     MW 3172   1.762   1.034   1.863  0.1674 -0.3408 -0.4269
  794SOL     OW 3173   1.443   2.301   0.113 -0.0024 -0.2391  0.0656
  794SOL    HW1 3174   1.460   2.373   0.052 -0.3274 -3.2230 -1.0943
  794SOL    HW2 3175   1.488   2.326   0.195  0.5224  2.9497  0.4188
  794SOL     MW 3176   1.451   2.314   0.116  0.0239 -0.2121 -0.0409
  795SOL     OW 3177   2.368   0.931   2.606  0.0714 -0.2327  0.0653
  795SOL    HW1 3178   2.323   1.003   2.650  1.2728  1.2709 -2.1092
  795SOL    HW2 3179   2.353   0.957   2.514  2.8471  0.5173 -1.8004
  795SOL     MW 3180   2.360   0.944   2.600  0.5961  0.0647 -0.4678
  796SOL     OW 3181   0.319   0.687   2.793 -0.0991 -0.1257  0.3125
  796SOL    HW1 3182   0.268   0.753   2.842 -1.0529 -2.7420  2.0982
  796SOL    HW2 3183   0.252   0.654   2.734  1.4552 -1.5909 -0.0279
  796SOL     MW 3184   0.303   0.691   2.792 -0.0199 -0.6642  0.5032
  797SOL     OW 3185   2.578   0.149   2.583 -0.5213  0.3961  0.0072
  797SOL    HW1 3186   2.592   0.236   2.624  1.0436  1.8632  1.8585
  797SOL    HW2 3187   2.649   0.143   2.518 -1.3687 -1.8898 -1.7601
  797SOL     MW 3188   2.589   0.160   2.580 -0.4266  0.2881  0.0183
  798SOL     OW 3189   2.372   0.055   2.185  0.4990 -0.1167 -0.3570
  798SOL    HW1 3190   2.417   0.096   2.260 -2.2486 -1.1355  2.3628
  798SOL    HW2 3191   2.445   0.018   2.138 -0.3902 -2.0079  0.6839
  798SOL     MW 3192   2.388   0.055   2.189  0.0192 -0.5006  0.1392
  799SOL     OW 3193   2.523   2.939   0.202  0.1333 -0.5948 -0.5301
  799SOL    HW1 3194   2.573   2.880   0.148  0.9200 -0.8197  1.9780
  799SOL    HW2 3195   2.463   2.980   0.135 -0.1488 -0.5202  0.5888
  799SOL     MW 3196   2.522   2.937   0.186  0.1999 -0.6146 -0.0516
  800SOL     OW 3197   1.917   3.086   1.711 -0.0271 -0.0657 -0.0149
  800SOL    HW1 3198   1.859   3.009   1.728 -2.0343  1.8385  4.0458
  800SOL    HW2 3199   1.955   3.101   1.799 -2.3493 -0.2928 -0.4707
  800SOL     MW 3200   1.914   3.078   1.725 -0.5983  0.1555  0.4607
  801SOL     OW 3201   2.827   1.303   2.621 -0.0534  0.5454 -0.3197
  801SOL    HW1 3202   2.810   1.210   2.586  1.8437 -0.4014  0.1525
  801SOL    HW2 3203   2.911   1.328   2.580  2.0130  1.3326  0.0364
  801SOL     MW 3204   2.836   1.294   2.611  0.4695  0.5243 -0.2104
  802SOL     OW 3205   2.564   1.510   2.755 -0.2091  0.0962 -0.4754
  802SOL    HW1 3206   2.564   1.417   2.785 -2.9230 -0.3829  0.2952
  802SOL    HW2 3207   2.634   1.558   2.790 -3.7534  0.9455 -0.4102
  802SOL     MW 3208   2.573   1.504   2.763 -1.0348  0.1450 -0.3651
  803SOL     OW 3209   2.284   1.323   1.956 -0.0168 -0.4465 -0.0726
  803SOL    HW1 3210   2.231   1.266   2.011 -2.1307 -1.3200 -1.1542
  803SOL    HW2 3211   2.294   1.270   1.881 -2.1367 -0.3315  2.4800
  803SOL     MW 3212   2.278   1.309   1.953 -0.5754 -0.5466  0.1215
  804SOL     OW 3213   2.356   0.008   0.040  0.2334 -0.5984  0.1624
  804SOL    HW1 3214   2.271   0.058   0.020 -0.1276 -0.2473  2.0069
  804SOL    HW2 3215   2.408   0.059  -0.025 -1.1436  1.0306  1.9513
  804SOL     MW 3216   2.352   0.021   0.029  0.0041 -0.3372  0.6418
  805SOL     OW 3217   2.821   1.036   2.547  0.7318  0.4654  0.3950
  805SOL    HW1 3218   2.735   0.992   2.556  0.6720  0.0766  2.1303
  805SOL    HW2 3219   2.881   0.979   2.595 -2.2133 -1.8569  0.9538
  805SOL     MW 3220   2.818   1.022   2.555  0.3354  0.1077  0.6977
  806SOL     OW 3221   2.642   0.330   2.210 -0.3841  0.3843 -0.4672
  806SOL    HW1 3222   2.560   0.319   2.255  1.3938  0.2315 -2.8552
  806SOL    HW2 3223   2.638   0.418   2.186  2.2336  0.3706 -2.2404
  806SOL     MW 3224   2.631   0.340   2.212  0.1958  0.3623 -1.0163
  807SOL     OW 3225   0.034   1.156   2.095 -0.0140 -0.1602  0.5579
  807SOL    HW1 3226   0.107   1.095   2.089  0.6389 -0.7507  0.1413
  807SOL    HW2 3227  -0.032   1.101   2.136  0.1289  0.3956  1.8422
  807SOL     MW 3228   0.035   1.140   2.099  0.0910 -0.1648  0.6724
  808SOL     OW 3229   2.612   3.075   2.790  0.9668 -0.4525  0.2919
  808SOL    HW1 3230   2.569   2.991   2.770  0.0176  0.5810  3.6770
  808SOL    HW2 3231   2.611   3.130   2.706 -1.1989 -1.6770  0.3502
  808SOL     MW 3232   2.606   3.071   2.776  0.5558 -0.4777  0.7462
  809SOL     OW 3233   2.502   1.246   2.407  0.2992 -0.0139 -0.1517
  809SOL    HW1 3234   2.530   1.257   2.500  0.5168 -1.4729  5.1245
  809SOL    HW2 3235   2.576   1.238   2.347  2.4491 -0.4899 -0.8859
  809SOL     MW 3236   2.516   1.247   2.411  0.6116 -0.2692  0.4475
  810SOL     OW 3237   2.143   1.177   2.176  0.7164  0.4846  0.1349
  810SOL    HW1 3238   2.207   1.114   2.219 -0.6919 -2.8445  0.4283
  810SOL    HW2 3239   2.063   1.123   2.155  0.0040  0.5328  2.1084
  810SOL     MW 3240   2.141   1.162   2.178  0.4366  0.0517  0.4340
  811SOL     OW 3241   1.506   0.083   2.241 -0.7985 -0.0632  0.1053
  811SOL    HW1 3242   1.592   0.047   2.279  0.3457 -0.1530 -1.6780
  811SOL    HW2 3243   1.475   0.035   2.161  0.3919  0.5078 -4.3619
  811SOL     MW 3244   1.513   0.072   2.235 -0.4904  0.0003 -0.7194
  812SOL     OW 3245   1.443   2.755   2.101  0.0680 -0.0743 -0.4927
  812SOL    HW1 3246   1.538   2.754   2.073 -1.4946  0.6946 -0.9482
  812SOL    HW2 3247   1.444   2.744   2.197 -0.1270  2.9594 -1.2895
  812SOL     MW 3248   1.456   2.753   2.110 -0.1639  0.4274 -0.6579
  813SOL     OW 3249   1.869   0.730   2.173 -0.1029 -0.1657 -0.0736
  813SOL    HW1 3250   1.819   0.648   2.171 -0.6469 -1.4014 -1.5066
  813SOL    HW2 3251   1.886   0.748   2.267 -0.3209  2.4758 -1.2590
  813SOL     MW 3252   1.864   0.722   2.185 -0.2034  0.0198 -0.4191
  814SOL     OW 3253   2.824   1.193   1.654  0.2467 -0.6153  0.2490
  814SOL    HW1 3254   2.743   1.170   1.710 -4.1338 -1.6293 -0.3090
  814SOL    HW2 3255   2.796   1.202   1.563  1.4088  1.4019  0.7409
  814SOL     MW 3256   2.810   1.191   1.650 -0.1780 -0.4830  0.2403
  815SOL     OW 3257   2.491   1.627   2.354  0.3132  0.1789  0.1390
  815SOL    HW1 3258   2.422   1.558   2.355 -0.1370  2.9069  1.0852
  815SOL    HW2 3259   2.573   1.584   2.348  3.0356 -0.3379  0.5859
  815SOL     MW 3260   2.492   1.613   2.353  0.6130  0.4706  0.3228
  816SOL     OW 3261   0.674   0.676   2.686  0.3988 -0.3484  0.7886
  816SOL    HW1 3262   0.724   0.619   2.741 -1.4859 -1.0379  0.0545
  816SOL    HW2 3263   0.612   0.618   2.632  0.9310 -0.7058 -0.7289
  816SOL     MW 3264   0.672   0.661   2.686  0.2203 -0.4865  0.4915
  817SOL     OW 3265   3.044   1.168   1.305  0.2352  0.4510 -0.0585
  817SOL    HW1 3266   3.107   1.198   1.368  1.8620 -0.7743 -4.1599
  817SOL    HW2 3267   3.001   1.252   1.268 -0.9099 -1.0370 -0.7867
  817SOL     MW 3268   3.046   1.183   1.308  0.2988  0.0930 -0.6957
  818SOL     OW 3269   1.903   0.966   2.694 -0.4664  0.2982 -0.0381
  818SOL    HW1 3270   1.950   1.030   2.639  1.9075  0.7184 -0.9101
  818SOL    HW2 3271   1.967   0.898   2.713  1.8780  1.5961  1.5345
  818SOL     MW 3272   1.917   0.966   2.689  0.1561  0.5249  0.0543
  819SOL     OW 3273   1.932   0.242   2.325  0.2095 -0.3608 -0.0757
  819SOL    HW1 3274   1.937   0.335   2.326  3.3082  2.2258 -4.4147
  819SOL    HW2 3275   1.971   0.213   2.407 -0.9042 -0.2858  0.0068
  819SOL     MW 3276   1.938   0.250   2.336  0.4714 -0.0096 -0.6373
  820SOL     OW 3277   2.474   1.729   2.605 -0.2593 -0.4473  0.5803
  820SOL    HW1 3278   2.509   1.658   2.667  3.4976 -0.5116 -0.3639
  820SOL    HW2 3279   2.472   1.675   2.529 -0.1288  2.0621 -0.7025
  820SOL     MW 3280   2.478   1.712   2.603  0.2536 -0.1247  0.2865
  821SOL     OW 3281   2.545   1.316   2.003 -0.5952  0.0297 -0.5796
  821SOL    HW1 3282   2.575   1.397   1.961 -0.5050  0.1321  1.0046
  821SOL    HW2 3283   2.451   1.322   2.007 -2.2844 -0.4139  2.0863
  821SOL     MW 3284   2.537   1.327   1.998 -0.8062 -0.0154 -0.0188
  822SOL     OW 3285   2.899   2.623   1.448 -0.5146 -0.0736 -0.3257
  822SOL    HW1 3286   2.817   2.659   1.406 -2.7983 -0.4801  0.6943
  822SOL    HW2 3287   2.947   2.702   1.469 -1.5637 -1.8017 -0.3482
  822SOL     MW 3288   2.895   2.638   1.445 -0.9544 -0.3552 -0.1941
  823SOL     OW 3289   2.363   0.463   1.787 -0.1433  0.1021  0.0482
  823SOL    HW1 3290   2.426   0.426   1.719  0.4059 -1.4130 -0.2561
  823SOL    HW2 3291   2.287   0.408   1.792  2.7402 -1.3235 -0.9792
  823SOL     MW 3292   2.362   0.451   1.778  0.3096 -0.2859 -0.1275
  824SOL     OW 3293   2.129   1.357   2.570  0.3533 -0.2026 -0.3368
  824SOL    HW1 3294   2.197   1.387   2.505 -0.0818 -0.7694  0.7813
  824SOL    HW2 3295   2.108   1.438   2.621  1.0452 -1.2048 -2.0987
  824SOL     MW 3296   2.135   1.372   2.568  0.3872 -0.4096 -0.4217
  825SOL     OW 3297   2.128   2.343   0.358 -0.2452 -0.9652 -0.1761
  825SOL    HW1 3298   2.196   2.330   0.293 -0.5843 -0.1079  3.5361
  825SOL    HW2 3299   2.163   2.354   0.451  0.9543  1.4345  0.8591
  825SOL     MW 3300   2.141   2.343   0.362 -0.1317 -0.5355  0.4503
  826SOL     OW 3301   1.763   2.420   0.427  0.4136  0.4765  0.1477
  826SOL    HW1 3302   1.759   2.357   0.495  1.1786 -0.5635  0.5844
  826SOL    HW2 3303   1.815   2.492   0.458 -1.2254 -0.2591  1.9994
  826SOL     MW 3304   1.770   2.421   0.440  0.2982  0.2422  0.4497
  827SOL     OW 3305   1.923   2.254   0.863 -0.1086 -0.2752  0.1262
  827SOL    HW1 3306   1.874   2.271   0.782 -0.8969  0.0188  2.9861
  827SOL    HW2 3307   1.859   2.192   0.893 -0.1100 -0.5569 -0.7857
  827SOL     MW 3308   1.908   2.248   0.856 -0.2128 -0.2736  0.3832
  828SOL     OW 3309   0.097   2.637   0.545 -0.1389  0.5437 -0.5671
  828SOL    HW1 3310   0.178   2.672   0.578  0.3441  1.2902  0.6393
  828SOL    HW2 3311   0.088   2.663   0.456 -0.0879 -1.9325  1.2814
  828SOL     MW 3312   0.107   2.645   0.537 -0.0685  0.3155 -0.1640
  829SOL     OW 3313   2.994   2.859   1.193 -0.4100  0.3501 -0.3429
  829SOL    HW1 3314   2.905   2.865   1.176  4.1335  0.0100  0.6439
  829SOL    HW2 3315   3.025   2.780   1.151 -1.2805  0.1710  1.0866
  829SOL     MW 3316   2.986   2.849   1.185  0.0746  0.2816 -0.0241
  830SOL     OW 3317   2.489   2.814   1.991 -0.1895  0.5146  0.0213
  830SOL    HW1 3318   2.400   2.863   1.967 -2.9440  0.5955 -0.8938
  830SOL    HW2 3319   2.533   2.790   1.912 -0.0447 -0.1241  1.5278
  830SOL     MW 3320   2.483   2.817   1.977 -0.5338  0.4410  0.0993
  831SOL     OW 3321   2.463   2.431   1.233 -0.3066  0.4074  0.0979
  831SOL    HW1 3322   2.437   2.364   1.293  1.4664 -1.3992  0.0936
  831SOL    HW2 3323   2.552   2.401   1.197 -0.7939 -1.5828 -2.5089
  831SOL     MW 3324   2.471   2.418   1.237 -0.1369 -0.0935 -0.2466
  832SOL     OW 3325   2.424   2.103   1.921 -0.4691  0.0845  0.3569
  832SOL    HW1 3326   2.434   2.198   1.935 -0.2038 -2.0322 -0.8522
  832SOL    HW2 3327   2.501   2.073   1.868  1.5269  0.1813 -0.2896
  832SOL     MW 3328   2.435   2.112   1.916 -0.1707 -0.1820  0.1121
  833SOL     OW 3329   1.610   2.489   0.794 -0.2749  0.1530 -0.3232
  833SOL    HW1 3330   1.579   2.426   0.859  1.8633  1.5890  4.0804
  833SOL    HW2 3331   1.539   2.553   0.778  3.0301 -1.1922 -2.8247
  833SOL     MW 3332   1.597   2.489   0.800  0.4433  0.1650 -0.0723
  834SOL     OW 3333   2.200   2.412   0.607  0.1730  0.0085 -0.7979
  834SOL    HW1 3334   2.182   2.324   0.648 -0.9885 -1.0581  0.1677
  834SOL    HW2 3335   2.293   2.419   0.639 -0.1766  0.4184 -0.1097
  834SOL     MW 3336   2.210   2.401   0.617 -0.0264 -0.0781 -0.5797
  835SOL     OW 3337   1.862   2.612   0.671 -0.4888  0.8751 -0.1285
  835SOL    HW1 3338   1.779   2.592   0.729 -1.9082 -1.8015  1.2431
  835SOL    HW2 3339   1.925   2.546   0.694  0.5256 -2.2106  3.2266
  835SOL     MW 3340   1.859   2.600   0.682 -0.5422  0.1148  0.4951
  836SOL     OW 3341   2.088   2.058   1.769 -0.2309 -0.4275  0.0562
  836SOL    HW1 3342   2.166   2.006   1.754 -0.9311  2.5658  0.1035
  836SOL    HW2 3343   2.118   2.138   1.816 -0.4249 -0.0917  0.1064
  836SOL     MW 3344   2.102   2.061   1.773 -0.3489  0.0118  0.0691
  837SOL     OW 3345   2.106   0.208   0.661 -0.7835  0.6883  0.3700
  837SOL    HW1 3346   2.029   0.221   0.618  2.3800  2.2654 -0.3867
  837SOL    HW2 3347   2.153   0.162   0.594 -2.0107 -1.7868  0.3950
  837SOL     MW 3348   2.102   0.204   0.647 -0.5280  0.5698  0.2735
  838SOL     OW 3349   2.929   2.035   0.912  0.0405 -0.0661 -0.1010
  838SOL    HW1 3350   2.851   1.985   0.903 -1.1411  2.7677  0.5234
  838SOL    HW2 3351   2.966   2.011   0.995  2.1866  0.4197 -1.3622
  838SOL     MW 3352   2.924   2.025   0.922  0.1678  0.3719 -0.1850
  839SOL     OW 3353   1.523   2.404   1.049 -0.1490  0.3200 -0.2684
  839SOL    HW1 3354   1.484   2.473   1.103 -0.5038  0.4387 -1.2165
  839SOL    HW2 3355   1.520   2.322   1.106  1.7825  3.6339 -2.5931
  839SOL     MW 3356   1.518   2.402   1.063  0.0590  0.7729 -0.7002
  840SOL     OW 3357   2.395   2.122   2.312 -0.3429  0.1498 -0.0683
  840SOL    HW1 3358   2.351   2.199   2.276 -0.9075 -1.8184  0.8197
  840SOL    HW2 3359   2.445   2.146   2.393  1.1594  2.1074  0.0354
  840SOL     MW 3360   2.396   2.135   2.318 -0.2192  0.1484  0.0626
  841SOL     OW 3361   2.288   2.284   0.138  0.1842  0.1791  0.5414
  841SOL    HW1 3362   2.288   2.338   0.056  0.1959 -2.3776 -0.7181
  841SOL    HW2 3363   2.213   2.224   0.120 -1.5192 -0.1714  1.8026
  841SOL     MW 3364   2.278   2.283   0.125 -0.0390 -0.2044  0.5416
  842SOL     OW 3365   2.662   1.957   1.481 -0.4297  0.5341 -0.2789
  842SOL    HW1 3366   2.621   1.873   1.484  2.2892 -0.1263 -1.0673
  842SOL    HW2 3367   2.644   1.993   1.395 -0.6899 -0.1862 -1.2559
  842SOL     MW 3368   2.654   1.951   1.470 -0.1053  0.3519 -0.5118
  843SOL     OW 3369   2.675   2.753   1.762  0.7606 -0.5529  0.1477
  843SOL    HW1 3370   2.746   2.713   1.805 -0.7515  0.4892  0.4586
  843SOL    HW2 3371   2.629   2.675   1.721  1.9280 -0.2246  2.3410
  843SOL     MW 3372   2.678   2.738   1.762  0.7151 -0.3721  0.4781
  844SOL     OW 3373   2.679   2.334   1.092  0.3006 -0.1189  0.4621
  844SOL    HW1 3374   2.672   2.386   1.008  0.9400 -1.4069 -2.2181
  844SOL    HW2 3375   2.750   2.370   1.144  1.4514 -0.3317 -1.4412
  844SOL     MW 3376   2.687   2.345   1.088  0.5368 -0.3169 -0.1426
  845SOL     OW 3377   2.838   2.617   0.277 -0.4073  0.1006  0.1838
  845SOL    HW1 3378   2.814   2.540   0.337  0.3107 -0.9071 -2.3936
  845SOL    HW2 3379   2.838   2.698   0.330  0.6611 -1.4938 -1.0664
  845SOL     MW 3380   2.835   2.618   0.292 -0.1716 -0.2427 -0.3212
  846SOL     OW 3381   1.432   2.722   0.785 -0.2318 -0.1530  0.2567
  846SOL    HW1 3382   1.494   2.791   0.804  1.3047 -1.1960 -1.4153
  846SOL    HW2 3383   1.340   2.762   0.783 -0.9416 -0.0029  0.1301
  846SOL     MW 3384   1.428   2.737   0.788 -0.1227 -0.2708  0.0194
  847SOL     OW 3385   2.418   1.813   0.216 -0.3667 -0.0985 -0.3746
  847SOL    HW1 3386   2.398   1.725   0.234 -1.4764  0.4283  0.8027
  847SOL    HW2 3387   2.410   1.835   0.121 -0.2650  2.3619  2.3604
  847SOL     MW 3388   2.414   1.804   0.206 -0.4997  0.2956  0.1416
  848SOL     OW 3389   2.709   2.075   1.203 -0.1578  0.4475  0.1465
  848SOL    HW1 3390   2.719   2.165   1.164 -3.1052  4.4326  1.8072
  848SOL    HW2 3391   2.790   2.039   1.169  2.2325  1.7959  4.0952
  848SOL     MW 3392   2.721   2.082   1.194 -0.2313  1.1512  0.8866
  849SOL     OW 3393   1.927   2.846   0.828 -0.1733 -0.0035  0.3369
  849SOL    HW1 3394   1.855   2.826   0.891 -1.2275 -0.4000 -0.5309
  849SOL    HW2 3395   1.936   2.773   0.772 -1.1849 -0.6950 -0.6232
  849SOL     MW 3396   1.919   2.834   0.829 -0.4458 -0.1470  0.0957
  850SOL     OW 3397   2.317   1.945   1.612  0.1216 -0.2645  0.1710
  850SOL    HW1 3398   2.243   1.922   1.551  1.5218  0.8650  0.1090
  850SOL    HW2 3399   2.316   2.038   1.615 -0.3189  2.6668  0.6572
  850SOL     MW 3400   2.307   1.954   1.605  0.2482  0.2713  0.2270
  851SOL     OW 3401   2.569   2.222   0.416  0.5522  0.1836 -0.7928
  851SOL    HW1 3402   2.602   2.200   0.326  0.6016  0.5638 -0.8364
  851SOL    HW2 3403   2.547   2.318   0.420 -2.2220  2.4688  2.8634
  851SOL     MW 3404   2.570   2.232   0.405  0.1927  0.5353 -0.3162
  852SOL     OW 3405   2.325   2.021   0.362  0.0418  0.5172 -0.2395
  852SOL    HW1 3406   2.394   2.086   0.359  1.5341 -0.2276  1.9555
  852SOL    HW2 3407   2.369   1.945   0.312  2.0503  0.0292  0.9722
  852SOL     MW 3408   2.340   2.020   0.355  0.5037  0.3545  0.2100
  853SOL     OW 3409   2.508   2.406   1.905 -0.2496  0.0610  0.1373
  853SOL    HW1 3410   2.506   2.431   1.809  0.7388  1.7650 -1.5525
  853SOL    HW2 3411   2.599   2.419   1.924  0.0444 -0.6734  2.4024
  853SOL     MW 3412   2.520   2.411   1.895 -0.0804  0.1889  0.2132
  854SOL     OW 3413   2.891   2.271   0.736  0.6632  0.0835  0.2247
  854SOL    HW1 3414   2.828   2.220   0.687 -0.6921 -0.4739  1.3025
  854SOL    HW2 3415   2.928   2.211   0.808  2.0006  0.4554 -1.0149
  854SOL     MW 3416   2.888   2.257   0.739  0.6609  0.0590  0.2033
  855SOL     OW 3417   2.816   2.378   0.421  0.5799 -0.0825 -0.1028
  855SOL    HW1 3418   2.727   2.339   0.423 -0.5993  0.0933  0.6300
  855SOL    HW2 3419   2.875   2.303   0.396  0.8870 -1.9741 -0.4236
  855SOL     MW 3420   2.812   2.363   0.418  0.4648 -0.3089 -0.0484
  856SOL     OW 3421   2.106   1.822   0.243 -0.0333 -0.4395  0.1929
  856SOL    HW1 3422   2.020   1.835   0.282 -0.9816 -1.8635  0.7873
  856SOL    HW2 3423   2.160   1.901   0.262  0.6042  0.9243 -0.3921
  856SOL     MW 3424   2.102   1.834   0.251 -0.0743 -0.4475  0.1941
  857SOL     OW 3425   2.459   1.934   0.569  0.6432  0.3691 -0.1613
  857SOL    HW1 3426   2.398   1.958   0.500  1.4158 -0.4873  1.8246
  857SOL    HW2 3427   2.399   1.934   0.648 -0.9643 -0.6878 -0.8881
  857SOL     MW 3428   2.443   1.937   0.571  0.5330  0.1167  0.0048
  858SOL     OW 3429   2.924   2.677   1.835 -0.0047  0.0025  0.5525
  858SOL    HW1 3430   3.007   2.717   1.863 -1.1380  1.4630  0.9575
  858SOL    HW2 3431   2.939   2.604   1.780 -1.2733  2.4152  0.2316
  858SOL     MW 3432   2.937   2.673   1.832 -0.3216  0.5135  0.5636
  859SOL     OW 3433   1.748   2.650   0.984 -0.2943 -0.0469 -0.0904
  859SOL    HW1 3434   1.680   2.589   0.949 -1.2474 -1.0777  0.6946
  859SOL    HW2 3435   1.812   2.604   1.027 -0.2292  2.6552 -0.9712
  859SOL     MW 3436   1.747   2.636   0.985 -0.4114  0.1736 -0.1030
  860SOL     OW 3437   2.636   2.581   0.073  0.2343 -0.0647 -0.5082
  860SOL    HW1 3438   2.693   2.605   0.149  1.3922  1.0224 -1.5452
  860SOL    HW2 3439   2.619   2.669   0.032 -1.5872 -2.0005 -0.7144
  860SOL     MW 3440   2.641   2.596   0.078  0.1468 -0.1767 -0.6722
  861SOL     OW 3441   1.609   2.154   1.192 -0.2918 -0.3480 -0.1693
  861SOL    HW1 3442   1.648   2.215   1.260  1.2788  1.2228  2.0114
  861SOL    HW2 3443   1.546   2.094   1.238  0.5595  0.2893  0.7651
  861SOL     MW 3444   1.606   2.154   1.207  0.0277 -0.0566  0.2417
  862SOL     OW 3445   2.423   1.710   1.445  0.2343 -0.0463  0.3140
  862SOL    HW1 3446   2.371   1.775   1.500 -0.6529  0.7884  0.1021
  862SOL    HW2 3447   2.429   1.753   1.357  4.8386  1.3071  0.7174
  862SOL     MW 3448   2.417   1.724   1.440  0.7247  0.2424  0.3393
  863SOL     OW 3449   2.892   1.650   0.956 -0.2845 -0.9441 -0.3264
  863SOL    HW1 3450   2.872   1.725   1.009  0.2714 -1.6909 -0.0897
  863SOL    HW2 3451   2.821   1.650   0.889 -1.1057 -1.3082  1.0627
  863SOL     MW 3452   2.880   1.660   0.954 -0.3195 -1.0907 -0.1119
  864SOL     OW 3453   3.081   1.756   0.774 -0.2234  0.2488 -0.0877
  864SOL    HW1 3454   3.021   1.738   0.850 -3.0797 -1.4260 -1.7869
  864SOL    HW2 3455   3.018   1.750   0.700 -0.2314  0.6204  1.8988
  864SOL     MW 3456   3.065   1.753   0.775 -0.6013  0.0768 -0.0498
  865SOL     OW 3457   2.518   2.151   0.136 -0.7456  0.3064  0.1545
  865SOL    HW1 3458   2.508   2.066   0.091 -0.6391  1.9386  0.1615
  865SOL    HW2 3459   2.418   2.188   0.134 -1.7844 -1.8708 -0.2189
  865SOL     MW 3460   2.503   2.145   0.130 -0.8686  0.2345  0.1062
  866SOL     OW 3461   2.737   2.371   1.517 -0.2288  0.0029  0.2905
  866SOL    HW1 3462   2.712   2.286   1.535 -0.5619  2.4144  2.3205
  866SOL    HW2 3463   2.782   2.366   1.435 -1.2126  1.1727  0.2439
  866SOL     MW 3464   2.740   2.359   1.508 -0.4026  0.4754  0.5522
  867SOL     OW 3465   0.148   2.674   1.726  0.6695  0.7979 -0.0760
  867SOL    HW1 3466   0.233   2.713   1.746 -0.1872  1.2667  0.2535
  867SOL    HW2 3467   0.086   2.742   1.718 -0.1843  1.8531 -1.0925
  867SOL     MW 3468   0.151   2.688   1.727  0.4438  0.9990 -0.1666
  868SOL     OW 3469   2.743   2.667   0.597 -0.4145 -0.2169 -0.4737
  868SOL    HW1 3470   2.742   2.570   0.591 -1.1196 -3.9476  0.0917
  868SOL    HW2 3471   2.668   2.696   0.545  1.8129 -0.6220 -0.1880
  868SOL     MW 3472   2.733   2.658   0.589 -0.2136 -0.7625 -0.3614
  869SOL     OW 3473   1.926   2.461   1.082 -0.1027 -0.3699  0.4313
  869SOL    HW1 3474   2.007   2.500   1.052 -0.7242 -0.6708 -1.6059
  869SOL    HW2 3475   1.927   2.391   1.012  3.1363 -0.6748  0.0476
  869SOL     MW 3476   1.937   2.457   1.069  0.2427 -0.4498  0.1119
  870SOL     OW 3477   2.170   3.095   0.458 -0.6377  0.6037 -0.0145
  870SOL    HW1 3478   2.257   3.119   0.425  2.3222 -0.4432 -0.6647
  870SOL    HW2 3479   2.191   3.006   0.496  1.8840 -0.8236  1.9876
  870SOL     MW 3480   2.185   3.087   0.459  0.0855  0.2772  0.1638
  871SOL     OW 3481   2.482   2.054   0.909  0.1138 -0.7047 -0.3454
  871SOL    HW1 3482   2.395   2.013   0.911  0.1293  2.1093  0.6200
  871SOL    HW2 3483   2.460   2.139   0.952 -1.6820  0.3177 -0.3691
  871SOL     MW 3484   2.467   2.060   0.915 -0.1211 -0.1985 -0.2211
  872SOL     OW 3485   2.099   2.481   1.608 -0.0134 -0.2573 -0.4934
  872SOL    HW1 3486   2.045   2.557   1.631  1.5403  0.2012  2.1064
  872SOL    HW2 3487   2.065   2.461   1.518  0.0470 -1.2496  1.1618
  872SOL     MW 3488   2.087   2.489   1.599  0.1995 -0.3277  0.0680
  873SOL     OW 3489   2.858   2.135   1.842  0.3055 -0.4214  0.1590
  873SOL    HW1 3490   2.862   2.220   1.885  1.6949  1.0355  0.0365
  873SOL    HW2 3491   2.928   2.134   1.781 -0.1564 -0.4830  0.2418
  873SOL     MW 3492   2.868   2.146   1.840  0.4278 -0.2373  0.1538
  874SOL     OW 3493   2.310   1.416   2.371  0.3290 -0.0716  0.6085
  874SOL    HW1 3494   2.262   1.391   2.292 -1.2047 -0.3791  0.1679
  874SOL    HW2 3495   2.378   1.357   2.391  0.2773 -0.3234  1.9954
  874SOL     MW 3496   2.312   1.405   2.363  0.1198 -0.1454  0.7334
  875SOL     OW 3497   2.365   2.328   0.993 -0.2722 -0.6509  0.2961
  875SOL    HW1 3498   2.399   2.383   0.921 -2.0802 -0.2197 -0.3709
  875SOL    HW2 3499   2.390   2.379   1.072 -3.9992 -1.3213  0.0709
  875SOL     MW 3500   2.373   2.342   0.994 -1.0025 -0.6825  0.1784
  876SOL     OW 3501   3.090   2.206   1.315 -0.4414 -0.0284  0.1904
  876SOL    HW1 3502   3.170   2.242   1.274 -0.7756 -3.6954 -4.1714
  876SOL    HW2 3503   3.090   2.223   1.408  3.9625  0.8173 -2.3504
  876SOL     MW 3504   3.101   2.213   1.322  0.0956 -0.4006 -0.7203
  877SOL     OW 3505   0.022   2.789   0.281 -0.3147 -0.1309 -0.3281
  877SOL    HW1 3506   0.100   2.837   0.260  0.4884  2.3229 -1.7446
  877SOL    HW2 3507   0.005   2.724   0.211  0.4210  1.5873  1.8350
  877SOL     MW 3508   0.030   2.787   0.269 -0.1116  0.4196 -0.2296
  878SOL     OW 3509   2.264   1.675   1.153  0.0526  0.2212 -0.1485
  878SOL    HW1 3510   2.183   1.662   1.223 -1.5437 -0.9788  2.1578
  878SOL    HW2 3511   2.288   1.594   1.110 -0.0089  2.1438  1.4806
  878SOL     MW 3512   2.256   1.662   1.157 -0.1662  0.3166  0.3708
  879SOL     OW 3513   2.711   2.457   0.848 -0.3910 -0.2759 -0.0439
  879SOL    HW1 3514   2.782   2.520   0.859 -1.8619  0.3452  0.4520
  879SOL    HW2 3515   2.761   2.374   0.819  0.0789  1.7191  1.0468
  879SOL     MW 3516   2.727   2.454   0.846 -0.5230  0.0692  0.1655
  880SOL     OW 3517   2.591   2.200   0.694 -0.2861 -0.2365  0.5849
  880SOL    HW1 3518   2.546   2.135   0.756 -1.6230 -3.8530  1.1102
  880SOL    HW2 3519   2.569   2.185   0.599  0.7402  2.5026  2.4958
  880SOL     MW 3520   2.582   2.190   0.690 -0.3271 -0.3523  0.9063
  881SOL     OW 3521   2.994   2.739   0.681  0.1880 -0.3125  0.3203
  881SOL    HW1 3522   2.901   2.709   0.649 -1.7344 -1.2739 -0.6004
  881SOL    HW2 3523   3.055   2.712   0.616 -0.6352 -1.6784  1.5564
  881SOL     MW 3524   2.990   2.732   0.668 -0.1743 -0.6196  0.3619
  882SOL     OW 3525   2.251   2.913   1.940  0.2570  0.4790 -0.2273
  882SOL    HW1 3526   2.268   2.924   1.844  1.6535 -0.9505  0.1145
  882SOL    HW2 3527   2.207   2.832   1.950  1.9379  0.9082  0.7288
  882SOL     MW 3528   2.247   2.904   1.929  0.6631  0.3471 -0.0560
  883SOL     OW 3529   2.460   2.150   1.298  0.2664  0.0833  0.2661
  883SOL    HW1 3530   2.543   2.122   1.254  1.7491  0.3409 -3.3808
  883SOL    HW2 3531   2.385   2.149   1.237 -0.9765  1.5512  1.7618
  883SOL     MW 3532   2.461   2.146   1.284  0.2981  0.3110 -0.0177
  884SOL     OW 3533   1.888   1.854   1.054 -0.3877  0.0364 -0.5547
  884SOL    HW1 3534   1.847   1.939   1.025  1.1561 -1.1201 -0.2598
  884SOL    HW2 3535   1.986   1.868   1.051 -0.9647  0.7017  1.5828
  884SOL     MW 3536   1.896   1.867   1.049 -0.2601 -0.0284 -0.2338
  885SOL     OW 3537   2.939   2.443   1.700 -0.0242 -0.0674  0.3921
  885SOL    HW1 3538   3.006   2.377   1.681 -0.7237 -1.4270 -0.7433
  885SOL    HW2 3539   2.872   2.434   1.627 -1.0535 -0.4427 -0.5416
  885SOL     MW 3540   2.939   2.433   1.688 -0.2523 -0.2963  0.1191
  886SOL     OW 3541   2.865   2.401   1.288  0.4550 -0.0594  0.2683
  886SOL    HW1 3542   2.933   2.334   1.304  2.2136 -3.7713  0.0816
  886SOL    HW2 3543   2.898   2.483   1.333  2.3638 -0.7889 -0.6216
  886SOL     MW 3544   2.878   2.403   1.296  0.9389 -0.6454  0.1262
  887SOL     OW 3545   2.308   2.655   1.580  0.0078 -0.2835  0.1094
  887SOL    HW1 3546   2.332   2.656   1.486  0.8030 -2.8981 -0.9909
  887SOL    HW2 3547   2.243   2.585   1.584 -1.0662 -2.4530 -0.3652
  887SOL     MW 3548   2.303   2.646   1.568 -0.0290 -0.9147 -0.0984
  888SOL     OW 3549   2.067   2.172   1.438  0.1476  0.0563  0.1714
  888SOL    HW1 3550   2.102   2.155   1.351 -0.9619  0.1947 -0.5735
  888SOL    HW2 3551   2.140   2.177   1.494  2.5883  0.3815 -1.5459
  888SOL     MW 3552   2.081   2.171   1.434  0.3232  0.1175 -0.1534
  889SOL     OW 3553   2.262   1.926   2.086 -0.0611  0.3679 -0.5547
  889SOL    HW1 3554   2.347   1.889   2.119 -2.1018 -0.7992  1.4687
  889SOL    HW2 3555   2.291   1.994   2.023  2.0725  0.7573 -1.3523
  889SOL     MW 3556   2.277   1.930   2.082 -0.0489  0.2653 -0.3930
  890SOL     OW 3557   0.078   2.342   0.139 -0.0945  0.4357 -0.3839
  890SOL    HW1 3558   0.044   2.434   0.145 -0.4953 -0.9110 -0.3936
  890SOL    HW2 3559   0.107   2.311   0.226 -0.3802  2.6079 -1.7326
  890SOL     MW 3560   0.077   2.350   0.152 -0.1851  0.5446 -0.5631
  891SOL     OW 3561   2.998   1.977   1.186  0.2940 -0.0230  0.6779
  891SOL    HW1 3562   3.073   1.931   1.155 -2.4651  0.2375 -1.4238
  891SOL    HW2 3563   3.033   2.061   1.231  4.1848 -1.7727 -1.8259
  891SOL     MW 3564   3.013   1.982   1.188  0.4433 -0.2195  0.0702
  892SOL     OW 3565   2.455   2.349   2.741 -0.7823 -0.6374 -0.3216
  892SOL    HW1 3566   2.446   2.276   2.802  0.7480  3.6871  0.8537
  892SOL    HW2 3567   2.543   2.393   2.765  2.0916 -0.2831 -0.5381
  892SOL     MW 3568   2.466   2.345   2.752 -0.2012 -0.0201 -0.1951
  893SOL     OW 3569   1.627   2.322   1.393 -0.1358 -0.0141 -0.3917
  893SOL    HW1 3570   1.574   2.399   1.410  4.1047 -1.0569  2.9403
  893SOL    HW2 3571   1.675   2.308   1.475 -1.2096 -1.0480  0.0191
  893SOL     MW 3572   1.626   2.330   1.406  0.2820 -0.2881  0.1021
  894SOL     OW 3573   2.760   1.969   0.450  0.3222 -0.1464 -0.6011
  894SOL    HW1 3574   2.684   1.988   0.515  0.2459  0.1089  1.3858
  894SOL    HW2 3575   2.734   1.890   0.401 -0.4447 -0.8613  2.0946
  894SOL     MW 3576   2.747   1.961   0.452  0.2109 -0.2070  0.0167
  895SOL     OW 3577   2.207   2.142   1.172 -0.7933  0.0142  0.5088
  895SOL    HW1 3578   2.234   2.218   1.113  0.7922  1.8872 -1.0132
  895SOL    HW2 3579   2.173   2.074   1.107 -0.0325 -0.8142 -1.3763
  895SOL     MW 3580   2.206   2.143   1.156 -0.4837  0.1520  0.0593
  896SOL     OW 3581   2.257   2.826   1.066  0.9449 -0.1144  0.1053
  896SOL    HW1 3582   2.298   2.782   1.142  1.4198 -1.2401  0.3050
  896SOL    HW2 3583   2.187   2.880   1.102  1.3210 -2.8842  0.9301
  896SOL     MW 3584   2.253   2.827   1.081  1.0572 -0.6284  0.2405
  897SOL     OW 3585   3.085   3.072   3.066 -0.1868  0.4981 -0.4234
  897SOL    HW1 3586   3.124   2.984   3.072 -0.1561 -1.3062  1.6595
  897SOL    HW2 3587   3.021   3.064   2.999 -1.5899  1.4127 -1.1587
  897SOL     MW 3588   3.081   3.059   3.058 -0.3679  0.3807 -0.2456
  898SOL     OW 3589   2.197   0.175   1.432 -0.5083  0.6620 -0.2638
  898SOL    HW1 3590   2.158   0.090   1.446  2.5739 -0.3365  0.6327
  898SOL    HW2 3591   2.150   0.219   1.358 -0.6326 -1.4238  0.2342
  898SOL     MW 3592   2.185   0.170   1.424 -0.1180  0.2551 -0.0798
  899SOL     OW 3593   2.979   3.001   0.632  0.7874 -0.7887 -0.3739
  899SOL    HW1 3594   2.967   2.911   0.658 -1.4466 -0.1769  0.2516
  899SOL    HW2 3595   2.893   3.038   0.646  1.0797  4.0564  0.7335
  899SOL     MW 3596   2.966   2.994   0.638  0.5312 -0.0687 -0.1453
  900SOL     OW 3597   0.169   2.364   1.130  0.2683 -0.1137 -0.0687
  900SOL    HW1 3598   0.139   2.451   1.107  0.1604  0.4336  2.3816
  900SOL    HW2 3599   0.147   2.314   1.047  0.3117  0.5110 -1.6033
  900SOL     MW 3600   0.162   2.369   1.116  0.2598  0.0409  0.0521
  901SOL     OW 3601   1.755   2.869   1.788  0.1682  0.1341 -0.3135
  901SOL    HW1 3602   1.834   2.819   1.753 -2.2958  3.4777 -1.4586
  901SOL    HW2 3603   1.671   2.822   1.759 -2.6232 -2.9231  1.3996
  901SOL     MW 3604   1.754   2.856   1.779 -0.5252  0.1719 -0.2385
  902SOL     OW 3605   2.623   2.091   1.719  0.0037 -0.2420  0.0495
  902SOL    HW1 3606   2.626   2.038   1.641 -0.3913 -0.9582  0.8104
  902SOL    HW2 3607   2.711   2.090   1.753  0.1781 -0.6913 -0.8949
  902SOL     MW 3608   2.635   2.084   1.713 -0.0254 -0.3958  0.0253
  903SOL     OW 3609   1.547   2.635   0.534  0.7119 -0.1250  0.4364
  903SOL    HW1 3610   1.640   2.646   0.538  0.0499 -1.1536 -0.8122
  903SOL    HW2 3611   1.503   2.671   0.610 -1.4242 -1.4467 -2.0557
  903SOL     MW 3612   1.553   2.641   0.544  0.3427 -0.4351 -0.0572
  904SOL     OW 3613   2.561   2.527   1.651  0.5541 -0.2591 -0.2642
  904SOL    HW1 3614   2.482   2.573   1.615 -1.1438  0.2683 -1.1756
  904SOL    HW2 3615   2.611   2.482   1.578 -0.2094  0.9337  0.0084
  904SOL     MW 3616   2.557   2.527   1.637  0.2293 -0.0321 -0.3485
  905SOL     OW 3617   2.337   2.506   2.084  0.0412  0.3937 -0.5855
  905SOL    HW1 3618   2.407   2.456   2.030  2.6232  0.5072  0.5808
  905SOL    HW2 3619   2.306   2.432   2.144 -1.1701  0.8743  0.6923
  905SOL     MW 3620   2.342   2.490   2.085  0.2220  0.4721 -0.2630
  906SOL     OW 3621   2.458   2.503   0.759 -0.3876 -0.4345  0.4864
  906SOL    HW1 3622   2.550   2.493   0.775 -1.3821 -2.0431  1.7244
  906SOL    HW2 3623   2.425   2.587   0.781  0.8932 -0.8145 -0.0029
  906SOL     MW 3624   2.466   2.512   0.764 -0.3498 -0.6969  0.5852
  907SOL     OW 3625   2.691   2.765   1.315 -0.1292 -0.7005  0.5117
  907SOL    HW1 3626   2.720   2.842   1.361  0.8324 -1.5350 -3.4450
  907SOL    HW2 3627   2.694   2.791   1.224  2.5186  1.0017 -0.8040
  907SOL     MW 3628   2.695   2.779   1.309  0.3471 -0.5860 -0.1840
  908SOL     OW 3629   2.676   2.331   3.071  0.1882 -0.6459 -0.2329
  908SOL    HW1 3630   2.634   2.271   3.124  1.3249 -0.7331 -0.3284
  908SOL    HW2 3631   2.658   2.413   3.124  0.7912  1.8931 -0.1451
  908SOL     MW 3632   2.668   2.334   3.085  0.4177 -0.3224 -0.2339
  909SOL     OW 3633   1.707   0.110   1.316 -0.3063 -0.6105  0.3607
  909SOL    HW1 3634   1.670   0.203   1.323  0.4344 -1.6472  0.8026
  909SOL    HW2 3635   1.682   0.063   1.397  1.1730  3.5843 -1.6237
  909SOL     MW 3636   1.699   0.116   1.328 -0.0134 -0.1938  0.1572
  910SOL     OW 3637   2.129   1.624   0.422  0.1645  0.0432 -0.1355
  910SOL    HW1 3638   2.104   1.536   0.386 -3.1100  2.8977 -0.1307
  910SOL    HW2 3639   2.101   1.692   0.358  2.6006  0.0929  0.1151
  910SOL     MW 3640   2.122   1.621   0.409  0.0539  0.4264 -0.1018
  911SOL     OW 3641   2.409   2.216   1.565 -0.2863  0.2134 -0.1547
  911SOL    HW1 3642   2.487   2.184   1.616 -0.3394 -1.4809  2.9034
  911SOL    HW2 3643   2.423   2.182   1.481  0.2073  1.5718  1.9506
  911SOL     MW 3644   2.421   2.207   1.560 -0.2282  0.1691  0.5266
  912SOL     OW 3645   2.930   1.861   1.425  0.4887 -0.0836  0.3064
  912SOL    HW1 3646   2.943   1.886   1.329 -0.8952 -0.1052 -0.5889
  912SOL    HW2 3647   2.845   1.901   1.439  2.2501 -0.6369  1.8572
  912SOL     MW 3648   2.920   1.869   1.414  0.5385 -0.1595  0.3929
  913SOL     OW 3649   2.699   0.026   0.313 -0.3144  0.5039  0.5020
  913SOL    HW1 3650   2.786  -0.012   0.334  1.3950 -1.6122 -0.7946
  913SOL    HW2 3651   2.643  -0.045   0.283  1.7427  1.2571  1.8271
  913SOL     MW 3652   2.703   0.011   0.312  0.1825  0.3240  0.5058
  914SOL     OW 3653   2.635   1.797   3.026 -0.1550 -0.1115  0.6090
  914SOL    HW1 3654   2.694   1.870   3.000 -0.4646 -0.2166  0.2560
  914SOL    HW2 3655   2.545   1.834   3.012 -2.6354 -1.0699 -2.8751
  914SOL     MW 3656   2.631   1.811   3.020 -0.5231 -0.2518  0.1027
  915SOL     OW 3657   1.804   0.098   0.154 -1.1699 -0.1213  0.5336
  915SOL    HW1 3658   1.878   0.038   0.185  0.7643 -1.3059  0.4944
  915SOL    HW2 3659   1.729   0.053   0.191  1.4979  3.2654  1.2438
  915SOL     MW 3660   1.804   0.084   0.163 -0.5627  0.1692  0.6222
  916SOL     OW 3661   1.797   2.168   1.978  0.0371 -0.0415 -0.1123
  916SOL    HW1 3662   1.823   2.253   1.945 -0.0045 -0.4129 -0.4362
  916SOL    HW2 3663   1.802   2.118   1.902  0.3881 -0.3571  1.0523
  916SOL     MW 3664   1.801   2.172   1.964  0.0779 -0.1321 -0.0014
  917SOL     OW 3665   2.530   2.192   2.537 -0.3512  0.1369 -0.0810
  917SOL    HW1 3666   2.480   2.254   2.590 -1.7896  3.8434 -1.3315
  917SOL    HW2 3667   2.613   2.238   2.516  3.0848  0.2069  0.7712
  917SOL     MW 3668   2.534   2.206   2.541 -0.0877  0.6352 -0.1335
  918SOL     OW 3669   2.051   1.618   2.697 -0.2750  0.4042 -0.3857
  918SOL    HW1 3670   1.993   1.614   2.623  1.5170 -1.4667 -0.5339
  918SOL    HW2 3671   2.113   1.689   2.660  0.5085 -0.8733 -2.3324
  918SOL     MW 3672   2.052   1.627   2.683  0.0648 -0.0112 -0.6621
  919SOL     OW 3673   3.028   2.398   2.283 -0.1139 -0.0268  0.3369
  919SOL    HW1 3674   2.948   2.344   2.255  2.5372 -0.5990 -0.3137
  919SOL    HW2 3675   3.098   2.388   2.222  0.5251  2.0537 -0.1320
  919SOL     MW 3676   3.027   2.389   2.271  0.3202  0.1722  0.1892
  920SOL     OW 3677   2.625   2.841   3.065 -0.8300  0.4795 -0.5932
  920SOL    HW1 3678   2.550   2.787   3.033 -1.0059 -1.4344  1.3719
  920SOL    HW2 3679   2.687   2.829   2.994 -2.1338  1.7004  1.9275
  920SOL     MW 3680   2.624   2.832   3.051 -1.0252  0.3881 -0.0013
  921SOL     OW 3681   2.439   2.596   2.598 -0.4971 -0.3103  0.2549
  921SOL    HW1 3682   2.515   2.618   2.540 -0.7831  0.8611  0.6888
  921SOL    HW2 3683   2.478   2.530   2.656  0.0754 -1.9774 -3.4979
  921SOL     MW 3684   2.454   2.591   2.598 -0.4593 -0.3757 -0.1830
  922SOL     OW 3685   2.088   2.632   0.423 -0.1493 -0.0418 -0.0262
  922SOL    HW1 3686   2.125   2.659   0.336  0.5992 -0.6350 -2.2111
  922SOL    HW2 3687   2.104   2.537   0.420  3.1112 -3.8342 -1.5983
  922SOL     MW 3688   2.095   2.623   0.411  0.3796 -0.6204 -0.5219
  923SOL     OW 3689   2.212   2.899   1.656  0.2425 -0.5103  0.0315
  923SOL    HW1 3690   2.264   2.822   1.628  0.5002  0.4979 -1.0894
  923SOL    HW2 3691   2.188   2.954   1.582  1.0330  0.1162  0.1065
  923SOL     MW 3692   2.216   2.896   1.643  0.3808 -0.2946 -0.1065
  924SOL     OW 3693   1.096   2.707   2.619  0.0928 -0.2581  0.2343
  924SOL    HW1 3694   1.189   2.718   2.596 -2.4539  1.1345  0.4581
  924SOL    HW2 3695   1.091   2.624   2.666 -1.9143 -1.0965  0.5217
  924SOL     MW 3696   1.107   2.697   2.622 -0.5080 -0.1850  0.3018
  925SOL     OW 3697   2.997   0.155   2.621  0.4260 -0.6922 -0.0627
  925SOL    HW1 3698   2.950   0.166   2.544  1.9284 -2.4922 -0.4093
  925SOL    HW2 3699   2.957   0.230   2.670 -0.1350 -0.9101  1.3786
  925SOL     MW 3700   2.986   0.166   2.617  0.5502 -0.9585  0.0817
  926SOL     OW 3701   2.819   2.417   1.943 -0.1273  0.1934  0.2090
  926SOL    HW1 3702   2.833   2.490   2.004 -0.8343 -1.7082 -2.6665
  926SOL    HW2 3703   2.858   2.438   1.859  0.5210  0.0473  0.3210
  926SOL     MW 3704   2.826   2.429   1.940 -0.1350 -0.0768 -0.1556
  927SOL     OW 3705   2.386   0.107   0.309 -0.3433  0.3288 -0.5905
  927SOL    HW1 3706   2.479   0.135   0.318  0.5785 -0.6923  0.8724
  927SOL    HW2 3707   2.370   0.066   0.220 -0.9397  1.4089  2.7414
  927SOL     MW 3708   2.396   0.105   0.299 -0.3004  0.3365  0.0421
  928SOL     OW 3709   2.158   2.309   1.850  0.1932  0.0650  0.6215
  928SOL    HW1 3710   2.187   2.319   1.758 -1.3481 -0.5542  0.6502
  928SOL    HW2 3711   2.194   2.394   1.882  1.4859  1.3528 -2.1382
  928SOL     MW 3712   2.166   2.321   1.842  0.1604  0.1532  0.2612
  929SOL     OW 3713   2.732   2.353   2.457 -0.5673 -0.1897 -0.0067
  929SOL    HW1 3714   2.761   2.315   2.373 -0.3110 -1.7675 -0.0582
  929SOL    HW2 3715   2.809   2.330   2.520  3.9900 -1.4577 -0.3594
  929SOL     MW 3716   2.746   2.345   2.454  0.0678 -0.5652 -0.0600
  930SOL     OW 3717   2.013   2.841   2.664  0.2980 -0.0290 -0.0522
  930SOL    HW1 3718   2.018   2.759   2.713 -1.2492  0.7137 -2.4437
  930SOL    HW2 3719   2.103   2.887   2.665 -1.4850  3.0041  0.6410
  930SOL     MW 3720   2.026   2.836   2.671 -0.1414  0.4692 -0.2763
  931SOL     OW 3721   0.040   2.785   2.455 -0.0272 -0.3809 -0.1362
  931SOL    HW1 3722   0.035   2.849   2.536  1.8033 -2.9310  0.5949
  931SOL    HW2 3723   0.131   2.790   2.423 -1.7979  1.5054  1.6750
  931SOL     MW 3724   0.051   2.794   2.461 -0.0193 -0.4685  0.1992
  932SOL     OW 3725   2.793   2.040   2.449  0.3605  0.2048 -0.4773
  932SOL    HW1 3726   2.891   2.038   2.454  1.8497 -2.3662  0.3369
  932SOL    HW2 3727   2.766   2.017   2.358 -0.7668 -0.4194 -0.7404
  932SOL     MW 3728   2.802   2.037   2.438  0.4082 -0.2168 -0.4046
  933SOL     OW 3729   2.100   2.786   2.233 -0.0465 -0.2258  0.1723
  933SOL    HW1 3730   2.174   2.839   2.241 -3.2166  0.0297 -2.9811
  933SOL    HW2 3731   2.032   2.849   2.234  2.9195 -4.2958 -1.0817
  933SOL     MW 3732   2.101   2.801   2.234 -0.0734 -0.7291 -0.4092
  934SOL     OW 3733   2.012   2.678   2.458 -0.0469 -0.1152  0.1902
  934SOL    HW1 3734   2.005   2.750   2.517  1.0488  2.1592 -1.1160
  934SOL    HW2 3735   2.064   2.715   2.373 -0.3291 -0.3566 -1.9079
  934SOL     MW 3736   2.018   2.693   2.454  0.0604  0.1530 -0.2590
  935SOL     OW 3737   2.631   1.484   1.779  0.1130  0.3637 -0.0401
  935SOL    HW1 3738   2.731   1.471   1.771  2.2172  0.7276 -0.3905
  935SOL    HW2 3739   2.595   1.460   1.692 -0.9132 -1.4458  1.5397
  935SOL     MW 3740   2.639   1.479   1.766  0.2552  0.1730  0.1221
  936SOL     OW 3741   2.921   2.210   0.027 -0.0459 -0.1999 -0.4358
  936SOL    HW1 3742   2.988   2.254   0.086  2.4997 -0.6594  2.0775
  936SOL    HW2 3743   2.854   2.275   0.008 -1.2931  2.1401 -2.4418
  936SOL     MW 3744   2.921   2.225   0.032  0.1254  0.0482 -0.3689
  937SOL     OW 3745   1.902   2.135   2.615 -0.2877  0.6794 -0.0265
  937SOL    HW1 3746   1.990   2.119   2.654  0.2520 -0.6820 -1.2186
  937SOL    HW2 3747   1.916   2.138   2.519 -1.0371 -2.4895 -0.0228
  937SOL     MW 3748   1.916   2.133   2.608 -0.3153  0.0816 -0.1833
  938SOL     OW 3749   2.237   1.788   1.836 -0.8030 -0.0252 -0.0648
  938SOL    HW1 3750   2.283   1.832   1.770  1.8382  2.1794  1.0487
  938SOL    HW2 3751   2.230   1.843   1.916  4.2722  2.2572 -1.0651
  938SOL     MW 3752   2.242   1.801   1.838  0.2151  0.5668 -0.0499
  939SOL     OW 3753   2.795   1.966   2.192  0.0110  0.4503  0.3230
  939SOL    HW1 3754   2.851   1.929   2.125 -0.6141  0.4799 -0.0523
  939SOL    HW2 3755   2.703   1.948   2.175  0.8914  0.2957 -0.9833
  939SOL     MW 3756   2.790   1.959   2.181  0.0447  0.4338  0.1011
  940SOL     OW 3757   2.185   0.092   2.775  0.7934 -0.5122 -0.1234
  940SOL    HW1 3758   2.212   0.037   2.703  1.0404 -0.7012 -1.3678
  940SOL    HW2 3759   2.259   0.124   2.826 -2.7100  1.9607 -0.5192
  940SOL     MW 3760   2.198   0.089   2.772  0.3638 -0.2109 -0.3398
  941SOL     OW 3761   0.118   2.445   2.085  0.6803 -0.1742 -0.5525
  941SOL    HW1 3762   0.211   2.416   2.063  0.5037  1.6145 -0.5257
  941SOL    HW2 3763   0.058   2.418   2.011 -0.5859  1.0970  1.6947
  941SOL     MW 3764   0.122   2.437   2.072  0.4899  0.2295 -0.2524
  942SOL     OW 3765   2.826   2.257   2.178 -0.9380  0.1195 -0.5829
  942SOL    HW1 3766   2.798   2.308   2.099  1.3898 -0.4745  0.1662
  942SOL    HW2 3767   2.815   2.161   2.185  1.6895  0.2134 -0.1635
  942SOL     MW 3768   2.821   2.251   2.168 -0.2842  0.0535 -0.4287
  943SOL     OW 3769   0.331   2.141   2.254  0.4749  1.0249 -0.2932
  943SOL    HW1 3770   0.274   2.162   2.323  2.4866  2.2058  0.0079
  943SOL    HW2 3771   0.413   2.111   2.293  0.2725 -1.0347  0.6644
  943SOL     MW 3772   0.334   2.140   2.268  0.7136  0.9089 -0.1271
  944SOL     OW 3773   2.140   2.642   1.967  0.0710 -0.1315  0.3078
  944SOL    HW1 3774   2.212   2.585   1.997 -2.5278 -1.2152  0.9125
  944SOL    HW2 3775   2.094   2.675   2.050 -1.7066  0.9604  1.1897
  944SOL     MW 3776   2.144   2.639   1.982 -0.5064 -0.1304  0.5040
  945SOL     OW 3777   2.747   2.706   2.868 -0.0245 -0.7482  0.2013
  945SOL    HW1 3778   2.693   2.623   2.849 -0.4104  0.8293 -1.7920
  945SOL    HW2 3779   2.759   2.735   2.777  0.3360 -1.5129  1.4204
  945SOL     MW 3780   2.741   2.699   2.854 -0.0278 -0.6410  0.0992
  946SOL     OW 3781   2.447   2.699   2.239 -0.4704  0.8067 -0.0615
  946SOL    HW1 3782   2.482   2.727   2.161  0.5808 -0.2350  0.2481
  946SOL    HW2 3783   2.395   2.620   2.211  1.0723 -2.9147  0.8783
  946SOL     MW 3784   2.445   2.692   2.225 -0.1281  0.1783  0.1034
  947SOL     OW 3785   2.040   3.067   0.221  0.0403 -1.1725 -0.2091
  947SOL    HW1 3786   2.069   2.982   0.176  0.8921 -1.4714 -0.6527
  947SOL    HW2 3787   2.074   3.071   0.319 -1.3448  3.0778 -0.0462
  947SOL     MW 3788   2.048   3.057   0.228 -0.0301 -0.6511 -0.2461
  948SOL     OW 3789   1.812   3.040   2.634  0.2998 -0.0405  0.3312
  948SOL    HW1 3790   1.865   2.963   2.651 -1.4795 -1.6822  0.6399
  948SOL    HW2 3791   1.775   3.030   2.544 -1.1560  0.8626  0.0038
  948SOL     MW 3792   1.814   3.028   2.624 -0.1271 -0.1379  0.3287
  949SOL     OW 3793   2.518   1.871   2.228 -0.0183  0.0953  0.1002
  949SOL    HW1 3794   2.508   1.793   2.282 -1.5507  0.3668  1.8460
  949SOL    HW2 3795   2.466   1.939   2.272 -0.1602  1.1241  0.8460
  949SOL     MW 3796   2.510   1.870   2.241 -0.2392  0.2669  0.4289
  950SOL     OW 3797   2.308   2.439   2.971 -0.1389  0.1155 -0.3259
  950SOL    HW1 3798   2.355   2.404   2.892 -3.1565  1.4676 -1.6235
  950SOL    HW2 3799   2.222   2.468   2.931 -0.7580  0.2395 -3.0138
  950SOL     MW 3800   2.303   2.438   2.955 -0.6187  0.3102 -0.8518
  951SOL     OW 3801   3.027   2.229   2.871 -0.5224 -0.1925 -0.0250
  951SOL    HW1 3802   2.972   2.229   2.948  0.9037  0.1497 -0.7169
  951SOL    HW2 3803   3.088   2.160   2.892 -0.3956  2.7580  0.8189
  951SOL     MW 3804   3.028   2.220   2.884 -0.3175  0.2420 -0.0049
  952SOL     OW 3805   3.064   1.731   2.113 -0.2945 -0.0089  0.0658
  952SOL    HW1 3806   3.022   1.781   2.038  2.4953  0.9004 -1.8906
  952SOL    HW2 3807   3.138   1.785   2.142  0.5813  0.4537  1.0433
  952SOL     MW 3808   3.068   1.744   2.107  0.1892  0.1721 -0.0634
  953SOL     OW 3809   1.929   1.773   2.916 -0.4327  0.1442 -1.1728
  953SOL    HW1 3810   1.853   1.724   2.946 -1.6107  0.2159  1.9874
  953SOL    HW2 3811   1.971   1.705   2.857 -1.2356 -1.3985  0.5222
  953SOL     MW 3812   1.924   1.757   2.912 -0.6941 -0.0499 -0.5322
  954SOL     OW 3813   2.385   2.126   2.894  0.6900  0.0567 -1.2184
  954SOL    HW1 3814   2.297   2.104   2.863  0.8683  0.1517  0.0865
  954SOL    HW2 3815   2.444   2.084   2.832 -0.5961  2.5947 -0.8458
  954SOL     MW 3816   2.382   2.117   2.882  0.5438  0.4041 -0.9970
  955SOL     OW 3817   1.570   1.526   2.559  0.0161  0.2559  0.1186
  955SOL    HW1 3818   1.554   1.521   2.460  0.3289  3.2508  2.8365
  955SOL    HW2 3819   1.662   1.532   2.555 -1.0317  0.2019  0.9273
  955SOL     MW 3820   1.580   1.526   2.545 -0.0809  0.6439  0.5839
  956SOL     OW 3821   2.699   2.434   2.814 -0.1827 -0.3309  0.2325
  956SOL    HW1 3822   2.710   2.398   2.899 -3.9323  0.4154  0.3949
  956SOL    HW2 3823   2.783   2.428   2.761 -1.0859  0.2734  0.2505
  956SOL     MW 3824   2.712   2.428   2.818 -0.7966 -0.1527  0.2563
  957SOL     OW 3825   2.265   2.841   0.531  0.2427 -0.0649  0.4887
  957SOL    HW1 3826   2.230   2.759   0.502 -0.3229  3.4163 -1.7877
  957SOL    HW2 3827   2.286   2.833   0.625  0.2212  0.3220 -3.3406
  957SOL     MW 3828   2.263   2.829   0.540  0.1653  0.4455 -0.3169
  958SOL     OW 3829   2.075   2.542   2.841  0.0703 -0.0557  0.0648
  958SOL    HW1 3830   2.019   2.483   2.784 -1.9303  2.7659  2.5804
  958SOL    HW2 3831   2.024   2.535   2.926  0.2393  1.5493  0.5871
  958SOL     MW 3832   2.061   2.533   2.845 -0.1714  0.5284  0.4656
  959SOL     OW 3833   2.521   2.775   0.428  0.4604 -0.5112 -0.2105
  959SOL    HW1 3834   2.530   2.825   0.343  3.3015  0.6929 -0.8636
  959SOL    HW2 3835   2.437   2.806   0.463  1.5542 -0.5245 -1.2291
  959SOL     MW 3836   2.511   2.786   0.422  0.9795 -0.3541 -0.4311
  960SOL     OW 3837   1.921   2.386   2.302 -0.3011 -0.4107  0.4705
  960SOL    HW1 3838   1.940   2.292   2.313  1.6631  0.8829  0.9377
  960SOL    HW2 3839   1.851   2.400   2.365 -0.5637  1.6768 -2.2979
  960SOL     MW 3840   1.914   2.375   2.312 -0.0766  0.0354  0.1669
  961SOL     OW 3841   2.229   2.329   2.283 -0.0271 -0.1933 -0.5598
  961SOL    HW1 3842   2.137   2.339   2.265 -0.3902 -0.5672  2.2636
  961SOL    HW2 3843   2.225   2.380   2.370 -0.2467  1.7176  0.1608
  961SOL     MW 3844   2.216   2.337   2.292 -0.1040  0.0095 -0.0922
  962SOL     OW 3845   2.133   2.036   2.810  0.4150  0.3097 -0.3151
  962SOL    HW1 3846   2.101   2.001   2.894 -1.1847 -1.6594  1.0534
  962SOL    HW2 3847   2.173   1.963   2.751 -0.2531 -5.1772  0.0789
  962SOL     MW 3848   2.134   2.022   2.813  0.1158 -0.6740 -0.0825
  963SOL     OW 3849   1.842   2.562   2.074 -0.2963 -0.0329  0.1439
  963SOL    HW1 3850   1.855   2.522   2.159  2.9530 -0.3224 -0.1080
  963SOL    HW2 3851   1.871   2.494   2.008 -3.1094 -0.4501 -0.4125
  963SOL     MW 3852   1.847   2.548   2.077 -0.2388 -0.1261  0.0373
  964SOL     OW 3853   1.815   1.867   2.688 -0.4760  0.6183 -0.9717
  964SOL    HW1 3854   1.833   1.956   2.653  0.9594 -2.1629 -1.3559
  964SOL    HW2 3855   1.865   1.838   2.764  0.2772 -0.9576  0.0395
  964SOL     MW 3856   1.824   1.875   2.694 -0.1872  0.0434 -0.8890
  965SOL     OW 3857   2.128   2.586   0.834  0.7215  0.2954  0.9249
  965SOL    HW1 3858   2.154   2.528   0.761  0.8594 -1.1340  1.4661
  965SOL    HW2 3859   2.191   2.661   0.826  0.7478  1.7827 -0.1493
  965SOL     MW 3860   2.139   2.588   0.823  0.7432  0.3031  0.8546
  966SOL     OW 3861   2.657   2.619   2.437  0.0096  0.1592 -0.6467
  966SOL    HW1 3862   2.612   2.624   2.351  0.6162 -0.5708  1.2613
  966SOL    HW2 3863   2.686   2.528   2.454  2.1979  0.4712  2.9300
  966SOL     MW 3864   2.655   2.608   2.428  0.3784  0.1040  0.0770
  967SOL     OW 3865   2.672   0.046   3.072 -0.7065  0.3672  0.0959
  967SOL    HW1 3866   2.675  -0.049   3.102  0.1036 -2.8639  2.3773
  967SOL    HW2 3867   2.679   0.032   2.978 -1.9218  2.3414  1.1796
  967SOL     MW 3868   2.673   0.032   3.064 -0.7600  0.2014  0.5399
  968SOL     OW 3869   3.014   2.674   2.900 -0.4577 -0.3227  0.3552
  968SOL    HW1 3870   2.923   2.704   2.902  2.0562 -0.1535  1.9383
  968SOL    HW2 3871   3.026   2.651   2.810  1.8487 -0.8150  1.2178
  968SOL     MW 3872   3.003   2.674   2.888  0.1783 -0.3653  0.6779
  969SOL     OW 3873   1.575   2.100   1.721  0.3563 -0.1598  0.5150
  969SOL    HW1 3874   1.637   2.026   1.727 -0.8972  0.2847  0.4388
  969SOL    HW2 3875   1.559   2.130   1.807  2.8672 -0.9520 -1.0587
  969SOL     MW 3876   1.581   2.094   1.733  0.5222 -0.2057  0.2973
  970SOL     OW 3877   1.734   1.808   1.874 -0.5240 -0.0311 -0.2333
  970SOL    HW1 3878   1.793   1.736   1.886 -0.7520  0.1970 -1.1423
  970SOL    HW2 3879   1.646   1.789   1.908 -1.1151 -0.0561 -1.0511
  970SOL     MW 3880   1.730   1.796   1.880 -0.6320 -0.0043 -0.4612
  971SOL     OW 3881   1.750  -0.002   2.359  0.1338 -0.1057  0.3280
  971SOL    HW1 3882   1.800  -0.041   2.282 -0.8586 -1.3430 -0.9675
  971SOL    HW2 3883   1.785   0.093   2.371  1.6539  0.2033 -3.0235
  971SOL     MW 3884   1.762   0.006   2.351  0.2035 -0.2282 -0.2851
  972SOL     OW 3885   0.310   2.846   2.390 -0.0391 -0.9467  0.4659
  972SOL    HW1 3886   0.359   2.780   2.439 -2.2450  0.9135  0.1229
  972SOL    HW2 3887   0.343   2.928   2.423 -0.8857  1.9626  0.0731
  972SOL     MW 3888   0.321   2.848   2.401 -0.4419 -0.3174  0.3688
  973SOL     OW 3889   2.624   3.016   2.123 -0.5433 -0.0816  0.3213
  973SOL    HW1 3890   2.583   2.938   2.080  3.8188  2.1128  0.2445
  973SOL    HW2 3891   2.638   3.070   2.048  3.1186  0.0468  1.8790
  973SOL     MW 3892   2.620   3.013   2.108  0.5154  0.2249  0.5167
  974SOL     OW 3893   1.996   0.152   2.580  0.5183 -0.1967  0.6966
  974SOL    HW1 3894   2.049   0.164   2.659 -0.2939  0.6377 -1.7559
  974SOL    HW2 3895   1.948   0.071   2.595  1.7278 -0.2217  0.9951
  974SOL     MW 3896   1.997   0.143   2.592  0.5707 -0.0899  0.4124
  975SOL     OW 3897   2.190   2.479   2.508 -0.1144 -0.5277 -0.1506
  975SOL    HW1 3898   2.269   2.516   2.548 -1.9048 -1.0402 -1.3555
  975SOL    HW2 3899   2.121   2.556   2.488  0.3233  1.8550  1.6504
  975SOL     MW 3900   2.191   2.494   2.511 -0.2928 -0.2810 -0.0719
  976SOL     OW 3901   0.180   0.360   1.590  0.0017 -0.0724  0.0436
  976SOL    HW1 3902   0.237   0.283   1.601 -0.5682 -1.2608 -1.4314
  976SOL    HW2 3903   0.109   0.309   1.559  1.0299 -1.3842  1.9585
  976SOL     MW 3904   0.178   0.343   1.587  0.0622 -0.4023  0.1017
  977SOL     OW 3905   1.764   2.746   2.384 -0.6249 -0.1906 -0.1367
  977SOL    HW1 3906   1.856   2.726   2.397  1.3370  2.0975  0.2453
  977SOL    HW2 3907   1.766   2.832   2.337  3.7774  0.6211  2.0979
  977SOL     MW 3908   1.776   2.755   2.379  0.2148  0.2184  0.2085
   3.10000   3.10000   3.10000
