977 TIP4P/2005f water molecules t=   1.66000 step= 1660
 3908
    1SOL     OW    1   0.391   0.792   0.106 -0.1343 -0.4663  0.0306
    1SOL    HW1    2   0.370   0.703   0.070  1.5616 -2.1847 -1.5828
    1SOL    HW2    3   0.416   0.752   0.187 -1.7529  0.9522  1.7682
    1SOL     MW    4   0.392   0.775   0.112 -0.1241 -0.5059  0.0470
    2SOL     OW    5   0.317   3.001   1.086 -0.1108  0.1160  0.3359
    2SOL    HW1    6   0.379   3.075   1.074 -0.2918 -0.5168  0.7189
    2SOL    HW2    7   0.231   3.046   1.095 -1.4107 -1.8766 -0.2896
    2SOL     MW    8   0.314   3.016   1.086 -0.3062 -0.2304  0.3039
    3SOL     OW    9   2.649   0.358   0.981  0.5878 -0.0724  0.0417
    3SOL    HW1   10   2.694   0.435   0.945 -1.2080 -4.4368 -0.3439
    3SOL    HW2   11   2.660   0.355   1.079  1.3264 -1.2599 -1.2274
    3SOL     MW   12   2.657   0.368   0.989  0.4483 -0.8049 -0.1766
    4SOL     OW   13   2.988   1.698   0.535 -0.2320  0.4665 -0.2195
    4SOL    HW1   14   2.924   1.763   0.499 -2.5427  1.6403  0.8117
    4SOL    HW2   15   3.051   1.678   0.465 -0.5703  0.8780 -1.2668
    4SOL     MW   16   2.988   1.704   0.521 -0.5816  0.6756 -0.2217
    5SOL     OW   17   1.615   1.416   0.632 -0.3513  0.0524 -0.4959
    5SOL    HW1   18   1.638   1.403   0.721  2.0099  0.6299  1.0371
    5SOL    HW2   19   1.532   1.458   0.630  1.9609 -0.4857 -3.0711
    5SOL     MW   20   1.607   1.420   0.643  0.2653  0.0576 -0.6334
    6SOL     OW   21   0.794   1.441   0.616 -0.4598  0.4177  0.3980
    6SOL    HW1   22   0.697   1.447   0.606  0.8205  1.1954  2.8946
    6SOL    HW2   23   0.822   1.353   0.640 -0.6683  1.0982 -0.5293
    6SOL     MW   24   0.785   1.430   0.618 -0.3184  0.6101  0.6051
    7SOL     OW   25   1.926   1.073   0.012  0.2226  0.5271 -0.5777
    7SOL    HW1   26   2.013   1.117  -0.004  1.6938  2.1759 -1.9606
    7SOL    HW2   27   1.927   1.045   0.110 -1.2963 -2.9421  0.1417
    7SOL     MW   28   1.937   1.075   0.023  0.2163  0.2869 -0.6652
    8SOL     OW   29   0.793   1.467   1.089  0.1824  0.0045 -0.2628
    8SOL    HW1   30   0.874   1.495   1.125 -0.1772 -0.8434 -0.3715
    8SOL    HW2   31   0.783   1.388   1.142 -2.2427 -0.4925 -1.1551
    8SOL     MW   32   0.802   1.460   1.101 -0.1850 -0.1730 -0.3949
    9SOL     OW   33   0.944   0.470   1.348 -0.0797  1.1476 -0.4067
    9SOL    HW1   34   0.880   0.403   1.302 -2.7273  1.6253 -1.4949
    9SOL    HW2   35   0.997   0.430   1.418 -2.0657  0.0079 -1.8476
    9SOL     MW   36   0.943   0.456   1.351 -0.6910  1.0602 -0.7404
   10SOL     OW   37   0.296   0.865   0.474 -0.2033 -0.2446  0.0771
   10SOL    HW1   38   0.387   0.884   0.442 -0.1569 -1.4988 -1.2628
   10SOL    HW2   39   0.300   0.908   0.560  1.9146 -0.9686  1.7011
   10SOL     MW   40   0.308   0.873   0.481  0.0823 -0.5056  0.1146
   11SOL     OW   41   0.778   1.107   1.477  0.0001  0.2450 -0.0573
   11SOL    HW1   42   0.833   1.120   1.556  0.6306 -1.5697  0.3319
   11SOL    HW2   43   0.799   1.015   1.455  2.3432 -0.5562  3.9343
   11SOL     MW   44   0.788   1.096   1.484  0.3924 -0.1002  0.5207
   12SOL     OW   45   0.008   1.068   0.872  0.2733 -0.4101  0.4246
   12SOL    HW1   46   0.015   1.145   0.930  3.5011  0.5941 -1.3208
   12SOL    HW2   47  -0.057   1.099   0.814  3.7676  2.1490  2.1954
   12SOL     MW   48   0.000   1.082   0.872  1.1602  0.0600  0.4279
   13SOL     OW   49   1.808   1.416   1.306 -0.4361  0.0738  0.6831
   13SOL    HW1   50   1.847   1.340   1.269 -0.8806  1.7809  3.7514
   13SOL    HW2   51   1.873   1.481   1.292  1.1518 -3.0795  3.9240
   13SOL     MW   52   1.821   1.414   1.300 -0.2852 -0.1170  1.5155
   14SOL     OW   53   0.541   0.341   1.755  0.3027 -0.2065 -0.1993
   14SOL    HW1   54   0.485   0.264   1.759 -1.8886 -0.4790  2.1089
   14SOL    HW2   55   0.611   0.308   1.699  2.6314 -2.0264  0.0557
   14SOL     MW   56   0.543   0.326   1.748  0.3208 -0.4826  0.1389
   15SOL     OW   57   2.020   0.415   1.003 -0.0664 -0.0715 -0.2218
   15SOL    HW1   58   1.984   0.488   1.050  0.8566 -0.3708  0.5203
   15SOL    HW2   59   2.059   0.432   0.914 -0.6398 -0.2063 -0.8502
   15SOL     MW   60   2.020   0.427   0.998 -0.0203 -0.1288 -0.2068
   16SOL     OW   61   0.294   1.829   0.294 -0.6571  0.1705  0.0344
   16SOL    HW1   62   0.373   1.772   0.310 -1.0983 -1.6744 -0.7876
   16SOL    HW2   63   0.307   1.919   0.326 -1.4118 -1.2875  1.8883
   16SOL     MW   64   0.306   1.834   0.300 -0.8149 -0.2653  0.1706
   17SOL     OW   65   1.112   0.883   1.431 -0.0103  0.5432  0.0800
   17SOL    HW1   66   1.143   0.867   1.525 -0.3621  1.3300  1.1504
   17SOL    HW2   67   1.020   0.876   1.426  2.6686  0.3277 -1.0252
   17SOL     MW   68   1.104   0.880   1.443  0.2968  0.6186  0.0754
   18SOL     OW   69   0.070   1.654   0.325 -0.1087  0.0094 -0.2132
   18SOL    HW1   70   0.128   1.730   0.304  1.6267  0.4520 -1.8110
   18SOL    HW2   71   0.058   1.618   0.236 -0.4536 -3.5746 -3.3938
   18SOL     MW   72   0.076   1.660   0.310  0.0748 -0.4051 -0.8436
   19SOL     OW   73   0.090   1.323   0.982  0.4236 -0.1557 -0.0394
   19SOL    HW1   74   0.140   1.362   0.912 -3.1819  1.2744  1.4576
   19SOL    HW2   75   0.010   1.369   0.975  1.3422  0.5964 -1.1336
   19SOL     MW   76   0.086   1.334   0.972  0.0691  0.1322  0.0138
   20SOL     OW   77   0.438   2.121   1.263 -0.3852 -0.1951 -0.1967
   20SOL    HW1   78   0.376   2.053   1.226 -0.3214  0.4844 -0.6514
   20SOL    HW2   79   0.399   2.133   1.354  0.1143  0.3658  0.2405
   20SOL     MW   80   0.425   2.114   1.270 -0.3108 -0.0315 -0.1990
   21SOL     OW   81   0.558   0.867   0.411  0.1050  0.1764 -0.4230
   21SOL    HW1   82   0.615   0.807   0.465 -1.3181  1.9638 -2.2987
   21SOL    HW2   83   0.622   0.921   0.373 -1.4437  2.1907  1.3154
   21SOL     MW   84   0.574   0.866   0.413 -0.2871  0.6780 -0.4411
   22SOL     OW   85   1.533   0.704   1.033  0.3585 -0.3704 -0.1725
   22SOL    HW1   86   1.511   0.665   0.949 -2.7389  0.9834 -0.1323
   22SOL    HW2   87   1.452   0.746   1.057  0.1258  0.5814  2.8350
   22SOL     MW   88   1.519   0.704   1.025 -0.0808 -0.0662  0.2296
   23SOL     OW   89   3.066   0.820   0.729 -0.8123  0.1853 -0.1747
   23SOL    HW1   90   3.116   0.744   0.769  0.8248  1.6019 -1.1446
   23SOL    HW2   91   3.132   0.892   0.739  0.6643 -1.5216 -0.1513
   23SOL     MW   92   3.081   0.820   0.736 -0.4015  0.1470 -0.2996
   24SOL     OW   93   2.071   2.207   0.053 -0.2097 -0.6280  0.2104
   24SOL    HW1   94   2.038   2.220   0.145 -1.7772  2.9952 -0.7447
   24SOL    HW2   95   2.072   2.115   0.036  1.0167  0.2585 -1.3489
   24SOL     MW   96   2.067   2.197   0.063 -0.2547 -0.0330 -0.1214
   25SOL     OW   97   0.189   1.419   0.429  0.5292  0.7295 -0.2667
   25SOL    HW1   98   0.151   1.502   0.405  1.9017 -2.6353  1.3793
   25SOL    HW2   99   0.253   1.412   0.355 -0.7223  0.5412 -0.2577
   25SOL     MW  100   0.192   1.429   0.416  0.5452  0.2607 -0.0483
   26SOL     OW  101   1.972   1.034   0.289  0.3506  0.6860  0.4268
   26SOL    HW1  102   1.931   1.092   0.356 -2.9776  0.2717 -1.5870
   26SOL    HW2  103   2.042   1.090   0.249 -1.0112  1.7718 -0.5681
   26SOL     MW  104   1.976   1.049   0.292 -0.2682  0.7746  0.0298
   27SOL     OW  105   1.861   1.382   0.169 -0.0191 -0.1507 -0.3163
   27SOL    HW1  106   1.828   1.472   0.183 -0.0370 -0.4030 -0.3068
   27SOL    HW2  107   1.920   1.359   0.244  1.0133  0.7053  0.4202
   27SOL     MW  108   1.865   1.391   0.181  0.1148 -0.0711 -0.2179
   28SOL     OW  109   0.417   0.941   1.998 -0.0156  0.0644  0.2589
   28SOL    HW1  110   0.459   0.956   2.079 -0.4687  0.3109  0.4921
   28SOL    HW2  111   0.321   0.925   2.009 -3.2273 -3.1356  1.4445
   28SOL     MW  112   0.410   0.941   2.010 -0.4992 -0.3253  0.4461
   29SOL     OW  113   0.209   1.402   0.736 -0.2083  0.7058  0.1429
   29SOL    HW1  114   0.247   1.492   0.723 -0.1063 -1.5626  1.2814
   29SOL    HW2  115   0.195   1.384   0.643 -2.0626  1.2669  0.7915
   29SOL     MW  116   0.212   1.412   0.722 -0.4395  0.4805  0.3787
   30SOL     OW  117   0.728   1.226   1.211 -0.9289  0.6149 -0.1014
   30SOL    HW1  118   0.640   1.218   1.246 -0.4291  1.8298 -0.7917
   30SOL    HW2  119   0.793   1.193   1.282  1.6572  2.0598  1.2478
   30SOL     MW  120   0.725   1.220   1.225 -0.5218  0.9658 -0.0144
   31SOL     OW  121   0.509   0.284   0.203  0.3832 -0.1626  0.3438
   31SOL    HW1  122   0.546   0.220   0.267 -0.8749 -3.3859  0.4908
   31SOL    HW2  123   0.527   0.233   0.120 -1.4824  0.9486  2.0687
   31SOL     MW  124   0.516   0.269   0.201 -0.0290 -0.4413  0.5908
   32SOL     OW  125   2.721   0.951   1.085 -0.4595 -0.4084 -0.1353
   32SOL    HW1  126   2.652   0.900   1.120  3.7378  0.9491 -1.4316
   32SOL    HW2  127   2.800   0.909   1.105 -0.6161  2.0036 -2.7481
   32SOL     MW  128   2.722   0.939   1.092  0.0736  0.0889 -0.6511
   33SOL     OW  129   1.643   1.239   0.390 -0.3735 -0.1473  0.5599
   33SOL    HW1  130   1.737   1.215   0.399 -0.3084 -0.1974  0.2336
   33SOL    HW2  131   1.638   1.306   0.454  0.5280 -0.3588 -0.8764
   33SOL     MW  132   1.655   1.245   0.400 -0.2460 -0.1818  0.3274
   34SOL     OW  133   1.162   1.967   1.129  0.2195  0.5039  0.1928
   34SOL    HW1  134   1.063   1.965   1.127  0.8152  0.0162 -0.9240
   34SOL    HW2  135   1.186   1.987   1.223 -1.3511  0.1641 -1.4825
   34SOL     MW  136   1.152   1.969   1.142  0.0909  0.3947 -0.1756
   35SOL     OW  137   0.331   0.149   1.794  0.7536  0.2473 -0.4825
   35SOL    HW1  138   0.365   0.095   1.869 -0.1690 -1.5996 -0.4566
   35SOL    HW2  139   0.320   0.088   1.724  1.6280 -1.4264  1.0230
   35SOL     MW  140   0.334   0.134   1.795  0.7473 -0.2172 -0.2805
   36SOL     OW  141   1.925   1.990   0.602 -0.1450 -0.0627  0.2026
   36SOL    HW1  142   1.891   1.970   0.512  0.8700 -1.0076 -0.5753
   36SOL    HW2  143   1.962   1.906   0.617 -0.6172 -0.0082 -1.6244
   36SOL     MW  144   1.925   1.976   0.592 -0.0734 -0.1802 -0.1411
   37SOL     OW  145   1.817   2.071   1.000 -0.0516  0.6567  0.1338
   37SOL    HW1  146   1.749   2.031   0.947  1.0521 -2.4991  2.0986
   37SOL    HW2  147   1.777   2.097   1.082  2.0497 -0.4715  2.0846
   37SOL     MW  148   1.803   2.069   1.004  0.3713  0.0915  0.6504
   38SOL     OW  149   2.826   0.964   0.095 -0.6744  0.4220 -0.9574
   38SOL    HW1  150   2.860   0.953   0.186 -2.4630 -0.8820 -1.2233
   38SOL    HW2  151   2.896   0.950   0.030  1.6794 -0.0614 -1.9306
   38SOL     MW  152   2.840   0.961   0.098 -0.5999  0.1862 -1.1209
   39SOL     OW  153   1.492   0.660   0.773  0.4582  0.3145  0.3286
   39SOL    HW1  154   1.448   0.580   0.751 -1.1020  0.3599  0.8214
   39SOL    HW2  155   1.430   0.728   0.755  0.5096 -2.4617 -0.6985
   39SOL     MW  156   1.478   0.659   0.768  0.2591 -0.0458  0.2581
   40SOL     OW  157   1.271   1.875   0.247 -0.1200  0.7527 -0.2206
   40SOL    HW1  158   1.341   1.824   0.286  0.9679 -0.5832 -0.9195
   40SOL    HW2  159   1.241   1.944   0.310 -1.1562  0.4389  0.3448
   40SOL     MW  160   1.276   1.878   0.261 -0.1132  0.5350 -0.2383
   41SOL     OW  161   0.523   0.565   1.525 -0.3875 -0.5150 -0.7384
   41SOL    HW1  162   0.597   0.605   1.487  0.3338 -1.3802  0.9803
   41SOL    HW2  163   0.443   0.619   1.495 -2.8678  0.4601  1.2685
   41SOL     MW  164   0.522   0.577   1.516 -0.6196 -0.5005 -0.2468
   42SOL     OW  165   1.234   2.973   1.983 -0.5443 -0.4114  0.2882
   42SOL    HW1  166   1.166   3.026   2.024 -1.4773 -6.1680 -0.1509
   42SOL    HW2  167   1.254   2.915   2.053 -0.3547  0.5028  0.1417
   42SOL     MW  168   1.228   2.972   1.998 -0.6424 -1.0503  0.2109
   43SOL     OW  169   1.444   0.093   1.719 -0.2881 -0.0585 -1.0645
   43SOL    HW1  170   1.512   0.085   1.648 -0.2424  1.8268 -0.5394
   43SOL    HW2  171   1.378   0.019   1.706 -1.3896 -1.1200  0.5953
   43SOL     MW  172   1.444   0.082   1.708 -0.4274  0.0502 -0.7763
   44SOL     OW  173   1.266   0.800   1.028 -0.3576  0.2460 -0.4497
   44SOL    HW1  174   1.245   0.890   1.047 -0.2389 -1.3956  1.0532
   44SOL    HW2  175   1.229   0.753   1.105  1.2095 -1.3103 -0.7682
   44SOL     MW  176   1.259   0.806   1.041 -0.1352 -0.1760 -0.2934
   45SOL     OW  177   1.296   0.843   0.739  0.1666  0.2213 -0.2314
   45SOL    HW1  178   1.252   0.830   0.822 -0.4546  0.7153 -2.2252
   45SOL    HW2  179   1.237   0.798   0.685 -0.0862 -0.2583  1.2065
   45SOL     MW  180   1.282   0.835   0.743  0.0513  0.2232 -0.3048
   46SOL     OW  181   0.441   1.126   0.657 -0.0764  0.4910 -0.1567
   46SOL    HW1  182   0.476   1.145   0.568  0.7323 -0.9107 -1.6985
   46SOL    HW2  183   0.493   1.184   0.714 -2.3459 -0.3159 -0.6193
   46SOL     MW  184   0.453   1.136   0.653 -0.2691  0.1996 -0.4211
   47SOL     OW  185   0.089   2.050   1.887 -0.0951 -0.6876  0.1566
   47SOL    HW1  186   0.054   1.960   1.881  1.1691  0.5349  0.8366
   47SOL    HW2  187   0.066   2.078   1.974 -2.1027  1.5634  2.2094
   47SOL     MW  188   0.081   2.042   1.898 -0.1932 -0.2293  0.5172
   48SOL     OW  189   1.208   0.504   1.022  0.1102 -0.3244 -0.4036
   48SOL    HW1  190   1.178   0.451   0.950  0.2117 -0.1954  1.7535
   48SOL    HW2  191   1.213   0.593   0.988  0.4514  1.1700  3.3797
   48SOL     MW  192   1.204   0.509   1.008  0.1686 -0.1102  0.3802
   49SOL     OW  193   1.682   0.680   1.562  0.1345  0.2465  0.3994
   49SOL    HW1  194   1.734   0.625   1.623  0.1547 -1.9401 -0.3330
   49SOL    HW2  195   1.723   0.671   1.474  0.7691 -0.0841  0.1229
   49SOL     MW  196   1.694   0.672   1.558  0.2209 -0.0857  0.2663
   50SOL     OW  197   1.311   1.240   0.620  0.1811 -1.2384  0.5782
   50SOL    HW1  198   1.227   1.223   0.675  3.2699 -2.4446 -3.2312
   50SOL    HW2  199   1.382   1.179   0.663  0.7422 -0.9728  1.5959
   50SOL     MW  200   1.310   1.230   0.633  0.6627 -1.3625  0.2099
   51SOL     OW  201   0.308   2.868   0.832  0.1526 -0.4083  0.7736
   51SOL    HW1  202   0.395   2.831   0.845 -2.1559  0.0773 -0.0916
   51SOL    HW2  203   0.311   2.926   0.905 -2.4151 -0.8864 -3.7897
   51SOL     MW  204   0.320   2.871   0.843 -0.4908 -0.4073  0.0574
   52SOL     OW  205   0.794   1.810   0.468 -0.1220  0.0305 -0.0133
   52SOL    HW1  206   0.776   1.905   0.467 -1.0701  1.4121 -0.7111
   52SOL    HW2  207   0.831   1.793   0.379  0.7539  0.6641 -0.0243
   52SOL     MW  208   0.796   1.821   0.456 -0.1315  0.2964 -0.1068
   53SOL     OW  209   0.489   2.170   0.557  0.1361  0.6188  0.8278
   53SOL    HW1  210   0.410   2.135   0.517 -1.4117 -0.5444  1.5247
   53SOL    HW2  211   0.478   2.263   0.565 -1.5919 -1.2025  1.7553
   53SOL     MW  212   0.477   2.178   0.553 -0.2961  0.2250  1.0421
   54SOL     OW  213   2.040   0.985   0.732  0.5233 -0.0882  0.3140
   54SOL    HW1  214   2.096   0.980   0.656 -1.6565  1.2252  0.1875
   54SOL    HW2  215   2.028   0.893   0.765  1.0017  0.3551 -0.6065
   54SOL     MW  216   2.046   0.972   0.726  0.2988  0.1436  0.1759
   55SOL     OW  217   0.446   1.517   1.684 -0.1676 -0.3174  0.2901
   55SOL    HW1  218   0.400   1.566   1.618  0.5772 -0.6268  1.2827
   55SOL    HW2  219   0.539   1.502   1.653  0.1369  1.8075  0.0580
   55SOL     MW  220   0.452   1.522   1.672 -0.0291 -0.0779  0.3904
   56SOL     OW  221   0.674   0.918   0.153  0.0512  0.3213  0.0707
   56SOL    HW1  222   0.656   1.002   0.111 -1.1839 -0.2794  1.7149
   56SOL    HW2  223   0.586   0.883   0.134 -0.1968 -0.9950 -0.8247
   56SOL     MW  224   0.660   0.924   0.145 -0.1445  0.0683  0.1695
   57SOL     OW  225   1.106   1.271   1.149 -0.1840 -0.0101  0.1880
   57SOL    HW1  226   1.189   1.319   1.161 -0.0725 -1.9196 -0.0869
   57SOL    HW2  227   1.087   1.229   1.235 -2.2387  0.5935 -2.3891
   57SOL     MW  228   1.114   1.272   1.162 -0.4404 -0.1824 -0.1883
   58SOL     OW  229   0.434   1.286   1.289  0.6266 -0.2971  0.4225
   58SOL    HW1  230   0.425   1.379   1.266  1.8136 -1.0250 -1.9470
   58SOL    HW2  231   0.428   1.271   1.381 -1.0591  0.6029 -2.4060
   58SOL     MW  232   0.432   1.297   1.298  0.5608 -0.2744 -0.2633
   59SOL     OW  233   1.428   1.684   0.384  0.3268 -0.3446  0.1009
   59SOL    HW1  234   1.481   1.706   0.458  0.5842  1.8165 -1.7264
   59SOL    HW2  235   1.347   1.672   0.429 -2.6948 -1.1820 -0.2254
   59SOL     MW  236   1.425   1.685   0.400 -0.0379 -0.1700 -0.1833
   60SOL     OW  237   3.094   0.168   1.636  0.2772  0.0850 -0.9444
   60SOL    HW1  238   3.004   0.198   1.629  1.6285  0.4226 -0.6455
   60SOL    HW2  239   3.102   0.130   1.720  1.6648  0.7688  2.7512
   60SOL     MW  240   3.083   0.167   1.646  0.6385  0.2198 -0.4174
   61SOL     OW  241   1.953   1.361   2.976 -0.0341 -0.6075 -0.0861
   61SOL    HW1  242   1.925   1.364   3.066 -0.0779 -1.2206 -1.2174
   61SOL    HW2  243   2.029   1.303   2.967  2.3389  0.7572 -0.4066
   61SOL     MW  244   1.959   1.354   2.987  0.2732 -0.5083 -0.2777
   62SOL     OW  245   0.584   1.725   0.654 -0.2302  0.3194  0.5460
   62SOL    HW1  246   0.670   1.742   0.615 -0.0371 -0.0969 -0.4720
   62SOL    HW2  247   0.575   1.632   0.677 -0.0641 -0.3184  2.0610
   62SOL     MW  248   0.594   1.715   0.652 -0.1828  0.1803  0.6115
   63SOL     OW  249   1.755   0.720   0.629 -0.1533 -0.0622 -0.3184
   63SOL    HW1  250   1.738   0.807   0.596  0.3450  0.9998 -0.0229
   63SOL    HW2  251   1.674   0.699   0.683 -0.1406  2.9255 -1.8427
   63SOL     MW  252   1.742   0.728   0.632 -0.0859  0.4721 -0.4805
   64SOL     OW  253   0.269   1.684   0.724  0.7559 -0.4670 -0.3350
   64SOL    HW1  254   0.333   1.756   0.719 -0.0899  2.5672  0.0579
   64SOL    HW2  255   0.176   1.715   0.734 -2.7236  2.9984 -2.3690
   64SOL     MW  256   0.265   1.697   0.724  0.1852  0.3906 -0.5515
   65SOL     OW  257   1.478   2.302   0.389  0.2866 -0.6045 -0.1439
   65SOL    HW1  258   1.568   2.320   0.406 -2.0723 -1.2764  0.3022
   65SOL    HW2  259   1.439   2.345   0.469  2.9027 -0.1454  1.7780
   65SOL     MW  260   1.485   2.310   0.402  0.3205 -0.6326  0.1686
   66SOL     OW  261   0.389   0.581   0.480  0.3297  0.0608  0.3432
   66SOL    HW1  262   0.436   0.580   0.393  3.3441  2.7544 -1.3029
   66SOL    HW2  263   0.372   0.672   0.502  1.5182 -1.0287  0.7497
   66SOL     MW  264   0.393   0.593   0.471  0.8842  0.2724  0.1797
   67SOL     OW  265   1.442   0.037   1.984 -0.0224  0.2989  0.4737
   67SOL    HW1  266   1.474   0.054   1.893 -0.5261 -0.2307  1.0956
   67SOL    HW2  267   1.361  -0.013   1.969 -1.2300 -2.7196 -0.1935
   67SOL     MW  268   1.435   0.032   1.970 -0.2482 -0.1692  0.4677
   68SOL     OW  269   0.756   0.057   2.949 -0.2679  0.5544  0.2420
   68SOL    HW1  270   0.751   0.097   2.859  0.5818 -0.2928  0.3687
   68SOL    HW2  271   0.832   0.102   2.976 -2.4395 -0.6232 -2.2688
   68SOL     MW  272   0.766   0.068   2.940 -0.4423  0.2872 -0.0725
   69SOL     OW  273   1.058   0.215   1.920  0.5855  0.6020 -0.0407
   69SOL    HW1  274   1.143   0.236   1.958  1.8888  1.4851  0.2269
   69SOL    HW2  275   1.018   0.148   1.982  1.8228  2.1266  2.8529
   69SOL     MW  276   1.064   0.209   1.934  0.9207  0.9196  0.3764
   70SOL     OW  277   0.501   1.746   1.084  0.0203 -0.0827  0.4123
   70SOL    HW1  278   0.581   1.793   1.107 -1.7064  0.7154  1.1746
   70SOL    HW2  279   0.519   1.689   1.008  2.1397 -1.8890 -0.0106
   70SOL     MW  280   0.514   1.745   1.077  0.0721 -0.2157  0.4571
   71SOL     OW  281   1.535   0.563   1.254  0.2645 -0.0500 -0.1731
   71SOL    HW1  282   1.491   0.638   1.304 -0.4235  2.8344 -0.1151
   71SOL    HW2  283   1.539   0.598   1.165  0.6056  1.2026  1.1862
   71SOL     MW  284   1.530   0.578   1.249  0.2187  0.4958  0.0139
   72SOL     OW  285   0.799   1.834   1.016  0.4297  0.4212  0.2362
   72SOL    HW1  286   0.788   1.902   0.943  0.8990  2.4149  0.7313
   72SOL    HW2  287   0.837   1.768   0.962 -0.2872  1.8779 -1.0228
   72SOL     MW  288   0.803   1.834   0.999  0.3970  0.8765  0.1354
   73SOL     OW  289   1.134   0.668   1.264 -0.6309 -0.2876 -0.8389
   73SOL    HW1  290   1.062   0.597   1.256  2.4572 -0.2754 -0.1816
   73SOL    HW2  291   1.087   0.736   1.312 -0.9292 -0.7445 -0.3795
   73SOL     MW  292   1.118   0.668   1.270 -0.2628 -0.3463 -0.6916
   74SOL     OW  293   2.794   0.097   0.974 -0.6170 -0.1843 -0.0208
   74SOL    HW1  294   2.859   0.052   0.925  0.1474  1.5146 -0.9036
   74SOL    HW2  295   2.793   0.191   0.955 -0.7328 -1.8477  0.1229
   74SOL     MW  296   2.803   0.103   0.965 -0.5314 -0.1796 -0.1183
   75SOL     OW  297   1.538   1.348   0.146 -0.7860  0.2844 -0.3037
   75SOL    HW1  298   1.594   1.292   0.093 -0.6073  0.3400 -0.1306
   75SOL    HW2  299   1.560   1.318   0.237 -0.3176  1.5704  3.7041
   75SOL     MW  300   1.548   1.336   0.151 -0.7006  0.4614  0.2479
   76SOL     OW  301   3.015   0.669   0.504  0.5829  0.4980  0.6503
   76SOL    HW1  302   3.039   0.746   0.566  0.2411  3.0255 -0.6117
   76SOL    HW2  303   3.097   0.618   0.479 -0.4795  1.5874  1.1384
   76SOL     MW  304   3.029   0.672   0.509  0.3976  0.9752  0.5482
   77SOL     OW  305   0.841   0.626   0.440 -0.1979  0.1829  0.5150
   77SOL    HW1  306   0.841   0.628   0.343 -1.9615 -2.0093  0.2334
   77SOL    HW2  307   0.820   0.530   0.454 -2.1393 -0.0537 -1.5460
   77SOL     MW  308   0.838   0.614   0.429 -0.6867 -0.1375  0.2059
   78SOL     OW  309   0.763   0.891   1.098  0.6105  0.3053 -0.5987
   78SOL    HW1  310   0.760   0.972   1.051  1.2346 -1.7672  0.1725
   78SOL    HW2  311   0.670   0.874   1.118 -1.3648  1.4043 -0.2253
   78SOL     MW  312   0.751   0.900   1.095  0.4323  0.1768 -0.4477
   79SOL     OW  313   1.858   1.512   0.567 -0.5943 -0.5080 -0.3255
   79SOL    HW1  314   1.767   1.486   0.574 -2.3399 -0.5487 -0.8164
   79SOL    HW2  315   1.889   1.548   0.652  0.2863  0.6989  1.6818
   79SOL     MW  316   1.850   1.513   0.579 -0.7084 -0.3541 -0.1254
   80SOL     OW  317   0.121   1.012   0.314  0.4233 -0.0305 -0.1881
   80SOL    HW1  318   0.052   0.984   0.261  3.3156  0.4165  0.5909
   80SOL    HW2  319   0.158   0.941   0.369  1.0463  0.3862 -0.9387
   80SOL     MW  320   0.117   0.999   0.314  0.8871  0.0834 -0.1844
   81SOL     OW  321   1.783   1.868   0.359  0.0603 -0.4199  0.5954
   81SOL    HW1  322   1.783   1.780   0.331  0.5624 -0.1290  0.5881
   81SOL    HW2  323   1.764   1.918   0.272 -0.2300  1.0906  1.1799
   81SOL     MW  324   1.780   1.863   0.344  0.0882 -0.1822  0.6716
   82SOL     OW  325   0.951   1.046   0.528  0.4016 -0.2100  0.6588
   82SOL    HW1  326   0.901   1.066   0.452  0.5815 -0.0990  0.6631
   82SOL    HW2  327   0.904   0.988   0.586  2.9142 -0.7913 -0.0928
   82SOL     MW  328   0.938   1.041   0.525  0.7569 -0.2720  0.5602
   83SOL     OW  329   0.040   0.755   1.557  0.5704 -0.9160 -0.1761
   83SOL    HW1  330   0.068   0.816   1.484  0.7764 -3.6738  3.2740
   83SOL    HW2  331   0.106   0.690   1.538  1.3537  0.2669 -1.5391
   83SOL     MW  332   0.052   0.755   1.545  0.7009 -1.1238  0.0993
   84SOL     OW  333   0.044   0.184   0.927 -0.0247 -0.3517  0.4071
   84SOL    HW1  334   0.021   0.260   0.979  0.5357 -0.6830  0.6926
   84SOL    HW2  335   0.041   0.119   1.001 -1.2332 -0.4229 -0.1617
   84SOL     MW  336   0.041   0.185   0.944 -0.1102 -0.4048  0.3697
   85SOL     OW  337   0.349   0.487   0.753 -0.7017  0.0026  0.6108
   85SOL    HW1  338   0.382   0.509   0.664 -4.6613  2.7210  0.4509
   85SOL    HW2  339   0.326   0.393   0.755 -1.5273  1.8595  0.5159
   85SOL     MW  340   0.351   0.477   0.741 -1.3331  0.6063  0.5772
   86SOL     OW  341   1.226   0.276   1.166 -0.1884  0.1238 -0.6423
   86SOL    HW1  342   1.211   0.367   1.139  0.8402 -1.2885 -0.6271
   86SOL    HW2  343   1.318   0.279   1.198 -0.3076  0.8410  1.9450
   86SOL     MW  344   1.236   0.288   1.167 -0.0684  0.0321 -0.2989
   87SOL     OW  345   1.044   1.544   1.194 -0.2594  0.2860 -0.3469
   87SOL    HW1  346   1.106   1.595   1.146 -1.1313  1.9434 -0.7168
   87SOL    HW2  347   1.061   1.451   1.182 -0.5498 -1.8772  2.5234
   87SOL     MW  348   1.054   1.539   1.186 -0.4128  0.2193 -0.0170
   88SOL     OW  349   1.223   1.079   1.006 -0.5344  0.1857 -0.2450
   88SOL    HW1  350   1.313   1.119   0.995 -0.1031  0.3867 -2.9051
   88SOL    HW2  351   1.175   1.142   1.061 -0.8951 -0.0343  1.2232
   88SOL     MW  352   1.229   1.093   1.012 -0.5251  0.1832 -0.4023
   89SOL     OW  353   1.776   0.699   0.245  0.6636  0.0780 -0.3816
   89SOL    HW1  354   1.772   0.628   0.304  0.2940 -0.3519 -1.7789
   89SOL    HW2  355   1.866   0.729   0.266  0.0393  0.5840  1.3738
   89SOL     MW  356   1.788   0.694   0.255  0.5324  0.0880 -0.3343
   90SOL     OW  357   0.807   1.235   2.879 -0.8175  0.0545 -0.6650
   90SOL    HW1  358   0.858   1.175   2.934  0.1832 -0.2827 -0.0435
   90SOL    HW2  359   0.798   1.305   2.942 -0.7885 -1.2317 -2.6574
   90SOL     MW  360   0.813   1.236   2.895 -0.6817 -0.1597 -0.8459
   91SOL     OW  361   2.197   0.609   0.461  0.3331 -0.3712 -0.1237
   91SOL    HW1  362   2.274   0.644   0.421 -1.3709 -2.5723  0.2797
   91SOL    HW2  363   2.188   0.526   0.419  1.7595  0.4648  1.0003
   91SOL     MW  364   2.206   0.603   0.450  0.2965 -0.5513  0.0779
   92SOL     OW  365   1.629   0.956   0.544 -0.0604  0.0324 -0.1748
   92SOL    HW1  366   1.583   0.987   0.620 -0.1925 -0.0487 -1.3256
   92SOL    HW2  367   1.627   1.019   0.470  0.9620  1.1531  0.1685
   92SOL     MW  368   1.622   0.969   0.545  0.0571  0.1696 -0.2813
   93SOL     OW  369   1.049   0.286   0.346 -0.0806  0.1393  0.1349
   93SOL    HW1  370   0.959   0.296   0.379  1.1439  3.4988  1.1546
   93SOL    HW2  371   1.057   0.328   0.254 -0.7101  1.6577 -0.3450
   93SOL     MW  372   1.038   0.293   0.338 -0.0021  0.7829  0.2061
   94SOL     OW  373   1.865   1.387   1.578  0.5584 -0.0719 -0.3946
   94SOL    HW1  374   1.878   1.398   1.483 -3.3332 -0.9292  1.1808
   94SOL    HW2  375   1.835   1.293   1.588  0.0325 -1.3166 -2.2923
   94SOL     MW  376   1.863   1.376   1.567 -0.0244 -0.3492 -0.4371
   95SOL     OW  377   0.586   1.550   0.907 -0.0292 -0.5553  0.2654
   95SOL    HW1  378   0.642   1.487   0.948 -1.4696  3.3699 -1.6341
   95SOL    HW2  379   0.520   1.491   0.868  0.3672  1.1990 -0.7013
   95SOL     MW  380   0.584   1.534   0.907 -0.1670  0.1940 -0.1127
   96SOL     OW  381   1.340   1.848   1.658  0.6067  0.2242  0.5808
   96SOL    HW1  382   1.274   1.863   1.726 -0.3083 -1.2555  2.1828
   96SOL    HW2  383   1.357   1.751   1.652  0.5507 -0.0033  1.6500
   96SOL     MW  384   1.334   1.837   1.666  0.4786 -0.0010  0.9333
   97SOL     OW  385   1.084   1.541   0.851  0.1513  0.4882 -0.7029
   97SOL    HW1  386   1.136   1.599   0.913  0.3178  1.2017  0.2524
   97SOL    HW2  387   0.994   1.540   0.881  1.5871  1.4784  0.6523
   97SOL     MW  388   1.079   1.548   0.863  0.3627  0.7130 -0.3980
   98SOL     OW  389   1.339   1.405   1.175 -0.3264  0.2343 -0.1085
   98SOL    HW1  390   1.397   1.446   1.246  3.4819  0.7771 -0.7351
   98SOL    HW2  391   1.383   1.427   1.091 -0.3624 -1.2622 -1.7483
   98SOL     MW  392   1.352   1.413   1.174  0.1713  0.1084 -0.4075
   99SOL     OW  393   1.492   0.297   1.324  0.1564  0.0118  0.5262
   99SOL    HW1  394   1.516   0.394   1.340  1.9902 -3.1313 -1.7933
   99SOL    HW2  395   1.432   0.274   1.395 -3.0673  1.9523  2.6773
   99SOL     MW  396   1.487   0.307   1.336 -0.0270 -0.1469  0.5040
  100SOL     OW  397   1.074   1.143   1.378 -0.0420 -0.5218  0.1797
  100SOL    HW1  398   1.051   1.193   1.453 -2.3538 -3.1208  0.3558
  100SOL    HW2  399   1.093   1.051   1.411 -0.8896 -1.2844  0.7229
  100SOL     MW  400   1.074   1.137   1.392 -0.4589 -0.9653  0.2746
  101SOL     OW  401   0.552   1.211   0.418  0.0650  0.1016  0.0997
  101SOL    HW1  402   0.482   1.172   0.354 -0.0038 -1.5330 -1.1448
  101SOL    HW2  403   0.634   1.180   0.375 -2.1452  1.0657 -1.9270
  101SOL     MW  404   0.554   1.202   0.404 -0.2357  0.0132 -0.3319
  102SOL     OW  405   2.936   0.643   1.095  0.6554 -0.0530  0.1846
  102SOL    HW1  406   2.975   0.727   1.105  0.3731  0.4380 -1.7444
  102SOL    HW2  407   2.886   0.634   1.178  0.8574  0.9093  3.9822
  102SOL     MW  408   2.935   0.653   1.107  0.6448  0.1388  0.4311
  103SOL     OW  409   1.857   0.264   1.803 -0.0771  0.5427 -0.4896
  103SOL    HW1  410   1.858   0.168   1.795 -1.3174  3.0230 -0.2314
  103SOL    HW2  411   1.843   0.284   1.900 -0.6650  0.4934 -0.5833
  103SOL     MW  412   1.856   0.254   1.815 -0.3183  0.8634 -0.4679
  104SOL     OW  413   0.068   1.520   1.655 -1.0103  0.3879 -0.0144
  104SOL    HW1  414   0.115   1.434   1.690  1.0241 -1.2426  0.3173
  104SOL    HW2  415  -0.019   1.500   1.682  1.6502  1.4156  0.3827
  104SOL     MW  416   0.062   1.506   1.663 -0.3909  0.3083  0.0818
  105SOL     OW  417   3.086   1.229   0.400  0.7486 -0.3428 -0.3535
  105SOL    HW1  418   3.133   1.150   0.372  1.9219  0.2487  1.7705
  105SOL    HW2  419   3.154   1.296   0.423 -4.1059  1.5546 -0.8136
  105SOL     MW  420   3.101   1.228   0.399  0.2629 -0.0144 -0.1339
  106SOL     OW  421   0.790   0.330   0.827 -0.2456 -1.1023 -0.4341
  106SOL    HW1  422   0.704   0.365   0.857 -0.2683  0.4513  1.4318
  106SOL    HW2  423   0.853   0.380   0.882 -0.0563 -1.1187 -0.2319
  106SOL     MW  424   0.787   0.341   0.838 -0.2236 -0.8995 -0.1613
  107SOL     OW  425   0.818   2.196   2.881  0.2960  0.6668 -0.1088
  107SOL    HW1  426   0.725   2.207   2.868  3.4334  1.2834 -2.1433
  107SOL    HW2  427   0.819   2.138   2.961  0.1811  1.0515  1.1566
  107SOL     MW  428   0.806   2.190   2.890  0.6948  0.7989 -0.2103
  108SOL     OW  429   1.374   1.586   1.645 -0.4449  0.2070 -0.1406
  108SOL    HW1  430   1.323   1.565   1.564  2.5311 -1.0857  0.2418
  108SOL    HW2  431   1.455   1.538   1.648  2.9701 -2.6420 -1.0116
  108SOL     MW  432   1.378   1.577   1.635  0.3983 -0.3395 -0.2051
  109SOL     OW  433   2.027   0.763   0.301 -0.4834 -0.4545  0.9153
  109SOL    HW1  434   2.024   0.862   0.326 -0.0402  2.0347  0.1689
  109SOL    HW2  435   2.081   0.718   0.367 -0.9818 -0.2098  1.6553
  109SOL     MW  436   2.033   0.770   0.313 -0.4907 -0.0938  0.9144
  110SOL     OW  437   0.433   1.911   0.733 -0.1837 -0.4840  0.2732
  110SOL    HW1  438   0.499   1.844   0.718 -0.9374 -2.7159  0.1261
  110SOL    HW2  439   0.471   1.992   0.689  1.9913 -0.7304 -2.4673
  110SOL     MW  440   0.446   1.913   0.725  0.0038 -0.8110 -0.1078
  111SOL     OW  441   0.848   0.883   1.373  0.1009 -0.5035 -0.1183
  111SOL    HW1  442   0.826   0.891   1.280 -2.1676 -2.2931  0.5241
  111SOL    HW2  443   0.805   0.807   1.417  1.5057 -2.9206  2.2914
  111SOL     MW  444   0.839   0.874   1.367 -0.0131 -1.0585  0.2844
  112SOL     OW  445   1.403   1.097   1.577  0.1532  0.2092  0.1739
  112SOL    HW1  446   1.330   1.163   1.570  0.7720  0.1578  0.2120
  112SOL    HW2  447   1.368   1.011   1.573 -1.4197  0.7857  1.3352
  112SOL     MW  448   1.389   1.095   1.575  0.0273  0.2785  0.3321
  113SOL     OW  449   1.210   3.020   1.694  0.1924 -0.6217  0.5198
  113SOL    HW1  450   1.207   2.970   1.777 -2.6158  0.1157  1.7068
  113SOL    HW2  451   1.179   2.965   1.626  0.7901  1.9296  0.7562
  113SOL     MW  452   1.205   3.006   1.696 -0.0993 -0.1878  0.7076
  114SOL     OW  453   0.268   2.870   1.806  0.4309 -0.3917 -1.0349
  114SOL    HW1  454   0.347   2.932   1.824  0.5599  2.0252 -0.8834
  114SOL    HW2  455   0.194   2.917   1.841  1.5044 -1.5411 -1.0932
  114SOL     MW  456   0.269   2.885   1.813  0.5895 -0.2244 -1.0226
  115SOL     OW  457   0.516   0.834   1.187 -0.0652  0.1616  0.3694
  115SOL    HW1  458   0.497   0.745   1.214  1.0031  0.2019  0.1031
  115SOL    HW2  459   0.440   0.892   1.227 -2.4926  1.7756  0.0484
  115SOL     MW  460   0.504   0.830   1.196 -0.2445  0.3799  0.2919
  116SOL     OW  461   0.729   1.116   0.963 -0.8527  0.0400  0.2008
  116SOL    HW1  462   0.792   1.161   0.897  0.9147 -1.7940 -1.3622
  116SOL    HW2  463   0.751   1.153   1.051  1.9167  1.5549 -3.4750
  116SOL     MW  464   0.740   1.127   0.966 -0.2541 -0.0021 -0.4904
  117SOL     OW  465   1.121   1.262   0.814  0.2008  0.3781 -0.3131
  117SOL    HW1  466   1.131   1.215   0.892 -0.6834  3.1196 -1.0390
  117SOL    HW2  467   1.121   1.355   0.852  0.2604  0.0013 -0.3794
  117SOL     MW  468   1.123   1.268   0.830  0.0920  0.6901 -0.4176
  118SOL     OW  469   3.011   2.946   1.780  0.1785 -0.1513  0.6773
  118SOL    HW1  470   3.054   3.031   1.790 -0.3158 -1.7460  2.6124
  118SOL    HW2  471   2.917   2.967   1.769 -2.9719 -1.3073  1.1686
  118SOL     MW  472   3.004   2.960   1.780 -0.3024 -0.5142  0.9974
  119SOL     OW  473   0.367   1.537   1.243 -0.4267 -0.0156 -0.3085
  119SOL    HW1  474   0.394   1.602   1.177 -1.1915 -2.9610 -1.8183
  119SOL    HW2  475   0.284   1.504   1.210  0.1702  2.9381 -1.2638
  119SOL     MW  476   0.360   1.541   1.230 -0.4488 -0.0145 -0.6338
  120SOL     OW  477   0.261   0.808   0.990  0.4238  0.8057  0.2374
  120SOL    HW1  478   0.347   0.783   1.021 -0.6059 -2.4382 -1.2418
  120SOL    HW2  479   0.284   0.880   0.936  1.4390  1.4413  1.8296
  120SOL     MW  480   0.276   0.814   0.987  0.4219  0.4616  0.2523
  121SOL     OW  481   1.771   1.131   1.617 -0.2114  0.4002 -0.1646
  121SOL    HW1  482   1.717   1.126   1.539  2.0569 -1.4757 -2.3266
  121SOL    HW2  483   1.852   1.090   1.594 -3.0113 -0.1485  1.4025
  121SOL     MW  484   1.775   1.125   1.603 -0.2815  0.0803 -0.2431
  122SOL     OW  485   0.121   0.620   0.847 -0.2890 -0.3424  0.1089
  122SOL    HW1  486   0.197   0.575   0.813  2.7830  1.3685 -2.5542
  122SOL    HW2  487   0.162   0.686   0.898 -1.5340 -1.1560 -1.7470
  122SOL     MW  488   0.136   0.623   0.849 -0.0479 -0.2240 -0.4873
  123SOL     OW  489   1.875   1.100   0.537 -0.2224 -0.1280 -0.5048
  123SOL    HW1  490   1.788   1.073   0.564  0.2859  1.2939  0.5660
  123SOL    HW2  491   1.933   1.045   0.592 -1.1579 -2.7726  0.3037
  123SOL     MW  492   1.871   1.089   0.548 -0.2788 -0.2893 -0.2569
  124SOL     OW  493   0.571   0.447   0.967  0.8656 -0.4197 -0.1169
  124SOL    HW1  494   0.493   0.471   0.918  0.0205 -1.7091  1.9157
  124SOL    HW2  495   0.624   0.526   0.949  0.0443  1.0101  0.7141
  124SOL     MW  496   0.568   0.461   0.958  0.6457 -0.4012  0.2609
  125SOL     OW  497   0.683   1.737   1.793 -0.0955  0.0816 -0.7336
  125SOL    HW1  498   0.662   1.675   1.724  0.5818 -1.2342  1.0363
  125SOL    HW2  499   0.617   1.813   1.784  0.8828  0.0972  1.6524
  125SOL     MW  500   0.671   1.739   1.783  0.1229 -0.0899 -0.1853
  126SOL     OW  501   2.147   1.516   1.913 -0.6803  0.3755 -0.1453
  126SOL    HW1  502   2.210   1.585   1.913 -1.3145 -0.1704 -1.8261
  126SOL    HW2  503   2.199   1.435   1.932  1.1584  1.2600 -1.5839
  126SOL     MW  504   2.162   1.514   1.915 -0.5214  0.4202 -0.5569
  127SOL     OW  505   0.546   0.785   1.799  0.0110  0.0741  0.1542
  127SOL    HW1  506   0.639   0.761   1.810  2.6718 -3.5521  1.4848
  127SOL    HW2  507   0.522   0.845   1.868 -0.9398 -1.5182 -0.5025
  127SOL     MW  508   0.555   0.790   1.809  0.2366 -0.6145  0.2431
  128SOL     OW  509   1.754   0.717   2.897 -0.0753 -0.4925  0.5472
  128SOL    HW1  510   1.792   0.709   2.809  3.2803  2.4145 -3.1613
  128SOL    HW2  511   1.721   0.804   2.888 -0.6241 -0.4020  0.5497
  128SOL     MW  512   1.754   0.728   2.884  0.2951 -0.0970  0.0582
  129SOL     OW  513   1.578   0.909   0.185 -0.0693 -0.7077  0.1345
  129SOL    HW1  514   1.535   0.827   0.165  1.6648  0.9785 -3.0411
  129SOL    HW2  515   1.650   0.878   0.233 -2.2968 -0.7278 -0.5206
  129SOL     MW  516   1.582   0.894   0.189 -0.1344 -0.4879 -0.3709
  130SOL     OW  517   0.826   1.439   0.316 -0.1312  0.3178 -0.2962
  130SOL    HW1  518   0.811   1.427   0.415 -0.2773  2.8577 -0.3797
  130SOL    HW2  519   0.919   1.476   0.308  2.7309  3.3969  1.7275
  130SOL     MW  520   0.836   1.442   0.328  0.2272  1.0591 -0.0402
  131SOL     OW  521   0.049   0.785   0.074  0.4943  0.3187  0.3366
  131SOL    HW1  522   0.016   0.813  -0.013  0.4144  0.9646  1.8364
  131SOL    HW2  523   0.137   0.757   0.063 -1.6211 -2.1492  1.8578
  131SOL     MW  524   0.057   0.785   0.061  0.2046  0.0783  0.7352
  132SOL     OW  525   2.747   0.095   1.255  0.4522 -0.1565  0.0692
  132SOL    HW1  526   2.755   0.088   1.160  0.1349  0.8367 -4.1095
  132SOL    HW2  527   2.657   0.068   1.263 -0.7859 -0.5709  0.2493
  132SOL     MW  528   2.736   0.090   1.244  0.2470 -0.0801 -0.4584
  133SOL     OW  529   1.056   0.135   1.679 -0.4003  0.3453  0.0820
  133SOL    HW1  530   1.117   0.058   1.674  1.5371 -0.3839 -0.1287
  133SOL    HW2  531   1.057   0.154   1.774 -1.0317 -0.4673 -0.6082
  133SOL     MW  532   1.064   0.127   1.691 -0.2280  0.1419 -0.0369
  134SOL     OW  533   1.417   2.436   1.488  0.1832  0.5897 -0.1075
  134SOL    HW1  534   1.378   2.516   1.460 -0.6785 -0.8085  0.2894
  134SOL    HW2  535   1.442   2.464   1.579  1.4527 -0.2429 -2.5109
  134SOL     MW  536   1.415   2.450   1.496  0.2370  0.2954 -0.3722
  135SOL     OW  537   3.005   0.994   2.980  0.7582 -0.1161 -0.2093
  135SOL    HW1  538   3.095   1.023   3.008  0.6557  1.2043  0.5325
  135SOL    HW2  539   2.964   1.064   2.922 -2.7618 -2.6455 -1.4548
  135SOL     MW  540   3.011   1.007   2.976  0.2803 -0.2756 -0.2758
  136SOL     OW  541   0.186   1.967   0.868  0.1104 -0.1383 -0.0812
  136SOL    HW1  542   0.109   1.919   0.836  1.2264  1.8403  1.4939
  136SOL    HW2  543   0.256   1.932   0.813 -0.7780  1.0820  0.4533
  136SOL     MW  544   0.185   1.956   0.857  0.1404  0.2837  0.1971
  137SOL     OW  545   0.752   2.064   0.569  0.5344  0.7619  0.3365
  137SOL    HW1  546   0.770   2.050   0.666  4.0355  2.2406  1.1502
  137SOL    HW2  547   0.656   2.095   0.567  1.7223  0.8601  0.0834
  137SOL     MW  548   0.741   2.066   0.581  1.1530  0.9699  0.4104
  138SOL     OW  549   0.469   0.567   1.218 -0.0216  0.4551 -0.6105
  138SOL    HW1  550   0.383   0.518   1.225  1.5436  0.1522 -0.4043
  138SOL    HW2  551   0.517   0.520   1.147  0.9593  0.9068 -2.1497
  138SOL     MW  552   0.464   0.554   1.210  0.3143  0.4748 -0.7864
  139SOL     OW  553   2.848   0.547   1.353 -0.0546 -0.3371  0.1946
  139SOL    HW1  554   2.931   0.499   1.339 -1.5105 -0.2362 -1.4704
  139SOL    HW2  555   2.855   0.580   1.444  1.3142  0.1255 -1.3790
  139SOL     MW  556   2.860   0.545   1.363 -0.0661 -0.2627 -0.2327
  140SOL     OW  557   0.872   0.443   1.974 -0.3480 -0.1065  0.1941
  140SOL    HW1  558   0.934   0.371   1.973  1.3060 -0.5868  1.8814
  140SOL    HW2  559   0.865   0.466   2.064  1.0646  2.3525 -0.8706
  140SOL     MW  560   0.879   0.437   1.985  0.0566  0.1545  0.2762
  141SOL     OW  561   1.032   0.603   1.625  0.4009 -0.1836  0.2929
  141SOL    HW1  562   1.041   0.512   1.596  1.8193 -0.0949  1.4238
  141SOL    HW2  563   1.125   0.637   1.636  1.5499  0.3073 -1.8997
  141SOL     MW  564   1.046   0.595   1.623  0.7396 -0.1071  0.1528
  142SOL     OW  565   0.873   1.212   0.740  0.1543 -0.1006  0.0458
  142SOL    HW1  566   0.879   1.135   0.683 -2.0912  0.0303  1.7689
  142SOL    HW2  567   0.960   1.235   0.772  0.2959 -0.4991  0.2981
  142SOL     MW  568   0.886   1.205   0.737 -0.1233 -0.1359  0.3064
  143SOL     OW  569   1.825   0.690   1.033  0.0183  1.0428 -0.2414
  143SOL    HW1  570   1.861   0.716   0.949 -4.0495 -3.5141 -2.8670
  143SOL    HW2  571   1.735   0.663   1.017  1.6517 -0.5143 -1.0564
  143SOL     MW  572   1.818   0.690   1.020 -0.3029  0.2361 -0.6953
  144SOL     OW  573   0.254   1.313   1.732  0.1939 -0.1669 -0.2325
  144SOL    HW1  574   0.307   1.394   1.723 -0.8550  0.2725  0.3111
  144SOL    HW2  575   0.314   1.265   1.794  0.5197  3.3899 -1.7404
  144SOL     MW  576   0.269   1.317   1.739  0.0985  0.3603 -0.3598
  145SOL     OW  577   0.164   0.456   1.249  0.9327  0.5591  0.4803
  145SOL    HW1  578   0.206   0.367   1.270 -0.0524  0.6309 -2.1040
  145SOL    HW2  579   0.134   0.458   1.155 -1.8115 -1.1656 -0.7484
  145SOL     MW  580   0.165   0.444   1.239  0.4407  0.3410 -0.0228
  146SOL     OW  581   0.802   1.922   1.449 -0.5260  0.1577  0.7506
  146SOL    HW1  582   0.834   1.951   1.358 -0.5165  0.6513  1.1182
  146SOL    HW2  583   0.720   1.872   1.434 -1.8621 -1.3915 -0.5531
  146SOL     MW  584   0.796   1.919   1.435 -0.7010  0.0184  0.6271
  147SOL     OW  585   0.450   0.490   2.913  0.3505  0.5501 -0.2935
  147SOL    HW1  586   0.379   0.494   2.976 -1.2435  2.0697 -1.9643
  147SOL    HW2  587   0.422   0.562   2.858  2.5113 -0.0247 -0.8663
  147SOL     MW  588   0.437   0.500   2.914  0.4253  0.6747 -0.5895
  148SOL     OW  589   0.075   0.910   1.324 -0.0755  0.4376  0.8825
  148SOL    HW1  590   0.161   0.945   1.299  3.1406  0.1982 -0.5598
  148SOL    HW2  591   0.020   0.987   1.332 -1.3920 -1.2894 -2.9888
  148SOL     MW  592   0.079   0.925   1.321  0.1751  0.1782  0.1815
  149SOL     OW  593   1.589   1.161   1.403  0.3525  0.4349 -0.2546
  149SOL    HW1  594   1.525   1.152   1.471  2.0542  2.1583 -3.7210
  149SOL    HW2  595   1.584   1.254   1.386  1.4195 -0.4977 -0.5953
  149SOL     MW  596   1.580   1.172   1.410  0.7178  0.5393 -0.7569
  150SOL     OW  597   1.722   1.451   0.895  0.2220  0.6838 -0.0642
  150SOL    HW1  598   1.781   1.375   0.905 -2.2637 -0.4229  0.9187
  150SOL    HW2  599   1.774   1.528   0.870 -2.5411  2.6371  0.0546
  150SOL     MW  600   1.736   1.451   0.893 -0.4706  0.7955  0.0811
  151SOL     OW  601   1.663   1.900   0.821 -0.4153 -0.3174 -0.0255
  151SOL    HW1  602   1.644   1.872   0.727 -0.6531  0.1867  1.3987
  151SOL    HW2  603   1.609   1.846   0.879 -1.9428  1.5526 -0.2566
  151SOL     MW  604   1.653   1.889   0.816 -0.6482 -0.0042  0.1319
  152SOL     OW  605   0.659   1.406   1.565 -0.4118  0.5260 -0.3428
  152SOL    HW1  606   0.670   1.423   1.473 -1.7268  2.1233  2.9432
  152SOL    HW2  607   0.612   1.322   1.570 -1.5568 -1.2171  2.6021
  152SOL     MW  608   0.654   1.397   1.554 -0.7364  0.5068  0.4793
  153SOL     OW  609   2.591   1.213   0.712  0.6154 -0.3209 -0.1031
  153SOL    HW1  610   2.663   1.179   0.659  0.2994  2.0743  1.3981
  153SOL    HW2  611   2.528   1.134   0.727 -1.4533 -1.3144  1.0007
  153SOL     MW  612   2.592   1.198   0.707  0.3008 -0.1359  0.2406
  154SOL     OW  613   0.121   1.773   1.784  0.2237  0.0693  0.1480
  154SOL    HW1  614   0.114   1.673   1.765  2.3631 -0.6069  0.3897
  154SOL    HW2  615   0.206   1.777   1.821 -1.9786 -0.4244 -1.6021
  154SOL     MW  616   0.132   1.760   1.787  0.2154 -0.0850 -0.0511
  155SOL     OW  617   1.221   0.726   0.268  0.1869 -0.6811 -0.2083
  155SOL    HW1  618   1.210   0.677   0.357 -0.6443 -0.7036 -2.0998
  155SOL    HW2  619   1.194   0.818   0.290 -2.0587  0.1634  0.4093
  155SOL     MW  620   1.216   0.732   0.283 -0.2191 -0.5727 -0.3764
  156SOL     OW  621   1.546   3.103   1.088  0.1708  0.2996  0.5675
  156SOL    HW1  622   1.608   3.128   1.153  1.9942  0.1559 -2.6625
  156SOL    HW2  623   1.564   3.014   1.064  0.3087  1.0281 -1.2293
  156SOL     MW  624   1.556   3.094   1.094  0.4296  0.3767 -0.0957
  157SOL     OW  625   1.331   1.170   0.165  0.2700 -0.3527  0.2778
  157SOL    HW1  626   1.342   1.083   0.202 -1.7142 -1.4334  3.1036
  157SOL    HW2  627   1.415   1.208   0.146 -0.2906 -3.2694  2.5635
  157SOL     MW  628   1.344   1.163   0.167 -0.0658 -0.8801  0.9522
  158SOL     OW  629   0.424   1.663   2.247 -0.2433  0.3896 -0.4683
  158SOL    HW1  630   0.479   1.713   2.185 -0.7206  2.3193 -1.5299
  158SOL    HW2  631   0.336   1.683   2.220 -0.9467 -1.7491 -0.9500
  158SOL     MW  632   0.419   1.672   2.235 -0.3991  0.3620 -0.6719
  159SOL     OW  633   1.192   1.625   0.543  0.6477 -0.3131  0.6454
  159SOL    HW1  634   1.142   1.597   0.463 -0.2841  2.0783  0.0382
  159SOL    HW2  635   1.131   1.678   0.598 -0.9890 -0.4972  2.1376
  159SOL     MW  636   1.177   1.629   0.540  0.3088 -0.0219  0.7622
  160SOL     OW  637   0.513   1.176   1.548 -0.0673 -0.3979 -0.4831
  160SOL    HW1  638   0.461   1.105   1.599 -0.1675  0.8266  0.0179
  160SOL    HW2  639   0.602   1.139   1.551 -0.0130  0.6296 -1.8106
  160SOL     MW  640   0.517   1.162   1.555 -0.0733 -0.1008 -0.5921
  161SOL     OW  641   0.423   2.239   2.658  0.4658  0.0398  0.7587
  161SOL    HW1  642   0.348   2.287   2.622 -3.5241 -0.3704 -1.9495
  161SOL    HW2  643   0.446   2.171   2.590  0.8343 -0.0915  2.3230
  161SOL     MW  644   0.416   2.236   2.644 -0.0120 -0.0317  0.6078
  162SOL     OW  645   1.063   1.820   1.792 -0.1904  0.0748  0.5705
  162SOL    HW1  646   1.054   1.903   1.838  0.4383 -1.3713 -1.7799
  162SOL    HW2  647   0.990   1.777   1.830  0.3824 -0.1662 -1.1510
  162SOL     MW  648   1.052   1.826   1.803 -0.0319 -0.1478  0.0333
  163SOL     OW  649   2.113   3.099   0.838 -0.0681  0.0262 -0.2117
  163SOL    HW1  650   2.094   3.164   0.772  2.1169  1.6259 -0.1320
  163SOL    HW2  651   2.061   3.013   0.813 -1.6603 -0.6777 -0.5335
  163SOL     MW  652   2.104   3.096   0.826  0.0101  0.1444 -0.2436
  164SOL     OW  653   0.289   0.223   0.807 -0.3336  0.3177  0.2628
  164SOL    HW1  654   0.198   0.199   0.830 -0.2036  2.2982 -0.2039
  164SOL    HW2  655   0.327   0.145   0.767 -1.9952  0.2047  2.0714
  164SOL     MW  656   0.282   0.209   0.805 -0.5357  0.5641  0.4399
  165SOL     OW  657   1.213   1.300   0.365 -0.3060  0.4284  0.8161
  165SOL    HW1  658   1.253   1.265   0.452 -0.3483  0.9395  1.0345
  165SOL    HW2  659   1.260   1.246   0.294 -0.6806  2.1510  0.6839
  165SOL     MW  660   1.224   1.288   0.367 -0.3610  0.7231  0.8274
  166SOL     OW  661   0.477   1.169   1.030 -0.4923  0.6358  0.1824
  166SOL    HW1  662   0.449   1.178   1.127  1.9994  2.8926  0.5475
  166SOL    HW2  663   0.562   1.125   1.028 -0.7452 -0.3164 -1.4876
  166SOL     MW  664   0.484   1.165   1.043 -0.1969  0.8079  0.0102
  167SOL     OW  665   0.805   1.180   0.307 -0.1939 -0.0483  0.7773
  167SOL    HW1  666   0.830   1.275   0.298 -0.9204  1.0895 -2.5180
  167SOL    HW2  667   0.867   1.121   0.258  0.9733 -1.8423 -0.9647
  167SOL     MW  668   0.817   1.185   0.300 -0.1358 -0.1349  0.1127
  168SOL     OW  669   1.719   1.623   3.042 -0.2689  0.1892 -0.0982
  168SOL    HW1  670   1.643   1.680   3.016  0.1964  1.3336 -0.9194
  168SOL    HW2  671   1.705   1.537   3.004  0.8486 -0.7288 -0.1485
  168SOL     MW  672   1.707   1.619   3.033 -0.0601  0.2191 -0.2132
  169SOL     OW  673   0.325   1.004   1.327  0.1714 -0.5352 -0.2776
  169SOL    HW1  674   0.334   1.000   1.420  0.6235 -1.0322 -2.2576
  169SOL    HW2  675   0.347   1.097   1.311 -0.6497 -0.4836 -2.4332
  169SOL     MW  676   0.329   1.016   1.337  0.1227 -0.5940 -0.8233
  170SOL     OW  677   1.134   1.508   1.464 -0.3950  0.1245  0.1165
  170SOL    HW1  678   1.104   1.597   1.496  1.2249  2.4684 -3.9281
  170SOL    HW2  679   1.113   1.523   1.372  0.6658 -2.8303  0.2877
  170SOL     MW  680   1.127   1.522   1.456 -0.0413  0.0439 -0.3946
  171SOL     OW  681   0.503   1.451   0.555 -0.2962 -0.0990  0.7147
  171SOL    HW1  682   0.460   1.510   0.502  3.5374 -1.6439  1.6540
  171SOL    HW2  683   0.529   1.379   0.483  1.0516 -2.5022 -2.0245
  171SOL     MW  684   0.500   1.449   0.539  0.3874 -0.6199  0.4772
  172SOL     OW  685   0.764   0.292   1.265 -0.2550 -0.4855 -0.8605
  172SOL    HW1  686   0.774   0.248   1.180  1.5513 -1.0853  1.7597
  172SOL    HW2  687   0.789   0.231   1.335 -0.0940 -1.3100  2.8268
  172SOL     MW  688   0.769   0.278   1.263  0.0045 -0.6734 -0.0283
  173SOL     OW  689   0.563   1.712   0.327  0.3304 -0.7229  0.0574
  173SOL    HW1  690   0.571   1.641   0.271 -0.3590  2.0171  0.2589
  173SOL    HW2  691   0.653   1.724   0.364 -1.4031 -2.8953  2.6838
  173SOL     MW  692   0.576   1.704   0.324  0.0107 -0.6480  0.4305
  174SOL     OW  693   1.902   0.873   1.496  0.8494  0.8007 -0.0092
  174SOL    HW1  694   1.810   0.848   1.515  0.8795  0.3477 -1.9400
  174SOL    HW2  695   1.907   0.886   1.399  2.2335  0.3359  0.8190
  174SOL     MW  696   1.890   0.872   1.486  1.0360  0.6796 -0.1547
  175SOL     OW  697   0.577   1.482   0.164  0.5815 -0.1787  0.9182
  175SOL    HW1  698   0.512   1.413   0.149 -2.3856  2.4815 -0.0283
  175SOL    HW2  699   0.646   1.442   0.216 -2.3367 -0.5111 -1.4778
  175SOL     MW  700   0.578   1.467   0.169 -0.1950  0.1284  0.4772
  176SOL     OW  701   0.111   1.501   1.190  0.0398  0.6265 -0.0593
  176SOL    HW1  702   0.119   1.424   1.128  1.6017 -2.9746 -0.2657
  176SOL    HW2  703   0.036   1.476   1.242 -0.7471  1.5441 -1.4087
  176SOL     MW  704   0.102   1.487   1.189  0.1420  0.2724 -0.2645
  177SOL     OW  705   0.500   0.325   1.424 -0.0282 -0.2012  0.5248
  177SOL    HW1  706   0.537   0.367   1.345 -0.3967  1.5736  0.9065
  177SOL    HW2  707   0.522   0.400   1.481 -1.8811 -1.1270 -1.3160
  177SOL     MW  708   0.508   0.340   1.421 -0.3213 -0.0892  0.3323
  178SOL     OW  709   3.063   0.507   3.018 -0.2601  0.7718  0.0931
  178SOL    HW1  710   2.999   0.492   3.080 -0.0310 -4.0717 -0.5829
  178SOL    HW2  711   3.023   0.474   2.932 -2.2673 -2.2454 -1.5655
  178SOL     MW  712   3.049   0.501   3.015 -0.4947 -0.2653 -0.2149
  179SOL     OW  713   1.536   1.470   1.348  0.3380  0.0737  1.1473
  179SOL    HW1  714   1.554   1.460   1.439  2.3434 -0.4762  0.6146
  179SOL    HW2  715   1.623   1.453   1.305 -1.3500  1.1777  1.4520
  179SOL     MW  716   1.550   1.467   1.354  0.3799  0.1468  1.1172
  180SOL     OW  717   0.008   0.281   0.424  0.0641 -0.3844 -0.3809
  180SOL    HW1  718  -0.080   0.298   0.394 -2.0642  0.1505 -2.0154
  180SOL    HW2  719   0.058   0.364   0.428  2.1894  1.2416 -0.6315
  180SOL     MW  720   0.003   0.294   0.421  0.0637 -0.0993 -0.6296
  181SOL     OW  721   1.081   1.298   3.092 -0.5146  0.5335  0.2376
  181SOL    HW1  722   1.153   1.358   3.110  0.2345 -3.1106 -0.8677
  181SOL    HW2  723   1.121   1.257   3.010 -0.8120  2.7541 -1.1138
  181SOL     MW  724   1.095   1.301   3.084 -0.4550  0.3457 -0.0865
  182SOL     OW  725   0.374   0.952   1.624 -0.2008 -0.8555 -0.6341
  182SOL    HW1  726   0.286   0.923   1.652  2.0732  1.6335 -2.2183
  182SOL    HW2  727   0.442   0.892   1.659  0.6330  2.0736  2.6591
  182SOL     MW  728   0.372   0.940   1.632  0.2092 -0.1407 -0.4086
  183SOL     OW  729   1.575   1.763   1.290  0.0005  0.1178 -0.0011
  183SOL    HW1  730   1.673   1.766   1.315 -0.3037  1.7512  0.1337
  183SOL    HW2  731   1.547   1.682   1.326 -0.2819  0.8467 -2.0332
  183SOL     MW  732   1.584   1.752   1.298 -0.0769  0.4295 -0.2515
  184SOL     OW  733   0.809   0.709   1.775  0.1471 -0.3456 -0.0924
  184SOL    HW1  734   0.901   0.723   1.746  0.9619 -1.7575 -1.5519
  184SOL    HW2  735   0.809   0.617   1.810 -0.3210 -1.3565  1.3529
  184SOL     MW  736   0.821   0.699   1.776  0.1929 -0.6653 -0.0943
  185SOL     OW  737   1.132   0.959   1.869  0.3182 -0.1222  0.9278
  185SOL    HW1  738   1.089   0.882   1.914 -0.8111 -1.2112 -1.3604
  185SOL    HW2  739   1.192   1.005   1.935  0.7234  2.6862 -0.7523
  185SOL     MW  740   1.134   0.955   1.884  0.2226  0.1046  0.4042
  186SOL     OW  741   0.274   1.614   1.506 -0.4123  0.0497  0.6933
  186SOL    HW1  742   0.281   1.618   1.413  1.7374  0.8727  0.6979
  186SOL    HW2  743   0.183   1.589   1.535 -2.0068  2.4347  2.0360
  186SOL     MW  744   0.263   1.611   1.498 -0.3390  0.4730  0.8711
  187SOL     OW  745   1.407   0.761   1.385 -0.6120  0.4612 -0.0532
  187SOL    HW1  746   1.424   0.755   1.479 -1.9775  0.3639  0.8755
  187SOL    HW2  747   1.311   0.769   1.389 -1.3485 -0.4699  0.8797
  187SOL     MW  748   1.397   0.761   1.398 -0.8893  0.3255  0.1924
  188SOL     OW  749   1.900   1.202   0.882 -0.2749  0.4944  0.9175
  188SOL    HW1  750   1.916   1.190   0.979  1.3940 -2.4607  2.8166
  188SOL    HW2  751   1.926   1.125   0.827  2.4242  3.3615 -0.6368
  188SOL     MW  752   1.906   1.191   0.887  0.3014  0.4828  0.9630
  189SOL     OW  753   0.689   0.712   0.871  0.2784  0.0546  0.3703
  189SOL    HW1  754   0.616   0.773   0.883 -0.4913 -3.9845  0.6516
  189SOL    HW2  755   0.752   0.756   0.927  1.5777 -2.2566 -0.7655
  189SOL     MW  756   0.688   0.726   0.880  0.3483 -0.7833  0.2575
  190SOL     OW  757   1.859   0.305   2.081 -0.5658 -0.0273 -0.4995
  190SOL    HW1  758   1.843   0.237   2.157 -0.7884 -1.6173  0.2935
  190SOL    HW2  759   1.945   0.351   2.100  0.2931  1.9383  1.8777
  190SOL     MW  760   1.868   0.302   2.094 -0.4819  0.0223 -0.0812
  191SOL     OW  761   1.563   0.963   1.220  0.3997 -0.3536 -0.3485
  191SOL    HW1  762   1.556   1.031   1.284  2.4993 -1.0811 -1.1699
  191SOL    HW2  763   1.506   0.890   1.250  0.4380 -0.5906 -1.1193
  191SOL     MW  764   1.554   0.963   1.233  0.6818 -0.4808 -0.5586
  192SOL     OW  765   0.517   2.193   2.910 -0.4484 -0.1609  0.7255
  192SOL    HW1  766   0.470   2.228   2.834 -1.1459 -0.4843 -0.3898
  192SOL    HW2  767   0.519   2.101   2.902 -2.1215  1.5942  1.0833
  192SOL     MW  768   0.511   2.185   2.899 -0.7612  0.0280  0.6256
  193SOL     OW  769   0.814   1.640   0.798  0.1747 -0.3527 -0.6346
  193SOL    HW1  770   0.718   1.619   0.832 -4.1315 -0.5527  0.1987
  193SOL    HW2  771   0.815   1.591   0.716  0.3310 -1.7413  4.0828
  193SOL     MW  772   0.801   1.631   0.792 -0.3728 -0.5623  0.0977
  194SOL     OW  773   0.460   1.326   0.839 -0.2830  0.4112  0.3884
  194SOL    HW1  774   0.446   1.272   0.925 -1.7319 -0.5090 -0.1349
  194SOL    HW2  775   0.374   1.338   0.796 -1.2348 -1.2126  0.8271
  194SOL     MW  776   0.447   1.321   0.845 -0.5998  0.0755  0.3772
  195SOL     OW  777   1.253   1.085   2.999 -0.6127  0.0283  0.2606
  195SOL    HW1  778   1.287   1.104   3.084 -3.7564  1.6308  1.4508
  195SOL    HW2  779   1.186   1.021   3.012 -1.0025  0.7947  1.2583
  195SOL     MW  780   1.249   1.079   3.012 -1.0789  0.3409  0.5493
  196SOL     OW  781   2.250   1.016   0.564 -0.5605 -0.0168 -1.1178
  196SOL    HW1  782   2.271   1.016   0.475  1.2823 -2.3559  2.3177
  196SOL    HW2  783   2.246   1.109   0.591 -0.7988 -0.8168 -0.4766
  196SOL     MW  784   2.252   1.028   0.556 -0.3488 -0.4309 -0.5800
  197SOL     OW  785   0.609   1.351   2.180 -0.3995 -0.2386 -0.5807
  197SOL    HW1  786   0.625   1.270   2.131 -0.6635 -1.4058 -0.7001
  197SOL    HW2  787   0.680   1.409   2.151 -2.3760 -0.5214  0.2363
  197SOL     MW  788   0.620   1.348   2.170 -0.6951 -0.4299 -0.4887
  198SOL     OW  789   2.934   1.429   0.984 -0.0873 -0.3155  0.4053
  198SOL    HW1  790   2.950   1.513   0.946  1.8755 -0.2519 -0.4229
  198SOL    HW2  791   2.869   1.386   0.933  0.1769 -2.0020  1.8400
  198SOL     MW  792   2.928   1.435   0.972  0.2065 -0.5296  0.4853
  199SOL     OW  793   0.662   1.286   1.830 -0.2715 -0.8080  0.3569
  199SOL    HW1  794   0.572   1.259   1.864 -2.4831  0.2943  0.9456
  199SOL    HW2  795   0.647   1.324   1.740 -2.2812  1.0710  1.7312
  199SOL     MW  796   0.648   1.288   1.823 -0.8285 -0.4147  0.6159
  200SOL     OW  797   1.834   2.940   1.304 -0.3505  0.5825 -0.5963
  200SOL    HW1  798   1.902   2.962   1.236  3.4552  1.9457 -1.3307
  200SOL    HW2  799   1.757   2.997   1.275  2.8260 -1.1645 -0.4401
  200SOL     MW  800   1.832   2.951   1.291  0.5707  0.5318 -0.6726
  201SOL     OW  801   1.186   0.319   0.817  0.4098 -0.6744  0.4752
  201SOL    HW1  802   1.162   0.225   0.799 -2.4287  0.8194 -0.2766
  201SOL    HW2  803   1.283   0.318   0.831  1.7743  2.0014 -1.8450
  201SOL     MW  804   1.195   0.307   0.817  0.2153 -0.1243  0.0698
  202SOL     OW  805   1.504   1.722   0.981  0.1322 -0.9471  0.0241
  202SOL    HW1  806   1.488   1.629   0.970 -0.8299  2.1426  1.7801
  202SOL    HW2  807   1.525   1.732   1.070 -3.5350  0.4997  1.3842
  202SOL     MW  808   1.504   1.711   0.991 -0.4786 -0.3485  0.4352
  203SOL     OW  809   3.014   0.346   1.305 -0.0492 -0.0659 -0.2500
  203SOL    HW1  810   3.044   0.269   1.353  0.5056 -0.7230  4.2695
  203SOL    HW2  811   3.091   0.378   1.258  2.7704 -2.1972 -0.1052
  203SOL     MW  812   3.028   0.340   1.305  0.3961 -0.4338  0.3654
  204SOL     OW  813   1.008   1.806   0.662 -0.4974  0.3692  0.1155
  204SOL    HW1  814   0.988   1.745   0.736 -1.0339 -0.9641  0.4961
  204SOL    HW2  815   0.929   1.804   0.613 -0.9739  2.7619  3.0142
  204SOL     MW  816   0.995   1.797   0.665 -0.6310  0.5089  0.5482
  205SOL     OW  817   1.401   3.029   1.313  0.4364  0.0066 -0.0543
  205SOL    HW1  818   1.450   3.055   1.232  0.2093  1.5536 -0.7312
  205SOL    HW2  819   1.351   3.106   1.341  0.5811 -1.0859  2.0848
  205SOL     MW  820   1.401   3.043   1.306  0.4256  0.0666  0.1386
  206SOL     OW  821   0.392   2.944   1.342 -0.2735 -0.4307 -0.2993
  206SOL    HW1  822   0.386   2.992   1.259  1.6801 -1.1164 -0.8377
  206SOL    HW2  823   0.487   2.938   1.359  0.9060 -1.2705  1.2841
  206SOL     MW  824   0.404   2.950   1.333  0.1399 -0.6320 -0.1614
  207SOL     OW  825   0.870   1.764   0.210  0.2133 -0.6700  0.5913
  207SOL    HW1  826   0.909   1.842   0.171  0.5462 -2.5210  0.2107
  207SOL    HW2  827   0.939   1.704   0.193 -0.6015  1.7207  0.6672
  207SOL     MW  828   0.884   1.767   0.202  0.1497 -0.5988  0.5511
  208SOL     OW  829   0.787   1.560   1.354  0.3287 -0.0676 -1.1472
  208SOL    HW1  830   0.882   1.580   1.359 -1.3476 -2.4492  2.1691
  208SOL    HW2  831   0.761   1.549   1.265  0.3071 -1.4233 -2.7541
  208SOL     MW  832   0.796   1.561   1.343  0.1047 -0.5607 -0.9217
  209SOL     OW  833   1.569   0.507   2.842  1.0827 -0.4227 -0.2860
  209SOL    HW1  834   1.631   0.574   2.870  1.1422  0.6959  1.5064
  209SOL    HW2  835   1.630   0.434   2.816  1.2392  0.4350 -0.3793
  209SOL     MW  836   1.585   0.506   2.842  1.1112 -0.1620 -0.0618
  210SOL     OW  837   1.464   1.462   0.955  0.0416  0.0712  0.1742
  210SOL    HW1  838   1.561   1.454   0.940  1.2976 -3.6669 -3.4403
  210SOL    HW2  839   1.429   1.462   0.864  1.0189  2.2870 -1.0233
  210SOL     MW  840   1.472   1.461   0.941  0.3362 -0.1297 -0.4607
  211SOL     OW  841   1.722   0.382   0.927  0.1002  0.9356 -0.6309
  211SOL    HW1  842   1.747   0.403   0.832  2.3539 -1.0301  0.3019
  211SOL    HW2  843   1.808   0.382   0.962 -1.6632  0.8470 -2.6487
  211SOL     MW  844   1.737   0.385   0.919  0.1649  0.6646 -0.7741
  212SOL     OW  845   0.350   1.144   0.229  0.4601 -0.0355  0.0132
  212SOL    HW1  846   0.271   1.092   0.255  2.6835 -2.7229 -0.4080
  212SOL    HW2  847   0.398   1.104   0.152  0.7130 -1.0626  0.5465
  212SOL     MW  848   0.346   1.132   0.222  0.7869 -0.5256  0.0280
  213SOL     OW  849   0.367   1.868   3.015 -0.0258 -0.3138 -0.3334
  213SOL    HW1  850   0.414   1.910   3.081 -0.4471 -0.4323 -0.5135
  213SOL    HW2  851   0.421   1.894   2.932  0.6515  3.5805 -1.5804
  213SOL     MW  852   0.380   1.877   3.013  0.0079  0.1844 -0.5217
  214SOL     OW  853   0.588   0.313   2.120  0.1694  0.7811 -0.1354
  214SOL    HW1  854   0.526   0.378   2.119  2.0338  0.0778 -0.9878
  214SOL    HW2  855   0.602   0.312   2.024 -3.5927  1.2467  0.5964
  214SOL     MW  856   0.581   0.321   2.107 -0.0810  0.7497 -0.1513
  215SOL     OW  857   0.494   0.540   2.533 -0.3021 -0.5119 -0.4006
  215SOL    HW1  858   0.478   0.610   2.472 -0.9644  2.4030 -0.7141
  215SOL    HW2  859   0.488   0.455   2.495  1.8305  1.0010 -1.1835
  215SOL     MW  860   0.491   0.538   2.520 -0.1081  0.0723 -0.5453
  216SOL     OW  861   2.912   3.081   2.726 -0.4650 -0.2556  0.5668
  216SOL    HW1  862   2.857   3.067   2.805 -1.9489 -1.8609 -1.0149
  216SOL    HW2  863   2.919   3.185   2.722  0.5764  2.1747 -0.1736
  216SOL     MW  864   2.906   3.093   2.736 -0.5234 -0.1468  0.2604
  217SOL     OW  865   1.009   1.080   0.160  0.3281  0.0378 -0.2032
  217SOL    HW1  866   1.029   1.009   0.102 -1.4775  1.4529  0.3603
  217SOL    HW2  867   1.034   1.170   0.120 -1.1169  0.2639 -1.5190
  217SOL     MW  868   1.015   1.083   0.147 -0.1008  0.2543 -0.3025
  218SOL     OW  869   0.849   1.366   2.639  0.2835 -1.0998 -0.0701
  218SOL    HW1  870   0.822   1.320   2.722 -0.7904  0.8094 -0.1969
  218SOL    HW2  871   0.937   1.395   2.669 -0.9507 -0.2090  0.5296
  218SOL     MW  872   0.857   1.363   2.654 -0.0210 -0.7304 -0.0077
  219SOL     OW  873   1.043   0.418   2.613  0.0649  0.7576 -0.1940
  219SOL    HW1  874   1.116   0.475   2.635 -0.4401  1.7103 -1.4514
  219SOL    HW2  875   0.966   0.476   2.621  0.7069 -1.5460 -0.3066
  219SOL     MW  876   1.043   0.433   2.617  0.0830  0.5793 -0.3748
  220SOL     OW  877   1.730   0.525   2.172 -0.5117 -0.9467  0.1031
  220SOL    HW1  878   1.645   0.551   2.128  0.5077 -0.7008 -1.5153
  220SOL    HW2  879   1.779   0.456   2.128  0.1549 -0.4880  0.3327
  220SOL     MW  880   1.726   0.519   2.161 -0.2892 -0.8537 -0.0801
  221SOL     OW  881   0.374   1.353   2.933  0.2667  0.7953  0.3481
  221SOL    HW1  882   0.428   1.283   2.900 -2.3550  1.5740 -0.6935
  221SOL    HW2  883   0.408   1.424   2.885  2.8741 -2.7066 -0.2175
  221SOL     MW  884   0.386   1.353   2.922  0.2648  0.4360  0.1361
  222SOL     OW  885   0.504   0.949   2.705  0.2269 -0.2769  0.3132
  222SOL    HW1  886   0.409   0.942   2.704 -0.7543 -0.9980  3.6933
  222SOL    HW2  887   0.527   0.863   2.729 -1.2990  0.9863 -1.4303
  222SOL     MW  888   0.494   0.936   2.708 -0.1039 -0.2054  0.5291
  223SOL     OW  889  -0.001   2.032   2.521 -0.0567 -0.3372  0.2604
  223SOL    HW1  890  -0.018   2.052   2.613 -5.3366  0.6897 -2.1582
  223SOL    HW2  891   0.049   2.110   2.485 -0.2428  0.3786 -1.0169
  223SOL     MW  892   0.004   2.045   2.528 -0.7779 -0.1073 -0.2272
  224SOL     OW  893   1.447   0.702   2.451 -0.0139 -0.4216 -0.4185
  224SOL    HW1  894   1.543   0.675   2.453  1.1335  0.9893 -1.3917
  224SOL    HW2  895   1.428   0.787   2.482 -0.1100 -1.0923  0.8207
  224SOL     MW  896   1.457   0.709   2.456  0.1248 -0.3239 -0.3834
  225SOL     OW  897   2.930   1.468   2.303  0.6476  0.0028 -0.6943
  225SOL    HW1  898   2.961   1.550   2.268 -1.3409  0.5279 -0.2555
  225SOL    HW2  899   2.841   1.491   2.337  2.1059  1.7798  0.0170
  225SOL     MW  900   2.923   1.482   2.303  0.5777  0.3065 -0.5425
  226SOL     OW  901   0.426   1.503   2.698  0.2553  0.8059 -0.4761
  226SOL    HW1  902   0.519   1.525   2.688  0.4014 -1.8370 -0.7924
  226SOL    HW2  903   0.378   1.590   2.694 -2.8945  2.1011 -2.3787
  226SOL     MW  904   0.432   1.517   2.696 -0.1410  0.6281 -0.7688
  227SOL     OW  905   0.549   1.132   2.912  0.5642 -0.4806 -0.3419
  227SOL    HW1  906   0.638   1.149   2.902 -2.2943 -0.7752 -0.9788
  227SOL    HW2  907   0.540   1.068   2.837  0.7500  0.1588  0.6621
  227SOL     MW  908   0.559   1.126   2.901  0.2116 -0.4351 -0.2935
  228SOL     OW  909   0.734   1.144   2.039 -0.1521  0.2659 -0.2358
  228SOL    HW1  910   0.721   1.195   1.960 -0.2731 -1.2189  1.6511
  228SOL    HW2  911   0.821   1.159   2.078 -1.2018 -0.0666  1.8831
  228SOL     MW  912   0.743   1.153   2.034 -0.3066  0.0261  0.2927
  229SOL     OW  913   0.245   0.547   3.092 -0.6508  0.2554 -0.0184
  229SOL    HW1  914   0.156   0.557   3.061  2.0583  0.0833  3.5004
  229SOL    HW2  915   0.251   0.470   3.157  0.1428 -0.7794  1.7806
  229SOL     MW  916   0.234   0.538   3.097 -0.1886  0.0962  0.6832
  230SOL     OW  917   1.783   1.354   2.028 -0.3000 -0.0829  0.3216
  230SOL    HW1  918   1.759   1.307   2.104  1.1542  1.0630 -1.4377
  230SOL    HW2  919   1.791   1.285   1.968 -4.5325 -0.5716  1.0409
  230SOL     MW  920   1.781   1.339   2.030 -0.6666  0.0038  0.1843
  231SOL     OW  921   2.706   1.230   2.260  0.5189  0.2589 -0.5219
  231SOL    HW1  922   2.767   1.301   2.248 -0.9495 -0.1606  1.5391
  231SOL    HW2  923   2.663   1.217   2.178 -3.4597 -1.1791 -0.7046
  231SOL     MW  924   2.709   1.237   2.247 -0.1998  0.0138 -0.2741
  232SOL     OW  925   2.290   0.862   1.929 -0.2139  0.5555 -0.2271
  232SOL    HW1  926   2.212   0.891   1.875  2.5997  1.9134 -0.5509
  232SOL    HW2  927   2.253   0.860   2.015  0.5748 -0.6151  1.3258
  232SOL     MW  928   2.275   0.866   1.933  0.2614  0.5803 -0.0650
  233SOL     OW  929   2.111   0.422   2.086  0.3668  0.0481 -0.2788
  233SOL    HW1  930   2.173   0.367   2.044  2.2145 -0.6447  0.7494
  233SOL    HW2  931   2.151   0.468   2.165  0.7598  2.2654  2.9905
  233SOL     MW  932   2.124   0.421   2.091  0.6624  0.2492  0.2882
  234SOL     OW  933   0.226   1.055   2.651  0.3721  0.6756 -0.1372
  234SOL    HW1  934   0.147   1.038   2.596 -1.8187 -2.7750  0.5101
  234SOL    HW2  935   0.262   1.141   2.614  0.7880  0.4424 -0.2353
  234SOL     MW  936   0.221   1.064   2.639  0.1379  0.1895 -0.0647
  235SOL     OW  937   1.148   3.026   2.814  0.4962  0.7720 -0.2391
  235SOL    HW1  938   1.203   3.003   2.888  0.4508 -1.7210 -0.8601
  235SOL    HW2  939   1.091   3.103   2.835  0.1910 -1.2356 -0.3532
  235SOL     MW  940   1.148   3.033   2.827  0.4499  0.1782 -0.3361
  236SOL     OW  941   2.947   0.622   0.218 -0.1680  0.0159 -0.1548
  236SOL    HW1  942   2.984   0.645   0.300  1.6218 -0.7503 -0.8795
  236SOL    HW2  943   3.004   0.674   0.166 -1.3776  0.3841 -0.8880
  236SOL     MW  944   2.959   0.632   0.222 -0.0915 -0.0366 -0.3471
  237SOL     OW  945   1.917   1.104   2.170  0.1091  0.5066  0.0607
  237SOL    HW1  946   1.840   1.147   2.213  0.9491  1.4907  3.8395
  237SOL    HW2  947   1.874   1.058   2.091 -3.0167 -0.0818  0.1436
  237SOL     MW  948   1.901   1.104   2.165 -0.1925  0.5588  0.5702
  238SOL     OW  949   1.068   1.732   2.936 -0.3874 -0.1269 -0.1671
  238SOL    HW1  950   0.997   1.668   2.910 -0.5578 -2.9043  0.7849
  238SOL    HW2  951   1.156   1.707   2.909 -0.6704  3.0497 -0.9286
  238SOL     MW  952   1.070   1.720   2.929 -0.4472 -0.0742 -0.1420
  239SOL     OW  953   1.186   1.292   2.336  0.1479  0.0314  0.7928
  239SOL    HW1  954   1.108   1.309   2.282  1.1766  1.0397 -1.7850
  239SOL    HW2  955   1.158   1.232   2.409  1.4920  2.1054 -0.3341
  239SOL     MW  956   1.172   1.286   2.338  0.4610  0.4381  0.3040
  240SOL     OW  957   0.574   0.866   2.253 -0.4858 -0.3002  0.6065
  240SOL    HW1  958   0.582   0.907   2.349  0.3729  0.6231  4.7731
  240SOL    HW2  959   0.659   0.829   2.241 -1.5043  0.4111 -0.7177
  240SOL     MW  960   0.586   0.867   2.264 -0.5069 -0.0845  0.9815
  241SOL     OW  961   0.672   0.444   3.074  0.2339  0.0258  0.4403
  241SOL    HW1  962   0.704   0.519   3.123  0.1687 -1.0011 -0.5821
  241SOL    HW2  963   0.587   0.462   3.024 -0.9523 -1.0678  1.7657
  241SOL     MW  964   0.665   0.456   3.074  0.0688 -0.2540  0.4802
  242SOL     OW  965   1.505   1.667   2.308 -0.3037 -0.2884 -0.2660
  242SOL    HW1  966   1.433   1.734   2.317 -4.1420  2.0114 -1.6125
  242SOL    HW2  967   1.464   1.594   2.258  0.8633  0.3375 -0.7663
  242SOL     MW  968   1.490   1.666   2.302 -0.6562  0.0976 -0.5097
  243SOL     OW  969   1.039   0.318   2.363  0.1153  0.1277 -0.1945
  243SOL    HW1  970   1.126   0.274   2.355 -0.8041  0.4518  2.9621
  243SOL    HW2  971   1.051   0.361   2.446  0.7581 -1.1357  0.9428
  243SOL     MW  972   1.052   0.318   2.373  0.0788  0.0038  0.3720
  244SOL     OW  973   0.135   0.741   2.374  0.0844  0.0356 -0.2156
  244SOL    HW1  974   0.108   0.835   2.375  0.6250 -0.5921  2.7794
  244SOL    HW2  975   0.226   0.731   2.353 -0.1558 -0.3982  0.9819
  244SOL     MW  976   0.144   0.752   2.371  0.1241 -0.1045  0.3376
  245SOL     OW  977   1.260   0.192   2.402 -0.9519  0.7499 -0.2589
  245SOL    HW1  978   1.324   0.144   2.341  2.3396  2.2453 -1.7590
  245SOL    HW2  979   1.264   0.131   2.483 -0.2840 -1.6192 -0.5621
  245SOL     MW  980   1.269   0.178   2.405 -0.4295  0.6346 -0.4969
  246SOL     OW  981   1.229   1.111   2.084 -0.3450  0.2731 -0.7210
  246SOL    HW1  982   1.151   1.091   2.142 -3.6430  2.4499  0.0188
  246SOL    HW2  983   1.301   1.096   2.149  0.1905 -1.2356  1.2294
  246SOL     MW  984   1.228   1.107   2.100 -0.7095  0.3613 -0.3661
  247SOL     OW  985   0.754   0.650   0.140 -0.0532 -0.0693  0.3828
  247SOL    HW1  986   0.725   0.744   0.147 -2.6721  0.3324  0.5243
  247SOL    HW2  987   0.852   0.659   0.123 -1.2246  2.2699  0.4917
  247SOL     MW  988   0.763   0.663   0.139 -0.5533  0.2923  0.4159
  248SOL     OW  989   0.288   1.300   2.548  0.0116  0.3671  0.5113
  248SOL    HW1  990   0.315   1.330   2.456  1.2296  0.8661  2.1710
  248SOL    HW2  991   0.346   1.345   2.605 -2.2998  1.9289 -1.4612
  248SOL     MW  992   0.299   1.310   2.543 -0.1327  0.6390  0.4700
  249SOL     OW  993   2.971   1.944   2.783  0.2971  0.5386  0.1754
  249SOL    HW1  994   2.899   1.886   2.757  1.0958  0.1053 -0.4195
  249SOL    HW2  995   3.029   1.892   2.837 -0.4292 -0.8083 -1.1787
  249SOL     MW  996   2.969   1.929   2.786  0.3066  0.3037 -0.0818
  250SOL     OW  997   2.226   0.813   2.192  0.5343 -0.0432 -0.4206
  250SOL    HW1  998   2.196   0.729   2.235 -2.9921 -4.0755  2.9321
  250SOL    HW2  999   2.139   0.852   2.181 -2.1489  0.4931  1.7811
  250SOL     MW 1000   2.210   0.807   2.196 -0.2850 -0.5045  0.3123
  251SOL     OW 1001   0.129   0.881   2.056  0.1581  0.2590 -0.2671
  251SOL    HW1 1002   0.079   0.802   2.092 -0.5604 -1.4708  1.1746
  251SOL    HW2 1003   0.124   0.870   1.963 -1.0504  2.2480  1.2892
  251SOL     MW 1004   0.122   0.869   2.049 -0.0961  0.2932  0.1284
  252SOL     OW 1005   1.689   0.973   2.856  0.4007  0.1102  0.2367
  252SOL    HW1 1006   1.710   1.021   2.938  0.0644  2.3386 -1.0327
  252SOL    HW2 1007   1.769   0.987   2.794  1.4636  3.5820  0.6561
  252SOL     MW 1008   1.702   0.981   2.859  0.4966  0.8623  0.1246
  253SOL     OW 1009   1.173   1.724   2.476 -0.3888  0.2462  0.3806
  253SOL    HW1 1010   1.154   1.674   2.395 -2.0407 -2.4703  1.3225
  253SOL    HW2 1011   1.089   1.767   2.511  2.4034 -3.9000  3.6318
  253SOL     MW 1012   1.160   1.723   2.470 -0.2383 -0.6593  0.9339
  254SOL     OW 1013   0.959   1.138   2.225  0.2769 -0.0238 -0.2487
  254SOL    HW1 1014   0.939   1.043   2.206 -0.6903  0.0970 -1.5509
  254SOL    HW2 1015   0.897   1.172   2.296  0.2237  3.7578  0.6962
  254SOL     MW 1016   0.949   1.130   2.232  0.1423  0.4911 -0.2959
  255SOL     OW 1017   0.842   2.571   2.122  0.0275 -0.1283  0.4346
  255SOL    HW1 1018   0.775   2.507   2.110  2.9379  0.5473  0.2919
  255SOL    HW2 1019   0.909   2.504   2.127 -4.8700  1.8880  0.7783
  255SOL     MW 1020   0.842   2.554   2.121 -0.2347  0.2269  0.4611
  256SOL     OW 1021   1.261   2.763   2.995  0.9261  0.0947  0.1505
  256SOL    HW1 1022   1.240   2.674   3.023  0.0122  0.8105 -1.5463
  256SOL    HW2 1023   1.344   2.760   2.938  3.2290 -0.2124  1.2474
  256SOL     MW 1024   1.269   2.751   2.991  1.1094  0.1487  0.0714
  257SOL     OW 1025   0.032   1.875   0.118  0.4225  0.0210 -0.0814
  257SOL    HW1 1026   0.117   1.906   0.130 -0.4253 -0.9965 -0.0714
  257SOL    HW2 1027   0.041   1.850   0.023  2.4506 -1.1664 -0.2613
  257SOL     MW 1028   0.044   1.876   0.107  0.5783 -0.2699 -0.1038
  258SOL     OW 1029   0.670   1.001   2.480  0.2425 -0.0399  0.3020
  258SOL    HW1 1030   0.660   1.083   2.443  2.0455 -1.4117  1.5450
  258SOL    HW2 1031   0.614   1.003   2.556  1.1648  0.3329  1.0489
  258SOL     MW 1032   0.661   1.012   2.485  0.6021 -0.1717  0.5645
  259SOL     OW 1033   0.841   0.476   2.245 -0.0297 -0.7927 -0.6169
  259SOL    HW1 1034   0.766   0.414   2.248 -1.9578 -1.7090  1.4872
  259SOL    HW2 1035   0.919   0.423   2.256  0.5901  0.7084  1.0693
  259SOL     MW 1036   0.841   0.461   2.247 -0.2023 -0.7156 -0.1168
  260SOL     OW 1037   0.649   0.149   1.591 -0.3420  0.4438  0.2659
  260SOL    HW1 1038   0.594   0.203   1.542 -0.0259 -0.4684 -0.7247
  260SOL    HW2 1039   0.721   0.135   1.532  0.8994  0.5597  1.4432
  260SOL     MW 1040   0.651   0.154   1.577 -0.1365  0.3388  0.2906
  261SOL     OW 1041   1.047   0.723   1.984  0.2735  0.6724 -0.1491
  261SOL    HW1 1042   1.091   0.693   2.061 -1.4971  0.4251 -2.8101
  261SOL    HW2 1043   1.010   0.643   1.948  0.1198 -0.8307 -0.4158
  261SOL     MW 1044   1.048   0.708   1.989  0.0196  0.4415 -0.5353
  262SOL     OW 1045   1.143   0.377   0.104  0.1662 -0.8863  0.1447
  262SOL    HW1 1046   1.243   0.371   0.107  1.2971 -2.5699  0.6373
  262SOL    HW2 1047   1.112   0.299   0.054 -2.6509  1.2486 -1.3964
  262SOL     MW 1048   1.152   0.366   0.098 -0.0563 -0.8267  0.0064
  263SOL     OW 1049   0.388   0.024   2.546  0.3150  0.2103 -0.1002
  263SOL    HW1 1050   0.303   0.059   2.544  2.3231 -1.6460 -0.3180
  263SOL    HW2 1051   0.424   0.062   2.466 -0.8107  1.0214  2.3975
  263SOL     MW 1052   0.382   0.034   2.535  0.4314  0.0724  0.2006
  264SOL     OW 1053   1.532   1.474   1.911  0.5944  0.7991 -0.6833
  264SOL    HW1 1054   1.517   1.378   1.905 -0.3843  1.1971 -0.5407
  264SOL    HW2 1055   1.563   1.483   1.997 -3.9704 -0.8201 -0.3976
  264SOL     MW 1056   1.534   1.462   1.922 -0.1370  0.6380 -0.6268
  265SOL     OW 1057   0.720   2.834   2.283  0.0163 -0.0629  0.1697
  265SOL    HW1 1058   0.810   2.838   2.244 -0.2840  3.0070  2.9350
  265SOL    HW2 1059   0.734   2.810   2.377  0.8505 -0.9303  0.3507
  265SOL     MW 1060   0.734   2.831   2.290  0.0867  0.2277  0.5585
  266SOL     OW 1061   0.827   0.883   2.157 -0.1533  0.1115 -0.0079
  266SOL    HW1 1062   0.790   0.934   2.085 -2.2706 -0.3090  0.4596
  266SOL    HW2 1063   0.880   0.812   2.124  2.8664 -3.8633 -1.2397
  266SOL     MW 1064   0.829   0.880   2.143 -0.0343 -0.4684 -0.1087
  267SOL     OW 1065   1.374   1.677   2.667  0.1481  0.3357 -0.1922
  267SOL    HW1 1066   1.439   1.631   2.613  0.5691 -4.0851 -1.2114
  267SOL    HW2 1067   1.294   1.680   2.616  1.6897  0.6931  1.5154
  267SOL     MW 1068   1.372   1.672   2.653  0.4071 -0.2004 -0.1013
  268SOL     OW 1069   0.124   0.901   1.773 -0.3707  0.0765  0.6257
  268SOL    HW1 1070   0.106   0.989   1.729 -0.8450  0.3285 -2.1264
  268SOL    HW2 1071   0.091   0.832   1.715 -1.0078  1.1376 -2.3831
  268SOL     MW 1072   0.118   0.904   1.760 -0.5174  0.2498 -0.1344
  269SOL     OW 1073   1.314   1.896   2.292  0.3554 -0.1959  0.1301
  269SOL    HW1 1074   1.357   1.974   2.323  3.0228 -1.9895 -0.1984
  269SOL    HW2 1075   1.252   1.861   2.358  1.1993  1.2496  0.3232
  269SOL     MW 1076   1.311   1.901   2.304  0.8187 -0.2418  0.1123
  270SOL     OW 1077   1.093   0.366   1.536 -0.2685 -0.2238 -0.4420
  270SOL    HW1 1078   1.076   0.301   1.605 -1.9734 -0.7759 -0.1905
  270SOL    HW2 1079   1.190   0.379   1.538 -1.8111 -0.1214  0.3789
  270SOL     MW 1080   1.104   0.359   1.546 -0.6970 -0.2831 -0.3005
  271SOL     OW 1081   0.905   0.124   2.483  0.2149 -0.3910 -0.1979
  271SOL    HW1 1082   0.976   0.075   2.524 -0.8460 -2.3614  1.3620
  271SOL    HW2 1083   0.948   0.209   2.452 -1.2454 -1.8727  0.9064
  271SOL     MW 1084   0.920   0.129   2.484 -0.1177 -0.8464  0.1536
  272SOL     OW 1085   1.478   2.789   2.820 -0.1554  0.4137  0.1646
  272SOL    HW1 1086   1.425   2.799   2.743  0.6431 -0.2362  1.4253
  272SOL    HW2 1087   1.515   2.879   2.832 -1.2060 -1.0102 -1.6155
  272SOL     MW 1088   1.476   2.802   2.812 -0.1887  0.1401  0.0961
  273SOL     OW 1089   1.432   0.819   2.793  0.3287  0.1086  0.8826
  273SOL    HW1 1090   1.525   0.787   2.792  0.4326  0.8533 -0.6113
  273SOL    HW2 1091   1.445   0.907   2.814  0.3391 -0.5362 -0.9721
  273SOL     MW 1092   1.446   0.826   2.796  0.3438  0.1218  0.4408
  274SOL     OW 1093   1.441   0.645   0.133 -0.2820 -0.4317 -0.2060
  274SOL    HW1 1094   1.505   0.597   0.186 -0.2729 -0.1013 -0.3521
  274SOL    HW2 1095   1.375   0.676   0.199  1.8622 -0.4790  1.4044
  274SOL     MW 1096   1.441   0.643   0.149  0.0021 -0.3944 -0.0128
  275SOL     OW 1097   1.818   0.532   1.742  0.3472 -0.4233 -0.0357
  275SOL    HW1 1098   1.871   0.569   1.819  0.2476  1.6922  1.0294
  275SOL    HW2 1099   1.808   0.435   1.755  0.2524 -1.8829  1.1865
  275SOL     MW 1100   1.824   0.524   1.754  0.3216 -0.3368  0.2661
  276SOL     OW 1101   0.424   1.203   1.936 -0.2440  0.2488 -0.0830
  276SOL    HW1 1102   0.415   1.104   1.948  1.0337 -2.0257  1.6377
  276SOL    HW2 1103   0.364   1.247   2.004 -0.1617  1.4972  2.6096
  276SOL     MW 1104   0.415   1.196   1.947 -0.0646  0.1134  0.4992
  277SOL     OW 1105   1.964   1.128   2.438  0.2032  0.2091  0.1742
  277SOL    HW1 1106   2.014   1.191   2.491 -0.5045  0.5860  2.0407
  277SOL    HW2 1107   1.971   1.163   2.352  3.2711  1.1910  0.3050
  277SOL     MW 1108   1.971   1.141   2.433  0.5146  0.3884  0.4378
  278SOL     OW 1109   1.396   0.621   1.689 -0.4187 -0.3175 -0.2713
  278SOL    HW1 1110   1.407   0.587   1.774  1.6868 -0.7630 -1.2016
  278SOL    HW2 1111   1.486   0.636   1.676 -0.9452  0.6289 -1.1645
  278SOL     MW 1112   1.409   0.619   1.698 -0.2104 -0.2514 -0.5119
  279SOL     OW 1113   0.512   0.103   2.265 -0.2454  0.1531 -0.4023
  279SOL    HW1 1114   0.591   0.056   2.301  1.0549 -0.3411 -0.3946
  279SOL    HW2 1115   0.541   0.188   2.231  0.6602 -0.2819  0.9371
  279SOL     MW 1116   0.526   0.108   2.265  0.0457  0.0305 -0.2246
  280SOL     OW 1117   1.460   1.065   2.226  0.0649 -0.5081  0.1819
  280SOL    HW1 1118   1.490   0.985   2.190 -1.7412  0.4132  0.4581
  280SOL    HW2 1119   1.455   1.045   2.321 -0.7075  0.4062  0.4303
  280SOL     MW 1120   1.463   1.052   2.233 -0.2753 -0.2659  0.2511
  281SOL     OW 1121   1.313   1.148   2.734 -0.5833 -0.2977 -0.1512
  281SOL    HW1 1122   1.381   1.215   2.721 -1.6901  0.1888  0.4006
  281SOL    HW2 1123   1.310   1.124   2.827 -1.5030 -3.2735  0.6191
  281SOL     MW 1124   1.321   1.153   2.744 -0.8507 -0.6261  0.0232
  282SOL     OW 1125   1.184   1.256   1.601  0.4182  0.1643  0.3898
  282SOL    HW1 1126   1.183   1.342   1.572 -3.3209 -0.2004  0.2004
  282SOL    HW2 1127   1.095   1.238   1.645 -3.1331 -1.5802  0.3295
  282SOL     MW 1128   1.172   1.265   1.603 -0.5437 -0.1140  0.3569
  283SOL     OW 1129   0.811   1.390   3.098 -0.1281 -0.2545 -0.0308
  283SOL    HW1 1130   0.907   1.376   3.101  0.7735  1.6344  1.3247
  283SOL    HW2 1131   0.791   1.481   3.096  2.4474 -0.0567  0.0612
  283SOL     MW 1132   0.821   1.400   3.098  0.3307  0.0208  0.1601
  284SOL     OW 1133   0.384   0.695   2.307  0.0871 -0.4852 -0.1135
  284SOL    HW1 1134   0.455   0.766   2.282  0.7840  1.4312  2.2365
  284SOL    HW2 1135   0.383   0.616   2.243 -2.0514 -0.7386 -3.8760
  284SOL     MW 1136   0.393   0.694   2.295 -0.1031 -0.2657 -0.2998
  285SOL     OW 1137   0.882   0.819   2.864 -0.2162 -0.0335 -0.4637
  285SOL    HW1 1138   0.884   0.864   2.780  1.7656  0.5587 -0.7387
  285SOL    HW2 1139   0.791   0.801   2.863 -2.0340  0.2263 -1.6484
  285SOL     MW 1140   0.870   0.823   2.853 -0.1945  0.0789 -0.6563
  286SOL     OW 1141   1.106   1.470   2.658 -0.2339  0.6378  0.7028
  286SOL    HW1 1142   1.160   1.403   2.610 -1.2301 -2.3713 -0.6128
  286SOL    HW2 1143   1.074   1.526   2.592  0.2195 -1.8200  1.4714
  286SOL     MW 1144   1.109   1.469   2.643 -0.3055 -0.0835  0.6306
  287SOL     OW 1145   1.161   0.972   0.358 -0.3578 -0.0594 -0.2867
  287SOL    HW1 1146   1.099   0.985   0.427 -2.6823  1.3672 -1.0913
  287SOL    HW2 1147   1.110   1.012   0.279 -2.2930 -0.2274  0.4865
  287SOL     MW 1148   1.146   0.979   0.356 -0.9199  0.1066 -0.2909
  288SOL     OW 1149   1.487   0.611   2.151  0.8691  0.1136  0.2657
  288SOL    HW1 1150   1.450   0.624   2.243 -0.0010  1.5397 -2.3299
  288SOL    HW2 1151   1.488   0.700   2.125  0.7456  0.4577  0.4076
  288SOL     MW 1152   1.482   0.624   2.160  0.7380  0.3472 -0.0580
  289SOL     OW 1153   0.894   0.950   2.610 -0.3662 -0.0816  0.2172
  289SOL    HW1 1154   0.959   0.909   2.558  0.9759  0.6466 -1.6097
  289SOL    HW2 1155   0.824   0.979   2.548  1.1083  0.4686  4.1716
  289SOL     MW 1156   0.893   0.949   2.595  0.0054  0.0870  0.4979
  290SOL     OW 1157   0.763   0.653   1.475  0.3293  0.1252  0.0045
  290SOL    HW1 1158   0.831   0.591   1.450  0.2731 -0.8950  2.7176
  290SOL    HW2 1159   0.763   0.654   1.572 -2.5528 -0.0682 -0.7819
  290SOL     MW 1160   0.772   0.645   1.485 -0.0583 -0.0350  0.2587
  291SOL     OW 1161   0.240   0.333   0.138 -0.0482 -0.1711  0.3984
  291SOL    HW1 1162   0.330   0.324   0.179 -0.0897 -0.3733  0.7755
  291SOL    HW2 1163   0.207   0.244   0.131 -0.3827 -1.1149  1.0484
  291SOL     MW 1164   0.248   0.320   0.143 -0.0978 -0.3223  0.5339
  292SOL     OW 1165   1.023   0.631   0.111 -0.1373  0.2354 -0.0290
  292SOL    HW1 1166   1.091   0.684   0.154  0.8529  0.3146  1.1365
  292SOL    HW2 1167   1.073   0.545   0.097 -2.2004 -0.4701 -2.3055
  292SOL     MW 1168   1.039   0.626   0.115 -0.2788  0.1527 -0.1756
  293SOL     OW 1169   0.106   0.070   2.582  0.3838 -0.3508  0.3075
  293SOL    HW1 1170   0.100   0.049   2.489 -0.1046  0.6829  2.5984
  293SOL    HW2 1171   0.017   0.105   2.608 -0.5297 -0.5735  0.5621
  293SOL     MW 1172   0.093   0.072   2.573  0.1988 -0.2438  0.6434
  294SOL     OW 1173   1.354   0.464   2.344 -0.0840  0.1794  0.2795
  294SOL    HW1 1174   1.387   0.521   2.413  2.2087 -1.2109  2.5992
  294SOL    HW2 1175   1.315   0.389   2.387  3.6059 -3.6442 -0.3938
  294SOL     MW 1176   1.353   0.462   2.359  0.7053 -0.5085  0.4967
  295SOL     OW 1177   0.840   0.601   2.540  0.1989 -0.2881 -0.4999
  295SOL    HW1 1178   0.792   0.581   2.456 -1.3556  0.2743 -0.9645
  295SOL    HW2 1179   0.767   0.638   2.594  1.8197 -2.8984  1.3460
  295SOL     MW 1180   0.824   0.604   2.536  0.2076 -0.5583 -0.3177
  296SOL     OW 1181   1.307   0.294   2.063  0.4082  0.3207  0.4083
  296SOL    HW1 1182   1.369   0.220   2.066  0.1733 -1.0538 -1.8757
  296SOL    HW2 1183   1.322   0.348   2.142  1.5441  0.4449 -0.9673
  296SOL     MW 1184   1.317   0.291   2.074  0.5271  0.1557 -0.0746
  297SOL     OW 1185   1.367   0.368   1.608  0.2068 -0.4288 -0.0316
  297SOL    HW1 1186   1.373   0.452   1.648  1.0053 -0.6489  0.1790
  297SOL    HW2 1187   1.367   0.296   1.671 -1.2698 -0.7879 -1.0760
  297SOL     MW 1188   1.368   0.369   1.621  0.1173 -0.5052 -0.1416
  298SOL     OW 1189   1.588   0.869   2.064  0.3338 -0.0759 -0.5757
  298SOL    HW1 1190   1.621   0.917   1.983  0.0995 -0.9779  0.2142
  298SOL    HW2 1191   1.670   0.829   2.096 -1.7658  0.9870 -1.4747
  298SOL     MW 1192   1.603   0.870   2.057  0.0259 -0.0546 -0.5901
  299SOL     OW 1193   0.598   1.194   0.101  0.5639  0.2141 -0.2724
  299SOL    HW1 1194   0.587   1.201   0.003 -1.4521  1.7154 -0.8736
  299SOL    HW2 1195   0.685   1.220   0.132 -0.7089 -1.0971  1.8270
  299SOL     MW 1196   0.608   1.198   0.092  0.1300  0.2392 -0.0748
  300SOL     OW 1197   1.103   1.147   2.549  0.3865 -0.3947  0.2238
  300SOL    HW1 1198   1.034   1.085   2.573 -0.0677 -0.5473  0.1413
  300SOL    HW2 1199   1.168   1.140   2.625  0.1318 -0.8843 -0.7333
  300SOL     MW 1200   1.103   1.138   2.563  0.2929 -0.4794  0.0866
  301SOL     OW 1201   1.471   1.073   0.736  0.2016  0.1001 -0.3293
  301SOL    HW1 1202   1.479   1.092   0.829 -0.7363 -0.9800  0.1674
  301SOL    HW2 1203   1.409   0.993   0.736  1.0180 -2.0711 -0.0072
  301SOL     MW 1204   1.464   1.065   0.748  0.1855 -0.3289 -0.2213
  302SOL     OW 1205   0.169   1.593   2.035  0.0937 -0.4491  0.2260
  302SOL    HW1 1206   0.171   1.502   2.054  3.0568  1.9945 -1.7838
  302SOL    HW2 1207   0.080   1.630   2.035  0.2477  0.7248 -0.1121
  302SOL     MW 1208   0.158   1.586   2.037  0.5050  0.0282 -0.0838
  303SOL     OW 1209   0.322   1.776   2.681 -0.1028  0.0246  0.9892
  303SOL    HW1 1210   0.287   1.813   2.600  1.2069  0.2901 -1.7883
  303SOL    HW2 1211   0.245   1.757   2.728  0.9055 -1.9452  0.3774
  303SOL     MW 1212   0.307   1.778   2.676  0.2031 -0.2003  0.5420
  304SOL     OW 1213   0.505   2.054   2.484  0.1341 -0.1425  0.1413
  304SOL    HW1 1214   0.562   2.115   2.429 -0.9917  2.0404 -5.0364
  304SOL    HW2 1215   0.567   1.983   2.495  1.3731  1.7652  0.6995
  304SOL     MW 1216   0.521   2.053   2.478  0.1491  0.3972 -0.4682
  305SOL     OW 1217   1.144   0.656   0.546  0.4396  0.1571  0.1975
  305SOL    HW1 1218   1.050   0.645   0.539 -1.2144 -2.7172 -1.8806
  305SOL    HW2 1219   1.178   0.567   0.564 -0.3173 -2.9682  1.4991
  305SOL     MW 1220   1.136   0.642   0.548  0.1215 -0.6345  0.0950
  306SOL     OW 1221   1.090   1.526   0.302 -0.1313  0.1316  0.5077
  306SOL    HW1 1222   1.142   1.442   0.320 -1.5438 -0.3132 -2.5415
  306SOL    HW2 1223   1.142   1.554   0.225  0.3098 -0.9292  0.6730
  306SOL     MW 1224   1.104   1.518   0.294 -0.2595 -0.0670  0.1272
  307SOL     OW 1225   1.427   0.485   1.923  0.6050  0.2323  0.0577
  307SOL    HW1 1226   1.370   0.411   1.946  0.6926  0.3122 -0.8207
  307SOL    HW2 1227   1.441   0.528   2.009 -2.2230  1.0483  0.5345
  307SOL     MW 1228   1.421   0.481   1.938  0.2435  0.3505  0.0047
  308SOL     OW 1229   2.213   0.513   2.712  0.3826  0.4333  0.5694
  308SOL    HW1 1230   2.296   0.538   2.751 -0.9580 -0.9515  1.3292
  308SOL    HW2 1231   2.160   0.594   2.724  4.6563  0.9532  1.0090
  308SOL     MW 1232   2.217   0.527   2.719  0.7696  0.3192  0.7277
  309SOL     OW 1233   0.511   0.568   0.242  0.2628 -0.0184 -0.1657
  309SOL    HW1 1234   0.602   0.590   0.221 -0.4742 -2.9208 -1.6998
  309SOL    HW2 1235   0.514   0.479   0.214 -0.8538  1.5547  1.7793
  309SOL     MW 1236   0.523   0.559   0.236  0.0182 -0.1938 -0.1114
  310SOL     OW 1237   0.409   0.562   1.883 -0.3974 -1.0481 -0.0619
  310SOL    HW1 1238   0.460   0.499   1.827 -1.5108 -0.5745 -2.2646
  310SOL    HW2 1239   0.444   0.648   1.856 -0.6593  2.1043 -0.5366
  310SOL     MW 1240   0.420   0.565   1.872 -0.5789 -0.5697 -0.4151
  311SOL     OW 1241   1.966   0.636   1.955 -0.1071  0.4326  0.1299
  311SOL    HW1 1242   1.936   0.682   2.032  0.7659 -0.6632 -1.9215
  311SOL    HW2 1243   2.015   0.553   1.984 -1.2915 -2.1016  0.1385
  311SOL     MW 1244   1.969   0.631   1.969 -0.1481 -0.0464 -0.1396
  312SOL     OW 1245   1.724   2.445   0.120 -0.3804  0.2999  0.5676
  312SOL    HW1 1246   1.722   2.394   0.202  0.3857  1.9304  0.9495
  312SOL    HW2 1247   1.685   2.533   0.135  0.1419 -0.4246  1.8508
  312SOL     MW 1248   1.719   2.450   0.133 -0.2104  0.4194  0.7873
  313SOL     OW 1249   0.137   1.123   3.035 -0.0201  0.0022  0.1056
  313SOL    HW1 1250   0.104   1.169   3.118  0.6663  1.3676 -0.0573
  313SOL    HW2 1251   0.146   1.184   2.967 -0.7242 -1.2598  0.5802
  313SOL     MW 1252   0.134   1.137   3.037 -0.0224  0.0159  0.1468
  314SOL     OW 1253   2.167   2.959   0.035  0.3871  0.0421  0.4600
  314SOL    HW1 1254   2.118   2.947  -0.053  1.2960 -1.9848  1.3153
  314SOL    HW2 1255   2.234   3.039   0.013  6.1243  1.8294 -0.5892
  314SOL     MW 1256   2.169   2.968   0.021  1.2640  0.0105  0.4344
  315SOL     OW 1257   1.538   1.846   2.971 -0.0302  0.1923  0.5728
  315SOL    HW1 1258   1.485   1.883   3.039 -1.3686  0.0581 -2.7457
  315SOL    HW2 1259   1.586   1.916   2.920 -0.1059 -0.4161  0.8263
  315SOL     MW 1260   1.538   1.860   2.973 -0.2167  0.0943  0.1684
  316SOL     OW 1261   1.206   0.645   2.708  0.1277  0.0418 -0.1867
  316SOL    HW1 1262   1.272   0.700   2.750 -0.9076 -1.6237 -1.1489
  316SOL    HW2 1263   1.139   0.625   2.785 -0.0910  1.0651  0.7880
  316SOL     MW 1264   1.206   0.649   2.724 -0.0378 -0.0429 -0.1850
  317SOL     OW 1265   0.691   1.579   2.641 -0.0436  0.8620  0.2379
  317SOL    HW1 1266   0.751   1.512   2.654  1.2700  1.3897  0.1627
  317SOL    HW2 1267   0.699   1.595   2.543 -2.9506 -2.8327  1.0645
  317SOL     MW 1268   0.700   1.573   2.630 -0.2539  0.4442  0.3370
  318SOL     OW 1269   1.347   0.373   2.942  0.2110 -0.0874 -0.0897
  318SOL    HW1 1270   1.279   0.437   2.926 -1.0366  0.9816 -4.8828
  318SOL    HW2 1271   1.430   0.413   2.902  1.6718  0.5836 -0.9709
  318SOL     MW 1272   1.349   0.387   2.934  0.2391  0.1421 -0.8384
  319SOL     OW 1273   0.787   0.438   2.831 -0.1491  0.5140  0.3228
  319SOL    HW1 1274   0.789   0.347   2.803  0.8599 -1.1501  0.6311
  319SOL    HW2 1275   0.757   0.436   2.923  3.6713  2.4680 -2.9975
  319SOL     MW 1276   0.784   0.426   2.839  0.4881  0.5523 -0.0746
  320SOL     OW 1277   1.053   1.342   1.971  0.0105 -0.5725  0.3895
  320SOL    HW1 1278   1.102   1.257   1.978 -2.0064 -0.9507  0.6363
  320SOL    HW2 1279   1.118   1.408   1.941 -1.1858  0.3440  0.9071
  320SOL     MW 1280   1.068   1.339   1.968 -0.4135 -0.5015  0.4904
  321SOL     OW 1281   1.076   0.891   3.049 -0.0457 -0.5771  0.2429
  321SOL    HW1 1282   1.006   0.855   2.990  1.0741 -2.1118 -1.3813
  321SOL    HW2 1283   1.140   0.818   3.061 -2.6674 -0.5907 -2.1810
  321SOL     MW 1284   1.075   0.877   3.043 -0.2439 -0.7814 -0.2912
  322SOL     OW 1285   1.255   0.841   1.663 -0.1011 -0.0513 -0.2193
  322SOL    HW1 1286   1.311   0.766   1.673  1.8922  3.3192 -1.6486
  322SOL    HW2 1287   1.228   0.876   1.748  1.2351 -0.8847 -0.7008
  322SOL     MW 1288   1.259   0.835   1.676  0.3382  0.2834 -0.4714
  323SOL     OW 1289   1.231   1.543   1.910 -0.4460 -0.3516 -0.0374
  323SOL    HW1 1290   1.303   1.526   1.847  2.2545  1.1904  0.9443
  323SOL    HW2 1291   1.175   1.605   1.866 -0.0165 -1.1810 -0.7220
  323SOL     MW 1292   1.233   1.549   1.896 -0.0330 -0.2576  0.0018
  324SOL     OW 1293   1.443   1.007   2.499 -0.5053 -0.3271  0.8768
  324SOL    HW1 1294   1.400   1.032   2.589 -0.3650 -2.1666 -0.5745
  324SOL    HW2 1295   1.530   1.046   2.513  0.3074  2.1037 -1.3867
  324SOL     MW 1296   1.448   1.016   2.513 -0.3796 -0.2491  0.3866
  325SOL     OW 1297   1.037   0.533   2.902  0.0113 -0.0831  0.2270
  325SOL    HW1 1298   1.033   0.586   2.985 -1.2928  0.3791 -0.3122
  325SOL    HW2 1299   0.947   0.524   2.866 -0.6305 -0.8337 -2.7084
  325SOL     MW 1300   1.024   0.539   2.908 -0.2455 -0.1211 -0.2315
  326SOL     OW 1301   0.368   1.397   2.285  0.3134 -0.5728 -0.2062
  326SOL    HW1 1302   0.455   1.369   2.245  2.5575 -2.5687  3.1373
  326SOL    HW2 1303   0.378   1.491   2.274  2.5718  2.7848  1.1306
  326SOL     MW 1304   0.381   1.406   2.279  0.9074 -0.3931  0.4113
  327SOL     OW 1305   1.979   0.799   2.421  0.5101 -0.4008  0.3444
  327SOL    HW1 1306   1.925   0.804   2.502 -2.0277  0.4728 -1.3848
  327SOL    HW2 1307   2.005   0.893   2.413  2.3072  0.9963 -1.0214
  327SOL     MW 1308   1.975   0.812   2.431  0.4124 -0.1012 -0.0640
  328SOL     OW 1309   0.227   1.300   2.078  0.0290  0.3358  0.6317
  328SOL    HW1 1310   0.161   1.230   2.085 -0.6292 -1.9686  3.2055
  328SOL    HW2 1311   0.261   1.309   2.166  0.1834 -1.0267  2.3195
  328SOL     MW 1312   0.223   1.292   2.090 -0.0375 -0.1480  1.1939
  329SOL     OW 1313   0.042   0.114   1.374  0.7399  0.2028 -0.3587
  329SOL    HW1 1314   0.024   0.128   1.466  0.0443 -0.0802  1.5221
  329SOL    HW2 1315   0.128   0.158   1.361 -2.2380 -1.8181 -2.7131
  329SOL     MW 1316   0.051   0.122   1.384  0.2552 -0.1012 -0.4212
  330SOL     OW 1317   0.386   0.013   2.036 -0.0961  0.4279 -0.1805
  330SOL    HW1 1318   0.432   0.044   2.115  1.9605  1.4144 -1.9437
  330SOL    HW2 1319   0.317  -0.053   2.064 -1.3866  1.5201 -0.0767
  330SOL     MW 1320   0.383   0.009   2.050  0.0050  0.7022 -0.3994
  331SOL     OW 1321   0.784   1.251   2.385 -0.4231  0.6805 -0.4090
  331SOL    HW1 1322   0.724   1.311   2.346  0.9662 -2.1682  0.1157
  331SOL    HW2 1323   0.824   1.306   2.455  1.7885 -1.3864 -0.0564
  331SOL     MW 1324   0.781   1.266   2.389  0.0520  0.0320 -0.2932
  332SOL     OW 1325   1.364   1.639   2.936  0.4543  0.2747  0.1189
  332SOL    HW1 1326   1.355   1.635   2.838 -2.0074  0.8434 -1.5644
  332SOL    HW2 1327   1.422   1.718   2.942 -0.4916 -0.1231 -1.9072
  332SOL     MW 1328   1.370   1.649   2.924  0.0047  0.2973 -0.3705
  333SOL     OW 1329   1.667   1.333   2.926 -0.1857  0.1183 -0.5854
  333SOL    HW1 1330   1.766   1.317   2.929  1.0370  3.3212  0.9488
  333SOL    HW2 1331   1.627   1.258   2.959 -0.4189  1.7591 -2.6587
  333SOL     MW 1332   1.675   1.321   2.930 -0.0552  0.7574 -0.6565
  334SOL     OW 1333   1.321   0.005   2.612  0.5035 -0.6100  0.8245
  334SOL    HW1 1334   1.255  -0.022   2.683  1.6362 -0.8627  0.6180
  334SOL    HW2 1335   1.368   0.069   2.666 -2.5091 -0.4623 -0.4482
  334SOL     MW 1336   1.318   0.010   2.629  0.2554 -0.6238  0.6293
  335SOL     OW 1337   1.303   0.713   3.001 -0.3022  0.5973 -0.6993
  335SOL    HW1 1338   1.356   0.680   3.070  2.9254  2.6147  0.6261
  335SOL    HW2 1339   1.368   0.728   2.936 -2.2657 -2.5774  3.1188
  335SOL     MW 1340   1.319   0.711   3.001 -0.1354  0.4446 -0.0207
  336SOL     OW 1341   0.952   1.172   1.718 -0.7614  0.3443  0.0061
  336SOL    HW1 1342   0.882   1.213   1.764  2.5609 -2.2513 -0.2905
  336SOL    HW2 1343   0.987   1.110   1.787 -0.2327  0.2737  1.7949
  336SOL     MW 1344   0.947   1.169   1.734 -0.2533 -0.0075  0.2030
  337SOL     OW 1345   0.521   1.939   2.796 -1.0196  0.4061 -0.7306
  337SOL    HW1 1346   0.454   1.890   2.744 -2.3508  0.2896  0.3979
  337SOL    HW2 1347   0.602   1.882   2.795 -0.0543 -1.5555 -0.4403
  337SOL     MW 1348   0.523   1.925   2.789 -1.0679  0.1319 -0.5434
  338SOL     OW 1349   1.067   0.771   2.455  0.0744  0.6347 -0.3157
  338SOL    HW1 1350   0.988   0.711   2.461 -0.3676 -0.0002 -0.8678
  338SOL    HW2 1351   1.132   0.750   2.526 -1.9360  0.5465 -0.7633
  338SOL     MW 1352   1.065   0.760   2.465 -0.2492  0.5393 -0.4476
  339SOL     OW 1353   1.420   1.220   1.885 -0.5629  0.1357  0.5104
  339SOL    HW1 1354   1.423   1.165   1.807  2.2864  1.1511  1.5492
  339SOL    HW2 1355   1.390   1.168   1.957 -0.0486  1.2793  2.0226
  339SOL     MW 1356   1.416   1.206   1.884 -0.1191  0.4205  0.8470
  340SOL     OW 1357   1.278   1.505   0.063  0.7046 -0.5633 -0.0197
  340SOL    HW1 1358   1.328   1.554  -0.007  2.4697  0.9853 -0.2851
  340SOL    HW2 1359   1.343   1.481   0.128 -3.3094  2.7209  0.4346
  340SOL     MW 1360   1.293   1.509   0.062  0.4079  0.0743  0.0053
  341SOL     OW 1361   0.131   1.372   2.798  0.3962 -0.3312 -0.5594
  341SOL    HW1 1362   0.227   1.367   2.822 -0.9739 -0.3786 -3.1797
  341SOL    HW2 1363   0.120   1.344   2.711  0.6500  0.6430  0.2738
  341SOL     MW 1364   0.142   1.368   2.790  0.2489 -0.2089 -0.7952
  342SOL     OW 1365   1.441   0.321   0.089 -0.1540  0.5530 -0.2992
  342SOL    HW1 1366   1.489   0.402   0.118 -1.1299  4.6011 -1.3626
  342SOL    HW2 1367   1.410   0.341   0.001  1.2446  1.5648  0.1953
  342SOL     MW 1368   1.444   0.334   0.081 -0.0983  1.2206 -0.3743
  343SOL     OW 1369   0.230   0.268   2.155  0.5286 -0.4654 -0.2285
  343SOL    HW1 1370   0.294   0.206   2.132 -1.7604  1.1692 -2.7725
  343SOL    HW2 1371   0.149   0.241   2.118  0.2486 -0.9237  0.1452
  343SOL     MW 1372   0.227   0.256   2.147  0.1897 -0.3102 -0.5148
  344SOL     OW 1373   1.692   1.978   0.119  0.1574 -0.0637  0.1731
  344SOL    HW1 1374   1.728   2.049   0.057 -0.6330 -0.0667 -2.3077
  344SOL    HW2 1375   1.608   2.009   0.124  1.4763  3.1773 -0.9046
  344SOL     MW 1376   1.686   1.992   0.112  0.2272  0.3635 -0.2964
  345SOL     OW 1377   0.691   1.623   2.371  0.1957  0.8323  0.2503
  345SOL    HW1 1378   0.613   1.617   2.315  1.0911  2.1383  0.3788
  345SOL    HW2 1379   0.766   1.614   2.316  0.3373  1.9700  1.4789
  345SOL     MW 1380   0.691   1.621   2.356  0.3325  1.1547  0.4293
  346SOL     OW 1381   1.643   1.112   0.025  0.0858 -0.0921  0.6133
  346SOL    HW1 1382   1.738   1.114   0.019 -2.5147 -3.3501  3.2633
  346SOL    HW2 1383   1.628   1.030   0.071  0.2275 -2.5879 -1.3287
  346SOL     MW 1384   1.653   1.101   0.030 -0.2386 -0.8513  0.7067
  347SOL     OW 1385   1.151   0.637   2.233  0.2140 -0.6359 -0.2142
  347SOL    HW1 1386   1.216   0.585   2.273 -0.0895 -2.3567  0.6383
  347SOL    HW2 1387   1.130   0.696   2.306  0.0897  0.0108  0.0729
  347SOL     MW 1388   1.157   0.638   2.248  0.1575 -0.7776 -0.0638
  348SOL     OW 1389   1.335   2.545   1.914 -0.1840 -0.3303  0.3920
  348SOL    HW1 1390   1.353   2.481   1.985 -0.2637  1.1735 -1.2294
  348SOL    HW2 1391   1.347   2.628   1.972  3.1354 -1.8024 -0.7922
  348SOL     MW 1392   1.339   2.547   1.931  0.2435 -0.3261  0.0219
  349SOL     OW 1393   1.478   0.153   2.788  0.4222 -0.1502 -0.0379
  349SOL    HW1 1394   1.467   0.221   2.849  0.3007 -0.8268 -2.3844
  349SOL    HW2 1395   1.518   0.088   2.848  0.2103 -1.2908  1.8607
  349SOL     MW 1396   1.482   0.153   2.804  0.3782 -0.3900 -0.0970
  350SOL     OW 1397   1.829   0.663   2.630 -0.8523 -0.2190  0.0054
  350SOL    HW1 1398   1.791   0.596   2.569  1.4496 -0.2802  0.2320
  350SOL    HW2 1399   1.896   0.609   2.670  2.2813 -0.8610  0.4632
  350SOL     MW 1400   1.833   0.647   2.627 -0.1351 -0.3118  0.0957
  351SOL     OW 1401   0.095   1.136   1.620 -0.2885  0.4646 -0.4975
  351SOL    HW1 1402   0.012   1.148   1.669 -1.1320  0.6758 -1.4518
  351SOL    HW2 1403   0.154   1.204   1.646 -1.3277 -0.6752 -0.5025
  351SOL     MW 1404   0.092   1.146   1.630 -0.5369  0.3421 -0.6240
  352SOL     OW 1405   0.761   1.795   2.791 -0.0764  0.1739 -0.1994
  352SOL    HW1 1406   0.770   1.772   2.887 -1.5637 -1.3206 -0.6369
  352SOL    HW2 1407   0.740   1.710   2.753 -2.2084 -1.4176 -1.6509
  352SOL     MW 1408   0.760   1.781   2.799 -0.5539 -0.2333 -0.4487
  353SOL     OW 1409   0.019   2.570   2.662  0.2563  0.0862 -0.4720
  353SOL    HW1 1410   0.111   2.542   2.663 -0.4989  1.1158 -2.6897
  353SOL    HW2 1411   0.018   2.634   2.589  0.3761 -0.9272 -1.2160
  353SOL     MW 1412   0.031   2.575   2.653  0.1725  0.0884 -0.8628
  354SOL     OW 1413   0.367   2.432   0.887  0.7016 -0.3899 -0.1683
  354SOL    HW1 1414   0.390   2.396   0.968 -1.6197 -0.0817 -0.3643
  354SOL    HW2 1415   0.325   2.361   0.852 -1.0266  0.1784 -1.4179
  354SOL     MW 1416   0.365   2.418   0.893  0.1673 -0.2743 -0.3591
  355SOL     OW 1417   0.029   2.178   0.395  0.9140  0.3210 -0.0428
  355SOL    HW1 1418  -0.066   2.166   0.385 -2.0048  0.2048 -0.5759
  355SOL    HW2 1419   0.050   2.224   0.477  0.4737  0.0902  0.3415
  355SOL     MW 1420   0.019   2.182   0.404  0.4708  0.2752 -0.0624
  356SOL     OW 1421   0.764   2.933   1.064 -0.5407  0.7503  0.1129
  356SOL    HW1 1422   0.849   2.922   1.018  0.5588 -1.3105 -1.2946
  356SOL    HW2 1423   0.694   2.908   1.005 -0.3335  1.1458  0.7148
  356SOL     MW 1424   0.766   2.929   1.050 -0.3683  0.5306  0.0066
  357SOL     OW 1425   1.843   2.820   0.475 -0.0332 -0.3360 -0.5808
  357SOL    HW1 1426   1.806   2.757   0.537  1.0071  1.7972  2.6369
  357SOL    HW2 1427   1.935   2.787   0.463 -0.1810  1.6819 -0.1803
  357SOL     MW 1428   1.850   2.808   0.482  0.0845  0.2117 -0.1034
  358SOL     OW 1429   0.421   0.162   1.060  0.2287 -0.1908  0.5097
  358SOL    HW1 1430   0.510   0.205   1.062  1.5216 -0.9048  0.9391
  358SOL    HW2 1431   0.388   0.181   0.971  1.2366 -0.7754 -0.1804
  358SOL     MW 1432   0.428   0.170   1.048  0.5322 -0.3621  0.4753
  359SOL     OW 1433   0.903   2.988   1.851 -0.1377 -0.3863  0.1699
  359SOL    HW1 1434   0.913   2.896   1.862  1.5674 -2.5930 -1.5976
  359SOL    HW2 1435   0.940   3.002   1.765  1.5133  4.3194 -1.8981
  359SOL     MW 1436   0.909   2.977   1.841  0.3051 -0.0566 -0.3362
  360SOL     OW 1437   0.553   2.791   0.905  0.3300 -0.0910  0.5508
  360SOL    HW1 1438   0.574   2.754   0.818  0.7243  0.9082  1.9240
  360SOL    HW2 1439   0.556   2.713   0.966  1.7114 -1.4698 -0.3813
  360SOL     MW 1440   0.556   2.776   0.902  0.5643 -0.1411  0.6090
  361SOL     OW 1441   0.249   2.697   1.370 -0.2578  0.6626 -0.1488
  361SOL    HW1 1442   0.204   2.751   1.433 -1.3290 -2.8507 -2.2050
  361SOL    HW2 1443   0.339   2.728   1.355  1.6565  2.5391 -2.2164
  361SOL     MW 1444   0.255   2.708   1.376 -0.1466  0.4466 -0.6929
  362SOL     OW 1445   1.368   2.427   0.604 -0.2804  0.3281  0.2102
  362SOL    HW1 1446   1.399   2.352   0.649  0.0144 -0.3262 -1.1958
  362SOL    HW2 1447   1.430   2.501   0.609  0.1154 -0.0605 -1.0610
  362SOL     MW 1448   1.380   2.427   0.611 -0.1893  0.1905 -0.1430
  363SOL     OW 1449   0.347   3.098   0.668 -0.0416  0.4990  0.3136
  363SOL    HW1 1450   0.354   3.009   0.710 -2.5032 -3.1522 -1.8382
  363SOL    HW2 1451   0.262   3.098   0.619 -0.8698 -0.9645  0.3751
  363SOL     MW 1452   0.337   3.086   0.667 -0.4756 -0.1758  0.0378
  364SOL     OW 1453   0.800   0.225   0.131  0.1143 -0.7509 -0.4638
  364SOL    HW1 1454   0.742   0.157   0.147  0.7983  0.4858  0.7592
  364SOL    HW2 1455   0.748   0.281   0.074 -1.3459 -1.6938  2.6203
  364SOL     MW 1456   0.786   0.223   0.126  0.0119 -0.7122  0.1045
  365SOL     OW 1457   0.885   1.996   1.203 -0.5550 -0.2515  0.0081
  365SOL    HW1 1458   0.854   2.089   1.187 -0.1653 -1.7254 -0.8986
  365SOL    HW2 1459   0.842   1.942   1.134  4.1256  0.0199  1.4115
  365SOL     MW 1460   0.875   2.001   1.192  0.1140 -0.4102  0.0736
  366SOL     OW 1461   2.938   2.635   0.964 -0.0133 -0.0239 -0.2977
  366SOL    HW1 1462   3.019   2.636   1.019  2.2950 -0.6892 -1.7516
  366SOL    HW2 1463   2.965   2.682   0.882 -0.6537  2.2561  2.8263
  366SOL     MW 1464   2.952   2.641   0.960  0.2068  0.1892 -0.0773
  367SOL     OW 1465   1.193   2.966   0.974  0.2854  0.5596  0.5681
  367SOL    HW1 1466   1.259   3.005   0.911  2.0428  1.6075  3.0422
  367SOL    HW2 1467   1.116   2.939   0.931 -0.5309 -0.0077  0.0359
  367SOL     MW 1468   1.191   2.968   0.960  0.4095  0.6230  0.8243
  368SOL     OW 1469   1.734   0.422   0.651 -0.5125  0.0357 -0.4443
  368SOL    HW1 1470   1.777   0.343   0.622  2.3026  0.1560 -0.2510
  368SOL    HW2 1471   1.766   0.492   0.596 -0.1606 -0.3824 -1.1817
  368SOL     MW 1472   1.744   0.421   0.640 -0.0946 -0.0036 -0.5161
  369SOL     OW 1473   0.148   2.379   1.778 -0.0984  0.4132 -0.0071
  369SOL    HW1 1474   0.247   2.384   1.776  3.6150  1.0526  1.8185
  369SOL    HW2 1475   0.109   2.470   1.764  1.3649 -0.2174  0.6426
  369SOL     MW 1476   0.156   2.392   1.776  0.5846  0.4143  0.3195
  370SOL     OW 1477   0.736   0.152   1.043 -0.1914  0.6337  0.8769
  370SOL    HW1 1478   0.790   0.172   0.966  2.0589  0.0715  0.5518
  370SOL    HW2 1479   0.761   0.057   1.067 -0.8679 -2.8209 -0.6798
  370SOL     MW 1480   0.746   0.142   1.036  0.0162  0.1037  0.6286
  371SOL     OW 1481   1.193   2.861   1.480 -0.5834  0.2535 -0.1576
  371SOL    HW1 1482   1.198   2.783   1.425 -0.7534  3.2699 -3.8798
  371SOL    HW2 1483   1.181   2.935   1.418 -0.9310  1.5305  0.5568
  371SOL     MW 1484   1.192   2.860   1.465 -0.6517  0.8200 -0.5545
  372SOL     OW 1485   0.791   2.318   0.500  0.3561 -0.4311 -0.1165
  372SOL    HW1 1486   0.770   2.235   0.548 -2.8628  1.4667  1.8629
  372SOL    HW2 1487   0.833   2.287   0.421 -0.0900  1.3029 -0.8594
  372SOL     MW 1488   0.794   2.303   0.496 -0.1275  0.0481  0.0466
  373SOL     OW 1489   2.846   2.995   1.424  0.0247 -0.1131 -0.2438
  373SOL    HW1 1490   2.927   2.974   1.381  2.0002  1.7104 -1.5141
  373SOL    HW2 1491   2.815   3.070   1.376  2.3237 -0.0497 -0.6373
  373SOL     MW 1492   2.852   3.002   1.412  0.5887  0.1358 -0.4633
  374SOL     OW 1493   1.587   0.459   0.289 -0.2436 -0.3300 -0.1167
  374SOL    HW1 1494   1.666   0.417   0.255  3.3462 -0.0183  0.0037
  374SOL    HW2 1495   1.564   0.404   0.365  1.3752 -0.1811  1.9336
  374SOL     MW 1496   1.595   0.446   0.294  0.4436 -0.2692  0.1697
  375SOL     OW 1497   1.010   2.140   2.281  0.7946 -0.5645 -0.1102
  375SOL    HW1 1498   1.054   2.118   2.363 -1.2917 -0.0255 -2.1512
  375SOL    HW2 1499   0.971   2.061   2.246  1.4944  1.7966 -2.0592
  375SOL     MW 1500   1.011   2.126   2.287  0.6117 -0.1818 -0.6367
  376SOL     OW 1501   0.772   2.498   0.096  0.4321 -0.3457  1.0430
  376SOL    HW1 1502   0.710   2.445   0.140 -3.1219  2.2612 -0.4725
  376SOL    HW2 1503   0.781   2.467   0.007 -0.2295  1.6383  0.4940
  376SOL     MW 1504   0.765   2.487   0.090 -0.1241  0.2601  0.7706
  377SOL     OW 1505   1.323   2.045   0.929  0.5161  0.1482  0.1934
  377SOL    HW1 1506   1.265   2.008   0.870  2.4660 -1.0980  1.1483
  377SOL    HW2 1507   1.274   2.029   1.014 -0.4319  0.2598  0.9575
  377SOL     MW 1508   1.309   2.038   0.932  0.6483 -0.0015  0.4202
  378SOL     OW 1509   0.900   2.852   1.529 -0.1134 -0.4003 -0.2893
  378SOL    HW1 1510   0.957   2.791   1.585 -4.3671 -0.2478  0.7519
  378SOL    HW2 1511   0.951   2.862   1.449 -1.3141  4.6251  0.8277
  378SOL     MW 1512   0.914   2.846   1.526 -0.8331  0.2829 -0.0046
  379SOL     OW 1513   1.108   1.621   2.227 -0.4851 -0.1728 -0.0014
  379SOL    HW1 1514   1.039   1.605   2.163 -0.4706 -0.4559  1.1382
  379SOL    HW2 1515   1.186   1.581   2.191 -0.1556 -1.6174  3.8428
  379SOL     MW 1516   1.110   1.614   2.214 -0.4397 -0.4007  0.6562
  380SOL     OW 1517   0.874   0.104   1.424  0.1623 -0.0142  0.0061
  380SOL    HW1 1518   0.910   0.024   1.387  0.1933  2.9308  1.2159
  380SOL    HW2 1519   0.932   0.122   1.502  1.0192 -0.3076  1.8114
  380SOL     MW 1520   0.886   0.096   1.430  0.2794  0.3356  0.4039
  381SOL     OW 1521   0.819   2.045   0.828 -0.5745 -0.0259  0.4008
  381SOL    HW1 1522   0.913   2.033   0.823  0.7251 -0.1644 -0.5709
  381SOL    HW2 1523   0.813   2.126   0.882 -2.5536 -1.6238 -1.6383
  381SOL     MW 1524   0.831   2.054   0.834 -0.6642 -0.2550  0.0035
  382SOL     OW 1525   0.829   0.154   0.619  0.2049  0.2515 -0.1173
  382SOL    HW1 1526   0.798   0.212   0.694 -1.3554 -1.0378  2.4256
  382SOL    HW2 1527   0.794   0.061   0.636 -0.7831 -1.3306 -1.1638
  382SOL     MW 1528   0.820   0.149   0.631 -0.1313 -0.1274  0.0801
  383SOL     OW 1529   0.606   0.066   0.323  0.4181 -0.3891  0.3635
  383SOL    HW1 1530   0.659   0.002   0.275 -1.0035  0.0399 -1.0196
  383SOL    HW2 1531   0.544   0.002   0.360 -0.4189 -0.0547 -0.1459
  383SOL     MW 1532   0.605   0.049   0.322  0.1201 -0.2884  0.1138
  384SOL     OW 1533   0.740   2.977   0.657  0.1063  0.3404 -0.5197
  384SOL    HW1 1534   0.811   2.948   0.725 -1.6346  0.3842 -0.6066
  384SOL    HW2 1535   0.709   2.890   0.635  0.8311  0.1818  0.8664
  384SOL     MW 1536   0.746   2.962   0.663 -0.0278  0.3253 -0.3483
  385SOL     OW 1537   1.378   2.081   1.537 -0.4634 -0.4100 -0.0154
  385SOL    HW1 1538   1.443   2.120   1.596 -2.4693  2.3571 -2.4375
  385SOL    HW2 1539   1.351   2.001   1.582 -0.9509  1.9750 -0.8981
  385SOL     MW 1540   1.383   2.076   1.551 -0.7924  0.2698 -0.4514
  386SOL     OW 1541   1.446   0.406   0.903  0.4078  0.7897  0.3292
  386SOL    HW1 1542   1.374   0.414   0.964  0.0863 -0.9535 -0.6523
  386SOL    HW2 1543   1.532   0.393   0.946  0.3531  0.4818 -0.3046
  386SOL     MW 1544   1.448   0.405   0.917  0.3581  0.5191  0.1161
  387SOL     OW 1545   0.809   2.187   1.566 -0.3718  1.0534  0.1545
  387SOL    HW1 1546   0.864   2.224   1.497 -0.5736  1.5426  4.0671
  387SOL    HW2 1547   0.806   2.091   1.545  1.9175 -0.6320  1.8839
  387SOL     MW 1548   0.816   2.179   1.554 -0.0964  0.8955  0.8989
  388SOL     OW 1549   1.471   2.765   1.352 -0.0698 -0.6773  0.8569
  388SOL    HW1 1550   1.429   2.856   1.337  2.6851  2.4009 -1.6074
  388SOL    HW2 1551   1.433   2.709   1.280  1.9692 -2.0796  2.0067
  388SOL     MW 1552   1.460   2.770   1.341  0.5627 -0.4562  0.6835
  389SOL     OW 1553   0.522   0.145   3.075 -0.2772 -0.2149  0.0942
  389SOL    HW1 1554   0.609   0.116   3.046  1.5549 -1.0633  2.0727
  389SOL    HW2 1555   0.487   0.171   2.992  2.1496  0.4667 -2.3625
  389SOL     MW 1556   0.528   0.145   3.060  0.2847 -0.2369  0.0311
  390SOL     OW 1557   1.374   0.035   0.749 -0.0870 -0.2164  0.1279
  390SOL    HW1 1558   1.409   0.041   0.663 -0.8662  0.8747 -1.4614
  390SOL    HW2 1559   1.433   0.072   0.810  0.2400  0.3504  0.2130
  390SOL     MW 1560   1.386   0.041   0.746 -0.1467  0.0023 -0.0706
  391SOL     OW 1561   0.353   2.188   1.520 -0.1289 -0.0851 -0.3897
  391SOL    HW1 1562   0.306   2.129   1.574  0.9610 -1.8469  1.9399
  391SOL    HW2 1563   0.313   2.276   1.520 -0.1318  0.4461 -1.2775
  391SOL     MW 1564   0.342   2.192   1.527  0.0145 -0.2475 -0.1994
  392SOL     OW 1565   1.982   2.233   0.313 -1.1755 -0.0301  0.4952
  392SOL    HW1 1566   2.035   2.292   0.368  0.0400 -0.2009 -1.1935
  392SOL    HW2 1567   1.889   2.257   0.330  0.3699  0.9091 -0.0666
  392SOL     MW 1568   1.977   2.244   0.323 -0.8112  0.0713  0.1982
  393SOL     OW 1569   0.252   2.974   2.878  0.2253  0.1014 -0.3633
  393SOL    HW1 1570   0.315   2.938   2.816 -0.3563  1.1680  0.4052
  393SOL    HW2 1571   0.268   3.071   2.854 -3.2918  1.5684  0.2342
  393SOL     MW 1572   0.262   2.982   2.867 -0.3155  0.4357 -0.1831
  394SOL     OW 1573   1.045   1.767   1.503  0.2623  0.0170 -0.4010
  394SOL    HW1 1574   1.044   1.785   1.596  0.2892  0.1150  1.6760
  394SOL    HW2 1575   0.969   1.821   1.479  2.0847  0.4765  1.3303
  394SOL     MW 1576   1.035   1.776   1.512  0.5063  0.0905  0.1015
  395SOL     OW 1577   0.918   2.958   2.654 -0.4475 -0.3716  1.0339
  395SOL    HW1 1578   0.993   2.990   2.713  3.2765  1.5651  1.2987
  395SOL    HW2 1579   0.963   2.876   2.621  0.4594  0.5855  0.1193
  395SOL     MW 1580   0.934   2.951   2.657  0.1635  0.0102  0.9481
  396SOL     OW 1581   0.740   1.900   2.402  0.0270 -0.1345 -0.8806
  396SOL    HW1 1582   0.820   1.876   2.445  2.8916 -0.3704 -3.3823
  396SOL    HW2 1583   0.701   1.814   2.387  2.4706 -2.0156  0.0911
  396SOL     MW 1584   0.745   1.886   2.406  0.7274 -0.4138 -1.0825
  397SOL     OW 1585   0.961   2.296   1.380 -0.3535 -0.1798 -0.1539
  397SOL    HW1 1586   0.978   2.328   1.293  3.1553 -0.5084  2.1255
  397SOL    HW2 1587   1.041   2.308   1.426  1.7010  2.9615  0.6748
  397SOL     MW 1588   0.973   2.302   1.374  0.3805  0.1913  0.2562
  398SOL     OW 1589   0.618   2.721   0.628  0.0666 -0.2385 -0.0492
  398SOL    HW1 1590   0.543   2.689   0.572  0.7806  0.4038 -0.9081
  398SOL    HW2 1591   0.691   2.655   0.615  2.1125  0.9698  3.3292
  398SOL     MW 1592   0.618   2.708   0.619  0.4308  0.0057  0.2832
  399SOL     OW 1593   0.296   2.095   0.320  0.7408 -0.1062  0.0309
  399SOL    HW1 1594   0.203   2.124   0.340  0.4576  1.1733  2.7690
  399SOL    HW2 1595   0.319   2.126   0.236 -0.8709 -1.0308  0.9849
  399SOL     MW 1596   0.287   2.103   0.312  0.4908 -0.0594  0.5181
  400SOL     OW 1597   0.609   1.896   0.092  0.0362  0.5558 -0.7164
  400SOL    HW1 1598   0.566   1.979   0.108  1.2746 -2.7537  0.3774
  400SOL    HW2 1599   0.585   1.852   0.174  0.0830 -0.4238 -1.0152
  400SOL     MW 1600   0.600   1.901   0.105  0.2058 -0.0101 -0.6115
  401SOL     OW 1601   0.808   2.069   0.040  0.7020 -0.0203  0.2096
  401SOL    HW1 1602   0.899   2.028   0.040  0.3850 -0.4728  0.3028
  401SOL    HW2 1603   0.746   2.003   0.071 -1.1117  0.7119  0.4600
  401SOL     MW 1604   0.812   2.055   0.044  0.4209  0.0166  0.2549
  402SOL     OW 1605   0.546   3.009   1.730  0.3415  0.0267  0.4753
  402SOL    HW1 1606   0.625   2.963   1.759  1.4031 -1.8735  1.0251
  402SOL    HW2 1607   0.578   3.094   1.707 -2.0540 -1.1061 -1.6649
  402SOL     MW 1608   0.560   3.014   1.731  0.1655 -0.3734  0.2654
  403SOL     OW 1609   0.124   0.518   0.402  0.0253  0.0689  0.0183
  403SOL    HW1 1610   0.218   0.527   0.433  2.7102 -0.4928  1.0208
  403SOL    HW2 1611   0.137   0.482   0.308 -0.3017  0.1617 -2.4352
  403SOL     MW 1612   0.138   0.514   0.394  0.3364  0.0070 -0.1731
  404SOL     OW 1613   0.952   2.916   0.844 -0.1015  0.2145  0.3935
  404SOL    HW1 1614   1.018   2.865   0.800 -1.8883 -0.1225 -0.6815
  404SOL    HW2 1615   0.961   3.007   0.833 -0.1856  0.9416  0.1182
  404SOL     MW 1616   0.962   2.921   0.836 -0.3484  0.2659  0.2153
  405SOL     OW 1617   0.486   2.464   1.498  0.5202 -0.0763  0.1300
  405SOL    HW1 1618   0.523   2.550   1.484 -1.2793 -0.3083  2.5182
  405SOL    HW2 1619   0.529   2.407   1.435  5.4029  0.7722 -1.1124
  405SOL     MW 1620   0.497   2.468   1.488  0.9270  0.0051  0.2812
  406SOL     OW 1621   0.407   2.360   1.149  0.1679 -0.2199 -0.6501
  406SOL    HW1 1622   0.313   2.355   1.142 -0.5346 -0.1289  0.2376
  406SOL    HW2 1623   0.434   2.271   1.184  0.7563  0.7297 -1.5759
  406SOL     MW 1624   0.398   2.348   1.153  0.1528 -0.0826 -0.6551
  407SOL     OW 1625   0.040   2.657   1.155 -0.2869  0.1556  0.4246
  407SOL    HW1 1626   0.099   2.669   1.227  0.9483 -1.5616 -1.7145
  407SOL    HW2 1627   0.096   2.649   1.077  0.5076  1.3023  1.4173
  407SOL     MW 1628   0.055   2.657   1.154 -0.0191  0.0803  0.2734
  408SOL     OW 1629   2.114   2.125   0.754  0.0003  0.0208  0.3693
  408SOL    HW1 1630   2.062   2.185   0.821  0.2566 -0.8007  1.2142
  408SOL    HW2 1631   2.045   2.081   0.690  2.9436 -3.6283 -2.9075
  408SOL     MW 1632   2.098   2.127   0.754  0.4224 -0.5691  0.0484
  409SOL     OW 1633   1.606   0.146   0.857  0.7567 -0.0190 -0.4943
  409SOL    HW1 1634   1.645   0.230   0.879 -2.9169  1.3459 -3.2739
  409SOL    HW2 1635   1.621   0.089   0.930  1.0355  0.6583 -1.5406
  409SOL     MW 1636   1.613   0.150   0.869  0.3088  0.2504 -0.9991
  410SOL     OW 1637   1.081   2.406   1.155  0.0876  0.0906 -0.2967
  410SOL    HW1 1638   1.039   2.460   1.091  0.6015 -1.1770  0.5243
  410SOL    HW2 1639   1.161   2.375   1.107 -0.0132 -0.1269  0.8007
  410SOL     MW 1640   1.086   2.409   1.140  0.1421 -0.1053 -0.0436
  411SOL     OW 1641   2.013   2.957   2.917 -0.1275 -0.2172 -0.1973
  411SOL    HW1 1642   1.997   2.895   2.846 -0.2169 -1.8361 -0.2737
  411SOL    HW2 1643   1.998   3.044   2.879 -0.9740 -1.1102 -0.2050
  411SOL     MW 1644   2.009   2.961   2.902 -0.2510 -0.5486 -0.2084
  412SOL     OW 1645   1.035   2.221   0.607 -0.1745 -0.1739  0.1147
  412SOL    HW1 1646   1.068   2.298   0.652  2.8278 -0.1028 -0.2003
  412SOL    HW2 1647   0.954   2.251   0.563  0.3965 -1.0835 -3.7310
  412SOL     MW 1648   1.028   2.235   0.607  0.2970 -0.2845 -0.4342
  413SOL     OW 1649   0.587   2.733   0.108 -0.0118 -0.5153 -0.3376
  413SOL    HW1 1650   0.627   2.640   0.113  1.3396 -2.0781 -0.5329
  413SOL    HW2 1651   0.604   2.767   0.019  1.8875 -0.5692  3.0304
  413SOL     MW 1652   0.594   2.725   0.097  0.4171 -0.7286  0.0810
  414SOL     OW 1653   1.989   3.042   1.102 -0.2241 -0.3981 -0.5206
  414SOL    HW1 1654   1.972   3.137   1.116 -0.9064  0.6552 -1.1461
  414SOL    HW2 1655   2.033   3.053   1.020  3.6581  1.9497  0.6150
  414SOL     MW 1656   1.993   3.056   1.093  0.1981  0.0506 -0.4533
  415SOL     OW 1657   1.630   2.836   1.126 -0.1831 -0.0739  0.0199
  415SOL    HW1 1658   1.631   2.820   1.221  2.2810 -2.0373 -0.8294
  415SOL    HW2 1659   1.711   2.792   1.097 -1.7229 -2.1059 -2.3775
  415SOL     MW 1660   1.641   2.828   1.135 -0.0611 -0.6011 -0.4085
  416SOL     OW 1661   0.600   1.712   1.510 -0.0527 -0.6073 -0.1220
  416SOL    HW1 1662   0.524   1.693   1.462  3.1591  0.7857  1.3268
  416SOL    HW2 1663   0.670   1.652   1.484  1.0838  2.7268  1.1709
  416SOL     MW 1664   0.599   1.701   1.500  0.5210  0.0164  0.2398
  417SOL     OW 1665   0.999   0.007   2.070 -0.0323  0.1745  0.2177
  417SOL    HW1 1666   0.926   0.039   2.121  1.8633  1.6825  0.4402
  417SOL    HW2 1667   0.959  -0.037   1.994 -1.9063  1.3748  0.9087
  417SOL     MW 1668   0.984   0.006   2.067 -0.0295  0.5318  0.3383
  418SOL     OW 1669   0.762   2.975   0.139 -0.0162 -0.6186 -0.4115
  418SOL    HW1 1670   0.829   2.932   0.084 -0.2274  0.4422 -1.7972
  418SOL    HW2 1671   0.695   2.903   0.144 -0.8146 -1.5199  0.7979
  418SOL     MW 1672   0.762   2.959   0.133 -0.1494 -0.5975 -0.4347
  419SOL     OW 1673   0.567   2.681   1.347  0.6920 -0.0949  0.0701
  419SOL    HW1 1674   0.573   2.769   1.392 -1.1104  0.4748  2.3028
  419SOL    HW2 1675   0.653   2.637   1.364  2.1451 -1.1137  3.2399
  419SOL     MW 1676   0.579   2.687   1.355  0.6459 -0.1542  0.7829
  420SOL     OW 1677   0.785   2.252   1.032  0.3632  0.4648 -0.0167
  420SOL    HW1 1678   0.696   2.273   1.055  1.8082  1.2261 -1.0560
  420SOL    HW2 1679   0.829   2.339   1.035  0.6067 -2.0611  1.0867
  420SOL     MW 1680   0.779   2.266   1.035  0.5860  0.2320 -0.0083
  421SOL     OW 1681   2.904   0.151   0.028 -0.3391  0.3171  0.2344
  421SOL    HW1 1682   2.844   0.122  -0.042 -2.2162  0.9312  1.2103
  421SOL    HW2 1683   2.940   0.064   0.055 -2.7936 -0.7634 -0.8993
  421SOL     MW 1684   2.901   0.136   0.022 -0.9106  0.2556  0.2136
  422SOL     OW 1685   0.856   2.516   0.982  0.5638 -0.4011 -0.0328
  422SOL    HW1 1686   0.770   2.553   1.013 -0.7202 -3.1474  0.1145
  422SOL    HW2 1687   0.845   2.517   0.884 -0.6526 -2.3679 -0.4649
  422SOL     MW 1688   0.843   2.521   0.973  0.2339 -1.0229 -0.0704
  423SOL     OW 1689   1.457   0.068   0.476  0.0638  0.1670 -0.2031
  423SOL    HW1 1690   1.489   0.048   0.379  1.0923  0.1225  0.6973
  423SOL    HW2 1691   1.465   0.164   0.497  1.5264 -2.5790 -1.1363
  423SOL     MW 1692   1.462   0.078   0.466  0.3925 -0.2011 -0.2074
  424SOL     OW 1693   0.635   2.271   1.377 -0.0290 -0.4698  0.0482
  424SOL    HW1 1694   0.586   2.201   1.330  0.8617 -0.6861  2.6913
  424SOL    HW2 1695   0.670   2.230   1.456  1.7814  2.4931 -0.8570
  424SOL     MW 1696   0.633   2.256   1.381  0.3274 -0.1074  0.2775
  425SOL     OW 1697   1.674   2.800   2.049  0.4325  0.0498 -0.2544
  425SOL    HW1 1698   1.680   2.824   1.954 -1.5997  0.9230 -2.9607
  425SOL    HW2 1699   1.742   2.731   2.058 -0.8309 -0.2760 -1.4909
  425SOL     MW 1700   1.684   2.794   2.038 -0.0023  0.1220 -0.7746
  426SOL     OW 1701   0.891   1.721   1.965 -0.1798 -0.0469 -0.5716
  426SOL    HW1 1702   0.804   1.728   1.911 -2.2349  1.8898 -1.3919
  426SOL    HW2 1703   0.895   1.791   2.030 -1.7698 -3.0738 -0.7929
  426SOL     MW 1704   0.880   1.731   1.967 -0.6607 -0.1907 -0.7091
  427SOL     OW 1705   0.377   1.708   1.880  0.9636  0.4950 -0.0128
  427SOL    HW1 1706   0.414   1.634   1.833 -1.4348  2.2859  2.4998
  427SOL    HW2 1707   0.314   1.667   1.933 -1.9894  0.0257 -0.5687
  427SOL     MW 1708   0.373   1.693   1.881  0.2575  0.6693  0.2454
  428SOL     OW 1709   0.578   2.589   1.088 -0.1369  0.0486  0.0529
  428SOL    HW1 1710   0.536   2.509   1.108 -0.0211  1.9364 -0.5138
  428SOL    HW2 1711   0.550   2.645   1.167  1.2262  1.0740 -3.0243
  428SOL     MW 1712   0.569   2.586   1.101  0.0583  0.4329 -0.4278
  429SOL     OW 1713   1.184   2.718   1.105 -0.6254 -0.3214 -0.0587
  429SOL    HW1 1714   1.094   2.702   1.135  1.0361  0.7921  1.8893
  429SOL    HW2 1715   1.175   2.804   1.061  0.9435  0.7947 -0.6031
  429SOL     MW 1716   1.171   2.728   1.103 -0.1992 -0.0273  0.1265
  430SOL     OW 1717   1.160   2.772   0.737  0.0385 -0.0157  0.5784
  430SOL    HW1 1718   1.165   2.674   0.748  0.0983 -1.7136  2.6965
  430SOL    HW2 1719   1.134   2.776   0.639  0.1167  1.6199  0.6175
  430SOL     MW 1720   1.157   2.760   0.726  0.0567 -0.0239  0.8630
  431SOL     OW 1721   0.307   1.932   1.117  0.2527  0.2485  0.4139
  431SOL    HW1 1722   0.370   1.871   1.076  0.9005 -2.2962 -4.4186
  431SOL    HW2 1723   0.266   1.974   1.038  1.4440  1.7365 -1.1109
  431SOL     MW 1724   0.310   1.930   1.101  0.4954  0.1091 -0.4249
  432SOL     OW 1725   0.068   3.097   1.139 -0.6244 -0.6438 -0.1885
  432SOL    HW1 1726   0.062   3.130   1.232  0.6043  3.3182  0.3703
  432SOL    HW2 1727   0.030   3.010   1.153  4.2151  0.3716 -1.8396
  432SOL     MW 1728   0.062   3.090   1.154  0.1763  0.0129 -0.3326
  433SOL     OW 1729   0.641   2.918   1.464 -0.3998 -0.1393 -0.0135
  433SOL    HW1 1730   0.627   2.997   1.513 -1.3292  0.8381 -2.0180
  433SOL    HW2 1731   0.739   2.881   1.481 -1.6780 -1.4284  0.7290
  433SOL     MW 1732   0.652   2.923   1.473 -0.6911 -0.1804 -0.1800
  434SOL     OW 1733   1.518   2.827   1.628  0.8020  0.4517  0.1974
  434SOL    HW1 1734   1.438   2.873   1.643  0.0009  0.2821  0.5959
  434SOL    HW2 1735   1.505   2.792   1.536  0.5382  1.4236 -1.2185
  434SOL     MW 1736   1.506   2.828   1.618  0.6615  0.5575  0.0632
  435SOL     OW 1737   2.748   1.768   0.213 -0.4643 -0.3388 -0.0176
  435SOL    HW1 1738   2.787   1.833   0.162  2.1455  1.0867  1.1966
  435SOL    HW2 1739   2.656   1.787   0.199  1.1937  0.0416 -3.1441
  435SOL     MW 1740   2.741   1.779   0.205  0.0988 -0.1005 -0.2699
  436SOL     OW 1741   1.354   2.701   0.330 -0.6557  0.4074 -0.2427
  436SOL    HW1 1742   1.376   2.658   0.411 -0.9345 -1.0145 -1.7056
  436SOL    HW2 1743   1.357   2.792   0.358  0.6454  0.0378 -0.9841
  436SOL     MW 1744   1.358   2.708   0.344 -0.5208  0.1711 -0.5335
  437SOL     OW 1745   1.050   2.997   1.292 -0.4795  0.5835 -0.2137
  437SOL    HW1 1746   1.068   3.042   1.212 -1.2199  0.7160 -0.0202
  437SOL    HW2 1747   1.005   2.919   1.268 -0.7707  2.4521 -1.5132
  437SOL     MW 1748   1.046   2.993   1.278 -0.6156  0.8475 -0.3596
  438SOL     OW 1749   0.907   2.712   1.910  0.0794  0.2335  0.0738
  438SOL    HW1 1750   0.874   2.678   1.997 -0.0436 -1.3766 -1.0957
  438SOL    HW2 1751   0.849   2.664   1.855 -0.4117 -2.3919  2.6516
  438SOL     MW 1752   0.895   2.701   1.914 -0.0016 -0.3253  0.2596
  439SOL     OW 1753   1.230   2.078   0.424  0.0285 -0.2311  0.2142
  439SOL    HW1 1754   1.145   2.082   0.472 -1.2325  0.5112 -0.2794
  439SOL    HW2 1755   1.216   2.151   0.356  0.8947  1.2452  1.1335
  439SOL     MW 1756   1.217   2.088   0.421 -0.0236  0.0616  0.2703
  440SOL     OW 1757   1.775   2.955   3.028 -0.7937 -0.4790 -0.0750
  440SOL    HW1 1758   1.777   2.931   3.121  0.5712 -3.5661 -0.0488
  440SOL    HW2 1759   1.864   2.962   2.995  0.7803  1.1589 -1.9080
  440SOL     MW 1760   1.787   2.953   3.036 -0.4060 -0.6702 -0.3134
  441SOL     OW 1761   0.414   2.648   0.424  1.0803 -0.2275  0.1879
  441SOL    HW1 1762   0.394   2.616   0.342 -0.2002 -0.3614 -0.0989
  441SOL    HW2 1763   0.429   2.741   0.406  2.9740 -1.8948  1.4479
  441SOL     MW 1764   0.414   2.656   0.411  1.1612 -0.4651  0.3163
  442SOL     OW 1765   0.029   2.327   0.635  0.3121  0.4608  0.5830
  442SOL    HW1 1766   0.047   2.423   0.633  2.0299  3.7941 -1.7255
  442SOL    HW2 1767  -0.065   2.321   0.651 -1.0859  2.1047  0.1394
  442SOL     MW 1768   0.019   2.339   0.637  0.3543  1.1175  0.2199
  443SOL     OW 1769   1.480   1.785   1.888 -0.2895 -0.4182 -0.5533
  443SOL    HW1 1770   1.462   1.814   1.802  1.0788  0.9038  1.3178
  443SOL    HW2 1771   1.489   1.689   1.878 -2.3590  0.0227  0.2346
  443SOL     MW 1772   1.478   1.776   1.876 -0.3820 -0.1856 -0.2025
  444SOL     OW 1773   0.993   2.608   1.636  0.3629 -0.2800 -0.4268
  444SOL    HW1 1774   1.044   2.568   1.708 -1.2113  0.1279  1.8628
  444SOL    HW2 1775   0.911   2.598   1.683 -0.9963  0.5552  0.6196
  444SOL     MW 1776   0.989   2.601   1.652 -0.0241 -0.1160  0.0133
  445SOL     OW 1777   1.257   0.153   1.410  0.1186  0.3763  0.0347
  445SOL    HW1 1778   1.197   0.205   1.459  1.9663  0.2418  1.3308
  445SOL    HW2 1779   1.232   0.184   1.322 -2.9853 -1.8876 -1.0807
  445SOL     MW 1780   1.246   0.164   1.405 -0.0472  0.0599  0.0586
  446SOL     OW 1781   2.781   2.845   1.044 -0.2527  0.2692 -0.5699
  446SOL    HW1 1782   2.721   2.880   0.979  0.3110  1.2123 -1.3908
  446SOL    HW2 1783   2.821   2.773   1.003 -0.2653  2.6988  1.9005
  446SOL     MW 1784   2.778   2.840   1.030 -0.1800  0.7142 -0.3522
  447SOL     OW 1785   0.032   1.937   1.551  0.8358 -0.1214  0.0062
  447SOL    HW1 1786   0.049   1.864   1.616  1.3772  1.1546  3.4325
  447SOL    HW2 1787  -0.048   1.903   1.505 -1.0565 -3.0277 -0.9020
  447SOL     MW 1788   0.024   1.923   1.554  0.6576 -0.3365  0.3384
  448SOL     OW 1789   1.757   2.401   1.670 -0.8581 -0.1253 -0.0090
  448SOL    HW1 1790   1.695   2.334   1.651 -1.0151  2.8126 -0.9143
  448SOL    HW2 1791   1.704   2.477   1.668 -1.6657  0.7632 -1.4357
  448SOL     MW 1792   1.742   2.402   1.668 -0.9854  0.3796 -0.3167
  449SOL     OW 1793   0.878   2.934   0.401 -0.1760  0.4782  0.2579
  449SOL    HW1 1794   0.816   2.917   0.329  0.1222 -0.0357  1.1003
  449SOL    HW2 1795   0.824   2.955   0.476  0.4700 -1.5026 -0.4701
  449SOL     MW 1796   0.862   2.934   0.401 -0.0514  0.1491  0.2730
  450SOL     OW 1797   1.175   2.494   0.773 -0.6726  0.5199 -0.1595
  450SOL    HW1 1798   1.201   2.438   0.852  0.4355 -2.4387  1.2034
  450SOL    HW2 1799   1.246   2.468   0.713 -0.0204 -1.5686  1.6338
  450SOL     MW 1800   1.188   2.483   0.776 -0.4404 -0.1460  0.2569
  451SOL     OW 1801   0.528   1.930   1.701  0.2913 -0.9993 -0.0782
  451SOL    HW1 1802   0.580   1.874   1.642  0.3476  1.1885  1.0549
  451SOL    HW2 1803   0.441   1.934   1.653 -0.1440  1.2501 -2.8367
  451SOL     MW 1804   0.523   1.923   1.687  0.2413 -0.4138 -0.2927
  452SOL     OW 1805   0.345   2.610   0.021 -0.1944  0.2796 -0.0599
  452SOL    HW1 1806   0.423   2.644   0.063  0.7153  1.4751  0.2341
  452SOL    HW2 1807   0.278   2.681   0.006 -2.6822  0.9982 -2.7802
  452SOL     MW 1808   0.347   2.624   0.025 -0.4026  0.5322 -0.3800
  453SOL     OW 1809   0.294   3.067   1.563 -0.3277 -0.3834 -0.1049
  453SOL    HW1 1810   0.320   3.001   1.629 -1.0104 -0.2329  0.7378
  453SOL    HW2 1811   0.325   3.026   1.478 -0.6947 -1.7889 -1.1112
  453SOL     MW 1812   0.301   3.053   1.560 -0.4662 -0.5490 -0.1265
  454SOL     OW 1813   0.921   2.760   1.241  0.3214 -0.1945  0.0608
  454SOL    HW1 1814   0.903   2.679   1.302  1.3464 -0.9130  2.3942
  454SOL    HW2 1815   0.843   2.804   1.204 -0.2976 -0.8334  0.3616
  454SOL     MW 1816   0.908   2.755   1.244  0.3750 -0.3736  0.4084
  455SOL     OW 1817   1.740   2.885   0.206  0.6628 -0.3028 -0.5338
  455SOL    HW1 1818   1.780   2.862   0.292 -0.2872  2.0068 -1.8869
  455SOL    HW2 1819   1.673   2.814   0.187  1.0154  0.6459 -2.4985
  455SOL     MW 1820   1.736   2.873   0.215  0.5840  0.1271 -0.9715
  456SOL     OW 1821   2.756   0.274   1.462  0.3633  0.0055  0.0522
  456SOL    HW1 1822   2.771   0.208   1.389  1.9095 -2.2110 -0.2766
  456SOL    HW2 1823   2.810   0.347   1.438 -1.9543 -1.5927 -0.0372
  456SOL     MW 1824   2.765   0.275   1.449  0.2615 -0.4978 -0.0030
  457SOL     OW 1825   0.788   1.700   3.052 -0.4033  0.0986 -0.4103
  457SOL    HW1 1826   0.695   1.680   3.043 -1.0787 -1.6353  0.3815
  457SOL    HW2 1827   0.796   1.747   3.132  2.1231  1.3995 -2.7460
  457SOL     MW 1828   0.777   1.703   3.062 -0.1591  0.0415 -0.6140
  458SOL     OW 1829   1.359   1.488   0.702 -0.4904  0.7072  0.0690
  458SOL    HW1 1830   1.296   1.539   0.654  3.3104 -0.3887  0.8097
  458SOL    HW2 1831   1.332   1.399   0.687 -0.8888  2.0583  0.6416
  458SOL     MW 1832   1.347   1.483   0.694 -0.0415  0.7409  0.2423
  459SOL     OW 1833   1.585   3.093   0.254  0.3807 -0.2023  0.0234
  459SOL    HW1 1834   1.644   3.015   0.244  0.4033 -1.1590 -2.2246
  459SOL    HW2 1835   1.549   3.115   0.160 -1.2925  0.5299  0.2241
  459SOL     MW 1836   1.588   3.086   0.240  0.1629 -0.2319 -0.2467
  460SOL     OW 1837   1.789   2.229   0.649 -0.3156 -0.0941  0.3633
  460SOL    HW1 1838   1.710   2.195   0.685  0.0358  0.0343 -0.7540
  460SOL    HW2 1839   1.845   2.153   0.620  0.9845 -0.2889  1.3315
  460SOL     MW 1840   1.786   2.215   0.650 -0.0977 -0.1029  0.3436
  461SOL     OW 1841   0.437   2.426   0.608 -0.3178 -0.4546 -0.6715
  461SOL    HW1 1842   0.412   2.492   0.546 -0.6709  1.1914 -0.8797
  461SOL    HW2 1843   0.446   2.463   0.697  1.3143  0.3469 -0.6422
  461SOL     MW 1844   0.435   2.439   0.611 -0.1491 -0.1317 -0.6951
  462SOL     OW 1845   0.284   0.230   1.306 -0.5014  0.2066 -0.1793
  462SOL    HW1 1846   0.329   0.207   1.224 -3.1452  1.3627 -4.2016
  462SOL    HW2 1847   0.361   0.253   1.357  0.3117 -1.5243 -1.9329
  462SOL     MW 1848   0.300   0.230   1.302 -0.7429  0.1308 -0.9414
  463SOL     OW 1849   1.067   0.068   0.749  0.0260  0.0920  0.4892
  463SOL    HW1 1850   1.134   0.073   0.683  0.9145  0.4234 -0.4393
  463SOL    HW2 1851   0.982   0.078   0.704  2.2322  1.4807 -1.8628
  463SOL     MW 1852   1.065   0.070   0.734  0.4343  0.3190  0.0563
  464SOL     OW 1853   0.774   3.097   2.278 -0.2329 -0.3228  0.0888
  464SOL    HW1 1854   0.756   3.005   2.297 -1.5269  2.5853  1.9785
  464SOL    HW2 1855   0.819   3.139   2.353 -0.8797  0.5580 -3.8929
  464SOL     MW 1856   0.777   3.090   2.290 -0.4890  0.1771 -0.1872
  465SOL     OW 1857   0.781   0.332   0.409 -0.0330  0.4790  0.0479
  465SOL    HW1 1858   0.786   0.265   0.484  3.0961  1.1548  0.8527
  465SOL    HW2 1859   0.743   0.278   0.344  1.2607  2.6371 -2.4378
  465SOL     MW 1860   0.777   0.316   0.411  0.5505  0.8529 -0.1739
  466SOL     OW 1861   1.092   2.033   0.781  0.3816  0.0545  0.3538
  466SOL    HW1 1862   1.079   1.950   0.743 -1.0051  2.2195  0.6392
  466SOL    HW2 1863   1.067   2.098   0.709 -0.8643 -0.5361 -0.5047
  466SOL     MW 1864   1.087   2.030   0.767  0.0343  0.2623  0.2782
  467SOL     OW 1865   1.275   2.316   0.983  0.3966 -0.0243 -0.6035
  467SOL    HW1 1866   1.363   2.329   1.020  0.8254 -0.8803 -0.0010
  467SOL    HW2 1867   1.264   2.226   0.947  2.2457 -1.1431 -0.5559
  467SOL     MW 1868   1.285   2.306   0.983  0.6972 -0.2849 -0.5177
  468SOL     OW 1869   0.510   2.660   1.882  0.5059 -0.1501 -0.4935
  468SOL    HW1 1870   0.486   2.567   1.862 -3.0999 -0.1366 -0.5548
  468SOL    HW2 1871   0.431   2.705   1.867 -1.9148  2.5048  0.1466
  468SOL     MW 1872   0.496   2.654   1.877 -0.2892  0.2020 -0.4172
  469SOL     OW 1873   0.383   2.111   1.853 -0.7362 -0.4396  0.0357
  469SOL    HW1 1874   0.297   2.068   1.873  0.8781  1.5915  0.1705
  469SOL    HW2 1875   0.441   2.045   1.812  1.4567  0.5672 -1.3934
  469SOL     MW 1876   0.380   2.096   1.850 -0.2339 -0.0388 -0.1351
  470SOL     OW 1877   3.050   2.614   0.102 -0.0932  0.0655 -0.3102
  470SOL    HW1 1878   2.974   2.611   0.166  0.2818 -0.9234  0.4629
  470SOL    HW2 1879   3.018   2.629   0.008 -2.0405 -2.2186 -2.0532
  470SOL     MW 1880   3.036   2.615   0.098 -0.3006 -0.3663 -0.4382
  471SOL     OW 1881   1.172   2.603   1.398 -0.1039  0.7464 -0.5784
  471SOL    HW1 1882   1.123   2.580   1.477 -0.7917 -0.5257  0.8955
  471SOL    HW2 1883   1.165   2.536   1.336 -0.0802  1.5521 -1.4815
  471SOL     MW 1884   1.164   2.591   1.400 -0.1915  0.6849 -0.5031
  472SOL     OW 1885   2.846   2.116   0.355  0.5517  0.5684 -0.1106
  472SOL    HW1 1886   2.838   2.093   0.264  4.2627 -0.3160  0.4601
  472SOL    HW2 1887   2.843   2.039   0.403 -1.7038  1.0429  1.1949
  472SOL     MW 1888   2.844   2.103   0.349  0.7438  0.5143  0.1369
  473SOL     OW 1889   0.812   2.564   1.404 -0.2016  0.1279 -0.1080
  473SOL    HW1 1890   0.816   2.473   1.373 -0.8687  0.9949 -0.9232
  473SOL    HW2 1891   0.848   2.558   1.496  2.3448  1.1714  1.4578
  473SOL     MW 1892   0.817   2.551   1.412  0.0464  0.3800 -0.0089
  474SOL     OW 1893   0.676   2.316   1.792  0.1584  0.2335  0.5407
  474SOL    HW1 1894   0.763   2.302   1.838  2.0858  0.8667  0.1628
  474SOL    HW2 1895   0.684   2.268   1.712 -0.9413 -0.8026  4.3329
  474SOL     MW 1896   0.689   2.308   1.788  0.2676  0.1803  0.9912
  475SOL     OW 1897   1.604   3.077   1.525 -0.4853 -0.3224  0.6116
  475SOL    HW1 1898   1.523   3.067   1.471 -0.9848 -5.0073 -0.0972
  475SOL    HW2 1899   1.620   2.985   1.556 -0.0144 -1.3140 -1.5030
  475SOL     MW 1900   1.595   3.063   1.522 -0.4891 -1.0713  0.2391
  476SOL     OW 1901   1.419   2.604   1.120  0.3922  0.5184  0.9702
  476SOL    HW1 1902   1.321   2.633   1.129 -0.1949 -1.8630 -0.1538
  476SOL    HW2 1903   1.466   2.670   1.067  0.3349  3.2412  0.3887
  476SOL     MW 1904   1.412   2.617   1.114  0.3072  0.5634  0.7452
  477SOL     OW 1905   0.850   2.569   0.639  0.1805 -0.0916 -0.5492
  477SOL    HW1 1906   0.917   2.607   0.581 -1.8323  0.2990 -0.2767
  477SOL    HW2 1907   0.831   2.487   0.604  1.9759 -0.7794  0.5136
  477SOL     MW 1908   0.856   2.563   0.627  0.1518 -0.1308 -0.3730
  478SOL     OW 1909   0.200   2.663   0.946  0.5469  0.3719  0.0618
  478SOL    HW1 1910   0.230   2.747   0.903 -0.3590  1.4770 -0.7323
  478SOL    HW2 1911   0.261   2.591   0.920 -0.9458 -1.2529 -1.1520
  478SOL     MW 1912   0.212   2.664   0.937  0.2304  0.3033 -0.2031
  479SOL     OW 1913   1.416   1.992   1.283 -0.3606  0.3852 -0.0649
  479SOL    HW1 1914   1.397   2.019   1.371 -0.9749 -1.6818 -0.8491
  479SOL    HW2 1915   1.474   1.915   1.294  0.0231  1.9466 -1.3806
  479SOL     MW 1916   1.421   1.986   1.296 -0.3910  0.3185 -0.3419
  480SOL     OW 1917   2.010   2.457   1.321 -0.2017  0.2920  0.5029
  480SOL    HW1 1918   2.009   2.358   1.336  1.1296 -1.2236  1.7174
  480SOL    HW2 1919   2.034   2.472   1.230 -1.4129  2.1091 -1.2400
  480SOL     MW 1920   2.013   2.446   1.311 -0.1858  0.3318  0.4332
  481SOL     OW 1921   1.034   0.075   1.058  0.3563  0.6612  0.5089
  481SOL    HW1 1922   1.097   0.015   1.017 -0.4354  0.5391 -1.8197
  481SOL    HW2 1923   1.093   0.141   1.087 -1.1703  1.5236 -0.1480
  481SOL     MW 1924   1.050   0.076   1.057  0.0504  0.7589  0.1150
  482SOL     OW 1925   1.106   3.078   0.288  0.2675  0.4554 -0.2338
  482SOL    HW1 1926   1.015   3.042   0.309 -0.1337 -1.2842  1.8007
  482SOL    HW2 1927   1.096   3.169   0.305 -1.4122 -0.5229  0.7230
  482SOL     MW 1928   1.093   3.085   0.293 -0.0071  0.0968  0.1609
  483SOL     OW 1929   0.410   2.986   0.435  0.2737  0.4336  0.2848
  483SOL    HW1 1930   0.323   2.996   0.389 -2.6810  0.3035 -0.8322
  483SOL    HW2 1931   0.399   3.022   0.523 -2.9825  0.6811  1.4779
  483SOL     MW 1932   0.397   2.992   0.440 -0.5458  0.4491  0.2948
  484SOL     OW 1933   1.877   1.942   1.509  0.1419  0.2161 -0.0818
  484SOL    HW1 1934   1.887   2.011   1.439 -0.7119  0.8743  0.3901
  484SOL    HW2 1935   1.840   1.981   1.586  0.3111  1.0865  0.4560
  484SOL     MW 1936   1.873   1.956   1.510  0.0516  0.4178  0.0514
  485SOL     OW 1937   0.569   2.367   0.240  0.0541  0.7922 -0.2564
  485SOL    HW1 1938   0.604   2.348   0.331 -0.4843  1.8039  1.1256
  485SOL    HW2 1939   0.477   2.393   0.257  0.8553  0.2382 -1.0433
  485SOL     MW 1940   0.561   2.368   0.254  0.0888  0.8526 -0.1779
  486SOL     OW 1941   0.176   2.416   1.488  0.2959  0.5233  0.1150
  486SOL    HW1 1942   0.227   2.492   1.468 -0.8716  1.5034  2.1695
  486SOL    HW2 1943   0.150   2.408   1.584  1.5656 -1.2078  0.3853
  486SOL     MW 1944   0.179   2.425   1.498  0.3094  0.4242  0.4217
  487SOL     OW 1945   1.210   1.713   1.043  0.0763  0.1132 -0.2357
  487SOL    HW1 1946   1.179   1.797   1.081 -4.9626  1.4075 -0.9476
  487SOL    HW2 1947   1.305   1.729   1.039  0.3027  0.3803 -0.4629
  487SOL     MW 1948   1.218   1.726   1.048 -0.5587  0.3192 -0.3596
  488SOL     OW 1949   1.618   1.827   0.565  0.1860 -0.3741 -0.3309
  488SOL    HW1 1950   1.684   1.817   0.494  1.9602  1.5410 -1.4232
  488SOL    HW2 1951   1.571   1.914   0.548 -0.3290 -1.2397 -0.6312
  488SOL     MW 1952   1.620   1.837   0.554  0.3521 -0.2357 -0.5146
  489SOL     OW 1953   0.777   0.844   0.621  0.5586 -0.1352 -0.2536
  489SOL    HW1 1954   0.804   0.766   0.568 -1.5584  0.2531 -0.8456
  489SOL    HW2 1955   0.743   0.809   0.701  0.8356  1.4405 -1.3361
  489SOL     MW 1956   0.776   0.829   0.624  0.3158  0.1239 -0.4746
  490SOL     OW 1957   1.482   2.057   0.507 -0.2768  0.2533  0.4947
  490SOL    HW1 1958   1.493   2.131   0.445  1.7288  2.4318 -0.3888
  490SOL    HW2 1959   1.388   2.033   0.488  2.0612  1.8234  0.2802
  490SOL     MW 1960   1.471   2.064   0.496  0.2963  0.7479  0.3498
  491SOL     OW 1961   1.294   2.963   0.435 -0.7293  0.0069 -0.2000
  491SOL    HW1 1962   1.360   3.035   0.446  0.4671  4.4509 -1.4011
  491SOL    HW2 1963   1.220   3.006   0.387  0.9497  0.2601  0.8366
  491SOL     MW 1964   1.293   2.978   0.430 -0.3499  0.6267 -0.2217
  492SOL     OW 1965   1.503   2.187   0.730  0.7785  0.1951 -0.0855
  492SOL    HW1 1966   1.497   2.129   0.654  1.2872 -0.7720 -0.9912
  492SOL    HW2 1967   1.487   2.125   0.802 -1.5730  1.0060 -1.4139
  492SOL     MW 1968   1.500   2.171   0.729  0.5354  0.1745 -0.3802
  493SOL     OW 1969   0.159   3.001   0.333 -0.1415 -0.5498 -0.1546
  493SOL    HW1 1970   0.115   3.064   0.395 -2.3580 -0.1653 -0.1657
  493SOL    HW2 1971   0.174   3.050   0.256 -1.1309 -4.4088 -1.0430
  493SOL     MW 1972   0.155   3.016   0.331 -0.5645 -1.0082 -0.2732
  494SOL     OW 1973   0.425   2.427   1.767 -0.2759  0.9319 -0.3752
  494SOL    HW1 1974   0.501   2.371   1.795 -1.7671 -0.5102  2.5674
  494SOL    HW2 1975   0.429   2.429   1.670  1.6288  1.5247 -1.1834
  494SOL     MW 1976   0.436   2.420   1.758 -0.2213  0.8198 -0.0936
  495SOL     OW 1977   2.862   1.704   2.593 -0.8124  0.2685  0.1015
  495SOL    HW1 1978   2.830   1.793   2.580 -1.5652  2.4026  1.7237
  495SOL    HW2 1979   2.836   1.667   2.679  0.3767 -0.2979 -2.6873
  495SOL     MW 1980   2.854   1.711   2.603 -0.7548  0.4753 -0.0524
  496SOL     OW 1981   2.928   2.366   2.696  0.2308 -0.1536 -0.5451
  496SOL    HW1 1982   2.980   2.300   2.753  0.9709 -1.5941 -2.9120
  496SOL    HW2 1983   2.989   2.438   2.676 -1.6076  1.5626  0.9938
  496SOL     MW 1984   2.943   2.367   2.701  0.0859 -0.1172 -0.6544
  497SOL     OW 1985   1.609   2.200   2.618 -0.6348  0.0704 -0.1845
  497SOL    HW1 1986   1.535   2.156   2.583  0.6587  0.5728 -0.9426
  497SOL    HW2 1987   1.627   2.152   2.699 -0.0377  0.6079  1.8258
  497SOL     MW 1988   1.602   2.188   2.624 -0.3853  0.2076 -0.0193
  498SOL     OW 1989   1.454   2.694   2.356  0.4103 -0.5259  0.6683
  498SOL    HW1 1990   1.433   2.602   2.367  1.1446 -1.4976  0.7586
  498SOL    HW2 1991   1.550   2.694   2.358 -2.0706  1.7915 -3.2167
  498SOL     MW 1992   1.464   2.682   2.357  0.1799 -0.3484  0.1676
  499SOL     OW 1993   1.009   0.146   3.073  0.3482  0.4774 -0.4674
  499SOL    HW1 1994   0.961   0.156   3.155 -1.9028  0.8843  3.4919
  499SOL    HW2 1995   1.038   0.051   3.080 -0.8522 -2.6295  0.3141
  499SOL     MW 1996   1.007   0.135   3.085 -0.1071  0.1212  0.1581
  500SOL     OW 1997   1.122   2.498   2.755 -0.2937 -0.4574  0.0021
  500SOL    HW1 1998   1.181   2.477   2.827 -1.4255 -3.2359  0.9801
  500SOL    HW2 1999   1.039   2.502   2.801  0.4753  1.7353 -0.8903
  500SOL     MW 2000   1.119   2.496   2.771 -0.3416 -0.5347  0.0134
  501SOL     OW 2001   1.821   2.208   3.091 -0.0643 -0.4718  0.2040
  501SOL    HW1 2002   1.766   2.283   3.118  0.7519 -1.7990 -0.8457
  501SOL    HW2 2003   1.912   2.231   3.126 -0.7083  1.9380 -2.6817
  501SOL     MW 2004   1.826   2.221   3.099 -0.0416 -0.3290 -0.3152
  502SOL     OW 2005   0.155   2.834   3.081 -0.0745 -0.1583 -0.3168
  502SOL    HW1 2006   0.089   2.785   3.032  0.9775  1.2094  2.7656
  502SOL    HW2 2007   0.211   2.884   3.014  0.4753 -2.1067  1.6991
  502SOL     MW 2008   0.154   2.834   3.066  0.1368 -0.2349  0.3559
  503SOL     OW 2009   1.014   2.838   2.170 -0.4395  0.6753 -0.2695
  503SOL    HW1 2010   1.028   2.782   2.091  1.0362  0.9740 -2.3658
  503SOL    HW2 2011   1.003   2.930   2.165 -0.2122 -1.4016  0.6084
  503SOL     MW 2012   1.014   2.843   2.159 -0.2148  0.4407 -0.4303
  504SOL     OW 2013   0.048   2.693   2.116 -0.2254 -0.0349  0.6104
  504SOL    HW1 2014   0.086   2.618   2.071  0.1785  2.5776 -1.6356
  504SOL    HW2 2015   0.023   2.657   2.199 -1.9919  3.4246 -1.6022
  504SOL     MW 2016   0.050   2.678   2.121 -0.4051  0.7662  0.0221
  505SOL     OW 2017   1.689   2.685   2.687  0.2866 -0.2640 -0.0756
  505SOL    HW1 2018   1.692   2.732   2.601  0.4874  0.4449 -2.5724
  505SOL    HW2 2019   1.605   2.718   2.727  0.1916 -1.3649  1.9678
  505SOL     MW 2020   1.678   2.695   2.681  0.3005 -0.3157 -0.1354
  506SOL     OW 2021   1.605   3.019   2.831 -0.3701 -0.6221 -0.4946
  506SOL    HW1 2022   1.668   3.003   2.903  0.0362  0.1594 -0.5847
  506SOL    HW2 2023   1.662   3.001   2.754 -1.5110  1.2437 -0.0589
  506SOL     MW 2024   1.621   3.014   2.831 -0.4670 -0.2728 -0.4490
  507SOL     OW 2025   0.867   2.730   2.849 -0.4891  0.4585 -0.0878
  507SOL    HW1 2026   0.898   2.798   2.782 -2.2821 -1.8106 -0.6833
  507SOL    HW2 2027   0.789   2.759   2.892 -3.0451 -0.1100 -0.8474
  507SOL     MW 2028   0.861   2.743   2.846 -1.0629  0.0841 -0.2666
  508SOL     OW 2029   1.137   2.066   2.520 -0.2465 -0.6271 -0.1401
  508SOL    HW1 2030   1.223   2.044   2.562  0.5446  0.3060  0.4674
  508SOL    HW2 2031   1.094   2.145   2.559  2.2996  0.0320  0.7256
  508SOL     MW 2032   1.142   2.074   2.531  0.1938 -0.4170  0.0543
  509SOL     OW 2033   0.610   2.560   2.908  0.3861  0.3519  0.5745
  509SOL    HW1 2034   0.585   2.502   2.832 -3.1269 -1.6720 -0.2747
  509SOL    HW2 2035   0.543   2.537   2.976  0.8770 -0.5740  1.0049
  509SOL     MW 2036   0.598   2.549   2.907 -0.0127 -0.0373  0.5192
  510SOL     OW 2037   1.514   2.579   1.692  0.5061 -0.0641  0.1118
  510SOL    HW1 2038   1.505   2.670   1.668 -2.9135 -1.6419  2.4506
  510SOL    HW2 2039   1.473   2.568   1.778 -0.0112 -2.4015 -2.9869
  510SOL     MW 2040   1.507   2.590   1.701 -0.0133 -0.5807  0.0115
  511SOL     OW 2041   0.412   2.606   2.430 -0.2492 -0.6368 -0.0455
  511SOL    HW1 2042   0.497   2.583   2.468 -0.5841  2.0778 -1.8410
  511SOL    HW2 2043   0.439   2.651   2.352  2.3319  2.4040 -0.5401
  511SOL     MW 2044   0.427   2.609   2.425  0.0472  0.1226 -0.3477
  512SOL     OW 2045   1.023   1.984   2.841 -0.4908 -0.3960 -0.5611
  512SOL    HW1 2046   0.936   2.021   2.850 -0.0947 -0.9025 -1.9635
  512SOL    HW2 2047   1.013   1.892   2.865  1.4331 -0.0522  1.8274
  512SOL     MW 2048   1.010   1.977   2.845 -0.1847 -0.4175 -0.4310
  513SOL     OW 2049   1.475   2.416   2.393 -0.3196 -0.3477  0.1325
  513SOL    HW1 2050   1.569   2.418   2.411 -2.8117 -0.2967  1.5989
  513SOL    HW2 2051   1.442   2.331   2.423 -3.9751  0.4771 -1.3461
  513SOL     MW 2052   1.483   2.405   2.399 -1.1307 -0.2321  0.1309
  514SOL     OW 2053   0.272   2.462   2.633 -0.2638  0.0755  0.2302
  514SOL    HW1 2054   0.315   2.532   2.590 -3.1740 -1.7486  2.1268
  514SOL    HW2 2055   0.297   2.463   2.726 -2.1876 -2.7564 -0.8342
  514SOL     MW 2056   0.281   2.471   2.640 -0.9016 -0.5388  0.3400
  515SOL     OW 2057   1.049   2.057   1.910  0.4191 -0.2301  1.3461
  515SOL    HW1 2058   0.992   2.137   1.901  1.7245 -1.0488 -0.4904
  515SOL    HW2 2059   1.135   2.084   1.952 -1.1192 -1.2310  2.3260
  515SOL     MW 2060   1.053   2.071   1.914  0.3884 -0.4702  1.2331
  516SOL     OW 2061   1.463   2.503   3.049 -0.5343  0.2796  0.9792
  516SOL    HW1 2062   1.526   2.502   2.971  3.5769  0.8730 -0.1023
  516SOL    HW2 2063   1.380   2.472   3.011 -1.7049  0.6811  0.8807
  516SOL     MW 2064   1.461   2.499   3.034 -0.1463  0.4108  0.8235
  517SOL     OW 2065   0.583   2.398   2.135  0.1852 -0.1907  0.1734
  517SOL    HW1 2066   0.539   2.474   2.167  0.4087 -0.4176  0.4108
  517SOL    HW2 2067   0.507   2.347   2.125  1.8127 -1.0556  1.9417
  517SOL     MW 2068   0.567   2.402   2.138  0.4294 -0.3348  0.4381
  518SOL     OW 2069   1.904   0.130   2.930 -0.1705 -0.4838 -0.1530
  518SOL    HW1 2070   1.843   0.180   2.873  0.6824 -0.2553 -0.6962
  518SOL    HW2 2071   1.853   0.107   3.007  0.9935 -2.1270  0.7272
  518SOL     MW 2072   1.889   0.133   2.933  0.0956 -0.6704 -0.1086
  519SOL     OW 2073   0.731   2.583   1.743 -0.3527  0.0082  0.1674
  519SOL    HW1 2074   0.708   2.491   1.756 -1.5658 -2.9796  1.9843
  519SOL    HW2 2075   0.657   2.635   1.785 -0.6523 -1.8073  2.8575
  519SOL     MW 2076   0.718   2.578   1.750 -0.5523 -0.6256  0.7620
  520SOL     OW 2077   1.273   2.116   2.955  0.3493 -0.5055  0.1595
  520SOL    HW1 2078   1.209   2.061   2.912 -1.8597  1.5635  2.3408
  520SOL    HW2 2079   1.319   2.072   3.029 -1.5545  0.6800 -0.8371
  520SOL     MW 2080   1.271   2.103   2.959 -0.1933 -0.0761  0.3158
  521SOL     OW 2081   1.735   2.067   2.247  0.1957 -0.6579  0.1767
  521SOL    HW1 2082   1.725   2.096   2.157  0.4568  0.1018  1.0578
  521SOL    HW2 2083   1.762   1.977   2.230  2.1702 -0.2446 -1.6914
  521SOL     MW 2084   1.737   2.059   2.233  0.4907 -0.5031  0.0465
  522SOL     OW 2085   2.830   2.565   2.188  0.2314 -0.4668  0.4042
  522SOL    HW1 2086   2.916   2.533   2.208 -1.4471  4.1028 -1.4255
  522SOL    HW2 2087   2.793   2.588   2.275 -0.6980 -0.3106 -0.3039
  522SOL     MW 2088   2.837   2.564   2.202 -0.1127  0.1567  0.0693
  523SOL     OW 2089   0.850   1.505   2.124  0.1865 -0.0388  0.1364
  523SOL    HW1 2090   0.848   1.588   2.075 -0.4848 -2.2181 -2.0937
  523SOL    HW2 2091   0.922   1.455   2.079 -0.5357 -1.6353 -4.5368
  523SOL     MW 2092   0.860   1.509   2.112  0.0026 -0.5370 -0.7744
  524SOL     OW 2093   0.895   2.456   2.936  0.1612 -0.0023  0.2381
  524SOL    HW1 2094   0.828   2.516   2.914 -0.0055  0.0790 -0.7017
  524SOL    HW2 2095   0.860   2.369   2.917 -0.5562 -0.2942  1.1469
  524SOL     MW 2096   0.882   2.452   2.930  0.0446 -0.0301  0.2340
  525SOL     OW 2097   0.355   2.275   2.080 -0.1511 -0.4153 -0.3647
  525SOL    HW1 2098   0.345   2.210   2.153  0.9145 -1.6968  0.7712
  525SOL    HW2 2099   0.385   2.225   1.998  0.0772  1.9028 -0.9678
  525SOL     MW 2100   0.357   2.260   2.079  0.0196 -0.2786 -0.2944
  526SOL     OW 2101   0.681   2.100   1.984 -0.7407 -0.1825  0.1579
  526SOL    HW1 2102   0.656   2.134   1.897 -1.0876 -0.4110 -0.3973
  526SOL    HW2 2103   0.718   2.171   2.042 -0.0287  0.9747  1.3702
  526SOL     MW 2104   0.683   2.114   1.980 -0.6925 -0.0600  0.2446
  527SOL     OW 2105   1.347   1.977   2.044  0.3213  0.3639  0.0832
  527SOL    HW1 2106   1.319   1.946   2.130  0.4038  0.4131  0.4959
  527SOL    HW2 2107   1.392   1.911   1.993 -1.6821 -2.5321  0.0372
  527SOL     MW 2108   1.349   1.964   2.049  0.0679 -0.0117  0.1316
  528SOL     OW 2109   0.647   2.895   2.932  0.4771  0.3114 -0.5556
  528SOL    HW1 2110   0.686   2.980   2.953 -0.1433  0.0393  1.1695
  528SOL    HW2 2111   0.606   2.907   2.850  3.2259  1.0727 -0.1236
  528SOL     MW 2112   0.646   2.907   2.924  0.7579  0.3759 -0.2710
  529SOL     OW 2113   0.917   2.291   1.895 -0.4347 -0.3048 -0.4383
  529SOL    HW1 2114   0.942   2.306   1.983  1.4422 -1.0943 -1.7906
  529SOL    HW2 2115   0.998   2.320   1.844  0.2015 -4.2246  2.5762
  529SOL     MW 2116   0.931   2.297   1.899 -0.1032 -0.9261 -0.2190
  530SOL     OW 2117   1.224   2.422   2.993 -0.2383  0.3384 -0.5138
  530SOL    HW1 2118   1.135   2.447   3.036 -0.2731  0.4304 -0.1551
  530SOL    HW2 2119   1.209   2.325   2.982 -1.1305  0.2650  1.6801
  530SOL     MW 2120   1.210   2.412   2.997 -0.3606  0.3409 -0.1770
  531SOL     OW 2121   0.955   1.860   2.567 -0.0082  0.1409 -0.1965
  531SOL    HW1 2122   0.989   1.946   2.580 -0.1590 -1.0382  1.3942
  531SOL    HW2 2123   0.906   1.836   2.656 -2.7587  0.2293  2.7058
  531SOL     MW 2124   0.953   1.868   2.581 -0.3910 -0.0030  0.3963
  532SOL     OW 2125   1.739   0.296   2.773  0.0331  0.0274 -0.2599
  532SOL    HW1 2126   1.696   0.278   2.690 -0.9898  0.1811  1.4705
  532SOL    HW2 2127   1.813   0.347   2.751  2.1137 -2.4644 -1.9368
  532SOL     MW 2128   1.743   0.300   2.759  0.1727 -0.2811 -0.2528
  533SOL     OW 2129   1.829   2.676   3.052  0.4085 -0.5668  0.3424
  533SOL    HW1 2130   1.777   2.602   3.069  0.3323  1.7858  0.8117
  533SOL    HW2 2131   1.778   2.755   3.042  4.5281 -1.5387  1.9377
  533SOL     MW 2132   1.815   2.677   3.053  0.9420 -0.3846  0.6148
  534SOL     OW 2133   1.740   2.405   2.487 -0.2529 -0.1779 -0.0855
  534SOL    HW1 2134   1.707   2.326   2.541  0.5268 -1.9228  0.2084
  534SOL    HW2 2135   1.827   2.430   2.528  2.6284 -0.8459 -0.8744
  534SOL     MW 2136   1.747   2.397   2.500  0.2301 -0.4962 -0.1508
  535SOL     OW 2137   1.883   2.401   1.906 -0.1804  0.1043  0.3166
  535SOL    HW1 2138   1.828   2.399   1.824 -1.7631  0.2569 -2.1841
  535SOL    HW2 2139   1.968   2.356   1.893 -0.3434 -0.9952  2.0046
  535SOL     MW 2140   1.887   2.395   1.893 -0.4107 -0.0207  0.2094
  536SOL     OW 2141   0.569   1.822   2.068 -0.7970  0.1281  0.6487
  536SOL    HW1 2142   0.542   1.804   1.977  1.5414  1.2302  0.0726
  536SOL    HW2 2143   0.618   1.908   2.057 -0.5353  1.4007  1.4717
  536SOL     MW 2144   0.572   1.831   2.054 -0.4539  0.4414  0.6813
  537SOL     OW 2145   1.088   0.194   2.765  0.1624  0.4640 -0.1206
  537SOL    HW1 2146   1.061   0.227   2.851 -2.3585 -0.3668  2.1536
  537SOL    HW2 2147   1.070   0.266   2.703 -0.8174  0.8415 -1.2354
  537SOL     MW 2148   1.082   0.208   2.768 -0.2995  0.4042  0.0324
  538SOL     OW 2149   1.470   0.058   0.028 -0.1099 -0.3810  0.7882
  538SOL    HW1 2150   1.451   0.149   0.053  2.0267  1.2347  1.4616
  538SOL    HW2 2151   1.387   0.011   0.032  1.0776  1.8244 -1.5791
  538SOL     MW 2152   1.457   0.064   0.032  0.3287  0.1232  0.5647
  539SOL     OW 2153   0.700   2.802   2.571 -0.0406  0.0081 -0.3299
  539SOL    HW1 2154   0.756   2.876   2.599 -1.3019  0.8437  2.0646
  539SOL    HW2 2155   0.743   2.742   2.629 -1.4807  0.1006 -2.7352
  539SOL     MW 2156   0.714   2.804   2.583 -0.3970  0.1305 -0.3313
  540SOL     OW 2157   0.258   2.459   2.893 -0.5881 -0.1387  0.0820
  540SOL    HW1 2158   0.253   2.523   2.962  1.1437  0.7964  0.0077
  540SOL    HW2 2159   0.235   2.369   2.938  0.7667  1.0895  0.6650
  540SOL     MW 2160   0.254   2.456   2.908 -0.1808  0.1467  0.1491
  541SOL     OW 2161   0.214   2.940   2.128  0.3819  0.4533 -0.5698
  541SOL    HW1 2162   0.157   2.861   2.110 -1.6838  0.6600  2.6778
  541SOL    HW2 2163   0.273   2.910   2.193  1.3810 -1.1902 -2.3903
  541SOL     MW 2164   0.214   2.925   2.134  0.2412  0.2638 -0.3815
  542SOL     OW 2165   0.986   2.254   2.677 -0.1762 -0.0219 -0.3830
  542SOL    HW1 2166   0.939   2.226   2.757  0.4666  0.3119  1.2294
  542SOL    HW2 2167   1.046   2.331   2.703 -1.9171  1.2115 -0.4844
  542SOL     MW 2168   0.988   2.261   2.691 -0.3211  0.1849 -0.1836
  543SOL     OW 2169   1.645   2.454   2.816  0.0768  0.2335 -0.6732
  543SOL    HW1 2170   1.684   2.378   2.782 -0.4960  3.6582 -3.4067
  543SOL    HW2 2171   1.660   2.535   2.756 -2.4218  0.1825 -1.4410
  543SOL     MW 2172   1.652   2.455   2.804 -0.3285  0.6786 -1.1351
  544SOL     OW 2173   0.761   0.193   2.708 -0.7754  1.1253 -0.4232
  544SOL    HW1 2174   0.665   0.183   2.690 -0.9788  3.0625 -0.8927
  544SOL    HW2 2175   0.805   0.173   2.622 -0.9864 -1.0498 -0.8827
  544SOL     MW 2176   0.754   0.189   2.694 -0.8301  1.0939 -0.5457
  545SOL     OW 2177   1.469   2.119   2.312  0.4078  0.0593 -0.0362
  545SOL    HW1 2178   1.431   2.130   2.225 -0.1244  0.4037  1.1568
  545SOL    HW2 2179   1.571   2.113   2.294  1.7915  1.2834  0.0920
  545SOL     MW 2180   1.477   2.120   2.298  0.5201  0.2662  0.1381
  546SOL     OW 2181   2.875   1.991   0.093 -0.6886 -0.2493 -0.3565
  546SOL    HW1 2182   2.883   2.076   0.049 -0.6080 -1.4612  0.6709
  546SOL    HW2 2183   2.969   1.951   0.100 -1.2110  1.7878 -0.5392
  546SOL     MW 2184   2.889   1.997   0.088 -0.7469 -0.1404 -0.2450
  547SOL     OW 2185   0.226   0.049   0.097  0.1796  0.1098 -0.1881
  547SOL    HW1 2186   0.303   0.035   0.035  0.6076  0.3384 -1.8413
  547SOL    HW2 2187   0.152   0.019   0.049 -0.9231 -1.5002 -0.0046
  547SOL     MW 2188   0.227   0.043   0.083  0.0906 -0.0725 -0.3820
  548SOL     OW 2189   0.306   2.421   0.221  0.2263  0.2415 -0.2716
  548SOL    HW1 2190   0.327   2.469   0.140 -1.9471 -2.5764 -0.7574
  548SOL    HW2 2191   0.207   2.392   0.205 -0.7920  0.4160  0.6666
  548SOL     MW 2192   0.296   2.424   0.208 -0.1949 -0.1073 -0.2119
  549SOL     OW 2193   0.878   1.948   2.143  0.5408 -0.2362 -0.0793
  549SOL    HW1 2194   0.827   1.999   2.075 -1.8983 -0.7444  0.4063
  549SOL    HW2 2195   0.808   1.943   2.219 -0.5074 -0.4042  0.0618
  549SOL     MW 2196   0.862   1.954   2.144  0.0807 -0.3254  0.0034
  550SOL     OW 2197   1.886   1.767   2.529  0.1813 -0.0738 -0.6224
  550SOL    HW1 2198   1.837   1.782   2.443 -0.5562  0.6547  0.3239
  550SOL    HW2 2199   1.847   1.835   2.589  0.3388  0.1392 -1.2259
  550SOL     MW 2200   1.874   1.778   2.525  0.1048  0.0504 -0.5772
  551SOL     OW 2201   0.864   2.214   0.266  0.2800 -0.1797 -0.4048
  551SOL    HW1 2202   0.951   2.243   0.229 -0.3800  1.2653 -1.0434
  551SOL    HW2 2203   0.822   2.159   0.206  1.0010  1.0916  5.1716
  551SOL     MW 2204   0.870   2.211   0.253  0.2880  0.1787  0.2467
  552SOL     OW 2205   1.765   1.784   2.287  0.0727  0.5085  0.5368
  552SOL    HW1 2206   1.678   1.746   2.304 -2.1732 -1.7482  4.6420
  552SOL    HW2 2207   1.796   1.722   2.211  2.4452 -1.1847 -0.7775
  552SOL     MW 2208   1.757   1.771   2.279  0.0894 -0.0126  0.9050
  553SOL     OW 2209   1.193   2.304   1.540  0.1510  0.3726  0.3287
  553SOL    HW1 2210   1.228   2.209   1.539 -0.0995 -1.2284 -1.2189
  553SOL    HW2 2211   1.271   2.357   1.511  1.5763  0.6191 -0.2577
  553SOL     MW 2212   1.208   2.298   1.536  0.3060  0.1939  0.0471
  554SOL     OW 2213   0.467   2.912   2.699  0.0936 -0.2581  0.5066
  554SOL    HW1 2214   0.445   2.992   2.641  3.5646  1.7969  0.9731
  554SOL    HW2 2215   0.531   2.860   2.651 -1.3375 -1.8025  0.9883
  554SOL     MW 2216   0.473   2.916   2.685  0.3628 -0.1908  0.6317
  555SOL     OW 2217   0.602   2.461   2.572 -0.7593  0.4675  0.2917
  555SOL    HW1 2218   0.558   2.381   2.544 -1.2472  1.4382 -1.8014
  555SOL    HW2 2219   0.694   2.448   2.531 -0.8452 -1.4182  0.4689
  555SOL     MW 2220   0.609   2.449   2.563 -0.8350  0.3468  0.0389
  556SOL     OW 2221   1.033   1.926   0.056  0.1039 -0.1546 -0.2459
  556SOL    HW1 2222   1.047   1.867  -0.014  0.7015  0.5864 -0.3328
  556SOL    HW2 2223   1.101   1.904   0.118 -0.2861  1.1393 -2.5562
  556SOL     MW 2224   1.044   1.915   0.055  0.1313  0.1139 -0.5622
  557SOL     OW 2225   1.023   2.711   0.483 -0.2369 -0.0150  1.1817
  557SOL    HW1 2226   1.066   2.640   0.425  0.7992 -2.5708  1.0195
  557SOL    HW2 2227   1.004   2.789   0.428 -0.8532  0.8602  3.0626
  557SOL     MW 2228   1.026   2.712   0.468 -0.1815 -0.2367  1.4085
  558SOL     OW 2229   0.170   2.254   3.018 -0.0923 -0.2563  0.2513
  558SOL    HW1 2230   0.110   2.223   2.951 -1.7343  1.4156 -0.4959
  558SOL    HW2 2231   0.125   2.250   3.104 -0.0763 -1.4978 -1.4555
  558SOL     MW 2232   0.156   2.249   3.021 -0.3068 -0.1995 -0.0725
  559SOL     OW 2233   1.036   2.356   2.129  0.6287 -0.3189  0.4175
  559SOL    HW1 2234   1.130   2.364   2.101 -0.9041 -0.3250 -1.0505
  559SOL    HW2 2235   1.031   2.271   2.179 -0.6525 -1.5019 -1.4991
  559SOL     MW 2236   1.048   2.346   2.132  0.2574 -0.4758 -0.0291
  560SOL     OW 2237   2.049   2.701   0.138  0.7794 -0.7974 -0.1498
  560SOL    HW1 2238   2.097   2.773   0.104  0.1922  0.6016  3.1302
  560SOL    HW2 2239   1.974   2.699   0.078 -0.4054  1.2518 -0.6381
  560SOL     MW 2240   2.046   2.710   0.125  0.5456 -0.3424  0.2185
  561SOL     OW 2241   0.480   2.129   0.111  0.6677  0.1388 -0.2690
  561SOL    HW1 2242   0.479   2.142   0.019 -0.5098  1.5275  1.4332
  561SOL    HW2 2243   0.521   2.216   0.139 -0.6563  1.0229 -0.3473
  561SOL     MW 2244   0.485   2.142   0.103  0.3376  0.4386 -0.0547
  562SOL     OW 2245   0.680   2.201   2.316  0.2065  0.4451  0.5109
  562SOL    HW1 2246   0.654   2.279   2.271 -0.2679  3.1843 -0.9740
  562SOL    HW2 2247   0.773   2.226   2.330 -1.7751  1.6150 -0.9376
  562SOL     MW 2248   0.689   2.215   2.312 -0.1175  0.9609  0.1238
  563SOL     OW 2249   1.228   0.399   0.562  0.2906 -0.1472 -0.0596
  563SOL    HW1 2250   1.181   0.352   0.489  0.7213 -1.9042  1.0438
  563SOL    HW2 2251   1.193   0.345   0.647 -1.6717 -4.3937 -0.2181
  563SOL     MW 2252   1.217   0.386   0.563  0.0885 -0.9393  0.0650
  564SOL     OW 2253   1.045   2.625   2.372 -0.1654  0.2380 -0.4572
  564SOL    HW1 2254   1.025   2.687   2.306 -1.2127 -2.2256  1.9086
  564SOL    HW2 2255   1.052   2.679   2.454 -0.8233  1.2119  0.9650
  564SOL     MW 2256   1.043   2.641   2.374 -0.3904  0.0414  0.0426
  565SOL     OW 2257   2.766   2.837   2.551  0.1047  0.1312 -0.0876
  565SOL    HW1 2258   2.764   2.919   2.502 -2.0433 -0.8450 -1.3876
  565SOL    HW2 2259   2.743   2.775   2.482 -2.6900  0.2823 -1.8984
  565SOL     MW 2260   2.763   2.840   2.535 -0.5474  0.0223 -0.4980
  566SOL     OW 2261   2.183   1.952   2.329 -0.2857  0.1173  0.6117
  566SOL    HW1 2262   2.192   1.945   2.230  1.3326  1.4626 -0.6418
  566SOL    HW2 2263   2.267   1.996   2.361 -0.5053  1.7627  0.6326
  566SOL     MW 2264   2.195   1.957   2.320 -0.1012  0.5119  0.4491
  567SOL     OW 2265   1.216   3.026   0.016  0.0236 -0.1232  0.7196
  567SOL    HW1 2266   1.195   3.029   0.113  0.1329  0.3762  1.1866
  567SOL    HW2 2267   1.240   2.935  -0.008  0.2576 -2.1232 -0.9299
  567SOL     MW 2268   1.216   3.015   0.025  0.0689 -0.3212  0.5636
  568SOL     OW 2269   1.669   2.070   2.887  0.2290 -0.5039  0.2188
  568SOL    HW1 2270   1.717   2.141   2.939 -1.6149  1.3744  1.2385
  568SOL    HW2 2271   1.732   2.001   2.850 -1.0280 -1.1763 -0.3997
  568SOL     MW 2272   1.684   2.070   2.889 -0.1802 -0.3448  0.2717
  569SOL     OW 2273   0.113   2.295   2.464  0.2496  0.1246 -0.2603
  569SOL    HW1 2274   0.038   2.351   2.438 -0.2930  0.3333  1.2056
  569SOL    HW2 2275   0.146   2.347   2.539  0.8137 -2.5974  0.1403
  569SOL     MW 2276   0.107   2.310   2.471  0.2525 -0.2070 -0.0141
  570SOL     OW 2277   1.518   0.324   0.518  0.1202  0.1625 -0.3816
  570SOL    HW1 2278   1.438   0.370   0.548 -0.3444  1.7414  1.0305
  570SOL    HW2 2279   1.586   0.363   0.571 -1.3580  1.6838 -2.2624
  570SOL     MW 2280   1.516   0.335   0.529 -0.1362  0.5715 -0.4435
  571SOL     OW 2281   1.347   2.372   2.129 -0.0468  0.3481 -0.1189
  571SOL    HW1 2282   1.397   2.376   2.210  1.9056  0.3564  0.6207
  571SOL    HW2 2283   1.387   2.303   2.082 -2.5295 -0.0409  1.2822
  571SOL     MW 2284   1.359   2.364   2.133 -0.1168  0.2978  0.1636
  572SOL     OW 2285   1.038   2.579   0.065  0.4605 -0.0627 -0.1570
  572SOL    HW1 2286   1.014   2.672   0.047 -2.0738  3.6308 -1.3185
  572SOL    HW2 2287   0.950   2.535   0.054  0.5327  0.4325 -0.9494
  572SOL     MW 2288   1.023   2.586   0.061  0.1357  0.4899 -0.4148
  573SOL     OW 2289   1.157   2.248   0.215 -0.1835 -0.7964 -0.2458
  573SOL    HW1 2290   1.221   2.256   0.141 -1.6074  2.1274 -1.1701
  573SOL    HW2 2291   1.165   2.330   0.264 -2.4104  0.8455 -1.2474
  573SOL     MW 2292   1.166   2.260   0.212 -0.6652 -0.1940 -0.4999
  574SOL     OW 2293   1.131   2.524   0.322 -0.1450 -0.4540  0.2530
  574SOL    HW1 2294   1.208   2.571   0.311 -0.3645 -0.2326 -0.6113
  574SOL    HW2 2295   1.070   2.534   0.246  3.3340 -1.4227  1.1477
  574SOL     MW 2296   1.133   2.532   0.310  0.2850 -0.5526  0.2570
  575SOL     OW 2297   3.068   2.194   1.644  0.2442 -0.5093 -0.3737
  575SOL    HW1 2298   3.092   2.117   1.591  2.9058  1.5271 -1.0267
  575SOL    HW2 2299   3.140   2.217   1.702 -1.4451 -1.9677 -0.5346
  575SOL     MW 2300   3.081   2.187   1.645  0.3725 -0.4330 -0.4811
  576SOL     OW 2301   2.846   1.884   1.989  0.4247  0.5540  0.0240
  576SOL    HW1 2302   2.875   1.965   1.936 -0.2169  0.9993 -0.3921
  576SOL    HW2 2303   2.784   1.837   1.931 -0.0048 -1.3981 -3.3533
  576SOL     MW 2304   2.842   1.888   1.974  0.2834  0.3552 -0.4765
  577SOL     OW 2305   2.129   0.226   0.016  0.1360 -0.3088 -0.4187
  577SOL    HW1 2306   2.073   0.221  -0.060 -0.0832 -0.5424  3.4402
  577SOL    HW2 2307   2.064   0.199   0.086 -2.5330  0.5204 -0.2355
  577SOL     MW 2308   2.113   0.222   0.015 -0.2451 -0.2302  0.1146
  578SOL     OW 2309   1.965   2.109   2.392 -0.4909  0.0509 -0.3217
  578SOL    HW1 2310   1.882   2.082   2.347  1.2781  0.4774 -4.8488
  578SOL    HW2 2311   2.040   2.056   2.362 -2.0274 -1.3106  0.3323
  578SOL     MW 2312   1.964   2.099   2.382 -0.4602 -0.0725 -0.8327
  579SOL     OW 2313   0.850   2.440   2.496  0.1788  0.2577 -0.3142
  579SOL    HW1 2314   0.921   2.384   2.531 -1.6473 -1.1532 -0.9978
  579SOL    HW2 2315   0.909   2.504   2.450  0.2777  1.7433 -1.5322
  579SOL     MW 2316   0.867   2.441   2.494 -0.0491  0.2676 -0.5651
  580SOL     OW 2317   0.958   2.819   0.008  0.0104  0.1437  0.1337
  580SOL    HW1 2318   1.027   2.853  -0.045 -1.6214 -0.1401 -1.2153
  580SOL    HW2 2319   0.914   2.770  -0.060  1.4737 -0.4087  0.3236
  580SOL     MW 2320   0.961   2.817  -0.008 -0.0119  0.0334 -0.0192
  581SOL     OW 2321   1.129   2.407   1.787 -0.4041  0.0447  0.0384
  581SOL    HW1 2322   1.204   2.443   1.831 -2.4533 -0.4594 -0.8043
  581SOL    HW2 2323   1.157   2.364   1.699  1.2348 -1.6813 -2.2246
  581SOL     MW 2324   1.142   2.406   1.782 -0.4582 -0.2496 -0.3713
  582SOL     OW 2325   3.098   2.883   2.701 -0.2689  0.5048 -0.4830
  582SOL    HW1 2326   3.025   2.950   2.724  2.2061  3.3135 -1.9659
  582SOL    HW2 2327   3.167   2.893   2.767 -1.1634 -0.8946  1.7316
  582SOL     MW 2328   3.098   2.893   2.713 -0.0604  0.6907 -0.3864
  583SOL     OW 2329   1.976   2.413   2.652 -0.2076 -0.8871 -0.5889
  583SOL    HW1 2330   2.054   2.419   2.590  0.0603  1.9598 -4.0423
  583SOL    HW2 2331   1.966   2.322   2.671 -0.3153 -1.0255 -0.3792
  583SOL     MW 2332   1.985   2.402   2.646 -0.1864 -0.5297 -1.0169
  584SOL     OW 2333   0.134   1.911   2.208  0.4858  0.0193 -0.1171
  584SOL    HW1 2334   0.151   1.867   2.297 -1.2055 -1.2057 -2.2055
  584SOL    HW2 2335   0.201   1.979   2.218 -1.4204 -0.8286 -0.0673
  584SOL     MW 2336   0.145   1.914   2.221  0.0111 -0.2542 -0.3861
  585SOL     OW 2337   1.554   2.677   0.142  0.2890  0.6798  0.1352
  585SOL    HW1 2338   1.516   2.622   0.072  1.7796  0.7005  2.7964
  585SOL    HW2 2339   1.480   2.695   0.202 -0.1470  0.4497  1.7658
  585SOL     MW 2340   1.539   2.672   0.141  0.4282  0.6522  0.7015
  586SOL     OW 2341   1.334   2.828   2.583  0.0393  0.3643 -0.0226
  586SOL    HW1 2342   1.376   2.773   2.506  0.3845  0.0031 -3.5441
  586SOL    HW2 2343   1.361   2.923   2.572  1.0933  3.5303 -0.4367
  586SOL     MW 2344   1.343   2.833   2.572  0.2239  0.7343 -0.5418
  587SOL     OW 2345   1.361   1.483   2.162  0.2316 -0.4340  0.2315
  587SOL    HW1 2346   1.314   1.402   2.185 -0.8377  2.0790 -1.6617
  587SOL    HW2 2347   1.360   1.495   2.065 -1.4469  0.0384  1.4567
  587SOL     MW 2348   1.355   1.474   2.152 -0.1309 -0.0401  0.1434
  588SOL     OW 2349   1.371   1.990   2.645 -0.1630  0.2165  0.5711
  588SOL    HW1 2350   1.398   1.903   2.633 -0.8030  1.9776  0.2944
  588SOL    HW2 2351   1.382   2.004   2.738 -0.4296 -1.5922 -0.0077
  588SOL     MW 2352   1.376   1.980   2.655 -0.2826  0.2102  0.4583
  589SOL     OW 2353   1.420   2.020   0.074 -0.1984  0.5881  0.0553
  589SOL    HW1 2354   1.412   2.117   0.095 -0.5563 -1.0833 -0.1277
  589SOL    HW2 2355   1.378   1.971   0.145 -0.9185  0.8012 -3.1786
  589SOL     MW 2356   1.413   2.026   0.086 -0.3406  0.3957 -0.3955
  590SOL     OW 2357   0.524   2.662   2.177  0.3069 -0.1548  0.3486
  590SOL    HW1 2358   0.555   2.680   2.089  0.1917 -0.4942  1.7024
  590SOL    HW2 2359   0.590   2.711   2.227 -0.3149  2.5571  1.6956
  590SOL     MW 2360   0.537   2.671   2.172  0.2096  0.1583  0.7049
  591SOL     OW 2361   2.235   0.691   0.099 -0.2544  0.3564 -0.3566
  591SOL    HW1 2362   2.172   0.720   0.156  0.6544  0.8315 -1.4326
  591SOL    HW2 2363   2.210   0.729   0.011 -3.2018 -0.6947 -0.2809
  591SOL     MW 2364   2.223   0.700   0.095 -0.5233  0.2804 -0.4886
  592SOL     OW 2365   1.688   2.969   0.823  0.0618 -0.3897  0.0191
  592SOL    HW1 2366   1.671   3.058   0.788 -2.1294 -0.5534  2.0053
  592SOL    HW2 2367   1.784   2.958   0.815 -0.9272  0.5738  0.6080
  592SOL     MW 2368   1.699   2.979   0.818 -0.3578 -0.2842  0.3589
  593SOL     OW 2369   1.973   0.700   0.785 -0.4202 -0.2669  0.4340
  593SOL    HW1 2370   1.887   0.712   0.735 -0.4115  2.8300  0.3309
  593SOL    HW2 2371   2.010   0.616   0.758  0.3844 -0.8392  1.8163
  593SOL     MW 2372   1.967   0.691   0.775 -0.3129  0.0662  0.6028
  594SOL     OW 2373   2.718   1.030   1.399  0.5149 -0.0638 -0.0124
  594SOL    HW1 2374   2.806   1.009   1.361  2.9194 -2.0015  1.9810
  594SOL    HW2 2375   2.666   1.055   1.326 -0.5507 -0.0922  0.6665
  594SOL     MW 2376   2.722   1.031   1.384  0.6915 -0.3232  0.3402
  595SOL     OW 2377   0.491   0.908   0.850  0.1025  0.3497 -0.1559
  595SOL    HW1 2378   0.491   0.963   0.774 -0.3898 -1.2671 -0.0259
  595SOL    HW2 2379   0.490   0.974   0.919  1.8662 -2.1891 -2.2580
  595SOL     MW 2380   0.491   0.924   0.849  0.2702 -0.1986 -0.4161
  596SOL     OW 2381   2.459   1.342   0.493 -0.0016 -0.1270 -0.7508
  596SOL    HW1 2382   2.469   1.437   0.496 -2.4031  0.6439 -0.0557
  596SOL    HW2 2383   2.499   1.315   0.575  2.1517  0.4551 -2.0678
  596SOL     MW 2384   2.465   1.351   0.504 -0.0344  0.0515 -0.8328
  597SOL     OW 2385   2.197   0.621   1.547  0.1240 -0.3868  0.1083
  597SOL    HW1 2386   2.219   0.578   1.630  0.7796  3.9018  0.9397
  597SOL    HW2 2387   2.121   0.558   1.509 -1.2405 -2.1458 -3.8322
  597SOL     MW 2388   2.190   0.607   1.553  0.0304 -0.0531 -0.3019
  598SOL     OW 2389   2.595   1.055   2.876  0.1829 -0.5324  0.5430
  598SOL    HW1 2390   2.627   0.966   2.873  0.7887 -0.7097  0.0075
  598SOL    HW2 2391   2.680   1.111   2.879 -2.3150  3.4643 -0.6795
  598SOL     MW 2392   2.610   1.051   2.876 -0.0668 -0.0284  0.3110
  599SOL     OW 2393   3.076   0.400   2.259  0.3358  0.1690  0.1085
  599SOL    HW1 2394   3.096   0.425   2.354  0.2601  0.0417  4.4282
  599SOL    HW2 2395   3.075   0.478   2.207 -2.1409 -1.0959  1.1436
  599SOL     MW 2396   3.079   0.413   2.265 -0.0010 -0.0146  0.8151
  600SOL     OW 2397   1.850   1.686   0.829  0.0098  0.6759 -0.1704
  600SOL    HW1 2398   1.870   1.711   0.917  0.7299 -0.7750 -2.0101
  600SOL    HW2 2399   1.775   1.741   0.809 -0.0991  0.3324  1.2708
  600SOL     MW 2400   1.843   1.697   0.838  0.0904  0.4392 -0.2230
  601SOL     OW 2401   2.549   0.719   0.815  0.0794 -0.0061  0.0778
  601SOL    HW1 2402   2.510   0.719   0.903 -0.7141  1.2607 -1.6076
  601SOL    HW2 2403   2.496   0.656   0.752 -0.7800  0.1860  1.2731
  601SOL     MW 2404   2.537   0.711   0.818 -0.1387  0.1864  0.0131
  602SOL     OW 2405   2.286   1.894   0.750 -0.3692  0.1637  0.3273
  602SOL    HW1 2406   2.236   1.832   0.685 -0.0121  0.0487 -1.9564
  602SOL    HW2 2407   2.226   1.973   0.760 -1.2087 -0.8105 -0.7439
  602SOL     MW 2408   2.272   1.896   0.743 -0.4329  0.0200 -0.1154
  603SOL     OW 2409   2.956   1.386   1.972 -0.2430  0.3636 -0.5435
  603SOL    HW1 2410   2.962   1.414   2.062  0.7096  0.0883 -2.2172
  603SOL    HW2 2411   3.024   1.308   1.972  0.7987 -0.3712  2.5106
  603SOL     MW 2412   2.966   1.379   1.984  0.0201  0.2303 -0.3614
  604SOL     OW 2413   2.013   1.393   0.375 -0.1983 -0.0167 -0.2720
  604SOL    HW1 2414   2.088   1.355   0.426  1.0106 -1.1149 -0.9346
  604SOL    HW2 2415   1.949   1.417   0.441 -1.6368 -2.5754 -1.0310
  604SOL     MW 2416   2.014   1.391   0.390 -0.2286 -0.4992 -0.4596
  605SOL     OW 2417   2.411   1.458   0.833 -0.2446 -0.3375 -0.6989
  605SOL    HW1 2418   2.411   1.516   0.756 -1.4043 -0.5591  0.0352
  605SOL    HW2 2419   2.464   1.380   0.812  1.0926  2.0380 -1.1855
  605SOL     MW 2420   2.418   1.455   0.820 -0.2212 -0.0533 -0.6662
  606SOL     OW 2421   2.633   1.783   1.824  0.4092 -0.4779 -0.6167
  606SOL    HW1 2422   2.551   1.800   1.870  1.7594  1.0721  0.0091
  606SOL    HW2 2423   2.642   1.685   1.808  0.4431 -4.4615 -1.3899
  606SOL     MW 2424   2.623   1.772   1.828  0.5918 -0.7990 -0.6361
  607SOL     OW 2425   2.379   1.009   3.063 -0.3314 -0.1787 -0.2388
  607SOL    HW1 2426   2.445   1.046   3.003 -1.7218  1.8859  0.6283
  607SOL    HW2 2427   2.417   0.975   3.145  0.9801  0.6160  1.8952
  607SOL     MW 2428   2.393   1.010   3.066 -0.3418  0.1986  0.1572
  608SOL     OW 2429   1.849   0.212   0.520 -0.5190  0.3306 -0.3357
  608SOL    HW1 2430   1.833   0.243   0.433 -2.4746  3.4280  0.7597
  608SOL    HW2 2431   1.814   0.115   0.519  3.1165 -2.2388 -0.2802
  608SOL     MW 2432   1.842   0.203   0.508 -0.2973  0.4003 -0.1839
  609SOL     OW 2433   2.137   1.892   3.084 -0.0675 -0.0202 -0.1360
  609SOL    HW1 2434   2.057   1.855   3.041  0.5926  1.9289 -0.5076
  609SOL    HW2 2435   2.126   1.884   3.178  1.6293 -0.0158  1.4780
  609SOL     MW 2436   2.125   1.886   3.090  0.2435  0.2375  0.0279
  610SOL     OW 2437   1.829   0.921   1.206  0.0629  0.2755 -0.3873
  610SOL    HW1 2438   1.848   0.857   1.142  1.0196  0.5909  1.8157
  610SOL    HW2 2439   1.730   0.923   1.210 -0.9376  0.5683 -2.7444
  610SOL     MW 2440   1.818   0.913   1.198  0.0571  0.3558 -0.4076
  611SOL     OW 2441   2.491   1.645   0.607 -0.2278 -0.1705 -0.5713
  611SOL    HW1 2442   2.567   1.642   0.547 -1.1385  1.8579 -2.2146
  611SOL    HW2 2443   2.429   1.688   0.540  1.3386  1.9390 -1.0431
  611SOL     MW 2444   2.493   1.651   0.590 -0.1413  0.3754 -0.8503
  612SOL     OW 2445   2.941   2.969   0.339  0.0466 -0.4006  0.5561
  612SOL    HW1 2446   2.913   2.997   0.424  0.0475  0.1118  1.5628
  612SOL    HW2 2447   3.015   2.919   0.351  1.8819 -0.1651 -0.2134
  612SOL     MW 2448   2.947   2.966   0.352  0.2888 -0.3019  0.5874
  613SOL     OW 2449   1.486   1.152   1.017 -0.4288 -0.2083  0.0523
  613SOL    HW1 2450   1.490   1.242   1.051 -1.7909 -0.9321 -0.0740
  613SOL    HW2 2451   1.534   1.092   1.069 -2.5328 -0.7022  0.3552
  613SOL     MW 2452   1.493   1.156   1.029 -0.8861 -0.3689  0.0756
  614SOL     OW 2453   2.034   0.470   1.421  0.3388 -0.1983  0.3074
  614SOL    HW1 2454   2.030   0.416   1.506  1.6052  1.1980  3.9781
  614SOL    HW2 2455   1.945   0.500   1.410  0.6627 -1.7738 -1.6001
  614SOL     MW 2456   2.022   0.467   1.431  0.5486 -0.2219  0.5400
  615SOL     OW 2457   2.401   0.700   0.320  0.4120 -0.0330  0.6116
  615SOL    HW1 2458   2.479   0.645   0.336 -1.1026 -0.7355 -0.3264
  615SOL    HW2 2459   2.370   0.698   0.223 -3.0537  1.8887 -1.1772
  615SOL     MW 2460   2.407   0.692   0.310 -0.2451  0.1279  0.2518
  616SOL     OW 2461   2.552   0.405   1.613  0.2407  0.4267 -0.3611
  616SOL    HW1 2462   2.617   0.339   1.581 -0.4794 -1.6437  0.4826
  616SOL    HW2 2463   2.530   0.465   1.545  0.9845  0.3646  2.0676
  616SOL     MW 2464   2.558   0.404   1.600  0.2438  0.1454  0.0707
  617SOL     OW 2465   2.894   0.542   1.863 -0.2657 -0.2019  0.3450
  617SOL    HW1 2466   2.806   0.555   1.899 -0.6756  1.5065  0.3600
  617SOL    HW2 2467   2.890   0.459   1.821  0.4203  3.2105 -2.5895
  617SOL     MW 2468   2.882   0.533   1.862 -0.2293  0.4737 -0.0402
  618SOL     OW 2469   2.776   0.241   2.006  0.2471 -0.2662  0.3554
  618SOL    HW1 2470   2.745   0.314   2.053  2.5562 -0.5533 -1.9794
  618SOL    HW2 2471   2.848   0.206   2.066  2.0026 -1.7766  0.4745
  618SOL     MW 2472   2.782   0.246   2.020  0.7834 -0.5034  0.0631
  619SOL     OW 2473   2.716   0.722   0.105  0.3832 -0.2552  0.2402
  619SOL    HW1 2474   2.748   0.811   0.105 -1.5506 -1.9116 -0.0200
  619SOL    HW2 2475   2.787   0.672   0.147  2.0478 -1.4973  0.7883
  619SOL     MW 2476   2.729   0.727   0.110  0.3477 -0.6377  0.2782
  620SOL     OW 2477   2.211   1.056   0.935 -0.1970  0.0870  0.9019
  620SOL    HW1 2478   2.301   1.029   0.910  0.0070 -0.5320 -2.5169
  620SOL    HW2 2479   2.158   1.055   0.855 -0.8928  1.9666  3.2601
  620SOL     MW 2480   2.216   1.052   0.921 -0.2619  0.2533  0.7620
  621SOL     OW 2481   1.489   2.189   1.984  0.2903  0.0742  0.7181
  621SOL    HW1 2482   1.440   2.113   2.017  1.5009  0.9369  1.9132
  621SOL    HW2 2483   1.586   2.181   1.995  1.0902 -1.4029 -1.1676
  621SOL     MW 2484   1.495   2.178   1.990  0.5556 -0.0069  0.6270
  622SOL     OW 2485   2.642   0.257   0.248 -0.5475  0.2774 -0.5632
  622SOL    HW1 2486   2.731   0.302   0.258 -0.0350  2.0947 -0.3091
  622SOL    HW2 2487   2.675   0.170   0.261 -1.1164  2.3417  1.1702
  622SOL     MW 2488   2.658   0.252   0.251 -0.5549  0.7896 -0.3010
  623SOL     OW 2489   2.398   2.754   0.858 -0.4378  0.1603 -0.3866
  623SOL    HW1 2490   2.465   2.815   0.839  1.1229  1.0889  1.2145
  623SOL    HW2 2491   2.356   2.792   0.939  0.0432 -0.4789 -0.8106
  623SOL     MW 2492   2.401   2.767   0.866 -0.1684  0.1985 -0.2313
  624SOL     OW 2493   2.144   1.535   3.067 -0.0680 -0.2638  0.0356
  624SOL    HW1 2494   2.085   1.464   3.034  0.5816  1.5686  0.7102
  624SOL    HW2 2495   2.084   1.615   3.058  2.2679 -1.1950  1.1553
  624SOL     MW 2496   2.128   1.536   3.061  0.3259 -0.1449  0.2723
  625SOL     OW 2497   2.196   1.874   1.002 -0.4346 -0.0209 -0.0404
  625SOL    HW1 2498   2.240   1.817   1.065  1.5062  1.2331 -0.7688
  625SOL    HW2 2499   2.248   1.870   0.920  0.6673  0.2406 -0.5187
  625SOL     MW 2500   2.209   1.866   0.999 -0.0331  0.1791 -0.1996
  626SOL     OW 2501   0.161   1.820   2.459  0.1805 -0.0807  0.4498
  626SOL    HW1 2502   0.125   1.741   2.495  2.1092 -1.3033 -4.3536
  626SOL    HW2 2503   0.093   1.883   2.471  0.5001 -0.4531  0.3537
  626SOL     MW 2504   0.147   1.818   2.465  0.4771 -0.2912 -0.1967
  627SOL     OW 2505   2.558   0.854   2.562  0.5588  0.1400  0.2648
  627SOL    HW1 2506   2.476   0.873   2.608 -2.3099 -4.1340  0.3916
  627SOL    HW2 2507   2.527   0.814   2.480  2.5119 -1.0293 -0.2516
  627SOL     MW 2508   2.543   0.851   2.557  0.4380 -0.5782  0.2134
  628SOL     OW 2509   2.320   1.360   1.296 -0.0457 -0.3059 -0.6339
  628SOL    HW1 2510   2.284   1.288   1.247  3.1899  0.6152  0.5702
  628SOL    HW2 2511   2.412   1.366   1.271 -0.3707  2.1480 -0.0212
  628SOL     MW 2512   2.328   1.351   1.286  0.3383  0.1394 -0.3942
  629SOL     OW 2513   1.798   0.597   1.309  0.2270  0.3823 -0.1478
  629SOL    HW1 2514   1.833   0.627   1.223 -0.7196  1.4409 -0.1188
  629SOL    HW2 2515   1.702   0.591   1.291  0.9440 -0.0552  0.5865
  629SOL     MW 2516   1.790   0.600   1.295  0.1967  0.4643 -0.0471
  630SOL     OW 2517   2.427   1.892   3.039 -0.2968 -0.0242 -0.3543
  630SOL    HW1 2518   2.420   1.976   2.988  0.3279 -2.6887  0.1379
  630SOL    HW2 2519   2.339   1.858   3.032 -0.1050  2.5863 -1.7151
  630SOL     MW 2520   2.415   1.899   3.031 -0.1891 -0.0314 -0.4689
  631SOL     OW 2521   2.100   1.783   1.516 -0.2409  0.1985  0.1846
  631SOL    HW1 2522   2.083   1.702   1.562 -3.1311  0.2642  2.7863
  631SOL    HW2 2523   2.029   1.845   1.539 -1.6849  0.8948 -0.2711
  631SOL     MW 2524   2.088   1.780   1.525 -0.8127  0.2990  0.4677
  632SOL     OW 2525   0.296   1.880   1.553 -0.7919 -0.2115 -0.0040
  632SOL    HW1 2526   0.213   1.913   1.529  4.5382  0.1853  0.0264
  632SOL    HW2 2527   0.293   1.788   1.544  0.1910  2.4346 -1.0115
  632SOL     MW 2528   0.285   1.872   1.548  0.0410  0.1900 -0.1330
  633SOL     OW 2529   2.595   0.535   0.402 -0.4463 -0.0586 -0.1231
  633SOL    HW1 2530   2.664   0.528   0.471 -0.9671 -0.5574  0.0777
  633SOL    HW2 2531   2.576   0.444   0.388 -0.1114 -2.3018  0.0271
  633SOL     MW 2532   2.601   0.522   0.410 -0.4708 -0.4204 -0.0768
  634SOL     OW 2533   2.617   0.000   0.630  0.1368 -0.0146 -0.2238
  634SOL    HW1 2534   2.671   0.080   0.614  0.6773 -2.1445 -2.0560
  634SOL    HW2 2535   2.554  -0.005   0.559  0.0051 -0.0454 -0.8748
  634SOL     MW 2536   2.616   0.010   0.619  0.1907 -0.2996 -0.5514
  635SOL     OW 2537   2.620   0.051   1.878  0.0561 -0.0583  0.4603
  635SOL    HW1 2538   2.683   0.010   1.810 -0.6865  0.0291  2.1829
  635SOL    HW2 2539   2.667   0.127   1.915  1.5916 -1.4629  0.7053
  635SOL     MW 2540   2.634   0.056   1.874  0.1607 -0.2321  0.7199
  636SOL     OW 2541   2.710   1.721   0.776 -0.1724  0.5039 -0.4340
  636SOL    HW1 2542   2.635   1.714   0.718 -0.0815 -2.8743  1.2972
  636SOL    HW2 2543   2.687   1.781   0.850 -1.4748 -0.3708  0.6717
  636SOL     MW 2544   2.697   1.728   0.778 -0.3322 -0.0573 -0.0597
  637SOL     OW 2545   2.855   1.499   0.675 -0.1979 -0.6765  0.4077
  637SOL    HW1 2546   2.916   1.558   0.627 -0.2713 -0.7481 -0.5541
  637SOL    HW2 2547   2.812   1.565   0.734 -2.0058  1.2278  1.3065
  637SOL     MW 2548   2.857   1.515   0.676 -0.4461 -0.4347  0.3994
  638SOL     OW 2549   2.792   0.528   0.609  0.2252  0.2281 -0.4465
  638SOL    HW1 2550   2.856   0.590   0.572 -0.3485 -2.1902  1.2139
  638SOL    HW2 2551   2.780   0.535   0.704 -0.8922 -1.3313 -0.4594
  638SOL     MW 2552   2.799   0.537   0.617  0.0021 -0.2967 -0.2291
  639SOL     OW 2553   1.719   3.083   0.537  0.6931  0.2457 -0.0331
  639SOL    HW1 2554   1.631   3.116   0.509 -0.7141  1.6599 -0.9848
  639SOL    HW2 2555   1.718   2.982   0.529  2.3047 -3.0856  1.3842
  639SOL     MW 2556   1.707   3.074   0.532  0.7201 -0.0072  0.0283
  640SOL     OW 2557   0.289   1.392   0.110 -0.2505  0.7413 -0.3789
  640SOL    HW1 2558   0.306   1.359   0.015 -1.0890 -0.7219  0.3635
  640SOL    HW2 2559   0.288   1.310   0.158 -2.5382  2.7371 -0.6621
  640SOL     MW 2560   0.291   1.377   0.104 -0.6630  0.8116 -0.3183
  641SOL     OW 2561   2.217   0.336   0.401  0.8205  0.5644 -0.0290
  641SOL    HW1 2562   2.299   0.284   0.398  0.0749  1.8855  1.6568
  641SOL    HW2 2563   2.164   0.282   0.459 -1.8878 -0.3630 -0.0899
  641SOL     MW 2564   2.221   0.322   0.408  0.3648  0.6163  0.1854
  642SOL     OW 2565   0.051   0.048   0.557  0.6748 -0.6827 -0.2006
  642SOL    HW1 2566   0.043   0.146   0.526 -0.5982  0.0073  0.5455
  642SOL    HW2 2567  -0.037   0.005   0.566 -0.2665 -0.5619 -0.1836
  642SOL     MW 2568   0.038   0.055   0.554  0.3826 -0.5757 -0.0999
  643SOL     OW 2569   2.080   0.334   1.634  0.2226  0.4403 -0.0125
  643SOL    HW1 2570   2.002   0.309   1.687 -0.9824 -0.4262 -0.0518
  643SOL    HW2 2571   2.106   0.252   1.591  0.6930 -0.2717 -1.0058
  643SOL     MW 2572   2.073   0.320   1.635  0.1257  0.2321 -0.1487
  644SOL     OW 2573   2.649   1.887   0.981 -0.6006 -0.2443 -0.2549
  644SOL    HW1 2574   2.627   1.819   1.047 -0.8133 -0.4884  0.7868
  644SOL    HW2 2575   2.585   1.956   0.972 -1.2680 -0.0681 -3.5610
  644SOL     MW 2576   2.638   1.887   0.989 -0.7167 -0.2532 -0.5537
  645SOL     OW 2577   2.769   0.874   0.732 -0.0966 -0.7671  1.1601
  645SOL    HW1 2578   2.851   0.838   0.773  3.4930  0.0158 -2.1409
  645SOL    HW2 2579   2.696   0.820   0.761  1.2780  0.4915 -1.3032
  645SOL     MW 2580   2.771   0.862   0.742  0.5584 -0.4977  0.3996
  646SOL     OW 2581   0.170   2.242   0.853 -0.3549 -0.1475 -0.2964
  646SOL    HW1 2582   0.180   2.141   0.857 -0.9019 -0.1970  1.4186
  646SOL    HW2 2583   0.120   2.261   0.774 -0.2661 -1.0172  0.3433
  646SOL     MW 2584   0.165   2.231   0.843 -0.4153 -0.2688  0.0143
  647SOL     OW 2585   2.763   0.520   3.010  0.6241  0.5855 -0.4543
  647SOL    HW1 2586   2.690   0.460   3.021 -1.9068 -0.0886  0.0155
  647SOL    HW2 2587   2.738   0.588   3.078  3.1464 -0.5376  1.8792
  647SOL     MW 2588   2.750   0.521   3.020  0.6230  0.3484 -0.0845
  648SOL     OW 2589   2.243   0.659   1.128 -0.4375 -0.3004  0.2350
  648SOL    HW1 2590   2.241   0.580   1.179  0.1467  1.9174 -1.9736
  648SOL    HW2 2591   2.173   0.710   1.165 -0.8892 -0.4996  1.3805
  648SOL     MW 2592   2.234   0.655   1.140 -0.4200 -0.0341  0.0947
  649SOL     OW 2593   2.421   2.709   1.254 -0.4457 -0.2260 -0.0289
  649SOL    HW1 2594   2.505   2.759   1.265 -3.4581  1.1649  1.0241
  649SOL    HW2 2595   2.435   2.622   1.284 -2.9520 -0.6742 -0.1116
  649SOL     MW 2596   2.434   2.704   1.259 -1.1738 -0.1016  0.0991
  650SOL     OW 2597   2.778   0.233   0.565 -0.1740  0.5596 -0.4257
  650SOL    HW1 2598   2.792   0.328   0.558  0.5487 -0.0641 -0.5801
  650SOL    HW2 2599   2.850   0.207   0.619 -0.4766 -0.0590 -0.5076
  650SOL     MW 2600   2.789   0.242   0.571 -0.1186  0.3957 -0.4569
  651SOL     OW 2601   0.016   0.439   1.028  0.8215 -0.4301 -0.0761
  651SOL    HW1 2602   0.047   0.503   0.957 -0.8474  0.0084 -0.0344
  651SOL    HW2 2603  -0.054   0.495   1.064 -0.2452  1.7395  0.3590
  651SOL     MW 2604   0.011   0.455   1.023  0.4605 -0.0860 -0.0132
  652SOL     OW 2605   2.399   1.415   3.012 -0.0681  0.0813  0.1577
  652SOL    HW1 2606   2.458   1.425   2.935 -0.9151  0.2013  0.0161
  652SOL    HW2 2607   2.334   1.488   3.011 -1.0263 -0.1403  0.1561
  652SOL     MW 2608   2.398   1.426   3.001 -0.3063  0.0679  0.1388
  653SOL     OW 2609   1.837   0.324   0.280 -0.2086 -0.4153  0.2049
  653SOL    HW1 2610   1.825   0.248   0.216 -1.9591 -0.1161 -0.2079
  653SOL    HW2 2611   1.924   0.355   0.260 -1.7395  1.0854 -1.2414
  653SOL     MW 2612   1.847   0.318   0.269 -0.6415 -0.1778 -0.0404
  654SOL     OW 2613   2.425   0.981   0.787 -0.0370  0.3813  0.1448
  654SOL    HW1 2614   2.377   0.963   0.707 -0.3793  0.8666  0.8235
  654SOL    HW2 2615   2.463   0.892   0.806  4.0676 -2.2428  0.5676
  654SOL     MW 2616   2.424   0.967   0.779  0.4594  0.0991  0.2902
  655SOL     OW 2617   2.897   0.919   0.360 -0.2417 -0.2895 -0.8729
  655SOL    HW1 2618   2.884   0.975   0.438 -1.6511 -1.2788  0.1536
  655SOL    HW2 2619   2.921   0.832   0.391  2.5005  1.1954 -2.3339
  655SOL     MW 2620   2.899   0.915   0.374 -0.0659 -0.2241 -0.9302
  656SOL     OW 2621   1.830   2.648   1.409 -0.2205 -0.4072  0.0720
  656SOL    HW1 2622   1.832   2.725   1.352  1.6522 -0.1090 -0.5295
  656SOL    HW2 2623   1.892   2.584   1.367  2.6081 -0.0108  1.4813
  656SOL     MW 2624   1.839   2.650   1.396  0.3998 -0.3156  0.1786
  657SOL     OW 2625   0.061   1.813   1.185  0.2001 -0.3586 -1.0953
  657SOL    HW1 2626   0.150   1.842   1.163  1.5852 -1.5101 -0.0567
  657SOL    HW2 2627   0.064   1.715   1.174  0.0182 -0.6823  3.1514
  657SOL     MW 2628   0.073   1.804   1.180  0.3589 -0.5532 -0.3980
  658SOL     OW 2629   2.709   1.343   0.237 -0.7519  0.4063 -0.2852
  658SOL    HW1 2630   2.677   1.274   0.303 -1.2864 -2.7900  1.1717
  658SOL    HW2 2631   2.705   1.421   0.285 -0.1111  1.6502 -0.7096
  658SOL     MW 2632   2.704   1.344   0.252 -0.7378  0.1487 -0.1490
  659SOL     OW 2633   2.153   1.463   1.028 -0.4806 -0.3408  0.4352
  659SOL    HW1 2634   2.241   1.475   1.001  0.7784  1.0628  0.0347
  659SOL    HW2 2635   2.157   1.448   1.122  0.2731  0.4547 -2.1766
  659SOL     MW 2636   2.165   1.463   1.037 -0.2150 -0.0506  0.0378
  660SOL     OW 2637   2.099   1.564   1.651  0.1461  1.1903 -0.6851
  660SOL    HW1 2638   2.125   1.571   1.743  1.1560 -0.7900  0.1134
  660SOL    HW2 2639   2.029   1.504   1.666 -0.8419  2.0634  0.8687
  660SOL     MW 2640   2.093   1.557   1.665  0.1490  1.0442 -0.3747
  661SOL     OW 2641   2.417   0.982   0.259 -0.2566  0.1932 -0.1297
  661SOL    HW1 2642   2.498   1.037   0.278 -0.5220 -1.1284  1.0644
  661SOL    HW2 2643   2.430   0.888   0.299  0.6545 -0.9428 -0.2380
  661SOL     MW 2644   2.429   0.977   0.267 -0.1714 -0.1310  0.0136
  662SOL     OW 2645   2.569   2.949   0.873  0.1085 -0.2177 -0.1822
  662SOL    HW1 2646   2.515   3.018   0.918  2.5434 -0.3606  0.4776
  662SOL    HW2 2647   2.587   2.996   0.786  0.0460 -1.7707 -0.6446
  662SOL     MW 2648   2.564   2.965   0.868  0.4215 -0.4415 -0.1562
  663SOL     OW 2649   2.698   1.578   0.444  0.0279  0.5842  0.3200
  663SOL    HW1 2650   2.738   1.639   0.389 -0.0995 -0.6892 -2.4251
  663SOL    HW2 2651   2.767   1.545   0.506 -2.1097 -0.3951 -2.5603
  663SOL     MW 2652   2.712   1.581   0.445 -0.2709  0.2870 -0.4222
  664SOL     OW 2653   2.524   1.477   1.508  0.2849  0.4171 -0.1013
  664SOL    HW1 2654   2.476   1.553   1.475 -3.3842 -2.3536 -1.2669
  664SOL    HW2 2655   2.443   1.430   1.546  0.3101  0.2507 -0.2555
  664SOL     MW 2656   2.507   1.481   1.509 -0.1959  0.0296 -0.2754
  665SOL     OW 2657   2.859   0.837   2.118 -0.1596  0.2904 -0.3201
  665SOL    HW1 2658   2.823   0.840   2.026  0.4574 -1.1797 -0.6240
  665SOL    HW2 2659   2.926   0.769   2.125  0.7410  1.5857  4.4879
  665SOL     MW 2660   2.863   0.829   2.107  0.0406  0.2673  0.2742
  666SOL     OW 2661   2.774   3.021   1.696  0.1618  0.1597  0.1173
  666SOL    HW1 2662   2.784   3.017   1.603 -0.7829  0.1383  0.9447
  666SOL    HW2 2663   2.731   2.938   1.715  2.3458 -1.2621 -0.2673
  666SOL     MW 2664   2.770   3.010   1.686  0.3253 -0.0307  0.1758
  667SOL     OW 2665   1.990   2.730   1.739  0.6403  0.0854  0.4949
  667SOL    HW1 2666   2.014   2.692   1.822  2.2231 -0.0110 -0.9469
  667SOL    HW2 2667   2.060   2.789   1.714 -1.2484  0.7303  0.6712
  667SOL     MW 2668   2.002   2.733   1.747  0.5999  0.1578  0.3279
  668SOL     OW 2669   2.779   0.557   0.879 -0.4666 -0.0070 -1.1091
  668SOL    HW1 2670   2.849   0.590   0.945  2.4130  1.6990 -0.9630
  668SOL    HW2 2671   2.710   0.619   0.877  1.3768  1.1458  0.1831
  668SOL     MW 2672   2.779   0.569   0.887  0.1566  0.3702 -0.9193
  669SOL     OW 2673   0.214   0.996   0.719 -0.0956 -0.2692 -0.4387
  669SOL    HW1 2674   0.155   1.053   0.771  2.4518 -0.3494 -0.3951
  669SOL    HW2 2675   0.282   1.067   0.698 -2.2729  1.8686  1.7125
  669SOL     MW 2676   0.215   1.013   0.723 -0.0468  0.0023 -0.1491
  670SOL     OW 2677   2.898   0.335   0.253 -0.1599  0.0203  0.8970
  670SOL    HW1 2678   2.907   0.272   0.177  1.0587 -0.6423  0.3943
  670SOL    HW2 2679   2.939   0.412   0.221  0.6424 -0.8805 -1.5733
  670SOL     MW 2680   2.904   0.337   0.239  0.1067 -0.1860  0.5047
  671SOL     OW 2681   2.000   3.030   1.523  0.4068  0.2708 -0.4077
  671SOL    HW1 2682   1.939   2.996   1.456 -2.9175  0.2559 -0.0180
  671SOL    HW2 2683   1.948   3.046   1.605 -0.9608 -0.5340 -1.6647
  671SOL     MW 2684   1.985   3.027   1.525 -0.2123  0.1627 -0.5221
  672SOL     OW 2685   1.863   1.742   1.314  1.0267  0.1559  0.1408
  672SOL    HW1 2686   1.877   1.818   1.378  0.8583 -1.3937 -0.7441
  672SOL    HW2 2687   1.892   1.780   1.224  0.1082  2.0386  0.2037
  672SOL     MW 2688   1.869   1.757   1.310  0.8833  0.1999  0.0324
  673SOL     OW 2689   2.790   1.087   0.575 -0.0493  0.6686 -0.3832
  673SOL    HW1 2690   2.790   1.006   0.641  2.0141 -1.1859  0.8700
  673SOL    HW2 2691   2.853   1.148   0.613  0.1728  0.0670  2.5477
  673SOL     MW 2692   2.798   1.085   0.589  0.2523  0.3446  0.1689
  674SOL     OW 2693   2.483   3.097   1.254 -0.9148  0.4849  0.5728
  674SOL    HW1 2694   2.465   3.093   1.163 -2.3474 -0.2478 -1.5670
  674SOL    HW2 2695   2.532   3.017   1.269 -1.9733  1.1181 -0.4660
  674SOL     MW 2696   2.487   3.086   1.244 -1.2435  0.4718  0.1534
  675SOL     OW 2697   3.028   0.900   1.108  0.2488 -0.1311  0.0998
  675SOL    HW1 2698   3.099   0.889   1.177 -2.3328 -1.1167  3.3322
  675SOL    HW2 2699   3.065   0.935   1.021  0.2469  0.2457 -2.4651
  675SOL     MW 2700   3.042   0.903   1.105 -0.0920 -0.2114  0.1879
  676SOL     OW 2701   2.903   1.462   1.702 -0.0369 -0.2081 -0.3225
  676SOL    HW1 2702   2.874   1.378   1.665  1.1830 -0.1328  1.1214
  676SOL    HW2 2703   2.906   1.441   1.804 -0.0513 -3.8174  3.0025
  676SOL     MW 2704   2.899   1.448   1.710  0.1221 -0.6743  0.3067
  677SOL     OW 2705   2.438   0.577   1.972  0.4671  0.6567 -0.1223
  677SOL    HW1 2706   2.407   0.499   1.916  1.8550 -2.2828 -2.2043
  677SOL    HW2 2707   2.375   0.642   1.950  2.5233  0.5624 -0.9866
  677SOL     MW 2708   2.425   0.576   1.961  0.9215  0.2564 -0.5110
  678SOL     OW 2709   2.394   1.630   0.320  0.5145 -0.2409  0.3126
  678SOL    HW1 2710   2.308   1.606   0.351  1.2604 -0.2132 -0.9611
  678SOL    HW2 2711   2.423   1.548   0.276  1.0062 -0.2530  4.2855
  678SOL     MW 2712   2.386   1.616   0.318  0.6778 -0.2388  0.6687
  679SOL     OW 2713   2.265   0.419   1.258 -0.0777 -0.4406 -0.0243
  679SOL    HW1 2714   2.234   0.339   1.216 -0.1825  1.1103 -1.2149
  679SOL    HW2 2715   2.218   0.419   1.338 -1.1118  0.0118 -3.4332
  679SOL     MW 2716   2.254   0.408   1.263 -0.2280 -0.1763 -0.6312
  680SOL     OW 2717   2.435   0.103   1.505  0.9244 -0.1739  0.0623
  680SOL    HW1 2718   2.339   0.074   1.514 -2.2922  0.5185 -0.7403
  680SOL    HW2 2719   2.451   0.071   1.421  1.8216 -0.6694  2.6626
  680SOL     MW 2720   2.425   0.095   1.495  0.6184 -0.1479  0.2995
  681SOL     OW 2721   0.248   0.609   1.479 -0.5004  0.1088 -0.2330
  681SOL    HW1 2722   0.244   0.517   1.511  0.2110  0.9550 -4.8297
  681SOL    HW2 2723   0.214   0.604   1.384 -2.1588  0.5208 -0.4632
  681SOL     MW 2724   0.243   0.596   1.470 -0.6254  0.2748 -0.8699
  682SOL     OW 2725   0.087   2.849   1.542 -0.0868 -0.9991  0.1819
  682SOL    HW1 2726   0.128   2.934   1.536  2.6375  0.4457 -0.3522
  682SOL    HW2 2727   0.032   2.869   1.613  1.5993 -0.3039 -0.2822
  682SOL     MW 2728   0.085   2.863   1.550  0.4951 -0.7167  0.0502
  683SOL     OW 2729   2.081   0.802   3.007  0.0292 -0.5579  0.5989
  683SOL    HW1 2730   2.046   0.716   3.031  0.1628 -0.5656 -3.7274
  683SOL    HW2 2731   2.019   0.861   3.043  1.3264 -0.3898 -0.7258
  683SOL     MW 2732   2.068   0.798   3.015  0.2180 -0.5368 -0.1467
  684SOL     OW 2733   2.079   1.736   0.635 -0.7344  0.0598  0.3497
  684SOL    HW1 2734   2.110   1.705   0.544 -1.6794  1.2024  0.3022
  684SOL    HW2 2735   2.056   1.657   0.689 -1.8814 -0.9007 -1.3474
  684SOL     MW 2736   2.080   1.721   0.630 -1.0104  0.0838  0.1195
  685SOL     OW 2737   2.684   1.698   1.176  0.1335  0.2685  0.0324
  685SOL    HW1 2738   2.719   1.699   1.268 -1.6938  0.0759  2.4551
  685SOL    HW2 2739   2.629   1.624   1.154  1.5901 -0.0840  0.6035
  685SOL     MW 2740   2.682   1.688   1.185  0.0846  0.1966  0.4274
  686SOL     OW 2741   2.890   0.647   1.609 -0.1608  0.2812  0.4790
  686SOL    HW1 2742   2.880   0.619   1.696 -3.5908  1.4624 -2.8510
  686SOL    HW2 2743   2.979   0.685   1.600 -0.8506  1.5647  0.9606
  686SOL     MW 2744   2.900   0.648   1.619 -0.7043  0.6064  0.1032
  687SOL     OW 2745   2.126   0.197   1.126 -0.2144  0.6218  0.5230
  687SOL    HW1 2746   2.191   0.167   1.061 -2.3252 -0.0031  0.7440
  687SOL    HW2 2747   2.075   0.266   1.080 -0.2963 -0.0926  2.4282
  687SOL     MW 2748   2.128   0.202   1.111 -0.5037  0.4451  0.8035
  688SOL     OW 2749   2.440   0.588   1.399  0.7644 -0.0580  0.2128
  688SOL    HW1 2750   2.421   0.523   1.329  0.3392 -1.1651  1.8424
  688SOL    HW2 2751   2.352   0.602   1.450 -1.0860 -0.5646 -0.8368
  688SOL     MW 2752   2.426   0.581   1.396  0.4641 -0.2710  0.2893
  689SOL     OW 2753   2.509   0.756   2.982  0.3304 -0.5191 -0.0972
  689SOL    HW1 2754   2.440   0.823   2.993 -0.9641  0.4885 -0.1272
  689SOL    HW2 2755   2.556   0.748   3.061 -2.5776 -0.1193 -0.2118
  689SOL     MW 2756   2.506   0.764   2.994 -0.2241 -0.3334 -0.1163
  690SOL     OW 2757   2.020   0.869   1.838 -0.7436  0.4733 -0.0988
  690SOL    HW1 2758   2.028   0.779   1.865 -0.6755  0.4381  1.3365
  690SOL    HW2 2759   2.041   0.874   1.743 -1.4000  0.2852  0.1893
  690SOL     MW 2760   2.024   0.858   1.829 -0.8212  0.4439  0.1286
  691SOL     OW 2761   2.407   0.300   0.875  0.4139  0.1886  0.2584
  691SOL    HW1 2762   2.486   0.313   0.923 -0.7373  1.1466  0.0457
  691SOL    HW2 2763   2.333   0.352   0.909 -0.2660 -0.8225 -0.7363
  691SOL     MW 2764   2.408   0.309   0.886  0.1723  0.1816  0.0991
  692SOL     OW 2765   2.870   1.595   1.440 -0.2907  0.2569 -0.1009
  692SOL    HW1 2766   2.889   1.574   1.535 -1.9166 -1.8683  1.2751
  692SOL    HW2 2767   2.906   1.684   1.425 -0.0516 -1.2334 -0.1259
  692SOL     MW 2768   2.877   1.604   1.450 -0.4736 -0.2202  0.0774
  693SOL     OW 2769   2.350   0.399   0.039 -0.4436 -0.4425 -0.2973
  693SOL    HW1 2770   2.272   0.336   0.046  0.9164 -1.5546  2.6628
  693SOL    HW2 2771   2.325   0.471   0.094  1.3539 -2.6008 -2.0258
  693SOL     MW 2772   2.337   0.401   0.048 -0.0270 -0.8740 -0.1348
  694SOL     OW 2773   1.900   1.192   1.157  0.3908 -0.7640  0.0243
  694SOL    HW1 2774   1.996   1.188   1.153  3.1172 -0.9784  1.1848
  694SOL    HW2 2775   1.872   1.106   1.171  3.0959  0.8035  0.3748
  694SOL     MW 2776   1.909   1.180   1.158  1.1075 -0.5854  0.2237
  695SOL     OW 2777   2.968   1.408   1.270 -0.3853  0.1313  0.4546
  695SOL    HW1 2778   2.934   1.407   1.176 -1.5867 -2.0029 -3.8694
  695SOL    HW2 2779   2.918   1.474   1.324  1.0691  0.8464 -1.5934
  695SOL     MW 2780   2.957   1.416   1.265 -0.3520 -0.0560 -0.3861
  696SOL     OW 2781   2.044   1.440   0.782 -0.7267 -0.2927  0.0393
  696SOL    HW1 2782   2.065   1.462   0.871 -2.0079 -0.6025 -0.9929
  696SOL    HW2 2783   1.996   1.356   0.794  1.4889 -1.5754  3.3202
  696SOL     MW 2784   2.040   1.432   0.796 -0.6034 -0.5028  0.3360
  697SOL     OW 2785   2.929   1.064   2.238  0.3916 -0.5098  0.2954
  697SOL    HW1 2786   2.855   1.116   2.273 -2.5688  1.9713  2.0655
  697SOL    HW2 2787   2.892   0.990   2.190  1.0231  0.9413 -0.7182
  697SOL     MW 2788   2.914   1.061   2.236  0.0843  0.0090  0.3952
  698SOL     OW 2789   2.581   0.311   3.037  0.4749  0.0848 -0.1745
  698SOL    HW1 2790   2.501   0.349   3.073  0.5020  1.7118 -1.7445
  698SOL    HW2 2791   2.624   0.280   3.121  0.7735  1.2519  2.0808
  698SOL     MW 2792   2.576   0.312   3.053  0.5179  0.4534 -0.0841
  699SOL     OW 2793   1.894   1.622   2.083 -0.0281 -0.1240 -0.2112
  699SOL    HW1 2794   1.879   1.530   2.057  3.7507 -0.1250  0.0202
  699SOL    HW2 2795   1.982   1.646   2.059  1.2202 -0.4244 -0.9004
  699SOL     MW 2796   1.904   1.613   2.077  0.6351 -0.1638 -0.2716
  700SOL     OW 2797   2.681   0.825   1.584 -0.3367  0.1322  0.4689
  700SOL    HW1 2798   2.690   0.906   1.536  1.0079  1.4891  1.9907
  700SOL    HW2 2799   2.760   0.777   1.571 -0.2623  2.4317  3.3504
  700SOL     MW 2800   2.692   0.829   1.576 -0.1495  0.6146  1.0499
  701SOL     OW 2801   1.703   1.133   2.500  0.2978 -0.2187  0.6139
  701SOL    HW1 2802   1.783   1.093   2.531 -0.1025  2.0932 -1.7238
  701SOL    HW2 2803   1.658   1.179   2.567 -2.0842 -3.1632 -0.2193
  701SOL     MW 2804   1.708   1.134   2.513 -0.0693 -0.3022  0.1955
  702SOL     OW 2805   2.114   0.447   0.751 -0.7069  0.4655 -0.7365
  702SOL    HW1 2806   2.109   0.365   0.704 -2.0905  0.0027 -1.2960
  702SOL    HW2 2807   2.207   0.481   0.737 -0.0679  1.9145  0.2949
  702SOL     MW 2808   2.126   0.441   0.743 -0.8052  0.5956 -0.6742
  703SOL     OW 2809   2.724   1.238   0.952 -0.0970  0.4586 -0.0449
  703SOL    HW1 2810   2.680   1.220   0.872  0.2404  0.8778  1.2332
  703SOL    HW2 2811   2.702   1.154   0.993 -1.9078 -0.1475 -1.9526
  703SOL     MW 2812   2.715   1.225   0.947 -0.2914  0.4339 -0.1279
  704SOL     OW 2813   3.075   1.231   0.136  0.1237  0.4545 -0.1684
  704SOL    HW1 2814   2.984   1.215   0.099 -0.6290 -1.7342  0.7666
  704SOL    HW2 2815   3.067   1.237   0.233 -2.2558 -1.2031 -2.1625
  704SOL     MW 2816   3.062   1.229   0.144 -0.2895 -0.0530 -0.3081
  705SOL     OW 2817   2.064   1.552   1.301 -0.2291  0.0115 -0.1133
  705SOL    HW1 2818   2.005   1.625   1.300 -0.0302 -0.0123 -1.4212
  705SOL    HW2 2819   2.109   1.564   1.387  1.7033 -1.1425 -0.4031
  705SOL     MW 2820   2.062   1.563   1.312  0.0521 -0.1439 -0.3241
  706SOL     OW 2821   2.997   1.230   0.649 -0.0672 -0.1711  0.4563
  706SOL    HW1 2822   3.022   1.226   0.551 -0.2320 -1.9897 -1.6244
  706SOL    HW2 2823   2.971   1.319   0.671  0.9758  0.1910  1.4559
  706SOL     MW 2824   2.997   1.241   0.639  0.0486 -0.3633  0.3136
  707SOL     OW 2825   2.386   0.038   0.960 -0.1148 -0.0397 -0.0151
  707SOL    HW1 2826   2.409   0.119   0.916  0.7968  0.4399 -2.4597
  707SOL    HW2 2827   2.299   0.012   0.919 -3.0238 -0.0436  0.0591
  707SOL     MW 2828   2.378   0.045   0.949 -0.3784  0.0231 -0.3279
  708SOL     OW 2829   2.415   1.378   0.181 -0.2058 -0.1666  0.0432
  708SOL    HW1 2830   2.506   1.368   0.205 -0.8609  1.7151 -1.0910
  708SOL    HW2 2831   2.404   1.395   0.084 -1.2917 -0.1400  1.0352
  708SOL     MW 2832   2.425   1.379   0.171 -0.4355  0.0852  0.0244
  709SOL     OW 2833   1.759   1.622   0.234  0.4236  0.9620  0.1047
  709SOL    HW1 2834   1.737   1.656   0.148  0.0908 -0.5004 -0.0131
  709SOL    HW2 2835   1.678   1.574   0.253 -3.5046  1.8354  0.6619
  709SOL     MW 2836   1.745   1.621   0.225 -0.1386  0.8843  0.1627
  710SOL     OW 2837   2.151   1.158   1.174  0.3783  0.2583 -0.3315
  710SOL    HW1 2838   2.172   1.116   1.089 -5.5781  1.0586  0.9631
  710SOL    HW2 2839   2.173   1.097   1.248  0.9973  1.3891 -1.0070
  710SOL     MW 2840   2.157   1.145   1.172 -0.3259  0.5131 -0.2498
  711SOL     OW 2841   2.411   0.163   1.769 -0.2454 -0.1980 -0.0115
  711SOL    HW1 2842   2.491   0.133   1.824 -1.1046 -2.4565  1.5225
  711SOL    HW2 2843   2.446   0.166   1.676 -0.3598  1.5212 -1.5524
  711SOL     MW 2844   2.426   0.159   1.764 -0.3739 -0.2692 -0.0124
  712SOL     OW 2845   1.900   0.612   0.006 -0.0391  0.2693 -0.7124
  712SOL    HW1 2846   1.830   0.639  -0.050  0.5124 -2.5032  0.7657
  712SOL    HW2 2847   1.885   0.653   0.089 -2.1194  0.6640 -0.0218
  712SOL     MW 2848   1.889   0.621   0.010 -0.2408 -0.0444 -0.4263
  713SOL     OW 2849   2.523   0.696   1.084  0.1520  0.2979 -0.1436
  713SOL    HW1 2850   2.570   0.658   1.155  0.0383 -3.6483  0.3516
  713SOL    HW2 2851   2.426   0.681   1.106 -0.9365 -2.2542 -1.1231
  713SOL     MW 2852   2.516   0.689   1.097 -0.0066 -0.5594 -0.2075
  714SOL     OW 2853   2.228   0.189   1.970  0.0095 -0.4961 -0.4406
  714SOL    HW1 2854   2.289   0.155   2.035  0.2616 -3.0036  0.6109
  714SOL    HW2 2855   2.278   0.188   1.887  2.0920 -0.3464  0.7896
  714SOL     MW 2856   2.243   0.184   1.968  0.3175 -0.8072 -0.1395
  715SOL     OW 2857   1.808   2.037   1.763 -0.0242  0.0029 -0.4215
  715SOL    HW1 2858   1.899   2.043   1.737 -0.4933 -3.1213  1.2608
  715SOL    HW2 2859   1.813   1.946   1.807 -0.5925 -2.3194 -0.5562
  715SOL     MW 2860   1.821   2.026   1.766 -0.1610 -0.7157 -0.2173
  716SOL     OW 2861   2.373   0.567   0.665  0.9810  0.4764 -0.1025
  716SOL    HW1 2862   2.427   0.486   0.645  0.7068 -2.0424  1.5275
  716SOL    HW2 2863   2.311   0.580   0.584  3.2257  2.2388 -0.0180
  716SOL     MW 2864   2.372   0.558   0.652  1.2410  0.3766  0.1237
  717SOL     OW 2865   2.830   1.581   2.843  0.2125  0.8041 -0.5652
  717SOL    HW1 2866   2.913   1.572   2.885 -4.6790 -0.1724  0.3371
  717SOL    HW2 2867   2.787   1.654   2.882  0.1629 -2.9611  0.7408
  717SOL     MW 2868   2.835   1.589   2.853 -0.4394  0.1785 -0.2739
  718SOL     OW 2869   2.652   1.343   1.307 -0.1916 -0.2451 -0.7061
  718SOL    HW1 2870   2.622   1.403   1.373  1.9415  0.2791 -0.3227
  718SOL    HW2 2871   2.746   1.350   1.291 -0.6657  0.0303  1.3428
  718SOL     MW 2872   2.660   1.352   1.313  0.0273 -0.1396 -0.3852
  719SOL     OW 2873   2.202   1.295   0.591  0.5320  0.5508  0.2127
  719SOL    HW1 2874   2.287   1.314   0.571 -0.8572 -0.8572 -1.5447
  719SOL    HW2 2875   2.156   1.342   0.661  0.1450  0.8831 -0.4765
  719SOL     MW 2876   2.207   1.303   0.598  0.2976  0.4089 -0.1101
  720SOL     OW 2877   2.819   1.221   0.022  0.4528  0.3388 -0.0408
  720SOL    HW1 2878   2.822   1.126   0.047 -0.8275  0.1647 -0.4046
  720SOL    HW2 2879   2.777   1.268   0.097  0.8898 -1.2147  2.5833
  720SOL     MW 2880   2.814   1.214   0.036  0.3415  0.1109  0.2574
  721SOL     OW 2881   2.474   0.868   1.355  0.1084  0.4131 -0.0292
  721SOL    HW1 2882   2.434   0.782   1.357  2.0679 -1.5151  1.4467
  721SOL    HW2 2883   2.518   0.862   1.435  1.6575 -2.4977  0.6622
  721SOL     MW 2884   2.475   0.856   1.366  0.5713 -0.2254  0.2567
  722SOL     OW 2885   2.609   1.144   0.371 -0.2314  0.1693  0.3108
  722SOL    HW1 2886   2.545   1.212   0.402  2.7085  0.5506  2.9489
  722SOL    HW2 2887   2.678   1.129   0.438 -3.1161 -0.7003  0.5418
  722SOL     MW 2888   2.609   1.151   0.384 -0.2241  0.1048  0.6894
  723SOL     OW 2889   2.289   1.369   1.565  0.1159 -0.4415 -0.2673
  723SOL    HW1 2890   2.274   1.354   1.469 -0.7689 -1.7264 -0.3525
  723SOL    HW2 2891   2.216   1.427   1.584 -3.3145  0.7174  3.0463
  723SOL     MW 2892   2.278   1.375   1.555 -0.4534 -0.4581  0.1586
  724SOL     OW 2893   2.492   0.305   0.607  0.0551  0.2480  0.0250
  724SOL    HW1 2894   2.469   0.270   0.694  0.9468 -0.7154 -0.2599
  724SOL    HW2 2895   2.581   0.277   0.584 -1.5507  0.2574 -1.5209
  724SOL     MW 2896   2.501   0.297   0.616 -0.0391  0.1222 -0.2166
  725SOL     OW 2897   2.630   0.410   1.240 -0.0506  0.2243  0.4772
  725SOL    HW1 2898   2.706   0.453   1.286 -0.2864 -0.1540 -1.9091
  725SOL    HW2 2899   2.622   0.320   1.279 -1.1809 -0.2363  0.7087
  725SOL     MW 2900   2.639   0.404   1.251 -0.2308  0.1136  0.1929
  726SOL     OW 2901   2.509   2.490   0.465 -0.4750  0.2531 -0.5181
  726SOL    HW1 2902   2.504   2.566   0.409  1.1698  0.4320  0.5347
  726SOL    HW2 2903   2.482   2.508   0.555  0.0239  0.3764  1.6767
  726SOL     MW 2904   2.505   2.502   0.469 -0.1922  0.2930 -0.0896
  727SOL     OW 2905   2.863   0.302   1.727 -0.2882 -0.2534 -0.3049
  727SOL    HW1 2906   2.805   0.279   1.657  0.1932  1.1797 -0.2737
  727SOL    HW2 2907   2.815   0.276   1.811 -0.3159  0.1275  1.2590
  727SOL     MW 2908   2.849   0.296   1.729 -0.2283 -0.0140 -0.0944
  728SOL     OW 2909   2.845   1.187   2.852 -0.0951 -0.0624  0.0997
  728SOL    HW1 2910   2.852   1.259   2.785  2.4958  0.8242 -2.3496
  728SOL    HW2 2911   2.845   1.232   2.937  2.8447 -0.5762 -1.9240
  728SOL     MW 2912   2.846   1.203   2.854  0.6346 -0.0132 -0.4905
  729SOL     OW 2913   2.497   1.497   1.099  0.1627  0.3365  0.5857
  729SOL    HW1 2914   2.546   1.416   1.127 -1.4569 -2.5370  0.7777
  729SOL    HW2 2915   2.482   1.487   1.003  0.4371  0.5468 -0.2608
  729SOL     MW 2916   2.502   1.485   1.090 -0.0148 -0.0149  0.4994
  730SOL     OW 2917   2.209   1.185   0.178  0.4021 -0.4546 -0.3813
  730SOL    HW1 2918   2.275   1.120   0.189 -0.7660  2.5910 -0.0144
  730SOL    HW2 2919   2.256   1.265   0.189  0.2004 -0.1107  0.7216
  730SOL     MW 2920   2.224   1.187   0.181  0.2214 -0.0074 -0.1873
  731SOL     OW 2921   2.741   2.079   2.862 -0.1378 -0.6643 -0.4023
  731SOL    HW1 2922   2.658   2.038   2.819 -1.4360  0.3238  1.5353
  731SOL    HW2 2923   2.813   2.054   2.805  1.7312  0.0819  1.6106
  731SOL     MW 2924   2.739   2.071   2.849 -0.0625 -0.4355  0.1189
  732SOL     OW 2925   2.242   0.990   1.364  0.8507 -0.3031 -0.1127
  732SOL    HW1 2926   2.225   0.941   1.449 -0.7260  0.9166  2.5692
  732SOL    HW2 2927   2.326   0.948   1.344 -0.7873  0.5439  3.9154
  732SOL     MW 2928   2.251   0.978   1.373  0.4266 -0.0305  0.7726
  733SOL     OW 2929   2.370   2.824   3.021  0.1435 -0.4648 -0.3458
  733SOL    HW1 2930   2.296   2.869   3.069  0.8671 -1.0848  1.3454
  733SOL    HW2 2931   2.353   2.727   3.032  0.6561  0.4814 -0.7265
  733SOL     MW 2932   2.358   2.817   3.028  0.3066 -0.4218 -0.1729
  734SOL     OW 2933   1.595   0.257   2.557 -0.4289  0.0957  0.4805
  734SOL    HW1 2934   1.540   0.213   2.623 -1.4316 -1.2470 -0.2669
  734SOL    HW2 2935   1.542   0.245   2.480 -1.1059  2.1334 -0.0925
  734SOL     MW 2936   1.581   0.250   2.555 -0.6505  0.1874  0.3063
  735SOL     OW 2937   2.989   0.943   2.677 -0.6906  0.3812  0.0622
  735SOL    HW1 2938   2.995   0.844   2.656 -0.4565 -0.9030 -1.3396
  735SOL    HW2 2939   2.995   0.951   2.775  0.5823  0.6501  0.7193
  735SOL     MW 2940   2.991   0.931   2.687 -0.4918  0.2473 -0.0361
  736SOL     OW 2941   0.136   0.571   2.595  0.0816  0.0708 -0.1987
  736SOL    HW1 2942   0.146   0.631   2.520 -0.6067  1.1953  0.8128
  736SOL    HW2 2943   0.155   0.480   2.557  1.6897  0.4681 -0.4783
  736SOL     MW 2944   0.140   0.567   2.580  0.2030  0.2716 -0.1021
  737SOL     OW 2945   2.980   0.689   2.625  0.2911 -0.5867  0.2848
  737SOL    HW1 2946   2.908   0.657   2.561 -1.7526 -0.4711 -1.3482
  737SOL    HW2 2947   3.059   0.656   2.589 -0.1573  1.1573  0.5572
  737SOL     MW 2948   2.981   0.681   2.612 -0.0377 -0.3413  0.1053
  738SOL     OW 2949   0.144   0.504   1.879 -0.5284 -0.4235 -0.1926
  738SOL    HW1 2950   0.243   0.522   1.890  0.5837  0.5764  0.8902
  738SOL    HW2 2951   0.144   0.480   1.788  0.5131 -2.7485  1.5613
  738SOL     MW 2952   0.157   0.503   1.868 -0.2443 -0.5984  0.1817
  739SOL     OW 2953   2.481   1.012   2.075 -0.1161 -0.0921  0.3179
  739SOL    HW1 2954   2.442   0.954   2.008  1.3969  0.9707  2.0350
  739SOL    HW2 2955   2.559   0.976   2.111 -0.2797 -0.6586  0.6096
  739SOL     MW 2956   2.486   1.000   2.071  0.0619 -0.0266  0.5830
  740SOL     OW 2957   0.101   1.845   2.928  0.0657 -0.7624 -0.0321
  740SOL    HW1 2958   0.073   1.751   2.923  1.6897 -0.8530  1.5520
  740SOL    HW2 2959   0.195   1.846   2.951 -1.8214 -0.4971  2.4134
  740SOL     MW 2960   0.110   1.833   2.930  0.0310 -0.7393  0.4996
  741SOL     OW 2961   2.245   1.172   2.737 -0.5967 -0.2631 -0.7332
  741SOL    HW1 2962   2.189   1.227   2.691 -0.2185 -0.5949  3.7326
  741SOL    HW2 2963   2.228   1.201   2.831  2.1923 -1.3617  2.5928
  741SOL     MW 2964   2.235   1.183   2.743 -0.1788 -0.4518  0.2948
  742SOL     OW 2965   1.693   1.205   2.243 -0.2413 -0.1944 -0.1736
  742SOL    HW1 2966   1.607   1.172   2.213 -1.5636  2.0582  1.4949
  742SOL    HW2 2967   1.686   1.197   2.341 -1.0636 -1.0195 -0.5871
  742SOL     MW 2968   1.681   1.200   2.252 -0.5243 -0.0060 -0.0080
  743SOL     OW 2969   2.490   1.237   2.689 -0.6407 -0.3118  0.2761
  743SOL    HW1 2970   2.397   1.226   2.706  0.8505  0.7469 -2.3659
  743SOL    HW2 2971   2.529   1.162   2.726 -3.7653 -0.5091 -1.1531
  743SOL     MW 2972   2.483   1.226   2.696 -0.8562 -0.1981 -0.2611
  744SOL     OW 2973   2.731   0.905   1.857 -0.9392 -0.4451 -0.1519
  744SOL    HW1 2974   2.690   0.992   1.859 -0.6777 -0.4414  0.0689
  744SOL    HW2 2975   2.711   0.862   1.773  0.8949 -1.2415  0.6261
  744SOL     MW 2976   2.723   0.911   1.846 -0.6627 -0.5497 -0.0201
  745SOL     OW 2977   1.688   0.503   2.449  0.1408 -0.0370  0.2423
  745SOL    HW1 2978   1.684   0.498   2.349 -2.0778  1.0347 -0.2208
  745SOL    HW2 2979   1.642   0.425   2.482 -0.1502 -0.1587 -3.0865
  745SOL     MW 2980   1.682   0.492   2.440 -0.1904  0.0884 -0.2580
  746SOL     OW 2981   1.606   1.421   1.648 -0.0878  0.0477  0.1535
  746SOL    HW1 2982   1.697   1.403   1.635 -1.4050  2.1646  1.7443
  746SOL    HW2 2983   1.603   1.429   1.740  1.3783 -1.4853 -1.6725
  746SOL     MW 2984   1.618   1.420   1.658 -0.0682  0.1248  0.1225
  747SOL     OW 2985   2.604   1.145   1.817  0.8337 -0.4225 -0.0783
  747SOL    HW1 2986   2.505   1.130   1.804 -0.5092 -1.4774 -0.3318
  747SOL    HW2 2987   2.614   1.181   1.907 -1.7847 -0.8012  0.7923
  747SOL     MW 2988   2.592   1.148   1.827  0.3110 -0.6117  0.0031
  748SOL     OW 2989   0.069   0.076   1.883 -0.5069 -0.0552  0.6618
  748SOL    HW1 2990   0.143   0.140   1.873 -1.6037 -0.4532  0.1295
  748SOL    HW2 2991   0.016   0.108   1.965 -0.8463  0.8791  2.7454
  748SOL     MW 2992   0.072   0.089   1.892 -0.6964  0.0156  0.8665
  749SOL     OW 2993   2.483   0.598   2.730  0.6961 -0.2299 -0.1744
  749SOL    HW1 2994   2.517   0.659   2.663 -1.1801  2.5734  2.3421
  749SOL    HW2 2995   2.505   0.638   2.820 -2.6689 -0.4711  1.2821
  749SOL     MW 2996   2.490   0.611   2.733  0.0045  0.1081  0.3498
  750SOL     OW 2997   2.064   3.049   1.990 -0.1524 -0.1389  0.2074
  750SOL    HW1 2998   2.116   3.130   1.981 -1.0640  1.2517 -1.0786
  750SOL    HW2 2999   2.122   2.969   1.997  0.5955  0.8604  2.0839
  750SOL     MW 3000   2.078   3.049   1.990 -0.1740  0.1764  0.2853
  751SOL     OW 3001   0.154   0.337   2.472  0.7046 -0.4350 -0.4941
  751SOL    HW1 3002   0.114   0.259   2.510  0.4938 -0.8625  1.5887
  751SOL    HW2 3003   0.136   0.330   2.377  0.4438 -0.5073  0.7932
  751SOL     MW 3004   0.147   0.326   2.464  0.6423 -0.5009 -0.0494
  752SOL     OW 3005   2.116   0.765   2.739  0.3809  0.4681  0.0143
  752SOL    HW1 3006   2.185   0.823   2.703  1.6454  1.1934  0.6873
  752SOL    HW2 3007   2.116   0.785   2.835  0.8558  2.3546  1.0810
  752SOL     MW 3008   2.125   0.775   2.747  0.6104  0.8127  0.2438
  753SOL     OW 3009   2.900   0.211   2.391 -0.0809 -0.1911  0.0645
  753SOL    HW1 3010   2.844   0.138   2.373 -1.5983  0.2117 -0.6744
  753SOL    HW2 3011   2.856   0.290   2.355 -1.6114 -1.7595  0.3078
  753SOL     MW 3012   2.887   0.212   2.384 -0.4831 -0.3449 -0.0009
  754SOL     OW 3013   2.221   2.989   2.596  0.1938  0.3887  0.2318
  754SOL    HW1 3014   2.232   2.946   2.510 -0.8284 -1.1007 -0.6434
  754SOL    HW2 3015   2.303   2.960   2.650  1.0767 -2.5073 -1.1552
  754SOL     MW 3016   2.233   2.979   2.592  0.1754 -0.1899 -0.0667
  755SOL     OW 3017   2.696   1.514   2.444  0.1531  0.1144  0.5651
  755SOL    HW1 3018   2.711   1.435   2.497  0.8075  0.5817  0.7076
  755SOL    HW2 3019   2.747   1.581   2.499  1.0507 -2.9951  0.1799
  755SOL     MW 3020   2.705   1.513   2.459  0.3579 -0.2343  0.5331
  756SOL     OW 3021   2.206   1.219   2.987  0.7191 -0.0920 -0.0110
  756SOL    HW1 3022   2.277   1.281   3.005 -0.3023 -1.5305 -3.0261
  756SOL    HW2 3023   2.238   1.133   3.027 -0.7648  1.5162  1.4548
  756SOL     MW 3024   2.219   1.215   2.994  0.3886 -0.0696 -0.2154
  757SOL     OW 3025   2.158   0.888   1.595 -0.1159 -0.0726 -0.3741
  757SOL    HW1 3026   2.169   0.790   1.593  1.1738  0.8739 -0.6391
  757SOL    HW2 3027   2.067   0.894   1.548 -1.0728 -1.4226  0.1841
  757SOL     MW 3028   2.147   0.876   1.588 -0.0720 -0.1258 -0.3354
  758SOL     OW 3029   2.234   1.841   2.629 -0.0059  0.0260 -0.5164
  758SOL    HW1 3030   2.208   1.852   2.537  3.5491 -2.8899  2.5268
  758SOL    HW2 3031   2.327   1.813   2.623  0.8165  1.3300 -1.9655
  758SOL     MW 3032   2.243   1.839   2.616  0.5716 -0.1867 -0.3061
  759SOL     OW 3033   1.551   1.268   2.691  0.4722 -0.5106 -0.0096
  759SOL    HW1 3034   1.535   1.357   2.647  1.8976 -0.7103 -3.2345
  759SOL    HW2 3035   1.588   1.293   2.778 -2.5058  1.2107  0.7323
  759SOL     MW 3036   1.554   1.283   2.696  0.2673 -0.3098 -0.3372
  760SOL     OW 3037   2.530   1.984   2.725 -0.0954 -0.2931  0.0735
  760SOL    HW1 3038   2.535   1.891   2.692 -2.4585 -2.2368  3.4731
  760SOL    HW2 3039   2.543   2.041   2.648 -0.5294  0.9703  2.9754
  760SOL     MW 3040   2.532   1.979   2.710 -0.4644 -0.3828  0.9049
  761SOL     OW 3041   2.155   0.360   2.501  0.3438  0.3582  0.4112
  761SOL    HW1 3042   2.098   0.292   2.534  2.1711  1.3328 -2.5006
  761SOL    HW2 3043   2.174   0.414   2.583 -0.5221  0.3943  0.1275
  761SOL     MW 3044   2.150   0.358   2.516  0.4706  0.4915 -0.0104
  762SOL     OW 3045   3.061   0.171   2.103 -1.0941  0.2670  0.0600
  762SOL    HW1 3046   3.114   0.127   2.176 -1.6355  4.0103  0.9668
  762SOL    HW2 3047   3.068   0.259   2.150 -0.4941 -2.0827  0.3536
  762SOL     MW 3048   3.069   0.177   2.119 -1.0864  0.4509  0.2184
  763SOL     OW 3049   2.327   1.037   2.342 -0.3662 -0.2649  0.0442
  763SOL    HW1 3050   2.361   0.970   2.283  1.3617 -0.5065  0.2970
  763SOL    HW2 3051   2.391   1.112   2.352  0.5034  4.1543 -1.5318
  763SOL     MW 3052   2.340   1.038   2.335 -0.0235  0.2863 -0.1304
  764SOL     OW 3053   0.500   0.236   2.798 -0.5704  0.0145 -0.1910
  764SOL    HW1 3054   0.411   0.194   2.781 -2.0338 -1.3186 -0.5619
  764SOL    HW2 3055   0.495   0.330   2.809  0.3363  0.4872  0.8634
  764SOL     MW 3056   0.488   0.243   2.797 -0.6438 -0.0990 -0.1008
  765SOL     OW 3057   2.729   3.071   2.346 -0.0795 -0.3078  0.0616
  765SOL    HW1 3058   2.672   3.057   2.267  1.1990 -0.3329  1.6237
  765SOL    HW2 3059   2.812   3.024   2.322 -0.4385  0.5045 -0.9039
  765SOL     MW 3060   2.732   3.063   2.332  0.0418 -0.2039  0.1403
  766SOL     OW 3061   1.854   2.966   2.162  0.2485 -0.1208 -0.0784
  766SOL    HW1 3062   1.923   3.007   2.102  2.4979  0.6525  0.1362
  766SOL    HW2 3063   1.797   2.904   2.109 -0.2775  1.0702 -1.6008
  766SOL     MW 3064   1.856   2.963   2.147  0.4759  0.1384 -0.2509
  767SOL     OW 3065   2.690   0.607   2.093 -0.1503  0.0291  0.0498
  767SOL    HW1 3066   2.712   0.698   2.112  1.9613  0.2190  1.9681
  767SOL    HW2 3067   2.602   0.609   2.044  0.1266  0.1691 -0.3730
  767SOL     MW 3068   2.681   0.619   2.089  0.1649  0.0726  0.2471
  768SOL     OW 3069   0.001   1.591   2.933  0.2864 -0.1900  0.4768
  768SOL    HW1 3070   0.023   1.559   3.026 -2.4105  0.7645 -0.4340
  768SOL    HW2 3071   0.046   1.537   2.864 -1.4779  4.6843  2.8137
  768SOL     MW 3072   0.010   1.579   2.936 -0.3022  0.5790  0.6649
  769SOL     OW 3073   2.447   0.687   2.341  0.2520 -0.2875  0.2860
  769SOL    HW1 3074   2.436   0.608   2.390 -0.8601  2.8066  0.7035
  769SOL    HW2 3075   2.369   0.712   2.293 -0.0023  0.5335 -0.3408
  769SOL     MW 3076   2.435   0.680   2.341  0.0717  0.2291  0.2583
  770SOL     OW 3077   0.033   1.622   2.599  0.0071  0.6992 -0.2469
  770SOL    HW1 3078  -0.060   1.621   2.597  4.6501  2.2085 -2.8704
  770SOL    HW2 3079   0.061   1.546   2.555 -2.8206  0.9133 -3.4880
  770SOL     MW 3080   0.024   1.612   2.593  0.2466  0.9266 -1.0206
  771SOL     OW 3081   3.060   0.631   2.058 -0.4361 -0.5419  0.5021
  771SOL    HW1 3082   2.995   0.603   1.992  0.4916 -1.7051 -1.7600
  771SOL    HW2 3083   3.135   0.587   2.006  2.1892 -0.9644 -1.8892
  771SOL     MW 3084   3.061   0.621   2.042  0.0327 -0.7511 -0.1119
  772SOL     OW 3085   0.066   3.091   2.314 -0.0952  0.1758 -0.2894
  772SOL    HW1 3086  -0.016   3.044   2.304 -0.8881 -2.1335 -0.6468
  772SOL    HW2 3087   0.121   3.055   2.246  0.3987  1.7828 -1.6573
  772SOL     MW 3088   0.062   3.080   2.303 -0.1347  0.0832 -0.5170
  773SOL     OW 3089   2.391   2.860   2.752  0.3248 -0.0383  0.2404
  773SOL    HW1 3090   2.432   2.780   2.713  0.0029 -0.6411 -2.4987
  773SOL    HW2 3091   2.380   2.840   2.844  0.8746 -4.0922 -0.2779
  773SOL     MW 3092   2.395   2.847   2.759  0.3549 -0.6527 -0.1894
  774SOL     OW 3093   2.352   1.120   1.742 -0.0726  0.8590  0.0269
  774SOL    HW1 3094   2.316   1.187   1.682 -0.7582  1.9397 -0.6731
  774SOL    HW2 3095   2.313   1.040   1.698  0.9015  0.7425 -0.2527
  774SOL     MW 3096   2.342   1.118   1.728 -0.0346  0.9862 -0.1023
  775SOL     OW 3097   2.317   2.878   2.327  0.2284 -0.2152 -0.1542
  775SOL    HW1 3098   2.339   2.958   2.285  0.9641 -1.3538 -1.3926
  775SOL    HW2 3099   2.384   2.816   2.297  1.1006 -0.8394  0.1661
  775SOL     MW 3100   2.329   2.880   2.317  0.4405 -0.4478 -0.2753
  776SOL     OW 3101   0.037   1.498   0.106 -0.3753  0.1052 -0.2283
  776SOL    HW1 3102   0.129   1.474   0.099 -0.0993  3.8122  1.6016
  776SOL    HW2 3103  -0.001   1.408   0.124 -1.5597  1.7578 -1.1366
  776SOL     MW 3104   0.044   1.483   0.107 -0.4952  0.8123 -0.1067
  777SOL     OW 3105   2.977   1.068   1.743  0.4058 -0.6364 -0.1546
  777SOL    HW1 3106   2.911   1.108   1.688 -2.6640 -2.1694  1.0961
  777SOL    HW2 3107   2.920   1.044   1.816  1.0637 -0.5905  0.8743
  777SOL     MW 3108   2.961   1.070   1.746  0.0876 -0.8326  0.1462
  778SOL     OW 3109   2.888   0.479   2.774  0.0421 -0.9594 -0.2980
  778SOL    HW1 3110   2.841   0.497   2.862  0.0382 -0.3622 -0.6597
  778SOL    HW2 3111   2.925   0.562   2.745 -0.2425 -1.2861  1.3717
  778SOL     MW 3112   2.886   0.492   2.781  0.0040 -0.9237 -0.1254
  779SOL     OW 3113   2.147   0.572   2.325 -0.4048 -0.1871 -0.3473
  779SOL    HW1 3114   2.094   0.635   2.362 -1.3614 -1.3896 -3.3617
  779SOL    HW2 3115   2.143   0.498   2.384 -0.7337  3.7988  0.7753
  779SOL     MW 3116   2.139   0.570   2.338 -0.5744  0.1801 -0.5969
  780SOL     OW 3117   0.243   0.140   2.806 -0.4382  0.1115  0.6130
  780SOL    HW1 3118   0.178   0.165   2.874 -0.5573  0.0735  0.8348
  780SOL    HW2 3119   0.185   0.105   2.735 -3.4767 -0.0884  0.9470
  780SOL     MW 3120   0.227   0.139   2.805 -0.8548  0.0801  0.6863
  781SOL     OW 3121   3.067   1.305   2.522  0.1954  0.3906 -0.1114
  781SOL    HW1 3122   3.020   1.328   2.442  0.8142  0.3234  0.9586
  781SOL    HW2 3123   3.089   1.214   2.504  0.3032  2.2262  2.2938
  781SOL     MW 3124   3.063   1.296   2.509  0.2913  0.6239  0.3471
  782SOL     OW 3125   0.528   1.637   3.039  0.3467  0.3462  0.2009
  782SOL    HW1 3126   0.468   1.715   3.037 -3.0315 -0.3099  0.8690
  782SOL    HW2 3127   0.531   1.586   3.126  0.5309 -2.2512  3.7101
  782SOL     MW 3128   0.521   1.640   3.050 -0.0747 -0.0830  0.7521
  783SOL     OW 3129   2.797   0.546   2.472 -0.3011  0.1050  0.3085
  783SOL    HW1 3130   2.754   0.528   2.391  2.7723  1.6375  0.2589
  783SOL    HW2 3131   2.749   0.496   2.537  1.4257  1.2194 -0.3124
  783SOL     MW 3132   2.785   0.537   2.470  0.3323  0.4542  0.2200
  784SOL     OW 3133   0.274   0.903   2.899 -0.1908  0.1126  0.9075
  784SOL    HW1 3134   0.257   0.947   2.976  1.3166 -1.6093 -3.0260
  784SOL    HW2 3135   0.241   0.951   2.818 -1.2148  1.0890  0.7567
  784SOL     MW 3136   0.267   0.915   2.899 -0.1270  0.0142  0.3687
  785SOL     OW 3137   0.377   0.480   2.142 -0.5121 -0.2156  0.2436
  785SOL    HW1 3138   0.386   0.494   2.049  1.7164 -0.9283  1.0919
  785SOL    HW2 3139   0.307   0.417   2.141 -0.7398  2.6251  0.8254
  785SOL     MW 3140   0.369   0.473   2.129 -0.2481  0.0652  0.4323
  786SOL     OW 3141   1.990   0.464   2.858  0.0852  0.4112  0.2925
  786SOL    HW1 3142   1.962   0.456   2.950 -3.8330  0.0191 -3.5879
  786SOL    HW2 3143   2.086   0.461   2.838  3.0383 -0.5542  1.9770
  786SOL     MW 3144   1.999   0.462   2.867 -0.0421  0.2321  0.0028
  787SOL     OW 3145   2.397   0.156   2.884 -0.1430  0.5136  0.2071
  787SOL    HW1 3146   2.471   0.093   2.849  2.5553 -0.9347 -2.2683
  787SOL    HW2 3147   2.452   0.226   2.925 -2.1780 -0.1546 -0.0614
  787SOL     MW 3148   2.414   0.157   2.885 -0.0555  0.2343 -0.1549
  788SOL     OW 3149   2.955   2.933   2.262  0.4413  0.1059  0.3555
  788SOL    HW1 3150   2.981   2.883   2.188  1.2180  1.1169 -2.7194
  788SOL    HW2 3151   2.972   2.874   2.337 -0.8067 -1.7507 -0.1472
  788SOL     MW 3152   2.961   2.919   2.262  0.3791 -0.0056 -0.1165
  789SOL     OW 3153   0.062   0.230   2.982 -0.0674 -0.0981 -0.3373
  789SOL    HW1 3154  -0.016   0.197   3.020 -0.0404  0.5945  1.5464
  789SOL    HW2 3155   0.065   0.322   3.019  1.2961 -1.0461  4.1163
  789SOL     MW 3156   0.052   0.238   2.992  0.1161 -0.1318  0.4989
  790SOL     OW 3157   0.016   1.031   2.459 -0.6648  0.1962 -0.1074
  790SOL    HW1 3158  -0.034   1.013   2.538  0.4027  1.7106 -2.4851
  790SOL    HW2 3159  -0.047   1.027   2.389  1.3730  0.0308 -2.5317
  790SOL     MW 3160   0.001   1.028   2.460 -0.2551  0.3742 -0.7410
  791SOL     OW 3161   2.640   0.376   2.654 -0.5237  0.2532 -0.1740
  791SOL    HW1 3162   2.570   0.420   2.693  0.6279  1.3776  1.5883
  791SOL    HW2 3163   2.715   0.407   2.703 -1.7373  1.2301 -0.6668
  791SOL     MW 3164   2.641   0.386   2.666 -0.5319  0.5305 -0.0065
  792SOL     OW 3165   2.370   0.244   2.399 -0.6251  0.4056 -0.0294
  792SOL    HW1 3166   2.293   0.292   2.444  0.3576 -1.7288  1.8186
  792SOL    HW2 3167   2.428   0.224   2.479 -0.1948 -2.7171  0.1438
  792SOL     MW 3168   2.368   0.247   2.415 -0.4387 -0.2880  0.2373
  793SOL     OW 3169   1.776   0.996   1.878  0.3798 -0.1889 -0.4563
  793SOL    HW1 3170   1.782   1.048   1.801  1.1549 -2.8663  3.2108
  793SOL    HW2 3171   1.858   0.950   1.890  0.3400  0.2684  0.2357
  793SOL     MW 3172   1.788   0.997   1.869  0.4768 -0.4819  0.1188
  794SOL     OW 3173   1.435   2.278   0.124  0.1978 -0.0602  0.2121
  794SOL    HW1 3174   1.430   2.351   0.062 -1.3357 -0.2807 -1.1093
  794SOL    HW2 3175   1.456   2.307   0.211 -0.6995 -0.9224 -0.2856
  794SOL     MW 3176   1.437   2.291   0.127 -0.1229 -0.2030 -0.0279
  795SOL     OW 3177   2.293   0.922   2.610  0.7379  0.0257  0.0474
  795SOL    HW1 3178   2.291   0.994   2.670  1.9000 -0.3288 -0.0852
  795SOL    HW2 3179   2.312   0.957   2.520 -0.2106  1.5176 -1.4042
  795SOL     MW 3180   2.295   0.936   2.606  0.7661  0.1758 -0.1616
  796SOL     OW 3181   0.334   0.684   2.760 -0.3617 -0.5472  0.2932
  796SOL    HW1 3182   0.302   0.748   2.826 -0.8075 -1.3714  1.0220
  796SOL    HW2 3183   0.262   0.643   2.709 -0.9491  2.7325  2.3189
  796SOL     MW 3184   0.320   0.687   2.762 -0.4981 -0.2232  0.6566
  797SOL     OW 3185   2.596   0.125   2.559  0.1188 -0.4018  0.4056
  797SOL    HW1 3186   2.634   0.207   2.600  1.6788  3.8313 -0.1066
  797SOL    HW2 3187   2.658   0.105   2.488 -0.4794  1.9346 -2.0208
  797SOL     MW 3188   2.609   0.133   2.555  0.2457  0.4650  0.0179
  798SOL     OW 3189   2.343   0.050   2.203  0.0657  0.2170 -0.2445
  798SOL    HW1 3190   2.348   0.122   2.270 -0.0613  0.4740 -1.0202
  798SOL    HW2 3191   2.435   0.026   2.179  4.0644  2.9471  0.9935
  798SOL     MW 3192   2.356   0.056   2.208  0.5765  0.6111 -0.1835
  799SOL     OW 3193   2.486   2.928   0.200  0.0370  0.2676  0.2483
  799SOL    HW1 3194   2.510   2.844   0.159  0.7723  1.8052 -0.1908
  799SOL    HW2 3195   2.439   2.977   0.128 -1.3737 -0.6702 -0.2212
  799SOL     MW 3196   2.483   2.923   0.185 -0.0521  0.3467  0.1284
  800SOL     OW 3197   1.902   3.095   1.764  0.1688  0.2678  0.1349
  800SOL    HW1 3198   1.831   3.036   1.786  0.3435 -1.4835 -0.6548
  800SOL    HW2 3199   1.973   3.080   1.831  1.1535 -0.0990  0.3273
  800SOL     MW 3200   1.902   3.086   1.776  0.3218 -0.0117  0.0561
  801SOL     OW 3201   2.802   1.297   2.570 -0.3546  0.1414 -0.5344
  801SOL    HW1 3202   2.776   1.204   2.541  1.1693 -0.7009  1.2343
  801SOL    HW2 3203   2.895   1.307   2.555 -0.0898  1.0545 -1.9386
  801SOL     MW 3204   2.811   1.286   2.564 -0.1186  0.1508 -0.4863
  802SOL     OW 3205   2.559   1.508   2.777 -0.0851  0.6447 -0.3185
  802SOL    HW1 3206   2.550   1.437   2.715 -0.9426  0.9005  0.4048
  802SOL    HW2 3207   2.654   1.521   2.807  3.2165  1.1123 -3.4236
  802SOL     MW 3208   2.571   1.501   2.773  0.2374  0.7401 -0.6328
  803SOL     OW 3209   2.306   1.302   1.960  0.1037 -0.1903 -0.2139
  803SOL    HW1 3210   2.270   1.259   2.035  1.2929  2.1816 -0.4163
  803SOL    HW2 3211   2.334   1.231   1.897  3.0865 -1.7406 -0.4637
  803SOL     MW 3212   2.305   1.287   1.962  0.6541 -0.0819 -0.2736
  804SOL     OW 3213   2.346   0.054   0.031  0.1404 -0.4631 -0.0873
  804SOL    HW1 3214   2.271   0.119   0.042 -0.0288 -0.7099  0.2762
  804SOL    HW2 3215   2.377   0.073  -0.060  1.1873  0.6644 -1.6871
  804SOL     MW 3216   2.340   0.065   0.020  0.2562 -0.3469 -0.2504
  805SOL     OW 3217   2.764   1.036   2.544  0.6182 -0.5914  0.0533
  805SOL    HW1 3218   2.698   0.964   2.533  0.6016 -0.4087 -0.6195
  805SOL    HW2 3219   2.836   1.001   2.604 -0.5585  1.7331  1.7905
  805SOL     MW 3220   2.765   1.022   2.550  0.4608 -0.2606  0.1937
  806SOL     OW 3221   2.660   0.366   2.278  0.5173 -0.5538 -0.2983
  806SOL    HW1 3222   2.577   0.326   2.297 -0.8858  0.5589 -2.8830
  806SOL    HW2 3223   2.650   0.439   2.212 -1.4524 -1.9961 -2.6509
  806SOL     MW 3224   2.648   0.370   2.272  0.0723 -0.5973 -0.9497
  807SOL     OW 3225   3.095   1.130   2.025  1.1907  0.3314 -0.2305
  807SOL    HW1 3226   3.126   1.039   2.037 -0.1138 -0.8312 -0.0822
  807SOL    HW2 3227   3.025   1.140   2.089 -1.3066 -0.4693 -1.7725
  807SOL     MW 3228   3.090   1.119   2.035  0.6891  0.0723 -0.4144
  808SOL     OW 3229   2.569   3.074   2.796 -0.2753  0.6582 -0.1357
  808SOL    HW1 3230   2.535   2.983   2.789 -1.6401 -1.4823  0.1792
  808SOL    HW2 3231   2.584   3.103   2.705  2.7489 -1.5128  1.4970
  808SOL     MW 3232   2.566   3.066   2.783 -0.0564  0.0893  0.1213
  809SOL     OW 3233   2.478   1.258   2.415 -0.4414  0.2256  0.2386
  809SOL    HW1 3234   2.491   1.241   2.513  1.6132  1.4738  0.9452
  809SOL    HW2 3235   2.566   1.281   2.388  0.0337  0.1564 -2.1655
  809SOL     MW 3236   2.492   1.259   2.424 -0.1076  0.3811  0.0146
  810SOL     OW 3237   2.171   1.196   2.179 -1.0371 -0.4809  0.1275
  810SOL    HW1 3238   2.234   1.136   2.230 -0.5117  2.0124  1.7898
  810SOL    HW2 3239   2.089   1.145   2.170 -0.3219 -3.5706 -1.7049
  810SOL     MW 3240   2.169   1.181   2.184 -0.8734 -0.5596  0.1051
  811SOL     OW 3241   1.495   0.089   2.244  0.0104 -0.1444  0.1713
  811SOL    HW1 3242   1.576   0.046   2.268 -1.3673 -0.2064 -1.5394
  811SOL    HW2 3243   1.484   0.078   2.143  4.8273 -0.3419 -3.7706
  811SOL     MW 3244   1.504   0.082   2.234  0.4642 -0.1786 -0.5745
  812SOL     OW 3245   1.388   2.757   2.078 -0.0441  0.5855  0.4757
  812SOL    HW1 3246   1.485   2.763   2.057  2.1693 -2.1070  1.9842
  812SOL    HW2 3247   1.391   2.725   2.169 -1.1255 -1.8264 -0.3458
  812SOL     MW 3248   1.401   2.754   2.087  0.1053 -0.0879  0.5664
  813SOL     OW 3249   1.830   0.759   2.181  0.5981  0.1034 -0.3432
  813SOL    HW1 3250   1.798   0.667   2.185 -0.4167  0.7753  2.5471
  813SOL    HW2 3251   1.867   0.782   2.262  3.7174 -2.4776 -3.1849
  813SOL     MW 3252   1.831   0.750   2.192  0.8758 -0.1485 -0.3368
  814SOL     OW 3253   2.792   1.206   1.615  0.4728  0.2826  0.2109
  814SOL    HW1 3254   2.710   1.187   1.670  1.0211 -1.5018  0.2695
  814SOL    HW2 3255   2.757   1.194   1.524  1.7093  0.4932 -0.4584
  814SOL     MW 3256   2.776   1.202   1.610  0.7083  0.0750  0.1304
  815SOL     OW 3257   2.463   1.626   2.368  0.0816  0.4508 -0.0257
  815SOL    HW1 3258   2.398   1.560   2.360  4.5635  0.2790 -1.6905
  815SOL    HW2 3259   2.548   1.594   2.408 -1.6492 -0.0132 -1.1789
  815SOL     MW 3260   2.466   1.613   2.372  0.4446  0.3669 -0.3975
  816SOL     OW 3261   0.652   0.692   2.717  0.7840  0.8226 -0.1297
  816SOL    HW1 3262   0.695   0.613   2.748  0.7006  3.8697 -1.7193
  816SOL    HW2 3263   0.573   0.645   2.672  0.1062 -0.1207 -0.5713
  816SOL     MW 3264   0.647   0.676   2.715  0.6836  1.1002 -0.3977
  817SOL     OW 3265   3.031   1.158   1.388 -0.1955 -0.2829 -0.1641
  817SOL    HW1 3266   3.091   1.179   1.459  0.8200  1.2416 -3.1389
  817SOL    HW2 3267   3.025   1.232   1.329  2.2138  1.5383  1.3122
  817SOL     MW 3268   3.038   1.171   1.390  0.2564  0.1585 -0.3618
  818SOL     OW 3269   1.928   0.984   2.683 -0.3714 -0.2749 -0.3195
  818SOL    HW1 3270   1.961   1.033   2.608 -1.2301  0.0445  2.0529
  818SOL    HW2 3271   1.993   0.916   2.705 -0.7705  0.5062  1.1815
  818SOL     MW 3272   1.941   0.982   2.676 -0.5374 -0.1297  0.1916
  819SOL     OW 3273   1.825   0.267   2.375  0.3498  0.6435 -0.5481
  819SOL    HW1 3274   1.823   0.353   2.413 -0.4756 -2.1296  0.0980
  819SOL    HW2 3275   1.857   0.219   2.455 -2.3388 -0.8997  1.1630
  819SOL     MW 3276   1.829   0.272   2.391 -0.1139  0.0740 -0.2371
  820SOL     OW 3277   2.456   1.717   2.618 -0.2899  0.3667 -0.0332
  820SOL    HW1 3278   2.474   1.658   2.692  1.9736 -1.9116 -0.7989
  820SOL    HW2 3279   2.462   1.672   2.528  0.2201 -0.3910 -2.8438
  820SOL     MW 3280   2.459   1.704   2.616  0.0760 -0.0339 -0.5051
  821SOL     OW 3281   2.582   1.335   2.041 -0.1940 -0.1397 -0.0247
  821SOL    HW1 3282   2.608   1.387   1.965  0.9952 -0.5179 -1.8694
  821SOL    HW2 3283   2.490   1.342   2.044  0.9932  0.9584  0.6548
  821SOL     MW 3284   2.573   1.342   2.032  0.1195 -0.0447 -0.1784
  822SOL     OW 3285   2.900   2.684   1.383  0.6555 -0.1588 -0.2773
  822SOL    HW1 3286   2.808   2.710   1.376  0.6735 -0.1960 -0.1287
  822SOL    HW2 3287   2.946   2.766   1.405  0.6977  2.4254  1.5386
  822SOL     MW 3288   2.894   2.698   1.385  0.6634  0.1773 -0.0181
  823SOL     OW 3289   2.302   0.445   1.771  0.4734 -0.8000 -0.4665
  823SOL    HW1 3290   2.391   0.415   1.743  1.3928  1.2467  1.0357
  823SOL    HW2 3291   2.238   0.385   1.732 -1.8279 -0.4279  0.0000
  823SOL     MW 3292   2.305   0.433   1.762  0.2911 -0.4808 -0.2067
  824SOL     OW 3293   2.124   1.322   2.556  0.4297  0.0374 -0.1933
  824SOL    HW1 3294   2.176   1.342   2.471  0.9744 -0.1910  0.6088
  824SOL    HW2 3295   2.096   1.412   2.585 -0.3612  1.4957  2.6635
  824SOL     MW 3296   2.127   1.336   2.548  0.3972  0.1997  0.2895
  825SOL     OW 3297   2.188   2.398   0.402 -0.3355 -0.2299  0.3660
  825SOL    HW1 3298   2.242   2.333   0.365 -2.8766  2.4382  0.0742
  825SOL    HW2 3299   2.209   2.382   0.493 -2.7043  0.5140  0.8309
  825SOL     MW 3300   2.198   2.387   0.409 -0.9833  0.2203  0.3889
  826SOL     OW 3301   1.745   2.340   0.399  0.0552  0.3334 -0.0321
  826SOL    HW1 3302   1.758   2.308   0.493  1.8378 -0.3975  1.6428
  826SOL    HW2 3303   1.749   2.435   0.405  0.7920  2.6721 -2.2525
  826SOL     MW 3304   1.747   2.348   0.412  0.3876  0.5455 -0.1041
  827SOL     OW 3305   1.927   2.289   0.887 -0.0626  0.0420 -0.8260
  827SOL    HW1 3306   1.883   2.288   0.800  1.2930  1.8095 -0.7404
  827SOL    HW2 3307   1.887   2.212   0.941 -0.1383  0.0749  2.7600
  827SOL     MW 3308   1.916   2.279   0.883  0.1063  0.2795 -0.3416
  828SOL     OW 3309   0.047   2.602   0.562 -0.1237 -0.5067  0.0873
  828SOL    HW1 3310   0.113   2.635   0.623 -1.9309  0.1127 -0.2071
  828SOL    HW2 3311   0.069   2.655   0.480 -2.1745  0.8818 -0.2717
  828SOL     MW 3312   0.059   2.614   0.559 -0.6327 -0.2418  0.0011
  829SOL     OW 3313   3.013   2.892   1.205 -0.2534  0.0314  0.3019
  829SOL    HW1 3314   2.937   2.896   1.153  2.9140 -1.9315  2.1500
  829SOL    HW2 3315   3.043   2.803   1.194  1.6108 -0.3956  1.9843
  829SOL     MW 3316   3.007   2.881   1.197  0.4105 -0.2839  0.7677
  830SOL     OW 3317   2.503   2.780   1.995 -1.0084 -0.0027 -0.6254
  830SOL    HW1 3318   2.411   2.822   1.961  0.6022  1.9308  0.3033
  830SOL    HW2 3319   2.556   2.768   1.913 -0.5733 -1.2478  0.6899
  830SOL     MW 3320   2.498   2.784   1.980 -0.7385  0.0881 -0.3293
  831SOL     OW 3321   2.470   2.433   1.177 -0.2818  0.1510  0.2915
  831SOL    HW1 3322   2.447   2.360   1.235 -2.5514 -1.3798  2.8135
  831SOL    HW2 3323   2.568   2.424   1.167  0.5278  0.1315  1.5202
  831SOL     MW 3324   2.480   2.422   1.183 -0.4744 -0.0535  0.7864
  832SOL     OW 3325   2.412   2.126   1.895 -0.0297 -0.3841  0.6957
  832SOL    HW1 3326   2.455   2.207   1.910 -1.4637  0.9701 -0.1958
  832SOL    HW2 3327   2.479   2.068   1.867 -0.7655 -2.5583  1.0183
  832SOL     MW 3328   2.427   2.129   1.893 -0.3160 -0.4923  0.6206
  833SOL     OW 3329   1.645   2.579   0.860 -0.3374 -0.7593 -0.9412
  833SOL    HW1 3330   1.614   2.514   0.931 -2.5856  0.9571 -3.4016
  833SOL    HW2 3331   1.565   2.632   0.839 -1.0593 -1.2184  0.9164
  833SOL     MW 3332   1.630   2.577   0.866 -0.7293 -0.5934 -1.0207
  834SOL     OW 3333   2.257   2.352   0.658 -0.0311  0.4929 -1.4497
  834SOL    HW1 3334   2.245   2.264   0.684  1.2016  0.8981 -0.5742
  834SOL    HW2 3335   2.350   2.375   0.678 -1.7503 -0.2562  0.8845
  834SOL     MW 3336   2.268   2.343   0.664 -0.0953  0.4475 -1.0262
  835SOL     OW 3337   1.737   2.543   0.611  0.6280 -0.1630  0.2120
  835SOL    HW1 3338   1.705   2.566   0.700 -0.8226  2.8350 -1.7375
  835SOL    HW2 3339   1.803   2.488   0.644  0.8339 -2.0770 -1.1478
  835SOL     MW 3340   1.741   2.539   0.627  0.4638 -0.0200 -0.2246
  836SOL     OW 3341   2.069   2.100   1.680  0.5170 -0.2988  0.6083
  836SOL    HW1 3342   2.154   2.054   1.683  1.9724  0.3798 -0.1329
  836SOL    HW2 3343   2.093   2.185   1.720  1.7345 -0.1257 -0.5187
  836SOL     MW 3344   2.083   2.105   1.686  0.8697 -0.1864  0.3618
  837SOL     OW 3345   2.107   0.179   0.636  0.0448 -0.4889  0.1634
  837SOL    HW1 3346   2.022   0.197   0.607 -0.9433  0.6929  0.0738
  837SOL    HW2 3347   2.144   0.103   0.582  2.4574 -1.7182 -1.5088
  837SOL     MW 3348   2.101   0.172   0.625  0.2328 -0.4952 -0.0691
  838SOL     OW 3349   2.881   2.060   0.901  0.6513 -0.2684 -0.1998
  838SOL    HW1 3350   2.827   1.981   0.910  1.5744  0.5983  1.1711
  838SOL    HW2 3351   2.929   2.075   0.987  0.5614  1.3132  1.4678
  838SOL     MW 3352   2.881   2.052   0.914  0.7612  0.0546  0.2011
  839SOL     OW 3353   1.572   2.381   1.050 -0.4010  0.6519  0.2195
  839SOL    HW1 3354   1.553   2.460   1.101  0.4863 -2.4296 -1.4771
  839SOL    HW2 3355   1.608   2.304   1.110  2.7861 -2.5620  1.9942
  839SOL     MW 3356   1.574   2.381   1.065  0.1365 -0.1787  0.2298
  840SOL     OW 3357   2.420   2.099   2.360  0.4691 -0.2843 -1.0780
  840SOL    HW1 3358   2.365   2.175   2.332 -1.4150  1.7891  0.3873
  840SOL    HW2 3359   2.474   2.148   2.421 -2.1035  1.4168 -0.0897
  840SOL     MW 3360   2.420   2.116   2.365 -0.1190  0.2137 -0.7543
  841SOL     OW 3361   2.320   2.309   0.099  0.5596 -0.5908  0.3512
  841SOL    HW1 3362   2.322   2.380   0.038 -2.9238 -1.1385  1.4281
  841SOL    HW2 3363   2.236   2.260   0.091  0.4958 -0.7676  0.6086
  841SOL     MW 3364   2.309   2.312   0.090  0.0916 -0.6864  0.5272
  842SOL     OW 3365   2.653   1.916   1.415 -0.6409 -0.1450  0.4228
  842SOL    HW1 3366   2.581   1.857   1.425 -0.5611  0.3019  1.7723
  842SOL    HW2 3367   2.647   1.953   1.326 -0.6826 -2.1602 -1.0621
  842SOL     MW 3368   2.643   1.913   1.404 -0.6359 -0.3519  0.4050
  843SOL     OW 3369   2.640   2.783   1.737 -0.2115 -0.1641  0.2036
  843SOL    HW1 3370   2.733   2.763   1.759  0.4695  2.5548 -0.1105
  843SOL    HW2 3371   2.604   2.697   1.697 -4.2058 -0.5867 -0.4773
  843SOL     MW 3372   2.647   2.769   1.735 -0.6487  0.1389  0.0723
  844SOL     OW 3373   2.710   2.325   1.115  0.1334  0.0121 -0.0739
  844SOL    HW1 3374   2.715   2.367   1.026  1.9900 -1.3551  0.7001
  844SOL    HW2 3375   2.771   2.378   1.170 -0.6088  1.3617 -0.7623
  844SOL     MW 3376   2.719   2.338   1.110  0.2804  0.0098 -0.0626
  845SOL     OW 3377   2.844   2.589   0.297  0.4619  0.4054 -0.1194
  845SOL    HW1 3378   2.819   2.509   0.335  0.8953  1.1420 -1.9126
  845SOL    HW2 3379   2.816   2.640   0.374 -0.0961  0.0638 -1.0958
  845SOL     MW 3380   2.837   2.585   0.312  0.4454  0.4575 -0.4848
  846SOL     OW 3381   1.465   2.775   0.791  0.2114 -0.6079  0.2355
  846SOL    HW1 3382   1.516   2.858   0.806  0.9980 -1.2694  2.0541
  846SOL    HW2 3383   1.373   2.804   0.771 -0.0038  0.2502  0.9530
  846SOL     MW 3384   1.460   2.790   0.791  0.2868 -0.5819  0.5701
  847SOL     OW 3385   2.500   1.853   0.208  0.1131 -0.5432  0.9681
  847SOL    HW1 3386   2.454   1.777   0.248  1.2297  0.2160 -0.9317
  847SOL    HW2 3387   2.470   1.851   0.108 -1.9767  0.2989 -0.8979
  847SOL     MW 3388   2.490   1.842   0.200 -0.0153 -0.3320  0.4712
  848SOL     OW 3389   2.673   2.078   1.205  0.3686 -0.5629  0.2955
  848SOL    HW1 3390   2.708   2.161   1.168  0.2577 -3.7066  0.5720
  848SOL    HW2 3391   2.701   2.015   1.132  2.5293  2.2950 -1.3091
  848SOL     MW 3392   2.681   2.081   1.191  0.6391 -0.6006  0.1203
  849SOL     OW 3393   1.976   2.860   0.785 -0.2828 -0.1442  0.2286
  849SOL    HW1 3394   1.941   2.832   0.870 -0.4620  0.7678  1.3492
  849SOL    HW2 3395   2.003   2.775   0.754  0.9512 -0.0301 -0.2044
  849SOL     MW 3396   1.975   2.845   0.792 -0.1437 -0.0088  0.3193
  850SOL     OW 3397   2.323   1.877   1.618 -0.5577  0.2862  0.2198
  850SOL    HW1 3398   2.241   1.860   1.572 -2.1014  1.6568  1.6110
  850SOL    HW2 3399   2.355   1.970   1.595 -0.3127  3.0062 -0.7256
  850SOL     MW 3400   2.317   1.887   1.609 -0.7291  0.8259  0.2786
  851SOL     OW 3401   2.442   2.246   0.365  0.7937 -0.9615  0.2649
  851SOL    HW1 3402   2.452   2.267   0.274  1.6640  0.3278  0.7309
  851SOL    HW2 3403   2.448   2.331   0.417  0.7886  0.8308  1.2400
  851SOL     MW 3404   2.444   2.260   0.360  0.9079 -0.5549  0.4550
  852SOL     OW 3405   2.312   2.010   0.365 -0.2040  0.3879  0.3950
  852SOL    HW1 3406   2.354   2.092   0.390  1.6228 -0.9199  0.0443
  852SOL    HW2 3407   2.384   1.970   0.309 -2.5189 -0.4324  1.3059
  852SOL     MW 3408   2.327   2.016   0.361 -0.2684  0.1071  0.4689
  853SOL     OW 3409   2.516   2.379   1.925  0.2018 -0.0574  0.1693
  853SOL    HW1 3410   2.519   2.435   1.847  1.3328  0.7211 -0.7719
  853SOL    HW2 3411   2.611   2.376   1.943 -0.4451  0.8219 -0.5348
  853SOL     MW 3412   2.529   2.386   1.917  0.2657  0.1614 -0.0478
  854SOL     OW 3413   2.867   2.276   0.728  0.3936  0.5454  0.4242
  854SOL    HW1 3414   2.788   2.243   0.678  0.7347  0.9376 -0.8181
  854SOL    HW2 3415   2.886   2.204   0.792 -1.2984 -1.1598  0.9773
  854SOL     MW 3416   2.859   2.262   0.730  0.2154  0.3722  0.3333
  855SOL     OW 3417   2.770   2.357   0.441  0.4026 -0.4414 -0.2037
  855SOL    HW1 3418   2.673   2.371   0.453 -1.1431  3.0602 -3.1904
  855SOL    HW2 3419   2.783   2.263   0.417 -1.4254 -0.2949  1.6377
  855SOL     MW 3420   2.759   2.347   0.440 -0.0425  0.0399 -0.3548
  856SOL     OW 3421   2.058   1.875   0.252 -0.0185 -0.6553 -0.6528
  856SOL    HW1 3422   1.967   1.886   0.284  0.1788 -0.9481  2.1173
  856SOL    HW2 3423   2.122   1.915   0.311 -0.8870 -1.4112  0.3783
  856SOL     MW 3424   2.055   1.881   0.264 -0.1070 -0.7937 -0.1512
  857SOL     OW 3425   2.481   1.949   0.563 -0.4938  0.2099  0.2036
  857SOL    HW1 3426   2.418   1.960   0.486  1.1217  1.0748 -1.7103
  857SOL    HW2 3427   2.433   1.930   0.648 -0.7182  1.5194  3.3383
  857SOL     MW 3428   2.466   1.948   0.564 -0.3103  0.4968  0.3647
  858SOL     OW 3429   2.893   2.686   1.780  0.5444 -0.1214 -0.0319
  858SOL    HW1 3430   2.973   2.707   1.831  2.0155  1.3436 -0.6421
  858SOL    HW2 3431   2.917   2.603   1.735 -1.6680 -0.3515  0.6736
  858SOL     MW 3432   2.907   2.678   1.781  0.4466  0.0415 -0.0194
  859SOL     OW 3433   1.857   2.692   1.013 -0.4346 -0.1399 -0.2184
  859SOL    HW1 3434   1.797   2.658   0.947 -2.6783 -0.4532 -0.8544
  859SOL    HW2 3435   1.910   2.618   1.019 -2.1640 -0.1861  2.6426
  859SOL     MW 3436   1.856   2.678   1.005 -0.9588 -0.1873  0.0752
  860SOL     OW 3437   2.608   2.605   0.177 -0.1268 -0.7159 -0.1481
  860SOL    HW1 3438   2.697   2.604   0.225  0.1170 -0.4730 -1.2632
  860SOL    HW2 3439   2.628   2.651   0.099  1.4750 -2.4242  0.6382
  860SOL     MW 3440   2.622   2.611   0.173  0.1167 -0.9092 -0.1915
  861SOL     OW 3441   1.637   2.138   1.200 -0.0621 -0.3178  0.1671
  861SOL    HW1 3442   1.644   2.211   1.260 -3.8206  2.6915 -2.2149
  861SOL    HW2 3443   1.549   2.101   1.211 -0.8621 -1.1661 -1.9124
  861SOL     MW 3444   1.626   2.143   1.209 -0.6636 -0.0327 -0.4216
  862SOL     OW 3445   2.446   1.740   1.424 -0.1782 -0.7015  0.1265
  862SOL    HW1 3446   2.410   1.761   1.511  2.0544  1.1166 -1.3850
  862SOL    HW2 3447   2.379   1.775   1.365  2.0007  2.0784  1.4311
  862SOL     MW 3448   2.432   1.747   1.428  0.4039 -0.0948  0.0992
  863SOL     OW 3449   3.006   1.693   0.988 -0.2585  0.3164  0.3195
  863SOL    HW1 3450   3.044   1.766   1.038 -1.8300  0.2351  2.5592
  863SOL    HW2 3451   2.914   1.711   1.011 -1.1115 -0.7594 -1.7133
  863SOL     MW 3452   2.999   1.705   0.997 -0.5784  0.1637  0.3468
  864SOL     OW 3453   0.018   1.801   0.734 -0.1912 -0.6568 -0.3042
  864SOL    HW1 3454  -0.024   1.752   0.804 -0.3236  1.6161  1.8462
  864SOL    HW2 3455  -0.025   1.773   0.654 -1.2955  0.6133  1.2701
  864SOL     MW 3456   0.007   1.791   0.733 -0.3544 -0.1893  0.1873
  865SOL     OW 3457   2.572   2.168   0.098 -0.5381 -0.0195  0.0066
  865SOL    HW1 3458   2.595   2.089   0.140  1.9322 -0.3409 -1.2110
  865SOL    HW2 3459   2.489   2.172   0.050 -2.2411 -2.1235  2.4233
  865SOL     MW 3460   2.564   2.158   0.097 -0.4369 -0.3395  0.1648
  866SOL     OW 3461   2.666   2.387   1.544  0.5337 -0.5100  0.0227
  866SOL    HW1 3462   2.647   2.294   1.562 -0.6572 -0.5821 -1.6465
  866SOL    HW2 3463   2.718   2.379   1.470  0.0183 -1.5028 -1.0076
  866SOL     MW 3464   2.671   2.373   1.537  0.3086 -0.6505 -0.3335
  867SOL     OW 3465   0.103   2.665   1.740 -0.1710  0.0090 -0.2838
  867SOL    HW1 3466   0.178   2.708   1.775  0.9392 -2.8907  0.7276
  867SOL    HW2 3467   0.100   2.716   1.657  0.7659  0.6470 -3.0303
  867SOL     MW 3468   0.112   2.677   1.733  0.0991 -0.2894 -0.5127
  868SOL     OW 3469   2.763   2.701   0.523 -0.0204 -0.1384  0.9044
  868SOL    HW1 3470   2.760   2.623   0.564  0.8174  1.4898 -0.3934
  868SOL    HW2 3471   2.673   2.733   0.519 -0.7819 -0.5299 -1.3420
  868SOL     MW 3472   2.750   2.695   0.528 -0.0103  0.0247  0.4368
  869SOL     OW 3473   2.045   2.496   1.050 -0.7116 -0.4517  0.1906
  869SOL    HW1 3474   2.102   2.562   1.008 -1.0359 -1.1600 -2.4211
  869SOL    HW2 3475   2.025   2.426   0.985  1.8344 -2.0603 -2.4549
  869SOL     MW 3476   2.049   2.496   1.036 -0.4185 -0.7574 -0.5030
  870SOL     OW 3477   2.228   3.095   0.479  0.5152 -0.5949  0.0147
  870SOL    HW1 3478   2.278   3.107   0.397 -0.9481  0.6440  0.2603
  870SOL    HW2 3479   2.266   3.026   0.526 -0.2130  0.3387  0.7797
  870SOL     MW 3480   2.239   3.087   0.474  0.2261 -0.3083  0.1481
  871SOL     OW 3481   2.470   2.117   0.881  0.3738  0.0519  0.1907
  871SOL    HW1 3482   2.392   2.105   0.830 -1.4687  2.3888  0.5883
  871SOL    HW2 3483   2.462   2.200   0.928 -1.1900 -0.6221  0.4218
  871SOL     MW 3484   2.459   2.126   0.881 -0.0756  0.2713  0.2737
  872SOL     OW 3485   2.132   2.551   1.542 -0.0333 -0.4959  0.5789
  872SOL    HW1 3486   2.059   2.593   1.591 -1.4885 -0.3823 -0.8719
  872SOL    HW2 3487   2.094   2.505   1.465 -1.1336  0.2863 -2.9261
  872SOL     MW 3488   2.118   2.551   1.539 -0.3705 -0.3777 -0.0749
  873SOL     OW 3489   2.858   2.099   1.837  0.3476  0.6268 -0.0937
  873SOL    HW1 3490   2.837   2.183   1.884 -0.7542  0.7858  2.5485
  873SOL    HW2 3491   2.938   2.118   1.782 -1.4815 -0.5721 -1.8802
  873SOL     MW 3492   2.866   2.113   1.836 -0.0391  0.4896  0.0192
  874SOL     OW 3493   2.275   1.393   2.332 -0.8453 -0.4034  0.5939
  874SOL    HW1 3494   2.242   1.329   2.264  0.1102 -2.6008 -1.1543
  874SOL    HW2 3495   2.354   1.352   2.366  3.4125 -1.1547 -1.2260
  874SOL     MW 3496   2.281   1.379   2.327 -0.1575 -0.7924  0.1231
  875SOL     OW 3497   2.372   2.364   0.941  0.4254 -0.0425 -0.0462
  875SOL    HW1 3498   2.417   2.434   0.886  2.0239  0.9394  0.3875
  875SOL    HW2 3499   2.402   2.386   1.035 -0.4492  3.6370  1.9296
  875SOL     MW 3500   2.382   2.376   0.946  0.5209  0.5725  0.2717
  876SOL     OW 3501   0.001   2.254   1.325 -0.2479 -0.3445 -0.9198
  876SOL    HW1 3502   0.047   2.292   1.247 -0.9928 -0.1978 -1.3351
  876SOL    HW2 3503   0.054   2.284   1.401  0.8173 -0.1889 -3.0385
  876SOL     MW 3504   0.014   2.263   1.324 -0.2057 -0.3046 -1.2541
  877SOL     OW 3505   0.057   2.762   0.333 -0.0908  0.3473 -0.0341
  877SOL    HW1 3506   0.104   2.844   0.314  0.4227 -0.8953 -2.9158
  877SOL    HW2 3507   0.038   2.730   0.248 -1.5091 -2.9704 -0.0327
  877SOL     MW 3508   0.061   2.769   0.319 -0.2102 -0.2544 -0.4141
  878SOL     OW 3509   2.289   1.707   1.206 -0.7989 -0.4952 -0.6503
  878SOL    HW1 3510   2.204   1.652   1.234 -0.2751 -0.8489 -2.1384
  878SOL    HW2 3511   2.347   1.634   1.184 -2.7201  1.2018  0.1537
  878SOL     MW 3512   2.285   1.690   1.206 -0.9833 -0.3180 -0.7405
  879SOL     OW 3513   2.744   2.478   0.875 -0.1420 -0.0158 -1.0121
  879SOL    HW1 3514   2.804   2.541   0.917 -1.7870 -2.1034 -0.9920
  879SOL    HW2 3515   2.795   2.403   0.842 -2.8627  1.3629 -1.1796
  879SOL     MW 3516   2.759   2.476   0.876 -0.7180 -0.1093 -1.0316
  880SOL     OW 3517   2.582   2.228   0.642 -0.1253 -0.4731  0.3085
  880SOL    HW1 3518   2.555   2.175   0.720  1.5686 -0.0292  1.3462
  880SOL    HW2 3519   2.584   2.158   0.579 -1.5378  3.3624  1.9738
  880SOL     MW 3520   2.579   2.212   0.644 -0.0882  0.0915  0.6651
  881SOL     OW 3521   2.971   2.763   0.688  0.4391  0.2251 -0.0244
  881SOL    HW1 3522   2.907   2.757   0.616  4.1006 -0.9672 -1.3834
  881SOL    HW2 3523   3.037   2.714   0.635 -3.0569 -0.4542 -0.6097
  881SOL     MW 3524   2.971   2.756   0.672  0.4609 -0.0219 -0.2809
  882SOL     OW 3525   2.256   2.885   1.943 -0.0502 -0.1873 -0.0444
  882SOL    HW1 3526   2.245   2.894   1.845  2.2877 -0.6966  0.7428
  882SOL    HW2 3527   2.221   2.793   1.957 -0.9220  0.9415  1.4650
  882SOL     MW 3528   2.250   2.874   1.932  0.1432 -0.1056  0.2586
  883SOL     OW 3529   2.429   2.186   1.317 -0.2167 -0.8965 -0.3958
  883SOL    HW1 3530   2.514   2.154   1.291 -1.7226  1.1137  1.2747
  883SOL    HW2 3531   2.368   2.146   1.249  0.8271 -0.8604  1.2429
  883SOL     MW 3532   2.432   2.177   1.305 -0.2777 -0.6265  0.0408
  884SOL     OW 3533   1.935   1.835   1.060 -0.1990  0.2912 -0.3745
  884SOL    HW1 3534   1.879   1.908   1.026 -0.8496  0.0607 -0.1327
  884SOL    HW2 3535   2.024   1.864   1.042 -0.2024 -2.0693 -2.0308
  884SOL     MW 3536   1.939   1.848   1.053 -0.2853 -0.0507 -0.5611
  885SOL     OW 3537   2.892   2.414   1.700  0.3702  0.8496 -0.1688
  885SOL    HW1 3538   2.960   2.354   1.660  0.8321  1.6194  1.2029
  885SOL    HW2 3539   2.814   2.397   1.647 -3.2837  0.3789  1.7634
  885SOL     MW 3540   2.891   2.404   1.688 -0.0509  0.8891  0.2671
  886SOL     OW 3541   2.875   2.434   1.298  0.0155  0.1005 -1.1604
  886SOL    HW1 3542   2.947   2.376   1.324 -0.5262  2.7362  1.1516
  886SOL    HW2 3543   2.895   2.532   1.332  1.2402  0.4579  1.6159
  886SOL     MW 3544   2.887   2.439   1.306  0.1056  0.4954 -0.4891
  887SOL     OW 3545   2.358   2.704   1.526 -0.2606  0.3105  0.3813
  887SOL    HW1 3546   2.356   2.713   1.433 -1.8097 -0.5070  0.7830
  887SOL    HW2 3547   2.277   2.648   1.542  0.0954  0.9002  1.2963
  887SOL     MW 3548   2.347   2.698   1.516 -0.4181  0.2804  0.5551
  888SOL     OW 3549   2.059   2.162   1.386 -0.0306 -0.0245  0.1020
  888SOL    HW1 3550   2.124   2.152   1.317  1.6853 -2.0971  2.3492
  888SOL    HW2 3551   2.101   2.171   1.469 -2.0782 -3.3138 -1.0053
  888SOL     MW 3552   2.073   2.162   1.388 -0.0744 -0.7319  0.2524
  889SOL     OW 3553   2.273   1.923   2.023  0.2662  0.1107  0.2428
  889SOL    HW1 3554   2.345   1.914   2.090  1.3695  1.0284 -1.1769
  889SOL    HW2 3555   2.302   2.009   1.983 -0.4314  0.2652 -1.3723
  889SOL     MW 3556   2.287   1.933   2.026  0.3197  0.2522 -0.1576
  890SOL     OW 3557   0.055   2.341   0.154  0.2844  0.1063  0.0136
  890SOL    HW1 3558   0.038   2.436   0.157  0.0936  1.1921 -1.5636
  890SOL    HW2 3559   0.034   2.303   0.243  1.0299 -2.7164  3.7729
  890SOL     MW 3560   0.050   2.348   0.166  0.3576 -0.1228  0.3015
  891SOL     OW 3561   3.013   2.031   1.152  0.0463 -0.2899 -0.0277
  891SOL    HW1 3562   3.073   1.961   1.145  1.0376  2.7467  2.3257
  891SOL    HW2 3563   3.061   2.087   1.215  1.2931 -0.7187  0.2458
  891SOL     MW 3564   3.027   2.029   1.160  0.3416  0.0541  0.3189
  892SOL     OW 3565   2.484   2.395   2.811 -0.4934 -0.0224 -0.6345
  892SOL    HW1 3566   2.465   2.312   2.856  0.2527 -1.5967 -0.7967
  892SOL    HW2 3567   2.584   2.409   2.816  2.2820 -1.4400  1.6467
  892SOL     MW 3568   2.495   2.386   2.818 -0.0288 -0.4172 -0.3549
  893SOL     OW 3569   1.660   2.358   1.390 -0.1628 -0.4962 -0.1940
  893SOL    HW1 3570   1.566   2.380   1.413 -2.7263 -1.7567 -2.0302
  893SOL    HW2 3571   1.718   2.425   1.427 -0.6118 -0.1470  2.5706
  893SOL     MW 3572   1.655   2.370   1.398 -0.5603 -0.6164 -0.0715
  894SOL     OW 3573   2.751   1.869   0.454  0.2771 -0.1204 -0.2507
  894SOL    HW1 3574   2.655   1.891   0.474 -2.4446 -0.0193  2.2433
  894SOL    HW2 3575   2.757   1.830   0.368 -1.0061 -0.0947  1.9183
  894SOL     MW 3576   2.739   1.867   0.445 -0.2513 -0.1037  0.3645
  895SOL     OW 3577   2.234   2.162   1.107  0.8769 -0.6892  0.4308
  895SOL    HW1 3578   2.278   2.220   1.047 -1.4200  0.3362 -1.0800
  895SOL    HW2 3579   2.219   2.079   1.061 -1.6728 -2.6509 -0.5052
  895SOL     MW 3580   2.238   2.159   1.093  0.2375 -0.8128  0.1079
  896SOL     OW 3581   2.208   2.763   1.074  0.4776  0.2647 -0.0732
  896SOL    HW1 3582   2.254   2.718   1.149 -1.3064  0.3785 -0.4159
  896SOL    HW2 3583   2.150   2.821   1.119  0.6773  1.2945 -1.3222
  896SOL     MW 3584   2.206   2.765   1.090  0.2686  0.4156 -0.2832
  897SOL     OW 3585   3.061   3.023   0.003  0.2123  0.0015 -0.0034
  897SOL    HW1 3586   3.129   2.953   0.014  2.6754 -2.7238  0.0302
  897SOL    HW2 3587   2.984   2.974  -0.020  3.2288 -0.3301  0.6199
  897SOL     MW 3588   3.060   3.008   0.001  0.9353 -0.4018  0.0833
  898SOL     OW 3589   2.170   0.131   1.456  0.4902 -0.1163  0.1860
  898SOL    HW1 3590   2.096   0.069   1.457  1.7015 -1.2004 -0.1538
  898SOL    HW2 3591   2.171   0.172   1.370  1.4192  0.3420 -2.5738
  898SOL     MW 3592   2.160   0.128   1.445  0.7726 -0.1989 -0.2229
  899SOL     OW 3593   2.893   3.032   0.598  0.5570 -0.0467  0.1606
  899SOL    HW1 3594   2.910   2.949   0.646 -1.1858 -0.6967 -3.6388
  899SOL    HW2 3595   2.799   3.043   0.590 -1.4888 -2.4317 -0.5964
  899SOL     MW 3596   2.883   3.023   0.603  0.0571 -0.4472 -0.4405
  900SOL     OW 3597   0.099   2.343   1.097  0.3107  0.0957  0.6852
  900SOL    HW1 3598   0.114   2.434   1.081  0.6810 -0.3574  1.7823
  900SOL    HW2 3599   0.099   2.297   1.012  1.2777  1.0636 -0.4266
  900SOL     MW 3600   0.101   2.349   1.084  0.4872  0.1636  0.6832
  901SOL     OW 3601   1.741   2.866   1.787 -0.3400  0.1462 -0.2114
  901SOL    HW1 3602   1.809   2.807   1.769  0.1889  3.0250 -0.0818
  901SOL    HW2 3603   1.678   2.830   1.725 -1.8867  0.5612  0.4292
  901SOL     MW 3604   1.742   2.854   1.776 -0.4743  0.5808 -0.1098
  902SOL     OW 3605   2.639   2.115   1.621  0.0600  0.0076  1.0406
  902SOL    HW1 3606   2.641   2.050   1.547  0.8517  0.5026 -1.4534
  902SOL    HW2 3607   2.709   2.091   1.679  0.0683 -1.1680  0.8700
  902SOL     MW 3608   2.648   2.103   1.619  0.1656 -0.0822  0.6890
  903SOL     OW 3609   1.507   2.655   0.538  0.4306 -0.3226 -0.4018
  903SOL    HW1 3610   1.595   2.612   0.546  1.3205 -0.5374 -0.5103
  903SOL    HW2 3611   1.490   2.697   0.632 -4.1749  1.9613  2.4718
  903SOL     MW 3612   1.516   2.655   0.551 -0.0597 -0.0496 -0.0369
  904SOL     OW 3613   2.509   2.532   1.700  0.3675 -0.0224  0.1041
  904SOL    HW1 3614   2.449   2.578   1.633 -0.5878  0.8951 -0.9699
  904SOL    HW2 3615   2.567   2.482   1.644  2.2506  0.5988  2.4479
  904SOL     MW 3616   2.509   2.532   1.684  0.4899  0.1807  0.2716
  905SOL     OW 3617   2.303   2.457   2.092  0.7912  0.3122  0.0243
  905SOL    HW1 3618   2.383   2.434   2.041  0.4423  0.7303 -1.7733
  905SOL    HW2 3619   2.280   2.386   2.169  1.0793 -0.9905  1.1042
  905SOL     MW 3620   2.311   2.445   2.095  0.7832  0.1955 -0.0704
  906SOL     OW 3621   2.491   2.528   0.759  0.0218  0.1193 -0.1971
  906SOL    HW1 3622   2.575   2.507   0.799  1.0674 -1.3641  2.1810
  906SOL    HW2 3623   2.471   2.615   0.789  0.1987  0.0948 -0.2354
  906SOL     MW 3624   2.500   2.536   0.768  0.1831 -0.0797  0.1116
  907SOL     OW 3625   2.659   2.870   1.275  0.6061 -0.9448  0.1413
  907SOL    HW1 3626   2.731   2.915   1.329 -0.4971  0.2187  3.5888
  907SOL    HW2 3627   2.693   2.869   1.188 -3.0629  1.8215  3.7368
  907SOL     MW 3628   2.673   2.876   1.271 -0.0236 -0.4263  1.0706
  908SOL     OW 3629   2.721   2.402   0.021 -0.3938 -0.7774 -0.2164
  908SOL    HW1 3630   2.683   2.315   0.037 -1.9289  0.5643 -2.0893
  908SOL    HW2 3631   2.689   2.473   0.082  1.8528  2.2384  0.4414
  908SOL     MW 3632   2.712   2.400   0.031 -0.2999 -0.2024 -0.3768
  909SOL     OW 3633   1.695   0.095   1.292 -0.2204 -0.7430  0.2127
  909SOL    HW1 3634   1.637   0.172   1.295 -1.1100 -0.3906  2.3272
  909SOL    HW2 3635   1.691   0.073   1.385 -0.9676  2.3268 -0.6430
  909SOL     MW 3636   1.687   0.103   1.305 -0.4364 -0.2915  0.3788
  910SOL     OW 3637   2.126   1.634   0.392 -0.4643  0.1763 -0.4415
  910SOL    HW1 3638   2.064   1.553   0.385 -0.7316 -0.0964  0.8289
  910SOL    HW2 3639   2.095   1.707   0.337  1.5800  1.0623  2.2223
  910SOL     MW 3640   2.114   1.633   0.384 -0.2298  0.2572  0.0776
  911SOL     OW 3641   2.344   2.130   1.582  0.5317  0.5473 -0.3433
  911SOL    HW1 3642   2.417   2.147   1.644 -2.7025 -1.1159 -0.6845
  911SOL    HW2 3643   2.370   2.157   1.490  1.3031  1.8986  0.5774
  911SOL     MW 3644   2.357   2.136   1.578  0.2067  0.5061 -0.2668
  912SOL     OW 3645   2.913   1.868   1.394 -0.3443 -0.1290 -0.3491
  912SOL    HW1 3646   2.931   1.931   1.332  2.3444  1.1414 -0.8692
  912SOL    HW2 3647   2.822   1.877   1.423  2.3923 -1.4390 -1.1369
  912SOL     MW 3648   2.903   1.877   1.390  0.3715 -0.1342 -0.5217
  913SOL     OW 3649   2.698   3.084   0.257 -0.4564  0.2786 -0.2674
  913SOL    HW1 3650   2.772   3.026   0.284 -0.4669  2.1591  2.3740
  913SOL    HW2 3651   2.622   3.021   0.235 -0.2787  0.0878 -2.6773
  913SOL     MW 3652   2.698   3.068   0.258 -0.4343  0.5016 -0.2368
  914SOL     OW 3653   2.711   1.809   2.931  0.0189 -0.0506 -0.0050
  914SOL    HW1 3654   2.728   1.905   2.933  0.5939 -2.8680  0.4728
  914SOL    HW2 3655   2.623   1.807   2.958  0.4156  2.0489  0.2595
  914SOL     MW 3656   2.701   1.822   2.935  0.1471 -0.1453  0.0929
  915SOL     OW 3657   1.818   0.123   0.107  0.0515  0.0271  0.2007
  915SOL    HW1 3658   1.895   0.075   0.145  2.7139 -0.2939  0.0008
  915SOL    HW2 3659   1.743   0.071   0.125  1.7479  1.8398  0.1976
  915SOL     MW 3660   1.819   0.110   0.114  0.6266  0.2239  0.1739
  916SOL     OW 3661   1.759   2.173   2.010  0.3708  0.0499 -0.7948
  916SOL    HW1 3662   1.803   2.256   1.985 -1.1444 -0.4023  2.3063
  916SOL    HW2 3663   1.776   2.107   1.945  0.8750  0.0300 -0.4719
  916SOL     MW 3664   1.767   2.176   1.998  0.2374 -0.0124 -0.3430
  917SOL     OW 3665   2.541   2.223   2.591  0.7424  0.0279 -0.0426
  917SOL    HW1 3666   2.515   2.288   2.660 -0.0615 -0.4053  0.2893
  917SOL    HW2 3667   2.625   2.253   2.559  1.9208  1.0855 -2.7134
  917SOL     MW 3668   2.549   2.235   2.596  0.7918  0.1102 -0.3512
  918SOL     OW 3669   2.087   1.623   2.638 -0.1739 -0.2147  0.5602
  918SOL    HW1 3670   2.020   1.662   2.584 -1.8031  1.2457 -0.1329
  918SOL    HW2 3671   2.151   1.697   2.652 -0.4881 -0.8093 -0.2173
  918SOL     MW 3672   2.087   1.638   2.633 -0.4303 -0.1004  0.3662
  919SOL     OW 3673   3.080   2.417   2.243 -0.6604  0.1369  0.3544
  919SOL    HW1 3674   3.024   2.344   2.217 -3.5466 -0.4233 -0.6961
  919SOL    HW2 3675   3.148   2.433   2.174  1.0018  0.7972  4.5058
  919SOL     MW 3676   3.081   2.409   2.230 -0.8219  0.1501  0.7636
  920SOL     OW 3677   2.652   2.768   3.046 -0.4018  0.6473  0.2283
  920SOL    HW1 3678   2.565   2.787   3.020 -1.0332 -2.0455  1.5605
  920SOL    HW2 3679   2.713   2.773   2.967 -0.1070  0.1401  2.4008
  920SOL     MW 3680   2.649   2.771   3.032 -0.4462  0.2251  0.6907
  921SOL     OW 3681   2.478   2.630   2.643 -0.2884 -0.1205  0.5441
  921SOL    HW1 3682   2.556   2.623   2.586 -2.0250 -1.6827 -1.5455
  921SOL    HW2 3683   2.469   2.554   2.701 -1.0815 -1.4286  0.1112
  921SOL     MW 3684   2.487   2.619   2.643 -0.6221 -0.4992  0.2113
  922SOL     OW 3685   2.085   2.671   0.419 -0.0022 -0.7684  0.0872
  922SOL    HW1 3686   2.063   2.677   0.327  0.8375  1.8982  1.8885
  922SOL    HW2 3687   2.148   2.597   0.412 -3.1869  1.0080  1.1081
  922SOL     MW 3688   2.090   2.662   0.406 -0.3116 -0.1822  0.4596
  923SOL     OW 3689   2.199   2.904   1.680 -0.0278  0.2955  0.0838
  923SOL    HW1 3690   2.265   2.883   1.612 -0.6009  0.1066 -0.1238
  923SOL    HW2 3691   2.135   2.951   1.625  0.3076  0.9095  0.2973
  923SOL     MW 3692   2.199   2.908   1.664 -0.0592  0.3516  0.0846
  924SOL     OW 3693   1.064   2.738   2.614 -0.2000 -0.0694  0.4826
  924SOL    HW1 3694   1.152   2.783   2.604 -1.0403  1.5067 -1.1715
  924SOL    HW2 3695   1.081   2.654   2.654  2.8054 -1.3490  2.0882
  924SOL     MW 3696   1.078   2.733   2.618  0.0857 -0.0302  0.4762
  925SOL     OW 3697   2.985   0.239   2.646  0.1476 -0.1034 -0.6790
  925SOL    HW1 3698   2.948   0.240   2.555  0.0792  0.6494 -0.7094
  925SOL    HW2 3699   2.977   0.324   2.686  0.0033  2.0454 -0.7718
  925SOL     MW 3700   2.979   0.251   2.640  0.1196  0.2794 -0.6952
  926SOL     OW 3701   2.806   2.366   1.945 -0.0775  0.5450  0.0162
  926SOL    HW1 3702   2.800   2.450   1.989 -1.5136 -1.9055 -2.6014
  926SOL    HW2 3703   2.848   2.392   1.859 -1.3850  1.0014 -0.4968
  926SOL     MW 3704   2.811   2.380   1.939 -0.4395  0.2819 -0.3968
  927SOL     OW 3705   2.375   0.152   0.292  0.5806 -0.3429  0.2849
  927SOL    HW1 3706   2.461   0.197   0.305  1.1420  2.2715  1.0776
  927SOL    HW2 3707   2.376   0.127   0.197 -1.3312 -1.5227 -3.1448
  927SOL     MW 3708   2.386   0.155   0.281  0.4024 -0.1536 -0.0630
  928SOL     OW 3709   2.148   2.342   1.794  0.5316 -0.6404  0.5432
  928SOL    HW1 3710   2.120   2.417   1.740  0.6055  0.8372  0.7693
  928SOL    HW2 3711   2.234   2.367   1.821 -1.2392  1.7771 -0.4159
  928SOL     MW 3712   2.156   2.355   1.790  0.3077 -0.1265  0.4465
  929SOL     OW 3713   2.757   2.346   2.486 -0.5282 -0.2207 -0.2832
  929SOL    HW1 3714   2.787   2.319   2.393 -0.7698 -2.6519 -3.9187
  929SOL    HW2 3715   2.837   2.358   2.537 -0.1577  1.7130  1.6205
  929SOL     MW 3716   2.772   2.344   2.481 -0.5112 -0.2863 -0.5117
  930SOL     OW 3717   2.032   2.800   2.668 -0.8177 -0.1961  0.0413
  930SOL    HW1 3718   2.046   2.726   2.722  0.0273  0.5855 -1.9371
  930SOL    HW2 3719   2.111   2.847   2.682  0.9423 -0.7291 -0.5148
  930SOL     MW 3720   2.044   2.796   2.677 -0.4740 -0.1633 -0.2931
  931SOL     OW 3721   0.045   2.780   2.452  0.1085  0.4727 -0.5166
  931SOL    HW1 3722   0.035   2.823   2.545  1.0956 -1.7074 -1.1110
  931SOL    HW2 3723   0.126   2.822   2.416  0.0469 -1.1642  0.7825
  931SOL     MW 3724   0.054   2.791   2.459  0.2306 -0.0309 -0.4237
  932SOL     OW 3725   2.833   1.976   2.530 -0.4264  0.2940 -0.1352
  932SOL    HW1 3726   2.929   1.990   2.528  0.2878  2.0357  1.6620
  932SOL    HW2 3727   2.816   1.968   2.434  0.1725  0.8777  0.5646
  932SOL     MW 3728   2.843   1.977   2.517 -0.2532  0.6008  0.1942
  933SOL     OW 3729   2.091   2.805   2.209  0.1654 -0.0095 -0.1460
  933SOL    HW1 3730   2.164   2.853   2.247  2.3053  1.1071  2.0157
  933SOL    HW2 3731   2.021   2.861   2.201 -1.0680 -0.1443  0.1676
  933SOL     MW 3732   2.091   2.819   2.213  0.2850  0.1201  0.1806
  934SOL     OW 3733   2.019   2.655   2.429 -0.0907  0.5431 -0.0259
  934SOL    HW1 3734   2.005   2.710   2.503 -1.4392 -2.5789 -1.3300
  934SOL    HW2 3735   2.031   2.723   2.354  0.2180  1.5721  1.0660
  934SOL     MW 3736   2.019   2.671   2.429 -0.2279  0.2669 -0.0539
  935SOL     OW 3737   2.643   1.474   1.769 -0.0182  0.0059 -0.0152
  935SOL    HW1 3738   2.736   1.464   1.747  0.7274 -1.9437  1.2535
  935SOL    HW2 3739   2.584   1.486   1.689 -1.2010 -1.5854  0.8364
  935SOL     MW 3740   2.647   1.474   1.755 -0.0759 -0.4613  0.2645
  936SOL     OW 3741   2.938   2.249   0.019 -0.0056  0.1687  0.2867
  936SOL    HW1 3742   3.008   2.278   0.076 -1.1158 -0.0072 -1.6436
  936SOL    HW2 3743   2.882   2.324  -0.002  1.3600 -2.4389  0.3943
  936SOL     MW 3744   2.940   2.263   0.024  0.0281 -0.1986  0.0462
  937SOL     OW 3745   1.972   2.117   2.673 -0.8030 -0.1746 -0.2573
  937SOL    HW1 3746   2.041   2.082   2.731 -2.4549  0.7635  1.1562
  937SOL    HW2 3747   1.992   2.098   2.582  0.9878 -2.1396  2.4748
  937SOL     MW 3748   1.984   2.110   2.669 -0.7847 -0.3101  0.2897
  938SOL     OW 3749   2.341   1.708   1.843 -0.8367 -0.0232 -0.5094
  938SOL    HW1 3750   2.329   1.771   1.766 -1.8436  1.4931 -1.7499
  938SOL    HW2 3751   2.306   1.776   1.910 -1.1125  1.9272 -2.4252
  938SOL     MW 3752   2.335   1.726   1.842 -1.0060  0.4342 -0.9258
  939SOL     OW 3753   2.777   1.942   2.255 -0.1792  0.1766 -0.3268
  939SOL    HW1 3754   2.818   1.912   2.173  1.5212 -1.3412  0.7092
  939SOL    HW2 3755   2.688   1.900   2.248 -1.0895 -0.5754 -2.3072
  939SOL     MW 3756   2.770   1.933   2.243 -0.0750 -0.1229 -0.4514
  940SOL     OW 3757   2.189   0.125   2.715 -0.1955  0.1033  0.9531
  940SOL    HW1 3758   2.206   0.041   2.670 -1.4234 -0.6423 -3.2692
  940SOL    HW2 3759   2.267   0.136   2.772  1.2477 -1.2689  0.8450
  940SOL     MW 3760   2.201   0.116   2.716 -0.1671 -0.1761  0.3817
  941SOL     OW 3761   0.138   2.452   2.038 -0.5702  0.2881 -0.6136
  941SOL    HW1 3762   0.219   2.410   2.056 -2.8815  3.5586 -2.7388
  941SOL    HW2 3763   0.142   2.429   1.944 -0.7077 -2.0795  0.0391
  941SOL     MW 3764   0.149   2.443   2.028 -0.8933  0.4072 -0.8079
  942SOL     OW 3765   2.883   2.240   2.204 -0.2734  0.0372  0.1922
  942SOL    HW1 3766   2.847   2.280   2.121  0.2698 -0.6999 -1.4018
  942SOL    HW2 3767   2.845   2.154   2.195  0.3870 -2.6775 -1.9722
  942SOL     MW 3768   2.873   2.234   2.192 -0.1146 -0.4182 -0.3037
  943SOL     OW 3769   0.288   2.107   2.311  0.3848  0.2960  0.4711
  943SOL    HW1 3770   0.242   2.182   2.354  2.9619 -1.2481 -0.9061
  943SOL    HW2 3771   0.357   2.082   2.374 -1.6024 -0.8139  0.1042
  943SOL     MW 3772   0.291   2.113   2.325  0.4627 -0.0542  0.2410
  944SOL     OW 3773   2.151   2.640   1.961 -0.4871  0.4713 -0.6698
  944SOL    HW1 3774   2.202   2.570   2.002 -1.2173 -2.0856 -1.6067
  944SOL    HW2 3775   2.101   2.666   2.035 -0.0786  1.7664  2.6852
  944SOL     MW 3776   2.151   2.634   1.976 -0.5295  0.3048 -0.3507
  945SOL     OW 3777   2.821   2.783   2.825  0.0339 -0.4731 -0.0290
  945SOL    HW1 3778   2.793   2.694   2.820 -2.8831  2.8069  1.1437
  945SOL    HW2 3779   2.830   2.814   2.728  0.6077  1.8852  2.2675
  945SOL     MW 3780   2.819   2.775   2.811 -0.2752  0.2708  0.4287
  946SOL     OW 3781   2.466   2.651   2.234 -0.4319 -0.1114 -0.0075
  946SOL    HW1 3782   2.513   2.702   2.165  1.8699  3.9104 -1.8673
  946SOL    HW2 3783   2.408   2.593   2.186  2.6529 -1.7340  1.0366
  946SOL     MW 3784   2.465   2.650   2.218  0.2788  0.2052 -0.1151
  947SOL     OW 3785   2.048   0.012   0.198 -0.1454 -0.3865 -0.2407
  947SOL    HW1 3786   2.095  -0.053   0.138 -2.9800  0.7651  0.8767
  947SOL    HW2 3787   2.067  -0.026   0.280  0.4647 -0.6752 -0.4805
  947SOL     MW 3788   2.057  -0.001   0.201 -0.4389 -0.2727 -0.1249
  948SOL     OW 3789   1.783   2.999   2.614 -0.0707  0.0434  0.1545
  948SOL    HW1 3790   1.853   2.932   2.603  1.9357 -0.6922  1.2932
  948SOL    HW2 3791   1.753   3.011   2.523 -0.3663 -1.4523  0.3745
  948SOL     MW 3792   1.788   2.992   2.601  0.1550 -0.2510  0.3337
  949SOL     OW 3793   2.489   1.885   2.201  0.2288 -0.6032  0.1129
  949SOL    HW1 3794   2.467   1.805   2.244 -2.1311  1.6535 -1.0433
  949SOL    HW2 3795   2.481   1.958   2.268  2.9807 -0.2739 -1.6137
  949SOL     MW 3796   2.485   1.884   2.216  0.2805 -0.2620 -0.2674
  950SOL     OW 3797   2.338   2.551   2.997  0.2190 -0.2973 -0.0371
  950SOL    HW1 3798   2.385   2.498   2.932  0.7460 -0.6858  0.4525
  950SOL    HW2 3799   2.248   2.547   2.989  0.0272 -0.9823  0.3718
  950SOL     MW 3800   2.333   2.543   2.987  0.2633 -0.4389  0.0815
  951SOL     OW 3801   3.058   2.199   2.867 -0.0402 -0.5683  0.5129
  951SOL    HW1 3802   3.003   2.228   2.943  0.5694  1.4242  3.8448
  951SOL    HW2 3803   3.042   2.106   2.841  2.6564 -0.5088  1.1428
  951SOL     MW 3804   3.049   2.191   2.873  0.3960 -0.2976  1.0356
  952SOL     OW 3805   3.031   1.703   2.136 -0.4309  0.2090  0.1996
  952SOL    HW1 3806   2.999   1.745   2.057  1.4680  2.1609  0.2270
  952SOL    HW2 3807   3.119   1.749   2.152  0.9801  0.9218  1.2342
  952SOL     MW 3808   3.038   1.715   2.128  0.0058  0.5606  0.3397
  953SOL     OW 3809   1.958   1.705   2.933 -0.2059 -0.1581  0.0915
  953SOL    HW1 3810   1.869   1.679   2.963 -0.0708  0.0187  1.3934
  953SOL    HW2 3811   1.984   1.668   2.848  3.3507  3.3978  0.5690
  953SOL     MW 3812   1.950   1.697   2.926  0.2812  0.3344  0.3263
  954SOL     OW 3813   2.416   2.149   2.918 -0.5052  0.5320  0.1705
  954SOL    HW1 3814   2.323   2.134   2.914  0.8976 -2.0087 -1.2992
  954SOL    HW2 3815   2.437   2.107   2.835 -2.6735 -2.2318 -2.2179
  954SOL     MW 3816   2.406   2.142   2.906 -0.6062 -0.1679 -0.3385
  955SOL     OW 3817   1.594   1.519   2.540 -0.0044 -0.2391  0.4120
  955SOL    HW1 3818   1.572   1.541   2.445 -0.1764 -0.5680 -2.2961
  955SOL    HW2 3819   1.693   1.512   2.546  1.7039  0.0973  0.9120
  955SOL     MW 3820   1.604   1.521   2.528  0.1983 -0.2381  0.1206
  956SOL     OW 3821   2.737   2.498   2.857 -0.0455 -0.1865  0.0777
  956SOL    HW1 3822   2.727   2.470   2.945 -1.4103 -2.0002  0.1729
  956SOL    HW2 3823   2.807   2.445   2.818  2.0685  1.2444  0.7432
  956SOL     MW 3824   2.745   2.488   2.863  0.0533 -0.2370  0.1781
  957SOL     OW 3825   2.282   2.838   0.586 -0.0295 -0.3528  0.1550
  957SOL    HW1 3826   2.205   2.799   0.534  1.9047 -0.3195  1.1594
  957SOL    HW2 3827   2.271   2.794   0.667 -2.1337  1.2228  2.6151
  957SOL     MW 3828   2.270   2.827   0.590 -0.0519 -0.1405  0.6121
  958SOL     OW 3829   2.068   2.581   2.888  0.2078 -0.2310  0.4675
  958SOL    HW1 3830   2.036   2.546   2.808  0.2310  3.4658  0.7888
  958SOL    HW2 3831   1.997   2.574   2.947  0.1795 -2.9274  1.0079
  958SOL     MW 3832   2.054   2.576   2.885  0.2071 -0.0990  0.5812
  959SOL     OW 3833   2.513   2.815   0.456 -0.4178  0.1585 -0.0510
  959SOL    HW1 3834   2.494   2.832   0.364 -1.8239 -0.6865  1.4525
  959SOL    HW2 3835   2.430   2.833   0.502  0.3993  0.5135  0.1218
  959SOL     MW 3836   2.500   2.819   0.450 -0.4955  0.0939  0.1701
  960SOL     OW 3837   1.920   2.368   2.264  0.1228  0.4963 -0.3393
  960SOL    HW1 3838   1.932   2.275   2.269  0.1139  1.6175 -0.5404
  960SOL    HW2 3839   1.857   2.381   2.334 -1.0394  0.2492 -1.1543
  960SOL     MW 3840   1.914   2.357   2.274 -0.0317  0.6117 -0.4734
  961SOL     OW 3841   2.248   2.299   2.299 -0.1742  0.3779  0.0625
  961SOL    HW1 3842   2.158   2.289   2.271  0.6585 -1.5633  0.5831
  961SOL    HW2 3843   2.253   2.371   2.360 -1.6697 -1.3033  1.9880
  961SOL     MW 3844   2.237   2.307   2.304 -0.2617 -0.1000  0.3852
  962SOL     OW 3845   2.162   2.016   2.832 -0.2587 -0.6381  0.4741
  962SOL    HW1 3846   2.148   1.970   2.914 -1.7231  1.4812  1.4594
  962SOL    HW2 3847   2.199   1.959   2.769 -0.9214  2.3980  4.2811
  962SOL     MW 3848   2.165   2.002   2.834 -0.5393  0.0421  1.1064
  963SOL     OW 3849   1.884   2.598   2.087  0.2438  0.4051 -0.3537
  963SOL    HW1 3850   1.899   2.538   2.162  2.4317  0.3960  1.4718
  963SOL    HW2 3851   1.891   2.533   2.006  0.9257 -2.4324 -0.0551
  963SOL     MW 3852   1.887   2.582   2.086  0.6224  0.0295 -0.0734
  964SOL     OW 3853   1.830   1.905   2.750  0.5555  0.0820 -0.4934
  964SOL    HW1 3854   1.886   1.981   2.719  0.1520  0.3969 -1.7982
  964SOL    HW2 3855   1.889   1.868   2.812 -2.5519 -0.3572 -3.0959
  964SOL     MW 3856   1.845   1.910   2.754  0.0923  0.0656 -1.0090
  965SOL     OW 3857   2.148   2.622   0.796 -1.1076 -0.0472  0.3940
  965SOL    HW1 3858   2.157   2.536   0.758 -2.6977 -1.1084  1.8464
  965SOL    HW2 3859   2.227   2.639   0.847  1.2869 -1.7951  1.0533
  965SOL     MW 3860   2.160   2.613   0.797 -1.0014 -0.4178  0.6726
  966SOL     OW 3861   2.674   2.605   2.419  0.3644 -0.1501 -0.2385
  966SOL    HW1 3862   2.601   2.604   2.350  0.8133  3.4756  0.5813
  966SOL    HW2 3863   2.677   2.514   2.453  2.6903  1.2221  1.4090
  966SOL     MW 3864   2.665   2.593   2.414  0.7305  0.5093  0.0870
  967SOL     OW 3865   2.756   3.043   3.000  0.0017  0.6663  0.6050
  967SOL    HW1 3866   2.731   2.963   3.053 -3.9827 -2.5336  1.3022
  967SOL    HW2 3867   2.689   3.060   2.933 -1.0787  1.3584  0.7718
  967SOL     MW 3868   2.744   3.035   2.998 -0.6665  0.3354  0.7190
  968SOL     OW 3869   3.049   2.675   2.926  0.0714  0.3946 -0.1575
  968SOL    HW1 3870   2.985   2.740   2.892 -0.5694  1.6299 -2.1829
  968SOL    HW2 3871   3.080   2.635   2.843  1.8026  0.0062 -1.5627
  968SOL     MW 3872   3.045   2.678   2.911  0.2153  0.5064 -0.6101
  969SOL     OW 3873   1.561   2.199   1.714 -0.3029 -0.6478 -0.6154
  969SOL    HW1 3874   1.637   2.142   1.727 -0.1441 -0.2571 -1.0084
  969SOL    HW2 3875   1.522   2.206   1.798 -1.6235  1.8811  1.5770
  969SOL     MW 3876   1.566   2.192   1.726 -0.4562 -0.2626 -0.3780
  970SOL     OW 3877   1.761   1.815   1.923 -0.4391 -0.1458 -0.0620
  970SOL    HW1 3878   1.800   1.752   1.981 -4.3008  0.1500  1.7784
  970SOL    HW2 3879   1.674   1.783   1.904  2.4059 -2.2985 -2.6136
  970SOL     MW 3880   1.754   1.802   1.928 -0.5733 -0.3908 -0.1558
  971SOL     OW 3881   1.712   0.005   2.357 -0.4246  0.5234 -0.6161
  971SOL    HW1 3882   1.776  -0.036   2.288  0.1679  1.9414  0.5854
  971SOL    HW2 3883   1.733   0.098   2.354  1.2172 -0.0538 -2.1597
  971SOL     MW 3884   1.723   0.012   2.348 -0.1298  0.6344 -0.6613
  972SOL     OW 3885   0.312   2.906   2.385 -0.1195 -0.1506  0.1869
  972SOL    HW1 3886   0.358   2.823   2.407  0.7169 -0.1472  1.8009
  972SOL    HW2 3887   0.344   2.977   2.437 -0.8540 -1.0041 -0.6057
  972SOL     MW 3888   0.322   2.904   2.395 -0.1060 -0.2628  0.2953
  973SOL     OW 3889   2.596   3.009   2.123  0.2317  0.1472 -0.0495
  973SOL    HW1 3890   2.560   2.927   2.083  0.6700 -0.1395 -2.8488
  973SOL    HW2 3891   2.649   3.049   2.049  1.2546  1.6361 -4.1712
  973SOL     MW 3892   2.598   3.003   2.108  0.4245  0.3058 -0.9627
  974SOL     OW 3893   1.959   0.165   2.592  0.0956 -0.1652  0.3336
  974SOL    HW1 3894   2.024   0.166   2.661 -2.5206 -0.3657  1.6183
  974SOL    HW2 3895   1.910   0.083   2.606  0.7777  0.3899 -1.7703
  974SOL     MW 3896   1.961   0.154   2.603 -0.1596 -0.1184  0.2255
  975SOL     OW 3897   2.218   2.492   2.513 -0.0915 -0.0304  0.3867
  975SOL    HW1 3898   2.263   2.555   2.568  0.4332  0.6223  2.1921
  975SOL    HW2 3899   2.155   2.550   2.463 -2.2716  4.4117 -0.3949
  975SOL     MW 3900   2.215   2.508   2.514 -0.3099  0.6418  0.5218
  976SOL     OW 3901   0.217   0.349   1.629 -0.2029  0.2097 -0.7438
  976SOL    HW1 3902   0.275   0.303   1.687  0.5722 -0.9382 -0.7832
  976SOL    HW2 3903   0.136   0.300   1.623 -0.3835  1.3757  0.0319
  976SOL     MW 3904   0.214   0.336   1.636 -0.1245  0.2121 -0.6467
  977SOL     OW 3905   1.757   2.768   2.381  0.3409 -0.0441  0.2989
  977SOL    HW1 3906   1.816   2.692   2.391 -1.8649 -0.9931 -0.6668
  977SOL    HW2 3907   1.770   2.824   2.306  3.1580 -0.0967 -1.0130
  977SOL     MW 3908   1.767   2.765   2.372  0.4215 -0.1762 -0.0016
   3.10000   3.10000   3.10000
