977 TIP4P/2005f water molecules t=   0.70000 step= 700
 3908
    1SOL     OW    1   0.200   0.861   3.069  0.3702  0.3852 -0.7303
    1SOL    HW1    2   0.192   0.855   2.977  2.3760  2.0243 -0.1704
    1SOL    HW2    3   0.204   0.780   3.121  1.7114  0.3745 -1.2736
    1SOL     MW    4   0.199   0.849   3.064  0.8118  0.6000 -0.7281
    2SOL     OW    5   0.236   2.988   1.173  0.8016 -0.2395 -0.3964
    2SOL    HW1    6   0.301   3.055   1.148  0.8574  0.2539 -1.4905
    2SOL    HW2    7   0.154   3.037   1.181 -0.1294  0.4573 -2.4469
    2SOL     MW    8   0.234   3.003   1.171  0.6861 -0.0824 -0.8113
    3SOL     OW    9   2.655   0.395   0.927 -0.7103  0.1101  0.3250
    3SOL    HW1   10   2.659   0.468   0.860 -2.1598  1.6319 -2.3888
    3SOL    HW2   11   2.631   0.433   1.011 -1.2429 -1.4517 -1.8504
    3SOL     MW   12   2.652   0.410   0.929 -0.9718  0.1048 -0.3201
    4SOL     OW   13   3.054   1.703   0.598  0.1301 -0.0068 -0.0402
    4SOL    HW1   14   2.979   1.739   0.548  2.9476 -0.7571  0.8049
    4SOL    HW2   15   3.103   1.657   0.529 -0.9607 -1.4142 -0.9781
    4SOL     MW   16   3.051   1.701   0.582  0.3579 -0.2915 -0.0524
    5SOL     OW   17   1.717   1.499   0.512  0.0021  0.3090 -0.1262
    5SOL    HW1   18   1.749   1.470   0.597  0.7031 -1.1124 -2.9702
    5SOL    HW2   19   1.626   1.458   0.504 -3.5275  0.1408  0.8969
    5SOL     MW   20   1.709   1.490   0.522 -0.3711  0.0992 -0.3665
    6SOL     OW   21   0.859   1.397   0.653  0.1194  0.3389 -0.1623
    6SOL    HW1   22   0.766   1.416   0.649  0.7772  2.0246 -0.7816
    6SOL    HW2   23   0.856   1.306   0.682 -3.1446  0.8778 -2.9929
    6SOL     MW   24   0.846   1.387   0.657 -0.2244  0.6324 -0.6175
    7SOL     OW   25   1.997   1.135   0.008  0.3277  0.4748 -0.1402
    7SOL    HW1   26   2.037   1.222  -0.012  3.1210  1.2730  0.6924
    7SOL    HW2   27   2.037   1.120   0.095 -2.2858 -2.4527  0.6493
    7SOL     MW   28   2.008   1.145   0.017  0.3514  0.1938  0.0738
    8SOL     OW   29   0.951   1.337   1.022 -0.0174 -0.0328  0.2635
    8SOL    HW1   30   1.033   1.297   1.044  0.8300 -2.6819  0.6807
    8SOL    HW2   31   0.891   1.314   1.096  0.8433  2.2634 -1.4735
    8SOL     MW   32   0.954   1.328   1.034  0.2079 -0.0793  0.0894
    9SOL     OW   33   1.045   0.460   1.357 -0.2670  0.2789  0.3465
    9SOL    HW1   34   0.971   0.394   1.345 -1.1408 -0.2598 -1.4852
    9SOL    HW2   35   1.109   0.424   1.420  1.4825 -0.3053  1.8865
    9SOL     MW   36   1.043   0.447   1.364 -0.1515  0.1307  0.3080
   10SOL     OW   37   0.278   0.802   0.443  0.4892 -0.3650  0.3725
   10SOL    HW1   38   0.369   0.822   0.417 -3.4480 -1.4591  2.5492
   10SOL    HW2   39   0.259   0.861   0.521 -1.6307  2.7482 -1.4018
   10SOL     MW   40   0.287   0.812   0.450 -0.3100 -0.0986  0.4256
   11SOL     OW   41   0.769   1.179   1.681 -0.1515 -0.2235  0.0639
   11SOL    HW1   42   0.802   1.171   1.769  0.0376  1.2242  1.7979
   11SOL    HW2   43   0.770   1.084   1.633 -1.3281  1.1818 -2.0649
   11SOL     MW   44   0.774   1.165   1.686 -0.2818  0.1529  0.0118
   12SOL     OW   45   3.090   1.067   0.878  0.2978 -0.1626 -0.1655
   12SOL    HW1   46   3.146   1.138   0.915  0.1777  2.0580  1.6537
   12SOL    HW2   47   3.024   1.118   0.822  1.2049 -0.0809 -1.0479
   12SOL     MW   48   3.089   1.083   0.876  0.4016  0.1412 -0.0419
   13SOL     OW   49   1.855   1.408   1.342  0.2126 -0.5197  0.2500
   13SOL    HW1   50   1.887   1.357   1.267 -1.6328  1.7077  2.4694
   13SOL    HW2   51   1.888   1.497   1.324 -0.0785 -1.2428  1.3707
   13SOL     MW   52   1.863   1.413   1.330 -0.0693 -0.3212  0.6907
   14SOL     OW   53   0.606   0.378   1.825 -0.0688 -0.3549  0.7542
   14SOL    HW1   54   0.551   0.305   1.791  1.9527 -1.2166 -1.5935
   14SOL    HW2   55   0.682   0.327   1.855  0.0693  1.2240  0.1385
   14SOL     MW   56   0.609   0.362   1.824  0.2162 -0.2602  0.3632
   15SOL     OW   57   1.963   0.473   0.948  0.3594 -0.3711  0.2636
   15SOL    HW1   58   1.936   0.486   1.041  0.4488 -3.3864  0.2673
   15SOL    HW2   59   2.057   0.460   0.929  0.2515  0.0842 -1.3205
   15SOL     MW   60   1.972   0.473   0.957  0.3570 -0.7089  0.0551
   16SOL     OW   61   0.239   1.843   0.336 -0.6195 -0.2792 -0.4518
   16SOL    HW1   62   0.316   1.787   0.363 -0.5732 -0.5837  3.9001
   16SOL    HW2   63   0.253   1.923   0.394  1.8804  3.7634 -1.1835
   16SOL     MW   64   0.251   1.846   0.347 -0.2836  0.2140  0.0259
   17SOL     OW   65   1.046   0.910   1.522  0.4137  0.2817  0.2502
   17SOL    HW1   66   1.074   0.863   1.597 -0.8740  1.2247  0.7423
   17SOL    HW2   67   0.954   0.911   1.534 -0.7102  0.9993 -0.2185
   17SOL     MW   68   1.038   0.904   1.533  0.0955  0.5008  0.2533
   18SOL     OW   69   0.102   1.614   0.391  0.0367 -0.1502  0.3387
   18SOL    HW1   70   0.151   1.694   0.370  0.3277 -1.9313 -1.4488
   18SOL    HW2   71   0.073   1.574   0.309 -1.7255 -1.2746  0.1185
   18SOL     MW   72   0.105   1.619   0.378 -0.1574 -0.5336  0.0738
   19SOL     OW   73   0.112   1.304   0.979  0.3431 -0.1512 -0.2306
   19SOL    HW1   74   0.144   1.378   0.925 -0.2056 -1.7357  3.6398
   19SOL    HW2   75   0.028   1.333   1.006  1.6428  0.3647  1.2001
   19SOL     MW   76   0.105   1.318   0.976  0.4422 -0.2922  0.4688
   20SOL     OW   77   0.412   2.130   1.200  0.0868 -0.1414 -0.3001
   20SOL    HW1   78   0.345   2.063   1.175  0.4216 -1.1088  0.4831
   20SOL    HW2   79   0.371   2.178   1.270 -0.0345 -2.6691 -2.6045
   20SOL     MW   80   0.398   2.128   1.206  0.1150 -0.6025 -0.5008
   21SOL     OW   81   0.533   0.811   0.355  0.2578  0.1107 -0.0334
   21SOL    HW1   82   0.613   0.811   0.414  0.6207 -1.6184 -0.1674
   21SOL    HW2   83   0.545   0.752   0.282 -1.7428  1.5804  0.8327
   21SOL     MW   84   0.545   0.803   0.353  0.0417  0.0765  0.0632
   22SOL     OW   85   1.462   0.614   1.118 -0.7281  0.7982 -0.4966
   22SOL    HW1   86   1.491   0.569   1.044 -0.9285  2.5621  1.7288
   22SOL    HW2   87   1.383   0.663   1.092 -0.7775 -0.5409 -2.0920
   22SOL     MW   88   1.455   0.614   1.105 -0.7611  0.8542 -0.4134
   23SOL     OW   89   0.017   0.778   0.644  0.5184  0.0249 -0.2611
   23SOL    HW1   90   0.051   0.705   0.699 -0.8475 -1.9570 -4.1143
   23SOL    HW2   91   0.086   0.844   0.650  3.7452  1.4125  1.7258
   23SOL     MW   92   0.031   0.777   0.652  0.7639 -0.0535 -0.5074
   24SOL     OW   93   2.008   2.215   0.100 -0.4095 -0.4088 -0.0346
   24SOL    HW1   94   2.011   2.186   0.191 -1.8036 -3.8214 -0.7801
   24SOL    HW2   95   2.037   2.141   0.045  0.1391 -0.0641  1.9536
   24SOL     MW   96   2.012   2.201   0.105 -0.5211 -0.8135  0.1293
   25SOL     OW   97   0.198   1.376   0.521  0.2298  0.4761 -0.8916
   25SOL    HW1   98   0.194   1.465   0.486  1.6480  1.2363  0.7950
   25SOL    HW2   99   0.279   1.336   0.495 -2.2710  2.6549  0.5780
   25SOL     MW  100   0.208   1.383   0.513  0.0870  0.8639 -0.4751
   26SOL     OW  101   1.996   0.977   0.388 -0.2171  0.5640 -0.4800
   26SOL    HW1  102   1.942   1.036   0.454  1.7941  0.0849  1.0034
   26SOL    HW2  103   2.039   1.042   0.325  1.8583  0.6521 -0.7435
   26SOL     MW  104   1.995   0.994   0.389  0.3220  0.5124 -0.3191
   27SOL     OW  105   2.059   1.415   0.210  0.3763  0.2734  0.4996
   27SOL    HW1  106   1.988   1.377   0.264 -0.3985 -1.2094  0.6951
   27SOL    HW2  107   2.105   1.475   0.271 -0.0734  1.0583 -0.0947
   27SOL     MW  108   2.055   1.418   0.225  0.2147  0.1813  0.4470
   28SOL     OW  109   0.395   1.074   2.024  0.3413  0.3024  0.3168
   28SOL    HW1  110   0.454   1.006   1.990  1.2168 -0.7546 -0.2856
   28SOL    HW2  111   0.324   1.036   2.076  0.2712 -4.1672  0.5322
   28SOL     MW  112   0.393   1.060   2.026  0.4475 -0.4268  0.2657
   29SOL     OW  113   0.209   1.464   0.772 -0.0891 -0.1755 -0.5083
   29SOL    HW1  114   0.235   1.555   0.770  2.4614 -1.9317 -0.6766
   29SOL    HW2  115   0.216   1.427   0.683  0.1328  0.0276 -2.3898
   29SOL     MW  116   0.214   1.471   0.760  0.2767 -0.3804 -0.7788
   30SOL     OW  117   0.809   1.196   1.211 -0.2685  0.4799  0.3589
   30SOL    HW1  118   0.734   1.221   1.266 -1.9102 -0.7543 -1.4877
   30SOL    HW2  119   0.877   1.163   1.275  0.4235  0.2285 -0.5327
   30SOL     MW  120   0.808   1.195   1.227 -0.3938  0.2839 -0.0024
   31SOL     OW  121   0.423   0.183   0.179  0.2460  0.1487  0.4354
   31SOL    HW1  122   0.439   0.125   0.255  1.2158  0.6679 -1.3496
   31SOL    HW2  123   0.401   0.130   0.103 -0.0057  2.8684 -1.6731
   31SOL     MW  124   0.422   0.168   0.179  0.3408  0.5760 -0.0783
   32SOL     OW  125   2.791   1.000   1.132  0.1206 -0.0197 -0.0095
   32SOL    HW1  126   2.714   0.939   1.156 -0.4405  0.4917  1.0635
   32SOL    HW2  127   2.871   0.945   1.124 -1.9781 -0.9460  2.9360
   32SOL     MW  128   2.791   0.985   1.134 -0.2303 -0.0745  0.5207
   33SOL     OW  129   1.836   1.310   0.357 -0.0544 -0.4036 -0.0960
   33SOL    HW1  130   1.828   1.233   0.409 -0.2913  1.2606  1.2445
   33SOL    HW2  131   1.806   1.373   0.426  1.3209 -0.0884 -0.2499
   33SOL     MW  132   1.831   1.308   0.373  0.0958 -0.1424  0.0606
   34SOL     OW  133   1.240   1.872   1.083 -0.3640  0.1569 -0.0960
   34SOL    HW1  134   1.156   1.914   1.090  0.9080 -2.3822 -0.6539
   34SOL    HW2  135   1.290   1.898   1.165 -0.0807  1.0655  2.4081
   34SOL     MW  136   1.236   1.881   1.095 -0.1588 -0.0582  0.1608
   35SOL     OW  137   0.416   0.166   1.865  1.0758  0.4328  0.4624
   35SOL    HW1  138   0.368   0.100   1.915 -0.6775 -2.2571 -2.6441
   35SOL    HW2  139   0.444   0.115   1.791 -1.3543  1.0552  1.4655
   35SOL     MW  140   0.413   0.151   1.862  0.5239  0.1600  0.1849
   36SOL     OW  141   1.851   1.940   0.496  0.6998 -0.1650  0.3047
   36SOL    HW1  142   1.875   1.945   0.405 -0.6570  0.8747  2.2913
   36SOL    HW2  143   1.892   1.858   0.530  0.3960  1.0184 -0.3446
   36SOL     MW  144   1.860   1.930   0.489  0.4807  0.1283  0.4811
   37SOL     OW  145   1.757   1.995   1.027  0.0132  0.6701 -0.5183
   37SOL    HW1  146   1.726   1.931   0.959 -1.3471  1.6163 -0.7829
   37SOL    HW2  147   1.677   2.032   1.057  1.9471  1.1583  1.1140
   37SOL     MW  148   1.742   1.991   1.022  0.0889  0.8593 -0.3378
   38SOL     OW  149   2.797   0.895   0.153 -0.4378 -0.0281 -0.2484
   38SOL    HW1  150   2.855   0.886   0.234  0.7659  2.4257 -1.6878
   38SOL    HW2  151   2.857   0.887   0.079  0.8892  1.3219 -1.2744
   38SOL     MW  152   2.813   0.893   0.154 -0.1039  0.4737 -0.5737
   39SOL     OW  153   1.416   0.632   0.775  0.4799 -0.7749  0.0325
   39SOL    HW1  154   1.379   0.548   0.812  0.3690  1.9384  2.4112
   39SOL    HW2  155   1.344   0.690   0.756  0.2774 -3.7887 -1.3405
   39SOL     MW  156   1.401   0.628   0.778  0.4386 -0.8146  0.1652
   40SOL     OW  157   1.171   1.902   0.229 -1.1620 -0.4610  0.4061
   40SOL    HW1  158   1.216   1.848   0.295  0.4385 -0.9567  1.2149
   40SOL    HW2  159   1.145   1.981   0.281 -1.3082 -0.0513 -0.5734
   40SOL     MW  160   1.174   1.905   0.245 -0.9701 -0.4723  0.3836
   41SOL     OW  161   0.613   0.518   1.562 -0.2399  0.8292  0.0985
   41SOL    HW1  162   0.708   0.541   1.560  0.2117  0.7741 -0.3855
   41SOL    HW2  163   0.610   0.449   1.633 -0.5805  1.3610 -2.1146
   41SOL     MW  164   0.625   0.512   1.571 -0.2253  0.8921 -0.2574
   42SOL     OW  165   1.235   3.019   1.992  0.0040  0.5439 -1.0113
   42SOL    HW1  166   1.147   2.996   2.025 -0.4490  1.7886  0.4734
   42SOL    HW2  167   1.288   2.944   2.010 -0.0861 -0.2712  1.6130
   42SOL     MW  168   1.230   3.006   1.999 -0.0677  0.6006 -0.4691
   43SOL     OW  169   1.553   0.129   1.745 -0.1861  0.2141 -0.9101
   43SOL    HW1  170   1.586   0.081   1.666  1.5309 -1.0099  0.0590
   43SOL    HW2  171   1.454   0.115   1.749  0.4269 -0.5946  2.7878
   43SOL     MW  172   1.544   0.121   1.735  0.1214 -0.0541 -0.2943
   44SOL     OW  173   1.247   0.751   1.073 -1.1236 -0.0629 -0.5890
   44SOL    HW1  174   1.237   0.833   1.030  0.2988 -1.1398  0.1966
   44SOL    HW2  175   1.206   0.766   1.162  2.3855 -1.0500  0.9588
   44SOL     MW  176   1.240   0.764   1.079 -0.4729 -0.3352 -0.2812
   45SOL     OW  177   1.167   0.735   0.732  0.5705  1.1109  0.0489
   45SOL    HW1  178   1.124   0.696   0.805  1.0207  1.8117  0.2967
   45SOL    HW2  179   1.146   0.690   0.648  2.6707  1.8749 -1.2212
   45SOL     MW  180   1.159   0.724   0.731  0.9070  1.3041 -0.0860
   46SOL     OW  181   0.548   1.153   0.567  0.1707 -0.8929  0.1901
   46SOL    HW1  182   0.514   1.149   0.479 -0.2936  1.4286 -0.9878
   46SOL    HW2  183   0.640   1.134   0.557 -3.0691  0.4091  1.4877
   46SOL     MW  184   0.556   1.150   0.554 -0.3180 -0.4149  0.2059
   47SOL     OW  185   0.160   1.927   1.790 -0.1307  0.5567  0.6823
   47SOL    HW1  186   0.228   1.867   1.760 -1.9239  1.3521  2.5783
   47SOL    HW2  187   0.178   1.932   1.887  2.1605  1.1973 -1.5958
   47SOL     MW  188   0.171   1.919   1.799 -0.0650  0.7461  0.6319
   48SOL     OW  189   1.095   0.550   0.957  0.5797 -0.6134  0.0747
   48SOL    HW1  190   1.021   0.533   1.009  2.9816  0.7436 -1.0820
   48SOL    HW2  191   1.152   0.606   1.012  0.8103 -1.1972  0.2424
   48SOL     MW  192   1.093   0.555   0.971  0.9271 -0.5114 -0.0558
   49SOL     OW  193   1.828   0.742   1.586  0.3419 -0.1850  0.0425
   49SOL    HW1  194   1.776   0.693   1.648  1.4764  1.0430 -1.7315
   49SOL    HW2  195   1.886   0.671   1.547  1.3650  0.2651 -0.4836
   49SOL     MW  196   1.829   0.726   1.589  0.6266  0.0364 -0.2610
   50SOL     OW  197   1.188   1.077   0.523  0.4284  0.3158 -0.0305
   50SOL    HW1  198   1.158   1.141   0.587 -1.3211 -3.0134 -1.1833
   50SOL    HW2  199   1.263   1.039   0.565  1.1706  1.5539 -0.2041
   50SOL     MW  200   1.194   1.081   0.537  0.2955  0.0399 -0.2055
   51SOL     OW  201   0.303   2.896   0.942 -0.2591  0.3915 -0.1928
   51SOL    HW1  202   0.385   2.845   0.962  1.5680 -0.9368  0.7404
   51SOL    HW2  203   0.273   2.928   1.025  1.3221 -0.1292  1.5653
   51SOL     MW  204   0.310   2.893   0.956  0.1906  0.1476  0.1622
   52SOL     OW  205   0.816   1.836   0.452  0.3842  0.1209 -0.1254
   52SOL    HW1  206   0.773   1.916   0.472  1.5557  0.3619 -2.0766
   52SOL    HW2  207   0.816   1.832   0.356  0.1137  2.9544  1.1293
   52SOL     MW  208   0.810   1.846   0.442  0.5031  0.5266 -0.2173
   53SOL     OW  209   0.449   2.150   0.642 -0.6804 -0.1501 -0.4873
   53SOL    HW1  210   0.372   2.142   0.587 -2.0743  1.0321 -0.2305
   53SOL    HW2  211   0.446   2.250   0.648  2.5547 -0.7066  0.1091
   53SOL     MW  212   0.438   2.162   0.636 -0.4375 -0.0676 -0.3747
   54SOL     OW  213   2.114   0.874   0.866 -0.7391  0.0364 -0.0789
   54SOL    HW1  214   2.124   0.889   0.773 -1.9267  2.9318 -0.7055
   54SOL    HW2  215   2.029   0.821   0.870 -1.6742 -0.1154  1.4457
   54SOL     MW  216   2.104   0.869   0.854 -1.0192  0.3984  0.0396
   55SOL     OW  217   0.578   1.521   1.640 -0.5300 -0.0665  0.1927
   55SOL    HW1  218   0.526   1.574   1.579 -0.7609  1.0211  0.0298
   55SOL    HW2  219   0.632   1.478   1.578 -1.7706  2.0556 -0.4514
   55SOL     MW  220   0.578   1.522   1.624 -0.7242  0.3570  0.0862
   56SOL     OW  221   0.549   0.773   0.058  0.3740 -0.2504 -0.3987
   56SOL    HW1  222   0.573   0.864   0.040  1.4039  0.7972 -1.5865
   56SOL    HW2  223   0.456   0.781   0.056  2.7807  0.3514  0.4637
   56SOL     MW  224   0.540   0.786   0.056  0.8275 -0.0327 -0.4416
   57SOL     OW  225   1.208   1.225   1.106 -0.6613  0.3618 -0.6103
   57SOL    HW1  226   1.305   1.250   1.092 -0.2900  1.5433 -1.4971
   57SOL    HW2  227   1.213   1.181   1.196 -1.9070 -3.1639  2.1062
   57SOL     MW  228   1.222   1.222   1.116 -0.7767  0.0525 -0.3689
   58SOL     OW  229   0.533   1.168   1.302  0.0436 -0.5755  0.4984
   58SOL    HW1  230   0.497   1.248   1.253 -1.2154  0.4387 -1.2749
   58SOL    HW2  231   0.517   1.187   1.395  2.1095 -0.5396 -1.4043
   58SOL     MW  232   0.526   1.181   1.308  0.1501 -0.4369  0.0134
   59SOL     OW  233   1.542   1.686   0.327  0.2283  0.0233  0.1609
   59SOL    HW1  234   1.576   1.671   0.412 -0.9442  0.6487 -2.1731
   59SOL    HW2  235   1.448   1.708   0.345 -0.0433 -2.6264 -0.1513
   59SOL     MW  236   1.534   1.687   0.341  0.0378 -0.2438 -0.1883
   60SOL     OW  237   0.080   0.171   1.620  0.0337  0.2370 -0.9941
   60SOL    HW1  238  -0.007   0.205   1.634 -0.8487  3.4551 -2.3861
   60SOL    HW2  239   0.095   0.098   1.680 -0.1515  0.8085  1.7945
   60SOL     MW  240   0.070   0.166   1.630 -0.1072  0.7370 -0.8098
   61SOL     OW  241   2.053   1.469   3.050 -0.4298  0.6722  0.2896
   61SOL    HW1  242   2.043   1.494   3.144  0.2890 -1.5600  0.9322
   61SOL    HW2  243   2.113   1.396   3.044  1.4333  2.4495 -0.0933
   61SOL     MW  244   2.059   1.463   3.061 -0.0891  0.6122  0.3238
   62SOL     OW  245   0.589   1.714   0.641 -0.8827 -0.1909  0.4288
   62SOL    HW1  246   0.656   1.738   0.579  2.6094  0.9312 -1.4505
   62SOL    HW2  247   0.578   1.617   0.642  0.6247  0.0613  0.9863
   62SOL     MW  248   0.596   1.705   0.633 -0.2231 -0.0096  0.2544
   63SOL     OW  249   1.667   0.698   0.737 -0.1858 -0.5146 -0.0938
   63SOL    HW1  250   1.664   0.749   0.653 -1.7902  0.1982 -1.0409
   63SOL    HW2  251   1.576   0.677   0.761  0.1487  1.5265  1.5887
   63SOL     MW  252   1.654   0.702   0.729 -0.3533 -0.1513  0.0032
   64SOL     OW  253   0.259   1.723   0.743 -0.3381  0.4160  0.2673
   64SOL    HW1  254   0.325   1.782   0.778 -1.7300  0.0577 -2.0390
   64SOL    HW2  255   0.182   1.770   0.703 -2.9531  3.4536 -1.4232
   64SOL     MW  256   0.258   1.737   0.742 -0.8668  0.7695 -0.2600
   65SOL     OW  257   1.541   2.353   0.411 -0.1153  0.1739  0.5065
   65SOL    HW1  258   1.633   2.361   0.425 -1.1453 -1.8507  2.2441
   65SOL    HW2  259   1.508   2.405   0.483 -1.4003 -0.3490 -3.7756
   65SOL     MW  260   1.549   2.361   0.422 -0.4207 -0.1622  0.1708
   66SOL     OW  261   0.296   0.552   0.572 -0.0176  0.1179 -0.3274
   66SOL    HW1  262   0.339   0.491   0.512 -1.4219 -0.1143  0.7273
   66SOL    HW2  263   0.293   0.638   0.522 -2.7959  2.1627  1.6628
   66SOL     MW  264   0.301   0.555   0.557 -0.5695  0.3570  0.0744
   67SOL     OW  265   1.504   0.082   2.030  0.6448 -0.0827  0.0292
   67SOL    HW1  266   1.522   0.077   1.936  0.4153 -0.2665  0.5535
   67SOL    HW2  267   1.429   0.028   2.042  0.4804 -0.1380  2.9414
   67SOL     MW  268   1.497   0.074   2.019  0.5928 -0.1142  0.4826
   68SOL     OW  269   0.644   0.111   2.947  0.2432  0.5816  0.0567
   68SOL    HW1  270   0.628   0.131   2.856 -0.5189  1.8615 -0.7676
   68SOL    HW2  271   0.666   0.188   2.997 -1.3662 -0.1485 -1.9154
   68SOL     MW  272   0.645   0.124   2.942 -0.0697  0.6542 -0.3123
   69SOL     OW  273   0.996   0.176   2.001  0.0161  0.1105 -0.0004
   69SOL    HW1  274   1.084   0.201   2.037  0.9398  1.1980  4.6639
   69SOL    HW2  275   0.991   0.082   2.016  0.8112 -1.0085  2.5259
   69SOL     MW  276   1.007   0.167   2.008  0.2429  0.1063  0.9483
   70SOL     OW  277   0.524   1.714   1.118 -0.0364  0.1501 -0.3305
   70SOL    HW1  278   0.575   1.698   1.202  0.9380  1.5988  1.0590
   70SOL    HW2  279   0.597   1.742   1.070 -1.2943 -0.3445 -1.6186
   70SOL     MW  280   0.541   1.716   1.122 -0.0738  0.2760 -0.3171
   71SOL     OW  281   1.636   0.545   1.323 -0.0321 -0.1746  0.3956
   71SOL    HW1  282   1.589   0.578   1.399 -0.2754 -0.2308  0.5951
   71SOL    HW2  283   1.577   0.561   1.244 -0.2921 -0.1222 -0.5962
   71SOL     MW  284   1.622   0.552   1.323 -0.0985 -0.1751  0.2910
   72SOL     OW  285   0.769   1.777   0.984 -0.3231  0.5249  0.2548
   72SOL    HW1  286   0.725   1.820   0.913 -1.0242  0.7980 -1.0098
   72SOL    HW2  287   0.782   1.685   0.958  0.5333 -0.5234  0.5379
   72SOL     MW  288   0.765   1.770   0.972 -0.3026  0.4226  0.1253
   73SOL     OW  289   1.163   0.707   1.363 -0.4709  0.4095 -0.0581
   73SOL    HW1  290   1.123   0.618   1.357  1.5211 -1.6706  0.3294
   73SOL    HW2  291   1.106   0.764   1.412 -1.3360 -0.7894 -2.2032
   73SOL     MW  292   1.150   0.703   1.369 -0.3222 -0.0231 -0.2900
   74SOL     OW  293   2.808   0.178   0.944 -0.2178 -0.2478 -0.0580
   74SOL    HW1  294   2.812   0.152   0.856  0.9150 -0.2331 -0.0062
   74SOL    HW2  295   2.744   0.253   0.949 -1.3699 -0.1333  0.6127
   74SOL     MW  296   2.800   0.184   0.933 -0.2203 -0.2308  0.0373
   75SOL     OW  297   1.664   1.378   0.091 -0.4091  0.7575 -0.0490
   75SOL    HW1  298   1.721   1.409   0.160 -0.3292 -2.9481 -0.7972
   75SOL    HW2  299   1.689   1.283   0.084 -2.2791 -2.1459 -1.9263
   75SOL     MW  300   1.675   1.369   0.099 -0.6453 -0.1145 -0.3954
   76SOL     OW  301   3.016   0.616   0.433  0.4100 -0.0872  0.3031
   76SOL    HW1  302   3.060   0.671   0.501 -1.5342 -2.3914  3.0335
   76SOL    HW2  303   3.081   0.551   0.415 -0.1932  2.4087  1.5464
   76SOL     MW  304   3.030   0.615   0.439  0.0739 -0.0619  0.8274
   77SOL     OW  305   0.807   0.554   0.406 -0.7346  0.1618 -0.3104
   77SOL    HW1  306   0.787   0.550   0.316  0.2951  0.8665 -0.8377
   77SOL    HW2  307   0.763   0.476   0.447 -1.0841 -0.6547 -0.0628
   77SOL     MW  308   0.799   0.543   0.400 -0.6449  0.1471 -0.3473
   78SOL     OW  309   0.747   0.892   1.284 -0.1490  0.2620 -0.0928
   78SOL    HW1  310   0.699   0.973   1.274  0.6098 -2.8460  2.3945
   78SOL    HW2  311   0.751   0.848   1.202 -2.8209  1.8544  1.0417
   78SOL     MW  312   0.741   0.897   1.272 -0.4014  0.0620  0.3850
   79SOL     OW  313   1.924   1.689   0.593  0.2561 -0.3584 -0.0839
   79SOL    HW1  314   1.835   1.646   0.573  1.7135 -2.6879 -1.7255
   79SOL    HW2  315   1.921   1.717   0.686  1.2938 -0.9117 -3.9172
   79SOL     MW  316   1.912   1.687   0.603  0.5853 -0.7388 -0.8063
   80SOL     OW  317   0.074   0.946   0.300  0.1155 -0.1516  0.0131
   80SOL    HW1  318  -0.023   0.925   0.322 -0.0987 -1.2855  0.3789
   80SOL    HW2  319   0.139   0.880   0.331 -0.6776 -0.0535  1.4109
   80SOL     MW  320   0.070   0.934   0.307 -0.0174 -0.2883  0.2458
   81SOL     OW  321   1.891   1.903   0.240 -0.3768 -0.0765 -0.5715
   81SOL    HW1  322   1.854   1.818   0.205 -1.3641 -0.1615 -0.1342
   81SOL    HW2  323   1.822   1.968   0.220  0.6081 -3.9022 -0.2758
   81SOL     MW  324   1.877   1.901   0.233 -0.3771 -0.5925 -0.4748
   82SOL     OW  325   0.824   1.065   0.526  0.2798 -0.5384 -0.1407
   82SOL    HW1  326   0.807   1.087   0.433  0.2028 -1.2733 -0.0131
   82SOL    HW2  327   0.811   0.976   0.529 -1.7985  1.4359  1.0293
   82SOL     MW  328   0.820   1.056   0.514 -0.0046 -0.3749  0.0305
   83SOL     OW  329   0.128   0.590   1.351 -0.5201  0.4964  0.6321
   83SOL    HW1  330   0.112   0.672   1.313 -0.1669 -0.4996  1.9973
   83SOL    HW2  331   0.212   0.583   1.400 -1.1239  0.0483 -0.0619
   83SOL     MW  332   0.137   0.600   1.353 -0.5531  0.3058  0.7207
   84SOL     OW  333   0.074   0.259   0.925  0.2214  0.9304  0.3530
   84SOL    HW1  334   0.001   0.292   0.866 -1.2104  0.7230  1.9155
   84SOL    HW2  335   0.027   0.205   0.991  0.8027 -1.4097  0.2103
   84SOL     MW  336   0.058   0.256   0.926  0.1092  0.5943  0.5403
   85SOL     OW  337   0.476   0.432   0.745 -0.5122 -0.4043 -0.4503
   85SOL    HW1  338   0.409   0.441   0.686  2.6722 -0.2865 -0.8972
   85SOL    HW2  339   0.461   0.348   0.784  0.8998  1.2693  0.0056
   85SOL     MW  340   0.465   0.422   0.743  0.0943 -0.1679 -0.4491
   86SOL     OW  341   1.223   0.342   1.088 -0.0160 -0.3633  0.5604
   86SOL    HW1  342   1.163   0.403   1.044 -0.8864 -0.8667 -1.1344
   86SOL    HW2  343   1.235   0.383   1.176 -0.9422  0.7214 -0.4873
   86SOL     MW  344   1.217   0.355   1.094 -0.2531 -0.2866  0.1985
   87SOL     OW  345   1.141   1.429   1.294  0.4129 -0.2008 -0.0284
   87SOL    HW1  346   1.197   1.504   1.265  1.2473 -1.6581 -0.1581
   87SOL    HW2  347   1.163   1.350   1.240  1.6342 -0.4230  2.2347
   87SOL     MW  348   1.152   1.428   1.283  0.6842 -0.4224  0.2531
   88SOL     OW  349   1.209   0.994   0.937  0.1776  0.0345 -0.9578
   88SOL    HW1  350   1.305   0.992   0.924  2.3957  0.9868 -0.8314
   88SOL    HW2  351   1.206   1.051   1.016 -2.0449 -1.3602 -0.3644
   88SOL     MW  352   1.221   1.001   0.946  0.1770 -0.0239 -0.8629
   89SOL     OW  353   1.765   0.677   0.347  0.4340  0.1069  0.6480
   89SOL    HW1  354   1.804   0.587   0.341  0.2564  1.9507  1.5316
   89SOL    HW2  355   1.824   0.725   0.288 -2.6577 -1.4410 -2.5749
   89SOL     MW  356   1.778   0.671   0.338  0.0027  0.1459  0.3394
   90SOL     OW  357   0.688   1.160   2.792 -0.2490 -0.0898 -0.2316
   90SOL    HW1  358   0.772   1.101   2.800  4.3291 -0.7594 -0.4365
   90SOL    HW2  359   0.696   1.212   2.871  3.1377 -0.3789 -0.4817
   90SOL     MW  360   0.700   1.159   2.804  0.8019 -0.2163 -0.2916
   91SOL     OW  361   2.195   0.649   0.536 -0.3175  0.2404 -0.2429
   91SOL    HW1  362   2.219   0.726   0.484 -0.0589  1.0845 -2.0884
   91SOL    HW2  363   2.191   0.575   0.477 -1.2288  1.0328  1.0754
   91SOL     MW  364   2.197   0.649   0.522 -0.4036  0.4563 -0.3124
   92SOL     OW  365   1.628   0.840   0.518  0.1606 -0.2875  0.4074
   92SOL    HW1  366   1.532   0.836   0.516  2.0125 -0.4182  0.7203
   92SOL    HW2  367   1.669   0.785   0.447  0.1892  0.2881 -1.0080
   92SOL     MW  368   1.621   0.832   0.508  0.4087 -0.2288  0.2620
   93SOL     OW  369   0.999   0.294   0.395 -0.6414 -0.9530  0.4050
   93SOL    HW1  370   0.926   0.353   0.380  0.8912  0.6181  1.6679
   93SOL    HW2  371   1.052   0.291   0.316 -1.5763 -0.3605 -0.0567
   93SOL     MW  372   0.997   0.301   0.383 -0.5626 -0.6675  0.5107
   94SOL     OW  373   1.860   1.418   1.621 -0.6364  0.9295 -0.0092
   94SOL    HW1  374   1.858   1.403   1.523 -0.7191  1.8660 -3.3445
   94SOL    HW2  375   1.846   1.332   1.659 -1.2557 -1.2018  0.7836
   94SOL     MW  376   1.857   1.404   1.613 -0.7290  0.7719 -0.3447
   95SOL     OW  377   0.752   1.504   0.988  0.6007 -0.3456 -0.1709
   95SOL    HW1  378   0.830   1.445   0.994  1.5960  2.9134 -1.2107
   95SOL    HW2  379   0.693   1.453   0.933 -0.1377  0.3799 -0.2812
   95SOL     MW  380   0.755   1.489   0.982  0.6346  0.1801 -0.3227
   96SOL     OW  381   1.238   1.847   1.640 -0.3157  0.3710  0.3224
   96SOL    HW1  382   1.155   1.838   1.673  1.1326 -0.7766 -1.6132
   96SOL    HW2  383   1.265   1.756   1.603 -1.6008 -2.5408 -0.1715
   96SOL     MW  384   1.231   1.834   1.640 -0.2941 -0.1646  0.0019
   97SOL     OW  385   1.273   1.438   0.808  0.2441 -0.0953 -0.4278
   97SOL    HW1  386   1.305   1.455   0.900  1.4019 -0.1022  2.0977
   97SOL    HW2  387   1.191   1.491   0.803 -0.3895  0.7874  0.6265
   97SOL     MW  388   1.266   1.448   0.820  0.3132  0.0202  0.0445
   98SOL     OW  389   1.464   1.295   1.054 -0.2661 -0.3777 -0.1654
   98SOL    HW1  390   1.502   1.358   1.109 -0.3979  0.4264  1.0126
   98SOL    HW2  391   1.496   1.321   0.970  1.5899 -1.1248  0.6107
   98SOL     MW  392   1.473   1.307   1.050 -0.0386 -0.3702  0.0924
   99SOL     OW  393   1.366   0.380   1.354 -0.1896  0.2118  0.0738
   99SOL    HW1  394   1.418   0.444   1.309 -0.5538  0.2720 -0.0612
   99SOL    HW2  395   1.399   0.377   1.444 -1.4883 -0.6814 -0.9189
   99SOL     MW  396   1.377   0.388   1.360 -0.4090  0.1019 -0.0750
  100SOL     OW  397   1.025   1.156   1.371 -0.4996 -0.0645 -0.6042
  100SOL    HW1  398   1.021   1.229   1.433  2.7049  1.1977 -0.0565
  100SOL    HW2  399   1.034   1.072   1.424 -0.0259  0.5311  0.6717
  100SOL     MW  400   1.026   1.154   1.386 -0.0143  0.1806 -0.3636
  101SOL     OW  401   0.510   1.081   0.309 -0.4583  0.1615  0.8285
  101SOL    HW1  402   0.518   0.987   0.326  1.6545  1.7082 -2.2798
  101SOL    HW2  403   0.480   1.082   0.222  0.8132 -2.2101 -0.7878
  101SOL     MW  404   0.507   1.068   0.300 -0.0118  0.0527  0.2051
  102SOL     OW  405   2.924   0.591   0.989 -0.5477 -0.1926  0.2211
  102SOL    HW1  406   2.936   0.684   1.023 -1.3549 -0.4848 -2.1903
  102SOL    HW2  407   2.977   0.536   1.051 -2.7279  0.3215  0.8363
  102SOL     MW  408   2.933   0.596   1.002 -0.9419 -0.1633 -0.0159
  103SOL     OW  409   1.749   0.373   1.816 -0.5469 -0.2374 -0.6180
  103SOL    HW1  410   1.732   0.282   1.785  2.1627  0.3561 -0.5780
  103SOL    HW2  411   1.790   0.362   1.894 -1.6997 -0.2423 -2.4927
  103SOL     MW  412   1.752   0.360   1.822 -0.3415 -0.1598 -0.8601
  104SOL     OW  413   0.134   1.755   1.548 -0.7627 -0.5589 -0.1494
  104SOL    HW1  414   0.070   1.705   1.605 -0.1467  1.8568 -2.3205
  104SOL    HW2  415   0.107   1.713   1.465 -1.9045 -1.0062  1.1284
  104SOL     MW  416   0.122   1.743   1.545 -0.8320 -0.2992 -0.2673
  105SOL     OW  417   0.019   1.162   0.491 -0.2570  0.0460 -0.5601
  105SOL    HW1  418   0.061   1.083   0.452  0.6703 -1.1648  0.2693
  105SOL    HW2  419   0.091   1.225   0.509  2.7893 -3.1669  0.6052
  105SOL     MW  420   0.034   1.160   0.488  0.2673 -0.5377 -0.2969
  106SOL     OW  421   0.875   0.369   1.035  0.2923 -0.1272 -0.3878
  106SOL    HW1  422   0.796   0.415   1.006 -2.3988 -1.5394  1.0219
  106SOL    HW2  423   0.911   0.322   0.962 -1.1272  0.8915  0.3797
  106SOL     MW  424   0.869   0.369   1.021 -0.2500 -0.1791 -0.1005
  107SOL     OW  425   0.769   2.158   2.978  0.3725  0.2241 -0.4934
  107SOL    HW1  426   0.695   2.122   2.919  1.6328  1.8356  0.7969
  107SOL    HW2  427   0.764   2.129   3.070 -1.3496 -0.4375 -0.3602
  107SOL     MW  428   0.758   2.150   2.982  0.3116  0.3494 -0.3056
  108SOL     OW  429   1.306   1.546   1.512 -0.5871  0.3386  0.6073
  108SOL    HW1  430   1.248   1.478   1.465 -0.1922 -0.7997 -1.7237
  108SOL    HW2  431   1.356   1.491   1.578  1.4122 -0.8656 -1.4238
  108SOL     MW  432   1.305   1.530   1.515 -0.2712  0.0295  0.0317
  109SOL     OW  433   1.989   0.772   0.176 -0.2658  0.5288 -0.1548
  109SOL    HW1  434   2.061   0.807   0.121  2.9796 -0.1632  0.3565
  109SOL    HW2  435   2.017   0.809   0.259 -1.2811 -0.6424  3.3373
  109SOL     MW  436   2.002   0.782   0.180  0.0285  0.2830  0.3734
  110SOL     OW  437   0.466   1.909   0.778  0.2762 -0.0248  0.2714
  110SOL    HW1  438   0.502   1.850   0.709 -2.8095  3.1007 -2.3289
  110SOL    HW2  439   0.473   2.000   0.742  1.5745 -2.7007 -1.9272
  110SOL     MW  440   0.472   1.913   0.764  0.0403  0.0345 -0.3618
  111SOL     OW  441   0.763   0.935   1.546  0.6546 -0.1609  0.3494
  111SOL    HW1  442   0.772   0.911   1.451  0.4224  0.4514 -0.7694
  111SOL    HW2  443   0.683   0.890   1.574  1.4029  0.3774  2.4873
  111SOL     MW  444   0.753   0.926   1.537  0.7227 -0.0091  0.4839
  112SOL     OW  445   1.333   1.058   1.609 -0.0821  0.0952 -0.0692
  112SOL    HW1  446   1.254   1.109   1.634 -1.6692 -0.7347  0.8282
  112SOL    HW2  447   1.299   0.967   1.611 -0.8875 -0.6487 -1.2487
  112SOL     MW  448   1.318   1.053   1.612 -0.3978 -0.1124 -0.1064
  113SOL     OW  449   1.299   0.038   1.744  0.3884  0.2689  0.1134
  113SOL    HW1  450   1.252  -0.014   1.812 -1.7640  0.0315 -0.3282
  113SOL    HW2  451   1.324  -0.031   1.674  1.3919 -0.3427  1.5727
  113SOL     MW  452   1.296   0.022   1.744  0.2368  0.1569  0.2477
  114SOL     OW  453   0.357   2.854   1.946 -1.0840  0.0886  0.2574
  114SOL    HW1  454   0.376   2.919   2.013 -1.2445  0.8677  0.0949
  114SOL    HW2  455   0.349   2.907   1.859  2.4743 -2.4064 -3.0942
  114SOL     MW  456   0.358   2.869   1.943 -0.6357 -0.1378 -0.2062
  115SOL     OW  457   0.506   0.826   1.133  0.2580 -0.1612  0.2303
  115SOL    HW1  458   0.520   0.733   1.144  0.9407 -0.2057  3.5063
  115SOL    HW2  459   0.509   0.869   1.217  1.6922  2.7936  0.9231
  115SOL     MW  460   0.509   0.820   1.146  0.5373  0.2228  0.7540
  116SOL     OW  461   0.782   1.009   1.021 -0.0562  0.1084 -0.2280
  116SOL    HW1  462   0.824   1.052   0.948  3.1494 -1.2872 -1.1910
  116SOL    HW2  463   0.803   1.070   1.094  2.9495  2.6142 -0.5859
  116SOL     MW  464   0.790   1.023   1.021  0.7633  0.2548 -0.4023
  117SOL     OW  465   1.142   1.209   0.770 -0.7457 -0.3331  0.3755
  117SOL    HW1  466   1.182   1.141   0.821  0.1710  0.3639  3.0208
  117SOL    HW2  467   1.189   1.294   0.790 -0.7673  2.3746  1.2349
  117SOL     MW  468   1.153   1.211   0.779 -0.6276  0.1161  0.8379
  118SOL     OW  469   3.042   2.909   1.705  0.1784 -0.1708  0.6285
  118SOL    HW1  470   3.096   2.972   1.755 -1.5632  0.1004  3.0836
  118SOL    HW2  471   2.955   2.932   1.741  2.5417 -2.6102 -0.1970
  118SOL     MW  472   3.038   2.920   1.716  0.2604 -0.4569  0.8435
  119SOL     OW  473   0.459   1.419   1.209  0.3041  0.6862 -0.1777
  119SOL    HW1  474   0.484   1.475   1.140  1.9725 -0.7218  0.4007
  119SOL    HW2  475   0.360   1.412   1.219  2.7525 -0.6600 -0.4929
  119SOL     MW  476   0.449   1.426   1.201  0.8473  0.3228 -0.1430
  120SOL     OW  477   0.281   0.702   0.985 -0.0384 -0.0902 -0.2579
  120SOL    HW1  478   0.298   0.621   1.028  1.9441  0.2176  0.2797
  120SOL    HW2  479   0.350   0.761   1.008 -1.6634  1.1715 -0.2122
  120SOL     MW  480   0.293   0.699   0.994  0.0088  0.1169 -0.1810
  121SOL     OW  481   1.785   1.156   1.711 -0.7727  0.2328 -0.5080
  121SOL    HW1  482   1.703   1.113   1.732 -0.8559 -1.5156  0.4900
  121SOL    HW2  483   1.819   1.101   1.637  0.0238  0.4256 -0.3848
  121SOL     MW  484   1.778   1.143   1.704 -0.6786  0.0276 -0.3600
  122SOL     OW  485   0.122   0.574   0.796 -0.4660 -0.8582  0.1362
  122SOL    HW1  486   0.188   0.555   0.729 -1.9322  0.9051 -2.1065
  122SOL    HW2  487   0.167   0.618   0.869 -2.9901  1.0986 -1.4098
  122SOL     MW  488   0.136   0.577   0.797 -0.9925 -0.3674 -0.3637
  123SOL     OW  489   1.810   1.071   0.579  0.1793 -0.5674 -0.1813
  123SOL    HW1  490   1.742   1.003   0.584 -0.4525 -1.4003 -1.4399
  123SOL    HW2  491   1.850   1.071   0.670  0.2969  2.5743  2.7327
  123SOL     MW  492   1.806   1.062   0.592  0.1114 -0.2628  0.0371
  124SOL     OW  493   0.682   0.528   0.920  0.6657  0.2069 -0.4048
  124SOL    HW1  494   0.621   0.487   0.859  0.0618  1.0657  0.5530
  124SOL    HW2  495   0.697   0.610   0.871  0.8017 -1.6865  0.1520
  124SOL     MW  496   0.676   0.533   0.905  0.6040  0.0704 -0.2050
  125SOL     OW  497   0.701   1.763   1.708  0.1780  0.3412  0.0591
  125SOL    HW1  498   0.647   1.687   1.678 -2.3264  1.5768 -0.2963
  125SOL    HW2  499   0.660   1.842   1.684  3.4926 -1.8776 -0.7203
  125SOL     MW  500   0.688   1.763   1.701  0.2849  0.2115 -0.0906
  126SOL     OW  501   2.137   1.600   1.950 -0.1786 -0.1112  0.1357
  126SOL    HW1  502   2.214   1.658   1.934  0.8718 -0.1756  0.0948
  126SOL    HW2  503   2.181   1.513   1.961 -0.4486 -1.8279  0.5062
  126SOL     MW  504   2.153   1.596   1.949 -0.0757 -0.3462  0.1792
  127SOL     OW  505   0.693   0.793   1.864 -0.0189  0.8553  0.0131
  127SOL    HW1  506   0.752   0.725   1.903  0.3093  2.0385 -2.4903
  127SOL    HW2  507   0.707   0.870   1.921  0.7670  1.2960  1.5224
  127SOL     MW  508   0.702   0.794   1.876  0.1281  1.0696 -0.1181
  128SOL     OW  509   1.847   0.765   2.922  0.3272 -0.0465  0.1832
  128SOL    HW1  510   1.853   0.722   2.838 -0.8480 -3.5587  2.4717
  128SOL    HW2  511   1.794   0.841   2.899 -0.6091 -1.9641  0.8255
  128SOL     MW  512   1.841   0.769   2.908  0.0486 -0.7629  0.5699
  129SOL     OW  513   1.642   0.929   0.188  0.5037 -0.2698  0.6044
  129SOL    HW1  514   1.572   0.867   0.191 -0.2905  1.1548  0.6519
  129SOL    HW2  515   1.688   0.918   0.269 -1.7210  0.3173 -0.5290
  129SOL     MW  516   1.639   0.919   0.199  0.1054 -0.0044  0.4611
  130SOL     OW  517   0.755   1.372   0.386 -0.5780 -0.5420 -0.6673
  130SOL    HW1  518   0.806   1.414   0.455  1.8143  0.0579  2.8850
  130SOL    HW2  519   0.801   1.389   0.308 -2.7965 -3.0147 -2.0393
  130SOL     MW  520   0.768   1.380   0.385 -0.5551 -0.7891 -0.3796
  131SOL     OW  521   2.999   0.839   3.053 -0.2259  0.0529  0.0570
  131SOL    HW1  522   2.986   0.886   2.970 -1.7180  0.2441 -0.8855
  131SOL    HW2  523   3.094   0.843   3.063 -2.6290 -1.6168  2.2410
  131SOL     MW  524   3.010   0.846   3.043 -0.7398 -0.1422  0.2208
  132SOL     OW  525   2.742   0.161   1.209 -0.4533  0.4630 -0.0244
  132SOL    HW1  526   2.765   0.138   1.116 -3.3904  0.3259  0.9002
  132SOL    HW2  527   2.644   0.159   1.200  0.0072 -0.0961 -0.5181
  132SOL     MW  528   2.732   0.158   1.195 -0.7801  0.3712  0.0325
  133SOL     OW  529   1.033   0.166   1.718  0.1888 -0.1525 -0.0140
  133SOL    HW1  530   1.109   0.109   1.720  0.9383  0.9620 -1.1950
  133SOL    HW2  531   1.010   0.180   1.810  1.8830  1.5137  0.1385
  133SOL     MW  532   1.040   0.160   1.730  0.5113  0.2143 -0.1497
  134SOL     OW  533   1.420   2.513   1.421  0.1841 -0.5141 -0.1227
  134SOL    HW1  534   1.364   2.587   1.403  1.2638  1.7308  0.1683
  134SOL    HW2  535   1.449   2.529   1.512 -0.8687 -1.3278  3.4379
  134SOL     MW  536   1.416   2.525   1.431  0.1876 -0.3253  0.3854
  135SOL     OW  537   3.055   1.033   2.833 -0.0734 -0.0505 -0.1065
  135SOL    HW1  538   3.111   1.107   2.860  1.2539  3.2683  1.0411
  135SOL    HW2  539   2.970   1.063   2.863 -0.8509 -0.3855  1.8115
  135SOL     MW  540   3.051   1.047   2.841 -0.0009  0.3432  0.2980
  136SOL     OW  541   0.253   2.056   0.911 -0.7398 -0.0304  0.4213
  136SOL    HW1  542   0.169   2.026   0.874  2.0742  0.9894  0.3187
  136SOL    HW2  543   0.330   2.017   0.862  2.1827  0.4480  0.8162
  136SOL     MW  544   0.252   2.047   0.899  0.0170  0.1673  0.4599
  137SOL     OW  545   0.679   2.073   0.539 -0.3988 -0.0518  0.4996
  137SOL    HW1  546   0.730   2.064   0.623 -0.3887 -2.4637 -0.6776
  137SOL    HW2  547   0.591   2.103   0.577  0.1564  1.2433 -1.2200
  137SOL     MW  548   0.674   2.076   0.555 -0.3242 -0.1991  0.1174
  138SOL     OW  549   0.505   0.544   1.125 -0.0130  0.6192 -0.6025
  138SOL    HW1  550   0.419   0.494   1.102  1.1729  0.2954 -1.1643
  138SOL    HW2  551   0.572   0.522   1.063 -0.5231 -1.9717  0.9423
  138SOL     MW  552   0.502   0.534   1.113  0.0762  0.2346 -0.4728
  139SOL     OW  553   2.748   0.579   1.378  0.8550 -0.1320 -0.1182
  139SOL    HW1  554   2.797   0.504   1.347  0.5708  3.9304  0.7507
  139SOL    HW2  555   2.809   0.624   1.440 -1.3108 -1.8342  0.3878
  139SOL     MW  556   2.762   0.575   1.382  0.5317  0.1794  0.0632
  140SOL     OW  557   0.806   0.363   2.081 -0.6513 -0.3190  0.3197
  140SOL    HW1  558   0.857   0.292   2.046  1.3633  0.9797  1.5536
  140SOL    HW2  559   0.840   0.388   2.165 -2.2107  0.5305 -0.1982
  140SOL     MW  560   0.817   0.357   2.087 -0.5913 -0.0356  0.4142
  141SOL     OW  561   1.080   0.563   1.785 -0.1780  0.1337 -0.2545
  141SOL    HW1  562   1.133   0.504   1.733 -4.2951 -0.3962  0.3755
  141SOL    HW2  563   1.120   0.650   1.776 -2.6457 -1.2037 -0.7305
  141SOL     MW  564   1.092   0.567   1.777 -1.0468 -0.1127 -0.2342
  142SOL     OW  565   0.884   1.134   0.777 -0.3867  0.1609 -0.5342
  142SOL    HW1  566   0.874   1.093   0.690  1.3826  0.9529 -0.4272
  142SOL    HW2  567   0.968   1.186   0.768 -2.0818  0.8276 -0.5849
  142SOL     MW  568   0.894   1.136   0.764 -0.3769  0.3534 -0.5268
  143SOL     OW  569   1.746   0.794   1.095 -0.2101 -0.0210 -0.1707
  143SOL    HW1  570   1.809   0.754   1.034  1.0870  0.7348  0.6810
  143SOL    HW2  571   1.669   0.746   1.090  1.1331 -2.8924 -0.5241
  143SOL     MW  572   1.744   0.782   1.086  0.1383 -0.3001 -0.1049
  144SOL     OW  573   0.228   1.237   1.517  0.7445 -0.2469 -0.0078
  144SOL    HW1  574   0.320   1.212   1.510  2.5726  0.7139 -0.5359
  144SOL    HW2  575   0.220   1.266   1.606 -0.8805 -2.4621 -1.5270
  144SOL     MW  576   0.239   1.237   1.528  0.7713 -0.4124 -0.2779
  145SOL     OW  577   0.271   0.404   1.065 -0.7471  0.3061  0.1178
  145SOL    HW1  578   0.291   0.341   1.140  1.4439 -1.7661  1.1224
  145SOL    HW2  579   0.207   0.347   1.004 -0.2586  1.5669 -0.0529
  145SOL     MW  580   0.265   0.388   1.067 -0.3935  0.1990  0.2278
  146SOL     OW  581   0.855   1.947   1.351 -0.0909 -0.3328  0.3746
  146SOL    HW1  582   0.911   1.951   1.266 -2.3534 -2.8020 -2.9905
  146SOL    HW2  583   0.761   1.951   1.334  2.3844 -0.5152  0.1087
  146SOL     MW  584   0.850   1.948   1.337 -0.0628 -0.6827 -0.1045
  147SOL     OW  585   0.388   0.392   3.012 -0.0899 -0.1417  0.2831
  147SOL    HW1  586   0.309   0.397   3.067  0.8695  0.7743 -0.7098
  147SOL    HW2  587   0.370   0.451   2.939  2.8404 -1.1508  0.2410
  147SOL     MW  588   0.375   0.401   3.009  0.4233 -0.1540  0.1466
  148SOL     OW  589   0.095   0.892   1.301 -0.1650 -0.1847 -0.2879
  148SOL    HW1  590   0.188   0.915   1.300  3.2579  0.1445  1.1861
  148SOL    HW2  591   0.072   0.889   1.394  0.4950 -1.4150 -3.0513
  148SOL     MW  592   0.104   0.895   1.313  0.3737 -0.3036 -0.4580
  149SOL     OW  593   1.370   1.189   1.328 -0.0747  0.0023 -0.3934
  149SOL    HW1  594   1.335   1.176   1.415 -1.9320 -0.7959 -2.5471
  149SOL    HW2  595   1.458   1.231   1.334  1.3328  0.3203 -0.5348
  149SOL     MW  596   1.377   1.193   1.340 -0.1340 -0.0611 -0.6962
  150SOL     OW  597   1.869   1.401   0.741 -0.1784  0.4029  0.0334
  150SOL    HW1  598   1.907   1.311   0.756  1.3019 -0.5084  0.6049
  150SOL    HW2  599   1.946   1.457   0.756 -2.2547  0.8182  2.3087
  150SOL     MW  600   1.884   1.396   0.745 -0.2570  0.3375  0.4090
  151SOL     OW  601   1.642   1.834   0.857  0.4827 -0.3666 -0.0717
  151SOL    HW1  602   1.614   1.849   0.766  0.5939 -3.6835 -0.0926
  151SOL    HW2  603   1.598   1.758   0.882  4.0931 -0.6309 -1.8981
  151SOL     MW  604   1.632   1.826   0.848  0.9737 -0.8391 -0.3155
  152SOL     OW  605   0.740   1.356   1.506  0.1871  0.4047  0.0258
  152SOL    HW1  606   0.743   1.286   1.573 -3.2434  1.7515  0.3516
  152SOL    HW2  607   0.824   1.403   1.515 -2.0729  2.7038  2.6765
  152SOL     MW  608   0.752   1.353   1.516 -0.5637  0.8858  0.4185
  153SOL     OW  609   2.619   1.264   0.754 -0.5260  0.0617  0.0932
  153SOL    HW1  610   2.706   1.235   0.714 -2.9261  1.7094 -0.0057
  153SOL    HW2  611   2.558   1.190   0.754  0.0169 -0.1996  0.8809
  153SOL     MW  612   2.622   1.250   0.749 -0.7711  0.2446  0.1841
  154SOL     OW  613   0.372   1.752   1.734 -0.2208  0.1656 -0.0249
  154SOL    HW1  614   0.356   1.760   1.639 -1.1384 -1.3420  0.6571
  154SOL    HW2  615   0.366   1.660   1.758  0.0166  2.7590  0.9871
  154SOL     MW  616   0.369   1.741   1.725 -0.3105  0.3089  0.1986
  155SOL     OW  617   1.183   0.722   0.289 -0.4753  0.4224 -0.1850
  155SOL    HW1  618   1.177   0.689   0.382  1.0240 -0.0329  0.9725
  155SOL    HW2  619   1.145   0.809   0.286  3.5016  0.1297 -1.3346
  155SOL     MW  620   1.177   0.729   0.301  0.2472  0.3237 -0.1839
  156SOL     OW  621   1.593   3.025   1.035  0.2729  0.3674  0.2398
  156SOL    HW1  622   1.633   3.088   1.088 -1.5705  0.3895 -0.8946
  156SOL    HW2  623   1.604   2.938   1.083 -2.3502 -0.8505  1.9924
  156SOL     MW  624   1.600   3.022   1.048 -0.3164  0.2096  0.3213
  157SOL     OW  625   1.442   1.136   0.114  0.4580  0.1709 -0.3080
  157SOL    HW1  626   1.509   1.073   0.130  1.1170 -3.4872  1.5007
  157SOL    HW2  627   1.484   1.220   0.131  0.1106  2.1046 -1.5992
  157SOL     MW  628   1.456   1.139   0.118  0.4991 -0.0566 -0.2398
  158SOL     OW  629   0.465   1.626   2.213  0.7299  0.1739 -0.1003
  158SOL    HW1  630   0.467   1.678   2.134 -0.2935 -1.6644 -3.0519
  158SOL    HW2  631   0.377   1.641   2.248 -0.8294 -0.6981  0.4072
  158SOL     MW  632   0.454   1.635   2.207  0.3892 -0.1837 -0.4227
  159SOL     OW  633   1.256   1.733   0.404 -0.1236 -0.1717 -0.1796
  159SOL    HW1  634   1.239   1.649   0.355  0.4683 -0.3933 -4.0162
  159SOL    HW2  635   1.179   1.744   0.470  0.3486  0.5625  1.0600
  159SOL     MW  636   1.243   1.724   0.406  0.0168 -0.1041 -0.5223
  160SOL     OW  637   0.504   1.156   1.600  0.4658  0.0916 -0.3356
  160SOL    HW1  638   0.511   1.063   1.612  0.7157 -1.9121 -1.7345
  160SOL    HW2  639   0.584   1.192   1.650  1.6668  0.2884  1.8820
  160SOL     MW  640   0.516   1.149   1.608  0.6573 -0.1468 -0.2276
  161SOL     OW  641   0.503   2.176   2.551 -0.3361  0.5716  0.0553
  161SOL    HW1  642   0.426   2.185   2.497 -0.3372 -0.2613 -1.5722
  161SOL    HW2  643   0.573   2.150   2.488 -1.1858 -0.8370  0.0810
  161SOL     MW  644   0.502   2.174   2.535 -0.4484  0.2759 -0.1560
  162SOL     OW  645   1.058   1.764   1.852  0.0280  0.3051  0.0296
  162SOL    HW1  646   1.067   1.853   1.882  3.0286  1.6194  1.9723
  162SOL    HW2  647   0.962   1.739   1.881  1.7460 -0.4432  0.3283
  162SOL     MW  648   1.047   1.772   1.860  0.6506  0.3798  0.3254
  163SOL     OW  649   2.115   0.056   0.981  0.7250 -0.6499 -0.1936
  163SOL    HW1  650   2.087   0.077   0.893 -2.0587 -0.9425 -2.2441
  163SOL    HW2  651   2.048  -0.006   1.010  0.9660  0.9609 -2.8469
  163SOL     MW  652   2.103   0.051   0.973  0.3895 -0.4759 -0.8142
  164SOL     OW  653   0.351   0.202   0.830 -0.0060 -0.0091  1.1349
  164SOL    HW1  654   0.263   0.226   0.843  0.0525  0.4662  1.8632
  164SOL    HW2  655   0.340   0.119   0.780  0.7353 -1.1030  0.1861
  164SOL     MW  656   0.338   0.194   0.825  0.0996 -0.0907  1.1058
  165SOL     OW  657   1.328   1.241   0.365 -0.1878  0.2024  0.0643
  165SOL    HW1  658   1.290   1.169   0.411  3.1001  1.9271  0.0947
  165SOL    HW2  659   1.366   1.196   0.286  1.8785 -2.1719  0.6488
  165SOL     MW  660   1.328   1.226   0.361  0.5186  0.1167  0.1455
  166SOL     OW  661   0.530   1.086   0.985  0.2848  0.3466  0.0164
  166SOL    HW1  662   0.481   1.012   1.025 -0.8807 -1.0985  0.4384
  166SOL    HW2  663   0.622   1.056   0.995 -1.2169 -0.9834  1.2149
  166SOL     MW  664   0.536   1.072   0.992 -0.0671 -0.0195  0.2302
  167SOL     OW  665   0.805   1.053   0.250 -0.3592 -0.2821  0.5328
  167SOL    HW1  666   0.712   1.065   0.254  2.3745 -1.4517 -2.1032
  167SOL    HW2  667   0.840   1.128   0.191  1.1367 -2.9735 -0.3300
  167SOL     MW  668   0.797   1.064   0.242  0.1988 -0.7916  0.0712
  168SOL     OW  669   1.648   1.668   2.942 -0.2367  0.4194  0.4724
  168SOL    HW1  670   1.555   1.655   2.931 -0.1744 -0.9419 -1.7934
  168SOL    HW2  671   1.697   1.576   2.940  0.5703 -1.5161  1.6012
  168SOL     MW  672   1.642   1.654   2.941 -0.1220 -0.0156  0.3224
  169SOL     OW  673   0.383   0.933   1.355  0.0327 -0.5829  0.7182
  169SOL    HW1  674   0.417   0.879   1.428  1.2364  0.1261 -0.4265
  169SOL    HW2  675   0.446   1.009   1.334 -1.4469  1.8048  0.5805
  169SOL     MW  676   0.396   0.936   1.362 -0.0037 -0.1743  0.5490
  170SOL     OW  677   0.972   1.463   1.488 -0.6282  0.6273  0.5731
  170SOL    HW1  678   0.952   1.558   1.470  1.6115  1.3753  0.0410
  170SOL    HW2  679   1.032   1.441   1.411  2.7389 -0.7113 -2.5088
  170SOL     MW  680   0.977   1.472   1.475  0.1116  0.5494  0.0963
  171SOL     OW  681   0.581   1.426   0.670 -0.3168 -0.3830  0.7133
  171SOL    HW1  682   0.543   1.393   0.757 -0.9121  1.1204 -0.4539
  171SOL    HW2  683   0.541   1.366   0.607  0.9178  0.3149  0.3399
  171SOL     MW  684   0.570   1.414   0.673 -0.2325 -0.0925  0.5100
  172SOL     OW  685   0.839   0.296   1.300  0.6483 -0.3684  0.3033
  172SOL    HW1  686   0.840   0.311   1.205 -1.3192 -0.8554 -1.1009
  172SOL    HW2  687   0.747   0.324   1.320 -0.9615 -0.0460 -1.7594
  172SOL     MW  688   0.827   0.302   1.290  0.1763 -0.3901 -0.1541
  173SOL     OW  689   0.446   1.665   0.374 -0.2751  0.3308  0.1262
  173SOL    HW1  690   0.458   1.565   0.366 -0.6877  1.7164 -1.5665
  173SOL    HW2  691   0.479   1.692   0.462  3.1001  1.0515 -1.3313
  173SOL     MW  692   0.452   1.655   0.384  0.1158  0.6087 -0.2894
  174SOL     OW  693   1.887   0.993   1.517 -0.6063  0.3135  0.7657
  174SOL    HW1  694   1.845   0.912   1.532 -0.7721 -0.5037 -2.2733
  174SOL    HW2  695   1.852   1.006   1.427  0.3281 -0.1832  2.9125
  174SOL     MW  696   1.877   0.984   1.507 -0.5049  0.1401  0.6480
  175SOL     OW  697   0.476   1.391   0.362  0.0886  0.5380  0.7544
  175SOL    HW1  698   0.465   1.367   0.271  0.1332 -0.7349 -1.5752
  175SOL    HW2  699   0.577   1.411   0.369  0.5610  0.3004 -0.7295
  175SOL     MW  700   0.488   1.391   0.351  0.1568  0.3387  0.2513
  176SOL     OW  701   0.196   1.359   1.226 -0.1256  0.0996  0.0153
  176SOL    HW1  702   0.145   1.339   1.150 -0.7240 -1.4311  2.0392
  176SOL    HW2  703   0.176   1.305   1.302 -1.5628  1.0944 -2.6451
  176SOL     MW  704   0.187   1.349   1.226 -0.3942  0.0289 -0.0687
  177SOL     OW  705   0.577   0.362   1.338 -0.2783  0.6963  0.3327
  177SOL    HW1  706   0.555   0.429   1.262 -0.5773  0.5373 -1.4232
  177SOL    HW2  707   0.564   0.407   1.423 -0.6184 -0.1463 -0.7421
  177SOL     MW  708   0.572   0.376   1.340 -0.3626  0.5642 -0.0408
  178SOL     OW  709   3.095   0.409   2.909  0.6577  0.3702  0.5146
  178SOL    HW1  710   3.046   0.426   2.989  2.9220 -1.5950  1.1522
  178SOL    HW2  711   3.030   0.440   2.845  1.6763 -0.3800 -0.0582
  178SOL     MW  712   3.080   0.415   2.911  1.0909  0.0120  0.5232
  179SOL     OW  713   1.583   1.344   1.407  0.0330 -0.0058 -0.1747
  179SOL    HW1  714   1.560   1.367   1.497  0.9571  0.5112 -0.2814
  179SOL    HW2  715   1.675   1.360   1.399 -0.2715 -0.7345 -1.3195
  179SOL     MW  716   1.592   1.349   1.418  0.1147 -0.0337 -0.3398
  180SOL     OW  717   3.006   0.198   0.473  0.2749  0.4849  0.3780
  180SOL    HW1  718   2.956   0.201   0.387  3.6419 -3.5432 -0.4333
  180SOL    HW2  719   3.060   0.276   0.466  0.7831 -2.5835 -3.4958
  180SOL     MW  720   3.007   0.209   0.461  0.7862 -0.4514 -0.2402
  181SOL     OW  721   1.150   1.352   3.055 -0.7084  0.2475  0.4877
  181SOL    HW1  722   1.229   1.378   3.108 -0.2210 -0.3401 -1.5289
  181SOL    HW2  723   1.184   1.266   3.023  1.0296  1.8708  1.0354
  181SOL     MW  724   1.165   1.344   3.058 -0.4148  0.3842  0.2939
  182SOL     OW  725   0.531   0.892   1.662  0.0177  0.1470  0.3296
  182SOL    HW1  726   0.445   0.878   1.702 -0.0571  0.7843  1.6589
  182SOL    HW2  727   0.587   0.841   1.719  1.6527 -1.9403 -2.9199
  182SOL     MW  728   0.527   0.883   1.675  0.2236 -0.0444  0.0762
  183SOL     OW  729   1.517   1.550   1.218  0.4831  0.3117 -0.0585
  183SOL    HW1  730   1.422   1.561   1.203  0.0155  1.1346 -1.9528
  183SOL    HW2  731   1.534   1.490   1.299 -0.4729 -0.9050  1.0970
  183SOL     MW  732   1.507   1.544   1.227  0.2953  0.2597 -0.1560
  184SOL     OW  733   0.896   0.617   1.985  0.4648  0.2995  0.1942
  184SOL    HW1  734   0.957   0.603   1.911  0.8574 -0.9654  0.4271
  184SOL    HW2  735   0.847   0.535   2.003 -1.0515 -1.7339 -0.1544
  184SOL     MW  736   0.897   0.605   1.977  0.3165 -0.1357  0.1789
  185SOL     OW  737   1.206   0.984   1.933  0.3802  0.6645 -0.3619
  185SOL    HW1  738   1.184   0.898   1.971  0.5515 -0.2151  1.1096
  185SOL    HW2  739   1.267   1.018   2.005 -1.8479  1.5047  0.8682
  185SOL     MW  740   1.211   0.977   1.948  0.1088  0.6593 -0.0055
  186SOL     OW  741   0.397   1.642   1.447 -0.1738 -0.0733  0.5444
  186SOL    HW1  742   0.406   1.565   1.387  1.1321  1.9486 -1.1592
  186SOL    HW2  743   0.305   1.652   1.460  1.2550 -3.3748  2.9205
  186SOL     MW  744   0.386   1.633   1.441  0.1870 -0.2421  0.6332
  187SOL     OW  745   1.440   0.723   1.433 -0.0159 -0.4948  0.0392
  187SOL    HW1  746   1.430   0.716   1.527 -1.0007 -0.3701 -0.2380
  187SOL    HW2  747   1.351   0.701   1.406  0.8846  1.7542  0.2053
  187SOL     MW  748   1.427   0.719   1.442 -0.0270 -0.1816  0.0245
  188SOL     OW  749   1.943   1.135   0.838  0.5554  0.3192  0.0090
  188SOL    HW1  750   1.931   1.123   0.929  1.5063 -0.6044 -1.3367
  188SOL    HW2  751   2.024   1.089   0.826 -0.4985 -1.8876  0.4270
  188SOL     MW  752   1.952   1.127   0.849  0.5418 -0.0938 -0.1134
  189SOL     OW  753   0.728   0.798   0.798  0.0675 -0.0493 -0.1430
  189SOL    HW1  754   0.650   0.855   0.781 -0.3228 -0.1961  3.1731
  189SOL    HW2  755   0.773   0.848   0.870  0.5614  1.4801  1.9496
  189SOL     MW  756   0.724   0.812   0.805  0.0812  0.1331  0.5706
  190SOL     OW  757   1.863   0.233   2.041  0.1913  0.3248  0.7585
  190SOL    HW1  758   1.859   0.156   2.095  1.9024  0.7976 -1.5144
  190SOL    HW2  759   1.952   0.226   2.000  1.0481  3.7279  0.4331
  190SOL     MW  760   1.874   0.222   2.043  0.5301  0.8362  0.4157
  191SOL     OW  761   1.510   0.941   1.222  0.5391 -0.2653 -0.0517
  191SOL    HW1  762   1.444   0.980   1.281  0.2477 -1.3846  0.2699
  191SOL    HW2  763   1.535   0.859   1.266  1.2084 -0.4412 -0.1282
  191SOL     MW  764   1.504   0.935   1.236  0.5890 -0.4362 -0.0193
  192SOL     OW  765   0.582   2.053   2.813 -0.4998  0.3490 -0.2479
  192SOL    HW1  766   0.548   2.087   2.735 -1.4116 -0.0745 -2.3439
  192SOL    HW2  767   0.592   1.956   2.803  1.1997  0.4004 -0.8375
  192SOL     MW  768   0.579   2.045   2.801 -0.3959  0.2999 -0.6023
  193SOL     OW  769   1.050   1.579   0.767 -0.0587 -0.2173  0.9009
  193SOL    HW1  770   1.045   1.573   0.868  2.9088 -1.4004 -0.3929
  193SOL    HW2  771   0.975   1.525   0.730 -0.3981 -0.3005 -0.2009
  193SOL     MW  772   1.039   1.571   0.775  0.2881 -0.3844  0.5848
  194SOL     OW  773   0.473   1.368   0.914 -0.8003  0.4305 -0.1781
  194SOL    HW1  774   0.466   1.278   0.943  3.6642  1.8946 -0.4402
  194SOL    HW2  775   0.381   1.392   0.898  0.9998  0.6055 -0.8749
  194SOL     MW  776   0.460   1.360   0.916  0.0262  0.6468 -0.3046
  195SOL     OW  777   1.274   1.115   2.990 -0.0996 -0.6070  0.6238
  195SOL    HW1  778   1.321   1.106   3.071 -1.6880 -1.0734 -2.9426
  195SOL    HW2  779   1.181   1.076   2.996 -2.0242 -0.2211 -0.7398
  195SOL     MW  780   1.268   1.109   3.001 -0.5631 -0.6176 -0.0267
  196SOL     OW  781   2.171   1.058   0.629  0.1679 -0.4544  0.0241
  196SOL    HW1  782   2.143   1.034   0.540 -1.8252  2.6778 -0.6213
  196SOL    HW2  783   2.189   1.153   0.622 -2.4460 -0.1353 -1.8142
  196SOL     MW  784   2.169   1.067   0.617 -0.4400  0.0010 -0.3036
  197SOL     OW  785   0.686   1.256   2.030 -0.3379 -0.0632  0.6977
  197SOL    HW1  786   0.692   1.160   2.025  1.1639 -3.3644 -1.2158
  197SOL    HW2  787   0.626   1.282   1.961 -1.7578  0.1959  1.4452
  197SOL     MW  788   0.679   1.247   2.020 -0.3271 -0.4646  0.5439
  198SOL     OW  789   2.977   1.399   1.068  0.1261 -1.0685 -0.1797
  198SOL    HW1  790   2.959   1.491   1.058  2.7961 -1.8487  0.6382
  198SOL    HW2  791   2.893   1.349   1.058 -0.9141 -1.9452  1.3518
  198SOL     MW  792   2.963   1.405   1.066  0.3412 -1.2871  0.1303
  199SOL     OW  793   0.523   1.342   1.819 -0.0411  0.2463  0.3457
  199SOL    HW1  794   0.432   1.313   1.798 -0.5477  2.1202 -0.9071
  199SOL    HW2  795   0.541   1.416   1.757 -0.2096  0.5137  0.9220
  199SOL     MW  796   0.513   1.348   1.808 -0.1301  0.5288  0.2565
  200SOL     OW  797   1.879   3.098   1.342 -0.1730  0.4536  0.0492
  200SOL    HW1  798   1.885   3.092   1.243  0.8946  1.4213 -3.4543
  200SOL    HW2  799   1.792   3.122   1.363  0.2755 -1.9175  2.3981
  200SOL     MW  800   1.868   3.101   1.331  0.0271  0.2685 -0.1031
  201SOL     OW  801   0.963   0.230   0.818 -0.1897 -0.2653 -0.0835
  201SOL    HW1  802   0.938   0.146   0.783  0.0105  0.5322 -0.6754
  201SOL    HW2  803   1.032   0.269   0.752 -0.4149  0.0851  0.0646
  201SOL     MW  804   0.969   0.224   0.805 -0.1930 -0.1139 -0.1421
  202SOL     OW  805   1.524   1.619   0.953 -0.3171 -0.4388 -0.2207
  202SOL    HW1  806   1.525   1.544   0.897 -0.5395 -2.0165  2.5226
  202SOL    HW2  807   1.548   1.587   1.042 -0.0202 -1.7033  0.0496
  202SOL     MW  808   1.527   1.605   0.957 -0.3073 -0.8138  0.1769
  203SOL     OW  809   3.088   0.462   1.164 -0.0496 -0.4403  0.0123
  203SOL    HW1  810   3.160   0.422   1.115  0.1203  3.9081  0.9272
  203SOL    HW2  811   3.136   0.495   1.243 -0.2076 -1.0068 -0.2314
  203SOL     MW  812   3.104   0.461   1.168 -0.0481  0.0587  0.1009
  204SOL     OW  813   1.046   1.803   0.584 -0.1634  0.2867  0.0873
  204SOL    HW1  814   1.037   1.755   0.670 -2.0132 -3.1571  1.0691
  204SOL    HW2  815   0.964   1.793   0.529 -0.5233 -0.7477 -0.6650
  204SOL     MW  816   1.034   1.795   0.588 -0.4549 -0.3042  0.1176
  205SOL     OW  817   1.343   0.110   1.345 -0.1827  0.0769 -0.0114
  205SOL    HW1  818   1.300   0.080   1.266 -1.6398 -1.9852  2.7677
  205SOL    HW2  819   1.340   0.211   1.342  0.6950 -0.5904 -0.7201
  205SOL     MW  820   1.337   0.119   1.334 -0.2591 -0.2832  0.2617
  206SOL     OW  821   0.424   3.044   1.399  0.2182 -0.5974  0.1797
  206SOL    HW1  822   0.342   3.022   1.358  0.2291 -0.7067 -2.5279
  206SOL    HW2  823   0.490   2.968   1.387 -1.7943  2.4581  0.9309
  206SOL     MW  824   0.422   3.031   1.392 -0.0459 -0.2087 -0.0784
  207SOL     OW  825   0.959   1.509   0.212 -0.6723 -0.3246 -0.0949
  207SOL    HW1  826   0.967   1.605   0.208  1.0442  0.5876 -1.1661
  207SOL    HW2  827   1.044   1.474   0.218 -0.8700 -0.5369  0.1437
  207SOL     MW  828   0.972   1.517   0.212 -0.4720 -0.2322 -0.2047
  208SOL     OW  829   0.686   1.627   1.321  0.4086 -0.0404 -0.3716
  208SOL    HW1  830   0.771   1.648   1.356 -0.6806  0.5429  0.1692
  208SOL    HW2  831   0.687   1.534   1.294  0.5630  0.4407  1.5024
  208SOL     MW  832   0.698   1.617   1.322  0.2852  0.1000 -0.0530
  209SOL     OW  833   1.582   0.524   2.895 -0.0509 -0.4167  0.5789
  209SOL    HW1  834   1.636   0.560   2.964 -1.2063  1.1762 -1.5111
  209SOL    HW2  835   1.626   0.438   2.873  0.4460  3.3274  1.9938
  209SOL     MW  836   1.595   0.517   2.901 -0.1378  0.2874  0.4898
  210SOL     OW  837   1.587   1.386   0.826  0.0569 -0.0281 -0.2551
  210SOL    HW1  838   1.682   1.380   0.806  0.7802 -2.0400 -2.0787
  210SOL    HW2  839   1.543   1.354   0.746 -0.9778 -3.5996 -0.7419
  210SOL     MW  840   1.594   1.381   0.813  0.0158 -0.7647 -0.5600
  211SOL     OW  841   1.642   0.391   0.971 -0.1114 -0.1991 -0.1021
  211SOL    HW1  842   1.590   0.385   0.886  1.2519 -0.2709  0.3248
  211SOL    HW2  843   1.730   0.407   0.946 -1.0365 -3.8595  0.5227
  211SOL     MW  844   1.647   0.392   0.957 -0.0536 -0.6915  0.0366
  212SOL     OW  845   0.201   1.107   0.089 -0.4721 -0.6387 -0.5178
  212SOL    HW1  846   0.137   1.117   0.163 -0.8923  0.1630  0.0404
  212SOL    HW2  847   0.195   1.017   0.054 -0.0743 -0.2913 -1.4480
  212SOL     MW  848   0.192   1.097   0.094 -0.4751 -0.4871 -0.5669
  213SOL     OW  849   0.428   1.696   3.030  0.3416 -0.7120  0.4649
  213SOL    HW1  850   0.471   1.749   3.098  0.3635 -0.0316 -1.6957
  213SOL    HW2  851   0.473   1.730   2.948  1.2234  0.6681 -2.0647
  213SOL     MW  852   0.440   1.707   3.028  0.4608 -0.4401 -0.1539
  214SOL     OW  853   0.602   0.286   2.220 -0.2258 -0.1394  0.1766
  214SOL    HW1  854   0.537   0.358   2.204 -0.5067  3.9390  0.7617
  214SOL    HW2  855   0.679   0.313   2.159  1.9463 -0.8712 -3.4356
  214SOL     MW  856   0.603   0.299   2.210  0.0237  0.3021 -0.2228
  215SOL     OW  857   0.508   0.661   2.670  0.6867  0.6349  0.3921
  215SOL    HW1  858   0.512   0.654   2.576 -3.4915 -0.5379 -0.9411
  215SOL    HW2  859   0.429   0.612   2.691 -1.1640  0.8854 -0.2068
  215SOL     MW  860   0.498   0.654   2.661 -0.1087  0.5132  0.1372
  216SOL     OW  861   2.978   3.075   2.647 -0.9938 -0.2034 -0.1660
  216SOL    HW1  862   2.951   3.050   2.737  1.2989 -1.7489  1.9860
  216SOL    HW2  863   2.947   3.168   2.624 -1.4914  3.6618 -1.4579
  216SOL     MW  864   2.970   3.084   2.656 -0.7570  0.1026 -0.0525
  217SOL     OW  865   0.908   1.220   0.036 -0.0112 -0.2779 -0.1563
  217SOL    HW1  866   0.918   1.135   0.000  1.1082  1.7812 -1.2108
  217SOL    HW2  867   0.978   1.270  -0.002  0.1036  1.5451  1.7359
  217SOL     MW  868   0.919   1.216   0.027  0.1517  0.2343 -0.0458
  218SOL     OW  869   0.902   1.316   2.544  0.4060  0.3582 -0.2758
  218SOL    HW1  870   0.919   1.224   2.567 -1.9727  0.5609  1.4538
  218SOL    HW2  871   0.976   1.372   2.561 -1.9301  0.3976 -0.9897
  218SOL     MW  872   0.914   1.311   2.550 -0.2161  0.3901 -0.1418
  219SOL     OW  873   1.091   0.488   2.598 -0.0342 -0.2915  0.3768
  219SOL    HW1  874   1.160   0.524   2.654  1.6542  0.9612 -2.1114
  219SOL    HW2  875   1.019   0.550   2.618  0.6633  1.0566  2.1445
  219SOL     MW  876   1.091   0.501   2.608  0.2806  0.0517  0.2817
  220SOL     OW  877   1.793   0.451   2.219 -0.4901  0.5180  0.5418
  220SOL    HW1  878   1.710   0.451   2.171  1.9486 -0.1733 -2.4867
  220SOL    HW2  879   1.848   0.398   2.165 -0.5116 -1.0965 -0.3014
  220SOL     MW  880   1.789   0.444   2.206 -0.1712  0.2138  0.0310
  221SOL     OW  881   0.368   1.351   2.901 -0.3235 -0.4749 -0.2546
  221SOL    HW1  882   0.390   1.253   2.880 -0.3415 -2.5365  2.4916
  221SOL    HW2  883   0.412   1.399   2.831 -0.2548  2.1537  1.1361
  221SOL     MW  884   0.377   1.344   2.889 -0.3168 -0.4001  0.2912
  222SOL     OW  885   0.346   0.912   2.668  0.8571  0.3504 -0.2648
  222SOL    HW1  886   0.335   0.942   2.580  1.4235 -0.0516  1.7966
  222SOL    HW2  887   0.381   0.824   2.663  1.5437  2.0274  2.0212
  222SOL     MW  888   0.349   0.904   2.656  1.0224  0.5186  0.3088
  223SOL     OW  889   0.027   2.071   2.620 -0.6903  0.3232 -0.3558
  223SOL    HW1  890   0.051   1.979   2.658 -0.3951  0.4816  2.5665
  223SOL    HW2  891   0.097   2.108   2.565 -0.1633  1.0550  0.8341
  223SOL     MW  892   0.040   2.064   2.618 -0.5818  0.4407  0.1867
  224SOL     OW  893   1.527   0.816   2.616  0.2522 -0.0178 -0.0926
  224SOL    HW1  894   1.519   0.881   2.691  2.2520  2.9607 -0.7863
  224SOL    HW2  895   1.503   0.870   2.544  0.3832  1.1728 -1.5010
  224SOL     MW  896   1.522   0.831   2.617  0.5333  0.5323 -0.3700
  225SOL     OW  897   2.968   1.503   2.311 -0.7221 -0.0041 -0.2341
  225SOL    HW1  898   2.994   1.573   2.251  1.2661 -1.3002 -1.5571
  225SOL    HW2  899   2.901   1.543   2.368  1.3058 -0.3312  0.5781
  225SOL     MW  900   2.963   1.518   2.310 -0.1922 -0.2183 -0.3015
  226SOL     OW  901   0.469   1.422   2.637 -0.2151  0.1679  0.9651
  226SOL    HW1  902   0.555   1.442   2.601  1.9628  0.2114 -0.4548
  226SOL    HW2  903   0.442   1.513   2.642  0.6655 -1.1668 -0.8571
  226SOL     MW  904   0.477   1.437   2.633  0.1884 -0.0025  0.5373
  227SOL     OW  905   0.417   1.087   2.868 -0.2427  0.3148  0.1488
  227SOL    HW1  906   0.514   1.114   2.846  1.0686  0.8055  1.9751
  227SOL    HW2  907   0.392   1.027   2.802 -0.5302 -1.5933  2.6700
  227SOL     MW  908   0.426   1.083   2.856 -0.1076  0.1278  0.7224
  228SOL     OW  909   0.739   0.981   2.048  0.2311 -0.0243 -0.2660
  228SOL    HW1  910   0.828   0.998   2.014 -3.3484 -1.7773  0.2533
  228SOL    HW2  911   0.734   0.916   2.119 -1.4813  0.0373  0.7622
  228SOL     MW  912   0.750   0.975   2.053 -0.4671 -0.2475 -0.0618
  229SOL     OW  913   0.148   0.578   0.030  0.2887  0.5614  0.3847
  229SOL    HW1  914   0.084   0.555  -0.035  0.7933 -3.2092  0.8199
  229SOL    HW2  915   0.151   0.498   0.083 -0.3755 -0.4902 -2.6742
  229SOL     MW  916   0.140   0.564   0.028  0.2676 -0.0748  0.0385
  230SOL     OW  917   1.770   1.383   2.022  0.2581 -0.6157 -0.1638
  230SOL    HW1  918   1.707   1.365   2.091  1.0845  2.1339  0.9766
  230SOL    HW2  919   1.824   1.305   2.014  0.5277 -0.5447 -0.2996
  230SOL     MW  920   1.769   1.370   2.030  0.4027 -0.2436 -0.0313
  231SOL     OW  921   2.766   1.329   2.226  0.3515 -0.2336 -0.3397
  231SOL    HW1  922   2.817   1.404   2.248 -0.1393 -2.0165 -2.2785
  231SOL    HW2  923   2.723   1.356   2.143  1.2058  0.9435 -2.5169
  231SOL     MW  924   2.767   1.342   2.218  0.3995 -0.3135 -0.8827
  232SOL     OW  925   2.240   0.809   2.121 -0.6327  0.0650 -0.5537
  232SOL    HW1  926   2.181   0.855   2.065  2.7452 -0.1843  0.6226
  232SOL    HW2  927   2.213   0.841   2.207 -0.9214 -0.6608 -1.2931
  232SOL     MW  928   2.229   0.819   2.125 -0.2251 -0.0636 -0.4961
  233SOL     OW  929   2.053   0.478   1.952 -0.1266 -0.6970 -0.2444
  233SOL    HW1  930   2.100   0.400   1.921 -0.3410  2.0983 -2.0598
  233SOL    HW2  931   2.073   0.497   2.044 -1.3905 -0.1826 -1.3637
  233SOL     MW  932   2.062   0.470   1.960 -0.3216 -0.2603 -0.6316
  234SOL     OW  933   0.276   1.007   2.413  0.2455  0.1624  0.7859
  234SOL    HW1  934   0.185   1.032   2.388 -2.0102 -0.3095  1.3894
  234SOL    HW2  935   0.333   1.089   2.423 -0.9368  0.1506  2.9364
  234SOL     MW  936   0.272   1.021   2.411 -0.2082  0.0986  1.1493
  235SOL     OW  937   1.151   3.068   2.724  0.0954 -0.4998 -0.2146
  235SOL    HW1  938   1.190   3.002   2.788 -2.1377 -2.3743  3.3122
  235SOL    HW2  939   1.120   3.144   2.779 -1.7997  0.2556 -1.6071
  235SOL     MW  940   1.152   3.069   2.739 -0.4493 -0.6475  0.0670
  236SOL     OW  941   2.947   0.521  -0.001  0.0031  0.2244 -0.2831
  236SOL    HW1  942   2.850   0.501  -0.014 -0.6624 -0.3544  1.6333
  236SOL    HW2  943   2.949   0.611   0.029  0.2956 -0.4459  0.6956
  236SOL     MW  944   2.935   0.530   0.002 -0.0461  0.0596  0.0989
  237SOL     OW  945   1.928   1.044   2.203  0.2028  0.7267  0.6496
  237SOL    HW1  946   1.986   1.063   2.128 -1.8888  1.1296  1.0988
  237SOL    HW2  947   1.873   1.122   2.203  1.4691  0.6939 -1.3870
  237SOL     MW  948   1.929   1.056   2.193  0.0939  0.7755  0.4401
  238SOL     OW  949   1.093   1.782   3.006 -0.1755  0.2249 -0.5479
  238SOL    HW1  950   1.038   1.701   2.989  1.9816 -1.3842  0.4638
  238SOL    HW2  951   1.186   1.761   3.021  0.8047 -0.9915 -0.4844
  238SOL     MW  952   1.098   1.769   3.006  0.2384 -0.1479 -0.4061
  239SOL     OW  953   1.264   1.370   2.364 -0.4589  0.2831 -0.1833
  239SOL    HW1  954   1.198   1.426   2.417 -0.9256  0.8924  1.2013
  239SOL    HW2  955   1.255   1.279   2.409  1.9408 -2.7803  3.2593
  239SOL     MW  956   1.254   1.365   2.377 -0.2038 -0.0407  0.4536
  240SOL     OW  957   0.728   0.802   2.265  0.0788  0.0496 -0.0307
  240SOL    HW1  958   0.716   0.864   2.337  0.9176 -1.2795  0.0166
  240SOL    HW2  959   0.823   0.772   2.265  0.0118  0.3525  0.2915
  240SOL     MW  960   0.739   0.806   2.274  0.1806 -0.0858  0.0181
  241SOL     OW  961   0.655   0.373   0.014 -0.3539  0.8087 -0.6794
  241SOL    HW1  962   0.701   0.452   0.042  0.4088 -1.3195 -0.4279
  241SOL    HW2  963   0.566   0.404  -0.016 -1.6954  1.7534  2.0011
  241SOL     MW  964   0.649   0.388   0.014 -0.4302  0.6526 -0.2925
  242SOL     OW  965   1.483   1.690   2.338 -0.1121 -0.0492  0.7086
  242SOL    HW1  966   1.449   1.784   2.358  1.1231  2.6706  2.0005
  242SOL    HW2  967   1.424   1.652   2.268  0.5718 -0.9603  0.1209
  242SOL     MW  968   1.471   1.697   2.331  0.1411  0.1894  0.8015
  243SOL     OW  969   1.032   0.246   2.440 -0.1823  0.1780  0.3969
  243SOL    HW1  970   1.122   0.232   2.410  1.9069 -1.8770  1.4961
  243SOL    HW2  971   1.049   0.316   2.503  0.7182 -0.7696  1.7474
  243SOL     MW  972   1.046   0.253   2.444  0.2121 -0.2182  0.7201
  244SOL     OW  973   0.245   0.734   2.364 -0.0036  0.0940 -0.7312
  244SOL    HW1  974   0.259   0.829   2.362  0.1170  0.8763  0.3745
  244SOL    HW2  975   0.330   0.700   2.352 -1.0886 -2.3492  1.7582
  244SOL     MW  976   0.258   0.742   2.362 -0.1308 -0.1252 -0.2568
  245SOL     OW  977   1.285   0.240   2.323 -0.3475 -0.0941 -0.2220
  245SOL    HW1  978   1.343   0.168   2.326  1.4079 -0.4025  1.9918
  245SOL    HW2  979   1.330   0.307   2.373  1.5208  0.6658  0.1721
  245SOL     MW  980   1.299   0.240   2.330  0.1306 -0.0346  0.1221
  246SOL     OW  981   1.176   1.237   2.130  0.2133  0.2687  0.2598
  246SOL    HW1  982   1.132   1.160   2.172 -1.8503 -1.4113 -0.3885
  246SOL    HW2  983   1.226   1.275   2.203  0.7817 -2.0395 -1.9845
  246SOL     MW  984   1.177   1.232   2.145  0.0160 -0.2575 -0.1218
  247SOL     OW  985   0.774   0.594   0.120 -0.1683 -0.1482  0.3726
  247SOL    HW1  986   0.747   0.670   0.067 -0.6822 -0.6391  0.0820
  247SOL    HW2  987   0.865   0.584   0.093  1.3953 -1.3554 -0.7347
  247SOL     MW  988   0.782   0.603   0.110 -0.0298 -0.3722  0.1882
  248SOL     OW  989   0.475   1.209   2.428  0.2293 -0.1192 -0.0688
  248SOL    HW1  990   0.473   1.258   2.341 -1.3104  0.2704  1.9514
  248SOL    HW2  991   0.484   1.277   2.494  0.2570  1.3590 -0.6711
  248SOL     MW  992   0.476   1.224   2.425  0.0298  0.1272  0.1183
  249SOL     OW  993   0.136   1.841   2.701  0.2527  0.0292  0.3696
  249SOL    HW1  994   0.075   1.767   2.666  0.9910 -1.0763  0.4827
  249SOL    HW2  995   0.142   1.828   2.800 -0.6314 -0.3022  3.1314
  249SOL     MW  996   0.129   1.830   2.710  0.2335 -0.1604  0.7489
  250SOL     OW  997   2.188   0.858   2.408 -0.4703  0.2173 -0.6071
  250SOL    HW1  998   2.243   0.777   2.424  0.9318 -0.7685 -0.0915
  250SOL    HW2  999   2.203   0.917   2.484  1.5153  1.1226 -0.5841
  250SOL     MW 1000   2.197   0.855   2.420 -0.0233  0.2067 -0.5360
  251SOL     OW 1001   0.155   0.948   2.048 -0.1971 -0.2327 -0.2195
  251SOL    HW1 1002   0.143   0.877   2.105 -3.6581  1.7806  1.9891
  251SOL    HW2 1003   0.198   0.910   1.965 -0.1816 -1.0790 -2.2762
  251SOL     MW 1004   0.160   0.934   2.045 -0.6517 -0.0788 -0.1995
  252SOL     OW 1005   1.690   0.993   2.890  0.6557 -0.1269 -0.3865
  252SOL    HW1 1006   1.697   1.071   2.951 -2.1415  2.1860 -2.0509
  252SOL    HW2 1007   1.741   1.019   2.812  0.9146 -2.5957 -1.7434
  252SOL     MW 1008   1.697   1.006   2.888  0.3208 -0.1475 -0.7852
  253SOL     OW 1009   1.190   1.776   2.559  0.6627 -0.0508  0.0824
  253SOL    HW1 1010   1.189   1.790   2.464  1.4884 -0.6129 -1.7674
  253SOL    HW2 1011   1.114   1.812   2.594  2.1050 -2.2333  1.6942
  253SOL     MW 1012   1.180   1.783   2.551  0.9619 -0.4129  0.0510
  254SOL     OW 1013   1.022   1.040   2.275 -0.3456 -0.1900  0.1650
  254SOL    HW1 1014   0.997   0.950   2.249  1.4451 -0.2334  1.6655
  254SOL    HW2 1015   0.939   1.091   2.270  2.7520 -0.7359 -0.0347
  254SOL     MW 1016   1.007   1.035   2.271  0.2994 -0.2677  0.3366
  255SOL     OW 1017   0.827   2.545   2.208 -0.6891 -0.2799  0.8584
  255SOL    HW1 1018   0.749   2.489   2.220 -1.4318 -1.0407 -0.7818
  255SOL    HW2 1019   0.897   2.514   2.264  2.2592  1.7670  0.8545
  255SOL     MW 1020   0.826   2.533   2.217 -0.3981 -0.1102  0.6415
  256SOL     OW 1021   1.223   2.794   2.829  0.2028 -0.9290  0.2014
  256SOL    HW1 1022   1.232   2.727   2.760  0.2224  2.2318  0.0783
  256SOL    HW2 1023   1.304   2.849   2.834  1.3626 -0.1793 -0.9851
  256SOL     MW 1024   1.235   2.792   2.821  0.3584 -0.4130  0.0286
  257SOL     OW 1025   0.119   1.935   0.100 -0.0368  0.0395 -0.0358
  257SOL    HW1 1026   0.157   1.889   0.174  1.1139  4.3258  0.2598
  257SOL    HW2 1027   0.140   1.886   0.018  0.4153  0.4326 -1.2100
  257SOL     MW 1028   0.127   1.923   0.099  0.1746  0.6569 -0.1517
  258SOL     OW 1029   0.710   1.019   2.465 -0.6807  0.0264  0.2240
  258SOL    HW1 1030   0.738   1.072   2.394  0.0584 -1.1635  2.1901
  258SOL    HW2 1031   0.659   1.074   2.517  4.5386  0.6373  2.0320
  258SOL     MW 1032   0.707   1.033   2.462  0.1055 -0.0500  0.7220
  259SOL     OW 1033   0.748   0.482   2.361  0.5654 -0.3371  0.6116
  259SOL    HW1 1034   0.675   0.543   2.369  1.7810 -1.1626  0.8549
  259SOL    HW2 1035   0.711   0.394   2.354  0.5828  0.6504 -0.1725
  259SOL     MW 1036   0.733   0.478   2.361  0.7281 -0.3158  0.5403
  260SOL     OW 1037   0.552   0.133   1.598 -0.9510 -0.3998  0.4840
  260SOL    HW1 1038   0.491   0.090   1.537 -0.6865  0.5616  0.8034
  260SOL    HW2 1039   0.644   0.118   1.561  0.5107  1.3804 -0.5725
  260SOL     MW 1040   0.556   0.125   1.585 -0.7233 -0.0381  0.3868
  261SOL     OW 1041   1.279   0.730   2.015  0.5919  0.2067  0.1655
  261SOL    HW1 1042   1.309   0.756   2.103 -0.8092  0.5387 -0.6324
  261SOL    HW2 1043   1.314   0.641   1.993  1.4105  1.9313 -0.0072
  261SOL     MW 1044   1.287   0.722   2.024  0.5150  0.4781  0.0374
  262SOL     OW 1045   1.110   0.290   0.149 -0.0453  0.6340 -0.1119
  262SOL    HW1 1046   1.204   0.287   0.132 -0.7725 -0.6597 -0.4142
  262SOL    HW2 1047   1.068   0.237   0.087 -0.8338  2.4105  1.3197
  262SOL     MW 1048   1.117   0.283   0.139 -0.2453  0.6977  0.0371
  263SOL     OW 1049   0.440   3.038   2.541 -0.3130  0.4430 -0.2193
  263SOL    HW1 1050   0.371   3.104   2.529  0.9203 -0.1620 -2.1870
  263SOL    HW2 1051   0.483   3.048   2.456 -0.6527  2.6352  1.0672
  263SOL     MW 1052   0.437   3.048   2.528 -0.1951  0.6524 -0.3092
  264SOL     OW 1053   1.524   1.285   1.943  0.1413 -0.4571  0.1286
  264SOL    HW1 1054   1.478   1.304   2.024 -0.1409 -4.0077 -1.0855
  264SOL    HW2 1055   1.614   1.315   1.959 -1.0812 -0.5480 -0.4114
  264SOL     MW 1056   1.530   1.292   1.956 -0.0572 -0.9376 -0.1028
  265SOL     OW 1057   0.672   2.791   2.262 -0.5348  0.4948  0.6108
  265SOL    HW1 1058   0.721   2.715   2.226  1.5337 -1.1966  0.6199
  265SOL    HW2 1059   0.695   2.795   2.357  0.3052  1.2144 -3.0150
  265SOL     MW 1060   0.682   2.781   2.270 -0.1510  0.3666  0.1336
  266SOL     OW 1061   1.017   0.757   2.210  0.3603 -0.8429  0.1647
  266SOL    HW1 1062   0.988   0.678   2.160 -0.2812 -1.0012  1.3122
  266SOL    HW2 1063   1.111   0.765   2.214  1.3032  0.9191  0.9348
  266SOL     MW 1064   1.026   0.748   2.204  0.4000 -0.6313  0.4177
  267SOL     OW 1065   1.371   1.672   2.735 -0.2465  0.6356  0.6330
  267SOL    HW1 1066   1.453   1.651   2.686 -1.1830 -0.4330  0.7689
  267SOL    HW2 1067   1.303   1.702   2.668  1.1793 -0.6098 -1.4796
  267SOL     MW 1068   1.373   1.673   2.720 -0.1819  0.3303  0.3722
  268SOL     OW 1069   0.277   0.828   1.759  0.3185  0.0523 -0.3009
  268SOL    HW1 1070   0.222   0.874   1.690 -0.5971  1.9165 -0.3454
  268SOL    HW2 1071   0.265   0.735   1.733 -1.6623 -0.2570 -1.0117
  268SOL     MW 1072   0.268   0.821   1.746 -0.0637  0.2575 -0.4006
  269SOL     OW 1073   1.403   1.940   2.359  0.0572  0.4367 -0.1960
  269SOL    HW1 1074   1.461   2.014   2.337  1.5240  0.5683  0.4630
  269SOL    HW2 1075   1.353   1.967   2.433 -1.5416 -3.0795  2.9353
  269SOL     MW 1076   1.404   1.954   2.366  0.0398 -0.0098  0.3041
  270SOL     OW 1077   1.188   0.377   1.591  0.0600 -0.3051 -0.2779
  270SOL    HW1 1078   1.129   0.302   1.612 -0.9813  1.5930  1.4487
  270SOL    HW2 1079   1.272   0.336   1.606 -1.3237  1.1915 -1.2764
  270SOL     MW 1080   1.191   0.362   1.596 -0.2600  0.1428 -0.1818
  271SOL     OW 1081   0.897  -0.000   2.494  0.0743  0.4191  0.2045
  271SOL    HW1 1082   0.949  -0.038   2.565 -2.8371  1.4636  0.0158
  271SOL    HW2 1083   0.932   0.090   2.469  0.3391 -3.6095 -2.4898
  271SOL     MW 1084   0.908   0.006   2.500 -0.2749  0.0254 -0.1759
  272SOL     OW 1085   1.464   2.885   2.787 -0.0639  0.4722  0.0286
  272SOL    HW1 1086   1.465   2.935   2.706  1.1403 -0.6851  1.6083
  272SOL    HW2 1087   1.508   2.947   2.846 -0.0088 -1.9749 -2.7171
  272SOL     MW 1088   1.470   2.900   2.784  0.1022 -0.0034 -0.1253
  273SOL     OW 1089   1.442   0.907   2.855  0.1483  0.6781 -0.6526
  273SOL    HW1 1090   1.532   0.931   2.878 -2.7950  0.8354  1.5443
  273SOL    HW2 1091   1.385   0.982   2.877 -2.2195  0.0479  2.2863
  273SOL     MW 1092   1.446   0.920   2.861 -0.5524  0.6157  0.0250
  274SOL     OW 1093   1.431   0.752   0.199  0.7017 -0.3559 -0.3952
  274SOL    HW1 1094   1.464   0.666   0.215  0.2203  2.3658  1.1000
  274SOL    HW2 1095   1.333   0.744   0.220 -1.0885 -0.4151 -2.1002
  274SOL     MW 1096   1.422   0.740   0.204  0.4020 -0.0046 -0.4229
  275SOL     OW 1097   1.693   0.631   1.803  0.2120 -0.3946  0.7352
  275SOL    HW1 1098   1.756   0.684   1.851  1.3283  2.7214  0.6854
  275SOL    HW2 1099   1.726   0.538   1.807  0.4903 -0.9513  2.1637
  275SOL     MW 1100   1.706   0.626   1.810  0.3960 -0.0569  0.9171
  276SOL     OW 1101   0.287   1.225   1.812 -0.1027 -0.3419  0.4814
  276SOL    HW1 1102   0.342   1.168   1.868 -0.5553  0.8244  0.6495
  276SOL    HW2 1103   0.203   1.234   1.848  1.0224 -1.7143 -1.8741
  276SOL     MW 1104   0.283   1.219   1.824 -0.0140 -0.3691  0.1928
  277SOL     OW 1105   1.870   1.280   2.471 -0.2567  0.1034 -0.7604
  277SOL    HW1 1106   1.936   1.356   2.481 -0.0279 -0.2697 -0.2454
  277SOL    HW2 1107   1.902   1.218   2.537  0.4796 -1.7269 -1.3598
  277SOL     MW 1108   1.883   1.282   2.481 -0.1293 -0.1873 -0.7715
  278SOL     OW 1109   1.440   0.621   1.700  0.2079 -0.3599 -0.2002
  278SOL    HW1 1110   1.395   0.578   1.776 -1.5533  0.3618  0.7992
  278SOL    HW2 1111   1.520   0.653   1.735 -0.7156 -0.3103  0.1360
  278SOL     MW 1112   1.445   0.620   1.715 -0.1463 -0.2581 -0.0240
  279SOL     OW 1113   0.529   0.036   2.258  0.1751 -0.2231  0.3229
  279SOL    HW1 1114   0.598  -0.016   2.218  1.6020 -0.0603 -0.7731
  279SOL    HW2 1115   0.564   0.127   2.250 -2.0664  2.3711 -2.3265
  279SOL     MW 1116   0.543   0.041   2.252  0.0676  0.1406 -0.1712
  280SOL     OW 1117   1.490   1.065   2.169 -0.4381 -0.5187  0.0079
  280SOL    HW1 1118   1.542   0.993   2.136  0.3421 -0.2874 -0.4922
  280SOL    HW2 1119   1.477   1.053   2.267 -1.0838 -0.8665  0.4134
  280SOL     MW 1120   1.495   1.054   2.178 -0.4203 -0.5341 -0.0046
  281SOL     OW 1121   1.286   1.283   2.723 -0.1946  0.3186 -0.1596
  281SOL    HW1 1122   1.368   1.322   2.757 -3.0561 -0.1353 -2.1329
  281SOL    HW2 1123   1.256   1.227   2.790  0.6434  0.2033 -0.9340
  281SOL     MW 1124   1.293   1.281   2.736 -0.4616  0.2435 -0.5222
  282SOL     OW 1125   1.140   1.286   1.655  0.4579 -0.2390 -0.3885
  282SOL    HW1 1126   1.065   1.339   1.641  2.0316 -3.0451  1.6844
  282SOL    HW2 1127   1.135   1.267   1.751 -0.5478  0.8692  0.2801
  282SOL     MW 1128   1.129   1.291   1.666  0.5328 -0.4630 -0.0268
  283SOL     OW 1129   0.668   1.289   3.038  0.9627 -0.2528 -0.5566
  283SOL    HW1 1130   0.761   1.279   3.068  1.4295  1.8086 -0.0669
  283SOL    HW2 1131   0.656   1.391   3.049  2.1084  2.8939 -2.1954
  283SOL     MW 1132   0.679   1.301   3.044  1.1754  0.4343 -0.7082
  284SOL     OW 1133   0.534   0.660   2.376 -0.6682 -0.4418  0.4561
  284SOL    HW1 1134   0.600   0.716   2.330  1.5949  0.4665  1.3212
  284SOL    HW2 1135   0.506   0.606   2.296 -0.4030 -0.9711 -2.0851
  284SOL     MW 1136   0.539   0.660   2.359 -0.3346 -0.3918  0.2350
  285SOL     OW 1137   0.849   0.934   2.828 -0.2725 -0.3826 -0.4551
  285SOL    HW1 1138   0.907   0.960   2.750  0.4114 -0.4985 -0.9542
  285SOL    HW2 1139   0.816   0.850   2.799  0.3806 -0.1367 -0.5166
  285SOL     MW 1140   0.852   0.926   2.814 -0.0961 -0.3655 -0.5291
  286SOL     OW 1141   1.145   1.493   2.575  1.1834  0.0357 -0.1783
  286SOL    HW1 1142   1.208   1.464   2.644 -1.5643  0.1715  1.3325
  286SOL    HW2 1143   1.152   1.587   2.569 -0.0306  0.0578 -2.2151
  286SOL     MW 1144   1.154   1.501   2.583  0.6607  0.0565 -0.2477
  287SOL     OW 1145   1.060   0.949   0.282  0.2739  0.1267 -0.0218
  287SOL    HW1 1146   1.082   0.991   0.367  0.9815 -1.8959 -0.7961
  287SOL    HW2 1147   0.967   0.963   0.271  1.2807 -1.7785 -1.3964
  287SOL     MW 1148   1.051   0.956   0.292  0.5001 -0.3916 -0.3053
  288SOL     OW 1149   1.590   0.628   2.117 -0.6425 -0.3969  0.1803
  288SOL    HW1 1150   1.581   0.655   2.208  0.0854 -1.5567 -0.0561
  288SOL    HW2 1151   1.616   0.710   2.070  1.8803 -1.0644 -2.6743
  288SOL     MW 1152   1.592   0.642   2.122 -0.2136 -0.6380 -0.2275
  289SOL     OW 1153   0.941   1.019   2.585 -0.3849  0.1636 -0.3152
  289SOL    HW1 1154   1.010   0.979   2.525 -1.8225  0.3338 -0.8097
  289SOL    HW2 1155   0.852   0.995   2.550 -2.5978 -0.6598  0.8519
  289SOL     MW 1156   0.938   1.011   2.573 -0.8665  0.0774 -0.2265
  290SOL     OW 1157   0.896   0.556   1.574  0.5226  0.3853 -0.0930
  290SOL    HW1 1158   0.944   0.548   1.491  0.6106  1.0821 -1.5056
  290SOL    HW2 1159   0.966   0.555   1.641  2.4422  0.4251  0.4909
  290SOL     MW 1160   0.912   0.555   1.572  0.7875  0.4824 -0.2023
  291SOL     OW 1161   0.170   0.337   0.145  0.5544 -0.4465 -0.1379
  291SOL    HW1 1162   0.247   0.288   0.173 -1.7509 -0.0770  0.2971
  291SOL    HW2 1163   0.137   0.294   0.061  1.7912 -0.8024  3.3409
  291SOL     MW 1164   0.176   0.325   0.138  0.4134 -0.4447  0.3785
  292SOL     OW 1165   1.049   0.551   0.093  0.0248 -0.1959  0.2455
  292SOL    HW1 1166   1.081   0.621   0.157 -0.1612  1.2261 -0.4535
  292SOL    HW2 1167   1.065   0.458   0.121 -1.0120  1.9609  0.1301
  292SOL     MW 1168   1.055   0.548   0.105 -0.1365  0.2763  0.1380
  293SOL     OW 1169   0.243   0.146   2.434 -0.1464  0.0200  0.1192
  293SOL    HW1 1170   0.158   0.099   2.417 -0.7984  0.2436 -0.5255
  293SOL    HW2 1171   0.226   0.205   2.505  3.1604  0.2208  1.2122
  293SOL     MW 1172   0.230   0.147   2.441  0.2039  0.0760  0.1783
  294SOL     OW 1173   1.499   0.619   2.397 -0.0520  0.1061  0.0160
  294SOL    HW1 1174   1.535   0.662   2.474  2.5896  0.2128 -0.5771
  294SOL    HW2 1175   1.497   0.529   2.421 -1.2996  4.3147 -2.4480
  294SOL     MW 1176   1.503   0.613   2.411  0.1319  0.6755 -0.3874
  295SOL     OW 1177   0.898   0.664   2.507 -0.2240 -0.3021 -0.6995
  295SOL    HW1 1178   0.871   0.595   2.447  0.1463  1.1659  4.8039
  295SOL    HW2 1179   0.822   0.688   2.563  2.2006 -0.6324  0.6028
  295SOL     MW 1180   0.884   0.658   2.506  0.1447 -0.1520  0.1984
  296SOL     OW 1181   1.261   0.281   2.057 -0.1186 -0.4838 -0.2010
  296SOL    HW1 1182   1.328   0.214   2.026  0.5357 -1.5622  0.4763
  296SOL    HW2 1183   1.274   0.268   2.153 -0.1974  0.8839 -0.6875
  296SOL     MW 1184   1.272   0.271   2.066 -0.0427 -0.4456 -0.1759
  297SOL     OW 1185   1.470   0.347   1.593 -0.4485 -0.3668  0.1838
  297SOL    HW1 1186   1.480   0.412   1.665  1.7551  3.2204 -1.6877
  297SOL    HW2 1187   1.517   0.271   1.631 -0.1134 -0.3987 -1.8693
  297SOL     MW 1188   1.478   0.345   1.608 -0.1136  0.1023 -0.3340
  298SOL     OW 1189   1.653   0.877   2.001 -0.0529 -0.4129 -0.4340
  298SOL    HW1 1190   1.628   0.937   1.926  0.5551  1.7499 -0.2426
  298SOL    HW2 1191   1.747   0.891   2.009  0.0288 -0.0711 -2.3390
  298SOL     MW 1192   1.662   0.886   1.992  0.0381 -0.0825 -0.6601
  299SOL     OW 1193   0.566   1.056   0.006 -0.3884 -0.0325  0.2743
  299SOL    HW1 1194   0.596   1.142  -0.026 -1.2492 -0.7050  1.9104
  299SOL    HW2 1195   0.505   1.041  -0.066  2.0322 -0.2878 -2.8239
  299SOL     MW 1196   0.562   1.065  -0.008 -0.1826 -0.1549  0.0814
  300SOL     OW 1197   1.191   1.153   2.507  0.2748 -0.0171  0.3823
  300SOL    HW1 1198   1.103   1.118   2.535  1.5193  0.1145 -1.5737
  300SOL    HW2 1199   1.237   1.207   2.574  1.7690 -0.3966 -2.8288
  300SOL     MW 1200   1.185   1.155   2.519  0.6361 -0.0498 -0.2995
  301SOL     OW 1201   1.382   0.910   0.682 -0.0892  0.0756  0.6616
  301SOL    HW1 1202   1.421   0.939   0.770 -1.5928  1.0374  1.0781
  301SOL    HW2 1203   1.289   0.887   0.708 -0.9459  0.6602 -0.3534
  301SOL     MW 1204   1.375   0.911   0.697 -0.4007  0.2797  0.5826
  302SOL     OW 1205   0.104   1.496   2.035  0.6600 -0.2092  0.2069
  302SOL    HW1 1206   0.111   1.431   2.109  0.8758  0.0182 -2.5056
  302SOL    HW2 1207   0.047   1.571   2.065 -0.1485 -0.8979 -0.3143
  302SOL     MW 1208   0.098   1.498   2.049  0.5818 -0.2700 -0.2198
  303SOL     OW 1209   0.388   1.692   2.624  0.3809 -0.0164  0.5744
  303SOL    HW1 1210   0.347   1.651   2.546 -1.3002  0.9913  1.0268
  303SOL    HW2 1211   0.325   1.743   2.679  2.3510  2.4776 -0.5947
  303SOL     MW 1212   0.375   1.693   2.621  0.4190  0.4456  0.4798
  304SOL     OW 1213   0.642   2.058   2.357 -0.4064 -0.3979 -0.2260
  304SOL    HW1 1214   0.696   2.118   2.310 -2.2832  0.5647 -0.8720
  304SOL    HW2 1215   0.709   1.993   2.379  0.7564 -0.7490  0.1443
  304SOL     MW 1216   0.658   2.057   2.353 -0.5006 -0.3172 -0.2624
  305SOL     OW 1217   1.096   0.573   0.529  0.1674 -0.3427 -0.4026
  305SOL    HW1 1218   1.003   0.587   0.507  2.1107  0.8390  1.8770
  305SOL    HW2 1219   1.106   0.479   0.558 -2.1096  0.9761  0.8615
  305SOL     MW 1220   1.085   0.563   0.530  0.1234 -0.0128  0.0649
  306SOL     OW 1221   1.229   1.481   0.268  0.6841 -0.0807 -0.1318
  306SOL    HW1 1222   1.253   1.397   0.297 -0.7891 -0.4948 -1.0753
  306SOL    HW2 1223   1.295   1.505   0.201 -0.7449 -1.7733  3.4168
  306SOL     MW 1224   1.241   1.473   0.263  0.3012 -0.3586  0.2119
  307SOL     OW 1225   1.392   0.486   1.940  0.1903  0.4803 -0.1479
  307SOL    HW1 1226   1.324   0.428   1.980 -1.7019 -2.1888  0.0311
  307SOL    HW2 1227   1.475   0.498   1.994  2.9697 -0.1636  2.8281
  307SOL     MW 1228   1.394   0.480   1.953  0.3074  0.0432  0.2684
  308SOL     OW 1229   2.137   0.598   2.693 -0.4852  0.2380  0.0125
  308SOL    HW1 1230   2.226   0.571   2.734  1.6149 -1.2683  1.0449
  308SOL    HW2 1231   2.124   0.686   2.726 -2.0174 -2.8881 -0.3302
  308SOL     MW 1232   2.147   0.606   2.703 -0.4103 -0.3732  0.1035
  309SOL     OW 1233   0.396   0.377   0.410 -0.2014 -0.0376 -0.0407
  309SOL    HW1 1234   0.483   0.362   0.449  0.0680 -1.6679 -0.2845
  309SOL    HW2 1235   0.408   0.333   0.327 -0.4337 -0.4498  1.2472
  309SOL     MW 1236   0.409   0.369   0.404 -0.1965 -0.3071  0.0971
  310SOL     OW 1237   0.483   0.592   1.918 -0.2228 -0.0217  0.3980
  310SOL    HW1 1238   0.529   0.508   1.890  0.6772  2.4017 -3.0201
  310SOL    HW2 1239   0.559   0.655   1.914  0.8465  1.8881 -0.5591
  310SOL     MW 1240   0.499   0.589   1.914  0.0371  0.5500 -0.1793
  311SOL     OW 1241   1.906   0.729   1.972  0.5406 -0.4749 -0.1642
  311SOL    HW1 1242   1.890   0.721   2.065  0.9567  0.0097 -0.3781
  311SOL    HW2 1243   1.959   0.648   1.942  2.2745  0.0033 -0.8648
  311SOL     MW 1244   1.911   0.717   1.980  0.8243 -0.3479 -0.2848
  312SOL     OW 1245   1.670   2.503   0.114  0.0060 -0.4063 -0.4480
  312SOL    HW1 1246   1.707   2.534   0.197 -1.0332  2.1304  0.7506
  312SOL    HW2 1247   1.596   2.559   0.107  0.0848  1.0738  1.8359
  312SOL     MW 1248   1.665   2.515   0.124 -0.1207  0.1237  0.0115
  313SOL     OW 1249   0.096   1.218   2.974  0.0712 -0.1675  0.1279
  313SOL    HW1 1250   0.123   1.160   3.047  3.2688 -0.7108 -1.3707
  313SOL    HW2 1251   0.168   1.274   2.967  2.1228  0.2619  0.1635
  313SOL     MW 1252   0.109   1.218   2.982  0.7638 -0.1825 -0.0651
  314SOL     OW 1253   2.114   2.969   3.007 -0.3459  0.2008 -0.3473
  314SOL    HW1 1254   2.084   3.011   2.926  0.7012  1.8320 -0.1757
  314SOL    HW2 1255   2.154   3.036   3.058 -1.1470 -1.8972  2.2179
  314SOL     MW 1256   2.115   2.983   3.003 -0.3135  0.1392  0.0138
  315SOL     OW 1257   1.517   1.907   0.048  0.0214  0.5082 -0.2315
  315SOL    HW1 1258   1.439   1.969   0.068 -1.4958 -0.2985 -0.8407
  315SOL    HW2 1259   1.552   1.945  -0.035 -0.0080  1.3452 -0.2312
  315SOL     MW 1260   1.511   1.920   0.040 -0.1827  0.5122 -0.3118
  316SOL     OW 1261   1.305   0.663   2.696  0.4645  0.1382  0.4711
  316SOL    HW1 1262   1.393   0.695   2.673  0.3090 -0.3791 -0.2186
  316SOL    HW2 1263   1.281   0.702   2.782 -4.4400  0.2006  1.9474
  316SOL     MW 1264   1.313   0.673   2.704 -0.2031  0.0782  0.5749
  317SOL     OW 1265   0.704   1.504   2.548  0.5598  0.3395  0.5286
  317SOL    HW1 1266   0.770   1.433   2.554 -1.2824 -1.9621 -0.0561
  317SOL    HW2 1267   0.726   1.544   2.459  0.3453 -0.5800 -1.1785
  317SOL     MW 1268   0.716   1.500   2.537  0.2884 -0.0855  0.2262
  318SOL     OW 1269   1.338   0.397   2.933 -0.0434 -0.6223 -0.1197
  318SOL    HW1 1270   1.259   0.455   2.925 -2.6269  2.4921 -2.0857
  318SOL    HW2 1271   1.413   0.458   2.924 -0.5629  1.9322 -0.1135
  318SOL     MW 1272   1.337   0.413   2.931 -0.4528  0.1256 -0.3783
  319SOL     OW 1273   0.765   0.413   2.865 -0.0212 -0.6784  0.2742
  319SOL    HW1 1274   0.727   0.352   2.803 -0.9465 -0.3470 -0.3678
  319SOL    HW2 1275   0.722   0.388   2.951 -1.6044 -1.4125 -0.6599
  319SOL     MW 1276   0.755   0.402   2.869 -0.3521 -0.7316  0.0663
  320SOL     OW 1277   1.058   1.330   1.927  0.3506  0.2941  0.0930
  320SOL    HW1 1278   1.100   1.297   2.014  0.4773 -1.1542 -0.6143
  320SOL    HW2 1279   1.099   1.419   1.912  2.6604  0.6290 -1.8066
  320SOL     MW 1280   1.069   1.337   1.936  0.6721  0.1472 -0.2509
  321SOL     OW 1281   1.048   0.993   3.036  0.4513 -0.1695 -0.2411
  321SOL    HW1 1282   0.980   0.963   2.973 -1.4504 -0.0095 -0.5710
  321SOL    HW2 1283   1.087   0.925   3.091  1.3553 -0.3767  0.0681
  321SOL     MW 1284   1.044   0.980   3.035  0.3196 -0.1757 -0.2438
  322SOL     OW 1285   1.219   0.797   1.711  0.6542  0.5250 -0.1793
  322SOL    HW1 1286   1.299   0.745   1.722  2.8440 -1.1133 -2.6360
  322SOL    HW2 1287   1.209   0.856   1.785  4.3612  0.2937  0.6281
  322SOL     MW 1288   1.228   0.797   1.722  1.4322  0.2783 -0.3969
  323SOL     OW 1289   1.208   1.541   1.888 -0.1256 -0.0265 -0.1402
  323SOL    HW1 1290   1.253   1.520   1.805  0.1677  0.9860  2.1024
  323SOL    HW2 1291   1.144   1.612   1.867 -1.4708 -1.9112  2.6634
  323SOL     MW 1292   1.206   1.547   1.874 -0.2644 -0.1416  0.5256
  324SOL     OW 1293   1.473   1.011   2.429  0.0933  0.4701 -0.2960
  324SOL    HW1 1294   1.376   1.032   2.458  2.6456 -1.3299  2.0737
  324SOL    HW2 1295   1.520   1.092   2.451 -3.1819 -0.6501  0.3788
  324SOL     MW 1296   1.467   1.025   2.436 -0.0021  0.0848  0.1057
  325SOL     OW 1297   1.092   0.509   2.904  0.2750 -0.3705  0.4646
  325SOL    HW1 1298   1.056   0.529   2.991 -1.4257 -1.2712 -0.5566
  325SOL    HW2 1299   1.023   0.513   2.842 -2.2441 -0.0218 -0.3315
  325SOL     MW 1300   1.078   0.512   2.907 -0.2817 -0.4434  0.2248
  326SOL     OW 1301   0.476   1.339   2.209 -0.2267 -0.2731 -0.8092
  326SOL    HW1 1302   0.548   1.315   2.148  0.3733 -2.4306 -2.1822
  326SOL    HW2 1303   0.457   1.435   2.205  1.3817 -1.5521 -1.0008
  326SOL     MW 1304   0.483   1.348   2.200  0.0646 -0.7265 -1.0157
  327SOL     OW 1305   1.900   0.861   2.452  0.2723 -0.4731 -0.1016
  327SOL    HW1 1306   1.888   0.783   2.517  0.4419 -0.5685  1.1652
  327SOL    HW2 1307   1.997   0.861   2.425  0.5630 -1.1383 -0.9732
  327SOL     MW 1308   1.911   0.850   2.457  0.3330 -0.5734 -0.0494
  328SOL     OW 1309   0.198   1.274   2.209  0.3269  0.0061 -0.4558
  328SOL    HW1 1310   0.159   1.220   2.141 -0.5123  0.8973  2.3357
  328SOL    HW2 1311   0.291   1.274   2.188  1.8602 -1.4171 -2.9277
  328SOL     MW 1312   0.205   1.267   2.197  0.4185 -0.0641 -0.4136
  329SOL     OW 1313   0.126   0.073   1.387 -0.4404 -0.9760 -0.1822
  329SOL    HW1 1314   0.109   0.108   1.474 -1.3070  0.4343  0.5255
  329SOL    HW2 1315   0.176   0.146   1.352  0.7864  1.9726 -2.7839
  329SOL     MW 1316   0.130   0.087   1.394 -0.3929 -0.4009 -0.4321
  330SOL     OW 1317   0.305   3.093   2.078  0.0177  0.2607 -0.0030
  330SOL    HW1 1318   0.375   3.118   2.141  0.2174  0.1882  0.4592
  330SOL    HW2 1319   0.250   3.036   2.127 -3.8178 -1.5078 -2.0721
  330SOL     MW 1320   0.307   3.089   2.093 -0.4620  0.0178 -0.2150
  331SOL     OW 1321   0.813   1.203   2.280  0.6769 -0.0974 -0.2534
  331SOL    HW1 1322   0.770   1.232   2.201  1.5412  0.6682  1.3440
  331SOL    HW2 1323   0.818   1.276   2.343  3.7271  1.7922 -0.4754
  331SOL     MW 1324   0.808   1.216   2.278  1.1934  0.2529 -0.0719
  332SOL     OW 1325   1.360   1.690   3.005  0.3391  0.1638  0.1892
  332SOL    HW1 1326   1.358   1.693   2.904  0.7637  0.7652  3.0086
  332SOL    HW2 1327   1.405   1.769   3.033  1.2289  1.5276  1.2353
  332SOL     MW 1328   1.365   1.701   2.995  0.5125  0.4231  0.6992
  333SOL     OW 1329   1.797   1.448   2.967 -0.3423 -0.5779 -0.0644
  333SOL    HW1 1330   1.893   1.463   2.997  1.7925 -0.1650 -1.6155
  333SOL    HW2 1331   1.750   1.411   3.041 -2.0780  0.8420 -3.1374
  333SOL     MW 1332   1.804   1.445   2.980 -0.2897 -0.3361 -0.6745
  334SOL     OW 1333   1.395   3.082   2.573  0.7253  0.1977 -0.4396
  334SOL    HW1 1334   1.307   3.100   2.608  0.6480 -0.6047  0.5113
  334SOL    HW2 1335   1.444   3.164   2.589 -0.8919  0.6214  0.8069
  334SOL     MW 1336   1.390   3.095   2.580  0.5017  0.1477 -0.1497
  335SOL     OW 1337   1.257   0.772   3.015  0.5458 -0.2553 -0.2427
  335SOL    HW1 1338   1.280   0.723   3.093 -2.6700 -1.7204 -1.0070
  335SOL    HW2 1339   1.337   0.805   2.975 -2.2366  0.9625  0.5814
  335SOL     MW 1340   1.271   0.770   3.020 -0.2456 -0.2880 -0.2348
  336SOL     OW 1341   0.943   1.076   1.911  0.4385 -0.4105  0.6449
  336SOL    HW1 1342   0.953   1.170   1.922 -0.9634  0.1072 -0.3601
  336SOL    HW2 1343   1.028   1.043   1.891 -0.5055 -1.1760 -1.0275
  336SOL     MW 1344   0.955   1.084   1.910  0.1290 -0.4432  0.2917
  337SOL     OW 1345   0.623   1.778   2.814 -0.0282  0.0357 -0.7036
  337SOL    HW1 1346   0.565   1.763   2.740 -0.6442  1.3465  1.0342
  337SOL    HW2 1347   0.704   1.723   2.795  2.8489 -0.3300  1.5009
  337SOL     MW 1348   0.626   1.769   2.802  0.2701  0.1604 -0.1835
  338SOL     OW 1349   1.140   0.836   2.521 -0.0692 -0.6050 -0.4985
  338SOL    HW1 1350   1.070   0.767   2.515  0.3069 -0.4026  0.6635
  338SOL    HW2 1351   1.207   0.798   2.580  1.8437 -0.9950  0.0738
  338SOL     MW 1352   1.139   0.822   2.528  0.2328 -0.6297 -0.2697
  339SOL     OW 1353   1.555   1.050   1.797  0.3037  0.5868  0.5649
  339SOL    HW1 1354   1.482   1.040   1.732 -1.8947 -1.2612 -1.7092
  339SOL    HW2 1355   1.525   1.128   1.847 -0.8737  0.5533 -1.3560
  339SOL     MW 1356   1.541   1.059   1.795 -0.1417  0.3385  0.0114
  340SOL     OW 1357   1.402   1.466   0.055  0.0493 -0.1445  0.0011
  340SOL    HW1 1358   1.386   1.536  -0.007  1.6399 -2.8193 -0.2922
  340SOL    HW2 1359   1.495   1.480   0.073  0.8809 -1.0027 -2.1491
  340SOL     MW 1360   1.412   1.477   0.049  0.3689 -0.6106 -0.3213
  341SOL     OW 1361   0.109   1.400   2.683  0.4336 -0.1689  0.0748
  341SOL    HW1 1362   0.199   1.373   2.672 -0.8685 -0.8406  0.9812
  341SOL    HW2 1363   0.058   1.339   2.626  1.8844  2.7752 -0.3921
  341SOL     MW 1364   0.114   1.389   2.674  0.4532  0.1309  0.1328
  342SOL     OW 1365   1.380   0.299   0.084 -0.3818  0.1099 -0.0017
  342SOL    HW1 1366   1.425   0.371   0.125  0.9887 -3.2078  0.5944
  342SOL    HW2 1367   1.382   0.323  -0.011 -1.2089  0.1838 -0.7876
  342SOL     MW 1368   1.387   0.312   0.077 -0.3101 -0.3181 -0.0267
  343SOL     OW 1369   0.216   0.306   2.220  0.5206 -0.1705 -0.3371
  343SOL    HW1 1370   0.225   0.256   2.307 -0.9346 -2.4186 -0.8814
  343SOL    HW2 1371   0.196   0.238   2.155 -0.0724  1.6502 -1.2249
  343SOL     MW 1372   0.214   0.290   2.223  0.2503 -0.2269 -0.5261
  344SOL     OW 1373   1.688   2.058   0.183  0.4564 -0.1338 -0.4904
  344SOL    HW1 1374   1.702   2.135   0.126  2.0490 -0.6647  0.1773
  344SOL    HW2 1375   1.630   2.001   0.139 -1.2851  0.2930  2.5312
  344SOL     MW 1376   1.682   2.061   0.170  0.4367 -0.1476 -0.0036
  345SOL     OW 1377   0.736   1.638   2.308 -0.1725  0.4086 -0.1434
  345SOL    HW1 1378   0.649   1.654   2.260 -3.6045  0.8551  0.1246
  345SOL    HW2 1379   0.782   1.578   2.248  2.7647  0.6582 -0.5461
  345SOL     MW 1380   0.731   1.632   2.294 -0.2378  0.5005 -0.1611
  346SOL     OW 1381   1.741   1.136   0.033  0.1138  0.0683 -0.5755
  346SOL    HW1 1382   1.838   1.143   0.029 -0.3615 -0.8841  1.0865
  346SOL    HW2 1383   1.727   1.054   0.076 -0.5974  1.4595  1.0838
  346SOL     MW 1384   1.752   1.126   0.038 -0.0428  0.1262 -0.1373
  347SOL     OW 1385   1.273   0.771   2.293 -0.1001  0.1769  0.1255
  347SOL    HW1 1386   1.354   0.729   2.325 -0.5377 -0.0766 -0.0216
  347SOL    HW2 1387   1.226   0.780   2.373  2.5167  1.4770 -0.6687
  347SOL     MW 1388   1.278   0.766   2.308  0.1874  0.3150  0.0013
  348SOL     OW 1389   1.350   2.608   1.862  0.9960  0.1854 -0.0776
  348SOL    HW1 1390   1.406   2.543   1.908 -0.1854  2.6682 -0.7152
  348SOL    HW2 1391   1.375   2.692   1.901 -0.8993 -0.3757  4.0390
  348SOL     MW 1392   1.360   2.611   1.873  0.5901  0.4389  0.3814
  349SOL     OW 1393   1.406   0.259   2.712  0.0177  0.1005  0.1871
  349SOL    HW1 1394   1.355   0.300   2.784  0.3789 -0.4775 -0.3753
  349SOL    HW2 1395   1.492   0.287   2.742  1.6063  0.1695  2.2079
  349SOL     MW 1396   1.411   0.268   2.725  0.2749  0.0334  0.3795
  350SOL     OW 1397   1.898   0.638   2.614 -0.1228  0.0277  0.1182
  350SOL    HW1 1398   1.854   0.559   2.575  2.1380 -0.1190  0.1130
  350SOL    HW2 1399   1.992   0.614   2.645  2.5376  0.0901  3.7329
  350SOL     MW 1400   1.904   0.624   2.613  0.5265  0.0165  0.5945
  351SOL     OW 1401   0.085   0.941   1.577 -0.8608  0.5812 -0.7944
  351SOL    HW1 1402   0.031   0.978   1.650 -1.0942 -0.6719  1.5840
  351SOL    HW2 1403   0.137   1.017   1.542 -1.9080 -0.9291 -0.4915
  351SOL     MW 1404   0.085   0.956   1.582 -1.0298  0.2166 -0.4407
  352SOL     OW 1405   0.851   1.674   2.716  0.4177  0.2579 -0.0030
  352SOL    HW1 1406   0.909   1.621   2.770 -0.9523  0.0820 -3.4034
  352SOL    HW2 1407   0.798   1.609   2.663 -1.8368  0.5063 -0.2365
  352SOL     MW 1408   0.851   1.659   2.716 -0.0605  0.2675 -0.4824
  353SOL     OW 1409   3.060   2.453   2.733  0.7557 -0.2846  0.4895
  353SOL    HW1 1410   3.144   2.423   2.701 -2.1981 -2.1845 -1.6387
  353SOL    HW2 1411   3.044   2.539   2.695  2.8813  1.1924 -4.3885
  353SOL     MW 1412   3.069   2.461   2.724  0.6464 -0.3404 -0.4349
  354SOL     OW 1413   0.364   2.480   0.847 -0.1297  0.4728 -0.2532
  354SOL    HW1 1414   0.358   2.467   0.943  0.3826  2.3709  1.5364
  354SOL    HW2 1415   0.312   2.401   0.810 -0.9750  0.0185 -2.1394
  354SOL     MW 1416   0.357   2.468   0.855 -0.1737  0.6633 -0.2659
  355SOL     OW 1417   0.026   2.224   0.374  0.0747  0.7165 -0.3269
  355SOL    HW1 1418  -0.039   2.152   0.367  0.3047  1.1861 -0.8251
  355SOL    HW2 1419  -0.001   2.283   0.439 -0.4442 -1.4286 -0.9796
  355SOL     MW 1420   0.014   2.223   0.381  0.0366  0.4954 -0.4787
  356SOL     OW 1421   0.862   2.882   1.055 -0.6833 -0.1587 -0.3145
  356SOL    HW1 1422   0.883   2.854   0.962 -0.2569  0.1378 -1.9930
  356SOL    HW2 1423   0.770   2.867   1.067 -2.5612 -0.8783 -0.9110
  356SOL     MW 1424   0.852   2.877   1.044 -0.8748 -0.2146 -0.6146
  357SOL     OW 1425   1.793   2.944   0.404  0.5349 -0.2454  0.5248
  357SOL    HW1 1426   1.741   2.869   0.439 -0.0352  1.7863  3.0867
  357SOL    HW2 1427   1.867   2.900   0.386 -3.5305  2.3193  1.1397
  357SOL     MW 1428   1.796   2.928   0.407 -0.0767  0.3611  0.9439
  358SOL     OW 1429   0.465   0.066   1.070  0.5231 -0.1901  0.0193
  358SOL    HW1 1430   0.560   0.047   1.062  1.7850  2.0008  0.4196
  358SOL    HW2 1431   0.449   0.108   0.985  0.5536  0.2125 -0.6027
  358SOL     MW 1432   0.475   0.069   1.057  0.6936  0.1521 -0.0099
  359SOL     OW 1433   0.894   2.834   1.830 -0.1907 -0.0458  0.2253
  359SOL    HW1 1434   0.885   2.750   1.884 -1.1246 -0.5912 -1.4139
  359SOL    HW2 1435   0.919   2.804   1.739 -0.0603  0.4152 -3.5122
  359SOL     MW 1436   0.896   2.819   1.825 -0.2967 -0.0569 -0.4841
  360SOL     OW 1437   0.585   2.801   1.015 -0.0129  0.1228  0.1347
  360SOL    HW1 1438   0.591   2.744   0.935 -3.3356  1.1088  0.5747
  360SOL    HW2 1439   0.578   2.736   1.085  1.8282  1.3526 -0.7540
  360SOL     MW 1440   0.585   2.785   1.013 -0.2084  0.4152  0.0755
  361SOL     OW 1441   0.188   2.718   1.340 -0.0328  0.0935  0.3913
  361SOL    HW1 1442   0.166   2.783   1.409  2.8314 -1.4479 -1.3312
  361SOL    HW2 1443   0.279   2.692   1.346  1.7294 -0.2851 -0.4173
  361SOL     MW 1444   0.197   2.723   1.350  0.5776 -0.1598  0.0574
  362SOL     OW 1445   1.463   2.448   0.651  0.3619  0.0322 -0.0430
  362SOL    HW1 1446   1.472   2.359   0.676  3.2775  0.7352 -1.9084
  362SOL    HW2 1447   1.475   2.507   0.729  2.1042 -1.1578  0.5811
  362SOL     MW 1448   1.466   2.444   0.664  0.9765 -0.0320 -0.2068
  363SOL     OW 1449   0.301   3.069   0.697 -0.2115 -0.3451  0.7527
  363SOL    HW1 1450   0.271   3.027   0.780 -0.2676 -0.2025 -1.9945
  363SOL    HW2 1451   0.222   3.114   0.666  1.5473  0.3574  0.7432
  363SOL     MW 1452   0.287   3.069   0.704  0.0132 -0.2336  0.3890
  364SOL     OW 1453   0.701   0.219   0.232 -0.6734 -0.5548  0.3654
  364SOL    HW1 1454   0.642   0.152   0.252  1.1487  1.4498 -0.5904
  364SOL    HW2 1455   0.661   0.273   0.161 -0.9103  0.0720  2.5634
  364SOL     MW 1456   0.688   0.218   0.225 -0.4642 -0.2076  0.5293
  365SOL     OW 1457   0.975   1.948   1.098  1.0334 -0.4467  0.2359
  365SOL    HW1 1458   0.933   2.028   1.056  0.2959  1.6856 -2.7295
  365SOL    HW2 1459   0.905   1.884   1.068 -0.2720 -3.1533 -1.1526
  365SOL     MW 1460   0.960   1.950   1.088  0.7638 -0.5224 -0.3386
  366SOL     OW 1461   2.854   2.616   1.078 -0.2327  0.1148  0.1284
  366SOL    HW1 1462   2.925   2.632   1.139 -2.2873 -0.8949 -0.8408
  366SOL    HW2 1463   2.887   2.628   0.986  0.8344 -0.2853 -1.2916
  366SOL     MW 1464   2.868   2.620   1.074 -0.3630 -0.0712 -0.1868
  367SOL     OW 1465   1.236   2.851   0.905  0.2477  0.2720  0.2111
  367SOL    HW1 1466   1.266   2.942   0.902 -0.9372 -1.7757  0.4107
  367SOL    HW2 1467   1.207   2.832   0.816  1.1959  1.3761 -1.5512
  367SOL     MW 1468   1.236   2.861   0.893  0.2164  0.1475  0.0049
  368SOL     OW 1469   1.673   0.432   0.669 -0.0677 -0.2135  0.0534
  368SOL    HW1 1470   1.757   0.394   0.646  0.4878  0.2496 -0.3506
  368SOL    HW2 1471   1.678   0.532   0.683 -1.1951  0.8515 -0.4134
  368SOL     MW 1472   1.685   0.440   0.668 -0.1432 -0.0119 -0.0615
  369SOL     OW 1473   0.165   2.468   1.666  0.1101  0.6049 -0.1667
  369SOL    HW1 1474   0.258   2.458   1.675 -0.7044  1.0294 -1.8649
  369SOL    HW2 1475   0.136   2.542   1.721  0.2048  0.8198 -0.0876
  369SOL     MW 1476   0.174   2.477   1.675  0.0151  0.6893 -0.3803
  370SOL     OW 1477   0.743   0.061   1.007 -0.2694 -0.5012 -0.3967
  370SOL    HW1 1478   0.805   0.128   1.028 -1.6598  1.9465  1.7494
  370SOL    HW2 1479   0.804  -0.009   1.000 -0.8487  0.8583  1.1479
  370SOL     MW 1480   0.760   0.061   1.009 -0.5292  0.0011  0.0903
  371SOL     OW 1481   1.333   2.984   1.521 -0.1884 -0.5682  0.1463
  371SOL    HW1 1482   1.283   2.915   1.473  3.0629 -1.4167 -0.2971
  371SOL    HW2 1483   1.330   3.063   1.465  2.7316  0.5027  0.1829
  371SOL     MW 1484   1.326   2.985   1.507  0.6258 -0.5388  0.0926
  372SOL     OW 1485   0.773   2.327   0.457 -0.3161  0.3589 -0.6015
  372SOL    HW1 1486   0.738   2.234   0.442 -0.8462 -0.1950 -3.7250
  372SOL    HW2 1487   0.815   2.335   0.364  1.5008 -0.1106  0.5317
  372SOL     MW 1488   0.774   2.316   0.443 -0.1463  0.2239 -0.8641
  373SOL     OW 1489   2.796   3.025   1.390 -0.1515  0.1554  0.5290
  373SOL    HW1 1490   2.867   2.973   1.349 -2.3303 -1.3730 -0.3049
  373SOL    HW2 1491   2.770   3.088   1.321  0.1539 -0.3471  2.2399
  373SOL     MW 1492   2.802   3.026   1.376 -0.3987 -0.1125  0.6447
  374SOL     OW 1493   1.538   0.486   0.221 -0.1526 -0.7854 -0.1780
  374SOL    HW1 1494   1.635   0.498   0.209  0.7439  0.5841 -0.5632
  374SOL    HW2 1495   1.529   0.440   0.304 -3.4969  0.2256 -0.0624
  374SOL     MW 1496   1.549   0.481   0.231 -0.4755 -0.4713 -0.2135
  375SOL     OW 1497   1.104   2.097   2.287  0.1016 -0.1727  0.2745
  375SOL    HW1 1498   1.156   2.112   2.363  0.2042  1.9365  0.0669
  375SOL    HW2 1499   1.115   2.005   2.270 -0.1646 -0.7102  1.6498
  375SOL     MW 1500   1.112   2.087   2.295  0.0801  0.0346  0.4286
  376SOL     OW 1501   0.666   2.513   0.076 -0.0116  0.1109 -0.0028
  376SOL    HW1 1502   0.664   2.442   0.140  0.9266 -1.4677  2.2076
  376SOL    HW2 1503   0.656   2.473  -0.016  0.2546 -1.3216 -0.4234
  376SOL     MW 1504   0.664   2.499   0.072  0.1473 -0.2864  0.2334
  377SOL     OW 1505   1.343   1.984   0.854  0.3863  0.2378 -0.0865
  377SOL    HW1 1506   1.250   1.987   0.831  1.1583 -0.9537 -2.9921
  377SOL    HW2 1507   1.336   1.946   0.943  0.4974 -0.6037 -1.3444
  377SOL     MW 1508   1.330   1.979   0.862  0.5028 -0.0304 -0.6358
  378SOL     OW 1509   1.032   2.824   1.576 -0.1229 -0.3782  0.5169
  378SOL    HW1 1510   0.975   2.746   1.574  0.6350 -1.9363  0.0930
  378SOL    HW2 1511   0.987   2.893   1.527  3.3756  0.6690 -0.7747
  378SOL     MW 1512   1.018   2.823   1.569  0.4387 -0.4456  0.2905
  379SOL     OW 1513   1.122   1.766   2.301 -0.3630  0.3603  0.1908
  379SOL    HW1 1514   1.028   1.751   2.284 -0.5390 -1.3131 -2.1088
  379SOL    HW2 1515   1.178   1.701   2.251  1.1542 -1.1851  3.1476
  379SOL     MW 1516   1.117   1.755   2.292 -0.1860 -0.0644  0.2775
  380SOL     OW 1517   0.826   0.069   1.578 -0.1173 -0.2147 -0.0262
  380SOL    HW1 1518   0.846   0.071   1.481 -3.0718  1.0203  0.6647
  380SOL    HW2 1519   0.902   0.111   1.628  0.9448  2.1199 -1.4253
  380SOL     MW 1520   0.839   0.075   1.572 -0.3670  0.2563 -0.1196
  381SOL     OW 1521   0.808   2.010   0.778 -0.2427  0.0579  0.1257
  381SOL    HW1 1522   0.902   1.999   0.782 -0.7609  0.9055  1.5575
  381SOL    HW2 1523   0.785   2.072   0.851 -0.9981  2.8966 -0.7773
  381SOL     MW 1524   0.817   2.017   0.788 -0.4108  0.5443  0.1954
  382SOL     OW 1525   0.667   0.103   0.716 -0.2338  0.0774 -0.1642
  382SOL    HW1 1526   0.666   0.093   0.814  0.2755 -1.1497 -1.6361
  382SOL    HW2 1527   0.632   0.018   0.690 -0.5324  0.5396 -1.9162
  382SOL     MW 1528   0.662   0.091   0.725 -0.2060 -0.0235 -0.5895
  383SOL     OW 1529   0.509   0.015   0.369  0.5462 -0.6700  0.1700
  383SOL    HW1 1530   0.543  -0.040   0.301  3.4992 -2.0777  0.8605
  383SOL    HW2 1531   0.457  -0.048   0.421 -0.5852  1.7905  0.4517
  383SOL     MW 1532   0.507  -0.001   0.367  0.7865 -0.5311  0.2983
  384SOL     OW 1533   0.643   2.917   0.648 -0.2346  0.1228 -0.3187
  384SOL    HW1 1534   0.663   2.839   0.707  1.6792  3.2068  0.8741
  384SOL    HW2 1535   0.555   2.889   0.622 -2.4290 -0.5736  1.7392
  384SOL     MW 1536   0.634   2.903   0.652 -0.2716  0.4378  0.1102
  385SOL     OW 1537   1.348   2.072   1.506 -0.1562 -0.0916 -0.2785
  385SOL    HW1 1538   1.407   2.095   1.578  0.4506 -0.5744 -0.7284
  385SOL    HW2 1539   1.303   1.994   1.552 -2.2908 -0.1304 -3.8630
  385SOL     MW 1540   1.349   2.065   1.521 -0.3578 -0.1604 -0.8108
  386SOL     OW 1541   1.333   0.382   0.847 -0.4278  0.3417 -0.1546
  386SOL    HW1 1542   1.257   0.405   0.784 -1.5269  0.0541 -1.6113
  386SOL    HW2 1543   1.284   0.359   0.926  0.2176 -2.5764 -2.2929
  386SOL     MW 1544   1.317   0.382   0.849 -0.4877 -0.0813 -0.6289
  387SOL     OW 1545   0.870   2.201   1.440  0.0289 -1.0362  0.7586
  387SOL    HW1 1546   0.948   2.240   1.398 -1.4942 -0.0951 -1.2392
  387SOL    HW2 1547   0.874   2.104   1.417 -0.1352 -1.2994 -0.1211
  387SOL     MW 1548   0.881   2.193   1.431 -0.1937 -0.9468  0.3789
  388SOL     OW 1549   1.549   2.754   1.213 -0.5876 -0.1606 -0.6249
  388SOL    HW1 1550   1.458   2.725   1.208 -1.9050  1.0195  0.8792
  388SOL    HW2 1551   1.598   2.694   1.154  0.1018 -1.2056  0.4058
  388SOL     MW 1552   1.543   2.743   1.205 -0.6705 -0.1428 -0.2905
  389SOL     OW 1553   0.374   3.089   3.044  0.6628  0.2850 -0.1938
  389SOL    HW1 1554   0.407   3.004   3.017  0.6802 -2.0375 -0.4628
  389SOL    HW2 1555   0.337   3.127   2.963  0.1836  2.8832 -3.1850
  389SOL     MW 1556   0.374   3.083   3.030  0.6018  0.3214 -0.6240
  390SOL     OW 1557   1.305   0.089   0.650  0.1376  0.5928 -0.1611
  390SOL    HW1 1558   1.382   0.119   0.594  0.8033 -1.9970 -0.4852
  390SOL    HW2 1559   1.324   0.088   0.742 -1.8173 -0.4233  0.1456
  390SOL     MW 1560   1.318   0.092   0.655 -0.0325  0.1171 -0.1634
  391SOL     OW 1561   0.281   2.244   1.399  0.0811 -0.4803 -0.8613
  391SOL    HW1 1562   0.221   2.168   1.425 -1.6939 -1.1043 -0.5782
  391SOL    HW2 1563   0.222   2.329   1.392  0.6289 -0.6743  4.0397
  391SOL     MW 1564   0.265   2.245   1.401 -0.0808 -0.5883 -0.1773
  392SOL     OW 1565   2.074   2.121   0.385  0.3547  0.2651 -0.2316
  392SOL    HW1 1566   2.144   2.087   0.439 -2.2517 -0.5369  1.5669
  392SOL    HW2 1567   2.057   2.191   0.441 -0.4219 -0.8291  0.7677
  392SOL     MW 1568   2.081   2.126   0.399 -0.0916  0.0149  0.1376
  393SOL     OW 1569   0.190   3.016   2.713 -0.0025 -0.0078 -0.1016
  393SOL    HW1 1570   0.225   3.103   2.745  0.8264 -1.7740  1.0852
  393SOL    HW2 1571   0.096   3.034   2.703  1.1862 -0.7159 -2.5881
  393SOL     MW 1572   0.182   3.030   2.716  0.2637 -0.3343 -0.2731
  394SOL     OW 1573   0.891   1.730   1.499  0.4848  0.8671 -0.2269
  394SOL    HW1 1574   0.836   1.734   1.576 -2.2798 -0.4563  1.0010
  394SOL    HW2 1575   0.891   1.825   1.465  0.5965  1.1670 -1.9416
  394SOL     MW 1576   0.884   1.743   1.505  0.1347  0.7321 -0.2911
  395SOL     OW 1577   1.005   2.809   2.641  0.4631 -0.3022 -0.3557
  395SOL    HW1 1578   1.056   2.880   2.688  0.4678 -0.2963  0.6591
  395SOL    HW2 1579   1.080   2.748   2.619 -1.1186 -1.7973  2.1655
  395SOL     MW 1580   1.021   2.810   2.645  0.2550 -0.4987  0.1108
  396SOL     OW 1581   0.870   1.872   2.387 -0.5723 -0.2291  0.1793
  396SOL    HW1 1582   0.906   1.886   2.475  0.5976  0.9524 -0.0980
  396SOL    HW2 1583   0.819   1.789   2.389 -0.1465  2.4912 -2.4196
  396SOL     MW 1584   0.868   1.863   2.399 -0.3617  0.2857 -0.2002
  397SOL     OW 1585   1.038   2.348   1.307 -0.0180 -0.0952 -0.3935
  397SOL    HW1 1586   1.077   2.355   1.218  1.4999  3.1673 -1.4538
  397SOL    HW2 1587   1.111   2.365   1.373  2.4380 -2.8718 -0.6868
  397SOL     MW 1588   1.053   2.351   1.304  0.5063 -0.0311 -0.5720
  398SOL     OW 1589   0.597   2.673   0.773 -0.5964  0.1621 -0.0991
  398SOL    HW1 1590   0.513   2.620   0.749 -1.2183 -0.7087 -2.3366
  398SOL    HW2 1591   0.664   2.617   0.735  0.7009 -0.0425 -0.2319
  398SOL     MW 1592   0.595   2.658   0.765 -0.5073  0.0202 -0.4119
  399SOL     OW 1593   0.271   2.088   0.460  0.2745  0.3117  0.0923
  399SOL    HW1 1594   0.175   2.112   0.447 -0.5704 -0.0516 -1.7224
  399SOL    HW2 1595   0.314   2.118   0.376 -0.8548  1.8078 -1.1623
  399SOL     MW 1596   0.264   2.095   0.447  0.0141  0.4612 -0.3126
  400SOL     OW 1597   0.564   1.819   0.179 -0.3413  0.4647  0.3524
  400SOL    HW1 1598   0.537   1.902   0.221  1.0021  0.6799 -0.7967
  400SOL    HW2 1599   0.528   1.754   0.230  2.8904  3.1797 -0.7906
  400SOL     MW 1600   0.555   1.822   0.191  0.2624  0.8513  0.0500
  401SOL     OW 1601   0.912   2.072   0.133 -0.2334 -0.5069 -0.2520
  401SOL    HW1 1602   0.895   1.978   0.135 -1.7202  0.0287  1.2402
  401SOL    HW2 1603   0.980   2.085   0.207 -0.5739 -0.2012  0.7928
  401SOL     MW 1604   0.919   2.061   0.143 -0.4745 -0.3959  0.0828
  402SOL     OW 1605   0.680   2.960   1.687 -0.3027  0.0205  0.2638
  402SOL    HW1 1606   0.756   2.936   1.742 -0.9485  0.1430  1.4711
  402SOL    HW2 1607   0.706   3.047   1.645  2.0687  0.5978 -4.3014
  402SOL     MW 1608   0.693   2.968   1.689 -0.0751  0.1128 -0.1792
  403SOL     OW 1609   0.091   0.421   0.409  0.2005 -0.0110  0.2380
  403SOL    HW1 1610   0.172   0.433   0.462  0.5288 -0.2674 -0.5425
  403SOL    HW2 1611   0.111   0.411   0.319 -1.7741  0.9600  0.1136
  403SOL     MW 1612   0.105   0.421   0.404 -0.0167  0.0833  0.1186
  404SOL     OW 1613   0.914   2.840   0.794 -0.7092  0.1874 -0.2745
  404SOL    HW1 1614   0.989   2.792   0.758  0.6595 -0.5683 -1.8973
  404SOL    HW2 1615   0.915   2.929   0.755 -0.8642  0.3617  0.3358
  404SOL     MW 1616   0.924   2.845   0.784 -0.5491  0.1107 -0.4081
  405SOL     OW 1617   0.482   2.362   1.513 -0.2019  0.0192  0.2663
  405SOL    HW1 1618   0.501   2.441   1.460  0.4543  0.7536  0.0106
  405SOL    HW2 1619   0.401   2.312   1.465  0.9735  0.8516 -0.3055
  405SOL     MW 1620   0.474   2.366   1.500  0.0398  0.2260  0.1572
  406SOL     OW 1621   0.338   2.403   1.117 -0.0691  0.1592  0.7024
  406SOL    HW1 1622   0.241   2.414   1.093 -0.7114 -0.0940  0.5399
  406SOL    HW2 1623   0.346   2.309   1.129 -0.9060 -0.3399  1.2833
  406SOL     MW 1624   0.326   2.392   1.115 -0.2643  0.0599  0.7576
  407SOL     OW 1625   0.007   2.742   1.125 -0.7423 -0.4316 -0.5247
  407SOL    HW1 1626   0.064   2.727   1.200  2.3639  0.6091  0.6294
  407SOL    HW2 1627   0.070   2.756   1.061 -2.4400  2.1172  3.9826
  407SOL     MW 1628   0.023   2.742   1.126 -0.5565  0.0420  0.2222
  408SOL     OW 1629   2.063   2.056   0.734 -0.7075  0.2433  0.4032
  408SOL    HW1 1630   2.017   2.112   0.793 -1.1932  0.9666  0.8187
  408SOL    HW2 1631   1.993   2.013   0.685  1.8221  2.2044 -0.1107
  408SOL     MW 1632   2.048   2.058   0.735 -0.4378  0.5975  0.3903
  409SOL     OW 1633   1.356   0.034   0.931 -0.0999  1.1756 -0.1636
  409SOL    HW1 1634   1.403   0.109   0.964 -1.9590 -0.5133  1.7504
  409SOL    HW2 1635   1.426  -0.027   0.952  0.2288  0.7572  0.5223
  409SOL     MW 1636   1.372   0.036   0.938 -0.3018  0.8976  0.1794
  410SOL     OW 1637   1.133   2.430   1.058  0.4090  0.0300 -0.6158
  410SOL    HW1 1638   1.049   2.465   1.021  1.2346  4.0757  0.2412
  410SOL    HW2 1639   1.162   2.363   0.999  1.0580 -1.2549 -1.8048
  410SOL     MW 1640   1.126   2.426   1.046  0.6036  0.3942 -0.6596
  411SOL     OW 1641   1.956   0.030   2.856 -0.2244 -0.1321 -0.5213
  411SOL    HW1 1642   1.894  -0.014   2.799  0.6218 -0.0978 -1.0663
  411SOL    HW2 1643   1.914   0.031   2.946 -1.1013  0.2124  1.0770
  411SOL     MW 1644   1.943   0.025   2.860 -0.2285 -0.0821 -0.3823
  412SOL     OW 1645   0.999   2.255   0.595 -0.6818  0.2389 -0.1375
  412SOL    HW1 1646   1.040   2.345   0.622 -0.1705  1.0180  0.8370
  412SOL    HW2 1647   0.913   2.270   0.544 -2.6023 -2.4881 -0.9494
  412SOL     MW 1648   0.993   2.269   0.592 -0.8677 -0.0181 -0.1160
  413SOL     OW 1649   0.544   2.737   0.007 -0.4814  0.2903 -0.8875
  413SOL    HW1 1650   0.584   2.651   0.043 -0.0686 -0.7513  0.8772
  413SOL    HW2 1651   0.599   2.783  -0.056 -3.5513 -1.8525  1.2785
  413SOL     MW 1652   0.556   2.732   0.003 -0.8320 -0.1299 -0.3688
  414SOL     OW 1653   1.921   3.002   1.074  0.2944  0.1972  0.0495
  414SOL    HW1 1654   1.865   2.984   0.992  1.4066 -0.8310 -0.5749
  414SOL    HW2 1655   1.970   2.922   1.090  4.1022  0.8807 -0.3115
  414SOL     MW 1656   1.920   2.989   1.065  0.9436  0.1517 -0.0805
  415SOL     OW 1657   1.727   2.563   1.127 -0.0009 -0.2178 -0.0467
  415SOL    HW1 1658   1.700   2.498   1.184  1.8351 -0.0045 -1.5174
  415SOL    HW2 1659   1.803   2.616   1.161  1.2881 -2.2171  2.5057
  415SOL     MW 1660   1.734   2.562   1.139  0.4114 -0.4534  0.0960
  416SOL     OW 1661   0.548   1.946   1.366 -0.6960 -0.1334 -0.3263
  416SOL    HW1 1662   0.494   1.990   1.303  0.0564  0.9771  0.3244
  416SOL    HW2 1663   0.507   1.864   1.378  1.2110  2.3517 -2.4132
  416SOL     MW 1664   0.535   1.941   1.359 -0.3451  0.3410 -0.5158
  417SOL     OW 1665   0.963   3.009   2.049  0.4693  0.2608  0.1758
  417SOL    HW1 1666   0.919   3.025   2.129  2.3091 -1.4755  1.7295
  417SOL    HW2 1667   0.911   2.948   1.996 -2.4533 -1.0569  1.0119
  417SOL     MW 1668   0.950   3.003   2.053  0.3265 -0.1422  0.4911
  418SOL     OW 1669   0.618   2.948   0.173  0.4663  0.1382 -0.2675
  418SOL    HW1 1670   0.704   2.969   0.128  0.3122 -2.5484  1.5109
  418SOL    HW2 1671   0.577   2.869   0.124  1.2011  2.1329 -1.7658
  418SOL     MW 1672   0.624   2.940   0.161  0.5430  0.0469 -0.2305
  419SOL     OW 1673   0.460   2.620   1.404 -0.4309 -0.3688  0.1476
  419SOL    HW1 1674   0.527   2.681   1.433  1.9734 -0.0586 -1.3519
  419SOL    HW2 1675   0.477   2.605   1.312  3.3824  0.2829 -1.2611
  419SOL     MW 1676   0.471   2.626   1.396  0.3894 -0.2419 -0.2361
  420SOL     OW 1677   0.836   2.169   0.993  0.4719  0.4651 -0.5996
  420SOL    HW1 1678   0.769   2.196   1.061  2.9873 -1.7145  0.8328
  420SOL    HW2 1679   0.868   2.249   0.959  1.6598 -1.9806 -2.6448
  420SOL     MW 1680   0.831   2.183   0.998  0.9605 -0.1452 -0.6804
  421SOL     OW 1681   2.939   0.076   0.017  0.1476 -0.3541 -0.2527
  421SOL    HW1 1682   2.919   0.040  -0.071 -2.2315 -0.9590 -0.6391
  421SOL    HW2 1683   2.968   0.001   0.075 -0.3132 -1.3939  1.4950
  421SOL     MW 1684   2.940   0.061   0.013 -0.2271 -0.5711 -0.0731
  422SOL     OW 1685   0.901   2.432   0.911  0.2412  0.5206 -0.2169
  422SOL    HW1 1686   0.849   2.494   0.956  0.2476 -0.6634  0.3650
  422SOL    HW2 1687   0.864   2.438   0.828  1.3274 -1.1763  0.9313
  422SOL     MW 1688   0.890   2.441   0.906  0.3854  0.1405  0.0114
  423SOL     OW 1689   1.519   0.159   0.505  0.0817 -0.3952 -0.0717
  423SOL    HW1 1690   1.518   0.124   0.418 -0.1629  2.1885 -1.1789
  423SOL    HW2 1691   1.518   0.251   0.484 -2.4680 -2.8424  3.5119
  423SOL     MW 1692   1.519   0.166   0.491 -0.2870 -0.3772  0.2550
  424SOL     OW 1693   0.676   2.247   1.196 -0.1492  0.2744  0.0664
  424SOL    HW1 1694   0.587   2.211   1.223 -3.0711  0.7251 -2.9042
  424SOL    HW2 1695   0.724   2.273   1.279 -0.8508  0.2137  3.3768
  424SOL     MW 1696   0.671   2.246   1.210 -0.6273  0.3258  0.1112
  425SOL     OW 1697   1.719   2.860   1.956  0.2129  0.2470  0.0262
  425SOL    HW1 1698   1.752   2.852   1.862 -0.1614  0.9507 -3.1616
  425SOL    HW2 1699   1.747   2.772   1.990 -0.4817 -1.0305  0.6589
  425SOL     MW 1700   1.727   2.847   1.948  0.0719  0.1713 -0.3109
  426SOL     OW 1701   0.833   1.685   1.936  0.1169  0.0557  0.4743
  426SOL    HW1 1702   0.785   1.693   1.851  0.7167  0.1461 -0.1891
  426SOL    HW2 1703   0.804   1.772   1.977  0.6436 -2.0199  0.7136
  426SOL     MW 1704   0.823   1.697   1.930  0.2655 -0.2062  0.4184
  427SOL     OW 1705   0.338   1.543   1.904 -0.5265  0.2687  0.1231
  427SOL    HW1 1706   0.379   1.459   1.912 -0.6157 -0.6120 -1.8194
  427SOL    HW2 1707   0.245   1.534   1.922  2.5371  0.8555 -2.3021
  427SOL     MW 1708   0.331   1.531   1.908 -0.1341  0.2299 -0.4532
  428SOL     OW 1709   0.577   2.555   1.171 -0.0895  0.3030 -0.1000
  428SOL    HW1 1710   0.647   2.513   1.222  0.6224  2.8678  1.0815
  428SOL    HW2 1711   0.505   2.495   1.149 -0.3232  0.7591 -0.5652
  428SOL     MW 1712   0.577   2.542   1.175 -0.0264  0.7016 -0.0055
  429SOL     OW 1713   1.318   2.631   1.070  0.4089  0.6283  0.2260
  429SOL    HW1 1714   1.251   2.564   1.089  0.1704 -1.4505  1.1712
  429SOL    HW2 1715   1.263   2.701   1.025 -1.0986  0.2330 -1.5235
  429SOL     MW 1716   1.302   2.631   1.066  0.1785  0.3019  0.1199
  430SOL     OW 1717   1.168   2.712   0.664  0.0135  0.2304  0.1173
  430SOL    HW1 1718   1.166   2.617   0.690  1.3544  0.0743  1.7276
  430SOL    HW2 1719   1.094   2.727   0.608  0.0726  2.2719  0.6983
  430SOL     MW 1720   1.158   2.702   0.660  0.1982  0.4791  0.4064
  431SOL     OW 1721   0.260   1.889   1.117 -0.1936  0.1145 -0.5686
  431SOL    HW1 1722   0.347   1.843   1.109 -2.6488 -1.0778  0.2414
  431SOL    HW2 1723   0.259   1.936   1.032 -0.2410  1.5171  0.9755
  431SOL     MW 1724   0.271   1.889   1.105 -0.5238  0.1422 -0.2580
  432SOL     OW 1725   0.011   0.054   1.126 -0.1479 -0.7112 -0.4809
  432SOL    HW1 1726   0.002   0.078   1.222  0.7270 -2.1106 -0.4804
  432SOL    HW2 1727  -0.053  -0.015   1.108 -2.2183  2.8074  0.5205
  432SOL     MW 1728   0.001   0.048   1.137 -0.3057 -0.4316 -0.3487
  433SOL     OW 1729   0.623   2.851   1.419 -0.2925 -0.0330  0.5413
  433SOL    HW1 1730   0.648   2.861   1.514  0.9665  1.2081 -1.4683
  433SOL    HW2 1731   0.711   2.865   1.378 -0.0664  1.8354 -0.0137
  433SOL     MW 1732   0.638   2.854   1.426 -0.0965  0.3772  0.2029
  434SOL     OW 1733   1.580   2.864   1.476 -0.3777  0.5807 -0.1070
  434SOL    HW1 1734   1.492   2.906   1.496  0.9709 -0.2217 -0.6556
  434SOL    HW2 1735   1.584   2.820   1.393  2.1185  1.4149 -1.5230
  434SOL     MW 1736   1.569   2.864   1.468  0.1296  0.5849 -0.3662
  435SOL     OW 1737   2.813   1.805   0.186 -0.1639  0.6137  0.1851
  435SOL    HW1 1738   2.862   1.879   0.153  0.3114  1.3088 -0.5201
  435SOL    HW2 1739   2.798   1.742   0.109 -1.1583  0.1957 -1.4528
  435SOL     MW 1740   2.817   1.806   0.171 -0.2324  0.6503 -0.1240
  436SOL     OW 1741   1.273   2.769   0.307 -0.1317  0.6448  0.0707
  436SOL    HW1 1742   1.309   2.722   0.381 -0.2781 -0.4915  0.5187
  436SOL    HW2 1743   1.239   2.849   0.344  1.3273  0.3174  1.4293
  436SOL     MW 1744   1.273   2.773   0.322  0.0415  0.4516  0.3090
  437SOL     OW 1745   0.876   2.903   1.358  0.4136  0.3374  0.1919
  437SOL    HW1 1746   0.894   2.986   1.312  0.4266 -0.4836 -0.7594
  437SOL    HW2 1747   0.917   2.838   1.299 -0.6449 -0.6625  0.5289
  437SOL     MW 1748   0.884   2.905   1.344  0.2757  0.0971  0.1109
  438SOL     OW 1749   0.892   2.596   1.954 -0.1027 -0.0445 -0.3797
  438SOL    HW1 1750   0.883   2.587   2.050  1.5223 -2.3471 -2.8029
  438SOL    HW2 1751   0.836   2.538   1.903  1.1543  0.6166 -1.2957
  438SOL     MW 1752   0.883   2.587   1.960  0.2775 -0.2611 -0.8202
  439SOL     OW 1753   1.086   2.130   0.358 -0.1370  0.2309  0.1614
  439SOL    HW1 1754   1.079   2.166   0.443 -1.0728  0.5120  0.1812
  439SOL    HW2 1755   1.119   2.208   0.314 -0.8308 -0.0807 -0.3412
  439SOL     MW 1756   1.089   2.145   0.363 -0.3520  0.2269  0.0977
  440SOL     OW 1757   1.664   2.919   3.038  0.5933  0.7801 -0.0052
  440SOL    HW1 1758   1.599   2.927   3.107 -2.4995  1.8924  1.6794
  440SOL    HW2 1759   1.732   2.865   3.076 -0.3983  2.2566 -0.8107
  440SOL     MW 1760   1.664   2.913   3.052  0.0544  1.1217  0.1108
  441SOL     OW 1761   0.350   2.631   0.520  0.1926  0.1388 -0.2179
  441SOL    HW1 1762   0.368   2.599   0.429 -1.4461  0.9280  0.2789
  441SOL    HW2 1763   0.360   2.727   0.516 -0.6338  4.1055 -0.9505
  441SOL     MW 1764   0.354   2.639   0.507 -0.1326  0.7663 -0.2490
  442SOL     OW 1765   3.050   2.361   0.634  0.0422  0.2764 -0.0477
  442SOL    HW1 1766   3.063   2.453   0.658 -0.4047 -2.6156  1.4003
  442SOL    HW2 1767   2.962   2.332   0.659  0.1506  0.2460  0.1675
  442SOL     MW 1768   3.040   2.370   0.640 -0.0025 -0.1092  0.1717
  443SOL     OW 1769   1.361   1.751   1.867  0.7920 -0.0804  0.7667
  443SOL    HW1 1770   1.339   1.813   1.794  2.1679  0.1814  2.0171
  443SOL    HW2 1771   1.299   1.679   1.877 -0.9439 -0.8358  1.0378
  443SOL     MW 1772   1.350   1.750   1.858  0.7445 -0.1455  0.9674
  444SOL     OW 1773   0.930   2.571   1.557  0.2619  0.0758  0.8128
  444SOL    HW1 1774   1.006   2.534   1.609  1.9778 -1.9193  0.1725
  444SOL    HW2 1775   0.850   2.550   1.608  1.0964  0.4182 -0.1052
  444SOL     MW 1776   0.929   2.564   1.571  0.5984 -0.1423  0.6072
  445SOL     OW 1777   0.952   0.034   1.252  0.0920 -0.8129  0.0545
  445SOL    HW1 1778   0.901   0.114   1.276 -1.8285  0.8567  1.0550
  445SOL    HW2 1779   1.043   0.049   1.224 -1.1822  0.0049 -0.4684
  445SOL     MW 1780   0.957   0.047   1.252 -0.3295 -0.4847  0.1175
  446SOL     OW 1781   2.694   2.843   1.105 -0.1572 -0.3224  0.1761
  446SOL    HW1 1782   2.671   2.879   1.017 -1.7539  1.3333 -0.1366
  446SOL    HW2 1783   2.754   2.764   1.093  1.0859  1.1663 -1.7355
  446SOL     MW 1784   2.699   2.837   1.092 -0.2039  0.0925 -0.1174
  447SOL     OW 1785   3.026   2.069   1.650  0.2600 -0.0875  0.0812
  447SOL    HW1 1786   3.088   2.008   1.693  1.1308  0.8747 -0.8616
  447SOL    HW2 1787   2.968   2.021   1.591  3.2132  2.3794 -0.0160
  447SOL     MW 1788   3.027   2.054   1.648  0.7645  0.3649 -0.0560
  448SOL     OW 1789   1.685   2.338   1.671  0.4604  0.0911  0.1561
  448SOL    HW1 1790   1.609   2.271   1.669  0.9355 -1.2606 -0.5208
  448SOL    HW2 1791   1.644   2.423   1.672  2.9987 -2.4140  0.3047
  448SOL     MW 1792   1.670   2.341   1.670  0.8580 -0.4178  0.0864
  449SOL     OW 1793   0.765   2.861   0.372 -0.2939 -0.0956  0.0395
  449SOL    HW1 1794   0.700   2.888   0.303  0.8874 -0.0249 -1.8380
  449SOL    HW2 1795   0.720   2.861   0.452  1.7379 -2.1034 -0.0482
  449SOL     MW 1796   0.751   2.865   0.373  0.1300 -0.3511 -0.2198
  450SOL     OW 1797   1.184   2.443   0.693  0.0313  0.0576 -0.3510
  450SOL    HW1 1798   1.190   2.367   0.751 -1.9883  1.4519  1.0014
  450SOL    HW2 1799   1.280   2.441   0.663  0.2228  0.8053 -1.6450
  450SOL     MW 1800   1.198   2.433   0.696 -0.2099  0.3402 -0.3433
  451SOL     OW 1801   0.618   2.031   1.640  0.1069  0.3984  0.2028
  451SOL    HW1 1802   0.665   2.116   1.650  0.7909  2.4690  3.7656
  451SOL    HW2 1803   0.595   2.024   1.547  1.7918  0.2426 -0.8637
  451SOL     MW 1804   0.621   2.041   1.629  0.4194  0.6511  0.5322
  452SOL     OW 1805   0.277   2.746   0.057 -0.1149 -0.5969  0.1331
  452SOL    HW1 1806   0.366   2.759   0.033 -0.8725 -0.3195 -1.0562
  452SOL    HW2 1807   0.233   2.756  -0.032  1.6823  0.3197 -1.7309
  452SOL     MW 1808   0.283   2.749   0.042  0.0222 -0.4393 -0.2697
  453SOL     OW 1809   0.385   3.032   1.715 -0.4390  0.0612 -0.3479
  453SOL    HW1 1810   0.482   3.011   1.701  1.2842 -0.6373  0.5724
  453SOL    HW2 1811   0.349   3.016   1.628  0.3167  1.0622  0.5409
  453SOL     MW 1812   0.393   3.027   1.702 -0.1120  0.1011 -0.1092
  454SOL     OW 1813   1.008   2.686   1.209 -0.7304 -0.0007 -0.3164
  454SOL    HW1 1814   0.953   2.613   1.240 -1.6645 -0.0875  0.0752
  454SOL    HW2 1815   0.965   2.746   1.148  0.9287  0.3037 -2.8132
  454SOL     MW 1816   0.995   2.685   1.205 -0.6347  0.0280 -0.5941
  455SOL     OW 1817   1.523   2.938   0.194  0.1998  0.1807 -0.3619
  455SOL    HW1 1818   1.590   2.890   0.245 -0.5322 -0.9566  2.1397
  455SOL    HW2 1819   1.445   2.880   0.185  0.5899  1.3948  0.1608
  455SOL     MW 1820   1.521   2.924   0.200  0.1547  0.1908  0.0372
  456SOL     OW 1821   2.901   0.359   1.314  0.1666  0.0846 -0.1981
  456SOL    HW1 1822   2.840   0.297   1.263 -0.1937 -0.2007 -0.6499
  456SOL    HW2 1823   2.960   0.384   1.240  0.7260 -2.4296 -0.0139
  456SOL     MW 1824   2.901   0.354   1.298  0.1929 -0.2848 -0.2334
  457SOL     OW 1825   0.928   1.551   2.998 -0.0664 -0.5090  0.1082
  457SOL    HW1 1826   0.834   1.551   3.022 -0.6132  1.2825 -0.7208
  457SOL    HW2 1827   0.970   1.512   3.071  1.4413  0.1548 -3.1898
  457SOL     MW 1828   0.921   1.546   3.011  0.0604 -0.1851 -0.4363
  458SOL     OW 1829   1.451   1.397   0.558 -0.3919 -0.4547 -0.8956
  458SOL    HW1 1830   1.369   1.420   0.603  0.8215 -0.3671 -0.6320
  458SOL    HW2 1831   1.418   1.335   0.492  0.6171  0.6879  2.4002
  458SOL     MW 1832   1.436   1.392   0.555 -0.0987 -0.2924 -0.4260
  459SOL     OW 1833   1.547   0.099   0.218 -0.5983 -0.2217 -0.1259
  459SOL    HW1 1834   1.521   0.004   0.207 -4.4249 -1.0380 -0.4118
  459SOL    HW2 1835   1.487   0.155   0.167 -1.0805 -2.1444 -0.3766
  459SOL     MW 1836   1.535   0.094   0.210 -1.1668 -0.5831 -0.1967
  460SOL     OW 1837   1.792   2.142   0.680 -0.0564  0.3590  0.6083
  460SOL    HW1 1838   1.695   2.141   0.699  3.0661 -0.1062  2.2252
  460SOL    HW2 1839   1.805   2.059   0.633 -0.3991 -0.1311 -0.9926
  460SOL     MW 1840   1.781   2.131   0.676  0.3104  0.2330  0.6104
  461SOL     OW 1841   0.503   2.409   0.616  0.2489 -0.5197 -0.2116
  461SOL    HW1 1842   0.430   2.460   0.581 -0.1786 -1.2724  0.0586
  461SOL    HW2 1843   0.492   2.413   0.713 -1.0070  1.0893 -1.0660
  461SOL     MW 1844   0.492   2.416   0.624  0.0268 -0.4068 -0.2887
  462SOL     OW 1845   0.327   0.234   1.279  0.5598 -0.2050 -0.0779
  462SOL    HW1 1846   0.405   0.188   1.222  2.5957 -1.1632 -1.4451
  462SOL    HW2 1847   0.379   0.283   1.337 -2.1031  0.4466 -0.1935
  462SOL     MW 1848   0.344   0.235   1.279  0.4771 -0.2454 -0.2736
  463SOL     OW 1849   0.913   3.083   0.686 -0.6467  0.1843  0.2982
  463SOL    HW1 1850   0.928   3.062   0.592 -0.1876  2.0637 -0.6720
  463SOL    HW2 1851   0.827   3.118   0.688  0.1357 -3.2021  0.2794
  463SOL     MW 1852   0.904   3.085   0.674 -0.4829 -0.0145  0.1677
  464SOL     OW 1853   0.780   3.048   2.247  0.2901  0.2000  0.3568
  464SOL    HW1 1854   0.756   2.950   2.242 -1.4060 -3.6906 -2.0854
  464SOL    HW2 1855   0.807   3.066   2.339  2.1641 -1.0510  4.4674
  464SOL     MW 1856   0.781   3.038   2.259  0.3136 -0.4784  0.5770
  465SOL     OW 1857   0.654   0.305   0.484 -0.0954  0.2123 -0.5730
  465SOL    HW1 1858   0.640   0.250   0.563 -2.9044  1.5265  0.5552
  465SOL    HW2 1859   0.688   0.247   0.412  2.0807 -0.8893 -0.4281
  465SOL     MW 1860   0.657   0.290   0.485 -0.1789  0.2404 -0.4050
  466SOL     OW 1861   1.084   2.015   0.746  0.3237 -0.2744 -0.2100
  466SOL    HW1 1862   1.064   1.953   0.678  0.4741  0.8128 -0.6148
  466SOL    HW2 1863   1.049   2.099   0.710 -1.6408  0.7794  0.8471
  466SOL     MW 1864   1.077   2.018   0.732  0.0843  0.0081 -0.1239
  467SOL     OW 1865   1.270   2.253   0.885  0.3749  0.3840  0.3090
  467SOL    HW1 1866   1.357   2.294   0.900  0.2384 -1.7836  0.9640
  467SOL    HW2 1867   1.302   2.164   0.875 -1.4034 -0.6677 -0.9470
  467SOL     MW 1868   1.286   2.247   0.886  0.1223 -0.0408  0.2297
  468SOL     OW 1869   0.356   2.583   1.993 -0.1343 -0.0617 -0.1848
  468SOL    HW1 1870   0.388   2.529   1.919 -1.1207  1.4444  0.0703
  468SOL    HW2 1871   0.386   2.677   1.984  1.7844 -0.1576 -2.1307
  468SOL     MW 1872   0.364   2.588   1.982 -0.0113  0.1244 -0.4079
  469SOL     OW 1873   0.372   2.135   1.773 -0.5406  0.0199  0.0376
  469SOL    HW1 1874   0.313   2.061   1.765  3.5876  0.4512  0.8528
  469SOL    HW2 1875   0.448   2.107   1.720  1.4760 -0.1711 -0.2297
  469SOL     MW 1876   0.374   2.121   1.765  0.2701  0.0516  0.1099
  470SOL     OW 1877   3.051   2.594   0.087 -0.2063 -0.3287 -1.0726
  470SOL    HW1 1878   2.965   2.567   0.116  0.4980 -1.2186  2.5512
  470SOL    HW2 1879   3.040   2.603  -0.009 -2.5953 -3.9136 -1.9951
  470SOL     MW 1880   3.038   2.591   0.078 -0.4286 -0.9191 -0.7162
  471SOL     OW 1881   1.243   2.733   1.406  0.2764  0.3465  0.4461
  471SOL    HW1 1882   1.172   2.741   1.473 -0.1765 -0.7678  1.4925
  471SOL    HW2 1883   1.190   2.731   1.325 -1.3397  2.1626 -0.8113
  471SOL     MW 1884   1.227   2.734   1.404  0.0034  0.4391  0.4183
  472SOL     OW 1885   2.907   2.057   0.384 -0.0260  0.1659  0.4165
  472SOL    HW1 1886   2.912   2.044   0.284  0.2434 -0.7423  0.9852
  472SOL    HW2 1887   2.878   1.984   0.439 -0.3925 -1.5212 -0.9152
  472SOL     MW 1888   2.904   2.045   0.378 -0.0388 -0.1766  0.3158
  473SOL     OW 1889   0.799   2.470   1.337  0.4572  0.2779  0.2660
  473SOL    HW1 1890   0.863   2.410   1.296  0.3437  1.9580  0.4834
  473SOL    HW2 1891   0.836   2.500   1.412 -0.3599 -2.2873 -0.3013
  473SOL     MW 1892   0.813   2.466   1.341  0.3344  0.1611  0.2199
  474SOL     OW 1893   0.757   2.267   1.684 -0.1619 -0.2981 -0.2593
  474SOL    HW1 1894   0.824   2.257   1.749  0.2416 -2.2259 -0.5236
  474SOL    HW2 1895   0.793   2.228   1.610 -2.9831  1.0126  0.6848
  474SOL     MW 1896   0.771   2.261   1.683 -0.4809 -0.3795 -0.1696
  475SOL     OW 1897   1.617   0.041   1.491 -0.0596 -0.3245  0.4932
  475SOL    HW1 1898   1.538   0.063   1.433 -1.3736 -1.9205 -0.8708
  475SOL    HW2 1899   1.640  -0.052   1.473  0.4452 -1.4795 -1.5345
  475SOL     MW 1900   1.610   0.032   1.481 -0.1664 -0.6875  0.0457
  476SOL     OW 1901   1.496   2.625   0.860  0.0203  0.0665 -0.2926
  476SOL    HW1 1902   1.436   2.642   0.940 -1.1260 -1.5919  1.6496
  476SOL    HW2 1903   1.510   2.719   0.835  1.2104  1.4638 -0.2648
  476SOL     MW 1904   1.490   2.640   0.868  0.0260  0.0320 -0.0327
  477SOL     OW 1905   0.804   2.515   0.666 -0.4954  0.4417 -0.1632
  477SOL    HW1 1906   0.862   2.582   0.632  3.0209 -0.0883 -0.6128
  477SOL    HW2 1907   0.782   2.475   0.582 -0.6811  0.7858 -0.2094
  477SOL     MW 1908   0.809   2.518   0.651 -0.0560  0.4171 -0.2286
  478SOL     OW 1909   0.160   2.669   0.899 -0.6183  0.6974  0.2108
  478SOL    HW1 1910   0.206   2.748   0.925  0.8481 -0.9955  1.6395
  478SOL    HW2 1911   0.218   2.617   0.853  0.9700 -0.1121  1.1072
  478SOL     MW 1912   0.174   2.673   0.896 -0.2153  0.3672  0.5176
  479SOL     OW 1913   1.411   1.915   1.281 -0.3439  0.1424 -0.3197
  479SOL    HW1 1914   1.387   1.974   1.352  0.0749  0.2666 -0.2130
  479SOL    HW2 1915   1.499   1.893   1.300 -0.8666  3.3474 -0.0806
  479SOL     MW 1916   1.420   1.920   1.292 -0.3576  0.5816 -0.2741
  480SOL     OW 1917   1.849   2.403   1.378 -0.0543  0.2150 -0.0496
  480SOL    HW1 1918   1.849   2.308   1.389 -0.2261  1.2506 -1.1969
  480SOL    HW2 1919   1.879   2.419   1.292 -0.7857  0.1683  1.3765
  480SOL     MW 1920   1.853   2.392   1.368 -0.1734  0.3455 -0.0128
  481SOL     OW 1921   1.179   0.061   1.116  0.2820 -0.1780  0.3300
  481SOL    HW1 1922   1.233   0.035   1.044 -0.8538 -2.6109  1.4609
  481SOL    HW2 1923   1.166   0.159   1.109 -0.2529  1.4196  1.1826
  481SOL     MW 1924   1.184   0.071   1.106  0.0616 -0.2882  0.5917
  482SOL     OW 1925   0.953   0.010   0.405 -0.6340 -0.1268  0.0741
  482SOL    HW1 1926   0.875  -0.032   0.365 -1.3305 -0.1402 -1.5138
  482SOL    HW2 1927   0.967   0.096   0.368  0.6304  0.0904 -0.3725
  482SOL     MW 1928   0.945   0.016   0.395 -0.5591 -0.0999 -0.1944
  483SOL     OW 1929   0.383   2.905   0.501  0.0368  0.6381  0.0257
  483SOL    HW1 1930   0.296   2.893   0.456 -0.9439  0.6239  0.4951
  483SOL    HW2 1931   0.360   2.961   0.584  0.4868  2.3961  1.2773
  483SOL     MW 1932   0.368   2.911   0.506 -0.0332  0.8682  0.2528
  484SOL     OW 1933   1.677   1.859   1.385 -0.1089 -0.3502 -0.4846
  484SOL    HW1 1934   1.731   1.936   1.369  1.6422 -0.7477 -0.7862
  484SOL    HW2 1935   1.651   1.865   1.474  0.2927  0.8083 -0.9656
  484SOL     MW 1936   1.681   1.870   1.394  0.1751 -0.2498 -0.5878
  485SOL     OW 1937   0.555   2.387   0.272 -0.4393  0.5731 -0.2578
  485SOL    HW1 1938   0.593   2.405   0.362  0.0474  4.2436  2.9479
  485SOL    HW2 1939   0.485   2.454   0.283 -0.9349 -1.5812  0.7801
  485SOL     MW 1940   0.550   2.398   0.286 -0.4405  0.7732  0.3021
  486SOL     OW 1941   0.127   2.459   1.395  0.1920 -0.1156 -0.0376
  486SOL    HW1 1942   0.138   2.551   1.361  0.1545 -2.3309  1.4427
  486SOL    HW2 1943   0.145   2.473   1.488 -0.6048  2.4658  0.1184
  486SOL     MW 1944   0.131   2.473   1.403  0.0819 -0.0673  0.1783
  487SOL     OW 1945   1.272   1.602   1.095 -0.0873 -0.0624  0.3627
  487SOL    HW1 1946   1.241   1.696   1.110 -0.0933  1.2677 -0.7550
  487SOL    HW2 1947   1.352   1.621   1.037  2.7516 -1.0477 -1.2591
  487SOL     MW 1948   1.278   1.617   1.089  0.2865 -0.0169  0.0013
  488SOL     OW 1949   1.610   1.860   0.577  0.2430 -0.0032 -0.1166
  488SOL    HW1 1950   1.696   1.877   0.537  0.1755 -1.4278  2.0345
  488SOL    HW2 1951   1.549   1.866   0.502  1.2160 -0.3287 -1.4948
  488SOL     MW 1952   1.613   1.863   0.562  0.3625 -0.2341 -0.0146
  489SOL     OW 1953   0.767   0.807   0.525 -0.3427 -0.1126  0.8699
  489SOL    HW1 1954   0.790   0.719   0.490 -1.3268  0.6900 -0.4522
  489SOL    HW2 1955   0.755   0.787   0.618  2.0992 -1.4740  1.2491
  489SOL     MW 1956   0.768   0.793   0.533 -0.1504 -0.1863  0.7455
  490SOL     OW 1957   1.410   2.114   0.436  0.2084 -0.0503  0.4480
  490SOL    HW1 1958   1.454   2.201   0.416 -0.6474  1.7292 -0.4904
  490SOL    HW2 1959   1.321   2.107   0.402 -1.9252 -0.3773 -0.8568
  490SOL     MW 1960   1.404   2.125   0.429 -0.1860  0.1414  0.1520
  491SOL     OW 1961   1.191   2.986   0.439  0.0728  0.4476  0.5569
  491SOL    HW1 1962   1.245   3.036   0.495  0.5631  0.0504 -0.1210
  491SOL    HW2 1963   1.123   3.047   0.424  1.0594  1.3915  2.1670
  491SOL     MW 1964   1.189   3.001   0.444  0.2677  0.5197  0.6799
  492SOL     OW 1965   1.538   2.138   0.716  0.5046  0.1399  0.2132
  492SOL    HW1 1966   1.524   2.088   0.628 -1.2984 -0.4508  1.0199
  492SOL    HW2 1967   1.486   2.088   0.784 -0.5240 -0.3784  0.0382
  492SOL     MW 1968   1.529   2.125   0.713  0.1310 -0.0064  0.2965
  493SOL     OW 1969   0.136   2.916   0.406 -0.2036  0.3073 -0.5548
  493SOL    HW1 1970   0.108   2.978   0.474 -1.5763 -1.7686 -1.0592
  493SOL    HW2 1971   0.157   2.961   0.322 -0.7649  2.0784 -0.3759
  493SOL     MW 1972   0.135   2.930   0.404 -0.4588  0.2671 -0.5978
  494SOL     OW 1973   0.439   2.409   1.773 -0.3071 -0.2628 -0.5889
  494SOL    HW1 1974   0.404   2.321   1.810 -1.6287  1.5910 -0.0149
  494SOL    HW2 1975   0.464   2.394   1.681 -0.1191  1.5460  0.6048
  494SOL     MW 1976   0.438   2.396   1.766 -0.4566  0.2205 -0.3557
  495SOL     OW 1977   2.895   1.661   2.719 -0.4333  0.2582  0.1147
  495SOL    HW1 1978   2.899   1.745   2.770 -0.7468  1.1990  0.9617
  495SOL    HW2 1979   2.919   1.582   2.768 -2.2649 -1.9938 -1.3908
  495SOL     MW 1980   2.898   1.661   2.732 -0.7164  0.0852  0.0278
  496SOL     OW 1981   2.853   2.309   2.638  0.0662  0.3771 -0.3210
  496SOL    HW1 1982   2.874   2.225   2.679 -0.8086 -0.8389  0.2032
  496SOL    HW2 1983   2.925   2.358   2.677  0.0566 -0.7940  0.4490
  496SOL     MW 1984   2.865   2.305   2.649 -0.0505  0.0621 -0.1502
  497SOL     OW 1985   1.503   2.307   2.517  0.4115  0.0359  0.8762
  497SOL    HW1 1986   1.489   2.268   2.431  1.6647  0.8541  0.2762
  497SOL    HW2 1987   1.478   2.244   2.578  0.0235  3.1129 -0.4753
  497SOL     MW 1988   1.498   2.294   2.513  0.5256  0.5499  0.6187
  498SOL     OW 1989   1.592   2.728   2.250 -0.3854 -0.4890  0.3063
  498SOL    HW1 1990   1.580   2.631   2.242 -0.6811  1.7303  2.5452
  498SOL    HW2 1991   1.660   2.730   2.316 -2.1384 -1.7182 -1.5722
  498SOL     MW 1992   1.599   2.716   2.257 -0.6557 -0.3584  0.3539
  499SOL     OW 1993   0.926   0.155  -0.002 -0.4900  0.0648 -0.3102
  499SOL    HW1 1994   0.863   0.173   0.066  3.3494  0.6765  0.3253
  499SOL    HW2 1995   0.905   0.065  -0.017  0.8682  3.1250  1.8509
  499SOL     MW 1996   0.915   0.146   0.005  0.1958  0.5493  0.0588
  500SOL     OW 1997   1.008   2.444   2.787 -0.3651  0.0422  0.3020
  500SOL    HW1 1998   1.060   2.443   2.866  0.6579  1.3216 -0.6206
  500SOL    HW2 1999   0.938   2.502   2.813 -2.1363 -0.3220  0.1488
  500SOL     MW 2000   1.006   2.452   2.801 -0.4638  0.1629  0.1600
  501SOL     OW 2001   1.746   2.232   3.067  0.2315  0.2921  0.0991
  501SOL    HW1 2002   1.728   2.312   3.113 -0.2120  0.2013 -0.0387
  501SOL    HW2 2003   1.835   2.203   3.087  0.2100  1.8079  0.4894
  501SOL     MW 2004   1.755   2.239   3.076  0.1701  0.4801  0.1324
  502SOL     OW 2005   0.113   2.800   2.933 -0.1537  0.3478  0.3052
  502SOL    HW1 2006   0.051   2.733   2.900 -0.8273  0.1690 -0.0586
  502SOL    HW2 2007   0.137   2.855   2.853 -0.5895 -0.1003 -1.5941
  502SOL     MW 2008   0.108   2.799   2.918 -0.3001  0.2651  0.0066
  503SOL     OW 2009   1.136   2.616   2.060 -0.1202  0.1601 -0.5700
  503SOL    HW1 2010   1.202   2.606   1.987  0.0305 -0.8199  2.4414
  503SOL    HW2 2011   1.054   2.614   2.008 -1.3842 -1.7531  0.4533
  503SOL     MW 2012   1.134   2.614   2.044 -0.2671 -0.2216 -0.0377
  504SOL     OW 2013   0.093   2.647   2.054  0.2058 -0.0959 -0.1052
  504SOL    HW1 2014   0.180   2.646   2.012  0.4285 -0.4701 -2.3799
  504SOL    HW2 2015   0.075   2.556   2.071 -0.9712  1.6343  0.2649
  504SOL     MW 2016   0.102   2.635   2.051  0.0799  0.0830 -0.3565
  505SOL     OW 2017   1.642   2.677   2.725  0.1742 -0.2568 -0.1907
  505SOL    HW1 2018   1.677   2.687   2.632 -0.2215 -0.0250  0.2021
  505SOL    HW2 2019   1.605   2.764   2.748  0.9769  0.3476  0.5456
  505SOL     MW 2020   1.642   2.690   2.716  0.2279 -0.1465 -0.0418
  506SOL     OW 2021   1.624   0.029   2.857  0.4302 -0.6367  0.6900
  506SOL    HW1 2022   1.635  -0.043   2.924  0.8994 -1.2758 -1.1123
  506SOL    HW2 2023   1.669  -0.011   2.779  2.1012  1.0101 -2.4482
  506SOL     MW 2024   1.631   0.014   2.855  0.7126 -0.5038  0.0382
  507SOL     OW 2025   0.891   2.686   2.865  0.6616 -0.1899  0.3080
  507SOL    HW1 2026   0.929   2.741   2.798  1.1594 -1.1951 -0.3650
  507SOL    HW2 2027   0.796   2.682   2.848  1.1251  1.0754  3.4368
  507SOL     MW 2028   0.884   2.693   2.854  0.7884 -0.1556  0.6320
  508SOL     OW 2029   1.247   2.117   2.530 -0.3697  0.0391 -0.0034
  508SOL    HW1 2030   1.305   2.121   2.608 -1.5678 -0.4025  1.1098
  508SOL    HW2 2031   1.172   2.171   2.545  2.1655 -2.2463 -1.0481
  508SOL     MW 2032   1.245   2.125   2.543 -0.1933 -0.3207  0.0056
  509SOL     OW 2033   0.632   2.632   2.792  0.7657 -0.0319 -0.3918
  509SOL    HW1 2034   0.629   2.575   2.722 -1.0623  3.2484  1.8052
  509SOL    HW2 2035   0.579   2.712   2.767 -1.1211 -1.4974 -1.4403
  509SOL     MW 2036   0.625   2.635   2.780  0.2755  0.2075 -0.2403
  510SOL     OW 2037   1.566   2.607   1.651  0.3099  0.2696 -0.5920
  510SOL    HW1 2038   1.602   2.680   1.605 -0.3945 -2.8116  1.7358
  510SOL    HW2 2039   1.514   2.650   1.729 -0.7243  0.3039 -2.6078
  510SOL     MW 2040   1.564   2.622   1.655  0.0805 -0.1324 -0.5508
  511SOL     OW 2041   0.379   2.612   2.530  0.3404  0.1829 -0.5508
  511SOL    HW1 2042   0.465   2.579   2.542 -0.1734  0.5125  0.4747
  511SOL    HW2 2043   0.375   2.607   2.431  1.6049  2.3737 -0.7452
  511SOL     MW 2044   0.390   2.607   2.519  0.4395  0.5154 -0.4412
  512SOL     OW 2045   0.999   2.036   2.889 -0.7610 -0.1416 -0.2825
  512SOL    HW1 2046   0.916   2.068   2.933  0.0018  0.2388  4.3997
  512SOL    HW2 2047   1.035   1.952   2.922  1.2168  0.8452  0.7153
  512SOL     MW 2048   0.993   2.029   2.899 -0.3994  0.0388  0.4669
  513SOL     OW 2049   1.694   2.456   2.210 -0.6491 -0.0402 -0.1941
  513SOL    HW1 2050   1.750   2.504   2.137 -0.0480  1.1287 -1.7375
  513SOL    HW2 2051   1.743   2.428   2.291  1.0018  0.3204  0.3673
  513SOL     MW 2052   1.708   2.459   2.211 -0.3520  0.1616 -0.3237
  514SOL     OW 2053   0.243   2.399   2.672  0.3511  0.6295  0.2995
  514SOL    HW1 2054   0.305   2.475   2.655  1.6880  0.4764  2.3813
  514SOL    HW2 2055   0.287   2.357   2.747  1.2294 -0.4116  1.0941
  514SOL     MW 2056   0.257   2.404   2.679  0.6434  0.4719  0.6790
  515SOL     OW 2057   1.066   2.059   1.928 -0.2397  0.8838  0.2401
  515SOL    HW1 2058   1.051   2.155   1.914  1.6798 -0.0077 -0.0385
  515SOL    HW2 2059   1.149   2.055   1.971  0.5434  1.1446  1.7135
  515SOL     MW 2060   1.075   2.071   1.932  0.1169  0.8006  0.3978
  516SOL     OW 2061   1.412   2.500   2.962  0.0522 -0.3595  0.4108
  516SOL    HW1 2062   1.431   2.513   2.870 -0.3357 -2.4945 -0.2432
  516SOL    HW2 2063   1.317   2.515   2.968 -1.5076 -0.2942  1.4575
  516SOL     MW 2064   1.402   2.504   2.951 -0.2048 -0.6326  0.4626
  517SOL     OW 2065   0.604   2.404   2.266  0.1756  0.4689  0.2472
  517SOL    HW1 2066   0.533   2.459   2.303  0.6399  0.7869 -1.5204
  517SOL    HW2 2067   0.562   2.327   2.214 -3.1237 -1.5440 -4.5049
  517SOL     MW 2068   0.589   2.401   2.264 -0.1985  0.2453 -0.6130
  518SOL     OW 2069   1.842   0.044   0.004  0.6677  0.6597  0.2231
  518SOL    HW1 2070   1.787   0.110   0.052 -2.4414 -1.1383  0.2963
  518SOL    HW2 2071   1.797  -0.043   0.013 -1.1242 -1.8667  2.9178
  518SOL     MW 2072   1.829   0.041   0.011  0.0211  0.0891  0.5883
  519SOL     OW 2073   0.712   2.532   1.725  0.1461 -0.2856 -0.2780
  519SOL    HW1 2074   0.727   2.432   1.727 -0.4074 -2.3571 -1.5011
  519SOL    HW2 2075   0.619   2.534   1.734 -0.1285 -1.0436  1.3795
  519SOL     MW 2076   0.701   2.519   1.726  0.0369 -0.6589 -0.2207
  520SOL     OW 2077   1.207   2.200   2.957  0.0378  0.4544 -0.0015
  520SOL    HW1 2078   1.130   2.138   2.941 -1.8040  0.0182 -1.7107
  520SOL    HW2 2079   1.266   2.144   3.013  0.6032 -1.3488  0.4513
  520SOL     MW 2080   1.205   2.185   2.962 -0.1306  0.1589 -0.1672
  521SOL     OW 2081   1.761   2.037   2.235 -0.2350 -0.4801 -0.3672
  521SOL    HW1 2082   1.757   2.070   2.142 -2.6004 -2.6494 -0.1560
  521SOL    HW2 2083   1.744   1.941   2.236 -1.4941 -0.7434 -0.1985
  521SOL     MW 2084   1.758   2.029   2.223 -0.7132 -0.8011 -0.3170
  522SOL     OW 2085   2.914   2.512   2.274  0.0904  0.1725  0.4803
  522SOL    HW1 2086   3.007   2.482   2.284  2.1853 -1.7359 -1.9670
  522SOL    HW2 2087   2.926   2.602   2.278  1.4030 -2.4886 -0.4670
  522SOL     MW 2088   2.928   2.520   2.276  0.5400 -0.4304  0.0324
  523SOL     OW 2089   0.905   1.509   2.136  0.2096 -0.3761 -0.5195
  523SOL    HW1 2090   0.855   1.556   2.062 -1.2725 -1.4012  0.8076
  523SOL    HW2 2091   0.943   1.443   2.078  0.7496  1.7010 -1.2249
  523SOL     MW 2092   0.904   1.506   2.119  0.0853 -0.2373 -0.4375
  524SOL     OW 2093   0.593   2.389   2.940 -0.5553  0.0751  0.3838
  524SOL    HW1 2094   0.612   2.463   2.883 -1.2205 -0.3939 -2.3959
  524SOL    HW2 2095   0.651   2.315   2.914  2.8431 -1.0401 -0.7098
  524SOL     MW 2096   0.603   2.389   2.929 -0.1947 -0.1339 -0.1272
  525SOL     OW 2097   0.459   2.197   2.136 -0.0699  0.6446  0.0004
  525SOL    HW1 2098   0.425   2.131   2.207 -2.0001 -2.9088 -0.8736
  525SOL    HW2 2099   0.516   2.152   2.072 -0.9399  0.3993  0.2320
  525SOL     MW 2100   0.462   2.182   2.137 -0.4393  0.1434 -0.0844
  526SOL     OW 2101   0.693   2.121   1.987  0.3569 -0.1962  0.0156
  526SOL    HW1 2102   0.709   2.171   1.911 -1.9003 -4.1142  4.0853
  526SOL    HW2 2103   0.762   2.133   2.054 -0.7275  1.5540 -2.8274
  526SOL     MW 2104   0.704   2.129   1.986 -0.0840 -0.4822  0.1775
  527SOL     OW 2105   1.323   1.941   2.076  0.4059  0.5085  0.2161
  527SOL    HW1 2106   1.335   1.918   2.165  0.7700  4.1414 -1.1184
  527SOL    HW2 2107   1.333   1.869   2.020 -0.5972  1.1584  1.3314
  527SOL     MW 2108   1.326   1.929   2.081  0.3216  1.0736  0.1872
  528SOL     OW 2109   0.682   2.919   2.920  0.2775 -0.1863  0.0134
  528SOL    HW1 2110   0.668   3.013   2.937 -1.0367 -0.0936  0.4356
  528SOL    HW2 2111   0.630   2.908   2.831 -0.3116 -2.8436 -0.8853
  528SOL     MW 2112   0.673   2.930   2.910  0.0264 -0.5247 -0.0495
  529SOL     OW 2113   0.938   2.332   1.899 -0.0052  0.3214 -0.3374
  529SOL    HW1 2114   0.987   2.330   1.980  2.4771 -2.6110 -0.3991
  529SOL    HW2 2115   1.005   2.378   1.840  0.6596  1.2727  1.5498
  529SOL     MW 2116   0.953   2.338   1.902  0.4100  0.0600 -0.0966
  530SOL     OW 2117   1.138   2.449   3.057  0.2460 -0.2168 -0.2050
  530SOL    HW1 2118   1.085   2.505   3.116  1.2966  1.9111  2.5406
  530SOL    HW2 2119   1.118   2.362   3.089 -2.3215  3.1280  1.2417
  530SOL     MW 2120   1.129   2.445   3.069  0.0458  0.5053  0.3481
  531SOL     OW 2121   0.971   1.902   2.650  0.8363  0.2566 -0.0229
  531SOL    HW1 2122   0.989   1.950   2.733 -3.2096  0.6862 -0.8829
  531SOL    HW2 2123   0.925   1.815   2.669 -1.7390 -1.2318 -0.2896
  531SOL     MW 2124   0.968   1.897   2.664 -0.0373  0.1169 -0.1716
  532SOL     OW 2125   1.702   0.294   2.836 -0.0958  0.3679 -0.0375
  532SOL    HW1 2126   1.683   0.204   2.844 -0.2382  2.4999  0.9570
  532SOL    HW2 2127   1.790   0.300   2.892  0.9981  1.8292  0.5426
  532SOL     MW 2128   1.711   0.283   2.844  0.0298  0.8420  0.1702
  533SOL     OW 2129   1.800   2.642   2.982 -0.2278 -0.1038  0.0769
  533SOL    HW1 2130   1.772   2.580   3.050 -1.7414  0.0762 -0.3615
  533SOL    HW2 2131   1.736   2.630   2.906 -2.8927 -1.7407 -1.4824
  533SOL     MW 2132   1.788   2.632   2.981 -0.7791 -0.2960 -0.1867
  534SOL     OW 2133   1.772   2.391   2.458  0.5330 -0.4186  0.3235
  534SOL    HW1 2134   1.693   2.363   2.502  0.5962 -2.7829  1.2587
  534SOL    HW2 2135   1.831   2.398   2.541  0.8668 -2.8162 -2.9625
  534SOL     MW 2136   1.769   2.388   2.475  0.5854 -1.0468  0.0133
  535SOL     OW 2137   1.829   2.325   1.956  0.1188 -0.1825  0.2771
  535SOL    HW1 2138   1.797   2.328   1.867 -0.2505  1.5869 -0.0401
  535SOL    HW2 2139   1.924   2.332   1.936  1.5937 -0.7839  0.2964
  535SOL     MW 2140   1.837   2.326   1.942  0.2647 -0.0284  0.2378
  536SOL     OW 2141   0.470   1.830   2.019  0.0597  0.1955  0.0150
  536SOL    HW1 2142   0.457   1.793   1.934 -0.7941 -0.4266 -0.4459
  536SOL    HW2 2143   0.562   1.835   2.038 -2.4982  0.7432  0.7941
  536SOL     MW 2144   0.480   1.825   2.011 -0.3905  0.1857  0.0570
  537SOL     OW 2145   1.118   0.184   2.895  0.1137  0.3453 -0.0887
  537SOL    HW1 2146   1.048   0.167   2.956  0.2714  1.8134  2.4976
  537SOL    HW2 2147   1.117   0.282   2.874 -0.4518  2.6775 -0.0381
  537SOL     MW 2148   1.109   0.195   2.900  0.0599  0.8467  0.2592
  538SOL     OW 2149   1.342   0.055   2.970  0.8969  0.6249 -0.0795
  538SOL    HW1 2150   1.274   0.119   2.944  0.6219  1.3640  1.7864
  538SOL    HW2 2151   1.421   0.074   2.916  1.2719  0.4768 -1.5860
  538SOL     MW 2152   1.344   0.066   2.960  0.9101  0.7029 -0.0321
  539SOL     OW 2153   0.772   2.751   2.509 -0.3788  0.2855  0.4222
  539SOL    HW1 2154   0.856   2.785   2.542 -0.1107  1.9381 -0.9337
  539SOL    HW2 2155   0.775   2.654   2.525 -0.1590 -2.6674 -0.1323
  539SOL     MW 2156   0.783   2.743   2.516 -0.3144  0.1139  0.1701
  540SOL     OW 2157   0.352   2.270   2.894  0.0797  0.6341 -0.1104
  540SOL    HW1 2158   0.424   2.310   2.942 -0.0638  1.1912 -2.2741
  540SOL    HW2 2159   0.305   2.220   2.956 -0.3265  0.4723 -1.0136
  540SOL     MW 2160   0.355   2.269   2.909  0.0071  0.6863 -0.5151
  541SOL     OW 2161   0.143   2.911   2.209  0.0331  0.3089 -0.3276
  541SOL    HW1 2162   0.154   2.848   2.140  0.4306 -0.5268  0.4246
  541SOL    HW2 2163   0.177   2.867   2.293 -0.0585 -0.6987  1.2367
  541SOL     MW 2164   0.149   2.897   2.211  0.0735  0.0657 -0.0220
  542SOL     OW 2165   1.024   2.258   2.585  0.6960  0.3150 -0.8561
  542SOL    HW1 2166   0.975   2.193   2.624  1.9251  3.0609 -2.3205
  542SOL    HW2 2167   1.036   2.323   2.656  1.8116  0.3941 -0.0574
  542SOL     MW 2168   1.019   2.258   2.600  1.0053  0.6877 -0.9440
  543SOL     OW 2169   1.415   2.517   2.681 -0.4389  0.4414  0.1803
  543SOL    HW1 2170   1.432   2.436   2.625 -0.1933 -2.3592 -1.8281
  543SOL    HW2 2171   1.492   2.574   2.680  0.8278  1.6652 -0.8343
  543SOL     MW 2172   1.427   2.514   2.674 -0.2394  0.2334 -0.2186
  544SOL     OW 2173   0.577   0.233   2.702  0.0865  0.2673 -0.0442
  544SOL    HW1 2174   0.477   0.230   2.731  0.6404 -1.0894 -2.2557
  544SOL    HW2 2175   0.580   0.181   2.623  1.6067 -0.7396 -0.3907
  544SOL     MW 2176   0.564   0.226   2.695  0.3602 -0.0445 -0.3817
  545SOL     OW 2177   1.514   2.167   2.256  0.2088 -0.1291 -0.1171
  545SOL    HW1 2178   1.478   2.165   2.168 -0.4385  0.7632 -0.0989
  545SOL    HW2 2179   1.605   2.122   2.254  2.8425  1.4748 -0.4390
  545SOL     MW 2180   1.521   2.161   2.244  0.4709  0.2002 -0.1572
  546SOL     OW 2181   2.959   2.047   0.119 -0.0671  0.2465 -0.3485
  546SOL    HW1 2182   2.953   2.124   0.053 -2.8308  3.7983  1.0293
  546SOL    HW2 2183   3.044   2.000   0.112  0.1220 -2.3095 -0.2163
  546SOL     MW 2184   2.969   2.051   0.110 -0.4068  0.3779 -0.1493
  547SOL     OW 2185   0.226   2.984   0.144  0.0551 -0.3154  0.2008
  547SOL    HW1 2186   0.266   3.027   0.076  1.7067 -1.1838  3.2633
  547SOL    HW2 2187   0.233   2.889   0.118  1.1724 -2.3017  0.5699
  547SOL     MW 2188   0.232   2.977   0.132  0.4204 -0.6921  0.6536
  548SOL     OW 2189   0.313   2.544   0.252 -0.0112  0.3066 -0.4851
  548SOL    HW1 2190   0.296   2.609   0.186  2.8282 -0.8452 -1.7958
  548SOL    HW2 2191   0.257   2.473   0.228  2.1276  2.6543 -0.5019
  548SOL     MW 2192   0.303   2.543   0.240  0.6456  0.4644 -0.6603
  549SOL     OW 2193   0.736   1.876   2.084  0.9508  0.2446  0.3845
  549SOL    HW1 2194   0.706   1.963   2.044  0.9008 -0.3022  1.1081
  549SOL    HW2 2195   0.792   1.892   2.163  0.1541 -2.6304  0.1447
  549SOL     MW 2196   0.740   1.890   2.089  0.8391 -0.2068  0.4483
  550SOL     OW 2197   1.823   1.753   2.513 -0.3982 -0.0495 -0.2565
  550SOL    HW1 2198   1.807   1.754   2.421  0.7714 -1.5103  1.6127
  550SOL    HW2 2199   1.790   1.834   2.539  0.6732 -1.3830 -1.5443
  550SOL     MW 2200   1.817   1.764   2.504 -0.1025 -0.4182 -0.1798
  551SOL     OW 2201   0.871   2.352   0.217  0.5052 -0.0951  0.4051
  551SOL    HW1 2202   0.960   2.380   0.242  1.5990  1.6259  3.3883
  551SOL    HW2 2203   0.877   2.260   0.192 -1.5804 -0.2325  2.9818
  551SOL     MW 2204   0.883   2.344   0.217  0.3743  0.1139  1.1387
  552SOL     OW 2205   1.738   1.774   2.232  0.0747  0.6118  0.0800
  552SOL    HW1 2206   1.661   1.721   2.257 -1.9606  1.5606 -1.0548
  552SOL    HW2 2207   1.769   1.742   2.141  2.9194 -2.1097 -4.8320
  552SOL     MW 2208   1.732   1.763   2.223  0.1815  0.3779 -0.7178
  553SOL     OW 2209   1.234   2.326   1.497 -0.0731  0.2424  0.0464
  553SOL    HW1 2210   1.268   2.234   1.495 -0.8921 -2.0597  0.6550
  553SOL    HW2 2211   1.310   2.379   1.468  0.4280  2.2658 -1.9600
  553SOL     MW 2212   1.249   2.321   1.493 -0.1150  0.2056 -0.1381
  554SOL     OW 2213   0.584   2.868   2.683  0.1169 -0.3503  0.1078
  554SOL    HW1 2214   0.540   2.943   2.631  1.0026  0.4036  1.1569
  554SOL    HW2 2215   0.639   2.820   2.618  2.5165 -0.0223  1.7238
  554SOL     MW 2216   0.585   2.872   2.668  0.5504 -0.2076  0.4595
  555SOL     OW 2217   0.605   2.467   2.579 -0.4019 -0.2488  0.1044
  555SOL    HW1 2218   0.589   2.367   2.587  1.5863 -3.0750  0.1473
  555SOL    HW2 2219   0.700   2.474   2.549  4.0019 -1.6404 -2.7024
  555SOL     MW 2220   0.616   2.455   2.576  0.4414 -0.8053 -0.2603
  556SOL     OW 2221   0.936   1.783   0.174  0.1832 -0.1397  0.0711
  556SOL    HW1 2222   0.942   1.781   0.077  0.7518  1.0136 -0.1167
  556SOL    HW2 2223   1.019   1.826   0.206  0.9791  0.3779  1.5013
  556SOL     MW 2224   0.947   1.788   0.166  0.3632  0.0808  0.2350
  557SOL     OW 2225   0.949   2.713   0.511  1.0547  0.1671  0.2827
  557SOL    HW1 2226   0.983   2.671   0.435 -1.1797 -0.5352  1.7284
  557SOL    HW2 2227   0.884   2.769   0.472 -1.9147  0.0978 -0.8853
  557SOL     MW 2228   0.945   2.715   0.496  0.3681  0.0653  0.3193
  558SOL     OW 2229   0.256   2.161   0.052 -0.0409 -0.6828 -0.2103
  558SOL    HW1 2230   0.208   2.083   0.079  1.3342 -2.1646  0.7549
  558SOL    HW2 2231   0.183   2.221   0.053 -2.0928 -2.4245 -1.3344
  558SOL     MW 2232   0.240   2.158   0.056 -0.1302 -1.1081 -0.2313
  559SOL     OW 2233   1.124   2.300   2.099 -0.2828  0.5025 -0.1950
  559SOL    HW1 2234   1.126   2.392   2.133  0.8078  0.2563 -0.7735
  559SOL    HW2 2235   1.124   2.232   2.173  1.1936 -2.6139  1.0682
  559SOL     MW 2236   1.124   2.303   2.113  0.0559  0.0588 -0.1046
  560SOL     OW 2237   1.926   2.854   0.046 -0.1414  0.5024  0.3413
  560SOL    HW1 2238   1.993   2.900  -0.013  1.5226  2.7502  0.8135
  560SOL    HW2 2239   1.914   2.761   0.025 -0.1639  0.8261  0.8329
  560SOL     MW 2240   1.933   2.848   0.035  0.0752  0.8417  0.4684
  561SOL     OW 2241   0.453   2.119   0.231  0.1222  0.1373  0.0797
  561SOL    HW1 2242   0.380   2.115   0.164 -1.0050  3.4887  0.0960
  561SOL    HW2 2243   0.472   2.219   0.233 -0.1821 -3.5039  0.9931
  561SOL     MW 2244   0.446   2.132   0.223 -0.0667  0.0990  0.2024
  562SOL     OW 2245   0.864   2.181   2.222 -0.1534 -0.2051  0.1101
  562SOL    HW1 2246   0.853   2.263   2.275  1.3527  0.8417  0.0856
  562SOL    HW2 2247   0.958   2.149   2.234  0.2566 -2.6487 -1.1918
  562SOL     MW 2248   0.875   2.188   2.231  0.0994 -0.3894 -0.0649
  563SOL     OW 2249   1.138   0.314   0.631 -0.3435 -0.2293  0.5396
  563SOL    HW1 2250   1.078   0.293   0.560  0.3670 -0.6378  0.2541
  563SOL    HW2 2251   1.206   0.246   0.636  0.1024  0.1343  4.2776
  563SOL     MW 2252   1.139   0.302   0.622 -0.1909 -0.2353  0.9951
  564SOL     OW 2253   1.084   2.536   2.329 -0.4558 -0.0009 -0.1775
  564SOL    HW1 2254   1.115   2.590   2.249  0.6045  0.1614 -0.0791
  564SOL    HW2 2255   1.140   2.555   2.406 -1.3570 -0.0462 -0.7871
  564SOL     MW 2256   1.095   2.546   2.328 -0.4348  0.0145 -0.2449
  565SOL     OW 2257   2.876   2.677   2.593  0.1037  0.5550 -0.0367
  565SOL    HW1 2258   2.934   2.725   2.533  0.9047 -2.0966  3.9707
  565SOL    HW2 2259   2.794   2.656   2.549 -2.7889 -1.1142  1.9911
  565SOL     MW 2260   2.873   2.681   2.579 -0.1723 -0.0151  0.7596
  566SOL     OW 2261   2.162   1.841   2.425 -0.1332 -0.1026  0.2929
  566SOL    HW1 2262   2.210   1.828   2.343  0.6836 -0.8919  1.6363
  566SOL    HW2 2263   2.205   1.922   2.461 -1.9932 -1.1074  0.0966
  566SOL     MW 2264   2.174   1.850   2.419 -0.2709 -0.3393  0.4442
  567SOL     OW 2265   1.134   2.956   3.046 -0.2283 -0.0151 -0.3389
  567SOL    HW1 2266   1.207   3.012   3.053 -0.5635  2.4049 -1.9231
  567SOL    HW2 2267   1.143   2.901   2.968 -0.9061  0.0069 -0.0562
  567SOL     MW 2268   1.145   2.956   3.037 -0.3619  0.3071 -0.5106
  568SOL     OW 2269   1.582   2.038   2.929  0.1656  0.6159 -0.0129
  568SOL    HW1 2270   1.638   2.109   2.954 -1.0587 -0.8636 -0.7231
  568SOL    HW2 2271   1.635   2.012   2.851  2.0213  0.1975 -1.7859
  568SOL     MW 2272   1.596   2.044   2.922  0.2489  0.3655 -0.3405
  569SOL     OW 2273   0.212   2.236   2.446 -0.2043  0.2026  0.2941
  569SOL    HW1 2274   0.151   2.291   2.389  1.0756 -2.2673 -0.8164
  569SOL    HW2 2275   0.212   2.289   2.527 -1.1747  0.2628  0.9121
  569SOL     MW 2276   0.204   2.250   2.449 -0.1635 -0.1154  0.2291
  570SOL     OW 2277   1.488   0.430   0.469  0.2487  0.1895 -0.4492
  570SOL    HW1 2278   1.417   0.495   0.480 -1.6463 -0.0150  1.3919
  570SOL    HW2 2279   1.553   0.439   0.544 -1.1489  0.5527  3.2711
  570SOL     MW 2280   1.487   0.440   0.481 -0.1857  0.2104  0.2846
  571SOL     OW 2281   1.495   2.413   2.003  0.0255 -0.3790 -0.1519
  571SOL    HW1 2282   1.557   2.426   2.076  0.4559  0.2567  1.5470
  571SOL    HW2 2283   1.481   2.322   1.996 -0.3991  0.2368  1.8801
  571SOL     MW 2284   1.501   2.403   2.011  0.0263 -0.2139  0.3403
  572SOL     OW 2285   0.933   2.622   0.025 -0.3120 -1.0185 -0.9125
  572SOL    HW1 2286   0.928   2.637  -0.068 -0.5706 -1.5080  0.5714
  572SOL    HW2 2287   0.847   2.586   0.048 -1.0418 -0.5508 -0.2117
  572SOL     MW 2288   0.921   2.619   0.016 -0.4424 -1.0214 -0.6243
  573SOL     OW 2289   1.159   2.363   0.262 -0.0755 -0.2149  0.0698
  573SOL    HW1 2290   1.247   2.355   0.215 -1.9284  1.4855 -0.1578
  573SOL    HW2 2291   1.143   2.456   0.280  0.2667  3.0690  1.2284
  573SOL     MW 2292   1.168   2.374   0.258 -0.2748  0.4427  0.1927
  574SOL     OW 2293   1.053   2.614   0.279  0.1850 -0.0881 -0.5226
  574SOL    HW1 2294   1.131   2.675   0.285  1.3064 -0.6365 -0.3740
  574SOL    HW2 2295   0.996   2.640   0.208  0.8309  0.3203  0.5337
  574SOL     MW 2296   1.056   2.626   0.270  0.4182 -0.1065 -0.3636
  575SOL     OW 2297   3.085   2.317   1.790  0.5614 -0.0511 -0.2595
  575SOL    HW1 2298   3.093   2.242   1.726 -1.9887 -1.8767 -0.5521
  575SOL    HW2 2299   3.155   2.376   1.763 -0.1038  0.3738  1.0130
  575SOL     MW 2300   3.095   2.315   1.778  0.1372 -0.2359 -0.1302
  576SOL     OW 2301   2.861   1.799   2.030  1.0644 -0.2270  0.2778
  576SOL    HW1 2302   2.866   1.865   1.956 -0.9355  1.2113  0.2403
  576SOL    HW2 2303   2.766   1.781   2.028  1.3529 -0.9242 -0.1189
  576SOL     MW 2304   2.849   1.805   2.020  0.8386 -0.1292  0.2205
  577SOL     OW 2305   2.135   0.287   0.065  0.1740 -0.4798 -0.7820
  577SOL    HW1 2306   2.061   0.304   0.009 -0.7129 -1.6694  1.4060
  577SOL    HW2 2307   2.095   0.251   0.148 -2.2074 -1.1358  2.9258
  577SOL     MW 2308   2.120   0.284   0.069 -0.2572 -0.7233 -0.0041
  578SOL     OW 2309   1.927   2.047   2.458 -0.5129  0.5614 -0.1103
  578SOL    HW1 2310   1.886   2.069   2.378  1.5670 -1.2887  1.8381
  578SOL    HW2 2311   1.989   1.979   2.431 -1.8497  0.7389 -0.8096
  578SOL     MW 2312   1.930   2.041   2.444 -0.4148  0.3407  0.0545
  579SOL     OW 2313   0.862   2.472   2.510  0.5176  0.0596 -0.1384
  579SOL    HW1 2314   0.898   2.386   2.533 -0.9875 -1.8659  0.6298
  579SOL    HW2 2315   0.921   2.510   2.446 -1.8893  1.3732 -0.8778
  579SOL     MW 2316   0.874   2.466   2.505  0.0014 -0.0212 -0.1346
  580SOL     OW 2317   0.855   2.996   0.007  0.2707 -0.1578 -0.0138
  580SOL    HW1 2318   0.944   2.962  -0.007 -0.8155 -0.1766 -0.2337
  580SOL    HW2 2319   0.813   2.948  -0.065 -1.7752  0.8429  1.2793
  580SOL     MW 2320   0.861   2.986  -0.004 -0.1425 -0.0282  0.1278
  581SOL     OW 2321   1.140   2.450   1.716 -0.1616  0.3244 -0.7935
  581SOL    HW1 2322   1.216   2.484   1.763 -1.6395 -1.9859 -0.6071
  581SOL    HW2 2323   1.172   2.423   1.630  0.0409 -1.1959 -1.0294
  581SOL     MW 2324   1.154   2.451   1.710 -0.3299 -0.1810 -0.8001
  582SOL     OW 2325   3.090   2.875   2.517 -0.4914  0.1841  0.1808
  582SOL    HW1 2326   3.063   2.955   2.564 -0.6944 -2.4975 -0.6054
  582SOL    HW2 2327   3.187   2.860   2.520  0.9532  2.1632 -1.7697
  582SOL     MW 2328   3.100   2.883   2.524 -0.3276  0.0914 -0.1803
  583SOL     OW 2329   1.969   2.397   2.654 -0.1325 -0.2195 -0.3889
  583SOL    HW1 2330   2.045   2.414   2.598  0.5454 -3.0614  0.4860
  583SOL    HW2 2331   1.976   2.303   2.686 -2.4272 -0.7396 -1.9760
  583SOL     MW 2332   1.980   2.387   2.651 -0.3458 -0.6631 -0.4829
  584SOL     OW 2333   0.211   1.901   2.103 -0.6089  0.1943  0.8097
  584SOL    HW1 2334   0.294   1.855   2.113  1.0890 -2.1641  1.0108
  584SOL    HW2 2335   0.240   1.979   2.154 -0.1532 -0.4960  0.8757
  584SOL     MW 2336   0.225   1.905   2.111 -0.3247 -0.2080  0.8449
  585SOL     OW 2337   1.444   2.659   0.088 -0.2156 -0.1518  0.3650
  585SOL    HW1 2338   1.443   2.611   0.008  1.3893  1.6918 -1.8835
  585SOL    HW2 2339   1.360   2.652   0.127 -1.2610 -0.3564  1.6415
  585SOL     MW 2340   1.433   2.651   0.083 -0.1418  0.0644  0.2367
  586SOL     OW 2341   1.402   2.832   2.467  0.2576 -0.6901  0.4528
  586SOL    HW1 2342   1.441   2.805   2.388  0.3413  2.8221 -0.0851
  586SOL    HW2 2343   1.414   2.930   2.464  1.8943  3.1532  1.8978
  586SOL     MW 2344   1.409   2.841   2.456  0.4846  0.2804  0.5725
  587SOL     OW 2345   1.303   1.583   2.170  0.0873 -0.5696  0.2783
  587SOL    HW1 2346   1.304   1.513   2.239 -0.0890 -0.2019 -1.4199
  587SOL    HW2 2347   1.251   1.546   2.102  2.1788 -0.3602  0.3237
  587SOL     MW 2348   1.296   1.569   2.170  0.3400 -0.4934  0.0602
  588SOL     OW 2349   1.401   2.139   2.757 -0.2386 -0.1426 -0.4762
  588SOL    HW1 2350   1.459   2.087   2.815 -1.5364 -2.4421 -0.0960
  588SOL    HW2 2351   1.332   2.147   2.825 -1.6585 -0.5034  3.3322
  588SOL     MW 2352   1.399   2.134   2.774 -0.5971 -0.4936  0.0764
  589SOL     OW 2353   1.306   2.074   0.066  0.2655 -0.2870 -0.2678
  589SOL    HW1 2354   1.331   2.161   0.102 -0.2287  1.7335 -1.1020
  589SOL    HW2 2355   1.258   2.027   0.137  0.0682  1.8045  1.4887
  589SOL     MW 2356   1.303   2.079   0.080  0.1743  0.2555 -0.1461
  590SOL     OW 2357   0.434   2.624   2.262  0.2440  1.3105 -0.4327
  590SOL    HW1 2358   0.417   2.573   2.175 -0.7655 -0.9399 -0.3017
  590SOL    HW2 2359   0.517   2.668   2.243  1.3622 -0.4192 -0.5055
  590SOL     MW 2360   0.442   2.623   2.248  0.2583  0.7853 -0.4250
  591SOL     OW 2361   2.281   0.734   3.066  0.1353 -0.4103 -0.0169
  591SOL    HW1 2362   2.210   0.796   3.028  1.3345  2.0898  0.8003
  591SOL    HW2 2363   2.363   0.771   3.042  0.3809  1.1052 -1.4630
  591SOL     MW 2364   2.282   0.747   3.058  0.3259  0.1195 -0.0999
  592SOL     OW 2365   1.800   2.940   0.830 -0.2503 -0.4444 -0.0164
  592SOL    HW1 2366   1.789   3.007   0.760 -1.2441  0.5676  1.1305
  592SOL    HW2 2367   1.871   2.886   0.800 -0.6886 -0.5093  1.3007
  592SOL     MW 2368   1.808   2.942   0.817 -0.4393 -0.3195  0.3087
  593SOL     OW 2369   1.898   0.726   0.871  0.1848 -0.2357  0.6676
  593SOL    HW1 2370   1.826   0.725   0.808 -0.1129 -1.0567  0.1398
  593SOL    HW2 2371   1.923   0.636   0.898  3.4578  0.3208 -1.3925
  593SOL     MW 2372   1.892   0.714   0.867  0.5773 -0.2706  0.3261
  594SOL     OW 2373   2.772   1.167   1.351  0.3181  0.2571 -0.7346
  594SOL    HW1 2374   2.858   1.197   1.372  0.1135 -1.8238 -0.3108
  594SOL    HW2 2375   2.777   1.112   1.271 -0.8836 -0.6233 -1.1338
  594SOL     MW 2376   2.784   1.164   1.343  0.1326 -0.1336 -0.7313
  595SOL     OW 2377   0.509   0.969   0.744  0.0781  1.0592 -0.2447
  595SOL    HW1 2378   0.514   1.043   0.681 -4.7984 -0.2803  1.5421
  595SOL    HW2 2379   0.499   1.010   0.830  0.5031 -0.3831  0.9976
  595SOL     MW 2380   0.509   0.984   0.747 -0.5092  0.6922  0.1550
  596SOL     OW 2381   2.521   1.348   0.522  0.3315  0.3155  0.6342
  596SOL    HW1 2382   2.547   1.431   0.488 -1.5016  1.1226 -2.3173
  596SOL    HW2 2383   2.562   1.327   0.608  0.4225 -2.9301  0.4986
  596SOL     MW 2384   2.530   1.356   0.529  0.1016 -0.0062  0.2269
  597SOL     OW 2385   2.187   0.692   1.605  0.3322  0.1863 -0.0446
  597SOL    HW1 2386   2.191   0.639   1.682  1.4238  0.7051  1.0765
  597SOL    HW2 2387   2.131   0.633   1.550  0.2121  0.0671 -1.0977
  597SOL     MW 2388   2.180   0.678   1.608  0.4604  0.2390 -0.0356
  598SOL     OW 2389   2.590   0.976   2.881 -0.0893 -0.2419 -0.6631
  598SOL    HW1 2390   2.616   0.945   2.799  1.5341 -1.0133 -1.7706
  598SOL    HW2 2391   2.655   1.034   2.916  0.4050 -1.7833  2.2494
  598SOL     MW 2392   2.602   0.980   2.875  0.1901 -0.5470 -0.4250
  599SOL     OW 2393   2.923   0.412   2.085  0.6792 -0.0119 -0.1528
  599SOL    HW1 2394   2.913   0.407   2.180  0.6189 -1.1276 -0.1056
  599SOL    HW2 2395   2.977   0.497   2.069 -0.0741  1.7150  0.6112
  599SOL     MW 2396   2.928   0.422   2.095  0.5719  0.0687 -0.0457
  600SOL     OW 2397   1.915   1.762   0.887  0.0032 -0.3581 -0.1501
  600SOL    HW1 2398   1.933   1.768   0.984 -2.1481 -0.4381 -0.6820
  600SOL    HW2 2399   1.821   1.752   0.883  2.1742  1.2330  3.7278
  600SOL     MW 2400   1.905   1.761   0.899  0.0058 -0.1587  0.2914
  601SOL     OW 2401   2.512   0.799   0.828  0.4264 -0.7814 -0.3242
  601SOL    HW1 2402   2.516   0.815   0.923 -1.3894  2.2577  2.4869
  601SOL    HW2 2403   2.449   0.723   0.807 -1.5298  0.2153  0.1114
  601SOL     MW 2404   2.504   0.791   0.838 -0.0713 -0.2489  0.1042
  602SOL     OW 2405   2.295   1.952   0.826  0.3931 -0.3710 -0.0057
  602SOL    HW1 2406   2.264   1.864   0.860 -0.2900 -0.1358  1.8096
  602SOL    HW2 2407   2.216   1.990   0.792  0.4244  1.5266 -0.2085
  602SOL     MW 2408   2.280   1.945   0.826  0.3071 -0.0896  0.2071
  603SOL     OW 2409   3.069   1.373   1.819 -0.3856  0.2761 -0.0336
  603SOL    HW1 2410   3.098   1.417   1.898 -2.6985  0.4422 -0.4179
  603SOL    HW2 2411   3.063   1.277   1.839  1.4620 -2.0001  2.2112
  603SOL     MW 2412   3.072   1.366   1.832 -0.4470 -0.0023  0.2119
  604SOL     OW 2413   2.128   1.548   0.471  0.3670  0.0325  0.1298
  604SOL    HW1 2414   2.171   1.490   0.532 -0.7092  1.2641  1.6446
  604SOL    HW2 2415   2.053   1.578   0.517  4.1568 -1.6972 -2.7392
  604SOL     MW 2416   2.124   1.544   0.485  0.7250 -0.0332 -0.0489
  605SOL     OW 2417   2.651   1.530   0.826 -0.2831  0.1920 -0.2646
  605SOL    HW1 2418   2.604   1.598   0.771  0.7545  1.6799  0.8504
  605SOL    HW2 2419   2.615   1.440   0.808  3.0373 -0.4890 -1.0063
  605SOL     MW 2420   2.640   1.527   0.817  0.2919  0.2985 -0.2154
  606SOL     OW 2421   2.588   1.860   1.900  0.4000  0.1882 -0.3374
  606SOL    HW1 2422   2.496   1.863   1.920  0.7750 -1.5493  1.7944
  606SOL    HW2 2423   2.608   1.772   1.866 -0.3012 -1.6882  2.8354
  606SOL     MW 2424   2.579   1.849   1.898  0.3569 -0.2886  0.3625
  607SOL     OW 2425   2.351   1.028   3.046 -0.2179 -0.2911 -0.0993
  607SOL    HW1 2426   2.437   1.029   3.004  1.9707  2.3452  2.5511
  607SOL    HW2 2427   2.369   1.031   3.146  1.0405 -0.8037  1.4619
  607SOL     MW 2428   2.364   1.029   3.054  0.2369 -0.0109  0.4564
  608SOL     OW 2429   1.898   0.291   0.621  0.1232  0.1105  0.0220
  608SOL    HW1 2430   1.913   0.346   0.542  0.2322 -3.4272 -1.6142
  608SOL    HW2 2431   1.852   0.206   0.591 -4.2864  2.3737 -0.6344
  608SOL     MW 2432   1.894   0.287   0.606 -0.4442 -0.0576 -0.2805
  609SOL     OW 2433   2.094   2.012   3.049  0.0727  0.2511  0.2330
  609SOL    HW1 2434   2.016   1.956   3.065  0.1290  0.7575 -1.4100
  609SOL    HW2 2435   2.147   1.980   3.126  0.5144  0.4304  0.5519
  609SOL     MW 2436   2.091   2.000   3.062  0.1384  0.3416  0.0583
  610SOL     OW 2437   1.763   1.012   1.257 -0.3193 -0.1278  0.2817
  610SOL    HW1 2438   1.786   0.933   1.205  0.6300  1.7299  0.2216
  610SOL    HW2 2439   1.672   0.998   1.271  1.1868  1.5191 -2.6476
  610SOL     MW 2440   1.754   1.000   1.252  0.0046  0.3346 -0.1127
  611SOL     OW 2441   2.519   1.753   0.692  0.5466 -0.2288  0.0458
  611SOL    HW1 2442   2.489   1.800   0.772 -0.7036  3.2234 -0.6218
  611SOL    HW2 2443   2.492   1.810   0.617 -0.1990  3.4398 -0.5041
  611SOL     MW 2444   2.512   1.767   0.693  0.2833  0.7107 -0.1148
  612SOL     OW 2445   2.812   2.832   0.384  0.0312 -0.0550 -0.1275
  612SOL    HW1 2446   2.855   2.868   0.463 -1.7294 -0.1524  0.7822
  612SOL    HW2 2447   2.883   2.791   0.334 -0.6385 -0.8216  1.0573
  612SOL     MW 2448   2.827   2.831   0.388 -0.2895 -0.1690  0.1488
  613SOL     OW 2449   1.477   0.995   0.936 -0.1273  0.2645 -0.1354
  613SOL    HW1 2450   1.496   1.083   0.973  0.3548  1.1531 -0.3820
  613SOL    HW2 2451   1.520   0.940   1.002  0.7992  0.2455 -1.6367
  613SOL     MW 2452   1.485   1.000   0.950  0.0585  0.3793 -0.3660
  614SOL     OW 2453   1.973   0.532   1.498 -0.2036  0.0018 -0.2510
  614SOL    HW1 2454   1.974   0.469   1.567  2.0640  1.3517  0.8045
  614SOL    HW2 2455   1.939   0.503   1.413  1.7876 -1.3287 -0.6753
  614SOL     MW 2456   1.968   0.520   1.496  0.3583  0.0043 -0.1677
  615SOL     OW 2457   2.381   0.741   0.295  0.2032 -0.3394  0.1129
  615SOL    HW1 2458   2.462   0.708   0.334  0.5654  0.1012  0.5662
  615SOL    HW2 2459   2.360   0.689   0.221  0.6517 -1.3359  0.2804
  615SOL     MW 2460   2.389   0.730   0.290  0.3102 -0.4127  0.1948
  616SOL     OW 2461   2.514   0.431   1.600 -0.2637  0.5389  0.3202
  616SOL    HW1 2462   2.500   0.351   1.549 -0.4475 -0.6427 -2.0451
  616SOL    HW2 2463   2.539   0.490   1.532 -1.9412 -0.3303 -0.0061
  616SOL     MW 2464   2.515   0.428   1.584 -0.5093  0.2683 -0.0349
  617SOL     OW 2465   2.927   0.542   1.747  0.0415 -0.4222  0.2415
  617SOL    HW1 2466   2.843   0.571   1.786  0.5048  0.3842  0.0677
  617SOL    HW2 2467   2.906   0.462   1.691 -3.1921  0.2942 -0.5990
  617SOL     MW 2468   2.913   0.535   1.745 -0.3240 -0.2212  0.1077
  618SOL     OW 2469   2.697   0.332   1.939  0.4444  0.2850 -0.8695
  618SOL    HW1 2470   2.680   0.420   1.907  1.6488  0.8339  2.4446
  618SOL    HW2 2471   2.787   0.336   1.976 -1.2972  0.6583  0.8308
  618SOL     MW 2472   2.707   0.344   1.940  0.3735  0.4067 -0.2079
  619SOL     OW 2473   2.662   0.656   0.120  0.0941 -0.3713 -0.2791
  619SOL    HW1 2474   2.706   0.728   0.160  1.1789 -0.8972 -1.7899
  619SOL    HW2 2475   2.635   0.603   0.197  0.7433  2.3321  1.0288
  619SOL     MW 2476   2.664   0.659   0.136  0.3229 -0.0840 -0.3059
  620SOL     OW 2477   2.316   1.040   1.009 -0.2050 -0.1441  0.1239
  620SOL    HW1 2478   2.393   1.079   0.967 -0.3530  1.0735  0.2244
  620SOL    HW2 2479   2.274   0.995   0.935  2.3980  1.5500  0.9234
  620SOL     MW 2480   2.320   1.039   0.993  0.1189  0.2401  0.2426
  621SOL     OW 2481   1.461   2.128   1.948  0.4218 -0.3362  0.1127
  621SOL    HW1 2482   1.419   2.058   1.993  0.9035  0.5637  0.2843
  621SOL    HW2 2483   1.554   2.108   1.958 -1.5656 -2.0666  2.4264
  621SOL     MW 2484   1.468   2.116   1.955  0.2232 -0.4458  0.4406
  622SOL     OW 2485   2.586   0.172   0.269 -0.3658 -0.3958  0.3478
  622SOL    HW1 2486   2.675   0.216   0.259 -2.0538 -0.4083 -0.8468
  622SOL    HW2 2487   2.617   0.086   0.295  2.6623  2.1066 -0.7944
  622SOL     MW 2488   2.602   0.167   0.271 -0.1890 -0.0673  0.0395
  623SOL     OW 2489   2.357   2.811   0.869  0.3131  0.0838  0.3586
  623SOL    HW1 2490   2.421   2.884   0.862 -0.0300 -1.6807 -0.6154
  623SOL    HW2 2491   2.290   2.843   0.928  0.1401  4.3003 -1.0882
  623SOL     MW 2492   2.357   2.825   0.876  0.2450  0.4073  0.0392
  624SOL     OW 2493   2.179   1.710   3.011 -0.3959  0.4173  0.0144
  624SOL    HW1 2494   2.136   1.626   3.014  0.7054  0.9004  1.0693
  624SOL    HW2 2495   2.105   1.762   2.983 -2.2012  3.1876 -2.1340
  624SOL     MW 2496   2.164   1.706   3.008 -0.4888  0.8465 -0.1299
  625SOL     OW 2497   2.205   2.011   1.119  0.2155 -0.7370 -0.1331
  625SOL    HW1 2498   2.271   1.954   1.148  0.2076 -2.2825 -1.6705
  625SOL    HW2 2499   2.227   2.070   1.045  0.1459 -1.1544 -1.4259
  625SOL     MW 2500   2.217   2.012   1.113  0.2053 -0.9960 -0.5065
  626SOL     OW 2501   0.216   1.602   2.372  0.1873  0.3138  0.2734
  626SOL    HW1 2502   0.189   1.528   2.321  1.5166 -1.1121 -0.6630
  626SOL    HW2 2503   0.142   1.626   2.436  0.4388  1.3924 -1.5056
  626SOL     MW 2504   0.203   1.595   2.374  0.3958  0.2680 -0.0849
  627SOL     OW 2505   2.450   0.785   2.645  0.0701 -0.0587  0.3414
  627SOL    HW1 2506   2.422   0.876   2.630 -1.7511  0.1709  1.0621
  627SOL    HW2 2507   2.409   0.726   2.580  1.0125  0.9276 -0.7155
  627SOL     MW 2508   2.441   0.789   2.635 -0.0459  0.1017  0.2970
  628SOL     OW 2509   2.281   1.342   1.363  1.0419  0.0129  0.1649
  628SOL    HW1 2510   2.259   1.276   1.291  0.9574 -0.2960  1.0522
  628SOL    HW2 2511   2.377   1.354   1.349 -0.8810 -2.1494  1.5040
  628SOL     MW 2512   2.291   1.335   1.352  0.7771 -0.3131  0.4586
  629SOL     OW 2513   1.878   0.558   1.224 -0.5297  0.1599 -0.4192
  629SOL    HW1 2514   1.881   0.647   1.192 -1.9156  0.2436 -0.4767
  629SOL    HW2 2515   1.796   0.553   1.271 -1.4337 -2.1888 -0.3457
  629SOL     MW 2516   1.868   0.569   1.226 -0.8318 -0.1390 -0.4170
  630SOL     OW 2517   2.435   1.815   3.047  0.1898 -0.3281 -0.6443
  630SOL    HW1 2518   2.470   1.898   3.016  0.5601  3.7024 -0.2914
  630SOL    HW2 2519   2.339   1.811   3.034 -0.5055  0.9351 -2.0242
  630SOL     MW 2520   2.427   1.825   3.041  0.1469  0.3703 -0.7798
  631SOL     OW 2521   1.964   1.831   1.580 -0.2578  0.3104 -0.2189
  631SOL    HW1 2522   1.986   1.752   1.634 -0.7146 -1.3726  0.5799
  631SOL    HW2 2523   1.955   1.787   1.498  0.1037  1.4843  0.9649
  631SOL     MW 2524   1.965   1.815   1.576 -0.2703  0.2432  0.0427
  632SOL     OW 2525   0.131   2.022   1.479  0.7992 -0.2860 -0.1058
  632SOL    HW1 2526   0.062   2.050   1.540 -0.4136  0.0863  1.8640
  632SOL    HW2 2527   0.135   1.925   1.493 -0.7591  2.2378  0.6218
  632SOL     MW 2528   0.122   2.013   1.489  0.4336  0.0961  0.2501
  633SOL     OW 2529   2.584   0.576   0.372  0.2019 -0.6413 -0.6293
  633SOL    HW1 2530   2.668   0.558   0.419  3.1837 -1.1454  0.6139
  633SOL    HW2 2531   2.520   0.510   0.407  2.4474 -0.4578  2.7310
  633SOL     MW 2532   2.587   0.565   0.383  0.8916 -0.6836 -0.0219
  634SOL     OW 2533   2.685   3.048   0.618  0.4291 -0.0243  0.0468
  634SOL    HW1 2534   2.699   3.141   0.640 -0.4263  2.5781  0.6268
  634SOL    HW2 2535   2.643   3.046   0.532 -2.3464  0.8691  0.2246
  634SOL     MW 2536   2.681   3.060   0.610 -0.0499  0.4369  0.1467
  635SOL     OW 2537   2.613   0.090   1.855 -0.0418  0.4141 -0.3032
  635SOL    HW1 2538   2.672   0.035   1.800  1.4684 -2.6189 -1.3538
  635SOL    HW2 2539   2.650   0.183   1.849  0.3265  2.9559 -1.2546
  635SOL     MW 2540   2.626   0.095   1.847  0.2060  0.3493 -0.5673
  636SOL     OW 2541   2.940   1.671   1.117 -0.7140  0.1159  0.4501
  636SOL    HW1 2542   2.863   1.718   1.156 -1.6400 -0.1450  0.2471
  636SOL    HW2 2543   3.005   1.738   1.094  1.5340 -0.2070 -0.8992
  636SOL     MW 2544   2.939   1.686   1.119 -0.5396  0.0388  0.2453
  637SOL     OW 2545   2.858   1.479   0.669 -0.6721 -0.2725  0.7875
  637SOL    HW1 2546   2.908   1.558   0.647 -0.0383 -1.5489  0.2884
  637SOL    HW2 2547   2.796   1.506   0.743 -3.0470  0.4044 -1.0724
  637SOL     MW 2548   2.856   1.493   0.676 -0.9019 -0.3516  0.4763
  638SOL     OW 2549   2.781   0.483   0.551  0.0676 -0.5236 -0.0309
  638SOL    HW1 2550   2.865   0.518   0.531  0.1259  0.0399  2.2487
  638SOL    HW2 2551   2.762   0.528   0.632 -0.5006  0.2922  0.4378
  638SOL     MW 2552   2.790   0.494   0.559  0.0003 -0.3416  0.3317
  639SOL     OW 2553   1.777   0.061   0.562  0.3308 -0.3509  0.0738
  639SOL    HW1 2554   1.678   0.086   0.553 -0.8988 -0.8815 -0.1026
  639SOL    HW2 2555   1.792  -0.007   0.492 -0.3478  0.6889 -0.8769
  639SOL     MW 2556   1.766   0.055   0.551  0.0791 -0.2837 -0.0749
  640SOL     OW 2557   0.366   1.341   0.107  0.2311 -0.5124  0.5127
  640SOL    HW1 2558   0.387   1.351   0.014 -1.2600 -0.8231 -0.6920
  640SOL    HW2 2559   0.295   1.275   0.112  0.2833  0.2639  0.0909
  640SOL     MW 2560   0.359   1.334   0.095  0.0412 -0.4509  0.2981
  641SOL     OW 2561   2.229   0.424   0.350 -0.5562 -0.2785 -0.6553
  641SOL    HW1 2562   2.250   0.473   0.269  2.1517  0.7214  1.2413
  641SOL    HW2 2563   2.273   0.343   0.340  1.2594 -0.6106 -0.4813
  641SOL     MW 2564   2.237   0.420   0.338  0.0406 -0.1904 -0.3821
  642SOL     OW 2565   0.051   3.092   0.583  0.0576 -0.5516 -0.4824
  642SOL    HW1 2566   0.031   3.177   0.541  2.0155  1.0823  1.4200
  642SOL    HW2 2567  -0.038   3.059   0.613 -0.6133 -1.5186  2.4805
  642SOL     MW 2568   0.037   3.099   0.581  0.2274 -0.4636  0.1595
  643SOL     OW 2569   2.088   0.319   1.654 -0.2917 -0.0700 -0.8878
  643SOL    HW1 2570   2.059   0.230   1.680 -0.9560  1.2203  1.1022
  643SOL    HW2 2571   2.088   0.297   1.560 -1.5962 -0.0708 -1.2160
  643SOL     MW 2572   2.084   0.305   1.645 -0.5515  0.1001 -0.6685
  644SOL     OW 2573   2.743   1.987   1.049 -0.2433  0.4137 -0.1705
  644SOL    HW1 2574   2.735   1.923   1.115 -0.8382  2.2177 -0.1433
  644SOL    HW2 2575   2.660   2.036   1.045  2.2558 -0.9135 -0.1852
  644SOL     MW 2576   2.731   1.985   1.057  0.0080  0.4766 -0.1689
  645SOL     OW 2577   2.865   0.853   0.667 -0.0283 -0.3939 -0.0505
  645SOL    HW1 2578   2.957   0.840   0.660 -1.9792  0.5189 -1.8192
  645SOL    HW2 2579   2.836   0.764   0.688 -0.1521  0.8095  1.7674
  645SOL     MW 2580   2.874   0.840   0.669 -0.3020 -0.1147 -0.0440
  646SOL     OW 2581   0.188   2.299   0.771  0.2724  0.0823 -0.2099
  646SOL    HW1 2582   0.211   2.210   0.806  0.8906 -4.6122  1.7879
  646SOL    HW2 2583   0.112   2.282   0.722  0.6714 -0.0072  2.6497
  646SOL     MW 2584   0.181   2.285   0.769  0.4066 -0.5489  0.4310
  647SOL     OW 2585   2.684   0.479   2.973 -0.5709  0.0966  0.2296
  647SOL    HW1 2586   2.633   0.419   3.032  2.3121 -1.6842  1.5545
  647SOL    HW2 2587   2.650   0.561   3.005  0.5482 -2.2613 -0.9192
  647SOL     MW 2588   2.673   0.482   2.985 -0.0428 -0.4495  0.2528
  648SOL     OW 2589   2.128   0.728   1.147 -0.1032  0.0431  1.0178
  648SOL    HW1 2590   2.158   0.786   1.072  1.8037  1.4675  0.2476
  648SOL    HW2 2591   2.155   0.771   1.232  1.9705 -2.4138  0.6853
  648SOL     MW 2592   2.136   0.741   1.149  0.4220 -0.0932  0.8723
  649SOL     OW 2593   2.301   2.737   1.294  0.4559  0.0665 -0.1482
  649SOL    HW1 2594   2.380   2.792   1.292  0.9076  0.9742 -1.5808
  649SOL    HW2 2595   2.335   2.647   1.286 -0.8381 -3.8638  2.1703
  649SOL     MW 2596   2.316   2.732   1.292  0.3447 -0.3323 -0.0313
  650SOL     OW 2597   2.791   0.193   0.659 -0.1047  0.5670 -0.5093
  650SOL    HW1 2598   2.813   0.287   0.656  2.7731  0.4141 -0.3358
  650SOL    HW2 2599   2.876   0.168   0.622  0.8753  1.5184 -0.7226
  650SOL     MW 2600   2.805   0.202   0.654  0.4043  0.6723 -0.5146
  651SOL     OW 2601   3.001   0.409   0.784  0.4830 -0.1426  0.8621
  651SOL    HW1 2602   3.076   0.478   0.786  2.5576 -1.0905  0.4939
  651SOL    HW2 2603   2.937   0.443   0.845 -0.7906  2.2010 -0.3813
  651SOL     MW 2604   3.003   0.423   0.792  0.5887  0.0415  0.6495
  652SOL     OW 2605   2.421   1.493   2.989  0.0197 -0.7904 -0.9492
  652SOL    HW1 2606   2.497   1.487   2.929  0.2982 -0.2194  1.7629
  652SOL    HW2 2607   2.383   1.581   2.980  1.3392  3.1639  0.1669
  652SOL     MW 2608   2.426   1.504   2.980  0.2306 -0.1933 -0.4441
  653SOL     OW 2609   1.898   0.435   0.370  0.0561 -0.2341  0.6656
  653SOL    HW1 2610   1.845   0.386   0.310 -2.1389 -0.6360  3.4401
  653SOL    HW2 2611   1.990   0.434   0.339 -3.3149 -0.6041 -1.8188
  653SOL     MW 2612   1.903   0.428   0.358 -0.6782 -0.3359  0.7039
  654SOL     OW 2613   2.439   1.048   0.739 -0.5523  0.0303 -0.3894
  654SOL    HW1 2614   2.357   1.050   0.692  0.3808 -0.2439 -0.6487
  654SOL    HW2 2615   2.454   0.956   0.774 -2.0412 -0.3260  1.3339
  654SOL     MW 2616   2.430   1.036   0.737 -0.6257 -0.0529 -0.1963
  655SOL     OW 2617   2.933   0.885   0.392 -0.9703  0.0841 -0.0755
  655SOL    HW1 2618   2.871   0.915   0.457 -0.8689 -1.9410  0.4921
  655SOL    HW2 2619   2.936   0.786   0.397  0.9147 -0.6580  0.4535
  655SOL     MW 2620   2.925   0.876   0.401 -0.7082 -0.2810  0.0692
  656SOL     OW 2621   1.892   2.746   1.290 -0.7858 -0.2767  0.4869
  656SOL    HW1 2622   1.873   2.825   1.330 -0.7316 -0.6466 -1.1387
  656SOL    HW2 2623   1.961   2.706   1.340  1.9567  1.7081  0.2347
  656SOL     MW 2624   1.899   2.751   1.302 -0.4168 -0.0636  0.2391
  657SOL     OW 2625   0.154   1.663   1.268 -0.2095  0.6638 -0.1436
  657SOL    HW1 2626   0.216   1.689   1.198  2.1446 -0.7405 -0.4252
  657SOL    HW2 2627   0.120   1.574   1.247 -0.9494  2.2797 -3.3260
  657SOL     MW 2628   0.158   1.654   1.256  0.0035  0.6917 -0.6006
  658SOL     OW 2629   2.711   1.301   0.219  0.4776  0.2623  0.2570
  658SOL    HW1 2630   2.662   1.229   0.260  1.4887  1.0173 -0.9237
  658SOL    HW2 2631   2.743   1.360   0.289 -0.1346 -2.2057  0.9046
  658SOL     MW 2632   2.709   1.299   0.234  0.5302  0.0363  0.1867
  659SOL     OW 2633   2.274   1.482   1.077  0.1242  0.2332  0.3368
  659SOL    HW1 2634   2.361   1.458   1.093 -0.6708  0.3426 -0.1645
  659SOL    HW2 2635   2.237   1.528   1.154 -2.9471 -2.2513 -1.1577
  659SOL     MW 2636   2.280   1.485   1.089 -0.3860 -0.0802  0.0735
  660SOL     OW 2637   2.024   1.600   1.707  0.1403 -0.2224  0.5622
  660SOL    HW1 2638   2.029   1.584   1.804 -0.1511  2.8115  0.8624
  660SOL    HW2 2639   1.964   1.533   1.663  0.9820 -0.5053 -1.5422
  660SOL     MW 2640   2.016   1.589   1.714  0.2129  0.1406  0.3242
  661SOL     OW 2641   2.372   1.009   0.231 -0.4435 -0.1513 -0.2905
  661SOL    HW1 2642   2.429   1.057   0.297  0.8823  2.6117  1.1699
  661SOL    HW2 2643   2.373   0.917   0.262 -0.3126  1.2431  2.4928
  661SOL     MW 2644   2.379   1.003   0.244 -0.2513  0.3972  0.2694
  662SOL     OW 2645   2.589   2.987   0.864 -0.4582  0.0984 -0.5439
  662SOL    HW1 2646   2.531   3.047   0.902 -0.7809 -0.6854  1.2422
  662SOL    HW2 2647   2.618   3.022   0.779  0.5612  0.1611 -0.3477
  662SOL     MW 2648   2.585   2.999   0.858 -0.3663  0.0033 -0.2823
  663SOL     OW 2649   2.761   1.482   0.417 -0.4002 -0.7503  0.7904
  663SOL    HW1 2650   2.682   1.545   0.417 -0.9931  2.2454  0.8975
  663SOL    HW2 2651   2.796   1.483   0.510 -1.1973  1.3469  1.5894
  663SOL     MW 2652   2.756   1.490   0.429 -0.5836 -0.0783  0.9099
  664SOL     OW 2653   2.500   1.523   1.604 -0.0365  0.3863 -0.0516
  664SOL    HW1 2654   2.443   1.600   1.588  0.9208 -1.0148  0.2887
  664SOL    HW2 2655   2.438   1.452   1.618 -1.1686  2.1466 -2.0695
  664SOL     MW 2656   2.484   1.524   1.603 -0.0596  0.4337 -0.2730
  665SOL     OW 2657   2.860   0.885   2.012 -0.2601  0.0246  0.0984
  665SOL    HW1 2658   2.822   0.902   1.922  1.2511 -0.6885  1.7675
  665SOL    HW2 2659   2.915   0.811   1.991 -1.2432  2.0729 -0.0413
  665SOL     MW 2660   2.862   0.878   1.997 -0.1904  0.2007  0.3002
  666SOL     OW 2661   2.775   3.019   1.696 -0.5046  0.3635  0.2327
  666SOL    HW1 2662   2.787   3.045   1.604 -1.3346 -1.4532  0.2219
  666SOL    HW2 2663   2.697   2.967   1.677  1.8311  0.4383  0.9917
  666SOL     MW 2664   2.766   3.016   1.681 -0.3059  0.1337  0.3314
  667SOL     OW 2665   1.977   2.643   1.716  0.2013  0.0502  0.6691
  667SOL    HW1 2666   1.993   2.567   1.775 -0.1049 -0.5829 -0.0412
  667SOL    HW2 2667   2.048   2.709   1.725 -1.5826  2.6064 -0.2144
  667SOL     MW 2668   1.988   2.642   1.725 -0.0745  0.3039  0.4588
  668SOL     OW 2669   2.745   0.626   0.790  0.2253  0.4283  0.1141
  668SOL    HW1 2670   2.796   0.627   0.869 -0.8344 -2.4254  1.1934
  668SOL    HW2 2671   2.668   0.675   0.809  1.9731 -3.8437  0.8298
  668SOL     MW 2672   2.741   0.633   0.803  0.3161 -0.5119  0.3509
  669SOL     OW 2673   0.242   0.937   0.683 -0.3423  0.3588  0.6277
  669SOL    HW1 2674   0.186   0.992   0.736  1.0415 -3.0615 -2.0934
  669SOL    HW2 2675   0.336   0.949   0.711  2.7228  1.2193 -0.1580
  669SOL     MW 2676   0.247   0.946   0.694  0.2447  0.0210  0.1650
  670SOL     OW 2677   2.843   0.236   0.221  0.3802 -0.3605 -0.0710
  670SOL    HW1 2678   2.882   0.184   0.146  0.5948  0.6266 -0.1243
  670SOL    HW2 2679   2.850   0.329   0.192  1.7459 -0.6575 -0.1355
  670SOL     MW 2680   2.849   0.242   0.207  0.5887 -0.2695 -0.0865
  671SOL     OW 2681   2.081   2.931   1.479 -0.1018 -0.0064 -0.3374
  671SOL    HW1 2682   2.044   2.972   1.397 -3.0465  1.7003 -1.7782
  671SOL    HW2 2683   2.045   2.989   1.546 -3.0717 -0.3481 -1.7753
  671SOL     MW 2684   2.071   2.944   1.477 -0.8822  0.1737 -0.7172
  672SOL     OW 2685   1.894   1.677   1.370  0.3229 -0.2806 -0.1773
  672SOL    HW1 2686   1.801   1.678   1.395 -0.5676 -1.1607  1.0430
  672SOL    HW2 2687   1.908   1.740   1.294 -1.2539 -0.6297  0.8477
  672SOL     MW 2688   1.884   1.685   1.363 -0.0026 -0.4427  0.1189
  673SOL     OW 2689   2.747   1.088   0.573  0.3534 -0.1576  0.1382
  673SOL    HW1 2690   2.738   1.001   0.616  0.5853 -2.2435 -0.8563
  673SOL    HW2 2691   2.832   1.122   0.593  0.1997 -1.7102 -4.0819
  673SOL     MW 2692   2.757   1.081   0.581  0.3637 -0.6377 -0.5498
  674SOL     OW 2693   2.474   0.077   1.240 -0.5646 -0.4003  1.0538
  674SOL    HW1 2694   2.432   0.068   1.152 -1.7735  0.2157  1.7850
  674SOL    HW2 2695   2.506  -0.014   1.256 -2.4535 -1.1830  0.8620
  674SOL     MW 2696   2.473   0.064   1.231 -0.9734 -0.4223  1.1250
  675SOL     OW 2697   3.028   0.875   1.067 -0.1018  0.2233  0.0656
  675SOL    HW1 2698   3.091   0.886   1.133 -0.7665  1.0899 -0.4789
  675SOL    HW2 2699   3.032   0.934   0.992 -0.8593 -3.4850  0.9454
  675SOL     MW 2700   3.037   0.884   1.066 -0.2894 -0.1516  0.1098
  676SOL     OW 2701   2.849   1.468   1.679 -0.3795 -0.1617  0.4233
  676SOL    HW1 2702   2.785   1.393   1.677  0.7784  2.5665  1.4167
  676SOL    HW2 2703   2.925   1.450   1.736  0.2883 -1.4567  0.0844
  676SOL     MW 2704   2.851   1.456   1.686 -0.1386  0.0274  0.5096
  677SOL     OW 2705   2.413   0.646   1.962  0.1117 -0.4858 -0.3393
  677SOL    HW1 2706   2.356   0.569   1.941  0.4472 -0.4014  1.6654
  677SOL    HW2 2707   2.349   0.690   2.023 -0.5904  1.7945  0.3724
  677SOL     MW 2708   2.397   0.642   1.967  0.0633 -0.1738  0.0191
  678SOL     OW 2709   2.519   1.648   0.383 -0.1918 -0.1345 -0.0007
  678SOL    HW1 2710   2.452   1.721   0.402 -2.7170 -0.0226  0.2985
  678SOL    HW2 2711   2.506   1.611   0.290  1.6110 -0.1870 -3.3409
  678SOL     MW 2712   2.509   1.653   0.373 -0.2871 -0.1267 -0.4019
  679SOL     OW 2713   2.265   0.465   1.163 -0.0838  0.3497  0.0660
  679SOL    HW1 2714   2.203   0.394   1.154  2.7439 -1.9111  0.0103
  679SOL    HW2 2715   2.220   0.545   1.137 -2.7343 -1.1138 -0.4463
  679SOL     MW 2716   2.251   0.466   1.158 -0.0604 -0.1417 -0.0089
  680SOL     OW 2717   2.344   0.144   1.474 -0.1929 -0.2272  0.1677
  680SOL    HW1 2718   2.257   0.180   1.440  1.8065  0.6736  1.4723
  680SOL    HW2 2719   2.399   0.101   1.402 -0.6666 -0.1627 -2.6177
  680SOL     MW 2720   2.340   0.143   1.460  0.0084 -0.0998 -0.0277
  681SOL     OW 2721   0.344   0.564   1.563 -0.0739 -0.5086  0.6127
  681SOL    HW1 2722   0.325   0.482   1.605 -1.7769  1.4572  0.2531
  681SOL    HW2 2723   0.441   0.555   1.562 -0.0577 -1.7308 -2.5094
  681SOL     MW 2724   0.354   0.552   1.568 -0.2965 -0.4105  0.1533
  682SOL     OW 2725   0.079   2.919   1.481 -0.2838  0.4414 -0.0759
  682SOL    HW1 2726   0.099   3.014   1.449  2.1153 -0.0417 -0.7317
  682SOL    HW2 2727   0.030   2.930   1.561 -0.5538  0.7780 -0.9549
  682SOL     MW 2728   0.075   2.933   1.488 -0.0029  0.4221 -0.2784
  683SOL     OW 2729   2.065   0.882   3.003 -0.0815 -0.5738 -0.7283
  683SOL    HW1 2730   1.978   0.843   2.983  0.8303  0.7141  0.8485
  683SOL    HW2 2731   2.049   0.969   3.035 -0.2073 -1.3709 -2.3112
  683SOL     MW 2732   2.051   0.888   3.005  0.0222 -0.5091 -0.7291
  684SOL     OW 2733   2.212   1.715   0.915  0.0724 -0.3346 -0.1078
  684SOL    HW1 2734   2.126   1.707   0.877  3.4690  0.4782 -3.3955
  684SOL    HW2 2735   2.236   1.642   0.966 -1.2101 -2.2437 -0.8490
  684SOL     MW 2736   2.204   1.704   0.917  0.3514 -0.4793 -0.6394
  685SOL     OW 2737   2.683   1.747   1.230  0.2742  0.2359 -0.3008
  685SOL    HW1 2738   2.706   1.690   1.307 -1.9273 -0.1963  0.4074
  685SOL    HW2 2739   2.642   1.693   1.161 -0.6151  0.8294 -0.3067
  685SOL     MW 2740   2.680   1.732   1.231 -0.1336  0.2572 -0.2081
  686SOL     OW 2741   2.923   0.738   1.525  0.3948 -0.0354  0.0431
  686SOL    HW1 2742   2.950   0.682   1.599 -2.4028  0.8820 -0.4890
  686SOL    HW2 2743   2.998   0.784   1.501 -1.5537 -0.2480  0.7233
  686SOL     MW 2744   2.936   0.737   1.531 -0.2314  0.0576  0.0627
  687SOL     OW 2745   2.067   0.279   1.134 -0.5937 -0.4436  0.3150
  687SOL    HW1 2746   2.100   0.194   1.098  1.6926  2.4882  2.5427
  687SOL    HW2 2747   2.030   0.319   1.058  2.4797  2.2310  1.2613
  687SOL     MW 2748   2.067   0.273   1.119  0.1135  0.2961  0.7338
  688SOL     OW 2749   2.395   0.653   1.405 -0.2766 -0.9457  0.0315
  688SOL    HW1 2750   2.346   0.616   1.335  1.3694  1.2487 -1.8880
  688SOL    HW2 2751   2.341   0.649   1.483  1.2400 -0.1994 -1.9332
  688SOL     MW 2752   2.382   0.647   1.406  0.1407 -0.5577 -0.4810
  689SOL     OW 2753   2.537   0.739   3.001 -0.0801  0.2902 -0.1992
  689SOL    HW1 2754   2.568   0.820   2.956  2.2628 -2.1737  2.2644
  689SOL    HW2 2755   2.601   0.735   3.077 -1.4870  1.1818  0.4964
  689SOL     MW 2756   2.550   0.750   3.005  0.0434  0.0827  0.2176
  690SOL     OW 2757   2.080   0.938   1.957  0.0305 -0.2668 -0.0388
  690SOL    HW1 2758   2.015   0.869   1.963  1.3690 -0.6638 -0.8660
  690SOL    HW2 2759   2.094   0.937   1.863  2.6358  1.5898  1.1399
  690SOL     MW 2760   2.073   0.929   1.946  0.5509 -0.0742  0.0075
  691SOL     OW 2761   2.441   0.266   0.830 -0.0991  0.3973  0.7792
  691SOL    HW1 2762   2.505   0.325   0.875  2.5324  1.0146 -1.9565
  691SOL    HW2 2763   2.358   0.321   0.847  0.3519 -0.1088  0.3127
  691SOL     MW 2764   2.439   0.281   0.838  0.3076  0.4120  0.3567
  692SOL     OW 2765   2.831   1.639   1.451 -0.0768 -1.1640 -0.1461
  692SOL    HW1 2766   2.823   1.583   1.530 -0.7928  2.1412 -0.9537
  692SOL    HW2 2767   2.839   1.736   1.482  2.3686 -0.8282  1.4023
  692SOL     MW 2768   2.831   1.644   1.466  0.1514 -0.6836 -0.0483
  693SOL     OW 2769   2.327   0.496   0.073 -0.3507  0.4024 -0.4623
  693SOL    HW1 2770   2.265   0.435   0.036  0.2749  0.6464 -0.2091
  693SOL    HW2 2771   2.295   0.581   0.041  5.3210 -2.0501  0.8003
  693SOL     MW 2772   2.314   0.499   0.064  0.4802  0.1110 -0.2623
  694SOL     OW 2773   1.929   1.211   1.084  0.3990 -0.2535  0.4243
  694SOL    HW1 2774   2.018   1.187   1.122  0.4381  1.0413 -0.5475
  694SOL    HW2 2775   1.866   1.161   1.135  0.7320 -0.3512 -1.7203
  694SOL     MW 2776   1.932   1.201   1.096  0.4481 -0.0955  0.0131
  695SOL     OW 2777   3.017   1.473   1.348 -0.3710  0.3042  0.7760
  695SOL    HW1 2778   3.001   1.480   1.255  0.1119  2.0186 -0.6434
  695SOL    HW2 2779   2.949   1.525   1.380  0.9086 -0.5310  0.4874
  695SOL     MW 2780   3.006   1.481   1.340 -0.1384  0.4202  0.5506
  696SOL     OW 2781   2.115   1.376   0.882  0.0768 -0.2855  0.0056
  696SOL    HW1 2782   2.185   1.389   0.951 -1.7505 -0.1318 -2.6484
  696SOL    HW2 2783   2.048   1.316   0.918 -0.0516  0.3888  0.9651
  696SOL     MW 2784   2.115   1.370   0.896 -0.1812 -0.1763 -0.2180
  697SOL     OW 2785   2.921   1.108   2.158  0.1072  0.4226 -0.1322
  697SOL    HW1 2786   2.865   1.182   2.165 -2.3242  1.7520 -1.3372
  697SOL    HW2 2787   2.877   1.030   2.116  0.1801  0.0718 -0.6532
  697SOL     MW 2788   2.907   1.108   2.153 -0.2039  0.5517 -0.3599
  698SOL     OW 2789   2.550   0.313   0.037 -0.5528  0.2809 -0.2258
  698SOL    HW1 2790   2.475   0.369   0.065 -0.7757 -0.9819  0.4083
  698SOL    HW2 2791   2.566   0.258   0.112  1.2944 -0.0275  2.1428
  698SOL     MW 2792   2.542   0.313   0.050 -0.3385  0.0736  0.1703
  699SOL     OW 2793   1.830   1.663   1.989  0.5754 -0.5984 -0.1239
  699SOL    HW1 2794   1.812   1.577   2.010 -0.7872  1.0849 -0.2752
  699SOL    HW2 2795   1.928   1.666   1.977 -0.0985  0.8665 -0.5562
  699SOL     MW 2796   1.841   1.652   1.990  0.3067 -0.1830 -0.2009
  700SOL     OW 2797   2.696   0.926   1.521  0.0157 -0.0376  0.1750
  700SOL    HW1 2798   2.745   0.988   1.467 -2.1484  3.0490 -0.9642
  700SOL    HW2 2799   2.749   0.849   1.506  1.9126  1.7966 -0.3464
  700SOL     MW 2800   2.709   0.924   1.512 -0.0196  0.6116 -0.0441
  701SOL     OW 2801   1.592   1.235   2.508  0.0815 -0.4207 -0.4559
  701SOL    HW1 2802   1.685   1.253   2.487  1.9655 -1.7422  1.1714
  701SOL    HW2 2803   1.585   1.267   2.599  0.6876  1.1150 -2.1462
  701SOL     MW 2804   1.603   1.242   2.517  0.4101 -0.3924 -0.4642
  702SOL     OW 2805   2.215   0.395   0.869  0.4518  0.9536  0.1146
  702SOL    HW1 2806   2.180   0.317   0.814 -0.8186 -0.6856  0.1381
  702SOL    HW2 2807   2.246   0.466   0.808 -0.4165  2.1329  0.2507
  702SOL     MW 2808   2.215   0.394   0.853  0.1696  0.8929  0.1357
  703SOL     OW 2809   2.746   1.245   1.013  0.0073 -0.6194 -0.2575
  703SOL    HW1 2810   2.724   1.241   0.923 -0.6598  1.6083 -1.4709
  703SOL    HW2 2811   2.767   1.157   1.036 -1.2445  2.0069 -2.2985
  703SOL     MW 2812   2.746   1.233   1.004 -0.2459  0.0211 -0.6869
  704SOL     OW 2813   0.024   1.299   0.252 -0.1845 -1.0289  0.3769
  704SOL    HW1 2814  -0.037   1.258   0.190 -1.0277 -0.2387 -2.3164
  704SOL    HW2 2815   0.012   1.262   0.338  0.1677  3.1382 -3.2967
  704SOL     MW 2816   0.014   1.288   0.255 -0.2493 -0.3749 -0.4631
  705SOL     OW 2817   2.224   1.621   1.328 -0.0879  0.2745  0.3245
  705SOL    HW1 2818   2.142   1.648   1.345 -1.2708  1.3976  0.3148
  705SOL    HW2 2819   2.228   1.530   1.349 -0.2833  1.9104  0.6907
  705SOL     MW 2820   2.214   1.612   1.333 -0.2697  0.6385  0.3716
  706SOL     OW 2821   2.958   1.221   0.696 -0.2847  0.0049 -0.1867
  706SOL    HW1 2822   3.014   1.202   0.619 -1.2369 -1.2410  3.5494
  706SOL    HW2 2823   2.952   1.318   0.693  2.2205 -1.1359 -1.4334
  706SOL     MW 2824   2.965   1.231   0.686 -0.0798 -0.3100  0.1417
  707SOL     OW 2825   2.384   0.040   0.984  0.0264 -0.6744  0.0301
  707SOL    HW1 2826   2.404   0.123   0.940 -2.5480  2.9162 -1.0405
  707SOL    HW2 2827   2.288   0.045   0.985 -1.1161 -4.5376  0.7274
  707SOL     MW 2828   2.374   0.052   0.979 -0.4640 -0.7103 -0.0192
  708SOL     OW 2829   2.563   1.526   0.129 -0.6913 -0.7428 -0.1091
  708SOL    HW1 2830   2.617   1.450   0.147 -0.3301 -1.7038 -1.1527
  708SOL    HW2 2831   2.506   1.514   0.055  3.5474  0.5663 -1.3397
  708SOL     MW 2832   2.563   1.514   0.121 -0.0844 -0.6969 -0.4091
  709SOL     OW 2833   1.724   1.712   0.120  0.4786 -0.4007 -0.2102
  709SOL    HW1 2834   1.693   1.691   0.036  2.2912  0.8613  1.2404
  709SOL    HW2 2835   1.652   1.730   0.180 -1.7882  2.3843 -0.1588
  709SOL     MW 2836   1.710   1.712   0.117  0.4187  0.1333 -0.0120
  710SOL     OW 2837   2.180   1.160   1.197 -0.3947  0.9626 -0.0380
  710SOL    HW1 2838   2.205   1.116   1.114 -0.3912  0.6710  0.8758
  710SOL    HW2 2839   2.181   1.084   1.258 -1.0281 -0.2751 -0.5024
  710SOL     MW 2840   2.184   1.144   1.194 -0.4778  0.7608  0.0213
  711SOL     OW 2841   2.354   0.129   1.760  0.3900 -0.1428  0.6795
  711SOL    HW1 2842   2.446   0.123   1.781 -0.9586  2.4614 -2.0725
  711SOL    HW2 2843   2.343   0.160   1.666 -0.5221 -2.3919  0.8009
  711SOL     MW 2844   2.365   0.132   1.751  0.0917 -0.0960  0.3324
  712SOL     OW 2845   1.897   0.564   3.080  0.0350 -0.6111  0.4313
  712SOL    HW1 2846   1.880   0.623   3.004 -1.1049 -0.0170  1.0951
  712SOL    HW2 2847   1.913   0.627   3.151  1.9628  3.0815  2.0721
  712SOL     MW 2848   1.897   0.580   3.080  0.1389 -0.0455  0.7354
  713SOL     OW 2849   2.571   0.821   1.108  0.6515  0.1823  0.2441
  713SOL    HW1 2850   2.601   0.735   1.123 -0.6607  0.6841 -4.0645
  713SOL    HW2 2851   2.523   0.851   1.191  0.8777 -0.2525  0.2181
  713SOL     MW 2852   2.569   0.814   1.121  0.5082  0.1911 -0.3278
  714SOL     OW 2853   2.178   0.211   1.964  0.5326  0.3675  0.2452
  714SOL    HW1 2854   2.226   0.202   2.055  1.2641  2.2273 -0.8165
  714SOL    HW2 2855   2.256   0.219   1.905  0.8427 -1.7158 -1.1083
  714SOL     MW 2856   2.195   0.211   1.968  0.6700  0.3380 -0.0735
  715SOL     OW 2857   1.712   1.927   1.681 -0.0164  0.9208 -0.1061
  715SOL    HW1 2858   1.797   1.901   1.645 -4.3569 -3.2722  1.0336
  715SOL    HW2 2859   1.688   1.845   1.725 -0.3627 -0.1738 -0.4180
  715SOL     MW 2860   1.720   1.913   1.682 -0.6347  0.2232  0.0031
  716SOL     OW 2861   2.346   0.599   0.731 -0.1974  0.1465  0.0052
  716SOL    HW1 2862   2.411   0.539   0.693 -0.3997 -0.0348 -2.0061
  716SOL    HW2 2863   2.287   0.612   0.655 -0.2442  1.3707 -0.4944
  716SOL     MW 2864   2.346   0.593   0.716 -0.2302  0.2841 -0.3261
  717SOL     OW 2865   2.887   1.442   2.914  0.0909  0.6966  0.3146
  717SOL    HW1 2866   2.977   1.464   2.932 -0.5228 -0.1986 -2.1641
  717SOL    HW2 2867   2.836   1.512   2.959 -0.5670  2.8286  0.1624
  717SOL     MW 2868   2.892   1.454   2.922 -0.0768  0.8598 -0.0326
  718SOL     OW 2869   2.553   1.366   1.348  0.6888 -0.1507  0.1692
  718SOL    HW1 2870   2.548   1.415   1.432 -0.2513 -2.0849 -2.8122
  718SOL    HW2 2871   2.613   1.293   1.353  0.2799  1.8201  1.7693
  718SOL     MW 2872   2.560   1.363   1.360  0.5108 -0.1459 -0.0131
  719SOL     OW 2873   2.227   1.321   0.633  0.0922  0.6565  0.1430
  719SOL    HW1 2874   2.321   1.344   0.622  1.8986 -1.7565 -2.5642
  719SOL    HW2 2875   2.205   1.350   0.722  2.3105  0.6285 -1.0802
  719SOL     MW 2876   2.236   1.328   0.643  0.6232  0.3344 -0.3756
  720SOL     OW 2877   2.921   1.166   0.103 -0.2679 -0.0669 -0.2873
  720SOL    HW1 2878   2.862   1.100   0.139 -0.7600 -0.9522  1.1872
  720SOL    HW2 2879   2.876   1.249   0.146 -2.3591  1.4760 -1.3160
  720SOL     MW 2880   2.907   1.168   0.114 -0.6087  0.0199 -0.2285
  721SOL     OW 2881   2.481   0.896   1.350 -0.7271  0.6661 -0.0924
  721SOL    HW1 2882   2.454   0.802   1.359 -2.5364  0.5481 -1.3531
  721SOL    HW2 2883   2.558   0.907   1.416  0.5677 -0.0763 -2.3452
  721SOL     MW 2884   2.488   0.885   1.360 -0.7950  0.5526 -0.5560
  722SOL     OW 2885   2.573   1.121   0.378  0.5581  0.3044  0.2871
  722SOL    HW1 2886   2.554   1.209   0.415 -0.9501 -0.6945 -0.8596
  722SOL    HW2 2887   2.641   1.090   0.448  3.4331  0.5492  2.7774
  722SOL     MW 2888   2.579   1.128   0.392  0.7384  0.2049  0.4644
  723SOL     OW 2889   2.238   1.406   1.651  0.5078  0.1643 -0.4969
  723SOL    HW1 2890   2.205   1.385   1.562  0.2887  0.7210 -2.7023
  723SOL    HW2 2891   2.179   1.473   1.690  0.6919  0.7414 -0.6016
  723SOL     MW 2892   2.226   1.412   1.645  0.5032  0.3139 -0.8017
  724SOL     OW 2893   2.518   0.421   0.616 -0.6548 -0.1583  0.5231
  724SOL    HW1 2894   2.487   0.345   0.669  0.3290  1.5387  1.7137
  724SOL    HW2 2895   2.606   0.397   0.587 -1.8907  0.6924 -0.4265
  724SOL     MW 2896   2.525   0.408   0.619 -0.6881  0.1779  0.5549
  725SOL     OW 2897   2.536   0.513   1.145 -0.3932 -0.3078  0.2093
  725SOL    HW1 2898   2.573   0.544   1.233  1.7037  1.4376  1.6614
  725SOL    HW2 2899   2.443   0.511   1.155  2.0083 -2.3784  1.5227
  725SOL     MW 2900   2.528   0.517   1.158  0.2003 -0.3507  0.5742
  726SOL     OW 2901   2.573   2.457   0.562  0.3500  0.0661 -0.1514
  726SOL    HW1 2902   2.531   2.524   0.505  2.7415  0.8020 -0.4308
  726SOL    HW2 2903   2.508   2.405   0.619 -1.1836  0.5832  1.0225
  726SOL     MW 2904   2.559   2.459   0.562  0.4632  0.2314 -0.0334
  727SOL     OW 2905   2.915   0.274   1.584 -0.5770  0.3769  0.7083
  727SOL    HW1 2906   2.943   0.276   1.495 -1.6809  1.7334  2.9057
  727SOL    HW2 2907   2.822   0.265   1.582  0.0625 -0.3599 -0.1740
  727SOL     MW 2908   2.907   0.273   1.572 -0.6383  0.4587  0.8818
  728SOL     OW 2909   2.834   1.135   2.927  0.0510 -0.3483 -0.4730
  728SOL    HW1 2910   2.843   1.229   2.906 -0.0617  1.0445 -0.6156
  728SOL    HW2 2911   2.839   1.144   3.023 -0.3760 -0.6505 -0.0071
  728SOL     MW 2912   2.836   1.149   2.937 -0.0202 -0.2044 -0.4303
  729SOL     OW 2913   2.542   1.542   1.084  0.0057 -0.0312 -0.7177
  729SOL    HW1 2914   2.571   1.478   1.148  0.7134  0.5291 -0.7354
  729SOL    HW2 2915   2.594   1.523   1.010 -1.5385  2.3884  2.4124
  729SOL     MW 2916   2.553   1.531   1.083 -0.1047  0.3620 -0.3070
  730SOL     OW 2917   2.141   1.146   0.230  0.0661  0.6876 -0.3783
  730SOL    HW1 2918   2.217   1.096   0.209 -1.1599  0.8744 -2.8592
  730SOL    HW2 2919   2.157   1.240   0.215  1.3527  0.0538 -0.3441
  730SOL     MW 2920   2.153   1.152   0.225  0.0741  0.6286 -0.7011
  731SOL     OW 2921   2.855   1.875   2.876 -0.0267  0.8353 -0.5719
  731SOL    HW1 2922   2.776   1.903   2.817  1.6250 -0.3590  3.1013
  731SOL    HW2 2923   2.917   1.949   2.863  0.4219 -0.1265  0.5362
  731SOL     MW 2924   2.853   1.889   2.866  0.2504  0.5509  0.0589
  732SOL     OW 2925   2.200   0.939   1.346 -0.6157 -0.5423  0.7973
  732SOL    HW1 2926   2.164   0.946   1.435  1.1904  0.4779  1.0383
  732SOL    HW2 2927   2.293   0.949   1.359 -0.8238  1.2206  4.7664
  732SOL     MW 2928   2.208   0.941   1.359 -0.4048 -0.1751  1.3528
  733SOL     OW 2929   2.324   2.798   3.008 -0.3304  0.1078 -0.0378
  733SOL    HW1 2930   2.241   2.842   3.033 -0.8543 -1.8761 -1.2266
  733SOL    HW2 2931   2.303   2.701   3.014 -0.0712 -0.9804  0.3494
  733SOL     MW 2932   2.310   2.791   3.012 -0.3653 -0.2975 -0.1436
  734SOL     OW 2933   1.490   0.356   2.460 -0.0342 -0.0588 -0.4182
  734SOL    HW1 2934   1.443   0.322   2.534 -0.2814  0.6735  1.4164
  734SOL    HW2 2935   1.502   0.287   2.390  0.8157  0.6090 -0.1081
  734SOL     MW 2936   1.485   0.342   2.460  0.0453  0.1259 -0.1352
  735SOL     OW 2937   2.973   0.951   2.592 -0.5021  0.1383  0.4742
  735SOL    HW1 2938   2.971   0.851   2.598 -0.3304 -0.2177  0.0552
  735SOL    HW2 2939   2.978   0.986   2.678 -1.4939  1.1812 -0.8643
  735SOL     MW 2940   2.973   0.942   2.604 -0.6103  0.2290  0.2423
  736SOL     OW 2941   0.111   0.609   2.569  0.6030 -0.7885 -0.1918
  736SOL    HW1 2942   0.159   0.661   2.507  1.1755  0.9968 -0.4389
  736SOL    HW2 2943   0.077   0.536   2.512 -0.9437 -0.1412  1.2036
  736SOL     MW 2944   0.113   0.606   2.553  0.4744 -0.4676 -0.0403
  737SOL     OW 2945   2.932   0.675   2.618 -0.2813 -0.3617  0.2306
  737SOL    HW1 2946   2.886   0.651   2.536 -0.3794 -0.2350  0.2930
  737SOL    HW2 2947   3.022   0.641   2.611 -0.5164 -0.6745  1.8695
  737SOL     MW 2948   2.937   0.667   2.606 -0.3253 -0.3863  0.4551
  738SOL     OW 2949   0.226   0.518   1.914  0.5827  0.3372 -0.3149
  738SOL    HW1 2950   0.314   0.558   1.897 -0.9657 -1.5147 -2.4487
  738SOL    HW2 2951   0.219   0.453   1.840  3.5197 -2.2386 -2.5167
  738SOL     MW 2952   0.236   0.514   1.902  0.7659 -0.2470 -0.8869
  739SOL     OW 2953   2.460   1.034   2.129 -0.6327  0.5495 -0.1561
  739SOL    HW1 2954   2.392   0.973   2.097  2.3388 -2.7566  0.1075
  739SOL    HW2 2955   2.494   1.078   2.050  1.7686 -0.7123  0.6824
  739SOL     MW 2956   2.455   1.032   2.114  0.0762 -0.0532 -0.0107
  740SOL     OW 2957   0.182   1.777   2.967  0.0079  0.5505  0.0909
  740SOL    HW1 2958   0.132   1.695   2.967 -0.0019 -1.5023  3.2175
  740SOL    HW2 2959   0.259   1.737   3.010  1.8307  0.7816 -1.2728
  740SOL     MW 2960   0.186   1.761   2.973  0.2471  0.3102  0.3235
  741SOL     OW 2961   2.269   1.284   2.716 -0.0966  0.2873 -0.4511
  741SOL    HW1 2962   2.226   1.338   2.651 -0.2681  1.2273  2.3366
  741SOL    HW2 2963   2.227   1.307   2.799  0.6292  3.0428 -0.8191
  741SOL     MW 2964   2.258   1.294   2.718 -0.0235  0.7749 -0.1318
  742SOL     OW 2965   1.576   1.328   2.217 -0.2915 -0.4100 -0.0251
  742SOL    HW1 2966   1.549   1.238   2.195 -0.0803 -0.2268 -1.1538
  742SOL    HW2 2967   1.557   1.334   2.308  0.6187  0.2930 -1.6423
  742SOL     MW 2968   1.570   1.317   2.226 -0.1436 -0.2931 -0.3874
  743SOL     OW 2969   2.533   1.226   2.783  0.3427 -0.0462  0.3382
  743SOL    HW1 2970   2.445   1.250   2.761 -3.1315  1.2706  0.9201
  743SOL    HW2 2971   2.533   1.133   2.776  1.1356  3.2670  1.3360
  743SOL     MW 2972   2.521   1.217   2.779 -0.0111  0.5647  0.5466
  744SOL     OW 2973   2.749   0.982   1.784 -0.0510  0.3722 -0.6829
  744SOL    HW1 2974   2.670   1.017   1.830  0.7641  0.7511  0.7629
  744SOL    HW2 2975   2.719   0.953   1.691 -2.2163  0.0541  0.0489
  744SOL     MW 2976   2.735   0.983   1.778 -0.2292  0.3802 -0.3956
  745SOL     OW 2977   1.786   0.419   2.499  0.3629 -0.0004  0.1155
  745SOL    HW1 2978   1.821   0.437   2.410  0.6489  0.9090 -0.2882
  745SOL    HW2 2979   1.689   0.418   2.486 -1.4125  0.7002 -1.6702
  745SOL     MW 2980   1.778   0.422   2.486  0.1664  0.2120 -0.1733
  746SOL     OW 2981   1.499   1.472   1.711 -0.0191 -0.1807  0.0996
  746SOL    HW1 2982   1.567   1.540   1.726  1.4884 -0.2246 -1.7737
  746SOL    HW2 2983   1.526   1.396   1.759 -2.5120  0.7132  0.0664
  746SOL     MW 2984   1.511   1.471   1.719 -0.1491 -0.0685 -0.1519
  747SOL     OW 2985   2.552   1.164   1.911 -0.2418 -0.4565 -0.4969
  747SOL    HW1 2986   2.472   1.155   1.857 -0.6002  0.5138  4.5021
  747SOL    HW2 2987   2.547   1.253   1.949  2.2977 -0.0808 -1.1824
  747SOL     MW 2988   2.541   1.175   1.909  0.0460 -0.2789  0.0722
  748SOL     OW 2989   0.093   3.094   1.867  0.3620  0.3635  0.3761
  748SOL    HW1 2990   0.183   3.060   1.884  0.1703 -3.0329  1.4330
  748SOL    HW2 2991   0.069   3.155   1.941  0.2108  3.4241  0.3460
  748SOL     MW 2992   0.102   3.097   1.879  0.3167  0.3192  0.5116
  749SOL     OW 2993   2.405   0.540   2.757 -0.1218 -0.3850  0.2711
  749SOL    HW1 2994   2.439   0.621   2.725  1.8050  0.7501  0.4445
  749SOL    HW2 2995   2.416   0.557   2.849  0.4342 -0.3792 -4.1821
  749SOL     MW 2996   2.411   0.553   2.765  0.2058 -0.2344 -0.2936
  750SOL     OW 2997   2.052   3.076   1.961 -0.2639  0.3580  0.1405
  750SOL    HW1 2998   2.111   3.154   1.957 -1.3482 -0.5517 -2.1836
  750SOL    HW2 2999   2.113   3.007   1.957 -1.8030 -2.1514  0.7314
  750SOL     MW 3000   2.068   3.077   1.959 -0.6100 -0.0931 -0.0882
  751SOL     OW 3001   0.025   0.415   2.381 -0.1532  0.8124 -0.3470
  751SOL    HW1 3002  -0.054   0.353   2.375 -0.8875  0.8079 -2.6270
  751SOL    HW2 3003   0.086   0.384   2.316  0.5069 -0.9141  0.0691
  751SOL     MW 3004   0.022   0.403   2.371 -0.1630  0.5840 -0.5929
  752SOL     OW 3005   2.133   0.885   2.750 -0.3782 -0.2739  0.0406
  752SOL    HW1 3006   2.184   0.957   2.710  1.1984 -1.0238  0.3677
  752SOL    HW2 3007   2.124   0.904   2.846 -1.1132 -0.2990  0.8310
  752SOL     MW 3008   2.138   0.897   2.758 -0.2671 -0.3761  0.1881
  753SOL     OW 3009   2.854   0.360   2.345  0.0208 -0.2118  0.2284
  753SOL    HW1 3010   2.792   0.284   2.341  3.0877 -2.8829  0.6296
  753SOL    HW2 3011   2.800   0.437   2.353  1.6609 -0.4774 -0.3808
  753SOL     MW 3012   2.839   0.360   2.346  0.6419 -0.5993  0.2009
  754SOL     OW 3013   2.205   3.018   2.632  0.1739 -0.4517  0.8683
  754SOL    HW1 3014   2.238   3.009   2.541  0.8581 -0.2981  2.5394
  754SOL    HW2 3015   2.281   2.983   2.676  0.0108  2.2162  1.2829
  754SOL     MW 3016   2.219   3.012   2.626  0.2426 -0.0794  1.1435
  755SOL     OW 3017   2.750   1.597   2.491 -0.5246  0.1188 -0.2278
  755SOL    HW1 3018   2.737   1.502   2.496 -2.1206 -0.0715  2.0565
  755SOL    HW2 3019   2.782   1.629   2.574 -2.3864 -0.1698 -1.5467
  755SOL     MW 3020   2.752   1.589   2.502 -0.9808  0.0556 -0.1004
  756SOL     OW 3021   2.229   1.274   2.996  0.8100  0.3199  0.5661
  756SOL    HW1 3022   2.308   1.322   2.991 -1.1115  1.1936 -2.0878
  756SOL    HW2 3023   2.261   1.183   3.013 -1.3195  0.3785  0.3991
  756SOL     MW 3024   2.244   1.268   2.997  0.2755  0.4429  0.1939
  757SOL     OW 3025   2.128   0.972   1.629 -0.3194 -0.0981 -0.0164
  757SOL    HW1 3026   2.135   0.878   1.621 -0.4306  0.6080  0.7730
  757SOL    HW2 3027   2.037   0.983   1.603 -0.8811 -2.4798 -0.5639
  757SOL     MW 3028   2.117   0.961   1.625 -0.4082 -0.3192  0.0156
  758SOL     OW 3029   2.238   1.754   2.667 -0.0300  0.6809 -0.1129
  758SOL    HW1 3030   2.205   1.787   2.586 -1.4840  0.3953  2.9300
  758SOL    HW2 3031   2.337   1.750   2.674 -0.1839  1.6515  1.4109
  758SOL     MW 3032   2.247   1.758   2.657 -0.2422  0.7713  0.4896
  759SOL     OW 3033   1.561   1.377   2.754 -0.0305 -0.6779 -0.5836
  759SOL    HW1 3034   1.600   1.437   2.686  1.9887  0.0055 -2.8071
  759SOL    HW2 3035   1.566   1.441   2.823  1.6067  1.8856  0.2953
  759SOL     MW 3036   1.567   1.393   2.754  0.4519 -0.2495 -0.7610
  760SOL     OW 3037   2.680   1.973   2.685  0.2733 -0.1184  0.4994
  760SOL    HW1 3038   2.645   1.885   2.678  0.4839 -2.1330 -1.1294
  760SOL    HW2 3039   2.749   1.988   2.617 -0.1782 -3.4090  0.9847
  760SOL     MW 3040   2.685   1.964   2.675  0.2415 -0.8184  0.3485
  761SOL     OW 3041   2.112   0.424   2.441  0.2233  1.0567 -0.7233
  761SOL    HW1 3042   2.059   0.346   2.428 -3.6740 -1.6010  0.6155
  761SOL    HW2 3043   2.097   0.438   2.534 -0.8494 -1.5043  1.9806
  761SOL     MW 3044   2.103   0.416   2.451 -0.4324  0.3681 -0.1899
  762SOL     OW 3045   3.102   0.165   2.062 -0.4825  0.1167 -0.2886
  762SOL    HW1 3046   3.081   0.118   2.144  0.5732  1.3211  1.7189
  762SOL    HW2 3047   3.060   0.253   2.072 -2.3394 -0.9163  2.5362
  762SOL     MW 3048   3.094   0.171   2.074 -0.5882  0.1393  0.3490
  763SOL     OW 3049   2.420   1.161   2.356 -0.5942 -0.4134  0.5251
  763SOL    HW1 3050   2.460   1.107   2.283 -1.5778  0.3703 -1.0584
  763SOL    HW2 3051   2.492   1.222   2.385 -0.7099 -0.9090  1.3278
  763SOL     MW 3052   2.435   1.162   2.350 -0.7393 -0.3754  0.4221
  764SOL     OW 3053   0.324   0.174   2.819  0.2659  0.3257  0.0511
  764SOL    HW1 3054   0.255   0.222   2.767 -1.8253 -1.8526  2.6203
  764SOL    HW2 3055   0.358   0.231   2.890  1.1358 -0.1463  0.4950
  764SOL     MW 3056   0.319   0.188   2.822  0.1047 -0.0240  0.4487
  765SOL     OW 3057   2.693   0.144   2.320 -0.4591 -0.8733 -0.1944
  765SOL    HW1 3058   2.626   0.127   2.256 -0.0459  0.6477 -3.1471
  765SOL    HW2 3059   2.734   0.057   2.319  1.8590  0.0981 -0.0945
  765SOL     MW 3060   2.689   0.130   2.312 -0.0987 -0.5445 -0.5708
  766SOL     OW 3061   1.848   3.009   2.139 -0.4732  0.2894  0.4479
  766SOL    HW1 3062   1.910   3.048   2.072  1.9613 -0.2164  1.3649
  766SOL    HW2 3063   1.786   2.948   2.090 -0.2417 -2.6411  1.5538
  766SOL     MW 3064   1.848   3.006   2.124 -0.1214 -0.1640  0.7148
  767SOL     OW 3065   2.677   0.598   1.856  0.0448 -0.3312 -0.0942
  767SOL    HW1 3066   2.714   0.673   1.907  1.9424 -0.5741  0.5537
  767SOL    HW2 3067   2.579   0.603   1.862 -0.7259  3.9190 -0.4839
  767SOL     MW 3068   2.669   0.608   1.863  0.1935  0.1975 -0.0601
  768SOL     OW 3069   0.050   1.523   2.923  0.3103  0.0476  0.5666
  768SOL    HW1 3070   0.088   1.482   3.002  1.7148  1.5472  1.3375
  768SOL    HW2 3071   0.066   1.471   2.840 -0.1788 -1.4879 -0.0531
  768SOL     MW 3072   0.057   1.511   2.923  0.4311  0.0429  0.5866
  769SOL     OW 3073   2.364   0.652   2.400  0.6073 -0.2621 -0.7311
  769SOL    HW1 3074   2.285   0.594   2.383 -2.3709 -0.8445 -1.7066
  769SOL    HW2 3075   2.425   0.639   2.326 -0.4878 -1.1273 -0.5484
  769SOL     MW 3076   2.362   0.643   2.388  0.0698 -0.4531 -0.8357
  770SOL     OW 3077   0.031   1.631   2.565 -0.4960  0.2460 -0.2262
  770SOL    HW1 3078  -0.065   1.634   2.590  0.6007  2.3001  1.3031
  770SOL    HW2 3079   0.065   1.542   2.592 -0.7230 -0.6429 -0.9254
  770SOL     MW 3080   0.023   1.620   2.572 -0.3813  0.3997 -0.1167
  771SOL     OW 3081   3.066   0.631   1.974  0.4603 -0.0848 -0.2570
  771SOL    HW1 3082   3.025   0.602   1.888 -1.2092  2.2908 -2.5037
  771SOL    HW2 3083   3.146   0.586   1.974 -0.5715  2.4927 -0.5110
  771SOL     MW 3084   3.071   0.621   1.963  0.1039  0.5687 -0.5869
  772SOL     OW 3085   0.020   0.031   2.313 -0.2017  0.5061 -0.9856
  772SOL    HW1 3086  -0.066   0.007   2.335  0.7330  0.3768  1.0666
  772SOL    HW2 3087   0.050  -0.056   2.277 -0.2899 -1.3064  0.0163
  772SOL     MW 3088   0.013   0.016   2.311 -0.0900  0.2499 -0.5827
  773SOL     OW 3089   2.417   2.900   2.755 -0.1234 -0.2547  0.2107
  773SOL    HW1 3090   2.424   2.818   2.711 -0.9412 -0.4773 -2.4208
  773SOL    HW2 3091   2.386   2.879   2.842 -1.7935  0.0124 -1.2476
  773SOL     MW 3092   2.414   2.886   2.761 -0.4517 -0.2489 -0.3289
  774SOL     OW 3093   2.320   1.176   1.782  0.3128 -0.1154 -0.0761
  774SOL    HW1 3094   2.288   1.257   1.738 -3.3463 -2.2104 -0.7134
  774SOL    HW2 3095   2.273   1.108   1.724 -2.2779 -0.6962 -0.6786
  774SOL     MW 3096   2.309   1.178   1.768 -0.5118 -0.4684 -0.2397
  775SOL     OW 3097   2.295   2.986   2.360 -0.8640  0.3074  0.1081
  775SOL    HW1 3098   2.282   3.064   2.310  2.4463  0.1283  0.4915
  775SOL    HW2 3099   2.375   2.951   2.320 -1.3167  1.3361 -1.1414
  775SOL     MW 3100   2.304   2.992   2.348 -0.4870  0.4195 -0.0062
  776SOL     OW 3101   0.142   1.494   0.087  0.0420  0.2464 -0.2100
  776SOL    HW1 3102   0.232   1.465   0.094 -1.4738 -2.3915  0.4526
  776SOL    HW2 3103   0.100   1.421   0.128  1.2484 -0.6094  1.0847
  776SOL     MW 3104   0.148   1.480   0.093  0.0011 -0.2146  0.0483
  777SOL     OW 3105   3.010   1.094   1.714  0.1276 -0.3146 -0.4457
  777SOL    HW1 3106   2.985   1.164   1.653 -1.0292  1.9575  2.7444
  777SOL    HW2 3107   2.928   1.054   1.749 -2.2624 -3.2695  0.2804
  777SOL     MW 3108   2.996   1.098   1.711 -0.3404 -0.4047  0.0710
  778SOL     OW 3109   2.828   0.437   2.757 -0.3382  0.2477 -0.2975
  778SOL    HW1 3110   2.784   0.457   2.843 -2.3220  0.8785 -1.0697
  778SOL    HW2 3111   2.834   0.525   2.712  1.9387  3.6296 -1.9173
  778SOL     MW 3112   2.823   0.451   2.762 -0.2996  0.7771 -0.6131
  779SOL     OW 3113   2.158   0.545   2.209 -0.9103  0.1023  0.4364
  779SOL    HW1 3114   2.170   0.641   2.184 -1.5570  1.3234 -1.9238
  779SOL    HW2 3115   2.103   0.543   2.282  1.7537 -0.9308  0.3154
  779SOL     MW 3116   2.152   0.557   2.216 -0.6441  0.1271  0.1090
  780SOL     OW 3117   0.099   0.285   2.674 -0.3723 -0.3493  0.2964
  780SOL    HW1 3118   0.086   0.318   2.763  1.5446 -0.4575  2.5520
  780SOL    HW2 3119   0.008   0.266   2.648 -1.8497 -0.4476 -1.5255
  780SOL     MW 3120   0.085   0.287   2.682 -0.3143 -0.3766  0.3536
  781SOL     OW 3121   3.055   1.304   2.491 -0.0229  0.0134  0.7269
  781SOL    HW1 3122   3.050   1.363   2.415  1.2838 -0.3090  0.7344
  781SOL    HW2 3123   3.085   1.223   2.451  0.3938  0.9901 -0.0308
  781SOL     MW 3124   3.058   1.301   2.476  0.2045  0.0998  0.6279
  782SOL     OW 3125   0.674   1.558   3.078  0.2665 -0.7725 -0.3607
  782SOL    HW1 3126   0.587   1.573   3.044  1.3485  2.5095  0.7005
  782SOL    HW2 3127   0.685   1.632   3.141  0.4503 -2.8397 -1.6903
  782SOL     MW 3128   0.664   1.570   3.082  0.4335 -0.6122 -0.3961
  783SOL     OW 3129   2.723   0.582   2.417  0.0707 -0.9288  0.0727
  783SOL    HW1 3130   2.658   0.603   2.347  0.6267 -2.4442 -0.7768
  783SOL    HW2 3131   2.667   0.539   2.485 -0.5918  1.6717 -1.2689
  783SOL     MW 3132   2.707   0.579   2.417  0.0567 -0.7856 -0.2164
  784SOL     OW 3133   0.139   0.825   2.811  0.2151 -0.1456  0.0541
  784SOL    HW1 3134   0.072   0.898   2.810  3.6228  1.2482  0.4203
  784SOL    HW2 3135   0.208   0.864   2.753  2.0462  0.5973  1.6044
  784SOL     MW 3136   0.139   0.840   2.803  0.9063  0.1363  0.3070
  785SOL     OW 3137   0.423   0.508   2.181  0.2273  0.3925 -0.0701
  785SOL    HW1 3138   0.433   0.530   2.087  1.9851 -2.4319  0.5981
  785SOL    HW2 3139   0.334   0.467   2.187 -0.7603  1.4560  2.4975
  785SOL     MW 3140   0.413   0.505   2.169  0.3289  0.1602  0.3569
  786SOL     OW 3141   1.954   0.333   2.961  1.0956 -0.6159 -0.0016
  786SOL    HW1 3142   1.951   0.421   3.005  1.7642 -2.7834 -0.7607
  786SOL    HW2 3143   1.977   0.340   2.865 -3.3171 -1.9792  0.6576
  786SOL     MW 3144   1.957   0.345   2.954  0.6016 -1.0817 -0.0148
  787SOL     OW 3145   2.453   0.165   2.940  0.1788  0.0667 -0.3206
  787SOL    HW1 3146   2.522   0.101   2.906 -1.6333  0.9367  0.0477
  787SOL    HW2 3147   2.498   0.220   3.006 -4.5297 -3.2603  1.8702
  787SOL     MW 3148   2.468   0.164   2.944 -0.6815 -0.2575  0.0171
  788SOL     OW 3149   2.837   3.009   2.338 -0.1498  0.1419  0.0427
  788SOL    HW1 3150   2.853   2.996   2.428 -3.2732  0.1015 -1.9971
  788SOL    HW2 3151   2.872   2.932   2.288  0.5830 -2.2999 -2.3087
  788SOL     MW 3152   2.844   2.997   2.343 -0.4652 -0.1856 -0.5367
  789SOL     OW 3153   0.083   0.166   3.045  0.1473 -0.3686  0.3340
  789SOL    HW1 3154   0.010   0.110   3.074 -0.6790 -2.6454  0.0444
  789SOL    HW2 3155   0.053   0.218   2.969  3.2069  1.5956  0.3214
  789SOL     MW 3156   0.069   0.166   3.038  0.4419 -0.4099  0.2942
  790SOL     OW 3157   0.012   1.070   2.363  0.7376  0.1476  0.1676
  790SOL    HW1 3158  -0.046   1.023   2.417  2.3812  0.0228  0.1411
  790SOL    HW2 3159  -0.040   1.083   2.286 -2.1468  0.3995  1.1628
  790SOL     MW 3160  -0.003   1.065   2.360  0.5739  0.1644  0.2954
  791SOL     OW 3161   2.587   0.405   2.615 -0.1276 -0.0705  0.1657
  791SOL    HW1 3162   2.515   0.435   2.668 -0.7810  0.0143 -2.1106
  791SOL    HW2 3163   2.664   0.416   2.679  0.8525  0.3040  4.5962
  791SOL     MW 3164   2.588   0.410   2.631 -0.0845 -0.0099  0.4499
  792SOL     OW 3165   2.356   0.291   2.418  0.0449  0.8837  0.1178
  792SOL    HW1 3166   2.282   0.355   2.419  2.3498 -0.3558 -0.3713
  792SOL    HW2 3167   2.379   0.249   2.502 -0.8791 -1.4183 -2.0977
  792SOL     MW 3168   2.349   0.294   2.429  0.2271  0.4164 -0.2391
  793SOL     OW 3169   1.936   1.182   1.938 -0.1491  0.0158  0.6906
  793SOL    HW1 3170   1.883   1.169   1.851 -1.6559 -1.5185 -0.7967
  793SOL    HW2 3171   1.987   1.102   1.938 -1.9717 -1.2701 -0.9908
  793SOL     MW 3172   1.936   1.170   1.927 -0.5884 -0.3563  0.2726
  794SOL     OW 3173   1.389   2.336   0.125  0.3566 -0.6397 -0.0736
  794SOL    HW1 3174   1.420   2.387   0.048 -1.8676 -0.2736  3.5376
  794SOL    HW2 3175   1.454   2.352   0.195 -1.1188 -1.2483 -0.0877
  794SOL     MW 3176   1.402   2.345   0.124 -0.1316 -0.6717  0.4010
  795SOL     OW 3177   2.348   1.046   2.612  0.4302 -0.1612 -0.0927
  795SOL    HW1 3178   2.307   1.127   2.661 -1.6303  1.2592  2.7212
  795SOL    HW2 3179   2.397   1.079   2.535  2.2647 -0.6055 -1.0725
  795SOL     MW 3180   2.349   1.061   2.608  0.4004 -0.0324  0.1493
  796SOL     OW 3181   0.270   0.562   2.779  0.3747  0.2648 -0.0681
  796SOL    HW1 3182   0.278   0.653   2.796  1.4001 -0.2303 -0.7243
  796SOL    HW2 3183   0.211   0.550   2.699  0.1449  0.1615  0.2110
  796SOL     MW 3184   0.263   0.572   2.771  0.4797  0.1859 -0.1178
  797SOL     OW 3185   2.660   0.103   2.579  0.0682  0.1212  0.3879
  797SOL    HW1 3186   2.616   0.177   2.607  0.3434 -1.0154 -0.0002
  797SOL    HW2 3187   2.660   0.091   2.483 -2.7918  2.2530  1.5900
  797SOL     MW 3188   2.654   0.111   2.570 -0.2728  0.2525  0.4953
  798SOL     OW 3189   2.282   0.119   2.221 -0.3036  0.3030  0.3710
  798SOL    HW1 3190   2.311   0.185   2.287  0.5985  1.4041  1.4619
  798SOL    HW2 3191   2.365   0.084   2.180 -0.7187 -4.1322 -1.1078
  798SOL     MW 3192   2.297   0.123   2.224 -0.2393 -0.1369  0.3198
  799SOL     OW 3193   2.562   2.933   0.052  0.1027  0.2015 -0.8359
  799SOL    HW1 3194   2.487   2.895   0.007  0.9458 -2.1661  1.7178
  799SOL    HW2 3195   2.523   2.955   0.133 -1.7967  1.8243 -2.0200
  799SOL     MW 3196   2.547   2.931   0.057 -0.0366  0.1033 -0.6552
  800SOL     OW 3197   1.960   3.099   1.683  0.4533  0.1982 -0.3246
  800SOL    HW1 3198   1.883   3.042   1.681  1.2464  0.7131  1.6542
  800SOL    HW2 3199   1.989   3.091   1.773 -2.1385  0.9741 -2.4300
  800SOL     MW 3200   1.953   3.090   1.695  0.2160  0.3685 -0.3413
  801SOL     OW 3201   2.808   1.283   2.637 -0.1078  0.1882  0.4315
  801SOL    HW1 3202   2.782   1.191   2.636  1.8483 -1.0504  0.3232
  801SOL    HW2 3203   2.896   1.271   2.606 -1.2324 -1.5177  0.3463
  801SOL     MW 3204   2.817   1.269   2.633  0.0019 -0.2003  0.4060
  802SOL     OW 3205   2.617   1.491   2.768 -0.5730  0.9611  0.0619
  802SOL    HW1 3206   2.593   1.392   2.776  3.7810 -0.7506  0.6266
  802SOL    HW2 3207   2.713   1.484   2.786  2.2314  0.9021 -0.9574
  802SOL     MW 3208   2.627   1.477   2.771  0.3714  0.7275  0.0020
  803SOL     OW 3209   2.290   1.391   1.988 -0.3183 -0.9020 -0.3970
  803SOL    HW1 3210   2.237   1.352   2.062 -2.4517  0.9863  1.1186
  803SOL    HW2 3211   2.297   1.329   1.914  2.4510 -0.5867 -0.8958
  803SOL     MW 3212   2.284   1.378   1.988 -0.2344 -0.6112 -0.2628
  804SOL     OW 3213   2.296   0.073   0.035  0.4403  0.1156 -0.4801
  804SOL    HW1 3214   2.255   0.155   0.022  0.9840 -2.1849  1.5789
  804SOL    HW2 3215   2.363   0.083  -0.033  3.7848  1.7077  2.3462
  804SOL     MW 3216   2.300   0.085   0.024  0.9533  0.0221  0.1645
  805SOL     OW 3217   2.700   1.032   2.557 -0.2468  0.3556  0.0561
  805SOL    HW1 3218   2.692   0.992   2.472 -0.0794 -0.9409  1.3648
  805SOL    HW2 3219   2.797   1.023   2.569 -1.5507 -1.7660 -1.3836
  805SOL     MW 3220   2.712   1.025   2.548 -0.3968 -0.0954  0.0388
  806SOL     OW 3221   2.559   0.577   2.194 -0.3501 -0.6981  0.0729
  806SOL    HW1 3222   2.541   0.485   2.207 -2.3584 -2.9066 -0.7505
  806SOL    HW2 3223   2.528   0.606   2.109  1.7347  0.1711 -1.0173
  806SOL     MW 3224   2.552   0.569   2.185 -0.3400 -0.8748 -0.1796
  807SOL     OW 3225   0.035   1.187   1.999 -0.5601  0.3056 -0.4517
  807SOL    HW1 3226   0.072   1.098   2.003 -1.6815 -1.6134 -3.0695
  807SOL    HW2 3227  -0.042   1.178   2.059 -5.3684  1.6385  1.8944
  807SOL     MW 3228   0.030   1.174   2.008 -1.3424  0.2283 -0.4876
  808SOL     OW 3229   2.624   3.068   2.823 -0.5241  0.3504 -0.1653
  808SOL    HW1 3230   2.561   2.997   2.790 -0.3974  1.9937  1.6370
  808SOL    HW2 3231   2.659   3.109   2.746 -0.4413 -0.6073  1.6458
  808SOL     MW 3232   2.620   3.064   2.809 -0.4965  0.4408  0.3114
  809SOL     OW 3233   2.607   1.335   2.431  0.4703 -0.4840 -0.6565
  809SOL    HW1 3234   2.654   1.330   2.512 -0.8245  1.8792  1.8095
  809SOL    HW2 3235   2.660   1.311   2.356  1.2162  1.4484  1.3504
  809SOL     MW 3236   2.620   1.331   2.432  0.3979  0.0827 -0.0664
  810SOL     OW 3237   2.205   1.301   2.224 -0.1794 -0.1139 -0.2513
  810SOL    HW1 3238   2.281   1.250   2.252  0.8589 -1.2346 -1.2492
  810SOL    HW2 3239   2.126   1.259   2.247 -1.6809  0.0072 -1.2551
  810SOL     MW 3240   2.204   1.288   2.230 -0.2405 -0.2458 -0.5154
  811SOL     OW 3241   1.566   0.126   2.299  0.3744  0.0951  0.5123
  811SOL    HW1 3242   1.632   0.057   2.326 -2.1945 -0.2208  1.1797
  811SOL    HW2 3243   1.562   0.121   2.202  0.3481 -4.3018  0.6637
  811SOL     MW 3244   1.574   0.116   2.290  0.0320 -0.5267  0.6203
  812SOL     OW 3245   1.450   2.819   1.990  0.5941  0.5079  0.6316
  812SOL    HW1 3246   1.537   2.848   1.970 -0.5213  1.3325  0.5628
  812SOL    HW2 3247   1.464   2.793   2.084 -1.5067 -0.7828  0.7783
  812SOL     MW 3248   1.463   2.820   2.000  0.1697  0.4464  0.6419
  813SOL     OW 3249   1.871   0.701   2.232 -0.3189  0.3806 -0.1526
  813SOL    HW1 3250   1.853   0.604   2.246 -0.7789 -2.4719  3.1928
  813SOL    HW2 3251   1.859   0.756   2.312  2.6330  0.3898  0.4081
  813SOL     MW 3252   1.867   0.696   2.245  0.0099  0.0054  0.3628
  814SOL     OW 3253   2.702   1.249   1.628  0.5311  0.2016 -0.1238
  814SOL    HW1 3254   2.705   1.192   1.702 -1.2580  2.3379 -1.9168
  814SOL    HW2 3255   2.694   1.182   1.553  1.4131 -1.9188  0.6970
  814SOL     MW 3256   2.701   1.232   1.628  0.4114  0.2037 -0.2521
  815SOL     OW 3257   2.554   1.729   2.390  0.1359 -0.1196 -0.0967
  815SOL    HW1 3258   2.483   1.658   2.380  6.3892 -0.7201  0.2539
  815SOL    HW2 3259   2.635   1.678   2.425 -0.6718 -0.3839  1.1835
  815SOL     MW 3260   2.555   1.713   2.393  0.8544 -0.2337  0.1184
  816SOL     OW 3261   0.767   0.650   2.755 -0.2896  0.0839  0.0730
  816SOL    HW1 3262   0.761   0.559   2.786 -1.5593  3.3436  2.6294
  816SOL    HW2 3263   0.669   0.653   2.740  0.8538  0.8555 -0.8174
  816SOL     MW 3264   0.753   0.638   2.757 -0.3063  0.6158  0.2928
  817SOL     OW 3265   3.039   1.239   1.478 -0.2075 -0.1823  0.4055
  817SOL    HW1 3266   3.132   1.223   1.488  1.6565  1.0418 -1.0497
  817SOL    HW2 3267   3.043   1.321   1.433 -1.3527  0.5628  1.3585
  817SOL     MW 3268   3.052   1.248   1.474 -0.1126  0.0775  0.3393
  818SOL     OW 3269   1.880   1.008   2.686  0.2836 -0.4703 -0.4268
  818SOL    HW1 3270   1.871   0.945   2.614  1.1597  2.0409 -0.0663
  818SOL    HW2 3271   1.970   0.994   2.715 -0.4750  0.3227  2.0817
  818SOL     MW 3272   1.891   0.998   2.680  0.2991 -0.0343 -0.0483
  819SOL     OW 3273   1.937   0.205   2.436 -0.3817 -0.2812  0.2129
  819SOL    HW1 3274   1.875   0.258   2.478  1.9649  0.6292 -0.8831
  819SOL    HW2 3275   1.997   0.180   2.508  0.4775  0.0758  3.2214
  819SOL     MW 3276   1.937   0.209   2.451  0.0413 -0.1140  0.4652
  820SOL     OW 3277   2.519   1.748   2.676 -0.2697 -0.5973 -0.8579
  820SOL    HW1 3278   2.549   1.657   2.708 -0.2126 -0.4713 -1.3692
  820SOL    HW2 3279   2.523   1.748   2.582  0.4295 -2.1030  0.9339
  820SOL     MW 3280   2.523   1.736   2.668 -0.1699 -0.7793 -0.6889
  821SOL     OW 3281   2.570   1.423   2.054  0.4020  0.2440 -0.2744
  821SOL    HW1 3282   2.605   1.497   2.002  0.7681  2.8222 -0.5537
  821SOL    HW2 3283   2.473   1.445   2.037 -0.5798  2.5861 -2.1126
  821SOL     MW 3284   2.562   1.436   2.045  0.3208  0.8932 -0.5538
  822SOL     OW 3285   2.711   2.650   1.374 -0.1168  0.2102  0.0301
  822SOL    HW1 3286   2.769   2.680   1.438 -1.6914  0.3833  0.9516
  822SOL    HW2 3287   2.649   2.719   1.364 -0.8666 -0.8206 -1.8648
  822SOL     MW 3288   2.710   2.663   1.381 -0.4235  0.0971 -0.0983
  823SOL     OW 3289   2.298   0.483   1.765 -0.4837  0.7498 -0.5741
  823SOL    HW1 3290   2.376   0.451   1.720  0.3120  0.1534  0.0690
  823SOL    HW2 3291   2.237   0.411   1.746  2.6434 -0.5920 -1.0206
  823SOL     MW 3292   2.300   0.469   1.757  0.0339  0.4940 -0.5481
  824SOL     OW 3293   2.107   1.445   2.514 -0.3043 -0.5656 -0.0902
  824SOL    HW1 3294   2.179   1.484   2.464 -2.3675  0.6933 -1.8971
  824SOL    HW2 3295   2.081   1.515   2.574 -1.1753 -1.0720 -1.2931
  824SOL     MW 3296   2.113   1.459   2.516 -0.6914 -0.4663 -0.4874
  825SOL     OW 3297   1.886   2.548   0.296  0.7347 -0.1172  0.5437
  825SOL    HW1 3298   1.893   2.507   0.382  1.8537  2.7491 -0.1164
  825SOL    HW2 3299   1.960   2.513   0.245 -0.6511  0.3409 -1.0699
  825SOL     MW 3300   1.897   2.538   0.301  0.6995  0.3214  0.2437
  826SOL     OW 3301   1.889   2.373   0.532  0.3118  0.4582 -0.0948
  826SOL    HW1 3302   1.880   2.291   0.589 -0.5591 -1.9234 -0.9267
  826SOL    HW2 3303   1.828   2.435   0.573 -0.8116 -0.6349 -1.7957
  826SOL     MW 3304   1.880   2.370   0.545  0.0487 -0.0002 -0.4289
  827SOL     OW 3305   1.923   2.195   0.951 -0.3558 -0.4968  0.1989
  827SOL    HW1 3306   1.877   2.233   0.880  1.3680 -0.0500  4.4217
  827SOL    HW2 3307   1.879   2.113   0.980 -0.9531 -1.5203 -0.3000
  827SOL     MW 3308   1.911   2.189   0.945 -0.2072 -0.5729  0.6903
  828SOL     OW 3309   0.086   2.610   0.603  0.3907 -0.2302  0.4247
  828SOL    HW1 3310   0.175   2.622   0.566 -0.6148  2.4141 -0.6192
  828SOL    HW2 3311   0.033   2.663   0.534 -1.5882 -1.4521 -1.4822
  828SOL     MW 3312   0.091   2.619   0.589 -0.0030 -0.0425  0.0354
  829SOL     OW 3313   2.930   2.957   1.143  0.6106  0.0055  0.1298
  829SOL    HW1 3314   2.842   2.923   1.126  2.0870  0.5927 -0.0651
  829SOL    HW2 3315   2.988   2.881   1.122  0.7404 -0.9882  0.4448
  829SOL     MW 3316   2.926   2.942   1.138  0.8225 -0.0481  0.1457
  830SOL     OW 3317   2.517   2.887   2.027 -0.0740 -0.0519  0.3683
  830SOL    HW1 3318   2.429   2.890   1.989  0.0592 -2.5783 -0.2122
  830SOL    HW2 3319   2.571   2.850   1.959 -0.5133  0.4747 -0.4996
  830SOL     MW 3320   2.513   2.882   2.013 -0.1144 -0.3158  0.1772
  831SOL     OW 3321   2.393   2.471   1.291  0.2702 -0.0705  0.2173
  831SOL    HW1 3322   2.373   2.429   1.380 -0.1724 -0.4693  3.0726
  831SOL    HW2 3323   2.470   2.428   1.254 -0.9379 -0.9857  2.7868
  831SOL     MW 3324   2.400   2.460   1.298  0.0524 -0.2439  0.9330
  832SOL     OW 3325   2.398   2.187   1.921 -0.2517  0.1286  0.2251
  832SOL    HW1 3326   2.424   2.275   1.958 -1.7638  0.6623 -0.5682
  832SOL    HW2 3327   2.485   2.148   1.901 -0.8981 -0.4498 -3.3294
  832SOL     MW 3328   2.413   2.194   1.923 -0.5365  0.1227 -0.3486
  833SOL     OW 3329   1.772   2.418   0.863 -0.2114  0.4151  0.0839
  833SOL    HW1 3330   1.692   2.373   0.879  3.6789  2.2392 -2.4224
  833SOL    HW2 3331   1.746   2.492   0.926 -1.2810  2.6437  3.1387
  833SOL     MW 3332   1.758   2.422   0.873  0.1607  0.9498  0.1563
  834SOL     OW 3333   2.140   2.469   0.572  0.1777 -0.3363 -0.3221
  834SOL    HW1 3334   2.047   2.457   0.561  0.0876  3.3325  1.8778
  834SOL    HW2 3335   2.173   2.434   0.497  0.4547 -2.1057 -0.8782
  834SOL     MW 3336   2.132   2.463   0.560  0.2024 -0.0857 -0.1052
  835SOL     OW 3337   1.785   2.586   0.650 -0.3674 -0.4917 -0.3800
  835SOL    HW1 3338   1.760   2.527   0.728  0.2040  1.1781 -1.4744
  835SOL    HW2 3339   1.856   2.641   0.680  2.1567  0.1169 -2.5607
  835SOL     MW 3340   1.791   2.585   0.664  0.0410 -0.1911 -0.8121
  836SOL     OW 3341   1.907   2.203   1.615  0.4047 -0.3955 -0.2920
  836SOL    HW1 3342   1.993   2.239   1.632 -0.4176  1.4537 -1.3042
  836SOL    HW2 3343   1.838   2.270   1.630  1.2514  1.4303  0.2587
  836SOL     MW 3344   1.909   2.217   1.619  0.4079  0.0894 -0.3529
  837SOL     OW 3345   2.136   0.191   0.718 -0.0657  0.2622 -0.2229
  837SOL    HW1 3346   2.054   0.225   0.674 -2.3538 -0.8293 -0.2458
  837SOL    HW2 3347   2.156   0.103   0.677 -1.2702 -0.3630 -0.0631
  837SOL     MW 3348   2.128   0.184   0.707 -0.5265  0.0357 -0.2048
  838SOL     OW 3349   2.955   2.143   0.929 -0.1906  0.7024 -0.1194
  838SOL    HW1 3350   2.885   2.089   0.971 -0.3679 -1.2729 -0.5553
  838SOL    HW2 3351   3.004   2.079   0.877  1.7270 -0.0901 -1.3588
  838SOL     MW 3352   2.952   2.127   0.927  0.0390  0.3372 -0.3404
  839SOL     OW 3353   1.522   2.348   0.958  0.0947 -0.0671 -0.3013
  839SOL    HW1 3354   1.524   2.431   1.006  0.2046 -0.1350  0.1238
  839SOL    HW2 3355   1.529   2.276   1.025  0.7710 -0.5975  0.8653
  839SOL     MW 3356   1.523   2.349   0.973  0.1985 -0.1460 -0.0913
  840SOL     OW 3357   2.345   2.087   2.412 -0.4423  0.1325 -0.1177
  840SOL    HW1 3358   2.307   2.122   2.335  1.7884 -5.0521 -0.1542
  840SOL    HW2 3359   2.361   2.169   2.462  0.7899 -0.9586  1.6521
  840SOL     MW 3360   2.342   2.102   2.409  0.0146 -0.6955  0.1110
  841SOL     OW 3361   2.084   2.473   0.130  0.6746 -0.1164 -0.3613
  841SOL    HW1 3362   2.143   2.497   0.059  0.5940  0.3892  0.9687
  841SOL    HW2 3363   2.050   2.388   0.095 -1.7819 -0.3784 -3.0698
  841SOL     MW 3364   2.087   2.465   0.116  0.3399 -0.0843 -0.5432
  842SOL     OW 3365   2.608   1.960   1.575  0.3825 -0.6419  0.5818
  842SOL    HW1 3366   2.547   1.889   1.569 -1.0737 -2.2681  0.4598
  842SOL    HW2 3367   2.584   2.020   1.508 -0.0512 -1.5623  0.7948
  842SOL     MW 3368   2.597   1.958   1.565  0.1331 -0.9779  0.5938
  843SOL     OW 3369   2.605   2.755   1.802 -0.6523 -0.4573 -0.2033
  843SOL    HW1 3370   2.699   2.744   1.772  3.3996  1.1486  0.7943
  843SOL    HW2 3371   2.563   2.677   1.792  0.5391  0.5321  0.3535
  843SOL     MW 3372   2.612   2.743   1.796  0.0395 -0.1148  0.0018
  844SOL     OW 3373   2.605   2.300   1.205  0.0187  0.0554  0.0694
  844SOL    HW1 3374   2.626   2.331   1.122 -0.0403 -1.5110  0.2945
  844SOL    HW2 3375   2.687   2.329   1.249  1.5572 -3.5535  3.3873
  844SOL     MW 3376   2.618   2.308   1.200  0.2139 -0.6274  0.5369
  845SOL     OW 3377   2.848   2.491   0.275  0.2481  0.1326  0.4629
  845SOL    HW1 3378   2.827   2.400   0.285 -1.2615  0.9610  2.0834
  845SOL    HW2 3379   2.859   2.527   0.362 -0.0804 -0.8037 -0.8924
  845SOL     MW 3380   2.847   2.484   0.287  0.0056  0.1183  0.4979
  846SOL     OW 3381   1.541   2.884   0.777 -0.2447 -0.6718  0.3541
  846SOL    HW1 3382   1.617   2.933   0.821  2.1155  0.0933 -1.0347
  846SOL    HW2 3383   1.452   2.907   0.814 -0.9825  0.6489  1.2403
  846SOL     MW 3384   1.539   2.894   0.788 -0.0307 -0.3966  0.2878
  847SOL     OW 3385   2.578   1.924   0.179 -0.2380  0.2033  0.0798
  847SOL    HW1 3386   2.668   1.878   0.178  1.8427  0.2332 -0.5192
  847SOL    HW2 3387   2.517   1.851   0.151 -0.5197 -2.0705  0.8635
  847SOL     MW 3388   2.582   1.908   0.175 -0.0007 -0.0927  0.1041
  848SOL     OW 3389   2.508   2.113   1.385  0.5276 -0.1170  0.8976
  848SOL    HW1 3390   2.549   2.174   1.323 -0.0025  0.5509  1.0217
  848SOL    HW2 3391   2.478   2.036   1.337 -1.2316  0.2936 -0.1047
  848SOL     MW 3392   2.510   2.111   1.371  0.2255  0.0253  0.7817
  849SOL     OW 3393   2.010   2.749   0.757 -0.1815  0.0526  0.7693
  849SOL    HW1 3394   2.040   2.678   0.811 -0.3335  2.4142 -0.9713
  849SOL    HW2 3395   2.081   2.752   0.683  0.8858 -2.0600 -0.9737
  849SOL     MW 3396   2.023   2.740   0.755 -0.0607  0.0854  0.3096
  850SOL     OW 3397   2.208   1.938   1.640  0.9523 -0.2173 -0.3652
  850SOL    HW1 3398   2.129   1.896   1.609 -1.5025  1.7051  0.2478
  850SOL    HW2 3399   2.182   2.017   1.687  4.6665 -2.0928  0.8138
  850SOL     MW 3400   2.195   1.943   1.642  1.1185 -0.2111 -0.1287
  851SOL     OW 3401   2.270   2.423   0.336  0.3525  0.0205 -0.0135
  851SOL    HW1 3402   2.210   2.453   0.268  2.2474  0.2542  0.6319
  851SOL    HW2 3403   2.338   2.489   0.355 -0.1786 -0.1355 -1.4192
  851SOL     MW 3404   2.271   2.435   0.330  0.5324  0.0307 -0.1139
  852SOL     OW 3405   2.364   2.157   0.253  0.2797  0.0192  0.3685
  852SOL    HW1 3406   2.340   2.251   0.256 -0.5604  0.4102 -1.7252
  852SOL    HW2 3407   2.443   2.154   0.199 -3.8383 -2.7237  0.9576
  852SOL     MW 3408   2.371   2.169   0.246 -0.3745 -0.2911  0.1700
  853SOL     OW 3409   2.480   2.422   2.011  0.0215 -0.3785 -0.5081
  853SOL    HW1 3410   2.494   2.435   1.916 -0.4102  0.6548 -2.4960
  853SOL    HW2 3411   2.563   2.413   2.050 -1.2310  1.8790 -1.1551
  853SOL     MW 3412   2.493   2.423   2.003 -0.2007  0.0557 -0.8557
  854SOL     OW 3413   2.794   2.271   0.751 -0.0876  0.2742 -0.3505
  854SOL    HW1 3414   2.714   2.223   0.731 -0.4513  2.7773 -0.7198
  854SOL    HW2 3415   2.844   2.217   0.816  1.9346 -1.1055 -2.4978
  854SOL     MW 3416   2.790   2.257   0.757  0.1312  0.4225 -0.6825
  855SOL     OW 3417   2.707   2.255   0.357  0.3446 -0.1814  0.0064
  855SOL    HW1 3418   2.674   2.271   0.442 -2.0144 -0.4870  0.7024
  855SOL    HW2 3419   2.773   2.187   0.356  1.2322 -2.3512  0.5986
  855SOL     MW 3420   2.711   2.248   0.368  0.1505 -0.5080  0.1764
  856SOL     OW 3421   2.206   1.939   0.200 -0.4059  0.6398 -0.1529
  856SOL    HW1 3422   2.115   1.950   0.232  0.9877  0.5832 -0.5556
  856SOL    HW2 3423   2.262   2.014   0.229  1.1937  1.3658  1.1588
  856SOL     MW 3424   2.201   1.950   0.208 -0.0110  0.7281 -0.0329
  857SOL     OW 3425   2.577   1.965   0.445  0.1106  0.1034  0.5452
  857SOL    HW1 3426   2.611   2.054   0.447  0.6206  3.5649 -0.1325
  857SOL    HW2 3427   2.573   1.935   0.348 -0.1126 -4.1255 -2.3120
  857SOL     MW 3428   2.581   1.973   0.432  0.1484  0.0022  0.0788
  858SOL     OW 3429   2.825   2.668   1.671  0.0830 -0.1142  0.1675
  858SOL    HW1 3430   2.915   2.689   1.663  0.2789  0.7100  1.3476
  858SOL    HW2 3431   2.834   2.584   1.707  1.8544 -1.3453  2.5959
  858SOL     MW 3432   2.838   2.660   1.674  0.3425 -0.1679  0.6436
  859SOL     OW 3433   2.129   2.534   0.900  0.2502  0.2303  0.1028
  859SOL    HW1 3434   2.112   2.455   0.844 -1.3306  0.9189  0.1574
  859SOL    HW2 3435   2.224   2.549   0.898 -1.5954 -0.8729 -0.6115
  859SOL     MW 3436   2.139   2.525   0.893 -0.2019  0.1756  0.0157
  860SOL     OW 3437   2.620   2.588   0.180  0.2399 -0.1103  0.4833
  860SOL    HW1 3438   2.705   2.571   0.216 -1.0201 -0.0606 -0.0885
  860SOL    HW2 3439   2.627   2.656   0.111 -1.2442  3.6732  1.3788
  860SOL     MW 3440   2.632   2.595   0.176 -0.1222  0.3955  0.5260
  861SOL     OW 3441   1.552   2.140   1.119  0.2860 -0.1433  0.0448
  861SOL    HW1 3442   1.576   2.193   1.202 -1.5718  1.6428  1.6433
  861SOL    HW2 3443   1.478   2.079   1.130 -2.9470 -2.5876  1.3894
  861SOL     MW 3444   1.545   2.139   1.131 -0.3856 -0.2301  0.4331
  862SOL     OW 3445   2.404   1.768   1.547 -0.1283  0.6952 -0.3234
  862SOL    HW1 3446   2.356   1.819   1.611 -2.4127 -3.1046  0.6858
  862SOL    HW2 3447   2.390   1.829   1.472 -0.7066 -0.5753 -0.1196
  862SOL     MW 3448   2.396   1.783   1.545 -0.5060  0.0262 -0.1633
  863SOL     OW 3449  -0.000   1.909   1.108 -0.5068 -0.2684 -0.5302
  863SOL    HW1 3450   0.090   1.894   1.142  0.7324 -2.3533  2.7456
  863SOL    HW2 3451  -0.063   1.951   1.170 -2.4528  0.0969 -2.3795
  863SOL     MW 3452   0.003   1.913   1.120 -0.6001 -0.4953 -0.3420
  864SOL     OW 3453   0.023   1.924   0.826 -0.2951  0.1201 -0.2037
  864SOL    HW1 3454   0.003   1.904   0.918  0.4800 -0.6898 -1.6992
  864SOL    HW2 3455  -0.012   1.841   0.780 -1.0877 -0.2970 -4.1343
  864SOL     MW 3456   0.016   1.910   0.832 -0.2974 -0.0418 -0.9196
  865SOL     OW 3457   2.616   2.135   3.096  0.3572  0.1088  0.2146
  865SOL    HW1 3458   2.602   2.058   3.154 -0.3703 -0.9380 -0.9151
  865SOL    HW2 3459   2.588   2.102   3.009  1.5472 -0.0039 -1.3320
  865SOL     MW 3460   2.611   2.121   3.092  0.4182 -0.0442 -0.1385
  866SOL     OW 3461   2.685   2.304   1.604 -0.0987 -0.1584  0.0581
  866SOL    HW1 3462   2.653   2.217   1.633  0.1356 -0.0734  3.2187
  866SOL    HW2 3463   2.700   2.305   1.511 -3.2095 -0.5208  1.9530
  866SOL     MW 3464   2.683   2.293   1.596 -0.4782 -0.1950  0.7252
  867SOL     OW 3465   0.007   2.657   1.777  0.0824  0.0477 -0.2013
  867SOL    HW1 3466   0.001   2.653   1.868  0.9326 -2.4187 -0.6681
  867SOL    HW2 3467   0.006   2.752   1.754  1.8301  1.9666  0.6755
  867SOL     MW 3468   0.006   2.669   1.786  0.4252 -0.0246 -0.1472
  868SOL     OW 3469   2.817   2.586   0.530 -0.2128 -0.0750  0.1079
  868SOL    HW1 3470   2.739   2.535   0.549 -0.9440  1.0207 -1.5440
  868SOL    HW2 3471   2.788   2.678   0.517 -0.8913  1.2564  0.0130
  868SOL     MW 3472   2.803   2.592   0.531 -0.3988  0.2453 -0.1226
  869SOL     OW 3473   1.994   2.378   1.161  0.2898 -0.1669  0.0501
  869SOL    HW1 3474   2.063   2.410   1.106 -0.0876  0.0233 -1.2589
  869SOL    HW2 3475   1.938   2.329   1.096 -1.6575 -0.2697 -0.9325
  869SOL     MW 3476   1.995   2.375   1.145 -0.0169 -0.1554 -0.2523
  870SOL     OW 3477   2.167   0.038   0.477 -0.2024 -0.7903  0.2222
  870SOL    HW1 3478   2.228   0.092   0.421  2.7163  1.2354 -1.0050
  870SOL    HW2 3479   2.201  -0.049   0.477 -0.5715  0.8263 -2.0024
  870SOL     MW 3480   2.179   0.034   0.470  0.1340 -0.3097 -0.2332
  871SOL     OW 3481   2.485   2.123   0.954  0.2171 -0.1706  0.0421
  871SOL    HW1 3482   2.422   2.057   0.920  3.0292 -0.4506  0.6419
  871SOL    HW2 3483   2.443   2.168   1.025 -0.7015 -0.9860 -1.0911
  871SOL     MW 3484   2.471   2.120   0.959  0.4669 -0.3151 -0.0283
  872SOL     OW 3485   2.041   2.566   1.478  0.2941  0.2623  0.5688
  872SOL    HW1 3486   2.027   2.613   1.564  0.8005  2.3703 -0.4504
  872SOL    HW2 3487   1.960   2.517   1.458  0.1668  0.3674 -1.0163
  872SOL     MW 3488   2.029   2.566   1.487  0.3441  0.5543  0.2251
  873SOL     OW 3489   2.911   2.066   1.904 -0.1520 -0.6759 -0.7771
  873SOL    HW1 3490   2.928   2.115   1.984 -0.1070 -1.0860 -0.1691
  873SOL    HW2 3491   2.964   2.082   1.828 -1.2017  0.0091  1.1489
  873SOL     MW 3492   2.921   2.074   1.905 -0.2845 -0.6397 -0.4427
  874SOL     OW 3493   2.374   1.525   2.375 -1.1141 -0.0417  0.3964
  874SOL    HW1 3494   2.365   1.482   2.291 -0.5088  0.3151 -1.9977
  874SOL    HW2 3495   2.425   1.473   2.437  1.0988  1.2847 -1.2719
  874SOL     MW 3496   2.380   1.513   2.372 -0.7423  0.1804 -0.1396
  875SOL     OW 3497   2.280   2.339   1.066  0.0240 -0.2125  0.1285
  875SOL    HW1 3498   2.305   2.405   1.004 -0.9663 -1.5873  0.2092
  875SOL    HW2 3499   2.317   2.372   1.149 -0.0727 -0.4233 -0.6111
  875SOL     MW 3500   2.288   2.352   1.069 -0.1194 -0.4217  0.0416
  876SOL     OW 3501   3.032   2.320   1.239 -0.4057  0.1496 -0.1675
  876SOL    HW1 3502   3.057   2.352   1.152 -0.8311 -1.1439  0.9653
  876SOL    HW2 3503   3.086   2.370   1.305  0.6305  1.4572  0.8804
  876SOL     MW 3504   3.042   2.331   1.236 -0.3251  0.1515  0.1202
  877SOL     OW 3505   3.063   2.718   0.358 -0.8123 -0.1467 -0.1491
  877SOL    HW1 3506   3.105   2.801   0.370 -1.4656 -0.8627 -3.1006
  877SOL    HW2 3507   3.082   2.687   0.270 -2.5232 -0.7638 -2.2583
  877SOL     MW 3508   3.071   2.725   0.348 -1.1242 -0.3226 -0.8168
  878SOL     OW 3509   2.431   1.864   1.288  0.0662 -0.0251  0.2300
  878SOL    HW1 3510   2.369   1.790   1.288  0.4400 -0.4972 -1.5358
  878SOL    HW2 3511   2.514   1.823   1.290  1.3540 -0.8027  1.4216
  878SOL     MW 3512   2.434   1.849   1.288  0.2854 -0.1900  0.1542
  879SOL     OW 3513   2.678   2.438   0.960 -0.0200  0.1489  0.0330
  879SOL    HW1 3514   2.757   2.477   0.998  1.1578  0.5915  0.2525
  879SOL    HW2 3515   2.700   2.372   0.889 -0.2488  0.0204 -0.2142
  879SOL     MW 3516   2.691   2.435   0.955  0.1052  0.1903  0.0293
  880SOL     OW 3517   2.542   2.176   0.679  0.3688  0.3086 -0.1097
  880SOL    HW1 3518   2.518   2.171   0.773  0.1521  0.6018  4.4127
  880SOL    HW2 3519   2.472   2.141   0.631  1.3073  0.5875 -1.2349
  880SOL     MW 3520   2.530   2.171   0.685  0.4640  0.3841  0.3386
  881SOL     OW 3521   2.962   2.656   0.778 -0.2623  0.3680  0.3576
  881SOL    HW1 3522   2.902   2.605   0.720 -0.9603 -1.0882 -1.4191
  881SOL    HW2 3523   3.048   2.645   0.734 -0.0641 -1.3196  0.1273
  881SOL     MW 3524   2.966   2.648   0.765 -0.3283 -0.0468  0.0928
  882SOL     OW 3525   2.247   2.891   1.941  0.5579  0.0873 -0.7759
  882SOL    HW1 3526   2.242   2.873   1.848  1.6186 -2.1679 -1.3924
  882SOL    HW2 3527   2.211   2.810   1.980  2.4663  0.2477 -1.7917
  882SOL     MW 3528   2.241   2.878   1.934  0.9496 -0.1891 -0.9913
  883SOL     OW 3529   2.325   2.280   1.478  0.3451 -0.2819  0.6487
  883SOL    HW1 3530   2.397   2.224   1.438  1.9336 -4.0955 -0.3290
  883SOL    HW2 3531   2.252   2.233   1.439 -1.3804 -0.8584 -0.7749
  883SOL     MW 3532   2.325   2.267   1.467  0.3270 -0.8612  0.3319
  884SOL     OW 3533   1.959   1.848   1.156 -0.1621 -0.0735 -0.1921
  884SOL    HW1 3534   1.896   1.908   1.117 -0.3281 -0.1833  1.0726
  884SOL    HW2 3535   2.047   1.885   1.153  1.4591  0.2826  2.1501
  884SOL     MW 3536   1.962   1.861   1.150  0.0299 -0.0410  0.2838
  885SOL     OW 3537   2.831   2.421   1.820 -0.1866 -0.0023  0.7969
  885SOL    HW1 3538   2.927   2.396   1.815  0.9278  1.7521  1.2154
  885SOL    HW2 3539   2.785   2.360   1.755  0.0166 -0.7764 -1.2084
  885SOL     MW 3540   2.838   2.410   1.811 -0.0127  0.1270  0.5875
  886SOL     OW 3541   2.802   2.383   1.357  0.2826 -0.0008  0.0104
  886SOL    HW1 3542   2.885   2.375   1.308  2.0241 -2.3083 -1.4142
  886SOL    HW2 3543   2.777   2.474   1.337 -0.4966 -0.4525 -2.6620
  886SOL     MW 3544   2.810   2.394   1.348  0.4096 -0.3648 -0.5302
  887SOL     OW 3545   2.316   2.594   1.535  0.1825 -0.1955  0.6471
  887SOL    HW1 3546   2.337   2.656   1.462  0.0367 -0.4346  0.5630
  887SOL    HW2 3547   2.227   2.553   1.512  0.5671 -1.9529 -0.8359
  887SOL     MW 3548   2.307   2.597   1.523  0.2140 -0.4590  0.4403
  888SOL     OW 3549   1.839   2.109   1.343 -0.0267 -0.4774  0.2349
  888SOL    HW1 3550   1.926   2.119   1.302  1.8971  0.2685  0.4731
  888SOL    HW2 3551   1.851   2.118   1.438 -2.5198 -1.0491  1.7775
  888SOL     MW 3552   1.852   2.112   1.350 -0.1018 -0.4544  0.4699
  889SOL     OW 3553   2.333   1.998   2.104 -0.2642  0.6041 -0.0925
  889SOL    HW1 3554   2.412   1.986   2.160 -0.6257  0.6453 -1.5999
  889SOL    HW2 3555   2.343   2.078   2.048 -1.3637  0.6450 -0.1206
  889SOL     MW 3556   2.345   2.007   2.104 -0.4570  0.6149 -0.2951
  890SOL     OW 3557   0.098   2.380   0.163  0.0031 -0.4296 -0.3894
  890SOL    HW1 3558   0.046   2.459   0.167  0.2375 -2.4769  0.5813
  890SOL    HW2 3559   0.072   2.329   0.240  0.8519  0.6122 -0.6007
  890SOL     MW 3560   0.088   2.384   0.174  0.1460 -0.5623 -0.2892
  891SOL     OW 3561   3.003   2.052   1.319  0.2860  0.3571 -0.4242
  891SOL    HW1 3562   3.093   2.043   1.355  0.7390  0.1216 -1.6102
  891SOL    HW2 3563   3.011   2.136   1.275 -1.8304  1.4391  0.1361
  891SOL     MW 3564   3.016   2.062   1.318  0.0665  0.4688 -0.5068
  892SOL     OW 3565   2.445   2.360   2.850  0.4640 -0.0663 -0.0243
  892SOL    HW1 3566   2.438   2.262   2.842 -0.7631  0.8961  0.2096
  892SOL    HW2 3567   2.537   2.388   2.852 -2.0696  1.6502 -1.7350
  892SOL     MW 3568   2.456   2.350   2.849 -0.0322  0.2871 -0.2192
  893SOL     OW 3569   1.589   2.333   1.302 -0.7018  0.3058  0.2507
  893SOL    HW1 3570   1.520   2.397   1.331  0.6180 -0.3440  1.1226
  893SOL    HW2 3571   1.667   2.364   1.345 -0.7436  0.7100 -1.5956
  893SOL     MW 3572   1.591   2.345   1.311 -0.5332  0.2734  0.1222
  894SOL     OW 3573   2.812   1.780   0.471  0.3050 -0.0382  0.4380
  894SOL    HW1 3574   2.734   1.844   0.499 -1.2020  0.4479 -0.4298
  894SOL    HW2 3575   2.793   1.742   0.390  3.1111 -1.0886  2.9229
  894SOL     MW 3576   2.799   1.784   0.464  0.4764 -0.1127  0.6514
  895SOL     OW 3577   2.110   2.194   1.320 -0.1208 -0.2029  0.1668
  895SOL    HW1 3578   2.062   2.256   1.269 -1.5280 -0.2616 -0.5759
  895SOL    HW2 3579   2.144   2.133   1.246  0.6086 -1.0091  1.8770
  895SOL     MW 3580   2.108   2.194   1.303 -0.2102 -0.3170  0.2945
  896SOL     OW 3581   2.138   2.807   1.076  0.1267 -0.1838 -0.5333
  896SOL    HW1 3582   2.178   2.802   1.162 -1.6440 -1.0650  0.7936
  896SOL    HW2 3583   2.122   2.717   1.067  0.0939 -2.4411 -0.6949
  896SOL     MW 3584   2.142   2.795   1.086 -0.1113 -0.5979 -0.3796
  897SOL     OW 3585   3.004   2.905   0.112 -0.2565  0.1872  0.2217
  897SOL    HW1 3586   3.089   2.861   0.090  0.5996  1.8715 -2.5504
  897SOL    HW2 3587   2.921   2.867   0.074 -3.4631  1.2512 -1.2835
  897SOL     MW 3588   3.004   2.894   0.104 -0.5666  0.5498 -0.3426
  898SOL     OW 3589   2.063   0.241   1.408 -0.0812 -0.8358  0.1598
  898SOL    HW1 3590   2.012   0.164   1.420  1.1708 -1.0123 -2.2407
  898SOL    HW2 3591   2.051   0.259   1.315  0.0953  1.2349 -1.5361
  898SOL     MW 3592   2.055   0.233   1.397  0.1073 -0.5859 -0.3806
  899SOL     OW 3593   2.935   2.919   0.638  0.3974  0.6097  0.0409
  899SOL    HW1 3594   2.944   2.849   0.700  0.8984  1.2864 -1.4015
  899SOL    HW2 3595   2.851   2.963   0.652  0.2711 -1.2885 -2.1232
  899SOL     MW 3596   2.925   2.916   0.648  0.4468  0.4485 -0.4350
  900SOL     OW 3597   0.068   2.422   0.997 -0.2514  0.4899  0.4810
  900SOL    HW1 3598   0.074   2.518   0.979 -0.1797  1.0178 -0.6393
  900SOL    HW2 3599   0.092   2.382   0.913 -1.4772 -2.8134 -1.0795
  900SOL     MW 3600   0.072   2.429   0.984 -0.4037  0.1237  0.1273
  901SOL     OW 3601   1.802   2.846   1.687 -0.9422 -0.0048  0.0207
  901SOL    HW1 3602   1.853   2.768   1.692  1.0150  1.1674  1.1504
  901SOL    HW2 3603   1.747   2.846   1.611 -0.1234  1.1845  0.1377
  901SOL     MW 3604   1.801   2.836   1.678 -0.5759  0.3068  0.1852
  902SOL     OW 3605   2.656   2.125   1.841  0.6508 -0.2729 -0.4347
  902SOL    HW1 3606   2.651   2.028   1.848 -1.9589 -2.4890  0.3231
  902SOL    HW2 3607   2.749   2.132   1.856  1.7199  1.4581 -0.9103
  902SOL     MW 3608   2.668   2.113   1.844  0.4475 -0.3369 -0.3974
  903SOL     OW 3609   1.601   2.789   0.527  0.2951 -0.2208 -0.5386
  903SOL    HW1 3610   1.654   2.715   0.555 -0.1835  0.1982  0.2189
  903SOL    HW2 3611   1.585   2.834   0.614  0.6844 -0.1637  2.2582
  903SOL     MW 3612   1.606   2.786   0.542  0.2833 -0.1580 -0.0696
  904SOL     OW 3613   2.506   2.494   1.718 -0.2976 -0.2746  0.0798
  904SOL    HW1 3614   2.446   2.512   1.649  0.4318  0.2773  0.3605
  904SOL    HW2 3615   2.576   2.445   1.680  0.6298  0.6991  0.6956
  904SOL     MW 3616   2.508   2.490   1.704 -0.0790 -0.0733  0.1981
  905SOL     OW 3617   2.316   2.551   2.166  0.1500  0.7862 -0.5977
  905SOL    HW1 3618   2.381   2.510   2.104  3.1684  1.4059 -0.9967
  905SOL    HW2 3619   2.282   2.471   2.225  2.4186 -2.3693  2.5426
  905SOL     MW 3620   2.320   2.535   2.166  0.8476  0.4517 -0.2360
  906SOL     OW 3621   2.421   2.541   0.923  0.4980  1.3459 -0.3239
  906SOL    HW1 3622   2.500   2.488   0.944 -0.1602 -0.4934 -0.1875
  906SOL    HW2 3623   2.442   2.632   0.894  0.2642 -0.0672  1.0381
  906SOL     MW 3624   2.434   2.546   0.922  0.3803  0.9168 -0.1262
  907SOL     OW 3625   2.571   2.865   1.334  0.1091 -0.0209  0.2573
  907SOL    HW1 3626   2.642   2.918   1.372 -0.5449 -1.3682  2.5506
  907SOL    HW2 3627   2.607   2.858   1.239  1.5998  0.3187 -1.4229
  907SOL     MW 3628   2.585   2.871   1.326  0.2195 -0.1539  0.3382
  908SOL     OW 3629   2.771   2.376   0.010 -0.5357 -0.2946 -0.0870
  908SOL    HW1 3630   2.720   2.297   0.018 -1.9892 -1.7518  2.0425
  908SOL    HW2 3631   2.707   2.434   0.044  1.8885 -0.2522  0.6803
  908SOL     MW 3632   2.756   2.373   0.015 -0.4077 -0.4812  0.2952
  909SOL     OW 3633   1.641   0.177   1.169  0.6678  0.0378 -0.0345
  909SOL    HW1 3634   1.648   0.258   1.113  1.8104  0.3649 -2.0916
  909SOL    HW2 3635   1.629   0.217   1.256  1.2349 -0.0671 -1.9715
  909SOL     MW 3636   1.640   0.193   1.173  0.8934  0.0671 -0.5615
  910SOL     OW 3637   2.291   1.804   0.423 -0.8730 -0.0887 -0.2839
  910SOL    HW1 3638   2.240   1.723   0.443  1.5920 -0.0403 -0.7354
  910SOL    HW2 3639   2.272   1.831   0.331  0.0921 -0.8214 -1.5113
  910SOL     MW 3640   2.282   1.797   0.414 -0.4204 -0.1790 -0.5054
  911SOL     OW 3641   2.204   2.231   1.716 -0.4193 -0.3042  0.8380
  911SOL    HW1 3642   2.266   2.216   1.791  0.0918  0.8738  0.2605
  911SOL    HW2 3643   2.267   2.248   1.640  0.0830  0.7569 -0.8345
  911SOL     MW 3644   2.221   2.231   1.716 -0.2856 -0.0087  0.5412
  912SOL     OW 3645   2.862   1.911   1.512  0.4547  0.3096  0.8872
  912SOL    HW1 3646   2.886   1.962   1.431  2.2993  1.2870 -1.4709
  912SOL    HW2 3647   2.771   1.936   1.527  2.5575 -0.4424 -0.3523
  912SOL     MW 3648   2.853   1.921   1.503  0.9755  0.3394  0.4126
  913SOL     OW 3649   2.584   3.006   0.357 -0.0739 -0.2371 -0.2580
  913SOL    HW1 3650   2.649   2.936   0.351  0.6004 -0.0486 -1.2624
  913SOL    HW2 3651   2.501   2.963   0.357  1.1688  1.1106  0.1821
  913SOL     MW 3652   2.582   2.991   0.356  0.1790 -0.0344 -0.3325
  914SOL     OW 3653   2.759   1.676   3.045  0.2599  0.1779 -0.2439
  914SOL    HW1 3654   2.789   1.753   2.996  0.4609  2.8783 -0.0545
  914SOL    HW2 3655   2.670   1.659   3.050  1.4582  0.0005  1.8239
  914SOL     MW 3656   2.751   1.684   3.039  0.4445  0.5108  0.0539
  915SOL     OW 3657   1.769   0.247   0.220 -0.2582 -0.1900  0.3450
  915SOL    HW1 3658   1.837   0.185   0.238 -1.0682  0.5309 -0.6293
  915SOL    HW2 3659   1.690   0.197   0.242 -0.3276  0.1266 -1.8806
  915SOL     MW 3660   1.768   0.232   0.225 -0.3742 -0.0531 -0.0772
  916SOL     OW 3661   1.737   2.054   1.951  0.6150 -0.0502 -0.0224
  916SOL    HW1 3662   1.763   2.142   1.923 -2.5408  1.5427  2.2894
  916SOL    HW2 3663   1.769   2.003   1.877  0.4920 -0.4712  1.1498
  916SOL     MW 3664   1.744   2.059   1.938  0.1824  0.1044  0.4373
  917SOL     OW 3665   2.419   2.317   2.544 -0.0279 -0.3111 -0.3490
  917SOL    HW1 3666   2.406   2.332   2.636 -0.5513 -2.2396 -0.7284
  917SOL    HW2 3667   2.515   2.320   2.526 -0.4398  0.1500 -0.1061
  917SOL     MW 3668   2.430   2.320   2.554 -0.1513 -0.5047 -0.3670
  918SOL     OW 3669   1.991   1.642   2.722 -0.3364 -0.0288 -0.0149
  918SOL    HW1 3670   1.938   1.695   2.655  0.2179 -0.5055  0.5830
  918SOL    HW2 3671   2.073   1.692   2.733  1.0434  0.0752 -1.4333
  918SOL     MW 3672   1.995   1.656   2.714 -0.0812 -0.0779 -0.1232
  919SOL     OW 3673   0.037   2.362   2.244  0.1635  0.0377  0.3191
  919SOL    HW1 3674  -0.026   2.295   2.218 -2.0813 -0.0558 -0.0256
  919SOL    HW2 3675   0.098   2.337   2.176 -1.2310  2.1487 -2.7851
  919SOL     MW 3676   0.037   2.350   2.232 -0.3167  0.3039 -0.1360
  920SOL     OW 3677   2.785   2.781   0.019  0.1423 -0.3408 -0.4734
  920SOL    HW1 3678   2.711   2.845   0.023 -2.4539 -0.4473 -0.9432
  920SOL    HW2 3679   2.775   2.741  -0.068  0.3195 -0.3011  1.7355
  920SOL     MW 3680   2.774   2.784   0.008 -0.1769 -0.3496 -0.2439
  921SOL     OW 3681   2.385   2.636   2.655 -0.6200  0.0263 -0.7561
  921SOL    HW1 3682   2.456   2.635   2.592  4.2711  2.2198  2.1316
  921SOL    HW2 3683   2.417   2.581   2.722  0.4796 -3.3008 -1.9320
  921SOL     MW 3684   2.398   2.629   2.656  0.1704 -0.1232 -0.5302
  922SOL     OW 3685   2.012   2.795   0.317  0.2114  1.0503  0.0987
  922SOL    HW1 3686   1.997   2.836   0.231  1.2637  0.0919  2.8781
  922SOL    HW2 3687   1.950   2.719   0.315 -1.2925 -1.5603  1.2998
  922SOL     MW 3688   2.002   2.790   0.305  0.1518  0.5794  0.6239
  923SOL     OW 3689   2.205   2.798   1.683 -0.1443  0.0582 -0.1625
  923SOL    HW1 3690   2.249   2.723   1.636  0.4184  0.7136 -0.5852
  923SOL    HW2 3691   2.181   2.857   1.613  0.4646 -0.1588  2.4272
  923SOL     MW 3692   2.208   2.796   1.668  0.0102  0.1160  0.1234
  924SOL     OW 3693   1.210   2.645   2.559  0.7089 -0.9449  0.0624
  924SOL    HW1 3694   1.280   2.697   2.516  1.5609  1.6360 -2.9220
  924SOL    HW2 3695   1.262   2.583   2.612 -0.5866 -1.8286 -2.9867
  924SOL     MW 3696   1.226   2.644   2.560  0.6504 -0.7210 -0.7336
  925SOL     OW 3697   2.927   0.255   2.588  0.1331  0.2913 -0.3353
  925SOL    HW1 3698   2.891   0.300   2.516 -3.8916 -0.8405  0.6227
  925SOL    HW2 3699   2.882   0.292   2.670  0.2834 -1.7908 -1.2452
  925SOL     MW 3700   2.916   0.266   2.589 -0.3781 -0.1328 -0.3289
  926SOL     OW 3701   2.748   2.416   2.085  0.0989 -0.1244 -0.3875
  926SOL    HW1 3702   2.805   2.478   2.132  1.1583  0.8304 -2.9615
  926SOL    HW2 3703   2.784   2.430   1.994  0.7068 -0.0126 -1.4125
  926SOL     MW 3704   2.760   2.426   2.079  0.3189  0.0164 -0.8623
  927SOL     OW 3705   2.324   0.149   0.308 -0.0702 -0.2333 -0.1536
  927SOL    HW1 3706   2.415   0.185   0.312  3.5653  0.8806 -2.3228
  927SOL    HW2 3707   2.313   0.109   0.217 -1.8646 -0.7194 -1.5073
  927SOL     MW 3708   2.335   0.149   0.297  0.1727 -0.1505 -0.6184
  928SOL     OW 3709   2.082   2.421   1.871 -0.1512 -0.7014  0.1528
  928SOL    HW1 3710   2.126   2.358   1.812  0.6686 -0.4193 -1.7402
  928SOL    HW2 3711   2.152   2.451   1.931  2.9072  0.3110 -0.0224
  928SOL     MW 3712   2.097   2.417   1.871  0.3605 -0.5306 -0.1201
  929SOL     OW 3713   2.661   2.366   2.413  0.2900 -0.2642  0.4047
  929SOL    HW1 3714   2.689   2.372   2.319 -0.4803  0.5399  0.8141
  929SOL    HW2 3715   2.739   2.339   2.457  1.6077  0.7458 -4.0797
  929SOL     MW 3716   2.675   2.363   2.406  0.3622 -0.0249 -0.1329
  930SOL     OW 3717   1.997   2.840   2.689 -0.1761 -0.1772  0.4909
  930SOL    HW1 3718   2.013   2.771   2.757 -2.2136  3.3736  0.1273
  930SOL    HW2 3719   2.077   2.891   2.676  1.9378 -2.5859 -0.7474
  930SOL     MW 3720   2.010   2.837   2.696 -0.1660 -0.0265  0.2795
  931SOL     OW 3721   3.000   2.777   2.287  0.3610 -0.0654  0.3527
  931SOL    HW1 3722   3.048   2.818   2.362 -0.9169  3.4398 -0.6562
  931SOL    HW2 3723   3.068   2.776   2.213  1.8455  0.3089  0.3468
  931SOL     MW 3724   3.015   2.783   2.287  0.3882  0.4465  0.2188
  932SOL     OW 3725   2.885   1.985   2.508 -0.7563  0.0897  0.0576
  932SOL    HW1 3726   2.966   2.029   2.533 -1.9049  0.7977  2.2859
  932SOL    HW2 3727   2.881   1.976   2.413 -0.9042 -0.5935  1.5983
  932SOL     MW 3728   2.895   1.990   2.498 -0.9273  0.0930  0.5549
  933SOL     OW 3729   2.070   2.874   2.250  0.1058 -0.3440  0.0341
  933SOL    HW1 3730   2.137   2.931   2.289 -1.8970  0.4637  1.6700
  933SOL    HW2 3731   2.011   2.933   2.200 -2.7207  0.2561  3.3505
  933SOL     MW 3732   2.071   2.889   2.249 -0.5314 -0.1583  0.6875
  934SOL     OW 3733   2.022   2.702   2.454  0.0484 -0.3402  0.0325
  934SOL    HW1 3734   2.013   2.751   2.538  0.1372 -1.5153 -1.3007
  934SOL    HW2 3735   2.033   2.769   2.388 -1.6109  1.5387  0.7278
  934SOL     MW 3736   2.022   2.717   2.457 -0.1588 -0.2474 -0.0516
  935SOL     OW 3737   2.668   1.596   1.830  0.4946 -0.0293  0.1179
  935SOL    HW1 3738   2.740   1.544   1.804 -0.2840  1.0664 -0.6366
  935SOL    HW2 3739   2.602   1.589   1.759 -2.7608  1.0886 -1.5168
  935SOL     MW 3740   2.669   1.588   1.817 -0.0376  0.2627 -0.1974
  936SOL     OW 3741   3.027   2.273   3.072  0.1158 -0.0025 -0.2272
  936SOL    HW1 3742   3.096   2.322   3.120 -2.0668 -1.3747  2.4933
  936SOL    HW2 3743   2.944   2.310   3.097  0.9264 -2.6136  1.0951
  936SOL     MW 3744   3.025   2.285   3.082 -0.0653 -0.5281  0.3062
  937SOL     OW 3745   1.998   2.129   2.709 -0.3005 -0.9079  0.0106
  937SOL    HW1 3746   2.094   2.097   2.721  2.2719 -1.9498 -0.5237
  937SOL    HW2 3747   1.990   2.088   2.626  1.4695 -2.0418 -0.1970
  937SOL     MW 3748   2.010   2.119   2.699  0.2724 -1.1950 -0.0873
  938SOL     OW 3749   2.296   1.816   1.879 -0.6890  0.2857 -0.6460
  938SOL    HW1 3750   2.254   1.864   1.803 -2.8773  0.0263  1.6442
  938SOL    HW2 3751   2.264   1.855   1.959  1.4591  1.5852 -1.0935
  938SOL     MW 3752   2.286   1.828   1.880 -0.6943  0.4229 -0.4029
  939SOL     OW 3753   2.805   1.998   2.215  0.1082  0.3979  0.0584
  939SOL    HW1 3754   2.819   1.929   2.148 -1.0478 -3.0262 -0.3178
  939SOL    HW2 3755   2.712   1.994   2.235  1.2580 -0.3549 -1.2546
  939SOL     MW 3756   2.795   1.989   2.209  0.1074 -0.1532 -0.1645
  940SOL     OW 3757   2.324   0.175   2.692 -0.1530  0.5209 -0.3004
  940SOL    HW1 3758   2.293   0.083   2.677 -0.1808 -0.1526 -1.3766
  940SOL    HW2 3759   2.351   0.179   2.780 -1.9334  0.3014 -2.1938
  940SOL     MW 3760   2.323   0.163   2.701 -0.3916  0.4031 -0.6922
  941SOL     OW 3761   0.189   2.260   2.019 -0.0320 -0.0541 -0.5330
  941SOL    HW1 3762   0.277   2.234   2.029 -1.3661  0.0014 -0.6796
  941SOL    HW2 3763   0.158   2.247   1.926  1.6296 -1.9573  3.1423
  941SOL     MW 3764   0.197   2.255   2.008  0.0112 -0.2979 -0.0674
  942SOL     OW 3765   2.933   2.211   2.148  0.1286 -0.2088  0.6010
  942SOL    HW1 3766   2.868   2.286   2.136 -1.4082  0.5189 -2.8990
  942SOL    HW2 3767   2.882   2.134   2.182 -0.5838  1.6377 -1.1849
  942SOL     MW 3768   2.918   2.211   2.151 -0.1682  0.1308 -0.0964
  943SOL     OW 3769   0.359   2.017   2.306 -0.3512  0.1078 -0.4404
  943SOL    HW1 3770   0.314   2.067   2.376  1.0016  0.9428  2.9373
  943SOL    HW2 3771   0.443   2.000   2.351  1.3316  0.0247  1.2593
  943SOL     MW 3772   0.364   2.021   2.321  0.0493  0.2070  0.2295
  944SOL     OW 3773   2.105   2.686   2.066 -0.4233  0.1149 -0.2237
  944SOL    HW1 3774   2.182   2.634   2.093 -1.9474 -3.5297  2.6357
  944SOL    HW2 3775   2.098   2.749   2.139  2.2889 -0.5550  1.6081
  944SOL     MW 3776   2.114   2.687   2.079 -0.2665 -0.4543  0.3952
  945SOL     OW 3777   2.744   2.687   2.837  0.1067 -0.2851  0.4698
  945SOL    HW1 3778   2.719   2.593   2.820  2.4558 -1.9497 -1.3127
  945SOL    HW2 3779   2.788   2.716   2.756  1.2780  2.1505  2.5599
  945SOL     MW 3780   2.747   2.678   2.824  0.5712 -0.1834  0.5104
  946SOL     OW 3781   2.497   2.740   2.272  0.3666 -0.0022  0.8923
  946SOL    HW1 3782   2.513   2.775   2.181  0.2275 -4.8051 -1.1663
  946SOL    HW2 3783   2.439   2.669   2.243 -0.0778  2.5185 -1.1804
  946SOL     MW 3784   2.491   2.735   2.256  0.2896 -0.3033  0.3472
  947SOL     OW 3785   2.002   0.097   0.254 -0.1744 -0.2882  0.5708
  947SOL    HW1 3786   1.980   0.018   0.194 -1.5094  0.8535 -0.1077
  947SOL    HW2 3787   2.029   0.062   0.340  0.0007 -0.1059 -1.2230
  947SOL     MW 3788   2.003   0.082   0.257 -0.3274 -0.1135  0.2446
  948SOL     OW 3789   1.778   3.008   2.667  0.0096 -0.3734 -0.4352
  948SOL    HW1 3790   1.836   2.930   2.675 -1.3868  1.8826  2.4653
  948SOL    HW2 3791   1.771   3.025   2.566  0.4454 -1.9758  0.5138
  948SOL     MW 3792   1.785   3.000   2.655 -0.1172 -0.2872  0.0727
  949SOL     OW 3793   2.546   1.974   2.274 -0.2604  0.1554  0.4850
  949SOL    HW1 3794   2.558   1.887   2.315  0.7322  0.5710  1.6475
  949SOL    HW2 3795   2.477   2.018   2.331  0.1666 -1.8696 -1.3105
  949SOL     MW 3796   2.538   1.968   2.287 -0.0731 -0.0569  0.4015
  950SOL     OW 3797   2.272   2.536   3.006  0.7506 -0.0650  0.2972
  950SOL    HW1 3798   2.336   2.470   2.982  2.3244 -0.8928  0.0909
  950SOL    HW2 3799   2.197   2.539   2.941 -1.2938 -3.1971 -1.7173
  950SOL     MW 3800   2.271   2.528   2.994  0.6885 -0.5875  0.0042
  951SOL     OW 3801   2.966   2.133   2.827  0.6665  0.0232  0.0005
  951SOL    HW1 3802   3.011   2.169   2.899 -2.7561 -0.3465 -1.0607
  951SOL    HW2 3803   3.038   2.116   2.761  3.1248 -0.9322  3.3246
  951SOL     MW 3804   2.981   2.136   2.828  0.5393 -0.1516  0.2991
  952SOL     OW 3805   3.087   1.710   2.158 -0.1433 -0.4932 -0.2252
  952SOL    HW1 3806   3.022   1.745   2.091 -1.0640 -4.3862 -2.5399
  952SOL    HW2 3807   3.159   1.773   2.180  2.0465 -1.3407 -1.1764
  952SOL     MW 3808   3.088   1.723   2.152  0.0241 -1.1186 -0.6561
  953SOL     OW 3809   1.895   1.782   2.930 -0.3060 -0.4232  0.0262
  953SOL    HW1 3810   1.802   1.748   2.942  2.8793  1.4707 -2.9497
  953SOL    HW2 3811   1.930   1.729   2.863 -2.8751  2.2322  1.8171
  953SOL     MW 3812   1.887   1.771   2.923 -0.2247  0.1770 -0.1301
  954SOL     OW 3813   2.486   2.061   2.865 -0.0592  0.4698  0.0153
  954SOL    HW1 3814   2.388   2.056   2.842  0.4482 -2.3063 -1.8974
  954SOL    HW2 3815   2.539   2.049   2.783 -1.9779  1.4599  0.1911
  954SOL     MW 3816   2.480   2.059   2.851 -0.2454  0.2341 -0.2139
  955SOL     OW 3817   1.598   1.601   2.602 -0.1133 -0.6141  0.4866
  955SOL    HW1 3818   1.540   1.598   2.515  0.2823 -0.0287  2.2586
  955SOL    HW2 3819   1.682   1.643   2.578  0.3417  1.1658  0.6072
  955SOL     MW 3820   1.601   1.606   2.587 -0.0011 -0.3020  0.7363
  956SOL     OW 3821   2.707   2.425   2.855 -0.4280 -0.3417 -0.2566
  956SOL    HW1 3822   2.740   2.385   2.936  0.4526  1.5706  1.0492
  956SOL    HW2 3823   2.763   2.395   2.788  1.2305 -0.7632 -1.1142
  956SOL     MW 3824   2.719   2.416   2.857 -0.0930 -0.1450 -0.1974
  957SOL     OW 3825   2.290   2.882   0.379  0.3477 -0.0529 -0.2296
  957SOL    HW1 3826   2.210   2.860   0.329  1.7257 -1.5805 -2.2250
  957SOL    HW2 3827   2.278   2.823   0.455  1.5927 -0.7985 -2.5064
  957SOL     MW 3828   2.278   2.871   0.382  0.6938 -0.3528 -0.7933
  958SOL     OW 3829   2.023   2.604   2.843  0.2457  0.7498  0.3011
  958SOL    HW1 3830   2.014   2.539   2.777  1.3939 -0.8355  1.5365
  958SOL    HW2 3831   1.927   2.610   2.870 -0.6718 -1.5223 -3.2518
  958SOL     MW 3832   2.009   2.596   2.838  0.2761  0.2409 -0.0047
  959SOL     OW 3833   2.431   2.632   0.368 -0.5326 -0.0573  0.1547
  959SOL    HW1 3834   2.486   2.616   0.291  2.0044 -1.2384 -2.2598
  959SOL    HW2 3835   2.393   2.722   0.365  1.6785  0.9901 -0.6418
  959SOL     MW 3836   2.433   2.642   0.357  0.0939 -0.0750 -0.2690
  960SOL     OW 3837   1.961   2.306   2.267  0.2130 -0.0786  0.1034
  960SOL    HW1 3838   1.910   2.321   2.188 -1.1676  0.5718  2.5539
  960SOL    HW2 3839   1.896   2.287   2.334 -1.8420 -1.9689 -1.3694
  960SOL     MW 3840   1.946   2.305   2.265 -0.2403 -0.2422  0.2324
  961SOL     OW 3841   2.247   2.323   2.297  0.3090  0.0675  0.1437
  961SOL    HW1 3842   2.151   2.319   2.288 -0.6210  0.0910 -0.1589
  961SOL    HW2 3843   2.265   2.347   2.389  1.5184  1.3960 -2.5903
  961SOL     MW 3844   2.237   2.326   2.308  0.3459  0.2459 -0.2569
  962SOL     OW 3845   2.230   2.019   2.802 -0.4269 -0.1804  0.2554
  962SOL    HW1 3846   2.195   2.017   2.891  0.2233 -1.4585  0.1424
  962SOL    HW2 3847   2.256   1.929   2.776 -1.8772 -1.0142 -1.5126
  962SOL     MW 3848   2.229   2.007   2.811 -0.5325 -0.4591  0.0072
  963SOL     OW 3849   1.831   2.617   2.028 -0.4065  0.1564  0.7017
  963SOL    HW1 3850   1.933   2.626   2.035  2.6258  1.3932 -1.1615
  963SOL    HW2 3851   1.816   2.535   1.972 -0.3234 -0.6251  0.1030
  963SOL     MW 3852   1.843   2.608   2.022  0.0046  0.2165  0.3769
  964SOL     OW 3853   1.781   1.954   2.753 -0.8388 -0.4908  0.0697
  964SOL    HW1 3854   1.845   2.024   2.724 -1.4492 -1.4949 -2.0593
  964SOL    HW2 3855   1.829   1.913   2.829  1.1364  1.1268  2.7361
  964SOL     MW 3856   1.796   1.958   2.760 -0.6587 -0.4099  0.1406
  965SOL     OW 3857   2.235   2.757   0.626 -0.1050 -0.0837  0.4442
  965SOL    HW1 3858   2.243   2.663   0.622 -0.1748  1.1201 -3.2805
  965SOL    HW2 3859   2.264   2.774   0.716 -1.0887  0.9605  1.0707
  965SOL     MW 3860   2.240   2.747   0.637 -0.2440  0.2129  0.0355
  966SOL     OW 3861   2.616   2.627   2.503  0.2641  0.3562  0.3502
  966SOL    HW1 3862   2.588   2.669   2.423 -1.1428  0.6489 -1.1876
  966SOL    HW2 3863   2.620   2.533   2.473 -1.2314 -3.7078  0.1237
  966SOL     MW 3864   2.613   2.620   2.489 -0.1188 -0.1414  0.1174
  967SOL     OW 3865   2.871   3.015   2.908 -0.5534  0.2141  0.2218
  967SOL    HW1 3866   2.873   2.938   2.966 -1.2444  0.5640 -0.8234
  967SOL    HW2 3867   2.781   3.030   2.881 -0.2640  0.7306 -0.0712
  967SOL     MW 3868   2.859   3.007   2.912 -0.6064  0.3284  0.0452
  968SOL     OW 3869   3.002   2.617   2.928 -0.0665  0.7948 -0.2130
  968SOL    HW1 3870   2.922   2.637   2.889  0.8664  3.4857  0.4642
  968SOL    HW2 3871   3.020   2.530   2.887 -0.2723 -1.5510  0.3339
  968SOL     MW 3872   2.994   2.608   2.917  0.0294  0.8403 -0.0515
  969SOL     OW 3873   1.538   2.132   1.676  0.0937 -0.1419  0.0481
  969SOL    HW1 3874   1.603   2.063   1.663  1.9888 -0.5342 -0.6224
  969SOL    HW2 3875   1.507   2.119   1.764  0.3986  3.5954 -2.6984
  969SOL     MW 3876   1.543   2.121   1.686  0.3840  0.2994 -0.4027
  970SOL     OW 3877   1.647   1.683   1.771 -0.8537  0.3986 -0.4249
  970SOL    HW1 3878   1.703   1.652   1.837  1.0028  2.3962 -0.3334
  970SOL    HW2 3879   1.562   1.699   1.806  0.4602 -1.6341 -1.0442
  970SOL     MW 3880   1.643   1.681   1.784 -0.4354  0.3940 -0.4945
  971SOL     OW 3881   1.770   3.071   2.392 -0.4689 -0.4334  0.2144
  971SOL    HW1 3882   1.782   3.050   2.303 -1.4059 -1.8401 -1.1868
  971SOL    HW2 3883   1.819   3.157   2.409  1.3159  1.9643  3.0597
  971SOL     MW 3884   1.778   3.079   2.383 -0.3571 -0.3027  0.4049
  972SOL     OW 3885   0.259   2.847   2.439  0.6047  0.0314  0.5269
  972SOL    HW1 3886   0.288   2.758   2.452 -0.7073  0.0959 -1.4095
  972SOL    HW2 3887   0.324   2.894   2.490 -2.9417  0.4354  0.3535
  972SOL     MW 3888   0.272   2.842   2.447 -0.0363  0.0932  0.2485
  973SOL     OW 3889   2.548   0.032   2.129 -0.3543  0.2337 -0.3345
  973SOL    HW1 3890   2.535  -0.060   2.110  1.6491  0.1520  1.3691
  973SOL    HW2 3891   2.570   0.058   2.038 -0.2044 -0.5501 -3.5983
  973SOL     MW 3892   2.549   0.023   2.115 -0.0702  0.1195 -0.5404
  974SOL     OW 3893   2.054   0.218   2.691 -0.2932 -0.5565  0.0006
  974SOL    HW1 3894   2.151   0.203   2.698  2.9026 -3.1283 -1.3536
  974SOL    HW2 3895   2.018   0.152   2.754  0.0491 -1.9557 -1.8419
  974SOL     MW 3896   2.062   0.207   2.701  0.1736 -1.0804 -0.4212
  975SOL     OW 3897   2.176   2.494   2.515  0.0270 -0.2921 -0.5527
  975SOL    HW1 3898   2.244   2.546   2.568  0.2024 -5.1398  2.2725
  975SOL    HW2 3899   2.118   2.564   2.477  1.3785  2.0536 -1.8342
  975SOL     MW 3900   2.177   2.510   2.517  0.2285 -0.6222 -0.3490
  976SOL     OW 3901   0.250   0.342   1.718 -0.3975  0.4867 -0.3510
  976SOL    HW1 3902   0.299   0.279   1.777  0.3696 -3.1804  0.4624
  976SOL    HW2 3903   0.174   0.294   1.684 -2.0564 -1.9742  0.1871
  976SOL     MW 3904   0.247   0.327   1.721 -0.5152 -0.3218 -0.1727
  977SOL     OW 3905   1.744   2.659   2.468  0.2302 -0.5867  0.2314
  977SOL    HW1 3906   1.731   2.563   2.468  2.3629 -1.5464 -0.1409
  977SOL    HW2 3907   1.836   2.676   2.458 -0.1037  1.0344  0.6450
  977SOL     MW 3908   1.754   2.649   2.467  0.4675 -0.4994  0.2369
   3.10000   3.10000   3.10000
