977 TIP4P/2005f water molecules t=   0.65000 step= 650
 3908
    1SOL     OW    1   0.175   0.839   0.006  0.3173  0.1062 -0.3452
    1SOL    HW1    2   0.170   0.829  -0.086 -2.5551  0.9553 -1.6168
    1SOL    HW2    3   0.178   0.743   0.021  0.0051 -2.1157 -0.0792
    1SOL     MW    4   0.175   0.825  -0.004 -0.1029 -0.0750 -0.4778
    2SOL     OW    5   0.226   3.008   1.192 -0.5021 -0.2917  0.2891
    2SOL    HW1    6   0.286   3.069   1.150  2.9823 -2.8552 -0.6715
    2SOL    HW2    7   0.140   3.042   1.168 -0.6079  0.7254 -0.8058
    2SOL     MW    8   0.222   3.021   1.183 -0.0564 -0.4957  0.0179
    3SOL     OW    9   2.673   0.408   0.928 -0.1086 -0.4117  0.3509
    3SOL    HW1   10   2.682   0.485   0.869 -0.1832  3.6688 -0.8405
    3SOL    HW2   11   2.646   0.454   1.006  1.5819 -0.3731 -1.0288
    3SOL     MW   12   2.671   0.424   0.930  0.1046  0.1318  0.0117
    4SOL     OW   13   3.031   1.713   0.603  0.1597 -0.4587 -0.1163
    4SOL    HW1   14   2.948   1.747   0.564  1.2783 -1.3160  2.2171
    4SOL    HW2   15   3.088   1.697   0.531 -0.5241 -2.2743 -0.0030
    4SOL     MW   16   3.027   1.716   0.588  0.2171 -0.8114  0.2066
    5SOL     OW   17   1.722   1.496   0.535 -0.2361 -0.3362 -0.4126
    5SOL    HW1   18   1.757   1.448   0.613  1.6461  1.0784 -2.6966
    5SOL    HW2   19   1.628   1.482   0.541 -2.0251 -0.8816  0.7323
    5SOL     MW   20   1.715   1.488   0.546 -0.2238 -0.2215 -0.5629
    6SOL     OW   21   0.864   1.379   0.678 -0.1134  0.1349 -0.6936
    6SOL    HW1   22   0.778   1.415   0.662  0.6128  1.2413  0.8334
    6SOL    HW2   23   0.847   1.295   0.724 -0.2623  1.4739  0.2061
    6SOL     MW   24   0.850   1.373   0.682 -0.0372  0.4575 -0.3734
    7SOL     OW   25   1.999   1.135   0.007 -0.6778 -0.7202 -0.2367
    7SOL    HW1   26   2.074   1.175  -0.033 -0.6177 -1.0001 -2.2325
    7SOL    HW2   27   2.022   1.144   0.102  5.1148 -1.3940 -0.0865
    7SOL     MW   28   2.012   1.142   0.014  0.0944 -0.8460 -0.4802
    8SOL     OW   29   0.955   1.340   1.017  0.0783 -0.3288  0.1896
    8SOL    HW1   30   1.026   1.277   1.004 -0.4785  3.2197 -1.1428
    8SOL    HW2   31   0.926   1.310   1.106  0.0894 -3.1402 -1.3585
    8SOL     MW   32   0.960   1.327   1.027  0.0063 -0.2315 -0.1904
    9SOL     OW   33   1.060   0.452   1.355 -0.3307  0.3229 -0.3926
    9SOL    HW1   34   0.978   0.402   1.327 -0.7313 -1.6377  0.3654
    9SOL    HW2   35   1.097   0.398   1.423 -0.7694 -1.1110 -0.7510
    9SOL     MW   36   1.054   0.438   1.361 -0.4414 -0.1250 -0.3399
   10SOL     OW   37   0.265   0.801   0.423  0.4979  0.4358  0.3696
   10SOL    HW1   38   0.353   0.816   0.402 -4.2904 -2.7770 -0.2183
   10SOL    HW2   39   0.247   0.854   0.503 -0.9358  2.8907 -0.6013
   10SOL     MW   40   0.274   0.810   0.431 -0.3230  0.3358  0.1639
   11SOL     OW   41   0.786   1.151   1.693  0.0458  0.2780  0.2316
   11SOL    HW1   42   0.827   1.116   1.769 -1.4157 -3.3534 -2.1902
   11SOL    HW2   43   0.775   1.066   1.641 -0.5386  2.1757  2.6913
   11SOL     MW   44   0.790   1.135   1.696 -0.2241  0.0493  0.2366
   12SOL     OW   45   3.091   1.072   0.888 -0.0991  0.1612 -0.2728
   12SOL    HW1   46   3.141   1.150   0.916 -0.5029  0.8416  4.5649
   12SOL    HW2   47   3.024   1.112   0.827 -3.4554 -2.4850 -0.7775
   12SOL     MW   48   3.089   1.087   0.884 -0.5953 -0.0982  0.2989
   13SOL     OW   49   1.845   1.416   1.328  0.2765  0.0280  0.2492
   13SOL    HW1   50   1.864   1.382   1.236  2.3229  0.6219 -2.5693
   13SOL    HW2   51   1.855   1.513   1.332 -0.8572 -1.4277  1.1737
   13SOL     MW   52   1.849   1.424   1.317  0.3969 -0.0857 -0.0007
   14SOL     OW   53   0.602   0.363   1.802  0.0751  0.8271 -0.0712
   14SOL    HW1   54   0.605   0.279   1.756 -1.1947 -0.2540  1.9077
   14SOL    HW2   55   0.685   0.379   1.842  0.5681 -0.1240  1.0641
   14SOL     MW   56   0.613   0.354   1.801 -0.0274  0.5589  0.3397
   15SOL     OW   57   1.934   0.490   0.957  0.7225 -0.1698 -0.5751
   15SOL    HW1   58   1.945   0.506   1.052  0.2773  0.9698  0.5278
   15SOL    HW2   59   2.019   0.449   0.945  0.1608 -2.7141 -0.6600
   15SOL     MW   60   1.946   0.487   0.968  0.5897 -0.3552 -0.4408
   16SOL     OW   61   0.254   1.834   0.338 -0.3263  0.1299  0.2006
   16SOL    HW1   62   0.320   1.771   0.370  1.7713 -0.1146 -0.5577
   16SOL    HW2   63   0.249   1.916   0.393 -1.9207  2.6125  0.4518
   16SOL     MW   64   0.262   1.837   0.349 -0.2599  0.4252  0.1337
   17SOL     OW   65   1.032   0.886   1.507  0.6050  0.5272  0.5136
   17SOL    HW1   66   1.066   0.859   1.591 -2.3272  0.1433  0.8946
   17SOL    HW2   67   0.943   0.910   1.515  0.5709 -0.4268 -1.0264
   17SOL     MW   68   1.025   0.886   1.519  0.2136  0.3507  0.3607
   18SOL     OW   69   0.104   1.610   0.379  0.1316  0.4703  0.0400
   18SOL    HW1   70   0.152   1.695   0.363  1.9913 -0.8645  0.7220
   18SOL    HW2   71   0.101   1.571   0.295  0.6753  1.1532  0.6052
   18SOL     MW   72   0.110   1.616   0.366  0.4487  0.3843  0.2046
   19SOL     OW   73   0.084   1.304   0.985  0.9196  0.1751 -0.7498
   19SOL    HW1   74   0.126   1.360   0.919 -0.9785  0.5889  1.1042
   19SOL    HW2   75  -0.002   1.342   0.985 -1.7110  0.4430 -1.0132
   19SOL     MW   76   0.079   1.317   0.976  0.3221  0.2650 -0.5400
   20SOL     OW   77   0.404   2.138   1.219  0.2343  0.0054 -0.5118
   20SOL    HW1   78   0.379   2.046   1.200 -1.1893 -1.1162  0.4203
   20SOL    HW2   79   0.351   2.165   1.294 -1.5791  1.7292  0.5598
   20SOL     MW   80   0.394   2.129   1.226 -0.1928  0.0849 -0.2474
   21SOL     OW   81   0.531   0.803   0.353  0.1078  0.1160  0.0928
   21SOL    HW1   82   0.620   0.786   0.384  0.4651 -0.5426 -0.7245
   21SOL    HW2   83   0.534   0.764   0.266  0.3698  0.9679  1.3291
   21SOL     MW   84   0.543   0.796   0.346  0.1895  0.1415  0.1481
   22SOL     OW   85   1.489   0.575   1.110 -0.0387  0.5765  0.5290
   22SOL    HW1   86   1.548   0.515   1.057 -0.9340  2.6574  1.7101
   22SOL    HW2   87   1.430   0.617   1.051 -0.3841  0.7088  3.3271
   22SOL     MW   88   1.489   0.572   1.095 -0.2024  0.8685  1.0540
   23SOL     OW   89   0.009   0.774   0.652  0.1491  0.1413 -0.1898
   23SOL    HW1   90   0.036   0.705   0.715 -1.1703 -0.0524  0.0207
   23SOL    HW2   91   0.081   0.830   0.656  0.2410 -2.4284  3.0497
   23SOL     MW   92   0.022   0.772   0.661 -0.0128 -0.2233  0.2654
   24SOL     OW   93   2.019   2.220   0.104  0.1889  0.1173  0.0546
   24SOL    HW1   94   2.022   2.193   0.197 -2.7986 -0.7684 -0.8325
   24SOL    HW2   95   2.064   2.147   0.058  0.7792  3.2670 -2.0580
   24SOL     MW   96   2.025   2.207   0.110 -0.1274  0.4160 -0.3412
   25SOL     OW   97   0.208   1.361   0.543 -0.7263 -0.4686 -0.2620
   25SOL    HW1   98   0.166   1.435   0.499 -2.5390 -2.3150 -0.2268
   25SOL    HW2   99   0.296   1.369   0.494  0.6124  1.5126 -0.4302
   25SOL     MW  100   0.214   1.372   0.531 -0.7889 -0.4508 -0.2796
   26SOL     OW  101   2.001   0.944   0.418 -0.0327  0.3173 -0.6599
   26SOL    HW1  102   1.923   1.005   0.452  0.9365  2.8475 -0.0089
   26SOL    HW2  103   2.050   1.009   0.362 -2.1521  1.6788 -0.8013
   26SOL     MW  104   1.997   0.961   0.415 -0.1845  0.8308 -0.5927
   27SOL     OW  105   2.050   1.402   0.219 -0.1381  0.1308 -0.4486
   27SOL    HW1  106   1.976   1.362   0.270  0.1440  0.0091  1.0991
   27SOL    HW2  107   2.070   1.474   0.280 -1.1817  0.9720 -0.0227
   27SOL     MW  108   2.043   1.406   0.234 -0.2386  0.2257 -0.1882
   28SOL     OW  109   0.396   1.081   2.001  0.0190 -0.4307  0.4741
   28SOL    HW1  110   0.486   1.061   2.018 -1.6928 -0.4490  1.1352
   28SOL    HW2  111   0.351   0.997   2.008 -5.3617  1.7390 -0.5644
   28SOL     MW  112   0.402   1.067   2.004 -0.9168 -0.1468  0.4243
   29SOL     OW  113   0.224   1.454   0.812 -0.7817  0.3263 -0.4917
   29SOL    HW1  114   0.241   1.543   0.787  0.0679  0.8918  1.1827
   29SOL    HW2  115   0.213   1.418   0.725 -1.7321  0.3008 -1.4337
   29SOL     MW  116   0.225   1.461   0.797 -0.7950  0.3975 -0.3950
   30SOL     OW  117   0.828   1.174   1.218 -0.2240  0.4695 -0.1569
   30SOL    HW1  118   0.737   1.188   1.247  0.0823 -1.3660 -0.2224
   30SOL    HW2  119   0.880   1.166   1.301 -2.1501  0.1173 -0.3357
   30SOL     MW  120   0.823   1.175   1.233 -0.4377  0.1809 -0.1892
   31SOL     OW  121   0.386   0.184   0.153  0.6406 -0.1417  0.7076
   31SOL    HW1  122   0.417   0.114   0.207  0.7919  0.0205 -1.3167
   31SOL    HW2  123   0.372   0.139   0.071  1.9519 -0.4616  1.2455
   31SOL     MW  124   0.388   0.169   0.149  0.8336 -0.1625  0.5115
   32SOL     OW  125   2.787   1.004   1.129  0.2541 -0.2154  0.0688
   32SOL    HW1  126   2.713   0.942   1.122 -1.4460 -0.3876 -2.0133
   32SOL    HW2  127   2.867   0.949   1.127  0.5831  2.4959  0.1661
   32SOL     MW  128   2.788   0.988   1.128  0.0732  0.1196 -0.1931
   33SOL     OW  129   1.837   1.321   0.355  0.4435 -0.0420  0.0090
   33SOL    HW1  130   1.833   1.247   0.417 -0.3486  0.3198  0.4557
   33SOL    HW2  131   1.788   1.396   0.394 -0.2630  0.3468 -2.0456
   33SOL     MW  132   1.830   1.321   0.368  0.2458  0.0570 -0.2032
   34SOL     OW  133   1.235   1.872   1.092  0.2081 -0.1636 -0.4333
   34SOL    HW1  134   1.142   1.899   1.112  2.3607  0.3852 -0.6300
   34SOL    HW2  135   1.293   1.887   1.169  1.6299  1.4984  0.6305
   34SOL     MW  136   1.231   1.877   1.105  0.6797  0.1281 -0.3189
   35SOL     OW  137   0.381   0.151   1.860  0.4083  0.3649 -0.3036
   35SOL    HW1  138   0.350   0.116   1.941  1.2085  2.7048 -0.0949
   35SOL    HW2  139   0.408   0.077   1.805 -1.3145  2.8642 -0.3102
   35SOL     MW  140   0.381   0.137   1.863  0.2866  1.0034 -0.2770
   36SOL     OW  141   1.837   1.934   0.499 -0.1569  0.1878  0.0826
   36SOL    HW1  142   1.858   1.924   0.411  2.6413 -0.1074  0.1210
   36SOL    HW2  143   1.867   1.849   0.534 -0.3766  1.2361 -0.3169
   36SOL     MW  144   1.843   1.922   0.492  0.1833  0.2872  0.0350
   37SOL     OW  145   1.764   1.983   1.062  0.0644 -0.0467 -0.5116
   37SOL    HW1  146   1.717   1.937   0.988 -0.9406 -1.1888 -1.0305
   37SOL    HW2  147   1.705   2.051   1.096  0.1847 -2.8293  1.3115
   37SOL     MW  148   1.750   1.986   1.057 -0.0523 -0.5645 -0.3395
   38SOL     OW  149   2.825   0.897   0.156 -0.5518  0.0139  0.3968
   38SOL    HW1  150   2.860   0.889   0.248 -2.4239  0.1620  1.0612
   38SOL    HW2  151   2.897   0.892   0.097 -0.9374 -0.4052  0.7072
   38SOL     MW  152   2.839   0.896   0.160 -0.8496 -0.0218  0.5254
   39SOL     OW  153   1.402   0.642   0.780  0.0397  0.3186 -0.2424
   39SOL    HW1  154   1.400   0.552   0.822  3.4824  0.0510  1.1858
   39SOL    HW2  155   1.312   0.673   0.784  0.9500 -2.1650 -0.5683
   39SOL     MW  156   1.390   0.634   0.786  0.6141 -0.0444 -0.0970
   40SOL     OW  157   1.193   1.903   0.225  0.0914  0.3817 -0.3848
   40SOL    HW1  158   1.240   1.851   0.291  1.3396  0.9882  0.4680
   40SOL    HW2  159   1.147   1.970   0.281  1.8142  2.5897 -1.4216
   40SOL     MW  160   1.193   1.905   0.241  0.4834  0.7531 -0.4090
   41SOL     OW  161   0.623   0.474   1.560  0.2306  0.7827  0.5780
   41SOL    HW1  162   0.715   0.503   1.571  0.6742  0.0264  1.3810
   41SOL    HW2  163   0.608   0.434   1.651  1.1046 -0.6666 -1.7369
   41SOL     MW  164   0.633   0.472   1.574  0.4045  0.4917  0.3786
   42SOL     OW  165   1.253   3.000   2.022  0.0199 -0.2081 -0.4016
   42SOL    HW1  166   1.159   2.992   2.035 -1.1960  1.6789  0.3800
   42SOL    HW2  167   1.287   2.913   2.025 -2.1578  1.3979  1.8776
   42SOL     MW  168   1.245   2.987   2.024 -0.4278  0.2527  0.0023
   43SOL     OW  169   1.557   0.127   1.768  0.0124 -0.2110  0.0617
   43SOL    HW1  170   1.600   0.116   1.682 -1.1467 -0.6800 -0.6298
   43SOL    HW2  171   1.468   0.102   1.738  2.2120  0.3838 -2.0352
   43SOL     MW  172   1.551   0.122   1.753  0.1497 -0.1944 -0.3062
   44SOL     OW  173   1.262   0.758   1.106  0.0169  0.1766 -0.7485
   44SOL    HW1  174   1.238   0.844   1.069  0.4777 -0.8497  1.4425
   44SOL    HW2  175   1.238   0.762   1.201  1.3238  0.6172  1.0653
   44SOL     MW  176   1.256   0.770   1.113  0.2501  0.0993 -0.2201
   45SOL     OW  177   1.137   0.702   0.754  0.4649  0.1744 -0.2781
   45SOL    HW1  178   1.094   0.665   0.828 -0.9159 -1.4043 -1.5915
   45SOL    HW2  179   1.085   0.669   0.684 -0.4423  1.0438 -0.2676
   45SOL     MW  180   1.124   0.693   0.754  0.1631  0.0808 -0.4500
   46SOL     OW  181   0.564   1.184   0.553 -0.1028 -0.1451  0.2247
   46SOL    HW1  182   0.529   1.194   0.469  0.8372 -2.7393  0.6353
   46SOL    HW2  183   0.654   1.158   0.535 -2.7565 -3.0371  0.9106
   46SOL     MW  184   0.571   1.182   0.539 -0.3289 -0.8690  0.3694
   47SOL     OW  185   0.162   1.919   1.783  0.2395 -0.4606 -0.4012
   47SOL    HW1  186   0.234   1.873   1.743 -2.9407  2.0338  0.4431
   47SOL    HW2  187   0.185   1.921   1.881 -1.7760 -0.6828  0.6181
   47SOL     MW  188   0.175   1.913   1.791 -0.4460 -0.1608 -0.1553
   48SOL     OW  189   1.062   0.576   0.969  0.7093 -0.1811 -0.7454
   48SOL    HW1  190   0.979   0.534   1.000  1.3138  0.5494 -2.7967
   48SOL    HW2  191   1.101   0.642   1.026 -0.3814  0.0192  0.0352
   48SOL     MW  192   1.056   0.579   0.981  0.6452 -0.0583 -0.9131
   49SOL     OW  193   1.814   0.755   1.574  0.0462 -0.3464  0.9441
   49SOL    HW1  194   1.757   0.712   1.642  0.6598  0.7880 -0.9078
   49SOL    HW2  195   1.877   0.687   1.538 -0.2666 -2.5133 -1.2188
   49SOL     MW  196   1.815   0.740   1.578  0.0859 -0.4826  0.4144
   50SOL     OW  197   1.172   1.058   0.517  0.2012  0.6718  0.5473
   50SOL    HW1  198   1.156   1.128   0.580  0.0685 -2.0906  1.3603
   50SOL    HW2  199   1.237   1.003   0.559 -1.1129  0.6798 -1.0103
   50SOL     MW  200   1.179   1.060   0.531  0.0103  0.3084  0.4491
   51SOL     OW  201   0.319   2.888   0.930 -0.2596  0.0043  0.1527
   51SOL    HW1  202   0.400   2.853   0.964  1.6759 -0.3098  0.2463
   51SOL    HW2  203   0.276   2.914   1.009 -4.0944 -0.8129 -0.0252
   51SOL     MW  204   0.324   2.887   0.945 -0.5102 -0.1450  0.1416
   52SOL     OW  205   0.787   1.821   0.456  0.0906  0.5005  0.2970
   52SOL    HW1  206   0.757   1.909   0.471 -1.5400 -1.5040  1.2544
   52SOL    HW2  207   0.808   1.808   0.363  2.0120 -2.0475 -0.3529
   52SOL     MW  208   0.786   1.831   0.446  0.1290 -0.1002  0.3375
   53SOL     OW  209   0.470   2.151   0.651 -0.5593  0.1759 -0.0824
   53SOL    HW1  210   0.385   2.152   0.612 -0.7313 -1.4659  2.9264
   53SOL    HW2  211   0.494   2.247   0.670  1.1192 -1.6074  2.9929
   53SOL     MW  212   0.462   2.164   0.648 -0.3605 -0.2760  0.7203
   54SOL     OW  213   2.152   0.865   0.874 -0.3011  0.5292 -0.0087
   54SOL    HW1  214   2.194   0.891   0.790  1.1076 -2.7300  0.9047
   54SOL    HW2  215   2.067   0.816   0.852 -1.8666  2.1921 -1.9440
   54SOL     MW  216   2.146   0.862   0.860 -0.3218  0.3186 -0.1435
   55SOL     OW  217   0.592   1.527   1.612  0.2476  0.3214  0.8926
   55SOL    HW1  218   0.526   1.573   1.560  0.6819  1.1804  0.5355
   55SOL    HW2  219   0.626   1.460   1.554  1.5196 -1.6316  0.0456
   55SOL     MW  220   0.588   1.525   1.597  0.4727  0.1770  0.7337
   56SOL     OW  221   0.531   0.787   0.085  0.1344  0.0917 -0.3616
   56SOL    HW1  222   0.534   0.882   0.061  1.1549  0.8734 -3.3506
   56SOL    HW2  223   0.472   0.742   0.026 -0.8559 -1.6087 -1.9919
   56SOL     MW  224   0.523   0.794   0.074  0.1384 -0.0295 -0.9710
   57SOL     OW  225   1.228   1.216   1.133 -0.6061  0.0125 -0.9502
   57SOL    HW1  226   1.314   1.244   1.089 -0.3254 -0.2522 -0.4867
   57SOL    HW2  227   1.261   1.193   1.223  2.7464  0.0655  0.7657
   57SOL     MW  228   1.244   1.217   1.139 -0.1267 -0.0154 -0.6626
   58SOL     OW  229   0.543   1.174   1.308 -0.5506  0.1848 -0.2809
   58SOL    HW1  230   0.513   1.262   1.272 -1.2171  0.7466  0.0378
   58SOL    HW2  231   0.554   1.193   1.408  1.6085 -0.0969  0.0384
   58SOL     MW  232   0.540   1.188   1.317 -0.3537  0.2218 -0.1968
   59SOL     OW  233   1.532   1.683   0.330  0.1685  0.1884 -0.3802
   59SOL    HW1  234   1.579   1.704   0.415  1.5034 -1.7855  1.5298
   59SOL    HW2  235   1.439   1.684   0.354 -1.2651  0.9053  0.5505
   59SOL     MW  236   1.526   1.686   0.344  0.1555  0.0226 -0.0054
   60SOL     OW  237   0.066   0.160   1.667  0.3729 -0.4967 -0.1034
   60SOL    HW1  238  -0.024   0.182   1.644 -1.1280  0.1597 -1.3586
   60SOL    HW2  239   0.066   0.081   1.723 -1.8313 -2.3687 -0.9724
   60SOL     MW  240   0.054   0.152   1.672 -0.1160 -0.6571 -0.3837
   61SOL     OW  241   2.063   1.458   3.035  0.1586 -0.0131  0.0859
   61SOL    HW1  242   2.063   1.448   3.134  1.7854 -0.7499 -0.2851
   61SOL    HW2  243   2.112   1.382   3.008 -1.1994  1.5990 -3.4877
   61SOL     MW  244   2.069   1.447   3.045  0.1940  0.1023 -0.4346
   62SOL     OW  245   0.622   1.712   0.622 -0.4549  0.0976  0.3055
   62SOL    HW1  246   0.686   1.749   0.562  0.4907  2.2071 -2.3427
   62SOL    HW2  247   0.629   1.614   0.621 -0.1913 -1.0177 -1.4184
   62SOL     MW  248   0.631   1.704   0.614 -0.2953  0.2288 -0.2714
   63SOL     OW  249   1.662   0.717   0.728  0.4503 -0.2571  0.5732
   63SOL    HW1  250   1.658   0.759   0.640 -0.5521 -2.6019 -1.3520
   63SOL    HW2  251   1.569   0.715   0.750  0.7549  0.3891  1.4107
   63SOL     MW  252   1.649   0.722   0.720  0.3582 -0.4812  0.4297
   64SOL     OW  253   0.279   1.714   0.728 -0.3650  0.1863  0.4553
   64SOL    HW1  254   0.337   1.789   0.753  1.4819 -0.3629 -1.9673
   64SOL    HW2  255   0.198   1.753   0.731  3.5301 -0.9590 -0.0235
   64SOL     MW  256   0.276   1.729   0.732  0.3926 -0.0373  0.0725
   65SOL     OW  257   1.550   2.351   0.387 -0.2579  0.0350  0.7708
   65SOL    HW1  258   1.646   2.348   0.382  0.2397  1.4450 -1.0128
   65SOL    HW2  259   1.520   2.412   0.457  2.0264 -0.2107 -2.0104
   65SOL     MW  260   1.559   2.359   0.395  0.1092  0.1886  0.1685
   66SOL     OW  261   0.290   0.555   0.574 -0.0769 -0.3289  0.4805
   66SOL    HW1  262   0.348   0.503   0.522  0.7621  1.8491  1.3447
   66SOL    HW2  263   0.286   0.641   0.530  2.0192 -0.8850 -2.0051
   66SOL     MW  264   0.297   0.559   0.561  0.3103 -0.1149  0.2666
   67SOL     OW  265   1.456   0.093   2.021  1.1023 -0.0872 -0.0144
   67SOL    HW1  266   1.493   0.107   1.932  0.1447 -0.8453 -0.2498
   67SOL    HW2  267   1.393   0.020   2.014  4.1521 -0.7869 -1.1067
   67SOL     MW  268   1.453   0.085   2.009  1.3784 -0.2795 -0.1896
   68SOL     OW  269   0.638   0.088   2.947  0.0927 -0.2148 -0.2175
   68SOL    HW1  270   0.619   0.136   2.867  1.4118 -2.4264 -1.0059
   68SOL    HW2  271   0.707   0.143   2.986  0.6475  0.6202  3.3389
   68SOL     MW  272   0.645   0.102   2.942  0.3399 -0.3965  0.1477
   69SOL     OW  273   0.996   0.177   1.983 -0.3644  0.1719 -0.2067
   69SOL    HW1  274   1.080   0.182   2.030  1.0997  0.8006  2.8564
   69SOL    HW2  275   0.975   0.081   1.983 -0.9287 -1.8661  1.0693
   69SOL     MW  276   1.005   0.165   1.989 -0.2457 -0.0140  0.3658
   70SOL     OW  277   0.515   1.722   1.131  0.0714 -0.2772 -0.3870
   70SOL    HW1  278   0.579   1.666   1.177  2.2095  0.4395  1.5360
   70SOL    HW2  279   0.570   1.760   1.061  0.2631 -0.7640  3.2254
   70SOL     MW  280   0.531   1.720   1.128  0.3788 -0.2469  0.3434
   71SOL     OW  281   1.647   0.548   1.336 -0.8157 -0.1058 -0.6290
   71SOL    HW1  282   1.625   0.628   1.382  0.3472  0.9386 -2.4426
   71SOL    HW2  283   1.602   0.561   1.249 -1.6641 -1.1250  0.3067
   71SOL     MW  284   1.638   0.560   1.331 -0.7742 -0.1025 -0.7449
   72SOL     OW  285   0.785   1.772   0.977 -0.4178  0.0298  0.2533
   72SOL    HW1  286   0.774   1.801   0.887  2.7159 -2.2843  0.6196
   72SOL    HW2  287   0.761   1.677   0.970  1.5456 -1.7389 -0.8728
   72SOL     MW  288   0.780   1.763   0.964  0.2547 -0.5089  0.1531
   73SOL     OW  289   1.185   0.707   1.355 -0.3358  0.0783  0.2981
   73SOL    HW1  290   1.160   0.616   1.342  1.0151 -1.2020  1.1249
   73SOL    HW2  291   1.117   0.752   1.407 -1.5820 -1.2709 -2.1373
   73SOL     MW  292   1.173   0.701   1.360 -0.3220 -0.2686  0.0858
   74SOL     OW  293   2.833   0.178   0.949 -0.5554  0.0138 -0.2092
   74SOL    HW1  294   2.840   0.164   0.856 -1.5689  0.7789  1.8822
   74SOL    HW2  295   2.786   0.263   0.951 -2.9415  0.3353 -1.0282
   74SOL     MW  296   2.828   0.187   0.937 -1.0039  0.1572 -0.0413
   75SOL     OW  297   1.675   1.385   0.114 -0.0663  0.1113 -0.4861
   75SOL    HW1  298   1.705   1.375   0.206  0.7544  0.1697  0.3732
   75SOL    HW2  299   1.698   1.301   0.069  1.7096 -2.5660 -1.0563
   75SOL     MW  300   1.682   1.373   0.120  0.2763 -0.2343 -0.4479
   76SOL     OW  301   2.994   0.622   0.424  0.4089  0.0359  0.0012
   76SOL    HW1  302   3.017   0.643   0.516  0.2522 -3.0408  1.4548
   76SOL    HW2  303   3.066   0.567   0.401 -1.7871  1.7863 -1.4067
   76SOL     MW  304   3.007   0.617   0.433  0.0985 -0.1391  0.0073
   77SOL     OW  305   0.838   0.537   0.418 -0.0187  0.3714  0.0770
   77SOL    HW1  306   0.819   0.543   0.325  0.5436  1.2111  2.1386
   77SOL    HW2  307   0.767   0.482   0.455 -2.7336  1.6415 -0.0440
   77SOL     MW  308   0.826   0.531   0.411 -0.3027  0.6498  0.3331
   78SOL     OW  309   0.754   0.883   1.274 -0.0487  0.3863  0.4775
   78SOL    HW1  310   0.700   0.933   1.206 -1.9450  2.9556 -0.1069
   78SOL    HW2  311   0.815   0.833   1.217  0.3823 -1.5030 -0.5834
   78SOL     MW  312   0.755   0.883   1.257 -0.2420  0.4760  0.2604
   79SOL     OW  313   1.906   1.711   0.620  0.2271  0.2471 -0.2101
   79SOL    HW1  314   1.849   1.634   0.606  0.0304 -1.0743  0.2567
   79SOL    HW2  315   1.921   1.722   0.716  0.7305 -2.7283 -4.6682
   79SOL     MW  316   1.901   1.702   0.630  0.2675 -0.3198 -0.7367
   80SOL     OW  317   0.098   0.980   0.301 -0.5880 -0.9058 -0.1003
   80SOL    HW1  318   0.007   0.936   0.315 -1.2784 -1.9393 -2.4214
   80SOL    HW2  319   0.157   0.901   0.307  0.4380 -0.3480  0.2396
   80SOL     MW  320   0.094   0.964   0.304 -0.5437 -0.9685 -0.3617
   81SOL     OW  321   1.912   1.912   0.226 -0.3032  0.0343  0.6094
   81SOL    HW1  322   1.873   1.826   0.200 -0.6416 -2.1464  0.9600
   81SOL    HW2  323   1.836   1.968   0.217  2.9415  0.3715  0.6914
   81SOL     MW  324   1.897   1.908   0.221  0.0802 -0.2090  0.6665
   82SOL     OW  325   0.809   1.094   0.532  0.2625 -0.3014 -0.1905
   82SOL    HW1  326   0.821   1.132   0.446  2.4139 -1.0851 -0.5664
   82SOL    HW2  327   0.789   1.008   0.516 -2.8277  0.3241  0.4432
   82SOL     MW  328   0.808   1.087   0.519  0.1386 -0.3223 -0.1565
   83SOL     OW  329   0.168   0.592   1.330 -0.9010 -0.2165  0.2805
   83SOL    HW1  330   0.158   0.688   1.345  0.3619 -1.5803  1.4663
   83SOL    HW2  331   0.236   0.580   1.399  0.1072 -3.2429  0.1615
   83SOL     MW  332   0.176   0.603   1.341 -0.6013 -0.7958  0.4212
   84SOL     OW  333   0.086   0.224   0.902 -0.4477  0.5664  0.5087
   84SOL    HW1  334   0.005   0.251   0.854 -0.8517  1.7922 -1.0372
   84SOL    HW2  335   0.059   0.195   0.991 -0.9112 -3.0575 -0.4831
   84SOL     MW  336   0.072   0.224   0.908 -0.5621  0.2500  0.1739
   85SOL     OW  337   0.492   0.442   0.765  0.1069 -0.2101  0.0169
   85SOL    HW1  338   0.426   0.488   0.709  1.9948  1.7338  2.1237
   85SOL    HW2  339   0.445   0.365   0.788 -1.6072  2.2158 -1.7338
   85SOL     MW  340   0.477   0.438   0.761  0.1298  0.3665  0.0639
   86SOL     OW  341   1.219   0.358   1.088  0.0395 -0.3694 -0.2872
   86SOL    HW1  342   1.164   0.423   1.048  0.6584 -0.4307  1.4227
   86SOL    HW2  343   1.243   0.395   1.174  0.3465 -0.5177  1.9313
   86SOL     MW  344   1.215   0.371   1.094  0.1617 -0.3971  0.2311
   87SOL     OW  345   1.143   1.450   1.259 -0.1008 -0.2651  0.7857
   87SOL    HW1  346   1.191   1.496   1.182  0.2089 -0.4528 -0.6537
   87SOL    HW2  347   1.157   1.354   1.230 -1.2319 -2.3699  2.8107
   87SOL     MW  348   1.151   1.443   1.245 -0.2092 -0.5675  0.8629
   88SOL     OW  349   1.206   1.004   0.980 -0.2410 -0.0865 -0.5682
   88SOL    HW1  350   1.295   0.975   0.955  1.6715 -0.7371 -1.3883
   88SOL    HW2  351   1.215   1.087   1.036  0.3834 -1.5978  1.3601
   88SOL     MW  352   1.219   1.011   0.984  0.0937 -0.3717 -0.4220
   89SOL     OW  353   1.759   0.675   0.318  0.1789 -0.0678  0.6026
   89SOL    HW1  354   1.819   0.604   0.356 -3.1194 -1.9106  0.0100
   89SOL    HW2  355   1.810   0.711   0.243 -0.2147  0.9533  1.3585
   89SOL     MW  356   1.774   0.671   0.313 -0.3082 -0.1762  0.6241
   90SOL     OW  357   0.672   1.163   2.808  0.0309 -0.0057 -0.1006
   90SOL    HW1  358   0.749   1.103   2.825  3.0851 -2.7239  0.1573
   90SOL    HW2  359   0.673   1.234   2.878 -1.9149  1.6863 -3.9371
   90SOL     MW  360   0.682   1.165   2.819  0.1772 -0.1411 -0.5728
   91SOL     OW  361   2.201   0.642   0.524 -0.1394 -0.2475 -0.2751
   91SOL    HW1  362   2.215   0.699   0.452 -0.9892 -0.5168  1.4037
   91SOL    HW2  363   2.195   0.555   0.484 -1.6510 -0.0177  1.3537
   91SOL     MW  364   2.202   0.638   0.509 -0.4509 -0.2527  0.1613
   92SOL     OW  365   1.628   0.866   0.498 -0.1283 -0.6692  0.2786
   92SOL    HW1  366   1.527   0.866   0.508 -0.9089 -0.5109  0.7335
   92SOL    HW2  367   1.647   0.799   0.431  0.0115 -0.1079 -0.3291
   92SOL     MW  368   1.617   0.857   0.491 -0.2129 -0.5743  0.2585
   93SOL     OW  369   1.009   0.324   0.378  0.1496 -0.1515  0.3331
   93SOL    HW1  370   0.960   0.406   0.386 -3.7369 -0.9681 -0.6662
   93SOL    HW2  371   1.053   0.324   0.292  1.2616  0.4096 -0.6277
   93SOL     MW  372   1.009   0.335   0.368 -0.2165 -0.1852  0.0745
   94SOL     OW  373   1.881   1.372   1.615 -0.3434  0.7254  0.4184
   94SOL    HW1  374   1.873   1.363   1.523  0.1546 -0.9177 -0.0185
   94SOL    HW2  375   1.858   1.288   1.655 -1.3086 -1.9979 -0.3282
   94SOL     MW  376   1.877   1.359   1.608 -0.4050  0.1493  0.2622
   95SOL     OW  377   0.717   1.506   0.988  0.4623  0.1324 -0.1027
   95SOL    HW1  378   0.792   1.446   1.006 -0.9121  1.2136 -0.4740
   95SOL    HW2  379   0.637   1.453   0.981  0.8674 -0.9662  3.8259
   95SOL     MW  380   0.716   1.491   0.990  0.3344  0.1301  0.3666
   96SOL     OW  381   1.239   1.834   1.606  0.2349  0.4522  1.5000
   96SOL    HW1  382   1.171   1.814   1.670  0.9436  2.5925 -3.4344
   96SOL    HW2  383   1.252   1.751   1.562 -0.2173 -0.5873 -3.8123
   96SOL     MW  384   1.232   1.821   1.608  0.2688  0.5974  0.1480
   97SOL     OW  385   1.268   1.454   0.823  0.2854 -0.5603 -0.0479
   97SOL    HW1  386   1.288   1.486   0.907  0.7828 -0.6352 -0.3084
   97SOL    HW2  387   1.192   1.510   0.793  0.5312  0.5854 -0.2837
   97SOL     MW  388   1.260   1.466   0.830  0.3835 -0.4190 -0.1134
   98SOL     OW  389   1.477   1.309   1.055 -0.1017 -0.0942  0.0410
   98SOL    HW1  390   1.489   1.380   1.113 -1.8562 -1.9961 -1.2258
   98SOL    HW2  391   1.521   1.336   0.976 -0.6244  0.6143 -0.1253
   98SOL     MW  392   1.485   1.322   1.052 -0.4022 -0.2517 -0.1481
   99SOL     OW  393   1.387   0.381   1.332 -0.5012 -0.0237  0.5514
   99SOL    HW1  394   1.424   0.460   1.291 -0.0429 -1.0860  1.2816
   99SOL    HW2  395   1.432   0.379   1.416 -1.3810 -0.7343 -1.1758
   99SOL     MW  396   1.398   0.391   1.337 -0.5568 -0.2576  0.4199
  100SOL     OW  397   1.037   1.146   1.401 -0.0313  0.4883 -0.7746
  100SOL    HW1  398   1.061   1.188   1.484 -1.4939 -0.1440 -1.0346
  100SOL    HW2  399   1.033   1.050   1.424 -2.2458 -1.6163 -0.9011
  100SOL     MW  400   1.039   1.138   1.415 -0.5164  0.1272 -0.8256
  101SOL     OW  401   0.536   1.074   0.277 -0.6736 -0.1538  0.3903
  101SOL    HW1  402   0.528   0.992   0.327 -0.5923  0.8356 -0.8534
  101SOL    HW2  403   0.509   1.049   0.191  1.5613  4.3674  2.8200
  101SOL     MW  404   0.531   1.060   0.272 -0.3680  0.5733  0.5468
  102SOL     OW  405   2.950   0.628   0.976 -0.2023 -1.0568  0.6189
  102SOL    HW1  406   2.991   0.716   1.006  0.8647 -0.1497 -0.4621
  102SOL    HW2  407   2.990   0.568   1.043 -0.9324  2.1568  2.1450
  102SOL     MW  408   2.960   0.632   0.988 -0.1579 -0.5131  0.6776
  103SOL     OW  409   1.760   0.380   1.836  0.3770 -0.4335  0.1536
  103SOL    HW1  410   1.682   0.332   1.833 -1.0687 -0.3108  0.0477
  103SOL    HW2  411   1.803   0.334   1.906 -0.6682  1.2280 -4.0052
  103SOL     MW  412   1.755   0.368   1.845  0.0483 -0.1981 -0.4091
  104SOL     OW  413   0.158   1.765   1.523 -0.3416 -0.1910  0.4150
  104SOL    HW1  414   0.136   1.722   1.604  1.0488 -1.7400  4.8549
  104SOL    HW2  415   0.156   1.713   1.441  2.6170  0.2660  0.9306
  104SOL     MW  416   0.155   1.753   1.523  0.2322 -0.3351  1.0689
  105SOL     OW  417   0.030   1.162   0.495  0.0549  0.2568  0.2840
  105SOL    HW1  418   0.045   1.102   0.424 -1.4568  0.9165  0.0524
  105SOL    HW2  419   0.104   1.222   0.492  0.7433  0.9584 -0.1576
  105SOL     MW  420   0.041   1.162   0.485 -0.0537  0.4364  0.1952
  106SOL     OW  421   0.871   0.385   1.031  0.2926 -0.5001  0.6313
  106SOL    HW1  422   0.806   0.438   0.983 -2.8897 -0.9935  0.2218
  106SOL    HW2  423   0.908   0.331   0.962  0.0124  1.7393 -1.1338
  106SOL     MW  424   0.867   0.385   1.015 -0.1642 -0.2697  0.3444
  107SOL     OW  425   0.776   2.157   3.000 -0.7552 -0.1859 -0.3367
  107SOL    HW1  426   0.719   2.123   2.931  0.1378  2.3414  0.8327
  107SOL    HW2  427   0.758   2.090   3.062  0.3977 -1.4976 -1.3991
  107SOL     MW  428   0.766   2.144   2.999 -0.4852 -0.0255 -0.3226
  108SOL     OW  429   1.332   1.547   1.496 -0.5426 -0.3094  0.1965
  108SOL    HW1  430   1.307   1.475   1.445 -1.1657 -2.0749  1.7805
  108SOL    HW2  431   1.390   1.513   1.571  2.0649  0.4780  0.7561
  108SOL     MW  432   1.336   1.533   1.499 -0.2808 -0.4384  0.4794
  109SOL     OW  433   1.999   0.757   0.178 -0.1831 -0.0146  0.1463
  109SOL    HW1  434   2.045   0.812   0.119  0.6901 -1.1491 -3.6532
  109SOL    HW2  435   2.002   0.786   0.268  1.7613  3.9404 -1.8539
  109SOL     MW  436   2.006   0.768   0.182  0.1887  0.3575 -0.6189
  110SOL     OW  437   0.462   1.911   0.781 -0.5330  0.2459 -0.2059
  110SOL    HW1  438   0.525   1.851   0.735 -0.4005 -0.5849  2.7750
  110SOL    HW2  439   0.465   1.992   0.725 -1.2772 -0.7737  3.3427
  110SOL     MW  440   0.470   1.914   0.768 -0.6137  0.0018  0.6556
  111SOL     OW  441   0.758   0.945   1.538 -0.0592  0.0846  0.2547
  111SOL    HW1  442   0.753   0.931   1.441  0.5869 -1.7724  0.4739
  111SOL    HW2  443   0.683   0.898   1.573  0.2525  0.7141 -1.1771
  111SOL     MW  444   0.748   0.937   1.530  0.0671 -0.0773  0.0947
  112SOL     OW  445   1.335   1.067   1.612  0.3281 -0.2069 -0.1904
  112SOL    HW1  446   1.284   1.143   1.641 -0.6708  0.5449  0.2979
  112SOL    HW2  447   1.284   0.988   1.622  0.4910 -2.1127 -0.0336
  112SOL     MW  448   1.322   1.067   1.617  0.2178 -0.3591 -0.1053
  113SOL     OW  449   1.271   0.031   1.747  0.4046  0.2031 -0.1441
  113SOL    HW1  450   1.230  -0.023   1.813 -0.1940 -0.7914 -1.5391
  113SOL    HW2  451   1.289  -0.029   1.670  1.4937  1.0333  1.4220
  113SOL     MW  452   1.268   0.016   1.746  0.4693  0.1814 -0.1215
  114SOL     OW  453   0.406   2.848   1.938 -0.9812 -0.1183  0.3183
  114SOL    HW1  454   0.384   2.934   1.975 -1.3864  0.6881 -1.8090
  114SOL    HW2  455   0.410   2.879   1.844  0.0380  2.1111 -1.9107
  114SOL     MW  456   0.404   2.864   1.930 -0.9002  0.2822 -0.2565
  115SOL     OW  457   0.480   0.818   1.101  0.2944 -0.3541  0.3903
  115SOL    HW1  458   0.525   0.745   1.141  1.1497  0.0638 -0.5499
  115SOL    HW2  459   0.464   0.872   1.178 -0.0767  3.1530 -2.1740
  115SOL     MW  460   0.484   0.815   1.116  0.3583  0.1638 -0.0721
  116SOL     OW  461   0.787   1.004   0.997  0.0803  0.0481  0.5153
  116SOL    HW1  462   0.823   1.060   0.924 -1.1922  0.0532 -2.6623
  116SOL    HW2  463   0.808   1.059   1.075  0.2815  2.8602  1.4445
  116SOL     MW  464   0.794   1.019   0.998 -0.0610  0.4198  0.2187
  117SOL     OW  465   1.176   1.193   0.751 -0.5904  0.2952 -0.0381
  117SOL    HW1  466   1.210   1.145   0.824  1.1804  0.9367 -2.2186
  117SOL    HW2  467   1.197   1.289   0.767 -0.4366  3.2858 -1.2759
  117SOL     MW  468   1.183   1.199   0.762 -0.3364  0.7744 -0.4891
  118SOL     OW  469   3.027   2.916   1.698 -0.2825  0.1615 -0.0017
  118SOL    HW1  470   3.081   2.981   1.743  0.1645  1.0274 -1.5935
  118SOL    HW2  471   2.942   2.958   1.683  2.4664 -1.3697  0.8813
  118SOL     MW  472   3.023   2.930   1.702  0.1392  0.0737 -0.0952
  119SOL     OW  473   0.456   1.418   1.222 -0.4222 -0.5020 -0.1310
  119SOL    HW1  474   0.459   1.409   1.125 -1.7290  1.5088  0.3383
  119SOL    HW2  475   0.364   1.414   1.234  2.3984  1.2640 -0.1052
  119SOL     MW  476   0.444   1.417   1.211 -0.2225 -0.0037 -0.0657
  120SOL     OW  477   0.276   0.698   1.004  0.4850  0.3788 -0.2444
  120SOL    HW1  478   0.271   0.615   1.050  1.4857  1.2619 -2.2092
  120SOL    HW2  479   0.358   0.736   1.036  1.0524 -0.1239 -1.0707
  120SOL     MW  480   0.286   0.692   1.014  0.6919  0.4290 -0.6126
  121SOL     OW  481   1.806   1.131   1.706 -0.0627  1.0872  0.5219
  121SOL    HW1  482   1.720   1.094   1.719  0.2959  1.0225  0.2047
  121SOL    HW2  483   1.849   1.078   1.634  0.9705  0.6757  0.5946
  121SOL     MW  484   1.800   1.120   1.698  0.1209  1.0244  0.4896
  122SOL     OW  485   0.142   0.599   0.794 -0.0145  0.2283 -0.0286
  122SOL    HW1  486   0.217   0.578   0.738  0.1503 -0.7005  2.2971
  122SOL    HW2  487   0.175   0.641   0.872  1.1808 -2.3203 -1.3032
  122SOL     MW  488   0.156   0.602   0.796  0.1649 -0.2305  0.1100
  123SOL     OW  489   1.805   1.093   0.565  0.0940 -0.2464  0.5259
  123SOL    HW1  490   1.747   1.017   0.547  0.8375 -0.0434  3.1876
  123SOL    HW2  491   1.819   1.090   0.660 -1.3269 -0.8899  2.5355
  123SOL     MW  492   1.799   1.083   0.575  0.0046 -0.3046  1.1422
  124SOL     OW  493   0.666   0.537   0.932 -0.3300 -0.5551 -0.4351
  124SOL    HW1  494   0.602   0.491   0.871 -2.2897 -1.1167 -0.7045
  124SOL    HW2  495   0.696   0.621   0.885  0.7416 -0.0531 -0.9139
  124SOL     MW  496   0.661   0.542   0.917 -0.4471 -0.5630 -0.5338
  125SOL     OW  497   0.700   1.760   1.701 -0.2273 -0.3925  0.1505
  125SOL    HW1  498   0.646   1.682   1.674 -1.6080 -1.7958  1.8522
  125SOL    HW2  499   0.652   1.837   1.666  2.5315 -2.0622  0.5288
  125SOL     MW  500   0.687   1.760   1.693 -0.0455 -0.7980  0.4249
  126SOL     OW  501   2.122   1.629   1.945  0.4522 -0.5493 -0.1814
  126SOL    HW1  502   2.201   1.689   1.937  0.7050 -0.4170  2.9715
  126SOL    HW2  503   2.164   1.542   1.958  1.4437 -1.2715 -1.6632
  126SOL     MW  504   2.138   1.625   1.946  0.6164 -0.6271  0.0391
  127SOL     OW  505   0.683   0.758   1.871  0.5811  0.2193 -0.1422
  127SOL    HW1  506   0.758   0.697   1.904 -2.2167 -2.4198 -1.2142
  127SOL    HW2  507   0.685   0.833   1.928  0.5111 -1.9271  2.8245
  127SOL     MW  508   0.693   0.760   1.883  0.2027 -0.4121  0.1078
  128SOL     OW  509   1.834   0.790   2.876  0.0555 -0.0408  0.9178
  128SOL    HW1  510   1.800   0.736   2.803  0.8008  0.3409  1.1406
  128SOL    HW2  511   1.777   0.869   2.882 -1.1050 -3.1581 -0.4553
  128SOL     MW  512   1.822   0.793   2.867  0.0007 -0.4017  0.7661
  129SOL     OW  513   1.610   0.926   0.179  0.6461  0.5304 -0.3547
  129SOL    HW1  514   1.536   0.863   0.181 -0.1155 -1.6778 -2.0928
  129SOL    HW2  515   1.670   0.895   0.246  2.0730 -1.2175  0.6593
  129SOL     MW  516   1.608   0.913   0.188  0.7339  0.0084 -0.4502
  130SOL     OW  517   0.787   1.403   0.398 -0.6391 -0.4201 -0.2943
  130SOL    HW1  518   0.831   1.400   0.476 -1.2407 -1.5259 -0.1666
  130SOL    HW2  519   0.853   1.425   0.332  0.8785 -0.3874  3.8445
  130SOL     MW  520   0.802   1.406   0.400 -0.5182 -0.5617  0.2686
  131SOL     OW  521   3.013   0.837   3.064 -0.0325  0.0792 -0.5619
  131SOL    HW1  522   3.017   0.884   2.982  1.5339  0.4054 -0.4608
  131SOL    HW2  523   3.108   0.816   3.089 -0.7501  0.3473 -2.3859
  131SOL     MW  524   3.026   0.840   3.056  0.0795  0.1577 -0.7892
  132SOL     OW  525   2.775   0.134   1.213 -0.9294  0.2296 -0.3972
  132SOL    HW1  526   2.809   0.133   1.124 -0.7993 -1.3061  1.5848
  132SOL    HW2  527   2.678   0.126   1.218 -0.1519  0.7348  2.5918
  132SOL     MW  528   2.766   0.133   1.202 -0.8096  0.0937  0.2587
  133SOL     OW  529   1.046   0.170   1.726 -0.6101  0.0329  0.2768
  133SOL    HW1  530   1.122   0.110   1.719 -2.0483 -0.3749 -0.0478
  133SOL    HW2  531   1.026   0.174   1.822 -0.8495 -3.6851 -0.2006
  133SOL     MW  532   1.054   0.163   1.737 -0.8314 -0.5115  0.1710
  134SOL     OW  533   1.419   2.526   1.426 -0.1621 -0.0195 -0.1452
  134SOL    HW1  534   1.357   2.595   1.396 -1.1586  1.6896 -0.4341
  134SOL    HW2  535   1.457   2.556   1.506  0.4802 -0.4051 -0.6437
  134SOL     MW  536   1.416   2.539   1.433 -0.2088  0.1551 -0.2491
  135SOL     OW  537   3.047   1.031   2.839  0.4228 -0.3197 -0.2400
  135SOL    HW1  538   3.091   1.112   2.881  2.1630  3.6660  0.7159
  135SOL    HW2  539   2.956   1.048   2.864 -2.4667 -0.6630 -3.3329
  135SOL     MW  540   3.041   1.044   2.848  0.2711  0.1608 -0.5219
  136SOL     OW  541   0.261   2.054   0.883 -0.0940 -0.0199  0.2830
  136SOL    HW1  542   0.180   2.001   0.874  3.9785 -1.1802  1.6190
  136SOL    HW2  543   0.330   1.991   0.853  2.4641 -0.8530  0.5468
  136SOL     MW  544   0.260   2.039   0.878  0.7808 -0.2829  0.4940
  137SOL     OW  545   0.711   2.066   0.530 -0.4746  0.7946  0.0125
  137SOL    HW1  546   0.756   2.061   0.617 -2.3175 -1.9029 -0.7370
  137SOL    HW2  547   0.616   2.091   0.551  0.1258 -0.0944  0.0781
  137SOL     MW  548   0.705   2.068   0.545 -0.6385  0.3214 -0.0777
  138SOL     OW  549   0.514   0.522   1.157 -0.4476 -0.1154 -0.6250
  138SOL    HW1  550   0.421   0.501   1.120  0.8316  3.3269 -1.3035
  138SOL    HW2  551   0.561   0.545   1.080 -0.8090 -1.1881  0.0709
  138SOL     MW  552   0.508   0.522   1.142 -0.3265  0.1972 -0.6227
  139SOL     OW  553   2.706   0.567   1.380  1.0316  0.1719  0.1975
  139SOL    HW1  554   2.773   0.499   1.366 -1.7426  3.5438 -1.6283
  139SOL    HW2  555   2.757   0.635   1.427  2.2467  2.0020 -1.6510
  139SOL     MW  556   2.722   0.567   1.384  0.8259  0.8582 -0.2873
  140SOL     OW  557   0.843   0.376   2.071 -0.1983 -0.1729 -0.2272
  140SOL    HW1  558   0.902   0.302   2.054  0.5408  0.3838  0.3700
  140SOL    HW2  559   0.860   0.396   2.166 -1.5021  0.4373  0.4279
  140SOL     MW  560   0.853   0.369   2.081 -0.2728 -0.0189 -0.0620
  141SOL     OW  561   1.088   0.552   1.791  0.4130  0.1942 -0.1314
  141SOL    HW1  562   1.138   0.502   1.726 -1.4296  2.7663  1.4385
  141SOL    HW2  563   1.113   0.643   1.778 -0.4204 -1.9243 -1.0982
  141SOL     MW  564   1.098   0.557   1.781  0.0599  0.2540 -0.0518
  142SOL     OW  565   0.893   1.125   0.802 -0.2853 -0.0046  0.2745
  142SOL    HW1  566   0.863   1.087   0.719 -2.3518  1.1064  1.0315
  142SOL    HW2  567   0.985   1.161   0.783  1.9445 -1.0313 -0.4347
  142SOL     MW  568   0.901   1.125   0.789 -0.2638  0.0066  0.2808
  143SOL     OW  569   1.756   0.792   1.104 -0.2405  0.0531 -0.3142
  143SOL    HW1  570   1.799   0.763   1.025 -1.6699  0.8470 -0.8812
  143SOL    HW2  571   1.662   0.778   1.086  1.0846  1.7943  1.8500
  143SOL     MW  572   1.750   0.786   1.091 -0.2542  0.3876 -0.1034
  144SOL     OW  573   0.199   1.239   1.528  0.2816  0.1784 -0.3182
  144SOL    HW1  574   0.292   1.230   1.527 -1.0690 -1.2400  0.5626
  144SOL    HW2  575   0.188   1.239   1.626 -0.4038  1.2157 -0.0088
  144SOL     MW  576   0.210   1.238   1.541  0.0130  0.1281 -0.1612
  145SOL     OW  577   0.290   0.396   1.061  0.3018 -0.1338  0.5998
  145SOL    HW1  578   0.294   0.337   1.141 -2.2427  0.4102 -1.3616
  145SOL    HW2  579   0.222   0.354   0.996 -3.0097 -0.8865 -1.9366
  145SOL     MW  580   0.282   0.382   1.063 -0.4708 -0.1614  0.0064
  146SOL     OW  581   0.849   1.959   1.351  0.2191  0.0136 -0.7581
  146SOL    HW1  582   0.883   1.970   1.256 -1.0367 -0.0204  1.0255
  146SOL    HW2  583   0.749   1.958   1.345  2.6251  1.4626  3.4939
  146SOL     MW  584   0.840   1.960   1.338  0.3709  0.2003  0.0382
  147SOL     OW  585   0.381   0.395   2.994  0.2803  0.0649  0.2666
  147SOL    HW1  586   0.306   0.427   3.045  0.2127  0.3813  1.9190
  147SOL    HW2  587   0.363   0.442   2.911 -1.9494 -0.7728  1.8614
  147SOL     MW  588   0.369   0.405   2.989 -0.0228 -0.0039  0.6950
  148SOL     OW  589   0.100   0.890   1.318 -0.1302  0.2792 -0.4114
  148SOL    HW1  590   0.188   0.911   1.313 -1.6200 -0.6075 -0.9586
  148SOL    HW2  591   0.083   0.909   1.414 -0.2608  0.0276  0.3061
  148SOL     MW  592   0.109   0.895   1.330 -0.3440  0.1290 -0.3890
  149SOL     OW  593   1.378   1.166   1.368 -0.3540  0.5806 -0.9755
  149SOL    HW1  594   1.344   1.127   1.454  2.5634 -1.5648 -1.4571
  149SOL    HW2  595   1.446   1.224   1.401 -1.5764  1.5806  2.0681
  149SOL     MW  596   1.383   1.168   1.384 -0.1303  0.4295 -0.6375
  150SOL     OW  597   1.858   1.378   0.731  0.1486  0.6460  0.0012
  150SOL    HW1  598   1.892   1.289   0.736 -0.4314 -1.0192 -0.4627
  150SOL    HW2  599   1.916   1.425   0.795  2.6377 -1.0562  1.4012
  150SOL     MW  600   1.871   1.372   0.740  0.4005  0.2017  0.1247
  151SOL     OW  601   1.636   1.860   0.839 -0.4574 -0.2239  0.3458
  151SOL    HW1  602   1.592   1.863   0.753  1.2576 -1.6194 -1.3553
  151SOL    HW2  603   1.587   1.792   0.874  1.6905 -3.3015  2.2381
  151SOL     MW  604   1.624   1.851   0.832  0.0522 -0.8141  0.3710
  152SOL     OW  605   0.729   1.336   1.471  0.0330  0.5410  0.3934
  152SOL    HW1  606   0.724   1.272   1.538  1.4595  2.2921  1.0221
  152SOL    HW2  607   0.823   1.354   1.476 -1.1123  0.1874  2.9465
  152SOL     MW  608   0.740   1.330   1.480  0.0701  0.7254  0.8132
  153SOL     OW  609   2.637   1.256   0.757 -0.2674 -0.3733 -0.4660
  153SOL    HW1  610   2.694   1.184   0.715  0.2259 -0.7016  1.7911
  153SOL    HW2  611   2.566   1.194   0.767 -0.4386  0.5622  2.3853
  153SOL     MW  612   2.635   1.238   0.753 -0.2249 -0.2932  0.2080
  154SOL     OW  613   0.388   1.746   1.734 -0.1528  0.1441 -0.0444
  154SOL    HW1  614   0.370   1.725   1.643 -0.9082 -2.5555 -0.5699
  154SOL    HW2  615   0.371   1.668   1.785 -0.3621  3.5988  1.8189
  154SOL     MW  616   0.383   1.733   1.729 -0.2801  0.2437  0.1321
  155SOL     OW  617   1.168   0.691   0.303  0.4698  0.3074  0.2382
  155SOL    HW1  618   1.148   0.646   0.392 -1.5558  0.4976  1.0913
  155SOL    HW2  619   1.119   0.770   0.308  0.5542 -0.0867  0.0863
  155SOL     MW  620   1.159   0.695   0.315  0.2137  0.2805  0.3307
  156SOL     OW  621   1.596   3.009   1.042 -0.2492  0.3077 -0.6813
  156SOL    HW1  622   1.612   3.088   1.096 -0.5636 -1.4659 -1.6340
  156SOL    HW2  623   1.577   2.942   1.103  1.4486  0.9845  1.1034
  156SOL     MW  624   1.595   3.010   1.057 -0.0666  0.1630 -0.5715
  157SOL     OW  625   1.419   1.140   0.123  0.2461 -0.0232 -0.0232
  157SOL    HW1  626   1.450   1.065   0.163  1.0773  2.6215  0.2504
  157SOL    HW2  627   1.494   1.191   0.105  0.4468 -1.6164  0.1323
  157SOL     MW  628   1.433   1.137   0.126  0.3823  0.1156  0.0334
  158SOL     OW  629   0.440   1.631   2.228  0.2587 -0.4977 -0.2401
  158SOL    HW1  630   0.435   1.671   2.144 -0.4348  0.5904 -0.1973
  158SOL    HW2  631   0.350   1.625   2.264 -1.4909 -1.6322 -0.9683
  158SOL     MW  632   0.428   1.636   2.221 -0.0636 -0.5038 -0.3305
  159SOL     OW  633   1.273   1.728   0.420 -0.4962  0.4278  0.1023
  159SOL    HW1  634   1.243   1.650   0.372 -1.1025  0.2677 -0.9785
  159SOL    HW2  635   1.196   1.746   0.486 -1.9065 -2.1655 -2.1332
  159SOL     MW  636   1.259   1.720   0.422 -0.7623  0.0645 -0.3353
  160SOL     OW  637   0.472   1.150   1.585  0.5551  0.1178  0.3463
  160SOL    HW1  638   0.480   1.059   1.600 -0.4369  0.3713  1.0688
  160SOL    HW2  639   0.489   1.187   1.668  1.9101  2.1736  1.3041
  160SOL     MW  640   0.475   1.143   1.598  0.6030  0.4225  0.5680
  161SOL     OW  641   0.514   2.174   2.574 -0.2941 -0.4932 -0.8261
  161SOL    HW1  642   0.429   2.181   2.534  0.1182  1.0625  1.2724
  161SOL    HW2  643   0.578   2.158   2.502  1.8983  3.0552 -0.0439
  161SOL     MW  644   0.511   2.173   2.559  0.0496  0.1802 -0.4460
  162SOL     OW  645   1.061   1.768   1.827 -0.1136 -0.0172  0.6427
  162SOL    HW1  646   1.075   1.860   1.858  0.9033  2.1519  3.3432
  162SOL    HW2  647   0.975   1.744   1.860  2.1983  2.5593  0.8636
  162SOL     MW  648   1.051   1.777   1.835  0.3256  0.6089  1.0282
  163SOL     OW  649   2.100   0.068   0.980 -0.0220  0.3204  0.4425
  163SOL    HW1  650   2.102   0.079   0.889  2.5424 -2.4469 -0.0180
  163SOL    HW2  651   2.012   0.042   1.000  1.9612  0.1260  1.6912
  163SOL     MW  652   2.088   0.066   0.971  0.5780 -0.0704  0.5465
  164SOL     OW  653   0.339   0.209   0.794  0.3527 -0.1916  0.3437
  164SOL    HW1  654   0.247   0.221   0.811  1.0483 -0.9492  0.4709
  164SOL    HW2  655   0.354   0.123   0.755  0.6783 -0.7969 -1.8968
  164SOL     MW  656   0.329   0.199   0.791  0.4875 -0.3714  0.0649
  165SOL     OW  657   1.327   1.244   0.368 -0.1743 -0.3646 -0.2397
  165SOL    HW1  658   1.280   1.165   0.386  2.5793  0.7903  2.2472
  165SOL    HW2  659   1.356   1.223   0.277  3.2189 -0.6149 -2.9155
  165SOL     MW  660   1.325   1.231   0.359  0.6367 -0.2452 -0.2646
  166SOL     OW  661   0.511   1.072   0.982  0.2373  0.3035  0.2388
  166SOL    HW1  662   0.470   0.993   1.013  0.1117  0.4617  1.0283
  166SOL    HW2  663   0.607   1.056   0.988  0.2290  2.5044 -0.9404
  166SOL     MW  664   0.518   1.059   0.987  0.2196  0.6148  0.1874
  167SOL     OW  665   0.802   1.085   0.236 -0.1339 -0.5870  0.0569
  167SOL    HW1  666   0.710   1.112   0.243  2.6473 -2.2969 -0.1713
  167SOL    HW2  667   0.829   1.128   0.150 -0.5148  1.1195 -0.4017
  167SOL     MW  668   0.794   1.094   0.226  0.1828 -0.5875 -0.0337
  168SOL     OW  669   1.646   1.674   2.929 -0.0234 -0.5257  0.3110
  168SOL    HW1  670   1.555   1.653   2.950  0.3315 -0.1208 -0.0084
  168SOL    HW2  671   1.697   1.591   2.949  0.8187  2.0733  0.2901
  168SOL     MW  672   1.641   1.660   2.934  0.1346 -0.1293  0.2661
  169SOL     OW  673   0.376   0.956   1.328  0.0651 -0.5187  0.6264
  169SOL    HW1  674   0.425   0.920   1.401  1.9447  0.0901  2.2949
  169SOL    HW2  675   0.414   1.050   1.318 -0.7987  0.6209 -0.5928
  169SOL     MW  676   0.387   0.964   1.337  0.1991 -0.2880  0.6857
  170SOL     OW  677   0.992   1.443   1.499 -0.3004  0.1082 -0.2272
  170SOL    HW1  678   0.955   1.536   1.503  2.2984  1.1741  0.1631
  170SOL    HW2  679   1.029   1.435   1.403 -1.1197 -0.2903  1.2004
  170SOL     MW  680   0.992   1.455   1.486 -0.0656  0.1963  0.0127
  171SOL     OW  681   0.589   1.441   0.649 -0.2139 -0.3868  0.0780
  171SOL    HW1  682   0.567   1.420   0.745 -1.7732 -0.3416 -0.0801
  171SOL    HW2  683   0.575   1.359   0.600  0.2620  0.5327 -0.7183
  171SOL     MW  684   0.584   1.427   0.655 -0.3569 -0.2595 -0.0479
  172SOL     OW  685   0.838   0.303   1.286 -0.4079 -0.3429  0.3035
  172SOL    HW1  686   0.855   0.331   1.193  0.7438 -0.2184 -0.9157
  172SOL    HW2  687   0.756   0.348   1.313  0.0244 -0.9058  1.6160
  172SOL     MW  688   0.830   0.312   1.277 -0.1989 -0.4007  0.3158
  173SOL     OW  689   0.460   1.650   0.384 -0.5814 -0.0149 -0.4104
  173SOL    HW1  690   0.460   1.552   0.358  3.5326  1.7172 -2.3840
  173SOL    HW2  691   0.518   1.658   0.460 -1.8473 -1.1418  1.3631
  173SOL     MW  692   0.468   1.638   0.391 -0.2056  0.0650 -0.4368
  174SOL     OW  693   1.907   0.989   1.487 -0.4655  0.0291 -0.1075
  174SOL    HW1  694   1.864   0.902   1.515 -2.8550 -2.7566  2.4035
  174SOL    HW2  695   1.884   1.014   1.395  0.1782  1.8717  1.5693
  174SOL     MW  696   1.898   0.981   1.478 -0.6958 -0.0954  0.4450
  175SOL     OW  697   0.466   1.376   0.337  0.0260  0.1236  0.4065
  175SOL    HW1  698   0.439   1.356   0.250 -2.2407  1.0068  1.3162
  175SOL    HW2  699   0.566   1.382   0.340  3.7285 -0.8143  0.9454
  175SOL     MW  700   0.476   1.374   0.326  0.2154  0.1164  0.5977
  176SOL     OW  701   0.190   1.360   1.235  0.4336  0.0079 -0.3416
  176SOL    HW1  702   0.146   1.327   1.158  2.5281  2.3294 -1.5334
  176SOL    HW2  703   0.150   1.309   1.309  1.0445 -0.8752  2.7366
  176SOL     MW  704   0.179   1.349   1.235  0.7906  0.1977 -0.0927
  177SOL     OW  705   0.567   0.338   1.333  0.5408  0.6255 -0.0550
  177SOL    HW1  706   0.543   0.419   1.276 -0.0475  0.2403  1.6965
  177SOL    HW2  707   0.576   0.376   1.421 -1.3955 -0.8382 -2.2939
  177SOL     MW  708   0.565   0.354   1.337  0.2077  0.3815 -0.1193
  178SOL     OW  709   3.057   0.394   2.889  0.3563  0.4873 -0.2458
  178SOL    HW1  710   3.018   0.437   2.966 -0.0977 -1.7768 -2.0857
  178SOL    HW2  711   2.981   0.391   2.825 -2.8399 -2.7081  2.1199
  178SOL     MW  712   3.042   0.400   2.891 -0.1253 -0.2331 -0.1764
  179SOL     OW  713   1.586   1.360   1.422 -0.1377 -0.2871 -0.5405
  179SOL    HW1  714   1.611   1.382   1.512 -0.0178  0.0242 -0.1731
  179SOL    HW2  715   1.669   1.359   1.375 -2.0911 -1.5477  0.4915
  179SOL     MW  716   1.600   1.363   1.428 -0.3796 -0.4124 -0.3558
  180SOL     OW  717   2.979   0.200   0.462  0.3232 -0.1010  0.0206
  180SOL    HW1  718   2.938   0.174   0.375  1.6131 -0.7551 -2.0530
  180SOL    HW2  719   3.044   0.268   0.432  1.9508 -1.5623  3.0041
  180SOL     MW  720   2.982   0.205   0.447  0.7081 -0.3801  0.1407
  181SOL     OW  721   1.165   1.353   3.046  0.0130 -0.7376  0.0611
  181SOL    HW1  722   1.233   1.413   3.080  1.9518  1.9119 -2.0867
  181SOL    HW2  723   1.211   1.267   3.040 -1.2872 -0.2453  0.2065
  181SOL     MW  724   1.180   1.349   3.050  0.0973 -0.3231 -0.2031
  182SOL     OW  725   0.506   0.875   1.668  0.5213  0.4329 -0.2803
  182SOL    HW1  726   0.422   0.869   1.718 -0.0268 -0.7459  0.4240
  182SOL    HW2  727   0.562   0.811   1.707 -1.4727  0.4112  0.2081
  182SOL     MW  728   0.502   0.866   1.679  0.1859  0.2745 -0.1229
  183SOL     OW  729   1.505   1.520   1.226  0.2571  0.7721 -0.5069
  183SOL    HW1  730   1.433   1.562   1.272 -1.3670 -0.2464 -1.1570
  183SOL    HW2  731   1.540   1.463   1.303  0.3804 -1.2399  1.8355
  183SOL     MW  732   1.500   1.518   1.242  0.0591  0.3723 -0.2836
  184SOL     OW  733   0.888   0.616   1.968 -0.3542  0.0871  0.4879
  184SOL    HW1  734   0.962   0.591   1.911  0.5499 -0.5918  2.3306
  184SOL    HW2  735   0.865   0.527   2.003 -3.7161 -2.3776 -1.2342
  184SOL     MW  736   0.894   0.601   1.965 -0.6785 -0.3277  0.5038
  185SOL     OW  737   1.181   0.957   1.940  0.3642 -0.2997 -0.0891
  185SOL    HW1  738   1.217   0.889   1.999  4.4872  0.3092  0.1452
  185SOL    HW2  739   1.218   1.040   1.966  2.0725  3.1391 -2.9753
  185SOL     MW  740   1.190   0.959   1.951  1.1336  0.2343 -0.4389
  186SOL     OW  741   0.409   1.640   1.425 -0.6649  0.2754  0.3542
  186SOL    HW1  742   0.464   1.612   1.352 -2.2114 -2.9481 -0.7868
  186SOL    HW2  743   0.316   1.634   1.390  0.2115  3.7195  0.9601
  186SOL     MW  744   0.404   1.635   1.410 -0.7533  0.3045  0.2836
  187SOL     OW  745   1.437   0.745   1.435 -0.1838 -0.4960 -0.2115
  187SOL    HW1  746   1.449   0.711   1.524  1.2201 -1.4747 -1.5194
  187SOL    HW2  747   1.344   0.730   1.410  0.5146 -1.3208  0.0502
  187SOL     MW  748   1.426   0.738   1.444  0.0935 -0.7340 -0.3495
  188SOL     OW  749   1.916   1.119   0.815  0.6098  0.4490  0.5860
  188SOL    HW1  750   1.903   1.118   0.905 -0.1525  1.1160 -1.5021
  188SOL    HW2  751   1.996   1.071   0.793 -0.7170 -1.1987 -0.2520
  188SOL     MW  752   1.925   1.113   0.824  0.3342  0.3196  0.2000
  189SOL     OW  753   0.726   0.785   0.798 -0.3881  0.7599  0.0299
  189SOL    HW1  754   0.654   0.836   0.755  0.5246 -0.5324 -1.6896
  189SOL    HW2  755   0.748   0.835   0.872  1.2199 -0.4926  0.0280
  189SOL     MW  756   0.719   0.798   0.802 -0.0555  0.4241 -0.1972
  190SOL     OW  757   1.857   0.205   2.024  0.1127  0.8395 -0.2061
  190SOL    HW1  758   1.797   0.132   2.047 -1.6396  0.9970  3.6660
  190SOL    HW2  759   1.943   0.169   2.021 -0.9829 -1.1472  0.1408
  190SOL     MW  760   1.860   0.190   2.027 -0.2631  0.5982  0.3505
  191SOL     OW  761   1.468   0.956   1.234  0.6038 -0.7098 -0.2620
  191SOL    HW1  762   1.432   1.033   1.284  2.6819  2.7973 -3.4122
  191SOL    HW2  763   1.481   0.885   1.296 -0.3313  1.2671  2.3597
  191SOL     MW  764   1.465   0.957   1.249  0.7546  0.0138 -0.3317
  192SOL     OW  765   0.598   2.037   2.821 -0.3675  0.2025 -0.1632
  192SOL    HW1  766   0.564   2.073   2.745  1.4318 -1.0043  3.5441
  192SOL    HW2  767   0.590   1.941   2.813  0.2009 -1.1273  0.5820
  192SOL     MW  768   0.593   2.029   2.810 -0.0551 -0.1322  0.4243
  193SOL     OW  769   1.029   1.584   0.729  0.8310 -0.2245  0.6154
  193SOL    HW1  770   0.988   1.640   0.796 -3.5602  3.3235  0.6418
  193SOL    HW2  771   0.960   1.512   0.727 -0.4734  2.1447  1.0547
  193SOL     MW  772   1.015   1.582   0.737  0.0795  0.5562  0.6768
  194SOL     OW  773   0.496   1.352   0.915 -0.1014  0.2591  0.1212
  194SOL    HW1  774   0.523   1.258   0.923 -1.4672  2.3740 -1.1168
  194SOL    HW2  775   0.399   1.352   0.890 -0.1667 -2.2920 -1.0284
  194SOL     MW  776   0.487   1.340   0.913 -0.2902  0.2015 -0.1938
  195SOL     OW  777   1.301   1.123   2.965 -0.2597  0.4389  0.4152
  195SOL    HW1  778   1.322   1.109   3.054 -0.2761  1.0410 -2.6446
  195SOL    HW2  779   1.213   1.084   2.959 -3.2482  1.8983  0.6511
  195SOL     MW  780   1.292   1.116   2.976 -0.6562  0.7109  0.0426
  196SOL     OW  781   2.179   1.044   0.635 -0.3240  0.6749 -0.2312
  196SOL    HW1  782   2.116   1.014   0.568 -1.0132  0.4726  1.2740
  196SOL    HW2  783   2.179   1.140   0.631  2.5616  0.4457  0.4103
  196SOL     MW  784   2.170   1.053   0.626 -0.0342  0.6179  0.0520
  197SOL     OW  785   0.698   1.266   2.024 -0.1093  0.0540 -0.3117
  197SOL    HW1  786   0.727   1.179   2.011 -2.1513 -3.5366 -0.9082
  197SOL    HW2  787   0.658   1.291   1.940 -0.9471  0.1448 -1.2293
  197SOL     MW  788   0.697   1.258   2.011 -0.4892 -0.4078 -0.5115
  198SOL     OW  789   2.966   1.428   1.065  0.3801  0.0145  0.4732
  198SOL    HW1  790   2.943   1.521   1.056 -0.0284  0.4062  0.0814
  198SOL    HW2  791   2.882   1.378   1.063 -2.4595  0.5700 -1.2946
  198SOL     MW  792   2.952   1.434   1.064 -0.0485  0.1395  0.1883
  199SOL     OW  793   0.535   1.338   1.817  0.1524 -0.1850  0.3111
  199SOL    HW1  794   0.446   1.305   1.797 -0.4462 -0.5725  0.7269
  199SOL    HW2  795   0.562   1.388   1.737  1.1385  0.3173 -0.2771
  199SOL     MW  796   0.527   1.340   1.804  0.2036 -0.1699  0.2884
  200SOL     OW  797   1.888   3.080   1.335  0.0465  0.1852  0.2870
  200SOL    HW1  798   1.864   3.067   1.242 -2.4002  1.0590 -1.7203
  200SOL    HW2  799   1.803   3.099   1.380 -1.4180 -0.0041 -2.3170
  200SOL     MW  800   1.873   3.081   1.329 -0.4695  0.2755 -0.3214
  201SOL     OW  801   0.981   0.235   0.826 -0.3956 -0.2999  0.0455
  201SOL    HW1  802   0.969   0.147   0.788 -0.8056  0.6987 -0.3036
  201SOL    HW2  803   1.003   0.287   0.745 -1.2103  2.6219 -2.5582
  201SOL     MW  804   0.982   0.230   0.811 -0.5572  0.2173 -0.3441
  202SOL     OW  805   1.513   1.632   0.973  0.1805 -0.3764 -0.5797
  202SOL    HW1  806   1.533   1.559   0.915 -1.6835  0.0465  0.4785
  202SOL    HW2  807   1.559   1.612   1.057  0.2063  3.4916  1.7238
  202SOL     MW  808   1.522   1.620   0.976 -0.0620  0.1897 -0.1361
  203SOL     OW  809  -0.005   0.454   1.152 -0.0012  0.6383  0.1303
  203SOL    HW1  810   0.050   0.404   1.089  0.5057 -2.3726 -0.2062
  203SOL    HW2  811   0.053   0.502   1.210 -1.0084  0.2279 -0.3869
  203SOL     MW  812   0.010   0.453   1.151 -0.0672  0.1869  0.0177
  204SOL     OW  813   1.064   1.802   0.575  0.0395 -0.0222  0.3400
  204SOL    HW1  814   1.056   1.728   0.641 -1.2956 -1.5838  0.9410
  204SOL    HW2  815   0.980   1.785   0.528 -0.6610  0.6692 -1.6556
  204SOL     MW  816   1.052   1.790   0.578 -0.2291 -0.1370  0.1560
  205SOL     OW  817   1.357   0.103   1.340 -0.0738  0.0948  0.0208
  205SOL    HW1  818   1.277   0.084   1.287 -0.9042  0.0207  2.9638
  205SOL    HW2  819   1.370   0.200   1.319 -1.8915  0.5293  1.6737
  205SOL     MW  820   1.348   0.113   1.330 -0.4232  0.1424  0.6272
  206SOL     OW  821   0.420   3.063   1.407 -0.0480 -0.3201 -0.4395
  206SOL    HW1  822   0.345   3.047   1.353  1.0304 -2.3624  3.1101
  206SOL    HW2  823   0.473   2.975   1.398  0.3006  2.6105 -1.0645
  206SOL     MW  824   0.417   3.049   1.399  0.1403 -0.2029 -0.0536
  207SOL     OW  825   0.960   1.521   0.216  0.3021 -0.1997 -0.0398
  207SOL    HW1  826   0.970   1.613   0.204 -0.7513  0.6385  0.9319
  207SOL    HW2  827   1.047   1.490   0.222  2.3089 -1.0292 -1.1823
  207SOL     MW  828   0.973   1.529   0.215  0.4279 -0.1985 -0.0623
  208SOL     OW  829   0.671   1.620   1.338  0.0013  0.2493 -0.2293
  208SOL    HW1  830   0.738   1.650   1.406 -1.7142 -1.8058  1.5472
  208SOL    HW2  831   0.718   1.549   1.297  1.7776  0.2591 -0.7033
  208SOL     MW  832   0.686   1.615   1.341  0.0093 -0.0206 -0.0575
  209SOL     OW  833   1.585   0.532   2.875  0.1524 -0.5055  0.3234
  209SOL    HW1  834   1.645   0.591   2.917 -0.7517  1.1845  1.3319
  209SOL    HW2  835   1.626   0.445   2.872 -1.5095  3.7021  0.1816
  209SOL     MW  836   1.598   0.528   2.880 -0.1861  0.2726  0.4378
  210SOL     OW  837   1.602   1.402   0.829 -0.6982 -0.3769 -0.1415
  210SOL    HW1  838   1.690   1.407   0.791  1.6547  0.4669 -0.4841
  210SOL    HW2  839   1.547   1.379   0.754 -2.3442 -1.5635  0.3686
  210SOL     MW  840   1.606   1.400   0.814 -0.6049 -0.4221 -0.1194
  211SOL     OW  841   1.644   0.404   0.972 -0.4271 -0.1685  0.1821
  211SOL    HW1  842   1.642   0.401   0.874 -0.0303 -0.7448 -2.2953
  211SOL    HW2  843   1.740   0.426   0.986 -1.0235  0.4729  0.4946
  211SOL     MW  844   1.657   0.406   0.961 -0.4534 -0.1599 -0.1036
  212SOL     OW  845   0.231   1.126   0.117 -0.7240 -0.1041 -0.1161
  212SOL    HW1  846   0.175   1.089   0.187 -1.3743 -1.4932  0.5303
  212SOL    HW2  847   0.243   1.047   0.064 -0.8869  0.7178 -1.5777
  212SOL     MW  848   0.225   1.110   0.119 -0.8313 -0.1789 -0.2236
  213SOL     OW  849   0.432   1.728   3.026  0.2585 -0.8266 -0.1478
  213SOL    HW1  850   0.472   1.750   3.114 -1.7966 -1.1865  1.1924
  213SOL    HW2  851   0.487   1.774   2.959  1.4903  1.8260 -1.1558
  213SOL     MW  852   0.444   1.737   3.029  0.1499 -0.5241 -0.1040
  214SOL     OW  853   0.600   0.297   2.223  0.0635 -0.2585  0.2841
  214SOL    HW1  854   0.532   0.361   2.200  0.6464  2.4408 -0.0599
  214SOL    HW2  855   0.654   0.278   2.141  3.0775 -1.8526 -2.7459
  214SOL     MW  856   0.598   0.303   2.209  0.5381 -0.1127 -0.1610
  215SOL     OW  857   0.489   0.650   2.646  0.1885 -0.3251  0.2954
  215SOL    HW1  858   0.471   0.620   2.559  2.0783  1.2005  1.0746
  215SOL    HW2  859   0.422   0.625   2.705  1.5143  2.3858  1.3635
  215SOL     MW  860   0.478   0.643   2.642  0.6127  0.2339  0.5391
  216SOL     OW  861   3.022   3.087   2.664 -0.9129 -0.4206 -0.3999
  216SOL    HW1  862   2.989   3.077   2.754  0.0107  0.4945  1.1282
  216SOL    HW2  863   2.986   3.175   2.635 -0.6153  4.1111  0.5869
  216SOL     MW  864   3.013   3.097   2.672 -0.7518  0.2980 -0.0681
  217SOL     OW  865   0.908   1.230   0.032 -0.0263 -0.4837  0.2398
  217SOL    HW1  866   0.962   1.158   0.005 -0.4240  1.9716  0.3169
  217SOL    HW2  867   0.959   1.275   0.097  0.5701 -0.2978 -3.1302
  217SOL     MW  868   0.922   1.226   0.037 -0.0000 -0.1352 -0.1946
  218SOL     OW  869   0.894   1.306   2.551 -0.0550  0.2316  0.0255
  218SOL    HW1  870   0.932   1.234   2.598  1.1198  2.1502  0.5232
  218SOL    HW2  871   0.971   1.364   2.546 -0.2136 -2.6290 -0.3146
  218SOL     MW  872   0.909   1.304   2.556  0.0791  0.1073  0.0463
  219SOL     OW  873   1.087   0.482   2.577 -0.0606  0.5617  0.6992
  219SOL    HW1  874   1.167   0.529   2.595  0.9476 -0.7042  0.1261
  219SOL    HW2  875   1.022   0.542   2.544 -0.0979 -0.1562 -2.7401
  219SOL     MW  876   1.089   0.496   2.575  0.0675  0.3000  0.1698
  220SOL     OW  877   1.796   0.422   2.205  0.2906  0.2660 -0.0264
  220SOL    HW1  878   1.746   0.464   2.134 -1.3269  0.9673  1.0875
  220SOL    HW2  879   1.855   0.359   2.166  0.3919  1.7783  3.0337
  220SOL     MW  880   1.797   0.419   2.190  0.0906  0.5581  0.5243
  221SOL     OW  881   0.380   1.358   2.902 -0.2834  0.1997  0.1927
  221SOL    HW1  882   0.417   1.268   2.883  2.7149  0.9142 -0.9346
  221SOL    HW2  883   0.403   1.403   2.821  1.8685 -2.0421  0.5432
  221SOL     MW  884   0.388   1.352   2.889  0.3961 -0.0018  0.0902
  222SOL     OW  885   0.320   0.898   2.647  0.0271  0.3192  0.4417
  222SOL    HW1  886   0.299   0.925   2.557  2.7352 -0.7211  2.3351
  222SOL    HW2  887   0.380   0.824   2.637  0.1568  0.5058  0.5266
  222SOL     MW  888   0.325   0.892   2.634  0.4015  0.2066  0.7027
  223SOL     OW  889   0.049   2.081   2.613 -0.3031 -0.3901  0.2687
  223SOL    HW1  890   0.087   1.991   2.620  1.7775  0.4414 -1.7382
  223SOL    HW2  891   0.119   2.114   2.558  0.7953 -0.9787  1.9247
  223SOL     MW  892   0.063   2.074   2.606  0.1164 -0.3581  0.2224
  224SOL     OW  893   1.509   0.793   2.615  0.1364  0.1728  0.0785
  224SOL    HW1  894   1.517   0.852   2.692  1.3035  2.8922  1.8372
  224SOL    HW2  895   1.488   0.852   2.545  0.5631  0.8189 -0.7947
  224SOL     MW  896   1.508   0.809   2.616  0.3467  0.6168  0.1954
  225SOL     OW  897   2.984   1.519   2.316 -0.1551 -0.2577  0.3189
  225SOL    HW1  898   3.019   1.606   2.313 -1.0650 -0.8057 -2.0922
  225SOL    HW2  899   2.906   1.532   2.374 -0.7385  0.6475 -0.6120
  225SOL     MW  900   2.978   1.532   2.324 -0.3521 -0.2106 -0.1220
  226SOL     OW  901   0.441   1.417   2.614  0.6831  0.1551  0.2713
  226SOL    HW1  902   0.533   1.436   2.584  3.8475 -0.4305 -1.5116
  226SOL    HW2  903   0.394   1.502   2.600  0.1159 -1.5140 -0.4361
  226SOL     MW  904   0.447   1.431   2.608  1.0258 -0.1424 -0.0572
  227SOL     OW  905   0.431   1.079   2.847 -0.1580  0.0836  0.4094
  227SOL    HW1  906   0.528   1.104   2.821 -3.0483  1.9903 -2.2541
  227SOL    HW2  907   0.395   1.033   2.773  3.9768  1.0518  2.9859
  227SOL     MW  908   0.439   1.076   2.834  0.0062  0.4629  0.3979
  228SOL     OW  909   0.720   0.987   2.043  0.7203 -0.1572  0.4386
  228SOL    HW1  910   0.810   0.991   2.016 -1.3481  2.0998 -0.0356
  228SOL    HW2  911   0.729   0.937   2.125  1.9209 -0.3573  1.9959
  228SOL     MW  912   0.733   0.981   2.050  0.6058  0.1142  0.5815
  229SOL     OW  913   0.141   0.579   0.002 -0.1170  0.2586  0.8074
  229SOL    HW1  914   0.051   0.562  -0.033  1.4395  1.6089 -1.3972
  229SOL    HW2  915   0.148   0.522   0.078  2.9860  1.3875 -2.0150
  229SOL     MW  916   0.130   0.569   0.008  0.4978  0.5857  0.1442
  230SOL     OW  917   1.763   1.411   2.026  0.0818 -0.2059 -0.0880
  230SOL    HW1  918   1.706   1.395   2.101 -0.0997 -1.4079  0.1517
  230SOL    HW2  919   1.829   1.343   2.023 -0.3698 -0.6672 -0.2783
  230SOL     MW  920   1.764   1.400   2.035 -0.0017 -0.4253 -0.0815
  231SOL     OW  921   2.758   1.333   2.235  0.0484  0.0712  0.0454
  231SOL    HW1  922   2.822   1.408   2.242  2.0543 -1.9160 -1.5524
  231SOL    HW2  923   2.693   1.368   2.170 -0.0565  0.3512 -3.3366
  231SOL     MW  924   2.758   1.348   2.227  0.2992 -0.1541 -0.6116
  232SOL     OW  925   2.254   0.822   2.155  0.0242 -0.5793 -0.6211
  232SOL    HW1  926   2.188   0.867   2.104  1.6768 -1.9945  0.8358
  232SOL    HW2  927   2.249   0.851   2.250 -1.5994 -0.4914 -0.7717
  232SOL     MW  928   2.244   0.832   2.161  0.0280 -0.7544 -0.4487
  233SOL     OW  929   2.053   0.511   1.975  0.4886 -0.4185 -0.0844
  233SOL    HW1  930   2.069   0.422   1.943  0.4081 -2.8545  1.4229
  233SOL    HW2  931   2.108   0.504   2.051 -2.3124 -2.4433  0.0049
  233SOL     MW  932   2.062   0.498   1.981  0.1084 -1.0071  0.1263
  234SOL     OW  933   0.273   1.006   2.378  0.1998 -0.3843  0.4490
  234SOL    HW1  934   0.182   1.033   2.366 -0.7203  1.8064 -1.2177
  234SOL    HW2  935   0.316   1.090   2.408 -0.2302  0.7088  1.5975
  234SOL     MW  936   0.267   1.021   2.380  0.0217  0.0490  0.3806
  235SOL     OW  937   1.138   3.072   2.712  1.0964  0.4645  0.2317
  235SOL    HW1  938   1.150   3.025   2.794  0.2091 -1.1911  1.1594
  235SOL    HW2  939   1.098   3.158   2.744 -1.6320  1.5658 -0.2423
  235SOL     MW  940   1.134   3.077   2.727  0.6193  0.3913  0.2915
  236SOL     OW  941   2.937   0.517   0.009 -0.0002 -0.1131 -0.0631
  236SOL    HW1  942   2.844   0.521  -0.029 -0.8525  1.0097 -0.9834
  236SOL    HW2  943   2.959   0.610   0.027  1.8436 -0.7957 -1.1203
  236SOL     MW  944   2.928   0.530   0.006  0.1306 -0.0550 -0.3240
  237SOL     OW  945   1.917   1.009   2.174  0.6081  0.5170  0.4576
  237SOL    HW1  946   1.904   1.079   2.112  0.5516  0.0448 -3.4446
  237SOL    HW2  947   1.893   1.028   2.264 -0.9455  1.6742  0.7333
  237SOL     MW  948   1.912   1.021   2.178  0.3956  0.6074 -0.0209
  238SOL     OW  949   1.084   1.785   3.027  0.0202 -0.4008 -0.1834
  238SOL    HW1  950   1.029   1.701   3.011 -1.1224  0.5963  0.5068
  238SOL    HW2  951   1.171   1.743   3.031  1.2986 -0.5465 -1.5060
  238SOL     MW  952   1.088   1.768   3.026  0.0381 -0.2885 -0.2669
  239SOL     OW  953   1.275   1.379   2.352  0.0431 -0.4092 -0.2517
  239SOL    HW1  954   1.237   1.445   2.410 -0.1761  0.1380  2.6807
  239SOL    HW2  955   1.248   1.297   2.406 -1.6232 -0.7860  2.0343
  239SOL     MW  956   1.266   1.377   2.367 -0.2057 -0.3867  0.4368
  240SOL     OW  957   0.740   0.825   2.262  0.0583 -0.1563  0.3912
  240SOL    HW1  958   0.740   0.890   2.335  0.8641 -0.3579 -0.2601
  240SOL    HW2  959   0.838   0.808   2.240  0.0327 -1.3561 -1.4862
  240SOL     MW  960   0.753   0.831   2.269  0.1613 -0.3412  0.0576
  241SOL     OW  961   0.665   0.359   0.005 -0.0231 -0.1464  0.6514
  241SOL    HW1  962   0.704   0.443   0.031 -0.8113 -0.3185 -0.9781
  241SOL    HW2  963   0.572   0.370  -0.021 -0.9038 -0.2626  0.8479
  241SOL     MW  964   0.658   0.372   0.005 -0.2433 -0.1845  0.4623
  242SOL     OW  965   1.500   1.679   2.316  0.2106  0.2094  0.3161
  242SOL    HW1  966   1.449   1.764   2.327 -1.2058 -0.9430  0.1726
  242SOL    HW2  967   1.443   1.630   2.254 -0.8498  1.6856  2.2787
  242SOL     MW  968   1.486   1.684   2.309 -0.1162  0.2521  0.5561
  243SOL     OW  969   1.028   0.246   2.428  0.1486  0.3775  0.0080
  243SOL    HW1  970   1.118   0.235   2.404  0.7572 -3.1736  0.6918
  243SOL    HW2  971   1.027   0.310   2.498 -0.1947 -2.3773  1.5392
  243SOL     MW  972   1.040   0.253   2.434  0.1836 -0.4545  0.3002
  244SOL     OW  973   0.257   0.739   2.392 -0.5215 -0.1295 -0.3722
  244SOL    HW1  974   0.266   0.832   2.362  1.0634  0.0624 -0.7176
  244SOL    HW2  975   0.349   0.702   2.389 -0.3571  2.3049  0.3231
  244SOL     MW  976   0.271   0.747   2.387 -0.2907  0.2170 -0.3260
  245SOL     OW  977   1.288   0.236   2.328  0.1735 -0.0133 -0.2061
  245SOL    HW1  978   1.345   0.165   2.308 -2.7646  1.2316 -0.9922
  245SOL    HW2  979   1.333   0.300   2.377  0.8377  0.4401 -2.1897
  245SOL     MW  980   1.301   0.235   2.332 -0.1265  0.2108 -0.5715
  246SOL     OW  981   1.182   1.226   2.144 -0.2347  0.1046  0.1110
  246SOL    HW1  982   1.127   1.155   2.183 -0.3789 -1.0507  0.2059
  246SOL    HW2  983   1.237   1.262   2.222 -0.9040 -0.5954  1.0728
  246SOL     MW  984   1.182   1.221   2.159 -0.3420 -0.1402  0.2504
  247SOL     OW  985   0.770   0.595   0.117  0.1025 -0.0181 -0.1140
  247SOL    HW1  986   0.732   0.681   0.097  0.4475  1.5395 -1.2073
  247SOL    HW2  987   0.863   0.593   0.096  2.0390  2.2963 -1.0312
  247SOL     MW  988   0.777   0.606   0.111  0.4035  0.4928 -0.3793
  248SOL     OW  989   0.464   1.188   2.458  0.2957  0.6518 -0.7553
  248SOL    HW1  990   0.488   1.239   2.379 -1.4863  0.1001  0.9723
  248SOL    HW2  991   0.472   1.255   2.525 -0.0488 -0.6708  0.3965
  248SOL     MW  992   0.468   1.203   2.456  0.0151  0.4045 -0.3754
  249SOL     OW  993   0.156   1.826   2.694 -1.1203  0.0175 -0.1468
  249SOL    HW1  994   0.114   1.751   2.640  2.8961  2.6242 -0.0002
  249SOL    HW2  995   0.151   1.796   2.787 -1.9867 -1.0131  0.7683
  249SOL     MW  996   0.150   1.812   2.699 -0.7047  0.2254 -0.0067
  250SOL     OW  997   2.186   0.867   2.424  0.5652 -0.1642 -0.1681
  250SOL    HW1  998   2.235   0.785   2.457 -0.4548 -2.7752 -0.0513
  250SOL    HW2  999   2.201   0.931   2.490 -1.5905 -1.4212  2.3563
  250SOL     MW 1000   2.194   0.864   2.437  0.1462 -0.6745  0.1804
  251SOL     OW 1001   0.174   0.915   2.052 -0.2552  1.6969  0.1913
  251SOL    HW1 1002   0.131   0.867   2.127  0.2164 -1.5763 -2.0640
  251SOL    HW2 1003   0.184   0.845   1.987 -1.6520 -0.9350 -0.9709
  251SOL     MW 1004   0.170   0.900   2.053 -0.3773  0.9178 -0.2596
  252SOL     OW 1005   1.679   1.004   2.915 -0.0618 -0.0769 -0.0344
  252SOL    HW1 1006   1.707   1.053   2.998  2.1922  0.4492 -0.0665
  252SOL    HW2 1007   1.729   1.040   2.841  2.9322 -3.7583  0.6031
  252SOL     MW 1008   1.689   1.015   2.916  0.6306 -0.4932  0.0455
  253SOL     OW 1009   1.167   1.767   2.566  0.3601  0.4804  0.1473
  253SOL    HW1 1010   1.164   1.788   2.472 -1.3685  1.1225 -1.7659
  253SOL    HW2 1011   1.111   1.828   2.603 -0.9791 -2.1289 -4.1318
  253SOL     MW 1012   1.160   1.778   2.558 -0.0447  0.2209 -0.6697
  254SOL     OW 1013   1.029   1.049   2.256  0.2325  0.0961  0.1210
  254SOL    HW1 1014   1.020   0.955   2.226 -0.8664 -0.8927  2.1417
  254SOL    HW2 1015   0.939   1.094   2.260  1.0040 -1.2680  0.9775
  254SOL     MW 1016   1.016   1.042   2.252  0.1893 -0.2143  0.5006
  255SOL     OW 1017   0.833   2.544   2.212  0.0032  0.3714 -0.5847
  255SOL    HW1 1018   0.767   2.486   2.252  1.5417 -0.1133  1.2235
  255SOL    HW2 1019   0.906   2.556   2.270 -1.8080 -0.6366 -0.0879
  255SOL     MW 1020   0.834   2.538   2.225 -0.0327  0.1744 -0.2806
  256SOL     OW 1021   1.205   2.829   2.839  0.6140 -0.3237 -0.5570
  256SOL    HW1 1022   1.180   2.741   2.808 -4.4309 -3.0530 -0.0500
  256SOL    HW2 1023   1.300   2.837   2.810  1.7916 -0.8336 -0.1356
  256SOL     MW 1024   1.215   2.819   2.831  0.1037 -0.7511 -0.4345
  257SOL     OW 1025   0.117   1.922   0.097 -0.5324  0.2929  0.3291
  257SOL    HW1 1026   0.169   1.892   0.175  1.8269  2.5408 -1.8371
  257SOL    HW2 1027   0.143   1.863   0.026  1.3745 -0.5688  1.0289
  257SOL     MW 1028   0.128   1.910   0.098  0.0305  0.4758  0.1357
  258SOL     OW 1029   0.715   1.005   2.436 -0.0400  0.0717  0.0311
  258SOL    HW1 1030   0.740   1.078   2.381  1.0894  1.7706 -0.0856
  258SOL    HW2 1031   0.643   1.053   2.482  0.1317 -0.6286 -2.4697
  258SOL     MW 1032   0.709   1.021   2.435  0.1317  0.2034 -0.3142
  259SOL     OW 1033   0.740   0.500   2.340 -0.3958 -0.1598  0.1833
  259SOL    HW1 1034   0.660   0.553   2.347  1.3663 -2.0894  2.3261
  259SOL    HW2 1035   0.698   0.413   2.323 -0.5580  0.8318 -1.4148
  259SOL     MW 1036   0.724   0.495   2.339 -0.1847 -0.2836  0.2552
  260SOL     OW 1037   0.581   0.152   1.573 -0.3938 -0.3603  0.3708
  260SOL    HW1 1038   0.531   0.114   1.498  1.7620 -1.7472 -0.8959
  260SOL    HW2 1039   0.668   0.105   1.570  1.8865 -0.7143  1.3925
  260SOL     MW 1040   0.586   0.141   1.562  0.1915 -0.5900  0.3385
  261SOL     OW 1041   1.250   0.707   2.019  0.5765  0.8389 -0.3963
  261SOL    HW1 1042   1.271   0.705   2.114 -0.4724 -1.9081 -1.2537
  261SOL    HW2 1043   1.292   0.620   1.993 -1.5831 -1.3025  0.3526
  261SOL     MW 1044   1.258   0.696   2.028  0.1531  0.1940 -0.4106
  262SOL     OW 1045   1.132   0.271   0.142 -0.5405 -0.0565  0.1275
  262SOL    HW1 1046   1.226   0.273   0.128 -0.2660 -1.2916  1.1103
  262SOL    HW2 1047   1.099   0.208   0.086 -1.1632  1.5938  2.2612
  262SOL     MW 1048   1.140   0.263   0.133 -0.5864 -0.0017  0.5387
  263SOL     OW 1049   0.428   3.051   2.508  0.2587 -0.6051  0.7399
  263SOL    HW1 1050   0.352   3.110   2.522  2.0727  0.1527  3.4932
  263SOL    HW2 1051   0.451   3.070   2.414  1.0219  0.9255  2.4384
  263SOL     MW 1052   0.421   3.061   2.497  0.5987 -0.3032  1.3273
  264SOL     OW 1053   1.521   1.316   1.918  0.4234 -0.1252  0.5130
  264SOL    HW1 1054   1.486   1.263   1.992 -2.7056  0.9033  1.4648
  264SOL    HW2 1055   1.595   1.363   1.956 -0.0361 -2.5525  0.3527
  264SOL     MW 1056   1.526   1.315   1.933 -0.0501 -0.3098  0.6175
  265SOL     OW 1057   0.688   2.773   2.245  0.0773  0.1199  0.5611
  265SOL    HW1 1058   0.731   2.693   2.220 -0.6655  0.9569 -2.7139
  265SOL    HW2 1059   0.712   2.770   2.339 -0.7706 -1.3019 -2.7254
  265SOL     MW 1060   0.697   2.762   2.254 -0.1326  0.0428 -0.3046
  266SOL     OW 1061   0.987   0.793   2.190  0.1861 -0.5006  0.8083
  266SOL    HW1 1062   0.986   0.741   2.108  2.3207  0.1622 -2.1901
  266SOL    HW2 1063   1.060   0.752   2.230 -1.0911  0.0043 -2.3305
  266SOL     MW 1064   0.996   0.781   2.184  0.2992 -0.3465 -0.0015
  267SOL     OW 1065   1.376   1.654   2.718  0.1039  0.1399  0.1520
  267SOL    HW1 1066   1.448   1.648   2.654 -0.2497 -1.3604  3.0867
  267SOL    HW2 1067   1.299   1.675   2.661 -1.6996  0.4915  0.3895
  267SOL     MW 1068   1.375   1.656   2.702 -0.1807 -0.0117  0.5705
  268SOL     OW 1069   0.273   0.813   1.788  0.1094  0.7359 -0.8773
  268SOL    HW1 1070   0.226   0.850   1.706  1.2117 -0.6364 -3.1960
  268SOL    HW2 1071   0.273   0.719   1.776 -0.9599 -0.1525 -0.5770
  268SOL     MW 1072   0.266   0.806   1.776  0.1137  0.4377 -1.1436
  269SOL     OW 1073   1.390   1.935   2.366  0.0595  0.4020 -0.0768
  269SOL    HW1 1074   1.433   2.015   2.337  1.3504  0.4722  1.8445
  269SOL    HW2 1075   1.346   1.958   2.443  2.3839 -1.1695 -2.7416
  269SOL     MW 1076   1.390   1.949   2.372  0.5365  0.2039 -0.1749
  270SOL     OW 1077   1.178   0.376   1.611  0.0873  0.1282 -0.2105
  270SOL    HW1 1078   1.129   0.298   1.650  1.5863 -0.6453  0.1150
  270SOL    HW2 1079   1.276   0.376   1.630  0.9761  0.0752 -2.1198
  270SOL     MW 1080   1.185   0.366   1.618  0.4023  0.0191 -0.4195
  271SOL     OW 1081   0.901   3.096   2.483 -0.2141  0.1661  0.5075
  271SOL    HW1 1082   0.974   3.050   2.522  1.8650 -1.9937 -1.1596
  271SOL    HW2 1083   0.953   3.178   2.455  0.0057 -1.2943  1.7744
  271SOL     MW 1084   0.917   3.101   2.485  0.0892 -0.3115  0.4547
  272SOL     OW 1085   1.479   2.886   2.773 -0.1919 -0.0987  0.1915
  272SOL    HW1 1086   1.461   2.967   2.720 -1.0047 -2.9494  0.3632
  272SOL    HW2 1087   1.512   2.909   2.866  0.1131  2.1896  1.4401
  272SOL     MW 1088   1.481   2.900   2.778 -0.2589 -0.1729  0.3789
  273SOL     OW 1089   1.432   0.887   2.876  0.1671  0.1061 -0.0770
  273SOL    HW1 1090   1.506   0.937   2.908 -0.3573 -1.8834 -0.9629
  273SOL    HW2 1091   1.370   0.956   2.878  0.9794  0.5836 -1.9258
  273SOL     MW 1092   1.433   0.902   2.881  0.2051 -0.0934 -0.4378
  274SOL     OW 1093   1.423   0.757   0.201  0.7378  0.2643  0.2163
  274SOL    HW1 1094   1.473   0.674   0.202  0.5939  2.5445  0.9896
  274SOL    HW2 1095   1.335   0.736   0.244 -1.4513 -2.4075 -1.4773
  274SOL     MW 1096   1.418   0.743   0.207  0.4300  0.2126  0.0949
  275SOL     OW 1097   1.687   0.644   1.788 -0.0470  0.0839 -0.3783
  275SOL    HW1 1098   1.731   0.696   1.850 -2.1322 -0.4995 -0.1339
  275SOL    HW2 1099   1.723   0.552   1.798  2.4845 -0.9537 -1.0047
  275SOL     MW 1100   1.698   0.639   1.798  0.0119 -0.1300 -0.4287
  276SOL     OW 1101   0.265   1.234   1.802  0.5009 -0.4574  0.0074
  276SOL    HW1 1102   0.290   1.176   1.877 -0.1124  0.4109  0.0453
  276SOL    HW2 1103   0.200   1.292   1.848  0.6491  0.5409 -0.6090
  276SOL     MW 1104   0.260   1.234   1.818  0.4395 -0.2112 -0.0689
  277SOL     OW 1105   1.882   1.277   2.512 -0.4823  0.1038 -0.9691
  277SOL    HW1 1106   1.954   1.342   2.518  3.2348  1.1267 -0.2819
  277SOL    HW2 1107   1.891   1.213   2.581 -0.3643  0.6835 -0.6888
  277SOL     MW 1108   1.892   1.277   2.522  0.0237  0.3152 -0.8414
  278SOL     OW 1109   1.425   0.639   1.713  0.5217 -0.3101  0.0957
  278SOL    HW1 1110   1.397   0.567   1.777 -1.3338 -1.8419  1.2995
  278SOL    HW2 1111   1.512   0.650   1.751  1.6940 -1.0031  0.4204
  278SOL     MW 1112   1.433   0.631   1.726  0.4315 -0.6036  0.2974
  279SOL     OW 1113   0.508   0.024   2.266  0.0901  0.1929 -0.4954
  279SOL    HW1 1114   0.597  -0.003   2.237  0.5052  0.3796 -1.0955
  279SOL    HW2 1115   0.511   0.120   2.249 -2.1644  0.7682 -4.2909
  279SOL     MW 1116   0.520   0.033   2.260 -0.1526  0.2934 -1.0754
  280SOL     OW 1117   1.518   1.087   2.166 -0.4923 -0.4101 -0.1435
  280SOL    HW1 1118   1.563   1.011   2.125 -0.5966  0.3099 -1.1157
  280SOL    HW2 1119   1.492   1.049   2.252  1.8411 -2.5082  0.4611
  280SOL     MW 1120   1.520   1.072   2.172 -0.1982 -0.5919 -0.1920
  281SOL     OW 1121   1.301   1.274   2.736 -0.0790 -0.0146 -0.0046
  281SOL    HW1 1122   1.386   1.328   2.741  0.0648 -1.3255 -2.1883
  281SOL    HW2 1123   1.319   1.216   2.811 -0.1809  3.6521  0.4253
  281SOL     MW 1124   1.314   1.274   2.747 -0.0734  0.2962 -0.2360
  282SOL     OW 1125   1.123   1.298   1.665 -0.1208  0.2367 -0.0388
  282SOL    HW1 1126   1.080   1.372   1.621  3.1974 -3.9149 -1.4656
  282SOL    HW2 1127   1.086   1.297   1.753 -2.7332 -0.3232 -0.6120
  282SOL     MW 1128   1.113   1.308   1.670 -0.0276 -0.3849 -0.3027
  283SOL     OW 1129   0.652   1.307   3.064 -0.2252 -0.6127 -0.3517
  283SOL    HW1 1130   0.735   1.304   3.115  1.8255 -2.0028 -1.6516
  283SOL    HW2 1131   0.618   1.395   3.077 -1.7656  2.1696 -2.1973
  283SOL     MW 1132   0.658   1.318   3.073 -0.1578 -0.4290 -0.7667
  284SOL     OW 1133   0.524   0.661   2.364  0.8607 -0.0848  0.2827
  284SOL    HW1 1134   0.587   0.732   2.337  1.1089  1.0469  0.0544
  284SOL    HW2 1135   0.482   0.615   2.284  0.6598 -0.4083 -0.3968
  284SOL     MW 1136   0.527   0.664   2.350  0.8670  0.0219  0.1629
  285SOL     OW 1137   0.859   0.945   2.847  0.1019 -0.2394 -0.0778
  285SOL    HW1 1138   0.929   0.972   2.781 -1.4259  1.5219 -1.0947
  285SOL    HW2 1139   0.831   0.853   2.827  1.1019 -0.0972 -0.2285
  285SOL     MW 1140   0.864   0.936   2.836  0.0323  0.0117 -0.2319
  286SOL     OW 1141   1.100   1.486   2.585  0.6792  0.3545 -0.3771
  286SOL    HW1 1142   1.124   1.459   2.675 -0.5151 -1.1032  0.7406
  286SOL    HW2 1143   1.103   1.581   2.589  1.2133 -0.7718  2.2574
  286SOL     MW 1144   1.103   1.495   2.598  0.5921  0.0136  0.1180
  287SOL     OW 1145   1.044   0.952   0.300  0.0990  0.1825 -0.5787
  287SOL    HW1 1146   1.062   0.998   0.386 -0.8968  1.2286  0.3491
  287SOL    HW2 1147   0.957   0.982   0.273  1.7313 -0.3534  0.6453
  287SOL     MW 1148   1.035   0.962   0.307  0.1830  0.2499 -0.2948
  288SOL     OW 1149   1.600   0.631   2.121  0.1673  0.1905 -0.3461
  288SOL    HW1 1150   1.572   0.633   2.216 -1.7060  2.2472 -0.6479
  288SOL    HW2 1151   1.612   0.725   2.094  1.3266  1.3378  2.2490
  288SOL     MW 1152   1.598   0.644   2.130  0.0731  0.6132 -0.0435
  289SOL     OW 1153   0.964   1.033   2.613  0.0037 -0.4865 -0.6628
  289SOL    HW1 1154   1.036   0.970   2.589 -1.4262  2.7368 -0.6087
  289SOL    HW2 1155   0.897   1.010   2.551  1.6128 -2.0601 -2.3059
  289SOL     MW 1156   0.965   1.021   2.602  0.0273 -0.2689 -0.8725
  290SOL     OW 1157   0.880   0.542   1.579 -0.2663  0.2428 -0.1533
  290SOL    HW1 1158   0.933   0.514   1.507 -0.2228 -2.8187  0.8992
  290SOL    HW2 1159   0.936   0.555   1.651 -0.8440  0.4324 -0.8432
  290SOL     MW 1160   0.894   0.540   1.579 -0.3368 -0.1362 -0.1055
  291SOL     OW 1161   0.167   0.328   0.150  0.0468  0.1682 -0.2361
  291SOL    HW1 1162   0.246   0.277   0.168 -2.1456  0.2091 -0.3727
  291SOL    HW2 1163   0.134   0.273   0.074 -0.6448  2.0991  2.2323
  291SOL     MW 1164   0.173   0.314   0.142 -0.3337  0.4284  0.0716
  292SOL     OW 1165   1.051   0.556   0.083 -0.1128 -0.1224  0.0066
  292SOL    HW1 1166   1.086   0.607   0.158  2.7073  0.7423  0.7239
  292SOL    HW2 1167   1.090   0.468   0.107 -1.4673 -0.9421  0.8272
  292SOL     MW 1168   1.061   0.551   0.096  0.0806 -0.1164  0.2095
  293SOL     OW 1169   0.238   0.146   2.452  0.4911  0.0048 -0.5002
  293SOL    HW1 1170   0.154   0.097   2.457 -0.0911 -0.0949 -0.9282
  293SOL    HW2 1171   0.226   0.215   2.517 -1.4135 -1.8176 -0.5336
  293SOL     MW 1172   0.225   0.149   2.461  0.1630 -0.2488 -0.5611
  294SOL     OW 1173   1.500   0.626   2.392 -0.1840 -0.4079  0.6011
  294SOL    HW1 1174   1.548   0.673   2.457  1.6806  0.1967 -1.6256
  294SOL    HW2 1175   1.503   0.534   2.415  0.2825  3.9656 -0.8473
  294SOL     MW 1176   1.507   0.620   2.403  0.1236  0.2489  0.1162
  295SOL     OW 1177   0.912   0.678   2.507 -0.5921 -0.2692  0.2292
  295SOL    HW1 1178   0.846   0.615   2.466  1.2223  1.9796  3.8994
  295SOL    HW2 1179   0.878   0.689   2.599  3.7750 -1.5459  1.3140
  295SOL     MW 1180   0.899   0.671   2.514  0.2235 -0.1410  0.8566
  296SOL     OW 1181   1.260   0.280   2.059  0.0215  0.4833  0.2241
  296SOL    HW1 1182   1.321   0.205   2.029  1.3509 -2.1051  0.9705
  296SOL    HW2 1183   1.268   0.290   2.157  0.3416  1.7257 -0.0828
  296SOL     MW 1184   1.269   0.271   2.068  0.2392  0.3057  0.2821
  297SOL     OW 1185   1.479   0.358   1.607  0.2551 -0.4673 -0.4338
  297SOL    HW1 1186   1.522   0.438   1.632 -0.2985 -1.2041  1.9908
  297SOL    HW2 1187   1.499   0.295   1.678 -0.3790  2.5150  1.5670
  297SOL     MW 1188   1.487   0.360   1.619  0.0984 -0.1710  0.1501
  298SOL     OW 1189   1.640   0.903   2.032  0.2264 -0.2424 -0.3710
  298SOL    HW1 1190   1.600   0.941   1.952 -1.4469 -1.8463 -2.6076
  298SOL    HW2 1191   1.735   0.888   2.023  0.9320 -1.0743  1.7312
  298SOL     MW 1192   1.647   0.906   2.020  0.0988 -0.5637 -0.3887
  299SOL     OW 1193   0.555   1.035   3.101  0.3409  0.3624  0.2495
  299SOL    HW1 1194   0.580   1.128   3.109  2.3007 -0.9027  1.7201
  299SOL    HW2 1195   0.535   1.023   3.010  2.2864 -0.4329  0.7568
  299SOL     MW 1196   0.556   1.046   3.090  0.8561  0.0905  0.5105
  300SOL     OW 1197   1.201   1.157   2.500 -0.5485  0.0486  0.4045
  300SOL    HW1 1198   1.105   1.142   2.504 -1.8601 -3.2167  1.2590
  300SOL    HW2 1199   1.208   1.185   2.590 -4.0198 -2.3187 -2.1742
  300SOL     MW 1200   1.189   1.159   2.512 -1.1795 -0.6946  0.1770
  301SOL     OW 1201   1.375   0.915   0.640  0.0692  0.1270  0.6875
  301SOL    HW1 1202   1.396   0.959   0.723  3.1479 -0.7353  3.4526
  301SOL    HW2 1203   1.337   0.828   0.661 -0.5908 -1.8609  1.9889
  301SOL     MW 1204   1.373   0.909   0.654  0.3883 -0.2490  1.2241
  302SOL     OW 1205   0.079   1.498   2.040  0.4510  0.1135 -0.4020
  302SOL    HW1 1206   0.093   1.434   2.116 -1.3921 -0.2978  1.8427
  302SOL    HW2 1207   0.040   1.570   2.093 -0.7535  0.0315 -2.0800
  302SOL     MW 1208   0.076   1.499   2.057  0.0489  0.0484 -0.3272
  303SOL     OW 1209   0.364   1.684   2.601  0.2145 -0.1343  0.2957
  303SOL    HW1 1210   0.389   1.735   2.526  1.5711 -0.3143  0.4064
  303SOL    HW2 1211   0.306   1.753   2.642  0.6083  1.1197 -0.0595
  303SOL     MW 1212   0.360   1.700   2.597  0.4455  0.0074  0.2634
  304SOL     OW 1213   0.680   2.055   2.364 -0.5432  0.3751 -0.3560
  304SOL    HW1 1214   0.709   2.120   2.299  0.9039  0.7020  1.4932
  304SOL    HW2 1215   0.757   2.002   2.378 -0.0383  2.1541  0.6691
  304SOL     MW 1216   0.694   2.057   2.357 -0.2857  0.6529  0.0233
  305SOL     OW 1217   1.080   0.573   0.512  0.1064  0.2057 -0.0995
  305SOL    HW1 1218   0.982   0.567   0.486  2.1785 -0.3776  0.1368
  305SOL    HW2 1219   1.097   0.488   0.562  1.8692  0.9723  1.5299
  305SOL     MW 1220   1.069   0.561   0.515  0.6124  0.2299  0.1466
  306SOL     OW 1221   1.228   1.488   0.283 -0.2067 -0.2151 -0.5281
  306SOL    HW1 1222   1.249   1.402   0.309 -1.8054  0.1675 -3.1183
  306SOL    HW2 1223   1.293   1.501   0.212 -1.1847  0.6219  1.4768
  306SOL     MW 1224   1.239   1.478   0.277 -0.5467 -0.0542 -0.6054
  307SOL     OW 1225   1.392   0.494   1.934 -0.1903  0.0029 -0.2405
  307SOL    HW1 1226   1.341   0.412   1.971 -1.2139 -1.6464 -0.4488
  307SOL    HW2 1227   1.460   0.503   2.000  0.9854 -0.4814  2.7275
  307SOL     MW 1228   1.395   0.484   1.948 -0.1702 -0.2786  0.1236
  308SOL     OW 1229   2.162   0.602   2.691 -0.0660 -0.3073  0.0897
  308SOL    HW1 1230   2.251   0.574   2.731  1.4612 -0.0081  2.2547
  308SOL    HW2 1231   2.159   0.703   2.702  0.8839 -1.0898 -0.8417
  308SOL     MW 1232   2.174   0.612   2.698  0.2608 -0.3711  0.2524
  309SOL     OW 1233   0.424   0.369   0.398 -0.5889  0.2500  0.2735
  309SOL    HW1 1234   0.510   0.354   0.437 -1.8247 -1.7704  2.7266
  309SOL    HW2 1235   0.424   0.315   0.319  0.2768  1.0517 -1.7774
  309SOL     MW 1236   0.435   0.360   0.393 -0.6378  0.0892  0.3265
  310SOL     OW 1237   0.477   0.597   1.921  0.5901 -0.0564 -0.2416
  310SOL    HW1 1238   0.496   0.524   1.859  1.0271  1.4040 -0.8901
  310SOL    HW2 1239   0.555   0.653   1.929  0.7168  2.5912  0.1592
  310SOL     MW 1240   0.490   0.594   1.914  0.6645  0.4856 -0.2743
  311SOL     OW 1241   1.886   0.742   1.969  0.1791  0.0742  0.2692
  311SOL    HW1 1242   1.887   0.723   2.066  0.2447 -2.1562  1.2661
  311SOL    HW2 1243   1.934   0.658   1.939  0.8454 -2.3057 -0.6855
  311SOL     MW 1244   1.892   0.728   1.978  0.2757 -0.5341  0.2747
  312SOL     OW 1245   1.672   2.502   0.100  0.4043  0.1287  1.1588
  312SOL    HW1 1246   1.715   2.509   0.186  1.0228 -0.3260  2.0789
  312SOL    HW2 1247   1.597   2.560   0.105 -1.2158  0.3870 -2.9783
  312SOL     MW 1248   1.668   2.511   0.112  0.2721  0.1028  0.7344
  313SOL     OW 1249   0.092   1.232   2.963  0.0766 -0.2140  0.2147
  313SOL    HW1 1250   0.130   1.220   3.049 -0.1313  0.7938  0.8556
  313SOL    HW2 1251   0.165   1.264   2.910 -3.5640 -1.1559  0.4288
  313SOL     MW 1252   0.107   1.234   2.967 -0.4311 -0.2053  0.3275
  314SOL     OW 1253   2.138   2.974   3.017 -0.5458 -0.0475 -0.3360
  314SOL    HW1 1254   2.105   3.028   2.947  0.8978  2.6928  1.3263
  314SOL    HW2 1255   2.179   3.037   3.074  2.8219 -2.6811 -0.7436
  314SOL     MW 1256   2.139   2.989   3.015  0.0890 -0.0334 -0.1704
  315SOL     OW 1257   1.495   1.878   0.039  0.6114  0.4076  0.5797
  315SOL    HW1 1258   1.420   1.942   0.059 -1.1004  0.9569  1.9860
  315SOL    HW2 1259   1.541   1.920  -0.039  0.6932  2.0164  0.8529
  315SOL     MW 1260   1.491   1.892   0.031  0.3963  0.6924  0.8013
  316SOL     OW 1261   1.281   0.664   2.678  0.2549  0.0890  0.3764
  316SOL    HW1 1262   1.364   0.716   2.666  0.1547 -0.2439  1.1564
  316SOL    HW2 1263   1.293   0.639   2.768  4.3932  2.4916 -2.6338
  316SOL     MW 1264   1.294   0.668   2.688  0.7877  0.3620  0.0822
  317SOL     OW 1265   0.710   1.489   2.543 -0.1640  0.3598 -0.7107
  317SOL    HW1 1266   0.778   1.417   2.554 -0.3232  1.0242  1.4600
  317SOL    HW2 1267   0.727   1.543   2.458  1.4181 -0.3876 -0.6647
  317SOL     MW 1268   0.721   1.486   2.533  0.0237  0.3488 -0.4182
  318SOL     OW 1269   1.349   0.412   2.938 -0.0119 -0.0811  0.0618
  318SOL    HW1 1270   1.270   0.466   2.929 -3.5474  0.7854 -2.2988
  318SOL    HW2 1271   1.430   0.464   2.915  2.2987 -1.7847  1.0510
  318SOL     MW 1272   1.350   0.426   2.934 -0.1736 -0.1915 -0.1191
  319SOL     OW 1273   0.776   0.411   2.861 -0.0321  0.1715  0.0140
  319SOL    HW1 1274   0.728   0.381   2.784 -1.5515  2.0658  1.1457
  319SOL    HW2 1275   0.730   0.371   2.937 -1.5132  0.1813  1.6631
  319SOL     MW 1276   0.763   0.402   2.861 -0.4280  0.4227  0.3809
  320SOL     OW 1277   1.025   1.333   1.928  0.6432 -0.5239 -0.3952
  320SOL    HW1 1278   1.057   1.315   2.018 -1.4946 -0.4049 -1.6317
  320SOL    HW2 1279   1.071   1.415   1.911 -0.3194  1.0769  0.9027
  320SOL     MW 1280   1.035   1.342   1.938  0.2341 -0.2970 -0.3871
  321SOL     OW 1281   1.027   0.993   3.048  0.2195 -0.0236  0.0443
  321SOL    HW1 1282   0.953   0.960   2.992 -3.2107  2.6095 -1.7961
  321SOL    HW2 1283   1.082   0.916   3.050 -2.1358 -1.7708 -1.5652
  321SOL     MW 1284   1.024   0.979   3.041 -0.5438  0.0933 -0.4109
  322SOL     OW 1285   1.184   0.804   1.719  0.2942 -0.0201  0.2126
  322SOL    HW1 1286   1.260   0.750   1.704  0.6207 -1.7821 -1.9256
  322SOL    HW2 1287   1.189   0.827   1.813  0.0599 -3.1248  0.7502
  322SOL     MW 1288   1.195   0.800   1.729  0.3064 -0.6622  0.0014
  323SOL     OW 1289   1.210   1.535   1.884  0.0082 -0.0558  0.5014
  323SOL    HW1 1290   1.214   1.501   1.792 -0.1877  1.0558 -1.3070
  323SOL    HW2 1291   1.145   1.604   1.885  0.9652 -0.0610 -1.8057
  323SOL     MW 1292   1.202   1.539   1.872  0.1086  0.0902 -0.0416
  324SOL     OW 1293   1.453   1.011   2.442  0.9213 -0.3522 -0.2128
  324SOL    HW1 1294   1.363   1.030   2.490 -2.0899 -0.0941 -0.2406
  324SOL    HW2 1295   1.505   1.085   2.469 -1.9946 -0.9908 -3.4357
  324SOL     MW 1296   1.448   1.023   2.452  0.1392 -0.4024 -0.6417
  325SOL     OW 1297   1.091   0.521   2.895 -0.3491 -0.2298  0.0286
  325SOL    HW1 1298   1.087   0.576   2.974  1.3666  2.4229 -0.5398
  325SOL    HW2 1299   1.001   0.489   2.881  1.9184  0.5051 -0.5173
  325SOL     MW 1300   1.079   0.524   2.903  0.1764  0.2172 -0.1184
  326SOL     OW 1301   0.483   1.370   2.213 -0.0644  0.1272  0.2208
  326SOL    HW1 1302   0.524   1.342   2.134 -1.4721 -2.0905  0.1892
  326SOL    HW2 1303   0.460   1.465   2.196  0.0009 -0.7664 -0.6651
  326SOL     MW 1304   0.486   1.379   2.200 -0.2415 -0.2833  0.0998
  327SOL     OW 1305   1.877   0.880   2.461  0.2587 -0.5959  0.2128
  327SOL    HW1 1306   1.865   0.798   2.521  1.9636  1.0950  0.1021
  327SOL    HW2 1307   1.974   0.887   2.449  1.4633  0.3336 -3.7384
  327SOL     MW 1308   1.888   0.870   2.468  0.6426 -0.2502 -0.3232
  328SOL     OW 1309   0.186   1.304   2.237  0.1280 -1.1639 -0.8560
  328SOL    HW1 1310   0.134   1.230   2.198  0.4224 -1.1971  0.6169
  328SOL    HW2 1311   0.271   1.298   2.201 -2.0517 -0.9254 -0.8399
  328SOL     MW 1312   0.191   1.293   2.227 -0.1207 -1.1368 -0.6595
  329SOL     OW 1313   0.126   0.103   1.401  0.1866 -0.4604 -0.7237
  329SOL    HW1 1314   0.120   0.108   1.496  0.9439 -1.4230  0.9030
  329SOL    HW2 1315   0.184   0.176   1.376  2.6986  1.3747  0.4747
  329SOL     MW 1316   0.133   0.113   1.410  0.6180 -0.3453 -0.3509
  330SOL     OW 1317   0.322   3.092   2.082  0.0112  0.4565  0.3704
  330SOL    HW1 1318   0.391   3.103   2.156 -1.5358 -4.3519  3.2580
  330SOL    HW2 1319   0.259   3.044   2.125  0.9217 -0.5866 -3.0465
  330SOL     MW 1320   0.323   3.087   2.097 -0.0728 -0.3155  0.3006
  331SOL     OW 1321   0.772   1.214   2.279  0.3959 -0.3160  0.3208
  331SOL    HW1 1322   0.729   1.247   2.199  0.8299 -1.4659 -0.1229
  331SOL    HW2 1323   0.820   1.285   2.313 -1.0129 -1.5703 -0.1542
  331SOL     MW 1324   0.773   1.228   2.273  0.2673 -0.6332  0.1995
  332SOL     OW 1325   1.350   1.692   2.987  0.0004 -0.2536  0.0657
  332SOL    HW1 1326   1.361   1.690   2.894 -1.3032 -0.3478  1.9462
  332SOL    HW2 1327   1.412   1.747   3.031  0.8316  0.0759  0.4555
  332SOL     MW 1328   1.359   1.699   2.980 -0.0619 -0.2226  0.3652
  333SOL     OW 1329   1.799   1.453   2.978  0.0957  0.0986 -0.1955
  333SOL    HW1 1330   1.896   1.468   2.992  0.4268 -0.3344  1.2850
  333SOL    HW2 1331   1.760   1.447   3.065  3.6115 -0.1349 -2.9092
  333SOL     MW 1332   1.807   1.454   2.991  0.6033  0.0106 -0.3582
  334SOL     OW 1333   1.371   3.083   2.595 -0.1152  0.0752 -0.5266
  334SOL    HW1 1334   1.286   3.054   2.637  0.5358 -1.2679 -0.4918
  334SOL    HW2 1335   1.379   3.174   2.622  2.1186  0.3864  2.5507
  334SOL     MW 1336   1.360   3.091   2.604  0.2654 -0.0610 -0.1160
  335SOL     OW 1337   1.245   0.781   3.044  0.3425 -0.0602 -0.9978
  335SOL    HW1 1338   1.290   0.771   3.128  2.5230  0.8889 -1.4905
  335SOL    HW2 1339   1.317   0.793   2.979 -0.5025 -1.4754  1.0373
  335SOL     MW 1340   1.261   0.782   3.046  0.5187 -0.1217 -0.7943
  336SOL     OW 1341   0.937   1.080   1.893 -0.1566  0.6030 -0.3113
  336SOL    HW1 1342   0.957   1.174   1.897  1.6036  2.1413 -0.8958
  336SOL    HW2 1343   1.022   1.041   1.882 -0.2415  2.4829  1.2814
  336SOL     MW 1344   0.951   1.087   1.892  0.0644  1.0540 -0.1783
  337SOL     OW 1345   0.591   1.767   2.823  0.6622  0.6464  0.4938
  337SOL    HW1 1346   0.518   1.713   2.780  1.2567 -1.4615  0.2926
  337SOL    HW2 1347   0.670   1.711   2.815  0.5195 -0.4482 -1.6293
  337SOL     MW 1348   0.592   1.752   2.816  0.7218  0.2238  0.1871
  338SOL     OW 1349   1.134   0.831   2.541  0.0006  0.1438 -0.3531
  338SOL    HW1 1350   1.065   0.773   2.501  0.8925  0.6487 -1.9605
  338SOL    HW2 1351   1.186   0.768   2.592  2.0801  0.5935  0.3487
  338SOL     MW 1352   1.132   0.815   2.542  0.3926  0.2698 -0.4726
  339SOL     OW 1353   1.547   1.038   1.789  0.0481 -0.0832  0.0973
  339SOL    HW1 1354   1.481   1.022   1.720 -1.2839 -0.2132 -3.4218
  339SOL    HW2 1355   1.539   1.132   1.816 -1.3231 -0.0240  1.7797
  339SOL     MW 1356   1.538   1.048   1.784 -0.3086 -0.0925 -0.1450
  340SOL     OW 1357   1.388   1.478   0.060  0.1225 -0.1865 -0.1363
  340SOL    HW1 1358   1.375   1.556   0.011  0.8335 -0.6280  1.1358
  340SOL    HW2 1359   1.479   1.471   0.086 -0.5163 -1.1195 -0.2455
  340SOL     MW 1360   1.398   1.487   0.057  0.1320 -0.3679  0.0171
  341SOL     OW 1361   0.113   1.383   2.681 -0.5840  0.6423  0.0368
  341SOL    HW1 1362   0.206   1.371   2.659  0.4329  1.7576 -0.4352
  341SOL    HW2 1363   0.060   1.328   2.623  0.5757  2.7799  1.5523
  341SOL     MW 1364   0.118   1.374   2.670 -0.2968  1.0715  0.1745
  342SOL     OW 1365   1.405   0.297   0.096 -0.7409 -0.1226 -0.1813
  342SOL    HW1 1366   1.441   0.377   0.139  0.7397 -2.7799 -0.4600
  342SOL    HW2 1367   1.385   0.328   0.006  0.0159  3.4683 -0.0130
  342SOL     MW 1368   1.407   0.312   0.090 -0.4457  0.0006 -0.1959
  343SOL     OW 1369   0.209   0.314   2.216  0.0449 -0.0447  0.2606
  343SOL    HW1 1370   0.234   0.233   2.269 -0.4860 -1.4340  0.5645
  343SOL    HW2 1371   0.164   0.272   2.139 -0.3638  0.5387  0.1817
  343SOL     MW 1372   0.206   0.298   2.213 -0.0791 -0.1510  0.2903
  344SOL     OW 1373   1.673   2.072   0.202 -0.0565 -0.3457 -0.2199
  344SOL    HW1 1374   1.687   2.125   0.121 -0.1832 -0.9463 -2.5963
  344SOL    HW2 1375   1.600   2.019   0.184  2.6586  2.0883 -0.7385
  344SOL     MW 1376   1.665   2.072   0.189  0.2850 -0.1038 -0.6019
  345SOL     OW 1377   0.736   1.635   2.318  0.4774 -0.2458  0.2092
  345SOL    HW1 1378   0.643   1.628   2.289 -1.9361 -2.3261 -3.1138
  345SOL    HW2 1379   0.791   1.583   2.257 -1.2926 -1.4555  0.8119
  345SOL     MW 1380   0.731   1.627   2.306 -0.0746 -0.6799 -0.1497
  346SOL     OW 1381   1.727   1.121   0.044  0.3037 -0.4950  0.0004
  346SOL    HW1 1382   1.822   1.130   0.027  0.6095 -1.2609  1.2085
  346SOL    HW2 1383   1.708   1.030   0.065  0.1043 -0.8101 -0.6608
  346SOL     MW 1384   1.737   1.110   0.045  0.3177 -0.6377  0.0725
  347SOL     OW 1385   1.280   0.749   2.292 -0.0333  0.8431  0.3279
  347SOL    HW1 1386   1.350   0.696   2.330 -0.5700 -1.3920 -0.6050
  347SOL    HW2 1387   1.296   0.839   2.316 -0.6269 -1.9486  0.4822
  347SOL     MW 1388   1.291   0.754   2.300 -0.1824  0.1799  0.2252
  348SOL     OW 1389   1.319   2.584   1.868  0.0451  0.3316  0.0566
  348SOL    HW1 1390   1.382   2.527   1.910 -1.5806  1.4333 -2.2926
  348SOL    HW2 1391   1.353   2.671   1.870  0.7128 -0.5162 -1.8149
  348SOL     MW 1392   1.332   2.588   1.874 -0.0813  0.3651 -0.5003
  349SOL     OW 1393   1.422   0.250   2.704 -0.2601  0.6130 -0.5535
  349SOL    HW1 1394   1.375   0.318   2.758 -2.1614  0.6602  0.9363
  349SOL    HW2 1395   1.492   0.216   2.757 -1.6816 -0.2549 -0.4833
  349SOL     MW 1396   1.425   0.255   2.718 -0.6985  0.5047 -0.3476
  350SOL     OW 1397   1.878   0.650   2.611  0.0956 -0.0642 -0.3781
  350SOL    HW1 1398   1.849   0.568   2.562  2.3308 -0.0559 -1.3258
  350SOL    HW2 1399   1.961   0.623   2.647  0.7550 -1.1642  2.5172
  350SOL     MW 1400   1.885   0.636   2.609  0.4775 -0.2082 -0.1211
  351SOL     OW 1401   0.121   0.940   1.601 -0.3508 -0.6966 -0.4368
  351SOL    HW1 1402   0.042   0.977   1.639  0.4597  1.4831 -0.1772
  351SOL    HW2 1403   0.175   1.022   1.611  0.6856  0.1537  3.7049
  351SOL     MW 1404   0.118   0.955   1.607 -0.1071 -0.2969  0.1439
  352SOL     OW 1405   0.840   1.648   2.734  0.3888  0.4045 -0.3579
  352SOL    HW1 1406   0.881   1.597   2.811  0.6307 -0.9937 -0.7197
  352SOL    HW2 1407   0.788   1.588   2.677 -0.4507  1.7181 -1.1106
  352SOL     MW 1408   0.838   1.633   2.737  0.3099  0.3933 -0.5050
  353SOL     OW 1409   3.049   2.469   2.696  0.1743 -0.2529  0.9511
  353SOL    HW1 1410   3.120   2.408   2.667  0.7762 -0.5017  2.8536
  353SOL    HW2 1411   3.023   2.515   2.619 -2.5873 -0.2204 -0.0017
  353SOL     MW 1412   3.055   2.467   2.682 -0.1106 -0.2814  1.0764
  354SOL     OW 1413   0.383   2.470   0.850 -0.2588 -0.0793  0.2711
  354SOL    HW1 1414   0.400   2.433   0.940 -1.0814  0.2488  0.1162
  354SOL    HW2 1415   0.299   2.423   0.813  1.1667 -0.4122  1.8488
  354SOL     MW 1416   0.374   2.459   0.857 -0.1793 -0.0799  0.4588
  355SOL     OW 1417   0.029   2.205   0.409 -0.2395  0.4266 -0.6539
  355SOL    HW1 1418  -0.052   2.153   0.392  0.6591 -0.7897  0.2965
  355SOL    HW2 1419  -0.010   2.256   0.478  1.0400 -2.5294 -1.0031
  355SOL     MW 1420   0.013   2.205   0.416  0.0478 -0.1239 -0.5746
  356SOL     OW 1421   0.883   2.881   1.066 -0.2886  0.3267  0.1840
  356SOL    HW1 1422   0.898   2.875   0.967  1.0453 -0.4438 -1.7411
  356SOL    HW2 1423   0.794   2.853   1.069  3.4408 -2.0611  0.4622
  356SOL     MW 1424   0.873   2.876   1.053  0.3795 -0.0900 -0.0333
  357SOL     OW 1425   1.772   2.936   0.371  0.8377  0.2450  0.6033
  357SOL    HW1 1426   1.712   2.876   0.424 -0.1180 -1.3206  1.0728
  357SOL    HW2 1427   1.850   2.903   0.340 -3.4086  0.3085  1.0784
  357SOL     MW 1428   1.775   2.924   0.374  0.1513  0.0468  0.7280
  358SOL     OW 1429   0.419   0.079   1.071  1.1724 -0.5351 -0.0636
  358SOL    HW1 1430   0.509   0.098   1.092  0.6084  1.1180  0.4069
  358SOL    HW2 1431   0.399   0.118   0.986  0.2694  0.5084  0.6282
  358SOL     MW 1432   0.428   0.087   1.063  0.9788 -0.1793  0.0898
  359SOL     OW 1433   0.897   2.858   1.820 -0.0073 -0.9574  0.7816
  359SOL    HW1 1434   0.920   2.775   1.871 -0.0778  0.9525  1.0666
  359SOL    HW2 1435   0.953   2.851   1.746  2.2110  1.0991  0.1817
  359SOL     MW 1436   0.908   2.846   1.817  0.2761 -0.4341  0.7400
  360SOL     OW 1437   0.590   2.790   1.022 -0.1737  0.2313 -0.2480
  360SOL    HW1 1438   0.605   2.756   0.929 -0.9911  1.3029 -0.7480
  360SOL    HW2 1439   0.580   2.714   1.083  0.8925  0.2448 -0.7877
  360SOL     MW 1440   0.590   2.775   1.018 -0.1409  0.3745 -0.3851
  361SOL     OW 1441   0.202   2.708   1.331 -0.7123  0.4803  0.3281
  361SOL    HW1 1442   0.184   2.772   1.398 -0.6830 -3.0631  0.7774
  361SOL    HW2 1443   0.290   2.687   1.353 -0.5950  1.0729 -2.1607
  361SOL     MW 1444   0.211   2.714   1.342 -0.6930  0.0910  0.0590
  362SOL     OW 1445   1.449   2.435   0.660 -0.2480  0.1248 -0.0270
  362SOL    HW1 1446   1.484   2.355   0.704 -0.1626  3.3224  0.2527
  362SOL    HW2 1447   1.449   2.499   0.733 -0.6039  0.7572 -1.2355
  362SOL     MW 1448   1.453   2.432   0.676 -0.2837  0.6302 -0.1495
  363SOL     OW 1449   0.310   3.057   0.680 -0.3854  0.4586 -0.0385
  363SOL    HW1 1450   0.289   3.009   0.766  1.8933  1.3286  0.1344
  363SOL    HW2 1451   0.228   3.089   0.638  1.5272  2.5008  1.7049
  363SOL     MW 1452   0.296   3.055   0.686  0.1676  0.8429  0.2143
  364SOL     OW 1453   0.739   0.217   0.238 -0.8115  0.3805 -0.4017
  364SOL    HW1 1454   0.668   0.146   0.250 -1.5640  0.5319 -2.0988
  364SOL    HW2 1455   0.698   0.273   0.172  2.2841  1.6611  0.1389
  364SOL     MW 1456   0.724   0.215   0.231 -0.5023  0.5694 -0.5543
  365SOL     OW 1457   0.945   1.954   1.097  0.1978  0.4657  0.2077
  365SOL    HW1 1458   0.903   2.041   1.060 -0.3587  0.6360  0.0744
  365SOL    HW2 1459   0.885   1.879   1.071 -1.2938 -0.4303 -2.5378
  365SOL     MW 1460   0.931   1.956   1.089 -0.0724  0.3699 -0.1721
  366SOL     OW 1461   2.873   2.619   1.050 -0.3707 -0.0481  1.1625
  366SOL    HW1 1462   2.942   2.635   1.118  0.6555 -0.3803  2.1763
  366SOL    HW2 1463   2.931   2.613   0.974 -0.0803 -0.5779 -0.7253
  366SOL     MW 1464   2.890   2.620   1.049 -0.1970 -0.1618  1.0472
  367SOL     OW 1465   1.236   2.836   0.894  0.3627  0.7432  0.1459
  367SOL    HW1 1466   1.140   2.845   0.906 -2.4234  1.5671  0.9735
  367SOL    HW2 1467   1.242   2.795   0.808  0.4424 -0.6312  1.6048
  367SOL     MW 1468   1.224   2.832   0.884  0.0056  0.6705  0.4476
  368SOL     OW 1469   1.675   0.438   0.678  0.0608 -0.3057 -0.5052
  368SOL    HW1 1470   1.765   0.427   0.649 -1.1683 -0.7711  1.3418
  368SOL    HW2 1471   1.653   0.535   0.683 -0.7378  1.8971 -2.4614
  368SOL     MW 1472   1.684   0.449   0.675 -0.2068 -0.0765 -0.5196
  369SOL     OW 1473   0.174   2.449   1.674  0.0502  0.0230 -0.2050
  369SOL    HW1 1474   0.268   2.448   1.695 -1.6054 -0.4017  1.9046
  369SOL    HW2 1475   0.139   2.523   1.721 -0.8085  1.6824 -2.4875
  369SOL     MW 1476   0.181   2.458   1.683 -0.2815  0.1859 -0.2278
  370SOL     OW 1477   0.757   0.069   1.007 -0.0363 -0.1845 -0.1450
  370SOL    HW1 1478   0.796   0.151   1.040 -0.1346 -1.6763  0.6261
  370SOL    HW2 1479   0.795  -0.005   1.059 -1.5649  1.2013  2.5953
  370SOL     MW 1480   0.767   0.070   1.018 -0.2510 -0.1985  0.3183
  371SOL     OW 1481   1.334   2.997   1.511  0.0365  0.2535  0.1737
  371SOL    HW1 1482   1.274   2.946   1.455 -1.5393  0.5220 -0.3236
  371SOL    HW2 1483   1.339   3.077   1.461 -1.2385 -1.4367 -1.0657
  371SOL     MW 1484   1.327   3.001   1.497 -0.3396  0.0659 -0.0554
  372SOL     OW 1485   0.784   2.316   0.484 -0.4838 -0.2654 -0.0931
  372SOL    HW1 1486   0.748   2.223   0.485  1.6549 -0.5666  0.2813
  372SOL    HW2 1487   0.812   2.348   0.393  0.9542  1.1464  1.2083
  372SOL     MW 1488   0.783   2.308   0.472 -0.0119 -0.1188  0.1280
  373SOL     OW 1489   2.796   3.030   1.376  0.2850  0.2162 -0.2296
  373SOL    HW1 1490   2.836   2.980   1.304 -2.0010 -1.2174 -1.9467
  373SOL    HW2 1491   2.795   3.117   1.328  0.0727 -0.0045  1.2982
  373SOL     MW 1492   2.801   3.035   1.361 -0.0446 -0.0021 -0.2546
  374SOL     OW 1493   1.542   0.520   0.207 -0.2170 -0.2806  0.0956
  374SOL    HW1 1494   1.624   0.559   0.225  1.4116 -3.6373  1.1148
  374SOL    HW2 1495   1.516   0.489   0.293  2.6346  0.3568 -0.0877
  374SOL     MW 1496   1.549   0.521   0.221  0.3741 -0.6394  0.2059
  375SOL     OW 1497   1.114   2.089   2.282 -0.2645  0.3914  0.1203
  375SOL    HW1 1498   1.162   2.118   2.356 -0.9310 -1.8904 -1.7150
  375SOL    HW2 1499   1.157   2.005   2.264 -0.2571  0.7482  0.5133
  375SOL     MW 1500   1.126   2.081   2.289 -0.3514  0.1374 -0.0700
  376SOL     OW 1501   0.686   2.516   0.056 -0.5528 -0.0373  0.2578
  376SOL    HW1 1502   0.704   2.441   0.109 -2.9274 -0.7861  2.0081
  376SOL    HW2 1503   0.651   2.468  -0.029 -0.4792  0.1626  0.0843
  376SOL     MW 1504   0.683   2.500   0.051 -0.8564 -0.1097  0.4658
  377SOL     OW 1505   1.316   1.988   0.855  0.5285 -0.1724  0.1314
  377SOL    HW1 1506   1.230   1.977   0.812  0.9469 -0.7528  0.3027
  377SOL    HW2 1507   1.317   1.937   0.939 -1.9209  1.3158  0.6729
  377SOL     MW 1508   1.305   1.980   0.860  0.2606 -0.0526  0.2254
  378SOL     OW 1509   1.034   2.826   1.555 -0.1136  0.3188 -0.0252
  378SOL    HW1 1510   0.988   2.740   1.565 -1.2797  0.9762  1.7128
  378SOL    HW2 1511   0.988   2.860   1.477 -2.2087 -0.5028  1.4322
  378SOL     MW 1512   1.022   2.820   1.546 -0.5439  0.2971  0.3964
  379SOL     OW 1513   1.130   1.781   2.289  0.2544 -0.8032  0.0655
  379SOL    HW1 1514   1.034   1.791   2.283 -0.3260  1.0164 -0.9015
  379SOL    HW2 1515   1.144   1.692   2.257 -1.4963 -2.9364  0.7942
  379SOL     MW 1516   1.119   1.771   2.284 -0.0531 -0.8445  0.0341
  380SOL     OW 1517   0.841   0.070   1.562 -0.6310  0.3025  0.7123
  380SOL    HW1 1518   0.873   0.062   1.470  0.1696 -0.6885 -2.6452
  380SOL    HW2 1519   0.922   0.099   1.612  0.4866  1.2153  0.1418
  380SOL     MW 1520   0.856   0.073   1.556 -0.3779  0.2922  0.1940
  381SOL     OW 1521   0.812   1.996   0.769  0.3067  0.3735 -0.0669
  381SOL    HW1 1522   0.904   2.000   0.797 -0.4474 -0.0648  1.5432
  381SOL    HW2 1523   0.770   2.038   0.842  0.1318  1.9627  0.9730
  381SOL     MW 1524   0.819   2.002   0.782  0.1841  0.5254  0.2827
  382SOL     OW 1525   0.686   0.086   0.723 -0.6186  0.3862 -0.3620
  382SOL    HW1 1526   0.716   0.098   0.817  0.9844  2.9424  1.4246
  382SOL    HW2 1527   0.638   0.004   0.715  0.6944  0.0292  3.5191
  382SOL     MW 1528   0.683   0.077   0.734 -0.2339  0.6764  0.3858
  383SOL     OW 1529   0.485   0.024   0.360  0.4468 -0.0805 -0.0378
  383SOL    HW1 1530   0.522  -0.048   0.316  0.6014 -1.0931  3.3514
  383SOL    HW2 1531   0.419  -0.011   0.421 -0.2899 -1.1175  0.6500
  383SOL     MW 1532   0.481   0.010   0.362  0.3700 -0.3509  0.5001
  384SOL     OW 1533   0.640   2.913   0.640 -0.0269  0.2427  0.3635
  384SOL    HW1 1534   0.670   2.834   0.696  0.3309 -2.3150 -1.0184
  384SOL    HW2 1535   0.556   2.893   0.601  1.7363 -0.4271  0.8262
  384SOL     MW 1536   0.633   2.900   0.642  0.2529 -0.1832  0.2422
  385SOL     OW 1537   1.336   2.064   1.504  0.4005  0.2153  0.2783
  385SOL    HW1 1538   1.398   2.084   1.577 -0.5077 -1.5151  1.3546
  385SOL    HW2 1539   1.282   1.979   1.530  0.1418  1.7473  1.2376
  385SOL     MW 1540   1.337   2.055   1.517  0.2465  0.1891  0.5469
  386SOL     OW 1541   1.367   0.367   0.841 -0.7559  0.5557  0.3304
  386SOL    HW1 1542   1.330   0.333   0.765 -2.2481 -2.2894  1.3997
  386SOL    HW2 1543   1.306   0.355   0.917 -0.6284  0.4261 -0.7544
  386SOL     MW 1544   1.354   0.361   0.841 -0.9360  0.1632  0.3284
  387SOL     OW 1545   0.843   2.215   1.439  0.5235  0.1800 -0.2542
  387SOL    HW1 1546   0.917   2.265   1.400  0.8829 -1.0434 -1.8060
  387SOL    HW2 1547   0.855   2.124   1.403  0.0491 -0.2215  0.2593
  387SOL     MW 1548   0.855   2.210   1.429  0.5083 -0.0344 -0.3912
  388SOL     OW 1549   1.567   2.769   1.233 -0.1646 -0.4372 -0.0334
  388SOL    HW1 1550   1.477   2.749   1.209  0.3867 -0.2927 -2.2666
  388SOL    HW2 1551   1.623   2.710   1.177 -0.0130 -1.7275  0.7214
  388SOL     MW 1552   1.562   2.758   1.223 -0.0719 -0.5884 -0.2285
  389SOL     OW 1553   0.354   3.096   3.043  0.0413 -0.6776  0.2504
  389SOL    HW1 1554   0.446   3.102   3.027 -1.7948 -1.8831 -1.4220
  389SOL    HW2 1555   0.314   3.139   2.977  2.1257 -1.7582  0.8060
  389SOL     MW 1556   0.361   3.102   3.032  0.0741 -0.9792  0.1030
  390SOL     OW 1557   1.296   0.071   0.649  0.3548  0.3721  0.5150
  390SOL    HW1 1558   1.377   0.062   0.599  0.0759 -0.5230 -0.5896
  390SOL    HW2 1559   1.295  -0.009   0.702  0.1916 -0.2149 -2.8897
  390SOL     MW 1560   1.307   0.059   0.649  0.2964  0.1765 -0.0799
  391SOL     OW 1561   0.269   2.240   1.426  0.1090  0.2610 -0.4811
  391SOL    HW1 1562   0.215   2.159   1.442 -0.8986 -1.0341 -1.3324
  391SOL    HW2 1563   0.205   2.315   1.422  1.2375  0.4268  0.4141
  391SOL     MW 1564   0.254   2.239   1.427  0.1249  0.1120 -0.4753
  392SOL     OW 1565   2.071   2.130   0.381  0.0469 -0.2835  0.3518
  392SOL    HW1 1566   2.160   2.126   0.412  0.0395 -2.0756 -0.9002
  392SOL    HW2 1567   1.997   2.109   0.442  0.3273  1.1764  1.0169
  392SOL     MW 1568   2.073   2.127   0.394  0.0830 -0.3274  0.2744
  393SOL     OW 1569   0.173   3.029   2.736  0.3166 -0.4617 -0.6502
  393SOL    HW1 1570   0.221   3.098   2.785  1.1806  1.0982  0.4216
  393SOL    HW2 1571   0.104   3.078   2.682 -0.3470  2.1348 -0.9442
  393SOL     MW 1572   0.170   3.044   2.735  0.3430  0.0867 -0.5475
  394SOL     OW 1573   0.871   1.693   1.507  0.2087  0.2223 -0.2000
  394SOL    HW1 1574   0.826   1.709   1.590  0.0902  2.4934  1.3676
  394SOL    HW2 1575   0.897   1.780   1.466  2.1941  2.5087  0.3238
  394SOL     MW 1576   0.868   1.706   1.513  0.4550  0.8237  0.0760
  395SOL     OW 1577   0.981   2.845   2.648  0.3733 -1.1168 -0.0220
  395SOL    HW1 1578   1.020   2.928   2.682  1.4587 -0.2859  2.1955
  395SOL    HW2 1579   1.062   2.791   2.622 -0.0529 -0.9422  1.7811
  395SOL     MW 1580   0.997   2.849   2.649  0.4603 -0.9841  0.5085
  396SOL     OW 1581   0.876   1.865   2.376  0.1393  0.1611  0.2664
  396SOL    HW1 1582   0.896   1.883   2.470 -2.0484 -0.3198 -0.1132
  396SOL    HW2 1583   0.819   1.785   2.374  0.5370  2.7405  0.7710
  396SOL     MW 1584   0.871   1.857   2.388 -0.0968  0.4380  0.2829
  397SOL     OW 1585   1.054   2.367   1.317  0.0148 -0.5137 -0.3763
  397SOL    HW1 1586   1.086   2.360   1.224 -2.4173  4.6374 -2.5792
  397SOL    HW2 1587   1.129   2.337   1.378  0.1106 -2.4643 -0.0753
  397SOL     MW 1588   1.068   2.362   1.313 -0.2935 -0.0915 -0.6272
  398SOL     OW 1589   0.625   2.660   0.781 -0.4242  0.4097 -0.3198
  398SOL    HW1 1590   0.565   2.587   0.777 -1.8438 -2.6336  3.3653
  398SOL    HW2 1591   0.700   2.627   0.731 -0.9890 -0.2311 -0.6661
  398SOL     MW 1592   0.627   2.646   0.774 -0.6860 -0.0764  0.1207
  399SOL     OW 1593   0.272   2.078   0.454 -0.0560  0.0650  0.1163
  399SOL    HW1 1594   0.178   2.112   0.437 -2.0825 -2.6150 -0.8067
  399SOL    HW2 1595   0.332   2.126   0.392  1.5384  0.8924  1.4587
  399SOL     MW 1596   0.267   2.089   0.443 -0.1130 -0.1794  0.1717
  400SOL     OW 1597   0.565   1.788   0.161 -0.0237  0.0183  0.1488
  400SOL    HW1 1598   0.552   1.881   0.173  0.3082  1.2445 -0.8274
  400SOL    HW2 1599   0.518   1.750   0.228  4.2019  3.6615 -0.3628
  400SOL     MW 1600   0.557   1.795   0.172  0.5776  0.6608 -0.0475
  401SOL     OW 1601   0.918   2.084   0.138 -0.2022  0.3461 -0.2513
  401SOL    HW1 1602   0.913   1.986   0.151  1.3978 -0.4755  0.5057
  401SOL    HW2 1603   0.979   2.110   0.211  1.3102  2.7485  2.2095
  401SOL     MW 1604   0.925   2.074   0.149  0.2085  0.5546  0.1733
  402SOL     OW 1605   0.675   2.945   1.678 -0.0340  0.3167  0.2908
  402SOL    HW1 1606   0.739   2.914   1.746  0.3785 -0.4174  1.1171
  402SOL    HW2 1607   0.728   3.010   1.634  2.6845  0.0589 -0.1045
  402SOL     MW 1608   0.690   2.949   1.681  0.3791  0.1858  0.3477
  403SOL     OW 1609   0.079   0.412   0.405  0.3608  0.2256 -0.0738
  403SOL    HW1 1610   0.161   0.435   0.446  0.9464  2.0163 -0.5165
  403SOL    HW2 1611   0.102   0.401   0.316 -1.1599 -0.2606  2.2909
  403SOL     MW 1612   0.093   0.414   0.399  0.2374  0.3977  0.1798
  404SOL     OW 1613   0.951   2.825   0.814 -0.5355  0.1889 -0.4438
  404SOL    HW1 1614   0.994   2.765   0.758 -2.7130  0.0172  0.4400
  404SOL    HW2 1615   0.937   2.900   0.755 -4.4416 -0.8203 -0.7454
  404SOL     MW 1616   0.955   2.827   0.799 -1.3382  0.0331 -0.3670
  405SOL     OW 1617   0.509   2.384   1.522 -0.6988 -1.0457 -0.5097
  405SOL    HW1 1618   0.497   2.465   1.475 -1.3203  0.2993  1.1231
  405SOL    HW2 1619   0.440   2.320   1.492  3.5630  1.2084  0.6508
  405SOL     MW 1620   0.498   2.386   1.512 -0.2185 -0.5709 -0.1411
  406SOL     OW 1621   0.347   2.381   1.096 -0.1283  0.8030 -0.4136
  406SOL    HW1 1622   0.249   2.402   1.081 -2.5475  0.1522 -0.5475
  406SOL    HW2 1623   0.351   2.292   1.129  1.5240  2.5627  0.8340
  406SOL     MW 1624   0.335   2.372   1.099 -0.2295  0.9493 -0.2667
  407SOL     OW 1625   0.024   2.758   1.120 -0.0872 -0.2182  0.2966
  407SOL    HW1 1626   0.069   2.735   1.200  1.6750 -0.4318  2.2782
  407SOL    HW2 1627   0.083   2.718   1.051 -1.9161  0.5707 -0.0251
  407SOL     MW 1628   0.038   2.750   1.121 -0.0960 -0.1423  0.5156
  408SOL     OW 1629   2.075   2.054   0.712  0.2179 -0.1102  0.7565
  408SOL    HW1 1630   2.020   2.125   0.738  0.6319 -2.1992  1.1713
  408SOL    HW2 1631   2.037   2.013   0.636 -2.6938  0.0007 -1.5126
  408SOL     MW 1632   2.063   2.058   0.705 -0.1117 -0.3712  0.5119
  409SOL     OW 1633   1.374  -0.002   0.913 -0.4622  0.2001  0.4608
  409SOL    HW1 1634   1.407   0.088   0.900  0.3485  1.2822  1.8281
  409SOL    HW2 1635   1.448  -0.046   0.957  3.0394 -0.4332 -2.1092
  409SOL     MW 1636   1.388   0.004   0.917  0.1067  0.2593  0.3021
  410SOL     OW 1637   1.120   2.409   1.063  0.2896  0.4436  0.4196
  410SOL    HW1 1638   1.030   2.419   1.022 -1.0954 -2.0244 -0.9131
  410SOL    HW2 1639   1.157   2.339   1.011 -2.4721 -0.7186  2.8776
  410SOL     MW 1640   1.113   2.401   1.051 -0.2575 -0.0354  0.5681
  411SOL     OW 1641   1.966   0.035   2.860 -0.2381 -0.3147  0.0572
  411SOL    HW1 1642   1.915  -0.008   2.791  0.5544  0.8728  1.4841
  411SOL    HW2 1643   1.917   0.020   2.946 -1.0238  0.2544  1.3728
  411SOL     MW 1644   1.953   0.027   2.862 -0.2372 -0.0829  0.4190
  412SOL     OW 1645   1.040   2.237   0.597 -0.5877  0.2768 -0.0815
  412SOL    HW1 1646   1.089   2.316   0.636 -2.2781 -0.6953  1.4528
  412SOL    HW2 1647   0.950   2.272   0.595 -0.2112  3.2758  1.1810
  412SOL     MW 1648   1.035   2.252   0.602 -0.7611  0.5442  0.2875
  413SOL     OW 1649   0.556   2.752   0.025  0.3567 -0.3388  0.0504
  413SOL    HW1 1650   0.603   2.666   0.031  1.9492  1.0251 -0.2351
  413SOL    HW2 1651   0.601   2.792  -0.055 -2.7153 -2.2844  0.8284
  413SOL     MW 1652   0.568   2.746   0.016  0.1615 -0.4155  0.1154
  414SOL     OW 1653   1.895   2.990   1.085  0.0969  0.1222 -0.2107
  414SOL    HW1 1654   1.851   2.964   1.001  1.3074 -0.9978 -0.8565
  414SOL    HW2 1655   1.979   2.953   1.076 -1.0083  0.7637  0.7781
  414SOL     MW 1656   1.900   2.982   1.073  0.1108  0.0591 -0.1654
  415SOL     OW 1657   1.730   2.574   1.130 -0.2875 -0.0661 -0.0006
  415SOL    HW1 1658   1.700   2.500   1.189 -0.8913 -0.3075 -2.3000
  415SOL    HW2 1659   1.801   2.613   1.186  1.7138  1.5892 -1.5521
  415SOL     MW 1660   1.736   2.570   1.145 -0.1031  0.1205 -0.5087
  416SOL     OW 1661   0.580   1.940   1.378 -0.6240  0.2527  0.1801
  416SOL    HW1 1662   0.523   2.007   1.343 -0.9825 -2.0515  1.5788
  416SOL    HW2 1663   0.553   1.850   1.345 -0.5088  0.7029  0.3246
  416SOL     MW 1664   0.569   1.937   1.369 -0.6561  0.0081  0.3837
  417SOL     OW 1665   0.958   3.004   2.029 -0.3401 -0.2238  0.1650
  417SOL    HW1 1666   0.889   3.011   2.099 -0.1334  0.8961  2.1899
  417SOL    HW2 1667   0.917   2.946   1.959 -0.4257 -2.1080 -1.4561
  417SOL     MW 1668   0.943   2.997   2.029 -0.3241 -0.3247  0.2183
  418SOL     OW 1669   0.602   2.965   0.176 -0.3662 -0.9024 -0.2581
  418SOL    HW1 1670   0.700   2.967   0.156  0.2948  0.0241 -1.9223
  418SOL    HW2 1671   0.580   2.883   0.130  0.9791  1.8812  1.7734
  418SOL     MW 1672   0.612   2.954   0.168 -0.1014 -0.4129 -0.2097
  419SOL     OW 1673   0.459   2.634   1.405  0.2619  0.1040  0.1983
  419SOL    HW1 1674   0.510   2.718   1.419  0.2888  0.6736  2.1252
  419SOL    HW2 1675   0.482   2.624   1.311 -1.3208 -3.0655 -1.8400
  419SOL     MW 1676   0.468   2.644   1.395  0.0566 -0.2390  0.1836
  420SOL     OW 1677   0.816   2.167   0.995  0.4026 -0.0947  0.5539
  420SOL    HW1 1678   0.752   2.182   1.064  3.2534 -0.0238 -0.3183
  420SOL    HW2 1679   0.858   2.247   0.970 -2.0735 -1.2652  0.7772
  420SOL     MW 1680   0.813   2.180   1.001  0.4520 -0.2398  0.4683
  421SOL     OW 1681   2.938   0.075   0.040 -0.0307  0.4944 -0.4994
  421SOL    HW1 1682   2.890   0.038  -0.032  0.6113  0.9539 -1.7145
  421SOL    HW2 1683   2.982  -0.008   0.072  1.1183 -1.4606 -0.3711
  421SOL     MW 1684   2.938   0.059   0.035  0.2056  0.2971 -0.6428
  422SOL     OW 1685   0.880   2.416   0.926  0.5935  0.0647 -0.4395
  422SOL    HW1 1686   0.801   2.432   0.978  0.1136  2.4702 -1.1273
  422SOL    HW2 1687   0.863   2.437   0.838 -0.3191  0.0781  0.7391
  422SOL     MW 1688   0.868   2.421   0.921  0.4098  0.3838 -0.3747
  423SOL     OW 1689   1.520   0.156   0.496  0.2690  0.4600  0.1808
  423SOL    HW1 1690   1.538   0.147   0.403  0.4955  2.8581  1.3540
  423SOL    HW2 1691   1.505   0.248   0.525 -2.7410 -2.5319 -0.2212
  423SOL     MW 1692   1.520   0.167   0.488 -0.0982  0.3817  0.2825
  424SOL     OW 1693   0.664   2.234   1.216  0.9188  0.2398 -0.6611
  424SOL    HW1 1694   0.572   2.213   1.203 -1.1649  0.1364 -0.9734
  424SOL    HW2 1695   0.670   2.259   1.306  0.0097  1.3873  0.4912
  424SOL     MW 1696   0.652   2.235   1.226  0.5240  0.3776 -0.5503
  425SOL     OW 1697   1.707   2.842   1.940  0.0812  0.4570  0.9463
  425SOL    HW1 1698   1.732   2.862   1.846 -0.1514  0.4434 -2.8548
  425SOL    HW2 1699   1.752   2.755   1.962 -0.6037 -1.1966 -1.2503
  425SOL     MW 1700   1.716   2.833   1.931 -0.0399  0.2370  0.1550
  426SOL     OW 1701   0.808   1.665   1.928  0.2502  0.7049 -0.2512
  426SOL    HW1 1702   0.771   1.663   1.841  1.0064  0.9574 -0.5035
  426SOL    HW2 1703   0.783   1.747   1.971  0.1242 -3.2413  0.3122
  426SOL     MW 1704   0.800   1.675   1.922  0.3334  0.2176 -0.2102
  427SOL     OW 1705   0.353   1.533   1.902 -0.2573 -0.1242 -0.0104
  427SOL    HW1 1706   0.409   1.459   1.895 -1.9154  2.4157 -0.5033
  427SOL    HW2 1707   0.274   1.499   1.954  1.8210  0.5194  3.1688
  427SOL     MW 1708   0.350   1.519   1.908 -0.2018  0.2958  0.3441
  428SOL     OW 1709   0.571   2.540   1.161  0.3617  0.0892  0.4349
  428SOL    HW1 1710   0.642   2.497   1.209  0.9958 -1.1515 -0.9546
  428SOL    HW2 1711   0.507   2.470   1.146  0.1871 -0.3765  1.6446
  428SOL     MW 1712   0.572   2.525   1.165  0.4223 -0.1359  0.4112
  429SOL     OW 1713   1.306   2.629   1.063  0.1157 -0.3383  0.1572
  429SOL    HW1 1714   1.242   2.560   1.078 -1.2098  0.2037  1.5607
  429SOL    HW2 1715   1.264   2.694   1.001 -1.7704  2.0372  0.9101
  429SOL     MW 1716   1.292   2.628   1.057 -0.3080  0.0467  0.4417
  430SOL     OW 1717   1.151   2.708   0.668  0.4733  0.3874 -0.0682
  430SOL    HW1 1718   1.164   2.611   0.677 -1.1137 -0.3137 -1.1479
  430SOL    HW2 1719   1.093   2.716   0.597  1.0314 -1.0742  1.7413
  430SOL     MW 1720   1.145   2.696   0.660  0.3376  0.1021  0.0281
  431SOL     OW 1721   0.311   1.889   1.129 -0.9939 -0.2290 -0.1973
  431SOL    HW1 1722   0.375   1.810   1.142 -2.0776 -1.5903  0.0665
  431SOL    HW2 1723   0.291   1.909   1.037 -0.3984  0.4219  0.3374
  431SOL     MW 1724   0.317   1.881   1.118 -1.0583 -0.3227 -0.0920
  432SOL     OW 1725   0.013   0.092   1.146 -0.2683 -0.8338 -0.5553
  432SOL    HW1 1726   0.056   0.090   1.238  1.9682 -2.9058 -0.1793
  432SOL    HW2 1727  -0.068   0.038   1.157 -0.6085  2.3907  0.8004
  432SOL     MW 1728   0.008   0.084   1.159 -0.0181 -0.6817 -0.3268
  433SOL     OW 1729   0.611   2.857   1.424  0.4240 -0.5242 -0.4894
  433SOL    HW1 1730   0.624   2.854   1.524 -0.3126  1.4121 -0.6947
  433SOL    HW2 1731   0.695   2.853   1.380 -0.3415 -1.5323 -0.8940
  433SOL     MW 1732   0.624   2.856   1.431  0.2258 -0.4017 -0.5698
  434SOL     OW 1733   1.586   2.839   1.500  0.0352  0.4004 -0.6065
  434SOL    HW1 1734   1.494   2.874   1.492 -1.2534 -1.7977 -1.0626
  434SOL    HW2 1735   1.583   2.786   1.421  0.7135 -0.0832 -3.1061
  434SOL     MW 1736   1.573   2.836   1.488 -0.0453  0.0465 -0.9965
  435SOL     OW 1737   2.826   1.776   0.179 -0.3567  0.4198  0.1801
  435SOL    HW1 1738   2.880   1.851   0.156 -1.3626  0.2931  0.0634
  435SOL    HW2 1739   2.838   1.714   0.102  0.0539 -1.8265 -0.8851
  435SOL     MW 1740   2.835   1.778   0.166 -0.4352  0.1067  0.0242
  436SOL     OW 1741   1.297   2.740   0.299 -0.5981  0.3537  0.0781
  436SOL    HW1 1742   1.349   2.698   0.367 -0.5201  0.2377 -0.9924
  436SOL    HW2 1743   1.261   2.821   0.340 -3.7905  1.5183  0.6919
  436SOL     MW 1744   1.299   2.745   0.313 -1.0090  0.4921  0.0179
  437SOL     OW 1745   0.881   2.897   1.349 -0.1058  0.0255  0.1589
  437SOL    HW1 1746   0.916   2.975   1.306  0.4615 -0.6719 -0.3582
  437SOL    HW2 1747   0.917   2.825   1.292 -1.7748 -1.1958 -1.1050
  437SOL     MW 1748   0.891   2.898   1.336 -0.2512 -0.2276 -0.0761
  438SOL     OW 1749   0.896   2.618   1.941 -0.3849 -0.2368  0.7150
  438SOL    HW1 1750   0.853   2.594   2.019 -0.4138  0.0807 -0.6578
  438SOL    HW2 1751   0.841   2.566   1.883  1.0100 -1.9456  0.4528
  438SOL     MW 1752   0.883   2.608   1.944 -0.2047 -0.4203  0.4993
  439SOL     OW 1753   1.098   2.123   0.358 -0.2885 -0.2988  0.0978
  439SOL    HW1 1754   1.092   2.149   0.449 -1.3286  0.0460 -1.9501
  439SOL    HW2 1755   1.128   2.197   0.304  1.0576  0.7415  0.3382
  439SOL     MW 1756   1.101   2.136   0.363 -0.2481 -0.1160 -0.1407
  440SOL     OW 1757   1.638   2.898   3.042  0.7568  0.4267  0.1983
  440SOL    HW1 1758   1.587   2.893   3.119 -1.0226 -2.7594 -0.9739
  440SOL    HW2 1759   1.679   2.809   3.035  1.9491 -1.6567 -1.3829
  440SOL     MW 1760   1.636   2.885   3.051  0.6793 -0.2685 -0.1650
  441SOL     OW 1761   0.338   2.612   0.527  0.3401 -0.1502  0.0787
  441SOL    HW1 1762   0.336   2.584   0.431  1.9454 -0.5189  0.3777
  441SOL    HW2 1763   0.380   2.696   0.523  0.4005  1.3385 -1.7822
  441SOL     MW 1764   0.343   2.620   0.514  0.5598 -0.0024 -0.1274
  442SOL     OW 1765   3.053   2.343   0.620 -0.1923  0.3157  0.2714
  442SOL    HW1 1766   3.080   2.438   0.631  1.6096 -0.2161 -0.0842
  442SOL    HW2 1767   2.965   2.341   0.656  0.6073  0.2551  1.2357
  442SOL     MW 1768   3.045   2.355   0.626  0.1510  0.2375  0.3517
  443SOL     OW 1769   1.386   1.773   1.849 -1.4023 -0.1959  0.4112
  443SOL    HW1 1770   1.358   1.822   1.769 -0.9718 -1.0532 -1.5682
  443SOL    HW2 1771   1.333   1.700   1.837  0.0496 -0.1234 -1.1812
  443SOL     MW 1772   1.375   1.770   1.837 -1.1539 -0.2994 -0.0601
  444SOL     OW 1773   0.915   2.581   1.551  0.1984 -0.2284 -0.5564
  444SOL    HW1 1774   0.966   2.505   1.538 -0.5353 -2.3486  3.4747
  444SOL    HW2 1775   0.842   2.553   1.609  1.9100  0.8658  1.3148
  444SOL     MW 1776   0.912   2.567   1.557  0.3274 -0.3638  0.2224
  445SOL     OW 1777   0.935   0.064   1.271  0.3360 -0.3163 -0.7276
  445SOL    HW1 1778   0.895   0.151   1.297  0.8806  1.5089  2.8796
  445SOL    HW2 1779   1.021   0.089   1.233  0.2215  0.4661 -0.7561
  445SOL     MW 1780   0.941   0.079   1.270  0.3927  0.0278 -0.2554
  446SOL     OW 1781   2.683   2.830   1.084  0.1280  0.4896  0.2563
  446SOL    HW1 1782   2.649   2.884   1.008 -0.2892  1.5096 -0.3846
  446SOL    HW2 1783   2.739   2.757   1.047  1.9646  2.7234 -0.8952
  446SOL     MW 1784   2.686   2.828   1.069  0.3153  0.9189  0.0198
  447SOL     OW 1785   3.022   2.060   1.672 -0.1636  0.2032 -0.6436
  447SOL    HW1 1786   3.073   1.992   1.719  0.0182  0.5481 -0.0154
  447SOL    HW2 1787   2.962   2.001   1.627  1.9106  0.8666 -2.0946
  447SOL     MW 1788   3.021   2.044   1.673  0.1341  0.3362 -0.7522
  448SOL     OW 1789   1.681   2.371   1.684 -0.3844 -0.2198 -0.5688
  448SOL    HW1 1790   1.605   2.319   1.654 -1.0757  0.3041  0.2006
  448SOL    HW2 1791   1.654   2.465   1.679  0.2196 -4.4536 -1.4963
  448SOL     MW 1792   1.668   2.377   1.680 -0.3959 -0.7092 -0.5896
  449SOL     OW 1793   0.769   2.897   0.394  0.1182 -1.1984 -0.6270
  449SOL    HW1 1794   0.694   2.884   0.335 -0.1833  0.1514  0.7512
  449SOL    HW2 1795   0.730   2.909   0.482 -0.7042 -1.2879 -3.4136
  449SOL     MW 1796   0.754   2.897   0.398 -0.0301 -1.0321 -0.8128
  450SOL     OW 1797   1.185   2.432   0.705  0.2900 -0.1914 -0.2102
  450SOL    HW1 1798   1.187   2.372   0.783  0.9746  1.8757 -0.6445
  450SOL    HW2 1799   1.281   2.444   0.676 -1.0927 -0.0892  1.8599
  450SOL     MW 1800   1.198   2.426   0.711  0.1979  0.0948  0.0056
  451SOL     OW 1801   0.594   2.011   1.637  0.4440  0.0911 -0.3362
  451SOL    HW1 1802   0.650   2.083   1.634  0.5454  0.9145 -0.5008
  451SOL    HW2 1803   0.568   1.990   1.545  1.1815  2.6633 -2.0936
  451SOL     MW 1804   0.598   2.018   1.624  0.5547  0.5391 -0.5898
  452SOL     OW 1805   0.279   2.745   0.057  0.2695  0.2071 -0.3499
  452SOL    HW1 1806   0.366   2.764   0.037 -2.1454 -1.3852  1.7133
  452SOL    HW2 1807   0.226   2.743  -0.027 -3.7519  0.3800  1.0874
  452SOL     MW 1808   0.283   2.747   0.043 -0.5797  0.0198  0.1120
  453SOL     OW 1809   0.404   3.008   1.718 -0.7301  0.1472  0.3016
  453SOL    HW1 1810   0.503   3.016   1.719  1.1017  2.1858  1.6713
  453SOL    HW2 1811   0.372   3.044   1.633 -0.7106  1.7885 -0.5795
  453SOL     MW 1812   0.412   3.014   1.707 -0.4858  0.6327  0.3661
  454SOL     OW 1813   1.028   2.698   1.226  0.1649 -0.1524  0.2796
  454SOL    HW1 1814   0.977   2.620   1.223  1.1320 -1.0303  0.3498
  454SOL    HW2 1815   1.001   2.744   1.147  0.9546 -0.8893 -1.1536
  454SOL     MW 1816   1.018   2.694   1.216  0.3967 -0.3654  0.0998
  455SOL     OW 1817   1.526   2.925   0.202 -0.2304 -0.0993 -0.5075
  455SOL    HW1 1818   1.587   2.910   0.273  0.8968  1.1491  0.1322
  455SOL    HW2 1819   1.447   2.874   0.227 -2.8048 -1.3008 -0.0429
  455SOL     MW 1820   1.524   2.916   0.215 -0.4214 -0.0931 -0.3618
  456SOL     OW 1821   2.883   0.364   1.323  0.4798 -0.1936  0.0679
  456SOL    HW1 1822   2.827   0.289   1.292 -0.3585 -2.0231  1.6523
  456SOL    HW2 1823   2.959   0.381   1.267  0.3581 -0.5001  0.2333
  456SOL     MW 1824   2.885   0.357   1.312  0.3531 -0.4754  0.2988
  457SOL     OW 1825   0.923   1.576   2.999  0.3467 -0.0642  0.2019
  457SOL    HW1 1826   0.859   1.567   3.068  1.8741 -0.7425 -0.9122
  457SOL    HW2 1827   0.979   1.494   3.008 -1.6039  0.2335  1.2874
  457SOL     MW 1828   0.922   1.564   3.009  0.2909 -0.1144  0.1981
  458SOL     OW 1829   1.465   1.410   0.601  0.1364 -0.0460 -1.0632
  458SOL    HW1 1830   1.382   1.444   0.642 -1.2462 -1.9854  1.2070
  458SOL    HW2 1831   1.435   1.367   0.515 -0.3792 -1.3731  1.4743
  458SOL     MW 1832   1.450   1.409   0.595 -0.1140 -0.4770 -0.4289
  459SOL     OW 1833   1.558   0.116   0.232  0.0951 -0.2487 -0.2352
  459SOL    HW1 1834   1.539   0.024   0.211 -0.2506 -1.4652  0.6826
  459SOL    HW2 1835   1.502   0.166   0.167  0.6027  1.7613  1.3650
  459SOL     MW 1836   1.548   0.111   0.220  0.1165 -0.1440  0.0970
  460SOL     OW 1837   1.794   2.145   0.656 -0.0434 -0.0405  0.2639
  460SOL    HW1 1838   1.700   2.152   0.683  3.5071 -2.6090  0.9965
  460SOL    HW2 1839   1.803   2.060   0.611  3.0261 -0.2570 -1.5790
  460SOL     MW 1840   1.783   2.134   0.654  0.8300 -0.4080  0.1174
  461SOL     OW 1841   0.507   2.427   0.622 -0.7769  0.1387  0.0995
  461SOL    HW1 1842   0.457   2.483   0.560  2.0844 -0.3596 -1.7097
  461SOL    HW2 1843   0.464   2.454   0.706  0.2023  0.3511 -1.1260
  461SOL     MW 1844   0.495   2.438   0.625 -0.2702  0.1010 -0.3009
  462SOL     OW 1845   0.327   0.246   1.273 -0.3275  0.2250  0.3875
  462SOL    HW1 1846   0.371   0.165   1.220  1.6625 -1.1853 -1.0482
  462SOL    HW2 1847   0.405   0.284   1.312 -2.7508 -2.0347 -1.8189
  462SOL     MW 1848   0.343   0.240   1.271 -0.3846 -0.2592 -0.0930
  463SOL     OW 1849   0.940   3.093   0.679 -0.5641 -0.2670  0.0753
  463SOL    HW1 1850   0.950   3.087   0.584 -0.1458  0.8584 -1.0018
  463SOL    HW2 1851   0.852   3.122   0.692  1.8018 -2.0609  0.6654
  463SOL     MW 1852   0.930   3.096   0.668 -0.1968 -0.3552  0.0110
  464SOL     OW 1853   0.768   3.033   2.229  0.4656  0.7784 -0.0272
  464SOL    HW1 1854   0.727   2.934   2.218 -2.8002 -0.7652  1.0910
  464SOL    HW2 1855   0.779   3.046   2.324  1.8428 -1.9083  2.7914
  464SOL     MW 1856   0.764   3.022   2.240  0.2164  0.2203  0.4922
  465SOL     OW 1857   0.670   0.305   0.509 -0.4941  0.1944 -0.4046
  465SOL    HW1 1858   0.650   0.257   0.591 -0.5039 -2.4732 -1.1647
  465SOL    HW2 1859   0.710   0.239   0.452 -0.3166 -1.5044 -1.1882
  465SOL     MW 1860   0.673   0.290   0.512 -0.4720 -0.3817 -0.6083
  466SOL     OW 1861   1.080   2.021   0.743 -0.0616  0.1457  0.2007
  466SOL    HW1 1862   1.069   1.947   0.685 -1.2773 -0.8682  1.1398
  466SOL    HW2 1863   1.058   2.102   0.690 -0.7836  1.2662  0.5733
  466SOL     MW 1864   1.076   2.022   0.728 -0.3172  0.1598  0.3738
  467SOL     OW 1865   1.264   2.254   0.891  0.3083  0.0934 -0.6862
  467SOL    HW1 1866   1.360   2.284   0.888  2.1590 -3.2368 -0.5177
  467SOL    HW2 1867   1.261   2.160   0.881 -2.4900  0.5147  1.4002
  467SOL     MW 1868   1.277   2.245   0.889  0.1833 -0.2904 -0.3887
  468SOL     OW 1869   0.359   2.585   2.007  0.0981  0.2504 -0.4950
  468SOL    HW1 1870   0.397   2.538   1.927 -0.2052 -2.0355  0.8462
  468SOL    HW2 1871   0.390   2.679   1.995  0.7277 -0.9390  1.0337
  468SOL     MW 1872   0.368   2.591   1.995  0.1411 -0.2081 -0.1163
  469SOL     OW 1873   0.385   2.128   1.776 -0.1606  0.1486 -0.2126
  469SOL    HW1 1874   0.314   2.061   1.788 -0.7337 -0.1557  0.2216
  469SOL    HW2 1875   0.445   2.096   1.711  0.1005  0.0153  0.1967
  469SOL     MW 1876   0.384   2.115   1.769 -0.2017  0.0908 -0.1013
  470SOL     OW 1877   3.061   2.618   0.137  0.2072  0.2663 -0.2228
  470SOL    HW1 1878   2.987   2.584   0.187  0.2714 -1.2622 -0.8751
  470SOL    HW2 1879   3.042   2.600   0.046 -0.7178 -1.8151 -0.6276
  470SOL     MW 1880   3.049   2.611   0.132  0.0936 -0.2100 -0.3623
  471SOL     OW 1881   1.225   2.720   1.389  0.1084 -0.0264 -0.1193
  471SOL    HW1 1882   1.171   2.727   1.468 -1.8432  0.8552 -0.1848
  471SOL    HW2 1883   1.161   2.713   1.316 -0.3662 -0.6672 -1.7995
  471SOL     MW 1884   1.209   2.720   1.390 -0.2117  0.0054 -0.3496
  472SOL     OW 1885   2.892   2.060   0.379  0.6244 -0.1526 -0.2400
  472SOL    HW1 1886   2.905   2.014   0.290  0.3356  1.9209  0.1413
  472SOL    HW2 1887   2.848   1.983   0.419  0.2744 -0.9327  0.9352
  472SOL     MW 1888   2.888   2.044   0.372  0.5401  0.0180 -0.0346
  473SOL     OW 1889   0.786   2.487   1.307 -0.0829 -0.8323  1.0434
  473SOL    HW1 1890   0.871   2.441   1.320  1.7487 -0.1082  0.6641
  473SOL    HW2 1891   0.772   2.514   1.397 -1.1899  0.3888 -4.0898
  473SOL     MW 1892   0.795   2.485   1.321  0.0127 -0.5756  0.3161
  474SOL     OW 1893   0.771   2.270   1.695  0.2738  0.2716 -0.1744
  474SOL    HW1 1894   0.839   2.274   1.762  1.1774  1.8147 -0.1965
  474SOL    HW2 1895   0.810   2.237   1.619 -1.8969 -1.0003  0.8143
  474SOL     MW 1896   0.785   2.266   1.694  0.1066  0.3074 -0.0468
  475SOL     OW 1897   1.616   0.060   1.469  0.0617 -0.1336  0.3410
  475SOL    HW1 1898   1.531   0.073   1.429 -2.6711  0.5694  1.8638
  475SOL    HW2 1899   1.628  -0.034   1.470  3.0335 -0.1957 -0.4217
  475SOL     MW 1900   1.606   0.049   1.464  0.0932 -0.0490  0.4413
  476SOL     OW 1901   1.501   2.631   0.858  0.0659 -0.4959 -0.0023
  476SOL    HW1 1902   1.436   2.616   0.936 -1.4493 -0.6866  1.8144
  476SOL    HW2 1903   1.514   2.727   0.845  0.0677  1.9082  3.1622
  476SOL     MW 1904   1.494   2.642   0.867 -0.1338 -0.2039  0.6550
  477SOL     OW 1905   0.822   2.506   0.671 -0.3959 -0.0879 -0.0794
  477SOL    HW1 1906   0.869   2.579   0.623  1.3200  2.5283 -2.0179
  477SOL    HW2 1907   0.774   2.450   0.607 -0.9954  0.3461 -1.2747
  477SOL     MW 1908   0.822   2.508   0.656 -0.2486  0.3145 -0.4928
  478SOL     OW 1909   0.178   2.643   0.895 -0.4910  0.2465 -0.2187
  478SOL    HW1 1910   0.223   2.728   0.884  0.6289  3.0424  2.3596
  478SOL    HW2 1911   0.256   2.604   0.871 -0.1018  0.1572  2.2300
  478SOL     MW 1912   0.194   2.649   0.890 -0.2919  0.6036  0.4446
  479SOL     OW 1913   1.433   1.919   1.299 -0.2702 -0.3524 -0.1115
  479SOL    HW1 1914   1.390   1.978   1.360 -1.2451 -0.4781 -0.7122
  479SOL    HW2 1915   1.514   1.896   1.343 -1.7387 -0.6331 -1.6050
  479SOL     MW 1916   1.438   1.924   1.313 -0.5926 -0.4060 -0.3878
  480SOL     OW 1917   1.845   2.386   1.381 -0.1030  0.1710  0.0351
  480SOL    HW1 1918   1.867   2.306   1.430 -0.8376 -0.3219  0.7840
  480SOL    HW2 1919   1.901   2.382   1.307 -0.9478  0.2772 -0.1594
  480SOL     MW 1920   1.855   2.375   1.377 -0.3114  0.1200  0.1082
  481SOL     OW 1921   1.178   0.089   1.105 -0.1854 -0.7509  0.0528
  481SOL    HW1 1922   1.229   0.048   1.039  0.3091  1.1664  1.5772
  481SOL    HW2 1923   1.197   0.183   1.087  1.9839  0.3722 -1.6545
  481SOL     MW 1924   1.187   0.096   1.094  0.1661 -0.3498  0.0287
  482SOL     OW 1925   0.965   0.019   0.403  0.0494 -0.2278 -0.0086
  482SOL    HW1 1926   0.899  -0.041   0.375  0.4890 -1.6013 -0.9250
  482SOL    HW2 1927   0.954   0.099   0.354 -0.1998  1.0175  2.4502
  482SOL     MW 1928   0.955   0.021   0.393  0.0745 -0.2447  0.1949
  483SOL     OW 1929   0.409   2.881   0.514 -0.5098  0.4728 -0.3154
  483SOL    HW1 1930   0.332   2.885   0.453 -2.3256 -0.0453  0.5870
  483SOL    HW2 1931   0.367   2.938   0.588 -0.2782 -0.0497 -0.3067
  483SOL     MW 1932   0.393   2.889   0.516 -0.7188  0.3355 -0.1952
  484SOL     OW 1933   1.682   1.880   1.414 -0.1945 -0.6498 -0.3419
  484SOL    HW1 1934   1.730   1.955   1.382 -2.7152  0.3192 -2.2176
  484SOL    HW2 1935   1.687   1.884   1.509  1.2824  1.1871 -1.3666
  484SOL     MW 1936   1.689   1.891   1.422 -0.3322 -0.2796 -0.7246
  485SOL     OW 1937   0.560   2.347   0.291  0.0860  0.7058 -0.8032
  485SOL    HW1 1938   0.620   2.371   0.355  0.6604  1.4099  1.4128
  485SOL    HW2 1939   0.466   2.366   0.304 -2.4945 -0.2257  1.4281
  485SOL     MW 1940   0.555   2.353   0.301 -0.1787  0.6758 -0.2164
  486SOL     OW 1941   0.103   2.466   1.398  0.5943  0.1172 -0.2846
  486SOL    HW1 1942   0.117   2.549   1.353 -2.4634 -2.8287 -0.6173
  486SOL    HW2 1943   0.095   2.484   1.489  1.0625 -0.1110 -1.7289
  486SOL     MW 1944   0.104   2.479   1.404  0.2527 -0.3016 -0.5190
  487SOL     OW 1945   1.266   1.598   1.067 -0.1580  0.1454  0.9838
  487SOL    HW1 1946   1.240   1.694   1.087  2.7549  2.3972 -0.5895
  487SOL    HW2 1947   1.363   1.605   1.044  2.3371 -2.3106 -0.0507
  487SOL     MW 1948   1.275   1.612   1.067  0.5555  0.1185  0.6397
  488SOL     OW 1949   1.573   1.856   0.576  0.9359  0.0861  0.0688
  488SOL    HW1 1950   1.658   1.861   0.535  0.1533  0.2500  1.0372
  488SOL    HW2 1951   1.537   1.942   0.565  0.5024 -0.3079 -0.4983
  488SOL     MW 1952   1.580   1.868   0.569  0.7755  0.0557  0.1218
  489SOL     OW 1953   0.772   0.800   0.491 -0.1069  0.0747  0.3516
  489SOL    HW1 1954   0.818   0.721   0.460  1.2517 -0.7463 -0.2915
  489SOL    HW2 1955   0.759   0.791   0.583  0.8477  1.4975  0.5947
  489SOL     MW 1956   0.776   0.789   0.499  0.1983  0.1541  0.2988
  490SOL     OW 1957   1.407   2.108   0.430 -0.0811  0.0479 -0.0394
  490SOL    HW1 1958   1.462   2.183   0.396  2.1759  0.2856 -2.4423
  490SOL    HW2 1959   1.319   2.141   0.431  2.1074 -0.2771  1.3971
  490SOL     MW 1960   1.403   2.122   0.425  0.5055  0.0364 -0.1669
  491SOL     OW 1961   1.200   2.970   0.418 -0.3403  0.3956  0.3265
  491SOL    HW1 1962   1.250   3.002   0.493 -1.3828 -0.0525  0.5252
  491SOL    HW2 1963   1.129   3.027   0.398 -1.0844 -0.3248 -0.4523
  491SOL     MW 1964   1.197   2.982   0.425 -0.5760  0.2414  0.2500
  492SOL     OW 1965   1.497   2.136   0.693  0.9858 -0.1213  0.4721
  492SOL    HW1 1966   1.445   2.135   0.609 -2.8108  2.6721 -0.1676
  492SOL    HW2 1967   1.446   2.072   0.747  1.2696 -0.7179  1.8828
  492SOL     MW 1968   1.484   2.128   0.689  0.5223  0.1686  0.5738
  493SOL     OW 1969   0.157   2.929   0.405 -0.5425 -0.5647 -0.2199
  493SOL    HW1 1970   0.114   2.990   0.466  0.2641 -1.3109 -0.4259
  493SOL    HW2 1971   0.174   2.983   0.322  1.4341  0.9577  0.6666
  493SOL     MW 1972   0.154   2.944   0.402 -0.1753 -0.4623 -0.1301
  494SOL     OW 1973   0.441   2.410   1.788  0.4695  0.2534 -0.1013
  494SOL    HW1 1974   0.413   2.313   1.797  1.0081 -1.2882 -0.9080
  494SOL    HW2 1975   0.479   2.403   1.704 -4.0390 -0.2183  0.3659
  494SOL     MW 1976   0.442   2.396   1.778 -0.0543 -0.0122 -0.1461
  495SOL     OW 1977   2.922   1.643   2.719 -0.4025  0.3110 -0.3908
  495SOL    HW1 1978   2.912   1.708   2.786  1.0975 -0.3152  0.0290
  495SOL    HW2 1979   2.898   1.567   2.771 -1.0344  1.1398 -0.6835
  495SOL     MW 1980   2.917   1.641   2.735 -0.2880  0.3377 -0.3740
  496SOL     OW 1981   2.822   2.294   2.644  0.7395  0.2026  0.1864
  496SOL    HW1 1982   2.848   2.207   2.669  2.4403 -0.6762 -0.8910
  496SOL    HW2 1983   2.895   2.349   2.673  1.6231  1.0323 -0.7928
  496SOL     MW 1984   2.835   2.290   2.651  1.0805  0.1961 -0.0849
  497SOL     OW 1985   1.497   2.301   2.492 -0.0339  0.0741 -0.0727
  497SOL    HW1 1986   1.489   2.255   2.409 -1.3129 -0.2022  1.3544
  497SOL    HW2 1987   1.438   2.254   2.558  2.0014 -0.7623  0.6410
  497SOL     MW 1988   1.488   2.289   2.490  0.0659 -0.0727  0.2098
  498SOL     OW 1989   1.598   2.747   2.232  0.1877 -0.2537  0.6000
  498SOL    HW1 1990   1.615   2.669   2.173  0.3068 -1.5661 -2.4307
  498SOL    HW2 1991   1.653   2.730   2.308 -1.5977 -0.9010 -1.5846
  498SOL     MW 1992   1.607   2.734   2.234 -0.0322 -0.5123 -0.0881
  499SOL     OW 1993   0.927   0.149   0.008  0.4675  0.0521 -0.3278
  499SOL    HW1 1994   0.871   0.182   0.080 -1.6310  1.0702 -0.7327
  499SOL    HW2 1995   0.916   0.057   0.010 -2.7267 -0.7149  0.4285
  499SOL     MW 1996   0.918   0.141   0.018 -0.2308  0.0853 -0.2814
  500SOL     OW 1997   1.035   2.448   2.794 -0.4682 -0.3678 -0.1791
  500SOL    HW1 1998   1.089   2.466   2.871 -0.4465 -0.4245 -0.7462
  500SOL    HW2 1999   0.956   2.498   2.803  1.1510  1.1246 -1.0555
  500SOL     MW 2000   1.032   2.457   2.805 -0.2517 -0.1784 -0.3696
  501SOL     OW 2001   1.732   2.220   3.075  0.3073  0.1108 -0.2893
  501SOL    HW1 2002   1.678   2.298   3.088  0.4121 -0.5021 -2.3417
  501SOL    HW2 2003   1.815   2.242   3.117 -0.0622 -0.1171 -0.1343
  501SOL     MW 2004   1.736   2.234   3.082  0.2724 -0.0002 -0.5396
  502SOL     OW 2005   0.136   2.787   2.924 -0.4953  0.0748  0.1259
  502SOL    HW1 2006   0.058   2.731   2.925 -2.2220  1.4304  1.8696
  502SOL    HW2 2007   0.129   2.850   2.853  1.3791  1.6923 -1.2828
  502SOL     MW 2008   0.124   2.788   2.915 -0.4758  0.4671  0.1701
  503SOL     OW 2009   1.155   2.611   2.084 -0.3072  0.1949 -0.4254
  503SOL    HW1 2010   1.215   2.582   2.007 -1.6008 -0.7666 -2.5010
  503SOL    HW2 2011   1.068   2.620   2.046  0.4727 -1.1189 -0.5989
  503SOL     MW 2012   1.151   2.608   2.069 -0.3750 -0.1053 -0.7221
  504SOL     OW 2013   0.085   2.648   2.066  0.0718  0.0529 -0.3826
  504SOL    HW1 2014   0.172   2.609   2.061 -0.3246 -1.7147  0.6258
  504SOL    HW2 2015   0.037   2.588   2.124 -0.4628 -0.0560  0.6325
  504SOL     MW 2016   0.090   2.635   2.073 -0.0510 -0.1947 -0.1157
  505SOL     OW 2017   1.642   2.677   2.738 -0.3795  0.2548 -0.1034
  505SOL    HW1 2018   1.667   2.695   2.641 -0.8968 -0.0394 -1.4510
  505SOL    HW2 2019   1.583   2.752   2.757  0.8567 -0.1706 -0.4859
  505SOL     MW 2020   1.638   2.690   2.727 -0.2847  0.1599 -0.3316
  506SOL     OW 2021   1.589   0.037   2.845  0.5459  0.4167 -0.1595
  506SOL    HW1 2022   1.609  -0.024   2.921  1.2886 -0.4251  2.6514
  506SOL    HW2 2023   1.646   0.005   2.773  2.5500 -0.1095 -1.0015
  506SOL     MW 2024   1.599   0.025   2.846  0.9083  0.2362  0.1003
  507SOL     OW 2025   0.872   2.685   2.849  0.2317  0.3186  0.1062
  507SOL    HW1 2026   0.875   2.754   2.784 -3.1298 -1.5384  0.1816
  507SOL    HW2 2027   0.777   2.673   2.858  0.5217 -1.1656 -0.3947
  507SOL     MW 2028   0.860   2.693   2.842 -0.1736 -0.1223  0.0500
  508SOL     OW 2029   1.247   2.116   2.530  0.1226 -0.1085 -0.3276
  508SOL    HW1 2030   1.295   2.128   2.615  1.2953  0.4210  1.6614
  508SOL    HW2 2031   1.170   2.165   2.555  4.0536  1.0154 -2.5901
  508SOL     MW 2032   1.243   2.124   2.545  0.7959  0.1096 -0.3637
  509SOL     OW 2033   0.606   2.619   2.810  0.3599  0.1616 -0.4499
  509SOL    HW1 2034   0.614   2.562   2.739  3.2379  0.5874  1.6065
  509SOL    HW2 2035   0.559   2.693   2.768 -0.8769  1.2075 -1.1486
  509SOL     MW 2036   0.601   2.621   2.795  0.5765  0.3557 -0.2708
  510SOL     OW 2037   1.546   2.602   1.666  1.0538  0.0397 -0.2737
  510SOL    HW1 2038   1.570   2.698   1.636  0.2323  0.8854  1.6880
  510SOL    HW2 2039   1.455   2.599   1.706 -2.3837 -2.7803  1.2745
  510SOL     MW 2040   1.537   2.614   1.667  0.4919 -0.2208  0.1894
  511SOL     OW 2041   0.347   2.593   2.548  0.8435  0.2723 -0.0339
  511SOL    HW1 2042   0.436   2.566   2.576 -0.6126  2.1274 -1.2014
  511SOL    HW2 2043   0.346   2.556   2.457  1.9971  0.8741 -0.6570
  511SOL     MW 2044   0.358   2.584   2.540  0.8036  0.5965 -0.2701
  512SOL     OW 2045   1.013   2.024   2.886  0.1777  0.3683 -0.1276
  512SOL    HW1 2046   0.957   2.049   2.959 -0.7372  2.0727  0.2193
  512SOL    HW2 2047   1.043   1.938   2.920  0.8943  1.0520  1.5825
  512SOL     MW 2048   1.010   2.016   2.900  0.1515  0.6834  0.1438
  513SOL     OW 2049   1.696   2.465   2.194  0.0926 -0.3302  0.4609
  513SOL    HW1 2050   1.783   2.503   2.158  4.5618  0.3362 -0.6027
  513SOL    HW2 2051   1.718   2.455   2.289  0.7944  0.5163  2.0073
  513SOL     MW 2052   1.711   2.469   2.202  0.7749 -0.1306  0.5246
  514SOL     OW 2053   0.216   2.378   2.656  0.6998  0.3106  0.0257
  514SOL    HW1 2054   0.274   2.457   2.635  2.2742  0.6992 -1.2850
  514SOL    HW2 2055   0.245   2.332   2.734 -1.1955 -0.3314  1.2346
  514SOL     MW 2056   0.227   2.382   2.663  0.6574  0.2771  0.0123
  515SOL     OW 2057   1.075   2.008   1.912 -0.1070  0.7886  0.2757
  515SOL    HW1 2058   1.017   2.083   1.913 -3.5214  1.6524  0.5148
  515SOL    HW2 2059   1.133   2.009   1.990  0.1465 -0.2147 -2.0422
  515SOL     MW 2060   1.075   2.018   1.923 -0.5240  0.7702  0.0014
  516SOL     OW 2061   1.396   2.513   2.955  0.7274 -0.1028  0.0447
  516SOL    HW1 2062   1.407   2.504   2.858 -2.1883 -0.2042 -0.9095
  516SOL    HW2 2063   1.304   2.521   2.972  1.0281  1.0132 -0.3360
  516SOL     MW 2064   1.386   2.513   2.945  0.3824  0.0311 -0.1315
  517SOL     OW 2065   0.619   2.374   2.261 -0.0002  0.6148  0.1065
  517SOL    HW1 2066   0.540   2.433   2.281 -0.5047  1.6060 -2.8295
  517SOL    HW2 2067   0.570   2.290   2.231 -5.7364 -1.4424  1.4272
  517SOL     MW 2068   0.602   2.371   2.260 -0.8236  0.4741 -0.1066
  518SOL     OW 2069   1.810   0.027   3.094  0.5453  0.1291  0.1416
  518SOL    HW1 2070   1.768   0.100   3.143  1.9367  3.7855 -0.0883
  518SOL    HW2 2071   1.775  -0.057   3.121  3.2136 -2.1226 -0.1947
  518SOL     MW 2072   1.800   0.025   3.104  1.0809  0.3144  0.0669
  519SOL     OW 2073   0.714   2.548   1.730 -0.2025 -0.2160 -0.0282
  519SOL    HW1 2074   0.715   2.449   1.728 -1.2408 -2.8808 -0.9750
  519SOL    HW2 2075   0.639   2.579   1.784 -0.4330  1.6202 -1.7668
  519SOL     MW 2076   0.704   2.539   1.737 -0.3699 -0.3254 -0.3825
  520SOL     OW 2077   1.214   2.204   2.947 -0.3706 -0.1944  0.2300
  520SOL    HW1 2078   1.133   2.143   2.935  0.0749 -0.9748 -1.1630
  520SOL    HW2 2079   1.257   2.164   3.029  0.7482 -0.7313 -0.4344
  520SOL     MW 2080   1.209   2.190   2.956 -0.1642 -0.3682 -0.0415
  521SOL     OW 2081   1.769   2.061   2.247  0.0723 -0.2983  0.0866
  521SOL    HW1 2082   1.775   2.048   2.150  1.9619  1.4423 -2.0464
  521SOL    HW2 2083   1.732   1.974   2.272 -2.8875  0.2780 -0.1070
  521SOL     MW 2084   1.765   2.048   2.237 -0.0689  0.0074 -0.2204
  522SOL     OW 2085   2.906   2.523   2.271 -0.1801  0.4094 -0.2022
  522SOL    HW1 2086   2.988   2.477   2.278  1.2379 -2.1354 -0.4200
  522SOL    HW2 2087   2.919   2.616   2.270  1.1463 -1.2792  2.0833
  522SOL     MW 2088   2.919   2.529   2.272  0.1820 -0.1491  0.0706
  523SOL     OW 2089   0.905   1.518   2.141  0.1394  0.0431  0.0567
  523SOL    HW1 2090   0.867   1.570   2.062 -0.5664 -0.6713 -1.0046
  523SOL    HW2 2091   0.887   1.424   2.131 -1.1207 -0.8220  2.4287
  523SOL     MW 2092   0.897   1.512   2.129 -0.1200 -0.1653  0.2296
  524SOL     OW 2093   0.606   2.378   2.940  0.1978  0.5953 -0.1806
  524SOL    HW1 2094   0.601   2.465   2.897 -1.3093  1.7158  0.2765
  524SOL    HW2 2095   0.691   2.339   2.941 -0.0326 -1.2362  1.3639
  524SOL     MW 2096   0.617   2.385   2.935 -0.0315  0.5015  0.0835
  525SOL     OW 2097   0.467   2.192   2.122  0.1731 -0.1210  0.1424
  525SOL    HW1 2098   0.440   2.114   2.181 -0.6079 -1.3606  3.4298
  525SOL    HW2 2099   0.542   2.160   2.065 -0.3803  1.7290  1.3060
  525SOL     MW 2100   0.473   2.178   2.122 -0.0030 -0.0405  0.7297
  526SOL     OW 2101   0.693   2.146   1.983  0.1227 -0.4806  0.4555
  526SOL    HW1 2102   0.705   2.178   1.887 -0.6614 -1.3187 -0.8178
  526SOL    HW2 2103   0.762   2.198   2.034 -3.2979 -0.6365  0.1022
  526SOL     MW 2104   0.703   2.157   1.977 -0.4321 -0.6118  0.2409
  527SOL     OW 2105   1.300   1.913   2.060  0.5337  0.2546  0.5117
  527SOL    HW1 2106   1.291   1.848   2.132  1.7108  0.2810 -0.5366
  527SOL    HW2 2107   1.337   1.858   1.994 -0.4115 -1.5820 -0.7546
  527SOL     MW 2108   1.304   1.897   2.061  0.5643  0.0157  0.2063
  528SOL     OW 2109   0.657   2.934   2.931  0.5350  0.4153 -0.1206
  528SOL    HW1 2110   0.655   3.032   2.935  0.7489  0.4924 -0.9297
  528SOL    HW2 2111   0.617   2.912   2.841  0.6209 -0.4443 -1.4441
  528SOL     MW 2112   0.651   2.944   2.919  0.5746  0.3121 -0.4019
  529SOL     OW 2113   0.949   2.303   1.894 -0.6448  0.7165 -0.0720
  529SOL    HW1 2114   0.997   2.296   1.977 -4.1965 -2.4550 -1.0061
  529SOL    HW2 2115   1.004   2.368   1.841  0.2280  0.9394 -0.1982
  529SOL     MW 2116   0.962   2.310   1.898 -0.9982  0.3274 -0.2119
  530SOL     OW 2117   1.139   2.447   3.034 -0.0641 -0.1928  0.7968
  530SOL    HW1 2118   1.087   2.499   3.090 -2.5468 -0.4855 -2.4950
  530SOL    HW2 2119   1.127   2.351   3.043  0.0358  0.1391 -0.2772
  530SOL     MW 2120   1.130   2.441   3.043 -0.3785 -0.1876  0.2207
  531SOL     OW 2121   0.936   1.906   2.651  1.0587  0.3969 -0.2012
  531SOL    HW1 2122   0.959   1.951   2.737 -2.3680 -1.9195  1.5135
  531SOL    HW2 2123   0.894   1.825   2.689  1.5734 -2.7247  0.3786
  531SOL     MW 2124   0.933   1.902   2.667  0.6745 -0.3206  0.1015
  532SOL     OW 2125   1.699   0.282   2.823 -0.1613 -0.4200  0.4262
  532SOL    HW1 2126   1.669   0.194   2.832  2.0977  1.6524 -0.6511
  532SOL    HW2 2127   1.772   0.292   2.893  2.2691 -0.5023 -0.7454
  532SOL     MW 2128   1.705   0.271   2.833  0.4574 -0.1574  0.1295
  533SOL     OW 2129   1.795   2.651   2.984  0.8836 -0.0665  0.4872
  533SOL    HW1 2130   1.768   2.597   3.063 -3.1757  2.6076  1.2590
  533SOL    HW2 2131   1.741   2.620   2.910  1.5198  0.0817 -3.1287
  533SOL     MW 2132   1.785   2.640   2.985  0.4319  0.3059  0.1120
  534SOL     OW 2133   1.747   2.407   2.473  0.1936 -0.2454 -0.5341
  534SOL    HW1 2134   1.662   2.372   2.498  0.9777 -2.8465  2.0187
  534SOL    HW2 2135   1.818   2.405   2.548  0.0578 -1.8950 -2.6470
  534SOL     MW 2136   1.745   2.402   2.486  0.2791 -0.8062 -0.4761
  535SOL     OW 2137   1.828   2.336   1.920  0.0655 -0.3521  0.9824
  535SOL    HW1 2138   1.772   2.361   1.846 -0.4716 -0.0750  3.1874
  535SOL    HW2 2139   1.923   2.352   1.900  1.3841  0.6135 -2.4035
  535SOL     MW 2140   1.833   2.341   1.908  0.1686 -0.1882  0.8266
  536SOL     OW 2141   0.460   1.803   2.007  0.3388  0.7166  0.3948
  536SOL    HW1 2142   0.488   1.797   1.918  1.8401  0.7785  2.8274
  536SOL    HW2 2143   0.538   1.835   2.053 -1.5085 -0.3125  1.4415
  536SOL     MW 2144   0.474   1.806   2.001  0.2932  0.5890  0.8538
  537SOL     OW 2145   1.098   0.183   2.897  0.4981 -0.2979 -0.1297
  537SOL    HW1 2146   1.027   0.175   2.959  0.5377 -2.0372  0.0927
  537SOL    HW2 2147   1.094   0.270   2.873  1.3461 -0.5678 -1.1250
  537SOL     MW 2148   1.088   0.194   2.902  0.6152 -0.5630 -0.2317
  538SOL     OW 2149   1.318   0.017   2.977  0.4332  0.3028 -0.0691
  538SOL    HW1 2150   1.268   0.093   2.944 -2.3783  1.3083  1.3652
  538SOL    HW2 2151   1.405   0.023   2.942 -0.5717  3.4628 -0.9042
  538SOL     MW 2152   1.323   0.028   2.968 -0.0704  0.8524  0.0100
  539SOL     OW 2153   0.780   2.739   2.500 -0.2081  0.4603  0.0201
  539SOL    HW1 2154   0.858   2.784   2.530  0.8346 -2.6492  0.6687
  539SOL    HW2 2155   0.809   2.652   2.513 -0.6210 -0.0369  0.4230
  539SOL     MW 2156   0.794   2.733   2.506 -0.1250 -0.0156  0.1588
  540SOL     OW 2157   0.342   2.250   2.894  0.0406 -0.0887  0.4025
  540SOL    HW1 2158   0.434   2.271   2.917  0.0122  0.6182 -0.3301
  540SOL    HW2 2159   0.301   2.250   2.979  3.1671  2.1585  0.4585
  540SOL     MW 2160   0.349   2.253   2.908  0.4494  0.3011  0.3132
  541SOL     OW 2161   0.145   2.900   2.194 -0.1020  0.2998  0.5769
  541SOL    HW1 2162   0.146   2.828   2.129 -0.1927  1.5384  0.2097
  541SOL    HW2 2163   0.209   2.871   2.266 -0.1661 -0.1864  0.6866
  541SOL     MW 2164   0.153   2.887   2.195 -0.1224  0.3991  0.5429
  542SOL     OW 2165   0.982   2.228   2.628  0.8648  0.6236 -0.6342
  542SOL    HW1 2166   0.940   2.152   2.680 -0.4757 -0.6253 -1.6049
  542SOL    HW2 2167   1.000   2.298   2.693 -0.7032  2.3399  0.5965
  542SOL     MW 2168   0.979   2.227   2.643  0.4810  0.6853 -0.5999
  543SOL     OW 2169   1.431   2.508   2.675 -0.2411  0.1285  0.3503
  543SOL    HW1 2170   1.468   2.447   2.612  0.2222 -2.4314 -1.6020
  543SOL    HW2 2171   1.507   2.565   2.699  0.7233  1.2441  0.2379
  543SOL     MW 2172   1.446   2.507   2.670 -0.0527 -0.0621  0.0779
  544SOL     OW 2173   0.569   0.220   2.724 -0.1219  0.0594 -0.6007
  544SOL    HW1 2174   0.467   0.211   2.718  0.2882  2.6399  0.6938
  544SOL    HW2 2175   0.608   0.199   2.640 -0.7462  0.0709  0.3478
  544SOL     MW 2176   0.561   0.216   2.712 -0.1502  0.4014 -0.3048
  545SOL     OW 2177   1.504   2.164   2.255 -0.1224 -0.0361  0.2011
  545SOL    HW1 2178   1.482   2.197   2.168  1.8016  0.8623  0.0815
  545SOL    HW2 2179   1.600   2.139   2.240  1.5241  0.8859 -1.0131
  545SOL     MW 2180   1.514   2.165   2.242  0.3487  0.2041  0.0251
  546SOL     OW 2181   2.971   2.020   0.117 -0.0977  0.4833  0.6369
  546SOL    HW1 2182   2.972   2.095   0.058  1.7473  2.1663 -0.8969
  546SOL    HW2 2183   3.061   1.984   0.107 -1.3404 -0.1929 -4.7600
  546SOL     MW 2184   2.983   2.025   0.108 -0.0183  0.6162 -0.2776
  547SOL     OW 2185   0.197   3.005   0.172  0.5960 -0.0575 -0.4585
  547SOL    HW1 2186   0.240   3.050   0.101 -1.3010 -1.6318  1.3662
  547SOL    HW2 2187   0.204   2.911   0.145  1.1599 -1.8407 -1.9674
  547SOL     MW 2188   0.203   2.999   0.159  0.4201 -0.5005 -0.4169
  548SOL     OW 2189   0.309   2.534   0.275 -0.3082  0.1003 -0.4597
  548SOL    HW1 2190   0.341   2.584   0.200 -0.0573 -1.4509  1.5924
  548SOL    HW2 2191   0.242   2.482   0.238  1.4595  2.3917 -0.3370
  548SOL     MW 2192   0.305   2.534   0.260 -0.0418  0.1980 -0.1728
  549SOL     OW 2193   0.714   1.885   2.078  0.1535 -0.1854 -0.4775
  549SOL    HW1 2194   0.705   1.976   2.056  0.6210 -2.1902  0.9982
  549SOL    HW2 2195   0.697   1.882   2.172 -0.9451  0.1882  1.0482
  549SOL     MW 2196   0.711   1.896   2.088  0.0702 -0.4006 -0.0815
  550SOL     OW 2197   1.837   1.764   2.534 -0.2312 -0.0738 -0.3014
  550SOL    HW1 2198   1.815   1.737   2.443 -1.9695  1.3207  0.8055
  550SOL    HW2 2199   1.846   1.859   2.536 -1.0836 -3.6224 -0.3074
  550SOL     MW 2200   1.835   1.773   2.522 -0.5730 -0.3580 -0.1562
  551SOL     OW 2201   0.867   2.344   0.193 -0.1641  0.1376  0.1356
  551SOL    HW1 2202   0.958   2.353   0.200 -1.9309 -0.8664 -1.3375
  551SOL    HW2 2203   0.862   2.252   0.159  0.1059  0.9253 -1.5026
  551SOL     MW 2204   0.878   2.333   0.190 -0.3616  0.1090 -0.2749
  552SOL     OW 2205   1.742   1.761   2.254 -0.6498 -0.1405 -0.4355
  552SOL    HW1 2206   1.658   1.709   2.269 -0.8033  0.3198 -0.1019
  552SOL    HW2 2207   1.777   1.733   2.158  1.6653 -2.2887 -4.0798
  552SOL     MW 2208   1.736   1.750   2.243 -0.3646 -0.3632 -0.8723
  553SOL     OW 2209   1.246   2.321   1.505 -0.6158 -0.1857 -0.2571
  553SOL    HW1 2210   1.296   2.237   1.498  2.6629  1.4049 -1.3791
  553SOL    HW2 2211   1.305   2.393   1.474  1.1068  0.3363 -0.9771
  553SOL     MW 2212   1.260   2.319   1.500  0.0441  0.0931 -0.5001
  554SOL     OW 2213   0.592   2.861   2.672 -0.4114  0.2820  0.2839
  554SOL    HW1 2214   0.548   2.929   2.613 -0.0036 -1.0979  1.1740
  554SOL    HW2 2215   0.656   2.816   2.613  0.8075  2.8706 -0.4114
  554SOL     MW 2216   0.594   2.864   2.656 -0.1967  0.4415  0.3096
  555SOL     OW 2217   0.592   2.468   2.586  0.3113  0.3701 -0.0309
  555SOL    HW1 2218   0.569   2.374   2.586 -3.5664 -2.0036 -0.7673
  555SOL    HW2 2219   0.674   2.480   2.535  3.3870  4.7043 -1.9252
  555SOL     MW 2220   0.600   2.457   2.579  0.2055  0.6288 -0.3780
  556SOL     OW 2221   0.936   1.799   0.168 -0.4640 -0.5832  0.0426
  556SOL    HW1 2222   0.945   1.804   0.072 -0.0471 -3.2659 -1.4393
  556SOL    HW2 2223   1.028   1.829   0.190  0.4869  1.3890 -0.9624
  556SOL     MW 2224   0.949   1.804   0.158 -0.2835 -0.6770 -0.2855
  557SOL     OW 2225   0.913   2.687   0.508  0.5641  0.2316  0.0500
  557SOL    HW1 2226   0.968   2.662   0.432  1.4462  2.9402 -1.6400
  557SOL    HW2 2227   0.865   2.764   0.475 -2.6697  2.9577 -1.3809
  557SOL     MW 2228   0.914   2.694   0.493  0.2538  0.9487 -0.3618
  558SOL     OW 2229   0.256   2.198   0.056 -0.0766 -0.5496 -0.3026
  558SOL    HW1 2230   0.231   2.109   0.050 -0.4261  0.2186  0.8112
  558SOL    HW2 2231   0.180   2.254   0.067 -0.3689 -0.6409  1.5880
  558SOL     MW 2232   0.243   2.194   0.057 -0.1613 -0.4603  0.0938
  559SOL     OW 2233   1.139   2.300   2.106 -0.3904  0.1086 -0.4546
  559SOL    HW1 2234   1.193   2.367   2.141  0.9254 -0.7439  2.7671
  559SOL    HW2 2235   1.139   2.232   2.176 -0.9920 -0.5678  3.1859
  559SOL     MW 2236   1.146   2.300   2.120 -0.2962 -0.0931  0.4508
  560SOL     OW 2237   1.930   2.812   0.053 -0.6621  0.4074  0.0085
  560SOL    HW1 2238   1.990   2.852  -0.010  2.9111  0.5429 -0.0216
  560SOL    HW2 2239   1.896   2.739  -0.001  0.4875  1.6320 -3.3835
  560SOL     MW 2240   1.934   2.808   0.037 -0.0390  0.5868 -0.4430
  561SOL     OW 2241   0.450   2.106   0.243  0.1929  0.6578 -0.2997
  561SOL    HW1 2242   0.396   2.126   0.164  0.4770  0.4708 -0.8804
  561SOL    HW2 2243   0.510   2.186   0.250 -3.5003 -3.4910  1.5054
  561SOL     MW 2244   0.451   2.119   0.233 -0.2569  0.0857 -0.1381
  562SOL     OW 2245   0.838   2.201   2.213  0.1188 -0.6251  0.3373
  562SOL    HW1 2246   0.841   2.288   2.245 -0.4391 -0.9691  1.2872
  562SOL    HW2 2247   0.926   2.166   2.232  1.6973 -0.5351  1.5593
  562SOL     MW 2248   0.850   2.208   2.220  0.2535 -0.6586  0.6239
  563SOL     OW 2249   1.163   0.317   0.606 -0.6887  0.0823  0.4415
  563SOL    HW1 2250   1.115   0.305   0.524  0.9284  1.0331 -0.9582
  563SOL    HW2 2251   1.194   0.229   0.617 -0.1348  0.9157 -0.4616
  563SOL     MW 2252   1.161   0.304   0.596 -0.4023  0.3177  0.1377
  564SOL     OW 2253   1.096   2.537   2.339  0.0426 -0.1387 -0.2201
  564SOL    HW1 2254   1.135   2.570   2.252  0.5319 -0.6243 -0.7462
  564SOL    HW2 2255   1.135   2.598   2.409 -0.4196  0.3137 -0.4659
  564SOL     MW 2256   1.106   2.549   2.337  0.0462 -0.1430 -0.3219
  565SOL     OW 2257   2.881   2.655   2.586 -0.3958  0.0497  0.1698
  565SOL    HW1 2258   2.952   2.716   2.546 -1.5701  2.7407 -0.5911
  565SOL    HW2 2259   2.808   2.661   2.527  3.1782  2.3724 -1.0810
  565SOL     MW 2260   2.881   2.664   2.573 -0.0792  0.7112 -0.0956
  566SOL     OW 2261   2.181   1.873   2.407 -0.2947 -0.7351  0.3642
  566SOL    HW1 2262   2.166   1.821   2.329 -2.2373 -0.2583 -0.0140
  566SOL    HW2 2263   2.248   1.941   2.378 -0.9216 -0.8113 -1.2311
  566SOL     MW 2264   2.188   1.875   2.393 -0.6337 -0.6822  0.1038
  567SOL     OW 2265   1.133   2.946   3.071  0.4054  0.5072 -0.5033
  567SOL    HW1 2266   1.207   3.002   3.064 -2.0716  0.0773 -1.8644
  567SOL    HW2 2267   1.161   2.884   3.003 -0.1226 -0.7877 -0.7212
  567SOL     MW 2268   1.146   2.945   3.061  0.0089  0.2797 -0.7116
  568SOL     OW 2269   1.603   2.021   2.927 -0.7990  0.3408  0.3975
  568SOL    HW1 2270   1.639   2.097   2.971 -2.3123 -0.1784 -0.2580
  568SOL    HW2 2271   1.660   1.991   2.853  0.6747  0.6137 -2.6731
  568SOL     MW 2272   1.615   2.027   2.923 -0.8043  0.3083 -0.0941
  569SOL     OW 2273   0.220   2.221   2.437 -0.2524  0.4196  0.5261
  569SOL    HW1 2274   0.166   2.264   2.361  0.4489  0.0729 -1.0556
  569SOL    HW2 2275   0.230   2.287   2.510 -0.5971  2.4259 -1.7401
  569SOL     MW 2276   0.214   2.235   2.437 -0.2053  0.6385  0.0184
  570SOL     OW 2277   1.480   0.438   0.485  0.1928 -0.6243 -0.0677
  570SOL    HW1 2278   1.409   0.458   0.544  0.6495  2.3194 -2.8318
  570SOL    HW2 2279   1.558   0.450   0.548  2.0897  0.2423 -0.6699
  570SOL     MW 2280   1.481   0.442   0.501  0.5033 -0.1216 -0.5118
  571SOL     OW 2281   1.490   2.425   1.998  0.0374 -0.2913  0.0866
  571SOL    HW1 2282   1.555   2.454   2.059  0.4681  0.6340  0.1979
  571SOL    HW2 2283   1.492   2.331   1.996  0.0170  2.0211  0.5142
  571SOL     MW 2284   1.499   2.417   2.006  0.0915  0.1359  0.1577
  572SOL     OW 2285   0.926   2.660   0.063  0.6262 -0.5381 -0.4321
  572SOL    HW1 2286   0.918   2.711  -0.019  0.1435 -0.1614 -0.2305
  572SOL    HW2 2287   0.844   2.611   0.068 -1.0716  0.9079 -0.1659
  572SOL     MW 2288   0.914   2.660   0.053  0.3385 -0.2976 -0.3704
  573SOL     OW 2289   1.150   2.371   0.258  0.5328 -0.0049  0.0399
  573SOL    HW1 2290   1.237   2.381   0.210 -1.4164 -1.3433  0.8035
  573SOL    HW2 2291   1.117   2.464   0.268 -0.7638  2.7606  1.1412
  573SOL     MW 2292   1.157   2.384   0.253  0.1046  0.1834  0.2860
  574SOL     OW 2293   1.053   2.608   0.294 -0.4994 -0.1124 -0.3402
  574SOL    HW1 2294   1.134   2.670   0.287  0.3003  1.7262  1.8819
  574SOL    HW2 2295   0.999   2.631   0.218  0.7258  1.9531 -0.4019
  574SOL     MW 2296   1.057   2.619   0.283 -0.2322  0.4027 -0.0551
  575SOL     OW 2297   3.073   2.302   1.796 -0.0873  0.6794  0.1410
  575SOL    HW1 2298   3.065   2.222   1.743 -0.3435 -0.5305 -1.1393
  575SOL    HW2 2299   3.146   2.353   1.759 -0.4398 -1.0967 -0.1064
  575SOL     MW 2300   3.082   2.298   1.784 -0.1676  0.2854 -0.0606
  576SOL     OW 2301   2.815   1.825   2.014  0.3450 -0.8246  0.0504
  576SOL    HW1 2302   2.865   1.905   1.985  3.9103 -0.5428  1.5325
  576SOL    HW2 2303   2.718   1.835   2.000 -0.9607 -0.8976  1.2676
  576SOL     MW 2304   2.809   1.837   2.008  0.6432 -0.7970  0.4066
  577SOL     OW 2305   2.115   0.309   0.081  0.6996 -0.4464  0.0394
  577SOL    HW1 2306   2.048   0.306   0.012  3.3797  2.2799 -1.1868
  577SOL    HW2 2307   2.079   0.256   0.151 -1.7310  0.4352  3.8565
  577SOL     MW 2308   2.101   0.302   0.081  0.7326  0.0296  0.3812
  578SOL     OW 2309   1.960   2.019   2.466 -0.8091  0.5151 -0.5140
  578SOL    HW1 2310   1.920   2.053   2.384 -0.1165 -1.5030  1.4298
  578SOL    HW2 2311   2.048   1.987   2.444 -1.4008 -0.0202  0.7358
  578SOL     MW 2312   1.966   2.020   2.452 -0.7958  0.1782 -0.0927
  579SOL     OW 2313   0.876   2.472   2.499 -0.5643  0.2703  0.5284
  579SOL    HW1 2314   0.876   2.387   2.541 -0.1149 -0.9208 -1.4422
  579SOL    HW2 2315   0.953   2.465   2.439 -0.9156 -1.3022 -0.3188
  579SOL     MW 2316   0.887   2.460   2.497 -0.5513 -0.0944  0.1566
  580SOL     OW 2317   0.865   2.986   0.023 -0.1723  0.3124 -0.4495
  580SOL    HW1 2318   0.957   2.967  -0.008 -0.1806 -0.5821 -2.2908
  580SOL    HW2 2319   0.793   2.965  -0.041 -0.0659  1.9299 -1.1065
  580SOL     MW 2320   0.867   2.981   0.010 -0.1594  0.4078 -0.7791
  581SOL     OW 2321   1.126   2.439   1.751  0.7596  0.4748 -0.2379
  581SOL    HW1 2322   1.195   2.492   1.797  0.1913  2.1470 -2.2524
  581SOL    HW2 2323   1.160   2.420   1.664  1.9664 -0.6257  1.4208
  581SOL     MW 2324   1.140   2.443   1.745  0.8438  0.5503 -0.2849
  582SOL     OW 2325   3.094   2.850   2.514  0.2587  0.8945  0.2164
  582SOL    HW1 2326   3.098   2.932   2.569  1.7194 -0.3431  0.3552
  582SOL    HW2 2327   3.186   2.832   2.511  0.3169  0.8129 -1.9007
  582SOL     MW 2328   3.107   2.858   2.521  0.4591  0.7204 -0.0446
  583SOL     OW 2329   1.956   2.417   2.661  0.8403 -0.3491  0.5324
  583SOL    HW1 2330   2.014   2.436   2.588 -0.3065 -0.0274  0.2542
  583SOL    HW2 2331   1.983   2.322   2.681 -0.6284  0.6870  2.9477
  583SOL     MW 2332   1.967   2.407   2.654  0.4952 -0.1699  0.8144
  584SOL     OW 2333   0.216   1.899   2.055  0.2002  0.1555  0.7111
  584SOL    HW1 2334   0.295   1.849   2.030  1.7747 -0.7700  0.5083
  584SOL    HW2 2335   0.203   1.901   2.149  1.4277  0.4964  3.2932
  584SOL     MW 2336   0.225   1.893   2.064  0.5699  0.0783  1.0250
  585SOL     OW 2337   1.457   2.670   0.076 -0.4170 -0.1331  0.5614
  585SOL    HW1 2338   1.438   2.632  -0.007 -1.5650 -0.6141 -1.8555
  585SOL    HW2 2339   1.373   2.686   0.114  0.7621 -1.4693 -2.3265
  585SOL     MW 2340   1.443   2.667   0.070 -0.4129 -0.3729 -0.1385
  586SOL     OW 2341   1.381   2.828   2.435  0.4574 -0.1211  0.4920
  586SOL    HW1 2342   1.448   2.823   2.365  0.8657  1.0652  1.4476
  586SOL    HW2 2343   1.400   2.898   2.493 -0.6146  0.8468  3.4184
  586SOL     MW 2344   1.393   2.837   2.433  0.3698  0.1631  1.0042
  587SOL     OW 2345   1.286   1.579   2.145  0.0995  0.6364  0.5024
  587SOL    HW1 2346   1.275   1.491   2.190 -0.3119  0.9395  0.6707
  587SOL    HW2 2347   1.272   1.565   2.049  2.7699  0.4410  2.1383
  587SOL     MW 2348   1.283   1.565   2.138  0.3975  0.6506  0.7404
  588SOL     OW 2349   1.409   2.160   2.756  0.0000 -0.4315  0.4834
  588SOL    HW1 2350   1.469   2.092   2.790  0.8948 -2.8888 -3.3103
  588SOL    HW2 2351   1.354   2.190   2.826 -1.5626  1.3831  1.6436
  588SOL     MW 2352   1.410   2.155   2.769 -0.0881 -0.5163  0.1359
  589SOL     OW 2353   1.326   2.091   0.071 -0.8655 -0.5480  0.2741
  589SOL    HW1 2354   1.361   2.175   0.102 -0.1499 -1.0604  0.1817
  589SOL    HW2 2355   1.287   2.038   0.143 -1.4634 -1.2490 -1.6212
  589SOL     MW 2356   1.325   2.095   0.085 -0.8500 -0.7081  0.0118
  590SOL     OW 2357   0.421   2.578   2.275  0.1242  0.5687 -0.1875
  590SOL    HW1 2358   0.382   2.558   2.184 -0.3160  1.2803 -0.5014
  590SOL    HW2 2359   0.485   2.648   2.263 -0.3887  1.2851  1.9628
  590SOL     MW 2360   0.424   2.585   2.261 -0.0016  0.7571  0.0548
  591SOL     OW 2361   2.278   0.719   3.087 -0.0843  0.6404 -0.8992
  591SOL    HW1 2362   2.207   0.786   3.080 -2.0823  2.6809  5.4818
  591SOL    HW2 2363   2.353   0.750   3.045 -1.6921 -1.2825 -1.1241
  591SOL     MW 2364   2.278   0.732   3.080 -0.5600  0.6559 -0.0870
  592SOL     OW 2365   1.842   2.967   0.815 -0.7929 -0.6414  0.7010
  592SOL    HW1 2366   1.822   3.021   0.739 -1.1658 -1.4341 -0.0774
  592SOL    HW2 2367   1.885   2.888   0.780 -1.9284  2.0307  0.4077
  592SOL     MW 2368   1.845   2.964   0.800 -0.9919 -0.3935  0.5596
  593SOL     OW 2369   1.905   0.747   0.854 -0.3884 -0.6342  0.1564
  593SOL    HW1 2370   1.826   0.739   0.799 -2.1445 -3.3438  0.4805
  593SOL    HW2 2371   1.905   0.658   0.893 -1.1071  0.2385  1.6476
  593SOL     MW 2372   1.895   0.734   0.852 -0.7149 -0.8765  0.3959
  594SOL     OW 2373   2.763   1.157   1.391  0.0827  0.4589 -0.5980
  594SOL    HW1 2374   2.860   1.163   1.399 -0.6626 -1.1581  0.0217
  594SOL    HW2 2375   2.757   1.132   1.300 -0.2986 -1.2349 -0.5497
  594SOL     MW 2376   2.775   1.155   1.380 -0.0660  0.0221 -0.5098
  595SOL     OW 2377   0.502   0.931   0.743  0.5996  0.3242  0.1028
  595SOL    HW1 2378   0.515   1.011   0.692  0.1923 -1.1733  1.5745
  595SOL    HW2 2379   0.491   0.968   0.831 -0.8326 -0.0116  1.2286
  595SOL     MW 2380   0.502   0.946   0.747  0.3569  0.0823  0.4455
  596SOL     OW 2381   2.491   1.349   0.506  0.8337 -0.2703  0.0590
  596SOL    HW1 2382   2.522   1.431   0.474  1.3022 -3.5168  0.7301
  596SOL    HW2 2383   2.553   1.334   0.576  1.3988  1.7667 -1.3737
  596SOL     MW 2384   2.503   1.358   0.511  0.9700 -0.4299 -0.0415
  597SOL     OW 2385   2.177   0.684   1.612 -0.0333  0.2390 -0.1563
  597SOL    HW1 2386   2.227   0.623   1.667 -1.0410 -0.5479 -2.8861
  597SOL    HW2 2387   2.105   0.634   1.567 -0.8044 -1.2804 -0.1518
  597SOL     MW 2388   2.174   0.669   1.613 -0.2680 -0.0653 -0.5159
  598SOL     OW 2389   2.599   0.992   2.901 -0.5193 -0.3796 -0.5964
  598SOL    HW1 2390   2.618   0.986   2.811 -0.1969 -1.9542  3.7203
  598SOL    HW2 2391   2.678   1.035   2.926  1.8256 -2.0831  0.4416
  598SOL     MW 2392   2.612   0.997   2.892 -0.1674 -0.8121  0.1101
  599SOL     OW 2393   2.912   0.401   2.081 -0.3431  0.4172  0.2201
  599SOL    HW1 2394   2.888   0.407   2.173  1.6450 -0.6511 -0.0035
  599SOL    HW2 2395   2.968   0.483   2.055  1.1412  1.0403 -0.0817
  599SOL     MW 2396   2.916   0.412   2.089  0.1150  0.3585  0.1508
  600SOL     OW 2397   1.907   1.765   0.882 -0.0618  0.0040  0.1237
  600SOL    HW1 2398   1.936   1.787   0.974  2.2602  1.2331  0.0379
  600SOL    HW2 2399   1.819   1.808   0.871  2.6864 -0.8434 -2.5965
  600SOL     MW 2400   1.899   1.774   0.893  0.6072  0.0544 -0.2465
  601SOL     OW 2401   2.511   0.805   0.834 -0.0540  0.3721  0.0460
  601SOL    HW1 2402   2.516   0.827   0.930 -1.4907  0.5622  2.6327
  601SOL    HW2 2403   2.443   0.729   0.829  0.4891 -1.2588  0.4616
  601SOL     MW 2404   2.503   0.798   0.846 -0.1719  0.1820  0.4421
  602SOL     OW 2405   2.307   1.967   0.837 -0.2640  0.2595 -0.1870
  602SOL    HW1 2406   2.283   1.878   0.870 -2.2995 -0.5359  0.2777
  602SOL    HW2 2407   2.230   1.999   0.787 -1.3679  1.2947 -2.4846
  602SOL     MW 2408   2.294   1.960   0.834 -0.6782  0.2912 -0.4288
  603SOL     OW 2409   3.085   1.379   1.796 -0.4638 -0.0571  0.6178
  603SOL    HW1 2410   3.103   1.433   1.875 -2.9259  0.3389  0.0348
  603SOL    HW2 2411   3.087   1.292   1.829  2.5884 -1.6207 -0.3817
  603SOL     MW 2412   3.088   1.374   1.811 -0.3859 -0.2111  0.4090
  604SOL     OW 2413   2.106   1.551   0.461  0.2362 -0.0886  0.4462
  604SOL    HW1 2414   2.142   1.493   0.526 -0.9407  0.0567 -1.0044
  604SOL    HW2 2415   2.040   1.608   0.500  3.7387 -2.5669 -2.7542
  604SOL     MW 2416   2.102   1.550   0.475  0.5430 -0.3964 -0.1674
  605SOL     OW 2417   2.650   1.530   0.844  0.0064 -0.0891 -0.1048
  605SOL    HW1 2418   2.587   1.588   0.797 -0.6102 -2.2988 -1.8748
  605SOL    HW2 2419   2.635   1.441   0.808  1.7336  1.3808 -3.0213
  605SOL     MW 2420   2.640   1.526   0.833  0.1530 -0.1867 -0.7232
  606SOL     OW 2421   2.578   1.846   1.899 -0.1693  0.5052  0.4146
  606SOL    HW1 2422   2.483   1.845   1.887  0.3116 -0.0247 -0.2464
  606SOL    HW2 2423   2.595   1.763   1.852  1.2714  0.4093 -0.3532
  606SOL     MW 2424   2.567   1.835   1.892  0.0842  0.4226  0.2261
  607SOL     OW 2425   2.359   1.041   3.044 -0.2871  0.1147 -0.0533
  607SOL    HW1 2426   2.449   1.033   3.010 -0.3666  1.7370 -1.1871
  607SOL    HW2 2427   2.367   1.025   3.144 -3.4513 -0.8578  0.8940
  607SOL     MW 2428   2.372   1.038   3.053 -0.7150  0.2005 -0.0779
  608SOL     OW 2429   1.909   0.299   0.615 -0.0819 -0.3453  0.2599
  608SOL    HW1 2430   1.950   0.343   0.538 -3.2675  1.8865 -0.4296
  608SOL    HW2 2431   1.867   0.217   0.581  1.3083  0.4414  2.3618
  608SOL     MW 2432   1.909   0.294   0.600 -0.3188  0.0529  0.4463
  609SOL     OW 2433   2.095   1.985   3.045 -0.1320  0.8395  0.0944
  609SOL    HW1 2434   2.015   1.935   3.017  0.1386 -0.2158  0.0120
  609SOL    HW2 2435   2.119   1.956   3.136 -0.8387 -1.3589 -0.0199
  609SOL     MW 2436   2.088   1.975   3.053 -0.1895  0.4102  0.0685
  610SOL     OW 2437   1.787   1.024   1.243 -0.4585 -0.5017  0.1693
  610SOL    HW1 2438   1.803   0.938   1.205 -0.3603 -0.7236  4.2605
  610SOL    HW2 2439   1.690   1.026   1.266  1.1585  0.3947  0.5038
  610SOL     MW 2440   1.776   1.013   1.241 -0.2322 -0.4127  0.7532
  611SOL     OW 2441   2.499   1.743   0.701  0.4243  0.5881 -0.4533
  611SOL    HW1 2442   2.431   1.806   0.697  0.3063  0.0626  4.5599
  611SOL    HW2 2443   2.522   1.719   0.616 -0.6453 -1.8087  0.9681
  611SOL     MW 2444   2.493   1.748   0.690  0.2676  0.2025  0.3956
  612SOL     OW 2445   2.810   2.839   0.399 -0.0067 -0.2134 -0.4576
  612SOL    HW1 2446   2.838   2.876   0.485 -1.2048  0.5753 -0.3518
  612SOL    HW2 2447   2.893   2.846   0.351  1.6065  0.7468  0.9102
  612SOL     MW 2448   2.824   2.845   0.404  0.0480  0.0173 -0.2631
  613SOL     OW 2449   1.482   0.986   0.954 -0.0111 -0.0033 -0.4735
  613SOL    HW1 2450   1.532   1.064   0.942 -1.0555  0.9127 -0.6015
  613SOL    HW2 2451   1.492   0.960   1.050  0.5552  0.8616  0.5353
  613SOL     MW 2452   1.490   0.993   0.965 -0.0742  0.2317 -0.3573
  614SOL     OW 2453   1.971   0.540   1.505  0.1912 -0.2535  0.0912
  614SOL    HW1 2454   1.983   0.450   1.541 -0.3812 -0.2287 -1.6450
  614SOL    HW2 2455   1.961   0.515   1.413 -0.9140  1.1766 -0.8284
  614SOL     MW 2456   1.971   0.525   1.498 -0.0302 -0.0615 -0.2592
  615SOL     OW 2457   2.353   0.752   0.288  0.9725  0.0904  0.0408
  615SOL    HW1 2458   2.430   0.705   0.321  2.3854  0.0322 -1.8410
  615SOL    HW2 2459   2.336   0.711   0.203 -0.8069  0.4770  1.3643
  615SOL     MW 2460   2.361   0.741   0.281  0.9242  0.1337 -0.0328
  616SOL     OW 2461   2.531   0.403   1.587 -0.4357  0.6963  0.0834
  616SOL    HW1 2462   2.470   0.349   1.543  1.2147  1.4165  1.4326
  616SOL    HW2 2463   2.555   0.479   1.534  1.2137 -0.2893  0.6536
  616SOL     MW 2464   2.526   0.406   1.574 -0.0003  0.6613  0.3367
  617SOL     OW 2465   2.935   0.562   1.731 -0.0704 -0.3234 -0.0051
  617SOL    HW1 2466   2.844   0.563   1.770  0.2113 -0.0784  1.2721
  617SOL    HW2 2467   2.945   0.472   1.702  1.7663 -1.9906  2.1617
  617SOL     MW 2468   2.924   0.550   1.732  0.2091 -0.5110  0.4493
  618SOL     OW 2469   2.678   0.320   1.970  0.6247  0.0357 -0.2992
  618SOL    HW1 2470   2.658   0.409   1.936 -0.3429 -0.5692 -2.1008
  618SOL    HW2 2471   2.773   0.329   1.992 -0.4402  0.3277 -0.3541
  618SOL     MW 2472   2.688   0.333   1.969  0.3565 -0.0056 -0.5441
  619SOL     OW 2473   2.664   0.674   0.139 -0.0996 -0.4781 -0.2720
  619SOL    HW1 2474   2.716   0.752   0.143  0.2468 -2.6205 -3.5170
  619SOL    HW2 2475   2.624   0.653   0.225  1.4590  0.9892  1.8731
  619SOL     MW 2476   2.665   0.681   0.151  0.1517 -0.5672 -0.4171
  620SOL     OW 2477   2.332   1.033   0.981 -0.1215 -0.0557  0.1284
  620SOL    HW1 2478   2.379   1.073   0.907 -2.7705 -0.5622 -1.3259
  620SOL    HW2 2479   2.271   0.963   0.945 -2.1320 -0.0190  3.9276
  620SOL     MW 2480   2.330   1.029   0.966 -0.7363 -0.1177  0.4378
  621SOL     OW 2481   1.458   2.148   1.957 -0.1300 -0.4790 -0.7233
  621SOL    HW1 2482   1.405   2.080   1.985  0.6562  0.1101 -1.1316
  621SOL    HW2 2483   1.545   2.113   1.955  0.6875  1.5951 -1.2397
  621SOL     MW 2484   1.462   2.134   1.960  0.0816 -0.1276 -0.8453
  622SOL     OW 2485   2.597   0.167   0.272 -0.0113  0.1633 -0.1553
  622SOL    HW1 2486   2.672   0.221   0.301 -1.6133  1.0846 -0.7518
  622SOL    HW2 2487   2.601   0.072   0.292  0.3339  0.5089 -1.8723
  622SOL     MW 2488   2.607   0.161   0.278 -0.1771  0.3304 -0.4605
  623SOL     OW 2489   2.343   2.795   0.868 -0.0639  0.5929 -0.1016
  623SOL    HW1 2490   2.426   2.847   0.863  1.9566 -0.0820 -0.1148
  623SOL    HW2 2491   2.281   2.835   0.927 -0.2404  0.4821 -2.8687
  623SOL     MW 2492   2.346   2.807   0.875  0.1794  0.4893 -0.4684
  624SOL     OW 2493   2.198   1.682   3.008 -0.4176  0.4192 -0.0559
  624SOL    HW1 2494   2.147   1.598   3.018 -2.0999  0.9071  1.1026
  624SOL    HW2 2495   2.141   1.754   2.997  0.5684 -2.7457  1.2854
  624SOL     MW 2496   2.184   1.681   3.008 -0.5095  0.0660  0.2739
  625SOL     OW 2497   2.192   2.034   1.132  0.2318  0.2757  0.1113
  625SOL    HW1 2498   2.286   2.017   1.130 -1.3843  0.4025  2.8401
  625SOL    HW2 2499   2.187   2.087   1.054 -0.9022 -0.8691 -0.7744
  625SOL     MW 2500   2.204   2.039   1.121 -0.1311  0.1414  0.3545
  626SOL     OW 2501   0.216   1.581   2.354 -0.0511  0.7314  0.5713
  626SOL    HW1 2502   0.207   1.486   2.355 -0.3722  2.4432 -0.3868
  626SOL    HW2 2503   0.148   1.612   2.420  1.0695 -0.3419  1.8283
  626SOL     MW 2504   0.206   1.573   2.363  0.0544  0.8156  0.6107
  627SOL     OW 2505   2.453   0.793   2.635 -0.1676 -0.3891 -0.0239
  627SOL    HW1 2506   2.424   0.879   2.606 -0.7757  0.7213  1.0210
  627SOL    HW2 2507   2.410   0.739   2.563  0.4203 -0.9406 -1.7731
  627SOL     MW 2508   2.444   0.797   2.621 -0.1702 -0.3154 -0.1168
  628SOL     OW 2509   2.243   1.352   1.373  0.4432  0.1661 -0.6808
  628SOL    HW1 2510   2.203   1.289   1.308  0.7052 -1.1902 -0.2379
  628SOL    HW2 2511   2.337   1.355   1.356 -1.9485 -0.4208  1.1299
  628SOL     MW 2512   2.250   1.344   1.362  0.1622 -0.0903 -0.3835
  629SOL     OW 2513   1.928   0.549   1.236 -0.9946  0.2688 -0.1661
  629SOL    HW1 2514   1.939   0.639   1.206 -0.2090  0.5805  1.3069
  629SOL    HW2 2515   1.845   0.552   1.279 -1.8961 -0.8412 -0.1747
  629SOL     MW 2516   1.919   0.561   1.238 -1.0099  0.1635  0.0271
  630SOL     OW 2517   2.436   1.820   3.076  0.1886  0.3661 -0.5191
  630SOL    HW1 2518   2.435   1.869   2.997 -1.9843 -3.2659  1.0697
  630SOL    HW2 2519   2.345   1.808   3.101 -0.3364 -2.5765  1.9687
  630SOL     MW 2520   2.424   1.825   3.069 -0.1674 -0.5013  0.0188
  631SOL     OW 2521   1.959   1.827   1.579  0.3797 -0.1845  0.0672
  631SOL    HW1 2522   1.986   1.747   1.631  0.5704 -0.4047  1.1322
  631SOL    HW2 2523   1.940   1.796   1.492  1.7115  1.7451  1.2512
  631SOL     MW 2524   1.960   1.812   1.574  0.5806  0.0410  0.3639
  632SOL     OW 2525   0.109   2.037   1.476  0.2172 -0.3408 -0.1140
  632SOL    HW1 2526   0.041   2.055   1.545 -2.1571 -0.1489  1.1305
  632SOL    HW2 2527   0.122   1.940   1.480  0.0536  2.8804  0.0546
  632SOL     MW 2528   0.102   2.027   1.486 -0.1176  0.1095  0.0725
  633SOL     OW 2529   2.562   0.601   0.387  0.3620 -0.4006 -0.2219
  633SOL    HW1 2530   2.649   0.608   0.418  1.6988  0.2780  0.5054
  633SOL    HW2 2531   2.528   0.528   0.445 -2.8823 -3.0375 -1.5784
  633SOL     MW 2532   2.569   0.592   0.399  0.1103 -0.6590 -0.3049
  634SOL     OW 2533   2.668   3.038   0.622  0.1179  0.0175 -0.5672
  634SOL    HW1 2534   2.718   3.123   0.639  0.9079  2.2274  2.0349
  634SOL    HW2 2535   2.625   3.054   0.539  0.2470  1.3999 -0.0846
  634SOL     MW 2536   2.669   3.051   0.614  0.2392  0.4915 -0.1602
  635SOL     OW 2537   2.608   0.071   1.868  0.1477  0.0759 -0.0244
  635SOL    HW1 2538   2.655   0.022   1.806  1.2554  0.0027  1.7686
  635SOL    HW2 2539   2.646   0.164   1.883 -0.1790  3.6741 -2.9048
  635SOL     MW 2540   2.619   0.077   1.862  0.2508  0.5410 -0.1679
  636SOL     OW 2541   2.957   1.699   1.098  0.3486 -1.0158  0.2660
  636SOL    HW1 2542   2.869   1.713   1.127 -1.6066 -1.5394 -0.3817
  636SOL    HW2 2543   2.996   1.786   1.093 -1.3048  0.4660  0.7729
  636SOL     MW 2544   2.951   1.712   1.101 -0.1275 -0.8894  0.2474
  637SOL     OW 2545   2.902   1.492   0.639 -0.5358 -0.0947  0.4102
  637SOL    HW1 2546   2.961   1.566   0.620  0.0999 -1.6218  2.5178
  637SOL    HW2 2547   2.832   1.535   0.691 -1.4823  1.2241 -0.1710
  637SOL     MW 2548   2.900   1.507   0.643 -0.5768 -0.1221  0.6116
  638SOL     OW 2549   2.787   0.508   0.541  0.2216 -0.4563  0.3822
  638SOL    HW1 2550   2.865   0.532   0.493 -1.3065  1.2574 -0.5929
  638SOL    HW2 2551   2.800   0.537   0.628 -1.1601 -1.7828  1.0580
  638SOL     MW 2552   2.799   0.515   0.546 -0.1623 -0.4052  0.3427
  639SOL     OW 2553   1.765   0.063   0.566 -0.0513  0.0660 -0.1784
  639SOL    HW1 2554   1.667   0.069   0.544 -0.5587  0.1541 -1.6063
  639SOL    HW2 2555   1.797   0.019   0.485  1.5808  1.8443 -0.3818
  639SOL     MW 2556   1.756   0.058   0.552  0.0971  0.3122 -0.3936
  640SOL     OW 2557   0.372   1.358   0.079 -0.1434 -0.3689  0.5011
  640SOL    HW1 2558   0.375   1.351  -0.017  1.0237  2.0494  0.5626
  640SOL    HW2 2559   0.332   1.268   0.094 -0.5441 -0.1962  0.6253
  640SOL     MW 2560   0.368   1.345   0.068 -0.0423 -0.0270  0.5256
  641SOL     OW 2561   2.241   0.434   0.367 -0.1151  0.0917  0.0322
  641SOL    HW1 2562   2.302   0.486   0.315 -0.3907  0.8247 -1.9657
  641SOL    HW2 2563   2.280   0.347   0.359 -0.8788  1.5478  1.9190
  641SOL     MW 2564   2.254   0.429   0.359 -0.2522  0.3805  0.0175
  642SOL     OW 2565   0.036   0.004   0.598  0.5391  0.1576 -0.5239
  642SOL    HW1 2566  -0.001   0.080   0.554 -1.3706  0.2791  2.4119
  642SOL    HW2 2567  -0.040  -0.030   0.643  0.0690  0.0310  1.6687
  642SOL     MW 2568   0.021   0.009   0.598  0.2251  0.1569  0.1527
  643SOL     OW 2569   2.102   0.316   1.699  0.0495  0.4948 -0.5175
  643SOL    HW1 2570   2.076   0.245   1.755  0.3989 -3.2711 -2.3486
  643SOL    HW2 2571   2.098   0.288   1.609  0.2278 -0.6917 -1.0051
  643SOL     MW 2572   2.098   0.303   1.695  0.1191 -0.1586 -0.8234
  644SOL     OW 2573   2.746   1.973   1.060  0.1480  0.2735  0.0420
  644SOL    HW1 2574   2.713   1.895   1.112  0.4420 -0.4796 -2.7518
  644SOL    HW2 2575   2.662   2.008   1.021 -0.5002  0.1776 -2.6282
  644SOL     MW 2576   2.731   1.967   1.062  0.1012  0.1615 -0.6789
  645SOL     OW 2577   2.844   0.864   0.679  0.5972 -0.0400 -0.3925
  645SOL    HW1 2578   2.931   0.837   0.697 -0.0142 -1.3169 -0.3223
  645SOL    HW2 2579   2.785   0.805   0.726 -0.2568 -0.5110 -0.2525
  645SOL     MW 2580   2.848   0.853   0.687  0.4039 -0.2706 -0.3648
  646SOL     OW 2581   0.172   2.295   0.770 -0.0476  0.7081 -0.1816
  646SOL    HW1 2582   0.192   2.207   0.807 -0.2725 -3.9631  2.4131
  646SOL    HW2 2583   0.099   2.296   0.707 -0.1755  0.6334  2.4940
  646SOL     MW 2584   0.165   2.284   0.766 -0.0941  0.0819  0.5138
  647SOL     OW 2585   2.704   0.499   2.981 -0.3428 -0.4653 -0.2028
  647SOL    HW1 2586   2.642   0.432   3.019  0.3849 -0.1073  1.4745
  647SOL    HW2 2587   2.656   0.584   2.962 -0.1988 -2.4740  0.4014
  647SOL     MW 2588   2.690   0.501   2.984 -0.2278 -0.6831  0.0983
  648SOL     OW 2589   2.130   0.728   1.104 -0.1216 -0.0329  0.6202
  648SOL    HW1 2590   2.151   0.776   1.024 -1.2526 -0.7668 -2.3906
  648SOL    HW2 2591   2.178   0.778   1.173  0.9516  3.2421  1.4371
  648SOL     MW 2592   2.139   0.741   1.103 -0.1292  0.3024  0.3307
  649SOL     OW 2593   2.307   2.745   1.296 -0.7692 -0.1554  0.2559
  649SOL    HW1 2594   2.389   2.800   1.299  0.2599 -0.4753 -1.5300
  649SOL    HW2 2595   2.333   2.655   1.266  2.4216  0.2675 -2.7092
  649SOL     MW 2596   2.321   2.740   1.292 -0.2124 -0.1418 -0.3710
  650SOL     OW 2597   2.804   0.171   0.672 -0.2570  0.4696  0.0097
  650SOL    HW1 2598   2.780   0.258   0.697 -1.9578 -1.1415  0.5299
  650SOL    HW2 2599   2.859   0.178   0.593 -0.0513 -0.7313 -0.0746
  650SOL     MW 2600   2.808   0.184   0.665 -0.4542  0.0986  0.0672
  651SOL     OW 2601   2.987   0.413   0.750 -0.3062 -0.1471  0.1131
  651SOL    HW1 2602   3.076   0.450   0.754  1.8163  1.6652  1.3228
  651SOL    HW2 2603   2.948   0.452   0.828  0.3716 -2.8980  0.7942
  651SOL     MW 2604   2.994   0.423   0.761  0.0632 -0.2710  0.3626
  652SOL     OW 2605   2.411   1.508   3.018  0.0620  0.1913 -0.1915
  652SOL    HW1 2606   2.470   1.502   2.941  1.3489 -0.8942 -1.5621
  652SOL    HW2 2607   2.349   1.572   2.996  1.4989  0.2478 -0.4714
  652SOL     MW 2608   2.410   1.516   3.005  0.4214  0.0555 -0.4093
  653SOL     OW 2609   1.916   0.449   0.358 -0.5716 -0.0817 -0.0588
  653SOL    HW1 2610   1.867   0.400   0.296  0.0870 -0.5153  0.7966
  653SOL    HW2 2611   2.004   0.451   0.313  2.0706 -0.8969 -0.5026
  653SOL     MW 2612   1.921   0.443   0.344 -0.1361 -0.2465 -0.0045
  654SOL     OW 2613   2.451   1.062   0.752  0.3247 -0.2338  0.1379
  654SOL    HW1 2614   2.403   1.056   0.669 -1.4458 -0.2828  1.5487
  654SOL    HW2 2615   2.487   0.969   0.760 -0.2930 -0.5017 -1.2119
  654SOL     MW 2616   2.450   1.049   0.742  0.0096 -0.2756  0.1459
  655SOL     OW 2617   2.950   0.882   0.395 -0.3002  0.0692 -0.0892
  655SOL    HW1 2618   2.920   0.890   0.487  2.5307 -0.4077  0.4626
  655SOL    HW2 2619   2.972   0.787   0.387 -0.5642  0.2688 -1.4349
  655SOL     MW 2620   2.949   0.871   0.406  0.0385  0.0326 -0.1939
  656SOL     OW 2621   1.925   2.743   1.272 -0.5915  0.4341  0.4694
  656SOL    HW1 2622   1.911   2.836   1.299 -0.2555  0.6435  1.0507
  656SOL    HW2 2623   1.980   2.705   1.335 -0.8322 -0.6897 -1.5840
  656SOL     MW 2624   1.930   2.750   1.284 -0.5789  0.3134  0.2752
  657SOL     OW 2625   0.164   1.631   1.295 -0.2368  0.6126 -0.5106
  657SOL    HW1 2626   0.102   1.669   1.235  2.7601  0.3609 -1.4866
  657SOL    HW2 2627   0.141   1.537   1.296  1.1266  0.0269  1.0365
  657SOL     MW 2628   0.153   1.624   1.287  0.3385  0.5021 -0.4353
  658SOL     OW 2629   2.692   1.302   0.206  0.3634 -0.0760  0.4901
  658SOL    HW1 2630   2.651   1.235   0.264 -1.8979  1.3905 -0.9298
  658SOL    HW2 2631   2.734   1.361   0.270  0.2806 -2.1302  0.0870
  658SOL     MW 2632   2.692   1.301   0.222  0.0541 -0.1535  0.2495
  659SOL     OW 2633   2.282   1.495   1.064 -0.2882 -0.2679  0.6994
  659SOL    HW1 2634   2.364   1.502   1.106 -1.4902 -1.4600 -1.4497
  659SOL    HW2 2635   2.227   1.525   1.137 -1.2464 -3.0572  2.2096
  659SOL     MW 2636   2.285   1.500   1.079 -0.5732 -0.7932  0.6151
  660SOL     OW 2637   2.037   1.592   1.695 -0.3962  0.5508  0.1905
  660SOL    HW1 2638   2.060   1.593   1.790 -0.8429 -1.3381 -2.2115
  660SOL    HW2 2639   1.958   1.534   1.689  1.3091 -0.3235  1.9147
  660SOL     MW 2640   2.029   1.584   1.707 -0.2301  0.1862  0.1011
  661SOL     OW 2641   2.374   1.007   0.208  0.4429 -0.2086  0.9559
  661SOL    HW1 2642   2.449   1.041   0.269  0.0115  1.7811  0.8316
  661SOL    HW2 2643   2.378   0.911   0.230 -0.7681  0.8110  2.9703
  661SOL     MW 2644   2.384   0.999   0.219  0.2262  0.1885  1.2053
  662SOL     OW 2645   2.592   2.974   0.890  0.3090  0.1112 -0.0931
  662SOL    HW1 2646   2.535   3.042   0.921  3.8667 -0.5398 -0.8401
  662SOL    HW2 2647   2.619   3.001   0.801  1.0469  1.7561  0.1089
  662SOL     MW 2648   2.588   2.987   0.883  0.8758  0.2424 -0.1650
  663SOL     OW 2649   2.782   1.500   0.374 -1.0314 -0.0412  0.6927
  663SOL    HW1 2650   2.767   1.592   0.361  0.2246  2.4146 -1.8112
  663SOL    HW2 2651   2.829   1.491   0.459  1.0338 -0.3494  0.9597
  663SOL     MW 2652   2.786   1.511   0.383 -0.5932  0.2422  0.3975
  664SOL     OW 2653   2.501   1.497   1.611  0.1627  0.4248 -0.1943
  664SOL    HW1 2654   2.504   1.595   1.601  3.1556 -1.2622  1.4158
  664SOL    HW2 2655   2.410   1.474   1.639 -0.1554  0.5020 -0.2561
  664SOL     MW 2656   2.489   1.507   1.614  0.5156  0.2124  0.0100
  665SOL     OW 2657   2.878   0.863   2.015 -0.5397  0.6606 -0.5289
  665SOL    HW1 2658   2.839   0.904   1.938 -0.8802 -0.0615  2.0168
  665SOL    HW2 2659   2.950   0.796   2.008  0.6144  0.4548  0.6609
  665SOL     MW 2660   2.883   0.859   2.004 -0.4324  0.5382 -0.0360
  666SOL     OW 2661   2.784   3.013   1.674  0.5554  0.1130  0.4329
  666SOL    HW1 2662   2.784   3.003   1.576 -2.5238 -0.7249 -0.0295
  666SOL    HW2 2663   2.744   2.940   1.726 -0.1030 -1.7932  1.1431
  666SOL     MW 2664   2.778   3.002   1.668  0.0623 -0.2490  0.4656
  667SOL     OW 2665   1.988   2.639   1.707 -0.5512 -0.1595  0.2119
  667SOL    HW1 2666   2.016   2.559   1.756  1.7639 -0.0356  1.4620
  667SOL    HW2 2667   2.067   2.692   1.720  0.9512 -1.2070  0.1477
  667SOL     MW 2668   2.002   2.635   1.715 -0.0475 -0.2813  0.3683
  668SOL     OW 2669   2.731   0.634   0.788 -0.1035 -0.1975 -0.5962
  668SOL    HW1 2670   2.791   0.649   0.861  1.8990 -1.4956  0.5031
  668SOL    HW2 2671   2.655   0.690   0.810  0.2843 -4.6574  0.7923
  668SOL     MW 2672   2.729   0.643   0.801  0.2118 -0.9572 -0.2679
  669SOL     OW 2673   0.242   0.938   0.667  0.2594 -0.2407 -0.1593
  669SOL    HW1 2674   0.193   0.993   0.739 -0.8533  0.9066  2.6210
  669SOL    HW2 2675   0.327   0.915   0.708  1.5509  0.1885  2.5444
  669SOL     MW 2676   0.247   0.942   0.682  0.2830 -0.0327  0.5643
  670SOL     OW 2677   2.853   0.267   0.224 -0.7084 -0.8011  0.0689
  670SOL    HW1 2678   2.879   0.201   0.153  1.1630 -0.5364  2.1709
  670SOL    HW2 2679   2.874   0.354   0.194 -2.0454  0.1209 -0.0142
  670SOL     MW 2680   2.859   0.269   0.210 -0.6379 -0.6445  0.3353
  671SOL     OW 2681   2.089   2.946   1.509 -0.1850 -0.4558 -0.7953
  671SOL    HW1 2682   2.079   2.977   1.425  2.0112 -3.3693  1.2519
  671SOL    HW2 2683   2.031   2.993   1.567  0.5449 -0.7088  0.1235
  671SOL     MW 2684   2.080   2.956   1.506  0.2010 -0.8736 -0.4040
  672SOL     OW 2685   1.884   1.701   1.348  0.3784 -0.3677  0.7655
  672SOL    HW1 2686   1.803   1.743   1.376 -1.5508  0.6358 -0.9309
  672SOL    HW2 2687   1.903   1.758   1.267  1.7089 -1.9632 -0.5709
  672SOL     MW 2688   1.876   1.714   1.341  0.2994 -0.4458  0.3654
  673SOL     OW 2689   2.757   1.093   0.576 -0.3765  0.0362  0.2723
  673SOL    HW1 2690   2.788   1.009   0.611  2.4457  0.9038  2.7276
  673SOL    HW2 2691   2.822   1.149   0.616 -2.2045 -1.2500  0.1727
  673SOL     MW 2692   2.769   1.090   0.586 -0.2453 -0.0191  0.5831
  674SOL     OW 2693   2.515   0.085   1.213 -0.5300  0.0838 -0.0856
  674SOL    HW1 2694   2.478   0.094   1.122  0.0971  0.4630  0.4612
  674SOL    HW2 2695   2.477   0.002   1.242 -0.3720 -1.8164 -1.3561
  674SOL     MW 2696   2.505   0.075   1.205 -0.4264 -0.1169 -0.1811
  675SOL     OW 2697   3.027   0.864   1.065  0.1645  0.0611 -0.1209
  675SOL    HW1 2698   3.093   0.888   1.126 -2.9218  0.6918  0.6514
  675SOL    HW2 2699   3.047   0.938   1.007  0.0766 -1.5515 -1.1641
  675SOL     MW 2700   3.038   0.877   1.065 -0.2543 -0.0685 -0.1566
  676SOL     OW 2701   2.868   1.478   1.656 -0.1886 -0.3907  0.3310
  676SOL    HW1 2702   2.799   1.408   1.676 -1.1155  3.0710  0.9172
  676SOL    HW2 2703   2.945   1.445   1.703  0.7207  0.4138  0.2605
  676SOL     MW 2704   2.869   1.464   1.665 -0.1909  0.1722  0.3990
  677SOL     OW 2705   2.407   0.657   1.972  0.1940 -0.4111 -0.2049
  677SOL    HW1 2706   2.374   0.565   1.958 -1.5508 -1.2515 -0.7715
  677SOL    HW2 2707   2.354   0.714   2.025  1.0420  2.2488  1.0784
  677SOL     MW 2708   2.396   0.653   1.977  0.0757 -0.1711 -0.1103
  678SOL     OW 2709   2.540   1.644   0.395 -0.0892  0.0492 -0.2294
  678SOL    HW1 2710   2.454   1.699   0.395 -3.9988 -1.0783 -2.0505
  678SOL    HW2 2711   2.547   1.606   0.303  1.6935 -1.7733 -2.3603
  678SOL     MW 2712   2.530   1.646   0.383 -0.3698 -0.3401 -0.7508
  679SOL     OW 2713   2.280   0.488   1.174 -0.4607 -0.9946 -0.4858
  679SOL    HW1 2714   2.232   0.421   1.132  0.2139  0.2317 -0.5404
  679SOL    HW2 2715   2.226   0.562   1.151 -1.6368 -2.0475  1.2282
  679SOL     MW 2716   2.266   0.489   1.165 -0.5269 -0.9718 -0.2668
  680SOL     OW 2717   2.351   0.169   1.460  0.1455 -0.8059  0.6158
  680SOL    HW1 2718   2.256   0.205   1.441 -3.5842  0.5960  1.8719
  680SOL    HW2 2719   2.375   0.151   1.370 -0.0345 -0.5744 -1.8576
  680SOL     MW 2720   2.342   0.171   1.445 -0.3703 -0.5904  0.4552
  681SOL     OW 2721   0.339   0.582   1.546  0.2689  0.0160  0.2621
  681SOL    HW1 2722   0.326   0.517   1.618  0.0515 -0.4881 -1.1403
  681SOL    HW2 2723   0.425   0.562   1.509 -1.3079 -1.7035 -1.8544
  681SOL     MW 2724   0.349   0.571   1.551  0.0321 -0.2774 -0.2022
  682SOL     OW 2725   0.100   2.914   1.473 -0.8240 -0.3099  0.1933
  682SOL    HW1 2726   0.131   2.999   1.433  3.0349  2.4077  0.0308
  682SOL    HW2 2727   0.037   2.929   1.541  3.3155 -1.3734  1.5701
  682SOL     MW 2728   0.096   2.927   1.477  0.2313 -0.0916  0.3535
  683SOL     OW 2729   2.055   0.891   3.029  0.2898  0.5957 -0.2314
  683SOL    HW1 2730   1.979   0.863   2.977  0.6778  1.6978  1.3565
  683SOL    HW2 2731   2.030   0.979   3.061  1.2568  1.3194  1.5934
  683SOL     MW 2732   2.042   0.899   3.027  0.4686  0.8366  0.2188
  684SOL     OW 2733   2.200   1.723   0.931  0.3320 -0.5394 -0.1547
  684SOL    HW1 2734   2.112   1.710   0.891 -1.6285  2.1422  0.7656
  684SOL    HW2 2735   2.208   1.645   0.981  1.5817  1.2751 -3.4149
  684SOL     MW 2736   2.190   1.711   0.933  0.2382  0.0538 -0.4634
  685SOL     OW 2737   2.675   1.739   1.235  0.1516  0.0505 -0.0648
  685SOL    HW1 2738   2.727   1.691   1.303 -2.0058  0.3917  2.9771
  685SOL    HW2 2739   2.635   1.662   1.189  0.0593 -2.2135  1.6114
  685SOL     MW 2740   2.676   1.723   1.238 -0.1452 -0.2032  0.5577
  686SOL     OW 2741   2.912   0.736   1.524  0.0795  0.1608  0.2246
  686SOL    HW1 2742   2.905   0.674   1.600  0.4391  0.9890 -1.6861
  686SOL    HW2 2743   3.003   0.713   1.491  1.6395 -0.2368  1.8894
  686SOL     MW 2744   2.923   0.725   1.529  0.3327  0.2176  0.1921
  687SOL     OW 2745   2.069   0.302   1.134  0.1776 -0.7742 -0.6091
  687SOL    HW1 2746   2.078   0.222   1.087 -1.5269  0.8860 -0.3823
  687SOL    HW2 2747   1.980   0.333   1.112  0.0553 -0.4220  0.2879
  687SOL     MW 2748   2.058   0.296   1.125 -0.0634 -0.5087 -0.4608
  688SOL     OW 2749   2.377   0.649   1.424  0.5986  0.3986 -0.1491
  688SOL    HW1 2750   2.357   0.589   1.350  0.3260  0.6654  0.3010
  688SOL    HW2 2751   2.290   0.659   1.468  0.7887  1.9204 -3.0980
  688SOL     MW 2752   2.363   0.643   1.420  0.5877  0.6346 -0.4788
  689SOL     OW 2753   2.544   0.719   2.994 -0.0515  0.8741  0.0458
  689SOL    HW1 2754   2.555   0.808   2.958  2.1402 -0.1692  1.1768
  689SOL    HW2 2755   2.575   0.711   3.085 -1.2760 -3.7873 -0.4798
  689SOL     MW 2756   2.549   0.730   3.001  0.0761  0.1214  0.1257
  690SOL     OW 2757   2.077   0.941   1.936 -0.4292  0.2873  0.9484
  690SOL    HW1 2758   2.010   0.873   1.945 -0.0893 -0.3968 -1.3143
  690SOL    HW2 2759   2.113   0.936   1.848  0.1442 -0.2375  0.8932
  690SOL     MW 2760   2.073   0.932   1.926 -0.3087  0.1278  0.6426
  691SOL     OW 2761   2.457   0.255   0.799 -0.8369 -0.2975  0.5159
  691SOL    HW1 2762   2.512   0.270   0.876  0.6153 -0.3752  0.1435
  691SOL    HW2 2763   2.379   0.316   0.815  2.0051  0.1502  0.7877
  691SOL     MW 2764   2.454   0.265   0.811 -0.2703 -0.2487  0.5026
  692SOL     OW 2765   2.828   1.651   1.447  0.0957  0.5624  0.6475
  692SOL    HW1 2766   2.843   1.588   1.519 -0.2537  1.7117 -2.5614
  692SOL    HW2 2767   2.826   1.739   1.492 -0.2307 -0.5868 -1.3825
  692SOL     MW 2768   2.830   1.654   1.462  0.0065  0.5624 -0.0437
  693SOL     OW 2769   2.333   0.474   0.097 -0.3714  0.5835 -0.5480
  693SOL    HW1 2770   2.264   0.412   0.079  0.1881  2.0922 -3.3052
  693SOL    HW2 2771   2.304   0.553   0.062  0.6765 -3.3209  2.4826
  693SOL     MW 2772   2.320   0.476   0.090 -0.1593  0.2674 -0.5119
  694SOL     OW 2773   1.915   1.216   1.105  0.0188 -0.1624 -0.4775
  694SOL    HW1 2774   2.008   1.201   1.138 -1.2200  0.5042  0.4053
  694SOL    HW2 2775   1.863   1.158   1.162  2.5938  1.1356  0.5190
  694SOL     MW 2776   1.921   1.207   1.117  0.1951  0.0968 -0.2296
  695SOL     OW 2777   3.025   1.460   1.319 -0.0087  0.1318  0.4969
  695SOL    HW1 2778   2.995   1.442   1.228 -1.1838 -0.5860 -1.4667
  695SOL    HW2 2779   2.978   1.535   1.358  2.4504  0.0075 -3.5580
  695SOL     MW 2780   3.015   1.467   1.312  0.1607  0.0207 -0.2972
  696SOL     OW 2781   2.112   1.382   0.880  0.3237 -0.0831 -0.1221
  696SOL    HW1 2782   2.197   1.401   0.925 -1.6516 -1.4213 -2.5069
  696SOL    HW2 2783   2.069   1.325   0.943  0.6221  1.4343  0.3001
  696SOL     MW 2784   2.117   1.377   0.894  0.1024 -0.0594 -0.3810
  697SOL     OW 2785   2.922   1.098   2.159  0.1295  0.3008  0.3529
  697SOL    HW1 2786   2.842   1.140   2.171  1.0397 -1.8125  0.0614
  697SOL    HW2 2787   2.899   1.011   2.113  1.0003 -1.8658  0.8085
  697SOL     MW 2788   2.908   1.092   2.154  0.3645 -0.2639  0.3746
  698SOL     OW 2789   2.561   0.327   0.041  0.2220 -0.5004 -0.1091
  698SOL    HW1 2790   2.476   0.373   0.061 -0.9463 -0.1374 -0.2281
  698SOL    HW2 2791   2.574   0.271   0.113 -0.1632  1.3676  2.9858
  698SOL     MW 2792   2.551   0.326   0.053  0.0170 -0.2060  0.2835
  699SOL     OW 2793   1.821   1.664   2.009 -0.5172  0.4505 -0.5910
  699SOL    HW1 2794   1.794   1.571   2.026 -0.6321 -2.4254 -3.5124
  699SOL    HW2 2795   1.918   1.655   1.990  2.6146 -2.1939 -0.0976
  699SOL     MW 2796   1.830   1.651   2.009 -0.1191 -0.2778 -0.9114
  700SOL     OW 2797   2.711   0.918   1.531 -0.5432 -0.0782 -0.3064
  700SOL    HW1 2798   2.710   1.011   1.512  3.0480 -1.1285 -1.7306
  700SOL    HW2 2799   2.800   0.883   1.524 -2.3542  1.0274 -0.8834
  700SOL     MW 2800   2.722   0.926   1.527 -0.3083 -0.0709 -0.5705
  701SOL     OW 2801   1.595   1.258   2.527 -0.1220 -0.4599 -0.0548
  701SOL    HW1 2802   1.686   1.256   2.501 -1.0415 -1.3848 -2.2097
  701SOL    HW2 2803   1.582   1.332   2.588 -0.8761  1.0946  0.1064
  701SOL     MW 2804   1.606   1.267   2.532 -0.3428 -0.3769 -0.3179
  702SOL     OW 2805   2.203   0.386   0.869 -0.0643 -0.3236  0.0731
  702SOL    HW1 2806   2.170   0.326   0.799  2.3892  1.0793 -0.3735
  702SOL    HW2 2807   2.237   0.459   0.816  0.2074 -1.0685 -1.0942
  702SOL     MW 2808   2.203   0.388   0.852  0.2953 -0.2368 -0.1398
  703SOL     OW 2809   2.747   1.269   1.031  0.1526 -0.6402 -0.3674
  703SOL    HW1 2810   2.736   1.282   0.940 -0.2181 -0.6971  2.6808
  703SOL    HW2 2811   2.778   1.179   1.053 -0.4366  1.1825 -1.7124
  703SOL     MW 2812   2.749   1.259   1.022  0.0259 -0.4072 -0.1427
  704SOL     OW 2813   0.014   1.319   0.251  0.8468 -0.0979 -0.2106
  704SOL    HW1 2814  -0.049   1.263   0.212 -1.5479  0.1724  0.9401
  704SOL    HW2 2815   0.018   1.274   0.342 -0.9340  0.5398 -0.8155
  704SOL     MW 2816   0.006   1.305   0.258  0.2959  0.0219 -0.1386
  705SOL     OW 2817   2.232   1.608   1.305 -0.2619 -0.0426  0.2846
  705SOL    HW1 2818   2.154   1.643   1.356  3.0416 -3.2916 -0.6837
  705SOL    HW2 2819   2.240   1.521   1.336  3.1805 -0.4886 -0.7623
  705SOL     MW 2820   2.222   1.601   1.316  0.6282 -0.5301  0.0187
  706SOL     OW 2821   2.951   1.230   0.695  0.2106 -0.1599 -0.0598
  706SOL    HW1 2822   3.016   1.211   0.632 -1.1134  0.2591  1.8458
  706SOL    HW2 2823   2.936   1.325   0.697 -0.2052 -1.5059  0.8349
  706SOL     MW 2824   2.957   1.240   0.687 -0.0190 -0.2822  0.3097
  707SOL     OW 2825   2.390   0.061   0.970  0.0456  0.0938  0.5791
  707SOL    HW1 2826   2.414   0.131   0.901 -1.0496  2.7468 -2.3929
  707SOL    HW2 2827   2.295   0.057   0.973 -0.1810 -2.6225 -1.2274
  707SOL     MW 2828   2.381   0.069   0.961 -0.1288  0.0854 -0.0514
  708SOL     OW 2829   2.578   1.557   0.140 -0.0129 -0.3651 -0.1686
  708SOL    HW1 2830   2.607   1.470   0.160 -1.9151 -0.6028  1.2971
  708SOL    HW2 2831   2.504   1.531   0.082  2.4448 -0.0018 -2.7845
  708SOL     MW 2832   2.572   1.542   0.135  0.0604 -0.3485 -0.3204
  709SOL     OW 2833   1.722   1.710   0.133 -0.0915 -0.1669 -0.6500
  709SOL    HW1 2834   1.668   1.782   0.091  0.3807  1.0507 -0.9743
  709SOL    HW2 2835   1.654   1.687   0.195 -1.7476  1.5725  1.6119
  709SOL     MW 2836   1.706   1.717   0.136 -0.2477  0.2232 -0.3943
  710SOL     OW 2837   2.164   1.164   1.179  0.4615 -0.5767  0.4199
  710SOL    HW1 2838   2.219   1.139   1.103 -0.6481  1.4415  1.1958
  710SOL    HW2 2839   2.189   1.089   1.235  1.4406 -1.2293  1.0057
  710SOL     MW 2840   2.175   1.151   1.176  0.4443 -0.3965  0.5995
  711SOL     OW 2841   2.339   0.134   1.749  0.3610  0.0884 -0.0728
  711SOL    HW1 2842   2.435   0.125   1.774 -1.0919  0.7805 -0.2763
  711SOL    HW2 2843   2.335   0.131   1.649 -1.0243 -2.5366 -1.1277
  711SOL     MW 2844   2.351   0.132   1.739 -0.0135 -0.1666 -0.2388
  712SOL     OW 2845   1.884   0.591   3.083  0.5030 -0.7581 -0.2808
  712SOL    HW1 2846   1.884   0.654   3.010 -0.5116  0.6785 -0.5735
  712SOL    HW2 2847   1.935   0.633   3.145 -0.5342 -2.4695  0.9860
  712SOL     MW 2848   1.891   0.605   3.082  0.2323 -0.7943 -0.1523
  713SOL     OW 2849   2.559   0.804   1.092  0.0447  0.3216  0.0941
  713SOL    HW1 2850   2.540   0.707   1.088 -1.5383  2.5340  0.1923
  713SOL    HW2 2851   2.550   0.820   1.190  0.1495 -0.4215  0.0364
  713SOL     MW 2852   2.555   0.793   1.105 -0.1504  0.5155  0.0994
  714SOL     OW 2853   2.160   0.211   1.966  0.1344 -0.5084 -0.1566
  714SOL    HW1 2854   2.196   0.192   2.061 -2.1512  0.7717 -0.1161
  714SOL    HW2 2855   2.230   0.206   1.902 -1.3584  0.9596 -0.2961
  714SOL     MW 2856   2.174   0.208   1.970 -0.3641 -0.1458 -0.1696
  715SOL     OW 2857   1.730   1.904   1.679  0.0957  0.0553 -0.2830
  715SOL    HW1 2858   1.811   1.868   1.642 -1.8582  2.5248 -0.0599
  715SOL    HW2 2859   1.687   1.831   1.725 -2.7197 -0.3635  0.5533
  715SOL     MW 2860   1.735   1.890   1.680 -0.5336  0.3259 -0.1432
  716SOL     OW 2861   2.372   0.577   0.757 -0.2791  0.5139 -0.2310
  716SOL    HW1 2862   2.434   0.526   0.706 -0.2007  0.8508 -0.3271
  716SOL    HW2 2863   2.310   0.614   0.693 -2.5475 -0.7477 -0.6727
  716SOL     MW 2864   2.372   0.575   0.742 -0.5680  0.3919 -0.3020
  717SOL     OW 2865   2.872   1.420   2.905  0.4660 -0.2279  0.2838
  717SOL    HW1 2866   2.969   1.430   2.910 -0.4529  0.6988 -2.3864
  717SOL    HW2 2867   2.839   1.485   2.965  1.5961  0.4155  1.8484
  717SOL     MW 2868   2.880   1.430   2.914  0.4938 -0.0207  0.1379
  718SOL     OW 2869   2.529   1.376   1.343  0.4861  0.0941 -0.0641
  718SOL    HW1 2870   2.522   1.417   1.433 -0.4812 -1.9497 -1.4092
  718SOL    HW2 2871   2.606   1.321   1.361 -0.3327 -0.0664 -1.3451
  718SOL     MW 2872   2.538   1.374   1.357  0.2504 -0.1968 -0.4106
  719SOL     OW 2873   2.218   1.327   0.628 -0.0420 -0.3567  0.7733
  719SOL    HW1 2874   2.302   1.322   0.588 -0.0603 -0.6631  0.4017
  719SOL    HW2 2875   2.220   1.367   0.714  2.1986 -1.6165 -0.2782
  719SOL     MW 2876   2.229   1.332   0.634  0.2512 -0.5633  0.5855
  720SOL     OW 2877   2.928   1.166   0.113  0.1914 -0.0842 -0.2008
  720SOL    HW1 2878   2.933   1.075   0.138  1.5345  0.6174 -1.1813
  720SOL    HW2 2879   2.852   1.206   0.172 -2.9595 -1.6914  1.1994
  720SOL     MW 2880   2.918   1.159   0.124 -0.0471 -0.2037 -0.1454
  721SOL     OW 2881   2.504   0.897   1.350 -0.2670  0.2654  0.1186
  721SOL    HW1 2882   2.465   0.818   1.387  2.4362 -0.7149 -0.6407
  721SOL    HW2 2883   2.569   0.910   1.426 -0.7616 -2.8812  1.1660
  721SOL     MW 2884   2.507   0.888   1.365  0.0244 -0.2791  0.1566
  722SOL     OW 2885   2.559   1.129   0.369 -0.3967 -0.3646 -0.3413
  722SOL    HW1 2886   2.533   1.211   0.415 -0.9436 -1.7649 -1.8716
  722SOL    HW2 2887   2.627   1.093   0.431  2.5379  0.3752  3.4640
  722SOL     MW 2888   2.565   1.135   0.383 -0.0817 -0.4517 -0.0411
  723SOL     OW 2889   2.220   1.406   1.663 -0.1025 -0.2488  0.3890
  723SOL    HW1 2890   2.211   1.388   1.572  4.2503  0.0047  0.0334
  723SOL    HW2 2891   2.153   1.476   1.676 -0.2352  0.2052 -0.8402
  723SOL     MW 2892   2.210   1.413   1.653  0.4543 -0.1554  0.1799
  724SOL     OW 2893   2.528   0.413   0.595  0.0440  0.0645  0.3046
  724SOL    HW1 2894   2.508   0.327   0.640  1.5851  0.7344  1.3854
  724SOL    HW2 2895   2.625   0.422   0.586 -0.2577  1.7610  1.9620
  724SOL     MW 2896   2.538   0.403   0.599  0.2076  0.3767  0.6659
  725SOL     OW 2897   2.552   0.529   1.135 -0.6195 -0.5389 -0.1633
  725SOL    HW1 2898   2.614   0.558   1.199  1.3678 -0.9643  2.1577
  725SOL    HW2 2899   2.464   0.528   1.170  1.2295  0.9058  0.2288
  725SOL     MW 2900   2.548   0.533   1.148 -0.1133 -0.4044  0.1946
  726SOL     OW 2901   2.570   2.449   0.565 -0.0588  0.6572 -0.1022
  726SOL    HW1 2902   2.500   2.507   0.529 -3.8232 -0.6191 -0.0856
  726SOL    HW2 2903   2.520   2.380   0.608  0.4197 -3.6896  0.7637
  726SOL     MW 2904   2.554   2.448   0.566 -0.4924 -0.0847  0.0143
  727SOL     OW 2905   2.943   0.257   1.565 -0.3413  0.2938 -0.4706
  727SOL    HW1 2906   2.922   0.277   1.474 -1.7365 -0.4954  2.1418
  727SOL    HW2 2907   2.862   0.223   1.603 -0.5518  2.2628  2.2217
  727SOL     MW 2908   2.929   0.255   1.558 -0.5531  0.4494  0.2293
  728SOL     OW 2909   2.823   1.158   2.955  0.3837 -0.3094 -0.5713
  728SOL    HW1 2910   2.829   1.249   2.925 -2.1631  1.2256 -1.4604
  728SOL    HW2 2911   2.862   1.157   3.045  1.1568  1.5002 -0.4469
  728SOL     MW 2912   2.829   1.169   2.963  0.1497  0.1319 -0.6722
  729SOL     OW 2913   2.557   1.534   1.114 -0.0790  0.2778 -0.4409
  729SOL    HW1 2914   2.570   1.464   1.177 -1.5172 -1.2919 -2.5786
  729SOL    HW2 2915   2.586   1.516   1.028  0.0250  2.0163  2.8801
  729SOL     MW 2916   2.562   1.523   1.111 -0.2550  0.3000 -0.2848
  730SOL     OW 2917   2.130   1.128   0.257  0.3475  0.2350 -0.5120
  730SOL    HW1 2918   2.213   1.088   0.234 -0.9546 -0.5516 -2.8415
  730SOL    HW2 2919   2.146   1.224   0.259  0.0410  1.2288  2.4943
  730SOL     MW 2920   2.143   1.136   0.255  0.1352  0.2623 -0.4227
  731SOL     OW 2921   2.836   1.860   2.880  0.4257  0.1958 -0.1787
  731SOL    HW1 2922   2.793   1.920   2.809  2.7473 -0.4939  2.9349
  731SOL    HW2 2923   2.908   1.918   2.906  0.2623  0.3385  1.1791
  731SOL     MW 2924   2.840   1.876   2.874  0.7105  0.1236  0.4113
  732SOL     OW 2925   2.232   0.917   1.331 -0.5419  0.7500  0.2375
  732SOL    HW1 2926   2.203   0.946   1.418 -0.1083  2.5326  0.5907
  732SOL    HW2 2927   2.326   0.930   1.325 -2.2083 -2.8507 -4.3722
  732SOL     MW 2928   2.241   0.923   1.342 -0.7045  0.5101 -0.3241
  733SOL     OW 2929   2.363   2.812   3.009 -0.8730 -0.1002 -0.1426
  733SOL    HW1 2930   2.286   2.872   3.020 -0.8620 -0.3486 -0.0196
  733SOL    HW2 2931   2.332   2.720   3.004  0.7306 -2.1709  0.9017
  733SOL     MW 2932   2.349   2.808   3.010 -0.6600 -0.4062  0.0114
  734SOL     OW 2933   1.502   0.350   2.476 -0.3192  0.1114  0.1125
  734SOL    HW1 2934   1.478   0.303   2.563 -1.2740 -1.8672  2.2099
  734SOL    HW2 2935   1.515   0.277   2.408 -0.1049 -0.3215 -0.4959
  734SOL     MW 2936   1.501   0.335   2.479 -0.4169 -0.2068  0.3090
  735SOL     OW 2937   2.985   0.943   2.563 -0.1100  0.2323  0.1731
  735SOL    HW1 2938   2.975   0.846   2.577  2.1182  0.4921  3.4034
  735SOL    HW2 2939   2.982   0.970   2.654 -0.0567  0.5306 -1.6446
  735SOL     MW 2940   2.983   0.934   2.577  0.1910  0.3060  0.3595
  736SOL     OW 2941   0.081   0.615   2.555  0.0470  0.4593  0.5875
  736SOL    HW1 2942   0.125   0.668   2.490  0.6519 -0.4796 -1.9870
  736SOL    HW2 2943   0.074   0.526   2.511 -1.0917  1.7680  0.1199
  736SOL     MW 2944   0.086   0.610   2.541 -0.0234  0.5081  0.1862
  737SOL     OW 2945   2.930   0.684   2.607  0.6251  0.1961 -0.2295
  737SOL    HW1 2946   2.875   0.658   2.531  0.5861 -1.4729  0.4452
  737SOL    HW2 2947   3.022   0.660   2.583  0.1176 -0.5804  0.8874
  737SOL     MW 2948   2.935   0.678   2.594  0.5530 -0.1266  0.0069
  738SOL     OW 2949   0.193   0.522   1.944  0.5010 -0.0102 -0.6241
  738SOL    HW1 2950   0.273   0.583   1.942  1.2961  0.5912  1.4982
  738SOL    HW2 2951   0.205   0.457   1.875 -2.0854 -3.9444  1.3530
  738SOL     MW 2952   0.205   0.521   1.935  0.2647 -0.4499 -0.0832
  739SOL     OW 2953   2.483   1.006   2.130 -0.5543  0.5350 -0.1443
  739SOL    HW1 2954   2.432   0.929   2.108 -1.4126  1.0858 -1.3491
  739SOL    HW2 2955   2.495   1.054   2.049  0.0233 -0.7218  0.4678
  739SOL     MW 2956   2.478   1.002   2.116 -0.5913  0.4419 -0.2225
  740SOL     OW 2957   0.152   1.763   2.957  0.5789 -0.1274  0.1711
  740SOL    HW1 2958   0.104   1.683   2.931 -0.0760 -1.0669 -2.1460
  740SOL    HW2 2959   0.241   1.740   2.989  1.9683  2.6709  0.6825
  740SOL     MW 2960   0.157   1.750   2.958  0.6758  0.1178 -0.0671
  741SOL     OW 2961   2.256   1.274   2.717  0.4543  0.2777  0.6440
  741SOL    HW1 2962   2.226   1.354   2.667  0.3351 -1.1007 -0.6384
  741SOL    HW2 2963   2.220   1.281   2.807  1.7582 -2.9627  1.6805
  741SOL     MW 2964   2.248   1.286   2.722  0.6106 -0.3317  0.6116
  742SOL     OW 2965   1.586   1.337   2.234 -0.2208 -0.1417 -0.5195
  742SOL    HW1 2966   1.566   1.245   2.217 -1.0533  0.1368  0.3977
  742SOL    HW2 2967   1.560   1.350   2.328 -0.7454 -0.4063  0.2758
  742SOL     MW 2968   1.580   1.327   2.244 -0.3998 -0.1399 -0.2936
  743SOL     OW 2969   2.522   1.226   2.756  0.1351  0.0950  0.4010
  743SOL    HW1 2970   2.435   1.231   2.728 -2.0618  0.5917 -0.2419
  743SOL    HW2 2971   2.529   1.151   2.823 -0.5377 -1.0235  2.8952
  743SOL     MW 2972   2.511   1.217   2.761 -0.2435  0.0129  0.6452
  744SOL     OW 2973   2.748   0.986   1.794  0.0243 -0.4376 -0.1525
  744SOL    HW1 2974   2.690   1.048   1.842  0.0761 -1.1619  0.7391
  744SOL    HW2 2975   2.708   0.959   1.706 -0.5560 -0.3514 -0.7550
  744SOL     MW 2976   2.735   0.991   1.789 -0.0455 -0.5218 -0.1144
  745SOL     OW 2977   1.763   0.413   2.486  0.3236 -0.0333  0.4633
  745SOL    HW1 2978   1.752   0.422   2.391 -0.1693  2.1109 -0.1805
  745SOL    HW2 2979   1.676   0.392   2.517  0.7014  0.5038  2.8214
  745SOL     MW 2980   1.750   0.411   2.478  0.3084  0.3205  0.6895
  746SOL     OW 2981   1.492   1.459   1.697  0.0227  0.1902  0.5016
  746SOL    HW1 2982   1.563   1.513   1.728  0.9897 -0.4366  1.2513
  746SOL    HW2 2983   1.486   1.389   1.766 -0.9596  2.1853  0.2051
  746SOL     MW 2984   1.500   1.457   1.710  0.0207  0.3707  0.5614
  747SOL     OW 2985   2.567   1.172   1.921 -0.5545  0.4609 -0.1457
  747SOL    HW1 2986   2.484   1.173   1.870  0.0274  1.3172  3.6765
  747SOL    HW2 2987   2.574   1.258   1.966  4.1930 -0.8629  0.5704
  747SOL     MW 2988   2.557   1.184   1.920  0.1487  0.3992  0.4531
  748SOL     OW 2989   0.079   3.075   1.854  0.3045  0.5272 -0.9172
  748SOL    HW1 2990   0.171   3.058   1.845  1.5663  2.2180  3.1269
  748SOL    HW2 2991   0.067   3.131   1.933 -2.7733  0.2989  1.5877
  748SOL     MW 2992   0.089   3.080   1.863  0.0649  0.7202 -0.0532
  749SOL     OW 2993   2.417   0.554   2.771 -0.5868 -0.3321 -0.5589
  749SOL    HW1 2994   2.445   0.636   2.727 -0.8506  1.8928 -1.3565
  749SOL    HW2 2995   2.417   0.576   2.870 -2.3733 -0.5502  3.3824
  749SOL     MW 2996   2.421   0.568   2.778 -0.8574 -0.0673 -0.1441
  750SOL     OW 2997   2.050   3.071   1.942 -0.0115  0.5229  0.3945
  750SOL    HW1 2998   2.106   3.145   1.964 -1.1834 -2.5334  3.4050
  750SOL    HW2 2999   2.116   2.992   1.939  1.5653 -3.2381  0.8517
  750SOL     MW 3000   2.066   3.070   1.945  0.0420 -0.3766  0.8520
  751SOL     OW 3001   0.032   0.392   2.417 -0.1930 -0.1045 -0.8577
  751SOL    HW1 3002  -0.031   0.435   2.364 -0.2699  2.6013 -0.8466
  751SOL    HW2 3003   0.097   0.360   2.355  1.5417  0.2171  2.2432
  751SOL     MW 3004   0.033   0.394   2.402  0.0257  0.2949 -0.4471
  752SOL     OW 3005   2.144   0.897   2.741  0.0203  0.1175 -0.1404
  752SOL    HW1 3006   2.217   0.950   2.705  2.2420 -0.8291  0.4807
  752SOL    HW2 3007   2.154   0.899   2.834 -2.0330 -1.0500  0.7386
  752SOL     MW 3008   2.155   0.905   2.748  0.0425 -0.1614  0.0575
  753SOL     OW 3009   2.854   0.393   2.349  0.0757 -0.7041 -0.2831
  753SOL    HW1 3010   2.795   0.319   2.322 -1.8333 -0.1425  2.0386
  753SOL    HW2 3011   2.797   0.459   2.387  0.0865 -4.3791  1.0062
  753SOL     MW 3012   2.838   0.392   2.350 -0.1747 -1.1149  0.1933
  754SOL     OW 3013   2.213   3.026   2.596 -0.7050  0.0767  0.2037
  754SOL    HW1 3014   2.254   3.004   2.508 -0.2352  0.9883  0.2014
  754SOL    HW2 3015   2.269   2.980   2.659  0.8015  2.4642  0.9270
  754SOL     MW 3016   2.226   3.017   2.593 -0.4442  0.5120  0.2988
  755SOL     OW 3017   2.789   1.578   2.494 -0.4320  0.2074  0.2141
  755SOL    HW1 3018   2.731   1.515   2.533 -1.2175  1.9836  1.2580
  755SOL    HW2 3019   2.843   1.601   2.567  0.1479 -0.5548 -1.3237
  755SOL     MW 3020   2.789   1.573   2.508 -0.4592  0.3412  0.1489
  756SOL     OW 3021   2.230   1.253   2.971 -0.3452  0.2374  0.2481
  756SOL    HW1 3022   2.284   1.324   3.001 -0.0377 -2.2972 -0.4699
  756SOL    HW2 3023   2.278   1.168   2.983 -0.6769  2.0025  0.0670
  756SOL     MW 3024   2.244   1.251   2.976 -0.3484  0.1358  0.1295
  757SOL     OW 3025   2.159   0.965   1.636 -0.7221  0.2817 -0.1606
  757SOL    HW1 3026   2.183   0.873   1.624  0.5548  1.1712 -0.4630
  757SOL    HW2 3027   2.074   0.980   1.600 -0.5814  1.1353 -0.7294
  757SOL     MW 3028   2.151   0.955   1.629 -0.5350  0.5117 -0.2755
  758SOL     OW 3029   2.251   1.733   2.662 -0.5543 -0.1011  0.1043
  758SOL    HW1 3030   2.256   1.783   2.585  0.4582  0.4171  3.6280
  758SOL    HW2 3031   2.341   1.748   2.695  0.8722 -0.2333  0.4907
  758SOL     MW 3032   2.264   1.741   2.656 -0.2325 -0.0502  0.6202
  759SOL     OW 3033   1.545   1.395   2.782 -0.0091 -0.5301 -0.6458
  759SOL    HW1 3034   1.559   1.481   2.751  1.7436  0.2856  0.4692
  759SOL    HW2 3035   1.628   1.350   2.792 -0.7693  2.9500  4.1516
  759SOL     MW 3036   1.558   1.400   2.779  0.1218  0.0367  0.1343
  760SOL     OW 3037   2.679   1.990   2.675 -0.2805 -0.4542 -0.0350
  760SOL    HW1 3038   2.640   1.905   2.670 -2.3214 -0.5028  1.0430
  760SOL    HW2 3039   2.741   1.984   2.599  0.4080  2.1749  1.8588
  760SOL     MW 3040   2.682   1.978   2.664 -0.4589 -0.1137  0.3571
  761SOL     OW 3041   2.125   0.402   2.469 -0.5172 -0.1147  0.1540
  761SOL    HW1 3042   2.076   0.319   2.440 -1.2781 -3.8705 -3.5946
  761SOL    HW2 3043   2.111   0.406   2.561  0.6087  2.6233 -1.7967
  761SOL     MW 3044   2.117   0.391   2.477 -0.4690 -0.2490 -0.5980
  762SOL     OW 3045   0.024   0.164   2.072 -0.2624 -0.0293 -0.1917
  762SOL    HW1 3046   0.027   0.111   2.151  0.9890 -0.2588 -0.3248
  762SOL    HW2 3047  -0.059   0.214   2.073 -0.2685  1.5381 -3.0649
  762SOL     MW 3048   0.014   0.164   2.082 -0.0981  0.1472 -0.5883
  763SOL     OW 3049   2.423   1.168   2.351  0.1122  0.2228 -0.4583
  763SOL    HW1 3050   2.466   1.109   2.284  0.5914  1.5919 -0.5200
  763SOL    HW2 3051   2.487   1.237   2.380 -0.3957  0.8550  0.8072
  763SOL     MW 3052   2.437   1.170   2.346  0.1084  0.4868 -0.2995
  764SOL     OW 3053   0.310   0.168   2.808  0.5755  0.0890  0.1151
  764SOL    HW1 3054   0.237   0.215   2.761  1.1298 -0.1260  0.6538
  764SOL    HW2 3055   0.341   0.241   2.861 -3.7935  0.6551 -0.3603
  764SOL     MW 3056   0.305   0.184   2.809  0.0722  0.1353  0.1235
  765SOL     OW 3057   2.717   0.154   2.318 -0.5431  0.3927  0.1858
  765SOL    HW1 3058   2.659   0.140   2.246 -1.6524 -1.9095  2.2544
  765SOL    HW2 3059   2.777   0.077   2.320 -0.8295  0.5130 -1.9918
  765SOL     MW 3060   2.717   0.142   2.308 -0.7273  0.1048  0.1714
  766SOL     OW 3061   1.864   3.014   2.109  0.1326  0.0674  0.3180
  766SOL    HW1 3062   1.931   3.037   2.040 -0.7555 -2.0459 -1.0162
  766SOL    HW2 3063   1.813   2.952   2.054  1.8575  0.0088 -1.9039
  766SOL     MW 3064   1.866   3.009   2.093  0.2430 -0.2192 -0.1512
  767SOL     OW 3065   2.669   0.606   1.860  0.0637 -0.0640 -0.0839
  767SOL    HW1 3066   2.714   0.656   1.923  0.3061  0.6882 -0.6236
  767SOL    HW2 3067   2.582   0.647   1.856 -1.9366 -1.1998 -1.4151
  767SOL     MW 3068   2.664   0.618   1.868 -0.1682 -0.1146 -0.3307
  768SOL     OW 3069   0.030   1.531   2.916  0.4540  0.0608 -0.2622
  768SOL    HW1 3070   0.049   1.480   2.996  0.1271  1.1472  1.2879
  768SOL    HW2 3071   0.073   1.479   2.845  0.3116 -1.0202 -1.6964
  768SOL     MW 3072   0.038   1.518   2.917  0.3921  0.0615 -0.2469
  769SOL     OW 3073   2.362   0.643   2.424 -0.2886  0.6219 -0.1076
  769SOL    HW1 3074   2.306   0.570   2.433 -0.6917 -0.1331 -0.6455
  769SOL    HW2 3075   2.403   0.629   2.335  1.0663  3.2820 -0.9365
  769SOL     MW 3076   2.360   0.632   2.413 -0.1630  0.8732 -0.2880
  770SOL     OW 3077   0.041   1.625   2.573 -0.1696 -0.1389 -0.0516
  770SOL    HW1 3078  -0.044   1.620   2.625  0.6879  1.0735  1.4742
  770SOL    HW2 3079   0.083   1.545   2.598  0.7129  2.7283  0.7919
  770SOL     MW 3080   0.035   1.614   2.583  0.0600  0.3994  0.2610
  771SOL     OW 3081   3.042   0.623   1.985  0.8739  0.1305  0.2667
  771SOL    HW1 3082   3.010   0.611   1.892 -0.0746 -0.8382 -0.7460
  771SOL    HW2 3083   3.128   0.583   1.992 -3.4897 -1.6243 -3.5278
  771SOL     MW 3084   3.049   0.616   1.973  0.1730 -0.2289 -0.3675
  772SOL     OW 3085   0.014   0.010   2.340 -0.3083  0.2057 -0.0179
  772SOL    HW1 3086  -0.072  -0.016   2.377  1.5205  0.5173  0.0527
  772SOL    HW2 3087   0.046  -0.060   2.282  0.4987  0.1873 -0.8402
  772SOL     MW 3088   0.007  -0.003   2.337  0.0395  0.2444 -0.1171
  773SOL     OW 3089   2.415   2.899   2.760  0.3932  0.1105 -0.0012
  773SOL    HW1 3090   2.410   2.813   2.725 -0.0931 -0.7641 -1.0026
  773SOL    HW2 3091   2.407   2.879   2.852 -1.1002 -1.6495 -1.5284
  773SOL     MW 3092   2.413   2.885   2.767  0.1320 -0.2371 -0.3348
  774SOL     OW 3093   2.306   1.180   1.784  0.4826  0.2170 -0.4120
  774SOL    HW1 3094   2.271   1.252   1.728 -1.1805  1.5474  2.3073
  774SOL    HW2 3095   2.272   1.106   1.738 -1.6043 -2.8534  1.4692
  774SOL     MW 3096   2.297   1.180   1.771 -0.0121 -0.0126  0.1950
  775SOL     OW 3097   2.325   2.969   2.353 -0.6589  0.5034  0.0092
  775SOL    HW1 3098   2.320   3.043   2.296  1.8536 -0.0393  1.5472
  775SOL    HW2 3099   2.378   2.897   2.316  1.1131 -0.7208  3.8976
  775SOL     MW 3100   2.331   2.969   2.340 -0.0936  0.2702  0.7252
  776SOL     OW 3101   0.127   1.500   0.089  0.6022 -0.3603  0.1646
  776SOL    HW1 3102   0.220   1.485   0.104 -0.5110 -0.3926 -1.8691
  776SOL    HW2 3103   0.085   1.433   0.142 -3.1398  0.0166  0.6895
  776SOL     MW 3104   0.134   1.490   0.098 -0.0384 -0.3149 -0.0344
  777SOL     OW 3105   3.012   1.108   1.721 -0.0748 -0.1193  0.1974
  777SOL    HW1 3106   3.001   1.180   1.657 -0.2924  1.0635 -1.0302
  777SOL    HW2 3107   2.928   1.071   1.729  0.3017  0.1840 -0.4941
  777SOL     MW 3108   2.999   1.112   1.714 -0.0538  0.0768 -0.0558
  778SOL     OW 3109   2.841   0.439   2.749  0.2686 -0.5397  0.9790
  778SOL    HW1 3110   2.810   0.476   2.835  0.8292 -0.8741  0.4981
  778SOL    HW2 3111   2.881   0.515   2.703  1.5670  1.4159 -0.3576
  778SOL     MW 3112   2.842   0.454   2.754  0.5139 -0.3258  0.7392
  779SOL     OW 3113   2.206   0.546   2.186 -0.9695 -0.0925 -0.0140
  779SOL    HW1 3114   2.203   0.641   2.177 -2.1669  1.7303  0.3946
  779SOL    HW2 3115   2.146   0.525   2.263 -2.6776  0.3935 -1.4741
  779SOL     MW 3116   2.198   0.556   2.195 -1.3529  0.2122 -0.1527
  780SOL     OW 3117   0.122   0.293   2.661 -0.4201 -0.1199  0.1588
  780SOL    HW1 3118   0.109   0.363   2.723 -1.1391 -0.6678 -1.2328
  780SOL    HW2 3119   0.051   0.300   2.601 -2.8765  1.6696  2.8011
  780SOL     MW 3120   0.111   0.303   2.661 -0.8390  0.0439  0.3238
  781SOL     OW 3121   3.042   1.302   2.467  0.2520 -0.0949  0.0259
  781SOL    HW1 3122   3.038   1.373   2.401 -1.6494  0.8285  0.3122
  781SOL    HW2 3123   3.067   1.220   2.425  1.0759 -1.1550  0.1943
  781SOL     MW 3124   3.045   1.300   2.452  0.1098 -0.1129  0.0859
  782SOL     OW 3125   0.651   1.596   0.006 -0.0380 -0.0666 -0.6668
  782SOL    HW1 3126   0.569   1.626  -0.038  1.9064 -1.3302  0.4381
  782SOL    HW2 3127   0.644   1.634   0.097  0.6091 -0.7572  2.2746
  782SOL     MW 3128   0.639   1.605   0.012  0.3039 -0.3245 -0.1329
  783SOL     OW 3129   2.723   0.616   2.436 -0.1121 -0.5133 -0.4568
  783SOL    HW1 3130   2.673   0.632   2.355  1.9401 -0.2973 -2.2680
  783SOL    HW2 3131   2.666   0.572   2.505 -0.5742 -0.1554 -0.1945
  783SOL     MW 3132   2.709   0.612   2.434  0.0977 -0.4376 -0.6612
  784SOL     OW 3133   0.117   0.810   2.833  0.2849  0.3427 -0.7857
  784SOL    HW1 3134   0.061   0.895   2.825  0.2310  2.0370 -0.2923
  784SOL    HW2 3135   0.171   0.822   2.754  0.9732 -0.0067 -0.7966
  784SOL     MW 3136   0.117   0.823   2.821  0.3686  0.5202 -0.7221
  785SOL     OW 3137   0.418   0.492   2.177 -0.2235  0.2531  0.3169
  785SOL    HW1 3138   0.434   0.493   2.078 -0.7220 -1.7787  0.3782
  785SOL    HW2 3139   0.337   0.437   2.195 -1.8591  1.7575 -3.1622
  785SOL     MW 3140   0.409   0.484   2.166 -0.5051  0.1835 -0.1341
  786SOL     OW 3141   1.929   0.350   2.954 -0.1072  0.0263  0.3272
  786SOL    HW1 3142   1.914   0.437   2.981  0.5528 -2.6474 -0.8185
  786SOL    HW2 3143   1.957   0.347   2.859  1.0127  1.9534 -1.1078
  786SOL     MW 3144   1.931   0.361   2.945  0.1276 -0.0722 -0.0133
  787SOL     OW 3145   2.469   0.140   2.940 -0.3958  0.7482 -0.4771
  787SOL    HW1 3146   2.533   0.079   2.897  0.6636  2.7567  2.1413
  787SOL    HW2 3147   2.524   0.209   2.976 -1.9272 -1.9557 -0.0528
  787SOL     MW 3148   2.485   0.141   2.939 -0.4581  0.6564 -0.0756
  788SOL     OW 3149   2.869   3.020   2.359 -0.3491 -0.2456 -0.7992
  788SOL    HW1 3150   2.806   3.002   2.433  0.0343 -0.9169  1.7187
  788SOL    HW2 3151   2.876   2.937   2.317 -1.2880 -2.3676  0.2546
  788SOL     MW 3152   2.861   3.007   2.363 -0.4224 -0.6142 -0.3280
  789SOL     OW 3153   0.075   0.198   3.026  0.0592 -0.8040  0.6697
  789SOL    HW1 3154   0.013   0.128   3.024 -1.4143  0.0144 -3.6872
  789SOL    HW2 3155   0.041   0.262   2.963  1.6177 -0.6182  0.7149
  789SOL     MW 3156   0.062   0.197   3.018  0.0704 -0.6715  0.1008
  790SOL     OW 3157   3.093   1.051   2.359 -0.2906  0.2879  0.3542
  790SOL    HW1 3158   3.052   1.000   2.428  0.7501  0.0318  2.3823
  790SOL    HW2 3159   3.030   1.060   2.286 -2.3043  1.2302 -0.9495
  790SOL     MW 3160   3.079   1.045   2.358 -0.4189  0.3784  0.4498
  791SOL     OW 3161   2.605   0.404   2.598 -0.6391 -0.1203  0.2806
  791SOL    HW1 3162   2.524   0.420   2.644 -0.2879  0.9154 -1.7595
  791SOL    HW2 3163   2.675   0.430   2.654  3.1250  0.2835  1.4549
  791SOL     MW 3164   2.604   0.409   2.611 -0.0961  0.0696  0.1664
  792SOL     OW 3165   2.343   0.258   2.421  0.1328  0.6982 -0.2092
  792SOL    HW1 3166   2.268   0.314   2.451 -0.1908 -0.6306  0.4856
  792SOL    HW2 3167   2.357   0.227   2.510  0.8578  2.6334  0.9923
  792SOL     MW 3168   2.335   0.262   2.437  0.1857  0.7782  0.0410
  793SOL     OW 3169   1.959   1.196   1.937 -0.3722 -0.6752 -0.6345
  793SOL    HW1 3170   1.916   1.187   1.846 -2.0349  2.0558 -0.4294
  793SOL    HW2 3171   2.002   1.113   1.954 -0.3753  1.3243  0.5690
  793SOL     MW 3172   1.959   1.184   1.927 -0.5920 -0.0510 -0.4487
  794SOL     OW 3173   1.403   2.362   0.120 -0.4785 -0.4273  0.3891
  794SOL    HW1 3174   1.416   2.409   0.029  0.4870 -1.8575 -2.7921
  794SOL    HW2 3175   1.471   2.395   0.184 -0.4662  1.9908 -0.5342
  794SOL     MW 3176   1.414   2.373   0.117 -0.3495 -0.2970 -0.1524
  795SOL     OW 3177   2.328   1.037   2.589  0.3615 -0.0231  0.9082
  795SOL    HW1 3178   2.286   1.120   2.626  1.0517  2.4245 -0.1888
  795SOL    HW2 3179   2.369   1.079   2.514 -2.4658  2.1000  1.3218
  795SOL     MW 3180   2.328   1.053   2.584  0.0795  0.5800  0.8181
  796SOL     OW 3181   0.247   0.549   2.789  0.5827  0.2647 -0.0066
  796SOL    HW1 3182   0.194   0.608   2.845  0.5231 -2.1042  0.2535
  796SOL    HW2 3183   0.198   0.560   2.703  1.6065  1.4144 -2.2804
  796SOL     MW 3184   0.234   0.558   2.785  0.7099  0.1038 -0.2723
  797SOL     OW 3185   2.645   0.101   2.591  0.4628  0.0014 -0.2306
  797SOL    HW1 3186   2.594   0.179   2.620  0.4418 -1.8446  0.8530
  797SOL    HW2 3187   2.630   0.121   2.494  1.3233 -2.4450 -2.5504
  797SOL     MW 3188   2.636   0.114   2.582  0.5736 -0.5650 -0.3937
  798SOL     OW 3189   2.302   0.109   2.186 -0.5978  0.0319  0.7636
  798SOL    HW1 3190   2.333   0.168   2.256  3.9136  0.6387 -0.8230
  798SOL    HW2 3191   2.388   0.081   2.149  1.2923  0.1038  1.4569
  798SOL     MW 3192   2.317   0.113   2.191  0.2468  0.1214  0.6458
  799SOL     OW 3193   2.555   2.926   0.093  0.1638  0.1332 -0.6764
  799SOL    HW1 3194   2.489   2.869   0.051  0.1960 -0.5584 -0.3069
  799SOL    HW2 3195   2.525   2.972   0.172  1.0852 -0.2583 -1.9260
  799SOL     MW 3196   2.542   2.925   0.098  0.2896 -0.0097 -0.7925
  800SOL     OW 3197   1.954   3.084   1.702 -0.0420 -0.0361  0.1688
  800SOL    HW1 3198   1.887   3.015   1.706 -0.1514  0.8311 -1.2331
  800SOL    HW2 3199   1.994   3.092   1.790 -1.2974  1.4613 -2.6099
  800SOL     MW 3200   1.951   3.076   1.714 -0.2221  0.2759 -0.3828
  801SOL     OW 3201   2.813   1.275   2.607 -0.2259  0.2859  0.2894
  801SOL    HW1 3202   2.774   1.192   2.584  0.4464 -1.6547  2.4980
  801SOL    HW2 3203   2.887   1.301   2.554 -0.1530  1.9090  1.4040
  801SOL     MW 3204   2.818   1.268   2.597 -0.1276  0.2440  0.7279
  802SOL     OW 3205   2.626   1.471   2.776 -0.0328 -0.4997 -0.2345
  802SOL    HW1 3206   2.576   1.384   2.777 -0.5431  0.6047  0.3057
  802SOL    HW2 3207   2.713   1.453   2.808  0.0841  3.3710 -2.8669
  802SOL     MW 3208   2.631   1.457   2.780 -0.0847  0.1567 -0.5105
  803SOL     OW 3209   2.303   1.406   2.006  0.3863  0.2482 -0.1540
  803SOL    HW1 3210   2.275   1.348   2.080  1.7122 -1.8631 -2.1955
  803SOL    HW2 3211   2.308   1.340   1.935 -1.4339 -1.3457  1.2589
  803SOL     MW 3212   2.300   1.389   2.006  0.3211 -0.2407 -0.2369
  804SOL     OW 3213   2.260   0.068   0.050  0.4271 -0.1128 -0.3155
  804SOL    HW1 3214   2.206   0.148   0.042  2.3716 -1.3787 -0.8352
  804SOL    HW2 3215   2.332   0.068  -0.013  0.4491  3.6217  0.1330
  804SOL     MW 3216   2.263   0.079   0.041  0.6865  0.2129 -0.3249
  805SOL     OW 3217   2.725   1.018   2.565 -0.3971  0.2464 -0.3539
  805SOL    HW1 3218   2.667   1.020   2.490 -0.5369  1.2757 -0.4903
  805SOL    HW2 3219   2.817   0.988   2.536 -0.3426 -0.2110  0.8254
  805SOL     MW 3220   2.729   1.014   2.551 -0.4084  0.3218 -0.2163
  806SOL     OW 3221   2.560   0.615   2.200  0.0371 -0.8531 -0.2096
  806SOL    HW1 3222   2.586   0.535   2.155  0.1378  1.6079  0.3265
  806SOL    HW2 3223   2.513   0.654   2.128 -1.0000  0.4026  0.6060
  806SOL     MW 3224   2.558   0.610   2.185 -0.0865 -0.3627 -0.0312
  807SOL     OW 3225   0.066   1.171   2.027  0.0378  0.3184 -0.8057
  807SOL    HW1 3226   0.106   1.082   2.013 -0.8382 -2.1338  3.3540
  807SOL    HW2 3227  -0.018   1.157   2.063 -2.5278  1.4784  2.2418
  807SOL     MW 3228   0.060   1.157   2.030 -0.4163  0.1479  0.1452
  808SOL     OW 3229   2.639   3.060   2.816 -0.2819  0.2156 -0.0630
  808SOL    HW1 3230   2.566   2.998   2.790 -0.1482  1.3023  0.7059
  808SOL    HW2 3231   2.650   3.107   2.737  0.1465 -1.6371  0.6851
  808SOL     MW 3232   2.631   3.058   2.802 -0.2077  0.1145  0.1371
  809SOL     OW 3233   2.598   1.366   2.470  0.0662 -0.5632 -0.7122
  809SOL    HW1 3234   2.648   1.344   2.546 -0.2713  0.0003  0.7956
  809SOL    HW2 3235   2.663   1.336   2.410  0.4940 -1.0441 -0.2692
  809SOL     MW 3236   2.613   1.359   2.472  0.0781 -0.5523 -0.4548
  810SOL     OW 3237   2.223   1.304   2.247 -0.3543 -0.4189 -0.5346
  810SOL    HW1 3238   2.291   1.247   2.284  0.0727 -0.8864  1.4573
  810SOL    HW2 3239   2.162   1.311   2.323 -0.8324  0.1527 -2.0506
  810SOL     MW 3240   2.224   1.297   2.262 -0.3610 -0.4052 -0.4718
  811SOL     OW 3241   1.548   0.137   2.287  0.2043 -0.0421 -0.0778
  811SOL    HW1 3242   1.626   0.084   2.321  1.1724 -0.2042 -0.1267
  811SOL    HW2 3243   1.541   0.119   2.192 -1.8384 -2.9087  1.4146
  811SOL     MW 3244   1.557   0.127   2.279  0.0625 -0.4417  0.1127
  812SOL     OW 3245   1.439   2.803   1.976 -0.1238  0.5294 -0.2721
  812SOL    HW1 3246   1.529   2.831   1.956 -0.7308 -0.0806  1.8467
  812SOL    HW2 3247   1.446   2.781   2.069  1.0205  1.1155  1.1548
  812SOL     MW 3248   1.452   2.804   1.986 -0.0529  0.5263  0.1957
  813SOL     OW 3249   1.899   0.703   2.238 -0.7313 -0.0297 -0.3410
  813SOL    HW1 3250   1.899   0.616   2.270 -0.4652 -3.2233 -0.9769
  813SOL    HW2 3251   1.880   0.763   2.315 -1.7010  2.0778 -0.7882
  813SOL     MW 3252   1.896   0.699   2.252 -0.8241 -0.1730 -0.4839
  814SOL     OW 3253   2.684   1.233   1.638  0.0386  0.0321 -0.1529
  814SOL    HW1 3254   2.644   1.166   1.701  1.3031 -1.2305  2.3910
  814SOL    HW2 3255   2.710   1.205   1.549  0.5784  0.4377 -3.0153
  814SOL     MW 3256   2.682   1.220   1.635  0.2766 -0.0810 -0.1949
  815SOL     OW 3257   2.537   1.748   2.412 -0.1495 -0.5873 -0.9097
  815SOL    HW1 3258   2.486   1.678   2.392  1.6869  2.3215  2.0727
  815SOL    HW2 3259   2.629   1.718   2.402  1.8663  2.4374 -1.4341
  815SOL     MW 3260   2.542   1.735   2.408  0.3588  0.1955 -0.5854
  816SOL     OW 3261   0.765   0.680   2.749  0.0950 -1.1775  0.0639
  816SOL    HW1 3262   0.767   0.595   2.790 -0.4552 -0.0909 -0.7778
  816SOL    HW2 3263   0.698   0.702   2.680  0.1230  0.3253 -2.6287
  816SOL     MW 3264   0.756   0.672   2.745  0.0261 -0.8359 -0.4024
  817SOL     OW 3265   3.036   1.232   1.462  0.5840  0.3605  0.2768
  817SOL    HW1 3266   3.124   1.206   1.478  1.2186 -0.5363  0.5368
  817SOL    HW2 3267   3.037   1.320   1.419 -1.5188  3.1935 -1.1947
  817SOL     MW 3268   3.048   1.240   1.458  0.3903  0.6160  0.1169
  818SOL     OW 3269   1.873   1.033   2.700 -0.0523 -0.7193 -0.2339
  818SOL    HW1 3270   1.858   0.972   2.624  0.3284  2.3150 -0.3404
  818SOL    HW2 3271   1.963   1.016   2.727  0.0157 -2.6205 -0.8597
  818SOL     MW 3272   1.883   1.023   2.694  0.0069 -0.5698 -0.3305
  819SOL     OW 3273   1.946   0.204   2.436 -0.1093  0.0391 -0.4411
  819SOL    HW1 3274   1.866   0.256   2.428 -0.5132 -3.0229 -1.9364
  819SOL    HW2 3275   1.952   0.203   2.534 -0.0611  0.6503  2.1392
  819SOL     MW 3276   1.936   0.211   2.448 -0.1562 -0.2843 -0.2979
  820SOL     OW 3277   2.529   1.756   2.689 -0.1312  0.3463 -0.3138
  820SOL    HW1 3278   2.570   1.675   2.729  1.9569 -0.2763  3.1678
  820SOL    HW2 3279   2.520   1.738   2.595 -2.4207 -0.6697  2.6222
  820SOL     MW 3280   2.533   1.743   2.682 -0.1578  0.1301  0.5329
  821SOL     OW 3281   2.565   1.409   2.053 -0.7436 -0.0338  0.3463
  821SOL    HW1 3282   2.590   1.493   2.020  1.9527 -0.3498 -1.0035
  821SOL    HW2 3283   2.464   1.413   2.065 -1.7818 -2.0905 -2.1115
  821SOL     MW 3284   2.555   1.421   2.050 -0.5249 -0.3469 -0.1561
  822SOL     OW 3285   2.734   2.646   1.391 -0.3500 -0.1919 -0.3718
  822SOL    HW1 3286   2.756   2.660   1.482 -3.1652 -0.5947 -1.6137
  822SOL    HW2 3287   2.668   2.709   1.370  1.5741 -1.8510 -0.6881
  822SOL     MW 3288   2.728   2.656   1.400 -0.4676 -0.4640 -0.5774
  823SOL     OW 3289   2.320   0.463   1.783 -0.6201 -0.1646 -0.4810
  823SOL    HW1 3290   2.396   0.431   1.738  0.2501  0.7360  2.9869
  823SOL    HW2 3291   2.243   0.410   1.750 -2.1643  0.2285  4.3666
  823SOL     MW 3292   2.320   0.452   1.773 -0.7090  0.0061  0.6162
  824SOL     OW 3293   2.127   1.465   2.539 -0.4501 -0.0863 -0.6876
  824SOL    HW1 3294   2.212   1.507   2.524 -0.0779 -0.3094 -1.8720
  824SOL    HW2 3295   2.077   1.525   2.599  1.3328 -0.7330 -0.8450
  824SOL     MW 3296   2.132   1.479   2.545 -0.1658 -0.2011 -0.8646
  825SOL     OW 3297   1.853   2.538   0.298  0.1092  0.3970 -0.7151
  825SOL    HW1 3298   1.867   2.478   0.376  0.1942 -0.2659 -0.5408
  825SOL    HW2 3299   1.928   2.526   0.237  0.6955  1.3854  0.7812
  825SOL     MW 3300   1.864   2.529   0.300  0.1978  0.4400 -0.4947
  826SOL     OW 3301   1.876   2.366   0.530  0.4011 -0.3525  0.1327
  826SOL    HW1 3302   1.860   2.279   0.578 -2.4679 -0.5259  2.3632
  826SOL    HW2 3303   1.812   2.417   0.576  1.2591 -0.2803 -1.5194
  826SOL     MW 3304   1.866   2.361   0.542  0.1358 -0.3658  0.2090
  827SOL     OW 3305   1.942   2.204   0.935 -0.5797  0.1973  0.3424
  827SOL    HW1 3306   1.880   2.258   0.885  3.4900 -0.1821  0.1322
  827SOL    HW2 3307   1.904   2.119   0.935 -0.4556 -0.8918 -1.2005
  827SOL     MW 3308   1.929   2.200   0.928 -0.0264  0.0035  0.1111
  828SOL     OW 3309   0.068   2.607   0.591  0.4443  0.6909 -0.5771
  828SOL    HW1 3310   0.163   2.626   0.588 -0.6802  1.2143  3.7353
  828SOL    HW2 3311   0.017   2.651   0.514 -2.2331  1.6489  0.1822
  828SOL     MW 3312   0.074   2.615   0.580 -0.0573  0.8863  0.0921
  829SOL     OW 3313   2.940   2.960   1.139 -0.6005 -0.0907 -0.0720
  829SOL    HW1 3314   2.866   2.914   1.100 -0.1148  0.9976  1.6160
  829SOL    HW2 3315   3.015   2.898   1.140  0.7583 -1.0882  0.7153
  829SOL     MW 3316   2.940   2.946   1.134 -0.3571 -0.0788  0.2546
  830SOL     OW 3317   2.505   2.884   2.020  0.4362  0.0751  0.0165
  830SOL    HW1 3318   2.412   2.886   1.992 -0.9726 -0.8784  2.3404
  830SOL    HW2 3319   2.547   2.860   1.939  0.4458  1.6044 -0.9552
  830SOL     MW 3320   2.498   2.881   2.006  0.2515  0.1511  0.1949
  831SOL     OW 3321   2.392   2.482   1.255 -0.1370 -0.4620  0.3968
  831SOL    HW1 3322   2.363   2.429   1.338 -0.5392 -1.1329  1.9686
  831SOL    HW2 3323   2.472   2.433   1.222 -1.7359 -0.2005  0.0795
  831SOL     MW 3324   2.399   2.469   1.262 -0.4010 -0.5160  0.5623
  832SOL     OW 3325   2.389   2.183   1.919  0.6447 -0.2548 -0.2343
  832SOL    HW1 3326   2.406   2.269   1.964  1.2963 -0.7118  1.3740
  832SOL    HW2 3327   2.476   2.142   1.904  1.3117  2.1995  1.4457
  832SOL     MW 3328   2.403   2.189   1.923  0.8187  0.0087  0.1996
  833SOL     OW 3329   1.764   2.404   0.865 -0.1526 -0.3976 -0.3961
  833SOL    HW1 3330   1.676   2.369   0.861  1.9038  3.6144 -0.7630
  833SOL    HW2 3331   1.775   2.461   0.935  1.6996  0.3691  1.6652
  833SOL     MW 3332   1.754   2.407   0.873  0.3631  0.2329 -0.1726
  834SOL     OW 3333   2.138   2.488   0.585 -0.0212 -0.0498  0.1304
  834SOL    HW1 3334   2.045   2.460   0.587  1.3180 -3.7066 -0.4700
  834SOL    HW2 3335   2.183   2.444   0.516 -0.6641 -2.2213 -4.0262
  834SOL     MW 3336   2.131   2.478   0.577  0.0706 -0.8188 -0.4973
  835SOL     OW 3337   1.786   2.607   0.667  0.1835 -0.1851  0.1846
  835SOL    HW1 3338   1.769   2.550   0.747  2.7228  1.7795  0.6427
  835SOL    HW2 3339   1.861   2.656   0.692  1.4953 -0.6531 -1.2574
  835SOL     MW 3340   1.794   2.606   0.681  0.6916  0.0123  0.0548
  836SOL     OW 3341   1.896   2.200   1.615  0.2499  0.2772  0.2964
  836SOL    HW1 3342   1.983   2.213   1.653  0.7396 -0.3961  0.6578
  836SOL    HW2 3343   1.837   2.268   1.647 -2.5486 -0.9533 -2.1392
  836SOL     MW 3344   1.900   2.210   1.624 -0.0547  0.0260  0.0227
  837SOL     OW 3345   2.122   0.161   0.720  0.6027  0.7619 -0.1591
  837SOL    HW1 3346   2.050   0.215   0.676 -2.0621  0.6072  2.1943
  837SOL    HW2 3347   2.141   0.091   0.649  2.2315 -0.9064 -0.0753
  837SOL     MW 3348   2.115   0.159   0.704  0.4660  0.5214  0.1625
  838SOL     OW 3349   2.951   2.110   0.935  0.3261  0.6340 -0.1571
  838SOL    HW1 3350   2.880   2.056   0.974 -1.1432  0.7066  0.3068
  838SOL    HW2 3351   3.024   2.053   0.927 -0.0840  1.2988 -1.1851
  838SOL     MW 3352   2.951   2.095   0.939  0.0781  0.7313 -0.2315
  839SOL     OW 3353   1.505   2.356   0.953  0.1851  0.2140  0.2852
  839SOL    HW1 3354   1.486   2.426   1.011  1.9349  1.1691 -1.0823
  839SOL    HW2 3355   1.533   2.278   1.004  0.0212 -1.3077 -0.2557
  839SOL     MW 3356   1.507   2.355   0.967  0.3943  0.1393  0.0334
  840SOL     OW 3357   2.350   2.093   2.417 -0.1950 -0.1721 -0.3031
  840SOL    HW1 3358   2.301   2.154   2.369  3.8896 -0.1106  4.3185
  840SOL    HW2 3359   2.388   2.146   2.488 -2.2169  0.1742  0.1893
  840SOL     MW 3360   2.349   2.108   2.420  0.0772 -0.1183  0.3716
  841SOL     OW 3361   2.079   2.487   0.137 -0.0692 -0.3266  0.0963
  841SOL    HW1 3362   2.130   2.518   0.058  0.3908 -0.0354  0.3530
  841SOL    HW2 3363   2.069   2.388   0.127 -1.0076 -1.7945 -1.4001
  841SOL     MW 3364   2.084   2.478   0.125 -0.1323 -0.4819 -0.0672
  842SOL     OW 3365   2.589   1.995   1.557  0.5143 -1.0167  0.3521
  842SOL    HW1 3366   2.519   1.945   1.585  1.2859  0.0774  1.2018
  842SOL    HW2 3367   2.557   2.042   1.482 -0.1498 -0.6269 -1.8239
  842SOL     MW 3368   2.576   1.995   1.550  0.5285 -0.8209  0.1771
  843SOL     OW 3369   2.627   2.768   1.798 -0.9639 -0.1574  0.4484
  843SOL    HW1 3370   2.714   2.729   1.771  4.0739 -1.1796 -0.5991
  843SOL    HW2 3371   2.575   2.689   1.775  3.2342  1.4566 -0.2882
  843SOL     MW 3372   2.632   2.752   1.791  0.2547 -0.0793  0.2130
  844SOL     OW 3373   2.595   2.313   1.182 -0.0232 -0.2413  0.0947
  844SOL    HW1 3374   2.612   2.342   1.091  3.7837 -2.0624  2.3410
  844SOL    HW2 3375   2.675   2.334   1.243  1.7759 -1.3935 -0.1074
  844SOL     MW 3376   2.608   2.320   1.178  0.7164 -0.6336  0.3644
  845SOL     OW 3377   2.847   2.487   0.273 -0.3640 -0.1223 -0.2323
  845SOL    HW1 3378   2.825   2.395   0.275  1.4748  0.2970 -2.2605
  845SOL    HW2 3379   2.844   2.509   0.367  2.5138  0.7364 -0.9324
  845SOL     MW 3380   2.844   2.477   0.286  0.2583  0.0463 -0.5922
  846SOL     OW 3381   1.519   2.906   0.768  0.6409 -0.4313 -0.2594
  846SOL    HW1 3382   1.603   2.943   0.802  2.4414  0.2756  1.7700
  846SOL    HW2 3383   1.454   2.948   0.825 -1.4115  0.1321  1.3222
  846SOL     MW 3384   1.521   2.917   0.780  0.6077 -0.2637  0.2170
  847SOL     OW 3385   2.580   1.928   0.162 -0.3459 -0.1840 -0.0266
  847SOL    HW1 3386   2.670   1.880   0.150  0.6603 -0.6973  0.9259
  847SOL    HW2 3387   2.515   1.877   0.102 -1.1045 -0.7146  1.2397
  847SOL     MW 3388   2.583   1.915   0.152 -0.3132 -0.3217  0.2662
  848SOL     OW 3389   2.485   2.117   1.332  0.8149 -0.0095  1.0917
  848SOL    HW1 3390   2.516   2.171   1.256 -1.4425  2.0017  0.9253
  848SOL    HW2 3391   2.461   2.031   1.295 -0.4065 -0.5684 -0.6042
  848SOL     MW 3392   2.486   2.113   1.317  0.3559  0.1821  0.8460
  849SOL     OW 3393   1.995   2.743   0.748  0.0640 -0.4347  0.1610
  849SOL    HW1 3394   2.034   2.683   0.812 -2.0992  1.0357 -2.1507
  849SOL    HW2 3395   2.065   2.765   0.683  1.1105  4.1739 -1.7068
  849SOL     MW 3396   2.009   2.738   0.748 -0.0834  0.3673 -0.3905
  850SOL     OW 3397   2.187   1.955   1.672 -0.4864 -0.5310 -0.9816
  850SOL    HW1 3398   2.098   1.948   1.645 -1.0183  0.7994  1.2832
  850SOL    HW2 3399   2.209   2.050   1.692  2.2196  0.1872 -2.3447
  850SOL     MW 3400   2.178   1.967   1.671 -0.1996 -0.2607 -0.8626
  851SOL     OW 3401   2.250   2.416   0.339  0.1487  0.0896 -0.0539
  851SOL    HW1 3402   2.185   2.451   0.273 -0.0576 -2.1828 -0.2607
  851SOL    HW2 3403   2.308   2.498   0.340  2.0380  0.4183 -2.5558
  851SOL     MW 3404   2.249   2.432   0.330  0.3708 -0.1668 -0.4113
  852SOL     OW 3405   2.354   2.168   0.237  0.0902 -0.1289  0.2562
  852SOL    HW1 3406   2.331   2.262   0.240  1.0785  0.2374  0.9737
  852SOL    HW2 3407   2.453   2.164   0.223  4.4455 -0.3176  0.3086
  852SOL     MW 3408   2.364   2.179   0.235  0.7952 -0.1055  0.3578
  853SOL     OW 3409   2.489   2.437   2.011  0.2337 -0.4404  0.5492
  853SOL    HW1 3410   2.510   2.444   1.921  0.1439  0.5733  0.0506
  853SOL    HW2 3411   2.570   2.416   2.054  1.7056 -0.4591 -1.1398
  853SOL     MW 3412   2.502   2.435   2.005  0.4161 -0.3091  0.2606
  854SOL     OW 3413   2.802   2.270   0.774 -0.1198 -0.2169 -0.3792
  854SOL    HW1 3414   2.723   2.233   0.731 -0.2194 -0.3826 -0.3770
  854SOL    HW2 3415   2.848   2.206   0.834 -1.9124 -0.3818  0.9004
  854SOL     MW 3416   2.797   2.257   0.776 -0.3695 -0.2606 -0.2101
  855SOL     OW 3417   2.698   2.262   0.358  0.0688  0.0942  0.0504
  855SOL    HW1 3418   2.671   2.307   0.437  0.5926  1.2657 -2.3479
  855SOL    HW2 3419   2.773   2.211   0.383  0.4049 -3.1151 -0.1911
  855SOL     MW 3420   2.704   2.262   0.372  0.1823 -0.1746 -0.2979
  856SOL     OW 3421   2.211   1.913   0.196 -0.0771  0.0829  0.0942
  856SOL    HW1 3422   2.125   1.936   0.241  0.3424  2.2982  0.3606
  856SOL    HW2 3423   2.254   1.999   0.209  0.6181  0.8241  0.0917
  856SOL     MW 3424   2.205   1.927   0.204  0.0700  0.4730  0.1290
  857SOL     OW 3425   2.576   1.970   0.448 -0.0327 -0.2041  0.1341
  857SOL    HW1 3426   2.596   2.055   0.409  0.0497 -2.8236  0.4358
  857SOL    HW2 3427   2.545   1.928   0.365  1.1429 -0.5131 -4.8053
  857SOL     MW 3428   2.575   1.976   0.432  0.1333 -0.5905 -0.4778
  858SOL     OW 3429   2.826   2.660   1.650 -0.3168  0.4831  0.1625
  858SOL    HW1 3430   2.913   2.700   1.662  0.1222 -2.1007  2.3116
  858SOL    HW2 3431   2.836   2.569   1.670  0.1831 -1.1266  0.1297
  858SOL     MW 3432   2.839   2.653   1.654 -0.1929 -0.0702  0.4417
  859SOL     OW 3433   2.116   2.539   0.890  0.4724 -0.0273  0.1975
  859SOL    HW1 3434   2.111   2.487   0.813 -1.0696 -2.8682  1.4573
  859SOL    HW2 3435   2.213   2.527   0.908  0.7030 -3.2631  2.7515
  859SOL     MW 3436   2.128   2.530   0.882  0.2994 -0.8291  0.7007
  860SOL     OW 3437   2.618   2.591   0.143 -0.1910 -0.1837  0.6133
  860SOL    HW1 3438   2.692   2.569   0.198 -1.0814  0.6400  0.5469
  860SOL    HW2 3439   2.654   2.662   0.094  1.1617  0.7823  1.1724
  860SOL     MW 3440   2.633   2.597   0.144 -0.1300  0.0524  0.6783
  861SOL     OW 3441   1.544   2.130   1.129  0.1379  0.1915 -0.5920
  861SOL    HW1 3442   1.566   2.178   1.218 -1.0810  2.3891 -0.5406
  861SOL    HW2 3443   1.502   2.057   1.158  2.0423  0.1477 -1.8301
  861SOL     MW 3444   1.541   2.127   1.144  0.2284  0.4757 -0.7486
  862SOL     OW 3445   2.420   1.772   1.560 -0.1326 -0.0609  0.1486
  862SOL    HW1 3446   2.330   1.786   1.597 -2.0298 -0.6948 -3.8425
  862SOL    HW2 3447   2.411   1.780   1.462 -0.1417 -3.0766 -2.2162
  862SOL     MW 3448   2.407   1.775   1.552 -0.3841 -0.5424 -0.6900
  863SOL     OW 3449   0.016   1.908   1.122 -0.5544 -0.0324 -0.4579
  863SOL    HW1 3450   0.097   1.935   1.157  0.5499  0.3840  1.1376
  863SOL    HW2 3451  -0.045   1.968   1.174 -1.2925  2.2497 -0.6761
  863SOL     MW 3452   0.019   1.919   1.133 -0.5060  0.3236 -0.2762
  864SOL     OW 3453   0.028   1.917   0.855  0.0607  0.5160 -0.2858
  864SOL    HW1 3454   0.030   1.885   0.948 -1.0629 -0.2559 -1.2945
  864SOL    HW2 3455  -0.028   1.866   0.804 -0.4796 -1.4571  0.3782
  864SOL     MW 3456   0.021   1.906   0.860 -0.1589  0.1538 -0.3313
  865SOL     OW 3457   2.615   2.149   0.005 -0.1628 -0.6206 -0.3664
  865SOL    HW1 3458   2.596   2.080   0.072 -0.6198 -0.7223  0.3871
  865SOL    HW2 3459   2.586   2.113  -0.078 -1.2716  0.3794 -1.0131
  865SOL     MW 3460   2.609   2.135   0.003 -0.3694 -0.5021 -0.3523
  866SOL     OW 3461   2.687   2.312   1.601  0.2863  0.0463 -0.1893
  866SOL    HW1 3462   2.689   2.219   1.618  1.6090 -0.4604 -1.8141
  866SOL    HW2 3463   2.699   2.326   1.505 -1.8473  0.3551  1.4368
  866SOL     MW 3464   2.689   2.302   1.590  0.1793  0.0202 -0.1891
  867SOL     OW 3465   0.003   2.662   1.788 -0.3180  0.0267 -0.0661
  867SOL    HW1 3466   0.021   2.660   1.882  3.1243 -2.2847 -3.0881
  867SOL    HW2 3467   0.008   2.753   1.768  2.5424  1.0248  0.4798
  867SOL     MW 3468   0.006   2.673   1.798  0.5136 -0.1465 -0.3928
  868SOL     OW 3469   2.827   2.582   0.534 -0.3802 -0.0635 -0.0802
  868SOL    HW1 3470   2.738   2.549   0.552  0.7986  0.2369  1.3794
  868SOL    HW2 3471   2.821   2.671   0.499  2.9814  1.8101  0.2698
  868SOL     MW 3472   2.814   2.590   0.532  0.2189  0.2234  0.1585
  869SOL     OW 3473   1.996   2.384   1.129 -0.1171  0.2805  0.7742
  869SOL    HW1 3474   2.066   2.440   1.098  0.7431 -0.5260  2.1756
  869SOL    HW2 3475   1.980   2.315   1.056  1.0287 -3.3364 -0.4236
  869SOL     MW 3476   2.003   2.382   1.116  0.1475 -0.3031  0.8011
  870SOL     OW 3477   2.156   0.046   0.480  0.2619  0.2398  0.3869
  870SOL    HW1 3478   2.233   0.094   0.431  1.0443 -0.2924 -0.2617
  870SOL    HW2 3479   2.172  -0.049   0.456 -1.8542 -0.2680  2.2901
  870SOL     MW 3480   2.168   0.040   0.470  0.0860  0.1026  0.5524
  871SOL     OW 3481   2.470   2.126   0.950  0.0606 -0.3489  0.1156
  871SOL    HW1 3482   2.414   2.056   0.912  0.2555  1.5058 -0.1192
  871SOL    HW2 3483   2.405   2.185   0.992 -0.3645  1.1821 -2.9899
  871SOL     MW 3484   2.454   2.124   0.951  0.0302  0.0978 -0.3251
  872SOL     OW 3485   2.037   2.555   1.442 -0.0447 -0.1188  0.4480
  872SOL    HW1 3486   2.022   2.589   1.532 -1.8010  0.1661  0.2768
  872SOL    HW2 3487   1.956   2.501   1.433 -0.8021 -0.2907  1.4964
  872SOL     MW 3488   2.024   2.552   1.452 -0.3764 -0.1039  0.5637
  873SOL     OW 3489   2.914   2.072   1.929  0.2720  0.6682 -0.3093
  873SOL    HW1 3490   2.942   2.143   1.991  2.3378 -0.7756  2.7377
  873SOL    HW2 3491   2.949   2.114   1.847 -1.3545  1.2698 -1.5589
  873SOL     MW 3492   2.922   2.087   1.926  0.3300  0.5571 -0.0722
  874SOL     OW 3493   2.398   1.508   2.371 -0.0463  0.4906  0.0742
  874SOL    HW1 3494   2.344   1.452   2.320  0.6172  2.7670  0.9344
  874SOL    HW2 3495   2.460   1.445   2.410  1.2780 -1.8457 -1.9097
  874SOL     MW 3496   2.399   1.492   2.369  0.2160  0.4827 -0.0740
  875SOL     OW 3497   2.280   2.324   1.073  0.1467  0.9100  0.0305
  875SOL    HW1 3498   2.310   2.392   1.012 -1.3841  1.1589  1.6036
  875SOL    HW2 3499   2.294   2.373   1.156  2.6413  0.7145 -1.6669
  875SOL     MW 3500   2.286   2.339   1.076  0.2739  0.9170  0.0141
  876SOL     OW 3501   3.050   2.312   1.237  0.0964  0.1589  0.0980
  876SOL    HW1 3502   3.081   2.344   1.147 -0.9508 -1.0444 -1.5240
  876SOL    HW2 3503   3.105   2.366   1.301  0.0390  4.7796 -0.1910
  876SOL     MW 3504   3.062   2.323   1.233 -0.0493  0.6098 -0.1541
  877SOL     OW 3505   3.088   2.714   0.370 -0.0337 -0.3886 -0.2679
  877SOL    HW1 3506   3.141   2.794   0.383  0.6193  0.8615  1.5187
  877SOL    HW2 3507   3.095   2.702   0.277  0.0736 -0.1958 -0.5085
  877SOL     MW 3508   3.096   2.723   0.360  0.0666 -0.1982 -0.0639
  878SOL     OW 3509   2.416   1.850   1.271  0.1536  0.6614  0.7102
  878SOL    HW1 3510   2.358   1.784   1.236  0.2658  0.3869 -1.4430
  878SOL    HW2 3511   2.501   1.811   1.272  1.3021 -1.1250 -0.8352
  878SOL     MW 3512   2.419   1.836   1.267  0.3199  0.3895  0.2222
  879SOL     OW 3513   2.673   2.425   0.957 -0.2104  0.0891  0.2314
  879SOL    HW1 3514   2.744   2.483   0.983  0.3256  0.4489  1.4636
  879SOL    HW2 3515   2.722   2.366   0.892  1.3187 -1.2866  0.7548
  879SOL     MW 3516   2.689   2.425   0.952  0.0620 -0.0449  0.4630
  880SOL     OW 3517   2.520   2.163   0.678  0.1349  0.2312 -0.3752
  880SOL    HW1 3518   2.484   2.152   0.764  0.6503 -0.3910  3.9066
  880SOL    HW2 3519   2.538   2.073   0.646 -0.9581 -0.6245  2.3718
  880SOL     MW 3520   2.518   2.150   0.685  0.0587  0.0362  0.5522
  881SOL     OW 3521   2.961   2.654   0.771  0.2418 -0.0485 -0.0812
  881SOL    HW1 3522   2.906   2.607   0.707  0.1212 -0.9570 -2.3552
  881SOL    HW2 3523   3.052   2.653   0.737  2.2212 -0.1089  3.0290
  881SOL     MW 3524   2.966   2.648   0.758  0.4870 -0.1763  0.0291
  882SOL     OW 3525   2.247   2.879   1.962 -0.5367  0.4573  0.1469
  882SOL    HW1 3526   2.234   2.864   1.869 -2.7063 -0.0493 -0.1315
  882SOL    HW2 3527   2.205   2.798   2.000  0.4420  0.5281  0.5431
  882SOL     MW 3528   2.240   2.866   1.955 -0.6938  0.3998  0.1625
  883SOL     OW 3529   2.306   2.306   1.452 -0.1575 -0.4647  0.4849
  883SOL    HW1 3530   2.382   2.251   1.415  3.2966 -0.9738 -0.8721
  883SOL    HW2 3531   2.224   2.270   1.405 -0.6114 -0.9512 -0.1010
  883SOL     MW 3532   2.305   2.294   1.441  0.2383 -0.5960  0.2285
  884SOL     OW 3533   1.979   1.849   1.149 -0.6227 -0.1378  0.5006
  884SOL    HW1 3534   1.912   1.914   1.126 -1.6712 -0.5823 -1.7852
  884SOL    HW2 3535   2.050   1.904   1.169 -2.6117  1.8087  0.2530
  884SOL     MW 3536   1.979   1.865   1.148 -1.0235  0.0604  0.1664
  885SOL     OW 3537   2.824   2.431   1.795  0.2236 -0.4101  0.1674
  885SOL    HW1 3538   2.920   2.405   1.799  1.3701  1.1170 -1.3002
  885SOL    HW2 3539   2.786   2.375   1.719  1.6164 -1.3708 -1.7724
  885SOL     MW 3540   2.832   2.420   1.786  0.5586 -0.3354 -0.2822
  886SOL     OW 3541   2.794   2.382   1.361 -0.1258  0.2750  0.6065
  886SOL    HW1 3542   2.883   2.371   1.331  0.1038  1.0049 -1.4487
  886SOL    HW2 3543   2.778   2.481   1.373 -1.7109  1.7281 -4.2488
  886SOL     MW 3544   2.804   2.394   1.359 -0.3046  0.5631 -0.3053
  887SOL     OW 3545   2.298   2.604   1.530  0.4800 -0.0913 -0.2703
  887SOL    HW1 3546   2.298   2.672   1.453 -0.3249  0.5417  0.2401
  887SOL    HW2 3547   2.221   2.548   1.504 -2.4888  0.5157  2.8582
  887SOL     MW 3548   2.288   2.606   1.516 -0.0179  0.0723  0.2098
  888SOL     OW 3549   1.840   2.114   1.356 -0.1595  0.6593 -0.6470
  888SOL    HW1 3550   1.929   2.135   1.338 -0.8142  0.1241 -2.2464
  888SOL    HW2 3551   1.844   2.123   1.450  2.4345  0.3456 -0.2091
  888SOL     MW 3552   1.852   2.118   1.366  0.0964  0.5473 -0.8002
  889SOL     OW 3553   2.333   1.968   2.100  0.3948  0.1540  0.0327
  889SOL    HW1 3554   2.421   1.960   2.135 -0.5251  0.5767  0.1021
  889SOL    HW2 3555   2.343   2.050   2.049  0.4095  1.3063  0.7234
  889SOL     MW 3556   2.346   1.978   2.098  0.2754  0.3618  0.1330
  890SOL     OW 3557   0.101   2.389   0.184  0.2325  0.0052 -0.2914
  890SOL    HW1 3558   0.070   2.477   0.171  0.8153  0.8081 -1.9491
  890SOL    HW2 3559   0.081   2.358   0.271 -1.9706  0.3836 -1.5802
  890SOL     MW 3560   0.094   2.396   0.194  0.0187  0.1610 -0.6802
  891SOL     OW 3561   2.991   2.047   1.321  0.3488 -0.4361  0.5364
  891SOL    HW1 3562   3.072   2.030   1.376  1.0850 -0.0834 -1.1650
  891SOL    HW2 3563   2.988   2.140   1.295 -0.1554 -0.5656  1.9034
  891SOL     MW 3564   3.002   2.057   1.325  0.3794 -0.4066  0.4923
  892SOL     OW 3565   2.435   2.361   2.850  0.0850  0.0229  0.0805
  892SOL    HW1 3566   2.437   2.267   2.864  0.2378 -1.0418 -1.2000
  892SOL    HW2 3567   2.529   2.376   2.853 -0.9971 -1.5913 -1.5963
  892SOL     MW 3568   2.448   2.351   2.852 -0.0376 -0.3306 -0.3097
  893SOL     OW 3569   1.605   2.341   1.289  0.4833 -0.5191  0.4669
  893SOL    HW1 3570   1.539   2.398   1.336 -1.1208 -0.9100  1.6115
  893SOL    HW2 3571   1.689   2.340   1.333 -0.5370 -0.6056 -0.2626
  893SOL     MW 3572   1.607   2.348   1.301  0.1371 -0.5820  0.5217
  894SOL     OW 3573   2.809   1.796   0.450 -0.0816 -0.3769  0.3917
  894SOL    HW1 3574   2.710   1.821   0.443 -5.2066 -1.6158 -1.1995
  894SOL    HW2 3575   2.824   1.782   0.359  1.3528  0.1939  3.7869
  894SOL     MW 3576   2.798   1.797   0.437 -0.5686 -0.4651  0.6297
  895SOL     OW 3577   2.112   2.205   1.311  0.7715 -0.5940 -0.0011
  895SOL    HW1 3578   2.097   2.281   1.258 -1.2436 -3.1033 -1.3584
  895SOL    HW2 3579   2.157   2.142   1.247  0.4618  0.9355  1.5431
  895SOL     MW 3580   2.116   2.207   1.296  0.4647 -0.7232  0.0236
  896SOL     OW 3581   2.142   2.816   1.086 -0.0763 -0.3267  0.0031
  896SOL    HW1 3582   2.206   2.790   1.153 -0.4766 -1.3865  2.6038
  896SOL    HW2 3583   2.061   2.769   1.109  2.1724  0.6364 -2.9825
  896SOL     MW 3584   2.140   2.806   1.098  0.1676 -0.3395 -0.0477
  897SOL     OW 3585   3.014   2.916   0.103  0.3519 -0.4448  0.3475
  897SOL    HW1 3586   3.091   2.866   0.105 -0.2353 -0.7660  3.1407
  897SOL    HW2 3587   2.951   2.849   0.076 -1.9397 -1.9119 -3.3172
  897SOL     MW 3588   3.016   2.900   0.100 -0.0279 -0.6807  0.2325
  898SOL     OW 3589   2.071   0.256   1.399 -0.3728  0.0235  0.0344
  898SOL    HW1 3590   2.016   0.177   1.381 -1.3177  1.1472 -0.5711
  898SOL    HW2 3591   2.088   0.293   1.315  0.6530 -0.9740 -0.9675
  898SOL     MW 3592   2.066   0.251   1.386 -0.3621  0.0401 -0.1777
  899SOL     OW 3593   2.916   2.894   0.637  0.3315  0.2601 -0.0916
  899SOL    HW1 3594   2.929   2.816   0.695  0.4531  2.3813  0.6576
  899SOL    HW2 3595   2.832   2.931   0.668  0.7442 -0.3758 -1.2437
  899SOL     MW 3596   2.906   2.888   0.649  0.4020  0.4561 -0.1448
  900SOL     OW 3597   0.083   2.402   1.003 -0.3020  0.3444 -0.4209
  900SOL    HW1 3598   0.092   2.489   0.958  1.6586  1.0820 -4.1687
  900SOL    HW2 3599   0.100   2.339   0.934 -0.1515 -1.4937  0.0634
  900SOL     MW 3600   0.086   2.405   0.988 -0.0235  0.1992 -0.8515
  901SOL     OW 3601   1.818   2.861   1.685  0.4345  0.0488 -0.0827
  901SOL    HW1 3602   1.863   2.780   1.695 -2.0157 -1.4050  1.6821
  901SOL    HW2 3603   1.757   2.845   1.611  0.4853 -2.3854 -0.0696
  901SOL     MW 3604   1.816   2.848   1.676  0.1179 -0.4642  0.1519
  902SOL     OW 3605   2.647   2.122   1.857 -0.2215  0.8437 -0.3720
  902SOL    HW1 3606   2.629   2.027   1.845 -1.0731 -1.1450  1.8137
  902SOL    HW2 3607   2.739   2.127   1.884 -1.6818 -3.6148  2.0571
  902SOL     MW 3608   2.657   2.110   1.859 -0.5265 -0.0069  0.2369
  903SOL     OW 3609   1.605   2.784   0.530 -0.3828  0.2932  0.1395
  903SOL    HW1 3610   1.664   2.713   0.565  0.8255  0.0892 -2.3398
  903SOL    HW2 3611   1.562   2.821   0.610 -0.8785  1.0788  1.8964
  903SOL     MW 3612   1.607   2.779   0.545 -0.2888  0.3699  0.0442
  904SOL     OW 3613   2.509   2.510   1.718  0.1545 -0.4101 -0.1519
  904SOL    HW1 3614   2.452   2.521   1.643  0.9939 -0.5952  0.8813
  904SOL    HW2 3615   2.576   2.453   1.689 -1.3327 -0.5274  0.0036
  904SOL     MW 3616   2.510   2.504   1.704  0.0690 -0.4500  0.0049
  905SOL     OW 3617   2.305   2.538   2.193  0.1131  0.2639 -0.2005
  905SOL    HW1 3618   2.371   2.503   2.126 -0.4726  0.0029 -2.9037
  905SOL    HW2 3619   2.273   2.454   2.246 -0.5880 -0.6609 -2.1634
  905SOL     MW 3620   2.309   2.522   2.191 -0.0567  0.1075 -0.8162
  906SOL     OW 3621   2.406   2.508   0.915 -0.0437  0.0164  0.5383
  906SOL    HW1 3622   2.499   2.486   0.933  0.8450  0.5265  0.2627
  906SOL    HW2 3623   2.417   2.605   0.919  2.2772  0.9807  0.5732
  906SOL     MW 3624   2.420   2.518   0.917  0.3798  0.2109  0.5065
  907SOL     OW 3625   2.552   2.887   1.325  0.3441 -0.4034  0.5212
  907SOL    HW1 3626   2.614   2.940   1.376  0.4092 -2.0450 -0.0288
  907SOL    HW2 3627   2.605   2.857   1.242  0.9439  0.2469 -0.3027
  907SOL     MW 3628   2.567   2.890   1.321  0.4318 -0.5342  0.3399
  908SOL     OW 3629   2.772   2.371   0.010  0.6822  0.4471  0.2036
  908SOL    HW1 3630   2.708   2.296   0.024 -3.0453 -1.6423 -1.4888
  908SOL    HW2 3631   2.735   2.458   0.034 -0.9408  0.5361  0.0100
  908SOL     MW 3632   2.759   2.372   0.015 -0.0238  0.1831 -0.0452
  909SOL     OW 3633   1.608   0.176   1.168  0.3709 -0.1341  0.3495
  909SOL    HW1 3634   1.626   0.244   1.103  3.5503  0.8128  0.4855
  909SOL    HW2 3635   1.587   0.218   1.248  0.5510  2.1135  1.6481
  909SOL     MW 3636   1.608   0.191   1.170  0.8142  0.2874  0.5388
  910SOL     OW 3637   2.317   1.796   0.442 -0.1153  0.6973 -0.1113
  910SOL    HW1 3638   2.254   1.722   0.452  0.0211 -1.4849 -0.2321
  910SOL    HW2 3639   2.288   1.833   0.357  1.7319 -0.4364 -1.4650
  910SOL     MW 3640   2.305   1.791   0.432  0.1464  0.2598 -0.3058
  911SOL     OW 3641   2.213   2.244   1.702 -0.0039 -0.3105 -0.1246
  911SOL    HW1 3642   2.279   2.233   1.774 -0.2540 -0.7883 -0.2815
  911SOL    HW2 3643   2.265   2.264   1.617 -0.2623  0.4192 -0.1254
  911SOL     MW 3644   2.228   2.245   1.700 -0.0710 -0.2773 -0.1454
  912SOL     OW 3645   2.842   1.919   1.496 -0.0971 -0.7927 -0.2327
  912SOL    HW1 3646   2.878   1.966   1.413  2.4206  0.0514 -2.1209
  912SOL    HW2 3647   2.757   1.953   1.525 -0.9796 -0.3513 -0.2322
  912SOL     MW 3648   2.835   1.930   1.489  0.1186 -0.6231 -0.4818
  913SOL     OW 3649   2.581   2.997   0.361  0.0313  0.4004 -0.1219
  913SOL    HW1 3650   2.657   2.938   0.369  1.5313  1.0070  1.4279
  913SOL    HW2 3651   2.499   2.949   0.384  0.4719  0.4812  2.3211
  913SOL     MW 3652   2.580   2.983   0.365  0.2873  0.4911  0.4049
  914SOL     OW 3653   2.753   1.652   3.043 -0.3148  0.5279  0.4670
  914SOL    HW1 3654   2.750   1.730   2.989  2.0632  1.7783 -2.3576
  914SOL    HW2 3655   2.670   1.659   3.093  0.1984  1.3286 -0.6402
  914SOL     MW 3656   2.742   1.663   3.042  0.0667  0.7985 -0.0517
  915SOL     OW 3657   1.802   0.251   0.194 -0.4262 -0.2111  0.5935
  915SOL    HW1 3658   1.882   0.205   0.212 -2.2310 -1.5227  2.5852
  915SOL    HW2 3659   1.728   0.202   0.227 -1.4919  1.0743  0.0146
  915SOL     MW 3660   1.803   0.239   0.201 -0.8049 -0.2145  0.7799
  916SOL     OW 3661   1.714   2.061   1.939  0.2559 -0.3332  0.4501
  916SOL    HW1 3662   1.731   2.154   1.916  0.9220 -1.2704 -0.9994
  916SOL    HW2 3663   1.753   2.007   1.867 -2.2336  1.4000 -2.0811
  916SOL     MW 3664   1.722   2.066   1.926  0.0153 -0.2281 -0.0751
  917SOL     OW 3665   2.422   2.325   2.568 -0.0229 -0.0308 -0.5196
  917SOL    HW1 3666   2.441   2.326   2.664  1.2269  0.1698 -1.2611
  917SOL    HW2 3667   2.504   2.343   2.520 -0.9053  2.3522 -1.4700
  917SOL     MW 3668   2.435   2.327   2.574  0.0255  0.3100 -0.7428
  918SOL     OW 3669   2.004   1.639   2.708 -0.3047  0.2192  0.2398
  918SOL    HW1 3670   1.937   1.696   2.658 -1.0707 -1.6932 -0.2674
  918SOL    HW2 3671   2.094   1.678   2.701  1.5596  0.7540  1.4948
  918SOL     MW 3672   2.007   1.652   2.701 -0.1598  0.0374  0.3385
  919SOL     OW 3673   0.053   2.351   2.241 -0.1279  0.3253 -0.2601
  919SOL    HW1 3674  -0.025   2.291   2.227 -0.1874 -4.0358 -1.0851
  919SOL    HW2 3675   0.117   2.335   2.168 -0.4005 -1.1824 -1.1271
  919SOL     MW 3676   0.051   2.341   2.229 -0.1717 -0.4490 -0.4833
  920SOL     OW 3677   2.769   2.783   0.014  0.3284  0.0215  0.5650
  920SOL    HW1 3678   2.704   2.858   0.030 -0.5224  1.3965  0.5491
  920SOL    HW2 3679   2.740   2.733  -0.070  2.9108 -0.6636 -1.0561
  920SOL     MW 3680   2.756   2.786   0.005  0.5569  0.1125  0.3490
  921SOL     OW 3681   2.406   2.640   2.684 -0.3973 -0.3455 -0.4666
  921SOL    HW1 3682   2.489   2.627   2.644  0.7498  4.2023  0.2773
  921SOL    HW2 3683   2.401   2.586   2.764 -2.6061  3.2781 -0.3953
  921SOL     MW 3684   2.416   2.631   2.689 -0.5374  0.7326 -0.3590
  922SOL     OW 3685   2.005   2.776   0.296  0.1423  0.2488 -0.0685
  922SOL    HW1 3686   1.990   2.792   0.201 -1.9225 -1.3052  1.6750
  922SOL    HW2 3687   1.949   2.703   0.314 -0.2167 -1.8663  1.6855
  922SOL     MW 3688   1.996   2.768   0.286 -0.1775 -0.2353  0.3929
  923SOL     OW 3689   2.209   2.791   1.700  0.0006 -0.0296 -0.7708
  923SOL    HW1 3690   2.236   2.724   1.633 -1.2722  1.2471 -2.0291
  923SOL    HW2 3691   2.184   2.858   1.638  0.0829  0.7655  0.5353
  923SOL     MW 3692   2.209   2.791   1.683 -0.1565  0.2438 -0.7645
  924SOL     OW 3693   1.195   2.682   2.560 -0.1906 -0.4923  0.3400
  924SOL    HW1 3694   1.265   2.724   2.505  1.8865 -0.2401 -0.7865
  924SOL    HW2 3695   1.253   2.619   2.613  2.0940 -0.9932 -3.6129
  924SOL     MW 3696   1.212   2.679   2.559  0.3849 -0.5251 -0.3302
  925SOL     OW 3697   2.949   0.233   2.596 -0.6484  0.4786 -0.2892
  925SOL    HW1 3698   2.915   0.255   2.511 -2.3559 -0.8001  3.9834
  925SOL    HW2 3699   2.892   0.291   2.654  1.2559  1.2126  1.3289
  925SOL     MW 3700   2.937   0.243   2.593 -0.6224  0.4067  0.4880
  926SOL     OW 3701   2.738   2.407   2.092  0.0879  0.3853  0.3352
  926SOL    HW1 3702   2.794   2.459   2.156  0.4511 -0.8389  2.7865
  926SOL    HW2 3703   2.763   2.427   2.001 -2.1613  0.1671 -1.2741
  926SOL     MW 3704   2.749   2.417   2.089 -0.1609  0.1950  0.4463
  927SOL     OW 3705   2.327   0.182   0.304 -0.1202 -0.5707  0.3044
  927SOL    HW1 3706   2.422   0.173   0.286  2.6746  1.5369 -0.9839
  927SOL    HW2 3707   2.287   0.130   0.229 -0.7077 -2.9879 -1.5343
  927SOL     MW 3708   2.334   0.174   0.291  0.1710 -0.6115 -0.1082
  928SOL     OW 3709   2.074   2.444   1.863  0.1083  0.0347  0.2026
  928SOL    HW1 3710   2.134   2.382   1.821  0.9341 -1.1177  0.3911
  928SOL    HW2 3711   2.121   2.488   1.931 -1.6842 -0.8494  0.4586
  928SOL     MW 3712   2.088   2.442   1.867 -0.0193 -0.2340  0.2612
  929SOL     OW 3713   2.660   2.368   2.418  0.0054  0.2013 -0.3511
  929SOL    HW1 3714   2.703   2.376   2.336  0.2474 -1.0253 -1.4542
  929SOL    HW2 3715   2.720   2.330   2.483 -3.7212  1.0867 -0.1095
  929SOL     MW 3716   2.674   2.364   2.415 -0.4544  0.1563 -0.4647
  930SOL     OW 3717   2.006   2.848   2.676 -0.2246 -0.1753  0.0345
  930SOL    HW1 3718   2.020   2.793   2.758 -0.3269 -0.2316 -0.8663
  930SOL    HW2 3719   2.083   2.897   2.658  1.5212 -2.1184 -0.5200
  930SOL     MW 3720   2.018   2.847   2.684 -0.0078 -0.4391 -0.1575
  931SOL     OW 3721   2.970   2.777   2.268  0.4373 -0.5525  0.1707
  931SOL    HW1 3722   3.018   2.795   2.353 -0.4974 -0.0208  1.7718
  931SOL    HW2 3723   3.025   2.812   2.203  1.2528 -1.1770 -2.3318
  931SOL     MW 3724   2.983   2.784   2.271  0.4216 -0.5648  0.0518
  932SOL     OW 3725   2.910   1.976   2.494 -0.1840  0.1933  0.0107
  932SOL    HW1 3726   2.982   2.031   2.523 -1.4908 -1.0070 -0.1983
  932SOL    HW2 3727   2.909   1.981   2.396  1.2558  3.2284  0.2647
  932SOL     MW 3728   2.920   1.984   2.485 -0.1665  0.4354  0.0167
  933SOL     OW 3729   2.080   2.884   2.246 -0.1291 -0.1547 -0.0973
  933SOL    HW1 3730   2.140   2.942   2.293  0.9683 -0.4749  0.1472
  933SOL    HW2 3731   2.003   2.937   2.218 -1.7818  0.1178  1.9009
  933SOL     MW 3732   2.078   2.899   2.249 -0.2024 -0.1610  0.1986
  934SOL     OW 3733   2.001   2.719   2.444  0.3820 -0.3677  0.4211
  934SOL    HW1 3734   2.000   2.767   2.527  1.1606 -2.4932  1.5181
  934SOL    HW2 3735   2.036   2.777   2.376 -0.5549  0.7515 -0.5520
  934SOL     MW 3736   2.006   2.733   2.446  0.3611 -0.5004  0.4375
  935SOL     OW 3737   2.639   1.585   1.827  0.7471  0.5345  0.1578
  935SOL    HW1 3738   2.726   1.570   1.790 -0.8719 -0.5898  0.9668
  935SOL    HW2 3739   2.584   1.540   1.760 -1.9461 -0.6498 -2.5778
  935SOL     MW 3740   2.643   1.577   1.813  0.1781  0.2299 -0.0964
  936SOL     OW 3741   3.027   2.269   3.069 -0.2127  0.4471  0.0172
  936SOL    HW1 3742   3.089   2.322   3.119  2.7076 -0.8402  0.5085
  936SOL    HW2 3743   2.949   2.318   3.095  1.4861  0.6904  0.0886
  936SOL     MW 3744   3.025   2.282   3.079  0.3968  0.3093  0.0915
  937SOL     OW 3745   2.004   2.160   2.704 -0.4536 -0.0920  0.3335
  937SOL    HW1 3746   2.091   2.167   2.753  4.7529  0.9449  0.1080
  937SOL    HW2 3747   2.013   2.114   2.620 -1.3467 -1.8904 -1.1634
  937SOL     MW 3748   2.017   2.155   2.699  0.1155 -0.1924  0.1063
  938SOL     OW 3749   2.319   1.811   1.904  0.0228  0.2826  0.0284
  938SOL    HW1 3750   2.275   1.859   1.828  1.5118  0.5513 -1.8570
  938SOL    HW2 3751   2.294   1.859   1.981  0.5537 -2.9747  0.7726
  938SOL     MW 3752   2.310   1.824   1.904  0.2893 -0.1117 -0.1222
  939SOL     OW 3753   2.821   1.984   2.234 -0.7511 -0.0245 -0.4972
  939SOL    HW1 3754   2.815   1.920   2.163  0.0723 -2.5139 -0.6110
  939SOL    HW2 3755   2.729   2.001   2.247  0.0888  2.7001  0.9423
  939SOL     MW 3756   2.808   1.978   2.226 -0.5316  0.0066 -0.3223
  940SOL     OW 3757   2.327   0.161   2.700  0.3830  0.0854  0.5569
  940SOL    HW1 3758   2.287   0.077   2.672  0.4100 -2.0291 -0.2366
  940SOL    HW2 3759   2.358   0.154   2.787 -2.6478  0.5257 -1.3288
  940SOL     MW 3760   2.326   0.149   2.708 -0.0133 -0.1355  0.2034
  941SOL     OW 3761   0.195   2.269   2.042 -0.1443 -0.2618  0.2025
  941SOL    HW1 3762   0.286   2.228   2.043 -1.7286  2.0852 -1.3066
  941SOL    HW2 3763   0.150   2.227   1.963 -2.8350  1.2883 -4.8976
  941SOL     MW 3764   0.201   2.258   2.032 -0.7083  0.2524 -0.6695
  942SOL     OW 3765   2.932   2.231   2.140  0.1283 -0.5466 -0.4719
  942SOL    HW1 3766   2.861   2.302   2.128 -2.1516  0.3688 -1.1130
  942SOL    HW2 3767   2.888   2.154   2.181  0.9172  0.8829 -0.2651
  942SOL     MW 3768   2.917   2.230   2.144 -0.0684 -0.2372 -0.5292
  943SOL     OW 3769   0.363   2.014   2.326  0.0066 -0.0301 -0.0658
  943SOL    HW1 3770   0.309   2.082   2.366 -1.4756  1.5618 -2.0277
  943SOL    HW2 3771   0.451   2.012   2.355 -0.4296 -0.9142 -2.4780
  943SOL     MW 3772   0.367   2.023   2.335 -0.2465  0.0633 -0.6429
  944SOL     OW 3773   2.105   2.672   2.069  0.2550  0.6227 -0.2582
  944SOL    HW1 3774   2.176   2.627   2.121 -1.2223 -2.3023  0.3447
  944SOL    HW2 3775   2.084   2.753   2.119  1.5309  2.0994 -0.5124
  944SOL     MW 3776   2.112   2.677   2.083  0.2284  0.4316 -0.2122
  945SOL     OW 3777   2.746   2.709   2.833 -0.3537 -0.1891 -0.3131
  945SOL    HW1 3778   2.725   2.614   2.820 -0.5236 -1.7195 -1.3412
  945SOL    HW2 3779   2.785   2.733   2.748  0.8317 -0.7291  0.7706
  945SOL     MW 3780   2.748   2.699   2.820 -0.2197 -0.4623 -0.3058
  946SOL     OW 3781   2.480   2.747   2.250  0.2124 -0.2714 -0.4156
  946SOL    HW1 3782   2.503   2.780   2.163  3.4944  0.1601  0.9035
  946SOL    HW2 3783   2.408   2.684   2.249  1.0099  2.4670  2.9298
  946SOL     MW 3784   2.473   2.743   2.238  0.7507  0.1469  0.1998
  947SOL     OW 3785   2.019   0.107   0.236 -0.3174  0.4005  0.0722
  947SOL    HW1 3786   1.992   0.024   0.194 -3.0636 -3.4708 -1.3022
  947SOL    HW2 3787   2.063   0.083   0.323 -1.5860  0.2866 -0.9308
  947SOL     MW 3788   2.021   0.093   0.242 -0.8471 -0.1253 -0.2415
  948SOL     OW 3789   1.785   3.023   2.675 -0.3119 -0.4788  0.0237
  948SOL    HW1 3790   1.851   2.951   2.681 -0.8507  2.4764  0.7500
  948SOL    HW2 3791   1.794   3.047   2.575  0.8300 -1.2567 -1.2225
  948SOL     MW 3792   1.795   3.017   2.662 -0.2323 -0.1915 -0.0449
  949SOL     OW 3793   2.546   1.971   2.262  0.0754 -0.0412 -0.0115
  949SOL    HW1 3794   2.535   1.887   2.305  0.3991 -1.3864  0.6833
  949SOL    HW2 3795   2.492   2.033   2.314  0.4615 -0.9830 -1.7821
  949SOL     MW 3796   2.537   1.968   2.274  0.1691 -0.3429 -0.1535
  950SOL     OW 3797   2.224   2.538   2.996  0.4452 -0.0507 -0.3576
  950SOL    HW1 3798   2.278   2.469   2.964  2.0648  1.8154  2.0400
  950SOL    HW2 3799   2.150   2.552   2.922 -1.9345 -0.7702 -0.2309
  950SOL     MW 3800   2.221   2.531   2.982  0.3449  0.1006 -0.0246
  951SOL     OW 3801   2.946   2.125   2.828  0.1893  0.3998 -0.0805
  951SOL    HW1 3802   2.965   2.180   2.908 -1.0701 -0.1575 -1.9021
  951SOL    HW2 3803   3.025   2.120   2.772 -0.7147 -2.5054 -0.3656
  951SOL     MW 3804   2.959   2.132   2.832 -0.0961 -0.0570 -0.3585
  952SOL     OW 3805   3.091   1.740   2.175  0.1304 -0.6751  0.2084
  952SOL    HW1 3806   3.010   1.748   2.129  0.6955  1.1466 -0.4248
  952SOL    HW2 3807   3.147   1.780   2.111 -2.4236  0.8868 -1.8118
  952SOL     MW 3808   3.088   1.746   2.161 -0.1320 -0.2287 -0.1417
  953SOL     OW 3809   1.922   1.795   2.934 -0.8838 -0.2872  0.0294
  953SOL    HW1 3810   1.824   1.766   2.938  1.5517 -0.5091 -0.3121
  953SOL    HW2 3811   1.947   1.740   2.866  2.0008 -0.4559  0.3794
  953SOL     MW 3812   1.912   1.784   2.925 -0.1818 -0.3388  0.0305
  954SOL     OW 3813   2.498   2.051   2.874 -0.2809 -0.1674 -0.3607
  954SOL    HW1 3814   2.406   2.045   2.842  0.5783 -0.9614  2.3460
  954SOL    HW2 3815   2.560   2.049   2.795  0.3174  2.7866  1.4439
  954SOL     MW 3816   2.494   2.050   2.860 -0.0886  0.1176  0.2345
  955SOL     OW 3817   1.598   1.626   2.556  0.0996 -0.2626  0.6610
  955SOL    HW1 3818   1.569   1.632   2.456  1.3930 -1.5242  2.4826
  955SOL    HW2 3819   1.677   1.675   2.557 -0.3649 -1.2647 -0.5697
  955SOL     MW 3820   1.605   1.633   2.543  0.2090 -0.5613  0.7390
  956SOL     OW 3821   2.705   2.434   2.851  0.2279 -0.2164  0.1930
  956SOL    HW1 3822   2.741   2.399   2.935  1.2117 -1.1869  1.2372
  956SOL    HW2 3823   2.758   2.397   2.784  4.0360  0.5508 -0.2730
  956SOL     MW 3824   2.717   2.425   2.853  0.8602 -0.2432  0.2693
  957SOL     OW 3825   2.267   2.885   0.393  0.4976 -0.2421  0.3782
  957SOL    HW1 3826   2.195   2.843   0.345  0.3362  0.1682  0.2276
  957SOL    HW2 3827   2.244   2.852   0.478 -0.1402 -0.8806 -1.1982
  957SOL     MW 3828   2.255   2.875   0.398  0.3921 -0.2722  0.1504
  958SOL     OW 3829   2.035   2.593   2.839 -0.2507 -0.6107  0.0161
  958SOL    HW1 3830   2.030   2.540   2.761  3.7065 -0.6956 -1.2635
  958SOL    HW2 3831   1.955   2.590   2.895 -1.1116  0.9039  0.7882
  958SOL     MW 3832   2.024   2.586   2.836  0.1578 -0.4221 -0.0509
  959SOL     OW 3833   2.441   2.633   0.369 -0.0772 -0.0531  0.5964
  959SOL    HW1 3834   2.495   2.628   0.287  1.0530 -0.5790 -3.8052
  959SOL    HW2 3835   2.406   2.724   0.372 -1.4160  2.0308 -0.7713
  959SOL     MW 3836   2.443   2.645   0.359 -0.1047  0.1525 -0.1648
  960SOL     OW 3837   1.959   2.317   2.253  0.2318 -0.3233  0.4461
  960SOL    HW1 3838   1.881   2.274   2.220 -0.7792 -0.0611 -1.7187
  960SOL    HW2 3839   1.938   2.355   2.338  2.5829 -0.2223 -0.3528
  960SOL     MW 3840   1.946   2.317   2.260  0.4086 -0.2754  0.0551
  961SOL     OW 3841   2.218   2.308   2.313  0.5289  0.2910 -0.6238
  961SOL    HW1 3842   2.129   2.307   2.279  0.2977  0.6858 -0.3460
  961SOL    HW2 3843   2.207   2.363   2.395 -1.2187 -1.1640 -2.0311
  961SOL     MW 3844   2.205   2.315   2.320  0.2678  0.1511 -0.7728
  962SOL     OW 3845   2.229   2.018   2.794  0.2612  0.2454  0.1709
  962SOL    HW1 3846   2.207   2.002   2.886  3.2697 -0.5800 -0.6211
  962SOL    HW2 3847   2.194   1.943   2.749 -0.6593  1.0948  0.2548
  962SOL     MW 3848   2.221   2.006   2.800  0.5367  0.2486  0.0774
  963SOL     OW 3849   1.848   2.604   2.006 -0.5095  0.4897  0.5145
  963SOL    HW1 3850   1.942   2.641   2.010  2.6940  0.8635 -3.5176
  963SOL    HW2 3851   1.860   2.508   1.976  0.3211 -2.7166  1.8460
  963SOL     MW 3852   1.862   2.596   2.003  0.0228  0.1160  0.1582
  964SOL     OW 3853   1.811   1.972   2.749 -0.4794 -0.3316 -0.1616
  964SOL    HW1 3854   1.867   2.056   2.728  1.2989  0.7260 -1.6522
  964SOL    HW2 3855   1.854   1.928   2.821 -0.0148 -0.5652  1.9507
  964SOL     MW 3856   1.824   1.977   2.756 -0.1835 -0.2229 -0.0796
  965SOL     OW 3857   2.249   2.743   0.614  0.0978  0.8540 -0.4508
  965SOL    HW1 3858   2.238   2.646   0.599 -0.8522  2.0287  0.6050
  965SOL    HW2 3859   2.277   2.758   0.708 -0.1550 -2.1840 -0.0617
  965SOL     MW 3860   2.251   2.732   0.625 -0.0609  0.6082 -0.2602
  966SOL     OW 3861   2.611   2.627   2.474  0.0292 -0.1674  0.7614
  966SOL    HW1 3862   2.572   2.653   2.393 -0.3284 -1.4989  0.0250
  966SOL    HW2 3863   2.636   2.524   2.466  0.0964 -3.0475 -0.3001
  966SOL     MW 3864   2.609   2.617   2.462 -0.0091 -0.7231  0.5242
  967SOL     OW 3865   2.909   3.008   2.896 -0.7049  0.0253  0.0656
  967SOL    HW1 3866   2.910   2.948   2.969  0.5030 -1.1547  1.0901
  967SOL    HW2 3867   2.817   3.010   2.872 -1.5788 -0.3439 -0.1238
  967SOL     MW 3868   2.897   3.000   2.902 -0.6608 -0.1791  0.1758
  968SOL     OW 3869   2.993   2.599   2.948  0.0844 -0.0522 -0.4453
  968SOL    HW1 3870   2.914   2.648   2.919  2.1707  0.4556  0.0039
  968SOL    HW2 3871   3.029   2.546   2.871  0.4837 -0.4182 -3.1886
  968SOL     MW 3872   2.987   2.598   2.934  0.4124 -0.0335 -0.7480
  969SOL     OW 3873   1.530   2.119   1.697 -0.0162  0.2082 -0.2694
  969SOL    HW1 3874   1.591   2.051   1.683 -1.4465 -0.7442  3.0459
  969SOL    HW2 3875   1.500   2.118   1.787  2.4334  2.4928 -2.5396
  969SOL     MW 3876   1.534   2.110   1.707  0.1183  0.3840 -0.1315
  970SOL     OW 3877   1.657   1.672   1.798  0.3458  0.0423 -0.5627
  970SOL    HW1 3878   1.711   1.666   1.878  0.2105 -1.1564  2.8863
  970SOL    HW2 3879   1.565   1.675   1.828  2.2186  1.5578  0.2561
  970SOL     MW 3880   1.652   1.672   1.812  0.5751  0.0841  0.0004
  971SOL     OW 3881   1.789  -0.002   2.387 -0.2288 -0.4515 -0.0784
  971SOL    HW1 3882   1.787  -0.011   2.294  0.8371 -2.5271  3.3746
  971SOL    HW2 3883   1.860   0.069   2.418  1.0773  3.3745 -2.1307
  971SOL     MW 3884   1.798   0.006   2.379  0.0842 -0.2206  0.1064
  972SOL     OW 3885   0.269   2.838   2.444 -0.2937  0.3356 -0.1554
  972SOL    HW1 3886   0.282   2.754   2.490 -0.0265  1.5963 -0.8424
  972SOL    HW2 3887   0.342   2.899   2.469 -1.2506 -2.1277 -1.2966
  972SOL     MW 3888   0.280   2.835   2.454 -0.3847  0.1769 -0.3966
  973SOL     OW 3889   2.545   0.033   2.139  0.0955 -0.0457  0.2585
  973SOL    HW1 3890   2.532  -0.060   2.129 -1.3483 -0.3671 -0.8371
  973SOL    HW2 3891   2.563   0.065   2.053 -0.5627  1.7188 -1.0273
  973SOL     MW 3892   2.545   0.025   2.126 -0.1818  0.1447 -0.0557
  974SOL     OW 3893   2.060   0.253   2.701 -0.2312 -0.3355 -0.4424
  974SOL    HW1 3894   2.156   0.238   2.700  2.8615 -2.1124 -1.4213
  974SOL    HW2 3895   2.026   0.187   2.768  0.1916 -0.6227 -0.5642
  974SOL     MW 3896   2.068   0.242   2.710  0.2326 -0.6078 -0.5877
  975SOL     OW 3897   2.182   2.516   2.535 -0.4060 -0.2077 -0.4154
  975SOL    HW1 3898   2.268   2.521   2.586 -0.2218  0.0539  3.9039
  975SOL    HW2 3899   2.162   2.606   2.513  0.2232  0.7295  1.2085
  975SOL     MW 3900   2.191   2.528   2.538 -0.2987 -0.0495  0.3688
  976SOL     OW 3901   0.272   0.358   1.715 -0.0255 -0.8395  0.2342
  976SOL    HW1 3902   0.327   0.303   1.780  1.8661 -0.7420  1.8001
  976SOL    HW2 3903   0.189   0.309   1.709 -2.6204  0.0352  0.1495
  976SOL     MW 3904   0.268   0.344   1.723 -0.1183 -0.7112  0.4296
  977SOL     OW 3905   1.738   2.700   2.468  0.1505 -0.6776 -0.3251
  977SOL    HW1 3906   1.744   2.607   2.486  1.4354 -0.7285  1.3128
  977SOL    HW2 3907   1.830   2.712   2.446  0.9141  1.1366  0.3382
  977SOL     MW 3908   1.751   2.689   2.468  0.4208 -0.4450 -0.0215
   3.10000   3.10000   3.10000
