977 TIP4P/2005f water molecules t=   0.78000 step= 780
 3908
    1SOL     OW    1   0.254   0.840   3.062  0.8329 -0.2052 -0.2162
    1SOL    HW1    2   0.260   0.854   2.972  2.9269 -0.5560  2.2854
    1SOL    HW2    3   0.226   0.747   3.085  2.3527  1.3377 -0.5733
    1SOL     MW    4   0.251   0.829   3.053  1.3097 -0.0480  0.0667
    2SOL     OW    5   0.295   3.014   1.163 -0.0201 -0.5052 -0.0175
    2SOL    HW1    6   0.374   3.054   1.120 -1.6796 -1.4235 -1.1502
    2SOL    HW2    7   0.212   3.044   1.123  0.0750  1.2886  0.7246
    2SOL     MW    8   0.295   3.023   1.152 -0.2265 -0.3897 -0.0690
    3SOL     OW    9   2.645   0.421   0.938 -0.0592 -0.5010  0.2937
    3SOL    HW1   10   2.676   0.487   0.865  1.0213 -1.1370 -1.4092
    3SOL    HW2   11   2.635   0.474   1.023 -1.5813 -0.1195 -0.3855
    3SOL     MW   12   2.648   0.437   0.939 -0.1174 -0.5346 -0.0206
    4SOL     OW   13   3.032   1.705   0.644 -0.7047  0.1106  0.8340
    4SOL    HW1   14   2.964   1.738   0.580  0.2579 -3.7294  0.4059
    4SOL    HW2   15   3.106   1.681   0.581 -1.4969  3.0473 -0.8844
    4SOL     MW   16   3.033   1.706   0.627 -0.6822 -0.0086  0.5508
    5SOL     OW   17   1.713   1.505   0.517  0.3802  0.0188  0.1392
    5SOL    HW1   18   1.759   1.459   0.587  1.4808 -1.1820 -0.0887
    5SOL    HW2   19   1.619   1.463   0.528 -2.0349 -0.2627  1.2792
    5SOL     MW   20   1.706   1.494   0.528  0.2068 -0.1768  0.2596
    6SOL     OW   21   0.852   1.422   0.643  0.1989  0.2254 -0.3921
    6SOL    HW1   22   0.767   1.462   0.663 -1.6160  1.1681  0.4734
    6SOL    HW2   23   0.840   1.329   0.676 -1.6680 -1.4226  2.6924
    6SOL     MW   24   0.839   1.415   0.650 -0.2869  0.1323  0.1291
    7SOL     OW   25   2.028   1.148   3.057  0.0893  0.3943 -0.3193
    7SOL    HW1   26   2.096   1.214   3.050 -0.5004 -2.3327  0.9667
    7SOL    HW2   27   2.045   1.117   3.146 -0.7335 -0.6861 -0.9940
    7SOL     MW   28   2.039   1.153   3.068 -0.0970 -0.1081 -0.2387
    8SOL     OW   29   0.938   1.344   1.035 -0.7009  0.3408  0.1171
    8SOL    HW1   30   1.030   1.311   1.057  1.0627  0.9182  0.5361
    8SOL    HW2   31   0.884   1.304   1.104  1.6374 -1.0266 -2.0163
    8SOL     MW   32   0.943   1.334   1.047 -0.1597  0.2365 -0.1091
    9SOL     OW   33   1.051   0.476   1.378 -0.1717  0.5875  0.0811
    9SOL    HW1   34   0.988   0.416   1.334 -1.0398  0.2031  0.3447
    9SOL    HW2   35   1.087   0.429   1.452  1.9751 -1.0500  0.7946
    9SOL     MW   36   1.047   0.462   1.382 -0.0030  0.3207  0.2100
   10SOL     OW   37   0.291   0.813   0.458  0.4187  0.5719  0.0434
   10SOL    HW1   38   0.378   0.827   0.418 -1.4574 -1.3219  1.2308
   10SOL    HW2   39   0.265   0.896   0.501  0.1355 -1.5123 -0.0742
   10SOL     MW   40   0.299   0.826   0.458  0.1338  0.0470  0.1846
   11SOL     OW   41   0.787   1.149   1.724  0.2124 -0.0456  0.5815
   11SOL    HW1   42   0.835   1.116   1.801  0.1951 -0.1001 -1.3622
   11SOL    HW2   43   0.792   1.065   1.661 -2.1270 -1.3470 -4.1683
   11SOL     MW   44   0.794   1.134   1.726 -0.0986 -0.2245 -0.3016
   12SOL     OW   45   0.035   1.048   0.866 -0.2048 -0.2401 -0.0037
   12SOL    HW1   46   0.073   1.127   0.917  0.3934  1.4846  2.7213
   12SOL    HW2   47  -0.029   1.090   0.805  1.6039 -2.5604  0.0590
   12SOL     MW   48   0.031   1.064   0.865  0.1127 -0.3187  0.3641
   13SOL     OW   49   1.859   1.370   1.340 -0.0501 -0.1067 -0.0852
   13SOL    HW1   50   1.864   1.318   1.265  1.6013 -0.1813  0.9760
   13SOL    HW2   51   1.901   1.446   1.308 -0.8686 -1.1402 -0.2245
   13SOL     MW   52   1.865   1.373   1.326  0.0598 -0.2529  0.0364
   14SOL     OW   53   0.646   0.392   1.846  0.3711  0.7141  0.1134
   14SOL    HW1   54   0.579   0.322   1.861  1.5106  2.1150  2.5659
   14SOL    HW2   55   0.703   0.386   1.921  0.4775  1.0116  0.4553
   14SOL     MW   56   0.645   0.382   1.858  0.5355  0.9382  0.4821
   15SOL     OW   57   1.941   0.446   0.974 -0.8938 -0.1562  0.0832
   15SOL    HW1   58   1.922   0.470   1.069  1.3241 -3.4376 -0.1742
   15SOL    HW2   59   2.037   0.448   0.966 -2.1229  0.2293 -0.8805
   15SOL     MW   60   1.951   0.449   0.986 -0.7633 -0.5383 -0.0779
   16SOL     OW   61   0.209   1.837   0.323 -0.3808  0.0643 -0.1231
   16SOL    HW1   62   0.292   1.791   0.348 -0.2991 -0.6940  1.8615
   16SOL    HW2   63   0.237   1.924   0.361 -0.8344  0.4028  3.1936
   16SOL     MW   64   0.223   1.842   0.331 -0.4299  0.0089  0.5763
   17SOL     OW   65   1.089   0.924   1.520  0.4591 -0.1300 -0.2206
   17SOL    HW1   66   1.129   0.889   1.601  0.0664 -2.4232  0.4797
   17SOL    HW2   67   0.999   0.912   1.537  2.1074  1.5365 -1.4099
   17SOL     MW   68   1.082   0.918   1.533  0.6248 -0.2127 -0.2851
   18SOL     OW   69   0.080   1.598   0.372 -0.4586 -0.2799 -0.3264
   18SOL    HW1   70   0.095   1.691   0.353  1.3682  0.6716 -3.6806
   18SOL    HW2   71   0.081   1.551   0.290  1.0243 -0.3925  1.2583
   18SOL     MW   72   0.082   1.604   0.359 -0.0219 -0.1692 -0.5599
   19SOL     OW   73   0.127   1.283   0.972  0.1089  0.5568  0.1692
   19SOL    HW1   74   0.153   1.339   0.900  0.4916 -2.4482  3.2029
   19SOL    HW2   75   0.048   1.330   1.005  0.4772 -3.5027  0.4033
   19SOL     MW   76   0.120   1.297   0.967  0.2080 -0.3753  0.6003
   20SOL     OW   77   0.428   2.115   1.163  0.2636  0.3684 -0.3156
   20SOL    HW1   78   0.377   2.037   1.122 -1.7248 -0.8312  0.4533
   20SOL    HW2   79   0.368   2.150   1.236 -0.3912 -0.5464  1.6144
   20SOL     MW   80   0.413   2.109   1.167 -0.0851  0.0894  0.0405
   21SOL     OW   81   0.548   0.818   0.353 -0.1147 -0.0025  0.1076
   21SOL    HW1   82   0.610   0.787   0.423 -0.3435  0.3951 -1.6299
   21SOL    HW2   83   0.554   0.763   0.274  0.1092 -0.0624 -0.9852
   21SOL     MW   84   0.557   0.807   0.352 -0.1153  0.0421 -0.2658
   22SOL     OW   85   1.486   0.635   1.086  0.5795  0.4436 -0.4631
   22SOL    HW1   86   1.476   0.613   0.987 -0.7210  0.0597 -2.1174
   22SOL    HW2   87   1.399   0.653   1.118 -0.9160 -1.1759 -0.7203
   22SOL     MW   88   1.473   0.634   1.077  0.2106  0.1792 -0.7153
   23SOL     OW   89   0.035   0.775   0.654 -0.4841 -0.2733  0.6440
   23SOL    HW1   90   0.073   0.700   0.703  1.7338  2.4809 -1.0337
   23SOL    HW2   91   0.095   0.851   0.673 -0.4682  2.3164 -1.6984
   23SOL     MW   92   0.048   0.775   0.663 -0.1893  0.4318  0.1136
   24SOL     OW   93   1.984   2.214   0.119  0.2426  0.5611  0.0875
   24SOL    HW1   94   1.983   2.177   0.212 -0.6988 -2.6495  0.9652
   24SOL    HW2   95   2.009   2.139   0.063 -1.5536 -0.0446  0.8700
   24SOL     MW   96   1.987   2.199   0.124 -0.1186  0.0576  0.3066
   25SOL     OW   97   0.225   1.366   0.481 -0.2251 -0.3898  0.2934
   25SOL    HW1   98   0.172   1.435   0.439 -1.0778 -2.0131  0.2920
   25SOL    HW2   99   0.310   1.398   0.484 -0.3946 -1.2315  0.1343
   25SOL     MW  100   0.229   1.379   0.476 -0.3600 -0.7150  0.2722
   26SOL     OW  101   2.012   0.990   0.374  0.3942 -0.4244 -0.0464
   26SOL    HW1  102   1.943   1.024   0.438  1.9181  0.5167  0.4284
   26SOL    HW2  103   2.049   1.068   0.321  1.3359  0.9656 -2.2503
   26SOL     MW  104   2.008   1.005   0.375  0.7195 -0.1168 -0.2746
   27SOL     OW  105   2.058   1.435   0.261 -0.6512 -0.0089 -0.2314
   27SOL    HW1  106   1.972   1.398   0.296 -1.5925  0.5269  0.8133
   27SOL    HW2  107   2.093   1.487   0.338 -0.5879  1.7694 -0.0154
   27SOL     MW  108   2.052   1.437   0.276 -0.7670  0.2964 -0.0651
   28SOL     OW  109   0.405   1.056   2.021 -0.4118 -0.6287 -0.3986
   28SOL    HW1  110   0.476   1.068   2.083  1.1279 -0.9353  0.3203
   28SOL    HW2  111   0.333   0.990   2.039 -0.5671 -0.2392 -0.4591
   28SOL     MW  112   0.405   1.049   2.032 -0.2292 -0.6178 -0.3117
   29SOL     OW  113   0.229   1.444   0.760  0.2559 -0.0951 -0.2651
   29SOL    HW1  114   0.224   1.539   0.749  0.4601  0.8895  0.7440
   29SOL    HW2  115   0.229   1.408   0.669  0.6101  2.0273 -0.9298
   29SOL     MW  116   0.228   1.452   0.747  0.3296  0.3148 -0.2197
   30SOL     OW  117   0.790   1.209   1.210  0.2841 -0.4881  0.0224
   30SOL    HW1  118   0.701   1.196   1.248 -1.7289  1.9564 -0.6846
   30SOL    HW2  119   0.855   1.172   1.273  1.0578 -1.5145 -1.4955
   30SOL     MW  120   0.787   1.202   1.224  0.1206 -0.3010 -0.2712
   31SOL     OW  121   0.420   0.157   0.184  0.4946 -1.2043 -0.3766
   31SOL    HW1  122   0.479   0.108   0.238  0.4594  1.3023 -1.2109
   31SOL    HW2  123   0.384   0.101   0.110 -2.7469 -1.0295  1.3466
   31SOL     MW  124   0.423   0.143   0.181  0.0623 -0.8505 -0.2593
   32SOL     OW  125   2.789   1.001   1.127  0.0102 -0.1077 -0.0662
   32SOL    HW1  126   2.718   0.928   1.122 -0.5328  0.3338  1.3366
   32SOL    HW2  127   2.866   0.941   1.122  0.1823  1.9602 -1.1276
   32SOL     MW  128   2.790   0.983   1.126 -0.0388  0.2234 -0.0212
   33SOL     OW  129   1.832   1.300   0.351 -0.0095  0.1162  0.1001
   33SOL    HW1  130   1.805   1.218   0.394 -1.7113  2.2763  1.8617
   33SOL    HW2  131   1.766   1.358   0.386 -1.6513 -0.3041 -4.8536
   33SOL     MW  132   1.820   1.297   0.362 -0.4506  0.3458 -0.3211
   34SOL     OW  133   1.250   1.859   1.059  0.0912 -0.0486  0.1497
   34SOL    HW1  134   1.168   1.903   1.072  1.1391 -2.3734 -0.3759
   34SOL    HW2  135   1.311   1.893   1.130  0.6969  1.2109  0.6491
   34SOL     MW  136   1.247   1.870   1.070  0.3094 -0.1892  0.1463
   35SOL     OW  137   0.436   0.176   1.885 -0.2212  0.2231  0.2560
   35SOL    HW1  138   0.425   0.110   1.956  0.9415 -2.0491 -2.3465
   35SOL    HW2  139   0.468   0.131   1.806  1.4451 -1.8750 -0.9228
   35SOL     MW  140   0.439   0.161   1.884  0.1521 -0.3535 -0.2429
   36SOL     OW  141   1.906   1.934   0.535  0.4023  0.0601  0.3401
   36SOL    HW1  142   1.912   1.964   0.445  0.8947  0.7119 -1.2969
   36SOL    HW2  143   1.920   1.835   0.535 -0.2805  1.2326 -0.2709
   36SOL     MW  144   1.909   1.925   0.523  0.3772  0.3008  0.0435
   37SOL     OW  145   1.747   1.988   1.030 -0.2027 -0.2868 -0.0067
   37SOL    HW1  146   1.694   1.939   0.968  1.0150  0.8298  1.7892
   37SOL    HW2  147   1.691   2.033   1.089  1.6560 -0.3796 -0.4137
   37SOL     MW  148   1.733   1.988   1.029  0.2032 -0.1517  0.1766
   38SOL     OW  149   2.779   0.916   0.120 -0.5651  0.1452 -0.0493
   38SOL    HW1  150   2.782   0.875   0.207  1.1259  2.2969 -0.2365
   38SOL    HW2  151   2.866   0.902   0.086  0.9616 -2.9620  2.7173
   38SOL     MW  152   2.791   0.909   0.127 -0.1406  0.0191  0.2910
   39SOL     OW  153   1.426   0.605   0.798  0.2131 -0.2676  0.6184
   39SOL    HW1  154   1.393   0.514   0.821 -2.5011  1.1401 -0.2550
   39SOL    HW2  155   1.341   0.652   0.792 -1.4420  0.5466  1.9382
   39SOL     MW  156   1.410   0.599   0.800 -0.3634  0.0255  0.6773
   40SOL     OW  157   1.157   1.908   0.261  0.1468 -0.2601  0.3581
   40SOL    HW1  158   1.199   1.845   0.315  0.6492 -2.2054 -1.5335
   40SOL    HW2  159   1.134   1.987   0.314  0.7357 -0.6139 -1.4339
   40SOL     MW  160   1.160   1.910   0.275  0.2908 -0.5635 -0.1279
   41SOL     OW  161   0.621   0.550   1.593 -0.4402  0.0759  0.6311
   41SOL    HW1  162   0.716   0.573   1.580 -0.6987 -0.3744  0.6899
   41SOL    HW2  163   0.624   0.511   1.676  1.7603 -1.0311  0.2139
   41SOL     MW  164   0.634   0.548   1.602 -0.1839 -0.1296  0.5838
   42SOL     OW  165   1.262   3.029   1.970  0.6842 -0.2752 -0.1399
   42SOL    HW1  166   1.172   3.019   2.007  0.4540  2.8575  3.7813
   42SOL    HW2  167   1.314   2.969   2.030 -0.3814 -0.8110 -0.3107
   42SOL     MW  168   1.257   3.020   1.983  0.5132  0.0674  0.3549
   43SOL     OW  169   1.569   0.127   1.738  0.1740 -0.3240  0.0226
   43SOL    HW1  170   1.610   0.088   1.657  1.6230 -1.8253  0.1802
   43SOL    HW2  171   1.472   0.128   1.716 -0.6040 -1.9350 -1.0620
   43SOL     MW  172   1.561   0.122   1.724  0.2626 -0.7347 -0.0997
   44SOL     OW  173   1.143   0.766   1.059 -1.1068 -0.1815  0.0194
   44SOL    HW1  174   1.173   0.849   1.020 -0.9929 -0.9708  0.1547
   44SOL    HW2  175   1.165   0.771   1.152 -3.4767 -1.1169 -1.6900
   44SOL     MW  176   1.150   0.777   1.066 -1.4045 -0.4091 -0.1883
   45SOL     OW  177   1.189   0.747   0.728  0.1611 -0.4405 -0.2974
   45SOL    HW1  178   1.124   0.779   0.792  2.8405  1.4095  0.2589
   45SOL    HW2  179   1.147   0.694   0.659  2.4662 -1.2725  0.1361
   45SOL     MW  180   1.175   0.744   0.727  0.8188 -0.3062 -0.1668
   46SOL     OW  181   0.587   1.178   0.563  0.5148  0.0798  0.1025
   46SOL    HW1  182   0.551   1.177   0.474 -0.6525  0.4796 -0.4881
   46SOL    HW2  183   0.674   1.161   0.546  0.0077  2.3683 -0.8834
   46SOL     MW  184   0.594   1.176   0.549  0.2939  0.4345 -0.1055
   47SOL     OW  185   0.164   1.965   1.868  0.6044 -0.1153  1.3941
   47SOL    HW1  186   0.225   1.897   1.826  1.8923  2.1194  2.8038
   47SOL    HW2  187   0.178   1.944   1.959  1.4178 -2.9093  0.1470
   47SOL     MW  188   0.174   1.953   1.875  0.8817 -0.1891  1.4156
   48SOL     OW  189   1.100   0.496   0.949 -0.1403 -0.3330 -0.0234
   48SOL    HW1  190   1.013   0.480   0.988 -1.8530 -2.2199  2.1052
   48SOL    HW2  191   1.121   0.583   0.981 -1.9198 -1.8584 -0.3893
   48SOL     MW  192   1.091   0.506   0.958 -0.6011 -0.7832  0.2092
   49SOL     OW  193   1.831   0.731   1.604  0.0603 -0.1264 -0.0544
   49SOL    HW1  194   1.786   0.687   1.674  0.2058  0.2020  2.3984
   49SOL    HW2  195   1.875   0.659   1.556 -0.3420  1.3090  0.4950
   49SOL     MW  196   1.831   0.716   1.607  0.0264  0.1063  0.3417
   50SOL     OW  197   1.207   1.068   0.525 -0.1433  0.2215 -0.1336
   50SOL    HW1  198   1.164   1.096   0.604 -1.4993  0.2856  2.3853
   50SOL    HW2  199   1.285   1.019   0.557  0.2170 -1.5581 -2.3428
   50SOL     MW  200   1.212   1.066   0.539 -0.2747 -0.0048 -0.0927
   51SOL     OW  201   0.334   2.878   0.926 -0.7824 -0.1439  0.3868
   51SOL    HW1  202   0.430   2.848   0.957  2.5790 -0.1008  0.2678
   51SOL    HW2  203   0.303   2.911   1.010  0.7478 -2.8858 -1.2708
   51SOL     MW  204   0.342   2.878   0.941 -0.1370 -0.4999  0.1524
   52SOL     OW  205   0.817   1.841   0.434  0.2150 -0.3654  0.0896
   52SOL    HW1  206   0.782   1.930   0.456 -4.2208  0.5704 -1.8938
   52SOL    HW2  207   0.804   1.833   0.339 -1.2291 -0.3791 -1.1713
   52SOL     MW  208   0.810   1.852   0.425 -0.5608 -0.2438 -0.3384
   53SOL     OW  209   0.422   2.131   0.626 -0.2632  0.0409 -0.3845
   53SOL    HW1  210   0.351   2.108   0.566 -0.4839 -0.1412 -4.0078
   53SOL    HW2  211   0.420   2.226   0.616 -0.8021 -3.1010 -2.1064
   53SOL     MW  212   0.412   2.140   0.616 -0.3634 -0.3977 -1.0897
   54SOL     OW  213   2.098   0.927   0.855 -0.2366  0.4427 -0.2204
   54SOL    HW1  214   2.127   0.923   0.761  1.8514 -2.8828 -0.4529
   54SOL    HW2  215   2.035   0.854   0.871  0.8060 -1.0632  0.8010
   54SOL     MW  216   2.093   0.917   0.845  0.1765 -0.1948 -0.1163
   55SOL     OW  217   0.564   1.543   1.666  0.4102  0.3193  0.5358
   55SOL    HW1  218   0.492   1.583   1.616  1.3269 -0.0310  0.2122
   55SOL    HW2  219   0.624   1.512   1.603 -0.3741 -0.6002  3.2969
   55SOL     MW  220   0.562   1.544   1.651  0.4277  0.1517  0.8574
   56SOL     OW  221   0.599   0.778   0.051  0.5275  0.0731 -0.0401
   56SOL    HW1  222   0.600   0.875   0.040  1.9344  0.0308  1.6509
   56SOL    HW2  223   0.534   0.753  -0.018 -0.3556  2.0060  0.1738
   56SOL     MW  224   0.591   0.788   0.041  0.5966  0.3226  0.2112
   57SOL     OW  225   1.209   1.193   1.106  0.2247 -0.0550  1.2029
   57SOL    HW1  226   1.297   1.225   1.083  0.7928 -0.4405 -1.1803
   57SOL    HW2  227   1.229   1.182   1.205  1.6582 -0.2779  0.8268
   57SOL     MW  228   1.223   1.196   1.117  0.4888 -0.1353  0.8388
   58SOL     OW  229   0.544   1.163   1.311 -0.2416  0.6511 -0.3756
   58SOL    HW1  230   0.514   1.257   1.290 -0.3133 -0.1428 -1.2932
   58SOL    HW2  231   0.546   1.167   1.407 -0.6109 -2.9335 -0.8729
   58SOL     MW  232   0.540   1.176   1.321 -0.2998  0.0734 -0.5623
   59SOL     OW  233   1.549   1.690   0.331  0.0098 -0.0170 -0.4580
   59SOL    HW1  234   1.587   1.684   0.422  2.4257  1.6631 -0.6204
   59SOL    HW2  235   1.458   1.681   0.345 -0.1350 -0.5068  3.7026
   59SOL     MW  236   1.542   1.688   0.345  0.3094  0.1400  0.0695
   60SOL     OW  237   0.022   0.183   1.602 -0.5968 -0.1508  0.0442
   60SOL    HW1  238  -0.054   0.232   1.619  0.3238 -0.5988 -0.4447
   60SOL    HW2  239   0.027   0.113   1.665  1.2106  1.5359  0.9086
   60SOL     MW  240   0.013   0.180   1.612 -0.2369  0.0126  0.0937
   61SOL     OW  241   2.037   1.499   3.077 -0.3153  0.2054  0.4470
   61SOL    HW1  242   1.993   1.545   3.147 -0.7325 -0.7796  1.1038
   61SOL    HW2  243   2.113   1.449   3.110 -0.3932 -0.5537  0.6067
   61SOL     MW  244   2.042   1.498   3.091 -0.3806 -0.0247  0.5547
   62SOL     OW  245   0.570   1.694   0.628  0.3149  0.2235 -0.0008
   62SOL    HW1  246   0.649   1.719   0.574 -1.3841  0.7196  3.6772
   62SOL    HW2  247   0.573   1.597   0.641  0.0661 -0.8054 -1.6537
   62SOL     MW  248   0.581   1.685   0.623  0.0579  0.1532  0.2664
   63SOL     OW  249   1.686   0.678   0.738 -0.3379 -0.2711 -0.0876
   63SOL    HW1  250   1.699   0.759   0.689 -0.5147  0.0919 -1.2393
   63SOL    HW2  251   1.592   0.673   0.753  0.5751  0.2221 -1.6806
   63SOL     MW  252   1.675   0.688   0.734 -0.2407 -0.1581 -0.4497
   64SOL     OW  253   0.218   1.750   0.757 -0.7071 -0.1617  0.3940
   64SOL    HW1  254   0.299   1.787   0.793  0.0131  1.3668  0.3443
   64SOL    HW2  255   0.146   1.803   0.774  3.2368 -1.2693 -0.3493
   64SOL     MW  256   0.219   1.762   0.764 -0.0917 -0.1062  0.2894
   65SOL     OW  257   1.540   2.342   0.382  0.2812  0.0128 -0.2909
   65SOL    HW1  258   1.634   2.357   0.381 -0.7815 -2.0280 -0.5427
   65SOL    HW2  259   1.510   2.402   0.445 -1.7437 -1.6370 -2.7284
   65SOL     MW  260   1.548   2.352   0.390 -0.1262 -0.4741 -0.6458
   66SOL     OW  261   0.277   0.535   0.555  0.3833 -0.7097 -0.7203
   66SOL    HW1  262   0.339   0.498   0.495 -0.2147 -2.0719  0.0762
   66SOL    HW2  263   0.271   0.631   0.529 -0.9531  2.6743 -0.1185
   66SOL     MW  264   0.285   0.543   0.544  0.1281 -0.4429 -0.5358
   67SOL     OW  265   1.524   0.076   2.049  0.4749 -0.1664  0.3873
   67SOL    HW1  266   1.550   0.085   1.955 -0.9515 -1.4285 -0.9626
   67SOL    HW2  267   1.524  -0.019   2.055 -1.1786  1.2523  1.2706
   67SOL     MW  268   1.528   0.065   2.037  0.0685 -0.1457  0.3257
   68SOL     OW  269   0.665   0.108   2.931  0.5530  0.1501 -0.1660
   68SOL    HW1  270   0.630   0.155   2.850  0.9594  0.7388 -1.3320
   68SOL    HW2  271   0.750   0.148   2.965  1.4975 -0.4039  2.1014
   68SOL     MW  272   0.672   0.120   2.924  0.7312  0.1546 -0.0207
   69SOL     OW  273   1.004   0.200   2.000  0.0978  0.3176 -0.0724
   69SOL    HW1  274   1.103   0.210   2.018  1.2706 -1.0667 -2.6046
   69SOL    HW2  275   0.980   0.111   2.022  0.5061 -0.7602  2.0678
   69SOL     MW  276   1.014   0.190   2.005  0.3064 -0.0072 -0.1241
   70SOL     OW  277   0.516   1.741   1.112  0.4730 -0.0632  0.2347
   70SOL    HW1  278   0.538   1.672   1.171  1.1979  0.1497 -1.2432
   70SOL    HW2  279   0.610   1.764   1.091  2.8594  2.3373  0.0901
   70SOL     MW  280   0.531   1.735   1.117  0.8835  0.2816  0.0206
   71SOL     OW  281   1.599   0.526   1.304 -0.2447 -0.0398 -0.7984
   71SOL    HW1  282   1.531   0.563   1.360  0.1942  0.9371 -1.2704
   71SOL    HW2  283   1.570   0.559   1.213 -1.1696 -3.2122 -0.4667
   71SOL     MW  284   1.586   0.535   1.299 -0.3088 -0.3295 -0.8169
   72SOL     OW  285   0.753   1.814   0.986 -0.6794  0.0075 -0.1514
   72SOL    HW1  286   0.741   1.867   0.905  1.3761 -0.4582 -1.2743
   72SOL    HW2  287   0.781   1.728   0.955  0.8229 -0.2272 -0.5454
   72SOL     MW  288   0.755   1.810   0.971 -0.2100 -0.0849 -0.3515
   73SOL     OW  289   1.167   0.750   1.329  0.1777  0.2798 -0.4023
   73SOL    HW1  290   1.129   0.660   1.318  0.3203  0.8339 -2.2579
   73SOL    HW2  291   1.111   0.801   1.383  1.2014  0.5263  1.0496
   73SOL     MW  292   1.155   0.745   1.334  0.3316  0.3854 -0.4555
   74SOL     OW  293   2.776   0.173   0.941 -0.7060  0.4533 -0.0376
   74SOL    HW1  294   2.824   0.182   0.857 -1.1522 -0.6120  1.6911
   74SOL    HW2  295   2.736   0.261   0.958  0.9479  0.5022  0.3816
   74SOL     MW  296   2.777   0.185   0.932 -0.5467  0.3192  0.2458
   75SOL     OW  297   1.646   1.375   0.105 -0.1854 -0.0919  0.2356
   75SOL    HW1  298   1.686   1.460   0.129 -0.2346  1.2953 -0.8899
   75SOL    HW2  299   1.716   1.312   0.120  1.9509 -0.0400  1.8457
   75SOL     MW  300   1.661   1.378   0.110  0.0900  0.0980  0.2995
   76SOL     OW  301   3.008   0.613   0.463  0.0084 -0.3657  0.1160
   76SOL    HW1  302   3.068   0.664   0.520  0.3048 -0.1881 -1.1830
   76SOL    HW2  303   3.052   0.533   0.450 -0.5439 -1.2016  2.8977
   76SOL     MW  304   3.022   0.609   0.469 -0.0254 -0.4526  0.3116
   77SOL     OW  305   0.789   0.553   0.421  0.7975 -0.0051  0.4899
   77SOL    HW1  306   0.789   0.560   0.328  0.3387  1.5576 -0.2437
   77SOL    HW2  307   0.746   0.466   0.446 -0.9864  0.3467  0.5976
   77SOL     MW  308   0.783   0.542   0.412  0.5016  0.2475  0.4073
   78SOL     OW  309   0.730   0.927   1.299  0.0175  0.5372  0.4245
   78SOL    HW1  310   0.777   0.991   1.240  1.5958  1.0805 -1.3940
   78SOL    HW2  311   0.681   0.864   1.244 -2.6711 -0.3771 -1.1626
   78SOL     MW  312   0.730   0.927   1.284 -0.1290  0.4883 -0.0248
   79SOL     OW  313   1.945   1.667   0.589 -0.0155 -0.2036  0.0748
   79SOL    HW1  314   1.867   1.608   0.570  4.4873 -0.6798 -2.5870
   79SOL    HW2  315   1.951   1.664   0.686  3.3155 -0.1062 -0.3345
   79SOL     MW  316   1.936   1.659   0.599  1.0181 -0.2536 -0.3304
   80SOL     OW  317   0.080   0.936   0.329 -0.0844 -0.1850  0.3114
   80SOL    HW1  318  -0.005   0.898   0.342  1.4397  0.2852  0.9291
   80SOL    HW2  319   0.155   0.882   0.361 -0.8133 -0.4156  0.4015
   80SOL     MW  320   0.079   0.924   0.335  0.0205 -0.1534  0.4048
   81SOL     OW  321   1.919   1.899   0.214  0.5269  0.4836  0.0632
   81SOL    HW1  322   1.877   1.810   0.210 -2.1450  0.6153  1.2618
   81SOL    HW2  323   1.847   1.967   0.196 -1.3950 -1.4061  1.0051
   81SOL     MW  324   1.904   1.896   0.211 -0.0792  0.2517  0.3456
   82SOL     OW  325   0.819   1.036   0.515 -0.3543 -0.6809  0.1304
   82SOL    HW1  326   0.788   1.054   0.424 -1.8813 -1.6852  2.7152
   82SOL    HW2  327   0.798   0.944   0.527  1.0028  2.8877 -2.5933
   82SOL     MW  328   0.812   1.026   0.505 -0.3767 -0.3426  0.1121
   83SOL     OW  329   0.084   0.634   1.412 -0.6634  0.2107  0.7983
   83SOL    HW1  330   0.111   0.712   1.361 -0.6822  1.1314 -0.3066
   83SOL    HW2  331   0.149   0.607   1.473 -2.5874  0.6708 -0.2902
   83SOL     MW  332   0.096   0.640   1.413 -0.9197  0.3929  0.5089
   84SOL     OW  333   0.103   0.262   0.949 -0.1227  0.4762 -0.0924
   84SOL    HW1  334   0.009   0.268   0.921 -0.5249 -0.2688 -1.7954
   84SOL    HW2  335   0.100   0.189   1.014 -1.0865  0.3528  0.8501
   84SOL     MW  336   0.090   0.253   0.954 -0.3029  0.3616 -0.1927
   85SOL     OW  337   0.487   0.416   0.749  0.0889 -0.1378  0.2896
   85SOL    HW1  338   0.416   0.448   0.688  1.6413  0.1193 -2.5418
   85SOL    HW2  339   0.459   0.331   0.777 -0.7010 -2.5353  1.2507
   85SOL     MW  340   0.474   0.409   0.744  0.1895 -0.4202  0.0428
   86SOL     OW  341   1.206   0.315   1.133 -0.3944  0.0136  0.3140
   86SOL    HW1  342   1.189   0.390   1.073  0.5053  0.2227  0.4236
   86SOL    HW2  343   1.248   0.357   1.208 -1.8936 -1.2171 -0.4362
   86SOL     MW  344   1.210   0.330   1.135 -0.4735 -0.1212  0.2294
   87SOL     OW  345   1.207   1.445   1.299  0.6653  0.7199  0.5651
   87SOL    HW1  346   1.213   1.505   1.224 -1.5613 -1.1669 -0.1348
   87SOL    HW2  347   1.150   1.371   1.275  1.2538 -0.2485 -0.2232
   87SOL     MW  348   1.200   1.444   1.286  0.4492  0.3432  0.3687
   88SOL     OW  349   1.208   0.996   0.940  0.0719  0.0368  0.1071
   88SOL    HW1  350   1.300   0.994   0.917  0.9404 -1.7905 -0.0161
   88SOL    HW2  351   1.209   1.074   0.999  0.7090 -0.4168 -3.4302
   88SOL     MW  352   1.220   1.006   0.944  0.2705 -0.2641 -0.3759
   89SOL     OW  353   1.780   0.678   0.369  0.0875 -0.1296  0.0912
   89SOL    HW1  354   1.820   0.597   0.391  1.6629  3.7619  2.7485
   89SOL    HW2  355   1.855   0.726   0.334  0.3271 -0.2340 -0.3521
   89SOL     MW  356   1.795   0.673   0.368  0.3270  0.3701  0.3833
   90SOL     OW  357   0.685   1.126   2.756  0.5113 -0.4310 -0.9054
   90SOL    HW1  358   0.740   1.039   2.777  0.9853 -1.6646  0.3989
   90SOL    HW2  359   0.710   1.174   2.829  0.7074  1.6235 -2.2633
   90SOL     MW  360   0.695   1.120   2.768  0.5997 -0.3227 -0.9125
   91SOL     OW  361   2.172   0.674   0.470  0.2937  0.1672 -0.7387
   91SOL    HW1  362   2.246   0.698   0.414 -1.5214  0.3752 -1.3710
   91SOL    HW2  363   2.151   0.580   0.449 -0.1343 -1.0106  1.1277
   91SOL     MW  364   2.179   0.665   0.460 -0.0022  0.0392 -0.5758
   92SOL     OW  365   1.651   0.862   0.534  0.5768  0.2292 -0.0424
   92SOL    HW1  366   1.555   0.877   0.541 -2.1372  0.8077  2.3231
   92SOL    HW2  367   1.673   0.794   0.469 -1.0557 -0.9954  0.3642
   92SOL     MW  368   1.641   0.855   0.526  0.0033  0.1439  0.3234
   93SOL     OW  369   0.956   0.263   0.412 -0.4099 -0.1751 -0.1868
   93SOL    HW1  370   0.866   0.290   0.391 -0.6728  2.8709  0.8188
   93SOL    HW2  371   1.011   0.282   0.337 -2.6448 -2.2186 -1.8859
   93SOL     MW  372   0.951   0.269   0.400 -0.7394 -0.0428 -0.2783
   94SOL     OW  373   1.788   1.461   1.625 -0.4452  1.0307 -0.0665
   94SOL    HW1  374   1.836   1.453   1.539  0.1174  1.3026  0.8192
   94SOL    HW2  375   1.773   1.373   1.656 -1.0283 -0.9280  1.5962
   94SOL     MW  376   1.792   1.449   1.618 -0.4479  0.8082  0.2697
   95SOL     OW  377   0.761   1.543   0.939 -0.0710  0.7148 -0.6810
   95SOL    HW1  378   0.816   1.468   0.933 -0.9825  1.6487 -0.8550
   95SOL    HW2  379   0.695   1.509   0.997 -0.8627  2.3503  0.1686
   95SOL     MW  380   0.759   1.528   0.946 -0.2957  1.0538 -0.5919
   96SOL     OW  381   1.244   1.837   1.640  0.6154 -0.2376 -0.1723
   96SOL    HW1  382   1.169   1.835   1.694 -1.4727 -3.5469  2.1413
   96SOL    HW2  383   1.260   1.746   1.603 -1.1000  3.6714 -0.7128
   96SOL     MW  384   1.236   1.825   1.642  0.1135 -0.1585  0.0617
   97SOL     OW  385   1.281   1.430   0.775 -0.2988  0.1154 -0.5369
   97SOL    HW1  386   1.348   1.481   0.812 -0.6712  0.4607  0.9277
   97SOL    HW2  387   1.208   1.495   0.774 -0.9848  1.6451 -0.7469
   97SOL     MW  388   1.280   1.445   0.780 -0.4385  0.3628 -0.3714
   98SOL     OW  389   1.456   1.279   1.018 -0.1752  0.3531 -0.1580
   98SOL    HW1  390   1.500   1.337   1.082 -0.0059 -1.3834 -1.5125
   98SOL    HW2  391   1.487   1.316   0.937  1.3904  0.4242 -2.0600
   98SOL     MW  392   1.466   1.291   1.016  0.0537  0.1333 -0.5877
   99SOL     OW  393   1.368   0.391   1.329  0.5098 -0.1931  0.1420
   99SOL    HW1  394   1.457   0.388   1.291 -0.1633 -0.5824  0.3017
   99SOL    HW2  395   1.383   0.407   1.423  0.4737  1.0774  0.2531
   99SOL     MW  396   1.381   0.393   1.336  0.4162 -0.0768  0.1777
  100SOL     OW  397   1.026   1.148   1.367  0.1604  0.1918  0.3654
  100SOL    HW1  398   1.022   1.203   1.442 -0.9557 -0.8580 -0.0557
  100SOL    HW2  399   1.039   1.059   1.400 -0.2775  1.3471 -1.5291
  100SOL     MW  400   1.028   1.143   1.381 -0.0446  0.2057  0.0599
  101SOL     OW  401   0.492   1.080   0.294  0.1278  0.2236  0.1983
  101SOL    HW1  402   0.503   0.991   0.319  0.8801 -0.7096 -1.6988
  101SOL    HW2  403   0.477   1.070   0.194 -1.6723 -2.1979 -0.5270
  101SOL     MW  404   0.492   1.067   0.284 -0.0105 -0.2190 -0.1477
  102SOL     OW  405   2.906   0.618   1.028  0.2838  0.8352  0.6582
  102SOL    HW1  406   2.938   0.705   1.044 -0.0310 -1.9821 -0.4884
  102SOL    HW2  407   2.968   0.568   1.080 -2.1918 -0.2383  0.3268
  102SOL     MW  408   2.918   0.623   1.037 -0.0844  0.3219  0.4632
  103SOL     OW  409   1.732   0.329   1.790  0.3444  0.0475  0.1127
  103SOL    HW1  410   1.684   0.256   1.761 -1.1387  0.7953  1.9712
  103SOL    HW2  411   1.763   0.290   1.878  0.5387 -2.1245  0.5995
  103SOL     MW  412   1.729   0.314   1.798  0.1743 -0.1404  0.4222
  104SOL     OW  413   0.066   1.727   1.514 -0.8777  0.3943 -0.3081
  104SOL    HW1  414   0.023   1.643   1.553  0.1566 -4.1123  0.9728
  104SOL    HW2  415   0.060   1.704   1.415 -1.2136 -3.0739  1.0364
  104SOL     MW  416   0.059   1.713   1.506 -0.7856 -0.6579  0.0383
  105SOL     OW  417   0.039   1.175   0.471  0.0293  0.8386  0.0260
  105SOL    HW1  418   0.055   1.081   0.430  1.8938 -1.3812  0.4129
  105SOL    HW2  419   0.130   1.222   0.462  1.4917 -0.3622 -1.3577
  105SOL     MW  420   0.053   1.169   0.465  0.4683  0.3873 -0.1055
  106SOL     OW  421   0.870   0.376   1.028 -0.4016  0.6015 -0.1073
  106SOL    HW1  422   0.797   0.418   0.979 -1.2715 -0.6625 -0.3627
  106SOL    HW2  423   0.910   0.303   0.971  1.0655  1.5568  1.0935
  106SOL     MW  424   0.866   0.372   1.014 -0.3228  0.5607  0.0174
  107SOL     OW  425   0.761   2.181   2.955  0.0669 -0.3979 -0.0610
  107SOL    HW1  426   0.700   2.159   2.881 -0.8404  1.3140  0.9120
  107SOL    HW2  427   0.718   2.164   3.038 -2.1881  0.0484 -1.2681
  107SOL     MW  428   0.747   2.176   2.956 -0.3503 -0.1131 -0.0919
  108SOL     OW  429   1.270   1.577   1.572 -0.0827  0.1461  0.8390
  108SOL    HW1  430   1.243   1.545   1.490  1.3952  1.0727  4.6769
  108SOL    HW2  431   1.347   1.517   1.600 -0.8549  0.2862  0.3103
  108SOL     MW  432   1.277   1.565   1.565  0.0104  0.2868  1.2756
  109SOL     OW  433   1.977   0.792   0.185 -0.0544 -0.1288  0.1373
  109SOL    HW1  434   1.993   0.813   0.095 -3.4837  0.7780 -1.6259
  109SOL    HW2  435   2.029   0.868   0.223 -0.5865  2.4855  0.6360
  109SOL     MW  436   1.986   0.805   0.178 -0.5771  0.3358 -0.0295
  110SOL     OW  437   0.441   1.917   0.810 -0.4949 -0.2471  0.2761
  110SOL    HW1  438   0.490   1.843   0.770  1.5259  0.2058  0.5420
  110SOL    HW2  439   0.449   1.989   0.749  2.0332 -2.3683 -1.0414
  110SOL     MW  440   0.449   1.917   0.797  0.1052 -0.4672  0.1373
  111SOL     OW  441   0.804   0.919   1.569  0.4223 -0.7354  0.0367
  111SOL    HW1  442   0.771   0.925   1.477 -0.4657 -0.9560 -0.2287
  111SOL    HW2  443   0.822   0.824   1.583  2.9799  0.0179  1.1006
  111SOL     MW  444   0.802   0.907   1.558  0.6426 -0.6651  0.1421
  112SOL     OW  445   1.352   1.079   1.590  0.7804  0.0313  0.0741
  112SOL    HW1  446   1.294   1.152   1.623  1.4780  2.1086 -1.1307
  112SOL    HW2  447   1.288   1.010   1.577 -1.0679  1.5596 -1.5791
  112SOL     MW  448   1.336   1.080   1.593  0.6285  0.5071 -0.3030
  113SOL     OW  449   1.306   0.054   1.714  0.1692 -0.0312 -0.5983
  113SOL    HW1  450   1.314   0.025   1.804  1.2163  1.6532  0.9061
  113SOL    HW2  451   1.325  -0.025   1.654  2.7408  1.1292 -0.2158
  113SOL     MW  452   1.309   0.040   1.718  0.6466  0.3441 -0.3493
  114SOL     OW  453   0.297   2.859   1.931 -0.3764 -0.2637 -0.1933
  114SOL    HW1  454   0.355   2.926   1.964 -0.6033 -0.0998 -0.8239
  114SOL    HW2  455   0.291   2.887   1.835 -3.0357 -1.8562  1.0752
  114SOL     MW  456   0.304   2.871   1.922 -0.7572 -0.4522 -0.1091
  115SOL     OW  457   0.489   0.831   1.145 -0.6370 -0.1189 -0.1713
  115SOL    HW1  458   0.514   0.738   1.144 -2.0564 -2.2323  2.3002
  115SOL    HW2  459   0.436   0.838   1.230  4.1536  2.5852  2.5008
  115SOL     MW  460   0.485   0.819   1.156 -0.1922 -0.0410  0.5073
  116SOL     OW  461   0.807   1.024   0.974  0.0190  0.2696 -0.1442
  116SOL    HW1  462   0.818   1.063   0.890  2.2986  1.7537  1.9905
  116SOL    HW2  463   0.860   1.084   1.030  0.9889 -1.3448 -0.4694
  116SOL     MW  464   0.816   1.037   0.970  0.4477  0.2524  0.0945
  117SOL     OW  465   1.113   1.198   0.760 -0.2500 -0.2107 -0.3891
  117SOL    HW1  466   1.152   1.125   0.806  1.4516 -1.8082 -0.4794
  117SOL    HW2  467   1.169   1.279   0.775  0.8716  0.3020 -2.6661
  117SOL     MW  468   1.125   1.199   0.768  0.1225 -0.3538 -0.7015
  118SOL     OW  469   3.035   2.943   1.768 -0.2749  0.0801  0.1840
  118SOL    HW1  470   3.087   3.020   1.794 -1.0431  0.8455 -0.6755
  118SOL    HW2  471   2.945   2.965   1.779 -1.4762  2.7104 -0.0444
  118SOL     MW  472   3.030   2.956   1.773 -0.5347  0.5281  0.0405
  119SOL     OW  473   0.481   1.434   1.223 -0.3603 -0.2861 -0.1229
  119SOL    HW1  474   0.492   1.430   1.123  3.0869  1.3714  0.2640
  119SOL    HW2  475   0.383   1.445   1.230  2.1178 -0.4460  2.1791
  119SOL     MW  476   0.470   1.435   1.210  0.4215 -0.0885  0.2319
  120SOL     OW  477   0.265   0.695   0.966 -0.0850  0.0923  0.0528
  120SOL    HW1  478   0.231   0.663   1.051 -0.4584  1.0984 -0.1780
  120SOL    HW2  479   0.343   0.747   0.987 -0.2028  0.1927 -0.2746
  120SOL     MW  480   0.271   0.698   0.980 -0.1498  0.2383 -0.0209
  121SOL     OW  481   1.751   1.200   1.714 -0.2199 -0.0418  0.3125
  121SOL    HW1  482   1.665   1.175   1.736 -1.5897  0.1220  2.1330
  121SOL    HW2  483   1.781   1.134   1.650 -0.2796 -0.0247  1.3251
  121SOL     MW  484   1.744   1.188   1.709 -0.4085 -0.0179  0.6863
  122SOL     OW  485   0.133   0.558   0.788 -0.1973 -0.1587  0.3175
  122SOL    HW1  486   0.171   0.535   0.702 -0.4059  0.7719  0.1057
  122SOL    HW2  487   0.193   0.608   0.847 -0.5627 -2.1422 -0.7498
  122SOL     MW  488   0.146   0.562   0.784 -0.2730 -0.2976  0.1487
  123SOL     OW  489   1.829   1.070   0.557  0.5038  0.6231 -0.1764
  123SOL    HW1  490   1.764   0.996   0.557 -2.3212 -0.6792 -1.0400
  123SOL    HW2  491   1.841   1.085   0.649  0.1686  3.8515 -1.6949
  123SOL     MW  492   1.822   1.062   0.569  0.0868  0.8772 -0.4907
  124SOL     OW  493   0.696   0.529   0.879 -0.1312  0.0262 -0.2637
  124SOL    HW1  494   0.632   0.498   0.816  2.2073 -2.6231  0.9762
  124SOL    HW2  495   0.707   0.622   0.859 -1.2730 -2.4192 -2.2733
  124SOL     MW  496   0.689   0.537   0.868  0.0267 -0.6460 -0.3652
  125SOL     OW  497   0.714   1.785   1.706 -0.4388 -0.0210  0.1654
  125SOL    HW1  498   0.644   1.720   1.709  0.8924  1.2362  3.1175
  125SOL    HW2  499   0.667   1.864   1.706 -1.4052 -3.6922  0.0831
  125SOL     MW  500   0.699   1.787   1.707 -0.3907 -0.3395  0.5440
  126SOL     OW  501   2.120   1.611   1.984 -0.0128 -0.0878  0.1728
  126SOL    HW1  502   2.186   1.685   1.981 -1.3293  2.0427  2.0928
  126SOL    HW2  503   2.183   1.536   1.984  1.8130  0.5931 -0.5248
  126SOL     MW  504   2.137   1.611   1.984  0.0544  0.2831  0.3341
  127SOL     OW  505   0.698   0.786   1.860  0.4005 -0.3453  0.0280
  127SOL    HW1  506   0.781   0.755   1.890  1.7471 -0.9083  0.0479
  127SOL    HW2  507   0.679   0.869   1.908  0.0279  1.2076  0.0384
  127SOL     MW  508   0.707   0.793   1.870  0.5290 -0.2147  0.0320
  128SOL     OW  509   1.803   0.719   2.899 -0.9190 -0.5527  0.2114
  128SOL    HW1  510   1.820   0.705   2.804  2.0301 -0.8527 -0.0156
  128SOL    HW2  511   1.765   0.804   2.912 -1.4545 -1.1758  0.6221
  128SOL     MW  512   1.801   0.728   2.888 -0.6005 -0.6745  0.2356
  129SOL     OW  513   1.644   0.954   0.219 -0.3197  0.5994  0.0615
  129SOL    HW1  514   1.603   0.872   0.212  0.0122  2.9611  0.3376
  129SOL    HW2  515   1.684   0.955   0.309  0.2142 -0.6264  0.6882
  129SOL     MW  516   1.644   0.943   0.230 -0.2055  0.7493  0.1806
  130SOL     OW  517   0.740   1.335   0.353  0.0382 -0.1956  0.2708
  130SOL    HW1  518   0.801   1.364   0.423 -2.0614 -2.2736  0.0045
  130SOL    HW2  519   0.771   1.393   0.278 -0.4417  1.9318 -5.0311
  130SOL     MW  520   0.752   1.346   0.353 -0.3022 -0.1891 -0.4639
  131SOL     OW  521   2.998   0.827   3.072  0.5533 -0.4406 -0.0243
  131SOL    HW1  522   3.018   0.868   2.990 -0.4915  0.7914 -0.0649
  131SOL    HW2  523   3.089   0.821   3.108  2.0728 -1.0458  2.1388
  131SOL     MW  524   3.013   0.832   3.066  0.6160 -0.3579  0.2557
  132SOL     OW  525   2.695   0.159   1.228 -0.5559 -0.4628  0.2828
  132SOL    HW1  526   2.707   0.152   1.131 -1.8791 -1.9293  1.0548
  132SOL    HW2  527   2.604   0.127   1.234  1.6636 -0.1325 -1.0582
  132SOL     MW  528   2.685   0.154   1.216 -0.4376 -0.6127  0.2077
  133SOL     OW  529   1.053   0.159   1.733 -0.4021 -0.3661 -0.0684
  133SOL    HW1  530   1.133   0.107   1.714  0.7291 -1.1212  3.0157
  133SOL    HW2  531   1.043   0.169   1.830 -3.3084  2.1118  1.1970
  133SOL     MW  532   1.062   0.153   1.744 -0.6363 -0.1388  0.5055
  134SOL     OW  533   1.400   2.524   1.434 -0.6006 -0.1554 -0.2344
  134SOL    HW1  534   1.339   2.598   1.415  0.5877  2.9904 -4.9188
  134SOL    HW2  535   1.453   2.562   1.504  0.0195  0.5617  3.4834
  134SOL     MW  536   1.399   2.539   1.441 -0.3620  0.3543 -0.3619
  135SOL     OW  537   3.060   1.020   2.840 -0.3324 -0.2880 -0.0288
  135SOL    HW1  538   3.108   1.084   2.893 -4.6397 -4.5290  0.8656
  135SOL    HW2  539   2.971   1.047   2.842  0.3061 -3.2255 -2.0317
  135SOL     MW  540   3.055   1.032   2.847 -0.8164 -1.2351 -0.1751
  136SOL     OW  541   0.214   2.050   0.888 -0.6125 -0.3624 -0.6700
  136SOL    HW1  542   0.134   2.017   0.846  0.5537  0.7174  0.1366
  136SOL    HW2  543   0.293   2.014   0.837  0.6437 -1.1271  2.7994
  136SOL     MW  544   0.214   2.041   0.875 -0.2929 -0.3208 -0.1059
  137SOL     OW  545   0.682   2.072   0.533  0.0536  0.2501 -0.1033
  137SOL    HW1  546   0.702   2.062   0.623  3.0239  0.6483 -1.4253
  137SOL    HW2  547   0.590   2.070   0.552  1.5791  1.1378 -1.5290
  137SOL     MW  548   0.672   2.071   0.547  0.6468  0.4197 -0.4658
  138SOL     OW  549   0.523   0.552   1.096  0.4424  0.3105 -0.3101
  138SOL    HW1  550   0.443   0.501   1.086  2.5798 -0.5213 -0.6985
  138SOL    HW2  551   0.572   0.539   1.013  1.6149  0.1150 -1.3957
  138SOL     MW  552   0.519   0.544   1.084  0.8791  0.1750 -0.5046
  139SOL     OW  553   2.768   0.581   1.352  0.0661  0.1482 -0.4002
  139SOL    HW1  554   2.803   0.492   1.345 -0.9427  1.6014  1.2938
  139SOL    HW2  555   2.788   0.608   1.438 -1.2636 -1.0004  0.8050
  139SOL     MW  556   2.775   0.572   1.362 -0.2424  0.1884 -0.0177
  140SOL     OW  557   0.810   0.380   2.075  0.1742 -0.1308  0.1395
  140SOL    HW1  558   0.888   0.327   2.063 -2.3692  3.3888  1.2169
  140SOL    HW2  559   0.816   0.428   2.159  1.4005  2.8498  0.5605
  140SOL     MW  560   0.821   0.379   2.085  0.0004  0.7268  0.3372
  141SOL     OW  561   1.086   0.584   1.760  0.4278  0.6115 -0.2035
  141SOL    HW1  562   1.118   0.505   1.714 -2.8500  1.6030 -1.8311
  141SOL    HW2  563   1.143   0.657   1.739  0.0547  3.7442  0.3272
  141SOL     MW  564   1.098   0.583   1.751 -0.0539  1.1556 -0.3482
  142SOL     OW  565   0.838   1.183   0.748 -0.2584  0.9855 -1.0372
  142SOL    HW1  566   0.847   1.119   0.674  1.3494 -0.2612  0.7076
  142SOL    HW2  567   0.930   1.194   0.781 -0.5136  0.3782 -1.2244
  142SOL     MW  568   0.851   1.176   0.743 -0.0799  0.7409 -0.8317
  143SOL     OW  569   1.749   0.787   1.111  0.0058  0.3394  0.8243
  143SOL    HW1  570   1.776   0.802   1.020  0.5308  1.1876  1.2204
  143SOL    HW2  571   1.651   0.788   1.116  1.3568 -2.3709 -1.5385
  143SOL     MW  572   1.739   0.789   1.099  0.2533  0.0937  0.5648
  144SOL     OW  573   0.236   1.180   1.550 -0.5241 -1.0734  0.7993
  144SOL    HW1  574   0.331   1.172   1.554 -1.6121  1.5342  1.1966
  144SOL    HW2  575   0.216   1.203   1.641 -3.5750 -0.8883  1.8938
  144SOL     MW  576   0.246   1.182   1.562 -1.0702 -0.7049  0.9961
  145SOL     OW  577   0.271   0.445   1.115  0.4036  0.7128  0.7589
  145SOL    HW1  578   0.299   0.368   1.165  1.2925 -3.3461  2.4543
  145SOL    HW2  579   0.242   0.399   1.029 -0.6182 -0.8038 -1.3598
  145SOL     MW  580   0.271   0.429   1.110  0.3860 -0.0228  0.7030
  146SOL     OW  581   0.811   1.931   1.313 -0.5649 -0.0749  0.2226
  146SOL    HW1  582   0.853   1.929   1.227 -1.4519 -2.0114 -0.0583
  146SOL    HW2  583   0.718   1.946   1.321 -2.4594  0.5153  0.4277
  146SOL     MW  584   0.804   1.933   1.303 -0.9319 -0.2525  0.2126
  147SOL     OW  585   0.354   0.396   2.997 -0.6386 -0.0281  0.0762
  147SOL    HW1  586   0.277   0.384   3.052 -3.0158  1.2785  0.0139
  147SOL    HW2  587   0.336   0.474   2.943  1.1362 -0.1419 -2.3829
  147SOL     MW  588   0.342   0.405   2.997 -0.7181  0.1293 -0.2565
  148SOL     OW  589   0.132   0.861   1.274  0.5544 -0.2086 -0.1805
  148SOL    HW1  590   0.229   0.866   1.300 -0.0554  0.0145  0.6203
  148SOL    HW2  591   0.091   0.890   1.354  2.4849 -0.1616 -3.2335
  148SOL     MW  592   0.139   0.865   1.288  0.7286 -0.1730 -0.4776
  149SOL     OW  593   1.364   1.137   1.342  0.1595 -0.3202  0.2837
  149SOL    HW1  594   1.340   1.126   1.436 -0.3110 -1.6342  1.4745
  149SOL    HW2  595   1.437   1.201   1.343 -2.0233 -0.5238 -0.8635
  149SOL     MW  596   1.371   1.144   1.355 -0.1906 -0.5204  0.2894
  150SOL     OW  597   1.846   1.411   0.744  0.2970 -0.3701  0.1855
  150SOL    HW1  598   1.880   1.323   0.747 -0.1383  2.0640 -0.2842
  150SOL    HW2  599   1.926   1.460   0.766  1.2615  0.7638 -1.5455
  150SOL     MW  600   1.861   1.406   0.747  0.3668  0.1007 -0.1048
  151SOL     OW  601   1.669   1.790   0.826  0.4954 -0.3715 -0.0296
  151SOL    HW1  602   1.640   1.823   0.737 -2.2789 -0.5456  0.7991
  151SOL    HW2  603   1.599   1.732   0.851 -2.1411 -3.0090 -1.8868
  151SOL     MW  604   1.656   1.786   0.817 -0.2185 -0.7425 -0.1653
  152SOL     OW  605   0.724   1.398   1.481  0.5421  0.6512  0.1321
  152SOL    HW1  606   0.722   1.319   1.534 -0.5450 -1.5074 -1.7768
  152SOL    HW2  607   0.805   1.439   1.508  1.0890 -2.0151 -0.4771
  152SOL     MW  608   0.734   1.393   1.492  0.4708  0.0146 -0.2001
  153SOL     OW  609   2.596   1.228   0.756  0.2662 -0.4430 -0.6742
  153SOL    HW1  610   2.664   1.178   0.710 -2.3545 -0.7661  3.0602
  153SOL    HW2  611   2.519   1.169   0.744 -1.9097  1.2180  0.6702
  153SOL     MW  612   2.595   1.214   0.749 -0.3666 -0.2665 -0.0041
  154SOL     OW  613   0.339   1.806   1.747 -0.6415  0.7534  0.2637
  154SOL    HW1  614   0.318   1.807   1.656 -0.2763  1.0333 -1.4189
  154SOL    HW2  615   0.331   1.710   1.779 -0.8148  0.0338 -0.8469
  154SOL     MW  616   0.335   1.793   1.739 -0.6162  0.6954 -0.1048
  155SOL     OW  617   1.194   0.699   0.269  0.4813  0.2196  0.0872
  155SOL    HW1  618   1.168   0.650   0.351 -0.0123  0.6205 -2.5557
  155SOL    HW2  619   1.173   0.792   0.285  1.9520 -0.4765 -0.1455
  155SOL     MW  620   1.187   0.705   0.282  0.6102  0.1806 -0.2922
  156SOL     OW  621   1.553   3.048   1.069 -0.9130  0.2197  0.4454
  156SOL    HW1  622   1.610   3.123   1.086  1.5186  0.6702 -1.3612
  156SOL    HW2  623   1.570   2.984   1.132 -1.9221 -0.3861 -1.5278
  156SOL     MW  624   1.563   3.049   1.080 -0.7253  0.1992 -0.0533
  157SOL     OW  625   1.454   1.125   0.119 -0.0502 -0.3505  0.0161
  157SOL    HW1  626   1.510   1.047   0.156  1.9985 -3.1483 -1.0142
  157SOL    HW2  627   1.522   1.186   0.086 -0.5630  1.1526  1.6369
  157SOL     MW  628   1.470   1.123   0.119  0.1524 -0.5213  0.0940
  158SOL     OW  629   0.482   1.619   2.195  0.2047  0.3012 -0.2812
  158SOL    HW1  630   0.479   1.695   2.135 -1.5839  3.0288 -0.7795
  158SOL    HW2  631   0.418   1.625   2.269 -0.0505 -1.1595  0.1292
  158SOL     MW  632   0.473   1.629   2.197 -0.0650  0.4684 -0.2928
  159SOL     OW  633   1.273   1.701   0.416  0.2523  0.2265  0.5547
  159SOL    HW1  634   1.234   1.619   0.383 -0.5108 -2.0559 -0.3828
  159SOL    HW2  635   1.214   1.727   0.486  0.9073  2.4508 -1.7314
  159SOL     MW  636   1.260   1.694   0.421  0.2381  0.2188  0.1294
  160SOL     OW  637   0.532   1.149   1.591  0.7291  0.0792  0.7977
  160SOL    HW1  638   0.538   1.053   1.605  2.5981 -1.9375  1.7976
  160SOL    HW2  639   0.580   1.178   1.667 -0.7052  1.5327 -1.1844
  160SOL     MW  640   0.539   1.140   1.603  0.7865  0.0049  0.6681
  161SOL     OW  641   0.470   2.199   2.562 -0.4701 -0.5150 -0.1029
  161SOL    HW1  642   0.380   2.211   2.532 -0.6851  1.3780  1.3986
  161SOL    HW2  643   0.508   2.133   2.505 -0.6926 -2.3523  1.2841
  161SOL     MW  644   0.463   2.192   2.550 -0.5278 -0.5077  0.2782
  162SOL     OW  645   1.078   1.816   1.870 -0.2680 -0.2115  0.2019
  162SOL    HW1  646   1.076   1.909   1.893  0.9255  0.7153  1.6486
  162SOL    HW2  647   0.986   1.786   1.880  1.4401 -0.4444  0.9798
  162SOL     MW  648   1.066   1.824   1.874  0.1149 -0.1200  0.4954
  163SOL     OW  649   2.139   0.048   0.938  0.3074 -0.2011  0.3477
  163SOL    HW1  650   2.141   0.109   0.855  0.1036 -0.2864 -2.3521
  163SOL    HW2  651   2.050   0.043   0.963 -0.2904  1.7237 -4.3054
  163SOL     MW  652   2.128   0.056   0.931  0.2016  0.0416 -0.6225
  164SOL     OW  653   0.349   0.186   0.889  0.2453  0.3438 -0.2174
  164SOL    HW1  654   0.266   0.226   0.896  1.6949  0.7237 -1.6080
  164SOL    HW2  655   0.327   0.117   0.823  1.7875 -1.7810  1.0884
  164SOL     MW  656   0.336   0.182   0.881  0.6400  0.1136 -0.2286
  165SOL     OW  657   1.340   1.234   0.337  0.2494  0.0665  0.0929
  165SOL    HW1  658   1.283   1.169   0.378  2.7157 -0.8046 -2.2071
  165SOL    HW2  659   1.374   1.184   0.257 -2.7862 -1.4367 -0.1022
  165SOL     MW  660   1.337   1.219   0.332  0.1743 -0.2468 -0.2363
  166SOL     OW  661   0.532   1.121   1.009 -0.1339  0.5926  0.2384
  166SOL    HW1  662   0.508   1.068   1.081  1.5395  0.7235 -1.1090
  166SOL    HW2  663   0.625   1.124   1.020  0.1648 -2.3308  1.8983
  166SOL     MW  664   0.541   1.114   1.020  0.1263  0.2241  0.2796
  167SOL     OW  665   0.783   1.038   0.239 -0.4753 -0.2799  0.1916
  167SOL    HW1  666   0.692   1.079   0.251 -1.8273  1.3982  0.9852
  167SOL    HW2  667   0.842   1.100   0.180 -1.0189 -2.6856 -0.5488
  167SOL     MW  668   0.778   1.052   0.233 -0.7254 -0.3759  0.1986
  168SOL     OW  669   1.650   1.677   2.978  0.2595 -0.0931  0.6422
  168SOL    HW1  670   1.555   1.672   2.970 -0.3975  0.5039 -1.4753
  168SOL    HW2  671   1.684   1.599   2.930  1.7000 -2.1944 -2.6624
  168SOL     MW  672   1.642   1.666   2.971  0.3629 -0.2916 -0.0732
  169SOL     OW  673   0.382   0.903   1.398 -0.0577 -0.2260  0.0993
  169SOL    HW1  674   0.399   0.875   1.489  2.2597 -0.9966  1.0101
  169SOL    HW2  675   0.442   0.976   1.390 -0.5899 -1.6222  0.9750
  169SOL     MW  676   0.392   0.909   1.409  0.1778 -0.5119  0.3350
  170SOL     OW  677   1.000   1.484   1.520  0.3970 -0.5795 -0.0075
  170SOL    HW1  678   0.980   1.573   1.548 -2.1444 -0.8337  0.3992
  170SOL    HW2  679   1.043   1.497   1.429 -1.1364  1.9418 -0.0406
  170SOL     MW  680   1.003   1.497   1.512 -0.1406 -0.2803  0.0418
  171SOL     OW  681   0.589   1.425   0.682 -0.1317 -0.0156  0.2149
  171SOL    HW1  682   0.535   1.406   0.763  1.1175  1.4532 -0.6594
  171SOL    HW2  683   0.599   1.341   0.637  1.2359 -0.1608 -0.4160
  171SOL     MW  684   0.583   1.412   0.686  0.2135  0.1591  0.0163
  172SOL     OW  685   0.851   0.297   1.281 -0.1842  0.8747 -0.1911
  172SOL    HW1  686   0.852   0.324   1.189 -1.4817  2.3165 -0.8065
  172SOL    HW2  687   0.761   0.334   1.302 -0.8115 -0.7840 -1.0231
  172SOL     MW  688   0.840   0.305   1.271 -0.4381  0.8461 -0.3821
  173SOL     OW  689   0.449   1.721   0.392 -0.2610  0.4932 -0.2195
  173SOL    HW1  690   0.427   1.635   0.356  2.5798  2.2190 -0.6179
  173SOL    HW2  691   0.475   1.706   0.487 -0.9044  1.8353 -0.2799
  173SOL     MW  692   0.450   1.708   0.400  0.0289  0.8980 -0.2801
  174SOL     OW  693   1.852   0.998   1.534 -0.0356  0.1483  0.3268
  174SOL    HW1  694   1.814   0.910   1.554  0.0307 -0.0335 -2.9910
  174SOL    HW2  695   1.841   1.005   1.438 -0.1882 -1.9442  3.5325
  174SOL     MW  696   1.846   0.987   1.524 -0.0470 -0.1518  0.3121
  175SOL     OW  697   0.470   1.426   0.359  0.6173  0.4676 -0.8350
  175SOL    HW1  698   0.456   1.396   0.263 -0.6870 -2.8557 -3.3141
  175SOL    HW2  699   0.560   1.392   0.380 -0.3390  0.1864 -0.4239
  175SOL     MW  700   0.480   1.418   0.349  0.3191 -0.0080 -1.1078
  176SOL     OW  701   0.214   1.404   1.227  0.4061  1.1117 -0.1495
  176SOL    HW1  702   0.186   1.351   1.153  0.1082 -1.8216  0.2614
  176SOL    HW2  703   0.196   1.358   1.313  0.6059  0.2300  0.2386
  176SOL     MW  704   0.208   1.391   1.229  0.3932  0.6084 -0.0441
  177SOL     OW  705   0.577   0.415   1.337  0.1823  0.4344 -0.1680
  177SOL    HW1  706   0.549   0.464   1.250  3.6363 -0.0067 -0.1578
  177SOL    HW2  707   0.599   0.486   1.397  0.0828 -0.5816  1.1808
  177SOL     MW  708   0.576   0.430   1.333  0.6249  0.2421  0.0113
  178SOL     OW  709   0.025   0.431   2.950 -0.1703  0.2872  0.4105
  178SOL    HW1  710  -0.042   0.442   3.018 -0.8028 -0.8324  1.2128
  178SOL    HW2  711  -0.018   0.473   2.873  1.7873  2.7371 -1.0230
  178SOL     MW  712   0.010   0.438   2.949  0.0045  0.4627  0.3273
  179SOL     OW  713   1.581   1.350   1.407 -0.3898 -0.3662  0.3249
  179SOL    HW1  714   1.573   1.375   1.501  0.7221 -1.4618  1.4431
  179SOL    HW2  715   1.677   1.348   1.387  0.0168  1.9477 -1.6577
  179SOL     MW  716   1.593   1.353   1.417 -0.1894 -0.2055  0.2109
  180SOL     OW  717   3.037   0.202   0.468  0.1507 -0.4775 -0.2012
  180SOL    HW1  718   2.989   0.200   0.389  4.2677  0.1172 -2.7439
  180SOL    HW2  719   3.097   0.275   0.454 -0.7987 -1.1535  0.1410
  180SOL     MW  720   3.039   0.211   0.456  0.5686 -0.4882 -0.4916
  181SOL     OW  721   1.138   1.361   3.087 -0.4268 -0.4281  0.0400
  181SOL    HW1  722   1.210   1.407   3.121  0.0739 -0.4045 -3.0452
  181SOL    HW2  723   1.191   1.303   3.035  1.9000  1.3526  1.4408
  181SOL     MW  724   1.155   1.359   3.084 -0.0537 -0.1900 -0.1822
  182SOL     OW  725   0.506   0.899   1.656 -0.9050 -0.2658 -0.3331
  182SOL    HW1  726   0.425   0.862   1.693 -0.2661 -0.5739  0.2326
  182SOL    HW2  727   0.584   0.865   1.694  1.5877  2.6287 -0.7921
  182SOL     MW  728   0.505   0.889   1.666 -0.4918  0.0755 -0.3190
  183SOL     OW  729   1.560   1.544   1.222  0.3767 -0.0583 -0.3590
  183SOL    HW1  730   1.478   1.594   1.233  1.6480 -0.3886  0.7118
  183SOL    HW2  731   1.562   1.477   1.299  0.9809  0.9198 -0.7354
  183SOL     MW  732   1.549   1.542   1.234  0.6242  0.0272 -0.2673
  184SOL     OW  733   0.913   0.619   1.980 -0.0060  0.1576 -0.1815
  184SOL    HW1  734   0.988   0.615   1.920 -1.9569  0.6013 -1.6467
  184SOL    HW2  735   0.868   0.532   1.987  2.5332  0.0840  0.2463
  184SOL     MW  736   0.917   0.607   1.973  0.0716  0.2064 -0.3184
  185SOL     OW  737   1.248   1.021   1.933  0.5300  0.1752 -0.1347
  185SOL    HW1  738   1.287   0.932   1.963  0.8918 -0.0161  1.4535
  185SOL    HW2  739   1.272   1.078   2.002 -0.9001  1.3455 -1.0197
  185SOL     MW  740   1.256   1.017   1.946  0.3890  0.3044 -0.0419
  186SOL     OW  741   0.375   1.643   1.451 -0.3341  0.4342 -0.3864
  186SOL    HW1  742   0.420   1.589   1.387 -2.9974 -3.0812 -2.0656
  186SOL    HW2  743   0.289   1.657   1.410  0.0029  0.4395  1.0605
  186SOL     MW  744   0.369   1.638   1.437 -0.6411 -0.0289 -0.4170
  187SOL     OW  745   1.413   0.715   1.432 -0.4119  0.2117 -0.2930
  187SOL    HW1  746   1.416   0.694   1.524 -0.1422 -0.4488 -1.0915
  187SOL    HW2  747   1.322   0.736   1.414  1.0861 -0.1148  0.9310
  187SOL     MW  748   1.401   0.715   1.442 -0.1786  0.0815 -0.2369
  188SOL     OW  749   1.949   1.146   0.815 -0.5370  0.4915 -0.1566
  188SOL    HW1  750   1.919   1.173   0.904 -0.5423  1.3624  2.2728
  188SOL    HW2  751   1.994   1.064   0.841 -2.5277 -0.3630  1.7428
  188SOL     MW  752   1.951   1.139   0.830 -0.8004  0.4937  0.4145
  189SOL     OW  753   0.707   0.805   0.847 -0.4478  0.0066  0.6580
  189SOL    HW1  754   0.620   0.847   0.820 -1.0670  1.0638  3.3028
  189SOL    HW2  755   0.741   0.867   0.917 -1.6078 -0.2579 -0.8223
  189SOL     MW  756   0.700   0.819   0.853 -0.6825  0.1112  0.8116
  190SOL     OW  757   1.881   0.284   2.062 -0.2855  0.1874  0.1090
  190SOL    HW1  758   1.931   0.257   2.141 -0.5097  3.3458  1.5929
  190SOL    HW2  759   1.936   0.359   2.028 -1.2325 -0.9171 -1.3244
  190SOL     MW  760   1.895   0.291   2.068 -0.4400  0.4584  0.1157
  191SOL     OW  761   1.483   0.939   1.235 -0.0969 -0.1357  0.0819
  191SOL    HW1  762   1.437   1.010   1.287 -1.0056 -2.0537 -0.3959
  191SOL    HW2  763   1.493   0.866   1.295 -2.8306  1.2547  0.8727
  191SOL     MW  764   1.478   0.939   1.250 -0.5775 -0.2053  0.1232
  192SOL     OW  765   0.576   2.080   2.792  0.4798  0.0719  0.0438
  192SOL    HW1  766   0.512   2.114   2.721 -2.4027  1.5309 -2.2270
  192SOL    HW2  767   0.590   1.988   2.780 -1.1482 -0.3560  0.0710
  192SOL     MW  768   0.570   2.072   2.781 -0.1153  0.2080 -0.2522
  193SOL     OW  769   1.020   1.564   0.801 -0.0455 -0.1087 -0.3074
  193SOL    HW1  770   1.013   1.539   0.895  0.8686 -1.0927  3.6943
  193SOL    HW2  771   0.965   1.499   0.751 -2.2562  1.2562 -0.3370
  193SOL     MW  772   1.012   1.552   0.807 -0.2166 -0.0584  0.2167
  194SOL     OW  773   0.435   1.394   0.940 -0.0573  0.2233  0.6184
  194SOL    HW1  774   0.455   1.300   0.938  1.4975 -1.2545  0.5027
  194SOL    HW2  775   0.360   1.405   0.886 -1.9221 -0.7436  4.1871
  194SOL     MW  776   0.428   1.383   0.932 -0.0982 -0.0993  1.0740
  195SOL     OW  777   1.276   1.139   3.000 -0.4450  1.0205  0.5878
  195SOL    HW1  778   1.338   1.132   3.072 -2.3942 -0.9559 -3.5616
  195SOL    HW2  779   1.202   1.073   3.018 -0.4285 -0.3127  0.1198
  195SOL     MW  780   1.274   1.129   3.012 -0.7000  0.5838 -0.0214
  196SOL     OW  781   2.171   1.026   0.595  0.2833 -0.3482 -0.5312
  196SOL    HW1  782   2.125   0.986   0.516 -2.6382  1.7489 -1.4514
  196SOL    HW2  783   2.144   1.119   0.594 -2.2223 -0.3056 -0.4484
  196SOL     MW  784   2.161   1.033   0.584 -0.4328 -0.0659 -0.6417
  197SOL     OW  785   0.696   1.251   2.047  0.3249  0.6271 -0.1461
  197SOL    HW1  786   0.692   1.158   2.029 -0.2500 -1.5960 -0.5605
  197SOL    HW2  787   0.652   1.292   1.979  1.1902  1.1106  0.3157
  197SOL     MW  788   0.689   1.244   2.036  0.3632  0.3976 -0.1398
  198SOL     OW  789   2.973   1.364   1.080  0.0127  0.2538  0.3006
  198SOL    HW1  790   2.949   1.458   1.062 -0.3643  2.5968  0.3234
  198SOL    HW2  791   2.900   1.305   1.046  0.9287 -1.7911  0.9289
  198SOL     MW  792   2.960   1.368   1.073  0.0838  0.2932  0.3865
  199SOL     OW  793   0.518   1.358   1.865 -0.0730  0.2415  0.2646
  199SOL    HW1  794   0.449   1.311   1.817 -0.6365 -0.1712  1.3251
  199SOL    HW2  795   0.561   1.418   1.802  1.3928 -2.5175  0.3966
  199SOL     MW  796   0.515   1.360   1.851  0.0460 -0.1770  0.4219
  200SOL     OW  797   1.856   0.005   1.331 -0.4137 -0.6613 -0.7268
  200SOL    HW1  798   1.844  -0.026   1.237 -0.7421 -0.3291 -0.1855
  200SOL    HW2  799   1.761   0.015   1.365 -1.9954 -1.1112  3.1435
  200SOL     MW  800   1.842   0.002   1.323 -0.6657 -0.6769 -0.1447
  201SOL     OW  801   0.957   0.207   0.839  0.5068  0.1503  0.3843
  201SOL    HW1  802   0.937   0.130   0.778  0.4826 -1.5527  0.4291
  201SOL    HW2  803   1.000   0.273   0.785 -2.3717 -3.1647 -0.1554
  201SOL     MW  804   0.960   0.206   0.824  0.1238 -0.5118  0.3190
  202SOL     OW  805   1.507   1.575   0.937  0.1388 -0.1965 -0.3702
  202SOL    HW1  806   1.557   1.498   0.911  1.0180 -2.1287 -1.2262
  202SOL    HW2  807   1.535   1.584   1.028  0.6014 -1.2229 -0.4244
  202SOL     MW  808   1.517   1.566   0.945  0.3159 -0.5868 -0.4903
  203SOL     OW  809   3.092   0.479   1.192 -0.4912  0.6202  1.3259
  203SOL    HW1  810   3.182   0.449   1.174  2.4133 -1.1836  0.5281
  203SOL    HW2  811   3.100   0.519   1.282 -2.7447  1.8602 -0.7392
  203SOL     MW  812   3.105   0.480   1.202 -0.4053  0.5458  0.9482
  204SOL     OW  813   1.059   1.768   0.593  0.3331 -0.7276  0.2418
  204SOL    HW1  814   1.053   1.697   0.661 -1.3515  0.0155 -1.3091
  204SOL    HW2  815   0.981   1.785   0.544  0.7248 -1.5068 -0.9728
  204SOL     MW  816   1.048   1.761   0.596  0.1625 -0.7324 -0.1231
  205SOL     OW  817   1.362   0.084   1.373  0.5115  0.2912 -0.0070
  205SOL    HW1  818   1.318   0.059   1.292  1.3715 -1.1507  0.0188
  205SOL    HW2  819   1.359   0.175   1.371  0.0681 -1.6849  0.9131
  205SOL     MW  820   1.355   0.092   1.362  0.5665 -0.1598  0.1178
  206SOL     OW  821   0.404   3.023   1.423 -0.4539 -0.1776  0.6923
  206SOL    HW1  822   0.363   3.036   1.332 -1.3206  0.2293 -1.0083
  206SOL    HW2  823   0.492   2.968   1.414  0.5760  0.3308 -1.4989
  206SOL     MW  824   0.411   3.018   1.409 -0.4323 -0.0568  0.1788
  207SOL     OW  825   0.915   1.478   0.205 -0.4121 -0.4261 -0.1064
  207SOL    HW1  826   0.902   1.572   0.188 -1.6198 -0.0030 -2.4422
  207SOL    HW2  827   1.012   1.459   0.201  1.0929  1.5603  0.6387
  207SOL     MW  828   0.926   1.488   0.202 -0.3729 -0.1082 -0.3163
  208SOL     OW  829   0.702   1.632   1.317 -0.1823  0.0236  0.1130
  208SOL    HW1  830   0.787   1.671   1.339 -0.0706  2.4394 -0.5264
  208SOL    HW2  831   0.710   1.538   1.334 -0.5127 -1.4599  1.2680
  208SOL     MW  832   0.714   1.625   1.322 -0.2111  0.1466  0.1810
  209SOL     OW  833   1.570   0.546   2.951  0.4846  0.1957  0.6213
  209SOL    HW1  834   1.608   0.632   2.926  0.5855 -0.2761  0.2649
  209SOL    HW2  835   1.638   0.485   2.930 -0.7304  4.0156 -0.6429
  209SOL     MW  836   1.584   0.549   2.945  0.3376  0.6374  0.4074
  210SOL     OW  837   1.582   1.350   0.801 -0.5093 -0.5769  0.0060
  210SOL    HW1  838   1.667   1.389   0.773  0.2322  0.7799 -0.1783
  210SOL    HW2  839   1.536   1.335   0.714  0.2931  1.1240  0.7690
  210SOL     MW  840   1.587   1.353   0.786 -0.3056 -0.1735  0.0824
  211SOL     OW  841   1.651   0.373   0.955  0.3831 -0.0190 -0.1201
  211SOL    HW1  842   1.645   0.356   0.864 -0.2746  0.2793  2.6485
  211SOL    HW2  843   1.740   0.412   0.966  0.7223 -1.7270 -1.9644
  211SOL     MW  844   1.662   0.376   0.945  0.3411 -0.2050  0.0019
  212SOL     OW  845   0.211   1.079   0.104  0.3290 -0.3026  0.4629
  212SOL    HW1  846   0.150   1.061   0.172  0.2855  0.1247 -2.1471
  212SOL    HW2  847   0.248   0.992   0.072 -0.7941  1.0294 -2.6953
  212SOL     MW  848   0.208   1.065   0.108  0.1751 -0.0705 -0.2982
  213SOL     OW  849   0.483   1.716   3.037  0.3843  0.8034 -0.2376
  213SOL    HW1  850   0.492   1.795   3.091  1.2201  0.3284  0.2054
  213SOL    HW2  851   0.519   1.742   2.944  1.7837  4.5998  0.5509
  213SOL     MW  852   0.489   1.730   3.032  0.6792  1.2416 -0.0751
  214SOL     OW  853   0.558   0.277   2.256 -0.0990 -0.6187  0.3793
  214SOL    HW1  854   0.498   0.346   2.225 -2.2655  1.8966 -0.0386
  214SOL    HW2  855   0.640   0.296   2.205  0.6509 -1.8460  0.3119
  214SOL     MW  856   0.561   0.289   2.245 -0.2859 -0.4488  0.3153
  215SOL     OW  857   0.525   0.700   2.663  0.6252 -0.1395  0.1339
  215SOL    HW1  858   0.504   0.686   2.571  1.4070 -1.9797 -0.8957
  215SOL    HW2  859   0.453   0.642   2.697 -2.4977  1.3352  1.7938
  215SOL     MW  860   0.513   0.691   2.655  0.3163 -0.1877  0.2171
  216SOL     OW  861   2.918   3.074   2.650 -0.3733 -0.2493 -0.2577
  216SOL    HW1  862   2.893   3.054   2.746 -0.8838 -1.5708  1.7761
  216SOL    HW2  863   2.921   3.175   2.629  1.2483  0.4512  0.2334
  216SOL     MW  864   2.915   3.085   2.660 -0.2267 -0.3312  0.0755
  217SOL     OW  865   0.932   1.167   0.069  0.3245 -0.4561 -0.1492
  217SOL    HW1  866   0.959   1.105   0.001  3.4542 -0.6901 -1.2561
  217SOL    HW2  867   0.983   1.250   0.059  1.5877 -0.3831  3.3573
  217SOL     MW  868   0.942   1.170   0.059  0.9041 -0.4773  0.1674
  218SOL     OW  869   0.946   1.346   2.522  0.8732  0.5808 -0.2233
  218SOL    HW1  870   0.978   1.257   2.518 -1.4672 -0.5810  0.8246
  218SOL    HW2  871   1.016   1.408   2.539  0.9972  0.7457 -1.1940
  218SOL     MW  872   0.960   1.342   2.523  0.5808  0.4493 -0.2131
  219SOL     OW  873   1.100   0.466   2.621 -0.1054 -0.0748  0.4493
  219SOL    HW1  874   1.153   0.495   2.696  2.3618  1.1264 -1.5518
  219SOL    HW2  875   1.031   0.528   2.625  0.2083 -0.8512  0.6348
  219SOL     MW  876   1.098   0.478   2.632  0.2615 -0.0188  0.2097
  220SOL     OW  877   1.753   0.457   2.232  0.1889  0.1514  0.2398
  220SOL    HW1  878   1.671   0.495   2.200 -1.4292  0.0390  2.3103
  220SOL    HW2  879   1.767   0.380   2.172 -2.2836 -1.1272 -3.7187
  220SOL     MW  880   1.744   0.452   2.220 -0.3508 -0.0321 -0.0093
  221SOL     OW  881   0.349   1.337   2.921  0.9401  0.0905  0.5555
  221SOL    HW1  882   0.378   1.249   2.916 -2.1756 -1.0101  1.3101
  221SOL    HW2  883   0.408   1.392   2.869  0.9026  0.3823 -0.4543
  221SOL     MW  884   0.360   1.333   2.913  0.5240 -0.0162  0.5218
  222SOL     OW  885   0.399   0.936   2.683  0.0529  0.3347  0.1724
  222SOL    HW1  886   0.376   0.964   2.590 -0.7357  0.3429  2.4930
  222SOL    HW2  887   0.451   0.855   2.686 -1.2538  2.5637 -1.2026
  222SOL     MW  888   0.403   0.929   2.671 -0.2235  0.6299  0.2971
  223SOL     OW  889   0.015   2.072   2.578  0.0050 -0.5069 -0.6632
  223SOL    HW1  890   0.068   2.001   2.623 -0.6942  1.2434  1.3608
  223SOL    HW2  891   0.075   2.144   2.561 -1.1154 -0.1153  3.3107
  223SOL     MW  892   0.030   2.072   2.582 -0.2351 -0.2243  0.1282
  224SOL     OW  893   1.544   0.819   2.596  0.0654 -0.2239  0.0383
  224SOL    HW1  894   1.576   0.869   2.666 -0.5467 -0.3903  0.5285
  224SOL    HW2  895   1.510   0.890   2.543  0.5904  0.9118 -1.9788
  224SOL     MW  896   1.544   0.835   2.598  0.0539 -0.0960 -0.1632
  225SOL     OW  897   2.946   1.497   2.308  0.6900 -0.1787 -0.0637
  225SOL    HW1  898   3.017   1.553   2.264  3.0900 -0.0251 -0.5921
  225SOL    HW2  899   2.897   1.553   2.370 -2.7813 -2.6396 -1.7977
  225SOL     MW  900   2.949   1.512   2.310  0.5487 -0.4831 -0.3622
  226SOL     OW  901   0.459   1.438   2.687 -0.1317  0.4020  0.3484
  226SOL    HW1  902   0.556   1.459   2.700  1.5339  1.4410 -0.6692
  226SOL    HW2  903   0.421   1.522   2.672  1.9886 -0.0843 -1.2582
  226SOL     MW  904   0.467   1.452   2.687  0.3679  0.4749  0.0022
  227SOL     OW  905   0.454   1.092   2.886  0.1221  0.2705  0.6721
  227SOL    HW1  906   0.539   1.103   2.845 -0.4178 -1.6816 -1.4205
  227SOL    HW2  907   0.418   1.033   2.823 -0.7853  0.4072  0.8344
  227SOL     MW  908   0.460   1.086   2.873 -0.0689  0.0310  0.4174
  228SOL     OW  909   0.711   0.976   2.065  0.0024 -0.7142 -0.1162
  228SOL    HW1  910   0.796   0.983   2.014 -1.9367  2.4654  1.4244
  228SOL    HW2  911   0.723   0.916   2.145  0.7416  0.0522  2.5727
  228SOL     MW  912   0.724   0.969   2.069 -0.1559 -0.1936  0.4419
  229SOL     OW  913   0.175   0.595   0.022  0.1513 -0.2837 -0.0946
  229SOL    HW1  914   0.129   0.542  -0.047  0.1020 -0.9635  1.0546
  229SOL    HW2  915   0.187   0.533   0.096  0.6265 -3.6007 -2.8547
  229SOL     MW  916   0.171   0.580   0.023  0.2075 -0.8110 -0.3071
  230SOL     OW  917   1.751   1.373   2.034 -0.5166 -0.4703  0.4222
  230SOL    HW1  918   1.708   1.343   2.114 -3.4642 -0.8449 -0.5527
  230SOL    HW2  919   1.817   1.307   2.012 -0.4995 -1.0720 -0.9182
  230SOL     MW  920   1.754   1.360   2.042 -0.9033 -0.5991  0.1167
  231SOL     OW  921   2.758   1.330   2.174 -0.2196 -0.1907 -0.1750
  231SOL    HW1  922   2.827   1.394   2.193 -3.3778 -1.1323  1.6367
  231SOL    HW2  923   2.683   1.386   2.136 -0.9144 -1.9867 -1.7533
  231SOL     MW  924   2.757   1.346   2.171 -0.7280 -0.5519 -0.1442
  232SOL     OW  925   2.247   0.820   2.096  0.2018  0.6477 -1.0606
  232SOL    HW1  926   2.180   0.857   2.039  1.8708 -1.9420  0.9331
  232SOL    HW2  927   2.214   0.838   2.186 -0.1806  0.0683 -0.3046
  232SOL     MW  928   2.234   0.828   2.100  0.3715  0.2296 -0.6978
  233SOL     OW  929   2.040   0.446   1.955  0.4972 -0.4670 -0.3088
  233SOL    HW1  930   2.097   0.371   1.933 -0.2631 -2.1583 -2.0688
  233SOL    HW2  931   2.070   0.484   2.044  0.2202  1.4247  1.5150
  233SOL     MW  932   2.052   0.441   1.964  0.3603 -0.4405 -0.3004
  234SOL     OW  933   0.286   1.014   2.448 -0.1308  0.1317 -0.0606
  234SOL    HW1  934   0.202   1.050   2.412 -0.2047  1.9666 -2.0749
  234SOL    HW2  935   0.359   1.080   2.434 -0.2590 -1.5034 -0.5337
  234SOL     MW  936   0.285   1.027   2.442 -0.1575  0.1580 -0.3888
  235SOL     OW  937   1.144   3.023   2.711  0.0608 -0.2572  0.0300
  235SOL    HW1  938   1.171   2.972   2.786 -2.0424  0.0568 -2.1789
  235SOL    HW2  939   1.092   3.093   2.750  0.1662 -0.6150 -2.2696
  235SOL     MW  940   1.141   3.025   2.726 -0.2028 -0.2630 -0.5648
  236SOL     OW  941   2.931   0.536   0.002 -0.3857  0.4514  0.1145
  236SOL    HW1  942   2.840   0.540  -0.015  2.3581  0.5520 -0.9814
  236SOL    HW2  943   2.956   0.628   0.017  0.5212 -0.9914  0.9493
  236SOL     MW  944   2.922   0.549   0.002  0.0960  0.2743  0.0801
  237SOL     OW  945   1.966   1.115   2.241  1.0500  0.4417 -0.0367
  237SOL    HW1  946   1.929   1.151   2.159 -0.2937 -1.3723 -4.0394
  237SOL    HW2  947   1.922   1.030   2.250  1.2317 -0.9217 -2.4014
  237SOL     MW  948   1.955   1.109   2.231  0.8967  0.0225 -0.8768
  238SOL     OW  949   1.070   1.789   2.994 -0.3202  0.5309  0.2040
  238SOL    HW1  950   1.028   1.707   2.973  0.6520  1.4622  1.8523
  238SOL    HW2  951   1.164   1.774   3.018 -0.5109 -2.2201  1.8087
  238SOL     MW  952   1.077   1.776   2.994 -0.2171  0.2908  0.6332
  239SOL     OW  953   1.246   1.357   2.361 -0.2676 -0.0233 -0.0914
  239SOL    HW1  954   1.239   1.417   2.440  1.2857  0.8054  0.3504
  239SOL    HW2  955   1.281   1.268   2.395  0.0368 -4.2212  2.4154
  239SOL     MW  956   1.250   1.353   2.376 -0.0225 -0.4679  0.2977
  240SOL     OW  957   0.737   0.823   2.288 -0.2583 -0.1712  0.4875
  240SOL    HW1  958   0.717   0.888   2.358  1.2765 -1.3606 -0.5687
  240SOL    HW2  959   0.823   0.784   2.298 -2.0084  0.8690  0.1986
  240SOL     MW  960   0.746   0.827   2.299 -0.2867 -0.1909  0.3100
  241SOL     OW  961   0.632   0.383  -0.001 -0.0737 -0.3448 -0.0786
  241SOL    HW1  962   0.666   0.442   0.067  0.9283 -1.0452 -0.3977
  241SOL    HW2  963   0.538   0.403  -0.018  1.3629 -0.0343 -0.9626
  241SOL     MW  964   0.624   0.394   0.006  0.2481 -0.3962 -0.2374
  242SOL     OW  965   1.500   1.681   2.370 -0.1466 -0.0786 -0.8529
  242SOL    HW1  966   1.471   1.779   2.371 -3.1364  3.5804  1.1297
  242SOL    HW2  967   1.432   1.640   2.314 -0.1503 -1.9019  1.4921
  242SOL     MW  968   1.487   1.689   2.363 -0.5416  0.1636 -0.2819
  243SOL     OW  969   1.040   0.246   2.483  0.1023  0.0595  0.2745
  243SOL    HW1  970   1.115   0.239   2.419  0.9560 -0.0796 -0.6417
  243SOL    HW2  971   1.064   0.334   2.525  2.8646 -0.4327  1.4679
  243SOL     MW  972   1.053   0.257   2.480  0.5794 -0.0238  0.3111
  244SOL     OW  973   0.247   0.764   2.353  0.0812  0.4583  0.3198
  244SOL    HW1  974   0.274   0.852   2.382 -0.1820  2.1894  0.4064
  244SOL    HW2  975   0.328   0.708   2.358  0.2119 -0.5330 -0.0300
  244SOL     MW  976   0.261   0.768   2.357  0.0637  0.5559  0.2851
  245SOL     OW  977   1.267   0.221   2.323 -0.2168 -0.3913 -0.1134
  245SOL    HW1  978   1.318   0.144   2.354  0.7424  2.0326  1.2957
  245SOL    HW2  979   1.308   0.306   2.358 -0.3906  3.0386  2.1425
  245SOL     MW  980   1.279   0.222   2.332 -0.1132  0.3811  0.3702
  246SOL     OW  981   1.187   1.189   2.137  0.2961 -0.3195 -0.4944
  246SOL    HW1  982   1.156   1.111   2.192 -0.7780 -1.4628  0.0337
  246SOL    HW2  983   1.209   1.247   2.201 -1.4408  1.2605 -0.8857
  246SOL     MW  984   1.186   1.186   2.152 -0.0748 -0.2619 -0.4764
  247SOL     OW  985   0.758   0.585   0.148 -0.2924 -0.1192  0.0349
  247SOL    HW1  986   0.708   0.656   0.107  0.4592  0.1912  3.9849
  247SOL    HW2  987   0.844   0.600   0.106 -0.3040  0.9313 -1.7566
  247SOL     MW  988   0.763   0.596   0.137 -0.1947  0.0603  0.3197
  248SOL     OW  989   0.468   1.231   2.463 -0.3605  0.6760  0.3129
  248SOL    HW1  990   0.447   1.282   2.386  1.3998  1.2622  1.3004
  248SOL    HW2  991   0.480   1.292   2.536 -1.3960  1.1973 -1.0589
  248SOL     MW  992   0.467   1.246   2.462 -0.2648  0.8221  0.2622
  249SOL     OW  993   0.167   1.854   2.714  0.0542  0.1213 -0.4397
  249SOL    HW1  994   0.121   1.780   2.670  3.1787  0.1942 -0.0098
  249SOL    HW2  995   0.166   1.843   2.812 -1.7737  0.2771  3.3995
  249SOL     MW  996   0.161   1.843   2.721  0.2253  0.1515  0.1235
  250SOL     OW  997   2.187   0.866   2.356  0.0942  0.2242 -0.5054
  250SOL    HW1  998   2.278   0.820   2.366  0.0467 -0.2356 -0.6024
  250SOL    HW2  999   2.206   0.959   2.347  1.8042  0.7939 -0.4263
  250SOL     MW 1000   2.202   0.872   2.356  0.3135  0.2387 -0.5078
  251SOL     OW 1001   0.137   0.898   2.017 -0.0627 -1.1599  0.0957
  251SOL    HW1 1002   0.143   0.847   2.098 -2.1652 -0.6178 -2.2751
  251SOL    HW2 1003   0.119   0.831   1.955  1.1601  1.5784 -3.5855
  251SOL     MW 1004   0.135   0.883   2.020 -0.1788 -0.7271 -0.7028
  252SOL     OW 1005   1.714   0.985   2.860 -0.0325 -0.1141 -0.1238
  252SOL    HW1 1006   1.727   1.047   2.933 -0.6980 -2.5130 -1.3461
  252SOL    HW2 1007   1.758   1.026   2.782 -1.9501  2.3260 -0.5339
  252SOL     MW 1008   1.722   0.998   2.859 -0.3733 -0.1087 -0.3392
  253SOL     OW 1009   1.231   1.784   2.552  0.1575  0.4384 -0.1104
  253SOL    HW1 1010   1.219   1.793   2.455  0.6433 -1.9053 -0.7749
  253SOL    HW2 1011   1.163   1.829   2.598  1.9863 -2.0980  1.5661
  253SOL     MW 1012   1.220   1.791   2.545  0.4628 -0.2055  0.0232
  254SOL     OW 1013   1.056   0.998   2.272  0.0048 -0.4551  0.3098
  254SOL    HW1 1014   1.030   0.910   2.246  1.3829 -0.5088 -1.5456
  254SOL    HW2 1015   0.973   1.041   2.284  2.0472 -1.7325 -1.0249
  254SOL     MW 1016   1.042   0.992   2.270  0.4561 -0.6307 -0.1111
  255SOL     OW 1017   0.791   2.585   2.192 -0.2518  0.2368 -0.9156
  255SOL    HW1 1018   0.720   2.529   2.223 -3.1804  1.1925 -1.6004
  255SOL    HW2 1019   0.880   2.550   2.217 -0.2458 -0.2460 -1.1729
  255SOL     MW 1020   0.793   2.573   2.199 -0.6374  0.2992 -1.0399
  256SOL     OW 1021   1.253   2.745   2.856  0.8192 -0.1158  0.4287
  256SOL    HW1 1022   1.225   2.655   2.888 -1.2518 -1.1183  1.6480
  256SOL    HW2 1023   1.343   2.765   2.845  0.1521 -1.8574  0.3956
  256SOL     MW 1024   1.261   2.736   2.859  0.4579 -0.4779  0.5852
  257SOL     OW 1025   0.089   1.921   0.093  0.2950 -0.2699 -0.0926
  257SOL    HW1 1026   0.125   1.888   0.173 -0.8374  0.6549  0.1325
  257SOL    HW2 1027   0.120   1.862   0.020 -0.4435  1.3789 -1.8607
  257SOL     MW 1028   0.098   1.909   0.094  0.0482  0.0697 -0.2962
  258SOL     OW 1029   0.678   1.009   2.458 -0.1361  0.0247  0.0533
  258SOL    HW1 1030   0.704   1.071   2.391  2.9271 -0.0175 -3.3281
  258SOL    HW2 1031   0.618   1.055   2.521  2.3351  1.2868  0.9070
  258SOL     MW 1032   0.674   1.024   2.457  0.5941  0.1857 -0.2802
  259SOL     OW 1033   0.761   0.449   2.383  0.0502 -0.1852  0.0831
  259SOL    HW1 1034   0.668   0.458   2.380 -0.0638 -1.9134  0.6094
  259SOL    HW2 1035   0.781   0.369   2.434  2.9680  0.5404  1.3718
  259SOL     MW 1036   0.752   0.440   2.389  0.4201 -0.3175  0.3226
  260SOL     OW 1037   0.507   0.145   1.604 -0.2619  0.2124 -0.2659
  260SOL    HW1 1038   0.441   0.077   1.587  0.6141  0.0037  1.1640
  260SOL    HW2 1039   0.553   0.151   1.528 -2.2786  0.6635  0.2201
  260SOL     MW 1040   0.504   0.137   1.591 -0.4124  0.2444 -0.0132
  261SOL     OW 1041   1.307   0.775   2.011  0.2767  0.6626 -0.3232
  261SOL    HW1 1042   1.301   0.774   2.109 -0.5429 -1.0542 -1.7319
  261SOL    HW2 1043   1.336   0.691   1.983 -1.4645 -1.3076 -0.5016
  261SOL     MW 1044   1.310   0.764   2.020 -0.0612  0.1762 -0.5326
  262SOL     OW 1045   1.083   0.318   0.174 -0.7889  0.2665  0.5479
  262SOL    HW1 1046   1.179   0.301   0.165 -1.5184  2.7868  0.2090
  262SOL    HW2 1047   1.033   0.255   0.122 -1.0641 -1.4439  1.2636
  262SOL     MW 1048   1.089   0.307   0.166 -0.9215  0.3733  0.5976
  263SOL     OW 1049   0.433   3.091   2.517  0.1187  0.2665  0.7709
  263SOL    HW1 1050   0.360   3.155   2.509  0.2215  0.0644 -1.4401
  263SOL    HW2 1051   0.463   3.096   2.424 -2.7865  2.4240 -0.0195
  263SOL     MW 1052   0.428   3.100   2.504 -0.2511  0.5245  0.3749
  264SOL     OW 1053   1.516   1.294   1.927 -0.0249  0.6573 -0.2120
  264SOL    HW1 1054   1.465   1.307   2.007 -1.6653 -0.1144  0.7351
  264SOL    HW2 1055   1.601   1.322   1.958 -1.8139 -1.2263 -0.7163
  264SOL     MW 1056   1.521   1.299   1.941 -0.4774  0.3070 -0.1536
  265SOL     OW 1057   0.680   2.802   2.284  0.1463  0.2184  0.4899
  265SOL    HW1 1058   0.735   2.730   2.241 -2.1382 -1.5650 -1.4738
  265SOL    HW2 1059   0.692   2.784   2.377  2.0335  0.0033 -2.5816
  265SOL     MW 1060   0.689   2.790   2.291  0.0939 -0.0453 -0.1744
  266SOL     OW 1061   0.997   0.731   2.227 -0.2264 -0.2115 -0.2138
  266SOL    HW1 1062   0.959   0.703   2.144 -1.1818  4.7753  0.8671
  266SOL    HW2 1063   1.095   0.735   2.222 -1.0612 -1.6184  1.9912
  266SOL     MW 1064   1.005   0.728   2.215 -0.4626  0.2608  0.2198
  267SOL     OW 1065   1.399   1.709   2.783  0.5212  0.6765  0.4460
  267SOL    HW1 1066   1.475   1.660   2.740 -0.3623 -0.5196 -2.4803
  267SOL    HW2 1067   1.347   1.740   2.707  0.1622 -1.0888  2.3303
  267SOL     MW 1068   1.402   1.706   2.767  0.3573  0.2858  0.3085
  268SOL     OW 1069   0.251   0.821   1.716 -0.8043 -0.3114 -0.9092
  268SOL    HW1 1070   0.180   0.864   1.674  0.6355 -2.1032  0.8106
  268SOL    HW2 1071   0.243   0.731   1.683 -1.3446  1.4130 -1.7235
  268SOL     MW 1072   0.240   0.814   1.706 -0.6856 -0.3203 -0.7897
  269SOL     OW 1073   1.406   1.952   2.351  0.7062  0.0309 -0.3055
  269SOL    HW1 1074   1.451   2.034   2.354  0.9331  1.0674  2.0327
  269SOL    HW2 1075   1.331   1.954   2.420 -2.6163 -1.5232  0.7271
  269SOL     MW 1076   1.402   1.963   2.361  0.2977 -0.0374  0.1392
  270SOL     OW 1077   1.157   0.379   1.615 -0.3699 -0.2211  0.5059
  270SOL    HW1 1078   1.126   0.295   1.657 -2.3960  1.7848  0.0876
  270SOL    HW2 1079   1.245   0.355   1.596 -1.1831  0.8099 -0.2632
  270SOL     MW 1080   1.164   0.365   1.618 -0.7446  0.1796  0.3492
  271SOL     OW 1081   0.894   0.025   2.520 -0.1245  0.0116  0.4935
  271SOL    HW1 1082   0.975  -0.020   2.551 -0.1449 -0.4930 -0.8006
  271SOL    HW2 1083   0.922   0.125   2.512 -1.2240  0.4266  1.4112
  271SOL     MW 1084   0.908   0.032   2.523 -0.2723 -0.0002  0.4439
  272SOL     OW 1085   1.490   2.900   2.771 -0.2112 -0.3345 -0.1923
  272SOL    HW1 1086   1.479   2.960   2.700 -0.4441 -0.0096  1.6033
  272SOL    HW2 1087   1.507   2.965   2.841  2.2285  2.4885  1.6897
  272SOL     MW 1088   1.491   2.917   2.771  0.0799  0.0809  0.2929
  273SOL     OW 1089   1.442   0.961   2.843  0.2027  0.1658 -0.1281
  273SOL    HW1 1090   1.534   0.971   2.856  0.2442  2.1413 -0.6939
  273SOL    HW2 1091   1.396   1.036   2.884  0.8906 -0.6622  1.6586
  273SOL     MW 1092   1.448   0.972   2.850  0.2989  0.3172  0.0330
  274SOL     OW 1093   1.478   0.725   0.162  0.1988 -0.2559 -0.4819
  274SOL    HW1 1094   1.502   0.639   0.132 -2.1811 -0.3837 -1.6124
  274SOL    HW2 1095   1.398   0.705   0.211  3.4309  2.4761  0.0966
  274SOL     MW 1096   1.471   0.711   0.165  0.3112  0.0877 -0.5548
  275SOL     OW 1097   1.720   0.613   1.814  0.3143 -1.1579 -0.2832
  275SOL    HW1 1098   1.804   0.654   1.852  0.3247  1.5034  2.9812
  275SOL    HW2 1099   1.733   0.520   1.819  1.3895 -0.3286 -1.0197
  275SOL     MW 1100   1.733   0.606   1.820  0.4576 -0.6974  0.0503
  276SOL     OW 1101   0.253   1.198   1.834  0.1046 -0.1982 -0.1069
  276SOL    HW1 1102   0.308   1.140   1.881 -0.2108  1.9001 -0.3751
  276SOL    HW2 1103   0.162   1.189   1.873 -1.5919 -0.0768 -0.4122
  276SOL     MW 1104   0.248   1.189   1.845 -0.1608  0.0947 -0.1826
  277SOL     OW 1105   1.877   1.269   2.430  0.0936  0.5051  0.0911
  277SOL    HW1 1106   1.945   1.323   2.475  1.6554 -6.2972  0.2624
  277SOL    HW2 1107   1.906   1.245   2.344 -2.2017  3.3223  0.1509
  277SOL     MW 1108   1.890   1.273   2.425 -0.0032 -0.0207  0.1216
  278SOL     OW 1109   1.468   0.611   1.706  0.1897 -0.0892  0.4289
  278SOL    HW1 1110   1.432   0.583   1.790 -0.6415 -1.7330 -0.1934
  278SOL    HW2 1111   1.561   0.616   1.726  2.6729  3.2247  0.0721
  278SOL     MW 1112   1.476   0.608   1.719  0.4077  0.1312  0.2997
  279SOL     OW 1113   0.529   0.013   2.258  0.6368 -0.5234 -0.4286
  279SOL    HW1 1114   0.625  -0.004   2.250  2.3146  2.8867  1.0313
  279SOL    HW2 1115   0.529   0.108   2.252 -0.9300  0.6450  0.7769
  279SOL     MW 1116   0.541   0.023   2.256  0.6514  0.0807 -0.0769
  280SOL     OW 1117   1.475   1.038   2.129 -0.3908 -0.1113 -0.2116
  280SOL    HW1 1118   1.527   0.967   2.085  1.4700 -0.8398  0.2987
  280SOL    HW2 1119   1.447   1.011   2.221  1.5448 -0.2368 -0.6835
  280SOL     MW 1120   1.478   1.025   2.135  0.1101 -0.2240 -0.2065
  281SOL     OW 1121   1.288   1.309   2.755 -0.0215  0.2432  0.6365
  281SOL    HW1 1122   1.380   1.304   2.762 -1.0105 -0.6055 -2.8545
  281SOL    HW2 1123   1.257   1.281   2.841  2.4281 -0.9199 -0.2167
  281SOL     MW 1124   1.296   1.305   2.768  0.1712 -0.0223  0.0633
  282SOL     OW 1125   1.154   1.272   1.637 -0.0621 -0.0988 -0.1974
  282SOL    HW1 1126   1.121   1.367   1.622 -3.6663  1.7307 -0.3162
  282SOL    HW2 1127   1.121   1.247   1.721  0.0255  1.2890  0.6016
  282SOL     MW 1128   1.145   1.282   1.646 -0.5261  0.3257 -0.1077
  283SOL     OW 1129   0.725   1.267   2.987  0.5474 -0.7043 -0.2629
  283SOL    HW1 1130   0.804   1.240   3.032  1.7473 -0.5056 -0.6627
  283SOL    HW2 1131   0.707   1.358   3.029  1.7256  0.2106  2.1121
  283SOL     MW 1132   0.733   1.275   2.999  0.8612 -0.5573 -0.0023
  284SOL     OW 1133   0.521   0.631   2.398  0.3920 -0.1263 -0.6543
  284SOL    HW1 1134   0.589   0.693   2.370 -0.5706  1.2335 -0.5051
  284SOL    HW2 1135   0.502   0.589   2.317  1.5267 -1.3093  0.7500
  284SOL     MW 1136   0.528   0.634   2.384  0.4147 -0.1030 -0.4493
  285SOL     OW 1137   0.855   0.927   2.813  0.1604  0.2533  0.1235
  285SOL    HW1 1138   0.910   0.943   2.730 -1.8222  2.4457 -2.9164
  285SOL    HW2 1139   0.821   0.838   2.804  0.7146 -1.9320 -1.3497
  285SOL     MW 1140   0.858   0.917   2.800 -0.0281  0.2543 -0.4719
  286SOL     OW 1141   1.164   1.501   2.583 -0.1621  0.1379  0.1391
  286SOL    HW1 1142   1.219   1.465   2.650 -2.8338 -1.6697  0.0385
  286SOL    HW2 1143   1.199   1.590   2.573  0.1573  0.3356  1.8968
  286SOL     MW 1144   1.176   1.508   2.591 -0.4725 -0.0745  0.3577
  287SOL     OW 1145   1.086   0.983   0.295  0.2508 -0.1175  0.2177
  287SOL    HW1 1146   1.105   1.004   0.384  3.5450  0.8176 -0.8375
  287SOL    HW2 1147   0.991   0.991   0.282  0.3962 -0.0329 -0.2379
  287SOL     MW 1148   1.076   0.987   0.305  0.7046  0.0171  0.0184
  288SOL     OW 1149   1.557   0.592   2.124 -0.1617  0.3336 -0.1945
  288SOL    HW1 1150   1.541   0.633   2.211 -3.0321 -1.9606  0.0185
  288SOL    HW2 1151   1.576   0.668   2.064 -1.7710  0.5360 -0.1814
  288SOL     MW 1152   1.558   0.608   2.128 -0.7527  0.0576 -0.1647
  289SOL     OW 1153   0.969   1.034   2.576  0.9786 -0.0437 -0.5053
  289SOL    HW1 1154   0.989   0.956   2.527 -1.8233 -0.5060  2.0002
  289SOL    HW2 1155   0.873   1.047   2.566 -0.3858  0.7544  1.0051
  289SOL     MW 1156   0.959   1.026   2.568  0.4289  0.0006  0.0245
  290SOL     OW 1157   0.876   0.621   1.557 -0.3260  1.2570 -0.1838
  290SOL    HW1 1158   0.921   0.556   1.499  0.4207 -0.0327 -0.9947
  290SOL    HW2 1159   0.920   0.603   1.644 -1.1315 -0.1972  0.1720
  290SOL     MW 1160   0.888   0.610   1.561 -0.3337  0.8949 -0.2438
  291SOL     OW 1161   0.195   0.323   0.150  0.0293  0.4372 -0.0479
  291SOL    HW1 1162   0.267   0.263   0.167  0.2240  1.5275  0.6951
  291SOL    HW2 1163   0.127   0.267   0.094 -0.9559 -1.5000  0.6747
  291SOL     MW 1164   0.196   0.308   0.145 -0.0750  0.3254  0.1455
  292SOL     OW 1165   1.025   0.581   0.083 -0.5893  0.1977 -0.2474
  292SOL    HW1 1166   1.093   0.637   0.132  0.4611 -0.9439  1.0846
  292SOL    HW2 1167   1.031   0.483   0.107 -1.9409  1.3782  1.6251
  292SOL     MW 1168   1.034   0.576   0.092 -0.6290  0.2028  0.1754
  293SOL     OW 1169   0.195   0.141   2.468 -0.9946  0.0287  0.1308
  293SOL    HW1 1170   0.110   0.113   2.433 -1.3988  2.6852 -0.3379
  293SOL    HW2 1171   0.178   0.154   2.565  0.1753 -0.7900  0.8080
  293SOL     MW 1172   0.181   0.139   2.476 -0.8936  0.2712  0.1583
  294SOL     OW 1173   1.519   0.642   2.384  0.6353 -0.2663  0.3205
  294SOL    HW1 1174   1.532   0.701   2.462 -1.8649  1.9416 -1.8386
  294SOL    HW2 1175   1.484   0.565   2.414  2.6289  0.7394 -2.1690
  294SOL     MW 1176   1.516   0.640   2.398  0.5684  0.1577 -0.2929
  295SOL     OW 1177   0.897   0.652   2.519 -0.6265 -0.8410  0.4026
  295SOL    HW1 1178   0.835   0.603   2.459  0.1948  2.6303  3.1734
  295SOL    HW2 1179   0.863   0.647   2.613  0.7446 -1.5192 -0.8692
  295SOL     MW 1180   0.884   0.645   2.524 -0.3372 -0.4725  0.6004
  296SOL     OW 1181   1.289   0.240   2.036  0.6418 -0.4139 -0.1051
  296SOL    HW1 1182   1.314   0.152   2.023 -0.6337  1.5752  0.8550
  296SOL    HW2 1183   1.290   0.233   2.130 -0.8012 -1.8402 -1.0970
  296SOL     MW 1184   1.293   0.228   2.047  0.2831 -0.3396 -0.1093
  297SOL     OW 1185   1.418   0.345   1.589 -0.4058  0.3749 -0.1229
  297SOL    HW1 1186   1.419   0.431   1.627 -1.6678 -0.6209 -2.8878
  297SOL    HW2 1187   1.507   0.313   1.609 -0.1497 -0.2260  0.8745
  297SOL     MW 1188   1.430   0.352   1.597 -0.5385  0.1642 -0.3561
  298SOL     OW 1189   1.627   0.869   1.997 -0.4647 -0.3465  0.2519
  298SOL    HW1 1190   1.581   0.896   1.911 -0.1213 -1.1431 -1.4774
  298SOL    HW2 1191   1.718   0.872   1.968 -0.1741  0.9652 -0.2853
  298SOL     MW 1192   1.633   0.873   1.982 -0.3810 -0.2786 -0.0471
  299SOL     OW 1193   0.534   1.045   0.037 -0.2891 -0.2164  0.0843
  299SOL    HW1 1194   0.607   1.104   0.025  1.0561  1.9294 -0.4892
  299SOL    HW2 1195   0.502   1.053  -0.055  2.2091  1.5695 -0.0125
  299SOL     MW 1196   0.539   1.054   0.023  0.2180  0.3023 -0.0042
  300SOL     OW 1197   1.242   1.132   2.504 -0.3616  0.2130  0.6640
  300SOL    HW1 1198   1.158   1.089   2.504 -0.6387 -2.9116 -0.6070
  300SOL    HW2 1199   1.251   1.184   2.588  2.4524  0.0101 -1.5532
  300SOL     MW 1200   1.232   1.133   2.515 -0.0269 -0.2261  0.2038
  301SOL     OW 1201   1.409   0.958   0.666  0.8789  0.4261 -0.0797
  301SOL    HW1 1202   1.448   0.997   0.742  0.1809 -0.5528 -2.6608
  301SOL    HW2 1203   1.348   0.892   0.708  0.0876  0.1272 -0.7970
  301SOL     MW 1204   1.406   0.955   0.682  0.6824  0.2575 -0.5149
  302SOL     OW 1205   0.129   1.477   2.012  0.3544  0.3453 -0.5665
  302SOL    HW1 1206   0.157   1.404   2.075 -2.7644 -0.7629 -0.5455
  302SOL    HW2 1207   0.098   1.551   2.075 -1.0520  2.3518 -0.9119
  302SOL     MW 1208   0.129   1.477   2.028 -0.2427  0.4638 -0.6093
  303SOL     OW 1209   0.378   1.700   2.639 -0.9828 -0.0954 -0.3647
  303SOL    HW1 1210   0.371   1.675   2.548 -0.6360 -1.4542  1.0929
  303SOL    HW2 1211   0.326   1.777   2.666  5.4445  0.6106 -1.3688
  303SOL     MW 1212   0.370   1.707   2.630 -0.0890 -0.1815 -0.3049
  304SOL     OW 1213   0.597   2.052   2.351 -0.7158  0.6437  0.0575
  304SOL    HW1 1214   0.651   2.124   2.314 -0.3856  3.4827  0.4292
  304SOL    HW2 1215   0.666   1.986   2.368  1.4269  2.0110  1.1745
  304SOL     MW 1216   0.613   2.053   2.348 -0.3895  1.1987  0.2539
  305SOL     OW 1217   1.100   0.579   0.510 -0.0957 -0.0110 -0.2755
  305SOL    HW1 1218   1.009   0.600   0.489 -0.8726  2.2471  0.7733
  305SOL    HW2 1219   1.098   0.502   0.559 -1.7321  2.3706  1.0042
  305SOL     MW 1220   1.088   0.571   0.514 -0.4141  0.6012  0.0317
  306SOL     OW 1221   1.230   1.481   0.264 -0.3858 -0.1591 -0.4340
  306SOL    HW1 1222   1.252   1.392   0.290  0.9533 -1.8224 -1.7763
  306SOL    HW2 1223   1.279   1.487   0.183 -3.6437  1.5985  3.2565
  306SOL     MW 1224   1.239   1.470   0.257 -0.6390 -0.1466 -0.1242
  307SOL     OW 1225   1.381   0.494   1.937 -0.7170 -0.2657 -0.2406
  307SOL    HW1 1226   1.336   0.407   1.935 -1.4529  0.1854 -0.7114
  307SOL    HW2 1227   1.442   0.511   2.007  0.0160 -1.1380 -0.6613
  307SOL     MW 1228   1.383   0.485   1.946 -0.7174 -0.3213 -0.3582
  308SOL     OW 1229   2.140   0.591   2.700 -0.0766 -0.3255 -0.3383
  308SOL    HW1 1230   2.231   0.551   2.713 -0.1201 -0.1033  0.9357
  308SOL    HW2 1231   2.150   0.681   2.682 -1.3661 -1.9077 -2.6077
  308SOL     MW 1232   2.153   0.597   2.700 -0.2525 -0.5049 -0.4696
  309SOL     OW 1233   0.405   0.370   0.400  0.2536  0.5300  0.0777
  309SOL    HW1 1234   0.496   0.354   0.423  0.4210 -0.2782 -0.6817
  309SOL    HW2 1235   0.394   0.330   0.314 -0.6920 -2.5037  1.1867
  309SOL     MW 1236   0.415   0.363   0.392  0.1509  0.0231  0.1239
  310SOL     OW 1237   0.514   0.617   1.938  0.1778 -0.0997  0.1246
  310SOL    HW1 1238   0.576   0.553   1.895  0.2213 -0.2761  1.0621
  310SOL    HW2 1239   0.557   0.704   1.912  0.5159 -2.5117  0.4161
  310SOL     MW 1240   0.528   0.620   1.929  0.2282 -0.4412  0.2867
  311SOL     OW 1241   1.944   0.709   1.940  0.2865  0.3247 -0.6843
  311SOL    HW1 1242   1.922   0.728   2.031 -1.3850  0.6427 -2.8617
  311SOL    HW2 1243   1.979   0.614   1.944  0.0556 -2.5171 -0.3859
  311SOL     MW 1244   1.946   0.699   1.952  0.0355 -0.0083 -0.9322
  312SOL     OW 1245   1.679   2.497   0.095  0.2407  0.5299  0.2590
  312SOL    HW1 1246   1.735   2.511   0.167 -1.9057 -1.1755 -0.7621
  312SOL    HW2 1247   1.597   2.528   0.126 -0.7667 -0.8227  3.1560
  312SOL     MW 1248   1.676   2.503   0.108 -0.1754  0.1264  0.5065
  313SOL     OW 1249   0.104   1.224   2.945 -0.5165 -0.2590  0.0956
  313SOL    HW1 1250   0.129   1.193   3.032 -0.9921 -0.1890  0.2757
  313SOL    HW2 1251   0.182   1.273   2.926  1.4296 -0.5376 -0.0696
  313SOL     MW 1252   0.118   1.226   2.954 -0.3225 -0.2865  0.0975
  314SOL     OW 1253   2.117   2.984   3.010  0.1562 -0.4694  0.2757
  314SOL    HW1 1254   2.070   3.030   2.939 -3.5826 -1.4577  0.7224
  314SOL    HW2 1255   2.187   3.039   3.056  0.5551  1.0223  2.7052
  314SOL     MW 1256   2.120   2.997   3.007 -0.2845 -0.4030  0.6552
  315SOL     OW 1257   1.528   1.926   0.008  0.2164  0.8302 -0.2746
  315SOL    HW1 1258   1.442   1.970   0.023 -0.0102  2.4825 -0.7353
  315SOL    HW2 1259   1.566   1.969  -0.068  1.0517  0.8706  2.1961
  315SOL     MW 1260   1.522   1.938   0.000  0.2967  1.0536 -0.0094
  316SOL     OW 1261   1.279   0.675   2.721 -0.2734  0.0601  0.3341
  316SOL    HW1 1262   1.368   0.706   2.698 -0.6302  2.1047 -0.5078
  316SOL    HW2 1263   1.277   0.689   2.819 -3.8110 -1.6961 -0.2922
  316SOL     MW 1264   1.290   0.681   2.731 -0.7872  0.0981  0.1404
  317SOL     OW 1265   0.723   1.511   2.565  0.1612 -0.2263  0.3473
  317SOL    HW1 1266   0.782   1.439   2.549 -2.1170 -1.1580  0.0185
  317SOL    HW2 1267   0.713   1.541   2.474 -0.8555 -1.4013  0.1478
  317SOL     MW 1268   0.729   1.506   2.551 -0.2735 -0.5042  0.2776
  318SOL     OW 1269   1.348   0.385   2.920  0.5450 -0.4376 -0.4146
  318SOL    HW1 1270   1.273   0.440   2.931 -2.1761  1.3532  0.4728
  318SOL    HW2 1271   1.419   0.446   2.940 -1.1421  0.6107  0.1977
  318SOL     MW 1272   1.348   0.400   2.924 -0.0366 -0.0630 -0.2167
  319SOL     OW 1273   0.777   0.402   2.843  0.3653  0.6602 -0.1466
  319SOL    HW1 1274   0.738   0.341   2.775 -0.5227  0.6609  0.0382
  319SOL    HW2 1275   0.723   0.382   2.923  0.8519 -0.4642 -0.0291
  319SOL     MW 1276   0.765   0.391   2.844  0.3124  0.5119 -0.1067
  320SOL     OW 1277   1.058   1.319   1.935  0.1296  0.0434  0.5738
  320SOL    HW1 1278   1.114   1.275   2.002  2.5735 -0.3644 -0.0175
  320SOL    HW2 1279   1.105   1.397   1.899  1.1838 -0.5639 -0.2685
  320SOL     MW 1280   1.072   1.324   1.939  0.5912 -0.0905  0.3846
  321SOL     OW 1281   1.034   0.938   3.007  0.0751 -0.6837 -0.0786
  321SOL    HW1 1282   0.983   0.940   2.923  1.1721  2.6596 -0.2211
  321SOL    HW2 1283   1.083   0.856   3.018  1.6225  0.3980 -2.2426
  321SOL     MW 1284   1.034   0.927   2.998  0.4240 -0.0999 -0.3829
  322SOL     OW 1285   1.266   0.822   1.709  0.1671  0.2071  0.4608
  322SOL    HW1 1286   1.340   0.757   1.708  1.0441  0.0856 -1.3229
  322SOL    HW2 1287   1.285   0.898   1.767  2.0080  2.3190 -1.6123
  322SOL     MW 1288   1.279   0.823   1.717  0.5257  0.4697 -0.0480
  323SOL     OW 1289   1.231   1.577   1.867  0.0585  0.6884 -0.1415
  323SOL    HW1 1290   1.269   1.582   1.780  3.0782  0.1768 -1.7370
  323SOL    HW2 1291   1.173   1.653   1.864  0.2537  0.7465 -1.2564
  323SOL     MW 1292   1.229   1.588   1.855  0.4826  0.6286 -0.4991
  324SOL     OW 1293   1.457   1.006   2.429  0.8898 -0.5023 -0.6385
  324SOL    HW1 1294   1.356   1.034   2.457  0.3842  1.7898  1.9937
  324SOL    HW2 1295   1.509   1.085   2.418  0.8414 -1.3738 -0.5569
  324SOL     MW 1296   1.451   1.020   2.431  0.8167 -0.3149 -0.2805
  325SOL     OW 1297   1.071   0.474   2.942 -0.5750 -0.4922 -0.1147
  325SOL    HW1 1298   1.079   0.532   3.018 -1.4478  1.1575  0.5137
  325SOL    HW2 1299   0.976   0.454   2.928  1.5426 -0.3411  3.4244
  325SOL     MW 1300   1.059   0.479   2.950 -0.4108 -0.2546  0.4351
  326SOL     OW 1301   0.449   1.360   2.169 -0.0467  0.3218  0.4383
  326SOL    HW1 1302   0.516   1.331   2.105 -0.1638  2.1097 -2.1658
  326SOL    HW2 1303   0.464   1.453   2.174 -4.0765 -0.7421 -0.7119
  326SOL     MW 1304   0.460   1.368   2.161 -0.5939  0.4173 -0.0570
  327SOL     OW 1305   1.924   0.824   2.450  0.3394 -0.2752 -0.5283
  327SOL    HW1 1306   1.893   0.774   2.525 -2.6275  0.0238  1.3451
  327SOL    HW2 1307   2.023   0.825   2.446  0.0182 -2.5431  1.1120
  327SOL     MW 1308   1.933   0.818   2.459 -0.0944 -0.5350 -0.0647
  328SOL     OW 1309   0.193   1.274   2.201 -0.5394 -0.4875  0.6847
  328SOL    HW1 1310   0.153   1.203   2.149 -0.0964 -2.4270 -1.9800
  328SOL    HW2 1311   0.285   1.282   2.168  1.1745 -0.0154 -0.2684
  328SOL     MW 1312   0.200   1.265   2.190 -0.2548 -0.6811  0.2074
  329SOL     OW 1313   0.110   0.078   1.348 -0.1411  0.6287 -0.0156
  329SOL    HW1 1314   0.078   0.098   1.433 -0.1346  0.2643  2.6695
  329SOL    HW2 1315   0.189   0.142   1.348  1.6113  2.0254  0.7037
  329SOL     MW 1316   0.116   0.089   1.359  0.0909  0.7649  0.4335
  330SOL     OW 1317   0.331   0.011   2.083  0.3494  0.2488 -0.1493
  330SOL    HW1 1318   0.388  -0.023   2.151  2.8952 -1.7444 -4.1713
  330SOL    HW2 1319   0.251  -0.032   2.085 -2.8016  0.6240  0.1259
  330SOL     MW 1320   0.328   0.001   2.092  0.2695  0.0353 -0.6437
  331SOL     OW 1321   0.840   1.204   2.288  0.2732 -0.2676  0.5251
  331SOL    HW1 1322   0.797   1.233   2.210  0.4651  0.2047  0.7187
  331SOL    HW2 1323   0.891   1.276   2.318  0.4949 -2.2464 -2.5234
  331SOL     MW 1324   0.841   1.218   2.282  0.3278 -0.4664  0.1484
  332SOL     OW 1325   1.359   1.715   3.046 -0.3470  0.1452  0.4236
  332SOL    HW1 1326   1.359   1.716   2.947 -1.9430  0.0019 -2.2769
  332SOL    HW2 1327   1.412   1.786   3.071 -1.1407  0.6567 -2.4135
  332SOL     MW 1328   1.366   1.725   3.036 -0.6623  0.1938 -0.3070
  333SOL     OW 1329   1.761   1.426   2.933 -0.0914 -0.2213 -0.2270
  333SOL    HW1 1330   1.859   1.433   2.949 -1.2298 -1.6125 -6.1188
  333SOL    HW2 1331   1.722   1.380   3.007 -2.2183  0.4873  2.7040
  333SOL     MW 1332   1.769   1.421   2.945 -0.5222 -0.3114 -0.6177
  334SOL     OW 1333   1.403  -0.003   2.603 -0.3374 -0.0471  0.8928
  334SOL    HW1 1334   1.311  -0.018   2.633 -0.3966  0.7316 -0.2876
  334SOL    HW2 1335   1.422   0.086   2.637  0.0273  0.7237  0.2206
  334SOL     MW 1336   1.393   0.007   2.611 -0.2971  0.1573  0.6484
  335SOL     OW 1337   1.279   0.761   2.978  0.7813  0.3744 -0.5816
  335SOL    HW1 1338   1.328   0.750   3.061  0.0815 -2.5199  0.3148
  335SOL    HW2 1339   1.323   0.831   2.931  0.0480  2.3635 -1.4610
  335SOL     MW 1340   1.291   0.769   2.983  0.5922  0.2550 -0.5793
  336SOL     OW 1341   0.953   1.064   1.936 -0.2848 -0.2845  0.3650
  336SOL    HW1 1342   0.962   1.161   1.924 -0.0740  1.0210 -0.9483
  336SOL    HW2 1343   1.045   1.032   1.944  0.2014 -2.3917  2.2326
  336SOL     MW 1344   0.966   1.073   1.936 -0.1928 -0.3903  0.4381
  337SOL     OW 1345   0.586   1.790   2.786 -0.2362  0.2187 -0.0620
  337SOL    HW1 1346   0.524   1.749   2.724 -1.7401 -0.1585 -0.9308
  337SOL    HW2 1347   0.673   1.743   2.780 -0.4843  2.5735  3.1772
  337SOL     MW 1348   0.590   1.778   2.777 -0.4673  0.4796  0.2508
  338SOL     OW 1349   1.129   0.792   2.527  0.2822  0.1779  0.0325
  338SOL    HW1 1350   1.046   0.740   2.505 -0.3299  0.3221 -0.8599
  338SOL    HW2 1351   1.173   0.739   2.601 -0.4865  0.4539  2.4393
  338SOL     MW 1352   1.124   0.778   2.534  0.1000  0.2333  0.2323
  339SOL     OW 1353   1.533   1.036   1.784 -0.3508 -0.4781 -0.5828
  339SOL    HW1 1354   1.466   1.051   1.708 -1.3103  2.2155 -0.1915
  339SOL    HW2 1355   1.497   1.090   1.855  1.1848 -0.3434 -0.5735
  339SOL     MW 1356   1.519   1.045   1.783 -0.2748 -0.1049 -0.5299
  340SOL     OW 1357   1.379   1.465   0.031 -0.0704  0.1997 -0.2003
  340SOL    HW1 1358   1.369   1.562   0.022 -0.0305 -0.4018  1.1902
  340SOL    HW2 1359   1.468   1.455   0.068 -1.6633  0.5225  1.1691
  340SOL     MW 1360   1.389   1.477   0.035 -0.2753  0.1629  0.1638
  341SOL     OW 1361   0.156   1.419   2.693  0.1259  0.5532 -0.1265
  341SOL    HW1 1362   0.244   1.386   2.716 -0.0421  0.5433 -0.7490
  341SOL    HW2 1363   0.119   1.354   2.637  2.2404  2.6522  0.6215
  341SOL     MW 1364   0.162   1.406   2.689  0.3827  0.8288 -0.1099
  342SOL     OW 1365   1.344   0.295   0.088 -0.5496  0.2266 -0.0912
  342SOL    HW1 1366   1.416   0.349   0.124 -0.8133 -2.2010  0.2723
  342SOL    HW2 1367   1.346   0.318  -0.006 -1.4317  0.5653  0.0462
  342SOL     MW 1368   1.353   0.305   0.081 -0.7008 -0.0490 -0.0251
  343SOL     OW 1369   0.229   0.322   2.172 -0.2379  0.2544 -0.4463
  343SOL    HW1 1370   0.222   0.275   2.251 -3.3477  0.1488 -0.8798
  343SOL    HW2 1371   0.195   0.268   2.101  0.4270  0.5246 -1.8268
  343SOL     MW 1372   0.224   0.308   2.173 -0.5605  0.2761 -0.6857
  344SOL     OW 1373   1.691   2.076   0.172 -0.1520  0.0007 -0.0388
  344SOL    HW1 1374   1.714   2.136   0.101  1.2327  0.1653  1.9378
  344SOL    HW2 1375   1.632   2.010   0.134 -0.7289 -2.8996 -0.2445
  344SOL     MW 1376   1.686   2.075   0.158 -0.0454 -0.3603  0.1949
  345SOL     OW 1377   0.746   1.620   2.324  0.4405 -0.7326  0.3735
  345SOL    HW1 1378   0.674   1.638   2.267  0.2744  1.2339 -1.2487
  345SOL    HW2 1379   0.804   1.580   2.255  1.4189 -3.7810 -0.6457
  345SOL     MW 1380   0.744   1.617   2.308  0.5476 -0.8754  0.0250
  346SOL     OW 1381   1.743   1.122  -0.002  0.5138 -0.2926 -0.4266
  346SOL    HW1 1382   1.839   1.121  -0.010 -0.0943 -0.0274  3.1609
  346SOL    HW2 1383   1.721   1.046   0.055  2.3431 -1.5412 -0.2752
  346SOL     MW 1384   1.753   1.112   0.005  0.6749 -0.4224  0.0668
  347SOL     OW 1385   1.290   0.770   2.282 -0.3742 -0.0152  0.1901
  347SOL    HW1 1386   1.370   0.749   2.334 -1.2882  0.8786 -1.4073
  347SOL    HW2 1387   1.243   0.819   2.346 -0.4617  2.1904 -0.4428
  347SOL     MW 1388   1.294   0.774   2.298 -0.5063  0.3937 -0.1042
  348SOL     OW 1389   1.412   2.617   1.861  0.3267  0.6842 -0.2372
  348SOL    HW1 1390   1.442   2.535   1.910  0.7089  0.2336  2.5829
  348SOL    HW2 1391   1.455   2.695   1.905  2.7263 -0.7283  0.2799
  348SOL     MW 1392   1.422   2.617   1.873  0.6938  0.4384  0.2031
  349SOL     OW 1393   1.483   0.249   2.694  1.1888 -0.0401  0.0746
  349SOL    HW1 1394   1.420   0.290   2.750  3.2471 -0.9781 -0.4433
  349SOL    HW2 1395   1.566   0.276   2.736 -0.7883  1.4576 -1.2676
  349SOL     MW 1396   1.485   0.258   2.707  1.1995  0.0338 -0.1709
  350SOL     OW 1397   1.858   0.636   2.660 -0.3533 -0.3900  0.1251
  350SOL    HW1 1398   1.811   0.557   2.643  0.7530 -0.3977  2.5268
  350SOL    HW2 1399   1.954   0.613   2.660  2.0466 -1.8522  3.5041
  350SOL     MW 1400   1.864   0.622   2.658  0.1093 -0.5839  0.8878
  351SOL     OW 1401   0.068   0.964   1.524  0.3300  0.3321 -0.4347
  351SOL    HW1 1402   0.004   0.994   1.589  1.2853 -1.2423  2.2378
  351SOL    HW2 1403   0.129   1.034   1.518 -0.3450 -0.0663  0.3606
  351SOL     MW 1404   0.068   0.977   1.532  0.3670  0.0718  0.0229
  352SOL     OW 1405   0.881   1.685   2.734  0.0899  0.4060  0.2175
  352SOL    HW1 1406   0.908   1.617   2.791  0.5825 -0.8426  0.5058
  352SOL    HW2 1407   0.837   1.628   2.671  0.2519 -0.0959  0.4817
  352SOL     MW 1408   0.879   1.668   2.733  0.1763  0.1750  0.2904
  353SOL     OW 1409   3.092   2.448   2.711 -0.3962  0.6373 -0.6302
  353SOL    HW1 1410   3.185   2.441   2.695  0.1474  0.9200  0.3515
  353SOL    HW2 1411   3.055   2.532   2.693  0.2225 -2.0250  1.9828
  353SOL     MW 1412   3.100   2.458   2.707 -0.2428  0.3233 -0.1559
  354SOL     OW 1413   0.342   2.509   0.837 -0.2591 -0.1521  0.1666
  354SOL    HW1 1414   0.339   2.511   0.933  1.7892  1.5954 -1.1226
  354SOL    HW2 1415   0.278   2.442   0.810 -1.6181  0.2131  1.1468
  354SOL     MW 1416   0.333   2.500   0.846 -0.1681  0.1266  0.1258
  355SOL     OW 1417   0.021   2.256   0.388 -0.0188  0.0720 -0.4851
  355SOL    HW1 1418  -0.050   2.192   0.382  1.4603  0.3896 -0.3632
  355SOL    HW2 1419   0.003   2.302   0.469 -1.2761 -0.3657 -2.2918
  355SOL     MW 1420   0.009   2.253   0.398  0.0105  0.0562 -0.7073
  356SOL     OW 1421   0.808   2.866   1.026 -0.6546  0.0481 -0.5293
  356SOL    HW1 1422   0.849   2.840   0.943 -1.0299  2.1830 -1.9147
  356SOL    HW2 1423   0.720   2.833   1.029  2.1118 -1.0113  0.2374
  356SOL     MW 1424   0.802   2.858   1.016 -0.3391  0.1900 -0.6109
  357SOL     OW 1425   1.806   2.941   0.420  0.0737 -0.1805  0.0959
  357SOL    HW1 1426   1.737   2.878   0.453 -0.2278  1.4716 -2.2109
  357SOL    HW2 1427   1.887   2.895   0.411 -2.7108  4.1281 -0.3854
  357SOL     MW 1428   1.808   2.927   0.423 -0.3335  0.6059 -0.2720
  358SOL     OW 1429   0.492   0.070   1.081  1.3036  0.4584  0.0194
  358SOL    HW1 1430   0.579   0.063   1.039  0.5619 -0.9013 -1.0038
  358SOL    HW2 1431   0.449   0.123   1.011  1.2436 -0.9868 -0.5876
  358SOL     MW 1432   0.498   0.076   1.066  1.1978  0.0883 -0.1957
  359SOL     OW 1433   0.879   2.880   1.833  0.0685  0.7038  0.5661
  359SOL    HW1 1434   0.876   2.796   1.883  0.8813  0.8933  0.3336
  359SOL    HW2 1435   0.962   2.890   1.774  0.3988 -0.6147 -1.1719
  359SOL     MW 1436   0.889   2.870   1.832  0.2193  0.5549  0.3061
  360SOL     OW 1437   0.557   2.788   1.003  0.1430 -0.9573 -0.1620
  360SOL    HW1 1438   0.552   2.750   0.909  0.2749 -0.3552 -0.8379
  360SOL    HW2 1439   0.537   2.713   1.059 -0.0297  1.4483  2.0767
  360SOL     MW 1440   0.554   2.773   0.998  0.1376 -0.5604  0.0442
  361SOL     OW 1441   0.196   2.700   1.329 -0.0688 -0.3059 -0.2615
  361SOL    HW1 1442   0.159   2.765   1.391 -0.6745 -2.7427 -0.3466
  361SOL    HW2 1443   0.287   2.682   1.365  1.3101  1.8465  0.7558
  361SOL     MW 1444   0.203   2.706   1.342  0.0332 -0.3435 -0.1385
  362SOL     OW 1445   1.476   2.422   0.658 -0.0393 -0.6486 -0.1521
  362SOL    HW1 1446   1.488   2.323   0.668  1.5571 -3.4659 -0.8469
  362SOL    HW2 1447   1.465   2.462   0.745 -0.0108  0.9544 -2.0021
  362SOL     MW 1448   1.476   2.414   0.671  0.1751 -0.8088 -0.4878
  363SOL     OW 1449   0.289   3.087   0.733 -0.1002  0.3779 -0.4214
  363SOL    HW1 1450   0.293   3.010   0.797  0.5795  1.0734  1.2745
  363SOL    HW2 1451   0.202   3.085   0.696 -0.4776  3.2343  0.0464
  363SOL     MW 1452   0.278   3.077   0.737 -0.0603  0.8466 -0.1359
  364SOL     OW 1453   0.716   0.184   0.236  0.6549 -0.0660 -0.0351
  364SOL    HW1 1454   0.693   0.098   0.266 -1.3182 -2.0322  1.4788
  364SOL    HW2 1455   0.647   0.211   0.178 -0.5120  1.6510  0.2831
  364SOL     MW 1456   0.704   0.176   0.233  0.2406 -0.0989  0.2066
  365SOL     OW 1457   0.966   1.935   1.091  0.0576  0.5797 -0.4582
  365SOL    HW1 1458   0.938   2.026   1.066  2.4745 -0.0240 -0.4692
  365SOL    HW2 1459   0.892   1.892   1.048  0.0130  0.4290 -2.5045
  365SOL     MW 1460   0.953   1.941   1.082  0.3706  0.4802 -0.7296
  366SOL     OW 1461   2.841   2.629   1.017 -0.2847  0.1111 -0.9642
  366SOL    HW1 1462   2.901   2.605   1.083  0.4791  0.7879  1.0458
  366SOL    HW2 1463   2.884   2.665   0.933  0.0236  1.7374 -0.3843
  366SOL     MW 1464   2.854   2.630   1.014 -0.1432  0.4149 -0.6225
  367SOL     OW 1465   1.256   2.886   0.918  0.1196  0.9502  0.1928
  367SOL    HW1 1466   1.203   2.908   0.999  0.1721  0.8740  0.3083
  367SOL    HW2 1467   1.207   2.824   0.863 -1.4156 -0.8714  1.3771
  367SOL     MW 1468   1.243   2.881   0.922 -0.0760  0.6998  0.3643
  368SOL     OW 1469   1.662   0.403   0.697 -0.4302 -0.1710  0.3183
  368SOL    HW1 1470   1.746   0.360   0.677 -1.6329 -2.7784  2.0917
  368SOL    HW2 1471   1.671   0.504   0.705  1.3110 -0.9324  0.3987
  368SOL     MW 1472   1.674   0.411   0.696 -0.3592 -0.6155  0.5628
  369SOL     OW 1473   0.177   2.489   1.649 -0.5771  0.1855 -0.2147
  369SOL    HW1 1474   0.259   2.474   1.699  1.7656 -0.4152 -0.2532
  369SOL    HW2 1475   0.130   2.557   1.694 -2.3414 -2.8561  0.2799
  369SOL     MW 1476   0.182   2.496   1.662 -0.5008 -0.2951 -0.1545
  370SOL     OW 1477   0.726   0.036   0.966  0.2581 -0.4341 -0.9396
  370SOL    HW1 1478   0.802   0.079   0.996 -0.6282 -0.2245 -1.9155
  370SOL    HW2 1479   0.742  -0.053   1.003 -2.5440 -1.3571  3.6797
  370SOL     MW 1480   0.738   0.030   0.975 -0.2285 -0.5282 -0.4589
  371SOL     OW 1481   1.349   2.973   1.530  0.2296 -0.4876  0.5022
  371SOL    HW1 1482   1.278   2.913   1.496 -0.8304  1.1539 -1.7770
  371SOL    HW2 1483   1.353   3.046   1.463  1.1040  1.6709 -0.4491
  371SOL     MW 1484   1.340   2.975   1.517  0.2051  0.0138  0.0759
  372SOL     OW 1485   0.738   2.340   0.473  0.1674 -0.2631  0.2162
  372SOL    HW1 1486   0.695   2.252   0.479 -2.4826  1.9675  0.6494
  372SOL    HW2 1487   0.789   2.319   0.393  1.8043 -2.1532 -0.0724
  372SOL     MW 1488   0.739   2.326   0.463  0.0337 -0.2182  0.2353
  373SOL     OW 1489   2.779   3.042   1.426 -0.2124  0.3094 -0.2117
  373SOL    HW1 1490   2.849   3.004   1.377 -1.5173  0.1614  0.0569
  373SOL    HW2 1491   2.743   3.100   1.360 -0.8291  0.7299 -0.1963
  373SOL     MW 1492   2.783   3.044   1.411 -0.4659  0.3453 -0.1742
  374SOL     OW 1493   1.541   0.454   0.189  0.5470 -0.5716  0.2679
  374SOL    HW1 1494   1.630   0.437   0.191  0.7361  1.1024 -1.5141
  374SOL    HW2 1495   1.517   0.452   0.283 -3.0760  0.3364 -0.3317
  374SOL     MW 1496   1.549   0.452   0.202  0.0939 -0.2309 -0.0464
  375SOL     OW 1497   1.105   2.062   2.274 -0.6844 -0.0556 -0.7642
  375SOL    HW1 1498   1.157   2.067   2.357  0.2678 -0.8120  2.0401
  375SOL    HW2 1499   1.145   1.990   2.223 -1.2926 -0.9722 -0.5069
  375SOL     MW 1500   1.117   2.053   2.279 -0.6390 -0.2764 -0.3602
  376SOL     OW 1501   0.643   2.544   0.069 -0.5909  0.6939  0.2710
  376SOL    HW1 1502   0.600   2.502   0.152 -2.2182 -1.2789  2.1296
  376SOL    HW2 1503   0.624   2.478   0.006 -1.2547  0.1478  2.5052
  376SOL     MW 1504   0.635   2.530   0.071 -0.8932  0.3615  0.8110
  377SOL     OW 1505   1.340   1.996   0.847 -0.4329  0.1419 -0.1972
  377SOL    HW1 1506   1.261   1.976   0.792  1.2722  0.6320 -4.5107
  377SOL    HW2 1507   1.320   1.954   0.930 -3.7586  2.6582  0.0207
  377SOL     MW 1508   1.327   1.988   0.851 -0.6467  0.5386 -0.7376
  378SOL     OW 1509   1.045   2.812   1.615  0.0119  0.1633  0.7984
  378SOL    HW1 1510   1.013   2.722   1.621  2.2251 -0.9816  1.7048
  378SOL    HW2 1511   1.004   2.852   1.537  2.1526 -1.4925 -1.2251
  378SOL     MW 1512   1.036   2.805   1.605  0.5864 -0.2062  0.6510
  379SOL     OW 1513   1.131   1.778   2.275  0.3525  0.0424 -0.4835
  379SOL    HW1 1514   1.037   1.787   2.287 -0.1333  0.2229 -0.9932
  379SOL    HW2 1515   1.151   1.687   2.269  0.4248  1.0407  1.1195
  379SOL     MW 1516   1.121   1.768   2.276  0.2980  0.1979 -0.3392
  380SOL     OW 1517   0.807   0.070   1.565 -0.2025 -0.1609  0.1254
  380SOL    HW1 1518   0.837   0.047   1.475  1.9432  0.7674 -2.3358
  380SOL    HW2 1519   0.882   0.100   1.616 -1.8235  1.5464 -0.5726
  380SOL     MW 1520   0.821   0.071   1.560 -0.1333  0.1869 -0.2914
  381SOL     OW 1521   0.806   1.990   0.787  0.0580 -0.1013  0.3292
  381SOL    HW1 1522   0.900   1.969   0.802  1.5760 -0.3071 -0.7850
  381SOL    HW2 1523   0.804   2.075   0.832  2.3435  0.3933 -1.0943
  381SOL     MW 1524   0.818   1.998   0.795  0.5598 -0.0632 -0.0056
  382SOL     OW 1525   0.631   0.108   0.695 -0.5123  0.5057 -0.0716
  382SOL    HW1 1526   0.635   0.084   0.783 -0.1194  1.0064 -1.2991
  382SOL    HW2 1527   0.594   0.025   0.653 -0.3064 -0.0937  0.6076
  382SOL     MW 1528   0.626   0.094   0.701 -0.4333  0.4927 -0.1439
  383SOL     OW 1529   0.562   3.081   0.345  0.2378 -0.3175 -0.2465
  383SOL    HW1 1530   0.592   3.029   0.268  1.8160  0.4103 -1.8305
  383SOL    HW2 1531   0.504   3.032   0.399  1.4890  0.1551 -1.1020
  383SOL     MW 1532   0.559   3.067   0.342  0.6111 -0.1591 -0.5684
  384SOL     OW 1533   0.643   2.940   0.629 -0.1486 -0.4575  0.5147
  384SOL    HW1 1534   0.705   2.896   0.681 -1.6794 -0.5668 -0.6282
  384SOL    HW2 1535   0.566   2.897   0.656  1.1837  1.8008 -0.1018
  384SOL     MW 1536   0.641   2.929   0.639 -0.1748 -0.1740  0.2825
  385SOL     OW 1537   1.312   2.059   1.497 -0.2948 -0.4597  0.6646
  385SOL    HW1 1538   1.383   2.074   1.557  1.8276  1.0449 -1.9979
  385SOL    HW2 1539   1.266   1.990   1.545  0.5226  0.4046 -0.5594
  385SOL     MW 1540   1.315   2.052   1.511  0.0931 -0.1471  0.1518
  386SOL     OW 1541   1.313   0.346   0.827 -0.0466 -0.1626 -0.4518
  386SOL    HW1 1542   1.256   0.337   0.754  0.1932  1.1837  3.2734
  386SOL    HW2 1543   1.269   0.301   0.900  1.9846 -0.6904  0.5498
  386SOL     MW 1544   1.300   0.339   0.827  0.2530 -0.0546  0.1718
  387SOL     OW 1545   0.880   2.153   1.471  0.3370 -0.3873 -0.2587
  387SOL    HW1 1546   0.967   2.185   1.442  0.7095  0.6297  1.7161
  387SOL    HW2 1547   0.869   2.071   1.418  1.0790 -0.0118 -0.4074
  387SOL     MW 1548   0.890   2.146   1.461  0.4841 -0.2036 -0.0178
  388SOL     OW 1549   1.548   2.792   1.202  0.6845  0.6096 -0.1231
  388SOL    HW1 1550   1.471   2.773   1.146 -0.1431  1.9540 -0.2078
  388SOL    HW2 1551   1.612   2.730   1.175  1.2080  1.3281  1.3226
  388SOL     MW 1552   1.546   2.781   1.191  0.6444  0.8818  0.0565
  389SOL     OW 1553   0.401   0.017   3.043  0.5221  0.6293  0.4072
  389SOL    HW1 1554   0.489   0.051   3.037  0.2267  2.0060 -1.5934
  389SOL    HW2 1555   0.360   0.063   2.964 -2.8918 -0.9990  0.1669
  389SOL     MW 1556   0.407   0.028   3.032  0.0327  0.5961  0.1115
  390SOL     OW 1557   1.301   0.098   0.651  0.5325  0.0341  0.0302
  390SOL    HW1 1558   1.384   0.094   0.598 -3.0591 -0.5232 -1.1444
  390SOL    HW2 1559   1.324   0.107   0.745  1.7297  0.5108  0.4234
  390SOL     MW 1560   1.315   0.099   0.656  0.2166  0.0234 -0.0729
  391SOL     OW 1561   0.293   2.224   1.364  0.6186  0.4344 -0.2879
  391SOL    HW1 1562   0.269   2.150   1.425 -1.6849 -3.8921  1.4324
  391SOL    HW2 1563   0.226   2.299   1.369 -0.5570  0.2916 -0.0286
  391SOL     MW 1564   0.281   2.224   1.373  0.1596 -0.1553 -0.0267
  392SOL     OW 1565   2.047   2.163   0.384 -0.7838  0.7521  0.1526
  392SOL    HW1 1566   2.139   2.162   0.413  0.7455  3.1931 -2.7601
  392SOL    HW2 1567   2.023   2.253   0.417 -0.2874 -0.3961 -0.7793
  392SOL     MW 1568   2.056   2.174   0.392 -0.5165  0.9226 -0.3546
  393SOL     OW 1569   0.167   3.015   2.738 -0.5104 -0.0411  0.7275
  393SOL    HW1 1570   0.253   3.049   2.715  1.1498  1.2504 -1.8314
  393SOL    HW2 1571   0.114   3.094   2.746 -0.5017  0.7722  2.2800
  393SOL     MW 1572   0.171   3.030   2.736 -0.2902  0.2366  0.5947
  394SOL     OW 1573   0.904   1.759   1.522  0.1287  0.5175 -0.2326
  394SOL    HW1 1574   0.835   1.764   1.588 -0.8216  2.5098  1.6976
  394SOL    HW2 1575   0.891   1.833   1.460  2.7357  0.6188 -0.2881
  394SOL     MW 1576   0.894   1.769   1.522  0.3473  0.7937  0.0148
  395SOL     OW 1577   1.030   2.798   2.608  0.6088 -0.0740 -0.7234
  395SOL    HW1 1578   1.076   2.877   2.645 -1.2298 -2.6127  1.7921
  395SOL    HW2 1579   1.099   2.741   2.574 -0.1961  2.0215  0.1304
  395SOL     MW 1580   1.045   2.801   2.609  0.2600 -0.1325 -0.2789
  396SOL     OW 1581   0.826   1.881   2.400  0.0348 -0.4315  0.6858
  396SOL    HW1 1582   0.888   1.892   2.477  0.6598  2.4426  0.7988
  396SOL    HW2 1583   0.793   1.792   2.407 -1.0255  0.8796 -1.8979
  396SOL     MW 1584   0.830   1.871   2.411 -0.0226  0.1207  0.3598
  397SOL     OW 1585   1.039   2.339   1.264 -0.4973 -0.1498 -0.1423
  397SOL    HW1 1586   1.088   2.399   1.200  1.8503  0.5460 -0.5751
  397SOL    HW2 1587   1.106   2.322   1.331 -0.0717  0.1051 -0.2861
  397SOL     MW 1588   1.054   2.344   1.264 -0.1314 -0.0243 -0.2184
  398SOL     OW 1589   0.557   2.688   0.764 -0.5192  0.4676 -0.1628
  398SOL    HW1 1590   0.489   2.628   0.761  0.2360  2.4771 -1.5854
  398SOL    HW2 1591   0.636   2.642   0.725  0.9356 -1.2887  0.8262
  398SOL     MW 1592   0.559   2.674   0.759 -0.2276  0.5010 -0.2200
  399SOL     OW 1593   0.239   2.102   0.401 -0.7623 -0.0904 -0.2676
  399SOL    HW1 1594   0.167   2.164   0.384 -0.6277 -2.9325 -2.3621
  399SOL    HW2 1595   0.320   2.124   0.347  3.3866  1.4236  1.5553
  399SOL     MW 1596   0.240   2.113   0.391 -0.1972 -0.2657 -0.3034
  400SOL     OW 1597   0.537   1.868   0.166 -0.2664  0.6447 -0.0211
  400SOL    HW1 1598   0.534   1.957   0.194 -2.6104  1.7788 -4.5706
  400SOL    HW2 1599   0.491   1.816   0.228 -1.3619 -1.5706 -0.8860
  400SOL     MW 1600   0.530   1.873   0.178 -0.7202  0.5020 -0.7354
  401SOL     OW 1601   0.868   2.052   0.133 -0.9010 -0.2800 -0.1211
  401SOL    HW1 1602   0.870   1.958   0.145  0.3944  1.3487 -1.2720
  401SOL    HW2 1603   0.850   2.088   0.213 -1.1645 -0.8311 -1.5533
  401SOL     MW 1604   0.866   2.044   0.145 -0.7648 -0.1378 -0.4619
  402SOL     OW 1605   0.652   2.966   1.703 -0.5581  0.6096  0.8994
  402SOL    HW1 1606   0.729   2.927   1.752  2.2693 -2.2319 -2.3719
  402SOL    HW2 1607   0.692   3.056   1.677  0.2814  2.3044  1.6076
  402SOL     MW 1608   0.667   2.973   1.706 -0.0743  0.4583  0.5613
  403SOL     OW 1609   0.097   0.412   0.399  0.0611  0.5703 -0.4206
  403SOL    HW1 1610   0.171   0.430   0.454 -2.0757 -1.0125 -0.5181
  403SOL    HW2 1611   0.124   0.387   0.307 -0.3077 -1.8498 -1.0676
  403SOL     MW 1612   0.110   0.411   0.394 -0.2695  0.0422 -0.5188
  404SOL     OW 1613   0.868   2.843   0.753 -0.5218  0.2098 -0.8486
  404SOL    HW1 1614   0.924   2.787   0.706 -0.8525  0.9000  0.8603
  404SOL    HW2 1615   0.896   2.935   0.734  1.7638  0.2456  2.4597
  404SOL     MW 1616   0.879   2.847   0.744 -0.2639  0.3056 -0.1866
  405SOL     OW 1617   0.492   2.374   1.496 -0.0156  0.0366 -0.2299
  405SOL    HW1 1618   0.471   2.461   1.457 -0.6864  0.8531 -0.9753
  405SOL    HW2 1619   0.446   2.299   1.447  0.9482  1.3488  0.3979
  405SOL     MW 1620   0.483   2.376   1.484  0.0231  0.3175 -0.2454
  406SOL     OW 1621   0.349   2.415   1.119  0.3420  0.1351 -0.7337
  406SOL    HW1 1622   0.254   2.422   1.126  1.0059 -0.3309 -0.9857
  406SOL    HW2 1623   0.363   2.321   1.101 -0.2033  1.0465 -0.0223
  406SOL     MW 1624   0.338   2.404   1.117  0.3577  0.1939 -0.6731
  407SOL     OW 1625   3.089   2.710   1.160 -0.4987 -0.2761  0.8602
  407SOL    HW1 1626   3.169   2.707   1.219  3.1132 -2.8399 -1.9980
  407SOL    HW2 1627   3.141   2.741   1.083  2.1097 -0.0539 -2.1353
  407SOL     MW 1628   3.106   2.714   1.157  0.3220 -0.5851  0.0878
  408SOL     OW 1629   2.091   2.064   0.786  1.1125 -0.2275  0.6314
  408SOL    HW1 1630   2.037   2.124   0.836 -1.0567 -0.5197 -1.2920
  408SOL    HW2 1631   2.029   2.028   0.716  2.2496 -1.3153 -1.4254
  408SOL     MW 1632   2.076   2.067   0.783  0.9763 -0.4096  0.1063
  409SOL     OW 1633   1.386   0.103   0.909  0.3617  0.0702  0.0817
  409SOL    HW1 1634   1.403   0.192   0.939  1.0228  1.5488  0.2448
  409SOL    HW2 1635   1.447   0.048   0.957  1.5726  1.8222 -0.1508
  409SOL     MW 1636   1.396   0.107   0.919  0.6087  0.4964  0.0725
  410SOL     OW 1637   1.161   2.460   1.046 -0.4886  0.5103 -0.0721
  410SOL    HW1 1638   1.095   2.499   0.995  0.5164 -1.6128 -0.0213
  410SOL    HW2 1639   1.199   2.384   1.003  4.2373  1.6536  0.6340
  410SOL     MW 1640   1.157   2.455   1.034  0.2675  0.3810  0.0278
  411SOL     OW 1641   1.941   0.010   2.838  0.2271  0.2119  0.0648
  411SOL    HW1 1642   1.871  -0.025   2.778 -0.0546 -1.9594 -0.4925
  411SOL    HW2 1643   1.895   0.043   2.918  0.8775  0.7355  0.6540
  411SOL     MW 1644   1.925   0.010   2.841  0.2758 -0.0055  0.0690
  412SOL     OW 1645   0.974   2.248   0.609 -0.0508  0.4355  0.6904
  412SOL    HW1 1646   1.020   2.333   0.604  1.2139 -2.3177  1.6010
  412SOL    HW2 1647   0.878   2.261   0.574 -1.6615 -0.2711 -0.2084
  412SOL     MW 1648   0.967   2.261   0.604 -0.0964 -0.0209  0.6920
  413SOL     OW 1649   0.528   2.769   3.063 -0.1506  0.2940 -0.3328
  413SOL    HW1 1650   0.593   2.701   3.101  1.0037  0.7935  1.0316
  413SOL    HW2 1651   0.574   2.827   3.008 -1.2850  1.4090  3.0414
  413SOL     MW 1652   0.542   2.767   3.061 -0.1480  0.5070  0.2924
  414SOL     OW 1653   1.934   2.966   1.078 -0.2882 -0.6639  0.0315
  414SOL    HW1 1654   1.877   2.958   0.998  2.1449  0.4658  0.7041
  414SOL    HW2 1655   2.015   2.916   1.059  2.7826 -0.1685 -1.3449
  414SOL     MW 1656   1.937   2.959   1.065  0.4380 -0.4495 -0.0614
  415SOL     OW 1657   1.720   2.553   1.147 -0.6913  0.3728  0.1776
  415SOL    HW1 1658   1.678   2.471   1.186  0.1604 -1.9739  2.9445
  415SOL    HW2 1659   1.764   2.605   1.214  2.1044 -1.7180  1.6447
  415SOL     MW 1660   1.720   2.549   1.161 -0.2100 -0.2127  0.7362
  416SOL     OW 1661   0.549   1.953   1.356  0.3976  0.1049  0.0643
  416SOL    HW1 1662   0.489   1.978   1.287  0.0779 -1.4670 -0.0883
  416SOL    HW2 1663   0.553   1.854   1.336 -0.8168 -1.1128  0.4124
  416SOL     MW 1664   0.541   1.943   1.344  0.1952 -0.2631  0.0901
  417SOL     OW 1665   0.993   3.021   2.054 -0.2260  0.1674 -0.0998
  417SOL    HW1 1666   0.932   3.025   2.125  4.2400  0.0925 -3.8340
  417SOL    HW2 1667   0.949   2.969   1.983 -0.0981  0.8755  0.4838
  417SOL     MW 1668   0.979   3.015   2.054  0.3801  0.2510 -0.5155
  418SOL     OW 1669   0.653   2.938   0.141  0.1313 -0.5127  0.0809
  418SOL    HW1 1670   0.746   2.939   0.110 -0.3576 -2.8430 -0.9303
  418SOL    HW2 1671   0.606   2.879   0.078  2.3495  0.9321 -0.8807
  418SOL     MW 1672   0.659   2.930   0.128  0.3595 -0.6295 -0.1794
  419SOL     OW 1673   0.451   2.636   1.410 -0.3610  0.3610  0.1159
  419SOL    HW1 1674   0.516   2.707   1.429  3.9512  0.0274 -1.7709
  419SOL    HW2 1675   0.488   2.608   1.331  1.5178 -1.3467 -1.5046
  419SOL     MW 1676   0.465   2.642   1.402  0.4558  0.0916 -0.3469
  420SOL     OW 1677   0.882   2.197   0.987  0.1014  0.0000  0.4949
  420SOL    HW1 1678   0.818   2.196   1.058 -1.2271 -1.3635 -0.3011
  420SOL    HW2 1679   0.895   2.291   0.966  1.4142  2.1627 -2.4876
  420SOL     MW 1680   0.875   2.209   0.994  0.0993  0.1055 -0.0036
  421SOL     OW 1681   2.948   0.059   0.016  0.0857  0.0850 -0.2496
  421SOL    HW1 1682   2.893   0.049  -0.061  0.5019 -1.1493 -1.1868
  421SOL    HW2 1683   2.968  -0.024   0.055 -0.9969  0.8234 -0.5972
  421SOL     MW 1684   2.943   0.047   0.011 -0.0022  0.0196 -0.4192
  422SOL     OW 1685   0.901   2.472   0.895 -0.0831  0.6203 -0.0798
  422SOL    HW1 1686   0.864   2.536   0.953  1.0875  0.8710 -0.3726
  422SOL    HW2 1687   0.853   2.490   0.820 -0.0962  1.6878 -0.4966
  422SOL     MW 1688   0.890   2.483   0.893  0.0696  0.7942 -0.1734
  423SOL     OW 1689   1.529   0.130   0.487  0.0723 -0.2995  0.2578
  423SOL    HW1 1690   1.524   0.116   0.392 -0.6684  2.3427 -1.1744
  423SOL    HW2 1691   1.508   0.224   0.491 -1.7107  2.7159  2.3404
  423SOL     MW 1692   1.526   0.141   0.475 -0.2607  0.4470  0.3436
  424SOL     OW 1693   0.660   2.259   1.188  0.2104  0.2783 -0.1833
  424SOL    HW1 1694   0.583   2.198   1.168  3.1515 -0.3745 -1.9760
  424SOL    HW2 1695   0.681   2.245   1.276 -1.0264 -1.9270 -2.1168
  424SOL     MW 1696   0.653   2.249   1.197  0.4353 -0.0988 -0.6749
  425SOL     OW 1697   1.722   2.859   1.963  0.0757 -0.1095  0.3161
  425SOL    HW1 1698   1.746   2.866   1.871  0.4013 -0.9587 -0.2978
  425SOL    HW2 1699   1.764   2.775   1.979  0.3533 -0.9939  2.2085
  425SOL     MW 1700   1.731   2.849   1.953  0.1553 -0.3382  0.4848
  426SOL     OW 1701   0.824   1.679   1.935  0.3390  0.4186 -0.0800
  426SOL    HW1 1702   0.781   1.706   1.849 -2.6037 -1.4925 -0.4433
  426SOL    HW2 1703   0.794   1.754   1.997 -0.0269  2.8970  2.9006
  426SOL     MW 1704   0.814   1.693   1.932 -0.0976  0.4935  0.2653
  427SOL     OW 1705   0.350   1.575   1.893  0.2931  0.3235  0.1141
  427SOL    HW1 1706   0.403   1.496   1.866 -0.8116  0.6826 -2.3083
  427SOL    HW2 1707   0.267   1.538   1.929  0.1893  2.1423 -2.1377
  427SOL     MW 1708   0.346   1.560   1.894  0.1337  0.6108 -0.5027
  428SOL     OW 1709   0.578   2.572   1.166  0.0065 -0.1611  0.4343
  428SOL    HW1 1710   0.654   2.545   1.215  1.0545  1.1727 -2.1620
  428SOL    HW2 1711   0.516   2.498   1.155 -0.8262  1.8440 -2.5364
  428SOL     MW 1712   0.580   2.559   1.171  0.0349  0.2794 -0.3002
  429SOL     OW 1713   1.319   2.673   1.069  0.1350  0.2016  0.1183
  429SOL    HW1 1714   1.258   2.602   1.057 -1.6821  1.2734 -0.1633
  429SOL    HW2 1715   1.274   2.745   1.025  0.2629  2.0242  1.5068
  429SOL     MW 1716   1.305   2.673   1.062 -0.0879  0.5835  0.2644
  430SOL     OW 1717   1.184   2.728   0.700 -0.0440 -0.4083  0.1987
  430SOL    HW1 1718   1.189   2.632   0.697  0.2014 -0.2663  0.8766
  430SOL    HW2 1719   1.160   2.749   0.608 -0.6753  1.2741 -2.0539
  430SOL     MW 1720   1.181   2.718   0.687 -0.0949 -0.1676 -0.0091
  431SOL     OW 1721   0.298   1.878   1.109  0.0914 -0.2635 -0.1184
  431SOL    HW1 1722   0.377   1.820   1.090 -2.2975 -0.0322 -0.5805
  431SOL    HW2 1723   0.276   1.920   1.022 -2.3321  0.8136  0.0020
  431SOL     MW 1724   0.306   1.876   1.095 -0.5435 -0.0909 -0.1635
  432SOL     OW 1725   0.050   0.036   1.083  0.6041 -0.9328 -0.2921
  432SOL    HW1 1726   0.065   0.060   1.178 -1.6061 -0.9888 -0.6229
  432SOL    HW2 1727  -0.039   0.007   1.078 -0.7237 -0.1914  1.6117
  432SOL     MW 1728   0.040   0.036   1.095  0.1373 -0.8423 -0.0845
  433SOL     OW 1729   0.618   2.833   1.471  0.1809 -0.6373  0.0770
  433SOL    HW1 1730   0.628   2.871   1.560  0.1566  2.1773  0.3767
  433SOL    HW2 1731   0.704   2.851   1.425  0.5622 -0.9867  0.7032
  433SOL     MW 1732   0.631   2.840   1.477  0.2280 -0.3120  0.1991
  434SOL     OW 1733   1.579   2.832   1.469 -0.1550 -0.8417  0.3757
  434SOL    HW1 1734   1.487   2.868   1.492  1.8770  0.9929  0.9357
  434SOL    HW2 1735   1.589   2.836   1.376  0.4657  0.6299 -0.5733
  434SOL     MW 1736   1.568   2.838   1.460  0.1950 -0.4055  0.3244
  435SOL     OW 1737   2.815   1.820   0.193 -0.5567 -0.4436  0.5588
  435SOL    HW1 1738   2.840   1.908   0.173  0.2878  1.0510  0.4627
  435SOL    HW2 1739   2.827   1.776   0.109 -0.0265  0.4800  1.4456
  435SOL     MW 1740   2.820   1.826   0.179 -0.3753 -0.1245  0.6632
  436SOL     OW 1741   1.294   2.807   0.321  0.2669  0.5018  0.4682
  436SOL    HW1 1742   1.362   2.783   0.382  0.5996  1.9147 -1.3027
  436SOL    HW2 1743   1.271   2.894   0.342  0.1079 -2.1221 -0.4705
  436SOL     MW 1744   1.300   2.815   0.332  0.2898  0.3420  0.1107
  437SOL     OW 1745   0.893   2.874   1.399 -0.3800 -0.0479  0.3864
  437SOL    HW1 1746   0.899   2.956   1.349 -0.7186  1.8764  2.8985
  437SOL    HW2 1747   0.917   2.804   1.336  1.9005  2.0251 -0.0905
  437SOL     MW 1748   0.897   2.875   1.384 -0.1238  0.4795  0.6549
  438SOL     OW 1749   0.864   2.612   1.940 -0.3958  0.3796  0.1388
  438SOL    HW1 1750   0.822   2.619   2.024  1.1613  3.1937 -3.2573
  438SOL    HW2 1751   0.810   2.581   1.868  0.3051  2.0070 -0.2782
  438SOL     MW 1752   0.852   2.609   1.942 -0.0979  0.9656 -0.3643
  439SOL     OW 1753   1.076   2.141   0.386  0.3698  0.2594  0.2017
  439SOL    HW1 1754   1.030   2.184   0.458 -0.8475  1.4720  1.7420
  439SOL    HW2 1755   1.112   2.218   0.345 -0.6530 -1.3867  0.0793
  439SOL     MW 1756   1.074   2.157   0.390  0.0742  0.2022  0.3888
  440SOL     OW 1757   1.681   2.977   3.075  0.0110  0.9620  0.0470
  440SOL    HW1 1758   1.616   2.965   3.139  0.3011 -1.1140  0.7508
  440SOL    HW2 1759   1.746   2.909   3.106  3.8265 -1.0471 -0.2231
  440SOL     MW 1760   1.681   2.967   3.088  0.5527  0.4230  0.1042
  441SOL     OW 1761   0.361   2.650   0.494 -0.1247 -0.1532 -0.2168
  441SOL    HW1 1762   0.327   2.634   0.410  3.8484 -1.9643 -0.7647
  441SOL    HW2 1763   0.378   2.749   0.504  0.4373  3.2296  0.2216
  441SOL     MW 1764   0.359   2.661   0.484  0.4737  0.0542 -0.2313
  442SOL     OW 1765   3.070   2.350   0.631  0.2339  0.5399  0.5319
  442SOL    HW1 1766   3.100   2.442   0.617 -1.1749 -1.9866  1.6525
  442SOL    HW2 1767   2.982   2.353   0.671  2.4850 -0.8735 -0.2058
  442SOL     MW 1768   3.062   2.363   0.634  0.3450  0.0200  0.5824
  443SOL     OW 1769   1.419   1.782   1.932 -0.3459  0.6470  0.7268
  443SOL    HW1 1770   1.389   1.838   1.865  2.1920 -0.4258  0.7792
  443SOL    HW2 1771   1.357   1.704   1.937  2.2895 -0.4062 -0.8013
  443SOL     MW 1772   1.407   1.779   1.924  0.3367  0.3665  0.5321
  444SOL     OW 1773   0.910   2.570   1.583 -0.5352 -0.0172  0.2326
  444SOL    HW1 1774   0.978   2.510   1.614 -0.0141 -0.8215 -1.2671
  444SOL    HW2 1775   0.831   2.546   1.630 -0.5087 -1.0604 -3.8198
  444SOL     MW 1776   0.909   2.559   1.593 -0.4630 -0.2609 -0.4999
  445SOL     OW 1777   0.918   0.022   1.262 -0.4721 -0.7592  0.3436
  445SOL    HW1 1778   0.895   0.114   1.285  1.5788  0.1730  0.3538
  445SOL    HW2 1779   0.986   0.016   1.200 -0.4195  0.0301  0.0881
  445SOL     MW 1780   0.924   0.033   1.257 -0.1945 -0.5320  0.3112
  446SOL     OW 1781   2.675   2.849   1.076 -0.1483  0.1876 -0.0467
  446SOL    HW1 1782   2.655   2.898   0.992 -0.1921 -1.7236 -0.3306
  446SOL    HW2 1783   2.731   2.772   1.052  1.5809  1.1205  1.9604
  446SOL     MW 1784   2.680   2.845   1.061  0.0741  0.0585  0.1807
  447SOL     OW 1785   3.097   2.055   1.681  0.3231 -0.2898 -0.0585
  447SOL    HW1 1786   3.165   2.021   1.742  0.6554  2.3806  2.7235
  447SOL    HW2 1787   3.048   1.973   1.651 -1.4179  0.2615  1.1656
  447SOL     MW 1788   3.099   2.040   1.685  0.1372  0.1353  0.4700
  448SOL     OW 1789   1.746   2.376   1.709  0.0760  0.2378 -0.0583
  448SOL    HW1 1790   1.669   2.319   1.710  2.6229  0.5558 -1.1570
  448SOL    HW2 1791   1.701   2.458   1.693 -0.7355  2.3632  0.1099
  448SOL     MW 1792   1.730   2.379   1.707  0.3050  0.5602 -0.1811
  449SOL     OW 1793   0.757   2.851   0.408 -0.2874 -0.3385 -0.1902
  449SOL    HW1 1794   0.701   2.834   0.333  2.0719 -1.9434  0.0156
  449SOL    HW2 1795   0.709   2.879   0.488  0.4422  3.5439  1.2445
  449SOL     MW 1796   0.743   2.852   0.409  0.1201 -0.0380  0.0263
  450SOL     OW 1797   1.196   2.436   0.671  0.3356 -0.2302 -0.1769
  450SOL    HW1 1798   1.208   2.363   0.734 -1.6657 -0.7745  1.2445
  450SOL    HW2 1799   1.287   2.434   0.645 -0.1074  0.3259 -1.1242
  450SOL     MW 1800   1.210   2.426   0.676  0.0131 -0.2287 -0.1143
  451SOL     OW 1801   0.571   2.009   1.655 -1.0081 -0.4790 -0.0002
  451SOL    HW1 1802   0.646   2.073   1.663  0.5548 -0.3029 -1.9579
  451SOL    HW2 1803   0.558   2.007   1.560 -1.3517 -0.7506 -0.2684
  451SOL     MW 1804   0.579   2.017   1.643 -0.8472 -0.4916 -0.2939
  452SOL     OW 1805   0.257   2.717   0.026 -0.0887  0.2009 -0.1767
  452SOL    HW1 1806   0.338   2.742  -0.018  0.2132  0.2821  0.5469
  452SOL    HW2 1807   0.193   2.770  -0.036  0.9826  0.2472 -3.0939
  452SOL     MW 1808   0.260   2.727   0.012  0.0925  0.2177 -0.4661
  453SOL     OW 1809   0.359   2.973   1.704  0.0290 -0.9794 -0.2723
  453SOL    HW1 1810   0.454   2.972   1.723 -1.7558  1.5750  0.3112
  453SOL    HW2 1811   0.359   2.991   1.607 -2.6406 -0.3441 -2.0584
  453SOL     MW 1812   0.372   2.975   1.694 -0.5587 -0.5586 -0.4310
  454SOL     OW 1813   0.950   2.711   1.187  0.0588  0.6397 -0.5792
  454SOL    HW1 1814   0.898   2.635   1.227  0.8707  1.0493  0.2017
  454SOL    HW2 1815   0.887   2.772   1.141 -1.4665 -0.3188 -2.7406
  454SOL     MW 1816   0.935   2.709   1.186 -0.0353  0.5673 -0.7614
  455SOL     OW 1817   1.540   2.916   0.196  0.2356 -0.2231  0.5431
  455SOL    HW1 1818   1.603   2.907   0.263 -0.3888  0.3762  0.9244
  455SOL    HW2 1819   1.506   2.830   0.175 -0.7421 -0.9820  0.7369
  455SOL     MW 1820   1.544   2.903   0.202  0.0242 -0.2442  0.6190
  456SOL     OW 1821   2.888   0.326   1.344  0.0565 -0.4028  0.6577
  456SOL    HW1 1822   2.828   0.262   1.290 -1.9739 -1.6551  1.4529
  456SOL    HW2 1823   2.954   0.345   1.279 -2.1408 -0.6538  0.4108
  456SOL     MW 1824   2.888   0.320   1.328 -0.5013 -0.6011  0.7301
  457SOL     OW 1825   0.963   1.546   2.944  0.3196 -0.2177 -0.3677
  457SOL    HW1 1826   0.882   1.555   2.994 -0.4147 -1.2356 -4.2106
  457SOL    HW2 1827   1.021   1.482   2.991  1.8063 -3.6573 -2.5241
  457SOL     MW 1828   0.960   1.539   2.957  0.4189 -0.8059 -1.1592
  458SOL     OW 1829   1.474   1.394   0.560  0.0704 -0.0916 -0.0958
  458SOL    HW1 1830   1.403   1.425   0.617 -0.9370 -0.9756  0.3785
  458SOL    HW2 1831   1.425   1.350   0.493  1.6673 -0.6661  2.0165
  458SOL     MW 1832   1.458   1.392   0.559  0.1482 -0.2840  0.2455
  459SOL     OW 1833   1.489   0.110   0.219 -0.2501 -0.0782  0.0056
  459SOL    HW1 1834   1.480   0.012   0.204 -0.4171 -1.2012 -0.9225
  459SOL    HW2 1835   1.424   0.154   0.163 -0.1026 -2.9272 -1.3229
  459SOL     MW 1836   1.479   0.103   0.209 -0.2527 -0.6023 -0.2921
  460SOL     OW 1837   1.791   2.165   0.662 -0.5290 -0.5598 -0.5096
  460SOL    HW1 1838   1.693   2.151   0.679 -0.5823  0.2955 -1.3786
  460SOL    HW2 1839   1.824   2.082   0.621  1.8230  0.0476  1.5474
  460SOL     MW 1840   1.782   2.152   0.659 -0.2257 -0.3668 -0.3529
  461SOL     OW 1841   0.482   2.428   0.618 -0.9575  0.4746  0.1051
  461SOL    HW1 1842   0.450   2.510   0.577 -1.5711  0.4431  0.6190
  461SOL    HW2 1843   0.470   2.442   0.713  0.9341  1.9315  0.9479
  461SOL     MW 1844   0.476   2.441   0.625 -0.7889  0.6627  0.2841
  462SOL     OW 1845   0.369   0.231   1.254  0.2594  0.8115  0.0373
  462SOL    HW1 1846   0.439   0.172   1.213 -1.5716 -1.5839  0.3667
  462SOL    HW2 1847   0.433   0.284   1.306  2.6394  2.7041  3.9027
  462SOL     MW 1848   0.387   0.230   1.255  0.3319  0.7452  0.5908
  463SOL     OW 1849   0.886   3.098   0.681 -0.4073 -0.1298  0.1959
  463SOL    HW1 1850   0.909   3.085   0.584 -0.6069  2.2538 -0.9332
  463SOL    HW2 1851   0.791   3.128   0.675  0.6690  0.1513 -0.4114
  463SOL     MW 1852   0.876   3.101   0.668 -0.2916  0.2218 -0.0332
  464SOL     OW 1853   0.815   3.031   2.262  0.3781  0.1935  0.0032
  464SOL    HW1 1854   0.787   2.941   2.281  2.3760 -0.6013  0.7095
  464SOL    HW2 1855   0.856   3.060   2.338  2.1364  0.9979 -2.3586
  464SOL     MW 1856   0.816   3.023   2.275  0.8737  0.1948 -0.2152
  465SOL     OW 1857   0.662   0.325   0.484 -0.1727 -0.6969  0.1122
  465SOL    HW1 1858   0.651   0.287   0.573  2.8382  0.3148  0.9750
  465SOL    HW2 1859   0.645   0.246   0.428 -0.2160 -0.8835  0.5704
  465SOL     MW 1860   0.658   0.309   0.488  0.2188 -0.5881  0.2865
  466SOL     OW 1861   1.087   2.021   0.720  0.0320  0.0443 -0.3706
  466SOL    HW1 1862   1.080   1.960   0.653 -1.1669 -0.2422  1.4409
  466SOL    HW2 1863   1.034   2.098   0.688 -0.4064 -1.6334 -0.0538
  466SOL     MW 1864   1.079   2.023   0.707 -0.1841 -0.2149 -0.0898
  467SOL     OW 1865   1.281   2.261   0.874  0.1314 -0.0361 -0.5801
  467SOL    HW1 1866   1.373   2.289   0.886 -2.4735  0.4941  0.6241
  467SOL    HW2 1867   1.294   2.166   0.864 -0.9695 -0.0271  0.1329
  467SOL     MW 1868   1.295   2.252   0.875 -0.3575  0.0350 -0.3272
  468SOL     OW 1869   0.363   2.589   1.977 -0.0420  0.4142 -0.0253
  468SOL    HW1 1870   0.389   2.519   1.918  1.7032  0.5350 -0.8592
  468SOL    HW2 1871   0.356   2.676   1.933  1.5143  0.3265 -3.2537
  468SOL     MW 1872   0.365   2.591   1.963  0.3936  0.4186 -0.5613
  469SOL     OW 1873   0.367   2.144   1.780  0.0764  0.2537  0.3260
  469SOL    HW1 1874   0.296   2.087   1.807 -2.3145 -0.0012 -0.8962
  469SOL    HW2 1875   0.428   2.084   1.732  0.0172  1.0128 -0.1516
  469SOL     MW 1876   0.366   2.129   1.777 -0.2468  0.3202  0.1017
  470SOL     OW 1877   3.025   2.548   0.100  0.0995 -0.4689  0.2243
  470SOL    HW1 1878   2.958   2.490   0.142 -1.1427 -2.1478  0.1290
  470SOL    HW2 1879   2.991   2.564   0.013 -1.2545 -1.0909 -0.2281
  470SOL     MW 1880   3.012   2.542   0.094 -0.2430 -0.7725  0.1520
  471SOL     OW 1881   1.223   2.736   1.417 -0.6934 -0.1499 -0.0986
  471SOL    HW1 1882   1.169   2.720   1.495 -0.7280  0.3450  1.3824
  471SOL    HW2 1883   1.164   2.749   1.343  1.1825 -2.3464 -0.1488
  471SOL     MW 1884   1.208   2.736   1.417 -0.4505 -0.3744  0.0902
  472SOL     OW 1885   2.925   2.065   0.402  0.9172  0.4729 -0.2112
  472SOL    HW1 1886   2.935   2.062   0.308 -2.4914 -0.8869  1.4971
  472SOL    HW2 1887   2.902   1.976   0.430 -2.5752  0.3650 -1.6596
  472SOL     MW 1888   2.923   2.053   0.394  0.0067  0.2792 -0.1769
  473SOL     OW 1889   0.840   2.525   1.322  0.2718 -0.3082 -0.4207
  473SOL    HW1 1890   0.912   2.466   1.298 -1.4784  1.3546  2.3298
  473SOL    HW2 1891   0.840   2.533   1.415 -1.4681  2.4846  0.5039
  473SOL     MW 1892   0.850   2.518   1.331 -0.1887  0.2797  0.0642
  474SOL     OW 1893   0.764   2.243   1.713 -0.2868 -0.8372  0.2921
  474SOL    HW1 1894   0.853   2.252   1.753  0.3915 -2.6226  3.2335
  474SOL    HW2 1895   0.792   2.222   1.617  0.3166 -0.0219  2.4364
  474SOL     MW 1896   0.779   2.241   1.706 -0.1177 -0.9652  0.9631
  475SOL     OW 1897   1.622   0.037   1.453 -0.3477  0.2765 -0.7236
  475SOL    HW1 1898   1.543   0.058   1.406  1.1465 -2.4372 -0.1406
  475SOL    HW2 1899   1.622  -0.063   1.459  0.1036 -1.6373 -2.0694
  475SOL     MW 1900   1.612   0.026   1.448 -0.0910 -0.3341 -0.8243
  476SOL     OW 1901   1.489   2.608   0.874 -0.1955 -0.0193  0.6170
  476SOL    HW1 1902   1.430   2.635   0.944  0.9015 -1.7379  1.1374
  476SOL    HW2 1903   1.493   2.689   0.828 -0.2879 -0.4056 -2.2694
  476SOL     MW 1904   1.482   2.622   0.877 -0.0629 -0.2970  0.3048
  477SOL     OW 1905   0.784   2.563   0.647 -0.1194  0.4650 -0.2749
  477SOL    HW1 1906   0.844   2.604   0.581 -1.3098 -1.9106 -2.8864
  477SOL    HW2 1907   0.750   2.495   0.591  0.6840  0.6299  1.5259
  477SOL     MW 1908   0.788   2.559   0.631 -0.1704  0.1733 -0.3819
  478SOL     OW 1909   0.137   2.680   0.902 -0.2820  0.4591  0.0540
  478SOL    HW1 1910   0.212   2.731   0.923 -0.1783 -0.8029 -1.4181
  478SOL    HW2 1911   0.177   2.607   0.858 -0.0873 -3.9828 -1.4339
  478SOL     MW 1912   0.152   2.677   0.899 -0.2426 -0.2935 -0.3365
  479SOL     OW 1913   1.423   1.934   1.270 -0.0740 -0.5127  0.0759
  479SOL    HW1 1914   1.383   1.961   1.352 -0.0779 -0.9717 -1.7871
  479SOL    HW2 1915   1.508   1.906   1.292  0.6757 -0.6736  1.3571
  479SOL     MW 1916   1.429   1.934   1.284  0.0244 -0.5945 -0.0009
  480SOL     OW 1917   1.852   2.394   1.384  0.7679 -0.2969  0.3263
  480SOL    HW1 1918   1.875   2.304   1.404  0.3802 -2.1803 -3.4820
  480SOL    HW2 1919   1.906   2.419   1.314  0.3571  0.7386  0.5781
  480SOL     MW 1920   1.862   2.385   1.377  0.6625 -0.4088 -0.1429
  481SOL     OW 1921   1.197   0.046   1.152  0.2533 -0.6839  0.0458
  481SOL    HW1 1922   1.236   0.011   1.072  2.6559 -1.3082  0.1098
  481SOL    HW2 1923   1.183   0.143   1.150 -1.8908  0.5853  0.7104
  481SOL     MW 1924   1.201   0.054   1.141  0.2874 -0.5988  0.1419
  482SOL     OW 1925   0.925   3.082   0.424  0.2792 -0.3295  0.0034
  482SOL    HW1 1926   0.848   3.026   0.420  1.1684 -2.7204  0.8438
  482SOL    HW2 1927   0.908   3.173   0.396 -1.3660 -0.0928 -0.3356
  482SOL     MW 1928   0.913   3.087   0.420  0.1795 -0.6138  0.0696
  483SOL     OW 1929   0.347   2.931   0.508 -0.4359  0.1191 -0.2932
  483SOL    HW1 1930   0.271   2.921   0.453  0.0290 -1.2015  1.4304
  483SOL    HW2 1931   0.329   2.992   0.580 -0.6661  1.4293  1.3203
  483SOL     MW 1932   0.334   2.937   0.510 -0.4049  0.1177  0.1471
  484SOL     OW 1933   1.676   1.858   1.362 -0.3829 -0.2922 -0.1543
  484SOL    HW1 1934   1.738   1.925   1.388 -0.1060  0.7787  0.7317
  484SOL    HW2 1935   1.622   1.842   1.439  0.5270  1.4176  0.1162
  484SOL     MW 1936   1.677   1.865   1.375 -0.2263  0.0747 -0.0017
  485SOL     OW 1937   0.535   2.384   0.285  0.1262 -0.1262 -0.1366
  485SOL    HW1 1938   0.541   2.415   0.382 -0.5060 -1.0510 -2.2480
  485SOL    HW2 1939   0.443   2.417   0.271  1.5473 -2.8284  1.4814
  485SOL     MW 1940   0.523   2.392   0.296  0.2303 -0.6048 -0.2017
  486SOL     OW 1941   0.116   2.442   1.391  0.2353 -0.1598 -0.0128
  486SOL    HW1 1942   0.160   2.518   1.353 -0.3789 -1.2011  1.2414
  486SOL    HW2 1943   0.137   2.463   1.486  3.1557 -1.4878  2.0376
  486SOL     MW 1944   0.124   2.455   1.398  0.5396 -0.4724  0.4232
  487SOL     OW 1945   1.275   1.596   1.097 -0.0412 -0.4028  0.1812
  487SOL    HW1 1946   1.256   1.689   1.073 -0.7541  1.2968 -1.2141
  487SOL    HW2 1947   1.330   1.556   1.022 -0.4152 -2.6215 -2.1759
  487SOL     MW 1948   1.280   1.603   1.084 -0.1846 -0.4713 -0.3139
  488SOL     OW 1949   1.626   1.850   0.560  0.3786 -0.0946 -0.3765
  488SOL    HW1 1950   1.710   1.878   0.529  0.1257  0.2781  1.2435
  488SOL    HW2 1951   1.566   1.906   0.511  0.3630  2.2943  0.8331
  488SOL     MW 1952   1.629   1.861   0.549  0.3432  0.2698 -0.0031
  489SOL     OW 1953   0.734   0.773   0.551 -0.3494  0.0274  0.3654
  489SOL    HW1 1954   0.763   0.683   0.520 -3.0946  0.2333 -0.0249
  489SOL    HW2 1955   0.727   0.761   0.647 -0.5939  2.1432  0.4336
  489SOL     MW 1956   0.737   0.760   0.560 -0.7438  0.3337  0.3229
  490SOL     OW 1957   1.408   2.108   0.480 -0.2826 -0.2258  0.0189
  490SOL    HW1 1958   1.459   2.176   0.427 -0.5099 -0.5916 -0.8693
  490SOL    HW2 1959   1.317   2.123   0.477 -0.3375  0.9714 -0.4866
  490SOL     MW 1960   1.403   2.119   0.473 -0.3198 -0.1161 -0.1650
  491SOL     OW 1961   1.201   3.023   0.478  0.1553 -0.1553 -0.1026
  491SOL    HW1 1962   1.219   3.095   0.542 -4.0123  0.3015  1.1987
  491SOL    HW2 1963   1.103   3.027   0.478 -0.9178 -0.8822 -1.4129
  491SOL     MW 1964   1.190   3.033   0.486 -0.5361 -0.1909 -0.1038
  492SOL     OW 1965   1.528   2.162   0.699  0.3952  0.6378 -0.1879
  492SOL    HW1 1966   1.478   2.145   0.614 -1.9458 -1.6175  1.4898
  492SOL    HW2 1967   1.476   2.123   0.773 -0.8649 -0.2651 -0.9245
  492SOL     MW 1968   1.515   2.154   0.698 -0.0799  0.2211 -0.0637
  493SOL     OW 1969   0.116   2.898   0.376 -0.2308 -0.0684 -0.0528
  493SOL    HW1 1970   0.071   2.954   0.436  2.1621  0.4100 -0.4681
  493SOL    HW2 1971   0.130   2.951   0.298 -0.2709 -1.6963  0.5712
  493SOL     MW 1972   0.112   2.912   0.374  0.0796 -0.2201 -0.0253
  494SOL     OW 1973   0.404   2.410   1.765 -0.0771 -0.3739 -0.2911
  494SOL    HW1 1974   0.373   2.317   1.798  1.6893 -0.0777 -0.2085
  494SOL    HW2 1975   0.444   2.391   1.677  0.6189  0.5782 -1.9357
  494SOL     MW 1976   0.405   2.395   1.758  0.2478 -0.2092 -0.4972
  495SOL     OW 1977   2.869   1.675   2.723  0.2005  0.5483  0.0325
  495SOL    HW1 1978   2.849   1.768   2.755 -2.0058  1.4545 -2.1353
  495SOL    HW2 1979   2.893   1.610   2.795 -0.8347  0.2142  0.8217
  495SOL     MW 1980   2.869   1.679   2.736 -0.2272  0.6238 -0.1494
  496SOL     OW 1981   2.861   2.314   2.632  0.2433 -0.4412 -0.1897
  496SOL    HW1 1982   2.857   2.220   2.640  1.7093  0.7546  1.1674
  496SOL    HW2 1983   2.944   2.325   2.673 -0.7663 -1.9285  0.9471
  496SOL     MW 1984   2.872   2.303   2.638  0.3035 -0.4797  0.1394
  497SOL     OW 1985   1.533   2.288   2.579  0.0515 -0.7265  0.6839
  497SOL    HW1 1986   1.501   2.265   2.492  1.0346  0.3505 -0.6784
  497SOL    HW2 1987   1.488   2.233   2.637 -1.7517  0.2513  0.4748
  497SOL     MW 1988   1.523   2.278   2.575 -0.0567 -0.4554  0.4766
  498SOL     OW 1989   1.543   2.696   2.287 -0.3509 -0.1430  0.2850
  498SOL    HW1 1990   1.554   2.606   2.271  2.8257 -0.3464  0.7750
  498SOL    HW2 1991   1.621   2.712   2.334  1.1105 -3.2578 -1.1540
  498SOL     MW 1992   1.555   2.686   2.291  0.2610 -0.5808  0.1598
  499SOL     OW 1993   0.899   0.174   0.015 -0.2971 -0.3663  0.3354
  499SOL    HW1 1994   0.828   0.186   0.079 -1.8123 -0.8278  0.5130
  499SOL    HW2 1995   0.919   0.079   0.019 -0.7796  4.2997  2.2778
  499SOL     MW 1996   0.892   0.163   0.024 -0.5607  0.1884  0.6151
  500SOL     OW 1997   1.016   2.420   2.804  0.0820 -0.3267  0.0905
  500SOL    HW1 1998   1.070   2.429   2.886  2.7187  1.4251 -0.6327
  500SOL    HW2 1999   0.966   2.503   2.810  0.2077  1.1057 -1.2080
  500SOL     MW 2000   1.017   2.432   2.815  0.4465  0.0934 -0.1763
  501SOL     OW 2001   1.746   2.266   3.076  0.0966  0.0692  0.0005
  501SOL    HW1 2002   1.697   2.344   3.107 -0.8845  0.8507 -1.9451
  501SOL    HW2 2003   1.834   2.265   3.120 -0.9355  2.3941 -0.8999
  501SOL     MW 2004   1.751   2.276   3.086 -0.1690  0.4790 -0.3750
  502SOL     OW 2005   0.110   2.854   2.948 -0.0435  1.1617  0.0119
  502SOL    HW1 2006   0.030   2.799   2.926 -1.4022  2.1222 -0.9083
  502SOL    HW2 2007   0.128   2.896   2.867 -0.3390  1.2292  2.1827
  502SOL     MW 2008   0.102   2.852   2.934 -0.2618  1.2974  0.1769
  503SOL     OW 2009   1.155   2.606   2.048 -0.0244 -0.3467 -0.3350
  503SOL    HW1 2010   1.231   2.629   1.994  4.4274 -0.8159 -0.8460
  503SOL    HW2 2011   1.079   2.646   2.003  0.3693  0.9702  1.3956
  503SOL     MW 2012   1.155   2.614   2.035  0.6149 -0.2348 -0.1741
  504SOL     OW 2013   0.089   2.648   2.054 -0.1759 -0.1864  0.3482
  504SOL    HW1 2014   0.182   2.648   2.032  0.0423  0.3754  0.3107
  504SOL    HW2 2015   0.077   2.557   2.084  1.5214 -0.9927 -1.1699
  504SOL     MW 2016   0.100   2.636   2.055  0.0768 -0.2187  0.1429
  505SOL     OW 2017   1.645   2.675   2.741  0.0328  0.3325  0.1957
  505SOL    HW1 2018   1.684   2.663   2.653  0.8007 -0.6500  1.3886
  505SOL    HW2 2019   1.610   2.766   2.741  0.8134  0.8514 -1.1783
  505SOL     MW 2020   1.646   2.685   2.730  0.2371  0.2714  0.1718
  506SOL     OW 2021   1.635   0.044   2.857 -0.4869 -0.1035  0.3235
  506SOL    HW1 2022   1.652  -0.007   2.940  0.0176  2.5541  0.1366
  506SOL    HW2 2023   1.669  -0.007   2.779  2.2004 -1.0687 -0.9896
  506SOL     MW 2024   1.642   0.031   2.858 -0.0658  0.1198  0.1256
  507SOL     OW 2025   0.926   2.686   2.852  0.1184 -0.4342 -0.1558
  507SOL    HW1 2026   0.953   2.735   2.771  0.1095  2.5255  1.2948
  507SOL    HW2 2027   0.832   2.675   2.844  0.9907  0.8311 -1.9718
  507SOL     MW 2028   0.917   2.691   2.841  0.2323  0.1233 -0.2040
  508SOL     OW 2029   1.243   2.100   2.522 -0.1472  0.0889 -0.0568
  508SOL    HW1 2030   1.297   2.095   2.601  0.2869  2.6676  0.1079
  508SOL    HW2 2031   1.194   2.187   2.530  1.3349 -3.4590  0.0681
  508SOL     MW 2032   1.244   2.111   2.533  0.1056 -0.0390 -0.0186
  509SOL     OW 2033   0.676   2.593   2.792  0.5790  0.1378  0.3248
  509SOL    HW1 2034   0.686   2.542   2.715 -2.0122 -0.7580  4.1509
  509SOL    HW2 2035   0.581   2.599   2.792  3.1112 -4.4389 -2.4671
  509SOL     MW 2036   0.664   2.587   2.782  0.5713 -0.5842  0.4613
  510SOL     OW 2037   1.575   2.601   1.638  0.2501 -0.0610  0.5219
  510SOL    HW1 2038   1.588   2.667   1.567  2.4131  3.1507 -0.2265
  510SOL    HW2 2039   1.508   2.643   1.701  2.5068 -0.9412 -2.3660
  510SOL     MW 2040   1.568   2.615   1.637  0.8332  0.2466  0.0421
  511SOL     OW 2041   0.416   2.606   2.489  0.2941 -0.0562 -0.7682
  511SOL    HW1 2042   0.497   2.575   2.526  3.3227 -1.1942  0.3584
  511SOL    HW2 2043   0.428   2.646   2.401  0.0065 -0.1634  0.3506
  511SOL     MW 2044   0.428   2.607   2.482  0.6558 -0.2205 -0.4719
  512SOL     OW 2045   0.989   2.028   2.873 -0.0903 -0.1119 -0.5412
  512SOL    HW1 2046   0.911   2.074   2.908  1.6832  0.9417  0.2065
  512SOL    HW2 2047   1.026   1.959   2.926  0.1013  1.2032 -0.7571
  512SOL     MW 2048   0.984   2.025   2.885  0.1690  0.2006 -0.4710
  513SOL     OW 2049   1.638   2.458   2.208 -0.8451 -0.3064  0.1004
  513SOL    HW1 2050   1.712   2.506   2.157  2.0846  0.1739  0.6039
  513SOL    HW2 2051   1.670   2.405   2.278  0.8829  1.0039  0.4820
  513SOL     MW 2052   1.652   2.457   2.210 -0.2306 -0.0701  0.2172
  514SOL     OW 2053   0.265   2.435   2.651  0.4346  0.5543 -0.8459
  514SOL    HW1 2054   0.313   2.508   2.623 -0.3687 -0.2143  1.0045
  514SOL    HW2 2055   0.295   2.414   2.739 -2.3649 -0.0524 -1.4568
  514SOL     MW 2056   0.275   2.442   2.659 -0.0407  0.3728 -0.6823
  515SOL     OW 2057   1.069   2.058   1.941  0.2835 -0.1135  0.3510
  515SOL    HW1 2058   1.063   2.132   1.885  1.9653 -0.0606 -0.9651
  515SOL    HW2 2059   1.148   2.067   1.990 -2.6520 -0.5702  0.0818
  515SOL     MW 2060   1.079   2.069   1.940  0.1181 -0.1668  0.1418
  516SOL     OW 2061   1.420   2.463   2.994  1.2500 -0.4200  0.3053
  516SOL    HW1 2062   1.424   2.458   2.898 -0.2237  0.6406 -0.9230
  516SOL    HW2 2063   1.336   2.425   3.021  0.7376  0.5778  1.9937
  516SOL     MW 2064   1.409   2.457   2.985  0.9880 -0.1484  0.3660
  517SOL     OW 2065   0.566   2.409   2.271 -0.2366  0.4376  0.0918
  517SOL    HW1 2066   0.509   2.459   2.328 -0.8497  0.5827  3.0119
  517SOL    HW2 2067   0.524   2.355   2.203 -2.0476 -1.8959 -0.8347
  517SOL     MW 2068   0.553   2.409   2.270 -0.5564  0.1489  0.3548
  518SOL     OW 2069   1.863   0.076   0.027  0.2662  0.4701  0.2279
  518SOL    HW1 2070   1.815   0.150   0.063 -1.5987  0.2053 -1.6583
  518SOL    HW2 2071   1.798  -0.001   0.025 -2.0131  0.8878 -3.0074
  518SOL     MW 2072   1.848   0.075   0.032 -0.2806  0.4903 -0.4478
  519SOL     OW 2073   0.691   2.508   1.743 -0.7692  0.2821  0.7518
  519SOL    HW1 2074   0.720   2.417   1.735  0.0270 -2.2637  0.4204
  519SOL    HW2 2075   0.604   2.502   1.709  0.9357 -0.3595  0.2570
  519SOL     MW 2076   0.683   2.495   1.737 -0.4392 -0.1384  0.6428
  520SOL     OW 2077   1.186   2.203   2.933 -0.0121 -0.1306  0.1208
  520SOL    HW1 2078   1.116   2.168   2.875 -1.5525  2.0826 -0.3523
  520SOL    HW2 2079   1.192   2.129   2.995 -2.0207  0.0166  1.5006
  520SOL     MW 2080   1.177   2.188   2.934 -0.4803  0.1809  0.2405
  521SOL     OW 2081   1.753   2.036   2.213  0.0486 -0.3478 -0.4347
  521SOL    HW1 2082   1.780   2.034   2.122  0.8937  2.2973  2.8085
  521SOL    HW2 2083   1.708   1.955   2.227 -1.1629 -0.7504 -1.8251
  521SOL     MW 2084   1.751   2.025   2.203  0.0002 -0.0519 -0.1903
  522SOL     OW 2085   2.920   2.520   2.284  0.0883  0.0119 -0.0654
  522SOL    HW1 2086   2.997   2.470   2.271 -2.1791  0.2278 -0.8425
  522SOL    HW2 2087   2.959   2.601   2.269 -0.6560 -1.7052 -2.6201
  522SOL     MW 2088   2.935   2.524   2.280 -0.3091 -0.1862 -0.5050
  523SOL     OW 2089   0.907   1.481   2.117 -0.2691  0.1326 -0.1184
  523SOL    HW1 2090   0.892   1.540   2.040 -0.7342 -1.5805  0.8261
  523SOL    HW2 2091   0.946   1.406   2.070  1.0334 -0.8298  1.0437
  523SOL     MW 2092   0.910   1.479   2.101 -0.1586 -0.2204  0.1596
  524SOL     OW 2093   0.598   2.392   2.951 -0.3021 -0.0265 -0.1307
  524SOL    HW1 2094   0.641   2.456   2.891  0.9321  1.5047  0.5550
  524SOL    HW2 2095   0.662   2.319   2.958  2.2515 -1.5450  0.6147
  524SOL     MW 2096   0.612   2.391   2.944  0.1977 -0.0248  0.0581
  525SOL     OW 2097   0.450   2.225   2.096  0.2506  0.1366 -0.8819
  525SOL    HW1 2098   0.415   2.153   2.152 -1.4843 -1.2747 -0.8008
  525SOL    HW2 2099   0.511   2.197   2.033 -1.9052 -0.9444  0.7652
  525SOL     MW 2100   0.454   2.212   2.095 -0.2627 -0.1922 -0.6539
  526SOL     OW 2101   0.679   2.127   1.986 -0.1190 -0.0632  0.2948
  526SOL    HW1 2102   0.727   2.155   1.903  0.2770  2.3414 -3.9020
  526SOL    HW2 2103   0.719   2.162   2.059 -3.3383  0.5460  0.5562
  526SOL     MW 2104   0.691   2.135   1.984 -0.4915  0.3344 -0.2245
  527SOL     OW 2105   1.322   1.975   2.092  0.0090  0.5092  0.1218
  527SOL    HW1 2106   1.335   1.975   2.183 -1.3082  1.0358 -1.0836
  527SOL    HW2 2107   1.348   1.889   2.054  2.2020  0.5753 -2.4555
  527SOL     MW 2108   1.327   1.963   2.099  0.1246  0.5874 -0.3773
  528SOL     OW 2109   0.670   2.960   2.929 -0.0790  0.2819 -0.4972
  528SOL    HW1 2110   0.653   3.054   2.931 -0.0982  1.4295  1.9930
  528SOL    HW2 2111   0.642   2.938   2.834  0.9047 -1.3184 -1.6653
  528SOL     MW 2112   0.664   2.969   2.917  0.0483  0.2222 -0.3227
  529SOL     OW 2113   0.988   2.292   1.853  1.2769 -0.3146 -0.3824
  529SOL    HW1 2114   0.993   2.303   1.951 -0.0844 -0.8924  1.4969
  529SOL    HW2 2115   1.042   2.367   1.819  1.9367 -3.2155  3.9430
  529SOL     MW 2116   0.996   2.303   1.862  1.1843 -0.7735  0.4363
  530SOL     OW 2117   1.149   2.454   3.037 -0.2287 -0.3665 -0.1460
  530SOL    HW1 2118   1.069   2.498   3.080 -1.2066 -0.3597  0.1255
  530SOL    HW2 2119   1.124   2.361   3.045 -3.4555 -1.6339 -1.4939
  530SOL     MW 2120   1.135   2.447   3.043 -0.7835 -0.5328 -0.2880
  531SOL     OW 2121   0.995   1.907   2.619  0.0841 -0.0972 -0.5017
  531SOL    HW1 2122   0.997   1.970   2.688 -0.9847 -3.3182 -1.3455
  531SOL    HW2 2123   0.961   1.825   2.656 -0.4924  0.1463 -0.5887
  531SOL     MW 2124   0.991   1.905   2.633 -0.1330 -0.4900 -0.6245
  532SOL     OW 2125   1.713   0.291   2.849  0.1647  0.4403  0.4477
  532SOL    HW1 2126   1.682   0.204   2.856  0.2390 -0.6281 -2.2788
  532SOL    HW2 2127   1.803   0.288   2.904  0.2824  1.5672 -1.6946
  532SOL     MW 2128   1.721   0.279   2.857  0.1900  0.4480 -0.1947
  533SOL     OW 2129   1.774   2.654   2.983  0.7094  0.5961  0.0742
  533SOL    HW1 2130   1.725   2.584   3.028 -3.0072  0.2173 -0.6356
  533SOL    HW2 2131   1.732   2.675   2.892 -0.1694  0.8598 -2.0972
  533SOL     MW 2132   1.762   2.648   2.977  0.1031  0.5809 -0.3059
  534SOL     OW 2133   1.776   2.345   2.457  0.2395 -0.0341 -0.4642
  534SOL    HW1 2134   1.693   2.315   2.494 -0.2215 -3.2258  0.7200
  534SOL    HW2 2135   1.825   2.369   2.544  0.3448 -2.0230  1.5417
  534SOL     MW 2136   1.771   2.344   2.474  0.1926 -0.7177 -0.0433
  535SOL     OW 2137   1.830   2.332   1.948 -0.1414  0.3419  0.2169
  535SOL    HW1 2138   1.791   2.351   1.858  0.0677 -0.5494 -0.4748
  535SOL    HW2 2139   1.911   2.381   1.929 -0.7636 -0.1096  0.1519
  535SOL     MW 2140   1.836   2.341   1.933 -0.1959  0.1647  0.1170
  536SOL     OW 2141   0.459   1.843   2.014 -0.2443  0.0458 -0.0871
  536SOL    HW1 2142   0.420   1.801   1.936 -1.8958 -0.6503  1.3947
  536SOL    HW2 2143   0.533   1.898   1.981  1.1408  2.7784 -0.2975
  536SOL     MW 2144   0.463   1.845   2.000 -0.2795  0.3145  0.0806
  537SOL     OW 2145   1.096   0.204   2.887 -0.3766 -0.5556 -0.1904
  537SOL    HW1 2146   1.043   0.183   2.969 -0.3087  1.1204  1.0674
  537SOL    HW2 2147   1.096   0.297   2.874  0.2465 -1.6019  0.0794
  537SOL     MW 2148   1.089   0.214   2.896 -0.2854 -0.4725  0.0111
  538SOL     OW 2149   1.383   0.066   2.970 -0.0342 -0.3260 -0.1526
  538SOL    HW1 2150   1.320   0.127   2.929 -0.4956  0.5127  1.2662
  538SOL    HW2 2151   1.468   0.090   2.934  0.4605 -0.5055  0.1019
  538SOL     MW 2152   1.386   0.077   2.960 -0.0298 -0.2391  0.0682
  539SOL     OW 2153   0.775   2.745   2.527 -0.0027 -0.3612  0.2256
  539SOL    HW1 2154   0.864   2.787   2.542  0.1453  3.3846  2.4281
  539SOL    HW2 2155   0.800   2.648   2.527  1.1359  1.0482 -0.6050
  539SOL     MW 2156   0.790   2.738   2.529  0.1671  0.3190  0.4066
  540SOL     OW 2157   0.327   2.303   2.896 -0.0579  0.5429  0.0550
  540SOL    HW1 2158   0.418   2.326   2.891  1.7335 -1.0794 -2.1080
  540SOL    HW2 2159   0.323   2.225   2.953 -2.6151  1.0472  0.6341
  540SOL     MW 2160   0.339   2.296   2.903 -0.1589  0.3954 -0.1540
  541SOL     OW 2161   0.152   2.902   2.187  0.1340  0.1689 -0.0745
  541SOL    HW1 2162   0.152   2.833   2.120 -0.0661 -0.9782 -0.3278
  541SOL    HW2 2163   0.227   2.878   2.245 -0.2334 -1.2915  0.2108
  541SOL     MW 2164   0.162   2.890   2.186  0.0591 -0.1751 -0.0703
  542SOL     OW 2165   1.049   2.297   2.576  0.0115  0.2243  0.2023
  542SOL    HW1 2166   0.973   2.234   2.593 -0.1881 -0.5309  1.2706
  542SOL    HW2 2167   1.046   2.346   2.659  1.6737 -0.6139 -0.4385
  542SOL     MW 2168   1.039   2.295   2.589  0.2045  0.0141  0.2587
  543SOL     OW 2169   1.432   2.505   2.726 -0.0555 -0.4309  0.8069
  543SOL    HW1 2170   1.468   2.440   2.663  0.4727 -0.7392 -0.2497
  543SOL    HW2 2171   1.503   2.562   2.755  1.1211  0.7298  1.8915
  543SOL     MW 2172   1.446   2.504   2.722  0.1694 -0.3184  0.8106
  544SOL     OW 2173   0.596   0.242   2.696 -0.2912 -0.0625 -0.1612
  544SOL    HW1 2174   0.520   0.274   2.742  3.0388 -1.4352 -2.2239
  544SOL    HW2 2175   0.563   0.192   2.623  0.3322  0.4368  1.1653
  544SOL     MW 2176   0.582   0.240   2.692  0.2304 -0.1777 -0.2584
  545SOL     OW 2177   1.525   2.191   2.276 -0.2060  0.4420  0.6147
  545SOL    HW1 2178   1.496   2.234   2.197  0.4823  0.7839  1.0351
  545SOL    HW2 2179   1.597   2.130   2.244  2.3130 -0.2497  0.7433
  545SOL     MW 2180   1.531   2.188   2.261  0.2172  0.3958  0.6871
  546SOL     OW 2181   2.964   2.042   0.118 -0.0962  0.8669  0.3243
  546SOL    HW1 2182   2.962   2.130   0.067 -0.6289 -2.3135 -0.6153
  546SOL    HW2 2183   3.045   1.989   0.107  0.2713 -2.6119  1.3325
  546SOL     MW 2184   2.974   2.047   0.110 -0.1180 -0.0117  0.3334
  547SOL     OW 2185   0.254   2.987   0.122  0.3143 -0.2313 -0.4663
  547SOL    HW1 2186   0.310   3.023   0.050  2.2804  2.7782 -4.2048
  547SOL    HW2 2187   0.253   2.893   0.107  0.7303 -1.0424 -0.3829
  547SOL     MW 2188   0.261   2.979   0.110  0.6286  0.0588 -0.9485
  548SOL     OW 2189   0.290   2.544   0.248 -0.8833  0.0743  0.3031
  548SOL    HW1 2190   0.292   2.615   0.182  1.6933 -2.1490 -0.8910
  548SOL    HW2 2191   0.243   2.481   0.194 -1.3451  1.7693 -2.2696
  548SOL     MW 2192   0.284   2.545   0.232 -0.6043  0.0046 -0.1939
  549SOL     OW 2193   0.784   1.886   2.122  0.2177  0.3224 -0.1258
  549SOL    HW1 2194   0.736   1.965   2.097  1.8190 -3.3249 -1.9488
  549SOL    HW2 2195   0.824   1.902   2.207  0.8197 -1.3602  0.8808
  549SOL     MW 2196   0.783   1.898   2.130  0.5084 -0.3808 -0.2335
  550SOL     OW 2197   1.806   1.742   2.524 -0.2094 -0.2076  0.5354
  550SOL    HW1 2198   1.807   1.769   2.433 -1.8151  0.7092 -3.0770
  550SOL    HW2 2199   1.784   1.824   2.573  1.4185  2.3686  1.2608
  550SOL     MW 2200   1.803   1.756   2.519 -0.2065  0.2533  0.1545
  551SOL     OW 2201   0.900   2.324   0.206 -0.2246 -0.4983 -0.1499
  551SOL    HW1 2202   0.994   2.342   0.225 -0.1380 -0.1137  0.7072
  551SOL    HW2 2203   0.909   2.252   0.142 -0.9294 -1.5664  1.4375
  551SOL     MW 2204   0.914   2.317   0.200 -0.3062 -0.5885  0.1726
  552SOL     OW 2205   1.743   1.734   2.237  0.2136 -0.3936  0.4267
  552SOL    HW1 2206   1.663   1.703   2.276 -0.8235 -0.9218  1.2425
  552SOL    HW2 2207   1.753   1.688   2.149 -0.6218 -1.5791 -3.4830
  552SOL     MW 2208   1.734   1.724   2.230 -0.0334 -0.6197  0.0185
  553SOL     OW 2209   1.213   2.315   1.479 -0.7619 -0.0349 -0.2239
  553SOL    HW1 2210   1.270   2.239   1.470 -0.4876 -0.1843 -2.0134
  553SOL    HW2 2211   1.273   2.382   1.451  0.3137  2.8434  1.0102
  553SOL     MW 2212   1.228   2.313   1.474 -0.5838  0.3251 -0.2972
  554SOL     OW 2213   0.564   2.883   2.681 -0.3325  0.6028  0.0935
  554SOL    HW1 2214   0.539   2.954   2.626 -0.5345  0.2281  1.7000
  554SOL    HW2 2215   0.633   2.824   2.640  0.7682 -1.4196 -0.1133
  554SOL     MW 2216   0.570   2.884   2.668 -0.2139  0.2865  0.2782
  555SOL     OW 2217   0.606   2.439   2.585  0.0981  0.3734 -0.1786
  555SOL    HW1 2218   0.563   2.352   2.603  0.3589 -1.0840  0.2334
  555SOL    HW2 2219   0.690   2.421   2.530  2.7984 -1.3100 -1.9127
  555SOL     MW 2220   0.612   2.425   2.580  0.4888 -0.0410 -0.3530
  556SOL     OW 2221   0.916   1.762   0.141  0.0430  0.0904 -0.4318
  556SOL    HW1 2222   0.940   1.776   0.051  0.7147 -1.2586 -0.2543
  556SOL    HW2 2223   0.994   1.786   0.189  0.1725  0.3946 -0.8460
  556SOL     MW 2224   0.930   1.767   0.135  0.1487 -0.0475 -0.4630
  557SOL     OW 2225   0.970   2.703   0.491 -0.1505 -0.2665 -0.0789
  557SOL    HW1 2226   0.989   2.660   0.412  0.3908  1.0647  2.2339
  557SOL    HW2 2227   0.906   2.763   0.460  0.9857 -0.3963 -2.4088
  557SOL     MW 2228   0.964   2.705   0.477  0.0708 -0.1080 -0.0811
  558SOL     OW 2229   0.279   2.153   0.016  0.4919 -0.2837 -0.2114
  558SOL    HW1 2230   0.218   2.081   0.010 -0.7107 -1.6355 -0.5190
  558SOL    HW2 2231   0.222   2.227   0.044  1.2683  0.9996  1.6136
  558SOL     MW 2232   0.263   2.153   0.019  0.4357 -0.2927 -0.0112
  559SOL     OW 2233   1.109   2.321   2.118 -0.1889  0.0120  0.2096
  559SOL    HW1 2234   1.141   2.411   2.119 -0.7818  2.0722  0.5093
  559SOL    HW2 2235   1.143   2.269   2.188 -3.7619 -0.1024 -2.6740
  559SOL     MW 2236   1.117   2.326   2.127 -0.7385  0.2687 -0.1313
  560SOL     OW 2237   1.926   2.851   0.077  0.1045 -0.3203 -0.3366
  560SOL    HW1 2238   1.993   2.903   0.022  2.6967  1.0563  2.2540
  560SOL    HW2 2239   1.916   2.763   0.041 -0.6802 -0.5569 -1.4521
  560SOL     MW 2240   1.934   2.847   0.065  0.3430 -0.1699 -0.1420
  561SOL     OW 2241   0.460   2.130   0.237  0.3528  0.0585 -0.4782
  561SOL    HW1 2242   0.404   2.153   0.157  0.7896  4.4633  0.7562
  561SOL    HW2 2243   0.508   2.212   0.258 -3.2517 -0.0284 -1.5244
  561SOL     MW 2244   0.459   2.144   0.229 -0.0652  0.6282 -0.4534
  562SOL     OW 2245   0.840   2.181   2.232 -0.0053 -0.0545 -0.0164
  562SOL    HW1 2246   0.851   2.275   2.245 -0.2754  1.3378  2.1731
  562SOL    HW2 2247   0.930   2.146   2.233 -2.8250 -1.1398 -0.3079
  562SOL     MW 2248   0.854   2.189   2.234 -0.4129 -0.0140  0.2340
  563SOL     OW 2249   1.129   0.310   0.617 -0.2997  0.0687 -1.0095
  563SOL    HW1 2250   1.057   0.293   0.551 -1.3906 -1.2883 -0.4999
  563SOL    HW2 2251   1.177   0.225   0.632  1.8838  0.9663  2.5476
  563SOL     MW 2252   1.126   0.296   0.611 -0.1556  0.0080 -0.4729
  564SOL     OW 2253   1.065   2.560   2.300 -0.2144  0.8352 -0.5632
  564SOL    HW1 2254   1.110   2.578   2.212  0.7676  0.6376  1.1804
  564SOL    HW2 2255   1.134   2.579   2.367 -0.5583 -1.5359 -0.2102
  564SOL     MW 2256   1.080   2.565   2.297 -0.1302  0.4963 -0.2866
  565SOL     OW 2257   2.879   2.703   2.636  0.0533  0.2126  0.2255
  565SOL    HW1 2258   2.955   2.736   2.588  3.4987  0.9497  0.9294
  565SOL    HW2 2259   2.807   2.666   2.579 -1.1218 -2.2685  0.2847
  565SOL     MW 2260   2.880   2.703   2.622  0.3528 -0.0175  0.3262
  566SOL     OW 2261   2.135   1.867   2.427 -0.5548  0.2758 -0.0458
  566SOL    HW1 2262   2.171   1.851   2.340 -0.3096  2.1928  0.2150
  566SOL    HW2 2263   2.195   1.939   2.463 -1.9376 -1.5606  0.2571
  566SOL     MW 2264   2.148   1.874   2.421 -0.7049  0.2864  0.0285
  567SOL     OW 2265   1.140   2.971   2.996  0.7748  0.0696 -0.7909
  567SOL    HW1 2266   1.228   3.022   2.999 -0.0219  0.8693 -1.6520
  567SOL    HW2 2267   1.158   2.878   3.003  0.6996 -0.4729  0.9422
  567SOL     MW 2268   1.154   2.965   2.998  0.6597  0.1035 -0.6759
  568SOL     OW 2269   1.608   2.094   2.910  0.1404  0.7658 -0.3144
  568SOL    HW1 2270   1.652   2.165   2.949  1.0810 -1.4665 -2.2819
  568SOL    HW2 2271   1.675   2.061   2.850  0.5038  0.5767  0.8232
  568SOL     MW 2272   1.622   2.099   2.908  0.3125  0.4463 -0.4239
  569SOL     OW 2273   0.210   2.240   2.475  0.1091  0.2012 -0.2744
  569SOL    HW1 2274   0.178   2.283   2.393  1.6400 -0.3473  2.4786
  569SOL    HW2 2275   0.203   2.313   2.540 -0.0047 -0.2102  2.1223
  569SOL     MW 2276   0.205   2.255   2.473  0.2961  0.0745  0.4051
  570SOL     OW 2277   1.474   0.430   0.488 -0.0433 -0.5959 -0.1128
  570SOL    HW1 2278   1.380   0.429   0.490 -1.8387  1.3596 -1.0905
  570SOL    HW2 2279   1.518   0.415   0.572  0.0985  1.9240  1.3724
  570SOL     MW 2280   1.467   0.428   0.499 -0.2615 -0.0054 -0.0458
  571SOL     OW 2281   1.486   2.396   1.989 -0.3045  0.1958 -0.2444
  571SOL    HW1 2282   1.557   2.423   2.048  1.4129  0.6944  1.6013
  571SOL    HW2 2283   1.497   2.303   1.968 -0.2545 -2.7424  0.7395
  571SOL     MW 2284   1.497   2.387   1.994 -0.0713 -0.1260  0.1290
  572SOL     OW 2285   0.924   2.570   0.032 -0.0618  0.0453 -0.1471
  572SOL    HW1 2286   0.912   2.628  -0.040 -2.0634  2.1610  3.1141
  572SOL    HW2 2287   0.834   2.545   0.052  1.0859 -0.1514  0.9749
  572SOL     MW 2288   0.910   2.574   0.025 -0.1745  0.2985  0.4312
  573SOL     OW 2289   1.185   2.371   0.264  0.7293 -0.1718 -0.0294
  573SOL    HW1 2290   1.268   2.349   0.218 -2.3843  0.8460  1.8132
  573SOL    HW2 2291   1.176   2.463   0.259  1.9440  0.0549 -1.4840
  573SOL     MW 2292   1.195   2.380   0.257  0.4788 -0.0076  0.0218
  574SOL     OW 2293   1.076   2.634   0.251  0.4251  0.6571 -0.1930
  574SOL    HW1 2294   1.119   2.718   0.250  0.0209 -2.5584 -0.8985
  574SOL    HW2 2295   1.009   2.622   0.184  3.8028 -1.2779 -0.2505
  574SOL     MW 2296   1.073   2.643   0.242  0.8174 -0.0224 -0.2936
  575SOL     OW 2297   0.003   2.326   1.784  0.4801  0.3275 -0.0694
  575SOL    HW1 2298  -0.007   2.241   1.736 -0.2057  0.1377  0.7449
  575SOL    HW2 2299   0.064   2.378   1.727  2.0919  2.7797  1.6505
  575SOL     MW 2300   0.010   2.322   1.770  0.6023  0.6260  0.2649
  576SOL     OW 2301   2.889   1.804   2.032 -0.2617 -0.3898  0.4194
  576SOL    HW1 2302   2.917   1.873   1.969  1.6441  1.7309  0.5967
  576SOL    HW2 2303   2.798   1.789   2.005 -0.8465 -0.4388 -0.7394
  576SOL     MW 2304   2.881   1.811   2.020 -0.0874 -0.1164  0.2899
  577SOL     OW 2305   2.129   0.237   0.063 -0.1172 -0.5280  0.2136
  577SOL    HW1 2306   2.066   0.233  -0.010 -1.2261  1.2691 -0.2806
  577SOL    HW2 2307   2.080   0.236   0.156 -1.5874 -1.4684 -0.2960
  577SOL     MW 2308   2.114   0.236   0.065 -0.4575 -0.4150  0.0811
  578SOL     OW 2309   1.919   2.032   2.434  0.4989 -0.3855 -0.1371
  578SOL    HW1 2310   1.860   2.037   2.363  1.1453 -0.7481 -1.2990
  578SOL    HW2 2311   1.980   1.963   2.410 -2.7402 -3.1216  0.4196
  578SOL     MW 2312   1.920   2.024   2.421  0.1568 -0.7944 -0.2169
  579SOL     OW 2313   0.870   2.501   2.496 -0.0830  0.1912 -0.2587
  579SOL    HW1 2314   0.927   2.432   2.534  0.2655  0.1945  3.3299
  579SOL    HW2 2315   0.921   2.539   2.421 -1.3291  1.0813 -1.2894
  579SOL     MW 2316   0.884   2.497   2.491 -0.2015  0.3090  0.0788
  580SOL     OW 2317   0.901   2.993   0.021  0.7129  0.2723 -0.3138
  580SOL    HW1 2318   0.993   2.977  -0.010 -0.0593  0.5089  1.1625
  580SOL    HW2 2319   0.846   2.985  -0.060 -1.2252  0.3268 -0.2849
  580SOL     MW 2320   0.906   2.990   0.006  0.3553  0.3107 -0.1152
  581SOL     OW 2321   1.148   2.455   1.710  0.5719  0.0428 -0.1105
  581SOL    HW1 2322   1.225   2.488   1.760  3.0779 -1.8381  1.7686
  581SOL    HW2 2323   1.176   2.414   1.629 -1.8256 -0.0238  0.6422
  581SOL     MW 2324   1.162   2.454   1.706  0.5862 -0.2142  0.2368
  582SOL     OW 2325   3.070   2.873   2.540 -0.0221  0.0135  0.3936
  582SOL    HW1 2326   3.020   2.939   2.589  1.4761 -0.9974 -0.3456
  582SOL    HW2 2327   3.162   2.896   2.548 -2.2519  1.7818 -0.0554
  582SOL     MW 2328   3.076   2.885   2.548 -0.1186  0.1134  0.2368
  583SOL     OW 2329   1.998   2.366   2.679  0.4724 -0.3775  0.9364
  583SOL    HW1 2330   2.045   2.385   2.598  1.1149  0.0064 -0.5028
  583SOL    HW2 2331   2.002   2.272   2.695  1.6755  0.0520 -0.8230
  583SOL     MW 2332   2.005   2.356   2.671  0.7159 -0.2702  0.5144
  584SOL     OW 2333   0.171   1.874   2.118  0.3321 -0.2575 -0.0530
  584SOL    HW1 2334   0.256   1.827   2.137 -2.2236  0.1086  1.0579
  584SOL    HW2 2335   0.198   1.954   2.160  0.4903 -0.3096  1.0141
  584SOL     MW 2336   0.186   1.878   2.126  0.0158 -0.2160  0.2344
  585SOL     OW 2337   1.436   2.645   0.118  0.0793 -0.1973  0.5245
  585SOL    HW1 2338   1.396   2.622   0.034 -1.9504 -0.9579 -3.1222
  585SOL    HW2 2339   1.367   2.676   0.174  2.7465  0.8547 -0.0011
  585SOL     MW 2340   1.422   2.646   0.114  0.1634 -0.1588 -0.0260
  586SOL     OW 2341   1.417   2.803   2.484 -0.1301  0.1641  0.5559
  586SOL    HW1 2342   1.464   2.790   2.403  0.4294 -0.6258 -0.1474
  586SOL    HW2 2343   1.452   2.882   2.516 -2.7061 -1.7583 -0.7965
  586SOL     MW 2344   1.428   2.812   2.478 -0.3961 -0.1937  0.2847
  587SOL     OW 2345   1.309   1.569   2.191  0.3282  0.2627  0.1489
  587SOL    HW1 2346   1.313   1.482   2.231  0.3193 -1.0226 -2.1335
  587SOL    HW2 2347   1.287   1.551   2.100 -1.0625  0.8586  1.4258
  587SOL     MW 2348   1.307   1.555   2.184  0.1435  0.1717  0.0162
  588SOL     OW 2349   1.395   2.142   2.752  0.5457  0.1702  0.4699
  588SOL    HW1 2350   1.465   2.120   2.812 -1.1096  0.6791 -3.6409
  588SOL    HW2 2351   1.348   2.187   2.820  1.3328 -1.1595  1.7659
  588SOL     MW 2352   1.398   2.145   2.769  0.4312  0.0619  0.0985
  589SOL     OW 2353   1.283   2.060   0.069 -0.4193 -0.3159 -0.0617
  589SOL    HW1 2354   1.333   2.118   0.127 -0.1531  0.7205  0.4142
  589SOL    HW2 2355   1.240   2.000   0.132  0.9644 -0.6581  0.0657
  589SOL     MW 2356   1.284   2.060   0.085 -0.2016 -0.2243  0.0179
  590SOL     OW 2357   0.434   2.680   2.218 -0.3038  0.2292 -0.2936
  590SOL    HW1 2358   0.424   2.633   2.130 -2.1243  1.3853  1.3670
  590SOL    HW2 2359   0.514   2.731   2.199  0.3019  0.9558  0.1629
  590SOL     MW 2360   0.443   2.681   2.204 -0.4641  0.4776 -0.0143
  591SOL     OW 2361   2.283   0.717   3.086 -0.1885 -0.4184  0.7870
  591SOL    HW1 2362   2.207   0.776   3.070  1.9181 -1.7728 -1.0696
  591SOL    HW2 2363   2.356   0.751   3.024  3.0997  0.8213 -1.8709
  591SOL     MW 2364   2.282   0.729   3.076  0.5233 -0.4335  0.1914
  592SOL     OW 2365   1.797   2.948   0.830 -0.1398  0.7249  0.2081
  592SOL    HW1 2366   1.786   3.007   0.755 -2.8586  2.1479  0.7806
  592SOL    HW2 2367   1.856   2.879   0.804  1.2324  0.9340  0.6236
  592SOL     MW 2368   1.804   2.946   0.817 -0.3174  0.9403  0.3385
  593SOL     OW 2369   1.920   0.692   0.889  1.1340  0.0136 -0.1430
  593SOL    HW1 2370   1.862   0.686   0.814  0.5372  1.0839  1.2537
  593SOL    HW2 2371   1.930   0.600   0.919 -2.4207 -0.5016 -1.1283
  593SOL     MW 2372   1.914   0.679   0.883  0.5863  0.0868 -0.0887
  594SOL     OW 2373   2.813   1.169   1.360  0.7581  0.0671  0.0349
  594SOL    HW1 2374   2.909   1.177   1.377  2.1414 -1.8450  2.0324
  594SOL    HW2 2375   2.804   1.124   1.274  0.2428  0.3239 -1.6007
  594SOL     MW 2376   2.824   1.164   1.351  0.8726 -0.1513  0.0827
  595SOL     OW 2377   0.495   0.956   0.783 -0.0518  0.0865  0.2309
  595SOL    HW1 2378   0.501   1.005   0.703 -0.6784 -3.2532  0.9262
  595SOL    HW2 2379   0.496   1.023   0.855  0.6728 -0.2819  4.6292
  595SOL     MW 2380   0.496   0.971   0.782 -0.0389 -0.4028  0.9029
  596SOL     OW 2381   2.482   1.351   0.543 -0.3698 -0.3567  0.4183
  596SOL    HW1 2382   2.554   1.418   0.512  3.1134 -0.0544 -2.1296
  596SOL    HW2 2383   2.514   1.316   0.630  0.3778 -2.3843  0.6484
  596SOL     MW 2384   2.496   1.355   0.551  0.1884 -0.5843  0.1125
  597SOL     OW 2385   2.190   0.709   1.574 -0.3806  0.0047 -0.4572
  597SOL    HW1 2386   2.229   0.637   1.625  0.9766  1.2100 -1.2513
  597SOL    HW2 2387   2.108   0.674   1.532  0.6612  0.9857  0.7218
  597SOL     MW 2388   2.184   0.695   1.575 -0.0641  0.2932 -0.4064
  598SOL     OW 2389   2.607   0.977   2.844 -0.1435  0.1329 -0.3635
  598SOL    HW1 2390   2.634   0.982   2.749 -1.3422 -0.7783  1.0286
  598SOL    HW2 2391   2.674   1.023   2.892 -0.8418 -0.9850 -0.3364
  598SOL     MW 2392   2.619   0.984   2.838 -0.3938 -0.1348 -0.1762
  599SOL     OW 2393   2.959   0.419   2.060  0.0174  0.7454 -0.3805
  599SOL    HW1 2394   2.933   0.426   2.153 -0.2259  1.7989 -0.1018
  599SOL    HW2 2395   3.002   0.507   2.041  0.0722 -1.3035 -0.7188
  599SOL     MW 2396   2.961   0.432   2.069 -0.0075  0.6141 -0.3884
  600SOL     OW 2397   1.931   1.688   0.857  0.2292 -1.1546 -0.3089
  600SOL    HW1 2398   1.955   1.742   0.930 -2.8958  0.0687 -0.9810
  600SOL    HW2 2399   1.855   1.746   0.828  0.7327  0.3831  3.7609
  600SOL     MW 2400   1.924   1.703   0.863 -0.1167 -0.7903  0.1393
  601SOL     OW 2401   2.538   0.797   0.838  0.1924  0.6234 -0.1622
  601SOL    HW1 2402   2.516   0.817   0.931 -2.5980  2.0616  3.3018
  601SOL    HW2 2403   2.465   0.741   0.802 -2.6181  3.3155 -0.3025
  601SOL     MW 2404   2.526   0.792   0.845 -0.5466  1.1684  0.2763
  602SOL     OW 2405   2.320   1.936   0.837  0.0406 -0.5157  0.0755
  602SOL    HW1 2406   2.288   1.844   0.844  0.1475  0.0032 -0.0849
  602SOL    HW2 2407   2.239   1.985   0.815 -1.6561  1.3232  1.9662
  602SOL     MW 2408   2.305   1.930   0.835 -0.1691 -0.2046  0.3038
  603SOL     OW 2409   3.068   1.400   1.819 -0.0657  0.1327 -0.0877
  603SOL    HW1 2410   3.110   1.445   1.895  3.5638  1.3275 -0.4883
  603SOL    HW2 2411   3.076   1.305   1.828  1.6981  0.4408 -0.2621
  603SOL     MW 2412   3.074   1.394   1.830  0.6459  0.3310 -0.1636
  604SOL     OW 2413   2.163   1.561   0.473 -0.1763  0.5098  0.5939
  604SOL    HW1 2414   2.185   1.476   0.521  2.7456  1.3180  1.9685
  604SOL    HW2 2415   2.084   1.597   0.520  2.0544 -1.3698  0.1431
  604SOL     MW 2416   2.156   1.554   0.485  0.5035  0.3685  0.7158
  605SOL     OW 2417   2.611   1.558   0.826 -0.2305 -0.2972 -0.0504
  605SOL    HW1 2418   2.606   1.635   0.766  0.8761  2.4425 -1.1469
  605SOL    HW2 2419   2.566   1.489   0.782  0.3920 -0.8115  0.7030
  605SOL     MW 2420   2.604   1.559   0.812 -0.0023 -0.0036 -0.0956
  606SOL     OW 2421   2.583   1.849   1.900 -0.6778 -0.1038  0.5911
  606SOL    HW1 2422   2.490   1.851   1.921 -0.4500 -1.7133 -1.1152
  606SOL    HW2 2423   2.605   1.766   1.853  1.5272 -0.0969 -0.6204
  606SOL     MW 2424   2.574   1.838   1.897 -0.3569 -0.3152  0.2061
  607SOL     OW 2425   2.364   1.042   3.046  0.3395  0.2037 -0.2837
  607SOL    HW1 2426   2.441   1.030   2.989  0.4312  2.4060  1.4833
  607SOL    HW2 2427   2.393   1.013   3.139  2.8182  0.8117  0.8863
  607SOL     MW 2428   2.378   1.036   3.051  0.6786  0.5745  0.1038
  608SOL     OW 2429   1.887   0.293   0.635 -0.0720 -0.2442  0.3452
  608SOL    HW1 2430   1.899   0.329   0.545  1.8738 -1.1187  1.9661
  608SOL    HW2 2431   1.846   0.204   0.617 -2.3693  0.2005 -3.0513
  608SOL     MW 2432   1.883   0.286   0.621 -0.1184 -0.3009  0.1109
  609SOL     OW 2433   2.072   2.021   3.051 -0.8754  0.3781  0.3213
  609SOL    HW1 2434   2.000   1.962   3.043 -1.8269  0.8928 -1.0211
  609SOL    HW2 2435   2.121   1.972   3.120 -1.8975  0.7393 -0.6421
  609SOL     MW 2436   2.069   2.007   3.059 -1.1358  0.4937  0.0171
  610SOL     OW 2437   1.793   1.015   1.263  0.0444 -1.0407  0.2947
  610SOL    HW1 2438   1.800   0.930   1.221 -1.4028  0.2589  0.8158
  610SOL    HW2 2439   1.703   1.030   1.290 -1.1815  2.1034 -1.6390
  610SOL     MW 2440   1.782   1.006   1.261 -0.3083 -0.4544  0.1083
  611SOL     OW 2441   2.534   1.776   0.684 -0.2043  0.2997 -0.4594
  611SOL    HW1 2442   2.491   1.847   0.727  1.4094  0.1880  0.8893
  611SOL    HW2 2443   2.507   1.757   0.598 -1.9862  3.4981  0.5331
  611SOL     MW 2444   2.524   1.783   0.678 -0.2265  0.7070 -0.1505
  612SOL     OW 2445   2.796   2.834   0.418 -0.2875  0.2017  0.2095
  612SOL    HW1 2446   2.863   2.871   0.477 -1.5747 -1.6477  2.0994
  612SOL    HW2 2447   2.842   2.814   0.337  1.7689 -0.0649  1.8253
  612SOL     MW 2448   2.811   2.836   0.415 -0.1860 -0.0775  0.6721
  613SOL     OW 2449   1.496   1.026   0.949 -0.0931 -0.1672  0.4675
  613SOL    HW1 2450   1.473   1.116   0.979  3.5656  0.3324 -1.5378
  613SOL    HW2 2451   1.500   0.974   1.028 -1.2101 -1.2445 -0.3692
  613SOL     MW 2452   1.493   1.031   0.964  0.2423 -0.2434  0.0925
  614SOL     OW 2453   2.002   0.548   1.470  0.2650  0.4376 -0.5437
  614SOL    HW1 2454   2.043   0.480   1.525  2.2699  1.0698 -1.4245
  614SOL    HW2 2455   1.967   0.511   1.389  1.3614  2.1570 -1.4790
  614SOL     MW 2456   2.003   0.534   1.467  0.6742  0.7478 -0.7833
  615SOL     OW 2457   2.375   0.720   0.297  0.1800 -0.1847 -0.3476
  615SOL    HW1 2458   2.440   0.662   0.339 -1.8233 -0.7861  2.1330
  615SOL    HW2 2459   2.343   0.683   0.214 -1.3957  0.5381  1.2613
  615SOL     MW 2460   2.380   0.708   0.291 -0.2922 -0.1687  0.1920
  616SOL     OW 2461   2.493   0.445   1.589  0.1462 -0.4762 -0.1728
  616SOL    HW1 2462   2.472   0.362   1.553 -1.6792  1.9077 -0.5957
  616SOL    HW2 2463   2.452   0.503   1.520 -2.8676 -1.1695  0.1583
  616SOL     MW 2464   2.485   0.441   1.575 -0.4923 -0.2532 -0.1849
  617SOL     OW 2465   2.925   0.556   1.729  0.2001  0.8836 -0.0567
  617SOL    HW1 2466   2.841   0.570   1.780 -1.4021 -0.8470 -2.6103
  617SOL    HW2 2467   2.947   0.463   1.715 -0.2079  1.2210  3.4466
  617SOL     MW 2468   2.917   0.545   1.734 -0.0651  0.6998  0.0686
  618SOL     OW 2469   2.757   0.352   1.892  0.9049  0.2948 -0.5513
  618SOL    HW1 2470   2.718   0.438   1.889 -1.2223 -0.6693 -1.0780
  618SOL    HW2 2471   2.831   0.355   1.950  0.6779  2.9491  0.3706
  618SOL     MW 2472   2.762   0.364   1.899  0.5943  0.5178 -0.4992
  619SOL     OW 2473   2.681   0.662   0.121 -0.0125  0.0772  0.1783
  619SOL    HW1 2474   2.730   0.743   0.113 -0.4189  1.1026  0.3784
  619SOL    HW2 2475   2.677   0.640   0.212  0.9269  2.0415  0.0073
  619SOL     MW 2476   2.687   0.670   0.132  0.0578  0.4716  0.1821
  620SOL     OW 2477   2.302   1.031   1.000 -0.1685 -0.0030  0.1043
  620SOL    HW1 2478   2.347   1.092   0.946 -2.0708  1.7884  1.2975
  620SOL    HW2 2479   2.236   0.994   0.941 -0.5828  0.5507 -3.4787
  620SOL     MW 2480   2.299   1.034   0.985 -0.4742  0.3064 -0.2110
  621SOL     OW 2481   1.516   2.136   1.959  0.3012 -0.2590  0.0725
  621SOL    HW1 2482   1.466   2.063   2.002  3.0484  1.5945  0.7253
  621SOL    HW2 2483   1.609   2.099   1.967 -1.2491 -1.5649  0.3784
  621SOL     MW 2484   1.522   2.121   1.966  0.4591 -0.1867  0.1990
  622SOL     OW 2485   2.620   0.158   0.275  0.5804  0.0285 -0.1227
  622SOL    HW1 2486   2.714   0.175   0.269 -1.3621 -1.1913 -0.3689
  622SOL    HW2 2487   2.618   0.064   0.271  1.4901  1.5533 -1.6171
  622SOL     MW 2488   2.632   0.148   0.273  0.4441  0.0687 -0.3524
  623SOL     OW 2489   2.338   2.824   0.862 -0.7127 -0.1260 -0.5917
  623SOL    HW1 2490   2.407   2.899   0.867 -2.1497  0.5412  1.2756
  623SOL    HW2 2491   2.281   2.842   0.942 -2.0063  1.6683 -1.4629
  623SOL     MW 2492   2.340   2.836   0.873 -1.0730  0.1987 -0.4603
  624SOL     OW 2493   2.173   1.737   3.006  0.3332 -0.2501 -0.2667
  624SOL    HW1 2494   2.145   1.657   3.046  1.3367 -1.2878  3.4380
  624SOL    HW2 2495   2.086   1.760   2.974  3.3987 -0.0829  0.7904
  624SOL     MW 2496   2.158   1.729   3.007  0.8700 -0.3650  0.3616
  625SOL     OW 2497   2.201   1.961   1.125  0.4959 -0.3157  0.2718
  625SOL    HW1 2498   2.250   1.905   1.192 -2.7129 -1.6911 -0.4552
  625SOL    HW2 2499   2.239   1.948   1.039 -1.5112 -0.8063 -0.7397
  625SOL     MW 2500   2.213   1.952   1.123 -0.1922 -0.5619  0.0424
  626SOL     OW 2501   0.283   1.614   2.385  0.6234  0.0385  0.3506
  626SOL    HW1 2502   0.245   1.532   2.360  3.2534  2.1662  0.1747
  626SOL    HW2 2503   0.213   1.675   2.383  2.9439  1.5782 -0.3212
  626SOL     MW 2504   0.268   1.611   2.381  1.2766  0.5224  0.2388
  627SOL     OW 2505   2.467   0.772   2.636  0.2775 -0.6424 -0.3532
  627SOL    HW1 2506   2.448   0.860   2.668  2.2605  1.0415 -0.5943
  627SOL    HW2 2507   2.438   0.769   2.547  0.9660  1.6415 -1.0985
  627SOL     MW 2508   2.460   0.783   2.628  0.6300 -0.1189 -0.4833
  628SOL     OW 2509   2.339   1.369   1.370  0.7134  0.5808 -0.6624
  628SOL    HW1 2510   2.284   1.313   1.309  1.2851 -0.5129  1.5089
  628SOL    HW2 2511   2.434   1.354   1.342 -1.0678  1.7714 -0.1513
  628SOL     MW 2512   2.345   1.359   1.358  0.5538  0.5935 -0.3085
  629SOL     OW 2513   1.857   0.544   1.210 -0.3961 -0.0400  0.7289
  629SOL    HW1 2514   1.829   0.633   1.183  0.1160  0.4650 -0.7724
  629SOL    HW2 2515   1.782   0.510   1.261 -3.4283 -1.6917  0.3223
  629SOL     MW 2516   1.843   0.552   1.213 -0.7286 -0.1913  0.4772
  630SOL     OW 2517   2.447   1.794   2.997  0.2815 -0.4217 -0.6511
  630SOL    HW1 2518   2.480   1.860   2.941 -2.2057 -0.6191  2.9852
  630SOL    HW2 2519   2.348   1.794   2.993 -1.0895  1.3806  0.1978
  630SOL     MW 2520   2.439   1.802   2.989 -0.2275 -0.2099 -0.0593
  631SOL     OW 2521   1.969   1.837   1.586  0.6324 -0.1731 -0.1281
  631SOL    HW1 2522   2.015   1.756   1.614  2.1655 -0.3868  0.6186
  631SOL    HW2 2523   1.957   1.823   1.491 -1.4602  1.0985 -2.3056
  631SOL     MW 2524   1.974   1.824   1.577  0.5586 -0.0336 -0.3169
  632SOL     OW 2525   0.141   1.988   1.465 -0.1415 -0.7214 -0.4815
  632SOL    HW1 2526   0.091   2.031   1.541 -3.3786 -2.0181  1.9370
  632SOL    HW2 2527   0.129   1.898   1.479  1.5618 -0.0399 -0.4209
  632SOL     MW 2528   0.133   1.982   1.477 -0.3439 -0.8026 -0.1544
  633SOL     OW 2529   2.600   0.520   0.365 -0.1604 -0.2833 -0.3391
  633SOL    HW1 2530   2.681   0.522   0.423  0.7926 -1.1178 -0.7490
  633SOL    HW2 2531   2.550   0.443   0.392  0.7026 -2.1702  1.1393
  633SOL     MW 2532   2.604   0.510   0.376  0.0792 -0.6423 -0.1981
  634SOL     OW 2533   2.696   3.074   0.615 -0.1908 -0.0606 -0.0473
  634SOL    HW1 2534   2.722   3.165   0.620 -0.0497  2.1586  0.7464
  634SOL    HW2 2535   2.642   3.067   0.535 -0.3798  1.7541 -0.2943
  634SOL     MW 2536   2.692   3.085   0.605 -0.1971  0.4716  0.0249
  635SOL     OW 2537   2.626   0.123   1.836  0.1190  0.4803 -0.5143
  635SOL    HW1 2538   2.685   0.055   1.796  0.9317 -3.5194  0.6070
  635SOL    HW2 2539   2.671   0.203   1.846  0.9452  0.8191 -0.2637
  635SOL     MW 2540   2.640   0.124   1.832  0.3353 -0.0027 -0.3333
  636SOL     OW 2541   2.901   1.627   1.124 -0.3862 -1.1736 -0.1518
  636SOL    HW1 2542   2.829   1.654   1.179 -1.1016 -2.5123 -1.6678
  636SOL    HW2 2543   2.945   1.711   1.092  1.5023 -0.1333 -1.1714
  636SOL     MW 2544   2.897   1.642   1.127 -0.2315 -1.2130 -0.4864
  637SOL     OW 2545   2.884   1.486   0.709  0.4156  0.4504  0.3865
  637SOL    HW1 2546   2.941   1.564   0.701  2.6849  0.1952  0.7904
  637SOL    HW2 2547   2.820   1.511   0.779  0.7480  0.8485  1.2877
  637SOL     MW 2548   2.883   1.500   0.717  0.7589  0.4693  0.5587
  638SOL     OW 2549   2.791   0.492   0.568 -0.1437  0.2529 -0.0553
  638SOL    HW1 2550   2.866   0.535   0.522  1.9701 -0.2576 -1.4711
  638SOL    HW2 2551   2.795   0.538   0.652  1.2937  2.6840  0.2848
  638SOL     MW 2552   2.801   0.504   0.573  0.3248  0.5063 -0.1972
  639SOL     OW 2553   1.775   0.049   0.610 -0.0076 -0.1267  0.9941
  639SOL    HW1 2554   1.691   0.074   0.562  1.5888 -0.5935  0.0668
  639SOL    HW2 2555   1.816  -0.019   0.550 -0.6913 -1.7364 -0.5559
  639SOL     MW 2556   1.769   0.044   0.595  0.1128 -0.4006  0.6673
  640SOL     OW 2557   0.373   1.301   0.124 -0.0859 -0.0706  0.0396
  640SOL    HW1 2558   0.383   1.313   0.029 -1.3609  0.8923  0.6982
  640SOL    HW2 2559   0.339   1.212   0.133  0.6813  0.1087 -0.5612
  640SOL     MW 2560   0.370   1.291   0.112 -0.1529  0.0801  0.0472
  641SOL     OW 2561   2.172   0.411   0.321 -1.3808 -0.1290  0.2449
  641SOL    HW1 2562   2.206   0.446   0.238  1.5979  0.5485  0.1760
  641SOL    HW2 2563   2.245   0.348   0.342 -1.3170  0.2387  3.9523
  641SOL     MW 2564   2.186   0.407   0.313 -0.9794  0.0089  0.7250
  642SOL     OW 2565   0.065   3.088   0.588  0.1301 -0.0629  0.1124
  642SOL    HW1 2566   0.026   3.175   0.565  2.0919  0.8083  0.0321
  642SOL    HW2 2567  -0.008   3.036   0.629 -1.7271 -1.2400 -1.7644
  642SOL     MW 2568   0.050   3.093   0.590  0.1439 -0.1033 -0.1459
  643SOL     OW 2569   2.063   0.333   1.642 -0.5767  0.1744 -0.1718
  643SOL    HW1 2570   1.984   0.291   1.673 -0.0510 -2.5698  2.1667
  643SOL    HW2 2571   2.093   0.260   1.597 -0.4562  0.5501  0.6769
  643SOL     MW 2572   2.056   0.318   1.640 -0.4914 -0.1381  0.2487
  644SOL     OW 2573   2.738   2.030   1.036  0.0129  0.3182 -0.1797
  644SOL    HW1 2574   2.704   1.953   1.079 -0.0238  2.1747  0.0547
  644SOL    HW2 2575   2.661   2.076   1.008  1.5190 -0.7019  2.5877
  644SOL     MW 2576   2.723   2.026   1.038  0.2068  0.4285  0.2163
  645SOL     OW 2577   2.869   0.824   0.671  0.5044 -0.3772  0.1476
  645SOL    HW1 2578   2.962   0.812   0.670  2.0690  0.5323  1.3176
  645SOL    HW2 2579   2.843   0.752   0.725 -0.5480  1.5910 -0.9693
  645SOL     MW 2580   2.878   0.813   0.678  0.5720  0.0025  0.1546
  646SOL     OW 2581   0.180   2.310   0.788 -0.3269  0.7250  0.2892
  646SOL    HW1 2582   0.178   2.223   0.824 -2.7481 -0.2010  0.9166
  646SOL    HW2 2583   0.102   2.297   0.740  1.9196 -1.2083  0.5300
  646SOL     MW 2584   0.169   2.297   0.786 -0.3499  0.3477  0.4038
  647SOL     OW 2585   2.667   0.487   2.972 -0.0940 -0.3422 -0.1315
  647SOL    HW1 2586   2.633   0.439   3.048  1.2023  0.9421  0.5156
  647SOL    HW2 2587   2.615   0.567   2.974 -1.0955 -0.4627 -2.6481
  647SOL     MW 2588   2.656   0.491   2.982 -0.0551 -0.1886 -0.3781
  648SOL     OW 2589   2.136   0.739   1.208 -0.1088  0.2955  0.6792
  648SOL    HW1 2590   2.086   0.783   1.145 -1.0445  0.2037  0.0697
  648SOL    HW2 2591   2.151   0.795   1.284 -0.4067 -1.3292 -2.1131
  648SOL     MW 2592   2.132   0.752   1.210 -0.2716  0.0690  0.2304
  649SOL     OW 2593   2.347   2.716   1.275  0.2903 -0.1477 -0.3502
  649SOL    HW1 2594   2.424   2.768   1.288  0.5651 -0.2668 -3.3408
  649SOL    HW2 2595   2.373   2.624   1.287  0.0808 -3.7774  1.3316
  649SOL     MW 2596   2.361   2.710   1.278  0.2989 -0.6424 -0.5229
  650SOL     OW 2597   2.814   0.211   0.626  0.2337 -0.3977 -0.1719
  650SOL    HW1 2598   2.819   0.302   0.597  0.5885  0.1262  2.1550
  650SOL    HW2 2599   2.911   0.198   0.618 -0.2285  4.3563 -1.3084
  650SOL     MW 2600   2.827   0.221   0.621  0.2195  0.2987 -0.0149
  651SOL     OW 2601   2.972   0.401   0.839 -0.3010 -0.1762  0.9214
  651SOL    HW1 2602   3.058   0.450   0.847 -0.4037 -0.0016 -0.8910
  651SOL    HW2 2603   2.919   0.444   0.909  0.7380  0.6490  0.1241
  651SOL     MW 2604   2.976   0.413   0.849 -0.1775 -0.0443  0.5771
  652SOL     OW 2605   2.435   1.505   2.962 -0.0244  1.0603  0.3599
  652SOL    HW1 2606   2.506   1.500   2.899 -0.6292  1.5756  1.5436
  652SOL    HW2 2607   2.408   1.595   2.968  4.2567 -0.7110 -0.1330
  652SOL     MW 2608   2.441   1.516   2.954  0.4606  0.8946  0.4511
  653SOL     OW 2609   1.913   0.428   0.386  0.3491 -0.0645 -0.3885
  653SOL    HW1 2610   1.861   0.368   0.335 -0.2538  0.5359 -0.5168
  653SOL    HW2 2611   1.997   0.423   0.345  0.3729  1.4514 -1.6759
  653SOL     MW 2612   1.917   0.419   0.374  0.2727  0.2147 -0.5753
  654SOL     OW 2613   2.408   1.041   0.738 -0.2957 -0.7950  0.3565
  654SOL    HW1 2614   2.328   1.022   0.688 -1.0235 -2.0682  0.2775
  654SOL    HW2 2615   2.445   0.958   0.767 -0.7336  0.5561  0.7218
  654SOL     MW 2616   2.402   1.027   0.736 -0.4495 -0.7847  0.3943
  655SOL     OW 2617   2.890   0.842   0.362  0.0678 -0.3519 -0.6590
  655SOL    HW1 2618   2.853   0.875   0.444 -1.8510 -2.8953 -0.0470
  655SOL    HW2 2619   2.920   0.750   0.393 -2.7449 -1.7410 -1.3282
  655SOL     MW 2620   2.889   0.834   0.377 -0.5565 -0.8708 -0.6665
  656SOL     OW 2621   1.845   2.725   1.317 -0.2016 -0.0033  0.2155
  656SOL    HW1 2622   1.885   2.784   1.250 -1.6843  0.0771  0.9753
  656SOL    HW2 2623   1.911   2.712   1.392  0.2302 -1.4121 -1.1507
  656SOL     MW 2624   1.859   2.731   1.318 -0.3402 -0.1786  0.1355
  657SOL     OW 2625   0.145   1.707   1.254  0.3984  0.5570 -0.6590
  657SOL    HW1 2626   0.215   1.760   1.213 -2.7914  1.2767 -2.0694
  657SOL    HW2 2627   0.130   1.625   1.207  0.3069 -0.1682 -1.1950
  657SOL     MW 2628   0.152   1.703   1.242 -0.0345  0.5562 -0.9158
  658SOL     OW 2629   2.732   1.326   0.222  0.0732  0.1732 -0.0926
  658SOL    HW1 2630   2.682   1.258   0.261  2.0578  2.6687  0.7026
  658SOL    HW2 2631   2.752   1.389   0.289  1.2909 -0.4794 -0.4393
  658SOL     MW 2632   2.728   1.326   0.236  0.4957  0.4163 -0.0334
  659SOL     OW 2633   2.277   1.510   1.104  0.4250  0.3928  0.6156
  659SOL    HW1 2634   2.375   1.519   1.108  1.3983 -2.2063 -1.0223
  659SOL    HW2 2635   2.234   1.558   1.172 -0.9509  0.5539 -0.0993
  659SOL     MW 2636   2.284   1.517   1.113  0.3718  0.0711  0.3052
  660SOL     OW 2637   2.049   1.600   1.687  0.2885 -0.4032 -0.3801
  660SOL    HW1 2638   2.073   1.604   1.780 -0.4451  0.5114 -0.6956
  660SOL    HW2 2639   1.979   1.535   1.668 -1.6750  0.9267 -0.2915
  660SOL     MW 2640   2.043   1.592   1.697 -0.0673 -0.1071 -0.4100
  661SOL     OW 2641   2.392   0.999   0.228  0.4972 -0.0513 -0.2155
  661SOL    HW1 2642   2.476   1.038   0.264  1.0882 -0.3837  2.8580
  661SOL    HW2 2643   2.392   0.907   0.257 -0.3429 -1.8327  1.2563
  661SOL     MW 2644   2.403   0.992   0.236  0.4643 -0.3302  0.3842
  662SOL     OW 2645   2.591   2.963   0.853  0.5653  0.0661 -0.1975
  662SOL    HW1 2646   2.546   3.036   0.889 -0.1063 -1.7479 -1.6764
  662SOL    HW2 2647   2.648   2.993   0.783  0.4403  0.5516 -0.0324
  662SOL     MW 2648   2.592   2.977   0.848  0.4602 -0.1092 -0.3708
  663SOL     OW 2649   2.713   1.476   0.468 -0.6815  0.1998  0.3353
  663SOL    HW1 2650   2.674   1.559   0.432  0.5449  0.4223  2.1463
  663SOL    HW2 2651   2.784   1.489   0.533  0.9587  0.4452  0.7666
  663SOL     MW 2652   2.717   1.489   0.472 -0.3033  0.2615  0.6312
  664SOL     OW 2653   2.511   1.529   1.613  0.1641 -0.4018 -0.0919
  664SOL    HW1 2654   2.497   1.617   1.574 -0.2395 -1.7445  2.0751
  664SOL    HW2 2655   2.422   1.497   1.629 -0.2881  1.2231  0.6702
  664SOL     MW 2656   2.498   1.536   1.610  0.0512 -0.3646  0.2946
  665SOL     OW 2657   2.842   0.873   2.012 -0.2891 -0.1227 -0.3057
  665SOL    HW1 2658   2.820   0.920   1.928  1.9226 -2.3065  1.6911
  665SOL    HW2 2659   2.926   0.830   1.989  0.4575 -0.7264 -0.9110
  665SOL     MW 2660   2.850   0.874   1.998  0.1012 -0.4905 -0.1221
  666SOL     OW 2661   2.757   3.011   1.704  0.1984 -0.2480  0.1452
  666SOL    HW1 2662   2.766   3.058   1.623 -0.6049 -1.4549  2.5275
  666SOL    HW2 2663   2.679   2.958   1.688 -2.3951 -0.1807  0.3890
  666SOL     MW 2664   2.748   3.010   1.692 -0.2498 -0.3983  0.4917
  667SOL     OW 2665   1.979   2.665   1.768 -0.0474  0.1399 -0.0500
  667SOL    HW1 2666   2.032   2.600   1.811 -1.0574  0.8099  0.8929
  667SOL    HW2 2667   2.043   2.733   1.741 -0.0018  1.7223  0.0593
  667SOL     MW 2668   1.994   2.665   1.770 -0.1746  0.4371  0.0888
  668SOL     OW 2669   2.743   0.619   0.789  0.3986 -0.3209  0.2737
  668SOL    HW1 2670   2.791   0.614   0.875  0.1942  0.4100  1.1267
  668SOL    HW2 2671   2.671   0.691   0.807  0.5922  3.2894  1.3213
  668SOL     MW 2672   2.740   0.628   0.802  0.3972  0.2519  0.5245
  669SOL     OW 2673   0.221   0.971   0.710 -0.0013  0.3550 -0.2104
  669SOL    HW1 2674   0.150   1.002   0.763  0.5967 -3.7218 -4.5278
  669SOL    HW2 2675   0.303   0.956   0.764 -0.2382 -1.8925  1.3430
  669SOL     MW 2676   0.222   0.973   0.724  0.0463 -0.4795 -0.5750
  670SOL     OW 2677   2.891   0.228   0.226  0.4260  0.0489  0.5583
  670SOL    HW1 2678   2.900   0.159   0.154  0.7881  1.9177 -1.1411
  670SOL    HW2 2679   2.865   0.312   0.187 -0.5561  0.7648  0.6227
  670SOL     MW 2680   2.889   0.230   0.211  0.3442  0.3899  0.3426
  671SOL     OW 2681   2.044   2.954   1.470 -0.3517  0.1146 -0.1602
  671SOL    HW1 2682   1.972   2.972   1.413  0.8115  0.2701  1.0075
  671SOL    HW2 2683   2.033   3.015   1.546 -4.2152  0.4387 -0.5107
  671SOL     MW 2684   2.033   2.964   1.473 -0.7080  0.1779 -0.0524
  672SOL     OW 2685   1.910   1.668   1.330  0.0845 -0.0889 -0.4972
  672SOL    HW1 2686   1.816   1.656   1.344  1.1516  0.8704  0.3729
  672SOL    HW2 2687   1.919   1.742   1.263  0.8767 -1.1024  0.3141
  672SOL     MW 2688   1.899   1.676   1.323  0.3298 -0.0960 -0.2753
  673SOL     OW 2689   2.753   1.074   0.593 -0.3510  0.2493  0.1359
  673SOL    HW1 2690   2.790   0.986   0.619 -1.3724 -0.0045 -1.0310
  673SOL    HW2 2691   2.826   1.133   0.601 -0.0978  0.0362 -0.0733
  673SOL     MW 2692   2.768   1.070   0.598 -0.4523  0.1877 -0.0457
  674SOL     OW 2693   2.450   0.025   1.273 -0.1762  0.0936  0.2639
  674SOL    HW1 2694   2.434   0.016   1.177  1.8212 -1.1222  0.5200
  674SOL    HW2 2695   2.472  -0.068   1.298 -4.1879 -0.0236  0.1544
  674SOL     MW 2696   2.451   0.011   1.264 -0.4420 -0.0823  0.2833
  675SOL     OW 2697   3.022   0.859   1.061  0.1948  0.1010 -0.4142
  675SOL    HW1 2698   3.092   0.869   1.130 -0.3121 -3.7333  0.6619
  675SOL    HW2 2699   3.044   0.907   0.985  0.8298 -1.3195  1.9263
  675SOL     MW 2700   3.034   0.867   1.060  0.2117 -0.5923  0.0366
  676SOL     OW 2701   2.844   1.491   1.680  0.1017  0.2103 -0.1524
  676SOL    HW1 2702   2.802   1.395   1.652 -0.7544 -1.1353 -2.1098
  676SOL    HW2 2703   2.920   1.482   1.742  1.2064  0.9339  0.2746
  676SOL     MW 2704   2.848   1.477   1.684  0.1345  0.1282 -0.3543
  677SOL     OW 2705   2.407   0.631   1.963 -0.4181 -0.3541  0.1845
  677SOL    HW1 2706   2.343   0.583   1.914  1.0650  1.3348 -2.7536
  677SOL    HW2 2707   2.346   0.690   2.011  1.0602 -1.4703  0.2840
  677SOL     MW 2708   2.390   0.632   1.963 -0.0274 -0.2786 -0.1900
  678SOL     OW 2709   2.517   1.642   0.365 -0.0708  0.2988 -0.2206
  678SOL    HW1 2710   2.428   1.690   0.360  0.4732  0.0843  0.2418
  678SOL    HW2 2711   2.521   1.585   0.279 -2.0879 -2.2985 -1.2342
  678SOL     MW 2712   2.506   1.641   0.353 -0.2652 -0.0722 -0.2933
  679SOL     OW 2713   2.259   0.497   1.205 -0.3901 -0.0307  0.0750
  679SOL    HW1 2714   2.221   0.410   1.188 -0.1442 -0.8143  1.4009
  679SOL    HW2 2715   2.193   0.567   1.203  0.2895  0.1971  0.3642
  679SOL     MW 2716   2.245   0.495   1.203 -0.2680 -0.1040  0.2881
  680SOL     OW 2717   2.317   0.166   1.514 -0.2071  0.2804  0.3186
  680SOL    HW1 2718   2.232   0.174   1.480  3.3770  0.6295  0.0092
  680SOL    HW2 2719   2.363   0.104   1.457 -1.3453  2.1898  1.5170
  680SOL     MW 2720   2.312   0.159   1.502  0.1156  0.5784  0.4359
  681SOL     OW 2721   0.302   0.586   1.577 -0.4191  0.6235  0.3354
  681SOL    HW1 2722   0.279   0.510   1.626  0.6754  3.2985 -2.5931
  681SOL    HW2 2723   0.395   0.574   1.580 -1.2264  1.3477 -2.5410
  681SOL     MW 2724   0.311   0.575   1.584 -0.3812  1.0720 -0.4305
  682SOL     OW 2725   0.078   2.901   1.477 -0.0616 -0.2050  0.1965
  682SOL    HW1 2726   0.111   2.990   1.454  1.2051 -0.9532  0.1930
  682SOL    HW2 2727   0.017   2.919   1.549  0.2257 -1.5619  0.5309
  682SOL     MW 2728   0.075   2.915   1.483  0.1434 -0.4827  0.2402
  683SOL     OW 2729   2.064   0.889   2.999 -0.1703 -0.3254 -0.1468
  683SOL    HW1 2730   1.984   0.853   2.968  1.8558  0.5174 -1.4437
  683SOL    HW2 2731   2.046   0.984   3.010 -1.2325 -0.2567 -1.6619
  683SOL     MW 2732   2.051   0.897   2.996 -0.0431 -0.2051 -0.5178
  684SOL     OW 2733   2.223   1.697   0.895  0.0432 -0.0021 -0.4885
  684SOL    HW1 2734   2.125   1.703   0.879 -0.0900  1.7922 -2.8165
  684SOL    HW2 2735   2.248   1.608   0.930  0.4085 -1.4064  1.1801
  684SOL     MW 2736   2.213   1.686   0.898  0.0738  0.0494 -0.5755
  685SOL     OW 2737   2.668   1.749   1.213 -0.2038  0.0781  0.2161
  685SOL    HW1 2738   2.668   1.707   1.300  0.0701  0.8707  0.7035
  685SOL    HW2 2739   2.620   1.687   1.152 -1.1953 -0.3872  1.3899
  685SOL     MW 2740   2.661   1.735   1.216 -0.2984  0.1212  0.4352
  686SOL     OW 2741   2.922   0.746   1.554 -0.0810  0.0948 -0.0700
  686SOL    HW1 2742   2.940   0.683   1.623 -2.5027  1.2733  0.0244
  686SOL    HW2 2743   2.997   0.735   1.492 -1.7332 -0.9774  0.6406
  686SOL     MW 2744   2.934   0.736   1.555 -0.6185  0.1088  0.0362
  687SOL     OW 2745   2.074   0.237   1.126  0.7997 -0.8334 -0.3613
  687SOL    HW1 2746   2.125   0.172   1.085 -0.8681 -2.8439  1.0566
  687SOL    HW2 2747   2.028   0.290   1.059  0.5294  2.1801  2.1513
  687SOL     MW 2748   2.074   0.236   1.112  0.5440 -0.7011  0.1573
  688SOL     OW 2749   2.376   0.606   1.420  0.1076  0.5313  0.9578
  688SOL    HW1 2750   2.338   0.576   1.334  1.2248 -1.8763  0.1754
  688SOL    HW2 2751   2.302   0.626   1.473  0.8061 -1.0010 -1.8483
  688SOL     MW 2752   2.361   0.605   1.415  0.3472  0.0115  0.4843
  689SOL     OW 2753   2.550   0.731   2.977  0.1846  0.2493 -0.3938
  689SOL    HW1 2754   2.591   0.803   2.930  0.7128 -2.1560  1.4198
  689SOL    HW2 2755   2.601   0.735   3.068 -2.5838  1.3693  0.9076
  689SOL     MW 2756   2.562   0.741   2.983 -0.1110  0.0797  0.0172
  690SOL     OW 2757   2.074   0.937   1.908  0.0407 -0.7148  0.1646
  690SOL    HW1 2758   2.020   0.856   1.893 -2.2681  2.4545  0.5969
  690SOL    HW2 2759   2.125   0.940   1.829  0.9996 -0.1821  2.5471
  690SOL     MW 2760   2.074   0.927   1.896 -0.1374 -0.2263  0.5360
  691SOL     OW 2761   2.425   0.253   0.869 -0.0906  0.6159  0.1207
  691SOL    HW1 2762   2.498   0.309   0.895  0.9961 -0.4225 -0.9461
  691SOL    HW2 2763   2.352   0.314   0.881 -0.9179 -1.8984  3.4073
  691SOL     MW 2764   2.425   0.268   0.874 -0.0563  0.1472  0.4136
  692SOL     OW 2765   2.779   1.651   1.466 -0.7084  1.0736 -0.2576
  692SOL    HW1 2766   2.808   1.596   1.542  2.2456  2.5805  0.3102
  692SOL    HW2 2767   2.833   1.730   1.469  0.1140 -2.5158  0.4146
  692SOL     MW 2768   2.790   1.654   1.476 -0.2101  0.7988 -0.0940
  693SOL     OW 2769   2.297   0.465   0.086 -0.9936 -0.1508 -0.0602
  693SOL    HW1 2770   2.235   0.393   0.063  0.0633 -2.6129 -1.7950
  693SOL    HW2 2771   2.269   0.560   0.053 -1.4500 -1.8333  0.9368
  693SOL     MW 2772   2.285   0.468   0.079 -0.9144 -0.6976 -0.1575
  694SOL     OW 2773   1.900   1.217   1.129 -0.2886  0.3995  0.0728
  694SOL    HW1 2774   1.995   1.203   1.155  0.2682  1.5027  1.8712
  694SOL    HW2 2775   1.855   1.142   1.173 -0.4965  2.0043 -1.9081
  694SOL     MW 2776   1.906   1.205   1.138 -0.2426  0.7568  0.0487
  695SOL     OW 2777   3.025   1.475   1.365 -0.0001  0.3023 -0.2243
  695SOL    HW1 2778   3.013   1.463   1.272 -0.5287  0.3247  1.8245
  695SOL    HW2 2779   2.956   1.532   1.391  0.7079 -1.3158 -0.4818
  695SOL     MW 2780   3.014   1.481   1.356  0.0236  0.0918  0.0121
  696SOL     OW 2781   2.137   1.374   0.880  0.4308  0.2867  0.0952
  696SOL    HW1 2782   2.169   1.407   0.967 -0.4018 -0.2554 -3.5119
  696SOL    HW2 2783   2.083   1.298   0.899 -0.8112  0.2862 -1.9660
  696SOL     MW 2784   2.134   1.368   0.894  0.1571  0.2151 -0.6527
  697SOL     OW 2785   2.940   1.087   2.180  0.0477 -0.7478  0.4583
  697SOL    HW1 2786   2.873   1.147   2.171  1.8478 -0.9726 -1.1833
  697SOL    HW2 2787   2.911   1.009   2.130 -0.5405  2.3038  1.0239
  697SOL     MW 2788   2.927   1.085   2.172  0.2076 -0.3748  0.3163
  698SOL     OW 2789   2.531   0.309   0.048  0.4616 -0.3267 -0.2183
  698SOL    HW1 2790   2.446   0.346   0.076 -0.3767 -1.4238  0.2745
  698SOL    HW2 2791   2.551   0.249   0.127  0.2494 -1.9521  0.5084
  698SOL     MW 2792   2.522   0.306   0.062  0.3230 -0.6859 -0.0574
  699SOL     OW 2793   1.847   1.624   1.991  0.1112 -0.5092  0.0579
  699SOL    HW1 2794   1.812   1.538   1.987 -3.4057  4.4775  1.7421
  699SOL    HW2 2795   1.940   1.627   2.002 -1.7692  2.5404 -0.2217
  699SOL     MW 2796   1.854   1.613   1.992 -0.6009  0.5511  0.2432
  700SOL     OW 2797   2.706   0.945   1.489 -0.0557 -0.0726 -0.0895
  700SOL    HW1 2798   2.728   1.008   1.419 -2.8806  0.9046 -1.0742
  700SOL    HW2 2799   2.783   0.885   1.489  3.9039  2.2311 -0.0313
  700SOL     MW 2800   2.719   0.945   1.479  0.0940  0.3603 -0.2117
  701SOL     OW 2801   1.616   1.238   2.475  0.1298 -0.3294 -0.2876
  701SOL    HW1 2802   1.714   1.256   2.469  1.1984 -0.1904 -0.7898
  701SOL    HW2 2803   1.609   1.239   2.567  0.3723 -1.4217 -0.9891
  701SOL     MW 2804   1.628   1.240   2.487  0.3028 -0.4552 -0.4464
  702SOL     OW 2805   2.200   0.425   0.873 -0.1551 -0.3059 -0.0758
  702SOL    HW1 2806   2.156   0.377   0.797 -1.1289 -0.9376 -0.8449
  702SOL    HW2 2807   2.229   0.508   0.835 -2.3602  0.8650  0.5848
  702SOL     MW 2808   2.198   0.430   0.858 -0.5745 -0.2348 -0.0901
  703SOL     OW 2809   2.745   1.238   0.997 -0.0113  0.2726 -0.1658
  703SOL    HW1 2810   2.684   1.234   0.919 -1.3657 -1.4386  0.6566
  703SOL    HW2 2811   2.760   1.150   1.021  0.7253 -0.4042  3.0289
  703SOL     MW 2812   2.739   1.226   0.990 -0.0928 -0.0425  0.3642
  704SOL     OW 2813   3.087   1.271   0.203 -0.8955 -0.6184 -0.4127
  704SOL    HW1 2814   3.011   1.229   0.151 -2.6837  1.5011 -1.8569
  704SOL    HW2 2815   3.084   1.252   0.292  1.6932  2.9622 -1.6856
  704SOL     MW 2816   3.076   1.263   0.208 -0.7899  0.1337 -0.7712
  705SOL     OW 2817   2.218   1.643   1.327  0.0666  0.4265 -0.2610
  705SOL    HW1 2818   2.114   1.649   1.337 -0.8071  0.3452 -1.0643
  705SOL    HW2 2819   2.238   1.551   1.360 -1.8162 -3.6991 -0.7324
  705SOL     MW 2820   2.207   1.632   1.333 -0.2971 -0.1286 -0.4292
  706SOL     OW 2821   2.971   1.213   0.692  0.9299 -0.0833 -0.2195
  706SOL    HW1 2822   3.033   1.210   0.614 -0.7159  0.3719  0.3744
  706SOL    HW2 2823   2.940   1.307   0.703  0.5361 -1.5532  1.6587
  706SOL     MW 2824   2.975   1.225   0.683  0.6608 -0.2172  0.1067
  707SOL     OW 2825   2.421   0.025   1.009  0.3798 -0.2832  0.4860
  707SOL    HW1 2826   2.411   0.110   0.968  1.7949 -1.6239  1.5627
  707SOL    HW2 2827   2.334  -0.004   1.000 -0.2280  1.2225  2.2167
  707SOL     MW 2828   2.408   0.033   1.002  0.4863 -0.2615  0.8564
  708SOL     OW 2829   2.518   1.479   0.125 -0.5979 -0.3470  0.3481
  708SOL    HW1 2830   2.593   1.427   0.151  0.4355  0.4072  0.0794
  708SOL    HW2 2831   2.511   1.487   0.029  0.4400  0.5507 -2.5656
  708SOL     MW 2832   2.527   1.473   0.116 -0.3246 -0.1290 -0.0718
  709SOL     OW 2833   1.756   1.662   0.137  0.3624 -1.0915  0.6285
  709SOL    HW1 2834   1.725   1.686   0.047 -2.2448  4.6236 -1.8410
  709SOL    HW2 2835   1.683   1.675   0.203  1.6509 -1.1555  3.0715
  709SOL     MW 2836   1.742   1.666   0.134  0.1884 -0.3459  0.6250
  710SOL     OW 2837   2.189   1.180   1.239  0.6457 -0.1441  0.5484
  710SOL    HW1 2838   2.250   1.149   1.171 -1.2651 -2.1278 -0.6067
  710SOL    HW2 2839   2.166   1.094   1.281 -2.3730 -1.7903 -0.3545
  710SOL     MW 2840   2.194   1.165   1.236 -0.0047 -0.6230  0.2769
  711SOL     OW 2841   2.352   0.120   1.782 -0.0587 -0.1279 -0.1262
  711SOL    HW1 2842   2.445   0.114   1.779 -1.8266  0.2612 -1.2101
  711SOL    HW2 2843   2.330   0.094   1.696  0.1470 -1.1267  3.6292
  711SOL     MW 2844   2.361   0.116   1.771 -0.2648 -0.2084  0.2263
  712SOL     OW 2845   1.919   0.527   0.036  0.2527 -0.2943  0.5087
  712SOL    HW1 2846   1.848   0.547  -0.026  0.1090  0.7734  1.4397
  712SOL    HW2 2847   1.918   0.594   0.105  1.1224 -2.8538 -2.5641
  712SOL     MW 2848   1.909   0.538   0.037  0.3485 -0.4911  0.2261
  713SOL     OW 2849   2.584   0.803   1.102 -0.1856 -0.2429  0.2501
  713SOL    HW1 2850   2.593   0.702   1.103 -2.1409 -3.0336 -4.1925
  713SOL    HW2 2851   2.509   0.820   1.158  0.5991 -0.4526  0.1656
  713SOL     MW 2852   2.575   0.792   1.110 -0.3400 -0.6388 -0.3472
  714SOL     OW 2853   2.200   0.224   1.986 -0.1010  0.0629  0.7375
  714SOL    HW1 2854   2.243   0.197   2.069 -1.6869 -0.9524 -2.3357
  714SOL    HW2 2855   2.272   0.212   1.920 -0.9270  0.1492 -3.5897
  714SOL     MW 2856   2.215   0.219   1.989 -0.4193 -0.0597 -0.2389
  715SOL     OW 2857   1.727   1.952   1.672  0.0365  0.4653  0.2080
  715SOL    HW1 2858   1.814   1.918   1.654 -3.2090  0.4708 -1.6185
  715SOL    HW2 2859   1.689   1.866   1.703  2.6172 -0.9329  1.5038
  715SOL     MW 2860   1.733   1.936   1.674 -0.0512  0.2815  0.1380
  716SOL     OW 2861   2.336   0.634   0.714 -0.2322  0.3123 -0.7587
  716SOL    HW1 2862   2.380   0.565   0.664 -1.2074  0.5096 -1.8072
  716SOL    HW2 2863   2.262   0.653   0.658 -1.1033  0.2044 -0.8997
  716SOL     MW 2864   2.332   0.627   0.700 -0.4758  0.3241 -0.9156
  717SOL     OW 2865   2.893   1.504   2.928  0.2280  0.1851  0.2240
  717SOL    HW1 2866   2.985   1.517   2.947 -0.0157  2.7090  0.9498
  717SOL    HW2 2867   2.849   1.573   2.982 -1.6929  0.1210 -0.0347
  717SOL     MW 2868   2.899   1.515   2.938 -0.0576  0.5096  0.2856
  718SOL     OW 2869   2.613   1.373   1.352  0.6110  0.3137 -0.3436
  718SOL    HW1 2870   2.628   1.430   1.422 -0.0080  0.1008  0.8306
  718SOL    HW2 2871   2.688   1.320   1.337  1.1104  0.9949  0.3701
  718SOL     MW 2872   2.625   1.374   1.359  0.5953  0.3755 -0.0945
  719SOL     OW 2873   2.223   1.348   0.617 -0.7792 -0.4216 -0.0823
  719SOL    HW1 2874   2.314   1.361   0.586 -0.1510  2.2375  1.2279
  719SOL    HW2 2875   2.225   1.346   0.712 -1.4367 -3.5146  0.8293
  719SOL     MW 2876   2.235   1.349   0.626 -0.7830 -0.4789  0.2109
  720SOL     OW 2877   2.878   1.148   0.070 -0.3559  0.1484 -0.6417
  720SOL    HW1 2878   2.839   1.063   0.098 -1.6826 -1.0970 -1.1433
  720SOL    HW2 2879   2.829   1.213   0.129 -3.4901  1.3935  1.2246
  720SOL     MW 2880   2.867   1.146   0.082 -0.9444  0.1484 -0.4616
  721SOL     OW 2881   2.432   0.890   1.355 -0.0735 -0.8564  0.1029
  721SOL    HW1 2882   2.422   0.799   1.393 -1.9210  0.4446  1.2160
  721SOL    HW2 2883   2.523   0.903   1.350 -1.1780 -1.1205 -0.2323
  721SOL     MW 2884   2.443   0.880   1.359 -0.4630 -0.7196  0.2055
  722SOL     OW 2885   2.573   1.152   0.369 -0.2092  0.5031 -0.3370
  722SOL    HW1 2886   2.538   1.229   0.410  0.2534  0.2537  1.4454
  722SOL    HW2 2887   2.632   1.112   0.440 -1.1943 -2.8028  2.7745
  722SOL     MW 2888   2.576   1.157   0.384 -0.2781  0.0340  0.3087
  723SOL     OW 2889   2.260   1.415   1.641 -0.0740  0.3617  0.6334
  723SOL    HW1 2890   2.288   1.391   1.552  3.6161 -0.9174  0.2004
  723SOL    HW2 2891   2.210   1.496   1.646 -1.8809 -0.5116 -1.1316
  723SOL     MW 2892   2.257   1.423   1.630  0.1744  0.0777  0.3434
  724SOL     OW 2893   2.477   0.401   0.631 -0.4697 -0.3397  0.1836
  724SOL    HW1 2894   2.449   0.332   0.689 -0.2308  2.0715  0.5837
  724SOL    HW2 2895   2.573   0.402   0.635  0.6425 -0.7022 -1.2010
  724SOL     MW 2896   2.486   0.392   0.639 -0.2914 -0.0694  0.0537
  725SOL     OW 2897   2.556   0.528   1.176  0.5921  0.5992  0.5952
  725SOL    HW1 2898   2.620   0.557   1.244 -0.4987 -2.1034 -3.0720
  725SOL    HW2 2899   2.475   0.539   1.219  1.1833  1.8743  2.5313
  725SOL     MW 2900   2.553   0.533   1.191  0.5262  0.4109  0.3668
  726SOL     OW 2901   2.588   2.450   0.534 -0.0946 -0.2830 -0.3926
  726SOL    HW1 2902   2.543   2.517   0.481  3.6907 -1.3894 -2.1833
  726SOL    HW2 2903   2.527   2.399   0.579  2.1189  0.2206  2.3936
  726SOL     MW 2904   2.574   2.452   0.533  0.6969 -0.3626 -0.2612
  727SOL     OW 2905   2.883   0.300   1.627 -0.6160 -0.2261 -0.0166
  727SOL    HW1 2906   2.891   0.323   1.537 -0.2144  2.6147 -0.0523
  727SOL    HW2 2907   2.795   0.314   1.655  0.6140  1.8580  0.9511
  727SOL     MW 2908   2.872   0.305   1.619 -0.4008  0.4237  0.1064
  728SOL     OW 2909   2.807   1.141   2.908  0.2582  0.4223 -0.4797
  728SOL    HW1 2910   2.826   1.223   2.864 -0.5633 -0.2234  1.9558
  728SOL    HW2 2911   2.847   1.162   2.993 -1.0430  0.6876 -0.2611
  728SOL     MW 2912   2.815   1.155   2.914 -0.0218  0.3721 -0.1295
  729SOL     OW 2913   2.553   1.547   1.098 -0.1230 -0.3450  0.4984
  729SOL    HW1 2914   2.613   1.491   1.147 -1.4858 -2.4079  0.4677
  729SOL    HW2 2915   2.584   1.548   0.999  1.3215  1.3670  1.4114
  729SOL     MW 2916   2.565   1.540   1.091 -0.1122 -0.3913  0.6148
  730SOL     OW 2917   2.144   1.183   0.235 -0.2619  0.1682 -0.1595
  730SOL    HW1 2918   2.235   1.167   0.206  3.3908  0.1584  0.2346
  730SOL    HW2 2919   2.126   1.278   0.239  1.1355 -0.5361  0.0519
  730SOL     MW 2920   2.153   1.193   0.232  0.4044  0.0740 -0.0796
  731SOL     OW 2921   2.863   1.897   2.883  0.0855  0.0534 -0.0328
  731SOL    HW1 2922   2.785   1.915   2.818 -3.2429  0.8346 -2.0080
  731SOL    HW2 2923   2.922   1.976   2.877  1.2246  0.0428  0.6043
  731SOL     MW 2924   2.861   1.910   2.874 -0.2033  0.1551 -0.2094
  732SOL     OW 2925   2.167   0.944   1.378 -0.5417  0.7311 -0.4167
  732SOL    HW1 2926   2.150   0.946   1.473  2.6871  3.4079  0.9834
  732SOL    HW2 2927   2.262   0.944   1.375  1.2000 -1.1221  0.8220
  732SOL     MW 2928   2.177   0.944   1.390  0.1141  0.8398 -0.0686
  733SOL     OW 2929   2.327   2.800   3.031 -0.4662 -0.5079  0.6592
  733SOL    HW1 2930   2.252   2.853   3.006  1.4873 -1.3987 -0.9519
  733SOL    HW2 2931   2.298   2.706   3.028 -0.7165 -0.1285 -0.0348
  733SOL     MW 2932   2.313   2.795   3.028 -0.2415 -0.5754  0.3551
  734SOL     OW 2933   1.502   0.373   2.457  0.0300  0.4887  0.0298
  734SOL    HW1 2934   1.500   0.333   2.542  0.7174  1.4412  2.0613
  734SOL    HW2 2935   1.524   0.298   2.394  2.0914  1.4565 -2.4615
  734SOL     MW 2936   1.505   0.357   2.460  0.3927  0.7421 -0.0309
  735SOL     OW 2937   2.943   0.941   2.584 -0.2196 -0.2654 -0.1849
  735SOL    HW1 2938   2.912   0.845   2.591 -1.2799  1.7117  0.9876
  735SOL    HW2 2939   2.999   0.960   2.659  0.8020  1.8207  0.1382
  735SOL     MW 2940   2.947   0.931   2.595 -0.2247  0.2707  0.0124
  736SOL     OW 2941   0.136   0.578   2.550  0.1184 -0.2318 -0.1394
  736SOL    HW1 2942   0.175   0.655   2.503  1.9767  3.1630 -0.5876
  736SOL    HW2 2943   0.098   0.526   2.477 -0.5385  0.0232  0.0203
  736SOL     MW 2944   0.136   0.582   2.534  0.2769  0.2498 -0.1775
  737SOL     OW 2945   2.938   0.673   2.601  0.3869 -0.0343 -0.8837
  737SOL    HW1 2946   2.904   0.642   2.517 -0.2222  0.6873 -1.1683
  737SOL    HW2 2947   3.032   0.665   2.589  1.2642  0.6696  0.3061
  737SOL     MW 2948   2.946   0.668   2.589  0.4223  0.1538 -0.7643
  738SOL     OW 2949   0.225   0.563   1.900  0.5271  0.5873  0.1282
  738SOL    HW1 2950   0.311   0.597   1.918  0.3157 -1.7813 -2.0660
  738SOL    HW2 2951   0.250   0.476   1.858  0.3594 -0.4334 -2.2296
  738SOL     MW 2952   0.240   0.556   1.897  0.4771  0.1401 -0.4724
  739SOL     OW 2953   2.421   1.046   2.131 -0.2023  0.0529  0.0315
  739SOL    HW1 2954   2.362   0.981   2.092 -2.9311  1.1319  0.0325
  739SOL    HW2 2955   2.495   1.051   2.072 -0.7050 -1.7217 -0.4164
  739SOL     MW 2956   2.423   1.038   2.118 -0.6287 -0.0389 -0.0275
  740SOL     OW 2957   0.193   1.773   2.990  0.8045  0.0404 -0.0623
  740SOL    HW1 2958   0.155   1.684   2.978  1.4916 -0.5428  2.0011
  740SOL    HW2 2959   0.283   1.744   3.005  0.6204 -1.8325  0.0813
  740SOL     MW 2960   0.200   1.758   2.991  0.8708 -0.2837  0.2289
  741SOL     OW 2961   2.267   1.288   2.698  0.3679 -0.5038  0.1538
  741SOL    HW1 2962   2.206   1.335   2.642  0.2825  2.4932  0.3870
  741SOL    HW2 2963   2.244   1.324   2.785 -1.4405 -1.4271  0.8826
  741SOL     MW 2964   2.256   1.299   2.702  0.1180 -0.2302  0.2807
  742SOL     OW 2965   1.571   1.276   2.222  0.2351 -0.5574 -0.6231
  742SOL    HW1 2966   1.554   1.184   2.201 -1.1596 -0.8843 -1.5840
  742SOL    HW2 2967   1.587   1.277   2.317 -2.4537 -0.9920  1.3399
  742SOL     MW 2968   1.571   1.264   2.232 -0.3037 -0.6579 -0.4909
  743SOL     OW 2969   2.534   1.264   2.801 -0.3767  0.3529 -0.2392
  743SOL    HW1 2970   2.437   1.279   2.790  0.1146  0.3578  1.3931
  743SOL    HW2 2971   2.547   1.169   2.815  1.6068 -4.8933  1.7331
  743SOL     MW 2972   2.523   1.253   2.801 -0.0502 -0.3386  0.2364
  744SOL     OW 2973   2.747   0.980   1.779 -0.0533 -0.9864  0.1392
  744SOL    HW1 2974   2.678   1.044   1.813 -2.6138 -0.8447  0.8994
  744SOL    HW2 2975   2.713   0.951   1.692  1.6597 -2.1970  0.6461
  744SOL     MW 2976   2.733   0.984   1.772 -0.1651 -1.1274  0.3064
  745SOL     OW 2977   1.775   0.415   2.508 -0.6146 -0.1361  0.2803
  745SOL    HW1 2978   1.814   0.460   2.430 -0.8808  0.3889  0.3969
  745SOL    HW2 2979   1.683   0.407   2.483  1.8190 -0.0811  0.5142
  745SOL     MW 2980   1.768   0.420   2.494 -0.3286 -0.0596  0.3265
  746SOL     OW 2981   1.476   1.432   1.674 -0.1748 -0.2140 -0.9695
  746SOL    HW1 2982   1.554   1.483   1.697  0.5278 -1.4545 -1.6435
  746SOL    HW2 2983   1.450   1.401   1.762 -1.8923  1.5184  0.7667
  746SOL     MW 2984   1.483   1.434   1.688 -0.3087 -0.1491 -0.8293
  747SOL     OW 2985   2.551   1.160   1.885 -0.6986  0.4832 -0.3643
  747SOL    HW1 2986   2.488   1.156   1.817 -0.3084  1.4639  1.7400
  747SOL    HW2 2987   2.561   1.252   1.912 -2.5424 -0.5364  1.7964
  747SOL     MW 2988   2.544   1.172   1.880 -0.8904  0.4781  0.1985
  748SOL     OW 2989   0.092   0.045   1.854  0.1866  0.9337 -0.9384
  748SOL    HW1 2990   0.186   0.045   1.857  1.5727 -0.0956  0.3820
  748SOL    HW2 2991   0.058   0.096   1.928 -0.8097  0.7315  0.5091
  748SOL     MW 2992   0.100   0.052   1.864  0.2380  0.7712 -0.5732
  749SOL     OW 2993   2.414   0.527   2.781  0.2779 -0.2967  0.0670
  749SOL    HW1 2994   2.459   0.608   2.777  2.2911  0.3105  1.2101
  749SOL    HW2 2995   2.413   0.514   2.881  0.8854  1.5307  2.8970
  749SOL     MW 2996   2.420   0.536   2.793  0.6237  0.0245  0.5912
  750SOL     OW 2997   2.051   3.099   1.950  0.5143  0.4980 -0.1849
  750SOL    HW1 2998   2.105   3.178   1.964 -3.3565  1.6160 -0.2575
  750SOL    HW2 2999   2.112   3.025   1.944  2.9554 -1.4072 -2.0270
  750SOL     MW 3000   2.066   3.100   1.951  0.3257  0.3941 -0.4375
  751SOL     OW 3001   0.026   0.432   2.329  0.2690 -0.2650 -0.7808
  751SOL    HW1 3002  -0.043   0.371   2.335 -0.4956  1.5157 -0.1655
  751SOL    HW2 3003   0.071   0.407   2.243 -1.6080 -1.7569 -2.7820
  751SOL     MW 3004   0.023   0.421   2.318 -0.0795 -0.2269 -0.9637
  752SOL     OW 3005   2.139   0.867   2.710  0.4442  0.0804 -0.1721
  752SOL    HW1 3006   2.211   0.924   2.682 -0.8855  1.8278 -1.5480
  752SOL    HW2 3007   2.146   0.857   2.805 -0.1212 -2.0794 -0.8833
  752SOL     MW 3008   2.150   0.873   2.719  0.1941  0.0260 -0.4475
  753SOL     OW 3009   2.865   0.315   2.320 -0.0086 -0.3703 -0.2939
  753SOL    HW1 3010   2.796   0.250   2.299  2.1007 -2.9899 -0.3452
  753SOL    HW2 3011   2.823   0.398   2.344  1.7465  0.2866 -1.0959
  753SOL     MW 3012   2.851   0.317   2.321  0.5013 -0.6292 -0.4065
  754SOL     OW 3013   2.219   3.024   2.667  0.3887 -0.0311  0.1602
  754SOL    HW1 3014   2.225   3.022   2.568 -0.1042 -0.7421  1.0469
  754SOL    HW2 3015   2.296   2.973   2.695 -1.8269  1.3732 -0.8934
  754SOL     MW 3016   2.230   3.017   2.658  0.0314  0.0604  0.1382
  755SOL     OW 3017   2.761   1.567   2.490 -0.4423  0.0313  0.1327
  755SOL    HW1 3018   2.756   1.473   2.502 -2.6273  0.6778  1.8418
  755SOL    HW2 3019   2.792   1.603   2.570  2.2180 -0.2014 -1.8292
  755SOL     MW 3020   2.764   1.560   2.502 -0.3796  0.0859  0.0993
  756SOL     OW 3021   2.256   1.292   3.000  0.0343  0.0292 -0.2497
  756SOL    HW1 3022   2.320   1.361   3.002 -1.8582  0.4795 -3.4211
  756SOL    HW2 3023   2.293   1.203   3.020 -1.4271 -0.3483  0.6434
  756SOL     MW 3024   2.269   1.289   3.003 -0.4082  0.0388 -0.5503
  757SOL     OW 3025   2.123   0.956   1.664 -0.1270 -0.1069 -0.3087
  757SOL    HW1 3026   2.151   0.863   1.644 -1.7993  0.0752 -0.8071
  757SOL    HW2 3027   2.029   0.961   1.644  0.8969  0.9007 -1.8552
  757SOL     MW 3028   2.114   0.944   1.659 -0.2126  0.0501 -0.5785
  758SOL     OW 3029   2.225   1.765   2.680 -0.2726 -0.4083 -0.5246
  758SOL    HW1 3030   2.227   1.796   2.589 -1.8583  0.8340 -0.6242
  758SOL    HW2 3031   2.319   1.730   2.695 -1.4974 -3.4573  0.9605
  758SOL     MW 3032   2.238   1.764   2.670 -0.6434 -0.6467 -0.3418
  759SOL     OW 3033   1.562   1.322   2.722  0.3523 -0.2899  0.3938
  759SOL    HW1 3034   1.558   1.416   2.694 -1.2024  1.4209 -2.2792
  759SOL    HW2 3035   1.623   1.336   2.790 -1.4776  0.8521 -0.8993
  759SOL     MW 3036   1.570   1.336   2.727 -0.0943  0.0865 -0.1295
  760SOL     OW 3037   2.626   1.933   2.708 -0.5711 -0.3180  0.3140
  760SOL    HW1 3038   2.568   1.866   2.676 -0.7220 -2.9697 -2.3447
  760SOL    HW2 3039   2.676   1.964   2.634 -1.9179  1.9021 -1.0996
  760SOL     MW 3040   2.625   1.928   2.694 -0.7687 -0.3749 -0.2233
  761SOL     OW 3041   2.104   0.453   2.464 -0.0738  0.5275  0.2478
  761SOL    HW1 3042   2.051   0.365   2.479  0.2838 -0.5977  1.9861
  761SOL    HW2 3043   2.128   0.485   2.557 -2.6630 -0.9572  1.1207
  761SOL     MW 3044   2.100   0.446   2.478 -0.3682  0.1831  0.5924
  762SOL     OW 3045   3.094   0.185   2.043  0.7047  0.0776 -0.0250
  762SOL    HW1 3046   3.054   0.140   2.118 -2.4416 -0.2771  0.6294
  762SOL    HW2 3047   3.035   0.261   2.034 -0.7468  1.0909 -0.3759
  762SOL     MW 3048   3.081   0.189   2.052  0.0981  0.1645  0.0151
  763SOL     OW 3049   2.376   1.140   2.372 -0.0301 -0.0698 -0.1323
  763SOL    HW1 3050   2.403   1.113   2.284 -2.2519  0.0371 -1.4991
  763SOL    HW2 3051   2.448   1.200   2.393 -0.9538 -0.0505  1.4875
  763SOL     MW 3052   2.389   1.145   2.363 -0.4451 -0.0532 -0.0989
  764SOL     OW 3053   0.349   0.185   2.827  0.6225  0.0919 -0.1030
  764SOL    HW1 3054   0.258   0.178   2.806  0.3034 -0.5471  2.0111
  764SOL    HW2 3055   0.352   0.262   2.889  1.0621  1.2973 -0.0469
  764SOL     MW 3056   0.338   0.194   2.832  0.6384  0.1667  0.1833
  765SOL     OW 3057   2.683   0.112   2.298 -0.1063 -0.3365 -0.2969
  765SOL    HW1 3058   2.625   0.089   2.225 -2.5545 -2.1240 -0.1019
  765SOL    HW2 3059   2.741   0.039   2.316 -0.1821  0.9092 -0.2477
  765SOL     MW 3060   2.683   0.099   2.290 -0.4393 -0.4080 -0.2647
  766SOL     OW 3061   1.850   3.023   2.144  0.1254  0.0744 -0.5855
  766SOL    HW1 3062   1.897   3.086   2.088  2.0628 -1.1045  1.8738
  766SOL    HW2 3063   1.808   2.962   2.082 -0.5062  0.4393  0.1912
  766SOL     MW 3064   1.851   3.023   2.129  0.2977 -0.0330 -0.1586
  767SOL     OW 3065   2.682   0.637   1.882  0.0826  0.6911  0.7612
  767SOL    HW1 3066   2.714   0.721   1.909 -1.2071  2.4477 -0.4653
  767SOL    HW2 3067   2.588   0.640   1.866  2.7182 -0.2140 -0.3727
  767SOL     MW 3068   2.674   0.648   1.884  0.2602  0.8034  0.4497
  768SOL     OW 3069   0.057   1.550   2.955 -0.1304 -0.4064  0.0941
  768SOL    HW1 3070   0.076   1.511   3.041  0.7564  1.4790  0.9257
  768SOL    HW2 3071   0.113   1.503   2.893 -0.5358  2.7472  0.6181
  768SOL     MW 3072   0.067   1.539   2.958 -0.0669  0.2584  0.2730
  769SOL     OW 3073   2.361   0.660   2.356 -0.6352  0.5781 -0.5089
  769SOL    HW1 3074   2.289   0.614   2.320  2.3143 -0.1680  1.4756
  769SOL    HW2 3075   2.439   0.618   2.322 -0.0715 -0.1702  0.5770
  769SOL     MW 3076   2.361   0.649   2.347 -0.1717  0.3809 -0.1038
  770SOL     OW 3077   0.007   1.650   2.583  0.2494  0.0634  0.6303
  770SOL    HW1 3078  -0.071   1.677   2.635  0.3999  1.0047 -0.6241
  770SOL    HW2 3079   0.050   1.578   2.635 -0.0785  2.4949  0.3009
  770SOL     MW 3080   0.002   1.644   2.597  0.2260  0.5084  0.4214
  771SOL     OW 3081   3.071   0.646   1.945 -0.3249  0.3506  0.0743
  771SOL    HW1 3082   3.032   0.592   1.868 -1.3854  3.6537 -1.9678
  771SOL    HW2 3083   3.163   0.629   1.937 -3.2966  0.4518 -3.8930
  771SOL     MW 3084   3.078   0.637   1.934 -0.8569  0.7998 -0.7186
  772SOL     OW 3085   3.096   0.042   2.287 -0.1682 -0.4847  0.0881
  772SOL    HW1 3086   3.003   0.012   2.306 -3.3982 -0.2472  0.6770
  772SOL    HW2 3087   3.132  -0.034   2.239  1.2500 -0.1590 -0.3485
  772SOL     MW 3088   3.089   0.028   2.283 -0.4073 -0.4104  0.1082
  773SOL     OW 3089   2.432   2.844   2.767  0.3360 -0.4500 -0.2893
  773SOL    HW1 3090   2.408   2.774   2.703  1.6187 -1.4615 -1.8826
  773SOL    HW2 3091   2.427   2.815   2.858 -0.1378 -0.3380 -1.2041
  773SOL     MW 3092   2.429   2.831   2.771  0.4427 -0.5687 -0.6202
  774SOL     OW 3093   2.288   1.168   1.740  0.0090 -0.5314 -0.3083
  774SOL    HW1 3094   2.262   1.251   1.693 -2.0550  1.4831  0.4060
  774SOL    HW2 3095   2.228   1.099   1.716  0.1269  4.0131 -3.3466
  774SOL     MW 3096   2.276   1.170   1.730 -0.2477  0.3340 -0.6149
  775SOL     OW 3097   2.243   3.010   2.400 -0.4896  0.3473  0.5471
  775SOL    HW1 3098   2.260   3.092   2.352  2.0867 -1.5040 -0.0543
  775SOL    HW2 3099   2.313   2.954   2.368 -0.0445  2.4243 -1.0258
  775SOL     MW 3100   2.255   3.014   2.389 -0.0910  0.3771  0.2602
  776SOL     OW 3101   0.140   1.468   0.128  0.1238 -0.1967  0.6664
  776SOL    HW1 3102   0.220   1.416   0.110  0.0178 -1.7428  0.5221
  776SOL    HW2 3103   0.077   1.397   0.142 -0.3586 -1.1503  2.3498
  776SOL     MW 3104   0.142   1.452   0.127  0.0462 -0.5265  0.8695
  777SOL     OW 3105   2.994   1.071   1.720  0.3795 -0.1092 -0.0156
  777SOL    HW1 3106   2.971   1.149   1.668  2.1927  1.1297 -1.7950
  777SOL    HW2 3107   2.900   1.042   1.734 -2.6447  0.9857 -0.9283
  777SOL     MW 3108   2.978   1.077   1.715  0.2197  0.1987 -0.3708
  778SOL     OW 3109   2.828   0.451   2.757  0.3253 -0.4308  0.2676
  778SOL    HW1 3110   2.781   0.472   2.837 -1.2182 -2.3338 -1.4588
  778SOL    HW2 3111   2.846   0.537   2.729  1.1715  1.4850  1.8552
  778SOL     MW 3112   2.824   0.465   2.764  0.2333 -0.4291  0.2493
  779SOL     OW 3113   2.104   0.549   2.194 -0.3038  0.1135  0.6954
  779SOL    HW1 3114   2.073   0.634   2.185 -0.5364 -1.9630  0.5872
  779SOL    HW2 3115   2.071   0.525   2.278 -3.0487 -2.3771  1.4234
  779SOL     MW 3116   2.096   0.557   2.204 -0.6967 -0.4891  0.7772
  780SOL     OW 3117   0.112   0.236   2.704  0.3990 -0.4267  0.4329
  780SOL    HW1 3118   0.091   0.319   2.742  1.0515 -2.7002  1.0680
  780SOL    HW2 3119   0.044   0.243   2.636 -1.1990 -1.5194  0.0178
  780SOL     MW 3120   0.101   0.248   2.700  0.2743 -0.8709  0.4619
  781SOL     OW 3121   3.037   1.313   2.513 -0.2426  0.0246  0.1377
  781SOL    HW1 3122   3.011   1.373   2.441 -0.0423  0.1700  0.3962
  781SOL    HW2 3123   3.062   1.232   2.469 -0.0229  2.0586 -2.2041
  781SOL     MW 3124   3.037   1.310   2.498 -0.1872  0.3122 -0.1372
  782SOL     OW 3125   0.694   1.519   3.091  0.5276 -0.5419  0.0742
  782SOL    HW1 3126   0.626   1.581   3.074 -1.3250 -0.6893  2.7994
  782SOL    HW2 3127   0.699   1.515   3.189  3.0566  0.1615  3.3057
  782SOL     MW 3128   0.686   1.527   3.101  0.6168 -0.4685  0.8601
  783SOL     OW 3129   2.718   0.531   2.435  0.2138 -0.2185 -0.1826
  783SOL    HW1 3130   2.665   0.533   2.354  2.0881 -2.1858 -0.0249
  783SOL    HW2 3131   2.661   0.479   2.500  0.0884 -0.5981 -1.1636
  783SOL     MW 3132   2.703   0.524   2.433  0.4445 -0.5281 -0.2912
  784SOL     OW 3133   0.170   0.828   2.780  0.2755  0.1080 -0.2623
  784SOL    HW1 3134   0.101   0.890   2.771  3.3104  0.0935 -1.9704
  784SOL    HW2 3135   0.245   0.875   2.729  0.1833 -0.6684 -2.2171
  784SOL     MW 3136   0.171   0.843   2.772  0.6637  0.0037 -0.7456
  785SOL     OW 3137   0.422   0.513   2.175 -0.3582  0.1487 -0.2331
  785SOL    HW1 3138   0.460   0.548   2.096 -0.8394  4.2746  1.4427
  785SOL    HW2 3139   0.348   0.459   2.146  0.3476  0.3017  0.1836
  785SOL     MW 3140   0.417   0.511   2.161 -0.3285  0.7132  0.0430
  786SOL     OW 3141   1.975   0.304   2.930 -0.2226  0.6912 -0.0812
  786SOL    HW1 3142   2.016   0.387   2.957  0.8206 -2.6577 -0.7729
  786SOL    HW2 3143   1.997   0.291   2.836  0.4846 -3.6535  1.4413
  786SOL     MW 3144   1.983   0.314   2.922  0.0084 -0.3239  0.0284
  787SOL     OW 3145   2.427   0.188   2.902 -0.8551  0.7596 -0.1292
  787SOL    HW1 3146   2.501   0.128   2.870  1.7993 -1.4760 -0.1118
  787SOL    HW2 3147   2.461   0.246   2.963 -1.7399 -0.2452  1.0900
  787SOL     MW 3148   2.441   0.188   2.906 -0.6216  0.3320  0.0339
  788SOL     OW 3149   2.859   2.990   2.338 -0.0856  0.1190  0.0853
  788SOL    HW1 3150   2.870   2.968   2.437  5.5201 -0.0652  0.6798
  788SOL    HW2 3151   2.899   2.914   2.284  2.2926  0.0073  0.5481
  788SOL     MW 3152   2.866   2.977   2.344  0.9678  0.0800  0.2248
  789SOL     OW 3153   0.088   0.162   3.058 -0.1243  0.3145 -0.1666
  789SOL    HW1 3154   0.003   0.110   3.070 -1.3973 -2.6987  0.1897
  789SOL    HW2 3155   0.072   0.242   3.010 -0.0455  1.1163  1.5235
  789SOL     MW 3156   0.075   0.166   3.053 -0.2819  0.0228  0.1034
  790SOL     OW 3157   0.009   1.068   2.396 -0.0367  0.0748  0.6565
  790SOL    HW1 3158  -0.044   1.006   2.448 -2.1680 -0.6040  3.4478
  790SOL    HW2 3159  -0.050   1.077   2.318 -3.1831 -2.4718  1.6939
  790SOL     MW 3160  -0.006   1.061   2.393 -0.7330 -0.3507  1.1616
  791SOL     OW 3161   2.596   0.393   2.623 -0.3703  0.3589  0.7316
  791SOL    HW1 3162   2.525   0.435   2.663 -0.1631  1.3882 -0.7997
  791SOL    HW2 3163   2.671   0.417   2.683  1.3584  0.0762  0.8998
  791SOL     MW 3164   2.597   0.401   2.636 -0.1149  0.4574  0.5518
  792SOL     OW 3165   2.352   0.337   2.406 -0.4229  0.0642 -0.4386
  792SOL    HW1 3166   2.270   0.380   2.394  3.1947  2.4981  0.7561
  792SOL    HW2 3167   2.352   0.281   2.483  2.7983  3.9224 -0.2098
  792SOL     MW 3168   2.341   0.335   2.414  0.4794  0.8944 -0.2507
  793SOL     OW 3169   1.898   1.151   1.944 -1.0757 -0.0834  0.0340
  793SOL    HW1 3170   1.859   1.169   1.850 -0.5923 -0.5047 -0.0787
  793SOL    HW2 3171   1.966   1.084   1.925  2.2947  0.9890  1.1903
  793SOL     MW 3172   1.902   1.145   1.929 -0.5672  0.0025  0.1717
  794SOL     OW 3173   1.422   2.303   0.145  0.3450 -0.4250  0.4454
  794SOL    HW1 3174   1.466   2.349   0.079 -0.3172  2.9688  0.8092
  794SOL    HW2 3175   1.474   2.313   0.225 -0.8264 -0.7397 -1.5759
  794SOL     MW 3176   1.435   2.310   0.147  0.1031 -0.0187  0.2267
  795SOL     OW 3177   2.337   1.026   2.629 -0.5823 -0.1605  0.6962
  795SOL    HW1 3178   2.305   1.114   2.676 -2.6299 -0.9307  0.7243
  795SOL    HW2 3179   2.345   1.046   2.535  0.1044  1.0257 -1.8460
  795SOL     MW 3180   2.334   1.041   2.623 -0.7619 -0.1056  0.3645
  796SOL     OW 3181   0.306   0.576   2.795 -0.0330  0.3023 -0.2707
  796SOL    HW1 3182   0.298   0.676   2.808  0.1313  0.9692  4.9328
  796SOL    HW2 3183   0.246   0.559   2.725  1.3287  0.4934  0.9274
  796SOL     MW 3184   0.297   0.587   2.788  0.1684  0.4155  0.5740
  797SOL     OW 3185   2.630   0.139   2.595 -0.2912  0.0430 -0.2494
  797SOL    HW1 3186   2.613   0.223   2.627 -0.4654 -3.1840 -0.9626
  797SOL    HW2 3187   2.630   0.136   2.505 -1.2988 -0.1304 -1.7712
  797SOL     MW 3188   2.628   0.150   2.588 -0.4471 -0.4056 -0.5443
  798SOL     OW 3189   2.302   0.138   2.223 -0.0316  0.2138  0.0672
  798SOL    HW1 3190   2.339   0.210   2.278  0.9506 -0.2594  3.3911
  798SOL    HW2 3191   2.378   0.112   2.166  3.0941 -1.4547  2.0582
  798SOL     MW 3192   2.317   0.144   2.222  0.5104 -0.0688  0.7684
  799SOL     OW 3193   2.545   2.936   3.092  0.2471  0.4639 -0.5963
  799SOL    HW1 3194   2.456   2.897   3.094 -0.8339  2.5907  1.9113
  799SOL    HW2 3195   2.518   3.017   3.058 -2.4160 -2.1811  0.1823
  799SOL     MW 3196   2.529   2.941   3.088 -0.2469  0.3955 -0.1627
  800SOL     OW 3197   1.974   3.093   1.689 -0.0758  0.0551  0.3985
  800SOL    HW1 3198   1.890   3.052   1.694 -0.3127 -0.6625  3.0673
  800SOL    HW2 3199   2.008   3.089   1.775 -0.8368 -0.5745  0.8823
  800SOL     MW 3200   1.967   3.087   1.701 -0.2074 -0.1227  0.8144
  801SOL     OW 3201   2.794   1.287   2.649 -0.4368  0.1953 -0.1277
  801SOL    HW1 3202   2.755   1.196   2.648  2.1773 -0.0550 -0.9694
  801SOL    HW2 3203   2.875   1.273   2.599  0.2382 -0.1228  0.0429
  801SOL     MW 3204   2.800   1.273   2.642 -0.0029  0.1203 -0.2163
  802SOL     OW 3205   2.626   1.522   2.762  0.5942  0.1897 -0.2413
  802SOL    HW1 3206   2.621   1.421   2.771  0.3838 -0.0869  2.5073
  802SOL    HW2 3207   2.712   1.546   2.794 -0.7922 -0.9227 -2.6932
  802SOL     MW 3208   2.637   1.512   2.767  0.3835  0.0064 -0.2022
  803SOL     OW 3209   2.304   1.339   1.973  0.1519 -0.1513  0.1973
  803SOL    HW1 3210   2.274   1.292   2.055  0.1476 -1.6822  2.5745
  803SOL    HW2 3211   2.296   1.282   1.895 -0.1771  1.5500 -1.1983
  803SOL     MW 3212   2.299   1.326   1.974  0.1079 -0.1288  0.3268
  804SOL     OW 3213   2.304   0.040   0.014  0.0382 -0.2043 -0.5504
  804SOL    HW1 3214   2.233   0.115   0.028 -1.0524 -0.9542 -0.4495
  804SOL    HW2 3215   2.337   0.066  -0.074  1.5177  1.3354  0.3193
  804SOL     MW 3216   2.299   0.053   0.004  0.0895 -0.1001 -0.4224
  805SOL     OW 3217   2.683   1.044   2.576 -0.1735 -0.2829  0.7766
  805SOL    HW1 3218   2.641   1.014   2.496  1.2086  2.1270 -0.6907
  805SOL    HW2 3219   2.770   0.996   2.582 -0.4771 -0.5237 -4.2972
  805SOL     MW 3220   2.689   1.034   2.567 -0.0312  0.0033 -0.0864
  806SOL     OW 3221   2.535   0.498   2.194 -0.1713 -1.2271  0.2449
  806SOL    HW1 3222   2.503   0.414   2.216 -0.4363  1.0629 -0.0991
  806SOL    HW2 3223   2.506   0.532   2.106 -0.0868  1.9916  0.5606
  806SOL     MW 3224   2.527   0.491   2.186 -0.1951 -0.5003  0.2412
  807SOL     OW 3225   0.028   1.168   1.981  0.1786 -0.4084 -0.1688
  807SOL    HW1 3226   0.038   1.074   1.956  1.5269 -1.4012  1.6273
  807SOL    HW2 3227  -0.045   1.181   2.031  0.4550  1.5976 -1.2677
  807SOL     MW 3228   0.020   1.158   1.984  0.3930 -0.2747 -0.0768
  808SOL     OW 3229   2.581   3.069   2.812 -0.8558 -0.4995 -0.5267
  808SOL    HW1 3230   2.541   2.977   2.796 -0.4380  0.1999  0.5915
  808SOL    HW2 3231   2.597   3.109   2.722  1.3096  1.1197 -0.5328
  808SOL     MW 3232   2.578   3.062   2.798 -0.5150 -0.1936 -0.3800
  809SOL     OW 3233   2.595   1.315   2.426 -0.5526 -0.5451 -0.3320
  809SOL    HW1 3234   2.645   1.271   2.499 -1.3812 -0.8651 -1.1006
  809SOL    HW2 3235   2.655   1.340   2.359 -0.8252  2.2084  1.1756
  809SOL     MW 3236   2.610   1.313   2.427 -0.6979 -0.2241 -0.2345
  810SOL     OW 3237   2.188   1.280   2.232 -0.1944 -0.1033  0.1944
  810SOL    HW1 3238   2.266   1.240   2.278  1.2629 -1.0977  1.2410
  810SOL    HW2 3239   2.108   1.227   2.251  0.4183  0.1966 -1.2020
  810SOL     MW 3240   2.188   1.268   2.241  0.0787 -0.1950  0.1482
  811SOL     OW 3241   1.561   0.140   2.330 -0.1503  0.0088  0.1535
  811SOL    HW1 3242   1.620   0.075   2.366 -0.5726  0.3044 -4.0320
  811SOL    HW2 3243   1.558   0.126   2.232  1.3765 -0.2583 -0.4709
  811SOL     MW 3244   1.569   0.130   2.321 -0.0046  0.0126 -0.4811
  812SOL     OW 3245   1.473   2.864   2.065  0.3584  0.2776  0.8768
  812SOL    HW1 3246   1.556   2.870   2.023 -2.2013  2.2037  1.7163
  812SOL    HW2 3247   1.497   2.804   2.134 -0.5301  1.5425 -0.5353
  812SOL     MW 3248   1.487   2.857   2.069 -0.0966  0.6986  0.8013
  813SOL     OW 3249   1.881   0.734   2.197  0.0353  0.1150 -0.6427
  813SOL    HW1 3250   1.795   0.689   2.201  2.5127  1.0890  0.3048
  813SOL    HW2 3251   1.891   0.757   2.291 -0.6626 -1.0412  1.6650
  813SOL     MW 3252   1.871   0.731   2.210  0.2701  0.0910 -0.2132
  814SOL     OW 3253   2.725   1.256   1.596  0.2907  0.1272 -0.5882
  814SOL    HW1 3254   2.644   1.211   1.614  1.1673  2.3376 -0.8840
  814SOL    HW2 3255   2.756   1.214   1.520 -2.2994 -2.0214  2.2433
  814SOL     MW 3256   2.718   1.244   1.589  0.0646  0.1353 -0.2536
  815SOL     OW 3257   2.525   1.711   2.359 -0.4829 -0.5940 -0.7989
  815SOL    HW1 3258   2.465   1.657   2.317  1.4795 -0.4515 -0.2584
  815SOL    HW2 3259   2.609   1.655   2.373 -0.1692 -3.3833 -1.0868
  815SOL     MW 3260   2.528   1.696   2.355 -0.1826 -0.9432 -0.7655
  816SOL     OW 3261   0.778   0.659   2.758 -0.0464 -0.3435 -0.1659
  816SOL    HW1 3262   0.769   0.575   2.799  2.6370 -2.0450 -1.1945
  816SOL    HW2 3263   0.685   0.671   2.723  1.0978 -0.1277  0.0777
  816SOL     MW 3264   0.765   0.650   2.758  0.4586 -0.5395 -0.2695
  817SOL     OW 3265   3.034   1.231   1.492  0.2100 -0.2111  0.1132
  817SOL    HW1 3266   3.128   1.228   1.492 -1.4372  2.2699  0.1651
  817SOL    HW2 3267   3.023   1.322   1.457  0.1230 -1.6765  1.4585
  817SOL     MW 3268   3.045   1.242   1.487 -0.0188 -0.0771  0.2976
  818SOL     OW 3269   1.903   1.015   2.658  0.2553  0.3907 -0.0142
  818SOL    HW1 3270   1.902   0.988   2.569 -0.1641  2.0527 -0.6460
  818SOL    HW2 3271   1.967   0.959   2.698  0.4828  0.2509 -1.0257
  818SOL     MW 3272   1.911   1.004   2.651  0.2300  0.5915 -0.2311
  819SOL     OW 3273   1.908   0.179   2.459 -0.3676  0.4133  0.2389
  819SOL    HW1 3274   1.849   0.247   2.472  2.5407 -1.8752  0.2323
  819SOL    HW2 3275   1.948   0.181   2.544 -1.6311  1.9099 -0.9266
  819SOL     MW 3276   1.905   0.188   2.472 -0.1506  0.3088  0.0843
  820SOL     OW 3277   2.483   1.733   2.628 -0.6380  0.0646  0.0100
  820SOL    HW1 3278   2.535   1.661   2.674  1.6643  0.0743 -0.9135
  820SOL    HW2 3279   2.497   1.711   2.537 -1.6616  0.0614  0.2172
  820SOL     MW 3280   2.492   1.721   2.622 -0.4693  0.0655 -0.0845
  821SOL     OW 3281   2.570   1.418   2.003 -0.7570 -0.8481 -0.6331
  821SOL    HW1 3282   2.602   1.464   1.919  0.3168  3.1834 -1.1009
  821SOL    HW2 3283   2.477   1.401   1.985  2.5757 -3.2278 -0.8267
  821SOL     MW 3284   2.562   1.422   1.989 -0.1756 -0.6302 -0.7203
  822SOL     OW 3285   2.722   2.632   1.419  0.2939 -0.0952  0.9690
  822SOL    HW1 3286   2.791   2.665   1.479 -0.2972  0.8855  1.5505
  822SOL    HW2 3287   2.693   2.714   1.370 -1.4426  1.2936  0.5524
  822SOL     MW 3288   2.727   2.647   1.420 -0.0132  0.2175  0.9907
  823SOL     OW 3289   2.263   0.501   1.739 -0.5367  0.0383  0.4309
  823SOL    HW1 3290   2.346   0.474   1.692 -2.4807 -0.6345 -2.8216
  823SOL    HW2 3291   2.203   0.429   1.724  0.9629  1.0186  0.8696
  823SOL     MW 3292   2.266   0.488   1.730 -0.5954  0.0789  0.0596
  824SOL     OW 3293   2.076   1.419   2.549 -0.1872  0.0763  0.5814
  824SOL    HW1 3294   2.112   1.472   2.479 -0.6441  1.4981  1.4879
  824SOL    HW2 3295   2.036   1.490   2.604  0.6239 -0.2906  1.9015
  824SOL     MW 3296   2.075   1.435   2.547 -0.1404  0.2155  0.8752
  825SOL     OW 3297   1.947   2.563   0.301  1.0345  0.5138 -0.3761
  825SOL    HW1 3298   1.934   2.507   0.377 -1.5703 -2.3376 -1.3395
  825SOL    HW2 3299   2.004   2.515   0.239 -0.6446 -1.4354 -3.0260
  825SOL     MW 3300   1.953   2.550   0.303  0.4693 -0.1196 -0.8529
  826SOL     OW 3301   1.900   2.359   0.505  0.2911  0.3918 -0.4685
  826SOL    HW1 3302   1.871   2.279   0.561 -0.6649  0.4773  2.3481
  826SOL    HW2 3303   1.868   2.437   0.551 -0.0329  2.3205 -2.3026
  826SOL     MW 3304   1.892   2.358   0.519  0.1222  0.6576 -0.3388
  827SOL     OW 3305   1.934   2.214   0.941 -0.4641  0.0335 -0.3053
  827SOL    HW1 3306   1.909   2.289   0.893  1.4182  3.6833  0.1109
  827SOL    HW2 3307   1.862   2.152   0.952  1.0143  0.8382 -2.7566
  827SOL     MW 3308   1.922   2.216   0.936 -0.0207  0.6212 -0.5738
  828SOL     OW 3309   0.065   2.600   0.596 -0.7361 -0.1295 -0.4854
  828SOL    HW1 3310   0.146   2.605   0.543 -2.1107  1.9353 -1.0149
  828SOL    HW2 3311  -0.004   2.624   0.538  2.5716 -2.4464  0.2495
  828SOL     MW 3312   0.067   2.604   0.582 -0.4810 -0.1627 -0.4583
  829SOL     OW 3313   2.920   2.950   1.188 -0.4400  0.1104  0.8587
  829SOL    HW1 3314   2.846   2.921   1.137 -0.3107 -0.1040  0.3568
  829SOL    HW2 3315   2.981   2.876   1.193 -0.4622  0.3472  0.0927
  829SOL     MW 3316   2.918   2.937   1.182 -0.4259  0.1134  0.6914
  830SOL     OW 3317   2.510   2.850   2.052 -0.1049 -0.0219  0.0510
  830SOL    HW1 3318   2.419   2.860   2.024  0.5860  0.5233  1.3389
  830SOL    HW2 3319   2.553   2.822   1.967 -1.4613 -1.6584 -2.6040
  830SOL     MW 3320   2.503   2.847   2.037 -0.1927 -0.1659 -0.1294
  831SOL     OW 3321   2.403   2.441   1.303  0.0370 -0.7092  0.3553
  831SOL    HW1 3322   2.389   2.402   1.392  1.6990  0.8455 -0.2627
  831SOL    HW2 3323   2.492   2.405   1.276 -0.5986  1.3669  3.2597
  831SOL     MW 3324   2.413   2.431   1.311  0.1724 -0.2302  0.6570
  832SOL     OW 3325   2.414   2.183   1.903  0.5646  0.2557 -0.0589
  832SOL    HW1 3326   2.442   2.255   1.963 -0.8886 -0.7089  0.8263
  832SOL    HW2 3327   2.497   2.152   1.861  2.1149 -0.2823  0.7919
  832SOL     MW 3328   2.429   2.188   1.905  0.5774  0.0574  0.1702
  833SOL     OW 3329   1.781   2.460   0.884 -0.0209 -0.1000  0.0978
  833SOL    HW1 3330   1.705   2.413   0.890  1.6850  2.8408  0.8225
  833SOL    HW2 3331   1.789   2.492   0.982  1.6946 -0.0287 -0.5985
  833SOL     MW 3332   1.772   2.458   0.898  0.4305  0.2974  0.1016
  834SOL     OW 3333   2.190   2.482   0.577  0.6479  0.1602 -0.2026
  834SOL    HW1 3334   2.094   2.481   0.589  1.1271  0.0904  2.3594
  834SOL    HW2 3335   2.216   2.427   0.512  2.6411  1.7057  3.5909
  834SOL     MW 3336   2.181   2.475   0.570  0.9741  0.3549  0.6359
  835SOL     OW 3337   1.785   2.596   0.635  0.4168 -0.3086  0.3512
  835SOL    HW1 3338   1.737   2.569   0.716  0.9924 -0.1512 -1.7794
  835SOL    HW2 3339   1.862   2.647   0.679  0.9966  2.3713 -0.0023
  835SOL     MW 3340   1.789   2.600   0.651  0.5692  0.0658  0.0235
  836SOL     OW 3341   1.939   2.196   1.603  0.0118  0.2327  0.1418
  836SOL    HW1 3342   2.020   2.186   1.655  2.1343  3.8308 -0.4907
  836SOL    HW2 3343   1.872   2.243   1.654  0.7202  2.2358  1.4858
  836SOL     MW 3344   1.941   2.201   1.616  0.3853  0.9717  0.2357
  837SOL     OW 3345   2.125   0.194   0.714  0.2109  0.3101 -0.2713
  837SOL    HW1 3346   2.043   0.230   0.690 -0.0613 -0.1844  0.0930
  837SOL    HW2 3347   2.152   0.142   0.643 -0.7753  0.0028 -1.3118
  837SOL     MW 3348   2.118   0.192   0.702  0.0449  0.2043 -0.3606
  838SOL     OW 3349   2.938   2.157   0.904 -0.2192  0.1458 -0.7875
  838SOL    HW1 3350   2.868   2.111   0.959  0.0735 -0.2935  1.3262
  838SOL    HW2 3351   2.972   2.088   0.844 -1.3982  1.2780  0.2630
  838SOL     MW 3352   2.933   2.142   0.904 -0.3361  0.2372 -0.3700
  839SOL     OW 3353   1.537   2.327   0.952  0.5618 -0.2801  0.3095
  839SOL    HW1 3354   1.543   2.418   0.974 -0.9821  0.2703 -1.2414
  839SOL    HW2 3355   1.538   2.273   1.035 -0.1716 -0.9580  0.5108
  839SOL     MW 3356   1.538   2.332   0.966  0.2614 -0.2970  0.1315
  840SOL     OW 3357   2.301   2.085   2.414 -0.1718  0.8172  0.0287
  840SOL    HW1 3358   2.269   2.139   2.338 -2.4566  0.7336 -3.5920
  840SOL    HW2 3359   2.343   2.156   2.469  1.0626  0.8545  0.5247
  840SOL     MW 3360   2.303   2.102   2.411 -0.3104  0.8111 -0.3835
  841SOL     OW 3361   2.128   2.450   0.107  0.0530 -0.6008 -0.0741
  841SOL    HW1 3362   2.185   2.457   0.031 -0.3309  0.6786  1.4217
  841SOL    HW2 3363   2.099   2.355   0.105  1.3791 -1.2387  1.0409
  841SOL     MW 3364   2.132   2.438   0.096  0.1773 -0.5161  0.2704
  842SOL     OW 3365   2.661   1.914   1.605  1.1800 -0.1341 -0.2072
  842SOL    HW1 3366   2.600   1.839   1.617 -0.0678 -0.4187  0.5825
  842SOL    HW2 3367   2.621   1.963   1.537  0.9711  0.1479 -1.2289
  842SOL     MW 3368   2.648   1.911   1.598  0.9878 -0.1344 -0.2378
  843SOL     OW 3369   2.606   2.739   1.782  0.5299  0.1174 -0.1514
  843SOL    HW1 3370   2.697   2.707   1.764  0.1341  0.1573 -0.8530
  843SOL    HW2 3371   2.539   2.675   1.753 -1.8975 -1.5061 -0.3594
  843SOL     MW 3372   2.609   2.726   1.776  0.1574 -0.0915 -0.2714
  844SOL     OW 3373   2.604   2.295   1.206  0.5627  0.1891  0.2991
  844SOL    HW1 3374   2.618   2.316   1.113 -0.7918 -1.5846 -3.2786
  844SOL    HW2 3375   2.686   2.326   1.250 -1.6486 -2.8129 -1.0274
  844SOL     MW 3376   2.616   2.302   1.199  0.0922 -0.4410 -0.3480
  845SOL     OW 3377   2.858   2.463   0.301 -0.0521 -0.5138  0.2497
  845SOL    HW1 3378   2.791   2.396   0.310 -0.7162 -0.4970  0.9622
  845SOL    HW2 3379   2.872   2.494   0.386 -1.8844  0.7560 -1.8774
  845SOL     MW 3380   2.851   2.458   0.314 -0.3814 -0.3441  0.0631
  846SOL     OW 3381   1.531   2.874   0.776 -0.1894 -0.0325 -0.1412
  846SOL    HW1 3382   1.600   2.923   0.829  0.5104  1.7508 -2.7132
  846SOL    HW2 3383   1.446   2.894   0.806 -0.4877  1.4070 -0.3064
  846SOL     MW 3384   1.529   2.883   0.787 -0.1364  0.3927 -0.5023
  847SOL     OW 3385   2.537   1.916   0.156 -0.4697 -0.7119 -0.4257
  847SOL    HW1 3386   2.631   1.891   0.171  2.1006 -2.6335  2.0455
  847SOL    HW2 3387   2.505   1.844   0.106 -1.1478  0.3019  0.7307
  847SOL     MW 3388   2.545   1.903   0.151 -0.2200 -0.8317  0.0530
  848SOL     OW 3389   2.542   2.083   1.406  0.3450 -0.6414  0.0089
  848SOL    HW1 3390   2.549   2.154   1.344 -0.1336  0.8311  1.0800
  848SOL    HW2 3391   2.518   2.007   1.355 -1.6250 -1.8862  0.7883
  848SOL     MW 3392   2.540   2.082   1.391  0.0219 -0.6114  0.2530
  849SOL     OW 3393   1.970   2.731   0.769 -0.0756 -0.4369 -0.8688
  849SOL    HW1 3394   2.013   2.681   0.838 -0.5790 -2.9987 -0.7540
  849SOL    HW2 3395   2.042   2.740   0.705 -0.2208  0.0749  1.9451
  849SOL     MW 3396   1.986   2.726   0.770 -0.1612 -0.7074 -0.4824
  850SOL     OW 3397   2.212   1.959   1.625 -0.1676 -0.0661 -0.0434
  850SOL    HW1 3398   2.123   1.941   1.593 -1.2906 -0.9803 -0.0006
  850SOL    HW2 3399   2.218   2.048   1.656  2.4387  0.9257 -2.7809
  850SOL     MW 3400   2.201   1.969   1.625  0.0281 -0.0559 -0.3989
  851SOL     OW 3401   2.281   2.402   0.324 -0.0180 -0.0262  0.0749
  851SOL    HW1 3402   2.223   2.414   0.248  0.4968  1.7024  2.1767
  851SOL    HW2 3403   2.309   2.492   0.346 -0.5129 -3.4254 -0.8657
  851SOL     MW 3404   2.277   2.415   0.317 -0.0154 -0.2466  0.2281
  852SOL     OW 3405   2.377   2.152   0.283 -0.1531  0.2600  0.5815
  852SOL    HW1 3406   2.358   2.245   0.289  2.3706 -1.3731  2.0980
  852SOL    HW2 3407   2.478   2.154   0.287  2.5038 -3.5747 -0.5761
  852SOL     MW 3408   2.387   2.165   0.284  0.5304 -0.4614  0.6289
  853SOL     OW 3409   2.496   2.443   1.991  0.2075  0.0718  0.5843
  853SOL    HW1 3410   2.506   2.452   1.894 -0.1734 -0.1413  0.8723
  853SOL    HW2 3411   2.578   2.434   2.033 -2.8166 -0.5873 -1.8202
  853SOL     MW 3412   2.508   2.443   1.983 -0.2417 -0.0433  0.3050
  854SOL     OW 3413   2.812   2.333   0.735  0.1716  0.6580  0.4404
  854SOL    HW1 3414   2.736   2.295   0.696  0.2247  1.9625 -1.6620
  854SOL    HW2 3415   2.853   2.264   0.794  3.5934 -0.4701 -1.0904
  854SOL     MW 3416   2.808   2.319   0.738  0.6301  0.6813 -0.0390
  855SOL     OW 3417   2.712   2.243   0.381 -0.4117 -0.2234  0.6135
  855SOL    HW1 3418   2.664   2.278   0.461 -2.7967 -1.5912 -0.0373
  855SOL    HW2 3419   2.780   2.178   0.396  2.2105 -0.8871 -1.3239
  855SOL     MW 3420   2.715   2.239   0.394 -0.3804 -0.4914  0.2720
  856SOL     OW 3421   2.191   1.952   0.187  0.1993 -0.3950 -0.2590
  856SOL    HW1 3422   2.102   1.962   0.220 -0.8231  0.5588 -0.3401
  856SOL    HW2 3423   2.256   2.007   0.230  0.2305  0.9865 -0.8380
  856SOL     MW 3424   2.188   1.960   0.197  0.0685 -0.0869 -0.3461
  857SOL     OW 3425   2.605   1.979   0.484  0.3211  0.6743  0.1450
  857SOL    HW1 3426   2.653   2.047   0.435  0.8394 -1.3383  2.3261
  857SOL    HW2 3427   2.526   1.956   0.419  0.7652  0.1815  0.5071
  857SOL     MW 3428   2.601   1.985   0.469  0.4481  0.3437  0.4805
  858SOL     OW 3429   2.845   2.653   1.696  0.3050  0.2679  0.0899
  858SOL    HW1 3430   2.929   2.674   1.740 -0.5805 -1.0677  1.6922
  858SOL    HW2 3431   2.840   2.572   1.739  1.0938  1.6859 -3.2158
  858SOL     MW 3432   2.856   2.645   1.707  0.2922  0.2788 -0.1348
  859SOL     OW 3433   2.155   2.571   0.904  0.5422  0.5844 -0.0112
  859SOL    HW1 3434   2.134   2.481   0.883 -2.9994 -1.8824  1.2701
  859SOL    HW2 3435   2.247   2.582   0.884 -0.0253 -2.7979  1.0699
  859SOL     MW 3436   2.164   2.561   0.899  0.0001 -0.1873  0.3005
  860SOL     OW 3437   2.652   2.602   0.185  1.1156  0.1780 -0.3287
  860SOL    HW1 3438   2.729   2.565   0.228 -3.0938  0.6158  1.9520
  860SOL    HW2 3439   2.679   2.689   0.166 -2.8497 -0.6973  1.6753
  860SOL     MW 3440   2.666   2.608   0.188  0.0370  0.1203  0.2366
  861SOL     OW 3441   1.542   2.141   1.148  0.1393  0.6402 -0.4313
  861SOL    HW1 3442   1.560   2.202   1.217  1.1310 -0.5209  0.2543
  861SOL    HW2 3443   1.490   2.067   1.178  1.6167  0.4369  1.9539
  861SOL     MW 3444   1.537   2.140   1.161  0.4651  0.4602 -0.0262
  862SOL     OW 3445   2.424   1.780   1.538  0.1367  0.3979 -0.1649
  862SOL    HW1 3446   2.368   1.846   1.576 -1.2777  0.5197  0.8645
  862SOL    HW2 3447   2.409   1.794   1.445 -0.1015 -5.6962  0.7785
  862SOL     MW 3448   2.414   1.790   1.531 -0.0813 -0.3901  0.0954
  863SOL     OW 3449   3.040   1.861   1.058 -0.5112 -0.5460 -0.5213
  863SOL    HW1 3450   3.101   1.839   1.132 -0.5014  0.5608 -1.3366
  863SOL    HW2 3451   3.015   1.951   1.066 -0.0747 -0.6172 -0.4580
  863SOL     MW 3452   3.045   1.870   1.069 -0.4523 -0.4094 -0.6205
  864SOL     OW 3453   3.093   1.928   0.792 -0.6628 -0.5762 -0.1545
  864SOL    HW1 3454   3.064   1.897   0.879  0.3371  0.6643  0.9864
  864SOL    HW2 3455   3.054   1.855   0.737 -0.7714  3.1265 -2.2052
  864SOL     MW 3456   3.084   1.914   0.796 -0.5452  0.0760 -0.2745
  865SOL     OW 3457   2.625   2.126   0.012 -0.0581 -0.0514 -0.3253
  865SOL    HW1 3458   2.585   2.053   0.064 -2.1718  2.2938  0.6718
  865SOL    HW2 3459   2.579   2.112  -0.071 -0.3401  0.2866  1.4994
  865SOL     MW 3460   2.614   2.115   0.008 -0.3742  0.3027  0.0470
  866SOL     OW 3461   2.682   2.317   1.645  0.3845  0.1753 -0.2017
  866SOL    HW1 3462   2.684   2.238   1.701 -0.6340  1.3073  0.0720
  866SOL    HW2 3463   2.681   2.279   1.555 -1.9055  0.7703 -2.8849
  866SOL     MW 3464   2.682   2.302   1.641 -0.0520  0.4032 -0.5196
  867SOL     OW 3465   0.016   2.679   1.793  0.2943  0.7615  0.1413
  867SOL    HW1 3466   0.027   2.665   1.885 -2.0209  1.0294  2.4664
  867SOL    HW2 3467  -0.000   2.774   1.787 -2.6228  0.3632 -0.1807
  867SOL     MW 3468   0.016   2.689   1.805 -0.3961  0.7443  0.4056
  868SOL     OW 3469   2.828   2.612   0.564  0.2032  0.0467  0.3598
  868SOL    HW1 3470   2.748   2.563   0.585  0.1095 -1.2650 -0.4741
  868SOL    HW2 3471   2.805   2.682   0.496  0.2633 -0.0066  0.4462
  868SOL     MW 3472   2.814   2.615   0.558  0.1988 -0.1334  0.2611
  869SOL     OW 3473   2.040   2.371   1.157  0.9163 -0.0200  0.9640
  869SOL    HW1 3474   2.132   2.367   1.127  0.6438  0.3564  0.7430
  869SOL    HW2 3475   1.994   2.322   1.085  1.7247  2.1331 -1.3183
  869SOL     MW 3476   2.046   2.364   1.143  0.9870  0.3138  0.6337
  870SOL     OW 3477   2.154   3.088   0.477 -0.2402  0.0623  0.2075
  870SOL    HW1 3478   2.204   3.156   0.426  0.9515  2.3302 -2.9547
  870SOL    HW2 3479   2.200   3.002   0.461 -0.2058 -0.6020 -3.9615
  870SOL     MW 3480   2.167   3.086   0.468 -0.0784  0.2739 -0.7598
  871SOL     OW 3481   2.496   2.112   0.947 -0.2403 -0.0338 -0.0414
  871SOL    HW1 3482   2.431   2.047   0.912 -0.2093  2.8857  0.8926
  871SOL    HW2 3483   2.439   2.176   0.993  0.4130  1.4434 -1.0852
  871SOL     MW 3484   2.480   2.112   0.949 -0.1500  0.5463 -0.0559
  872SOL     OW 3485   2.043   2.566   1.500 -0.7700 -0.2992  0.4996
  872SOL    HW1 3486   2.017   2.582   1.593 -0.7288  1.9138  0.5366
  872SOL    HW2 3487   1.979   2.502   1.468 -0.0360 -0.6966 -0.2388
  872SOL     MW 3488   2.031   2.560   1.508 -0.6677 -0.0597  0.4071
  873SOL     OW 3489   2.932   2.039   1.901  0.3524  0.6603  0.1131
  873SOL    HW1 3490   2.953   2.091   1.980  0.2874  1.8218  0.1694
  873SOL    HW2 3491   3.000   2.040   1.840 -0.7008  0.0292  0.3960
  873SOL     MW 3492   2.944   2.046   1.904  0.2049  0.7303  0.1578
  874SOL     OW 3493   2.304   1.502   2.376 -0.7809 -0.8255 -0.2486
  874SOL    HW1 3494   2.256   1.441   2.318 -0.5183  1.9338  0.9422
  874SOL    HW2 3495   2.376   1.463   2.425 -1.6944  0.9618  1.4218
  874SOL     MW 3496   2.307   1.489   2.375 -0.8668 -0.2256  0.1289
  875SOL     OW 3497   2.314   2.325   1.078  0.6322 -0.0777 -0.1526
  875SOL    HW1 3498   2.351   2.369   0.999 -0.3538  0.8618 -0.7746
  875SOL    HW2 3499   2.346   2.366   1.159 -0.8007  1.1411 -1.3922
  875SOL     MW 3500   2.323   2.336   1.078  0.3130  0.2071 -0.3982
  876SOL     OW 3501   3.038   2.329   1.232 -0.3048 -0.1064  0.0334
  876SOL    HW1 3502   3.056   2.368   1.149 -2.6390 -0.9413 -0.9810
  876SOL    HW2 3503   3.101   2.378   1.292 -1.4525  1.4878 -0.0394
  876SOL     MW 3504   3.048   2.341   1.229 -0.7642 -0.0062 -0.1101
  877SOL     OW 3505   3.038   2.702   0.329  0.0136 -0.3498  0.0840
  877SOL    HW1 3506   3.113   2.757   0.345  0.5977 -0.7757  1.5354
  877SOL    HW2 3507   3.050   2.644   0.251  0.6151  3.8355 -1.8937
  877SOL     MW 3508   3.050   2.701   0.321  0.1700  0.1463  0.0146
  878SOL     OW 3509   2.414   1.846   1.268 -0.6979  0.0299 -0.4197
  878SOL    HW1 3510   2.382   1.758   1.260  0.9995 -0.7019  1.7185
  878SOL    HW2 3511   2.498   1.844   1.230 -1.1215  0.5236 -3.7143
  878SOL     MW 3512   2.421   1.835   1.262 -0.5298 -0.0015 -0.5722
  879SOL     OW 3513   2.663   2.414   0.959 -0.3025 -0.3157 -0.1921
  879SOL    HW1 3514   2.715   2.488   0.991 -0.4563  0.1196  0.5456
  879SOL    HW2 3515   2.708   2.382   0.883 -1.6149  0.9010  1.1437
  879SOL     MW 3516   2.676   2.420   0.954 -0.4960 -0.0978  0.0815
  880SOL     OW 3517   2.570   2.198   0.692  0.5422  0.3346 -0.3226
  880SOL    HW1 3518   2.563   2.171   0.788  2.2030  0.1321  4.0070
  880SOL    HW2 3519   2.533   2.124   0.637  0.2435 -0.6524 -1.0207
  880SOL     MW 3520   2.564   2.185   0.697  0.7219  0.1777  0.1566
  881SOL     OW 3521   2.934   2.696   0.788 -0.0364  0.9384  0.0711
  881SOL    HW1 3522   2.903   2.676   0.695  1.6076 -1.4535 -2.6135
  881SOL    HW2 3523   3.029   2.673   0.785  0.4201  1.4200  0.8451
  881SOL     MW 3524   2.943   2.690   0.775  0.2407  0.6864 -0.1810
  882SOL     OW 3525   2.257   2.882   1.927 -0.3693 -0.1290  0.4557
  882SOL    HW1 3526   2.234   2.881   1.834 -3.3595 -0.9868  0.5529
  882SOL    HW2 3527   2.215   2.807   1.960 -0.3177  1.2550 -1.6264
  882SOL     MW 3528   2.249   2.872   1.919 -0.7570 -0.0595  0.1938
  883SOL     OW 3529   2.303   2.254   1.501 -0.6217 -0.3081 -0.3354
  883SOL    HW1 3530   2.377   2.190   1.494  2.6549  0.0994 -2.3626
  883SOL    HW2 3531   2.258   2.222   1.423  0.3468 -0.9390 -1.3998
  883SOL     MW 3532   2.307   2.241   1.489 -0.0616 -0.3376 -0.7433
  884SOL     OW 3533   1.957   1.840   1.130 -0.1653 -0.2934 -0.9469
  884SOL    HW1 3534   1.875   1.878   1.091 -0.3348 -1.9850 -1.7971
  884SOL    HW2 3535   2.041   1.895   1.123  0.7049  0.9752  1.7568
  884SOL     MW 3536   1.957   1.853   1.124 -0.0729 -0.3492 -0.7023
  885SOL     OW 3537   2.855   2.412   1.821  0.3483 -0.4917  0.5566
  885SOL    HW1 3538   2.946   2.376   1.815  1.2611 -0.1815  1.0780
  885SOL    HW2 3539   2.800   2.371   1.750  0.7366 -1.0287  0.9561
  885SOL     MW 3540   2.860   2.402   1.810  0.5200 -0.5217  0.6781
  886SOL     OW 3541   2.799   2.368   1.377 -0.1645 -0.4143  0.3589
  886SOL    HW1 3542   2.882   2.372   1.333 -0.4149 -1.2245  0.0570
  886SOL    HW2 3543   2.789   2.449   1.425 -0.0022 -3.0305  1.8415
  886SOL     MW 3544   2.809   2.380   1.378 -0.1761 -0.8664  0.5146
  887SOL     OW 3545   2.308   2.592   1.556 -0.3331  0.2915 -0.6271
  887SOL    HW1 3546   2.347   2.632   1.480 -1.7637  0.0978 -1.6276
  887SOL    HW2 3547   2.226   2.551   1.516 -1.3524 -1.1993 -0.9973
  887SOL     MW 3548   2.303   2.592   1.541 -0.6563  0.0692 -0.8080
  888SOL     OW 3549   1.848   2.060   1.372  0.4843 -0.6727 -0.0288
  888SOL    HW1 3550   1.930   2.055   1.328 -0.5696 -0.4105  0.8350
  888SOL    HW2 3551   1.866   2.082   1.467 -1.7304 -0.3105  1.9500
  888SOL     MW 3552   1.861   2.063   1.379  0.0530 -0.5903  0.3463
  889SOL     OW 3553   2.308   2.000   2.099 -0.0533  0.0174  0.1820
  889SOL    HW1 3554   2.378   1.989   2.163 -1.3529 -1.0093  0.3461
  889SOL    HW2 3555   2.321   2.075   2.041  1.5240 -2.7079 -0.1578
  889SOL     MW 3556   2.319   2.008   2.100 -0.0167 -0.4776  0.1588
  890SOL     OW 3557   0.130   2.361   0.129  0.2183 -0.1459  0.0637
  890SOL    HW1 3558   0.084   2.442   0.095  2.5663  0.0264  1.3059
  890SOL    HW2 3559   0.079   2.333   0.208 -1.3071  1.3754 -2.0153
  890SOL     MW 3560   0.117   2.368   0.135  0.3268  0.0775 -0.0467
  891SOL     OW 3561   3.026   2.052   1.295  0.3359 -0.5977 -0.1111
  891SOL    HW1 3562   3.110   2.043   1.336  0.1751 -0.8793 -0.6946
  891SOL    HW2 3563   3.023   2.147   1.285  1.3389  0.8794  0.5272
  891SOL     MW 3564   3.037   2.064   1.299  0.4470 -0.4400 -0.1039
  892SOL     OW 3565   2.426   2.364   2.821 -0.1102 -0.0157 -0.6845
  892SOL    HW1 3566   2.414   2.269   2.829 -2.7953  1.7993  0.2058
  892SOL    HW2 3567   2.527   2.372   2.812 -1.0238  1.2589 -2.5561
  892SOL     MW 3568   2.438   2.353   2.821 -0.5850  0.3919 -0.8139
  893SOL     OW 3569   1.590   2.369   1.288  0.3126  0.9205 -0.2028
  893SOL    HW1 3570   1.545   2.432   1.343  0.3846 -0.4350 -1.3820
  893SOL    HW2 3571   1.682   2.373   1.314 -0.5247  0.0591  1.7571
  893SOL     MW 3572   1.596   2.377   1.299  0.2116  0.6280 -0.0998
  894SOL     OW 3573   2.830   1.815   0.477 -0.2043  0.6534 -0.1960
  894SOL    HW1 3574   2.748   1.870   0.491  3.4148 -0.4987 -0.7539
  894SOL    HW2 3575   2.834   1.806   0.377  1.5703  2.0773 -2.5428
  894SOL     MW 3576   2.819   1.821   0.465  0.5074  0.6892 -0.5792
  895SOL     OW 3577   2.125   2.160   1.306  0.4002 -0.7253 -0.7230
  895SOL    HW1 3578   2.088   2.228   1.252 -0.7968  2.8999 -1.2067
  895SOL    HW2 3579   2.146   2.093   1.247  0.4844  0.8013  2.4390
  895SOL     MW 3580   2.123   2.160   1.291  0.2534 -0.0455 -0.3696
  896SOL     OW 3581   2.148   2.793   1.069  0.3120 -0.0273  0.4700
  896SOL    HW1 3582   2.204   2.768   1.142  1.1461 -1.5281  1.7837
  896SOL    HW2 3583   2.136   2.699   1.030  0.8370 -0.9430  1.2444
  896SOL     MW 3584   2.154   2.777   1.074  0.4913 -0.3461  0.7455
  897SOL     OW 3585   2.998   2.904   0.116 -0.0932 -0.8773 -0.0107
  897SOL    HW1 3586   3.078   2.863   0.093  2.1552  0.2385 -0.0414
  897SOL    HW2 3587   2.915   2.854   0.097  0.2657  1.5769  0.8376
  897SOL     MW 3588   2.998   2.892   0.110  0.2508 -0.4063  0.0972
  898SOL     OW 3589   2.086   0.158   1.399  0.6196 -0.4440  0.2801
  898SOL    HW1 3590   2.018   0.096   1.396  1.2440 -0.1499  0.9669
  898SOL    HW2 3591   2.081   0.193   1.309  0.2885 -1.3101  0.1995
  898SOL     MW 3592   2.076   0.155   1.387  0.6583 -0.5195  0.3601
  899SOL     OW 3593   2.929   2.925   0.634 -0.2774  0.0025  0.0883
  899SOL    HW1 3594   2.935   2.848   0.691 -1.2917 -2.0962 -0.1125
  899SOL    HW2 3595   2.851   2.974   0.649  1.5848  0.1230 -0.0115
  899SOL     MW 3596   2.920   2.922   0.644 -0.1656 -0.2585  0.0486
  900SOL     OW 3597   0.079   2.443   1.021  0.4582 -0.2330 -0.0350
  900SOL    HW1 3598   0.078   2.537   0.999  0.2979  0.1138  2.9340
  900SOL    HW2 3599   0.062   2.393   0.939  2.6293  3.6651 -0.0225
  900SOL     MW 3600   0.076   2.449   1.007  0.7235  0.3271  0.3584
  901SOL     OW 3601   1.754   2.882   1.676 -0.1988  0.6693 -0.2063
  901SOL    HW1 3602   1.834   2.826   1.671  1.8410 -0.3426  0.8602
  901SOL    HW2 3603   1.700   2.863   1.598 -0.2813  1.1312 -1.3373
  901SOL     MW 3604   1.758   2.872   1.665  0.0594  0.5967 -0.2148
  902SOL     OW 3605   2.651   2.099   1.811  0.0175 -0.2463 -0.1336
  902SOL    HW1 3606   2.641   2.011   1.775 -1.0343 -1.6983 -1.4976
  902SOL    HW2 3607   2.737   2.081   1.852  2.4679  0.1860  2.1713
  902SOL     MW 3608   2.661   2.085   1.811  0.2021 -0.3808 -0.0094
  903SOL     OW 3609   1.602   2.763   0.511 -0.4826  0.0614 -0.2119
  903SOL    HW1 3610   1.672   2.705   0.545  0.8794 -1.5261  0.6074
  903SOL    HW2 3611   1.573   2.799   0.601  0.3906 -0.5579 -0.1107
  903SOL     MW 3612   1.607   2.760   0.527 -0.1877 -0.2298 -0.0905
  904SOL     OW 3613   2.494   2.492   1.713 -0.0252  0.2709 -0.3848
  904SOL    HW1 3614   2.422   2.505   1.652  0.3826 -0.7677  2.4594
  904SOL    HW2 3615   2.546   2.419   1.688 -0.4773  0.5103  2.1367
  904SOL     MW 3616   2.491   2.484   1.702 -0.0310  0.1655  0.3232
  905SOL     OW 3617   2.333   2.567   2.156 -0.1943  0.2361  0.0776
  905SOL    HW1 3618   2.406   2.560   2.097  0.4008 -0.8731 -0.5558
  905SOL    HW2 3619   2.313   2.475   2.180 -0.1614 -3.5708  0.4811
  905SOL     MW 3620   2.340   2.554   2.151 -0.1114 -0.4125  0.0473
  906SOL     OW 3621   2.418   2.550   0.909  0.2176 -0.7907  0.1393
  906SOL    HW1 3622   2.512   2.524   0.916 -1.2118  0.5431 -1.7102
  906SOL    HW2 3623   2.411   2.646   0.912 -0.2226 -3.5616 -0.4685
  906SOL     MW 3624   2.430   2.560   0.910 -0.0291 -0.9803 -0.1849
  907SOL     OW 3625   2.554   2.896   1.325  0.5300  0.0504 -0.3758
  907SOL    HW1 3626   2.607   2.928   1.397  0.9760 -3.0314  0.2936
  907SOL    HW2 3627   2.608   2.901   1.246  3.0187  0.4828 -0.4740
  907SOL     MW 3628   2.568   2.901   1.324  0.9172 -0.2991 -0.3005
  908SOL     OW 3629   2.752   2.368   0.008 -0.3483  0.1134 -0.0518
  908SOL    HW1 3630   2.700   2.288   0.028  0.9570  2.6745 -1.5682
  908SOL    HW2 3631   2.704   2.437   0.060  0.4653  1.5023  0.3981
  908SOL     MW 3632   2.739   2.367   0.018 -0.0688  0.6346 -0.1925
  909SOL     OW 3633   1.691   0.181   1.150  0.5164  0.1412 -0.1423
  909SOL    HW1 3634   1.676   0.247   1.078 -0.2410 -1.2440  0.0061
  909SOL    HW2 3635   1.761   0.228   1.203  2.6419 -1.0423 -1.1325
  909SOL     MW 3636   1.698   0.196   1.147  0.6969 -0.1977 -0.2534
  910SOL     OW 3637   2.273   1.785   0.388  0.7662  0.0517 -0.4766
  910SOL    HW1 3638   2.229   1.700   0.411 -0.0518  0.5006 -1.2375
  910SOL    HW2 3639   2.234   1.824   0.306  2.3472  1.3040  0.2379
  910SOL     MW 3640   2.262   1.779   0.380  0.8669  0.2761 -0.4827
  911SOL     OW 3641   2.179   2.197   1.736 -0.3376 -0.0665  0.3024
  911SOL    HW1 3642   2.262   2.204   1.786 -0.3086 -1.8909 -0.7438
  911SOL    HW2 3643   2.209   2.226   1.649 -1.5187  0.9642  1.3281
  911SOL     MW 3644   2.194   2.202   1.731 -0.4896 -0.1712  0.2997
  912SOL     OW 3645   2.921   1.896   1.536  0.4720 -0.3770  0.0165
  912SOL    HW1 3646   2.940   1.944   1.447  1.2701  0.5950 -0.3632
  912SOL    HW2 3647   2.828   1.922   1.556  2.9979 -0.4397  1.5610
  912SOL     MW 3648   2.911   1.906   1.527  0.9106 -0.2571  0.1702
  913SOL     OW 3649   2.577   2.994   0.357  0.0552  0.0423  0.3213
  913SOL    HW1 3650   2.645   2.931   0.379 -0.8656  0.8414  0.5629
  913SOL    HW2 3651   2.499   2.936   0.357 -1.1961 -1.6284  2.4165
  913SOL     MW 3652   2.576   2.978   0.360 -0.2314 -0.0727  0.6296
  914SOL     OW 3653   2.771   1.721   3.051 -0.4938  0.8655  0.4604
  914SOL    HW1 3654   2.814   1.781   2.987  1.7795 -0.8404 -1.4540
  914SOL    HW2 3655   2.671   1.727   3.063 -0.5618 -1.7810  1.1653
  914SOL     MW 3656   2.763   1.730   3.044 -0.2029  0.2912  0.3008
  915SOL     OW 3657   1.743   0.236   0.236 -0.3976 -0.3854  0.1598
  915SOL    HW1 3658   1.795   0.165   0.275 -2.4295 -0.2917 -2.2925
  915SOL    HW2 3659   1.654   0.203   0.239  0.4275  2.5629  0.6720
  915SOL     MW 3660   1.738   0.222   0.241 -0.5568  0.0159 -0.0962
  916SOL     OW 3661   1.778   2.063   1.933  0.6244 -0.1677 -0.6871
  916SOL    HW1 3662   1.795   2.157   1.943  1.6183 -0.0667  3.2356
  916SOL    HW2 3663   1.793   2.050   1.839  0.3280  0.4916 -1.3951
  916SOL     MW 3664   1.782   2.073   1.922  0.7164 -0.0674 -0.2629
  917SOL     OW 3665   2.444   2.273   2.555  0.4461 -0.6321  0.2207
  917SOL    HW1 3666   2.425   2.311   2.642  1.4738 -3.2784  1.0061
  917SOL    HW2 3667   2.528   2.309   2.526  0.0078 -1.7062  1.8079
  917SOL     MW 3668   2.452   2.283   2.562  0.5239 -1.1229  0.5337
  918SOL     OW 3669   1.992   1.632   2.680  0.1624 -0.2131 -0.4662
  918SOL    HW1 3670   1.941   1.682   2.609 -0.8623 -0.7247  0.2946
  918SOL    HW2 3671   2.078   1.686   2.685  1.2888  0.9680  2.2220
  918SOL     MW 3672   1.997   1.646   2.671  0.1758 -0.1248 -0.0112
  919SOL     OW 3673   0.076   2.336   2.252  0.1171 -0.3661  0.5685
  919SOL    HW1 3674   0.004   2.282   2.220  1.5202 -0.4492 -0.9040
  919SOL    HW2 3675   0.122   2.321   2.165 -0.8222 -1.1568  0.9110
  919SOL     MW 3676   0.073   2.327   2.236  0.1783 -0.4814  0.4194
  920SOL     OW 3677   2.763   2.783   0.006 -0.0076  0.2202  0.1528
  920SOL    HW1 3678   2.700   2.856   0.010 -2.5332 -1.0896 -0.3972
  920SOL    HW2 3679   2.739   2.738  -0.074  1.1430 -0.0241  1.7193
  920SOL     MW 3680   2.751   2.787  -0.004 -0.1890  0.0151  0.2869
  921SOL     OW 3681   2.387   2.617   2.625  0.1760 -0.7220  0.0544
  921SOL    HW1 3682   2.455   2.601   2.562  0.7687 -1.4619  1.6594
  921SOL    HW2 3683   2.421   2.559   2.693  1.0315  2.0875 -3.1833
  921SOL     MW 3684   2.400   2.607   2.626  0.3671 -0.4489 -0.1610
  922SOL     OW 3685   2.047   2.836   0.318  0.4858 -0.2682  0.0548
  922SOL    HW1 3686   1.999   2.852   0.230  1.6973  1.3244  0.4400
  922SOL    HW2 3687   2.040   2.733   0.319  2.7863 -0.5971  1.8467
  922SOL     MW 3688   2.040   2.824   0.306  0.9492 -0.1015  0.3420
  923SOL     OW 3689   2.182   2.818   1.654 -0.3397  0.5406 -0.2773
  923SOL    HW1 3690   2.241   2.746   1.623  0.1217  0.6137 -0.0055
  923SOL    HW2 3691   2.152   2.860   1.576 -1.8584 -2.3047  0.2106
  923SOL     MW 3692   2.186   2.814   1.640 -0.4792  0.1749 -0.1770
  924SOL     OW 3693   1.223   2.622   2.508  0.0341 -0.1809 -0.6954
  924SOL    HW1 3694   1.287   2.685   2.484  0.7987  0.6019  0.0488
  924SOL    HW2 3695   1.277   2.556   2.543 -1.4716  0.1027  2.0424
  924SOL     MW 3696   1.239   2.621   2.510 -0.0637 -0.0402 -0.2360
  925SOL     OW 3697   2.950   0.250   2.598  0.2276  0.0244  0.5382
  925SOL    HW1 3698   2.912   0.262   2.509 -2.0293  0.2992 -2.3144
  925SOL    HW2 3699   2.900   0.295   2.658  0.8608  2.0161 -2.4624
  925SOL     MW 3700   2.939   0.258   2.594  0.0133  0.3235 -0.2341
  926SOL     OW 3701   2.747   2.408   2.089  0.1765  0.3143  0.1077
  926SOL    HW1 3702   2.811   2.454   2.143  0.5173 -1.4681 -0.9092
  926SOL    HW2 3703   2.792   2.421   2.004 -0.4823 -0.1325 -0.6420
  926SOL     MW 3704   2.761   2.416   2.085  0.1345  0.0202 -0.1254
  927SOL     OW 3705   2.304   0.156   0.295  0.0185 -0.4271  0.2840
  927SOL    HW1 3706   2.403   0.158   0.318  1.5042  0.9659 -1.5796
  927SOL    HW2 3707   2.292   0.116   0.208 -2.7006  2.2603  0.1575
  927SOL     MW 3708   2.315   0.151   0.286 -0.1442  0.1113  0.0215
  928SOL     OW 3709   2.078   2.422   1.889  0.3519  0.4535  0.4101
  928SOL    HW1 3710   2.081   2.353   1.824 -0.8412 -1.4086  0.5066
  928SOL    HW2 3711   2.130   2.391   1.956  1.0615  0.3644 -0.9321
  928SOL     MW 3712   2.085   2.409   1.889  0.2881  0.1961  0.2457
  929SOL     OW 3713   2.682   2.373   2.440  0.2877  0.3551  0.6706
  929SOL    HW1 3714   2.718   2.398   2.355 -0.5030  0.0595 -2.5328
  929SOL    HW2 3715   2.757   2.343   2.493  4.3762 -0.3023 -2.9978
  929SOL     MW 3716   2.697   2.372   2.436  0.7228  0.2294 -0.2361
  930SOL     OW 3717   2.003   2.829   2.699  0.5318 -0.3070  0.0339
  930SOL    HW1 3718   2.031   2.758   2.763 -0.0425  1.3530 -0.2354
  930SOL    HW2 3719   2.077   2.898   2.702 -0.3753  2.1709  2.9147
  930SOL     MW 3720   2.016   2.829   2.708  0.3364  0.2389  0.3785
  931SOL     OW 3721   3.013   2.787   2.271  0.4271 -0.2899 -0.2849
  931SOL    HW1 3722   3.051   2.830   2.351 -1.0192  3.4771 -1.9559
  931SOL    HW2 3723   3.091   2.787   2.225 -1.9044  0.0632  2.3291
  931SOL     MW 3724   3.028   2.793   2.276 -0.0714  0.2537 -0.1605
  932SOL     OW 3725   2.839   1.995   2.516 -0.3206  0.3297  0.6397
  932SOL    HW1 3726   2.931   2.006   2.541 -0.4972 -1.6075  1.3051
  932SOL    HW2 3727   2.833   2.003   2.421 -1.4563  1.4591 -0.1379
  932SOL     MW 3728   2.850   1.998   2.507 -0.4937  0.2231  0.6249
  933SOL     OW 3729   2.041   2.868   2.259 -0.3383 -0.0955 -0.2400
  933SOL    HW1 3730   2.110   2.928   2.284 -3.5945  1.1173  0.2195
  933SOL    HW2 3731   1.967   2.923   2.227 -0.6283  1.0857  3.0035
  933SOL     MW 3732   2.040   2.883   2.258 -0.8062  0.2204  0.2485
  934SOL     OW 3733   2.022   2.689   2.476  0.0397 -0.3980  0.3561
  934SOL    HW1 3734   2.007   2.748   2.554 -0.5640  1.0006 -1.7894
  934SOL    HW2 3735   2.036   2.749   2.401  0.6175  0.3164 -0.4162
  934SOL     MW 3736   2.022   2.705   2.476  0.0363 -0.1192 -0.0289
  935SOL     OW 3737   2.650   1.606   1.812 -0.1152 -0.1442 -0.5342
  935SOL    HW1 3738   2.736   1.605   1.782 -2.7158  1.9383  0.9516
  935SOL    HW2 3739   2.585   1.579   1.737 -0.0531  2.4506 -2.1063
  935SOL     MW 3740   2.652   1.602   1.798 -0.4501  0.4729 -0.5456
  936SOL     OW 3741   3.005   2.273   3.078 -0.5352 -0.1705  0.3476
  936SOL    HW1 3742   3.072   2.318   3.129 -0.8715  0.1704 -0.9914
  936SOL    HW2 3743   2.923   2.323   3.084  1.0875  2.5971  0.3504
  936SOL     MW 3744   3.003   2.286   3.086 -0.3655  0.2396  0.1713
  937SOL     OW 3745   1.952   2.088   2.702 -0.5123  0.1159 -0.0289
  937SOL    HW1 3746   2.044   2.087   2.746 -0.8754  1.0755 -2.3947
  937SOL    HW2 3747   1.970   2.078   2.609 -1.9645 -1.7302  0.7930
  937SOL     MW 3748   1.967   2.087   2.696 -0.7518 -0.0011 -0.2326
  938SOL     OW 3749   2.263   1.833   1.903 -0.0264 -0.2583  0.4621
  938SOL    HW1 3750   2.241   1.874   1.823  0.9216  0.0005  2.0097
  938SOL    HW2 3751   2.268   1.905   1.971 -3.0599  3.8454 -0.1746
  938SOL     MW 3752   2.261   1.848   1.901 -0.3015  0.3173  0.5823
  939SOL     OW 3753   2.811   1.976   2.247  0.1251 -0.1160  0.2814
  939SOL    HW1 3754   2.832   1.902   2.181  0.3440  0.0614 -0.6717
  939SOL    HW2 3755   2.717   1.979   2.252  0.6227 -1.4176  0.7581
  939SOL     MW 3756   2.802   1.967   2.239  0.2196 -0.2643  0.2186
  940SOL     OW 3757   2.317   0.177   2.646 -0.1229 -0.3836 -0.4774
  940SOL    HW1 3758   2.281   0.086   2.660 -0.9869  1.8690  0.8309
  940SOL    HW2 3759   2.365   0.194   2.723  2.2276  1.2481 -1.4910
  940SOL     MW 3760   2.319   0.167   2.658  0.0732  0.1289 -0.4386
  941SOL     OW 3761   0.192   2.279   2.022  0.0106  0.4447  0.1126
  941SOL    HW1 3762   0.286   2.275   2.028 -0.6058 -0.6956  0.5710
  941SOL    HW2 3763   0.156   2.295   1.935 -1.5924 -0.2224 -5.2908
  941SOL     MW 3764   0.200   2.280   2.011 -0.2822  0.2062 -0.5399
  942SOL     OW 3765   2.931   2.215   2.140  0.2930 -0.5950 -0.0124
  942SOL    HW1 3766   2.857   2.269   2.102 -1.6202 -1.0831 -0.3405
  942SOL    HW2 3767   2.891   2.144   2.191 -1.2831 -0.7472 -2.6690
  942SOL     MW 3768   2.916   2.213   2.141 -0.1674 -0.6795 -0.4062
  943SOL     OW 3769   0.332   2.050   2.306 -0.8359  0.7559 -0.2599
  943SOL    HW1 3770   0.315   2.094   2.389  0.0002 -1.1428 -2.3171
  943SOL    HW2 3771   0.426   2.021   2.326 -0.3628 -1.5028  0.3171
  943SOL     MW 3772   0.342   2.052   2.320 -0.6632  0.2074 -0.4552
  944SOL     OW 3773   2.099   2.701   2.053  0.2591  0.3452  0.1429
  944SOL    HW1 3774   2.167   2.643   2.089  4.3087  1.8508  0.3748
  944SOL    HW2 3775   2.093   2.764   2.121  0.0726  0.2661 -1.2806
  944SOL     MW 3776   2.108   2.701   2.066  0.7688  0.5334 -0.0143
  945SOL     OW 3777   2.734   2.675   2.848 -0.6180 -0.1920 -0.0263
  945SOL    HW1 3778   2.718   2.577   2.833 -0.0412  0.5855  0.9744
  945SOL    HW2 3779   2.760   2.708   2.761 -0.9720 -1.4989  1.1517
  945SOL     MW 3780   2.736   2.666   2.835 -0.5886 -0.2619  0.2612
  946SOL     OW 3781   2.494   2.755   2.304 -0.4198  0.2723  0.2019
  946SOL    HW1 3782   2.552   2.763   2.225 -0.6663  0.1148  2.2976
  946SOL    HW2 3783   2.437   2.682   2.271  1.0753  1.2190 -1.4987
  946SOL     MW 3784   2.494   2.746   2.290 -0.2550  0.3764  0.2540
  947SOL     OW 3785   1.985   0.111   0.283 -0.0658  0.1943  0.4835
  947SOL    HW1 3786   1.969   0.065   0.207  0.7335  3.1475  1.1963
  947SOL    HW2 3787   2.029   0.052   0.342 -2.2225 -0.2907 -0.6573
  947SOL     MW 3788   1.989   0.097   0.281 -0.2449  0.5200  0.4271
  948SOL     OW 3789   1.762   2.973   2.673 -0.3008 -0.4966  0.1526
  948SOL    HW1 3790   1.838   2.912   2.679 -1.2636 -0.8549 -0.9658
  948SOL    HW2 3791   1.765   3.012   2.580 -1.6876 -1.0703  0.7059
  948SOL     MW 3792   1.772   2.970   2.661 -0.6108 -0.6196  0.0780
  949SOL     OW 3793   2.528   1.990   2.274 -0.5318  0.3807 -0.3677
  949SOL    HW1 3794   2.529   1.898   2.309 -0.3823 -0.9818  0.5486
  949SOL    HW2 3795   2.469   2.041   2.333  1.1943 -1.7501 -1.4812
  949SOL     MW 3796   2.520   1.985   2.287 -0.2843 -0.0802 -0.3937
  950SOL     OW 3797   2.285   2.516   2.996 -0.4644  0.3873 -0.3543
  950SOL    HW1 3798   2.337   2.453   2.945  0.4411  0.4131 -3.2049
  950SOL    HW2 3799   2.200   2.546   2.955  0.1141 -0.6389  0.2078
  950SOL     MW 3800   2.280   2.512   2.984 -0.2686  0.2553 -0.6562
  951SOL     OW 3801   2.992   2.133   2.836  0.1050  0.0093 -0.3065
  951SOL    HW1 3802   2.996   2.178   2.919  4.5365 -0.9662 -0.6071
  951SOL    HW2 3803   3.075   2.160   2.800 -1.6094 -0.4627  1.2380
  951SOL     MW 3804   3.004   2.143   2.842  0.4635 -0.1817 -0.1424
  952SOL     OW 3805   0.005   1.665   2.164  0.0517 -0.4148  0.4141
  952SOL    HW1 3806  -0.087   1.680   2.126 -0.7061 -3.9922 -0.9333
  952SOL    HW2 3807   0.063   1.744   2.140 -1.4944  0.6641 -0.9665
  952SOL     MW 3808   0.000   1.678   2.156 -0.2523 -0.7444  0.0542
  953SOL     OW 3809   1.914   1.793   2.919  0.4803  0.3448 -0.4744
  953SOL    HW1 3810   1.830   1.757   2.946  0.8942 -0.3042 -4.4867
  953SOL    HW2 3811   1.952   1.727   2.857 -2.0422 -2.2921  1.5131
  953SOL     MW 3812   1.908   1.779   2.914  0.2021 -0.0887 -0.7415
  954SOL     OW 3813   2.470   2.100   2.873 -0.2156  0.4070  0.4096
  954SOL    HW1 3814   2.374   2.077   2.845 -0.5542  0.0868 -2.7608
  954SOL    HW2 3815   2.520   2.050   2.806 -2.0047  0.6118 -0.1949
  954SOL     MW 3816   2.464   2.090   2.861 -0.4963  0.3918 -0.0885
  955SOL     OW 3817   1.588   1.593   2.620  0.1104 -0.3963  0.8090
  955SOL    HW1 3818   1.538   1.598   2.529  0.1526  0.1022 -0.7177
  955SOL    HW2 3819   1.672   1.635   2.599  0.1258 -0.7166  2.1471
  955SOL     MW 3820   1.592   1.600   2.605  0.1180 -0.3728  0.7841
  956SOL     OW 3821   2.700   2.414   2.830 -0.2245  0.0556  0.2401
  956SOL    HW1 3822   2.719   2.393   2.922 -0.8781 -1.4177  0.3065
  956SOL    HW2 3823   2.766   2.372   2.778  1.3004  2.2427  1.4201
  956SOL     MW 3824   2.711   2.406   2.835 -0.1095  0.1498  0.4045
  957SOL     OW 3825   2.308   2.861   0.382  0.0345 -0.3163  0.3775
  957SOL    HW1 3826   2.217   2.869   0.346 -0.1180  1.3116  0.4756
  957SOL    HW2 3827   2.289   2.824   0.475 -1.3904  1.3376 -0.4562
  957SOL     MW 3828   2.293   2.857   0.390 -0.1736  0.1167  0.2804
  958SOL     OW 3829   2.054   2.598   2.862  0.1403 -0.6428  0.2087
  958SOL    HW1 3830   2.052   2.536   2.785 -1.4595  0.0380 -0.7964
  958SOL    HW2 3831   1.959   2.594   2.883  1.6272 -0.6306  1.5420
  958SOL     MW 3832   2.041   2.589   2.855  0.1254 -0.5514  0.2520
  959SOL     OW 3833   2.440   2.622   0.375  0.5725 -0.4345 -0.0589
  959SOL    HW1 3834   2.487   2.619   0.293 -3.5366  1.5037  0.0442
  959SOL    HW2 3835   2.388   2.705   0.378  0.5441 -2.9252  0.1309
  959SOL     MW 3836   2.439   2.633   0.364  0.0266 -0.5074 -0.0202
  960SOL     OW 3837   1.976   2.304   2.238 -0.0607  0.0979 -0.6643
  960SOL    HW1 3838   1.952   2.225   2.185 -0.0473 -1.5441  0.9515
  960SOL    HW2 3839   1.915   2.306   2.313 -1.0589 -1.7713 -0.7762
  960SOL     MW 3840   1.965   2.294   2.241 -0.1906 -0.3653 -0.4658
  961SOL     OW 3841   2.242   2.328   2.256 -0.0181 -0.2588 -0.4116
  961SOL    HW1 3842   2.144   2.332   2.258 -1.1329  0.6964 -2.0891
  961SOL    HW2 3843   2.266   2.357   2.340 -0.4820 -0.0653 -2.6646
  961SOL     MW 3844   2.232   2.333   2.267 -0.2264 -0.1072 -0.9302
  962SOL     OW 3845   2.224   2.014   2.822  0.0709  0.5414  0.3178
  962SOL    HW1 3846   2.190   1.998   2.909  0.8590  1.8077  0.3096
  962SOL    HW2 3847   2.232   1.927   2.779  1.6368 -0.8392 -2.2603
  962SOL     MW 3848   2.221   2.000   2.828  0.3815  0.5263 -0.0234
  963SOL     OW 3849   1.828   2.611   2.057 -0.1600 -0.0498 -0.1919
  963SOL    HW1 3850   1.921   2.642   2.066  2.4316  0.4024  2.4155
  963SOL    HW2 3851   1.834   2.544   1.993  1.2840 -1.9660  1.6005
  963SOL     MW 3852   1.841   2.606   2.050  0.3724 -0.2430  0.3886
  964SOL     OW 3853   1.750   1.921   2.729 -0.0221 -0.3033 -0.5203
  964SOL    HW1 3854   1.819   1.985   2.703 -2.9176 -0.1617 -1.2596
  964SOL    HW2 3855   1.807   1.863   2.791 -0.7032 -0.5060  1.0927
  964SOL     MW 3856   1.767   1.922   2.734 -0.4940 -0.3113 -0.4050
  965SOL     OW 3857   2.234   2.754   0.616 -0.1768  0.0190 -0.0430
  965SOL    HW1 3858   2.244   2.661   0.613 -3.0890 -1.3063  0.5253
  965SOL    HW2 3859   2.284   2.780   0.696  2.2592  2.4216  0.3841
  965SOL     MW 3860   2.242   2.745   0.626 -0.2396  0.1611  0.0883
  966SOL     OW 3861   2.642   2.629   2.504  0.4205  0.2401 -0.2178
  966SOL    HW1 3862   2.615   2.665   2.424  1.5948 -1.2955  1.9435
  966SOL    HW2 3863   2.654   2.534   2.486 -1.5726 -0.5503 -0.5137
  966SOL     MW 3864   2.640   2.621   2.491  0.3125 -0.0668  0.0283
  967SOL     OW 3865   2.829   3.015   2.898 -0.3101 -0.0361 -0.0382
  967SOL    HW1 3866   2.835   2.927   2.938  0.5629 -1.2654  1.6244
  967SOL    HW2 3867   2.737   3.026   2.868 -0.4325  0.8146  1.6434
  967SOL     MW 3868   2.818   3.005   2.900 -0.2111 -0.0860  0.4031
  968SOL     OW 3869   3.024   2.655   2.896  0.4275 -0.2537 -0.2154
  968SOL    HW1 3870   2.948   2.667   2.848 -0.3558 -0.3096 -1.5186
  968SOL    HW2 3871   3.085   2.595   2.848  3.0660 -1.8277  3.0312
  968SOL     MW 3872   3.022   2.648   2.883  0.6723 -0.4688  0.0410
  969SOL     OW 3873   1.514   2.152   1.673 -0.0715  0.6105  0.0984
  969SOL    HW1 3874   1.574   2.076   1.671 -1.1703 -1.7539 -2.6955
  969SOL    HW2 3875   1.492   2.166   1.761 -2.4914 -0.9955 -1.4426
  969SOL     MW 3876   1.519   2.143   1.684 -0.5358  0.0866 -0.4735
  970SOL     OW 3877   1.630   1.707   1.764  0.3364 -0.2758  0.0471
  970SOL    HW1 3878   1.714   1.690   1.813  2.0372  1.4768  0.3443
  970SOL    HW2 3879   1.566   1.734   1.830  1.9206  0.3819 -3.1808
  970SOL     MW 3880   1.633   1.708   1.779  0.7698  0.0422 -0.3396
  971SOL     OW 3881   1.765   3.073   2.410 -0.2313 -0.0899  0.0284
  971SOL    HW1 3882   1.780   3.054   2.320 -0.1944 -2.2747 -2.2503
  971SOL    HW2 3883   1.830   3.139   2.434 -0.2412  1.5701 -0.4368
  971SOL     MW 3884   1.776   3.079   2.401 -0.2277 -0.1592 -0.3336
  972SOL     OW 3885   0.264   2.873   2.463 -0.0257  0.2332  0.0439
  972SOL    HW1 3886   0.289   2.790   2.507 -2.9968 -2.0343  0.6939
  972SOL    HW2 3887   0.317   2.941   2.497  0.8832  1.4949 -1.6534
  972SOL     MW 3888   0.274   2.871   2.473 -0.2978  0.1005 -0.0943
  973SOL     OW 3889   2.492   0.052   2.063 -0.6698 -0.1812 -0.4363
  973SOL    HW1 3890   2.509  -0.039   2.068  1.9540 -0.8399 -0.3849
  973SOL    HW2 3891   2.531   0.066   1.976  3.3566 -0.4341 -0.8208
  973SOL     MW 3892   2.499   0.042   2.052  0.2076 -0.3014 -0.4802
  974SOL     OW 3893   2.051   0.224   2.685 -0.0168  0.3076 -0.0157
  974SOL    HW1 3894   2.145   0.208   2.678  1.3631 -0.2984  0.1034
  974SOL    HW2 3895   2.023   0.149   2.738  1.0112  1.2796  0.0239
  974SOL     MW 3896   2.060   0.212   2.691  0.3009  0.3559  0.0052
  975SOL     OW 3897   2.180   2.476   2.492  0.2183  0.1473 -0.1210
  975SOL    HW1 3898   2.258   2.517   2.520 -0.0565 -1.4529  0.3213
  975SOL    HW2 3899   2.118   2.553   2.479 -2.5079  0.7776  1.1929
  975SOL     MW 3900   2.182   2.491   2.494 -0.1777  0.0194  0.1107
  976SOL     OW 3901   0.263   0.324   1.709  0.1347 -0.1677  0.2455
  976SOL    HW1 3902   0.327   0.265   1.752 -0.1006  0.3782 -0.9752
  976SOL    HW2 3903   0.200   0.270   1.664 -1.0218 -3.4612  0.1533
  976SOL     MW 3904   0.263   0.309   1.709 -0.0489 -0.5302  0.0723
  977SOL     OW 3905   1.749   2.624   2.480 -0.2958 -0.4065  0.2027
  977SOL    HW1 3906   1.732   2.534   2.452 -1.8026  0.8611 -2.3391
  977SOL    HW2 3907   1.838   2.646   2.454 -0.9866 -0.9175 -1.1758
  977SOL     MW 3908   1.759   2.615   2.473 -0.5858 -0.3067 -0.3146
   3.10000   3.10000   3.10000
