977 TIP4P/2005f water molecules t=   1.43000 step= 1430
 3908
    1SOL     OW    1   0.367   0.875   0.043  0.0606  0.0798  0.8868
    1SOL    HW1    2   0.337   0.865  -0.048 -2.9962  2.5918  3.1386
    1SOL    HW2    3   0.323   0.798   0.074  0.1426  0.0903 -0.0665
    1SOL     MW    4   0.357   0.863   0.035 -0.3319  0.4126  1.0582
    2SOL     OW    5   0.321   3.057   1.122 -0.5292 -0.1132 -0.6085
    2SOL    HW1    6   0.377   3.129   1.087 -2.4795  2.0671 -2.1246
    2SOL    HW2    7   0.230   3.082   1.119  1.0625  1.4604 -0.6915
    2SOL     MW    8   0.316   3.070   1.117 -0.5765  0.3821 -0.8195
    3SOL     OW    9   2.648   0.330   0.969  0.2620  0.0438 -0.1634
    3SOL    HW1   10   2.678   0.413   0.928 -1.2825 -3.4298  1.7924
    3SOL    HW2   11   2.621   0.353   1.057 -2.4671 -0.7554  3.0912
    3SOL     MW   12   2.648   0.344   0.975 -0.3018 -0.5199  0.5240
    4SOL     OW   13   3.072   1.736   0.561  0.1486 -0.1507 -0.6627
    4SOL    HW1   14   2.998   1.783   0.525 -0.2559  0.7094 -1.3979
    4SOL    HW2   15   3.104   1.679   0.492 -0.1043 -0.7428  1.4208
    4SOL     MW   16   3.067   1.735   0.548  0.0618 -0.1153 -0.4848
    5SOL     OW   17   1.636   1.488   0.628  0.2366 -0.2071 -0.3035
    5SOL    HW1   18   1.663   1.455   0.712  1.7734 -4.3731 -0.6490
    5SOL    HW2   19   1.535   1.486   0.644 -4.0230  0.2471  3.1766
    5SOL     MW   20   1.626   1.483   0.641 -0.1226 -0.6969  0.1101
    6SOL     OW   21   0.787   1.405   0.595  0.2230  0.3499  0.3619
    6SOL    HW1   22   0.695   1.414   0.608  0.1843  3.0181 -0.4915
    6SOL    HW2   23   0.805   1.334   0.655 -0.0072  2.1834 -1.2413
    6SOL     MW   24   0.778   1.397   0.605  0.1875  0.9439  0.0377
    7SOL     OW   25   1.993   1.062   0.015 -0.5037 -0.0324 -0.1462
    7SOL    HW1   26   2.055   1.119  -0.028  2.1821  2.4302 -0.7362
    7SOL    HW2   27   2.020   1.062   0.106  1.5895 -0.7281 -0.6754
    7SOL     MW   28   2.005   1.069   0.021  0.1269  0.2007 -0.2938
    8SOL     OW   29   0.780   1.514   1.171 -0.0192 -0.1630 -0.0789
    8SOL    HW1   30   0.874   1.543   1.173  0.1695 -2.3656  2.7111
    8SOL    HW2   31   0.781   1.420   1.194 -0.4518 -0.3432 -4.1503
    8SOL     MW   32   0.793   1.506   1.174 -0.0514 -0.4774 -0.2480
    9SOL     OW   33   1.032   0.470   1.347 -0.5315 -0.5597 -0.8491
    9SOL    HW1   34   0.968   0.398   1.321 -1.3701  0.0899  3.3032
    9SOL    HW2   35   1.069   0.434   1.429  0.8128 -2.6824 -0.9464
    9SOL     MW   36   1.028   0.456   1.354 -0.4647 -0.7541 -0.3141
   10SOL     OW   37   0.260   0.818   0.516  0.7682  0.3539 -0.0658
   10SOL    HW1   38   0.349   0.818   0.480  0.1361  1.8381 -1.0388
   10SOL    HW2   39   0.275   0.863   0.600 -1.1906  1.6850 -1.4801
   10SOL     MW   40   0.274   0.824   0.522  0.4264  0.7253 -0.3808
   11SOL     OW   41   0.764   1.147   1.584 -0.0814 -0.0775 -0.3052
   11SOL    HW1   42   0.828   1.148   1.664 -0.5038 -1.9330  2.5872
   11SOL    HW2   43   0.756   1.053   1.572  3.4628 -2.5435 -1.3498
   11SOL     MW   44   0.771   1.135   1.593  0.3305 -0.6477 -0.0614
   12SOL     OW   45   3.043   1.130   0.862  0.3575 -0.1383  0.2746
   12SOL    HW1   46   3.089   1.205   0.893  0.0191 -0.0788 -0.2620
   12SOL    HW2   47   3.000   1.170   0.786 -1.4859  0.1080 -3.2423
   12SOL     MW   48   3.044   1.145   0.856  0.0696 -0.0980 -0.2602
   13SOL     OW   49   1.828   1.423   1.283  0.4895 -0.2487 -0.5716
   13SOL    HW1   50   1.848   1.365   1.204  1.2794  0.3349  0.9184
   13SOL    HW2   51   1.868   1.511   1.268  0.5943  0.1647  0.3954
   13SOL     MW   52   1.836   1.427   1.270  0.6075 -0.1172 -0.2474
   14SOL     OW   53   0.563   0.316   1.841  0.0809  0.5114  0.8562
   14SOL    HW1   54   0.503   0.264   1.786 -0.3580  0.4335 -2.5159
   14SOL    HW2   55   0.633   0.330   1.775  0.6466 -1.0943 -1.2377
   14SOL     MW   56   0.564   0.311   1.825  0.0977  0.2893  0.1350
   15SOL     OW   57   1.995   0.349   1.053  0.0418  0.6115  0.0256
   15SOL    HW1   58   2.016   0.410   1.126  2.5323 -0.1296 -0.2356
   15SOL    HW2   59   2.050   0.386   0.982 -1.8167 -0.1562 -1.5063
   15SOL     MW   60   2.005   0.362   1.053  0.1252  0.4125 -0.2110
   16SOL     OW   61   0.237   1.816   0.280 -0.0436 -0.0325 -0.7432
   16SOL    HW1   62   0.333   1.806   0.260 -0.3568 -3.3226  1.4831
   16SOL    HW2   63   0.227   1.898   0.329  1.0506  0.3226  1.3957
   16SOL     MW   64   0.248   1.826   0.284  0.0594 -0.4198 -0.1673
   17SOL     OW   65   1.076   0.881   1.415  0.2673  0.3178  0.0033
   17SOL    HW1   66   1.120   0.873   1.506 -1.5533  1.3677  1.4988
   17SOL    HW2   67   0.980   0.877   1.429  0.6937  1.9146 -2.1264
   17SOL     MW   68   1.069   0.879   1.429  0.0834  0.6670 -0.0804
   18SOL     OW   69   0.144   1.581   0.356 -0.1556  0.1427 -0.0143
   18SOL    HW1   70   0.181   1.668   0.324 -1.4332  3.1508 -0.8034
   18SOL    HW2   71   0.112   1.535   0.274 -1.6053 -2.6004 -1.5802
   18SOL     MW   72   0.145   1.587   0.341 -0.5155  0.1777 -0.3250
   19SOL     OW   73   0.090   1.390   0.945 -0.1983  0.1384 -0.1190
   19SOL    HW1   74   0.127   1.404   0.858 -0.6277 -0.6307 -0.9637
   19SOL    HW2   75   0.001   1.424   0.956  2.1599 -2.1304 -0.7580
   19SOL     MW   76   0.083   1.396   0.935  0.0562 -0.2624 -0.3148
   20SOL     OW   77   0.428   2.173   1.218  0.0097 -0.2294  0.7016
   20SOL    HW1   78   0.419   2.099   1.156  1.4418 -1.4433 -1.2833
   20SOL    HW2   79   0.395   2.140   1.301  1.8804 -0.1739  1.5120
   20SOL     MW   80   0.422   2.159   1.221  0.4455 -0.3823  0.5467
   21SOL     OW   81   0.510   0.894   0.412  0.5468 -0.3547  0.5677
   21SOL    HW1   82   0.578   0.859   0.464  1.2707  0.9700 -0.0202
   21SOL    HW2   83   0.547   0.886   0.327 -1.5768  3.7468  0.0863
   21SOL     MW   84   0.523   0.889   0.407  0.3621  0.3612  0.4266
   22SOL     OW   85   1.568   0.712   0.956  0.6399  0.0123  0.5584
   22SOL    HW1   86   1.541   0.654   0.888  3.0208 -0.2942 -0.6557
   22SOL    HW2   87   1.492   0.759   0.980  1.7453 -0.4965  0.5464
   22SOL     MW   88   1.554   0.711   0.950  1.0999 -0.0953  0.3966
   23SOL     OW   89   3.083   0.700   0.689 -0.4799  0.2699  0.1388
   23SOL    HW1   90   3.141   0.641   0.739 -2.0049  0.0080 -1.0496
   23SOL    HW2   91   3.135   0.783   0.688 -0.6755  0.7120 -1.7926
   23SOL     MW   92   3.098   0.703   0.695 -0.7069  0.2937 -0.2729
   24SOL     OW   93   2.079   2.185   3.084  0.5125  0.2158  0.5225
   24SOL    HW1   94   2.058   2.196   3.177  2.1783  0.0258 -1.0538
   24SOL    HW2   95   2.095   2.093   3.054 -1.1706 -0.1726  1.2533
   24SOL     MW   96   2.078   2.174   3.092  0.5102  0.1395  0.4109
   25SOL     OW   97   0.237   1.346   0.415 -0.1543 -0.1789  0.0269
   25SOL    HW1   98   0.222   1.446   0.414  1.7290  0.7100  0.6722
   25SOL    HW2   99   0.327   1.326   0.381 -1.1092  0.9317 -1.1415
   25SOL     MW  100   0.247   1.356   0.410 -0.0318  0.0849 -0.0421
   26SOL     OW  101   2.043   1.012   0.288  0.0526  0.0295  0.5091
   26SOL    HW1  102   1.973   1.055   0.338 -1.2159 -4.1183  0.7037
   26SOL    HW2  103   2.114   1.067   0.281 -3.7236 -2.2432  2.4883
   26SOL     MW  104   2.043   1.025   0.294 -0.6130 -0.8176  0.7959
   27SOL     OW  105   1.869   1.383   0.194 -0.5223 -0.9024 -0.8726
   27SOL    HW1  106   1.813   1.458   0.219 -1.8420 -1.9047 -0.4760
   27SOL    HW2  107   1.930   1.377   0.270  0.4470 -0.0302 -0.3244
   27SOL     MW  108   1.869   1.392   0.208 -0.5686 -0.9195 -0.7479
   28SOL     OW  109   0.473   0.977   2.010 -0.4993 -0.5984  0.0855
   28SOL    HW1  110   0.516   0.966   2.094  1.2298 -2.2950 -2.7387
   28SOL    HW2  111   0.390   0.933   2.033  0.8632 -0.7020 -1.1383
   28SOL     MW  112   0.468   0.970   2.024 -0.0914 -0.8360 -0.4486
   29SOL     OW  113   0.255   1.396   0.700  0.2950 -0.3844  0.1944
   29SOL    HW1  114   0.256   1.495   0.698 -0.2319  1.9775  0.6887
   29SOL    HW2  115   0.294   1.367   0.612 -2.2302 -1.0995 -1.1541
   29SOL     MW  116   0.260   1.405   0.688 -0.1077 -0.1671  0.0817
   30SOL     OW  117   0.798   1.245   1.222 -0.2855 -0.1929  0.2772
   30SOL    HW1  118   0.710   1.224   1.260 -0.1724 -0.9865  1.6477
   30SOL    HW2  119   0.862   1.237   1.291 -3.5171 -2.1861 -2.4626
   30SOL     MW  120   0.795   1.241   1.236 -0.6969 -0.5606  0.0965
   31SOL     OW  121   0.455   0.292   0.158  0.3022 -0.3520 -0.8915
   31SOL    HW1  122   0.484   0.215   0.210  1.2032 -0.6370 -1.1712
   31SOL    HW2  123   0.482   0.264   0.070  2.4990  1.6841 -0.1988
   31SOL     MW  124   0.462   0.278   0.153  0.7109 -0.1209 -0.8370
   32SOL     OW  125   2.690   0.981   1.142  0.0939  0.4027  0.4415
   32SOL    HW1  126   2.628   0.908   1.146 -1.5064 -3.2990  1.1401
   32SOL    HW2  127   2.762   0.953   1.088  0.7860  1.0298  3.0284
   32SOL     MW  128   2.691   0.968   1.136 -0.0259 -0.0030  0.8750
   33SOL     OW  129   1.635   1.320   0.401  0.4002 -0.1060  0.6432
   33SOL    HW1  130   1.691   1.244   0.417  0.4015 -2.4208  0.8165
   33SOL    HW2  131   1.642   1.384   0.472 -0.2780 -1.1178  0.3492
   33SOL     MW  132   1.643   1.318   0.412  0.3109 -0.5449  0.6272
   34SOL     OW  133   1.218   1.948   1.122 -0.6239 -0.1379  0.0513
   34SOL    HW1  134   1.144   2.003   1.126  0.2755 -0.7591  0.5936
   34SOL    HW2  135   1.279   1.973   1.189  0.7536  1.6057  2.0323
   34SOL     MW  136   1.216   1.959   1.131 -0.3235  0.0102  0.3842
   35SOL     OW  137   0.324   0.148   1.820 -0.3952  0.7126  0.0878
   35SOL    HW1  138   0.360   0.112   1.900 -1.6478  1.1334 -0.0295
   35SOL    HW2  139   0.315   0.076   1.753  0.6828 -1.3159  2.0498
   35SOL     MW  140   0.327   0.134   1.821 -0.4182  0.5005  0.3312
   36SOL     OW  141   1.933   1.921   0.590 -0.1073  0.2912  0.2118
   36SOL    HW1  142   1.928   1.903   0.496 -1.6012  0.4734 -1.0802
   36SOL    HW2  143   1.925   1.835   0.642 -2.9112  0.0505  1.0465
   36SOL     MW  144   1.932   1.907   0.584 -0.6744  0.2835  0.1515
   37SOL     OW  145   1.820   2.007   1.023  0.6954  0.2450  0.3601
   37SOL    HW1  146   1.768   1.963   0.956 -4.3832  1.8733  4.4066
   37SOL    HW2  147   1.749   2.051   1.071 -0.2712 -0.6092 -0.3185
   37SOL     MW  148   1.804   2.007   1.021 -0.1022  0.3471  0.8044
   38SOL     OW  149   2.814   0.899   0.136  0.9412  0.1208  0.4650
   38SOL    HW1  150   2.852   0.894   0.227 -1.2564 -1.4316 -1.0551
   38SOL    HW2  151   2.884   0.870   0.074  0.1965  3.2488 -2.2457
   38SOL     MW  152   2.829   0.894   0.140  0.5530  0.3287 -0.0932
   39SOL     OW  153   1.462   0.563   0.747  0.3956  0.5564 -0.1901
   39SOL    HW1  154   1.417   0.484   0.776  0.0144  0.2589 -1.1146
   39SOL    HW2  155   1.395   0.632   0.756  1.3699  3.6506  0.0272
   39SOL     MW  156   1.447   0.562   0.752  0.4738  0.9254 -0.2834
   40SOL     OW  157   1.263   1.880   0.258  0.3257  0.2457  0.7427
   40SOL    HW1  158   1.326   1.838   0.313 -1.2801  1.5664  0.4058
   40SOL    HW2  159   1.233   1.956   0.310  0.5996  1.6735 -1.1527
   40SOL     MW  160   1.268   1.884   0.272  0.1500  0.6083  0.4482
   41SOL     OW  161   0.586   0.520   1.624 -0.5502  0.4180  0.0658
   41SOL    HW1  162   0.665   0.543   1.571  0.1796  0.2796 -3.2523
   41SOL    HW2  163   0.525   0.573   1.586  1.4911 -2.2667  1.7581
   41SOL     MW  164   0.589   0.530   1.612 -0.1846  0.0455 -0.1487
   42SOL     OW  165   1.285   3.002   1.943 -0.1015  0.1087 -0.0842
   42SOL    HW1  166   1.192   3.027   1.966 -0.3615  1.0498  0.3698
   42SOL    HW2  167   1.309   2.918   1.979  0.1124  0.7263 -0.2596
   42SOL     MW  168   1.276   2.994   1.951 -0.1076  0.3144 -0.0474
   43SOL     OW  169   1.489   0.143   1.669  0.4188 -0.2739  0.6524
   43SOL    HW1  170   1.569   0.096   1.679  1.3158 -0.8030 -0.4053
   43SOL    HW2  171   1.428   0.077   1.644  1.7149  1.9377 -0.8914
   43SOL     MW  172   1.492   0.129   1.667  0.7081 -0.0519  0.3092
   44SOL     OW  173   1.290   0.736   1.070 -0.5004 -0.0097 -0.1677
   44SOL    HW1  174   1.274   0.832   1.068  0.3239  2.8721 -0.2356
   44SOL    HW2  175   1.261   0.698   1.156  1.9982 -2.3271  1.2713
   44SOL     MW  176   1.284   0.743   1.081 -0.0620  0.0647  0.0132
   45SOL     OW  177   1.277   0.760   0.773  0.0875  0.1462 -0.0083
   45SOL    HW1  178   1.246   0.742   0.862 -0.0652 -0.4670 -0.2303
   45SOL    HW2  179   1.200   0.748   0.701 -0.3975 -0.0310 -1.6270
   45SOL     MW  180   1.263   0.756   0.775  0.0034  0.0419 -0.2512
   46SOL     OW  181   0.519   1.108   0.644 -0.2244  0.3054  0.5627
   46SOL    HW1  182   0.524   1.097   0.549 -1.7460 -0.6052 -0.9216
   46SOL    HW2  183   0.599   1.141   0.678  0.2466  1.5297  0.2990
   46SOL     MW  184   0.530   1.111   0.636 -0.3630  0.3468  0.3321
   47SOL     OW  185   0.181   1.969   1.955 -0.7071  0.0450  0.2561
   47SOL    HW1  186   0.112   1.933   1.905  1.0209  0.5135  0.2782
   47SOL    HW2  187   0.182   1.931   2.040 -0.8557 -0.2490 -1.9954
   47SOL     MW  188   0.172   1.960   1.959 -0.4987  0.0680 -0.0380
   48SOL     OW  189   1.148   0.506   1.016  0.6440 -0.1551 -0.2008
   48SOL    HW1  190   1.072   0.527   1.066 -2.2396 -0.5480 -0.6214
   48SOL    HW2  191   1.205   0.585   1.027  2.4586  1.2143  1.1503
   48SOL     MW  192   1.146   0.519   1.024  0.5030 -0.0263 -0.0780
   49SOL     OW  193   1.695   0.625   1.526 -0.2671 -0.0266  0.6730
   49SOL    HW1  194   1.700   0.573   1.605 -0.3595 -0.3504 -0.2708
   49SOL    HW2  195   1.711   0.567   1.453 -1.2304  1.5099 -0.2548
   49SOL     MW  196   1.698   0.611   1.527 -0.4064  0.1334  0.4261
   50SOL     OW  197   1.267   1.187   0.582 -0.0465  0.7786  0.4061
   50SOL    HW1  198   1.188   1.174   0.647 -0.8765  1.4122  2.2465
   50SOL    HW2  199   1.323   1.112   0.608  0.0604  2.1708 -3.8474
   50SOL     MW  200   1.264   1.176   0.594 -0.1419  1.0459  0.0877
   51SOL     OW  201   0.327   2.908   0.896 -0.4091 -0.0131 -0.2391
   51SOL    HW1  202   0.418   2.866   0.881 -1.2528 -1.0565 -0.3838
   51SOL    HW2  203   0.327   2.959   0.979 -1.0856  0.3634  1.3104
   51SOL     MW  204   0.339   2.910   0.905 -0.6096 -0.1011 -0.0538
   52SOL     OW  205   0.809   1.829   0.468  0.2454  0.4944 -0.1443
   52SOL    HW1  206   0.768   1.916   0.487 -0.0194  0.1194  0.5076
   52SOL    HW2  207   0.835   1.818   0.377 -0.3762 -0.2214  0.4344
   52SOL     MW  208   0.807   1.839   0.459  0.1285  0.3505  0.0181
   53SOL     OW  209   0.435   2.152   0.492 -0.1745 -0.0380 -0.4995
   53SOL    HW1  210   0.372   2.146   0.424 -0.6653  0.9840 -1.1672
   53SOL    HW2  211   0.421   2.242   0.525 -0.8144 -0.9012  0.5830
   53SOL     MW  212   0.425   2.163   0.487 -0.3237 -0.0170 -0.4448
   54SOL     OW  213   2.069   0.936   0.772 -0.1401  0.5668 -0.2196
   54SOL    HW1  214   2.109   0.918   0.689 -2.6069  0.4464 -0.5749
   54SOL    HW2  215   2.045   0.846   0.802  1.5226  0.6769 -0.1062
   54SOL     MW  216   2.071   0.921   0.765 -0.2462  0.5655 -0.2515
   55SOL     OW  217   0.501   1.560   1.655 -0.0988 -0.1112  0.1103
   55SOL    HW1  218   0.456   1.575   1.572 -0.2019  0.9601  3.1470
   55SOL    HW2  219   0.592   1.522   1.653 -0.0126 -0.6394  1.0078
   55SOL     MW  220   0.507   1.557   1.644 -0.1010 -0.0395  0.6294
   56SOL     OW  221   0.624   0.879   0.158  0.0382  0.1988  0.0596
   56SOL    HW1  222   0.684   0.953   0.155  2.6247 -0.5712  2.4301
   56SOL    HW2  223   0.553   0.897   0.095  0.7121  0.6590 -0.6668
   56SOL     MW  224   0.622   0.891   0.149  0.4684  0.1579  0.2765
   57SOL     OW  225   1.173   1.232   1.170 -0.7274  0.4415 -0.1783
   57SOL    HW1  226   1.259   1.264   1.190 -2.8978  1.4498  3.8195
   57SOL    HW2  227   1.141   1.199   1.256 -0.1532 -0.7077  0.7664
   57SOL     MW  228   1.180   1.232   1.184 -0.9380  0.4229  0.4738
   58SOL     OW  229   0.547   1.253   1.275  0.2080  0.1331 -0.0344
   58SOL    HW1  230   0.506   1.339   1.281 -1.7380  1.4562  0.8732
   58SOL    HW2  231   0.532   1.228   1.365  2.8519 -1.7533 -0.4067
   58SOL     MW  232   0.539   1.261   1.288  0.3001  0.0587  0.0362
   59SOL     OW  233   1.486   1.674   0.328 -0.9831 -0.3636 -0.0077
   59SOL    HW1  234   1.511   1.730   0.398 -0.5677 -0.7793 -0.8457
   59SOL    HW2  235   1.415   1.626   0.363  1.1135 -1.7633 -1.0776
   59SOL     MW  236   1.480   1.675   0.342 -0.6517 -0.6032 -0.2594
   60SOL     OW  237   3.073   0.164   1.712  0.0793 -0.1875 -0.2958
   60SOL    HW1  238   2.979   0.197   1.729  0.1072  3.5153  0.9552
   60SOL    HW2  239   3.104   0.108   1.780 -2.2526 -2.2624  2.2152
   60SOL     MW  240   3.065   0.161   1.723 -0.2247  0.0273  0.2006
   61SOL     OW  241   1.981   1.380   3.010 -0.3295 -0.2692  0.1446
   61SOL    HW1  242   1.948   1.391   3.107  2.7841 -0.2863  1.4221
   61SOL    HW2  243   2.055   1.326   3.025  1.9174  0.2822 -2.0821
   61SOL     MW  244   1.986   1.374   3.025  0.3778 -0.1987  0.0193
   62SOL     OW  245   0.536   1.732   0.542 -0.0230  0.2218  0.0955
   62SOL    HW1  246   0.624   1.744   0.515 -0.2480  0.6170  1.2817
   62SOL    HW2  247   0.509   1.640   0.546 -1.1093  2.6949  0.8596
   62SOL     MW  248   0.544   1.721   0.539 -0.1960  0.6002  0.3528
   63SOL     OW  249   1.728   0.649   0.657 -0.0199  0.4211 -0.2734
   63SOL    HW1  250   1.721   0.745   0.658 -0.2215  0.9175 -0.8712
   63SOL    HW2  251   1.634   0.618   0.654  0.2410 -1.1469  0.4207
   63SOL     MW  252   1.715   0.658   0.657 -0.0121  0.2797 -0.2607
   64SOL     OW  253   0.266   1.668   0.763 -0.5445 -0.3672 -0.2046
   64SOL    HW1  254   0.336   1.732   0.755  2.4299 -2.0481  2.9609
   64SOL    HW2  255   0.184   1.719   0.765  0.6653 -1.1204 -0.3924
   64SOL     MW  256   0.264   1.683   0.762  0.0076 -0.6883  0.1883
   65SOL     OW  257   1.560   2.308   0.369 -0.3175 -0.1690 -0.6593
   65SOL    HW1  258   1.649   2.343   0.388 -0.9311  0.9101 -1.0016
   65SOL    HW2  259   1.511   2.333   0.452 -0.3465 -0.7688  3.3496
   65SOL     MW  260   1.565   2.316   0.382 -0.4023 -0.1058 -0.1755
   66SOL     OW  261   0.351   0.567   0.479 -0.1294  0.2599  0.3102
   66SOL    HW1  262   0.395   0.576   0.393  1.3285  2.9971  2.2576
   66SOL    HW2  263   0.309   0.657   0.495  0.6711  0.9920 -0.2344
   66SOL     MW  264   0.351   0.580   0.470  0.1686  0.7176  0.4953
   67SOL     OW  265   1.474   0.106   1.973  0.0653 -0.7907 -0.5866
   67SOL    HW1  266   1.472   0.145   1.886 -1.6941  1.1038  2.2779
   67SOL    HW2  267   1.434   0.018   1.957 -0.9388 -2.6286 -0.9194
   67SOL     MW  268   1.468   0.099   1.960 -0.2993 -0.7832 -0.2525
   68SOL     OW  269   0.768   0.004   2.973 -0.1195 -0.3691  0.3868
   68SOL    HW1  270   0.794   0.001   2.882 -1.1447  1.1210  1.1926
   68SOL    HW2  271   0.842   0.062   3.008  1.6189 -4.2419  1.5229
   68SOL     MW  272   0.781   0.011   2.966 -0.0254 -0.6835  0.6430
   69SOL     OW  273   0.951   0.193   1.957 -0.2546  0.0831  0.1184
   69SOL    HW1  274   1.040   0.201   2.000 -0.2375  0.3052  0.8864
   69SOL    HW2  275   0.939   0.100   1.944  2.3284 -1.9822  1.1818
   69SOL     MW  276   0.961   0.182   1.961  0.0885 -0.1601  0.3601
   70SOL     OW  277   0.481   1.693   1.078 -0.0687  0.1315 -0.1585
   70SOL    HW1  278   0.559   1.726   1.124 -1.0276 -1.6067  0.6281
   70SOL    HW2  279   0.512   1.664   0.990 -0.4487 -0.6568 -0.2261
   70SOL     MW  280   0.495   1.694   1.072 -0.2454 -0.2018 -0.0636
   71SOL     OW  281   1.512   0.546   1.178 -0.7596  0.2724  0.2478
   71SOL    HW1  282   1.522   0.616   1.240 -2.0235  0.5308  0.6231
   71SOL    HW2  283   1.499   0.592   1.096 -0.0330  2.6581  0.2737
   71SOL     MW  284   1.512   0.561   1.176 -0.8305  0.6213  0.3008
   72SOL     OW  285   0.767   1.868   1.007 -0.6747 -0.2492  0.3082
   72SOL    HW1  286   0.742   1.954   0.975  1.5367 -0.6974  1.1570
   72SOL    HW2  287   0.760   1.812   0.934  0.4333  2.5207 -0.1824
   72SOL     MW  288   0.763   1.872   0.993 -0.2368  0.0571  0.3554
   73SOL     OW  289   1.229   0.680   1.329 -0.0535 -0.0799  0.5021
   73SOL    HW1  290   1.165   0.617   1.341  0.4735 -0.7530 -1.2683
   73SOL    HW2  291   1.187   0.768   1.349 -0.4458  1.9279 -1.3541
   73SOL     MW  292   1.215   0.683   1.333 -0.0357  0.0962  0.0236
   74SOL     OW  293   2.881   0.239   1.058  0.4206 -0.6719  0.0337
   74SOL    HW1  294   2.897   0.181   0.985 -1.6298 -2.5071 -2.9348
   74SOL    HW2  295   2.795   0.282   1.037  0.3907  2.2440 -1.8004
   74SOL     MW  296   2.872   0.237   1.046  0.1461 -0.5293 -0.5999
   75SOL     OW  297   1.584   1.322   0.110  0.0055 -0.0397 -0.2849
   75SOL    HW1  298   1.652   1.260   0.071  1.0039  0.7746  1.2782
   75SOL    HW2  299   1.607   1.321   0.207  0.0884  1.6232 -0.7566
   75SOL     MW  300   1.596   1.313   0.117  0.1482  0.2871 -0.1409
   76SOL     OW  301   2.986   0.604   0.464  0.7281  0.4605  0.1316
   76SOL    HW1  302   3.033   0.638   0.542  1.2579  2.0533 -0.4869
   76SOL    HW2  303   3.058   0.556   0.423 -0.3400  1.1065 -2.0289
   76SOL     MW  304   3.002   0.602   0.469  0.6570  0.7559 -0.2351
   77SOL     OW  305   0.908   0.555   0.420  0.0146  0.6105 -0.4804
   77SOL    HW1  306   0.874   0.585   0.337 -0.6505 -0.8966 -0.3473
   77SOL    HW2  307   0.887   0.463   0.434  1.4684  1.5955  0.0352
   77SOL     MW  308   0.901   0.547   0.411  0.1186  0.5416 -0.3948
   78SOL     OW  309   0.760   0.875   1.142 -0.7621 -0.1365  0.0222
   78SOL    HW1  310   0.786   0.961   1.092  3.3947  1.8996 -0.4048
   78SOL    HW2  311   0.670   0.856   1.125  1.5246  0.7024 -0.8832
   78SOL     MW  312   0.752   0.884   1.133  0.0881  0.2428 -0.1536
   79SOL     OW  313   1.887   1.654   0.627 -0.5634 -0.3204 -0.4694
   79SOL    HW1  314   1.802   1.615   0.613 -0.5335 -1.4558 -4.3284
   79SOL    HW2  315   1.915   1.624   0.716 -0.2252  1.6313 -1.5946
   79SOL     MW  316   1.880   1.645   0.637 -0.5148 -0.2127 -1.1271
   80SOL     OW  317   0.075   0.951   0.374 -0.4679  0.1249 -0.0226
   80SOL    HW1  318  -0.018   0.940   0.385 -0.1648  0.6415  1.6031
   80SOL    HW2  319   0.121   0.890   0.427 -1.1605  1.4843  1.7391
   80SOL     MW  320   0.069   0.942   0.382 -0.5193  0.3724  0.4243
   81SOL     OW  321   1.863   1.884   0.322 -0.0353 -0.2595  0.2964
   81SOL    HW1  322   1.827   1.799   0.302 -1.3825 -2.6991 -0.9727
   81SOL    HW2  323   1.803   1.946   0.270 -0.5655  0.6454 -0.1895
   81SOL     MW  324   1.850   1.881   0.313 -0.2830 -0.4620  0.0649
   82SOL     OW  325   0.867   1.039   0.512  0.2302 -0.3533 -0.1345
   82SOL    HW1  326   0.851   1.067   0.421  3.0723  1.9285 -0.2281
   82SOL    HW2  327   0.827   0.949   0.508 -2.5015 -0.8667 -1.3476
   82SOL     MW  328   0.860   1.031   0.499  0.2448 -0.1200 -0.3069
   83SOL     OW  329   0.045   0.744   1.492  0.3379  0.2873 -0.4046
   83SOL    HW1  330   0.059   0.787   1.408 -1.4620  4.3338 -0.9744
   83SOL    HW2  331   0.096   0.663   1.491  0.4740 -2.2597 -0.8881
   83SOL     MW  332   0.054   0.739   1.481  0.1184  0.4852 -0.5436
   84SOL     OW  333   0.045   0.204   0.894 -0.3001  0.0678 -0.1317
   84SOL    HW1  334   0.027   0.282   0.953 -1.2237  1.4208  0.5046
   84SOL    HW2  335   0.034   0.127   0.952 -0.9708 -0.1159  2.9474
   84SOL     MW  336   0.041   0.204   0.909 -0.5104  0.2221  0.3585
   85SOL     OW  337   0.395   0.438   0.707 -0.3214  0.0765 -0.0456
   85SOL    HW1  338   0.376   0.468   0.622  0.4496 -0.3872  0.6005
   85SOL    HW2  339   0.372   0.345   0.715  0.2601  0.6744 -0.3043
   85SOL     MW  340   0.390   0.430   0.697 -0.1429  0.0942  0.0055
   86SOL     OW  341   1.181   0.245   1.134  0.2159  0.1686  0.4456
   86SOL    HW1  342   1.149   0.335   1.144  1.6637  0.5941 -0.4204
   86SOL    HW2  343   1.272   0.243   1.138  1.3469 -1.1794  1.5683
   86SOL     MW  344   1.189   0.257   1.136  0.5562  0.0469  0.4794
   87SOL     OW  345   1.058   1.493   1.210 -0.2859  0.4928 -0.0284
   87SOL    HW1  346   1.120   1.545   1.162 -1.3834 -1.9422  1.0472
   87SOL    HW2  347   1.070   1.404   1.180 -0.1686 -1.4530 -0.8239
   87SOL     MW  348   1.068   1.488   1.200 -0.4152 -0.0852  0.0086
   88SOL     OW  349   1.232   1.025   0.994  0.3315 -0.2498 -0.0284
   88SOL    HW1  350   1.324   1.030   0.971 -0.2012 -0.9731  0.7614
   88SOL    HW2  351   1.223   1.092   1.065  0.9049  3.0658  0.0414
   88SOL     MW  352   1.243   1.035   1.000  0.3369  0.0922  0.0850
   89SOL     OW  353   1.732   0.731   0.379  0.0701 -0.2869 -0.4751
   89SOL    HW1  354   1.714   0.643   0.409  0.3448 -1.2224 -1.8231
   89SOL    HW2  355   1.818   0.728   0.331  2.7885  1.1385  0.0780
   89SOL     MW  356   1.741   0.719   0.377  0.4650 -0.2222 -0.5800
   90SOL     OW  357   0.850   1.155   2.885  0.6096 -0.2343 -0.3369
   90SOL    HW1  358   0.879   1.062   2.879  0.3258  0.5760 -0.3299
   90SOL    HW2  359   0.852   1.197   2.977 -0.2731 -0.2914 -0.2705
   90SOL     MW  360   0.854   1.148   2.897  0.4557 -0.1349 -0.3272
   91SOL     OW  361   2.197   0.658   0.455  0.3143  0.0833 -0.5214
   91SOL    HW1  362   2.278   0.703   0.415  1.7789 -1.5245  0.5773
   91SOL    HW2  363   2.204   0.572   0.420  0.2199  1.1229 -0.4806
   91SOL     MW  364   2.208   0.652   0.445  0.4951  0.0083 -0.3711
   92SOL     OW  365   1.652   0.916   0.565 -0.2652  0.1904  0.2808
   92SOL    HW1  366   1.560   0.947   0.584 -0.0534  0.7721  0.5972
   92SOL    HW2  367   1.652   0.843   0.499  0.8250  2.3858 -0.4452
   92SOL     MW  368   1.640   0.911   0.559 -0.0934  0.5568  0.2267
   93SOL     OW  369   1.134   0.198   0.412 -0.0547  0.3577 -0.6412
   93SOL    HW1  370   1.047   0.231   0.427  2.8832  2.5198  0.3597
   93SOL    HW2  371   1.150   0.241   0.324  0.3966  0.0711 -1.4077
   93SOL     MW  372   1.124   0.208   0.402  0.3924  0.6052 -0.6102
   94SOL     OW  373   1.853   1.366   1.597  0.4284  0.7047 -0.3813
   94SOL    HW1  374   1.870   1.363   1.506 -0.3415  0.5825 -0.0892
   94SOL    HW2  375   1.836   1.274   1.623 -0.9011  2.8938  2.5017
   94SOL     MW  376   1.853   1.353   1.588  0.1514  0.9774  0.0377
   95SOL     OW  377   0.648   1.556   0.921 -0.7369 -1.0116 -0.2842
   95SOL    HW1  378   0.651   1.539   1.018  1.4600 -2.5933 -1.8476
   95SOL    HW2  379   0.597   1.479   0.892 -0.4189 -0.5987 -1.1759
   95SOL     MW  380   0.642   1.544   0.930 -0.4050 -1.1658 -0.6081
   96SOL     OW  381   1.330   1.871   1.724  0.0896 -0.1158  0.3225
   96SOL    HW1  382   1.245   1.889   1.755 -0.2561 -2.9016 -0.4090
   96SOL    HW2  383   1.319   1.785   1.687 -1.7661  0.0386 -0.2647
   96SOL     MW  384   1.317   1.862   1.723 -0.2009 -0.4630  0.1485
   97SOL     OW  385   1.119   1.459   0.857 -0.1078 -0.0351  0.5678
   97SOL    HW1  386   1.162   1.512   0.923  0.8070  1.0500 -0.1036
   97SOL    HW2  387   1.042   1.506   0.835 -1.0040 -0.8402  0.0476
   97SOL     MW  388   1.114   1.472   0.862 -0.1054  0.0018  0.4106
   98SOL     OW  389   1.426   1.346   1.155 -0.2500  0.4618 -0.4696
   98SOL    HW1  390   1.479   1.380   1.229 -0.0679  2.2953  0.6792
   98SOL    HW2  391   1.431   1.412   1.084  0.7923  0.4882  3.5340
   98SOL     MW  392   1.434   1.359   1.156 -0.0885  0.7072  0.2102
   99SOL     OW  393   1.459   0.285   1.260 -0.6134 -0.1154  0.3320
   99SOL    HW1  394   1.480   0.373   1.224 -1.6278 -2.0563 -0.7810
   99SOL    HW2  395   1.401   0.301   1.328  2.3080  1.3482  0.0333
   99SOL     MW  396   1.454   0.299   1.264 -0.3618 -0.1784  0.1457
  100SOL     OW  397   1.019   1.165   1.397 -0.0763  0.1951 -0.5221
  100SOL    HW1  398   1.067   1.209   1.469  0.5513  0.0622  0.4287
  100SOL    HW2  399   1.025   1.073   1.418 -0.0802 -1.3444  0.4303
  100SOL     MW  400   1.026   1.159   1.409  0.0060 -0.0255 -0.2710
  101SOL     OW  401   0.540   1.183   0.356  0.5440 -0.4771 -0.3400
  101SOL    HW1  402   0.460   1.152   0.316  0.9952 -0.2394  0.6932
  101SOL    HW2  403   0.618   1.131   0.327  0.5004  2.0947  2.4684
  101SOL     MW  404   0.540   1.172   0.347  0.5978 -0.1065  0.1669
  102SOL     OW  405   2.894   0.641   1.036 -0.2636  0.2755  0.7182
  102SOL    HW1  406   2.919   0.734   1.038  0.9174  2.0820  1.6878
  102SOL    HW2  407   2.885   0.622   1.134 -1.3505  0.7004 -1.5925
  102SOL     MW  408   2.896   0.651   1.049 -0.2512  0.5699  0.5413
  103SOL     OW  409   1.833   0.225   1.819 -0.0448 -0.1204 -0.8360
  103SOL    HW1  410   1.829   0.133   1.804  1.0976 -0.5494  0.5006
  103SOL    HW2  411   1.808   0.230   1.909  0.0926 -1.0645 -0.2115
  103SOL     MW  412   1.829   0.213   1.829  0.1241 -0.3016 -0.5773
  104SOL     OW  413   0.104   1.520   1.588  0.3287  0.0162  0.3886
  104SOL    HW1  414   0.163   1.460   1.630  3.2594 -0.3961  0.6252
  104SOL    HW2  415   0.011   1.510   1.617 -1.4787  3.4645 -0.0801
  104SOL     MW  416   0.100   1.511   1.597  0.4769  0.4168  0.3580
  105SOL     OW  417   3.092   1.224   0.412 -0.0598 -0.0843 -0.4391
  105SOL    HW1  418   3.122   1.133   0.430 -0.9052 -0.1840  0.9621
  105SOL    HW2  419   3.172   1.274   0.412 -3.3542  2.0840  1.7927
  105SOL     MW  420   3.107   1.219   0.414 -0.6060  0.1886  0.0402
  106SOL     OW  421   0.764   0.416   0.902 -0.3879 -0.2832 -0.0460
  106SOL    HW1  422   0.701   0.488   0.912 -0.5170  0.0389  0.2681
  106SOL    HW2  423   0.836   0.444   0.849 -1.0291  0.8746 -0.5293
  106SOL     MW  424   0.765   0.429   0.896 -0.4895 -0.0879 -0.0683
  107SOL     OW  425   0.829   2.109   2.897 -0.3548 -0.2199 -0.2468
  107SOL    HW1  426   0.739   2.089   2.869  1.4632 -0.7325  0.8220
  107SOL    HW2  427   0.826   2.126   2.988 -0.4118  1.3075 -2.6633
  107SOL     MW  428   0.817   2.108   2.905 -0.1225 -0.0860 -0.4246
  108SOL     OW  429   1.360   1.604   1.642  0.0749 -0.1110  0.2934
  108SOL    HW1  430   1.307   1.563   1.567 -2.3305 -2.5147 -0.3792
  108SOL    HW2  431   1.442   1.563   1.631 -2.0530  1.1217 -0.7720
  108SOL     MW  432   1.364   1.593   1.631 -0.5232 -0.2655  0.0641
  109SOL     OW  433   2.015   0.720   0.247  0.2962 -0.5847  0.0968
  109SOL    HW1  434   2.024   0.814   0.246 -2.8175  0.2619  0.7340
  109SOL    HW2  435   2.085   0.695   0.307  0.3752 -1.5988  0.4787
  109SOL     MW  436   2.025   0.729   0.254 -0.1042 -0.6068  0.2312
  110SOL     OW  437   0.409   1.933   0.706  0.0572  0.0231  0.0244
  110SOL    HW1  438   0.468   1.864   0.689 -2.4560  0.3925  4.3331
  110SOL    HW2  439   0.403   1.983   0.623  1.3060 -0.4893  1.8280
  110SOL     MW  440   0.416   1.930   0.693 -0.1096  0.0042  0.8309
  111SOL     OW  441   0.792   0.894   1.429  0.4368 -0.2423 -0.6350
  111SOL    HW1  442   0.800   0.899   1.334 -0.5400  0.8797  0.8355
  111SOL    HW2  443   0.749   0.808   1.449 -0.0440  0.3216  0.6061
  111SOL     MW  444   0.787   0.883   1.419  0.2445 -0.0199 -0.2772
  112SOL     OW  445   1.364   1.082   1.622  0.9400  0.1021 -0.0415
  112SOL    HW1  446   1.291   1.138   1.630  0.2564 -0.9623 -2.8356
  112SOL    HW2  447   1.329   0.993   1.612 -0.0338 -0.2056  0.8390
  112SOL     MW  448   1.350   1.078   1.622  0.7213 -0.0789 -0.2940
  113SOL     OW  449   1.242   3.068   1.671 -0.1374 -0.0424 -0.1113
  113SOL    HW1  450   1.247   3.035   1.764  0.2562 -1.3827  1.8536
  113SOL    HW2  451   1.251   2.983   1.625  1.2334 -0.6683  0.2067
  113SOL     MW  452   1.244   3.053   1.677  0.0954 -0.3018  0.1899
  114SOL     OW  453   0.259   2.875   1.869  0.0807  0.3438  0.3704
  114SOL    HW1  454   0.314   2.904   1.940 -1.4901 -1.2462 -1.3341
  114SOL    HW2  455   0.219   2.960   1.847 -0.1391  4.5656 -1.8671
  114SOL     MW  456   0.261   2.890   1.875 -0.1555  0.6910 -0.1497
  115SOL     OW  457   0.455   0.801   1.145  0.4646 -0.0671  0.0451
  115SOL    HW1  458   0.425   0.708   1.131 -1.4561 -0.5067  2.5168
  115SOL    HW2  459   0.439   0.825   1.242 -0.5081 -1.7806  0.8035
  115SOL     MW  460   0.449   0.792   1.156  0.0829 -0.3512  0.4713
  116SOL     OW  461   0.821   1.096   1.013  0.2856  0.5791  0.1917
  116SOL    HW1  462   0.824   1.121   0.920 -1.5263 -0.0821 -0.3786
  116SOL    HW2  463   0.829   1.164   1.074  1.3875 -1.8083  2.1152
  116SOL     MW  464   0.822   1.108   1.008  0.1919  0.1769  0.3703
  117SOL     OW  465   1.105   1.178   0.802  0.6428  0.1514  0.0825
  117SOL    HW1  466   1.148   1.115   0.858  0.1259  0.7723 -1.3721
  117SOL    HW2  467   1.129   1.272   0.835 -3.2595  0.7133 -2.4365
  117SOL     MW  468   1.114   1.182   0.814  0.0597  0.3075 -0.4418
  118SOL     OW  469   3.041   2.973   1.693  0.3062 -0.5893 -0.3600
  118SOL    HW1  470   3.075   3.012   1.775 -0.5072 -2.7775 -1.3216
  118SOL    HW2  471   2.967   3.032   1.663  1.5931 -0.3117  2.2483
  118SOL     MW  472   3.036   2.986   1.700  0.3687 -0.8414 -0.1427
  119SOL     OW  473   0.412   1.505   1.257  0.1677  0.4923 -0.0689
  119SOL    HW1  474   0.423   1.592   1.221  2.1450 -0.3697  2.2878
  119SOL    HW2  475   0.322   1.479   1.230 -1.1988  1.2188 -2.7031
  119SOL     MW  476   0.401   1.513   1.249  0.2483  0.4744 -0.1055
  120SOL     OW  477   0.209   0.770   1.022  0.2943  0.0982 -0.5634
  120SOL    HW1  478   0.155   0.801   1.094  4.1367  1.7773  1.4519
  120SOL    HW2  479   0.296   0.791   1.051 -1.7561 -0.6284  0.6648
  120SOL     MW  480   0.213   0.777   1.035  0.5308  0.2238 -0.1355
  121SOL     OW  481   1.762   1.116   1.659 -0.1730 -0.8270 -0.0810
  121SOL    HW1  482   1.683   1.168   1.623 -3.0383 -1.6412 -1.8490
  121SOL    HW2  483   1.777   1.044   1.596  2.4761  2.1756  0.1285
  121SOL     MW  484   1.753   1.114   1.646 -0.2015 -0.5383 -0.2867
  122SOL     OW  485   0.179   0.564   0.812  0.1819 -0.5583 -0.0219
  122SOL    HW1  486   0.258   0.519   0.775 -0.2767  1.2579 -0.8223
  122SOL    HW2  487   0.207   0.613   0.889 -0.3457 -1.0902  2.0181
  122SOL     MW  488   0.193   0.564   0.817  0.0518 -0.3888  0.1416
  123SOL     OW  489   1.841   1.097   0.482  0.0088  0.2168  0.3046
  123SOL    HW1  490   1.781   1.024   0.501  1.1791  0.5491 -1.0038
  123SOL    HW2  491   1.842   1.150   0.564  2.0508  1.9776  1.0867
  123SOL     MW  492   1.833   1.095   0.496  0.4326  0.4930  0.2352
  124SOL     OW  493   0.510   0.570   0.937 -0.1104 -0.0557  0.4142
  124SOL    HW1  494   0.485   0.525   0.855  0.6564 -0.9587 -1.2596
  124SOL    HW2  495   0.569   0.639   0.902  0.7198 -1.9670 -1.1875
  124SOL     MW  496   0.514   0.573   0.921  0.1003 -0.4270 -0.0180
  125SOL     OW  497   0.742   1.779   1.723 -0.2069 -0.0371  0.4421
  125SOL    HW1  498   0.655   1.739   1.727 -0.3342 -0.2906  0.2819
  125SOL    HW2  499   0.714   1.867   1.682  0.8955 -0.7503 -2.1624
  125SOL     MW  500   0.727   1.785   1.718 -0.0782 -0.1646  0.0773
  126SOL     OW  501   2.161   1.506   1.949  0.2769 -0.7380  0.2100
  126SOL    HW1  502   2.202   1.594   1.930 -0.9644 -0.4132 -1.7003
  126SOL    HW2  503   2.234   1.448   1.964  0.4348  0.8447 -2.3671
  126SOL     MW  504   2.176   1.510   1.949  0.1340 -0.4863 -0.3821
  127SOL     OW  505   0.583   0.865   1.784 -0.2129 -0.0811 -0.0166
  127SOL    HW1  506   0.674   0.844   1.806  0.7986  0.3972 -0.4321
  127SOL    HW2  507   0.547   0.913   1.865  1.4473  3.0037 -0.8285
  127SOL     MW  508   0.591   0.868   1.797  0.1396  0.3890 -0.1786
  128SOL     OW  509   1.678   0.715   2.900 -0.0373  0.0397  0.0896
  128SOL    HW1  510   1.732   0.700   2.818  2.0666 -1.6076 -1.3870
  128SOL    HW2  511   1.645   0.805   2.897 -1.2065 -0.7276  0.0694
  128SOL     MW  512   1.680   0.725   2.889  0.0860 -0.2789 -0.1079
  129SOL     OW  513   1.611   0.935   0.181  0.0430 -0.0336  0.7202
  129SOL    HW1  514   1.544   0.865   0.174 -0.7259 -1.8678  1.5083
  129SOL    HW2  515   1.664   0.890   0.247 -1.1768  1.0396  0.2434
  129SOL     MW  516   1.609   0.920   0.189 -0.2194 -0.1340  0.7612
  130SOL     OW  517   0.783   1.399   0.306 -0.7806  0.6749 -0.0887
  130SOL    HW1  518   0.795   1.408   0.407 -0.8616  2.9252  0.1023
  130SOL    HW2  519   0.854   1.440   0.261  1.7870 -1.5003  0.1821
  130SOL     MW  520   0.794   1.406   0.314 -0.4525  0.6848 -0.0278
  131SOL     OW  521   3.046   0.818   0.015 -0.1536 -0.1073  0.6187
  131SOL    HW1  522   3.052   0.843  -0.086 -0.8534  0.8226  0.1062
  131SOL    HW2  523   3.132   0.787   0.031  0.2147 -1.9483  0.1853
  131SOL     MW  524   3.058   0.817   0.004 -0.1974 -0.2275  0.4939
  132SOL     OW  525   2.742   0.159   1.292  0.4713 -0.1176 -0.5253
  132SOL    HW1  526   2.799   0.190   1.223 -0.9342  3.2512 -1.3001
  132SOL    HW2  527   2.654   0.152   1.248 -3.7501  0.4430  0.1955
  132SOL     MW  528   2.738   0.162   1.277 -0.2711  0.4008 -0.5324
  133SOL     OW  529   1.054   0.176   1.686 -0.4814 -0.7715 -0.1327
  133SOL    HW1  530   1.125   0.112   1.667  1.8329 -0.0736  0.6112
  133SOL    HW2  531   1.064   0.204   1.778 -2.5776 -3.9456  1.1701
  133SOL     MW  532   1.065   0.171   1.696 -0.4526 -1.0982  0.1373
  134SOL     OW  533   1.416   2.452   1.440  0.0289 -0.0706  1.0731
  134SOL    HW1  534   1.334   2.510   1.432 -2.8224  0.7019 -0.9382
  134SOL    HW2  535   1.461   2.461   1.524  0.7885 -0.5795 -0.4432
  134SOL     MW  536   1.411   2.461   1.450 -0.2471 -0.0358  0.6077
  135SOL     OW  537   3.053   0.986   2.878  0.3204 -0.1066  0.2779
  135SOL    HW1  538   3.125   1.041   2.893 -2.9049  0.2803 -1.0342
  135SOL    HW2  539   2.979   1.050   2.865 -0.2838 -0.9135 -1.2624
  135SOL     MW  540   3.053   1.001   2.878 -0.1849 -0.1620 -0.0985
  136SOL     OW  541   0.221   2.049   0.871  0.0183 -0.3261  0.2253
  136SOL    HW1  542   0.156   1.980   0.841  0.1902 -0.4509  0.9975
  136SOL    HW2  543   0.290   2.022   0.815  1.9870 -0.7489  0.5053
  136SOL     MW  544   0.221   2.036   0.859  0.3007 -0.3983  0.3641
  137SOL     OW  545   0.685   2.065   0.537 -0.2683 -0.1288 -0.2046
  137SOL    HW1  546   0.692   2.075   0.635  2.9879 -1.2620 -2.0782
  137SOL    HW2  547   0.589   2.075   0.519  0.0151  0.2274 -0.2828
  137SOL     MW  548   0.674   2.068   0.547  0.1987 -0.2313 -0.4621
  138SOL     OW  549   0.450   0.506   1.206 -0.4610  0.1183  0.1584
  138SOL    HW1  550   0.355   0.495   1.193 -2.6575 -0.4412 -0.0115
  138SOL    HW2  551   0.501   0.522   1.124 -1.3663 -2.4848  0.9858
  138SOL     MW  552   0.444   0.507   1.194 -0.8703 -0.2990  0.2451
  139SOL     OW  553   2.809   0.568   1.288 -0.6313  0.0432  0.6400
  139SOL    HW1  554   2.896   0.523   1.304  2.9462  1.9837 -0.0345
  139SOL    HW2  555   2.810   0.632   1.360 -1.9567  1.0621  1.2063
  139SOL     MW  556   2.821   0.571   1.299 -0.3341  0.4337  0.6257
  140SOL     OW  557   0.886   0.475   2.000 -0.6097  0.3291 -0.0048
  140SOL    HW1  558   0.892   0.380   1.978  0.5548  1.0924  0.9461
  140SOL    HW2  559   0.848   0.488   2.091 -1.3481 -2.2555  0.6402
  140SOL     MW  560   0.882   0.464   2.009 -0.5535  0.0888  0.2058
  141SOL     OW  561   0.993   0.652   1.675  0.2686  0.0084 -0.1269
  141SOL    HW1  562   1.041   0.574   1.676 -2.3372  0.9946 -0.5912
  141SOL    HW2  563   1.058   0.723   1.678  2.3985  1.1837  0.5767
  141SOL     MW  564   1.008   0.651   1.676  0.2058  0.2936 -0.0953
  142SOL     OW  565   0.853   1.171   0.745  0.0889  0.1882  0.4251
  142SOL    HW1  566   0.848   1.102   0.676  2.8764  0.1428  0.3724
  142SOL    HW2  567   0.946   1.166   0.767 -1.5605 -0.1735 -2.1137
  142SOL     MW  568   0.864   1.161   0.739  0.2391  0.1345  0.0832
  143SOL     OW  569   1.823   0.685   1.091  0.0275  0.3830  0.0534
  143SOL    HW1  570   1.899   0.712   1.040 -0.9622  1.4305 -0.6838
  143SOL    HW2  571   1.750   0.712   1.036  0.2096 -1.1698 -0.0154
  143SOL     MW  572   1.824   0.692   1.077 -0.0791  0.3164 -0.0530
  144SOL     OW  573   0.285   1.360   1.722 -0.3807 -0.4711 -0.3817
  144SOL    HW1  574   0.367   1.387   1.671  0.6820  4.7715 -0.8130
  144SOL    HW2  575   0.332   1.312   1.797 -1.0833  0.3151  1.5187
  144SOL     MW  576   0.302   1.357   1.725 -0.3332  0.3243 -0.1879
  145SOL     OW  577   0.164   0.469   1.259 -0.1245 -0.7857 -0.3321
  145SOL    HW1  578   0.202   0.379   1.249 -1.5012  0.5637 -0.4353
  145SOL    HW2  579   0.121   0.502   1.180  1.5814  0.7131  3.0346
  145SOL     MW  580   0.163   0.461   1.247 -0.0810 -0.4099  0.0985
  146SOL     OW  581   0.899   1.912   1.375 -0.0961 -0.6339 -0.2977
  146SOL    HW1  582   0.939   1.953   1.301  1.8907 -1.7422  2.0217
  146SOL    HW2  583   0.812   1.893   1.345 -0.6564  0.6730 -2.7622
  146SOL     MW  584   0.893   1.914   1.362  0.0921 -0.6077 -0.3168
  147SOL     OW  585   0.434   0.513   2.951  0.2975 -0.3018 -0.1488
  147SOL    HW1  586   0.382   0.527   3.034  1.3774  3.2764  0.4173
  147SOL    HW2  587   0.385   0.556   2.881  0.5988 -1.0043 -1.0123
  147SOL     MW  588   0.421   0.520   2.953  0.4798  0.0777 -0.1880
  148SOL     OW  589   0.035   0.896   1.247 -0.6199  0.9687  0.7636
  148SOL    HW1  590   0.126   0.931   1.279  1.2003 -2.5854  3.1582
  148SOL    HW2  591  -0.006   0.973   1.297  0.2257  2.3521  0.3478
  148SOL     MW  592   0.042   0.911   1.257 -0.2682  0.6823  1.0247
  149SOL     OW  593   1.577   1.166   1.464 -0.2977  0.0600  1.0318
  149SOL    HW1  594   1.515   1.146   1.533 -0.0724  1.0500 -0.2375
  149SOL    HW2  595   1.567   1.254   1.428 -0.4857 -1.0728  0.9497
  149SOL     MW  596   1.567   1.175   1.468 -0.2928  0.0411  0.8535
  150SOL     OW  597   1.714   1.365   0.865  0.3250 -0.3577  0.4875
  150SOL    HW1  598   1.775   1.300   0.831  0.6260  0.7108  0.9799
  150SOL    HW2  599   1.770   1.440   0.894  2.0843  1.9568 -0.1320
  150SOL     MW  600   1.730   1.366   0.864  0.5968  0.0887  0.4707
  151SOL     OW  601   1.694   1.843   0.796 -0.1670 -0.2851  0.1808
  151SOL    HW1  602   1.679   1.849   0.703  1.3775  1.1060 -0.3899
  151SOL    HW2  603   1.609   1.834   0.831  0.6733  0.3745 -1.9958
  151SOL     MW  604   1.681   1.842   0.788  0.1476 -0.0145 -0.1816
  152SOL     OW  605   0.772   1.431   1.627 -0.0984  0.4988  0.2078
  152SOL    HW1  606   0.793   1.496   1.559 -2.8537 -1.8006 -2.9918
  152SOL    HW2  607   0.791   1.343   1.588  1.1185  2.4686  1.6761
  152SOL     MW  608   0.777   1.428   1.613 -0.3014  0.4553 -0.0206
  153SOL     OW  609   2.549   1.222   0.768 -0.2482 -0.2797  0.0727
  153SOL    HW1  610   2.626   1.177   0.734 -0.2028  2.2694 -1.5026
  153SOL    HW2  611   2.492   1.141   0.782  1.5333 -0.0855 -0.2077
  153SOL     MW  612   2.552   1.205   0.765 -0.0072  0.0822 -0.1721
  154SOL     OW  613   0.121   1.760   1.738 -0.3379 -0.1731  0.2920
  154SOL    HW1  614   0.118   1.678   1.687  2.5043  1.6470  1.6447
  154SOL    HW2  615   0.209   1.740   1.771 -1.0291  1.7796  0.2926
  154SOL     MW  616   0.132   1.746   1.735 -0.0541  0.3247  0.4706
  155SOL     OW  617   1.181   0.756   0.320 -0.2704 -0.5606 -0.0624
  155SOL    HW1  618   1.155   0.737   0.415 -0.8042 -0.7216  2.1748
  155SOL    HW2  619   1.201   0.850   0.321  1.9269 -2.4208  0.2059
  155SOL     MW  620   1.180   0.766   0.333 -0.0509 -0.8273  0.2682
  156SOL     OW  621   1.547   3.046   1.111 -0.3667 -0.2077  0.3768
  156SOL    HW1  622   1.603   3.112   1.162 -0.0904 -0.4481  1.0781
  156SOL    HW2  623   1.603   2.969   1.112  1.4977  1.4551 -0.7213
  156SOL     MW  624   1.562   3.045   1.118 -0.0843 -0.0200  0.3245
  157SOL     OW  625   1.373   1.158   0.097  0.0844  0.2510 -0.2953
  157SOL    HW1  626   1.403   1.079   0.142 -0.4234  0.9427 -3.9184
  157SOL    HW2  627   1.434   1.233   0.099  4.0722 -0.4664  2.2931
  157SOL     MW  628   1.385   1.157   0.103  0.5436  0.2476 -0.4318
  158SOL     OW  629   0.448   1.683   2.298  0.0592  0.9193 -0.7422
  158SOL    HW1  630   0.461   1.724   2.213  0.7354  1.2569 -0.8697
  158SOL    HW2  631   0.383   1.735   2.344 -0.1972 -1.3177 -0.3977
  158SOL     MW  632   0.441   1.695   2.293  0.1146  0.6687 -0.7136
  159SOL     OW  633   1.250   1.628   0.474  0.1371 -0.5026 -0.0228
  159SOL    HW1  634   1.214   1.579   0.399  0.1179 -3.2256  0.2530
  159SOL    HW2  635   1.171   1.668   0.517 -2.5043 -0.4211  1.4119
  159SOL     MW  636   1.235   1.627   0.470 -0.2139 -0.8512  0.2029
  160SOL     OW  637   0.504   1.258   1.546  0.1474 -0.1664 -0.3694
  160SOL    HW1  638   0.449   1.192   1.583 -0.7735  2.4293 -0.2141
  160SOL    HW2  639   0.590   1.235   1.590  1.1539  0.8649 -0.3606
  160SOL     MW  640   0.508   1.246   1.556  0.1587  0.3121 -0.3478
  161SOL     OW  641   0.455   2.191   2.574 -0.2669  0.8728  0.2027
  161SOL    HW1  642   0.371   2.229   2.563  2.6218 -1.7150  0.0748
  161SOL    HW2  643   0.467   2.141   2.490 -2.7823 -0.5009 -3.4456
  161SOL     MW  644   0.446   2.190   2.561 -0.2176  0.3501 -0.2956
  162SOL     OW  645   1.049   1.831   1.841  0.2295  0.2006 -0.2927
  162SOL    HW1  646   1.038   1.923   1.830 -1.5920 -2.2318 -0.2780
  162SOL    HW2  647   0.976   1.792   1.893 -0.1464 -0.0055 -0.5841
  162SOL     MW  648   1.038   1.838   1.847 -0.0605 -0.1476 -0.3292
  163SOL     OW  649   2.064   3.060   0.896  0.6887 -0.0512 -0.2088
  163SOL    HW1  650   2.037   3.133   0.837 -2.4829  2.8468 -0.0002
  163SOL    HW2  651   2.071   2.979   0.843 -2.2869  1.6313 -2.9408
  163SOL     MW  652   2.061   3.059   0.881 -0.1224  0.5531 -0.5417
  164SOL     OW  653   0.307   0.193   0.797  0.5862  0.4512  0.1320
  164SOL    HW1  654   0.215   0.191   0.831 -1.3868 -0.8825  3.7154
  164SOL    HW2  655   0.315   0.108   0.754  0.6326  1.6036 -1.0417
  164SOL     MW  656   0.296   0.182   0.795  0.3320  0.4273  0.4499
  165SOL     OW  657   1.200   1.322   0.345 -0.2748 -0.2478  0.0928
  165SOL    HW1  658   1.212   1.286   0.431  2.4267  3.4632  2.6207
  165SOL    HW2  659   1.272   1.282   0.303 -0.5517 -0.7896 -1.6315
  165SOL     MW  660   1.211   1.312   0.351  0.0451  0.1703  0.1988
  166SOL     OW  661   0.546   1.120   1.020 -0.7226  0.0649  0.0810
  166SOL    HW1  662   0.520   1.172   1.099  0.1071 -1.0896 -1.5239
  166SOL    HW2  663   0.646   1.110   1.022  1.1265  0.7688 -2.0324
  166SOL     MW  664   0.556   1.125   1.031 -0.3692  0.0055 -0.4096
  167SOL     OW  665   0.808   1.107   0.253 -0.2556  0.0313  0.2630
  167SOL    HW1  666   0.802   1.208   0.266 -2.1800 -0.2722 -0.6025
  167SOL    HW2  667   0.896   1.097   0.216 -0.6431  1.0119 -0.4318
  167SOL     MW  668   0.819   1.119   0.250 -0.5607  0.1206  0.0572
  168SOL     OW  669   1.746   1.664   3.044  0.6467  0.5796  0.4452
  168SOL    HW1  670   1.677   1.726   3.011 -1.2323  0.3575 -1.3398
  168SOL    HW2  671   1.732   1.585   2.988 -1.2456 -0.9765  0.0182
  168SOL     MW  672   1.735   1.661   3.032  0.1491  0.3450  0.1534
  169SOL     OW  673   0.295   0.961   1.334 -0.5677 -0.4844  0.0217
  169SOL    HW1  674   0.319   0.972   1.427 -0.0260  2.7134  2.0483
  169SOL    HW2  675   0.360   1.006   1.285  0.5100 -0.0935  1.9191
  169SOL     MW  676   0.307   0.969   1.340 -0.3540 -0.0109  0.5394
  170SOL     OW  677   1.147   1.504   1.474  0.2966 -0.0105 -0.9245
  170SOL    HW1  678   1.094   1.577   1.486  3.5783  0.1524 -2.2954
  170SOL    HW2  679   1.142   1.496   1.382 -0.1951  1.8291  0.6175
  170SOL     MW  680   1.140   1.513   1.464  0.6647  0.2537 -0.9019
  171SOL     OW  681   0.499   1.420   0.529 -1.0339  0.0671 -0.1526
  171SOL    HW1  682   0.500   1.383   0.617 -0.0577 -1.7180  2.8988
  171SOL    HW2  683   0.530   1.346   0.479  0.3510 -1.0357  2.8467
  171SOL     MW  684   0.503   1.405   0.534 -0.7224 -0.3139  0.6457
  172SOL     OW  685   0.853   0.297   1.252 -0.5482 -0.1619 -0.3719
  172SOL    HW1  686   0.827   0.287   1.160  2.0880  0.7686  0.8017
  172SOL    HW2  687   0.825   0.223   1.298  1.2037  0.5282 -0.5023
  172SOL     MW  688   0.846   0.286   1.246  0.0308  0.0520 -0.2342
  173SOL     OW  689   0.526   1.803   0.279  0.3846 -0.8414  0.8842
  173SOL    HW1  690   0.549   1.714   0.249  0.9714  1.0254 -0.0026
  173SOL    HW2  691   0.514   1.800   0.372  0.4951 -0.6096  0.8767
  173SOL     MW  692   0.528   1.791   0.287  0.4766 -0.5645  0.7662
  174SOL     OW  693   1.849   0.902   1.494  0.0915  0.0256  0.0239
  174SOL    HW1  694   1.814   0.818   1.525  0.9285 -1.4711 -0.0903
  174SOL    HW2  695   1.845   0.901   1.397  2.9189  0.8431 -0.2876
  174SOL     MW  696   1.844   0.890   1.485  0.5750 -0.0640 -0.0323
  175SOL     OW  697   0.533   1.519   0.200  1.1367  0.0817  0.3102
  175SOL    HW1  698   0.481   1.448   0.163 -1.8124 -0.1513 -0.4595
  175SOL    HW2  699   0.585   1.472   0.261 -1.2556  2.0585 -2.1162
  175SOL     MW  700   0.533   1.503   0.203  0.4320  0.3118 -0.1115
  176SOL     OW  701   0.150   1.462   1.208  0.2457 -0.1435 -0.3350
  176SOL    HW1  702   0.139   1.444   1.109 -1.8522 -0.9000 -0.6105
  176SOL    HW2  703   0.060   1.432   1.241 -2.2020 -1.5405 -4.0264
  176SOL     MW  704   0.137   1.456   1.199 -0.3540 -0.4277 -0.8584
  177SOL     OW  705   0.552   0.315   1.450 -0.4007  0.0406  0.5868
  177SOL    HW1  706   0.590   0.344   1.369 -0.6640 -1.4803 -0.3438
  177SOL    HW2  707   0.570   0.387   1.512  0.2896  1.0067 -2.5263
  177SOL     MW  708   0.559   0.328   1.447 -0.3444 -0.0326  0.0532
  178SOL     OW  709   3.091   0.519   3.002 -0.0874 -0.2142  0.0907
  178SOL    HW1  710   3.039   0.509   3.091  0.4572  0.2088  2.6672
  178SOL    HW2  711   3.027   0.479   2.936 -0.0768  0.3737 -0.6295
  178SOL     MW  712   3.076   0.512   3.005 -0.0142 -0.0808  0.3356
  179SOL     OW  713   1.575   1.433   1.376 -0.7315 -0.3784  0.0397
  179SOL    HW1  714   1.570   1.447   1.468  0.3837  0.3087  0.8022
  179SOL    HW2  715   1.666   1.425   1.341 -2.4831 -0.3433 -1.5893
  179SOL     MW  716   1.586   1.434   1.383 -0.8154 -0.2831 -0.0747
  180SOL     OW  717   2.988   0.275   0.503  0.4101 -0.0268  0.2899
  180SOL    HW1  718   2.970   0.302   0.408 -2.0186  2.3572 -1.8444
  180SOL    HW2  719   3.062   0.328   0.521 -2.7289  3.3678  0.0965
  180SOL     MW  720   2.996   0.285   0.493 -0.3245  0.7356 -0.0172
  181SOL     OW  721   1.140   1.318   3.079 -0.0523 -0.7901  0.3073
  181SOL    HW1  722   1.208   1.363   3.128  0.6925 -0.0380 -1.4281
  181SOL    HW2  723   1.182   1.252   3.017  0.7275  1.6611 -3.3502
  181SOL     MW  724   1.154   1.315   3.077  0.1488 -0.3675 -0.4042
  182SOL     OW  725   0.370   1.002   1.614  0.1334 -0.0798  0.0489
  182SOL    HW1  726   0.306   0.978   1.679  1.1676  0.3346  2.1296
  182SOL    HW2  727   0.457   0.976   1.650  0.3770  0.1866 -1.0770
  182SOL     MW  728   0.373   0.995   1.627  0.3020  0.0100  0.1749
  183SOL     OW  729   1.528   1.714   1.277 -0.3996  0.6005  0.2209
  183SOL    HW1  730   1.622   1.730   1.261 -0.0396 -1.1421  0.8702
  183SOL    HW2  731   1.517   1.629   1.322  1.0808  0.2014  2.0134
  183SOL     MW  732   1.539   1.705   1.281 -0.1567  0.3179  0.5431
  184SOL     OW  733   0.792   0.709   1.886 -0.3593 -0.1321  0.0029
  184SOL    HW1  734   0.861   0.692   1.818 -0.3533 -0.4244 -2.7151
  184SOL    HW2  735   0.789   0.624   1.927  0.2618 -1.3305 -0.9382
  184SOL     MW  736   0.801   0.695   1.883 -0.2766 -0.3288 -0.4799
  185SOL     OW  737   1.086   0.940   1.891 -0.5639 -0.1270 -0.0646
  185SOL    HW1  738   1.123   0.859   1.922  0.2532  1.6261 -0.5881
  185SOL    HW2  739   1.118   1.002   1.953 -2.1672 -1.9254  0.7583
  185SOL     MW  740   1.095   0.937   1.903 -0.6676 -0.1330 -0.0251
  186SOL     OW  741   0.315   1.650   1.481 -0.6018 -0.5474  0.3042
  186SOL    HW1  742   0.358   1.599   1.411 -2.1461 -0.2249  1.2696
  186SOL    HW2  743   0.224   1.607   1.502 -1.2140  0.2328 -1.7051
  186SOL     MW  744   0.309   1.638   1.474 -0.8863 -0.4019  0.1665
  187SOL     OW  745   1.513   0.742   1.360  0.2196 -0.1484  0.0330
  187SOL    HW1  746   1.573   0.716   1.429  1.7177  1.3878 -0.6757
  187SOL    HW2  747   1.422   0.719   1.380 -0.8085 -1.2970 -0.3218
  187SOL     MW  748   1.509   0.735   1.371  0.2816 -0.0973 -0.1073
  188SOL     OW  749   1.947   1.188   0.804  0.2736  0.3377  0.8420
  188SOL    HW1  750   1.928   1.165   0.897  1.4794 -0.9446 -2.1035
  188SOL    HW2  751   1.974   1.100   0.772 -1.0529  1.5934  0.7257
  188SOL     MW  752   1.948   1.173   0.812  0.2577  0.3342  0.4380
  189SOL     OW  753   0.685   0.764   0.839  0.3764 -0.2281  0.1065
  189SOL    HW1  754   0.599   0.823   0.834 -2.1141  0.6955 -0.3910
  189SOL    HW2  755   0.743   0.815   0.896 -1.3118  2.6500 -1.4067
  189SOL     MW  756   0.681   0.778   0.846 -0.1749  0.2735 -0.1588
  190SOL     OW  757   1.850   0.326   2.139  0.2362  0.4802 -0.2475
  190SOL    HW1  758   1.873   0.268   2.212 -1.2796  3.7382  1.4985
  190SOL    HW2  759   1.913   0.400   2.137 -0.2312 -2.4206  0.0115
  190SOL     MW  760   1.862   0.328   2.149 -0.0255  0.5274  0.0171
  191SOL     OW  761   1.516   0.988   1.233  0.1270  0.5217  0.2810
  191SOL    HW1  762   1.534   1.039   1.312  0.1740 -0.6575 -0.6579
  191SOL    HW2  763   1.504   0.896   1.261 -0.8932  1.0222  2.2911
  191SOL     MW  764   1.517   0.983   1.247 -0.0014  0.4322  0.4224
  192SOL     OW  765   0.537   2.113   2.836 -0.1551 -0.2227  0.8471
  192SOL    HW1  766   0.528   2.164   2.756  2.3734  1.6160 -0.4358
  192SOL    HW2  767   0.528   2.023   2.804 -0.6217  1.2276  1.5256
  192SOL     MW  768   0.535   2.108   2.821  0.1169  0.2112  0.7674
  193SOL     OW  769   0.871   1.616   0.762  0.0325 -0.0195  0.6565
  193SOL    HW1  770   0.802   1.614   0.819  0.3887  0.3267 -3.0675
  193SOL    HW2  771   0.854   1.554   0.686  0.3757 -2.3944 -0.9749
  193SOL     MW  772   0.860   1.608   0.760  0.1248 -0.2872 -0.0501
  194SOL     OW  773   0.523   1.339   0.808  0.2681 -0.0828 -0.5605
  194SOL    HW1  774   0.536   1.254   0.851 -1.1341  0.3041 -0.4686
  194SOL    HW2  775   0.427   1.352   0.787  0.2333 -0.6510 -0.9683
  194SOL     MW  776   0.512   1.329   0.811  0.0785 -0.1067 -0.6022
  195SOL     OW  777   1.291   1.114   2.935  0.2200  0.2114  0.1951
  195SOL    HW1  778   1.335   1.133   3.019  1.0624  0.7595 -1.0552
  195SOL    HW2  779   1.233   1.039   2.943  0.5242 -2.0680 -0.4206
  195SOL     MW  780   1.289   1.107   2.947  0.3713 -0.0170 -0.0511
  196SOL     OW  781   2.253   0.975   0.531  0.4603  0.0313  0.4777
  196SOL    HW1  782   2.189   0.951   0.472  3.5104 -0.5977 -0.9860
  196SOL    HW2  783   2.221   1.064   0.561 -0.5228 -0.4539  1.1114
  196SOL     MW  784   2.240   0.984   0.527  0.7330 -0.1157  0.3682
  197SOL     OW  785   0.617   1.276   2.238 -0.2660 -0.4805 -0.0706
  197SOL    HW1  786   0.656   1.208   2.175 -1.5208 -1.3175 -0.1713
  197SOL    HW2  787   0.639   1.355   2.187  1.9791  1.1896  0.5315
  197SOL     MW  788   0.625   1.277   2.223 -0.1354 -0.3706 -0.0044
  198SOL     OW  789   2.930   1.447   1.009 -0.0916  0.7864 -0.3196
  198SOL    HW1  790   2.864   1.509   0.976 -0.2295  0.8395  2.0527
  198SOL    HW2  791   2.889   1.361   0.988 -1.4275 -1.2163 -4.1118
  198SOL     MW  792   2.916   1.444   1.002 -0.2861  0.5292 -0.5070
  199SOL     OW  793   0.733   1.340   1.902 -0.5451 -0.4738 -0.6714
  199SOL    HW1  794   0.641   1.317   1.896 -0.7356 -0.7541 -2.4938
  199SOL    HW2  795   0.750   1.374   1.814  1.3894  0.5244 -1.9579
  199SOL     MW  796   0.723   1.341   1.890 -0.3150 -0.3791 -1.0816
  200SOL     OW  797   1.858   2.910   1.367 -0.1506  0.6027  0.5509
  200SOL    HW1  798   1.919   2.939   1.299 -2.2082 -3.1919 -3.4847
  200SOL    HW2  799   1.774   2.957   1.365  3.6533 -1.7586  0.3734
  200SOL     MW  800   1.855   2.920   1.358  0.0798 -0.2095 -0.0050
  201SOL     OW  801   1.046   0.343   0.725  0.6150 -0.4778  0.0245
  201SOL    HW1  802   1.008   0.255   0.721 -0.7967  0.7588  1.0292
  201SOL    HW2  803   1.113   0.356   0.798  2.9204  0.3825 -0.2388
  201SOL     MW  804   1.050   0.333   0.734  0.7329 -0.2012  0.1223
  202SOL     OW  805   1.472   1.779   0.967 -0.1669  0.7303  0.0720
  202SOL    HW1  806   1.480   1.683   0.962  0.8355  0.3379  0.9439
  202SOL    HW2  807   1.486   1.805   1.059  0.0014  2.4640  3.0994
  202SOL     MW  808   1.475   1.770   0.978 -0.0124  0.9072  0.5865
  203SOL     OW  809   2.985   0.393   1.459  0.3182 -0.3491 -0.6958
  203SOL    HW1  810   3.022   0.310   1.420 -1.8511 -2.3566 -4.0879
  203SOL    HW2  811   3.043   0.411   1.535 -1.8876  1.0740  0.4063
  203SOL     MW  812   2.998   0.384   1.464 -0.2591 -0.4262 -0.9980
  204SOL     OW  813   1.027   1.811   0.634  0.3727 -0.1468 -0.2816
  204SOL    HW1  814   0.975   1.757   0.697 -0.0020  0.9626  2.1872
  204SOL    HW2  815   0.957   1.838   0.576 -1.0224 -1.3453  1.5835
  204SOL     MW  816   1.011   1.808   0.635  0.1391 -0.1586  0.2902
  205SOL     OW  817   1.381   3.049   1.327  0.5450 -0.3904  0.2742
  205SOL    HW1  818   1.440   3.070   1.252 -0.6887 -0.3652  0.0210
  205SOL    HW2  819   1.335   3.128   1.356 -1.2950 -0.2848  1.2357
  205SOL     MW  820   1.382   3.062   1.321  0.1394 -0.3731  0.3677
  206SOL     OW  821   0.475   3.070   1.353 -0.0218 -0.1077 -0.0936
  206SOL    HW1  822   0.413   3.054   1.280 -2.5524  0.8055 -0.0122
  206SOL    HW2  823   0.555   3.016   1.343 -0.2640 -0.4024 -2.4096
  206SOL     MW  824   0.477   3.061   1.342 -0.3876 -0.0261 -0.3884
  207SOL     OW  825   0.882   1.700   0.207 -0.1498  0.2709 -0.7006
  207SOL    HW1  826   0.925   1.770   0.164 -0.6300 -0.0424  1.6601
  207SOL    HW2  827   0.950   1.640   0.229 -1.0468  2.7304  0.7852
  207SOL     MW  828   0.897   1.701   0.204 -0.3315  0.5541 -0.1931
  208SOL     OW  829   0.724   1.620   1.422  0.1991 -0.5398  0.0527
  208SOL    HW1  830   0.810   1.652   1.458 -1.9530  0.2023 -1.4444
  208SOL    HW2  831   0.751   1.570   1.339  0.5596 -2.3650 -1.0958
  208SOL     MW  832   0.739   1.618   1.415 -0.0373 -0.6827 -0.2964
  209SOL     OW  833   1.520   0.497   2.810 -0.2641  0.2339  0.6213
  209SOL    HW1  834   1.582   0.569   2.835  1.2799  2.4351  1.7280
  209SOL    HW2  835   1.575   0.420   2.802  0.2452  0.8687  0.1315
  209SOL     MW  836   1.535   0.497   2.812  0.0068  0.6081  0.7027
  210SOL     OW  837   1.471   1.492   0.926 -0.4243 -0.1293 -0.2981
  210SOL    HW1  838   1.563   1.452   0.927 -0.5604 -2.1101  0.9987
  210SOL    HW2  839   1.435   1.465   0.839 -0.8012 -1.7642 -2.1952
  210SOL     MW  840   1.478   1.484   0.915 -0.4920 -0.6064 -0.3773
  211SOL     OW  841   1.724   0.305   0.994  0.0060 -0.0918 -0.2849
  211SOL    HW1  842   1.712   0.327   0.903 -1.1916 -0.0599  0.8836
  211SOL    HW2  843   1.816   0.316   1.000 -0.1991 -0.3256  0.7229
  211SOL     MW  844   1.734   0.309   0.983 -0.1791 -0.1184  0.0022
  212SOL     OW  845   0.278   1.089   0.216  0.6298 -0.1223 -0.2544
  212SOL    HW1  846   0.203   1.044   0.252 -0.3687  2.6684 -0.1923
  212SOL    HW2  847   0.317   1.029   0.143 -1.5408 -1.5691 -0.3423
  212SOL     MW  848   0.273   1.075   0.211  0.2117  0.0550 -0.2578
  213SOL     OW  849   0.440   1.785   2.999 -0.7323  0.6324  0.1319
  213SOL    HW1  850   0.476   1.833   3.069 -2.4602 -0.8160 -2.3340
  213SOL    HW2  851   0.496   1.809   2.923 -1.7039 -0.2166  1.5955
  213SOL     MW  852   0.452   1.795   2.998 -1.0885  0.3292 -0.0003
  214SOL     OW  853   0.610   0.324   2.136  0.3114 -0.2754 -0.0357
  214SOL    HW1  854   0.559   0.401   2.161 -2.6505  0.9995  0.6728
  214SOL    HW2  855   0.609   0.309   2.039 -0.2308  0.0168 -1.8302
  214SOL     MW  856   0.603   0.332   2.126 -0.1510 -0.0686 -0.1789
  215SOL     OW  857   0.506   0.629   2.578 -0.1312 -0.9133 -0.8951
  215SOL    HW1  858   0.480   0.645   2.488  0.8563 -3.5841 -1.1257
  215SOL    HW2  859   0.420   0.625   2.623 -2.6598  1.9552  1.6190
  215SOL     MW  860   0.492   0.631   2.572 -0.3345 -0.8872 -0.5938
  216SOL     OW  861   2.978   3.057   2.704 -0.1777 -0.2275 -0.0057
  216SOL    HW1  862   2.932   3.044   2.787 -2.4666 -0.5366 -0.7132
  216SOL    HW2  863   2.998   3.153   2.701 -0.7331  3.5246  0.5842
  216SOL     MW  864   2.974   3.068   2.715 -0.5530  0.2268 -0.0212
  217SOL     OW  865   1.062   1.070   0.106 -0.2571 -0.4315  0.5345
  217SOL    HW1  866   1.075   1.012   0.023  0.9827 -0.5134 -0.0249
  217SOL    HW2  867   1.107   1.148   0.080  0.8229 -2.8486 -1.4680
  217SOL     MW  868   1.069   1.073   0.091  0.0489 -0.7612  0.1965
  218SOL     OW  869   0.859   1.359   2.688  0.4317 -0.2898 -0.3038
  218SOL    HW1  870   0.882   1.284   2.740  1.2102 -1.1168  0.2525
  218SOL    HW2  871   0.941   1.411   2.688  1.9394  1.7921  1.5697
  218SOL     MW  872   0.873   1.356   2.695  0.7333 -0.1242  0.0167
  219SOL     OW  873   1.064   0.364   2.631 -0.1826  0.0143  0.4475
  219SOL    HW1  874   1.135   0.417   2.678 -3.1504  0.0105 -1.2982
  219SOL    HW2  875   0.996   0.423   2.603  0.5672 -0.2722  1.0406
  219SOL     MW  876   1.065   0.379   2.633 -0.4752 -0.0240  0.2954
  220SOL     OW  877   1.657   0.496   2.236  0.5543 -0.1805 -0.0515
  220SOL    HW1  878   1.591   0.522   2.165 -1.2535  0.1152 -0.9220
  220SOL    HW2  879   1.716   0.434   2.186  2.1424 -1.4847  0.5611
  220SOL     MW  880   1.656   0.491   2.220  0.5253 -0.3136 -0.0855
  221SOL     OW  881   0.330   1.281   2.904 -0.0148  0.1412  0.0758
  221SOL    HW1  882   0.401   1.221   2.881 -1.5212 -1.1246 -1.0776
  221SOL    HW2  883   0.346   1.365   2.861  1.1519 -1.9940  2.6467
  221SOL     MW  884   0.341   1.284   2.896 -0.0596 -0.3075  0.2628
  222SOL     OW  885   0.510   0.906   2.693  0.1624  0.2916  0.3119
  222SOL    HW1  886   0.435   0.954   2.677  1.0948  1.5806  0.5213
  222SOL    HW2  887   0.502   0.817   2.664 -3.1188 -1.4787  1.0445
  222SOL     MW  888   0.499   0.901   2.687 -0.1475  0.2281  0.4362
  223SOL     OW  889   0.020   1.998   2.572 -0.3993  0.1381 -0.0163
  223SOL    HW1  890   0.025   1.984   2.666  0.6904 -2.0528 -1.7002
  223SOL    HW2  891   0.023   2.097   2.558 -1.1117  3.2333 -1.0026
  223SOL     MW  892   0.021   2.009   2.582 -0.3495  0.2574 -0.3686
  224SOL     OW  893   1.458   0.740   2.511 -0.1166  0.4595  0.7115
  224SOL    HW1  894   1.440   0.778   2.598  0.2306 -1.0536 -0.1194
  224SOL    HW2  895   1.479   0.813   2.459  1.3986 -1.3109 -1.4909
  224SOL     MW  896   1.458   0.754   2.516  0.1291  0.0263  0.3113
  225SOL     OW  897   2.941   1.439   2.309 -0.2152  0.0338  0.4084
  225SOL    HW1  898   2.972   1.512   2.255  1.2385 -1.1038  0.2120
  225SOL    HW2  899   2.867   1.468   2.369 -0.0443  0.9788  5.1243
  225SOL     MW  900   2.935   1.452   2.310 -0.0009  0.0084  1.0047
  226SOL     OW  901   0.393   1.495   2.756  0.4462 -0.2144  0.1573
  226SOL    HW1  902   0.486   1.511   2.739  0.5917  0.1747  2.5941
  226SOL    HW2  903   0.345   1.576   2.746 -1.1553  1.9743  0.9179
  226SOL     MW  904   0.398   1.508   2.752  0.2541  0.1257  0.5792
  227SOL     OW  905   0.567   1.127   2.849 -0.0863  0.5143  0.5457
  227SOL    HW1  906   0.660   1.149   2.859 -0.0019 -1.4454  4.6547
  227SOL    HW2  907   0.560   1.042   2.809 -0.4676  2.4873  1.6150
  227SOL     MW  908   0.579   1.118   2.845 -0.1255  0.5161  1.2289
  228SOL     OW  909   0.752   1.095   2.065  0.5408  0.4560  0.2660
  228SOL    HW1  910   0.761   1.161   1.993 -1.8587 -0.2365 -0.3220
  228SOL    HW2  911   0.831   1.114   2.120  1.6355  2.1802 -0.2171
  228SOL     MW  912   0.764   1.106   2.062  0.3686  0.5922  0.1247
  229SOL     OW  913   0.230   0.625   0.016  0.5757 -0.5186 -0.0148
  229SOL    HW1  914   0.167   0.616  -0.053 -0.8191 -0.6622 -1.3957
  229SOL    HW2  915   0.218   0.547   0.078 -0.5478 -0.3105  1.9307
  229SOL     MW  916   0.220   0.613   0.015  0.2434 -0.5101  0.0597
  230SOL     OW  917   1.801   1.365   2.012  0.3322 -0.3799 -0.7232
  230SOL    HW1  918   1.757   1.347   2.103 -1.8277 -1.8003  0.7893
  230SOL    HW2  919   1.822   1.280   1.977 -0.9191  1.0472  0.4388
  230SOL     MW  920   1.798   1.352   2.019 -0.1179 -0.3790 -0.3704
  231SOL     OW  921   2.731   1.254   2.198 -0.1180  0.5226  0.3935
  231SOL    HW1  922   2.798   1.322   2.229 -1.2452  2.0336 -1.0962
  231SOL    HW2  923   2.706   1.290   2.111  1.1959 -0.9132  1.9202
  231SOL     MW  924   2.737   1.268   2.191 -0.0933  0.5325  0.3984
  232SOL     OW  925   2.281   0.793   1.997  0.1386 -0.4466 -0.1891
  232SOL    HW1  926   2.233   0.839   1.927 -0.3163  0.2786 -2.2647
  232SOL    HW2  927   2.231   0.793   2.079  1.1161  0.2398  1.7107
  232SOL     MW  928   2.268   0.799   1.999  0.2075 -0.2603 -0.2123
  233SOL     OW  929   2.079   0.472   2.086  0.4046  0.2331  0.0786
  233SOL    HW1  930   2.098   0.386   2.056  0.8783  0.3021  0.9767
  233SOL    HW2  931   2.146   0.491   2.150 -2.6045  0.2461 -2.6878
  233SOL     MW  932   2.091   0.463   2.090  0.0701  0.2439 -0.1679
  234SOL     OW  933   0.259   1.043   2.633 -0.1022  0.0139 -0.7607
  234SOL    HW1  934   0.187   1.037   2.574  0.0702  0.5617 -0.3884
  234SOL    HW2  935   0.300   1.125   2.600 -0.8117  2.4788 -0.0855
  234SOL     MW  936   0.255   1.053   2.621 -0.1731  0.4114 -0.6225
  235SOL     OW  937   1.011   3.038   2.795 -0.3227  0.0898 -0.1070
  235SOL    HW1  938   1.064   3.000   2.871 -0.2989 -2.6123  1.7106
  235SOL    HW2  939   1.036   3.133   2.811 -2.8777 -0.2437 -0.3016
  235SOL     MW  940   1.021   3.046   2.807 -0.6567 -0.3107  0.1071
  236SOL     OW  941   2.948   0.576   0.122 -0.2987  0.0203  0.1881
  236SOL    HW1  942   2.893   0.593   0.198  1.1875  0.9965 -0.4782
  236SOL    HW2  943   2.975   0.660   0.084 -0.1345 -0.1354  0.4915
  236SOL     MW  944   2.944   0.589   0.127 -0.0809  0.1286  0.1402
  237SOL     OW  945   1.943   1.074   2.175  0.0374 -0.3410 -0.4731
  237SOL    HW1  946   1.859   1.084   2.136 -0.2422 -0.6126 -1.3764
  237SOL    HW2  947   1.974   0.989   2.136 -1.2534  1.1580  0.4807
  237SOL     MW  948   1.936   1.064   2.164 -0.1698 -0.1791 -0.4664
  238SOL     OW  949   1.100   1.782   2.964 -0.2746 -0.4291  0.1097
  238SOL    HW1  950   1.023   1.734   2.937  1.2688  0.9325 -3.1541
  238SOL    HW2  951   1.172   1.717   2.952  0.0881 -2.3253  2.3906
  238SOL     MW  952   1.100   1.767   2.959 -0.0231 -0.4997 -0.0200
  239SOL     OW  953   1.192   1.318   2.279 -0.4636 -0.6434 -0.5262
  239SOL    HW1  954   1.101   1.325   2.253 -0.0172 -0.9609  1.1352
  239SOL    HW2  955   1.186   1.241   2.343  2.6189 -0.7179  0.4523
  239SOL     MW  956   1.179   1.309   2.284  0.0020 -0.6951 -0.1779
  240SOL     OW  957   0.603   0.903   2.242 -0.2256 -0.4051 -0.6149
  240SOL    HW1  958   0.651   0.945   2.326 -0.7341  2.8178  0.9950
  240SOL    HW2  959   0.680   0.888   2.187 -0.4156 -2.5255  1.4877
  240SOL     MW  960   0.620   0.906   2.246 -0.3177 -0.2596 -0.1250
  241SOL     OW  961   0.675   0.477   3.072 -0.1735  0.7079 -0.2725
  241SOL    HW1  962   0.712   0.546   3.136  0.9209 -0.4726  1.3743
  241SOL    HW2  963   0.595   0.512   3.036  0.4008 -0.6556  2.2988
  241SOL     MW  964   0.669   0.490   3.076  0.0467  0.3723  0.2841
  242SOL     OW  965   1.513   1.712   2.263 -0.1600 -0.5380 -0.0641
  242SOL    HW1  966   1.450   1.787   2.258  1.1215 -2.3783  0.1159
  242SOL    HW2  967   1.452   1.643   2.242  2.1737  0.0438  0.7104
  242SOL     MW  968   1.496   1.713   2.260  0.3170 -0.7041  0.0618
  243SOL     OW  969   0.991   0.265   2.367  0.5067  0.8043 -0.7398
  243SOL    HW1  970   1.083   0.265   2.333 -1.1897  2.6126  0.0081
  243SOL    HW2  971   1.000   0.283   2.460 -2.4491  0.3193  2.6276
  243SOL     MW  972   1.005   0.267   2.375 -0.1072  0.9789 -0.1968
  244SOL     OW  973   0.130   0.802   2.362  0.0909 -0.0638  0.3228
  244SOL    HW1  974   0.109   0.894   2.388  0.5551 -2.3142 -0.1866
  244SOL    HW2  975   0.224   0.805   2.358 -0.1696 -0.9191  0.2634
  244SOL     MW  976   0.140   0.815   2.365  0.1178 -0.4736  0.2477
  245SOL     OW  977   1.250   0.198   2.299 -0.6092  0.2731  0.3198
  245SOL    HW1  978   1.266   0.106   2.288  1.3200  0.2188  0.0359
  245SOL    HW2  979   1.280   0.208   2.387  1.8142 -1.9542  1.2771
  245SOL     MW  980   1.256   0.187   2.309 -0.0349 -0.0280  0.4087
  246SOL     OW  981   1.199   1.132   2.061  0.2187  0.0121 -0.1509
  246SOL    HW1  982   1.145   1.155   2.140  1.5741 -2.1588 -1.0279
  246SOL    HW2  983   1.297   1.142   2.092  0.8120 -1.1563 -0.5642
  246SOL     MW  984   1.205   1.137   2.076  0.4758 -0.4285 -0.3211
  247SOL     OW  985   0.767   0.639   0.156  0.0915 -0.1788 -0.4970
  247SOL    HW1  986   0.718   0.719   0.173 -1.1313  0.9968  0.5387
  247SOL    HW2  987   0.852   0.678   0.126 -0.6954  1.3965  0.6055
  247SOL     MW  988   0.771   0.655   0.154 -0.1737  0.1841 -0.2149
  248SOL     OW  989   0.342   1.290   2.551 -0.1586 -0.0278 -0.7497
  248SOL    HW1  990   0.352   1.333   2.467  1.6540 -3.0211  0.4522
  248SOL    HW2  991   0.354   1.351   2.619 -0.0414 -0.7205  0.8282
  248SOL     MW  992   0.345   1.304   2.549  0.0960 -0.5141 -0.3829
  249SOL     OW  993   3.037   1.904   2.836 -0.8922  0.0594  0.2686
  249SOL    HW1  994   2.959   1.849   2.826 -1.2050 -1.0920  1.7167
  249SOL    HW2  995   3.111   1.847   2.847  0.3124  2.0323  0.3183
  249SOL     MW  996   3.037   1.889   2.836 -0.7745  0.1678  0.4662
  250SOL     OW  997   2.146   0.860   2.215 -0.2859 -0.9660 -0.0712
  250SOL    HW1  998   2.084   0.792   2.248  0.5094  2.0291 -0.6581
  250SOL    HW2  999   2.209   0.884   2.285  1.7284 -0.7024 -2.8713
  250SOL     MW 1000   2.146   0.854   2.229  0.0848 -0.5361 -0.5180
  251SOL     OW 1001   0.158   0.909   2.015 -0.1386 -0.0521 -0.1225
  251SOL    HW1 1002   0.128   0.828   2.050 -0.2699 -1.4818 -0.5566
  251SOL    HW2 1003   0.135   0.906   1.923 -3.9047 -2.0506  1.5574
  251SOL     MW 1004   0.151   0.898   2.008 -0.6528 -0.5044  0.0419
  252SOL     OW 1005   1.657   1.010   2.831 -0.3607 -0.5577 -0.3967
  252SOL    HW1 1006   1.691   1.066   2.902 -1.5691  0.5771  0.5349
  252SOL    HW2 1007   1.732   1.001   2.777  0.0275 -0.8894 -1.2621
  252SOL     MW 1008   1.671   1.016   2.833 -0.4689 -0.4517 -0.3879
  253SOL     OW 1009   1.129   1.705   2.428  0.6622 -0.1609  0.5937
  253SOL    HW1 1010   1.093   1.684   2.334 -3.1520  0.1644 -2.5580
  253SOL    HW2 1011   1.065   1.755   2.481  2.5303  0.7950 -1.5767
  253SOL     MW 1012   1.116   1.709   2.423  0.4055  0.0081 -0.1085
  254SOL     OW 1013   0.948   1.134   2.246 -0.0010 -0.0866 -0.5558
  254SOL    HW1 1014   0.944   1.043   2.249 -0.7127  1.1934  1.1066
  254SOL    HW2 1015   0.894   1.166   2.319 -0.1836  0.4209  0.2823
  254SOL     MW 1016   0.940   1.127   2.256 -0.1190  0.1492 -0.2259
  255SOL     OW 1017   0.889   2.553   2.150  0.3048  0.6571  0.6019
  255SOL    HW1 1018   0.791   2.526   2.145 -4.3392  0.1988  0.1381
  255SOL    HW2 1019   0.930   2.469   2.160  0.7443  3.2471 -0.4688
  255SOL     MW 1020   0.881   2.539   2.151 -0.2499  0.9383  0.3995
  256SOL     OW 1021   1.207   2.754   2.980 -0.2816  0.4452  0.7002
  256SOL    HW1 1022   1.161   2.681   2.937  1.0089  0.8848  0.2740
  256SOL    HW2 1023   1.299   2.754   2.940  0.7961  1.9639 -1.5949
  256SOL     MW 1024   1.213   2.744   2.969  0.0308  0.7036  0.3411
  257SOL     OW 1025   0.036   1.906   0.031  0.0945 -0.2125  1.3187
  257SOL    HW1 1026   0.095   1.889   0.103 -0.0483 -0.2178 -3.5144
  257SOL    HW2 1027   0.073   1.876  -0.051 -1.3580  2.4276  0.0014
  257SOL     MW 1028   0.049   1.899   0.029 -0.1160  0.1351  0.5072
  258SOL     OW 1029   0.701   0.982   2.467 -0.0033 -0.4880 -0.3393
  258SOL    HW1 1030   0.707   1.075   2.471 -2.4911 -2.1472  2.3019
  258SOL    HW2 1031   0.650   0.945   2.533  2.8087 -0.2845 -2.1442
  258SOL     MW 1032   0.695   0.990   2.476  0.0395 -0.6801 -0.2290
  259SOL     OW 1033   0.812   0.494   2.279 -0.2470 -0.0544  0.0297
  259SOL    HW1 1034   0.732   0.441   2.260 -0.5163 -2.0107  1.8552
  259SOL    HW2 1035   0.876   0.425   2.296 -0.5270  1.2969 -0.3694
  259SOL     MW 1036   0.810   0.478   2.278 -0.3195 -0.1342  0.2179
  260SOL     OW 1037   0.635   0.103   1.586 -0.3138 -0.6100 -0.5108
  260SOL    HW1 1038   0.601   0.174   1.523 -1.0899 -1.9393 -0.2726
  260SOL    HW2 1039   0.725   0.095   1.552 -0.7974  0.2248 -1.2733
  260SOL     MW 1040   0.642   0.111   1.573 -0.4800 -0.6752 -0.5799
  261SOL     OW 1041   1.113   0.673   1.968 -0.3214  0.0012 -0.2875
  261SOL    HW1 1042   1.146   0.653   2.054  1.8910 -1.2774  2.3635
  261SOL    HW2 1043   1.036   0.610   1.962  1.0227  0.5646 -1.2308
  261SOL     MW 1044   1.107   0.662   1.978  0.1479 -0.0932 -0.0622
  262SOL     OW 1045   1.117   0.329   0.196  0.8591  0.0427  0.1391
  262SOL    HW1 1046   1.215   0.345   0.168  0.9779 -1.2393  2.9662
  262SOL    HW2 1047   1.068   0.273   0.128  1.9750  1.7197 -1.5486
  262SOL     MW 1048   1.124   0.324   0.183  1.0220  0.0948  0.2894
  263SOL     OW 1049   0.361   0.027   2.460  0.1791 -0.4147  0.0136
  263SOL    HW1 1050   0.298   0.104   2.469  0.9634  0.7549  0.0062
  263SOL    HW2 1051   0.420   0.043   2.388  0.5592 -1.9128 -0.4742
  263SOL     MW 1052   0.360   0.039   2.452  0.3327 -0.4580 -0.0517
  264SOL     OW 1053   1.534   1.354   1.937 -0.8330  0.5275  0.5486
  264SOL    HW1 1054   1.512   1.260   1.925  1.2854 -0.2849  2.2958
  264SOL    HW2 1055   1.633   1.358   1.944  1.2856  1.7852  0.7546
  264SOL     MW 1056   1.544   1.342   1.936 -0.2740  0.5863  0.8063
  265SOL     OW 1057   0.730   2.766   2.305 -0.4550 -0.4411 -0.0960
  265SOL    HW1 1058   0.804   2.714   2.272  0.3538  1.0681  1.0330
  265SOL    HW2 1059   0.740   2.751   2.401 -1.6858 -0.4009  0.0435
  265SOL     MW 1060   0.741   2.757   2.313 -0.5107 -0.2367  0.0713
  266SOL     OW 1061   0.891   0.849   2.150 -0.4131  0.5169 -0.3990
  266SOL    HW1 1062   0.924   0.826   2.062  0.0340  2.4334 -0.4312
  266SOL    HW2 1063   0.966   0.831   2.210  0.7157 -3.3331  2.2609
  266SOL     MW 1064   0.905   0.844   2.146 -0.2052  0.2618 -0.0523
  267SOL     OW 1065   1.322   1.750   2.636 -0.1177 -0.5922 -0.1391
  267SOL    HW1 1066   1.395   1.691   2.616 -1.7326  0.0063  2.0606
  267SOL    HW2 1067   1.266   1.736   2.557  0.0928  1.1673 -2.6767
  267SOL     MW 1068   1.325   1.740   2.623 -0.3030 -0.2810 -0.1837
  268SOL     OW 1069   0.127   0.930   1.728 -0.3777  0.3455  0.7971
  268SOL    HW1 1070   0.105   1.013   1.680  1.8823 -1.1908  1.4916
  268SOL    HW2 1071   0.093   0.862   1.671 -1.4528 -3.0885  0.3193
  268SOL     MW 1072   0.120   0.932   1.715 -0.2214 -0.3102  0.8257
  269SOL     OW 1073   1.350   1.955   2.288 -0.2593 -0.0421  0.1257
  269SOL    HW1 1074   1.389   2.020   2.343  1.7074 -0.8752  1.8109
  269SOL    HW2 1075   1.255   1.954   2.299 -2.4177 -0.9611  0.9880
  269SOL     MW 1076   1.343   1.964   2.297 -0.2846 -0.2733  0.4618
  270SOL     OW 1077   1.133   0.404   1.584  0.1911  0.7723  0.0312
  270SOL    HW1 1078   1.098   0.315   1.614 -0.2425 -1.2104  0.1115
  270SOL    HW2 1079   1.226   0.382   1.569 -0.4431  0.1459 -0.2648
  270SOL     MW 1080   1.141   0.390   1.586  0.0502  0.4281  0.0027
  271SOL     OW 1081   0.821   0.073   2.447  0.6549  0.0596  0.6406
  271SOL    HW1 1082   0.875   0.015   2.501 -0.6094  0.9290  2.5817
  271SOL    HW2 1083   0.871   0.148   2.404  0.3616  3.8625 -0.7144
  271SOL     MW 1084   0.835   0.076   2.449  0.4494  0.6760  0.7179
  272SOL     OW 1085   1.456   2.827   2.848  0.0744 -0.1250 -0.9604
  272SOL    HW1 1086   1.444   2.814   2.755 -0.9050  1.0932  1.0400
  272SOL    HW2 1087   1.475   2.924   2.856  1.1589 -1.3356  2.6187
  272SOL     MW 1088   1.457   2.838   2.836  0.0883 -0.1240 -0.2242
  273SOL     OW 1089   1.426   0.859   2.749 -0.0846 -1.2176 -0.0952
  273SOL    HW1 1090   1.492   0.929   2.741 -0.7830  2.6168 -1.7690
  273SOL    HW2 1091   1.354   0.905   2.707  1.4800 -1.2734  1.7573
  273SOL     MW 1092   1.425   0.874   2.742  0.0297 -0.7190 -0.0716
  274SOL     OW 1093   1.420   0.743   0.184  0.1772 -1.0211  0.3698
  274SOL    HW1 1094   1.468   0.668   0.226  1.5595 -1.3950  0.0506
  274SOL    HW2 1095   1.343   0.746   0.240  0.7610 -2.1024 -1.8502
  274SOL     MW 1096   1.416   0.733   0.197  0.4366 -1.2131  0.0347
  275SOL     OW 1097   1.750   0.516   1.791  0.4818  0.0248 -0.0215
  275SOL    HW1 1098   1.821   0.563   1.836 -0.1069  0.1638 -1.6644
  275SOL    HW2 1099   1.773   0.425   1.811  1.9673 -1.3261  1.2289
  275SOL     MW 1100   1.763   0.510   1.800  0.6002 -0.1351 -0.0733
  276SOL     OW 1101   0.476   1.255   1.917  1.0527 -0.3546  0.1314
  276SOL    HW1 1102   0.492   1.165   1.953 -1.0462  2.5091  0.9795
  276SOL    HW2 1103   0.405   1.286   1.978  1.1249 -1.2005  1.7914
  276SOL     MW 1104   0.469   1.247   1.929  0.7853 -0.0884  0.4623
  277SOL     OW 1105   1.968   1.076   2.457  0.3289 -0.5032 -0.2353
  277SOL    HW1 1106   1.994   1.167   2.464 -0.1807  0.0769  1.4527
  277SOL    HW2 1107   1.949   1.058   2.365  2.6196 -1.1905  0.1139
  277SOL     MW 1108   1.969   1.085   2.446  0.5639 -0.5174  0.0335
  278SOL     OW 1109   1.390   0.675   1.762  0.9739 -0.0208  0.1729
  278SOL    HW1 1110   1.358   0.600   1.817 -0.6936 -4.5914 -0.5504
  278SOL    HW2 1111   1.486   0.683   1.784  0.1320  0.9825 -0.0342
  278SOL     MW 1112   1.399   0.666   1.772  0.6428 -0.4915  0.0502
  279SOL     OW 1113   0.536   0.106   2.287 -0.3349  0.2612  0.1489
  279SOL    HW1 1114   0.582   0.024   2.272 -0.1824 -0.1897  1.1942
  279SOL    HW2 1115   0.577   0.170   2.232 -2.6711 -0.1078 -0.7881
  279SOL     MW 1116   0.547   0.104   2.278 -0.6230  0.1530  0.1632
  280SOL     OW 1117   1.461   1.107   2.151  0.0405  0.0443  0.1075
  280SOL    HW1 1118   1.513   1.036   2.109  0.9262  2.3664  0.5308
  280SOL    HW2 1119   1.460   1.085   2.249  0.4469  0.1795  2.5714
  280SOL     MW 1120   1.468   1.095   2.158  0.2110  0.3686  0.4884
  281SOL     OW 1121   1.375   1.149   2.689 -0.6749 -0.2490 -0.7997
  281SOL    HW1 1122   1.425   1.230   2.683  0.5591  1.6946  2.3748
  281SOL    HW2 1123   1.351   1.144   2.784 -1.0221  1.7197 -2.1995
  281SOL     MW 1124   1.379   1.159   2.701 -0.5579  0.2672 -0.5656
  282SOL     OW 1125   1.165   1.269   1.621 -0.0019 -0.3219  0.1249
  282SOL    HW1 1126   1.181   1.361   1.588  0.0598 -3.6566 -2.9645
  282SOL    HW2 1127   1.090   1.267   1.682  0.1651 -1.0141  0.6800
  282SOL     MW 1128   1.157   1.281   1.625  0.0283 -0.8532 -0.2095
  283SOL     OW 1129   0.878   1.320   0.005 -0.0817  0.6469 -0.2646
  283SOL    HW1 1130   0.977   1.309   0.002  1.8138 -1.5512 -1.7083
  283SOL    HW2 1131   0.875   1.412  -0.012  4.5992  1.8988  2.5782
  283SOL     MW 1132   0.891   1.331   0.003  0.7860  0.5221 -0.0800
  284SOL     OW 1133   0.418   0.728   2.356 -0.2161  0.2630 -0.6124
  284SOL    HW1 1134   0.469   0.790   2.302 -1.6253 -1.1812 -1.8787
  284SOL    HW2 1135   0.403   0.646   2.304  3.3109 -1.1583  0.7365
  284SOL     MW 1136   0.423   0.726   2.342  0.0633 -0.1150 -0.6015
  285SOL     OW 1137   0.874   0.897   2.828  0.1042  1.0186  0.6457
  285SOL    HW1 1138   0.904   0.945   2.748 -1.8190 -0.3988  0.3596
  285SOL    HW2 1139   0.811   0.831   2.806  0.2896 -1.6729  2.1849
  285SOL     MW 1140   0.870   0.894   2.814 -0.1251  0.4765  0.8110
  286SOL     OW 1141   1.119   1.485   2.620 -0.4543 -0.3371  0.1222
  286SOL    HW1 1142   1.167   1.406   2.620 -2.0143  0.2392  0.1715
  286SOL    HW2 1143   1.112   1.521   2.526  0.9734  1.1169 -1.9657
  286SOL     MW 1144   1.125   1.479   2.607 -0.4718 -0.0693 -0.1467
  287SOL     OW 1145   1.200   1.020   0.324 -0.1955  0.7315  0.2280
  287SOL    HW1 1146   1.187   1.073   0.402 -0.1807  1.3869  3.2611
  287SOL    HW2 1147   1.156   1.045   0.246 -0.1642  2.8458  0.6011
  287SOL     MW 1148   1.193   1.030   0.324 -0.1894  1.0969  0.6774
  288SOL     OW 1149   1.469   0.605   2.077  0.3932  0.3319 -0.0035
  288SOL    HW1 1150   1.408   0.578   2.160  0.5027 -0.9452 -0.1782
  288SOL    HW2 1151   1.472   0.697   2.061 -2.0178  2.9143 -0.7272
  288SOL     MW 1152   1.461   0.614   2.086  0.0896  0.5041 -0.1221
  289SOL     OW 1153   0.958   1.003   2.586 -0.9726 -0.3226  0.0269
  289SOL    HW1 1154   1.005   0.912   2.578  0.6458 -0.7886 -1.0851
  289SOL    HW2 1155   0.888   1.006   2.525 -0.8830 -0.6609 -1.4805
  289SOL     MW 1156   0.955   0.992   2.577 -0.7472 -0.4287 -0.3187
  290SOL     OW 1157   0.795   0.609   1.484  0.3551  0.5951 -0.3797
  290SOL    HW1 1158   0.840   0.592   1.401 -0.9079  0.3200 -1.2429
  290SOL    HW2 1159   0.866   0.612   1.547 -1.2430  1.2798  0.7247
  290SOL     MW 1160   0.810   0.608   1.481 -0.0224  0.6491 -0.3479
  291SOL     OW 1161   0.182   0.380   0.138 -0.2453 -0.3533  0.2133
  291SOL    HW1 1162   0.268   0.347   0.175  1.9735 -1.2180 -0.0774
  291SOL    HW2 1163   0.149   0.298   0.105 -0.8995 -0.0177 -0.3609
  291SOL     MW 1164   0.189   0.365   0.139 -0.0389 -0.4231  0.0992
  292SOL     OW 1165   1.042   0.598   0.136  0.2000  0.0011  0.0335
  292SOL    HW1 1166   1.112   0.643   0.190  3.7061 -0.8484  0.0079
  292SOL    HW2 1167   1.042   0.507   0.161 -0.5321  1.6011 -1.7383
  292SOL     MW 1168   1.052   0.592   0.146  0.5660  0.1001 -0.2036
  293SOL     OW 1169   0.122   0.180   2.504  0.2610 -0.0090  0.0219
  293SOL    HW1 1170   0.071   0.118   2.448  0.0001 -0.5369 -0.1849
  293SOL    HW2 1171   0.069   0.207   2.576 -2.6301  0.5451 -0.7486
  293SOL     MW 1172   0.109   0.175   2.506 -0.1549 -0.0056 -0.1071
  294SOL     OW 1173   1.337   0.546   2.309 -0.6982 -0.8636  0.2104
  294SOL    HW1 1174   1.396   0.567   2.383 -3.1941  0.0919  0.8282
  294SOL    HW2 1175   1.348   0.454   2.302 -0.5467 -1.9365  0.3392
  294SOL     MW 1176   1.346   0.537   2.318 -1.0075 -0.8791  0.3089
  295SOL     OW 1177   0.880   0.533   2.537 -0.8302  0.3634 -0.5789
  295SOL    HW1 1178   0.847   0.547   2.449 -0.8867 -0.3718  0.3509
  295SOL    HW2 1179   0.821   0.576   2.605 -3.4834 -2.1867 -3.3717
  295SOL     MW 1180   0.868   0.540   2.534 -1.1877 -0.0701 -0.8247
  296SOL     OW 1181   1.217   0.229   2.029  0.4286 -0.2597  0.1432
  296SOL    HW1 1182   1.297   0.180   2.003 -2.2607 -2.5465  1.1131
  296SOL    HW2 1183   1.235   0.246   2.120  1.3738 -0.5666  0.0194
  296SOL     MW 1184   1.230   0.225   2.038  0.1985 -0.6019  0.2549
  297SOL     OW 1185   1.391   0.374   1.528  0.0399  0.2388 -0.1470
  297SOL    HW1 1186   1.388   0.444   1.597 -1.6345 -1.5090 -1.0071
  297SOL    HW2 1187   1.439   0.300   1.563 -2.3870 -1.2398 -1.4607
  297SOL     MW 1188   1.397   0.374   1.542 -0.5012 -0.1869 -0.4338
  298SOL     OW 1189   1.603   0.888   2.076 -0.2809  0.7417 -0.0050
  298SOL    HW1 1190   1.656   0.942   2.014 -1.6919  1.6242 -0.5365
  298SOL    HW2 1191   1.672   0.838   2.117  0.3089  0.3221 -2.6450
  298SOL     MW 1192   1.619   0.888   2.073 -0.3892  0.8028 -0.4234
  299SOL     OW 1193   0.575   1.131   0.047 -0.5261  0.2260  0.5845
  299SOL    HW1 1194   0.555   1.118  -0.051  0.9836  0.6778  2.9056
  299SOL    HW2 1195   0.642   1.196   0.052  0.9374 -0.5887 -1.5784
  299SOL     MW 1196   0.581   1.138   0.035 -0.1338  0.1781  0.6054
  300SOL     OW 1197   1.194   1.139   2.505 -0.1025  0.3018  0.7626
  300SOL    HW1 1198   1.108   1.128   2.537 -0.1707 -0.6689  0.5030
  300SOL    HW2 1199   1.249   1.131   2.583  0.1114  1.0915  0.4571
  300SOL     MW 1200   1.190   1.137   2.519 -0.0833  0.2779  0.6880
  301SOL     OW 1201   1.422   0.984   0.704 -0.5721  0.4989  0.6948
  301SOL    HW1 1202   1.472   1.006   0.781 -0.1574  0.0914  0.4457
  301SOL    HW2 1203   1.368   0.910   0.723  0.1799 -0.9344 -0.1321
  301SOL     MW 1204   1.422   0.977   0.717 -0.4182  0.2560  0.5529
  302SOL     OW 1205   0.215   1.533   2.046 -0.1870  0.2593 -0.0199
  302SOL    HW1 1206   0.186   1.442   2.036  0.2657  0.4285  1.8047
  302SOL    HW2 1207   0.133   1.577   2.026 -0.1814  0.1341 -0.8772
  302SOL     MW 1208   0.200   1.527   2.042 -0.1265  0.2651  0.1077
  303SOL     OW 1209   0.311   1.789   2.658  0.0932 -0.2142 -0.3646
  303SOL    HW1 1210   0.262   1.809   2.577 -1.9903  1.4104 -0.4929
  303SOL    HW2 1211   0.257   1.813   2.731  0.5627  2.4307  1.1785
  303SOL     MW 1212   0.297   1.795   2.657 -0.1197  0.3491 -0.1779
  304SOL     OW 1213   0.493   2.038   2.340  0.4664 -0.6535  0.3599
  304SOL    HW1 1214   0.570   2.087   2.299 -0.1132 -2.5121 -0.8983
  304SOL    HW2 1215   0.544   1.971   2.391  1.1050  2.5670  0.8331
  304SOL     MW 1216   0.510   2.036   2.342  0.4742 -0.4738  0.2563
  305SOL     OW 1217   1.099   0.672   0.570  0.1955  0.2561  0.0946
  305SOL    HW1 1218   1.020   0.644   0.516 -0.7637  0.1412 -2.8423
  305SOL    HW2 1219   1.163   0.596   0.561  1.8163 -0.2403  0.5584
  305SOL     MW 1220   1.097   0.658   0.562  0.2828  0.1754 -0.2317
  306SOL     OW 1221   1.133   1.554   0.207 -0.4143  0.2706 -0.1343
  306SOL    HW1 1222   1.159   1.466   0.246  0.5018 -1.0332  1.0278
  306SOL    HW2 1223   1.182   1.575   0.131 -0.0146 -0.4992  1.1297
  306SOL     MW 1224   1.143   1.545   0.202 -0.2407 -0.0030  0.1858
  307SOL     OW 1225   1.330   0.432   1.894  0.1097 -0.1553 -0.0629
  307SOL    HW1 1226   1.272   0.359   1.925 -0.9098 -0.9765  1.6022
  307SOL    HW2 1227   1.374   0.467   1.972  0.3457  0.1930  0.5205
  307SOL     MW 1228   1.328   0.427   1.909  0.0064 -0.2177  0.2338
  308SOL     OW 1229   2.229   0.498   2.671  0.3234  0.2833 -0.1291
  308SOL    HW1 1230   2.318   0.509   2.699 -0.5366 -1.9034  0.0669
  308SOL    HW2 1231   2.191   0.587   2.693  2.3860 -0.6678  1.2343
  308SOL     MW 1232   2.236   0.511   2.678  0.4820 -0.1307  0.0767
  309SOL     OW 1233   0.477   0.550   0.230  0.1391  0.5351  0.0054
  309SOL    HW1 1234   0.518   0.608   0.169  1.2150  0.9153  0.8800
  309SOL    HW2 1235   0.497   0.460   0.206 -2.6796  0.3924  0.2279
  309SOL     MW 1236   0.485   0.546   0.218 -0.0909  0.5664  0.1502
  310SOL     OW 1237   0.488   0.638   1.920 -0.0713  0.8475  0.1623
  310SOL    HW1 1238   0.519   0.571   1.856  0.9083 -2.4173 -3.2221
  310SOL    HW2 1239   0.532   0.711   1.879  0.0247 -1.2953  0.7276
  310SOL     MW 1240   0.498   0.639   1.906  0.0706  0.1340 -0.2096
  311SOL     OW 1241   1.944   0.650   1.919  0.1713 -0.1792  0.0847
  311SOL    HW1 1242   1.920   0.710   1.988  1.6495 -2.5102  0.9515
  311SOL    HW2 1243   2.009   0.589   1.967  2.5593  2.5030  3.1466
  311SOL     MW 1244   1.950   0.650   1.935  0.6814 -0.1328  0.6030
  312SOL     OW 1245   1.800   2.451   0.165 -0.0512 -0.2586 -0.1509
  312SOL    HW1 1246   1.824   2.408   0.248 -0.4736 -0.7834 -0.9608
  312SOL    HW2 1247   1.727   2.511   0.175 -0.2150 -1.3384 -1.3641
  312SOL     MW 1248   1.793   2.453   0.177 -0.1286 -0.4703 -0.4179
  313SOL     OW 1249   0.138   1.149   3.029  0.7471  0.3025  0.0049
  313SOL    HW1 1250   0.143   1.163   3.121 -0.0172 -0.3878  0.5140
  313SOL    HW2 1251   0.185   1.218   2.989  0.3618 -3.2947 -2.2298
  313SOL     MW 1252   0.145   1.160   3.036  0.5955 -0.2632 -0.2228
  314SOL     OW 1253   2.170   2.965   3.050 -0.2578 -0.0970  0.9011
  314SOL    HW1 1254   2.092   2.992   2.990  2.9962  0.3003  3.7844
  314SOL    HW2 1255   2.206   3.047   3.082 -0.2176 -1.1262 -0.9471
  314SOL     MW 1256   2.164   2.979   3.046  0.1769 -0.1804  1.0376
  315SOL     OW 1257   1.546   1.823   2.977  0.1352 -0.0534  0.0851
  315SOL    HW1 1258   1.498   1.879   3.047 -1.2547 -0.9643 -3.9053
  315SOL    HW2 1259   1.550   1.892   2.906 -1.0516 -2.5580 -0.9839
  315SOL     MW 1260   1.540   1.840   2.977 -0.2048 -0.5040 -0.5825
  316SOL     OW 1261   1.248   0.564   2.719 -0.0863  0.0410  0.1576
  316SOL    HW1 1262   1.341   0.533   2.726 -0.5794  0.6286  0.3709
  316SOL    HW2 1263   1.226   0.577   2.812  2.4012 -0.2044  1.0626
  316SOL     MW 1264   1.257   0.561   2.732  0.1768  0.0862  0.3051
  317SOL     OW 1265   0.702   1.578   2.641 -0.4075  0.8309  0.5440
  317SOL    HW1 1266   0.734   1.499   2.679  1.6866  0.6437 -0.8055
  317SOL    HW2 1267   0.694   1.560   2.548  2.8801  0.9562  2.4447
  317SOL     MW 1268   0.705   1.565   2.634  0.3025  0.8228  0.6167
  318SOL     OW 1269   1.354   0.354   2.954 -0.0676 -0.3969 -0.4623
  318SOL    HW1 1270   1.274   0.409   2.966 -0.6044  3.6269 -0.4291
  318SOL    HW2 1271   1.418   0.411   2.913 -3.2706 -1.0707  1.2550
  318SOL     MW 1272   1.352   0.369   2.950 -0.5611  0.0451 -0.2313
  319SOL     OW 1273   0.859   0.355   2.927  0.2148 -0.0258 -0.5995
  319SOL    HW1 1274   0.813   0.310   2.854 -0.5607 -3.1888 -2.1114
  319SOL    HW2 1275   0.787   0.398   2.984  1.1486  3.9131  3.2316
  319SOL     MW 1276   0.844   0.355   2.925  0.2357  0.0766 -0.2935
  320SOL     OW 1277   1.074   1.391   1.991  0.0088  0.3424 -0.4967
  320SOL    HW1 1278   1.133   1.315   2.005 -0.3467 -0.1360 -1.8384
  320SOL    HW2 1279   1.133   1.446   1.944 -0.5528  0.2587  2.5750
  320SOL     MW 1280   1.090   1.389   1.987 -0.1122  0.2682 -0.2685
  321SOL     OW 1281   1.122   0.911   2.996  0.0970  0.0176  0.1864
  321SOL    HW1 1282   1.044   0.887   2.940  2.5713  0.6811  1.0444
  321SOL    HW2 1283   1.178   0.830   2.988 -1.0210 -1.7152 -0.5203
  321SOL     MW 1284   1.119   0.897   2.987  0.2760 -0.1235  0.2064
  322SOL     OW 1285   1.196   0.829   1.653  0.4498 -0.0389 -0.6519
  322SOL    HW1 1286   1.271   0.783   1.700 -0.2726  2.8635  2.9663
  322SOL    HW2 1287   1.163   0.887   1.728 -0.3739  1.5770  1.7737
  322SOL     MW 1288   1.202   0.830   1.669  0.2458  0.5573  0.1455
  323SOL     OW 1289   1.244   1.629   1.891  0.0733  0.0117 -0.1791
  323SOL    HW1 1290   1.284   1.611   1.804  0.4236  1.2712 -0.4498
  323SOL    HW2 1291   1.162   1.672   1.880  1.8015  0.0091 -2.2182
  323SOL     MW 1292   1.238   1.632   1.878  0.3475  0.1775 -0.4838
  324SOL     OW 1293   1.495   1.002   2.410 -0.4205 -0.3577 -0.0984
  324SOL    HW1 1294   1.440   1.029   2.486  1.4530  0.7006  1.6827
  324SOL    HW2 1295   1.570   1.055   2.437 -0.4153  2.0220  0.2334
  324SOL     MW 1296   1.498   1.012   2.424 -0.1726  0.0959  0.1804
  325SOL     OW 1297   1.107   0.498   2.973  0.0758  0.1067  0.3378
  325SOL    HW1 1298   1.101   0.560   3.051  1.0079  1.6152 -0.3954
  325SOL    HW2 1299   1.022   0.458   2.960  1.7085  1.1764 -0.3170
  325SOL     MW 1300   1.095   0.501   2.981  0.4142  0.4469  0.1547
  326SOL     OW 1301   0.337   1.372   2.280 -0.2359  0.0997  0.0429
  326SOL    HW1 1302   0.430   1.333   2.256  1.9867 -2.6412 -0.4235
  326SOL    HW2 1303   0.340   1.458   2.246  0.1367 -1.7017  1.2139
  326SOL     MW 1304   0.350   1.378   2.272  0.1065 -0.4996  0.1359
  327SOL     OW 1305   1.935   0.790   2.454  0.4139  0.3897 -0.1499
  327SOL    HW1 1306   1.899   0.732   2.529  0.8579 -0.4918 -1.7512
  327SOL    HW2 1307   1.962   0.871   2.489  0.4884  0.2481  1.4432
  327SOL     MW 1308   1.934   0.793   2.469  0.4823  0.2547 -0.1510
  328SOL     OW 1309   0.238   1.271   2.055  0.1748 -0.2647 -0.5705
  328SOL    HW1 1310   0.163   1.210   2.070 -1.3742  0.0427 -1.1968
  328SOL    HW2 1311   0.273   1.290   2.142  2.8409 -1.4567 -0.0306
  328SOL     MW 1312   0.233   1.265   2.069  0.3222 -0.3814 -0.5819
  329SOL     OW 1313   0.077   0.173   1.349  0.4066  0.0421 -0.3912
  329SOL    HW1 1314   0.092   0.114   1.418  3.0999 -0.0080 -1.3052
  329SOL    HW2 1315   0.171   0.185   1.322  1.4835 -0.8744  1.5245
  329SOL     MW 1316   0.092   0.167   1.355  0.9040 -0.0855 -0.2591
  330SOL     OW 1317   0.394   3.084   2.033  0.2843  0.1999 -0.2298
  330SOL    HW1 1318   0.480   3.050   2.046  0.1515 -0.0216  0.2997
  330SOL    HW2 1319   0.365   3.123   2.110 -1.7537  0.8016 -1.5375
  330SOL     MW 1320   0.401   3.084   2.045 -0.0021  0.2500 -0.3325
  331SOL     OW 1321   0.776   1.246   2.459  0.1836  0.2281  0.4169
  331SOL    HW1 1322   0.697   1.290   2.434  1.3118  1.2498  1.7440
  331SOL    HW2 1323   0.802   1.285   2.546  2.3478  1.0272 -0.7784
  331SOL     MW 1324   0.769   1.257   2.467  0.6180  0.4684  0.4343
  332SOL     OW 1325   1.337   1.667   2.893 -0.1460 -0.0042 -0.2710
  332SOL    HW1 1326   1.317   1.675   2.800 -2.0853 -1.4375  0.0711
  332SOL    HW2 1327   1.397   1.741   2.907  1.5544  0.3114  1.4990
  332SOL     MW 1328   1.342   1.678   2.883 -0.1775 -0.1516  0.0077
  333SOL     OW 1329   1.722   1.406   2.905 -0.5769 -0.2172  0.2516
  333SOL    HW1 1330   1.820   1.384   2.927  2.4459  0.4826  0.8068
  333SOL    HW2 1331   1.670   1.345   2.960  1.0817 -1.3502 -0.5221
  333SOL     MW 1332   1.728   1.395   2.916  0.0408 -0.2744  0.2228
  334SOL     OW 1333   1.265   3.044   2.624 -0.5186  0.0087  0.8060
  334SOL    HW1 1334   1.188   3.047   2.675 -0.5542  0.6471 -1.1428
  334SOL    HW2 1335   1.323   3.123   2.652 -0.2303  2.9220  1.3153
  334SOL     MW 1336   1.263   3.055   2.635 -0.4852  0.4773  0.6160
  335SOL     OW 1337   1.308   0.737   2.989 -0.2599  0.0462 -0.1248
  335SOL    HW1 1338   1.362   0.752   3.074  3.3660  0.5663  0.8869
  335SOL    HW2 1339   1.346   0.777   2.906  2.0443 -0.5918  0.9480
  335SOL     MW 1340   1.320   0.744   2.989  0.5226  0.0306  0.1502
  336SOL     OW 1341   0.953   1.194   1.771  0.3714  0.1895 -0.2610
  336SOL    HW1 1342   0.907   1.240   1.836  0.3635 -1.0857 -4.3972
  336SOL    HW2 1343   1.005   1.126   1.814  1.4993  1.5158  0.5867
  336SOL     MW 1344   0.953   1.191   1.785  0.5191  0.1963 -0.6949
  337SOL     OW 1345   0.586   1.858   2.785 -0.4422  0.3888  0.3507
  337SOL    HW1 1346   0.540   1.822   2.711  1.3828 -0.0982  2.0808
  337SOL    HW2 1347   0.680   1.829   2.781 -1.2291  2.3979  1.1127
  337SOL     MW 1348   0.592   1.849   2.775 -0.3052  0.5896  0.6795
  338SOL     OW 1349   1.056   0.750   2.557 -0.9363  0.5017 -0.4634
  338SOL    HW1 1350   0.982   0.685   2.545 -0.1041  2.2759  1.7289
  338SOL    HW2 1351   1.112   0.702   2.610  0.0432  0.5338 -1.1672
  338SOL     MW 1352   1.053   0.736   2.562 -0.6973  0.7400 -0.2670
  339SOL     OW 1353   1.466   1.110   1.866 -0.4360  0.4962 -0.2517
  339SOL    HW1 1354   1.432   1.108   1.775 -1.4854 -0.5243 -0.1653
  339SOL    HW2 1355   1.400   1.064   1.917 -0.8678 -0.2863 -1.1724
  339SOL     MW 1356   1.453   1.104   1.861 -0.6314  0.2583 -0.3618
  340SOL     OW 1357   1.352   1.494   0.034 -0.7402  0.3439 -0.0413
  340SOL    HW1 1358   1.369   1.559  -0.036 -0.5604  0.4294  0.6695
  340SOL    HW2 1359   1.433   1.477   0.078 -0.4828 -2.2405  2.6888
  340SOL     MW 1360   1.365   1.500   0.031 -0.6825  0.0142  0.4127
  341SOL     OW 1361   0.035   1.361   2.754 -0.3411  0.2101  0.3024
  341SOL    HW1 1362   0.087   1.283   2.748 -1.0582 -0.8185  0.5070
  341SOL    HW2 1363  -0.016   1.361   2.678  2.8268  1.5776 -0.3809
  341SOL     MW 1364   0.035   1.351   2.743 -0.0177  0.2548  0.2393
  342SOL     OW 1365   1.376   0.339   0.116 -0.1985 -0.5047  0.1707
  342SOL    HW1 1366   1.430   0.411   0.165 -0.3035  0.6691  2.4603
  342SOL    HW2 1367   1.376   0.352   0.022 -0.4026  0.6434  0.1681
  342SOL     MW 1368   1.383   0.350   0.110 -0.2393 -0.1984  0.4724
  343SOL     OW 1369   0.303   0.298   2.217  0.0124  0.0081 -0.0734
  343SOL    HW1 1370   0.358   0.232   2.248  1.8350 -0.2803 -0.6182
  343SOL    HW2 1371   0.224   0.252   2.178 -2.7308  1.3738  3.7358
  343SOL     MW 1372   0.300   0.284   2.216 -0.1091  0.1502  0.3573
  344SOL     OW 1373   1.712   2.029   0.176  0.2264  0.0174 -0.4857
  344SOL    HW1 1374   1.749   2.070   0.096  1.0911 -1.0364 -0.9364
  344SOL    HW2 1375   1.626   2.070   0.173  3.3552 -2.0050  1.0184
  344SOL     MW 1376   1.706   2.040   0.165  0.7533 -0.3884 -0.3467
  345SOL     OW 1377   0.680   1.569   2.371  0.0435 -0.0299 -0.1561
  345SOL    HW1 1378   0.588   1.581   2.335 -0.9861  1.0459 -3.3783
  345SOL    HW2 1379   0.739   1.552   2.299  1.4534 -3.7240  2.5185
  345SOL     MW 1380   0.675   1.568   2.357  0.0937 -0.3754 -0.2283
  346SOL     OW 1381   1.722   1.120   3.082  0.0839 -0.4041 -0.8461
  346SOL    HW1 1382   1.811   1.100   3.106 -2.1648  0.5900 -0.6822
  346SOL    HW2 1383   1.672   1.051   3.132 -2.3545 -1.0645 -0.8244
  346SOL     MW 1384   1.727   1.108   3.092 -0.5345 -0.3600 -0.8216
  347SOL     OW 1385   1.143   0.752   2.267 -0.2121  0.0405 -0.3550
  347SOL    HW1 1386   1.212   0.686   2.275  1.5657  0.0752 -2.0349
  347SOL    HW2 1387   1.119   0.770   2.359 -0.0158  0.6436  3.2504
  347SOL     MW 1388   1.149   0.746   2.280  0.0483  0.1247 -0.1010
  348SOL     OW 1389   1.356   2.549   1.913  0.3603  0.1188 -0.1734
  348SOL    HW1 1390   1.330   2.487   1.984 -1.8165 -0.0333  2.3306
  348SOL    HW2 1391   1.364   2.636   1.957  2.2889  0.2747 -2.9632
  348SOL     MW 1392   1.354   2.552   1.928  0.3276  0.1193 -0.2111
  349SOL     OW 1393   1.405   0.157   2.748 -0.0131  0.4172  0.6805
  349SOL    HW1 1394   1.352   0.189   2.820  1.6210 -0.0015 -0.0863
  349SOL    HW2 1395   1.474   0.096   2.785 -0.7192  0.5570  1.8644
  349SOL     MW 1396   1.407   0.153   2.763  0.1094  0.3804  0.7355
  350SOL     OW 1397   1.825   0.652   2.679  0.3761 -0.3711 -0.1735
  350SOL    HW1 1398   1.763   0.592   2.625  2.9082 -0.3655  1.8762
  350SOL    HW2 1399   1.896   0.597   2.709  1.0960  0.7786 -3.2189
  350SOL     MW 1400   1.826   0.637   2.675  0.8052 -0.2187 -0.3049
  351SOL     OW 1401   0.072   1.186   1.641 -0.0287 -0.5091 -0.1625
  351SOL    HW1 1402  -0.005   1.196   1.699 -0.9839 -0.3577  1.7408
  351SOL    HW2 1403   0.144   1.240   1.682 -2.2066 -0.5786 -0.4368
  351SOL     MW 1404   0.071   1.194   1.654 -0.4421 -0.4983  0.0524
  352SOL     OW 1405   0.844   1.750   2.797  0.1079  0.0859 -0.0501
  352SOL    HW1 1406   0.831   1.684   2.872 -0.0462  2.3157  0.1785
  352SOL    HW2 1407   0.819   1.694   2.716 -1.5178 -2.0364 -0.8387
  352SOL     MW 1408   0.839   1.734   2.796 -0.1269  0.1001 -0.1240
  353SOL     OW 1409   0.031   2.545   2.746 -0.3918 -0.1931 -0.5229
  353SOL    HW1 1410   0.125   2.533   2.721 -1.6682  1.4022 -0.6678
  353SOL    HW2 1411   0.029   2.639   2.734 -0.5596  0.3556  1.1919
  353SOL     MW 1412   0.043   2.556   2.741 -0.5823  0.0897 -0.3157
  354SOL     OW 1413   0.313   2.461   0.840  0.1688  0.1844  0.9230
  354SOL    HW1 1414   0.352   2.442   0.927  1.1617  0.8814 -2.8290
  354SOL    HW2 1415   0.229   2.417   0.834  0.3181  0.7331 -0.4163
  354SOL     MW 1416   0.307   2.452   0.851  0.3195  0.3488  0.2512
  355SOL     OW 1417   3.069   2.221   0.333 -0.9092 -0.9815 -0.0261
  355SOL    HW1 1418   2.987   2.170   0.321  2.5918 -0.8930 -0.4449
  355SOL    HW2 1419   3.049   2.263   0.418 -2.6148  2.0006 -0.3936
  355SOL     MW 1420   3.055   2.220   0.343 -0.6723 -0.5764 -0.1298
  356SOL     OW 1421   0.814   2.767   0.937  0.1450  0.3068  0.5231
  356SOL    HW1 1422   0.869   2.811   0.870  0.7521  2.5827  0.3472
  356SOL    HW2 1423   0.723   2.779   0.900  1.3226 -0.8451 -1.2623
  356SOL     MW 1424   0.809   2.774   0.923  0.3804  0.4551  0.2643
  357SOL     OW 1425   1.784   2.817   0.482 -0.0931 -0.1381  0.3717
  357SOL    HW1 1426   1.783   2.754   0.556  2.1136 -1.5279 -0.5489
  357SOL    HW2 1427   1.876   2.817   0.458  2.0633 -0.3043  0.8499
  357SOL     MW 1428   1.796   2.809   0.489  0.4825 -0.3434  0.3133
  358SOL     OW 1429   0.455   0.157   1.019 -0.7616  0.2448  0.3978
  358SOL    HW1 1430   0.550   0.154   0.992  1.0739  0.8605 -0.3678
  358SOL    HW2 1431   0.412   0.165   0.933  0.1673 -0.7160 -0.2981
  358SOL     MW 1432   0.462   0.158   1.004 -0.3969  0.1992  0.2050
  359SOL     OW 1433   0.786   2.928   1.860 -0.3460  1.0071 -0.7319
  359SOL    HW1 1434   0.798   2.836   1.881 -0.5781  1.3863  0.8389
  359SOL    HW2 1435   0.828   2.943   1.776 -1.1370  3.0350 -2.4492
  359SOL     MW 1436   0.793   2.918   1.852 -0.4810  1.3247 -0.7512
  360SOL     OW 1437   0.553   2.767   0.874  0.1735 -0.6960 -0.3364
  360SOL    HW1 1438   0.574   2.746   0.782 -0.6590 -0.8432 -0.3862
  360SOL    HW2 1439   0.567   2.683   0.930  4.0030 -0.2472  0.9238
  360SOL     MW 1440   0.558   2.753   0.869  0.5690 -0.6562 -0.1767
  361SOL     OW 1441   0.211   2.615   1.399  0.0604  0.3975  0.5902
  361SOL    HW1 1442   0.195   2.693   1.452 -1.8002 -0.9217  2.5769
  361SOL    HW2 1443   0.300   2.624   1.375 -2.8942  1.5970  2.0734
  361SOL     MW 1444   0.221   2.626   1.403 -0.5750  0.3817  1.0480
  362SOL     OW 1445   1.423   2.385   0.600 -0.5046  0.3365 -0.6451
  362SOL    HW1 1446   1.476   2.321   0.650 -0.3504  2.6676 -1.6662
  362SOL    HW2 1447   1.472   2.472   0.621 -1.6331  0.7103 -0.5216
  362SOL     MW 1448   1.437   2.388   0.609 -0.6331  0.6934 -0.7635
  363SOL     OW 1449   0.308   3.075   0.653  0.1445 -0.6176 -0.8203
  363SOL    HW1 1450   0.299   3.015   0.724 -1.3036 -0.5419 -1.2542
  363SOL    HW2 1451   0.220   3.106   0.632  1.5507  1.3533  0.7160
  363SOL     MW 1452   0.295   3.071   0.660  0.1389 -0.3475 -0.6749
  364SOL     OW 1453   0.768   0.247   0.172  0.5435  0.1188 -0.4568
  364SOL    HW1 1454   0.699   0.186   0.210 -0.5513 -0.6666  0.8411
  364SOL    HW2 1455   0.724   0.310   0.111  1.6947 -0.0581 -0.1222
  364SOL     MW 1456   0.753   0.248   0.169  0.5509 -0.0082 -0.2414
  365SOL     OW 1457   0.971   2.029   1.116 -0.0750  0.0517 -0.2472
  365SOL    HW1 1458   0.931   2.109   1.084 -0.2213 -2.9962  0.7384
  365SOL    HW2 1459   0.918   1.955   1.086  2.5926  1.9020  1.6059
  365SOL     MW 1460   0.959   2.030   1.107  0.2577 -0.1063  0.1273
  366SOL     OW 1461   2.942   2.649   0.941  0.3215  0.3365  0.4800
  366SOL    HW1 1462   3.012   2.649   1.004 -0.0670  2.2918 -1.3117
  366SOL    HW2 1463   2.981   2.690   0.858 -0.1576  0.1334 -0.4673
  366SOL     MW 1464   2.956   2.655   0.938  0.2070  0.5677  0.1186
  367SOL     OW 1465   1.229   2.955   0.900 -0.1532  0.2406  0.6823
  367SOL    HW1 1466   1.274   3.014   0.842 -0.3002 -0.4690  4.6168
  367SOL    HW2 1467   1.190   2.888   0.842 -1.1150  1.3394 -1.9073
  367SOL     MW 1468   1.230   2.954   0.885 -0.2995  0.2919  0.8598
  368SOL     OW 1469   1.718   0.383   0.732  0.6326  0.5326 -0.1139
  368SOL    HW1 1470   1.761   0.340   0.663 -2.2530  0.6658  2.0093
  368SOL    HW2 1471   1.733   0.476   0.722  1.1670 -0.8091 -1.6176
  368SOL     MW 1472   1.726   0.390   0.721  0.3224  0.3732 -0.0322
  369SOL     OW 1473   0.115   2.416   1.776  0.1901  0.2056  0.5923
  369SOL    HW1 1474   0.214   2.408   1.771 -1.5213 -0.4097 -0.2149
  369SOL    HW2 1475   0.112   2.512   1.766 -1.0403 -0.8632 -2.0515
  369SOL     MW 1476   0.128   2.428   1.774 -0.1980 -0.0166  0.1370
  370SOL     OW 1477   0.743   0.147   0.957  0.4051  0.1998  0.2695
  370SOL    HW1 1478   0.733   0.236   0.919 -1.6214  1.0311 -1.4983
  370SOL    HW2 1479   0.832   0.128   0.961 -3.5993 -0.9953 -1.0896
  370SOL     MW 1480   0.754   0.157   0.953 -0.3906  0.1518 -0.1431
  371SOL     OW 1481   1.267   2.839   1.512 -0.7520 -0.1035  0.1029
  371SOL    HW1 1482   1.232   2.759   1.468 -3.3277 -1.2358  2.0570
  371SOL    HW2 1483   1.270   2.908   1.440 -2.6821 -1.7449 -2.6548
  371SOL     MW 1484   1.263   2.837   1.497 -1.3465 -0.4695 -0.0031
  372SOL     OW 1485   0.813   2.303   0.487  0.2437  0.3916 -0.1351
  372SOL    HW1 1486   0.763   2.221   0.479 -0.0269  1.2839  0.6120
  372SOL    HW2 1487   0.836   2.317   0.385  0.1793 -0.5763  0.3720
  372SOL     MW 1488   0.809   2.294   0.473  0.1995  0.3816  0.0304
  373SOL     OW 1489   2.863   3.024   1.399 -0.1517 -0.7269 -0.3859
  373SOL    HW1 1490   2.925   2.984   1.334  2.9063  1.1231 -2.5553
  373SOL    HW2 1491   2.851   3.112   1.358  2.4678  1.4538  0.1685
  373SOL     MW 1492   2.870   3.031   1.385  0.5974 -0.1951 -0.5990
  374SOL     OW 1493   1.531   0.495   0.288 -0.0542  0.3046 -0.6653
  374SOL    HW1 1494   1.629   0.480   0.281 -0.1673 -3.1575  0.1410
  374SOL    HW2 1495   1.502   0.428   0.351 -2.6394 -1.9152 -0.9249
  374SOL     MW 1496   1.540   0.484   0.295 -0.4102 -0.4451 -0.5932
  375SOL     OW 1497   0.958   2.118   2.321  0.1524  0.4138  0.6393
  375SOL    HW1 1498   1.009   2.110   2.398 -1.1079  1.7775  1.5406
  375SOL    HW2 1499   0.935   2.029   2.277 -2.9795  0.8651 -3.0012
  375SOL     MW 1500   0.962   2.105   2.326 -0.4271  0.6533  0.2779
  376SOL     OW 1501   0.700   2.478   0.073 -0.0418 -0.3440 -0.2057
  376SOL    HW1 1502   0.625   2.419   0.090  0.9772 -0.8421 -1.9821
  376SOL    HW2 1503   0.730   2.450  -0.021  3.0444 -1.2646 -2.7395
  376SOL     MW 1504   0.694   2.467   0.063  0.4999 -0.5312 -0.7744
  377SOL     OW 1505   1.258   2.096   0.910 -0.1228  0.2642  0.4954
  377SOL    HW1 1506   1.177   2.070   0.867  0.3835  1.3733  0.2537
  377SOL    HW2 1507   1.252   2.044   0.995 -2.0089 -0.3414  2.2507
  377SOL     MW 1508   1.246   2.086   0.916 -0.3048  0.3306  0.6951
  378SOL     OW 1509   0.919   2.877   1.607 -0.1025  0.7350 -0.1978
  378SOL    HW1 1510   0.938   2.785   1.625  1.8574  0.3560  0.0151
  378SOL    HW2 1511   0.961   2.874   1.519  1.9365 -0.1448 -2.0916
  378SOL     MW 1512   0.927   2.864   1.598  0.4251  0.5689 -0.4196
  379SOL     OW 1513   1.131   1.660   2.166 -0.2606 -0.2650 -0.1355
  379SOL    HW1 1514   1.057   1.599   2.163 -0.9800 -1.4750  1.5169
  379SOL    HW2 1515   1.197   1.618   2.109 -2.1736 -0.1998 -0.2908
  379SOL     MW 1516   1.130   1.647   2.158 -0.6079 -0.4160  0.0620
  380SOL     OW 1517   0.901   0.089   1.464  0.6142 -0.8006  0.1219
  380SOL    HW1 1518   0.926   0.002   1.429 -3.1022  1.5125 -2.9331
  380SOL    HW2 1519   0.958   0.108   1.542 -1.5470 -0.2339 -1.2383
  380SOL     MW 1520   0.912   0.080   1.470 -0.1613 -0.4206 -0.4607
  381SOL     OW 1521   0.732   2.085   0.847  0.6839 -0.0901 -0.0275
  381SOL    HW1 1522   0.824   2.067   0.832 -0.0107  0.2719  0.1432
  381SOL    HW2 1523   0.732   2.157   0.912 -0.7346  2.2940  1.7902
  381SOL     MW 1524   0.744   2.092   0.854  0.4051  0.2722  0.2349
  382SOL     OW 1525   0.737   0.149   0.617  0.8124  0.3319  0.1193
  382SOL    HW1 1526   0.719   0.150   0.708  0.7058 -0.4077 -1.2472
  382SOL    HW2 1527   0.725   0.059   0.588  0.9208  1.1691  0.5955
  382SOL     MW 1528   0.733   0.137   0.625  0.8126  0.3448  0.0018
  383SOL     OW 1529   0.561   0.045   0.280  0.0036  0.0447 -0.0434
  383SOL    HW1 1530   0.596  -0.026   0.228  1.4043  0.9202  1.0077
  383SOL    HW2 1531   0.487  -0.003   0.318  0.4632 -1.6592  3.0340
  383SOL     MW 1532   0.556   0.029   0.278  0.2491 -0.0646  0.5013
  384SOL     OW 1533   0.758   2.982   0.604 -0.1562 -0.2919  0.0700
  384SOL    HW1 1534   0.842   2.957   0.651  3.8368 -0.6249 -0.5071
  384SOL    HW2 1535   0.701   2.905   0.617  2.5329  1.8440 -0.1550
  384SOL     MW 1536   0.762   2.968   0.612  0.7254 -0.0540 -0.0358
  385SOL     OW 1537   1.446   2.037   1.545  0.3173  0.3534  0.1329
  385SOL    HW1 1538   1.504   2.086   1.605 -1.1563 -1.6026 -0.5837
  385SOL    HW2 1539   1.397   1.979   1.613 -1.0144 -0.8538 -2.1815
  385SOL     MW 1540   1.447   2.036   1.562 -0.0528 -0.0639 -0.2670
  386SOL     OW 1541   1.300   0.350   0.840 -0.5094 -0.0353  0.3527
  386SOL    HW1 1542   1.252   0.390   0.913  0.1409 -0.0265 -0.8874
  386SOL    HW2 1543   1.353   0.277   0.878  3.5441  1.5456 -0.4419
  386SOL     MW 1544   1.301   0.345   0.855  0.1112  0.1744  0.0843
  387SOL     OW 1545   0.811   2.160   1.489 -0.3866 -0.3621 -0.1882
  387SOL    HW1 1546   0.879   2.224   1.482 -1.6730 -2.2192 -0.2365
  387SOL    HW2 1547   0.841   2.071   1.472 -2.8257  0.1585 -0.0654
  387SOL     MW 1548   0.824   2.157   1.486 -0.8781 -0.5384 -0.1784
  388SOL     OW 1549   1.529   2.745   1.265 -0.0489  0.2465  0.7248
  388SOL    HW1 1550   1.465   2.794   1.218  1.5167 -1.0363  2.4170
  388SOL    HW2 1551   1.509   2.656   1.220  1.9412 -1.4946 -0.1814
  388SOL     MW 1552   1.518   2.739   1.253  0.4202 -0.1525  0.8285
  389SOL     OW 1553   0.560   0.156   3.050  0.1805 -0.1318  0.3542
  389SOL    HW1 1554   0.646   0.113   3.023 -0.6215 -0.9696 -4.5477
  389SOL    HW2 1555   0.522   0.171   2.958 -1.0606  0.1353  3.3092
  389SOL     MW 1556   0.566   0.152   3.034 -0.0890 -0.2071  0.0973
  390SOL     OW 1557   1.328   0.036   0.700  0.5750  0.4085 -0.7015
  390SOL    HW1 1558   1.388   0.050   0.630  0.7264 -1.2108  2.1957
  390SOL    HW2 1559   1.370   0.090   0.771 -0.0908 -0.7838  1.3563
  390SOL     MW 1560   1.341   0.045   0.700  0.5072  0.0375 -0.0477
  391SOL     OW 1561   0.405   2.180   1.504  0.3742  0.0987 -0.2798
  391SOL    HW1 1562   0.374   2.089   1.499 -0.4207  0.1080 -0.9657
  391SOL    HW2 1563   0.319   2.225   1.504 -0.6612  1.0996  0.7478
  391SOL     MW 1564   0.389   2.174   1.503  0.1327  0.2320 -0.2347
  392SOL     OW 1565   2.080   2.227   0.306 -0.4442  0.1019 -0.2056
  392SOL    HW1 1566   2.170   2.228   0.322 -0.7210 -1.0928 -2.5314
  392SOL    HW2 1567   2.042   2.230   0.393  0.4540  0.2624 -1.6366
  392SOL     MW 1568   2.087   2.227   0.320 -0.3623 -0.0346 -0.7012
  393SOL     OW 1569   0.309   2.919   2.820  0.0127  0.2784  0.4167
  393SOL    HW1 1570   0.387   2.909   2.764  0.3036 -1.5286  2.7257
  393SOL    HW2 1571   0.277   3.007   2.797 -0.4335  1.2808 -2.3811
  393SOL     MW 1572   0.315   2.929   2.809 -0.0078  0.1723  0.3522
  394SOL     OW 1573   0.974   1.688   1.529  0.5383  0.1707  0.4983
  394SOL    HW1 1574   0.947   1.704   1.617 -0.7201  1.1519  0.4831
  394SOL    HW2 1575   0.985   1.773   1.487  2.9951 -4.5315 -1.3619
  394SOL     MW 1576   0.972   1.701   1.535  0.6964 -0.3203  0.2508
  395SOL     OW 1577   0.973   2.978   2.540  0.1882  0.0172 -0.3076
  395SOL    HW1 1578   0.986   3.004   2.633 -1.9661 -0.9044  0.1399
  395SOL    HW2 1579   1.039   2.916   2.519  0.3269  1.3578  1.8585
  395SOL     MW 1580   0.984   2.974   2.549 -0.0777  0.0725  0.0372
  396SOL     OW 1581   0.703   1.850   2.435  0.0849  0.8333  0.1747
  396SOL    HW1 1582   0.784   1.850   2.488  1.6034 -0.2010  1.1387
  396SOL    HW2 1583   0.668   1.760   2.420 -2.6811  1.4885 -0.2863
  396SOL     MW 1584   0.710   1.838   2.440 -0.0797  0.7833  0.2411
  397SOL     OW 1585   1.019   2.319   1.438 -0.3069  0.0663  0.1508
  397SOL    HW1 1586   1.029   2.347   1.344  1.7850  2.0789 -1.8523
  397SOL    HW2 1587   1.106   2.280   1.463 -0.5605 -2.1206 -1.6867
  397SOL     MW 1588   1.032   2.317   1.429 -0.0644  0.0433 -0.3559
  398SOL     OW 1589   0.627   2.732   0.613 -0.2479 -0.3462  0.0889
  398SOL    HW1 1590   0.554   2.716   0.550 -1.1875  2.1786 -1.9923
  398SOL    HW2 1591   0.681   2.649   0.622  0.8800 -1.4329  1.1622
  398SOL     MW 1592   0.624   2.719   0.605 -0.2230 -0.1564 -0.0441
  399SOL     OW 1593   0.218   2.086   0.346  0.2676  0.3934  0.3665
  399SOL    HW1 1594   0.129   2.118   0.358  3.5095 -1.3281 -1.8599
  399SOL    HW2 1595   0.234   2.110   0.251 -0.4976  0.0359 -1.3048
  399SOL     MW 1596   0.208   2.094   0.335  0.5944  0.1191 -0.1478
  400SOL     OW 1597   0.562   1.992   0.083  0.1993  0.0639  0.4916
  400SOL    HW1 1598   0.496   2.060   0.092 -1.2009  2.3390 -3.6234
  400SOL    HW2 1599   0.556   1.934   0.159 -1.1338  2.6085 -0.2462
  400SOL     MW 1600   0.552   1.993   0.094 -0.1613  0.6998 -0.1487
  401SOL     OW 1601   0.813   2.095   0.079  0.1155  0.3958  0.1076
  401SOL    HW1 1602   0.847   2.023   0.133 -2.1711 -2.9705 -1.7164
  401SOL    HW2 1603   0.722   2.062   0.063  1.1284 -0.6515  0.1413
  401SOL     MW 1604   0.805   2.081   0.084 -0.0525 -0.1865 -0.1286
  402SOL     OW 1605   0.564   2.969   1.718  0.1448  0.3483  0.0700
  402SOL    HW1 1606   0.625   2.946   1.791  0.3018  0.2517 -3.0895
  402SOL    HW2 1607   0.588   3.057   1.684  1.3434 -0.8282  0.1410
  402SOL     MW 1608   0.575   2.978   1.723  0.3236  0.1804 -0.3375
  403SOL     OW 1609   0.086   0.466   0.369 -0.4971  0.4132 -0.3171
  403SOL    HW1 1610   0.170   0.502   0.402  1.1022  3.9933  0.5871
  403SOL    HW2 1611   0.114   0.419   0.292 -0.4441  2.7612  1.2473
  403SOL     MW 1612   0.100   0.465   0.363 -0.2791  1.1953  0.0086
  404SOL     OW 1613   0.963   2.903   0.748  0.1607  0.0333 -0.0051
  404SOL    HW1 1614   1.028   2.834   0.728  0.9618 -1.6670 -0.9560
  404SOL    HW2 1615   0.993   2.994   0.743 -0.8595 -0.0037 -0.2594
  404SOL     MW 1616   0.976   2.906   0.745  0.1318 -0.1959 -0.1641
  405SOL     OW 1617   0.511   2.455   1.529 -0.2360  0.0335 -0.1836
  405SOL    HW1 1618   0.528   2.525   1.464  1.4349 -1.4547  0.9704
  405SOL    HW2 1619   0.483   2.376   1.494 -1.8971  3.3832  0.4839
  405SOL     MW 1620   0.510   2.454   1.516 -0.2347  0.2791  0.0567
  406SOL     OW 1621   0.333   2.410   1.096  0.6823  0.0212  0.2865
  406SOL    HW1 1622   0.241   2.403   1.130 -1.5137 -0.5364 -1.2714
  406SOL    HW2 1623   0.361   2.321   1.126 -0.5106 -0.4911  0.5736
  406SOL     MW 1624   0.325   2.397   1.105  0.2352 -0.1200  0.1189
  407SOL     OW 1625   0.077   2.680   1.155 -0.2931 -0.0661  0.0307
  407SOL    HW1 1626   0.136   2.659   1.231  1.4623 -0.6767  2.6168
  407SOL    HW2 1627   0.137   2.721   1.096 -0.6306 -2.4808  0.4453
  407SOL     MW 1628   0.093   2.682   1.157 -0.1060 -0.4653  0.4266
  408SOL     OW 1629   2.146   2.104   0.673  0.2027  0.5257  0.4597
  408SOL    HW1 1630   2.097   2.160   0.737 -1.9000 -0.7252 -3.4891
  408SOL    HW2 1631   2.090   2.036   0.634  3.3085  1.5108  0.0680
  408SOL     MW 1632   2.132   2.103   0.676  0.3350  0.4906 -0.1130
  409SOL     OW 1633   1.477   0.137   0.929  0.4985 -0.2758 -0.7676
  409SOL    HW1 1634   1.547   0.200   0.957  2.2719  0.6499  3.0150
  409SOL    HW2 1635   1.492   0.065   0.989  0.6652 -0.0695 -1.9833
  409SOL     MW 1636   1.489   0.136   0.941  0.7545 -0.1265 -0.4289
  410SOL     OW 1637   1.056   2.415   1.177 -0.2035  0.5741 -0.0654
  410SOL    HW1 1638   0.973   2.441   1.140 -2.6987 -1.8193 -1.4586
  410SOL    HW2 1639   1.126   2.405   1.104  1.7024 -1.5713 -0.6187
  410SOL     MW 1640   1.054   2.417   1.162 -0.2812 -0.0248 -0.3222
  411SOL     OW 1641   1.966   3.069   2.914  0.5855 -0.5546 -0.1517
  411SOL    HW1 1642   1.906   3.039   2.847 -0.2331  0.1992  1.3940
  411SOL    HW2 1643   1.929   3.141   2.964  0.5362 -1.7826 -0.1831
  411SOL     MW 1644   1.953   3.075   2.912  0.4710 -0.6172  0.0481
  412SOL     OW 1645   1.054   2.235   0.623  0.5381  0.5135 -0.0707
  412SOL    HW1 1646   1.089   2.314   0.654 -0.0714  1.1355 -0.9897
  412SOL    HW2 1647   0.976   2.264   0.579  1.3868  0.8086  0.2664
  412SOL     MW 1648   1.048   2.250   0.621  0.5697  0.6345 -0.1475
  413SOL     OW 1649   0.578   2.723   0.048 -0.1564  0.6568  0.0435
  413SOL    HW1 1650   0.605   2.630   0.032  4.4426 -2.6253  1.2483
  413SOL    HW2 1651   0.594   2.774  -0.028 -2.6881  0.3275  2.2710
  413SOL     MW 1652   0.583   2.717   0.036  0.1163  0.1803  0.4963
  414SOL     OW 1653   2.033   2.999   1.191  0.2226 -0.1327  0.0255
  414SOL    HW1 1654   2.064   3.096   1.205  0.7709  0.8698 -1.2992
  414SOL    HW2 1655   1.995   3.000   1.102 -1.6392  2.7346 -0.3443
  414SOL     MW 1656   2.032   3.012   1.181  0.0493  0.3779 -0.1981
  415SOL     OW 1657   1.713   2.799   1.082 -1.0048 -0.0833  0.0057
  415SOL    HW1 1658   1.671   2.772   1.164 -2.9153  0.0916 -0.4229
  415SOL    HW2 1659   1.802   2.764   1.079 -0.3396  3.5564  0.4179
  415SOL     MW 1660   1.719   2.791   1.093 -1.1691  0.4200  0.0036
  416SOL     OW 1661   0.556   1.866   1.412  0.0383 -1.2443  0.4900
  416SOL    HW1 1662   0.473   1.844   1.453  3.6878 -1.2407  0.6857
  416SOL    HW2 1663   0.604   1.788   1.420 -2.5506 -0.3666  1.3384
  416SOL     MW 1664   0.551   1.853   1.419  0.1782 -1.1280  0.6278
  417SOL     OW 1665   0.988   3.022   2.040  0.1869  0.3350 -0.0381
  417SOL    HW1 1666   0.919   3.032   2.101 -1.3030  0.4819 -0.6125
  417SOL    HW2 1667   0.941   2.963   1.978  1.4439  1.7446  2.5780
  417SOL     MW 1668   0.973   3.016   2.040  0.1561  0.5403  0.2313
  418SOL     OW 1669   0.725   2.946   0.150  0.5669  0.7040  0.0975
  418SOL    HW1 1670   0.799   2.915   0.094  0.5459 -0.8665  0.2980
  418SOL    HW2 1671   0.655   2.881   0.134  2.1139 -1.3876 -0.1765
  418SOL     MW 1672   0.725   2.934   0.141  0.7683  0.2208  0.0878
  419SOL     OW 1673   0.514   2.679   1.365  0.0176  0.6487  0.1782
  419SOL    HW1 1674   0.538   2.737   1.437  1.6827  0.2282 -0.8649
  419SOL    HW2 1675   0.589   2.648   1.319 -0.1202 -0.8908  0.1453
  419SOL     MW 1676   0.527   2.683   1.368  0.2191  0.3901  0.0362
  420SOL     OW 1677   0.783   2.233   1.066 -0.5997 -0.3806  0.5070
  420SOL    HW1 1678   0.752   2.256   1.155  0.8370  0.2527  0.7639
  420SOL    HW2 1679   0.810   2.321   1.016 -0.7547 -0.9233 -0.5455
  420SOL     MW 1680   0.783   2.248   1.071 -0.4306 -0.3687  0.4021
  421SOL     OW 1681   2.960   0.174   3.084 -0.5546 -0.2273  0.2337
  421SOL    HW1 1682   2.880   0.143   3.048 -0.1397  2.0788  1.3641
  421SOL    HW2 1683   3.019   0.098   3.077  0.1190 -0.3843  1.2449
  421SOL     MW 1684   2.957   0.160   3.078 -0.4110  0.0563  0.5163
  422SOL     OW 1685   0.810   2.462   0.955  0.3713  0.8969 -0.3665
  422SOL    HW1 1686   0.748   2.523   0.996 -3.3989 -1.7395  2.9721
  422SOL    HW2 1687   0.788   2.464   0.860 -0.0512  1.6412 -0.4882
  422SOL     MW 1688   0.799   2.471   0.948 -0.1819  0.6473  0.0579
  423SOL     OW 1689   1.500   0.074   0.468 -0.3576  0.4636  0.0911
  423SOL    HW1 1690   1.510   0.052   0.372 -0.7063  3.4991 -3.9747
  423SOL    HW2 1691   1.485   0.174   0.465 -3.1601 -0.3770 -2.3783
  423SOL     MW 1692   1.499   0.084   0.455 -0.7734  0.7532 -0.7711
  424SOL     OW 1693   0.651   2.296   1.305 -0.0584 -0.0406  0.2384
  424SOL    HW1 1694   0.571   2.244   1.274 -1.1659  0.6415 -0.6676
  424SOL    HW2 1695   0.694   2.232   1.361 -0.8619  0.6647  0.2866
  424SOL     MW 1696   0.646   2.281   1.308 -0.3105  0.1424  0.1252
  425SOL     OW 1697   1.721   2.751   2.066 -0.1653  0.2844 -0.3198
  425SOL    HW1 1698   1.735   2.749   1.972 -2.2242  0.2376 -0.9129
  425SOL    HW2 1699   1.738   2.659   2.107  1.3314 -1.8303  0.9971
  425SOL     MW 1700   1.725   2.739   2.059 -0.2395 -0.0008 -0.2243
  426SOL     OW 1701   0.840   1.737   1.992  0.0690  0.0026  0.1755
  426SOL    HW1 1702   0.813   1.743   1.903  1.1603  2.0043  1.4342
  426SOL    HW2 1703   0.822   1.824   2.034 -1.6627  3.7022  0.6588
  426SOL     MW 1704   0.834   1.749   1.986 -0.0155  0.7549  0.4054
  427SOL     OW 1705   0.346   1.693   1.855  0.0778  0.0857  0.2305
  427SOL    HW1 1706   0.389   1.651   1.787  0.0763 -1.2428  0.3521
  427SOL    HW2 1707   0.314   1.618   1.905  1.8615  1.4949 -1.0315
  427SOL     MW 1708   0.348   1.677   1.853  0.3129  0.0964  0.0801
  428SOL     OW 1709   0.571   2.587   1.068 -0.5504  0.0823  0.3879
  428SOL    HW1 1710   0.565   2.492   1.083 -1.6151 -1.3361 -0.8407
  428SOL    HW2 1711   0.506   2.624   1.119  0.1615  1.0028  0.5662
  428SOL     MW 1712   0.562   2.580   1.077 -0.5970  0.0166  0.2493
  429SOL     OW 1713   1.215   2.800   1.147 -0.0575 -0.5707  0.0383
  429SOL    HW1 1714   1.130   2.763   1.161  0.3245 -0.4337 -0.8952
  429SOL    HW2 1715   1.189   2.872   1.091 -0.8923  1.5176  2.4239
  429SOL     MW 1716   1.200   2.805   1.141 -0.1172 -0.2771  0.2299
  430SOL     OW 1717   1.146   2.723   0.688 -0.1481 -0.1427  0.0097
  430SOL    HW1 1718   1.159   2.632   0.707 -2.3300  1.5126 -1.0320
  430SOL    HW2 1719   1.098   2.703   0.597  2.3260  0.2717 -0.4235
  430SOL     MW 1720   1.141   2.708   0.678 -0.1095  0.1304 -0.1849
  431SOL     OW 1721   0.327   1.930   1.098 -0.3990  0.3513  0.4997
  431SOL    HW1 1722   0.383   1.856   1.073  1.9748 -0.2111  0.5554
  431SOL    HW2 1723   0.282   1.970   1.021 -0.9027  3.2323  3.8474
  431SOL     MW 1724   0.328   1.926   1.085 -0.1522  0.6572  0.9487
  432SOL     OW 1725   0.046   0.012   1.107  0.1691 -0.0250  0.1055
  432SOL    HW1 1726   0.047   0.078   1.180 -3.2380 -1.2838 -0.3474
  432SOL    HW2 1727   0.014  -0.068   1.148  0.1723 -1.9247  0.5585
  432SOL     MW 1728   0.042   0.010   1.122 -0.2800 -0.4417  0.1055
  433SOL     OW 1729   0.655   2.870   1.482  0.3091  0.3280 -0.0349
  433SOL    HW1 1730   0.620   2.894   1.575  3.0727 -0.0639  1.2787
  433SOL    HW2 1731   0.738   2.904   1.491 -2.4447  0.7775  0.1561
  433SOL     MW 1732   0.661   2.877   1.496  0.3104  0.3356  0.1636
  434SOL     OW 1733   1.542   2.801   1.574  0.3529 -0.2396 -0.7606
  434SOL    HW1 1734   1.449   2.821   1.554  2.3871  1.8877  0.5134
  434SOL    HW2 1735   1.583   2.781   1.489  0.3670 -2.1839 -1.0011
  434SOL     MW 1736   1.535   2.801   1.560  0.6231 -0.2155 -0.6242
  435SOL     OW 1737   2.747   1.768   0.206  0.3655  0.1827  0.0310
  435SOL    HW1 1738   2.812   1.823   0.154  1.0155  0.3201 -2.5252
  435SOL    HW2 1739   2.654   1.791   0.171 -0.9726 -1.3308 -0.4823
  435SOL     MW 1740   2.743   1.778   0.195  0.2747  0.0011 -0.3740
  436SOL     OW 1741   1.413   2.685   0.370  0.1489  0.0764 -0.1387
  436SOL    HW1 1742   1.460   2.677   0.452  1.3147  1.3726  0.2575
  436SOL    HW2 1743   1.392   2.783   0.358 -0.6982  1.6095  2.0136
  436SOL     MW 1744   1.416   2.697   0.379  0.1909  0.4497  0.1975
  437SOL     OW 1745   1.005   2.952   1.342  1.1988 -0.1168 -0.5819
  437SOL    HW1 1746   1.039   3.003   1.268 -0.9361  1.1575  0.3313
  437SOL    HW2 1747   0.976   2.881   1.283  1.3768  1.6347 -1.2956
  437SOL     MW 1748   1.005   2.950   1.324  0.9406  0.2824 -0.5556
  438SOL     OW 1749   0.816   2.659   1.906  0.5322  0.0969  0.0975
  438SOL    HW1 1750   0.848   2.606   1.976 -0.8507  1.2872 -0.9511
  438SOL    HW2 1751   0.750   2.614   1.845  0.9648  2.7348 -2.6489
  438SOL     MW 1752   0.812   2.646   1.907  0.4068  0.6020 -0.4032
  439SOL     OW 1753   1.155   2.102   0.404  0.1282  0.4848 -0.1238
  439SOL    HW1 1754   1.122   2.136   0.486  0.1564 -0.7645  0.6197
  439SOL    HW2 1755   1.167   2.177   0.345 -0.9632 -2.5191 -1.9359
  439SOL     MW 1756   1.152   2.116   0.407 -0.0121 -0.0763 -0.2648
  440SOL     OW 1757   1.671   2.961   3.063  0.8020 -0.2001 -0.1032
  440SOL    HW1 1758   1.667   2.904   3.137  0.0148  1.9103  1.0261
  440SOL    HW2 1759   1.761   2.980   3.059  0.9393 -1.7963  1.9174
  440SOL     MW 1760   1.682   2.956   3.072  0.7163 -0.1322  0.3124
  441SOL     OW 1761   0.359   2.669   0.516  0.0298  0.1874 -0.2564
  441SOL    HW1 1762   0.355   2.624   0.426 -0.9011 -2.5049 -0.3891
  441SOL    HW2 1763   0.365   2.759   0.496  0.2742 -2.1594  0.5375
  441SOL     MW 1764   0.359   2.675   0.501 -0.0607 -0.4775 -0.1692
  442SOL     OW 1765   3.075   2.353   0.588 -0.1316  0.1837  0.3204
  442SOL    HW1 1766   3.095   2.433   0.549  0.2395  0.7288  1.2178
  442SOL    HW2 1767   2.988   2.362   0.627  1.7098 -0.8938 -0.2419
  442SOL     MW 1768   3.066   2.365   0.588  0.1603  0.1135  0.3646
  443SOL     OW 1769   1.524   1.744   1.963  0.3315  0.1675 -0.3871
  443SOL    HW1 1770   1.454   1.703   1.916 -0.9256  1.7870 -1.1421
  443SOL    HW2 1771   1.519   1.688   2.042 -3.0915 -2.8526 -4.0065
  443SOL     MW 1772   1.514   1.731   1.967 -0.2860 -0.0173 -0.9642
  444SOL     OW 1773   0.926   2.602   1.578  0.6552  0.0356 -0.1666
  444SOL    HW1 1774   1.003   2.567   1.625  0.8208 -1.0093 -1.3376
  444SOL    HW2 1775   0.853   2.562   1.626 -2.9814 -0.4381 -1.7247
  444SOL     MW 1776   0.927   2.592   1.591  0.1972 -0.1647 -0.5267
  445SOL     OW 1777   1.186   0.163   1.398  0.3517  0.4953  0.2177
  445SOL    HW1 1778   1.108   0.112   1.399  2.3102  0.3708 -1.3386
  445SOL    HW2 1779   1.201   0.191   1.306 -1.3456 -0.6083 -2.0357
  445SOL     MW 1780   1.178   0.160   1.386  0.3862  0.3333 -0.2850
  446SOL     OW 1781   2.790   2.864   1.036  0.2638 -0.1803 -0.1367
  446SOL    HW1 1782   2.726   2.899   0.966 -1.6278  1.5300 -0.1775
  446SOL    HW2 1783   2.840   2.786   1.002 -0.6482 -0.3636 -0.5880
  446SOL     MW 1784   2.788   2.858   1.022 -0.1061  0.0212 -0.2016
  447SOL     OW 1785   0.026   1.981   1.635  0.1135  0.0553 -0.2150
  447SOL    HW1 1786   0.061   1.905   1.679  0.3353 -1.1779  2.0279
  447SOL    HW2 1787  -0.062   1.959   1.595 -2.4817 -1.8149 -0.5649
  447SOL     MW 1788   0.019   1.968   1.636 -0.1997 -0.3542  0.0347
  448SOL     OW 1789   1.768   2.426   1.684 -0.0226  0.6946 -0.4719
  448SOL    HW1 1790   1.725   2.340   1.682 -3.5133 -0.5132 -0.2438
  448SOL    HW2 1791   1.691   2.487   1.680  0.6372 -0.0921 -0.5370
  448SOL     MW 1792   1.752   2.423   1.683 -0.3961  0.4314 -0.4504
  449SOL     OW 1793   0.909   2.892   0.382 -0.2050  0.7140  0.3947
  449SOL    HW1 1794   0.854   2.886   0.303  0.9141 -2.4737  2.0971
  449SOL    HW2 1795   0.848   2.897   0.457  2.3405  0.9664 -1.3070
  449SOL     MW 1796   0.894   2.892   0.382  0.2785  0.3267  0.3948
  450SOL     OW 1797   1.204   2.450   0.738 -0.3216 -0.3970  0.2855
  450SOL    HW1 1798   1.220   2.429   0.828 -1.2360 -1.8009  0.5862
  450SOL    HW2 1799   1.280   2.416   0.691  0.8978 -0.6998 -1.0072
  450SOL     MW 1800   1.216   2.443   0.744 -0.2814 -0.6222  0.1546
  451SOL     OW 1801   0.610   2.012   1.685 -0.1217 -0.6596  0.3829
  451SOL    HW1 1802   0.626   2.090   1.738  0.0370 -0.7453  2.0828
  451SOL    HW2 1803   0.594   2.041   1.596  2.4565 -1.2651 -1.6615
  451SOL     MW 1804   0.610   2.026   1.680  0.2394 -0.7508  0.3374
  452SOL     OW 1805   0.321   2.629   0.053  0.7634 -0.1016 -0.0284
  452SOL    HW1 1806   0.410   2.662   0.052 -3.3469 -0.2263  0.0158
  452SOL    HW2 1807   0.260   2.707   0.037 -3.7347 -2.2734 -0.9350
  452SOL     MW 1808   0.325   2.644   0.051 -0.3724 -0.4046 -0.1422
  453SOL     OW 1809   0.333   3.059   1.624  0.0374  0.2763  0.5567
  453SOL    HW1 1810   0.409   3.026   1.670  1.1141  0.1946 -1.6406
  453SOL    HW2 1811   0.373   3.076   1.537  1.9234 -1.4563 -2.5089
  453SOL     MW 1812   0.348   3.057   1.619  0.4283  0.0369 -0.1377
  454SOL     OW 1813   0.947   2.725   1.190 -0.4333 -0.1136  0.5360
  454SOL    HW1 1814   0.891   2.677   1.246 -1.6907  1.9980  1.6066
  454SOL    HW2 1815   0.899   2.735   1.105 -1.7289  0.6863 -1.0451
  454SOL     MW 1816   0.933   2.720   1.186 -0.7701  0.2705  0.4686
  455SOL     OW 1817   1.647   2.878   0.247  0.5377  0.3484  0.5127
  455SOL    HW1 1818   1.682   2.861   0.331 -2.2577 -2.9782 -0.7418
  455SOL    HW2 1819   1.613   2.794   0.225 -0.2875  1.9168  1.0302
  455SOL     MW 1820   1.647   2.864   0.255  0.0600  0.1164  0.4154
  456SOL     OW 1821   2.711   0.305   1.533 -0.3442 -0.0323  0.1733
  456SOL    HW1 1822   2.672   0.243   1.469  1.6996  1.4537 -0.7355
  456SOL    HW2 1823   2.802   0.333   1.499 -0.1346  0.3524  1.0210
  456SOL     MW 1824   2.718   0.300   1.520 -0.0469  0.2145  0.1652
  457SOL     OW 1825   0.798   1.579   3.024 -0.5232  0.0598  0.1220
  457SOL    HW1 1826   0.699   1.572   3.009 -0.0891  2.5216 -2.4963
  457SOL    HW2 1827   0.821   1.651   3.086  0.1459 -0.9612  2.6968
  457SOL     MW 1828   0.788   1.588   3.030 -0.3777  0.2499  0.1162
  458SOL     OW 1829   1.353   1.465   0.666 -0.0905  0.1564  0.8728
  458SOL    HW1 1830   1.306   1.516   0.599 -1.2169 -1.6219 -0.5007
  458SOL    HW2 1831   1.318   1.375   0.664 -0.6883  0.7057  0.5397
  458SOL     MW 1832   1.342   1.460   0.657 -0.3180 -0.0058  0.6477
  459SOL     OW 1833   1.544   0.022   0.204  0.0173  0.1305 -0.1480
  459SOL    HW1 1834   1.572  -0.070   0.214  0.1354 -1.1345 -2.3457
  459SOL    HW2 1835   1.505   0.027   0.115 -0.9755  1.5110  0.8851
  459SOL     MW 1836   1.542   0.010   0.193 -0.0981  0.1458 -0.3016
  460SOL     OW 1837   1.785   2.156   0.636  0.4971  0.5818  0.1264
  460SOL    HW1 1838   1.703   2.137   0.685 -0.1771 -1.7476 -0.3193
  460SOL    HW2 1839   1.831   2.072   0.636  1.6198  1.8873 -1.8007
  460SOL     MW 1840   1.780   2.143   0.642  0.5563  0.4467 -0.1866
  461SOL     OW 1841   0.466   2.417   0.613  0.2000  0.7390  0.4563
  461SOL    HW1 1842   0.439   2.495   0.563 -0.2128 -1.1800  1.9413
  461SOL    HW2 1843   0.405   2.410   0.687  0.1449  2.7465 -1.7126
  461SOL     MW 1844   0.454   2.426   0.616  0.1382  0.7507  0.3661
  462SOL     OW 1845   0.315   0.245   1.242 -0.1463 -0.1561  0.7157
  462SOL    HW1 1846   0.367   0.239   1.157 -0.7099  1.4895  1.2486
  462SOL    HW2 1847   0.377   0.268   1.318 -1.1491  0.6525 -1.0190
  462SOL     MW 1848   0.330   0.248   1.240 -0.3530  0.1677  0.5571
  463SOL     OW 1849   1.001   0.074   0.683 -0.1708 -0.2174  0.3345
  463SOL    HW1 1850   1.075   0.094   0.622  0.2847  2.5374  1.0878
  463SOL    HW2 1851   0.921   0.095   0.644  2.6197 -1.4298  1.8640
  463SOL     MW 1852   1.000   0.080   0.670  0.2575 -0.0139  0.6357
  464SOL     OW 1853   0.786   3.027   2.237  0.3041  0.3271  0.0314
  464SOL    HW1 1854   0.792   2.938   2.267  1.0640 -0.8747 -2.3028
  464SOL    HW2 1855   0.804   3.078   2.316 -2.4077 -1.2856  0.4593
  464SOL     MW 1856   0.789   3.022   2.252  0.0466 -0.0442 -0.2202
  465SOL     OW 1857   0.868   0.273   0.420 -0.3921  0.4498  0.0350
  465SOL    HW1 1858   0.805   0.241   0.488 -1.5375 -0.0753 -2.4640
  465SOL    HW2 1859   0.825   0.244   0.337 -2.2139 -1.7406 -2.1085
  465SOL     MW 1860   0.854   0.265   0.418 -0.7836  0.0915 -0.5775
  466SOL     OW 1861   1.012   2.033   0.799  0.4024  0.1996 -0.2858
  466SOL    HW1 1862   1.019   1.965   0.737  1.4626  2.1723 -0.2832
  466SOL    HW2 1863   1.030   2.108   0.738  2.6167  0.6655  1.1784
  466SOL     MW 1864   1.015   2.034   0.783  0.8344  0.5213 -0.0923
  467SOL     OW 1865   1.255   2.336   1.014 -0.2876  0.1299  0.1077
  467SOL    HW1 1866   1.348   2.353   0.994 -0.1723 -0.4012  0.6706
  467SOL    HW2 1867   1.245   2.247   0.967 -0.5346 -1.6501  0.9923
  467SOL     MW 1868   1.266   2.327   1.005 -0.3050 -0.1751  0.2987
  468SOL     OW 1869   0.493   2.659   1.918 -0.0724  0.1903 -0.2427
  468SOL    HW1 1870   0.487   2.574   1.877  0.2046 -1.3977  0.1351
  468SOL    HW2 1871   0.432   2.716   1.867 -1.5268 -1.8984  1.3687
  468SOL     MW 1872   0.484   2.655   1.906 -0.2277 -0.2948  0.0198
  469SOL     OW 1873   0.383   2.117   1.845  0.2034  0.0895  0.2661
  469SOL    HW1 1874   0.299   2.073   1.857 -0.2479 -0.9809  0.8926
  469SOL    HW2 1875   0.428   2.078   1.765  0.1374  0.5434 -0.8583
  469SOL     MW 1876   0.378   2.106   1.836  0.1352  0.0081  0.2004
  470SOL     OW 1877   3.090   2.580   0.178  0.5502 -0.1096  0.5105
  470SOL    HW1 1878   3.004   2.567   0.228  1.0757  0.9064 -1.0721
  470SOL    HW2 1879   3.066   2.595   0.086  0.1936  1.6772 -1.7151
  470SOL     MW 1880   3.075   2.580   0.173  0.5725  0.2602  0.0080
  471SOL     OW 1881   1.205   2.596   1.399  0.3690 -0.8113 -0.4092
  471SOL    HW1 1882   1.143   2.545   1.448  0.8522 -0.5323  1.9845
  471SOL    HW2 1883   1.173   2.577   1.313  0.6249 -0.0988 -0.6367
  471SOL     MW 1884   1.193   2.586   1.394  0.4665 -0.6805 -0.1234
  472SOL     OW 1885   2.786   2.091   0.362 -0.0021 -0.2268 -0.2101
  472SOL    HW1 1886   2.800   2.059   0.267  1.1491 -1.9439 -2.0287
  472SOL    HW2 1887   2.780   2.006   0.411 -1.3142 -1.1103 -0.8893
  472SOL     MW 1888   2.787   2.075   0.356 -0.0233 -0.5699 -0.5396
  473SOL     OW 1889   0.791   2.550   1.324  0.6514 -0.0515  0.2132
  473SOL    HW1 1890   0.761   2.461   1.335  0.2270 -0.3646 -0.1110
  473SOL    HW2 1891   0.826   2.575   1.408 -3.9716 -1.3670  1.5336
  473SOL     MW 1892   0.791   2.541   1.337 -0.0146 -0.2664  0.3446
  474SOL     OW 1893   0.746   2.229   1.778 -0.1152  0.9592  0.1158
  474SOL    HW1 1894   0.822   2.273   1.824  0.2692  0.8528  0.8324
  474SOL    HW2 1895   0.774   2.223   1.688  0.1530  0.6912 -2.2854
  474SOL     MW 1896   0.760   2.234   1.772 -0.0291  0.9098 -0.1065
  475SOL     OW 1897   1.617   3.051   1.438 -0.3862  0.7553 -0.4187
  475SOL    HW1 1898   1.536   3.041   1.388 -2.3133 -0.5055 -2.0198
  475SOL    HW2 1899   1.591   3.003   1.517 -0.1152  1.7586 -0.6975
  475SOL     MW 1900   1.603   3.043   1.442 -0.6047  0.7213 -0.6668
  476SOL     OW 1901   1.407   2.633   1.039  0.3775  0.0575 -0.4242
  476SOL    HW1 1902   1.335   2.684   1.077  1.4224  1.0687  0.3480
  476SOL    HW2 1903   1.442   2.690   0.966  1.1085  3.1087 -1.2035
  476SOL     MW 1904   1.402   2.647   1.034  0.6118  0.5935 -0.4251
  477SOL     OW 1905   0.774   2.511   0.666 -0.6015  0.2251 -0.6338
  477SOL    HW1 1906   0.847   2.564   0.635 -3.3225  0.0604 -1.6519
  477SOL    HW2 1907   0.761   2.429   0.611  0.2796 -3.0593  0.5403
  477SOL     MW 1908   0.782   2.507   0.655 -0.8443 -0.2300 -0.6132
  478SOL     OW 1909   0.184   2.680   0.885  0.1003 -0.3637 -0.6839
  478SOL    HW1 1910   0.237   2.757   0.854 -0.3886 -1.5008  2.2139
  478SOL    HW2 1911   0.234   2.596   0.881  1.4453  1.4407 -1.3069
  478SOL     MW 1912   0.197   2.679   0.881  0.2132 -0.2757 -0.3837
  479SOL     OW 1913   1.469   2.001   1.277 -0.1353 -0.5337 -0.1333
  479SOL    HW1 1914   1.466   2.023   1.373  1.2952  0.3219  1.1622
  479SOL    HW2 1915   1.493   1.905   1.288  1.0584 -2.8073  2.3827
  479SOL     MW 1916   1.472   1.991   1.291  0.2109 -0.7208  0.3696
  480SOL     OW 1917   1.935   2.455   1.261  0.1194 -0.1349  0.2938
  480SOL    HW1 1918   1.891   2.377   1.295  1.4356 -0.4747  0.7845
  480SOL    HW2 1919   1.939   2.444   1.170  0.3014 -1.6603  2.1127
  480SOL     MW 1920   1.930   2.443   1.254  0.3171 -0.3810  0.5986
  481SOL     OW 1921   1.050   0.001   1.096 -0.3081 -0.3651  0.2501
  481SOL    HW1 1922   1.103  -0.034   1.024  2.1601  0.4057  0.4092
  481SOL    HW2 1923   1.086   0.089   1.109  0.7583  0.3995  0.0660
  481SOL     MW 1924   1.061   0.008   1.088  0.1582 -0.1625  0.2468
  482SOL     OW 1925   1.074   3.070   0.241 -0.2421  0.9705 -0.5409
  482SOL    HW1 1926   1.025   2.999   0.287  0.5128 -2.1240  1.4132
  482SOL    HW2 1927   1.067   3.144   0.298  1.6606 -0.0349  0.2036
  482SOL     MW 1928   1.067   3.070   0.255  0.1086  0.4296 -0.1849
  483SOL     OW 1929   0.391   2.921   0.451  0.2880 -0.7716 -0.1569
  483SOL    HW1 1930   0.320   2.953   0.394 -1.2154  1.2156  2.0547
  483SOL    HW2 1931   0.381   2.975   0.530 -2.0489 -2.2424 -0.3669
  483SOL     MW 1932   0.380   2.933   0.454 -0.2187 -0.7035  0.1072
  484SOL     OW 1933   1.873   1.886   1.496  0.8284 -0.1172 -0.2380
  484SOL    HW1 1934   1.926   1.952   1.449 -1.2328 -1.0366  1.7856
  484SOL    HW2 1935   1.827   1.942   1.562 -1.1702  0.6809 -2.7156
  484SOL     MW 1936   1.874   1.902   1.499  0.2927 -0.1332 -0.2979
  485SOL     OW 1937   0.505   2.340   0.189  0.2985 -0.3690  0.3196
  485SOL    HW1 1938   0.587   2.322   0.244 -1.1980  0.9943  1.1933
  485SOL    HW2 1939   0.451   2.407   0.237 -0.5714  0.9017  1.1188
  485SOL     MW 1940   0.509   2.346   0.202 -0.0137 -0.0215  0.5403
  486SOL     OW 1941   0.175   2.360   1.497 -0.2959 -0.3491 -0.2065
  486SOL    HW1 1942   0.198   2.447   1.467 -2.2066 -1.7686 -2.0458
  486SOL    HW2 1943   0.130   2.377   1.581  0.8618  1.9577  0.6838
  486SOL     MW 1944   0.172   2.373   1.504 -0.3953 -0.2320 -0.3317
  487SOL     OW 1945   1.212   1.682   1.057  0.0031  0.1369  0.4482
  487SOL    HW1 1946   1.169   1.770   1.072  1.3587 -1.5971 -0.7754
  487SOL    HW2 1947   1.302   1.699   1.033 -0.9264  0.5057  1.9181
  487SOL     MW 1948   1.218   1.696   1.056  0.0593 -0.0432  0.4807
  488SOL     OW 1949   1.611   1.875   0.496  0.0655  0.2060  0.4321
  488SOL    HW1 1950   1.684   1.906   0.450  1.5208  1.3187 -0.2907
  488SOL    HW2 1951   1.558   1.958   0.498  0.7109  1.9438  0.1215
  488SOL     MW 1952   1.614   1.890   0.490  0.3426  0.5821  0.2958
  489SOL     OW 1953   0.751   0.781   0.560 -0.1764  0.1372 -0.4095
  489SOL    HW1 1954   0.766   0.703   0.508 -0.2434  0.8704  0.3338
  489SOL    HW2 1955   0.767   0.754   0.656  0.3537 -2.1817  1.5869
  489SOL     MW 1956   0.755   0.767   0.566 -0.1153 -0.0720 -0.0480
  490SOL     OW 1957   1.438   2.082   0.461 -0.5400  0.1742 -0.1918
  490SOL    HW1 1958   1.470   2.158   0.402 -1.1194  1.8637 -0.3228
  490SOL    HW2 1959   1.344   2.094   0.454 -2.6004 -2.7993 -0.1562
  490SOL     MW 1960   1.430   2.094   0.452 -0.8883  0.0048 -0.2044
  491SOL     OW 1961   1.310   2.972   0.364 -0.5893 -0.0589  0.4801
  491SOL    HW1 1962   1.353   3.050   0.402  0.1612 -1.7166 -0.4962
  491SOL    HW2 1963   1.223   3.001   0.344 -1.8083 -2.3373 -0.5324
  491SOL     MW 1964   1.304   2.986   0.367 -0.6511 -0.5783  0.2177
  492SOL     OW 1965   1.492   2.146   0.741  0.0754 -0.1041 -0.0327
  492SOL    HW1 1966   1.462   2.119   0.655  3.3420 -0.0871  0.8032
  492SOL    HW2 1967   1.416   2.142   0.806 -0.0410 -0.4899  0.0655
  492SOL     MW 1968   1.478   2.142   0.738  0.4910 -0.1527  0.0905
  493SOL     OW 1969   0.184   3.019   0.293  0.0822 -0.1022  0.3907
  493SOL    HW1 1970   0.155   3.066   0.375 -0.9190 -1.6141  0.9980
  493SOL    HW2 1971   0.191   3.084   0.218  0.3077 -0.1697 -0.2180
  493SOL     MW 1972   0.181   3.034   0.294 -0.0202 -0.3106  0.3905
  494SOL     OW 1973   0.380   2.421   1.769  0.2615  0.1983 -0.0931
  494SOL    HW1 1974   0.392   2.330   1.805 -2.7414  2.0299  0.7964
  494SOL    HW2 1975   0.411   2.425   1.677 -3.2059  1.0744  0.5583
  494SOL     MW 1976   0.386   2.409   1.762 -0.5922  0.5556  0.1102
  495SOL     OW 1977   2.921   1.641   2.643 -0.7956  0.0404 -0.1990
  495SOL    HW1 1978   2.912   1.730   2.600  1.4933  0.0337 -2.4179
  495SOL    HW2 1979   2.875   1.643   2.729  0.4441  0.0138 -1.0196
  495SOL     MW 1980   2.914   1.653   2.649 -0.3300  0.0360 -0.6000
  496SOL     OW 1981   2.929   2.370   2.663 -0.2615  0.7716 -0.0409
  496SOL    HW1 1982   2.987   2.315   2.713  2.1216 -1.4790  1.2445
  496SOL    HW2 1983   2.978   2.451   2.680  2.9797 -2.2696  0.5900
  496SOL     MW 1984   2.943   2.373   2.672  0.4806  0.0734  0.2119
  497SOL     OW 1985   1.600   2.249   2.653  0.9446 -0.7119 -0.2712
  497SOL    HW1 1986   1.533   2.206   2.596  2.0267 -0.8581 -1.1481
  497SOL    HW2 1987   1.605   2.176   2.716 -2.0795  0.2400 -0.0872
  497SOL     MW 1988   1.592   2.234   2.654  0.6884 -0.6056 -0.3626
  498SOL     OW 1989   1.459   2.714   2.331 -0.4299  0.0351  0.1313
  498SOL    HW1 1990   1.457   2.623   2.297 -1.3562 -3.1946 -1.0055
  498SOL    HW2 1991   1.550   2.723   2.370 -0.9883  1.2343  1.3058
  498SOL     MW 1992   1.471   2.703   2.331 -0.6258 -0.2328  0.1363
  499SOL     OW 1993   0.975   0.141   0.040  0.2012  0.1521 -0.4559
  499SOL    HW1 1994   0.896   0.182   0.089  0.8432 -0.5091 -3.0191
  499SOL    HW2 1995   0.993   0.065   0.096 -0.9277 -4.4392 -1.9575
  499SOL     MW 1996   0.967   0.137   0.054  0.1370 -0.5409 -0.9922
  500SOL     OW 1997   1.080   2.557   2.831 -0.4370  0.2523 -0.3772
  500SOL    HW1 1998   1.129   2.503   2.903  0.3158 -0.6461 -0.4246
  500SOL    HW2 1999   0.988   2.544   2.858 -1.8340 -2.5864  0.0482
  500SOL     MW 2000   1.074   2.548   2.844 -0.5220 -0.2408 -0.3274
  501SOL     OW 2001   1.797   2.181   3.071  0.5933  0.0276 -0.0638
  501SOL    HW1 2002   1.756   2.261   3.094 -1.8344  1.8861  0.9383
  501SOL    HW2 2003   1.889   2.199   3.058 -0.7938 -0.2633  4.9451
  501SOL     MW 2004   1.803   2.194   3.073  0.0900  0.2344  0.7293
  502SOL     OW 2005   0.139   2.804   3.047 -0.0714 -0.4466  0.4949
  502SOL    HW1 2006   0.078   2.733   3.021 -0.7435  1.2462 -1.5145
  502SOL    HW2 2007   0.197   2.808   2.967  0.9139  0.6504 -1.3534
  502SOL     MW 2008   0.139   2.795   3.033 -0.0301 -0.0785 -0.0141
  503SOL     OW 2009   1.130   2.778   2.137 -0.6494 -0.1102  0.2575
  503SOL    HW1 2010   1.061   2.712   2.121  1.3250  0.0105 -0.8789
  503SOL    HW2 2011   1.084   2.860   2.154  0.6269  1.0232  1.4016
  503SOL     MW 2012   1.114   2.780   2.137 -0.2205  0.0553  0.2585
  504SOL     OW 2013   0.111   2.693   2.147  0.0214  0.2544 -0.0847
  504SOL    HW1 2014   0.156   2.614   2.124 -0.7034  0.8394  2.2056
  504SOL    HW2 2015   0.038   2.691   2.084  0.3819 -0.3519  2.0773
  504SOL     MW 2016   0.108   2.682   2.135 -0.0267  0.2516  0.5027
  505SOL     OW 2017   1.680   2.719   2.754 -0.4081 -0.3736 -0.3635
  505SOL    HW1 2018   1.667   2.736   2.659  0.9769  2.7478 -2.3739
  505SOL    HW2 2019   1.617   2.772   2.806  0.5312  3.6449 -2.3820
  505SOL     MW 2020   1.670   2.728   2.748 -0.1014  0.5684 -0.8950
  506SOL     OW 2021   1.577   3.086   2.843 -0.4117  0.2386 -0.5207
  506SOL    HW1 2022   1.596   3.066   2.936  0.9638 -0.4575 -0.0804
  506SOL    HW2 2023   1.655   3.060   2.794  0.6999  1.4081  0.3815
  506SOL     MW 2024   1.590   3.080   2.849 -0.0835  0.3010 -0.3435
  507SOL     OW 2025   0.886   2.795   2.864  0.3543 -0.0003  0.2604
  507SOL    HW1 2026   0.949   2.871   2.830  3.4632  1.0721 -0.6386
  507SOL    HW2 2027   0.794   2.828   2.861  2.7282  3.8955 -3.5691
  507SOL     MW 2028   0.883   2.809   2.859  1.0777  0.6552 -0.3635
  508SOL     OW 2029   1.146   2.085   2.520 -0.2128 -0.2208 -0.3426
  508SOL    HW1 2030   1.234   2.066   2.554 -1.8499 -0.2752  0.3371
  508SOL    HW2 2031   1.129   2.168   2.574  0.7381  0.4338  0.5951
  508SOL     MW 2032   1.156   2.093   2.532 -0.3033 -0.1416 -0.1292
  509SOL     OW 2033   0.633   2.579   2.762 -1.1529 -0.3913  0.2161
  509SOL    HW1 2034   0.632   2.541   2.679  0.1087  0.2732 -0.9490
  509SOL    HW2 2035   0.542   2.603   2.781 -0.3749 -0.2101  0.8089
  509SOL     MW 2036   0.621   2.577   2.753 -0.8838 -0.2798  0.1406
  510SOL     OW 2037   1.522   2.548   1.688 -0.1937 -0.8214  0.0814
  510SOL    HW1 2038   1.509   2.638   1.659  0.6425  1.4754 -0.3511
  510SOL    HW2 2039   1.466   2.552   1.772 -0.0083  1.9788 -0.7471
  510SOL     MW 2040   1.513   2.561   1.696 -0.0589 -0.1489 -0.0849
  511SOL     OW 2041   0.463   2.642   2.426  0.3950  0.0631  0.1005
  511SOL    HW1 2042   0.528   2.573   2.421  3.3059 -3.3504  0.0779
  511SOL    HW2 2043   0.484   2.675   2.340  2.4169 -0.7304 -0.8310
  511SOL     MW 2044   0.475   2.637   2.414  1.0458 -0.4919 -0.0254
  512SOL     OW 2045   1.053   2.001   2.814  0.0314 -0.2484 -0.3037
  512SOL    HW1 2046   0.967   2.043   2.842  2.2786  3.2193  1.3395
  512SOL    HW2 2047   1.063   1.923   2.872 -0.6418 -0.7400  1.8858
  512SOL     MW 2048   1.043   1.997   2.826  0.2391  0.1443  0.2020
  513SOL     OW 2049   1.562   2.456   2.278  0.3136  0.1931 -0.0179
  513SOL    HW1 2050   1.620   2.424   2.211  1.2240  1.1883  3.4256
  513SOL    HW2 2051   1.617   2.437   2.354  0.6540 -2.1209  0.0524
  513SOL     MW 2052   1.577   2.449   2.279  0.4787  0.0191  0.4457
  514SOL     OW 2053   0.276   2.531   2.652  0.1985  0.2968  0.1050
  514SOL    HW1 2054   0.322   2.583   2.583  2.4794  2.2976  0.0421
  514SOL    HW2 2055   0.320   2.551   2.739 -2.7350  0.5340  2.1233
  514SOL     MW 2056   0.288   2.541   2.654  0.1124  0.5921  0.3630
  515SOL     OW 2057   1.134   2.127   1.813 -0.3034 -0.2975 -0.9257
  515SOL    HW1 2058   1.074   2.191   1.845  0.2070  0.3897  0.0847
  515SOL    HW2 2059   1.212   2.132   1.871 -0.6434  2.0268 -1.3438
  515SOL     MW 2060   1.137   2.136   1.825 -0.2809  0.0998 -0.8475
  516SOL     OW 2061   1.488   2.442   3.030 -0.1573  0.0707 -0.2438
  516SOL    HW1 2062   1.556   2.455   2.965 -0.3523  1.9437  1.3591
  516SOL    HW2 2063   1.416   2.446   2.968  2.2030 -0.5412 -1.3495
  516SOL     MW 2064   1.488   2.444   3.013  0.1284  0.2371 -0.1782
  517SOL     OW 2065   0.600   2.473   2.148  0.3805 -0.4354  0.1549
  517SOL    HW1 2066   0.548   2.552   2.144 -0.4452  0.5744  0.7398
  517SOL    HW2 2067   0.526   2.410   2.121  1.5803 -2.1180  2.2981
  517SOL     MW 2068   0.584   2.475   2.144  0.4299 -0.5242  0.5149
  518SOL     OW 2069   1.867   0.209   3.028  0.2759 -0.3656 -0.3274
  518SOL    HW1 2070   1.816   0.267   2.969 -0.4427  0.4916  1.2660
  518SOL    HW2 2071   1.804   0.172   3.096 -0.1916 -0.3890 -0.3300
  518SOL     MW 2072   1.852   0.212   3.029  0.1194 -0.2556 -0.1175
  519SOL     OW 2073   0.681   2.527   1.728 -0.3614  0.9720  0.1836
  519SOL    HW1 2074   0.664   2.436   1.758  1.4968  2.9329  0.7449
  519SOL    HW2 2075   0.612   2.541   1.668 -0.5966  2.4122  0.0610
  519SOL     MW 2076   0.669   2.517   1.724 -0.1473  1.4208  0.2415
  520SOL     OW 2077   1.288   2.128   2.911  0.2149  0.2867 -0.0329
  520SOL    HW1 2078   1.212   2.071   2.876 -1.4214  0.3117 -1.1545
  520SOL    HW2 2079   1.322   2.076   2.980  0.0766 -0.4709 -0.0722
  520SOL     MW 2080   1.282   2.114   2.916 -0.0192  0.1900 -0.1861
  521SOL     OW 2081   1.690   2.050   2.282 -0.6175  0.3714  0.2136
  521SOL    HW1 2082   1.721   2.081   2.192  0.2301 -0.1793 -0.4913
  521SOL    HW2 2083   1.700   1.953   2.273  1.2071 -0.1064  1.5244
  521SOL     MW 2084   1.696   2.041   2.269 -0.2649  0.2357  0.2935
  522SOL     OW 2085   2.860   2.560   2.163  0.2994  0.1880 -0.0974
  522SOL    HW1 2086   2.933   2.523   2.211  0.2017  0.3543  1.1884
  522SOL    HW2 2087   2.794   2.586   2.226 -4.7599 -0.9851  0.4784
  522SOL     MW 2088   2.861   2.559   2.177 -0.3810  0.0552  0.1482
  523SOL     OW 2089   0.865   1.516   2.157 -0.0575  0.5563 -0.2292
  523SOL    HW1 2090   0.867   1.591   2.099  0.3958  0.8266 -0.5501
  523SOL    HW2 2091   0.899   1.443   2.100  1.8940  0.6239  0.4455
  523SOL     MW 2092   0.870   1.516   2.142  0.2598  0.6009 -0.1825
  524SOL     OW 2093   0.793   2.388   2.933  0.9797  0.7569  0.3898
  524SOL    HW1 2094   0.723   2.400   2.868  2.1748 -0.9130 -0.8687
  524SOL    HW2 2095   0.813   2.291   2.933  1.4288 -0.3114  2.6571
  524SOL     MW 2096   0.786   2.377   2.924  1.1966  0.3956  0.5229
  525SOL     OW 2097   0.412   2.262   2.096 -0.3946 -0.1436  0.6867
  525SOL    HW1 2098   0.348   2.216   2.144  1.1597  1.1192  1.0283
  525SOL    HW2 2099   0.436   2.205   2.019 -0.9356  0.7274 -2.5962
  525SOL     MW 2100   0.406   2.249   2.093 -0.2609  0.1379  0.2986
  526SOL     OW 2101   0.667   2.066   2.037  0.1352 -0.6326 -0.3793
  526SOL    HW1 2102   0.687   2.120   1.964  2.5693 -1.1531  1.9352
  526SOL    HW2 2103   0.662   2.126   2.116 -1.9627 -0.6776  3.6073
  526SOL     MW 2104   0.669   2.081   2.038  0.1796 -0.7072  0.4521
  527SOL     OW 2105   1.355   1.998   2.010 -0.4048 -0.4646 -0.4750
  527SOL    HW1 2106   1.344   1.997   2.106 -0.7590  0.7998 -0.6535
  527SOL    HW2 2107   1.372   1.906   1.995 -1.2494 -1.8946 -0.7611
  527SOL     MW 2108   1.355   1.985   2.021 -0.5630 -0.4865 -0.5363
  528SOL     OW 2109   0.635   2.875   2.915 -0.1902  0.0478 -0.4335
  528SOL    HW1 2110   0.667   2.959   2.942 -0.1640  0.4193 -1.5691
  528SOL    HW2 2111   0.604   2.896   2.830 -1.6676  0.3146  2.3940
  528SOL     MW 2112   0.635   2.889   2.907 -0.3817  0.1320 -0.2103
  529SOL     OW 2113   0.978   2.348   1.876 -0.8399 -0.0051  0.1885
  529SOL    HW1 2114   1.017   2.349   1.965  1.2839  1.0702  0.5385
  529SOL    HW2 2115   1.011   2.423   1.824 -2.0421  4.9999 -1.1713
  529SOL     MW 2116   0.987   2.358   1.881 -0.7183  0.7972  0.0553
  530SOL     OW 2117   1.196   2.432   3.022 -0.2688  0.0562  0.1618
  530SOL    HW1 2118   1.148   2.472   3.099  1.6541 -1.0027  0.8020
  530SOL    HW2 2119   1.201   2.334   3.033  1.6706  0.5819  1.6377
  530SOL     MW 2120   1.191   2.424   3.033  0.2408 -0.0142  0.4410
  531SOL     OW 2121   0.959   1.869   2.564 -0.0293 -0.0832  0.1128
  531SOL    HW1 2122   1.007   1.944   2.585 -0.5703 -0.8845 -1.0246
  531SOL    HW2 2123   0.941   1.837   2.651  0.2329  0.2590 -4.8739
  531SOL     MW 2124   0.963   1.875   2.578 -0.0661 -0.1438 -0.6952
  532SOL     OW 2125   1.741   0.329   2.810  0.5209 -0.0855  0.7548
  532SOL    HW1 2126   1.755   0.271   2.735 -0.1331 -0.1626 -1.2506
  532SOL    HW2 2127   1.823   0.378   2.803  2.2175  2.9625  0.4185
  532SOL     MW 2128   1.754   0.328   2.799  0.6585  0.3065  0.4458
  533SOL     OW 2129   1.868   2.649   3.049 -0.4894  0.1941 -0.3556
  533SOL    HW1 2130   1.855   2.571   3.111  0.4509  1.4642 -0.8344
  533SOL    HW2 2131   1.806   2.637   2.980 -1.0187  1.4521  1.1526
  533SOL     MW 2132   1.858   2.637   3.048 -0.4352  0.5276 -0.2198
  534SOL     OW 2133   1.769   2.426   2.537  0.2277 -0.0460  0.2281
  534SOL    HW1 2134   1.717   2.352   2.578 -0.9014 -0.9674  1.2904
  534SOL    HW2 2135   1.854   2.426   2.585 -0.9637 -3.5876  0.3760
  534SOL     MW 2136   1.774   2.417   2.549 -0.0785 -0.6348  0.3878
  535SOL     OW 2137   1.902   2.401   1.919  0.1082  0.3722  0.5132
  535SOL    HW1 2138   1.857   2.418   1.838  1.4432 -1.1725  2.3543
  535SOL    HW2 2139   1.984   2.449   1.921 -1.2815  1.0000 -0.0986
  535SOL     MW 2140   1.907   2.410   1.908  0.1010  0.2513  0.6754
  536SOL     OW 2141   0.486   1.817   2.070  0.3199 -0.2926  0.0792
  536SOL    HW1 2142   0.417   1.782   2.009  2.1649 -1.1811 -0.9895
  536SOL    HW2 2143   0.516   1.900   2.041  2.4885 -0.9770 -0.1860
  536SOL     MW 2144   0.481   1.823   2.058  0.8495 -0.5002 -0.0968
  537SOL     OW 2145   1.094   0.181   2.830 -0.0241 -0.1038 -0.6492
  537SOL    HW1 2146   1.061   0.218   2.915  0.1329 -1.7412  2.3101
  537SOL    HW2 2147   1.064   0.244   2.761  0.7439  0.8020 -0.0895
  537SOL     MW 2148   1.086   0.195   2.832  0.0979 -0.2003 -0.1849
  538SOL     OW 2149   1.395   0.077   3.068  0.2394  0.4785  0.0301
  538SOL    HW1 2150   1.372   0.170   3.049 -1.3840  3.1367  2.3240
  538SOL    HW2 2151   1.312   0.033   3.065  1.0754  0.7129  2.0841
  538SOL     MW 2152   1.381   0.083   3.065  0.1356  0.8602  0.6037
  539SOL     OW 2153   0.752   2.804   2.587 -0.7995  0.4593  0.3132
  539SOL    HW1 2154   0.832   2.858   2.585 -0.2135 -0.1360 -0.8310
  539SOL    HW2 2155   0.782   2.726   2.628  3.3274  2.0828 -1.4429
  539SOL     MW 2156   0.766   2.801   2.592 -0.1777  0.5949 -0.0695
  540SOL     OW 2157   0.364   2.531   2.895 -0.2929 -0.0469 -0.1671
  540SOL    HW1 2158   0.347   2.567   2.983  0.4375  2.4877 -0.4507
  540SOL    HW2 2159   0.332   2.438   2.900  1.0403 -4.4576 -0.6143
  540SOL     MW 2160   0.357   2.523   2.907 -0.0206 -0.2945 -0.2635
  541SOL     OW 2161   0.175   2.959   2.228  0.0272 -0.5502  0.3244
  541SOL    HW1 2162   0.175   2.884   2.171 -2.0924  2.4017 -0.2586
  541SOL    HW2 2163   0.213   2.925   2.311 -2.4282  2.1543  0.3807
  541SOL     MW 2164   0.180   2.945   2.231 -0.5764  0.1961  0.2549
  542SOL     OW 2165   1.074   2.313   2.681 -0.0700 -0.2320 -0.1981
  542SOL    HW1 2166   1.082   2.260   2.760 -1.7520 -0.1302  0.4755
  542SOL    HW2 2167   1.088   2.401   2.712 -1.8459 -0.2925 -0.0052
  542SOL     MW 2168   1.077   2.317   2.696 -0.5262 -0.2266 -0.0838
  543SOL     OW 2169   1.671   2.439   2.856  0.5991 -0.1981 -0.2071
  543SOL    HW1 2170   1.638   2.367   2.807  0.2731  0.5243 -0.3583
  543SOL    HW2 2171   1.662   2.515   2.802  0.0186 -0.1830 -1.4316
  543SOL     MW 2172   1.665   2.440   2.843  0.4795 -0.1008 -0.3887
  544SOL     OW 2173   0.728   0.170   2.704  0.4474 -0.6775 -0.0356
  544SOL    HW1 2174   0.644   0.197   2.731  2.3825 -0.2965  0.1675
  544SOL    HW2 2175   0.736   0.144   2.613 -0.1440 -1.1897  0.5549
  544SOL     MW 2176   0.718   0.170   2.696  0.6247 -0.6948  0.0691
  545SOL     OW 2177   1.480   2.170   2.411 -0.2147 -0.0609 -0.0451
  545SOL    HW1 2178   1.453   2.240   2.350 -0.1730  0.2414  3.0477
  545SOL    HW2 2179   1.565   2.125   2.371  1.0723  0.9936 -0.5536
  545SOL     MW 2180   1.488   2.173   2.397 -0.0394  0.1181  0.2959
  546SOL     OW 2181   2.869   1.997   0.105  0.2072  0.0348  0.7894
  546SOL    HW1 2182   2.844   2.060   0.037 -1.3209  1.0039 -1.1732
  546SOL    HW2 2183   2.955   1.972   0.073 -0.8658 -0.2740  0.2338
  546SOL     MW 2184   2.877   2.002   0.092 -0.1360  0.1219  0.4572
  547SOL     OW 2185   0.154   0.109   0.095 -0.0381  0.5192  0.1146
  547SOL    HW1 2186   0.210   0.111   0.011  0.3725  0.8168 -0.1575
  547SOL    HW2 2187   0.082   0.054   0.067  0.8138  2.0462 -2.5110
  547SOL     MW 2188   0.152   0.102   0.080  0.1285  0.7599 -0.2677
  548SOL     OW 2189   0.314   2.519   0.290  0.6015 -0.0245  0.0006
  548SOL    HW1 2190   0.303   2.552   0.203 -0.4717  3.6116 -0.4917
  548SOL    HW2 2191   0.240   2.458   0.290 -3.6586 -1.5279  0.4515
  548SOL     MW 2192   0.303   2.515   0.279 -0.1022  0.2569 -0.0048
  549SOL     OW 2193   0.838   1.917   2.197  0.3696  0.6723  0.1731
  549SOL    HW1 2194   0.797   1.987   2.144  0.2699 -2.1114 -3.4382
  549SOL    HW2 2195   0.777   1.895   2.266 -0.5655  0.5836  2.2849
  549SOL     MW 2196   0.824   1.923   2.199  0.2331  0.2933 -0.0248
  550SOL     OW 2197   1.817   1.725   2.538  0.4299  0.7255  0.3303
  550SOL    HW1 2198   1.804   1.736   2.445 -2.7730  0.3364 -2.5192
  550SOL    HW2 2199   1.803   1.813   2.576  0.9882  0.4212 -0.6138
  550SOL     MW 2200   1.813   1.738   2.531  0.0810  0.6340 -0.1702
  551SOL     OW 2201   0.898   2.316   0.235 -0.5103 -0.6828  0.7315
  551SOL    HW1 2202   0.989   2.316   0.219 -1.0088 -0.8161 -1.7249
  551SOL    HW2 2203   0.870   2.242   0.183  1.3674 -2.0520  1.4653
  551SOL     MW 2204   0.907   2.306   0.226 -0.3283 -0.8811  0.5042
  552SOL     OW 2205   1.775   1.799   2.262  0.3372  0.0466  0.3011
  552SOL    HW1 2206   1.680   1.777   2.277  1.1001 -1.9338  1.7365
  552SOL    HW2 2207   1.816   1.729   2.218 -0.0727 -0.1848  0.8844
  552SOL     MW 2208   1.768   1.787   2.258  0.3838 -0.2452  0.5674
  553SOL     OW 2209   1.267   2.244   1.541 -0.0312 -0.2229 -0.0184
  553SOL    HW1 2210   1.298   2.152   1.552 -2.4466 -1.2565 -0.4388
  553SOL    HW2 2211   1.335   2.297   1.495 -2.0308 -2.7226  1.4492
  553SOL     MW 2212   1.280   2.239   1.536 -0.6137 -0.6890  0.1198
  554SOL     OW 2213   0.527   2.929   2.659  0.0295 -0.4429  0.3949
  554SOL    HW1 2214   0.520   3.011   2.604  1.3192  1.1070 -1.0545
  554SOL    HW2 2215   0.611   2.884   2.634 -0.7605  0.3304 -1.2705
  554SOL     MW 2216   0.537   2.934   2.648  0.0954 -0.1364 -0.0160
  555SOL     OW 2217   0.638   2.436   2.519 -0.5118  0.3970  0.5835
  555SOL    HW1 2218   0.600   2.349   2.534  0.6997 -1.4471  1.6709
  555SOL    HW2 2219   0.733   2.428   2.493  0.5907 -0.0352 -1.7119
  555SOL     MW 2220   0.646   2.423   2.518 -0.2065  0.0966  0.4241
  556SOL     OW 2221   1.023   1.898   0.099  0.7031  0.4119  0.3231
  556SOL    HW1 2222   1.047   1.871   0.007  1.7961  0.0672  1.8177
  556SOL    HW2 2223   1.099   1.877   0.147  0.3806  1.5467 -1.3560
  556SOL     MW 2224   1.036   1.892   0.093  0.8048  0.5161  0.2987
  557SOL     OW 2225   0.984   2.652   0.491  0.2035  0.6390  0.3401
  557SOL    HW1 2226   1.027   2.600   0.414 -1.3797  1.1825 -0.3311
  557SOL    HW2 2227   0.984   2.742   0.453 -0.4718  0.9827 -1.1313
  557SOL     MW 2228   0.990   2.657   0.476 -0.0945  0.7561  0.0574
  558SOL     OW 2229   0.208   2.291   2.973  0.3066 -0.2805 -0.4008
  558SOL    HW1 2230   0.129   2.288   2.923  0.1374  1.1850 -0.0836
  558SOL    HW2 2231   0.169   2.301   3.065 -1.5077  1.7306  2.8185
  558SOL     MW 2232   0.192   2.292   2.979  0.0449  0.1782  0.0658
  559SOL     OW 2233   1.040   2.314   2.162 -0.5937 -0.3541  0.4943
  559SOL    HW1 2234   1.133   2.317   2.186  0.2212 -1.2326 -1.5355
  559SOL    HW2 2235   0.993   2.254   2.222 -0.1305  2.8137  1.5637
  559SOL     MW 2236   1.046   2.307   2.173 -0.4251 -0.0520  0.3676
  560SOL     OW 2237   1.931   2.872   0.085  0.1379 -0.3718  0.4953
  560SOL    HW1 2238   2.016   2.897   0.048 -1.2050 -0.1111 -0.5497
  560SOL    HW2 2239   1.907   2.791   0.034  1.0772 -2.5213 -0.0065
  560SOL     MW 2240   1.939   2.865   0.073  0.0847 -0.6210  0.2912
  561SOL     OW 2241   0.346   2.147   0.097  0.2962  0.3622  0.0702
  561SOL    HW1 2242   0.328   2.151   0.004  0.3815 -1.4940  0.8299
  561SOL    HW2 2243   0.407   2.221   0.128  0.8478 -0.8196  2.0624
  561SOL     MW 2244   0.352   2.157   0.089  0.3803 -0.0386  0.4333
  562SOL     OW 2245   0.706   2.216   2.277 -0.1634  0.0117 -0.2810
  562SOL    HW1 2246   0.709   2.313   2.255 -0.5431  2.1872 -0.2183
  562SOL    HW2 2247   0.790   2.209   2.324 -0.1522 -2.1516 -2.5850
  562SOL     MW 2248   0.717   2.228   2.281 -0.2120  0.0133 -0.5768
  563SOL     OW 2249   1.234   0.432   0.543 -0.3210  0.1773 -0.7437
  563SOL    HW1 2250   1.217   0.379   0.465  2.2159 -0.2764 -1.5274
  563SOL    HW2 2251   1.185   0.388   0.613  0.5315 -2.2743  1.8785
  563SOL     MW 2252   1.225   0.419   0.542  0.1262 -0.2061 -0.5012
  564SOL     OW 2253   1.123   2.634   2.393 -0.8932  0.0412  0.0773
  564SOL    HW1 2254   1.168   2.680   2.332  1.5042 -0.6093  2.8311
  564SOL    HW2 2255   1.140   2.687   2.474 -0.2268 -1.4308 -0.8600
  564SOL     MW 2256   1.131   2.647   2.396 -0.4890 -0.2388  0.3169
  565SOL     OW 2257   2.741   2.761   2.593  0.3251  0.6744 -0.5594
  565SOL    HW1 2258   2.761   2.846   2.558 -0.6213  0.3197 -1.7660
  565SOL    HW2 2259   2.716   2.713   2.516 -1.7386 -0.3382 -1.9349
  565SOL     MW 2260   2.740   2.766   2.578 -0.0721  0.4940 -0.9001
  566SOL     OW 2261   2.150   1.886   2.408  0.5285  0.4184 -0.5735
  566SOL    HW1 2262   2.176   1.857   2.322  2.0345  2.6869 -1.3530
  566SOL    HW2 2263   2.184   1.977   2.418  3.6849  1.2195 -0.1741
  566SOL     MW 2264   2.158   1.895   2.398  1.1436  0.8234 -0.6236
  567SOL     OW 2265   1.173   3.015   3.065  0.7950 -0.2721  0.7016
  567SOL    HW1 2266   1.175   3.021   3.165  1.9870 -1.3564  0.3319
  567SOL    HW2 2267   1.224   2.935   3.037 -1.3241  0.5393  1.4189
  567SOL     MW 2268   1.180   3.005   3.075  0.6727 -0.3081  0.7475
  568SOL     OW 2269   1.602   2.058   2.831  0.0767  0.5127 -1.2508
  568SOL    HW1 2270   1.651   2.086   2.908  0.5069  1.5566  1.5204
  568SOL    HW2 2271   1.671   2.018   2.772  1.1581 -3.5863 -1.6318
  568SOL     MW 2272   1.617   2.056   2.833  0.2762  0.1096 -0.9354
  569SOL     OW 2273   0.146   2.299   2.475 -0.7938  0.2696 -0.5656
  569SOL    HW1 2274   0.096   2.359   2.417  0.3745  1.3840 -1.2034
  569SOL    HW2 2275   0.179   2.353   2.546  1.4912 -1.0545 -0.4568
  569SOL     MW 2276   0.144   2.314   2.477 -0.3382  0.2420 -0.6354
  570SOL     OW 2277   1.494   0.337   0.503 -0.2910 -0.5627 -0.1726
  570SOL    HW1 2278   1.407   0.367   0.532 -1.6151  0.9370  2.0376
  570SOL    HW2 2279   1.554   0.342   0.578  0.5937  0.5083  0.1044
  570SOL     MW 2280   1.490   0.341   0.517 -0.3490 -0.2236  0.1555
  571SOL     OW 2281   1.330   2.356   2.123 -0.1890 -0.2583  0.5607
  571SOL    HW1 2282   1.410   2.385   2.168 -0.9384 -2.3198  0.6825
  571SOL    HW2 2283   1.370   2.295   2.058  2.6381  0.7106  0.8476
  571SOL     MW 2284   1.346   2.351   2.120  0.0851 -0.4024  0.6146
  572SOL     OW 2285   0.966   2.561   0.077 -0.6050  0.0838 -0.4492
  572SOL    HW1 2286   0.939   2.649   0.049  2.7477 -1.4858  0.2008
  572SOL    HW2 2287   0.889   2.510   0.091  0.3752  0.9333 -1.4853
  572SOL     MW 2288   0.952   2.566   0.075 -0.0333 -0.0112 -0.5001
  573SOL     OW 2289   1.190   2.286   0.207 -0.3070 -0.8745  0.5143
  573SOL    HW1 2290   1.284   2.285   0.180 -0.3619 -0.6454  0.0673
  573SOL    HW2 2291   1.157   2.376   0.235  2.9480 -0.0932  0.1306
  573SOL     MW 2292   1.198   2.298   0.207  0.1152 -0.7412  0.4047
  574SOL     OW 2293   1.129   2.540   0.302  0.0568 -0.1800 -0.1691
  574SOL    HW1 2294   1.207   2.608   0.308  1.2497  0.7064 -2.0438
  574SOL    HW2 2295   1.076   2.566   0.222 -2.6702 -1.0949 -1.4295
  574SOL     MW 2296   1.132   2.552   0.292 -0.1456 -0.1838 -0.5827
  575SOL     OW 2297   3.031   2.229   1.738  0.0750  0.2242 -0.7155
  575SOL    HW1 2298   3.081   2.153   1.705  2.2577 -0.7139  2.2023
  575SOL    HW2 2299   3.103   2.273   1.776 -0.8834 -1.1971  1.0824
  575SOL     MW 2300   3.047   2.225   1.738  0.2365 -0.0871 -0.0933
  576SOL     OW 2301   2.855   1.842   2.022  0.0375  0.5967 -0.1230
  576SOL    HW1 2302   2.867   1.911   1.955  0.5094  0.2052  1.9889
  576SOL    HW2 2303   2.770   1.806   2.013  2.1760  1.0969  1.0178
  576SOL     MW 2304   2.845   1.846   2.012  0.3819  0.6111  0.3062
  577SOL     OW 2305   2.074   0.228   0.100 -0.5946  0.3795 -0.0834
  577SOL    HW1 2306   1.998   0.234   0.046  1.2368  0.9884 -0.9777
  577SOL    HW2 2307   2.036   0.193   0.178  0.5819  1.1343 -2.1431
  577SOL     MW 2308   2.059   0.224   0.104 -0.1978  0.5594 -0.4732
  578SOL     OW 2309   1.919   2.049   2.453  0.1125  0.2204  1.0203
  578SOL    HW1 2310   1.836   2.046   2.394  0.8137  1.0823  2.8520
  578SOL    HW2 2311   1.969   1.973   2.422  0.9773 -0.1504  0.9288
  578SOL     MW 2312   1.914   2.039   2.441  0.3191  0.2852  1.2499
  579SOL     OW 2313   0.897   2.417   2.481  0.0826 -0.3866  0.6206
  579SOL    HW1 2314   0.963   2.368   2.535 -2.0822  0.1801 -0.9870
  579SOL    HW2 2315   0.942   2.496   2.437  2.5486  2.1711 -2.4290
  579SOL     MW 2316   0.912   2.421   2.482  0.1223  0.0256  0.0061
  580SOL     OW 2317   0.939   2.845   0.025 -0.2249 -0.0186 -0.1270
  580SOL    HW1 2318   1.013   2.903   0.003  1.4844 -0.6310 -1.1917
  580SOL    HW2 2319   0.912   2.819  -0.063 -0.3711 -0.9886 -2.1071
  580SOL     MW 2320   0.945   2.849   0.011 -0.0186 -0.2274 -0.5288
  581SOL     OW 2321   1.153   2.498   1.688  0.4577 -0.4939  0.4962
  581SOL    HW1 2322   1.211   2.550   1.745  2.9944  1.4682  2.1392
  581SOL    HW2 2323   1.199   2.413   1.671 -2.6882  0.3197 -0.7824
  581SOL     MW 2324   1.167   2.494   1.693  0.3774 -0.1277  0.5443
  582SOL     OW 2325   0.055   2.821   2.758  0.1217  0.7873  0.1203
  582SOL    HW1 2326   0.008   2.897   2.717  0.3466  0.0649  0.3100
  582SOL    HW2 2327   0.140   2.860   2.776  0.5490  2.4222 -0.6266
  582SOL     MW 2328   0.060   2.836   2.755  0.2078  0.9077  0.0467
  583SOL     OW 2329   2.011   2.437   2.683  0.0943 -0.2010 -0.2038
  583SOL    HW1 2330   2.071   2.443   2.606 -1.2024  2.2344  0.9431
  583SOL    HW2 2331   2.013   2.346   2.695  0.2778  0.8454 -2.6083
  583SOL     MW 2332   2.019   2.426   2.674 -0.0526  0.2584 -0.3698
  584SOL     OW 2333   0.062   1.901   2.219  0.0245 -0.2121 -0.7976
  584SOL    HW1 2334   0.115   1.878   2.301  0.7368  1.1309  1.7937
  584SOL    HW2 2335   0.081   1.995   2.213  2.1431  1.3567  0.9245
  584SOL     MW 2336   0.071   1.910   2.229  0.3980  0.1721 -0.2285
  585SOL     OW 2337   1.576   2.626   0.153  0.1751  0.5002 -0.6261
  585SOL    HW1 2338   1.534   2.593   0.074 -1.0959  0.4835 -2.8656
  585SOL    HW2 2339   1.519   2.629   0.229  0.4589 -0.8958  0.5282
  585SOL     MW 2340   1.563   2.622   0.153  0.0448  0.3138 -0.7693
  586SOL     OW 2341   1.393   2.813   2.583 -0.0449 -0.2675  0.0658
  586SOL    HW1 2342   1.413   2.783   2.491 -0.7652 -2.3491 -0.6426
  586SOL    HW2 2343   1.387   2.906   2.577  2.6373 -4.7019 -2.3971
  586SOL     MW 2344   1.395   2.821   2.570  0.2139 -1.1272 -0.3526
  587SOL     OW 2345   1.378   1.480   2.146  0.3961 -0.3495 -0.1699
  587SOL    HW1 2346   1.304   1.433   2.187 -0.9726 -0.3681  1.0263
  587SOL    HW2 2347   1.423   1.423   2.081  1.5161 -0.2069  1.1758
  587SOL     MW 2348   1.375   1.466   2.142  0.3633 -0.3331  0.1655
  588SOL     OW 2349   1.378   2.027   2.652  0.2522  0.1675 -0.8708
  588SOL    HW1 2350   1.348   1.937   2.652  1.3242 -2.0672  0.8858
  588SOL    HW2 2351   1.392   2.053   2.744  0.2834 -1.6868  0.5041
  588SOL     MW 2352   1.376   2.019   2.664  0.3978 -0.3720 -0.4576
  589SOL     OW 2353   1.424   2.001   0.034 -0.0804  0.0495  0.4436
  589SOL    HW1 2354   1.452   2.090   0.059  0.1537  0.4830  1.4320
  589SOL    HW2 2355   1.370   1.967   0.107  1.1071 -0.1531 -1.1519
  589SOL     MW 2356   1.421   2.008   0.047  0.1071  0.0800  0.3635
  590SOL     OW 2357   0.487   2.754   2.172  0.0351 -0.5436 -0.5652
  590SOL    HW1 2358   0.501   2.739   2.075 -0.6688  0.8567 -0.3344
  590SOL    HW2 2359   0.573   2.754   2.219  0.5723  1.2906  0.4497
  590SOL     MW 2360   0.500   2.752   2.165  0.0131 -0.1168 -0.4009
  591SOL     OW 2361   2.276   0.697   0.047  0.9262  0.2399  0.4937
  591SOL    HW1 2362   2.218   0.755   0.006  0.6185  1.1098 -0.7021
  591SOL    HW2 2363   2.351   0.690  -0.020  1.1634  2.0312 -0.7573
  591SOL     MW 2364   2.278   0.703   0.033  0.9169  0.5910  0.1709
  592SOL     OW 2365   1.741   2.919   0.771  0.4898 -0.4949  0.4269
  592SOL    HW1 2366   1.726   2.998   0.714 -1.9455  1.8581 -0.0627
  592SOL    HW2 2367   1.831   2.893   0.763 -0.3575  0.3228 -0.1286
  592SOL     MW 2368   1.751   2.926   0.762  0.0567 -0.0765  0.2890
  593SOL     OW 2369   1.955   0.682   0.819 -0.2452 -0.3132 -0.2532
  593SOL    HW1 2370   1.906   0.652   0.740  2.0331 -1.9425 -1.8255
  593SOL    HW2 2371   2.025   0.616   0.823 -1.0691 -1.1791  2.0847
  593SOL     MW 2372   1.958   0.670   0.809 -0.0533 -0.6424 -0.1522
  594SOL     OW 2373   2.774   1.071   1.398 -0.2509 -0.3377 -0.4066
  594SOL    HW1 2374   2.858   1.095   1.374 -0.5068 -1.0247  0.3498
  594SOL    HW2 2375   2.748   1.018   1.326  2.3803 -0.5564  1.8532
  594SOL     MW 2376   2.781   1.067   1.385  0.0625 -0.4572 -0.0087
  595SOL     OW 2377   0.466   0.914   0.828 -0.0140 -0.2295  0.3269
  595SOL    HW1 2378   0.466   0.958   0.740 -0.1312 -2.3226 -0.4369
  595SOL    HW2 2379   0.470   0.993   0.878  3.1407 -1.9063 -0.2953
  595SOL     MW 2380   0.467   0.930   0.823  0.3868 -0.7269  0.1440
  596SOL     OW 2381   2.469   1.339   0.519 -0.2033  0.3474  0.2652
  596SOL    HW1 2382   2.510   1.421   0.505  1.5311  1.3078 -1.0909
  596SOL    HW2 2383   2.495   1.317   0.605  2.2720 -1.9424  0.6082
  596SOL     MW 2384   2.478   1.347   0.529  0.3522  0.1720  0.1315
  597SOL     OW 2385   2.196   0.671   1.621  0.5800  0.4420 -0.1697
  597SOL    HW1 2386   2.212   0.600   1.684  1.5581 -2.7969 -0.8121
  597SOL    HW2 2387   2.138   0.624   1.553 -1.1274 -1.2669 -1.7641
  597SOL     MW 2388   2.190   0.656   1.621  0.4838 -0.2108 -0.4648
  598SOL     OW 2389   2.579   1.052   2.871  0.3036 -0.4915  0.2297
  598SOL    HW1 2390   2.606   1.059   2.778 -0.4413  1.3231 -0.6399
  598SOL    HW2 2391   2.666   1.051   2.909  1.3612 -0.1499 -2.9187
  598SOL     MW 2392   2.594   1.053   2.864  0.3448 -0.2070 -0.3004
  599SOL     OW 2393   2.967   0.434   2.148 -0.5636 -0.0847 -0.1871
  599SOL    HW1 2394   3.024   0.440   2.221 -2.2127  0.9896 -3.2836
  599SOL    HW2 2395   2.968   0.519   2.105 -0.4316 -0.2768  0.5541
  599SOL     MW 2396   2.975   0.446   2.152 -0.7637  0.0317 -0.4978
  600SOL     OW 2397   1.859   1.620   0.901  0.2307 -0.0630  0.4838
  600SOL    HW1 2398   1.921   1.665   0.958 -0.0230  0.0041  0.0288
  600SOL    HW2 2399   1.792   1.683   0.877 -1.5034  0.0857 -1.3254
  600SOL     MW 2400   1.859   1.634   0.905 -0.0315 -0.0345  0.1851
  601SOL     OW 2401   2.556   0.724   0.811  0.2036  0.0655 -0.0789
  601SOL    HW1 2402   2.542   0.725   0.908 -0.9056  0.2203  0.9676
  601SOL    HW2 2403   2.478   0.674   0.781 -3.3926 -1.0277 -0.6902
  601SOL     MW 2404   2.544   0.718   0.820 -0.4172 -0.0583 -0.0215
  602SOL     OW 2405   2.309   1.922   0.776 -0.0885  0.0140  0.3486
  602SOL    HW1 2406   2.281   1.830   0.756  0.0259 -1.1447  0.5943
  602SOL    HW2 2407   2.241   1.976   0.744  0.9047 -0.7484 -0.4978
  602SOL     MW 2408   2.296   1.917   0.769  0.0576 -0.2395  0.2694
  603SOL     OW 2409   2.969   1.350   1.984 -0.1683 -0.3466 -0.1535
  603SOL    HW1 2410   2.989   1.397   2.067 -4.3902 -1.3225  1.5121
  603SOL    HW2 2411   2.982   1.255   1.989  1.4065 -3.0055  1.1949
  603SOL     MW 2412   2.973   1.343   1.995 -0.5176 -0.8262  0.2442
  604SOL     OW 2413   2.034   1.462   0.439  0.2211 -0.0238 -0.1763
  604SOL    HW1 2414   2.072   1.381   0.487  0.6382  0.2268 -0.2987
  604SOL    HW2 2415   1.987   1.516   0.506 -0.4444  0.7684  2.9721
  604SOL     MW 2416   2.033   1.458   0.454  0.1883  0.1138  0.2230
  605SOL     OW 2417   2.494   1.489   0.885 -0.3026 -0.1143 -0.5798
  605SOL    HW1 2418   2.436   1.553   0.840  1.4222 -0.0014  1.5708
  605SOL    HW2 2419   2.492   1.402   0.836 -2.1023 -0.6827 -1.1950
  605SOL     MW 2420   2.486   1.486   0.872 -0.3125 -0.1744 -0.3772
  606SOL     OW 2421   2.583   1.819   1.941  0.6741 -0.0219 -0.7317
  606SOL    HW1 2422   2.490   1.794   1.942  0.3882 -1.5932 -0.6440
  606SOL    HW2 2423   2.618   1.742   1.893 -0.2086  1.9290  0.1326
  606SOL     MW 2424   2.575   1.806   1.934  0.5199  0.0282 -0.6061
  607SOL     OW 2425   2.389   0.993   3.039  0.2801 -0.0154  0.3104
  607SOL    HW1 2426   2.466   1.011   2.991 -0.0303  1.0417  1.4295
  607SOL    HW2 2427   2.415   0.993   3.132 -0.9678  3.0878  1.0641
  607SOL     MW 2428   2.403   0.996   3.045  0.0745  0.5335  0.5575
  608SOL     OW 2429   1.855   0.257   0.532  0.0868  0.0130  0.1544
  608SOL    HW1 2430   1.811   0.298   0.459  1.3469  0.2804 -2.4270
  608SOL    HW2 2431   1.833   0.166   0.544  3.5003 -1.9940  0.0426
  608SOL     MW 2432   1.847   0.250   0.524  0.7034 -0.2165 -0.2010
  609SOL     OW 2433   2.140   1.934   3.043  0.0747 -0.2880 -0.1938
  609SOL    HW1 2434   2.078   1.878   2.992  2.0554 -1.2695  2.2102
  609SOL    HW2 2435   2.124   1.916   3.142 -0.0045 -0.9254  1.9719
  609SOL     MW 2436   2.130   1.924   3.050  0.3256 -0.5016  0.4091
  610SOL     OW 2437   1.786   0.935   1.209 -0.3980 -0.7773 -0.4058
  610SOL    HW1 2438   1.783   0.850   1.161 -0.9556  0.6254 -0.3901
  610SOL    HW2 2439   1.689   0.958   1.221  1.6272  1.9117 -0.6817
  610SOL     MW 2440   1.773   0.927   1.204 -0.2044 -0.2375 -0.4402
  611SOL     OW 2441   2.451   1.664   0.686  0.0111  0.1914 -0.4029
  611SOL    HW1 2442   2.511   1.676   0.616 -1.0321 -0.5954  1.8057
  611SOL    HW2 2443   2.357   1.664   0.651  1.1621 -5.0406 -3.3845
  611SOL     MW 2444   2.447   1.665   0.672  0.0254 -0.6027 -0.5049
  612SOL     OW 2445   2.889   2.950   0.342  0.7833  0.1697 -0.4849
  612SOL    HW1 2446   2.933   2.977   0.425  0.2660 -0.5180 -1.0520
  612SOL    HW2 2447   2.955   2.887   0.323 -0.5417  0.2307  1.8974
  612SOL     MW 2448   2.903   2.945   0.351  0.5402  0.0870 -0.2454
  613SOL     OW 2449   1.512   1.058   0.960  0.4230  0.6086  0.1025
  613SOL    HW1 2450   1.520   1.152   0.985  1.0786  1.3595 -1.8756
  613SOL    HW2 2451   1.549   1.019   1.039 -0.6044  0.2287  4.1658
  613SOL     MW 2452   1.518   1.065   0.974  0.3740  0.6575  0.3776
  614SOL     OW 2453   2.015   0.497   1.423  0.1714 -0.6188  0.2497
  614SOL    HW1 2454   2.020   0.429   1.488  1.2684  2.0414 -2.1220
  614SOL    HW2 2455   1.930   0.487   1.377  0.2116 -1.2449 -0.0858
  614SOL     MW 2456   2.005   0.487   1.425  0.3215 -0.3504 -0.1075
  615SOL     OW 2457   2.399   0.713   0.297 -0.1292 -0.0497  0.1350
  615SOL    HW1 2458   2.475   0.647   0.322  0.0447 -3.0906  1.0599
  615SOL    HW2 2459   2.357   0.695   0.209  1.1692  3.2014 -1.5442
  615SOL     MW 2460   2.404   0.702   0.289  0.0651 -0.0220  0.0355
  616SOL     OW 2461   2.493   0.445   1.615  0.0725 -0.5012  0.0180
  616SOL    HW1 2462   2.557   0.395   1.562 -2.6569  0.6210 -1.5873
  616SOL    HW2 2463   2.472   0.517   1.557  1.3649  0.5429 -1.0928
  616SOL     MW 2464   2.498   0.448   1.600 -0.1171 -0.2154 -0.3404
  617SOL     OW 2465   2.864   0.622   1.779  0.2443 -0.1573  1.1554
  617SOL    HW1 2466   2.768   0.630   1.799  0.1094 -0.7757 -1.0008
  617SOL    HW2 2467   2.875   0.528   1.788 -1.3225 -1.5822  1.9598
  617SOL     MW 2468   2.853   0.611   1.783  0.0198 -0.4269  0.9771
  618SOL     OW 2469   2.735   0.335   2.020  0.2676 -0.5465  0.0301
  618SOL    HW1 2470   2.686   0.420   1.992  0.1258 -0.1440 -0.4643
  618SOL    HW2 2471   2.813   0.360   2.078  2.1691  1.9280  0.3298
  618SOL     MW 2472   2.739   0.349   2.024  0.4998 -0.1669  0.0044
  619SOL     OW 2473   2.636   0.717   0.094  0.3119  0.3873  0.7907
  619SOL    HW1 2474   2.705   0.791   0.111  2.6767  0.4253  1.0799
  619SOL    HW2 2475   2.643   0.659   0.169 -0.7371  0.7541  0.0229
  619SOL     MW 2476   2.646   0.719   0.106  0.4855  0.4407  0.7275
  620SOL     OW 2477   2.247   1.084   0.929 -0.2982  0.0304  0.2348
  620SOL    HW1 2478   2.309   1.030   0.877  2.0441  1.6218  2.0150
  620SOL    HW2 2479   2.159   1.053   0.898 -1.4101 -1.1501  1.3353
  620SOL     MW 2480   2.244   1.073   0.918 -0.1358  0.0846  0.6149
  621SOL     OW 2481   1.489   2.217   1.934  0.0727 -0.3605 -0.4046
  621SOL    HW1 2482   1.458   2.127   1.946 -1.9750  3.3885 -1.5340
  621SOL    HW2 2483   1.575   2.227   1.982 -1.3357 -0.5993  1.9572
  621SOL     MW 2484   1.496   2.206   1.942 -0.3833  0.1026 -0.2420
  622SOL     OW 2485   2.643   0.259   0.294  0.5258  0.1077  0.0811
  622SOL    HW1 2486   2.731   0.296   0.265  0.5617 -0.8432  0.0038
  622SOL    HW2 2487   2.662   0.169   0.311  1.2957  1.1247 -2.1057
  622SOL     MW 2488   2.657   0.252   0.293  0.6321  0.1164 -0.2176
  623SOL     OW 2489   2.413   2.753   0.889 -0.4448  0.6818  0.4791
  623SOL    HW1 2490   2.477   2.823   0.889 -3.4739 -1.1512 -1.5029
  623SOL    HW2 2491   2.335   2.781   0.943 -3.4517  2.7943 -0.4932
  623SOL     MW 2492   2.411   2.766   0.896 -1.2412  0.7187  0.0893
  624SOL     OW 2493   2.164   1.601   3.042  0.5702 -0.1277 -0.2091
  624SOL    HW1 2494   2.096   1.535   3.047  0.9905  2.8025 -1.1194
  624SOL    HW2 2495   2.122   1.676   3.012  0.4317 -3.0669  2.7114
  624SOL     MW 2496   2.149   1.602   3.039  0.6074 -0.1289  0.0561
  625SOL     OW 2497   2.255   1.897   1.058  0.2235 -0.0186 -0.5646
  625SOL    HW1 2498   2.326   1.846   1.102  0.9361  0.9650 -2.9326
  625SOL    HW2 2499   2.268   1.872   0.968 -0.7031 -0.8017 -1.1103
  625SOL     MW 2500   2.266   1.887   1.052  0.1952  0.0079 -0.9490
  626SOL     OW 2501   0.167   1.803   2.447 -0.6175 -0.3932 -0.1844
  626SOL    HW1 2502   0.143   1.719   2.487 -3.9111 -0.4937  0.1592
  626SOL    HW2 2503   0.130   1.871   2.508 -1.4677 -0.8254  1.7253
  626SOL     MW 2504   0.159   1.801   2.461 -1.1643 -0.4635  0.1129
  627SOL     OW 2505   2.519   0.814   2.557 -0.9900  0.1947  0.0831
  627SOL    HW1 2506   2.436   0.850   2.587 -0.4468  1.7553  1.3988
  627SOL    HW2 2507   2.499   0.765   2.469 -1.0021  0.2751  0.8661
  627SOL     MW 2508   2.506   0.812   2.549 -0.9199  0.4112  0.3600
  628SOL     OW 2509   2.235   1.363   1.332  0.5022 -0.0442 -0.4145
  628SOL    HW1 2510   2.188   1.290   1.292 -1.4556  1.4721 -3.0174
  628SOL    HW2 2511   2.321   1.363   1.292  2.2054 -0.3489 -1.5450
  628SOL     MW 2512   2.240   1.353   1.322  0.4686  0.1157 -0.9071
  629SOL     OW 2513   1.767   0.498   1.297 -0.1271  0.4967 -0.2813
  629SOL    HW1 2514   1.799   0.567   1.229 -2.9704  3.0884 -1.7316
  629SOL    HW2 2515   1.689   0.460   1.261  0.4230  1.6137  0.3977
  629SOL     MW 2516   1.761   0.502   1.284 -0.4297  0.9860 -0.3831
  630SOL     OW 2517   2.403   1.874   2.992 -0.6979  0.1363  0.0927
  630SOL    HW1 2518   2.425   1.969   2.967  0.0701  2.8431 -0.7808
  630SOL    HW2 2519   2.309   1.864   2.999 -0.0042 -0.5906 -0.0127
  630SOL     MW 2520   2.394   1.885   2.989 -0.5050  0.3975 -0.0364
  631SOL     OW 2521   2.072   1.694   1.532  0.2258  0.6812 -0.1147
  631SOL    HW1 2522   2.043   1.629   1.599 -0.1062  2.8981  2.2991
  631SOL    HW2 2523   2.008   1.764   1.534  3.9477  0.9984 -2.2476
  631SOL     MW 2524   2.060   1.695   1.541  0.6731  1.0155 -0.0777
  632SOL     OW 2525   0.270   1.945   1.500  0.0891 -0.3598  0.0575
  632SOL    HW1 2526   0.188   1.971   1.551  1.8967 -0.0743  0.3876
  632SOL    HW2 2527   0.244   1.855   1.482 -0.6964  1.3378 -1.0655
  632SOL     MW 2528   0.256   1.936   1.504  0.2240 -0.0982 -0.0471
  633SOL     OW 2529   2.634   0.542   0.289  0.2330 -0.0971  0.4908
  633SOL    HW1 2530   2.683   0.525   0.371  0.1537 -4.1951 -0.5930
  633SOL    HW2 2531   2.623   0.451   0.254  1.1967  1.8527  0.4564
  633SOL     MW 2532   2.639   0.528   0.295  0.3497 -0.3805  0.3432
  634SOL     OW 2533   2.673   3.039   0.619 -0.1967 -0.3877  0.1625
  634SOL    HW1 2534   2.700   3.134   0.627  0.0583 -1.7021  1.0434
  634SOL    HW2 2535   2.647   3.029   0.525 -3.3649 -0.8783  1.0556
  634SOL     MW 2536   2.673   3.051   0.607 -0.5810 -0.6258  0.3965
  635SOL     OW 2537   2.627   0.119   1.879  0.2740 -0.3940  0.8494
  635SOL    HW1 2538   2.685   0.053   1.836 -0.5361 -1.4960 -1.3155
  635SOL    HW2 2539   2.668   0.186   1.945  0.2670 -0.7172  1.2885
  635SOL     MW 2540   2.640   0.120   1.882  0.1662 -0.5820  0.6217
  636SOL     OW 2541   2.750   1.591   0.880 -0.6430  0.0047  0.1282
  636SOL    HW1 2542   2.654   1.586   0.875 -2.6503 -0.6129  2.8749
  636SOL    HW2 2543   2.776   1.677   0.914  1.8546 -2.4099  0.8795
  636SOL     MW 2544   2.741   1.601   0.884 -0.5783 -0.3953  0.5897
  637SOL     OW 2545   2.879   1.537   0.639  0.2349 -0.4055  0.0922
  637SOL    HW1 2546   2.963   1.588   0.634  0.3756  0.5259 -2.3369
  637SOL    HW2 2547   2.845   1.548   0.728 -0.8138  2.2033 -1.0114
  637SOL     MW 2548   2.886   1.545   0.650  0.1151  0.0616 -0.3739
  638SOL     OW 2549   2.743   0.504   0.538  0.2377 -0.2713  0.6898
  638SOL    HW1 2550   2.829   0.520   0.498 -0.9682  2.1010  0.6378
  638SOL    HW2 2551   2.749   0.534   0.627  3.3360 -0.6312 -1.3936
  638SOL     MW 2552   2.756   0.510   0.544  0.4874 -0.0057  0.4080
  639SOL     OW 2553   1.757   3.092   0.523  0.2916 -0.0610  0.0500
  639SOL    HW1 2554   1.661   3.102   0.498  1.4142  2.3102  1.3873
  639SOL    HW2 2555   1.773   2.999   0.495 -1.9849 -0.5603  0.6123
  639SOL     MW 2556   1.746   3.081   0.516  0.1393  0.1860  0.3006
  640SOL     OW 2557   0.356   1.341   0.088  0.0193 -0.5322  0.2135
  640SOL    HW1 2558   0.382   1.343  -0.006 -1.5088  1.1745  1.3142
  640SOL    HW2 2559   0.348   1.244   0.110 -1.6277  0.3654  2.7982
  640SOL     MW 2560   0.358   1.329   0.079 -0.3996 -0.1886  0.6998
  641SOL     OW 2561   2.190   0.412   0.359 -1.2042  0.3098  0.6025
  641SOL    HW1 2562   2.254   0.435   0.293 -1.6450  1.5696 -0.0680
  641SOL    HW2 2563   2.212   0.317   0.367 -0.4416 -1.8517  1.1765
  641SOL     MW 2564   2.201   0.403   0.351 -1.1617  0.1908  0.5898
  642SOL     OW 2565   0.086   0.029   0.507 -0.1775  0.6931  0.2874
  642SOL    HW1 2566   0.040   0.105   0.510  1.8573 -1.8144  2.9578
  642SOL    HW2 2567   0.016  -0.022   0.554 -1.7738  0.0639  0.7649
  642SOL     MW 2568   0.070   0.032   0.514 -0.1197  0.2793  0.7027
  643SOL     OW 2569   2.061   0.324   1.694  0.2496 -0.3421 -0.3760
  643SOL    HW1 2570   1.991   0.293   1.749  0.3730  1.4413 -1.0887
  643SOL    HW2 2571   2.089   0.244   1.655 -3.3029  1.4751 -1.2586
  643SOL     MW 2572   2.056   0.309   1.696 -0.2028  0.1330 -0.5865
  644SOL     OW 2573   2.677   1.876   0.988  0.1053  0.4272  0.2225
  644SOL    HW1 2574   2.669   1.844   1.073 -0.3920  2.1323  0.7050
  644SOL    HW2 2575   2.608   1.944   0.976  0.2174 -1.3263 -2.5647
  644SOL     MW 2576   2.667   1.881   0.998  0.0545  0.4208 -0.0816
  645SOL     OW 2577   2.834   0.825   0.723 -0.2158  0.3385 -0.6622
  645SOL    HW1 2578   2.920   0.796   0.735  0.7263  1.2675 -0.2064
  645SOL    HW2 2579   2.786   0.771   0.781  1.2774 -1.2726  1.4343
  645SOL     MW 2580   2.839   0.814   0.733  0.1055  0.2485 -0.3254
  646SOL     OW 2581   0.090   2.302   0.843  0.2861 -0.4806  0.4214
  646SOL    HW1 2582   0.146   2.227   0.835  2.2277  2.0574  0.1080
  646SOL    HW2 2583   0.060   2.331   0.754  2.7722 -0.3670  0.0374
  646SOL     MW 2584   0.093   2.296   0.830  0.8703 -0.1307  0.3294
  647SOL     OW 2585   2.706   0.511   3.016  0.1887 -0.1663 -0.0118
  647SOL    HW1 2586   2.650   0.441   3.046  0.5467  0.5395  1.0608
  647SOL    HW2 2587   2.688   0.590   3.069  1.8850 -1.2196  1.8150
  647SOL     MW 2588   2.696   0.512   3.027  0.4598 -0.2122  0.3708
  648SOL     OW 2589   2.277   0.721   1.094  0.4668 -0.6844 -0.1349
  648SOL    HW1 2590   2.246   0.639   1.123 -3.9168  0.2448  0.0557
  648SOL    HW2 2591   2.251   0.784   1.160 -1.0807  1.4093 -0.2033
  648SOL     MW 2592   2.270   0.718   1.106 -0.3158 -0.2856 -0.1188
  649SOL     OW 2593   2.428   2.731   1.244  0.2258 -0.4185 -0.5302
  649SOL    HW1 2594   2.513   2.776   1.252  1.8399  0.1705 -1.7339
  649SOL    HW2 2595   2.436   2.641   1.281 -0.8811  0.4285  1.1112
  649SOL     MW 2596   2.440   2.725   1.250  0.2927 -0.2290 -0.4724
  650SOL     OW 2597   2.767   0.205   0.656  0.0957  0.5382  0.3813
  650SOL    HW1 2598   2.747   0.295   0.680 -1.4178  0.8220 -0.0081
  650SOL    HW2 2599   2.847   0.221   0.599  0.1091  1.7928 -0.1241
  650SOL     MW 2600   2.775   0.219   0.652 -0.1022  0.7412  0.2632
  651SOL     OW 2601   0.006   0.458   1.008  0.6062 -0.0893  0.2016
  651SOL    HW1 2602   0.053   0.471   0.925  1.6981  0.6757  2.0294
  651SOL    HW2 2603  -0.079   0.506   1.002 -1.3155  0.3968  2.0450
  651SOL     MW 2604   0.001   0.466   0.996  0.4967  0.0758  0.6860
  652SOL     OW 2605   2.347   1.411   2.997 -0.7439 -0.1485  0.0468
  652SOL    HW1 2606   2.429   1.442   2.961 -0.1011 -0.1899  0.4944
  652SOL    HW2 2607   2.297   1.490   3.008  0.6649 -2.0149 -0.1676
  652SOL     MW 2608   2.351   1.426   2.994 -0.4732 -0.4002  0.0776
  653SOL     OW 2609   1.788   0.414   0.303  0.4405 -0.5021 -0.0510
  653SOL    HW1 2610   1.783   0.328   0.263  0.8650 -1.0051 -2.4094
  653SOL    HW2 2611   1.881   0.425   0.312  1.1054 -2.0916 -1.8297
  653SOL     MW 2612   1.800   0.404   0.299  0.5842 -0.7782 -0.5968
  654SOL     OW 2613   2.419   0.956   0.747 -0.2197 -0.1228 -0.0823
  654SOL    HW1 2614   2.372   0.940   0.660  1.0264 -0.1870 -0.0574
  654SOL    HW2 2615   2.470   0.874   0.777 -1.3536 -0.7053 -1.4033
  654SOL     MW 2616   2.420   0.943   0.740 -0.2049 -0.2081 -0.2533
  655SOL     OW 2617   2.910   0.891   0.394  0.4365  0.0963  0.2001
  655SOL    HW1 2618   2.839   0.936   0.439  0.6667  0.7292  1.8947
  655SOL    HW2 2619   2.906   0.800   0.422 -1.1217 -1.3304 -1.6130
  655SOL     MW 2620   2.900   0.885   0.404  0.2613 -0.0084  0.1845
  656SOL     OW 2621   1.775   2.659   1.383  0.1172 -0.2546  0.1942
  656SOL    HW1 2622   1.821   2.745   1.382  1.1511 -0.7569  1.9569
  656SOL    HW2 2623   1.841   2.601   1.350  0.3976  0.1269  1.3598
  656SOL     MW 2624   1.790   2.663   1.379  0.2906 -0.2705  0.5806
  657SOL     OW 2625   0.120   1.787   1.191 -0.4353  0.6227  0.6652
  657SOL    HW1 2626   0.184   1.843   1.150 -1.5165  0.1355  2.9652
  657SOL    HW2 2627   0.172   1.706   1.207  1.7969  1.4966 -0.4182
  657SOL     MW 2628   0.135   1.783   1.188 -0.2835  0.6737  0.8257
  658SOL     OW 2629   2.721   1.324   0.252  0.3573 -0.4982  0.5423
  658SOL    HW1 2630   2.691   1.256   0.312  2.2667  1.3067 -2.3169
  658SOL    HW2 2631   2.723   1.404   0.306  1.0729  2.7425 -2.2939
  658SOL     MW 2632   2.717   1.326   0.267  0.7036  0.1675 -0.2091
  659SOL     OW 2633   2.189   1.541   1.002 -0.1163 -0.4338  0.2814
  659SOL    HW1 2634   2.270   1.500   1.023  1.2064 -1.5526  1.9281
  659SOL    HW2 2635   2.157   1.582   1.087  1.1533  6.0562  1.5590
  659SOL     MW 2636   2.195   1.541   1.016  0.2257  0.2749  0.6672
  660SOL     OW 2637   2.089   1.454   1.692 -0.4130 -0.0364 -0.4653
  660SOL    HW1 2638   2.105   1.447   1.785 -0.3328 -0.3815  2.2400
  660SOL    HW2 2639   2.006   1.403   1.676 -0.8453 -2.0185 -1.6593
  660SOL     MW 2640   2.080   1.446   1.702 -0.4595 -0.3434 -0.2659
  661SOL     OW 2641   2.430   0.983   0.220 -0.6231  0.6035 -0.0435
  661SOL    HW1 2642   2.490   1.028   0.282 -0.4735 -0.4086  3.5471
  661SOL    HW2 2643   2.417   0.892   0.253 -0.1625 -4.9200 -0.7331
  661SOL     MW 2644   2.436   0.977   0.233 -0.5426 -0.2588  0.3392
  662SOL     OW 2645   2.588   2.950   0.873 -0.2593 -0.1339  0.2864
  662SOL    HW1 2646   2.562   3.029   0.913  0.9378 -0.7751  0.5770
  662SOL    HW2 2647   2.636   2.972   0.787 -0.3733  0.4490 -0.7770
  662SOL     MW 2648   2.591   2.964   0.867 -0.1164 -0.1416  0.1845
  663SOL     OW 2649   2.682   1.531   0.436 -0.1974  0.2460 -0.2454
  663SOL    HW1 2650   2.654   1.620   0.405  0.4036  1.1607  1.0502
  663SOL    HW2 2651   2.749   1.541   0.507  0.7018  0.3767  2.0565
  663SOL     MW 2652   2.687   1.544   0.441  0.0006  0.3839  0.2293
  664SOL     OW 2653   2.538   1.549   1.607 -0.1480  0.2311 -0.5407
  664SOL    HW1 2654   2.523   1.614   1.540 -0.2569  0.9973  2.6520
  664SOL    HW2 2655   2.478   1.481   1.602  1.5779  1.2165  1.3526
  664SOL     MW 2656   2.528   1.549   1.598  0.0653  0.4622  0.1303
  665SOL     OW 2657   2.788   0.771   2.078  0.2753  0.0814 -0.3835
  665SOL    HW1 2658   2.778   0.819   1.990  1.6118 -4.1478 -2.3817
  665SOL    HW2 2659   2.880   0.746   2.087  0.9382 -0.4634  1.8382
  665SOL     MW 2660   2.799   0.774   2.068  0.5391 -0.5485 -0.3540
  666SOL     OW 2661   2.766   3.037   1.705 -0.2798 -0.1868 -0.0399
  666SOL    HW1 2662   2.741   3.069   1.620 -1.1096 -0.8883 -1.5476
  666SOL    HW2 2663   2.727   2.952   1.723 -1.1298 -1.0700 -2.1895
  666SOL     MW 2664   2.757   3.030   1.696 -0.5014 -0.3959 -0.5224
  667SOL     OW 2665   2.009   2.692   1.765  0.2294 -0.0350  0.6125
  667SOL    HW1 2666   2.049   2.663   1.849  1.4138 -0.3229 -0.4567
  667SOL    HW2 2667   2.077   2.756   1.736  0.2800  0.5389 -0.5954
  667SOL     MW 2668   2.023   2.697   1.773  0.3924  0.0027  0.3121
  668SOL     OW 2669   2.758   0.555   0.819  0.1944 -0.3414 -0.2011
  668SOL    HW1 2670   2.817   0.582   0.898  0.1523  0.1972  4.0653
  668SOL    HW2 2671   2.669   0.595   0.822  2.6237  2.9940  1.4290
  668SOL     MW 2672   2.754   0.564   0.830  0.5094  0.1698  0.5769
  669SOL     OW 2673   0.174   0.911   0.772 -0.1041  0.8691 -0.2968
  669SOL    HW1 2674   0.139   0.991   0.801 -1.2492 -1.6978 -2.3609
  669SOL    HW2 2675   0.211   0.856   0.842  3.4413  2.0460 -1.6998
  669SOL     MW 2676   0.174   0.915   0.785  0.2126  0.6857 -0.7543
  670SOL     OW 2677   2.897   0.325   0.229 -0.1686 -0.2170 -0.9363
  670SOL    HW1 2678   2.914   0.261   0.161  0.6154  0.0065  0.7417
  670SOL    HW2 2679   2.899   0.410   0.177  0.6667 -0.0558 -1.7251
  670SOL     MW 2680   2.900   0.328   0.213  0.0450 -0.1662 -0.8190
  671SOL     OW 2681   2.002   3.019   1.566  0.0310  0.0561 -0.1548
  671SOL    HW1 2682   1.944   2.983   1.499 -1.8835 -0.0900  1.0492
  671SOL    HW2 2683   1.938   3.043   1.634  0.3820  1.4454 -1.3684
  671SOL     MW 2684   1.986   3.017   1.566 -0.1753  0.2202 -0.1561
  672SOL     OW 2685   1.804   1.731   1.274  0.2531  0.7013 -0.1373
  672SOL    HW1 2686   1.836   1.748   1.360 -0.9300 -0.6418  1.2195
  672SOL    HW2 2687   1.867   1.757   1.206  0.1065  1.4345 -0.1835
  672SOL     MW 2688   1.816   1.737   1.276  0.0776  0.6209  0.0356
  673SOL     OW 2689   2.760   1.051   0.630  0.4847  0.3372 -0.2775
  673SOL    HW1 2690   2.779   0.963   0.667 -1.8058 -1.3220 -0.8632
  673SOL    HW2 2691   2.834   1.105   0.651 -3.3502  0.5884 -0.5895
  673SOL     MW 2692   2.772   1.046   0.638 -0.3235  0.1515 -0.3959
  674SOL     OW 2693   2.460   3.093   1.267  0.1013  0.3397 -0.0819
  674SOL    HW1 2694   2.418   3.113   1.182  2.0156  1.1471 -0.1448
  674SOL    HW2 2695   2.518   3.017   1.247  1.5020  0.2662 -0.3120
  674SOL     MW 2696   2.462   3.086   1.253  0.5387  0.4365 -0.1206
  675SOL     OW 2697   2.936   0.934   1.037  0.6918  0.2036 -0.0523
  675SOL    HW1 2698   3.002   0.928   1.104 -0.4530  0.4727 -0.2072
  675SOL    HW2 2699   2.958   1.014   0.981  2.7622 -1.1648  1.4187
  675SOL     MW 2700   2.948   0.944   1.039  0.8139  0.0586  0.1213
  676SOL     OW 2701   2.948   1.441   1.690 -0.0104  0.9302 -0.3271
  676SOL    HW1 2702   2.884   1.379   1.651 -2.1799 -0.8774  2.4489
  676SOL    HW2 2703   2.984   1.412   1.770 -1.4367 -1.0687  2.2644
  676SOL     MW 2704   2.945   1.429   1.696 -0.4848  0.4280  0.3811
  677SOL     OW 2705   2.380   0.552   2.044  0.0297  0.0448  0.1734
  677SOL    HW1 2706   2.340   0.510   1.963  1.9337 -0.8929 -0.3599
  677SOL    HW2 2707   2.339   0.643   2.037  1.1814  1.5733  1.8075
  677SOL     MW 2708   2.369   0.559   2.032  0.4329  0.1228  0.3187
  678SOL     OW 2709   2.471   1.651   0.306 -0.5806  0.4269 -0.2553
  678SOL    HW1 2710   2.387   1.650   0.358 -0.5899 -2.3531 -0.6684
  678SOL    HW2 2711   2.446   1.572   0.250 -2.4873 -1.3897 -0.3209
  678SOL     MW 2712   2.456   1.641   0.305 -0.8334 -0.1796 -0.3185
  679SOL     OW 2713   2.229   0.449   1.269  0.8562 -0.1666 -0.5972
  679SOL    HW1 2714   2.247   0.355   1.279 -2.5132 -1.6527  0.5262
  679SOL    HW2 2715   2.171   0.478   1.343 -0.3413 -1.1743 -0.4989
  679SOL     MW 2716   2.223   0.441   1.280  0.2536 -0.4957 -0.4360
  680SOL     OW 2717   2.315   0.163   1.483 -0.4058 -0.2015 -0.2090
  680SOL    HW1 2718   2.224   0.167   1.467  0.7144  1.9129  0.5454
  680SOL    HW2 2719   2.355   0.082   1.435  0.6501 -0.6410 -4.3248
  680SOL     MW 2720   2.308   0.153   1.475 -0.1187  0.0195 -0.6525
  681SOL     OW 2721   0.228   0.548   1.495 -0.1740 -0.2580 -0.5984
  681SOL    HW1 2722   0.203   0.490   1.565  2.3653  1.8361 -1.3127
  681SOL    HW2 2723   0.220   0.500   1.407 -0.8680 -1.2149 -2.0879
  681SOL     MW 2724   0.224   0.534   1.493  0.0694 -0.1080 -0.8892
  682SOL     OW 2725   0.150   2.865   1.525 -0.8863  0.3008 -0.3722
  682SOL    HW1 2726   0.227   2.912   1.555  0.2042  1.5688 -2.1608
  682SOL    HW2 2727   0.076   2.906   1.573  1.1370  1.1740  0.2897
  682SOL     MW 2728   0.150   2.877   1.535 -0.4755  0.5833 -0.5209
  683SOL     OW 2729   2.093   0.829   2.982 -0.4578  0.1372 -0.2489
  683SOL    HW1 2730   2.052   0.746   3.008 -0.9889  2.2791 -1.2993
  683SOL    HW2 2731   2.048   0.901   3.028  1.0752  0.0480  2.9902
  683SOL     MW 2732   2.081   0.828   2.991 -0.3256  0.4081  0.0399
  684SOL     OW 2733   2.189   1.692   0.691 -0.1962 -0.1094  0.0108
  684SOL    HW1 2734   2.183   1.702   0.589 -0.0916 -0.3240 -0.3684
  684SOL    HW2 2735   2.145   1.607   0.702 -0.9702 -1.0891  0.4703
  684SOL     MW 2736   2.182   1.682   0.679 -0.2846 -0.2670  0.0214
  685SOL     OW 2737   2.719   1.656   1.198  0.2590 -0.0907 -0.1227
  685SOL    HW1 2738   2.809   1.647   1.236 -0.2100  1.1504  0.5682
  685SOL    HW2 2739   2.674   1.571   1.216 -1.2194 -0.0997 -1.4535
  685SOL     MW 2740   2.725   1.643   1.205  0.0021  0.0719 -0.2071
  686SOL     OW 2741   2.875   0.717   1.511 -0.1570 -0.4354  0.6677
  686SOL    HW1 2742   2.879   0.693   1.607 -0.1894 -0.5976  1.3681
  686SOL    HW2 2743   2.968   0.733   1.485  3.5851  0.7690 -0.3845
  686SOL     MW 2744   2.888   0.716   1.520  0.3324 -0.2979  0.6213
  687SOL     OW 2745   2.135   0.141   1.176  0.0519  0.0567  0.0777
  687SOL    HW1 2746   2.209   0.120   1.115  0.2096 -1.6676  0.7555
  687SOL    HW2 2747   2.077   0.206   1.123 -0.0220  1.4731 -1.9407
  687SOL     MW 2748   2.137   0.147   1.161  0.0630  0.0161 -0.0991
  688SOL     OW 2749   2.398   0.617   1.430 -0.5334 -0.3828 -0.3446
  688SOL    HW1 2750   2.348   0.564   1.375  0.1183  0.5995  0.9226
  688SOL    HW2 2751   2.346   0.636   1.508  0.5564 -1.4334 -1.1699
  688SOL     MW 2752   2.384   0.613   1.433 -0.3036 -0.3918 -0.2863
  689SOL     OW 2753   2.483   0.729   2.968 -0.9338  0.7083 -0.5967
  689SOL    HW1 2754   2.442   0.814   2.947  1.2935  1.6795  2.9187
  689SOL    HW2 2755   2.548   0.743   3.037 -3.0575 -1.8633  1.5493
  689SOL     MW 2756   2.486   0.742   2.975 -0.9201  0.4971  0.1503
  690SOL     OW 2757   2.050   0.889   1.873 -0.3213 -0.2170  0.5821
  690SOL    HW1 2758   2.020   0.800   1.880 -0.6547  1.7246  0.0947
  690SOL    HW2 2759   2.069   0.896   1.778  0.0512  0.9636  1.6635
  690SOL     MW 2760   2.049   0.878   1.862 -0.3162  0.1950  0.6604
  691SOL     OW 2761   2.410   0.221   0.841  0.1694 -0.1522  0.5641
  691SOL    HW1 2762   2.493   0.249   0.879 -2.8398  1.0127  0.1433
  691SOL    HW2 2763   2.353   0.295   0.837 -0.1054 -0.0621 -2.5664
  691SOL     MW 2764   2.413   0.234   0.846 -0.2639  0.0134  0.0955
  692SOL     OW 2765   2.891   1.605   1.439 -0.5051  0.0061 -0.9059
  692SOL    HW1 2766   2.898   1.572   1.531 -0.0775  0.0724 -0.9214
  692SOL    HW2 2767   2.925   1.692   1.446 -0.5458 -2.0051 -2.2208
  692SOL     MW 2768   2.897   1.612   1.452 -0.4541 -0.2505 -1.0814
  693SOL     OW 2769   2.321   0.446   0.113  0.2112  0.3758 -0.3878
  693SOL    HW1 2770   2.239   0.398   0.100 -1.1025  0.6857  0.0532
  693SOL    HW2 2771   2.302   0.536   0.084 -0.0424 -0.9235  0.1458
  693SOL     MW 2772   2.307   0.452   0.107  0.0044  0.2453 -0.2592
  694SOL     OW 2773   1.909   1.114   1.052 -0.0148 -0.0251 -0.0289
  694SOL    HW1 2774   1.997   1.128   1.100 -0.5367 -1.0009 -2.1326
  694SOL    HW2 2775   1.870   1.036   1.094  1.3146 -1.9977  1.6922
  694SOL     MW 2776   1.915   1.106   1.064  0.0917 -0.4141 -0.0794
  695SOL     OW 2777   3.008   1.390   1.274 -0.0860 -0.8151  0.7542
  695SOL    HW1 2778   2.979   1.418   1.189 -0.8722 -0.6768  0.4194
  695SOL    HW2 2779   2.969   1.454   1.343 -1.2422 -0.0998  0.2906
  695SOL     MW 2780   2.999   1.402   1.272 -0.3423 -0.7025  0.6489
  696SOL     OW 2781   2.100   1.436   0.777  0.0589  0.2681 -0.5774
  696SOL    HW1 2782   2.126   1.468   0.861 -0.5278  0.6388  0.0165
  696SOL    HW2 2783   2.033   1.362   0.784 -1.9901  3.5689 -0.5298
  696SOL     MW 2784   2.095   1.430   0.789 -0.2889  0.7525 -0.4928
  697SOL     OW 2785   2.858   0.986   2.255  0.2394 -0.4446  0.2952
  697SOL    HW1 2786   2.785   1.053   2.274 -2.7609  0.0832  0.8562
  697SOL    HW2 2787   2.809   0.927   2.192 -0.3367 -0.6544 -0.0195
  697SOL     MW 2788   2.842   0.987   2.249 -0.2325 -0.4027  0.3277
  698SOL     OW 2789   2.541   0.323   0.011  0.6641 -0.6989 -0.2129
  698SOL    HW1 2790   2.461   0.367   0.053  0.5413  0.5866 -0.7159
  698SOL    HW2 2791   2.585   0.266   0.080  3.4436 -2.4101  1.7587
  698SOL     MW 2792   2.537   0.321   0.026  1.0146 -0.7550 -0.0192
  699SOL     OW 2793   1.887   1.621   2.089  0.6909 -0.0320  0.6660
  699SOL    HW1 2794   1.860   1.536   2.107 -2.4999  0.9618 -1.9313
  699SOL    HW2 2795   1.967   1.598   2.047 -1.4542  3.6122 -2.7208
  699SOL     MW 2796   1.894   1.607   2.086 -0.0131  0.5800 -0.1235
  700SOL     OW 2797   2.681   0.900   1.599  0.3902 -0.1160  0.4788
  700SOL    HW1 2798   2.744   0.972   1.575  1.1321  0.2504 -1.9767
  700SOL    HW2 2799   2.722   0.825   1.551  1.1527 -1.3017  1.8366
  700SOL     MW 2800   2.695   0.900   1.590  0.5887 -0.2241  0.3340
  701SOL     OW 2801   1.705   1.169   2.493 -0.2603 -0.1291  0.5173
  701SOL    HW1 2802   1.768   1.110   2.534 -0.0783  0.9130 -1.0747
  701SOL    HW2 2803   1.675   1.214   2.574 -0.1334  0.4636 -0.7204
  701SOL     MW 2804   1.709   1.167   2.509 -0.2195  0.0866  0.1440
  702SOL     OW 2805   2.139   0.412   0.843 -0.1918 -0.1904  0.1809
  702SOL    HW1 2806   2.125   0.324   0.804 -0.5396 -1.7790 -1.6505
  702SOL    HW2 2807   2.192   0.460   0.779 -1.0201 -1.7799  1.1728
  702SOL     MW 2808   2.144   0.407   0.829 -0.3470 -0.6097  0.0701
  703SOL     OW 2809   2.725   1.253   1.011  0.1535 -0.1453 -0.4747
  703SOL    HW1 2810   2.656   1.277   0.949  0.7690 -0.3717  0.6108
  703SOL    HW2 2811   2.689   1.179   1.064 -0.2682 -0.0638 -1.2122
  703SOL     MW 2812   2.711   1.247   1.010  0.1791 -0.1644 -0.4288
  704SOL     OW 2813   3.034   1.276   0.139 -0.1843  0.1947  0.4927
  704SOL    HW1 2814   2.961   1.237   0.098  1.2533 -0.2867  1.3221
  704SOL    HW2 2815   3.035   1.245   0.233 -0.1756 -1.3490  0.9750
  704SOL     MW 2816   3.025   1.267   0.146  0.0065 -0.0725  0.6658
  705SOL     OW 2817   2.174   1.628   1.280 -1.0898 -0.5374 -0.2651
  705SOL    HW1 2818   2.147   1.669   1.367 -0.2460 -0.2446  0.8658
  705SOL    HW2 2819   2.184   1.537   1.297 -0.4196 -0.2047 -0.3818
  705SOL     MW 2820   2.172   1.621   1.294 -0.8901 -0.4549 -0.1312
  706SOL     OW 2821   2.932   1.264   0.634  0.2788  0.1483 -0.4659
  706SOL    HW1 2822   2.981   1.247   0.555 -1.9686 -0.7421 -0.8797
  706SOL    HW2 2823   2.907   1.362   0.638 -3.0589 -3.4449  2.0008
  706SOL     MW 2824   2.935   1.274   0.624 -0.4581 -0.4433 -0.1950
  707SOL     OW 2825   2.334   0.038   1.023  0.3988 -0.1262 -0.6859
  707SOL    HW1 2826   2.374   0.095   0.959 -2.3319 -1.6754 -1.3783
  707SOL    HW2 2827   2.290  -0.037   0.976 -0.5566  1.8851 -0.5246
  707SOL     MW 2828   2.333   0.035   1.008 -0.0876 -0.0653 -0.7560
  708SOL     OW 2829   2.434   1.405   0.189  0.3044  0.1065 -0.3659
  708SOL    HW1 2830   2.521   1.369   0.217  1.8153  0.5228 -1.4447
  708SOL    HW2 2831   2.420   1.379   0.098 -0.7706 -2.9099  2.1824
  708SOL     MW 2832   2.444   1.397   0.181  0.3619 -0.2365 -0.1720
  709SOL     OW 2833   1.738   1.634   0.214 -0.7201 -0.0977 -0.3465
  709SOL    HW1 2834   1.737   1.622   0.118 -0.8340 -0.7033 -0.8253
  709SOL    HW2 2835   1.655   1.631   0.251  0.3405  0.1815  0.1149
  709SOL     MW 2836   1.727   1.632   0.206 -0.5952 -0.1408 -0.3488
  710SOL     OW 2837   2.152   1.155   1.179 -0.0995  0.7189 -0.9134
  710SOL    HW1 2838   2.195   1.128   1.096 -1.1054  1.1299  0.6676
  710SOL    HW2 2839   2.154   1.087   1.247 -2.3236 -2.5946  0.6403
  710SOL     MW 2840   2.158   1.142   1.177 -0.5257  0.3359 -0.4998
  711SOL     OW 2841   2.336   0.091   1.776  0.3404  0.6071  0.6252
  711SOL    HW1 2842   2.433   0.102   1.794 -1.1442 -0.6547  0.9554
  711SOL    HW2 2843   2.328   0.113   1.684 -1.2274 -2.1401 -0.6751
  711SOL     MW 2844   2.348   0.095   1.766 -0.0623  0.0782  0.4972
  712SOL     OW 2845   1.934   0.634   3.065 -0.3999 -0.0825 -0.0956
  712SOL    HW1 2846   1.850   0.672   3.072  1.4508  0.7035 -0.6078
  712SOL    HW2 2847   1.974   0.647   3.154 -1.0105 -0.8573  0.1812
  712SOL     MW 2848   1.928   0.640   3.077 -0.2363 -0.0810 -0.1266
  713SOL     OW 2849   2.537   0.718   1.086 -0.0735 -0.2438  0.0131
  713SOL    HW1 2850   2.567   0.653   1.145  0.2632  0.7309  1.5701
  713SOL    HW2 2851   2.447   0.739   1.111 -3.3125 -2.5452 -1.7039
  713SOL     MW 2852   2.529   0.712   1.097 -0.4564 -0.4188 -0.0080
  714SOL     OW 2853   2.192   0.167   2.006  0.1563  0.7696 -0.1381
  714SOL    HW1 2854   2.237   0.104   2.069 -0.5418 -1.0526 -1.6355
  714SOL    HW2 2855   2.242   0.150   1.920  0.1283 -0.4517 -1.5073
  714SOL     MW 2856   2.205   0.156   2.003  0.0605  0.3681 -0.5163
  715SOL     OW 2857   1.829   2.043   1.733  0.0375  0.1288  0.0514
  715SOL    HW1 2858   1.917   2.074   1.730 -2.3442 -0.8875 -0.4076
  715SOL    HW2 2859   1.834   1.957   1.782  0.5461 -0.9103  0.7625
  715SOL     MW 2860   1.841   2.036   1.739 -0.2097 -0.1424  0.0847
  716SOL     OW 2861   2.330   0.549   0.676 -0.0047 -0.4094 -1.1478
  716SOL    HW1 2862   2.389   0.477   0.651  0.4138  2.1504  0.9980
  716SOL    HW2 2863   2.279   0.585   0.600 -1.6307  2.0682 -0.3029
  716SOL     MW 2864   2.331   0.544   0.662 -0.1640  0.2552 -0.7532
  717SOL     OW 2865   2.808   1.651   2.884 -0.0124  0.1064  0.0929
  717SOL    HW1 2866   2.870   1.603   2.936  1.2196 -0.6432 -1.0992
  717SOL    HW2 2867   2.777   1.708   2.963 -0.3637 -3.3546  2.8341
  717SOL     MW 2868   2.812   1.652   2.902  0.1038 -0.4491  0.2973
  718SOL     OW 2869   2.661   1.404   1.310  0.1988 -0.3116  0.1244
  718SOL    HW1 2870   2.662   1.447   1.393  0.8849  0.1739  0.0872
  718SOL    HW2 2871   2.749   1.365   1.305 -0.7169  0.5423  0.2175
  718SOL     MW 2872   2.673   1.405   1.321  0.1685 -0.1349  0.1318
  719SOL     OW 2873   2.173   1.235   0.569  0.2479 -0.1792 -0.0408
  719SOL    HW1 2874   2.249   1.248   0.511 -1.0167 -0.0710  1.2014
  719SOL    HW2 2875   2.210   1.260   0.661  1.3750  1.5174  2.1312
  719SOL     MW 2876   2.188   1.240   0.574  0.2297  0.0589  0.4097
  720SOL     OW 2877   2.791   1.161   0.048 -0.3367 -0.4868  0.1684
  720SOL    HW1 2878   2.800   1.069   0.078 -1.3351 -0.5908 -0.4237
  720SOL    HW2 2879   2.742   1.212   0.119 -0.2085 -1.4746 -0.0847
  720SOL     MW 2880   2.786   1.156   0.062 -0.4515 -0.6308  0.0569
  721SOL     OW 2881   2.491   0.876   1.423 -0.1178 -0.2844 -0.2825
  721SOL    HW1 2882   2.470   0.785   1.434 -0.7034  0.9674  1.0958
  721SOL    HW2 2883   2.550   0.905   1.488 -1.2960 -1.3873 -3.6980
  721SOL     MW 2884   2.496   0.868   1.433 -0.3505 -0.2648 -0.5513
  722SOL     OW 2885   2.602   1.117   0.372  0.3011  0.2808 -0.6374
  722SOL    HW1 2886   2.543   1.177   0.405  1.1973 -1.8828 -3.0876
  722SOL    HW2 2887   2.651   1.087   0.451 -0.3301 -1.6310 -0.5273
  722SOL     MW 2888   2.601   1.121   0.387  0.3360 -0.2569 -0.9462
  723SOL     OW 2889   2.327   1.366   1.596  0.1190  0.2611 -0.0462
  723SOL    HW1 2890   2.289   1.342   1.512 -1.9862  1.4381 -0.6282
  723SOL    HW2 2891   2.245   1.374   1.646 -0.2619 -1.5715 -1.1517
  723SOL     MW 2892   2.311   1.364   1.592 -0.2090  0.1746 -0.2689
  724SOL     OW 2893   2.463   0.325   0.579  0.1551 -0.2875  0.4722
  724SOL    HW1 2894   2.484   0.277   0.655  1.5045  2.5009 -0.0515
  724SOL    HW2 2895   2.547   0.337   0.540 -0.9753 -0.5292  0.0884
  724SOL     MW 2896   2.477   0.320   0.584  0.1840  0.0485  0.3525
  725SOL     OW 2897   2.599   0.411   1.226  0.0533  0.3223 -0.1379
  725SOL    HW1 2898   2.676   0.463   1.251 -0.8241  1.3483  0.8290
  725SOL    HW2 2899   2.556   0.383   1.307  1.1209 -4.5274 -0.2632
  725SOL     MW 2900   2.604   0.414   1.240  0.0784 -0.1822 -0.0268
  726SOL     OW 2901   2.518   2.503   0.523 -0.0274 -0.0706  0.7095
  726SOL    HW1 2902   2.495   2.596   0.524  0.9821  1.7820 -3.0181
  726SOL    HW2 2903   2.519   2.472   0.617 -0.3754  0.9345  1.0311
  726SOL     MW 2904   2.515   2.511   0.535  0.0599  0.3064  0.2601
  727SOL     OW 2905   2.856   0.336   1.777 -0.2479 -0.0804 -0.1278
  727SOL    HW1 2906   2.770   0.336   1.734 -1.4349  2.8255 -1.0194
  727SOL    HW2 2907   2.828   0.331   1.875 -1.2626 -0.8906 -0.7634
  727SOL     MW 2908   2.841   0.336   1.784 -0.5384  0.1961 -0.3293
  728SOL     OW 2909   2.835   1.145   2.863  0.3568  0.3403 -0.3654
  728SOL    HW1 2910   2.837   1.210   2.785 -1.5956 -0.6412  0.2296
  728SOL    HW2 2911   2.856   1.186   2.944 -0.8468 -0.7724 -0.0958
  728SOL     MW 2912   2.838   1.159   2.864 -0.0596  0.0640 -0.2513
  729SOL     OW 2913   2.460   1.467   1.168 -0.2349  0.0124  0.3363
  729SOL    HW1 2914   2.537   1.418   1.199 -0.5854  1.0623 -0.2591
  729SOL    HW2 2915   2.473   1.471   1.072 -1.8800 -3.3020 -0.5548
  729SOL     MW 2916   2.472   1.461   1.159 -0.4982 -0.2864  0.1401
  730SOL     OW 2917   2.276   1.188   0.288 -0.6316 -0.2644  0.1734
  730SOL    HW1 2918   2.319   1.100   0.273 -0.5993 -3.7160  0.6108
  730SOL    HW2 2919   2.329   1.256   0.244  1.5970  0.4111 -1.4077
  730SOL     MW 2920   2.288   1.186   0.280 -0.3333 -0.6307  0.0225
  731SOL     OW 2921   2.792   2.065   2.874 -0.0151  0.0889 -0.4161
  731SOL    HW1 2922   2.744   2.038   2.798  1.0107  0.1045 -1.9935
  731SOL    HW2 2923   2.881   2.052   2.845 -1.4199  0.5485  1.5430
  731SOL     MW 2924   2.797   2.060   2.860 -0.0651  0.1516 -0.3657
  732SOL     OW 2925   2.241   0.915   1.341 -0.0321  0.7775 -0.2769
  732SOL    HW1 2926   2.183   0.916   1.414  0.8463 -2.3068  0.6939
  732SOL    HW2 2927   2.334   0.918   1.368  0.9722  1.2073  1.7342
  732SOL     MW 2928   2.245   0.915   1.354  0.2163  0.4273  0.1165
  733SOL     OW 2929   2.432   2.825   3.023 -0.2819 -0.0434  0.2417
  733SOL    HW1 2930   2.346   2.873   3.036  0.6383  1.9168 -0.1349
  733SOL    HW2 2931   2.391   2.740   2.997 -0.0972  0.7237 -1.4852
  733SOL     MW 2932   2.415   2.820   3.021 -0.1361  0.3164 -0.0358
  734SOL     OW 2933   1.503   0.294   2.537  0.3584 -0.2501  0.1892
  734SOL    HW1 2934   1.485   0.259   2.625 -0.0081 -1.0605  1.7509
  734SOL    HW2 2935   1.491   0.222   2.472  1.7406 -2.4334 -0.2456
  734SOL     MW 2936   1.499   0.280   2.540  0.4924 -0.6451  0.3379
  735SOL     OW 2937   2.938   0.901   2.627 -0.0030  0.1513  0.6785
  735SOL    HW1 2938   2.920   0.807   2.636 -0.1232  0.8373  3.1791
  735SOL    HW2 2939   2.995   0.910   2.704 -0.6837 -2.1009  0.7847
  735SOL     MW 2940   2.943   0.890   2.638 -0.1087 -0.0554  1.0225
  736SOL     OW 2941   0.084   0.629   2.566 -0.1953  0.1243  0.4631
  736SOL    HW1 2942   0.082   0.695   2.493 -0.1386  2.1627  1.5883
  736SOL    HW2 2943   0.081   0.545   2.522  1.3377  2.6496 -0.0036
  736SOL     MW 2944   0.083   0.627   2.551  0.0145  0.7264  0.5500
  737SOL     OW 2945   2.921   0.629   2.652  0.0962  0.7497 -0.1539
  737SOL    HW1 2946   2.862   0.605   2.581 -0.9398  1.4778 -2.1399
  737SOL    HW2 2947   3.007   0.646   2.615 -0.6669  0.4673 -2.1348
  737SOL     MW 2948   2.925   0.628   2.638 -0.1412  0.8085 -0.6773
  738SOL     OW 2949   0.207   0.596   1.923  0.1933  0.0572 -0.1974
  738SOL    HW1 2950   0.298   0.626   1.930  1.4831 -0.7014 -0.3093
  738SOL    HW2 2951   0.207   0.532   1.850 -1.8140  0.8925 -1.5341
  738SOL     MW 2952   0.219   0.591   1.914  0.0986  0.0673 -0.3886
  739SOL     OW 2953   2.487   1.016   2.063  0.0386  0.1356 -0.0842
  739SOL    HW1 2954   2.443   0.937   2.023 -2.8733  2.1706 -0.6029
  739SOL    HW2 2955   2.541   1.064   1.999  2.0237 -1.4616  2.7168
  739SOL     MW 2956   2.488   1.012   2.049 -0.0837  0.1933  0.2169
  740SOL     OW 2957   0.170   1.774   2.917 -0.3531  0.5192  0.1726
  740SOL    HW1 2958   0.133   1.688   2.922 -0.6886  0.8485  1.2467
  740SOL    HW2 2959   0.257   1.776   2.962 -1.1275  3.3327 -1.1499
  740SOL     MW 2960   0.177   1.763   2.924 -0.4995  0.9339  0.1398
  741SOL     OW 2961   2.191   1.204   2.701  0.2928 -0.6233  0.5764
  741SOL    HW1 2962   2.159   1.290   2.670  2.5153 -1.4622 -0.1039
  741SOL    HW2 2963   2.169   1.190   2.796  3.0738 -1.8031  1.5540
  741SOL     MW 2964   2.184   1.213   2.709  0.9529 -0.8896  0.6156
  742SOL     OW 2965   1.686   1.251   2.211  0.6746  0.1309  0.3388
  742SOL    HW1 2966   1.601   1.208   2.186  0.4096 -1.4923 -1.3801
  742SOL    HW2 2967   1.679   1.252   2.308 -0.6735  2.8293  1.1204
  742SOL     MW 2968   1.674   1.246   2.220  0.4618  0.2728  0.2152
  743SOL     OW 2969   2.485   1.255   2.725  0.3115 -0.0111 -0.1920
  743SOL    HW1 2970   2.396   1.255   2.746  2.0244  0.4145 -2.0171
  743SOL    HW2 2971   2.507   1.205   2.802 -1.6110 -0.9232  2.8240
  743SOL     MW 2972   2.476   1.248   2.738  0.2838 -0.0753 -0.0349
  744SOL     OW 2973   2.772   0.926   1.857  0.5274 -0.0234 -0.4972
  744SOL    HW1 2974   2.707   0.992   1.857  0.3384 -2.8282 -0.6512
  744SOL    HW2 2975   2.747   0.893   1.771  0.8327 -1.0678  0.2299
  744SOL     MW 2976   2.760   0.930   1.846  0.5427 -0.5312 -0.4216
  745SOL     OW 2977   1.746   0.428   2.506 -0.3165  0.7842 -0.5427
  745SOL    HW1 2978   1.749   0.466   2.418  1.5234 -1.6229 -1.0337
  745SOL    HW2 2979   1.652   0.408   2.519  0.1872 -0.1581 -1.0309
  745SOL     MW 2980   1.734   0.430   2.496 -0.0073  0.3423 -0.6719
  746SOL     OW 2981   1.609   1.471   1.649  0.2406 -0.3746 -0.0728
  746SOL    HW1 2982   1.705   1.491   1.645 -0.2880 -0.2907  1.3783
  746SOL    HW2 2983   1.600   1.436   1.736  1.2195 -0.3871  0.1290
  746SOL     MW 2984   1.621   1.469   1.660  0.3000 -0.3652  0.1453
  747SOL     OW 2985   2.580   1.138   1.803 -0.0280 -0.0325  0.0212
  747SOL    HW1 2986   2.485   1.111   1.795 -2.0894 -1.3458 -3.5201
  747SOL    HW2 2987   2.586   1.218   1.859 -1.6981 -0.3720  1.7675
  747SOL     MW 2988   2.569   1.145   1.810 -0.5203 -0.2506 -0.2156
  748SOL     OW 2989   0.091   0.003   1.898  0.2113 -0.2880  0.5926
  748SOL    HW1 2990   0.170   0.053   1.888 -0.7794 -0.5927  1.4722
  748SOL    HW2 2991   0.056   0.029   1.977 -1.5394 -0.6109 -0.2532
  748SOL     MW 2992   0.097   0.013   1.907 -0.1504 -0.3708  0.5970
  749SOL     OW 2993   2.493   0.607   2.724 -0.4094  0.3357  0.2776
  749SOL    HW1 2994   2.503   0.679   2.660  0.2427 -0.5075 -1.4283
  749SOL    HW2 2995   2.500   0.659   2.808  0.4816 -0.1884  0.1787
  749SOL     MW 2996   2.496   0.623   2.727 -0.2058  0.1553  0.0394
  750SOL     OW 2997   2.060   3.035   1.963  0.1780  0.4945 -0.1052
  750SOL    HW1 2998   2.092   3.123   1.977  0.7835  1.0920 -0.3574
  750SOL    HW2 2999   2.140   2.984   1.985  1.0342  0.0934  2.4407
  750SOL     MW 3000   2.074   3.040   1.968  0.3709  0.5204  0.1974
  751SOL     OW 3001   0.058   0.408   2.363  0.5385 -0.6883  0.4417
  751SOL    HW1 3002   0.050   0.327   2.418 -0.2683 -0.5112  0.3744
  751SOL    HW2 3003   0.148   0.404   2.334  1.8927 -0.2743 -0.8634
  751SOL     MW 3004   0.069   0.396   2.366  0.6108 -0.6103  0.2606
  752SOL     OW 3005   2.132   0.747   2.719 -0.1296  0.0182 -0.1961
  752SOL    HW1 3006   2.177   0.823   2.680  0.8274  0.8776  0.3654
  752SOL    HW2 3007   2.121   0.776   2.810  0.5832 -2.1304  0.4790
  752SOL     MW 3008   2.136   0.761   2.726  0.0907 -0.1519 -0.0329
  753SOL     OW 3009   2.910   0.234   2.452  0.1642 -0.3528  0.1780
  753SOL    HW1 3010   2.864   0.156   2.415 -3.4383 -2.9587  0.3772
  753SOL    HW2 3011   2.872   0.316   2.430  1.8817 -2.8977  0.3626
  753SOL     MW 3012   2.899   0.235   2.444 -0.0845 -1.0324  0.2287
  754SOL     OW 3013   2.270   2.978   2.587 -0.7294 -0.0892 -0.5992
  754SOL    HW1 3014   2.276   2.932   2.504  0.7297 -3.6435 -0.8677
  754SOL    HW2 3015   2.334   2.919   2.634  1.5550 -2.2953 -0.3615
  754SOL     MW 3016   2.280   2.964   2.583 -0.2355 -0.8492 -0.6032
  755SOL     OW 3017   2.744   1.510   2.462  0.7417 -0.4366 -0.1280
  755SOL    HW1 3018   2.722   1.433   2.520 -1.4801 -1.5354  0.9568
  755SOL    HW2 3019   2.808   1.564   2.514  0.0463 -0.0081 -3.2625
  755SOL     MW 3020   2.750   1.507   2.477  0.3568 -0.5251 -0.3985
  756SOL     OW 3021   2.196   1.196   2.989 -0.5347  0.2010 -0.3015
  756SOL    HW1 3022   2.241   1.281   3.010  1.5997 -1.5572 -2.8999
  756SOL    HW2 3023   2.262   1.130   3.000 -0.9051  0.6821 -0.9835
  756SOL     MW 3024   2.210   1.199   2.993 -0.3020  0.0325 -0.7343
  757SOL     OW 3025   2.093   0.921   1.596 -0.4251 -0.5660  0.1058
  757SOL    HW1 3026   2.132   0.831   1.597 -0.2510 -0.1184  1.9897
  757SOL    HW2 3027   1.999   0.904   1.565  0.8324 -0.8001  0.7791
  757SOL     MW 3028   2.086   0.907   1.592 -0.2362 -0.5378  0.4432
  758SOL     OW 3029   2.225   1.780   2.647  0.1289  0.2308 -0.8814
  758SOL    HW1 3030   2.189   1.800   2.560  0.2360 -2.9847  0.7955
  758SOL    HW2 3031   2.335   1.765   2.648  0.9888  0.1739 -2.3285
  758SOL     MW 3032   2.235   1.781   2.636  0.2565 -0.2010 -0.8511
  759SOL     OW 3033   1.576   1.352   2.663 -0.6820  0.0444 -0.2251
  759SOL    HW1 3034   1.564   1.427   2.603 -1.8413 -0.5177 -0.2873
  759SOL    HW2 3035   1.630   1.380   2.737  0.4399  0.6872  0.2833
  759SOL     MW 3036   1.582   1.366   2.665 -0.6870  0.0551 -0.1663
  760SOL     OW 3037   2.592   2.004   2.705 -0.2737  0.6208 -0.0954
  760SOL    HW1 3038   2.566   1.919   2.678 -1.3311  1.0832 -0.5739
  760SOL    HW2 3039   2.571   2.060   2.628 -3.0435 -1.5096  1.1797
  760SOL     MW 3040   2.586   2.000   2.692 -0.7787  0.4007  0.0097
  761SOL     OW 3041   2.184   0.370   2.432 -0.0885 -0.0283 -0.3388
  761SOL    HW1 3042   2.121   0.303   2.422 -0.0433  1.5864  1.9623
  761SOL    HW2 3043   2.205   0.383   2.525  0.3141  1.1335 -2.0609
  761SOL     MW 3044   2.179   0.363   2.443 -0.0294  0.3380 -0.2624
  762SOL     OW 3045   0.077   0.193   2.139 -0.0919  0.1280  0.0949
  762SOL    HW1 3046   0.047   0.139   2.212 -2.2666 -1.5810  0.8156
  762SOL    HW2 3047   0.006   0.254   2.111 -0.8763  2.4274 -0.2439
  762SOL     MW 3048   0.063   0.194   2.145 -0.4823  0.2059  0.1453
  763SOL     OW 3049   2.356   1.015   2.352 -0.5478  0.3906  0.4234
  763SOL    HW1 3050   2.390   0.971   2.274  0.9420 -3.6349  1.4012
  763SOL    HW2 3051   2.423   1.087   2.376  0.3931 -1.9834 -0.6049
  763SOL     MW 3052   2.370   1.019   2.345 -0.2271 -0.4537  0.4167
  764SOL     OW 3053   0.461   0.240   2.806  0.7753 -0.6924  0.0907
  764SOL    HW1 3054   0.386   0.189   2.793  0.3560  3.0881  2.9209
  764SOL    HW2 3055   0.425   0.329   2.807 -0.4332  1.2695  1.4056
  764SOL     MW 3056   0.446   0.245   2.804  0.5605  0.0653  0.6376
  765SOL     OW 3057   2.771   0.035   2.339 -0.0475 -0.5793  0.3939
  765SOL    HW1 3058   2.717   0.024   2.251  1.0344  2.5992 -1.1467
  765SOL    HW2 3059   2.799  -0.055   2.358  1.2486 -0.0324  0.6308
  765SOL     MW 3060   2.767   0.022   2.330  0.2663 -0.0877  0.2219
  766SOL     OW 3061   1.855   2.986   2.145  0.3550  0.0453  0.3634
  766SOL    HW1 3062   1.915   3.017   2.086 -3.4366 -0.6800 -0.1688
  766SOL    HW2 3063   1.813   2.911   2.102  0.9066 -0.6951 -1.0719
  766SOL     MW 3064   1.857   2.980   2.132 -0.0725 -0.1481  0.1038
  767SOL     OW 3065   2.624   0.580   1.965  0.4919 -0.5658  1.0694
  767SOL    HW1 3066   2.669   0.644   2.019 -2.2312  1.3223  1.7509
  767SOL    HW2 3067   2.533   0.585   2.004 -2.3007  1.4305 -2.9828
  767SOL     MW 3068   2.618   0.589   1.977 -0.2358 -0.0533  0.6247
  768SOL     OW 3069  -0.002   1.542   2.945 -0.0609 -0.3448  0.0058
  768SOL    HW1 3070   0.038   1.503   3.023  0.1150  0.2993  1.7103
  768SOL    HW2 3071   0.011   1.476   2.879 -2.1348  2.6798  3.2855
  768SOL     MW 3072   0.005   1.528   2.946 -0.3113  0.1392  0.6634
  769SOL     OW 3073   2.454   0.679   2.347 -0.2593  0.1243 -0.1647
  769SOL    HW1 3074   2.357   0.655   2.349 -2.1191  2.5680  0.8884
  769SOL    HW2 3075   2.506   0.603   2.329 -0.6447  0.4826 -1.6479
  769SOL     MW 3076   2.448   0.666   2.345 -0.5555  0.4940 -0.2214
  770SOL     OW 3077   0.092   1.606   2.609 -0.0595  0.2278 -0.0572
  770SOL    HW1 3078  -0.006   1.620   2.627  0.6969  0.1794 -0.8864
  770SOL    HW2 3079   0.111   1.521   2.647  1.2601 -2.8641 -2.5414
  770SOL     MW 3080   0.082   1.597   2.616  0.2144 -0.1865 -0.4944
  771SOL     OW 3081   3.055   0.665   2.015  0.2343  0.3786  0.3940
  771SOL    HW1 3082   3.017   0.650   1.930 -2.7758  0.6919 -0.2722
  771SOL    HW2 3083   3.143   0.625   1.999 -2.2094  1.1831  0.2493
  771SOL     MW 3084   3.061   0.658   2.002 -0.4852  0.5261  0.2870
  772SOL     OW 3085   3.100   0.019   2.324  0.3083 -0.1537 -0.2659
  772SOL    HW1 3086   3.034  -0.033   2.366  0.4741 -1.2273 -1.4835
  772SOL    HW2 3087   3.156  -0.053   2.282 -2.8384 -0.9340  0.4730
  772SOL     MW 3088   3.099   0.003   2.324 -0.0850 -0.3983 -0.3291
  773SOL     OW 3089   2.451   2.836   2.726 -0.3214 -0.5460  0.2374
  773SOL    HW1 3090   2.440   2.751   2.685  1.0625 -0.0104  1.5503
  773SOL    HW2 3091   2.444   2.836   2.823 -2.0492  2.5236 -0.2612
  773SOL     MW 3092   2.449   2.825   2.733 -0.3667 -0.0704  0.3448
  774SOL     OW 3093   2.298   1.100   1.742 -0.0964 -0.7293  0.8756
  774SOL    HW1 3094   2.310   1.184   1.698 -0.1344  0.3388  1.1232
  774SOL    HW2 3095   2.235   1.050   1.697 -1.5552 -1.7151 -0.7408
  774SOL     MW 3096   2.291   1.105   1.730 -0.2939 -0.7184  0.6950
  775SOL     OW 3097   2.261   2.881   2.329  0.0000 -0.3021  0.4053
  775SOL    HW1 3098   2.277   2.966   2.285 -2.2510 -0.3651 -0.4834
  775SOL    HW2 3099   2.333   2.816   2.307 -1.6248  0.1270 -0.1688
  775SOL     MW 3100   2.273   2.884   2.321 -0.5114 -0.2538  0.2123
  776SOL     OW 3101   0.107   1.473   0.103  0.2808  0.0982 -0.1258
  776SOL    HW1 3102   0.194   1.429   0.098 -4.2729  3.4109 -2.7243
  776SOL    HW2 3103   0.032   1.409   0.111  0.9556  0.3705  1.5514
  776SOL     MW 3104   0.109   1.459   0.104 -0.2310  0.5712 -0.2473
  777SOL     OW 3105   2.930   1.136   1.773  0.0058  0.6733  0.2734
  777SOL    HW1 3106   2.857   1.191   1.741  0.4065  2.3030 -3.1509
  777SOL    HW2 3107   2.899   1.043   1.791 -1.5873  0.4163  0.8326
  777SOL     MW 3108   2.916   1.131   1.771 -0.1515  0.8544 -0.1046
  778SOL     OW 3109   2.880   0.423   2.830 -0.1672  0.3006 -0.1134
  778SOL    HW1 3110   2.814   0.455   2.901  0.6811  1.3980 -0.3815
  778SOL    HW2 3111   2.888   0.499   2.767  2.6210  2.0762 -0.1964
  778SOL     MW 3112   2.872   0.438   2.831  0.3126  0.6796 -0.1597
  779SOL     OW 3113   2.161   0.620   2.336  0.2982 -0.0960  0.3516
  779SOL    HW1 3114   2.158   0.665   2.410  1.5345  0.4471 -3.4530
  779SOL    HW2 3115   2.152   0.528   2.363 -0.2915  0.1910 -2.0051
  779SOL     MW 3116   2.159   0.614   2.349  0.3835  0.0136 -0.4613
  780SOL     OW 3117   0.227   0.091   2.746 -0.3007  0.0046  0.1334
  780SOL    HW1 3118   0.177   0.154   2.798  2.2872 -0.7615  1.7215
  780SOL    HW2 3119   0.199   0.108   2.656 -0.8986  2.0387 -1.0206
  780SOL     MW 3120   0.217   0.101   2.741 -0.0382  0.1719  0.1906
  781SOL     OW 3121   3.056   1.291   2.506  0.0839  0.0204  0.5573
  781SOL    HW1 3122   3.031   1.338   2.424 -1.5267 -0.7089 -0.4110
  781SOL    HW2 3123   3.074   1.199   2.486  2.6288 -0.1609 -1.1156
  781SOL     MW 3124   3.055   1.285   2.492  0.2072 -0.0997  0.2088
  782SOL     OW 3125   0.538   1.504   3.017 -0.2551  0.0658 -0.8961
  782SOL    HW1 3126   0.487   1.586   2.999 -0.0158  1.2970 -0.4610
  782SOL    HW2 3127   0.539   1.505   3.109  0.0157  1.1408 -3.5169
  782SOL     MW 3128   0.531   1.515   3.027 -0.1878  0.3701 -1.1845
  783SOL     OW 3129   2.781   0.495   2.459  0.0168 -0.0248  0.4280
  783SOL    HW1 3130   2.725   0.495   2.380 -0.3119 -1.6141  1.5867
  783SOL    HW2 3131   2.726   0.472   2.535  1.0583 -0.3687  1.3792
  783SOL     MW 3132   2.766   0.492   2.459  0.1108 -0.2799  0.7064
  784SOL     OW 3133   0.263   0.933   2.895 -1.0968 -0.4480  0.5120
  784SOL    HW1 3134   0.220   1.005   2.949 -1.1626  2.9973  1.6824
  784SOL    HW2 3135   0.269   0.974   2.803  1.1392  0.2908 -1.5971
  784SOL     MW 3136   0.258   0.947   2.890 -0.8104  0.1041  0.3882
  785SOL     OW 3137   0.446   0.519   2.179 -0.0609 -0.1251 -0.2399
  785SOL    HW1 3138   0.481   0.561   2.096  0.5090  1.0131  2.2093
  785SOL    HW2 3139   0.385   0.447   2.146  1.2779 -2.9768  1.5428
  785SOL     MW 3140   0.443   0.515   2.164  0.1909 -0.3512  0.3184
  786SOL     OW 3141   1.983   0.482   2.799 -1.1596  0.3643  0.2050
  786SOL    HW1 3142   2.008   0.495   2.891  1.0848 -2.9444  3.8121
  786SOL    HW2 3143   2.064   0.433   2.769  1.1266 -1.9044 -2.2387
  786SOL     MW 3144   1.997   0.477   2.807 -0.5618 -0.3716  0.3585
  787SOL     OW 3145   2.449   0.122   2.939  0.2292 -0.4807 -0.7662
  787SOL    HW1 3146   2.525   0.082   2.891  2.1211  1.4769 -0.5484
  787SOL    HW2 3147   2.482   0.206   2.978  0.8763  1.3706  0.7009
  787SOL     MW 3148   2.463   0.128   2.938  0.5642  0.0218 -0.5439
  788SOL     OW 3149   2.856   2.872   2.350  0.3207 -0.4910  0.0757
  788SOL    HW1 3150   2.846   2.810   2.278  0.8192 -2.0219 -2.4341
  788SOL    HW2 3151   2.931   2.834   2.401 -1.2377  3.8198 -0.9320
  788SOL     MW 3152   2.865   2.859   2.347  0.1809 -0.1242 -0.3884
  789SOL     OW 3153   0.092   0.253   2.941 -0.1843 -0.5788 -0.0126
  789SOL    HW1 3154   0.013   0.224   2.977  1.6674  0.2388 -1.6086
  789SOL    HW2 3155   0.086   0.339   2.974 -1.3012 -1.9826 -1.8507
  789SOL     MW 3156   0.081   0.260   2.950 -0.0874 -0.6561 -0.4657
  790SOL     OW 3157   3.088   1.022   2.433  0.7997 -0.2592 -0.3195
  790SOL    HW1 3158   3.018   0.968   2.483 -0.2650 -0.6403  3.3549
  790SOL    HW2 3159   3.063   1.007   2.346 -0.2587  2.3073 -0.0253
  790SOL     MW 3160   3.076   1.013   2.428  0.5196  0.0291  0.2041
  791SOL     OW 3161   2.659   0.364   2.679  0.2084  0.3061 -0.4306
  791SOL    HW1 3162   2.590   0.426   2.703 -0.7531 -1.4967  0.4751
  791SOL    HW2 3163   2.738   0.366   2.734 -0.3163 -0.6513 -1.7143
  791SOL     MW 3164   2.660   0.372   2.689  0.0123 -0.0581 -0.4805
  792SOL     OW 3165   2.443   0.219   2.363  0.2904  0.1923 -0.0370
  792SOL    HW1 3166   2.363   0.263   2.386 -1.3602 -2.2302 -0.4671
  792SOL    HW2 3167   2.480   0.172   2.442  1.8089 -4.0386 -0.4089
  792SOL     MW 3168   2.437   0.219   2.377  0.2730 -0.6856 -0.1428
  793SOL     OW 3169   1.797   1.037   1.955 -0.3345 -0.5187 -0.2565
  793SOL    HW1 3170   1.776   1.076   1.870 -1.7683 -0.2591  2.9224
  793SOL    HW2 3171   1.885   1.001   1.940  2.2578 -1.0189 -1.2291
  793SOL     MW 3172   1.806   1.038   1.942 -0.1816 -0.5505  0.0346
  794SOL     OW 3173   1.470   2.252   0.122 -0.5002 -0.4722 -0.4320
  794SOL    HW1 3174   1.499   2.320   0.056  0.4842  0.0858 -0.3707
  794SOL    HW2 3175   1.504   2.281   0.211  0.6912 -0.3014  0.3212
  794SOL     MW 3176   1.478   2.264   0.125 -0.2131 -0.3760 -0.3245
  795SOL     OW 3177   2.284   0.957   2.607 -0.3645  0.1442 -0.1268
  795SOL    HW1 3178   2.255   1.042   2.645 -1.9856  2.0399 -0.6602
  795SOL    HW2 3179   2.325   0.974   2.518 -1.8099 -0.7506 -0.1967
  795SOL     MW 3180   2.286   0.971   2.600 -0.7691  0.2763 -0.2064
  796SOL     OW 3181   0.275   0.660   2.760  0.7020  0.3460 -0.1945
  796SOL    HW1 3182   0.238   0.734   2.808  1.9284  0.5792 -0.8477
  796SOL    HW2 3183   0.203   0.652   2.691  0.4943  1.2326  1.6613
  796SOL     MW 3184   0.260   0.669   2.757  0.8364  0.4938 -0.0359
  797SOL     OW 3185   2.600   0.131   2.561  0.3030  0.4675  0.5165
  797SOL    HW1 3186   2.619   0.208   2.607 -2.1652 -2.3882 -1.2682
  797SOL    HW2 3187   2.667   0.121   2.495 -1.7722 -0.3169  2.9395
  797SOL     MW 3188   2.612   0.140   2.559 -0.2965 -0.0128  0.6007
  798SOL     OW 3189   2.347   0.026   2.193  0.0844  0.3459  0.7327
  798SOL    HW1 3190   2.392   0.085   2.249 -1.9253 -0.2662 -3.2563
  798SOL    HW2 3191   2.428  -0.006   2.157  0.1610  0.6322 -1.1344
  798SOL     MW 3192   2.364   0.030   2.196 -0.1707  0.3029 -0.0399
  799SOL     OW 3193   2.454   2.950   0.185 -0.0372  0.3246  0.0513
  799SOL    HW1 3194   2.455   2.876   0.121 -0.0604 -1.4509  1.3291
  799SOL    HW2 3195   2.366   2.992   0.184 -2.0553  0.5554  1.8762
  799SOL     MW 3196   2.442   2.946   0.177 -0.3065  0.1208  0.4606
  800SOL     OW 3197   1.850   3.048   1.781 -0.3302 -0.4263 -0.3979
  800SOL    HW1 3198   1.802   2.962   1.789  2.3081 -1.7365 -1.2995
  800SOL    HW2 3199   1.922   3.045   1.844 -0.1160 -1.4636 -0.3023
  800SOL     MW 3200   1.853   3.036   1.790  0.0461 -0.7361 -0.5042
  801SOL     OW 3201   2.816   1.291   2.624  0.3200  0.5037 -0.5073
  801SOL    HW1 3202   2.754   1.221   2.598  1.2028  1.3954 -0.1227
  801SOL    HW2 3203   2.892   1.285   2.558 -1.7588  0.2843  0.1470
  801SOL     MW 3204   2.818   1.281   2.612  0.1622  0.5924 -0.3702
  802SOL     OW 3205   2.552   1.517   2.816 -0.1258 -0.2747  0.0355
  802SOL    HW1 3206   2.547   1.428   2.769  1.9047 -1.6347 -0.7614
  802SOL    HW2 3207   2.643   1.536   2.817 -4.0390 -1.6571  1.0939
  802SOL     MW 3208   2.563   1.508   2.810 -0.3742 -0.6366  0.0700
  803SOL     OW 3209   2.327   1.273   1.945 -0.3908 -0.2840 -0.5322
  803SOL    HW1 3210   2.289   1.241   2.025  1.9615 -1.4046 -0.0523
  803SOL    HW2 3211   2.308   1.202   1.886  0.5030  0.7817 -0.5129
  803SOL     MW 3212   2.319   1.260   1.948  0.0375 -0.2913 -0.4663
  804SOL     OW 3213   2.282   0.076   0.059  0.0006 -0.6694  0.1538
  804SOL    HW1 3214   2.203   0.133   0.059  1.3428 -0.2118 -1.9130
  804SOL    HW2 3215   2.337   0.078  -0.022 -1.8091  0.7079 -0.9061
  804SOL     MW 3216   2.279   0.084   0.048 -0.0611 -0.4273 -0.2587
  805SOL     OW 3217   2.670   1.024   2.570  0.8877  0.2865  0.7949
  805SOL    HW1 3218   2.607   0.949   2.550  0.6702  1.2168  1.0819
  805SOL    HW2 3219   2.758   0.987   2.582 -1.0748  0.8634 -0.8980
  805SOL     MW 3220   2.674   1.009   2.569  0.6001  0.4853  0.6094
  806SOL     OW 3221   2.608   0.430   2.267  0.6563 -0.3046  0.0973
  806SOL    HW1 3222   2.542   0.358   2.291  0.7846  1.6870  1.4964
  806SOL    HW2 3223   2.621   0.424   2.174  0.0734  0.3105  2.0526
  806SOL     MW 3224   2.601   0.420   2.258  0.5963  0.0393  0.5399
  807SOL     OW 3225   3.097   1.094   2.113 -0.1417 -0.0041  0.1728
  807SOL    HW1 3226   3.142   1.022   2.067 -4.1031 -3.2213  1.5327
  807SOL    HW2 3227   3.012   1.060   2.139  1.8779  2.4299 -0.5426
  807SOL     MW 3228   3.091   1.080   2.111 -0.3979 -0.1074  0.2578
  808SOL     OW 3229   2.616   3.081   2.760  0.1948 -0.0423 -0.7165
  808SOL    HW1 3230   2.589   3.001   2.719  1.0754  1.4809  2.1631
  808SOL    HW2 3231   2.611   3.146   2.690  0.6141 -0.7021  0.5811
  808SOL     MW 3232   2.612   3.079   2.745  0.3663  0.0716 -0.1653
  809SOL     OW 3233   2.546   1.233   2.397 -0.0273 -0.0022 -0.2049
  809SOL    HW1 3234   2.574   1.188   2.470 -1.0381  1.1467 -0.5541
  809SOL    HW2 3235   2.619   1.258   2.335 -0.5163 -1.0922 -0.6549
  809SOL     MW 3236   2.559   1.230   2.398 -0.2252  0.0056 -0.3104
  810SOL     OW 3237   2.188   1.218   2.203 -0.3891 -1.0925  0.1245
  810SOL    HW1 3238   2.234   1.152   2.254  0.4439  1.3219  0.8030
  810SOL    HW2 3239   2.108   1.177   2.177  2.7331  1.0348 -0.6019
  810SOL     MW 3240   2.183   1.204   2.206  0.1328 -0.4933  0.1182
  811SOL     OW 3241   1.551   0.082   2.284 -0.3856  0.6751 -0.4304
  811SOL    HW1 3242   1.626   0.025   2.310  3.1065 -3.2905  2.9839
  811SOL    HW2 3243   1.554   0.091   2.192 -0.7721  1.4169  1.3674
  811SOL     MW 3244   1.562   0.076   2.275  0.0242  0.2498  0.2573
  812SOL     OW 3245   1.434   2.795   2.038 -0.0526 -0.1066  0.0854
  812SOL    HW1 3246   1.532   2.806   2.030 -0.6156  0.8322 -0.0271
  812SOL    HW2 3247   1.428   2.781   2.133 -2.9501  1.8496  0.0300
  812SOL     MW 3248   1.446   2.795   2.050 -0.5092  0.2753  0.0633
  813SOL     OW 3249   1.816   0.743   2.205  0.5740  0.3772  0.0897
  813SOL    HW1 3250   1.769   0.654   2.206  1.4750 -0.2629 -3.5943
  813SOL    HW2 3251   1.841   0.758   2.297  1.0954 -0.6314  0.0525
  813SOL     MW 3252   1.813   0.733   2.218  0.7617  0.1597 -0.4013
  814SOL     OW 3253   2.750   1.254   1.604 -0.2999 -0.0754 -0.6185
  814SOL    HW1 3254   2.682   1.221   1.661  0.1653 -0.1332 -1.8991
  814SOL    HW2 3255   2.749   1.208   1.521  0.0584 -1.2836 -0.8306
  814SOL     MW 3256   2.741   1.244   1.601 -0.1912 -0.2425 -0.8154
  815SOL     OW 3257   2.493   1.658   2.404 -0.3872  0.3685  0.2195
  815SOL    HW1 3258   2.420   1.605   2.386  1.3881 -0.9025 -1.7759
  815SOL    HW2 3259   2.571   1.607   2.377  0.4540  0.1516 -0.3361
  815SOL     MW 3260   2.493   1.644   2.398 -0.0420  0.1722 -0.1171
  816SOL     OW 3261   0.748   0.659   2.733 -0.1316 -0.4441 -0.2041
  816SOL    HW1 3262   0.734   0.594   2.804 -0.5149  0.3522  0.2900
  816SOL    HW2 3263   0.672   0.651   2.673 -3.8827 -2.9755  1.5990
  816SOL     MW 3264   0.736   0.650   2.734 -0.6771 -0.6730  0.0990
  817SOL     OW 3265   3.049   1.143   1.380 -0.1645 -0.3953  0.2097
  817SOL    HW1 3266   3.070   1.161   1.470 -0.4697 -0.6004 -2.0086
  817SOL    HW2 3267   3.032   1.231   1.347 -0.2205 -2.0295  2.7305
  817SOL     MW 3268   3.050   1.157   1.387 -0.2122 -0.6380  0.2496
  818SOL     OW 3269   1.898   1.034   2.718  0.0262 -0.2328  0.0191
  818SOL    HW1 3270   1.941   1.073   2.642  0.1226 -0.0875  0.6966
  818SOL    HW2 3271   1.969   0.982   2.751  3.4887  1.2801  1.1085
  818SOL     MW 3272   1.913   1.033   2.712  0.4958 -0.0140  0.2522
  819SOL     OW 3273   1.897   0.197   2.419 -1.1072 -0.4022 -0.1851
  819SOL    HW1 3274   1.855   0.272   2.460  0.3132  0.3308 -3.2828
  819SOL    HW2 3275   1.933   0.143   2.496  1.1810 -0.7795 -0.2928
  819SOL     MW 3276   1.896   0.200   2.434 -0.6179 -0.3553 -0.6080
  820SOL     OW 3277   2.486   1.741   2.664  0.1393 -0.2353  0.1090
  820SOL    HW1 3278   2.494   1.658   2.715 -0.7574 -3.4084 -2.0038
  820SOL    HW2 3279   2.491   1.714   2.572  2.2396 -0.6728  3.3342
  820SOL     MW 3280   2.488   1.727   2.658  0.2981 -0.7117  0.2558
  821SOL     OW 3281   2.585   1.359   1.946 -0.0828  0.0466  0.4640
  821SOL    HW1 3282   2.620   1.428   1.886 -0.1115 -1.0610  0.6599
  821SOL    HW2 3283   2.489   1.368   1.944  0.4389  3.0454 -0.3672
  821SOL     MW 3284   2.577   1.369   1.938 -0.0178  0.2961  0.3802
  822SOL     OW 3285   2.849   2.704   1.446 -0.0023 -0.1560 -0.1404
  822SOL    HW1 3286   2.889   2.750   1.526  2.9172  2.3384 -0.6763
  822SOL    HW2 3287   2.796   2.773   1.405 -0.0900 -0.2166  0.9548
  822SOL     MW 3288   2.848   2.720   1.451  0.3713  0.1651 -0.0666
  823SOL     OW 3289   2.277   0.468   1.767  0.1808  0.3377 -0.0791
  823SOL    HW1 3290   2.365   0.440   1.724  2.5937  0.6387 -1.8852
  823SOL    HW2 3291   2.211   0.397   1.741 -0.2610  2.1863 -3.0810
  823SOL     MW 3292   2.280   0.455   1.758  0.4409  0.6213 -0.7135
  824SOL     OW 3293   2.079   1.411   2.508 -0.3284 -0.2846 -0.2494
  824SOL    HW1 3294   2.167   1.436   2.475  2.5288  1.6356 -1.1636
  824SOL    HW2 3295   2.067   1.485   2.571  2.2008 -0.4231 -0.0515
  824SOL     MW 3296   2.089   1.424   2.512  0.3823 -0.0495 -0.3439
  825SOL     OW 3297   2.122   2.532   0.382  0.7285 -0.3823  0.3159
  825SOL    HW1 3298   2.074   2.468   0.323  2.4939 -2.0826 -0.5426
  825SOL    HW2 3299   2.203   2.491   0.403 -1.7752 -2.1169  0.5356
  825SOL     MW 3300   2.126   2.518   0.377  0.6311 -0.8355  0.2317
  826SOL     OW 3301   1.796   2.384   0.470 -0.7368 -0.2829  0.3241
  826SOL    HW1 3302   1.816   2.301   0.514  0.2078  1.6865  0.8679
  826SOL    HW2 3303   1.830   2.455   0.518  1.4727 -1.9358 -4.7712
  826SOL     MW 3304   1.803   2.382   0.482 -0.3206 -0.2411 -0.2764
  827SOL     OW 3305   1.945   2.219   0.876 -0.2361  1.0758  0.7442
  827SOL    HW1 3306   1.891   2.203   0.798  0.3503 -3.4113  3.0645
  827SOL    HW2 3307   1.906   2.163   0.942  1.0150  1.5201 -1.1913
  827SOL     MW 3308   1.932   2.210   0.874  0.0064  0.5424  0.7950
  828SOL     OW 3309   0.090   2.599   0.525  0.2311  0.0378  0.2986
  828SOL    HW1 3310   0.175   2.627   0.563  1.3075  2.6369  1.1315
  828SOL    HW2 3311   0.086   2.646   0.444 -0.6729  0.0296  0.1308
  828SOL     MW 3312   0.101   2.609   0.519  0.2538  0.3797  0.3863
  829SOL     OW 3313   3.007   2.892   1.207  0.2253 -0.3272 -0.0893
  829SOL    HW1 3314   2.945   2.885   1.140 -0.0475 -0.0620 -2.1456
  829SOL    HW2 3315   3.053   2.806   1.208 -0.7651 -0.2382  0.9059
  829SOL     MW 3316   3.005   2.880   1.198  0.0586 -0.2805 -0.2293
  830SOL     OW 3317   2.535   2.811   2.025  0.7125 -0.5899 -0.2855
  830SOL    HW1 3318   2.454   2.831   1.973 -1.6468  0.6401 -1.1949
  830SOL    HW2 3319   2.593   2.789   1.955 -1.5475  0.9848  0.1362
  830SOL     MW 3320   2.532   2.811   2.009  0.1031 -0.2198 -0.3499
  831SOL     OW 3321   2.469   2.435   1.207  0.6769  0.4202 -0.1160
  831SOL    HW1 3322   2.437   2.387   1.281 -2.0934 -0.2762 -0.6363
  831SOL    HW2 3323   2.553   2.392   1.188  1.1194 -2.4913 -2.3872
  831SOL     MW 3324   2.476   2.423   1.214  0.3698 -0.0559 -0.4843
  832SOL     OW 3325   2.396   2.105   1.805  0.4523 -0.3076  0.0299
  832SOL    HW1 3326   2.398   2.202   1.832 -0.5248  0.7185 -1.5187
  832SOL    HW2 3327   2.481   2.088   1.765 -2.2208 -0.6371  1.2483
  832SOL     MW 3328   2.407   2.116   1.803 -0.0293 -0.2157 -0.0137
  833SOL     OW 3329   1.762   2.545   0.927 -0.3474  0.6230  0.1311
  833SOL    HW1 3330   1.698   2.490   0.954  0.6030 -2.6262  0.7559
  833SOL    HW2 3331   1.719   2.626   0.961 -0.7386  1.7413 -1.0861
  833SOL     MW 3332   1.748   2.549   0.935 -0.2737  0.3418  0.0529
  834SOL     OW 3333   2.283   2.345   0.605  0.3501 -0.7107  0.6703
  834SOL    HW1 3334   2.229   2.270   0.585 -3.7188  2.1028 -1.1311
  834SOL    HW2 3335   2.358   2.327   0.556  1.4452 -1.3198 -1.5606
  834SOL     MW 3336   2.286   2.332   0.596 -0.0422 -0.4199  0.1383
  835SOL     OW 3337   1.856   2.597   0.670  0.1796 -0.0263 -0.1571
  835SOL    HW1 3338   1.825   2.561   0.752 -0.9698 -1.1838 -1.6638
  835SOL    HW2 3339   1.904   2.671   0.706  2.5524 -0.0142  0.5014
  835SOL     MW 3340   1.858   2.602   0.686  0.3411 -0.1774 -0.2690
  836SOL     OW 3341   2.058   2.200   1.626 -0.2809 -0.0639  0.3865
  836SOL    HW1 3342   2.144   2.151   1.610  0.0647 -2.7440  1.1858
  836SOL    HW2 3343   2.073   2.274   1.686 -1.6589  0.4310 -1.9163
  836SOL     MW 3344   2.071   2.203   1.632 -0.4171 -0.3522  0.1881
  837SOL     OW 3345   2.073   0.192   0.702  0.2430  0.6575 -0.1124
  837SOL    HW1 3346   1.996   0.223   0.664  2.8974 -2.4105  1.1732
  837SOL    HW2 3347   2.129   0.166   0.628 -1.1914  3.0208  1.0150
  837SOL     MW 3348   2.070   0.193   0.688  0.4040  0.5645  0.2060
  838SOL     OW 3349   2.862   2.081   0.965 -0.0907  0.1938  0.1997
  838SOL    HW1 3350   2.805   2.007   0.973 -0.0211  0.9546  0.9096
  838SOL    HW2 3351   2.883   2.102   1.057 -0.0211  1.8458 -0.5940
  838SOL     MW 3352   2.857   2.074   0.978 -0.0724  0.5122  0.1886
  839SOL     OW 3353   1.535   2.387   0.976  0.3265 -0.0345  0.4282
  839SOL    HW1 3354   1.506   2.470   1.002 -0.3653  0.5358 -0.4399
  839SOL    HW2 3355   1.577   2.335   1.044 -1.8480  3.4100  0.0639
  839SOL     MW 3356   1.537   2.391   0.988 -0.0517  0.4952  0.2656
  840SOL     OW 3357   2.276   2.124   2.432  0.1511 -0.4140 -0.1663
  840SOL    HW1 3358   2.273   2.177   2.346 -0.0764  0.3343 -2.1191
  840SOL    HW2 3359   2.352   2.143   2.487  1.9966 -0.8522  1.3024
  840SOL     MW 3360   2.286   2.133   2.428  0.3646 -0.3731 -0.2302
  841SOL     OW 3361   2.270   2.408   0.052 -0.2467 -0.6532 -0.1769
  841SOL    HW1 3362   2.276   2.471  -0.015  0.4825 -0.3141  1.3847
  841SOL    HW2 3363   2.223   2.335   0.011 -0.2094 -1.2160 -0.2860
  841SOL     MW 3364   2.265   2.406   0.037 -0.1455 -0.6827  0.0148
  842SOL     OW 3365   2.664   1.985   1.431 -0.2210 -0.2551 -0.4128
  842SOL    HW1 3366   2.612   1.909   1.460 -0.9681  2.9812  0.1472
  842SOL    HW2 3367   2.643   2.013   1.338  2.3634  4.1014 -4.0601
  842SOL     MW 3368   2.654   1.978   1.423  0.0214  0.7467 -0.8201
  843SOL     OW 3369   2.659   2.764   1.780 -0.2642  0.1504 -0.1451
  843SOL    HW1 3370   2.749   2.724   1.782 -0.1796 -0.1866  0.4931
  843SOL    HW2 3371   2.597   2.694   1.750  0.5553 -0.5249 -0.5892
  843SOL     MW 3372   2.663   2.749   1.777 -0.1449  0.0168 -0.1195
  844SOL     OW 3373   2.715   2.337   1.168  0.6958 -0.1413 -0.0087
  844SOL    HW1 3374   2.741   2.340   1.076  0.1592  1.1045 -1.5427
  844SOL    HW2 3375   2.793   2.361   1.223 -1.3154 -1.9281 -2.7791
  844SOL     MW 3376   2.729   2.341   1.163  0.3596 -0.2127 -0.5766
  845SOL     OW 3377   2.847   2.600   0.320  0.2437 -0.2662 -0.4124
  845SOL    HW1 3378   2.820   2.507   0.333  0.7962  1.5055 -2.0272
  845SOL    HW2 3379   2.827   2.639   0.408  1.8393  3.4260  0.9560
  845SOL     MW 3380   2.841   2.593   0.333  0.5271  0.4547 -0.4449
  846SOL     OW 3381   1.510   2.796   0.852 -0.7265 -0.2865  0.6145
  846SOL    HW1 3382   1.598   2.825   0.832  0.5115 -2.1929  0.8207
  846SOL    HW2 3383   1.489   2.865   0.911 -0.7882 -0.7952 -1.3960
  846SOL     MW 3384   1.519   2.809   0.857 -0.5713 -0.6051  0.3765
  847SOL     OW 3385   2.481   1.886   0.149 -0.0926 -0.2404  0.0238
  847SOL    HW1 3386   2.450   1.811   0.204 -0.0241  1.6902 -1.2574
  847SOL    HW2 3387   2.470   1.873   0.052  1.1011 -0.1028  1.0309
  847SOL     MW 3388   2.475   1.875   0.144  0.0739  0.0325 -0.0124
  848SOL     OW 3389   2.561   2.116   1.201  0.8063 -0.1592  0.4191
  848SOL    HW1 3390   2.617   2.196   1.188  1.8406  0.3543  0.2774
  848SOL    HW2 3391   2.523   2.104   1.114 -1.9064  1.9000  0.7995
  848SOL     MW 3392   2.563   2.125   1.188  0.5849  0.1803  0.4506
  849SOL     OW 3393   2.011   2.756   0.804 -0.6005 -0.1045 -0.2758
  849SOL    HW1 3394   2.021   2.746   0.901 -2.2760 -0.6639  2.2600
  849SOL    HW2 3395   2.095   2.734   0.760 -1.7874  1.5606  0.9099
  849SOL     MW 3396   2.023   2.752   0.811 -0.9781  0.0414  0.2152
  850SOL     OW 3397   2.316   1.795   1.642  0.1479  0.2870 -0.3611
  850SOL    HW1 3398   2.225   1.766   1.626 -2.7449 -1.7563 -1.2531
  850SOL    HW2 3399   2.315   1.893   1.622 -0.2425  0.4517  1.3576
  850SOL     MW 3400   2.304   1.804   1.637 -0.2853  0.0391 -0.2520
  851SOL     OW 3401   2.373   2.356   0.322 -0.0471  0.1855  0.4144
  851SOL    HW1 3402   2.348   2.378   0.231  1.6977 -0.4000 -0.1935
  851SOL    HW2 3403   2.450   2.405   0.338 -0.5895  0.3656 -0.6773
  851SOL     MW 3404   2.380   2.365   0.312  0.1116  0.1320  0.1902
  852SOL     OW 3405   2.331   2.074   0.317  0.2605 -0.6477 -0.1361
  852SOL    HW1 3406   2.363   2.163   0.319 -0.6904 -0.8664 -0.9242
  852SOL    HW2 3407   2.392   2.041   0.252  0.5533  0.5108  2.5704
  852SOL     MW 3408   2.343   2.081   0.308  0.1737 -0.5237  0.1171
  853SOL     OW 3409   2.458   2.358   1.916  0.0615  0.2200  0.4785
  853SOL    HW1 3410   2.486   2.430   1.861 -1.4327 -2.5451  1.0850
  853SOL    HW2 3411   2.530   2.348   1.976 -1.4429 -1.5670 -0.8805
  853SOL     MW 3412   2.471   2.366   1.917 -0.3342 -0.3806  0.3792
  854SOL     OW 3413   2.861   2.232   0.724  0.0961 -0.3546 -0.2491
  854SOL    HW1 3414   2.777   2.231   0.676  0.4305  0.9967 -2.5735
  854SOL    HW2 3415   2.854   2.167   0.797  0.2743 -0.1843 -0.5634
  854SOL     MW 3416   2.849   2.223   0.727  0.1637 -0.1538 -0.5973
  855SOL     OW 3417   2.731   2.368   0.375  0.3967  0.0241  0.5716
  855SOL    HW1 3418   2.649   2.386   0.422  1.9014 -0.4609 -1.2842
  855SOL    HW2 3419   2.744   2.273   0.378 -0.6852  0.2385 -0.7937
  855SOL     MW 3420   2.722   2.358   0.382  0.4525 -0.0116  0.1466
  856SOL     OW 3421   2.103   1.885   0.200 -0.3992  0.1100 -0.3718
  856SOL    HW1 3422   2.013   1.888   0.243 -1.4550 -2.3210 -1.8903
  856SOL    HW2 3423   2.161   1.961   0.222 -0.0285  0.5109 -2.8202
  856SOL     MW 3424   2.099   1.896   0.209 -0.4896 -0.1578 -0.8952
  857SOL     OW 3425   2.495   1.953   0.547  0.2410  0.0740  0.2439
  857SOL    HW1 3426   2.417   1.969   0.494 -1.0093 -1.4571 -0.9227
  857SOL    HW2 3427   2.451   1.936   0.628  1.2922 -1.5024 -0.3970
  857SOL     MW 3428   2.479   1.953   0.551  0.2147 -0.3360  0.0054
  858SOL     OW 3429   2.892   2.661   1.791  0.5618  0.0193 -0.1639
  858SOL    HW1 3430   2.986   2.671   1.791 -0.3706 -1.6223 -0.2316
  858SOL    HW2 3431   2.871   2.563   1.791  1.5057 -0.6070  3.1107
  858SOL     MW 3432   2.902   2.649   1.791  0.5633 -0.2799  0.2592
  859SOL     OW 3433   1.974   2.721   1.065 -0.4920  1.1127 -0.3682
  859SOL    HW1 3434   1.949   2.630   1.038  0.6465  0.6963  0.5938
  859SOL    HW2 3435   2.056   2.714   1.120 -2.4263 -0.7548  2.1591
  859SOL     MW 3436   1.982   2.708   1.069 -0.5970  0.8114  0.0921
  860SOL     OW 3437   2.644   2.656   0.161 -0.9353  0.2147 -0.2555
  860SOL    HW1 3438   2.733   2.653   0.220  0.1986  0.3947  2.1670
  860SOL    HW2 3439   2.667   2.705   0.080 -2.2984 -1.9286  0.0399
  860SOL     MW 3440   2.659   2.662   0.158 -0.9655 -0.0444  0.1031
  861SOL     OW 3441   1.640   2.204   1.136  0.1357 -0.1100  0.2379
  861SOL    HW1 3442   1.649   2.267   1.212  0.8085  0.0179  2.4810
  861SOL    HW2 3443   1.569   2.147   1.169 -0.8462  1.9378  3.4149
  861SOL     MW 3444   1.632   2.205   1.150  0.0949  0.1771  0.9531
  862SOL     OW 3445   2.528   1.762   1.476  0.5545 -0.3721 -0.4019
  862SOL    HW1 3446   2.446   1.759   1.525  0.0773  1.5513 -1.7703
  862SOL    HW2 3447   2.499   1.742   1.384 -1.4148 -0.4762  1.5423
  862SOL     MW 3448   2.513   1.759   1.470  0.2317 -0.1321 -0.3259
  863SOL     OW 3449   2.993   1.779   1.018  0.4697 -0.1879 -0.0831
  863SOL    HW1 3450   3.048   1.746   1.085 -0.6130  1.2728 -0.9119
  863SOL    HW2 3451   2.979   1.867   1.049  1.1694  0.2710  0.2567
  863SOL     MW 3452   2.998   1.786   1.031  0.4191  0.0654 -0.1476
  864SOL     OW 3453   0.055   1.842   0.811 -0.8606  0.2963 -0.1597
  864SOL    HW1 3454  -0.006   1.825   0.882  0.4517 -3.7127 -1.4987
  864SOL    HW2 3455   0.015   1.813   0.732  2.8199  0.9289 -0.8229
  864SOL     MW 3456   0.042   1.836   0.810 -0.2019 -0.1492 -0.4239
  865SOL     OW 3457   2.630   2.152   0.062  0.1892 -0.0355  0.5995
  865SOL    HW1 3458   2.601   2.081   0.116  1.3078 -0.4423 -2.1166
  865SOL    HW2 3459   2.591   2.154  -0.025  2.1089  0.6483 -0.2274
  865SOL     MW 3460   2.621   2.143   0.058  0.5901  0.0010  0.1320
  866SOL     OW 3461   2.618   2.362   1.589  0.0661  0.2119 -0.6501
  866SOL    HW1 3462   2.628   2.269   1.627 -0.3787 -0.4832 -0.0158
  866SOL    HW2 3463   2.670   2.362   1.514 -1.0271  1.1998  1.1456
  866SOL     MW 3464   2.626   2.349   1.584 -0.1368  0.2506 -0.3295
  867SOL     OW 3465   0.078   2.692   1.754 -0.1113 -0.0418  0.3335
  867SOL    HW1 3466   0.149   2.743   1.792  0.6629 -1.1516 -2.9793
  867SOL    HW2 3467   0.065   2.753   1.678 -0.8632 -1.9273  0.6106
  867SOL     MW 3468   0.086   2.707   1.749 -0.1084 -0.4370 -0.0670
  868SOL     OW 3469   2.734   2.690   0.573 -0.2549 -0.1940 -0.1171
  868SOL    HW1 3470   2.677   2.618   0.569 -0.4988  2.6742 -1.4699
  868SOL    HW2 3471   2.673   2.755   0.534 -0.8552  1.5626 -2.4427
  868SOL     MW 3472   2.719   2.689   0.567 -0.3663  0.4162 -0.6024
  869SOL     OW 3473   2.098   2.419   1.003 -0.3122  0.3230 -0.2899
  869SOL    HW1 3474   2.186   2.378   0.997 -0.4006  0.4245 -1.2349
  869SOL    HW2 3475   2.048   2.362   0.948 -1.7048  1.2517  0.5695
  869SOL     MW 3476   2.103   2.406   0.995 -0.5076  0.4589 -0.3012
  870SOL     OW 3477   2.181   0.089   0.468  0.1836 -0.3874  0.1977
  870SOL    HW1 3478   2.257   0.123   0.409  1.5450  0.4703 -1.9525
  870SOL    HW2 3479   2.213  -0.002   0.474 -2.5494  0.7080  0.4232
  870SOL     MW 3480   2.195   0.081   0.461  0.0026 -0.1297 -0.0562
  871SOL     OW 3481   2.482   2.100   0.894  0.6978  0.4121 -0.5688
  871SOL    HW1 3482   2.419   2.037   0.852 -0.2750 -2.1659 -0.3160
  871SOL    HW2 3483   2.432   2.179   0.922  1.0748  0.0760 -3.7808
  871SOL     MW 3484   2.467   2.102   0.892  0.6192  0.0276 -0.9592
  872SOL     OW 3485   2.061   2.565   1.501 -0.0639  0.2356 -0.0821
  872SOL    HW1 3486   2.006   2.556   1.579 -0.8319  0.4465  0.8201
  872SOL    HW2 3487   2.059   2.490   1.449  3.5905  2.8958 -0.5912
  872SOL     MW 3488   2.053   2.554   1.505  0.3169  0.6144 -0.0302
  873SOL     OW 3489   2.847   2.106   1.889 -0.3130 -0.7054 -0.4631
  873SOL    HW1 3490   2.795   2.179   1.935 -1.0429 -2.5613  0.7018
  873SOL    HW2 3491   2.925   2.154   1.863 -2.4316  0.8813  1.1711
  873SOL     MW 3492   2.850   2.122   1.892 -0.6888 -0.7409 -0.0938
  874SOL     OW 3493   2.334   1.430   2.345 -0.4264  0.1784 -0.4745
  874SOL    HW1 3494   2.280   1.379   2.284  2.3847 -3.7572 -0.2836
  874SOL    HW2 3495   2.415   1.378   2.347 -0.4791  0.8547  1.6620
  874SOL     MW 3496   2.337   1.416   2.337 -0.0624 -0.2516 -0.1674
  875SOL     OW 3497   2.365   2.330   0.977  0.0127  0.2156 -0.1399
  875SOL    HW1 3498   2.397   2.382   0.903 -0.9417  0.1871  1.5167
  875SOL    HW2 3499   2.384   2.374   1.064 -1.3251 -1.2987  1.3586
  875SOL     MW 3500   2.372   2.343   0.978 -0.2897  0.0120  0.2764
  876SOL     OW 3501   3.059   2.246   1.277 -0.3122 -0.1201 -0.4608
  876SOL    HW1 3502   3.087   2.302   1.206  3.1137  1.8179  0.4100
  876SOL    HW2 3503   3.136   2.250   1.332  0.8080  0.5614 -0.3689
  876SOL     MW 3504   3.073   2.254   1.275  0.2876  0.2255 -0.3338
  877SOL     OW 3505   0.006   2.800   0.318  0.3936 -0.2073 -0.0531
  877SOL    HW1 3506   0.064   2.871   0.299  0.2650 -1.9148 -0.2998
  877SOL    HW2 3507   0.004   2.728   0.251 -1.0934 -2.4743  1.0628
  877SOL     MW 3508   0.013   2.800   0.306  0.1804 -0.7317  0.0616
  878SOL     OW 3509   2.414   1.732   1.233  0.2221  0.0490 -0.1748
  878SOL    HW1 3510   2.327   1.703   1.260 -0.4386  1.3746  0.3710
  878SOL    HW2 3511   2.449   1.649   1.207 -1.6277 -1.9288  2.2124
  878SOL     MW 3512   2.407   1.717   1.233 -0.1091 -0.0370  0.2122
  879SOL     OW 3513   2.770   2.406   0.896 -0.4888 -0.1848 -0.1894
  879SOL    HW1 3514   2.841   2.466   0.877  2.9273  0.2587  1.9240
  879SOL    HW2 3515   2.793   2.335   0.831 -1.0787 -0.5543 -2.3941
  879SOL     MW 3516   2.782   2.405   0.885 -0.1159 -0.1750 -0.2014
  880SOL     OW 3517   2.561   2.195   0.651 -0.1900  0.3099  0.1207
  880SOL    HW1 3518   2.545   2.161   0.744 -2.3499 -0.9236  1.5174
  880SOL    HW2 3519   2.561   2.106   0.599  0.3878 -4.1222 -3.0351
  880SOL     MW 3520   2.559   2.179   0.656 -0.3987 -0.4376 -0.1114
  881SOL     OW 3521   2.994   2.746   0.692 -0.4111  0.3878 -0.2202
  881SOL    HW1 3522   2.940   2.717   0.623  0.7274 -0.5719 -0.2386
  881SOL    HW2 3523   3.078   2.702   0.660  0.4462 -0.5861  0.3271
  881SOL     MW 3524   2.998   2.736   0.678 -0.1478  0.1327 -0.1504
  882SOL     OW 3525   2.263   2.868   1.970  0.4679 -0.2411  0.4037
  882SOL    HW1 3526   2.242   2.877   1.877  0.7641 -0.8304 -1.5974
  882SOL    HW2 3527   2.224   2.780   1.990 -0.4276 -0.1477  0.1492
  882SOL     MW 3528   2.255   2.858   1.960  0.3888 -0.3065  0.1061
  883SOL     OW 3529   2.364   2.216   1.354 -0.1048  0.8272  0.1383
  883SOL    HW1 3530   2.440   2.163   1.307  1.0755 -0.9641 -1.4140
  883SOL    HW2 3531   2.284   2.201   1.292 -0.9696 -1.0739 -1.1900
  883SOL     MW 3532   2.363   2.207   1.339 -0.0632  0.3400 -0.2418
  884SOL     OW 3533   2.004   1.793   1.078 -0.3559 -0.1567  0.7073
  884SOL    HW1 3534   1.957   1.875   1.071  1.8821  0.3943 -1.3400
  884SOL    HW2 3535   2.094   1.820   1.075 -0.3685 -0.7422 -1.2355
  884SOL     MW 3536   2.010   1.807   1.077 -0.0623 -0.1612  0.1809
  885SOL     OW 3537   2.813   2.395   1.771 -0.4369 -0.1411 -0.1796
  885SOL    HW1 3538   2.888   2.331   1.747  0.2348  0.2729 -0.2612
  885SOL    HW2 3539   2.746   2.388   1.703 -0.2083 -1.1700  1.1878
  885SOL     MW 3540   2.814   2.386   1.759 -0.3181 -0.2222 -0.0100
  886SOL     OW 3541   2.857   2.396   1.391  0.0675 -0.6961  0.0767
  886SOL    HW1 3542   2.942   2.371   1.363  1.6176  0.6302  1.1414
  886SOL    HW2 3543   2.872   2.488   1.411 -0.5659  0.0696 -1.5606
  886SOL     MW 3544   2.870   2.405   1.390  0.1885 -0.4201  0.0012
  887SOL     OW 3545   2.308   2.693   1.500  0.3609  0.0486 -0.1090
  887SOL    HW1 3546   2.349   2.725   1.418  1.0718  0.7370 -0.6488
  887SOL    HW2 3547   2.224   2.668   1.464  0.7071  1.1484 -1.1415
  887SOL     MW 3548   2.302   2.694   1.484  0.5004  0.2846 -0.3164
  888SOL     OW 3549   1.916   2.196   1.384  0.3846  0.1020  0.0331
  888SOL    HW1 3550   1.998   2.185   1.334 -0.5182 -0.5361  0.4014
  888SOL    HW2 3551   1.946   2.202   1.477 -1.9526 -1.1669  0.1428
  888SOL     MW 3552   1.931   2.195   1.389 -0.0429 -0.1496  0.0962
  889SOL     OW 3553   2.344   2.006   2.034 -0.2665  0.0392  0.1379
  889SOL    HW1 3554   2.427   1.999   2.083 -0.1560  0.5339 -1.1893
  889SOL    HW2 3555   2.364   2.047   1.947  0.5639  1.0260 -0.2290
  889SOL     MW 3556   2.357   2.010   2.029 -0.1423  0.2346 -0.0856
  890SOL     OW 3557   0.123   2.345   0.151 -0.2395 -0.0239 -0.5566
  890SOL    HW1 3558   0.088   2.430   0.187  0.0687 -0.1019  1.1956
  890SOL    HW2 3559   0.082   2.277   0.208 -0.0017  1.1856 -1.8997
  890SOL     MW 3560   0.113   2.347   0.164 -0.1674  0.1254 -0.5026
  891SOL     OW 3561   2.993   1.992   1.225 -0.1957  0.0209 -0.0874
  891SOL    HW1 3562   3.070   1.940   1.223 -2.6151  0.9114 -2.7792
  891SOL    HW2 3563   3.039   2.071   1.248 -1.8812  0.9814 -2.3743
  891SOL     MW 3564   3.009   1.995   1.227 -0.7373  0.2651 -0.7443
  892SOL     OW 3565   2.463   2.368   2.787  0.1910  0.0959  0.5777
  892SOL    HW1 3566   2.465   2.282   2.823 -4.4177 -0.2727 -3.1379
  892SOL    HW2 3567   2.550   2.415   2.811  0.5821  1.2566 -1.6056
  892SOL     MW 3568   2.475   2.363   2.795 -0.3655  0.2004 -0.2006
  893SOL     OW 3569   1.645   2.400   1.315  0.0862 -0.3938  0.4860
  893SOL    HW1 3570   1.558   2.414   1.358  1.7620  0.7297  0.2146
  893SOL    HW2 3571   1.687   2.479   1.350  1.8175 -1.2270 -0.9697
  893SOL     MW 3572   1.639   2.413   1.326  0.5357 -0.3555  0.2581
  894SOL     OW 3573   2.734   1.827   0.460  0.4563 -0.1153  0.1803
  894SOL    HW1 3574   2.650   1.878   0.467 -3.1966  0.2948 -0.2437
  894SOL    HW2 3575   2.748   1.809   0.369 -0.1983 -2.3058  5.3193
  894SOL     MW 3576   2.725   1.832   0.449 -0.1121 -0.3502  0.8024
  895SOL     OW 3577   2.147   2.176   1.190  0.4577 -0.3149 -0.7447
  895SOL    HW1 3578   2.106   2.244   1.136  1.0458  1.9521 -0.5160
  895SOL    HW2 3579   2.141   2.105   1.129  2.7524  2.1939 -2.8214
  895SOL     MW 3580   2.141   2.176   1.174  0.8380  0.3152 -0.9885
  896SOL     OW 3581   2.241   2.828   1.091 -0.2033 -0.2592 -0.5110
  896SOL    HW1 3582   2.312   2.791   1.151  0.0820 -1.2276  0.0052
  896SOL    HW2 3583   2.185   2.900   1.136 -0.6847 -1.9085 -0.1465
  896SOL     MW 3584   2.243   2.833   1.105 -0.2292 -0.6046 -0.3948
  897SOL     OW 3585   3.097   3.026   3.060  0.1654  0.2729  0.3185
  897SOL    HW1 3586   3.160   2.954   3.060 -1.8286 -2.7913  0.3724
  897SOL    HW2 3587   3.014   2.995   3.028 -0.4951 -3.2005 -1.5395
  897SOL     MW 3588   3.094   3.013   3.056 -0.1848 -0.5897  0.0804
  898SOL     OW 3589   2.029   0.164   1.437  0.3066 -0.2663 -0.1117
  898SOL    HW1 3590   2.006   0.078   1.475 -0.8927 -0.7756 -1.3552
  898SOL    HW2 3591   2.029   0.153   1.339 -0.5452 -1.7122 -1.7691
  898SOL     MW 3592   2.026   0.152   1.429  0.0360 -0.5243 -0.4944
  899SOL     OW 3593   2.968   3.015   0.614 -0.4702  0.0502  0.2177
  899SOL    HW1 3594   2.986   2.924   0.645 -2.2699 -3.1297  1.7615
  899SOL    HW2 3595   2.873   3.030   0.632 -1.5607  0.0907 -1.8767
  899SOL     MW 3596   2.957   3.005   0.621 -0.8515 -0.3640  0.1451
  900SOL     OW 3597   0.067   2.414   1.100  0.2616 -0.1059 -0.2152
  900SOL    HW1 3598   0.057   2.511   1.107 -0.9964  0.0146 -0.5001
  900SOL    HW2 3599   0.070   2.398   1.004  0.5661 -0.0267  0.2127
  900SOL     MW 3600   0.066   2.425   1.088  0.1358 -0.0795 -0.1963
  901SOL     OW 3601   1.745   2.804   1.787  0.1679  0.6534  0.2320
  901SOL    HW1 3602   1.821   2.754   1.759 -4.7314  1.2867  1.4243
  901SOL    HW2 3603   1.680   2.803   1.717 -0.4956 -2.9222  1.2384
  901SOL     MW 3604   1.747   2.797   1.774 -0.5661  0.2652  0.5221
  902SOL     OW 3605   2.657   2.104   1.684  0.2067  0.2684 -1.2084
  902SOL    HW1 3606   2.675   2.038   1.613 -1.2476  0.6088  1.4968
  902SOL    HW2 3607   2.724   2.078   1.752 -0.1748 -2.1442 -1.4928
  902SOL     MW 3608   2.668   2.092   1.684 -0.0355 -0.0050 -0.8890
  903SOL     OW 3609   1.542   2.613   0.633 -0.6016  0.3725  0.0181
  903SOL    HW1 3610   1.609   2.587   0.692 -1.5138 -0.2394  0.4682
  903SOL    HW2 3611   1.512   2.678   0.694  2.0539 -0.7408 -1.0872
  903SOL     MW 3612   1.547   2.618   0.649 -0.3716  0.1449 -0.0683
  904SOL     OW 3613   2.484   2.542   1.714 -0.0816 -0.0348  0.3971
  904SOL    HW1 3614   2.413   2.576   1.657  0.3423  0.0118 -0.9720
  904SOL    HW2 3615   2.526   2.474   1.657  1.3141  3.7285  1.2345
  904SOL     MW 3616   2.480   2.538   1.699  0.1585  0.4679  0.3269
  905SOL     OW 3617   2.318   2.485   2.093 -0.2363 -0.0440  0.2395
  905SOL    HW1 3618   2.362   2.418   2.040  0.1821 -1.0793 -1.1245
  905SOL    HW2 3619   2.278   2.418   2.162  0.5121 -1.9467 -2.2931
  905SOL     MW 3620   2.319   2.468   2.095 -0.0823 -0.4316 -0.2746
  906SOL     OW 3621   2.518   2.506   0.811 -0.2709 -0.0255 -0.3471
  906SOL    HW1 3622   2.605   2.469   0.836  2.0406 -3.3087 -4.0828
  906SOL    HW2 3623   2.500   2.579   0.866 -0.8037  0.3943 -2.0012
  906SOL     MW 3624   2.527   2.511   0.822 -0.0362 -0.4033 -1.0582
  907SOL     OW 3625   2.662   2.878   1.274  0.4631  0.1684  0.0553
  907SOL    HW1 3626   2.721   2.952   1.292 -0.5531  2.5436 -1.5042
  907SOL    HW2 3627   2.703   2.856   1.187  0.5600 -1.4826  1.6959
  907SOL     MW 3628   2.676   2.885   1.265  0.3418  0.2640  0.0660
  908SOL     OW 3629   2.727   2.416   3.091  0.3642  0.4208  0.2142
  908SOL    HW1 3630   2.689   2.334   3.133  1.4661 -1.0547  0.7207
  908SOL    HW2 3631   2.698   2.494   3.140 -0.2440 -0.0461 -0.7289
  908SOL     MW 3632   2.718   2.416   3.103  0.4294  0.1645  0.1566
  909SOL     OW 3633   1.766   0.106   1.215  0.1009  0.4435  0.3135
  909SOL    HW1 3634   1.761   0.172   1.151 -0.3761  0.8778  2.0205
  909SOL    HW2 3635   1.735   0.153   1.291 -2.4854  2.1508  2.1266
  909SOL     MW 3636   1.761   0.121   1.216 -0.3032  0.7261  0.7779
  910SOL     OW 3637   2.208   1.690   0.417 -0.2259 -0.4767 -0.1800
  910SOL    HW1 3638   2.159   1.606   0.414  2.7735 -1.8901  0.9770
  910SOL    HW2 3639   2.168   1.737   0.341 -2.6383 -2.0409  0.9676
  910SOL     MW 3640   2.196   1.685   0.407 -0.1485 -0.8695  0.1241
  911SOL     OW 3641   2.288   2.053   1.557  0.4324 -0.3324  0.1312
  911SOL    HW1 3642   2.341   2.082   1.632 -0.5913  1.2142 -0.9865
  911SOL    HW2 3643   2.319   2.111   1.478  0.8149  0.0098 -1.3642
  911SOL     MW 3644   2.299   2.064   1.556  0.3478 -0.0832 -0.2136
  912SOL     OW 3645   2.907   1.887   1.457 -0.3203 -0.4625 -0.8557
  912SOL    HW1 3646   2.949   1.933   1.374 -0.2526  0.4349  0.3964
  912SOL    HW2 3647   2.815   1.906   1.435  1.7523 -3.9689 -0.5300
  912SOL     MW 3648   2.901   1.895   1.443 -0.0379 -0.8068 -0.6475
  913SOL     OW 3649   2.643   3.081   0.328  0.4136  0.1195 -0.9775
  913SOL    HW1 3650   2.726   3.048   0.302 -1.0687 -2.3715 -0.4161
  913SOL    HW2 3651   2.573   3.031   0.278  1.2232  0.4883 -0.8598
  913SOL     MW 3652   2.645   3.070   0.318  0.3249 -0.1605 -0.8879
  914SOL     OW 3653   2.683   1.856   3.040 -0.2034 -0.3896 -0.5313
  914SOL    HW1 3654   2.721   1.942   3.025  0.6559  0.3869 -2.2910
  914SOL    HW2 3655   2.598   1.854   3.003 -0.6477  0.2014  1.8931
  914SOL     MW 3656   2.677   1.867   3.033 -0.1486 -0.2092 -0.4436
  915SOL     OW 3657   1.776   0.164   0.195  0.1498  0.3403 -0.8407
  915SOL    HW1 3658   1.852   0.100   0.216 -0.9663  0.1574 -1.5754
  915SOL    HW2 3659   1.697   0.110   0.209 -1.2420 -1.0693 -0.5236
  915SOL     MW 3660   1.776   0.149   0.200 -0.1811  0.1302 -0.8958
  916SOL     OW 3661   1.743   2.175   2.012 -0.5799  0.0811  0.6594
  916SOL    HW1 3662   1.812   2.241   2.000 -0.7520  0.9029  1.9019
  916SOL    HW2 3663   1.760   2.123   1.936 -0.6799  1.5521  0.4530
  916SOL     MW 3664   1.754   2.177   2.000 -0.6158  0.3836  0.7961
  917SOL     OW 3665   2.517   2.213   2.553  0.2246  0.3629  0.3674
  917SOL    HW1 3666   2.498   2.263   2.633 -0.4878  0.6526  0.8589
  917SOL    HW2 3667   2.595   2.245   2.512  2.9177 -0.3099  1.4887
  917SOL     MW 3668   2.525   2.224   2.558  0.4859  0.3123  0.5802
  918SOL     OW 3669   2.016   1.598   2.682  0.4454  0.2235 -0.1355
  918SOL    HW1 3670   1.949   1.635   2.617  0.5658 -0.6449 -1.2532
  918SOL    HW2 3671   2.097   1.648   2.666  0.3044 -0.6807 -1.3139
  918SOL     MW 3672   2.018   1.609   2.671  0.4426 -0.0104 -0.4385
  919SOL     OW 3673   3.056   2.413   2.270  0.3903 -0.3185 -0.8462
  919SOL    HW1 3674   3.000   2.335   2.281 -0.0512  0.8739  1.1865
  919SOL    HW2 3675   3.110   2.406   2.182  1.4502 -0.5416 -0.6857
  919SOL     MW 3676   3.056   2.402   2.260  0.4719 -0.1906 -0.5568
  920SOL     OW 3677   2.693   2.848   3.048  0.5677 -0.2901 -0.6842
  920SOL    HW1 3678   2.599   2.834   3.028 -1.7884  0.3264  2.1698
  920SOL    HW2 3679   2.723   2.794   2.976  0.4625 -1.9266 -1.9642
  920SOL     MW 3680   2.684   2.839   3.036  0.2430 -0.4247 -0.4765
  921SOL     OW 3681   2.425   2.593   2.606 -0.2336 -0.1720  0.1054
  921SOL    HW1 3682   2.505   2.598   2.555 -1.4818 -1.1344 -0.3617
  921SOL    HW2 3683   2.429   2.516   2.662 -1.1027 -1.7482  0.5949
  921SOL     MW 3684   2.436   2.584   2.606 -0.5129 -0.5070  0.1083
  922SOL     OW 3685   2.036   2.788   0.334  0.0804 -0.3499  0.1652
  922SOL    HW1 3686   1.984   2.782   0.254  1.5681  0.9698 -0.4184
  922SOL    HW2 3687   2.055   2.696   0.359  0.4414 -2.3436  1.5496
  922SOL     MW 3688   2.031   2.775   0.327  0.3243 -0.4389  0.2709
  923SOL     OW 3689   2.203   2.869   1.678 -0.3594 -0.5112 -0.5459
  923SOL    HW1 3690   2.242   2.828   1.602  0.0622  2.0378  0.5392
  923SOL    HW2 3691   2.137   2.930   1.650  0.6728  0.2607  0.1638
  923SOL     MW 3692   2.199   2.871   1.664 -0.1676 -0.0731 -0.3091
  924SOL     OW 3693   1.125   2.760   2.624 -0.3695 -0.1931 -0.3054
  924SOL    HW1 3694   1.220   2.764   2.621 -1.5453  3.1137 -0.9891
  924SOL    HW2 3695   1.107   2.696   2.691 -0.6638 -2.9001  1.0491
  924SOL     MW 3696   1.135   2.752   2.633 -0.5634 -0.1139 -0.2169
  925SOL     OW 3697   3.024   0.227   2.695 -0.5919  0.2567  0.2151
  925SOL    HW1 3698   2.991   0.249   2.601 -0.9488  0.1434 -0.3499
  925SOL    HW2 3699   2.985   0.289   2.750 -2.1117 -0.0544 -1.3581
  925SOL     MW 3700   3.015   0.238   2.690 -0.8395  0.2007 -0.0670
  926SOL     OW 3701   2.714   2.354   2.020  0.7698 -0.7728 -0.1368
  926SOL    HW1 3702   2.745   2.431   2.072  0.3176  1.5986  1.2828
  926SOL    HW2 3703   2.749   2.390   1.933  0.6727  1.3289 -1.8387
  926SOL     MW 3704   2.723   2.369   2.015  0.6974 -0.1826 -0.1741
  927SOL     OW 3705   2.355   0.182   0.291  0.2354 -0.4849 -0.3181
  927SOL    HW1 3706   2.444   0.222   0.296  0.6607  2.3296 -0.8189
  927SOL    HW2 3707   2.345   0.126   0.205  1.7805 -2.4851 -0.3570
  927SOL     MW 3708   2.366   0.180   0.281  0.4954 -0.3774 -0.3893
  928SOL     OW 3709   2.173   2.437   1.756  0.2672 -0.4990  0.1471
  928SOL    HW1 3710   2.153   2.505   1.696  0.9564 -0.3534  0.4533
  928SOL    HW2 3711   2.262   2.446   1.790  0.0225  0.2541 -1.9453
  928SOL     MW 3712   2.182   2.447   1.752  0.3258 -0.3804 -0.0886
  929SOL     OW 3713   2.727   2.360   2.481 -0.4946  0.5969  0.1055
  929SOL    HW1 3714   2.756   2.309   2.406  2.3099 -1.4422  1.5002
  929SOL    HW2 3715   2.802   2.371   2.543  1.6868 -0.2615  0.7967
  929SOL     MW 3716   2.741   2.354   2.479  0.1632  0.2146  0.3807
  930SOL     OW 3717   2.000   2.833   2.608 -0.0539 -0.2606 -0.5565
  930SOL    HW1 3718   2.011   2.777   2.693  0.7367  0.0561  0.7254
  930SOL    HW2 3719   2.076   2.890   2.609  1.0408  2.4901 -0.1753
  930SOL     MW 3720   2.011   2.833   2.619  0.1948  0.1441 -0.3371
  931SOL     OW 3721   3.084   2.755   2.479  0.7477  0.3287 -0.2499
  931SOL    HW1 3722   3.108   2.776   2.571 -0.4383  1.2951  0.2657
  931SOL    HW2 3723   3.162   2.772   2.435 -1.1098 -2.2184  2.2308
  931SOL     MW 3724   3.097   2.760   2.485  0.3462  0.1201  0.1454
  932SOL     OW 3725   2.900   1.857   2.482 -0.3406  0.0662 -0.0207
  932SOL    HW1 3726   2.976   1.915   2.493 -1.6590  2.2222  0.7696
  932SOL    HW2 3727   2.852   1.896   2.408  1.2201  0.6850 -2.1642
  932SOL     MW 3728   2.904   1.869   2.474 -0.3086  0.4323 -0.1993
  933SOL     OW 3729   2.038   2.779   2.215  0.2444  0.2768  0.4799
  933SOL    HW1 3730   2.109   2.840   2.241 -2.8592 -2.0749 -1.5063
  933SOL    HW2 3731   1.960   2.827   2.195 -0.4115 -0.5613  0.0385
  933SOL     MW 3732   2.037   2.793   2.216 -0.2517 -0.1440  0.1596
  934SOL     OW 3733   1.988   2.635   2.429 -0.1451 -0.4681  0.2995
  934SOL    HW1 3734   2.003   2.683   2.512  1.7596 -1.4514  4.3235
  934SOL    HW2 3735   2.012   2.691   2.354  0.7683 -1.3387  2.2016
  934SOL     MW 3736   1.993   2.649   2.430  0.2268 -0.7127  1.0814
  935SOL     OW 3737   2.682   1.585   1.834  0.1443  0.0908 -0.7531
  935SOL    HW1 3738   2.768   1.560   1.799 -0.7899 -0.7987  0.4185
  935SOL    HW2 3739   2.628   1.579   1.744  3.5729 -1.9288  1.1792
  935SOL     MW 3740   2.686   1.581   1.817  0.4734 -0.2930 -0.3436
  936SOL     OW 3741   2.993   2.283   0.009 -0.1801 -0.0184 -0.2685
  936SOL    HW1 3742   3.051   2.325   0.072  0.7364  1.3650  1.4018
  936SOL    HW2 3743   2.908   2.327   0.006 -0.2391 -1.3805 -0.4928
  936SOL     MW 3744   2.989   2.294   0.017 -0.0670 -0.0156 -0.0778
  937SOL     OW 3745   2.019   2.152   2.693 -0.0777 -0.0921  0.2537
  937SOL    HW1 3746   2.106   2.105   2.700  2.6428 -1.4354  1.3900
  937SOL    HW2 3747   2.000   2.136   2.600  0.2983  1.2360  2.2289
  937SOL     MW 3748   2.028   2.144   2.682  0.3309 -0.0941  0.6642
  938SOL     OW 3749   2.277   1.759   1.901  0.2719 -0.2225  0.2954
  938SOL    HW1 3750   2.299   1.769   1.807  0.0074 -2.3193  1.1771
  938SOL    HW2 3751   2.291   1.843   1.944 -0.7362 -1.2248 -0.4352
  938SOL     MW 3752   2.282   1.771   1.894  0.1040 -0.6314  0.3153
  939SOL     OW 3753   2.797   1.970   2.260  0.3067 -0.1692 -0.0485
  939SOL    HW1 3754   2.822   1.912   2.185 -0.1487 -0.2093  1.4351
  939SOL    HW2 3755   2.701   1.954   2.275  2.6093  2.0594 -1.4410
  939SOL     MW 3756   2.787   1.960   2.252  0.5504  0.1195 -0.0365
  940SOL     OW 3757   2.275   0.131   2.691 -0.7357  0.5075 -0.3648
  940SOL    HW1 3758   2.288   0.043   2.646  2.5366  1.2481  0.9002
  940SOL    HW2 3759   2.344   0.141   2.755  0.7183  0.9340 -1.5985
  940SOL     MW 3760   2.286   0.121   2.693 -0.1121  0.6615 -0.3607
  941SOL     OW 3761   0.152   2.417   2.059  0.1535 -0.3063 -0.7003
  941SOL    HW1 3762   0.234   2.375   2.062  2.0554 -0.6539  4.2582
  941SOL    HW2 3763   0.125   2.405   1.968  0.9005  0.1460  1.2853
  941SOL     MW 3764   0.159   2.410   2.048  0.5030 -0.2925  0.2159
  942SOL     OW 3765   2.850   2.231   2.257  0.4451  0.0511 -0.4177
  942SOL    HW1 3766   2.794   2.256   2.184  0.1747 -0.2022 -1.7709
  942SOL    HW2 3767   2.831   2.128   2.248 -1.6373 -2.2240 -0.1808
  942SOL     MW 3768   2.840   2.221   2.247  0.1346 -0.2825 -0.5650
  943SOL     OW 3769   0.229   2.112   2.294 -0.0595 -0.2912  0.0217
  943SOL    HW1 3770   0.223   2.174   2.366 -0.2077  0.3115  0.4170
  943SOL    HW2 3771   0.323   2.071   2.294  1.9435  1.4098 -0.9776
  943SOL     MW 3772   0.240   2.115   2.304  0.1852  0.0127 -0.0580
  944SOL     OW 3773   2.102   2.638   2.004  0.2527 -0.0756 -0.4949
  944SOL    HW1 3774   2.159   2.569   2.042 -2.5466  0.7836  0.1053
  944SOL    HW2 3775   2.062   2.684   2.076 -2.0219  0.7007 -2.1294
  944SOL     MW 3776   2.104   2.635   2.019 -0.4168  0.1402 -0.6314
  945SOL     OW 3777   2.800   2.709   2.849  0.3835  0.5688 -0.0817
  945SOL    HW1 3778   2.756   2.625   2.857  2.0880  3.4494 -1.8259
  945SOL    HW2 3779   2.778   2.734   2.758 -1.2701  0.1394 -0.8499
  945SOL     MW 3780   2.791   2.701   2.838  0.3902  0.8922 -0.4132
  946SOL     OW 3781   2.435   2.673   2.232  0.0448 -0.2210 -0.3253
  946SOL    HW1 3782   2.473   2.734   2.164 -4.8403 -4.7923  1.4662
  946SOL    HW2 3783   2.396   2.612   2.170 -2.1944 -0.1874 -0.2639
  946SOL     MW 3784   2.435   2.673   2.215 -0.8952 -0.8197 -0.0808
  947SOL     OW 3785   1.990   0.005   0.263  0.4183  0.2880 -0.1335
  947SOL    HW1 3786   1.982  -0.090   0.234  1.8056 -3.2320  0.7644
  947SOL    HW2 3787   2.054   0.012   0.331  0.4357 -0.0064 -2.2298
  947SOL     MW 3788   1.997  -0.006   0.268  0.6036 -0.2153 -0.2916
  948SOL     OW 3789   1.804   2.996   2.697  0.0245  0.0815  0.2160
  948SOL    HW1 3790   1.811   2.898   2.695  1.1731 -1.4642 -0.2577
  948SOL    HW2 3791   1.803   3.028   2.609  1.3369 -0.6239 -0.9863
  948SOL     MW 3792   1.805   2.988   2.685  0.3492 -0.2155 -0.0051
  949SOL     OW 3793   2.518   1.963   2.319 -0.5674  0.2421 -0.3578
  949SOL    HW1 3794   2.517   1.875   2.365 -0.6028 -1.1836 -0.4130
  949SOL    HW2 3795   2.465   2.024   2.367 -0.3481 -0.2160  0.2837
  949SOL     MW 3796   2.511   1.959   2.331 -0.5431 -0.0065 -0.2805
  950SOL     OW 3797   2.285   2.582   2.940 -0.0501 -0.0773 -0.2005
  950SOL    HW1 3798   2.320   2.513   2.886 -1.7332 -0.1291 -0.5615
  950SOL    HW2 3799   2.208   2.618   2.881  2.2639  0.3388  0.3383
  950SOL     MW 3800   2.280   2.578   2.925  0.0332 -0.0293 -0.1771
  951SOL     OW 3801   3.073   2.209   2.844 -0.0360  0.4021  0.5234
  951SOL    HW1 3802   3.031   2.225   2.932  1.5629  1.3295 -1.2265
  951SOL    HW2 3803   3.094   2.116   2.851  0.3264  1.1347 -0.5965
  951SOL     MW 3804   3.070   2.199   2.857  0.2228  0.6211  0.1447
  952SOL     OW 3805   3.052   1.652   2.097 -0.5253  0.2150  0.0924
  952SOL    HW1 3806   2.982   1.708   2.059 -0.1035 -0.9604  0.1977
  952SOL    HW2 3807   3.101   1.702   2.165  1.0283  0.9161  1.3755
  952SOL     MW 3808   3.049   1.666   2.101 -0.2647  0.1524  0.2756
  953SOL     OW 3809   1.946   1.787   2.875  0.3701 -0.0335  0.4714
  953SOL    HW1 3810   1.886   1.739   2.930  2.5569 -2.4115  0.8365
  953SOL    HW2 3811   1.978   1.725   2.800 -2.8190  1.3495  1.1029
  953SOL     MW 3812   1.943   1.772   2.872  0.2379 -0.1648  0.6029
  954SOL     OW 3813   2.470   2.122   2.917  0.5369  0.1161  0.5408
  954SOL    HW1 3814   2.373   2.112   2.888 -2.7735 -0.2940 -1.0855
  954SOL    HW2 3815   2.518   2.068   2.854  0.8360 -2.4799 -2.3308
  954SOL     MW 3816   2.463   2.114   2.905  0.1396 -0.2806 -0.0527
  955SOL     OW 3817   1.551   1.620   2.524 -0.0396 -0.5723 -0.0295
  955SOL    HW1 3818   1.538   1.671   2.443 -2.1281  2.8293  0.1342
  955SOL    HW2 3819   1.642   1.651   2.552  1.6703  0.8983  1.9519
  955SOL     MW 3820   1.561   1.630   2.517 -0.0896  0.0705  0.2536
  956SOL     OW 3821   2.714   2.454   2.831 -0.3300  0.5738 -0.1590
  956SOL    HW1 3822   2.732   2.417   2.928  2.4379  0.7570 -1.1002
  956SOL    HW2 3823   2.783   2.413   2.777 -0.8752 -2.2063  2.6443
  956SOL     MW 3824   2.725   2.443   2.837 -0.0367  0.2311  0.0867
  957SOL     OW 3825   2.250   2.923   0.461  1.0498 -0.3451  0.5037
  957SOL    HW1 3826   2.188   2.881   0.396 -2.4431 -0.0155  0.0845
  957SOL    HW2 3827   2.253   2.865   0.538 -4.2773  1.5483  1.1201
  957SOL     MW 3828   2.242   2.909   0.463 -0.1139 -0.0518  0.5297
  958SOL     OW 3829   2.038   2.668   2.833  0.0618  0.1291 -0.1417
  958SOL    HW1 3830   2.001   2.589   2.784  2.7769 -0.4072  0.8404
  958SOL    HW2 3831   1.984   2.674   2.915  0.4694 -0.2570 -0.6847
  958SOL     MW 3832   2.026   2.658   2.837  0.4738  0.0074 -0.0837
  959SOL     OW 3833   2.510   2.796   0.442 -0.0467 -0.0569  0.7396
  959SOL    HW1 3834   2.522   2.794   0.344  3.9003 -0.0886  0.4005
  959SOL    HW2 3835   2.443   2.869   0.447  0.3165  3.9602 -0.7370
  959SOL     MW 3836   2.503   2.806   0.430  0.5220  0.4690  0.5000
  960SOL     OW 3837   1.940   2.287   2.335  0.2538  0.1435  0.0171
  960SOL    HW1 3838   1.936   2.197   2.373  1.3548  2.0716  1.1005
  960SOL    HW2 3839   1.892   2.345   2.394  0.0882 -0.0200  0.9767
  960SOL     MW 3840   1.933   2.283   2.348  0.3772  0.3763  0.2866
  961SOL     OW 3841   2.211   2.328   2.274  0.5479 -0.0587  0.2846
  961SOL    HW1 3842   2.122   2.296   2.290  0.8948  1.2858 -0.3994
  961SOL    HW2 3843   2.216   2.387   2.344  2.0862  0.2914 -1.8264
  961SOL     MW 3844   2.200   2.332   2.285  0.7966  0.1649 -0.0842
  962SOL     OW 3845   2.232   2.013   2.755 -0.0987  0.2825  0.5731
  962SOL    HW1 3846   2.178   1.999   2.831 -2.7870  5.8323  0.6952
  962SOL    HW2 3847   2.233   1.927   2.718 -0.4091  3.4313  1.7369
  962SOL     MW 3848   2.225   2.000   2.760 -0.4944  1.4302  0.7428
  963SOL     OW 3849   1.782   2.481   2.131 -0.1300  0.0502 -0.0245
  963SOL    HW1 3850   1.817   2.426   2.200 -0.7865  0.0877  2.1567
  963SOL    HW2 3851   1.809   2.444   2.046 -1.0148  0.9343 -0.1811
  963SOL     MW 3852   1.790   2.469   2.129 -0.3334  0.1718  0.2426
  964SOL     OW 3853   1.833   1.977   2.723  0.0702 -0.2030 -0.3424
  964SOL    HW1 3854   1.893   2.051   2.725 -1.5795  1.5536 -0.8163
  964SOL    HW2 3855   1.871   1.911   2.794 -0.5488  0.6270 -0.6859
  964SOL     MW 3856   1.846   1.978   2.732 -0.2291  0.1382 -0.4502
  965SOL     OW 3857   2.251   2.717   0.671 -0.1861 -0.3377  0.5537
  965SOL    HW1 3858   2.253   2.626   0.645 -0.4190  0.6468  0.6448
  965SOL    HW2 3859   2.299   2.725   0.755  0.4033  0.5440 -1.0305
  965SOL     MW 3860   2.258   2.706   0.678 -0.1391 -0.0915  0.3567
  966SOL     OW 3861   2.664   2.607   2.383  0.2343  0.0200 -0.1023
  966SOL    HW1 3862   2.582   2.594   2.335  0.8571 -0.1259  0.7265
  966SOL    HW2 3863   2.702   2.525   2.421  2.2687 -1.3474 -1.0676
  966SOL     MW 3864   2.658   2.594   2.382  0.5849 -0.1797 -0.1203
  967SOL     OW 3865   2.823   3.068   2.932  0.2910 -0.2187  0.4927
  967SOL    HW1 3866   2.775   3.005   2.989  0.6677  0.9204 -1.5671
  967SOL    HW2 3867   2.759   3.062   2.859 -0.3736 -0.0174  0.8753
  967SOL     MW 3868   2.808   3.059   2.930  0.2530 -0.0419  0.2714
  968SOL     OW 3869   3.040   2.629   2.999  0.2916  0.2734  0.4438
  968SOL    HW1 3870   2.967   2.681   2.961 -2.2016 -1.3912 -1.5443
  968SOL    HW2 3871   3.063   2.567   2.927 -1.3815  0.8904 -0.1631
  968SOL     MW 3872   3.033   2.628   2.985 -0.2581  0.1352  0.1014
  969SOL     OW 3873   1.605   2.200   1.693  0.0000  0.2542  0.3315
  969SOL    HW1 3874   1.680   2.140   1.695 -0.4179 -0.0409  1.8195
  969SOL    HW2 3875   1.559   2.211   1.780 -0.7751  0.0452 -2.4902
  969SOL     MW 3876   1.609   2.193   1.705 -0.1574  0.1877  0.1556
  970SOL     OW 3877   1.782   1.827   1.907  0.0295 -0.0172 -0.2630
  970SOL    HW1 3878   1.825   1.766   1.964 -0.7446  1.5006  1.3936
  970SOL    HW2 3879   1.685   1.825   1.920  0.0970  3.3043 -0.4927
  970SOL     MW 3880   1.775   1.819   1.916 -0.0637  0.6213 -0.0747
  971SOL     OW 3881   1.773   3.068   2.408  0.4760 -0.4353  0.3621
  971SOL    HW1 3882   1.822   3.024   2.333 -1.3792 -0.1232 -2.7538
  971SOL    HW2 3883   1.806   3.154   2.410  0.7397 -1.5870 -1.1746
  971SOL     MW 3884   1.784   3.073   2.398  0.2660 -0.5460 -0.2518
  972SOL     OW 3885   0.260   2.867   2.464 -0.2191 -0.6010 -0.5079
  972SOL    HW1 3886   0.331   2.806   2.463  1.4606 -0.1870  0.0675
  972SOL    HW2 3887   0.296   2.958   2.495  1.2921  1.7876  0.0294
  972SOL     MW 3888   0.274   2.871   2.468  0.2019 -0.2312 -0.3611
  973SOL     OW 3889   2.616   3.072   2.111 -0.1192  0.1264 -0.2047
  973SOL    HW1 3890   2.599   2.978   2.083 -0.4578 -0.0206 -0.0930
  973SOL    HW2 3891   2.610   3.122   2.032  0.1357  0.1910  0.7504
  973SOL     MW 3892   2.613   3.066   2.097 -0.1303  0.1156 -0.0639
  974SOL     OW 3893   1.988   0.148   2.684 -0.4921 -0.1016 -0.7832
  974SOL    HW1 3894   2.085   0.138   2.672 -0.2983  0.1499  0.3849
  974SOL    HW2 3895   1.968   0.088   2.759 -0.6030 -2.2069 -1.0454
  974SOL     MW 3896   1.998   0.139   2.692 -0.4812 -0.3462 -0.6636
  975SOL     OW 3897   2.207   2.484   2.499  0.2532  0.2608  0.0462
  975SOL    HW1 3898   2.280   2.537   2.531 -1.6128  0.5628  1.1717
  975SOL    HW2 3899   2.135   2.547   2.469 -1.9923 -0.6209 -0.9125
  975SOL     MW 3900   2.207   2.499   2.499 -0.2893  0.1843  0.0682
  976SOL     OW 3901   0.158   0.359   1.740  0.6222 -0.9754 -0.2839
  976SOL    HW1 3902   0.226   0.313   1.783 -1.8176  0.7489 -0.7863
  976SOL    HW2 3903   0.077   0.297   1.740 -3.2099  0.4107  3.3721
  976SOL     MW 3904   0.157   0.344   1.746 -0.2053 -0.5650  0.1322
  977SOL     OW 3905   1.694   2.707   2.479  0.1449  0.2429 -0.6270
  977SOL    HW1 3906   1.739   2.623   2.504 -1.4194 -0.1732 -0.1730
  977SOL    HW2 3907   1.742   2.763   2.423  0.3597 -0.4895 -0.6385
  977SOL     MW 3908   1.707   2.703   2.475 -0.0331  0.0914 -0.5686
   3.10000   3.10000   3.10000
