977 TIP4P/2005f water molecules t=   1.87000 step= 1870
 3908
    1SOL     OW    1   0.418   0.769   0.132  0.9543  0.0675  0.8098
    1SOL    HW1    2   0.409   0.769   0.037  3.1700  1.1581 -0.7130
    1SOL    HW2    3   0.411   0.676   0.151  0.7535  1.8285  1.5323
    1SOL     MW    4   0.416   0.757   0.122  1.2202  0.4438  0.7042
    2SOL     OW    5   0.271   2.992   1.105 -0.1268  0.3676  0.2755
    2SOL    HW1    6   0.322   3.074   1.085 -0.2614  1.4248  0.4028
    2SOL    HW2    7   0.185   3.030   1.117  0.8625 -0.7324 -0.8037
    2SOL     MW    8   0.267   3.008   1.104 -0.0140  0.3619  0.1499
    3SOL     OW    9   2.709   0.329   0.932 -0.0255  0.3960 -0.9115
    3SOL    HW1   10   2.755   0.386   0.877 -0.2948 -1.9036  1.5183
    3SOL    HW2   11   2.708   0.371   1.022 -1.4128  2.5856  4.5147
    3SOL     MW   12   2.715   0.342   0.937 -0.2441  0.3815  0.1250
    4SOL     OW   13   2.949   1.724   0.536 -0.2161  0.5591 -0.3849
    4SOL    HW1   14   2.893   1.803   0.517 -0.3154  1.1239  1.7840
    4SOL    HW2   15   3.011   1.696   0.463  1.3362  0.5633 -0.7986
    4SOL     MW   16   2.950   1.730   0.524 -0.0244  0.6342 -0.1533
    5SOL     OW   17   1.620   1.459   0.620  0.1964  0.0967  0.3478
    5SOL    HW1   18   1.646   1.460   0.712  0.1236  0.3396  1.0245
    5SOL    HW2   19   1.534   1.500   0.607 -2.1150  2.6909 -1.4376
    5SOL     MW   20   1.612   1.465   0.630 -0.1182  0.4710  0.2015
    6SOL     OW   21   0.773   1.419   0.604 -0.0804  0.1365  0.0807
    6SOL    HW1   22   0.682   1.447   0.620 -2.5460 -0.3782  1.0324
    6SOL    HW2   23   0.777   1.342   0.660  0.8345 -0.6001 -1.6763
    6SOL     MW   24   0.761   1.413   0.613 -0.2850 -0.0286 -0.0256
    7SOL     OW   25   1.987   1.025   0.027  0.5538 -0.5038 -0.5550
    7SOL    HW1   26   2.071   1.067   0.039  2.8295  0.4060  1.6374
    7SOL    HW2   27   1.951   1.024   0.123  0.6450 -1.0120  1.0808
    7SOL     MW   28   1.993   1.030   0.042  0.8661 -0.4508 -0.0499
    8SOL     OW   29   0.839   1.384   0.986  0.2979 -0.2299 -0.4351
    8SOL    HW1   30   0.905   1.441   1.017 -2.2179 -1.7339  0.6618
    8SOL    HW2   31   0.808   1.350   1.073  2.1595 -1.1038  0.8609
    8SOL     MW   32   0.843   1.387   1.001  0.2116 -0.5436 -0.1194
    9SOL     OW   33   0.880   0.543   1.289 -0.2036 -0.1090 -0.4018
    9SOL    HW1   34   0.831   0.461   1.275 -2.0263  2.0365  0.2848
    9SOL    HW2   35   0.955   0.509   1.337 -0.2538 -1.6880 -0.4239
    9SOL     MW   36   0.883   0.527   1.293 -0.4507 -0.0342 -0.3141
   10SOL     OW   37   0.316   0.808   0.512 -0.0135  0.5039  0.2950
   10SOL    HW1   38   0.399   0.856   0.489  2.5548 -0.8268 -0.6080
   10SOL    HW2   39   0.280   0.866   0.578  1.8197 -1.5191 -1.1656
   10SOL     MW   40   0.322   0.822   0.518  0.5672  0.0614 -0.0169
   11SOL     OW   41   0.744   1.113   1.494 -0.2531 -0.5323 -0.4976
   11SOL    HW1   42   0.805   1.112   1.572  1.9975  0.9986 -0.4483
   11SOL    HW2   43   0.776   1.054   1.425  0.6435  0.7915 -0.2923
   11SOL     MW   44   0.756   1.105   1.495  0.1621 -0.1557 -0.4640
   12SOL     OW   45   0.014   1.086   0.909 -0.8214 -0.1874 -0.2796
   12SOL    HW1   46   0.052   1.159   0.961  0.1887 -1.0384  4.2837
   12SOL    HW2   47  -0.019   1.133   0.824  1.1312  1.0574 -0.2036
   12SOL     MW   48   0.015   1.102   0.904 -0.4305 -0.1354  0.3325
   13SOL     OW   49   1.841   1.419   1.305 -0.0599  0.2807 -0.6444
   13SOL    HW1   50   1.887   1.350   1.251  1.1010  0.9966 -1.1414
   13SOL    HW2   51   1.901   1.496   1.303 -1.4108  0.5385  3.3455
   13SOL     MW   52   1.855   1.420   1.297 -0.0849  0.4092 -0.1836
   14SOL     OW   53   0.589   0.263   1.838  0.1112 -0.2351  0.5188
   14SOL    HW1   54   0.639   0.192   1.804  0.3783  1.4673  0.5508
   14SOL    HW2   55   0.589   0.332   1.778 -2.7045 -1.2387 -1.3102
   14SOL     MW   56   0.596   0.263   1.826 -0.2251 -0.1429  0.2817
   15SOL     OW   57   2.048   0.410   0.948 -0.4296 -0.9151  0.4146
   15SOL    HW1   58   2.060   0.483   1.010 -1.1925  1.5317 -2.3865
   15SOL    HW2   59   2.075   0.448   0.858  0.4430  1.5340 -0.6739
   15SOL     MW   60   2.053   0.425   0.944 -0.4151 -0.2691 -0.0986
   16SOL     OW   61   0.210   1.840   0.261  0.1963  0.1912  0.1094
   16SOL    HW1   62   0.299   1.806   0.234  3.4248 -0.8163  0.3509
   16SOL    HW2   63   0.235   1.897   0.332 -0.3599  0.6928 -0.4714
   16SOL     MW   64   0.225   1.843   0.267  0.5489  0.1244  0.0646
   17SOL     OW   65   1.125   0.883   1.402  0.4973 -0.4606 -0.3389
   17SOL    HW1   66   1.141   0.860   1.495 -1.5293 -1.2482  0.0374
   17SOL    HW2   67   1.025   0.878   1.387 -0.6923 -1.2896  1.2559
   17SOL     MW   68   1.114   0.880   1.412  0.0729 -0.6739 -0.0788
   18SOL     OW   69   0.028   1.632   0.361 -0.8163 -0.4558 -0.4028
   18SOL    HW1   70   0.072   1.720   0.349 -1.5377 -0.2235  0.1766
   18SOL    HW2   71  -0.001   1.599   0.276 -1.8906  0.4237  0.9513
   18SOL     MW   72   0.030   1.639   0.348 -1.0532 -0.3091 -0.1477
   19SOL     OW   73   0.070   1.382   0.961  0.0076  0.2801 -0.0488
   19SOL    HW1   74   0.091   1.392   0.867 -0.5434  0.8535 -1.0470
   19SOL    HW2   75  -0.021   1.368   0.968 -0.0110 -0.0839 -0.5077
   19SOL     MW   76   0.061   1.381   0.950 -0.0675  0.3077 -0.2410
   20SOL     OW   77   0.443   2.116   1.272 -0.2193  0.1319 -0.1263
   20SOL    HW1   78   0.427   2.033   1.227 -0.4457 -3.5714  2.0024
   20SOL    HW2   79   0.387   2.118   1.347  0.7373 -2.1241 -1.4496
   20SOL     MW   80   0.433   2.106   1.276 -0.1230 -0.6543 -0.0201
   21SOL     OW   81   0.567   0.923   0.447  0.1762 -0.0078  0.2635
   21SOL    HW1   82   0.647   0.916   0.495 -2.4199 -0.0904 -3.4237
   21SOL    HW2   83   0.596   0.916   0.353 -0.2689  1.3833  0.8113
   21SOL     MW   84   0.581   0.921   0.441 -0.2251  0.1648 -0.1507
   22SOL     OW   85   1.543   0.737   0.967 -0.1266  0.6647 -0.5847
   22SOL    HW1   86   1.545   0.706   0.875  1.2586  1.8685 -1.7643
   22SOL    HW2   87   1.469   0.797   0.965  1.5774  0.3607  0.6178
   22SOL     MW   88   1.533   0.741   0.955  0.2810  0.7834 -0.5816
   23SOL     OW   89   3.093   0.805   0.690  0.2761 -0.1498  0.0858
   23SOL    HW1   90   3.130   0.751   0.765 -0.8681 -1.1957  0.9883
   23SOL    HW2   91   3.157   0.880   0.681  1.8408  1.3747 -3.6259
   23SOL     MW   92   3.106   0.808   0.699  0.3315 -0.0867 -0.2849
   24SOL     OW   93   2.042   2.158   0.076 -0.5499  0.5263  0.0027
   24SOL    HW1   94   2.014   2.135   0.169  0.1433  1.9509 -1.9586
   24SOL    HW2   95   2.043   2.069   0.047 -4.3178  0.5811  0.3641
   24SOL     MW   96   2.038   2.143   0.084 -0.9556  0.7215 -0.2084
   25SOL     OW   97   0.226   1.451   0.385  0.4896 -0.3019 -0.0265
   25SOL    HW1   98   0.155   1.520   0.374 -6.5570  1.6515 -0.9976
   25SOL    HW2   99   0.252   1.444   0.300 -2.2553 -0.8233  0.2549
   25SOL     MW  100   0.220   1.460   0.372 -0.8023 -0.1129 -0.1175
   26SOL     OW  101   1.956   1.030   0.315 -0.6208 -0.0576  0.5477
   26SOL    HW1  102   1.920   1.073   0.397 -2.3063  0.0598 -0.0990
   26SOL    HW2  103   2.043   1.063   0.294  0.6593 -0.2718  0.8411
   26SOL     MW  104   1.962   1.040   0.323 -0.6743 -0.0704  0.5010
   27SOL     OW  105   1.854   1.379   0.139 -0.3002  0.2501  0.8346
   27SOL    HW1  106   1.796   1.452   0.169 -0.2362  1.1801  1.2797
   27SOL    HW2  107   1.922   1.380   0.206 -1.4999 -0.1947  2.2134
   27SOL     MW  108   1.855   1.389   0.151 -0.4501  0.3141  1.0752
   28SOL     OW  109   0.439   0.928   2.076 -0.2671 -0.2811  0.7097
   28SOL    HW1  110   0.483   0.910   2.161  2.8778  0.2234 -0.1487
   28SOL    HW2  111   0.350   0.934   2.102  2.5582 -1.0136  0.1200
   28SOL     MW  112   0.433   0.927   2.091  0.5206 -0.3112  0.5186
   29SOL     OW  113   0.173   1.424   0.690  0.0512  0.1477 -0.3285
   29SOL    HW1  114   0.193   1.517   0.680 -2.1433 -0.9186 -1.6463
   29SOL    HW2  115   0.131   1.400   0.607 -0.0687 -1.6912 -0.2265
   29SOL     MW  116   0.170   1.433   0.678 -0.2542 -0.2356 -0.4889
   30SOL     OW  117   0.697   1.271   1.227 -0.5253  0.0759  0.2613
   30SOL    HW1  118   0.604   1.249   1.250  0.5450  0.3123  1.0872
   30SOL    HW2  119   0.744   1.218   1.290  3.3170  0.2991 -2.8427
   30SOL     MW  120   0.691   1.261   1.239  0.1228  0.1366 -0.0393
   31SOL     OW  121   0.492   0.259   0.186 -0.3672 -0.2247 -0.3824
   31SOL    HW1  122   0.525   0.200   0.249  1.2322 -0.1586 -0.3909
   31SOL    HW2  123   0.502   0.209   0.102  0.0142  1.7677  0.3399
   31SOL     MW  124   0.497   0.244   0.183 -0.1059  0.0469 -0.2882
   32SOL     OW  125   2.752   1.000   1.090 -0.2671  0.1666 -0.2198
   32SOL    HW1  126   2.687   0.922   1.087 -2.9155 -1.5140  1.7666
   32SOL    HW2  127   2.840   0.965   1.117  2.2234 -1.2058  2.6230
   32SOL     MW  128   2.755   0.985   1.093 -0.2880 -0.2362  0.4174
   33SOL     OW  129   1.626   1.236   0.410  0.0569  0.6822 -0.5216
   33SOL    HW1  130   1.719   1.226   0.395  1.6331  0.4417  0.5683
   33SOL    HW2  131   1.623   1.288   0.492 -1.0011  1.9235 -0.5130
   33SOL     MW  132   1.638   1.241   0.419  0.1253  0.8142 -0.3766
   34SOL     OW  133   1.142   1.995   1.185 -0.5590  0.0952 -0.4996
   34SOL    HW1  134   1.069   2.003   1.249  1.5924  1.2252  2.7903
   34SOL    HW2  135   1.225   1.981   1.225  2.5168 -1.4549 -0.8434
   34SOL     MW  136   1.143   1.995   1.199  0.1307  0.0398 -0.1109
   35SOL     OW  137   0.324   0.152   1.670  0.4811 -0.1146  0.0022
   35SOL    HW1  138   0.391   0.114   1.726  0.4016 -1.9098 -0.4830
   35SOL    HW2  139   0.262   0.084   1.655  0.4393  2.1733 -2.6174
   35SOL     MW  140   0.325   0.138   1.675  0.4651 -0.0496 -0.4074
   36SOL     OW  141   1.955   2.002   0.568  0.1287  0.2549 -0.2469
   36SOL    HW1  142   1.966   2.045   0.479 -0.1100  1.1721 -4.1913
   36SOL    HW2  143   1.969   1.906   0.567 -1.6114  1.9873  0.0287
   36SOL     MW  144   1.958   1.995   0.556 -0.1324  0.6045 -0.7309
   37SOL     OW  145   1.727   2.070   0.964 -0.3089 -0.6032  0.4077
   37SOL    HW1  146   1.676   2.033   0.888  0.5464  1.3636  1.2348
   37SOL    HW2  147   1.669   2.107   1.029  2.6595 -1.5647 -1.3652
   37SOL     MW  148   1.713   2.070   0.962  0.1956 -0.4706  0.2829
   38SOL     OW  149   2.828   0.975   0.042  0.7426 -0.5073  0.3804
   38SOL    HW1  150   2.854   0.980   0.136 -2.1280 -2.6178  0.2263
   38SOL    HW2  151   2.918   0.962   0.001  1.6447  0.0492  0.2468
   38SOL     MW  152   2.843   0.974   0.049  0.4829 -0.7123  0.3425
   39SOL     OW  153   1.542   0.639   0.719 -0.8563 -0.7294 -0.4085
   39SOL    HW1  154   1.530   0.562   0.771  1.3635 -0.0078 -2.9867
   39SOL    HW2  155   1.456   0.672   0.700  0.5256 -1.5522  2.4311
   39SOL     MW  156   1.529   0.633   0.723 -0.3811 -0.7428 -0.3740
   40SOL     OW  157   1.277   1.879   0.241  0.0589  0.2706 -0.0660
   40SOL    HW1  158   1.331   1.802   0.251 -1.7681 -1.9480 -1.0733
   40SOL    HW2  159   1.254   1.900   0.329  0.4363 -0.8506 -0.6792
   40SOL     MW  160   1.281   1.872   0.254 -0.1324 -0.1701 -0.2798
   41SOL     OW  161   0.505   0.503   1.589 -0.6648 -0.0861  0.0032
   41SOL    HW1  162   0.585   0.560   1.565  1.2274 -1.7558 -0.9736
   41SOL    HW2  163   0.435   0.509   1.519  0.2737 -0.3958 -3.1558
   41SOL     MW  164   0.506   0.511   1.576 -0.2914 -0.3472 -0.5424
   42SOL     OW  165   1.242   2.908   1.989 -0.1490 -0.2403 -0.2317
   42SOL    HW1  166   1.158   2.907   2.034  3.7768  0.1764 -0.3149
   42SOL    HW2  167   1.312   2.860   2.049  2.2211  0.4481 -1.8864
   42SOL     MW  168   1.240   2.901   2.003  0.6817 -0.0945 -0.4610
   43SOL     OW  169   1.382   0.127   1.694  0.0414  0.1020 -0.2578
   43SOL    HW1  170   1.467   0.115   1.650  0.1732 -4.0258  2.1564
   43SOL    HW2  171   1.314   0.066   1.668 -0.2290 -0.0429 -1.6941
   43SOL     MW  172   1.384   0.118   1.685  0.0231 -0.4618 -0.1288
   44SOL     OW  173   1.202   0.839   0.947 -0.0127 -0.0700 -0.3878
   44SOL    HW1  174   1.159   0.918   0.978 -0.4046  0.1549 -1.0516
   44SOL    HW2  175   1.150   0.767   0.980 -1.7466  1.2050 -0.7251
   44SOL     MW  176   1.190   0.840   0.955 -0.2932  0.1279 -0.5199
   45SOL     OW  177   1.310   0.781   0.695  0.3331 -0.6858  0.3770
   45SOL    HW1  178   1.261   0.819   0.770  1.3188  3.6497  0.3338
   45SOL    HW2  179   1.243   0.732   0.633 -2.5489 -1.1147 -0.6883
   45SOL     MW  180   1.295   0.780   0.697  0.0829 -0.1703  0.2308
   46SOL     OW  181   0.424   1.125   0.673  0.1514 -0.5166  0.1167
   46SOL    HW1  182   0.449   1.170   0.593  1.9563  0.4746  0.2412
   46SOL    HW2  183   0.405   1.198   0.739  0.4293 -0.9045  0.7122
   46SOL     MW  184   0.425   1.141   0.671  0.4262 -0.4370  0.2117
   47SOL     OW  185   0.132   1.989   1.945  0.9372  0.9634 -0.7235
   47SOL    HW1  186   0.103   1.917   1.892  0.3212 -1.9584  0.0169
   47SOL    HW2  187   0.132   1.953   2.038  0.6998  1.8682  0.3042
   47SOL     MW  188   0.128   1.975   1.950  0.8246  0.6973 -0.4902
   48SOL     OW  189   1.282   0.491   1.059  0.2929 -0.1419  0.4647
   48SOL    HW1  190   1.236   0.437   0.993  1.7654  1.4323 -1.5690
   48SOL    HW2  191   1.224   0.549   1.106 -0.1170 -0.0999 -1.3150
   48SOL     MW  192   1.268   0.491   1.056  0.4331  0.0713 -0.0384
   49SOL     OW  193   1.703   0.714   1.540  0.1966 -0.2284 -0.2991
   49SOL    HW1  194   1.752   0.647   1.597  2.4444 -1.0337 -2.0788
   49SOL    HW2  195   1.730   0.692   1.451  2.1327 -1.5815 -0.5653
   49SOL     MW  196   1.713   0.702   1.536  0.7486 -0.5131 -0.5690
   50SOL     OW  197   1.310   1.215   0.619 -0.6306  1.0495 -0.5083
   50SOL    HW1  198   1.219   1.209   0.661  2.0518 -1.0793 -4.1065
   50SOL    HW2  199   1.352   1.131   0.638 -2.3607 -1.2108 -1.6399
   50SOL     MW  200   1.303   1.203   0.627 -0.5050  0.4704 -1.1324
   51SOL     OW  201   0.350   2.914   0.850 -0.4056  0.3197  0.2121
   51SOL    HW1  202   0.435   2.874   0.871  1.7264 -0.2145 -1.3145
   51SOL    HW2  203   0.313   2.943   0.935 -0.1496 -2.6585  2.0403
   51SOL     MW  204   0.356   2.912   0.864 -0.0905 -0.1437  0.2519
   52SOL     OW  205   0.813   1.848   0.470  0.0403  0.3417 -0.3972
   52SOL    HW1  206   0.795   1.941   0.488  0.7940  0.0661 -0.6044
   52SOL    HW2  207   0.801   1.825   0.377  0.1628 -1.8094 -0.6309
   52SOL     MW  208   0.809   1.857   0.460  0.1559  0.0215 -0.4554
   53SOL     OW  209   0.476   2.152   0.586 -0.1210  0.0453  0.5478
   53SOL    HW1  210   0.421   2.101   0.522  0.4350 -0.4294  0.3181
   53SOL    HW2  211   0.462   2.247   0.561  1.3899  0.2337  0.1907
   53SOL     MW  212   0.467   2.158   0.575  0.1517  0.0075  0.4704
   54SOL     OW  213   2.044   0.989   0.700 -0.0816 -0.3968 -0.5358
   54SOL    HW1  214   2.119   0.981   0.644 -0.0282 -0.0574  0.4167
   54SOL    HW2  215   2.018   0.898   0.719 -1.5365 -0.7131  1.5124
   54SOL     MW  216   2.050   0.976   0.695 -0.2665 -0.3938 -0.1399
   55SOL     OW  217   0.431   1.530   1.728  0.0260  0.3464 -0.1898
   55SOL    HW1  218   0.386   1.574   1.648 -0.1407  1.8461 -1.7896
   55SOL    HW2  219   0.519   1.512   1.698  0.6093 -3.0417 -0.8494
   55SOL     MW  220   0.436   1.534   1.713  0.0810  0.0972 -0.4879
   56SOL     OW  221   0.657   0.907   0.187 -0.2384 -0.4001  0.3558
   56SOL    HW1  222   0.669   0.989   0.134 -0.9232 -0.3393 -0.9515
   56SOL    HW2  223   0.577   0.861   0.169  0.5768 -2.1874  1.2570
   56SOL     MW  224   0.648   0.912   0.178 -0.2212 -0.6279  0.3022
   57SOL     OW  225   1.100   1.330   1.186 -0.0576  0.6946  0.2909
   57SOL    HW1  226   1.186   1.370   1.204 -1.0869 -1.0896  0.3883
   57SOL    HW2  227   1.087   1.263   1.259  2.0867 -2.7674 -1.2841
   57SOL     MW  228   1.110   1.326   1.198  0.0895  0.0025  0.0959
   58SOL     OW  229   0.450   1.245   1.296  0.2671  0.6419  0.1380
   58SOL    HW1  230   0.433   1.339   1.280  0.4275 -1.4963 -2.0067
   58SOL    HW2  231   0.439   1.232   1.388  0.1873 -1.5183 -2.7463
   58SOL     MW  232   0.447   1.255   1.306  0.2777  0.0748 -0.5255
   59SOL     OW  233   1.489   1.669   0.383  0.2255 -0.0508  0.1251
   59SOL    HW1  234   1.533   1.720   0.442 -1.2507 -1.9056 -1.8515
   59SOL    HW2  235   1.393   1.676   0.405  1.2667  0.0378  0.0496
   59SOL     MW  236   1.482   1.677   0.394  0.1681 -0.2839 -0.1457
   60SOL     OW  237   3.067   0.166   1.623 -0.4461 -0.3215 -0.3656
   60SOL    HW1  238   3.000   0.216   1.675  0.8264  1.4172 -0.4985
   60SOL    HW2  239   3.090   0.093   1.682 -2.3587  3.6054 -2.0960
   60SOL     MW  240   3.061   0.163   1.637 -0.5305  0.4260 -0.6115
   61SOL     OW  241   1.992   1.353   2.994  0.1172  0.3025 -0.1217
   61SOL    HW1  242   1.936   1.344   3.079  1.8112 -0.5965  1.0909
   61SOL    HW2  243   2.047   1.280   2.989 -1.3784  1.7080 -2.3536
   61SOL     MW  244   1.992   1.342   3.005  0.1434  0.3693 -0.2562
   62SOL     OW  245   0.555   1.770   0.579 -0.4249  0.6021 -0.6694
   62SOL    HW1  246   0.648   1.776   0.565  1.6958  1.9466  0.0173
   62SOL    HW2  247   0.537   1.675   0.575  0.1047  0.5481 -1.0459
   62SOL     MW  248   0.565   1.758   0.577 -0.0752  0.7724 -0.6285
   63SOL     OW  249   1.716   0.663   0.516 -0.1642 -0.0712 -0.5127
   63SOL    HW1  250   1.698   0.749   0.479  1.6294 -0.1940 -1.7621
   63SOL    HW2  251   1.657   0.654   0.592 -1.0267  1.3843  1.3794
   63SOL     MW  252   1.706   0.673   0.521 -0.0413  0.1046 -0.4279
   64SOL     OW  253   0.203   1.709   0.641 -0.4051  0.0883 -0.1949
   64SOL    HW1  254   0.271   1.778   0.652  0.0408 -0.1380 -1.8235
   64SOL    HW2  255   0.124   1.737   0.691 -2.2990  1.2180  2.5128
   64SOL     MW  256   0.202   1.722   0.649 -0.5962  0.2075 -0.0525
   65SOL     OW  257   1.517   2.321   0.389  0.9095  0.0629 -0.3755
   65SOL    HW1  258   1.609   2.349   0.403  1.4600 -0.4116 -1.2352
   65SOL    HW2  259   1.462   2.365   0.458 -0.8825  2.1551 -0.3624
   65SOL     MW  260   1.522   2.330   0.400  0.7457  0.2764 -0.4872
   66SOL     OW  261   0.385   0.555   0.534  0.6385  0.5963 -0.2485
   66SOL    HW1  262   0.439   0.543   0.453 -0.8327  0.3178  0.8722
   66SOL    HW2  263   0.369   0.651   0.537 -3.8157  0.2099 -0.2935
   66SOL     MW  264   0.390   0.566   0.524 -0.1433  0.5085 -0.1066
   67SOL     OW  265   1.335   0.060   1.999  0.0958  0.6824 -0.0172
   67SOL    HW1  266   1.346   0.090   1.911  0.9074  1.5274  2.7798
   67SOL    HW2  267   1.310  -0.034   1.995  1.2441  1.6108 -1.8580
   67SOL     MW  268   1.333   0.052   1.987  0.3544  0.9164  0.1090
   68SOL     OW  269   0.792   0.103   2.860  0.3807  0.1733 -0.6523
   68SOL    HW1  270   0.773   0.196   2.836  0.4144  0.3987 -1.4159
   68SOL    HW2  271   0.862   0.118   2.923  0.1698 -1.8273 -3.7326
   68SOL     MW  272   0.799   0.118   2.865  0.3573 -0.0609 -1.1594
   69SOL     OW  273   1.091   0.273   1.959 -0.4875  0.0872 -0.4061
   69SOL    HW1  274   1.179   0.299   1.990 -2.9846  2.6687 -1.5990
   69SOL    HW2  275   1.073   0.207   2.032  1.6338  1.3819  2.5979
   69SOL     MW  276   1.100   0.268   1.973 -0.5371  0.5986 -0.1671
   70SOL     OW  277   0.534   1.701   1.136  0.0634 -0.4345 -0.1393
   70SOL    HW1  278   0.608   1.760   1.115 -2.2400  4.1560 -0.2082
   70SOL    HW2  279   0.557   1.617   1.098 -2.6380 -2.5442 -0.8274
   70SOL     MW  280   0.547   1.698   1.128 -0.5969 -0.1072 -0.2392
   71SOL     OW  281   1.577   0.605   1.207  0.2730  0.8526 -0.0511
   71SOL    HW1  282   1.523   0.659   1.264  2.0778 -4.9522 -0.8129
   71SOL    HW2  283   1.565   0.637   1.113 -2.1031  0.9140  1.1323
   71SOL     MW  284   1.569   0.616   1.202  0.1977  0.0948  0.0045
   72SOL     OW  285   0.791   1.847   1.061 -0.0090  0.1687  0.8325
   72SOL    HW1  286   0.799   1.920   0.999  1.0694 -1.5636  2.4693
   72SOL    HW2  287   0.875   1.801   1.062  0.3440  2.0908  0.9299
   72SOL     MW  288   0.804   1.850   1.053  0.1798  0.1937  1.0613
   73SOL     OW  289   1.070   0.665   1.135  0.1618 -0.4802 -0.2507
   73SOL    HW1  290   0.978   0.634   1.155 -2.0140  0.3342  1.1375
   73SOL    HW2  291   1.086   0.745   1.168 -0.6793 -0.7769 -0.1547
   73SOL     MW  292   1.060   0.671   1.142 -0.2362 -0.4119 -0.0548
   74SOL     OW  293   2.829   0.095   0.979  0.1089 -0.1706  0.3472
   74SOL    HW1  294   2.923   0.117   0.963 -0.4175  0.9004 -2.2152
   74SOL    HW2  295   2.789   0.180   0.955 -0.1311  1.1733  0.2853
   74SOL     MW  296   2.836   0.109   0.973  0.0078  0.1480  0.0009
   75SOL     OW  297   1.472   1.312   0.167 -0.3787 -0.2670  0.0726
   75SOL    HW1  298   1.528   1.282   0.094  0.8595 -0.7025 -0.3262
   75SOL    HW2  299   1.523   1.315   0.245 -1.1744  3.0942 -0.8629
   75SOL     MW  300   1.486   1.309   0.167 -0.3203  0.1190 -0.1034
   76SOL     OW  301   3.046   0.688   0.408 -0.5744 -0.0443  0.3676
   76SOL    HW1  302   3.064   0.740   0.489  1.7122  0.0826 -0.5671
   76SOL    HW2  303   3.124   0.634   0.410 -0.3112 -1.7190 -3.4445
   76SOL     MW  304   3.059   0.688   0.419 -0.2380 -0.2485 -0.2587
   77SOL     OW  305   0.858   0.597   0.436 -0.6251 -0.0667 -0.4345
   77SOL    HW1  306   0.835   0.633   0.346 -1.1281  3.2557  1.9537
   77SOL    HW2  307   0.835   0.500   0.433  0.4328 -0.0658  1.6492
   77SOL     MW  308   0.852   0.589   0.423 -0.5519  0.3718  0.1555
   78SOL     OW  309   0.806   0.877   1.089 -0.4940 -0.0057  0.3090
   78SOL    HW1  310   0.813   0.960   1.046  1.9092 -1.6917 -0.0648
   78SOL    HW2  311   0.709   0.877   1.107 -0.1198 -1.3132 -1.3271
   78SOL     MW  312   0.794   0.888   1.086 -0.1276 -0.4007  0.0438
   79SOL     OW  313   1.872   1.508   0.551  0.3240 -0.0390  0.3566
   79SOL    HW1  314   1.778   1.514   0.551  2.2669  0.4353  0.9781
   79SOL    HW2  315   1.897   1.466   0.634 -0.8241 -1.5852  2.1017
   79SOL     MW  316   1.863   1.503   0.562  0.4289 -0.1804  0.6688
   80SOL     OW  317   0.225   0.984   0.292 -0.0673 -0.3436  0.1027
   80SOL    HW1  318   0.192   0.935   0.216  0.9620  0.4871  1.5089
   80SOL    HW2  319   0.264   0.914   0.348  0.6687 -1.1595  0.1744
   80SOL     MW  320   0.226   0.968   0.290  0.1656 -0.3416  0.2977
   81SOL     OW  321   1.812   1.819   0.319 -0.1284  0.0951 -1.1801
   81SOL    HW1  322   1.764   1.743   0.294 -0.9450 -2.0542  0.5719
   81SOL    HW2  323   1.767   1.891   0.276 -1.0091  1.3930 -2.6482
   81SOL     MW  324   1.800   1.819   0.310 -0.3523 -0.0172 -1.1426
   82SOL     OW  325   0.970   1.029   0.561 -0.2886  0.3128 -0.1241
   82SOL    HW1  326   0.914   1.094   0.507 -2.0941 -0.9036 -3.3949
   82SOL    HW2  327   0.928   0.944   0.565  1.1174  0.6965  1.5777
   82SOL     MW  328   0.957   1.026   0.554 -0.3413  0.2029 -0.3311
   83SOL     OW  329   3.095   0.731   1.530  0.1982 -0.2869 -0.3626
   83SOL    HW1  330   3.102   0.788   1.449  1.2552 -2.5320 -1.4740
   83SOL    HW2  331   3.156   0.653   1.523  1.4855 -2.3927 -0.5718
   83SOL     MW  332   3.104   0.728   1.519  0.5075 -0.8609 -0.5368
   84SOL     OW  333   3.069   0.175   0.913  0.0859  0.2238  0.6132
   84SOL    HW1  334   3.078   0.269   0.953  1.3921  1.1044 -2.5366
   84SOL    HW2  335   3.103   0.117   0.980  0.8558  0.8516 -1.3504
   84SOL     MW  336   3.075   0.180   0.927  0.3598  0.4228 -0.0614
   85SOL     OW  337   0.362   0.477   0.792  0.1163 -0.2097 -0.0321
   85SOL    HW1  338   0.372   0.509   0.699  1.3650  0.8996 -0.2548
   85SOL    HW2  339   0.292   0.410   0.787 -0.0853 -0.3822 -2.3263
   85SOL     MW  340   0.354   0.472   0.779  0.2545 -0.0861 -0.3641
   86SOL     OW  341   1.281   0.273   1.209  0.2226  0.3595 -0.3745
   86SOL    HW1  342   1.283   0.350   1.154 -1.0130  0.8080 -2.3806
   86SOL    HW2  343   1.370   0.271   1.245  0.4212 -0.8785  1.5703
   86SOL     MW  344   1.293   0.283   1.206  0.0858  0.2554 -0.3825
   87SOL     OW  345   1.004   1.576   1.188 -0.7625  0.2306  0.2749
   87SOL    HW1  346   1.077   1.622   1.145 -0.2549 -0.0359 -0.0499
   87SOL    HW2  347   1.041   1.487   1.204  2.7273 -1.9613 -0.5768
   87SOL     MW  348   1.018   1.570   1.184 -0.2351 -0.0937  0.1197
   88SOL     OW  349   1.156   1.129   1.017  0.2919  0.1121  0.5094
   88SOL    HW1  350   1.249   1.141   0.998 -2.3285  0.9930 -1.7748
   88SOL    HW2  351   1.140   1.196   1.083 -1.2689  1.1201  0.2415
   88SOL     MW  352   1.166   1.139   1.023 -0.2597  0.3613  0.1727
   89SOL     OW  353   1.790   0.730   0.218 -0.2581  0.2295 -0.3438
   89SOL    HW1  354   1.744   0.659   0.269  0.8799  0.3354  1.4417
   89SOL    HW2  355   1.872   0.746   0.266  0.8859  1.5472  0.5392
   89SOL     MW  356   1.795   0.723   0.231  0.0430  0.4173  0.0083
   90SOL     OW  357   0.782   1.181   2.770  0.7168 -0.5156 -0.5716
   90SOL    HW1  358   0.789   1.087   2.778 -1.4191  1.6805  1.0688
   90SOL    HW2  359   0.828   1.210   2.846  1.0462  2.2609 -3.7914
   90SOL     MW  360   0.789   1.173   2.781  0.4784  0.1405 -0.7800
   91SOL     OW  361   2.265   0.604   0.542  0.3102  0.5473  0.1122
   91SOL    HW1  362   2.318   0.674   0.502  1.1943 -1.6806  1.0585
   91SOL    HW2  363   2.278   0.528   0.480  2.0010 -0.1866 -1.4650
   91SOL     MW  364   2.274   0.603   0.528  0.6500  0.1565  0.0290
   92SOL     OW  365   1.647   0.953   0.477 -0.1630 -0.3007  0.0806
   92SOL    HW1  366   1.583   0.979   0.548 -2.5046  0.9683 -0.4551
   92SOL    HW2  367   1.641   1.025   0.416 -1.2509 -2.0642  2.1315
   92SOL     MW  368   1.638   0.966   0.479 -0.6155 -0.3660  0.2805
   93SOL     OW  369   1.113   0.232   0.404  0.3702 -0.5573  0.0250
   93SOL    HW1  370   1.024   0.260   0.413  0.2422 -0.4407  0.8361
   93SOL    HW2  371   1.141   0.252   0.312  1.5014  1.4787  0.4823
   93SOL     MW  372   1.105   0.238   0.393  0.5026 -0.2733  0.1924
   94SOL     OW  373   1.915   1.383   1.585 -0.3748 -0.3046  0.2871
   94SOL    HW1  374   1.902   1.379   1.491  1.6363  0.0349 -0.5008
   94SOL    HW2  375   1.862   1.323   1.628  1.7256  0.4686  1.1614
   94SOL     MW  376   1.907   1.375   1.578  0.1677 -0.1578  0.2985
   95SOL     OW  377   0.598   1.521   0.933  0.3056 -0.3007  0.0647
   95SOL    HW1  378   0.676   1.469   0.939 -1.5191  0.3692  1.1933
   95SOL    HW2  379   0.527   1.464   0.893 -0.9922 -1.3622 -1.5084
   95SOL     MW  380   0.599   1.507   0.928 -0.1064 -0.3524  0.0060
   96SOL     OW  381   1.338   1.827   1.705 -0.2387 -0.3640 -0.3498
   96SOL    HW1  382   1.245   1.845   1.720  0.6956 -1.7111  0.6164
   96SOL    HW2  383   1.331   1.744   1.656 -1.8713 -1.8206 -0.7095
   96SOL     MW  384   1.325   1.818   1.700 -0.3308 -0.7340 -0.2698
   97SOL     OW  385   1.087   1.563   0.834  0.0395  0.2255  0.1213
   97SOL    HW1  386   1.133   1.612   0.905 -0.7313 -0.7569  1.8883
   97SOL    HW2  387   1.011   1.619   0.809 -0.1084 -2.3583 -0.5335
   97SOL     MW  388   1.083   1.577   0.840 -0.0817 -0.2450  0.2680
   98SOL     OW  389   1.359   1.393   1.209 -0.3124 -0.0032 -0.8383
   98SOL    HW1  390   1.443   1.404   1.259  1.3951  0.4800  0.7139
   98SOL    HW2  391   1.390   1.389   1.119 -1.6790 -2.7794  0.4327
   98SOL     MW  392   1.374   1.394   1.204 -0.2674 -0.3057 -0.4659
   99SOL     OW  393   1.547   0.333   1.315 -0.4531  0.0245  0.4702
   99SOL    HW1  394   1.553   0.412   1.258  0.1929  1.5916 -0.3730
   99SOL    HW2  395   1.485   0.353   1.390 -1.2814 -0.9954 -1.2078
   99SOL     MW  396   1.540   0.346   1.317 -0.4771  0.0967  0.1375
  100SOL     OW  397   1.089   1.164   1.392 -0.0618  0.1668  0.3270
  100SOL    HW1  398   1.047   1.175   1.478 -0.3869 -0.5944  0.8214
  100SOL    HW2  399   1.112   1.075   1.385  0.3437  1.0326 -0.8344
  100SOL     MW  400   1.087   1.154   1.402 -0.0512  0.1806  0.2390
  101SOL     OW  401   0.531   1.253   0.465 -0.4967  0.9954  0.1711
  101SOL    HW1  402   0.476   1.254   0.379 -0.1309 -2.4979 -0.0046
  101SOL    HW2  403   0.594   1.182   0.463 -0.3745 -0.9109  1.2244
  101SOL     MW  404   0.532   1.244   0.454 -0.4323  0.2830  0.2869
  102SOL     OW  405   2.880   0.597   1.073 -0.1422  0.0253 -0.2137
  102SOL    HW1  406   2.918   0.687   1.067  0.0193 -3.0909 -0.7090
  102SOL    HW2  407   2.855   0.568   1.159  0.1005 -2.5981  2.4873
  102SOL     MW  408   2.882   0.605   1.083 -0.0889 -0.7320  0.0773
  103SOL     OW  409   1.886   0.275   1.759  0.8530 -0.2892  0.0908
  103SOL    HW1  410   1.855   0.182   1.758  0.7027  0.9037  1.0994
  103SOL    HW2  411   1.880   0.292   1.856  0.7153  0.4066 -1.7922
  103SOL     MW  412   1.881   0.265   1.772  0.8150 -0.0400 -0.0246
  104SOL     OW  413   0.047   1.526   1.677 -0.0313  0.0847 -0.0470
  104SOL    HW1  414   0.105   1.462   1.722 -2.8075  1.1947  0.7068
  104SOL    HW2  415  -0.045   1.486   1.670 -0.3342  0.1699  0.9774
  104SOL     MW  416   0.043   1.512   1.682 -0.4376  0.2424  0.1876
  105SOL     OW  417   0.095   1.203   0.440  0.0801  0.2060  0.0953
  105SOL    HW1  418   0.132   1.121   0.406  0.5412  0.7938 -1.2500
  105SOL    HW2  419   0.137   1.269   0.388  1.1120  0.0766 -1.4078
  105SOL     MW  420   0.105   1.201   0.429  0.2771  0.2665 -0.2805
  106SOL     OW  421   0.827   0.244   0.858  0.6520 -0.2387  0.2261
  106SOL    HW1  422   0.780   0.327   0.839  0.6019  0.7843 -2.6722
  106SOL    HW2  423   0.914   0.259   0.816  3.7716 -2.2409  2.7146
  106SOL     MW  424   0.833   0.257   0.850  1.0570 -0.3679  0.1720
  107SOL     OW  425   0.803   2.196   2.873  0.0803 -0.1967 -0.1751
  107SOL    HW1  426   0.707   2.178   2.876 -2.2893  0.3790 -0.4518
  107SOL    HW2  427   0.837   2.150   2.946 -1.8469  0.7716  0.4093
  107SOL     MW  428   0.794   2.187   2.883 -0.4866  0.0070 -0.1345
  108SOL     OW  429   1.309   1.550   1.629  0.1769  0.4546 -0.1004
  108SOL    HW1  430   1.245   1.514   1.562  0.4777 -3.5016 -0.2210
  108SOL    HW2  431   1.386   1.491   1.604 -1.0033  0.0133  0.0970
  108SOL     MW  432   1.311   1.538   1.617  0.0609 -0.1256 -0.0903
  109SOL     OW  433   2.042   0.757   0.366 -0.0120 -0.4319  0.4427
  109SOL    HW1  434   2.025   0.849   0.373  0.0730 -3.5680 -0.0084
  109SOL    HW2  435   2.068   0.721   0.452 -0.9364  1.7513  2.7346
  109SOL     MW  436   2.043   0.764   0.378 -0.1228 -0.5576  0.6855
  110SOL     OW  437   0.399   1.892   0.795 -0.0756 -0.2946 -0.0898
  110SOL    HW1  438   0.461   1.837   0.744 -0.9719  0.0795 -1.7667
  110SOL    HW2  439   0.413   1.981   0.751 -2.1736  2.2986  1.0707
  110SOL     MW  440   0.409   1.896   0.782 -0.4707  0.0969 -0.1579
  111SOL     OW  441   0.861   0.882   1.366  0.2689  0.0832  0.2009
  111SOL    HW1  442   0.839   0.875   1.269 -2.2641 -0.7629 -0.4179
  111SOL    HW2  443   0.798   0.820   1.394  1.7039  1.6001 -1.2302
  111SOL     MW  444   0.850   0.873   1.357  0.1240  0.1717 -0.0695
  112SOL     OW  445   1.342   1.162   1.679  0.0030  0.2921  0.2083
  112SOL    HW1  446   1.257   1.193   1.646  0.6904 -1.5796  0.0867
  112SOL    HW2  447   1.335   1.068   1.680 -0.8216 -0.3439  0.0642
  112SOL     MW  448   1.330   1.153   1.675 -0.0151 -0.0388  0.1732
  113SOL     OW  449   1.224   2.978   1.734 -0.0306  0.3057  0.1857
  113SOL    HW1  450   1.216   2.941   1.822 -0.1664  1.3802  0.8495
  113SOL    HW2  451   1.180   2.923   1.670 -0.3817  1.3237 -2.0459
  113SOL     MW  452   1.217   2.966   1.737 -0.0948  0.5818 -0.0212
  114SOL     OW  453   0.340   2.892   1.801 -0.3999 -0.2652  0.4842
  114SOL    HW1  454   0.420   2.941   1.809 -4.3847  0.6963  1.9767
  114SOL    HW2  455   0.307   2.914   1.891  1.8415  0.5345  0.5958
  114SOL     MW  456   0.346   2.902   1.814 -0.6300 -0.0328  0.6958
  115SOL     OW  457   0.555   0.883   1.173 -0.4980 -0.1799 -0.0776
  115SOL    HW1  458   0.523   0.803   1.139  1.2188  0.5085  1.0057
  115SOL    HW2  459   0.490   0.902   1.245 -2.8246 -1.3389  0.6835
  115SOL     MW  460   0.542   0.875   1.178 -0.5784 -0.2420  0.1658
  116SOL     OW  461   0.697   1.117   1.002  0.4815  0.5432 -0.0916
  116SOL    HW1  462   0.734   1.180   0.937  2.0232 -3.2028 -1.8354
  116SOL    HW2  463   0.686   1.167   1.085 -2.7847 -1.0814 -1.3466
  116SOL     MW  464   0.700   1.132   1.004  0.2539 -0.1654 -0.4872
  117SOL     OW  465   1.088   1.291   0.774 -0.3351 -0.5724 -0.0763
  117SOL    HW1  466   1.086   1.255   0.860 -1.1928 -2.4796  0.3649
  117SOL    HW2  467   1.082   1.390   0.779 -1.9925 -0.8058  0.7461
  117SOL     MW  468   1.087   1.299   0.786 -0.6669 -0.8549  0.0904
  118SOL     OW  469   3.098   2.970   1.823  0.2945  0.1503  0.4494
  118SOL    HW1  470   3.113   3.055   1.863 -1.0903 -0.4161 -3.1560
  118SOL    HW2  471   3.013   2.985   1.787  2.4224 -1.0982  1.2672
  118SOL     MW  472   3.089   2.983   1.824  0.3926 -0.0891  0.0816
  119SOL     OW  473   0.390   1.509   1.295  0.3073 -0.5972  0.5175
  119SOL    HW1  474   0.440   1.571   1.242 -0.6624 -0.2609 -2.1188
  119SOL    HW2  475   0.299   1.510   1.260 -0.6175 -1.3535  2.8234
  119SOL     MW  476   0.385   1.517   1.283  0.0573 -0.6526  0.4739
  120SOL     OW  477   0.296   0.879   0.966  0.0442 -0.1108  0.0600
  120SOL    HW1  478   0.266   0.935   1.036  1.8820  0.1387 -0.4300
  120SOL    HW2  479   0.388   0.898   0.941 -0.0242  0.3597 -0.2614
  120SOL     MW  480   0.304   0.889   0.972  0.2776 -0.0158 -0.0471
  121SOL     OW  481   1.760   1.109   1.605  0.3321  0.2859  0.1335
  121SOL    HW1  482   1.700   1.142   1.537 -2.6043 -0.7279  1.5157
  121SOL    HW2  483   1.827   1.047   1.563  0.8490 -2.4946 -1.0254
  121SOL     MW  484   1.760   1.105   1.591  0.0129 -0.2147  0.1629
  122SOL     OW  485   0.153   0.671   0.868 -0.4424 -0.4311 -0.3589
  122SOL    HW1  486   0.228   0.627   0.817 -0.6864 -0.7839 -0.9550
  122SOL    HW2  487   0.193   0.757   0.894 -0.8731 -1.4777 -5.0272
  122SOL     MW  488   0.168   0.676   0.864 -0.5314 -0.6157 -1.0535
  123SOL     OW  489   1.847   1.125   0.549 -0.0452  0.4615  0.4308
  123SOL    HW1  490   1.766   1.068   0.544  1.7630 -0.7282  1.0907
  123SOL    HW2  491   1.906   1.082   0.615  2.2444 -1.4768 -1.8868
  123SOL     MW  492   1.844   1.112   0.557  0.4955  0.0488  0.2121
  124SOL     OW  493   0.662   0.456   0.827  0.3653  0.5070 -0.5119
  124SOL    HW1  494   0.563   0.451   0.814  0.0718 -0.2440 -0.2121
  124SOL    HW2  495   0.680   0.549   0.826  1.1019 -1.2627 -2.0053
  124SOL     MW  496   0.651   0.468   0.825  0.4238  0.1744 -0.6694
  125SOL     OW  497   0.663   1.738   1.713 -0.7290  0.7570 -0.1621
  125SOL    HW1  498   0.689   1.728   1.617  0.0933  0.7382 -2.4115
  125SOL    HW2  499   0.606   1.817   1.729  1.3453  1.3703 -0.1020
  125SOL     MW  500   0.659   1.747   1.702 -0.3468  0.8355 -0.4509
  126SOL     OW  501   2.124   1.552   1.866  0.0717 -0.1290 -0.4162
  126SOL    HW1  502   2.157   1.636   1.892  0.3618  0.7582 -0.2717
  126SOL    HW2  503   2.187   1.484   1.891 -0.6522 -1.6173 -1.4155
  126SOL     MW  504   2.137   1.554   1.872  0.0145 -0.2083 -0.5290
  127SOL     OW  505   0.516   0.769   1.838  0.6088 -0.1727 -0.4167
  127SOL    HW1  506   0.603   0.794   1.800 -0.1907 -0.5380  1.9456
  127SOL    HW2  507   0.501   0.823   1.914  0.1112  0.7310  1.4335
  127SOL     MW  508   0.525   0.780   1.843  0.4377 -0.1017  0.1391
  128SOL     OW  509   1.742   0.768   2.861 -0.4238  0.2117 -0.1831
  128SOL    HW1  510   1.801   0.752   2.786 -0.1907  1.4520  1.2566
  128SOL    HW2  511   1.739   0.866   2.871  0.2676  0.9609  0.2414
  128SOL     MW  512   1.749   0.778   2.853 -0.3018  0.4742  0.0629
  129SOL     OW  513   1.606   0.946   0.157  0.6429  0.2954  0.1211
  129SOL    HW1  514   1.563   0.895   0.091 -1.5848  2.9944 -1.1613
  129SOL    HW2  515   1.683   0.894   0.182  0.2451  0.6050 -3.3124
  129SOL     MW  516   1.610   0.932   0.152  0.2965  0.6923 -0.5011
  130SOL     OW  517   0.869   1.456   0.327 -0.2062  0.4994 -0.1031
  130SOL    HW1  518   0.873   1.454   0.421 -3.7728  0.5273  2.4603
  130SOL    HW2  519   0.957   1.467   0.294 -2.3355 -2.0647  0.5932
  130SOL     MW  520   0.881   1.457   0.335 -0.9577  0.1648  0.3270
  131SOL     OW  521   0.063   0.820   0.066 -0.0696  0.3019 -0.4308
  131SOL    HW1  522   0.077   0.856  -0.021  1.3128  1.6732 -1.9488
  131SOL    HW2  523   0.109   0.730   0.054  0.3298  0.8044 -0.0011
  131SOL     MW  524   0.071   0.813   0.053  0.1655  0.5491 -0.5744
  132SOL     OW  525   2.734   0.074   1.225 -0.1448 -0.1176  0.0891
  132SOL    HW1  526   2.774   0.083   1.138 -1.1290  0.5626 -1.4404
  132SOL    HW2  527   2.646   0.045   1.210  2.8420 -3.8595 -1.7787
  132SOL     MW  528   2.728   0.071   1.212  0.1194 -0.5216 -0.3591
  133SOL     OW  529   1.076   0.117   1.741  0.5462 -0.0297 -0.0713
  133SOL    HW1  530   1.113   0.029   1.748  1.6271  0.1977  1.6810
  133SOL    HW2  531   1.107   0.168   1.819 -0.3821  0.1693 -1.5112
  133SOL     MW  532   1.085   0.112   1.752  0.5663  0.0266 -0.0300
  134SOL     OW  533   1.413   2.486   1.458  0.1161 -0.8167 -0.1627
  134SOL    HW1  534   1.361   2.549   1.414 -1.9458 -1.2586  1.9617
  134SOL    HW2  535   1.460   2.532   1.537 -0.2788 -0.8209  2.1998
  134SOL     MW  536   1.412   2.500   1.463 -0.2080 -0.8756  0.4293
  135SOL     OW  537   3.001   1.005   2.922 -0.5370 -0.2692 -0.3370
  135SOL    HW1  538   3.073   1.056   2.947 -0.4645 -1.6254 -0.7087
  135SOL    HW2  539   2.936   1.074   2.889 -3.5728  0.3761  0.3669
  135SOL     MW  540   3.002   1.021   2.921 -0.9280 -0.3630 -0.2932
  136SOL     OW  541   0.147   2.002   0.858 -0.2119 -0.1919 -0.2525
  136SOL    HW1  542   0.071   1.942   0.840 -1.1104  2.8211  0.5103
  136SOL    HW2  543   0.225   1.951   0.833  1.7455  0.5951  1.3958
  136SOL     MW  544   0.147   1.987   0.852 -0.0722  0.3095  0.0656
  137SOL     OW  545   0.748   2.074   0.610  0.0531 -0.0175  0.5480
  137SOL    HW1  546   0.762   2.055   0.703 -0.7673  0.4683 -1.1686
  137SOL    HW2  547   0.651   2.088   0.605  0.2840 -0.9131 -0.5920
  137SOL     MW  548   0.737   2.073   0.622 -0.0247 -0.0715  0.1711
  138SOL     OW  549   0.520   0.613   1.066  0.2274  0.6719 -0.0825
  138SOL    HW1  550   0.425   0.594   1.068 -1.2626 -1.3971 -0.8051
  138SOL    HW2  551   0.560   0.563   0.996  2.4583 -1.2558 -1.7023
  138SOL     MW  552   0.513   0.604   1.057  0.3251  0.1446 -0.3915
  139SOL     OW  553   2.860   0.485   1.328 -0.0552 -0.1019 -0.2744
  139SOL    HW1  554   2.954   0.464   1.327  0.3653 -0.4459  0.3377
  139SOL    HW2  555   2.847   0.539   1.406 -0.3089 -0.9324 -1.1185
  139SOL     MW  556   2.871   0.489   1.338 -0.0332 -0.2568 -0.3050
  140SOL     OW  557   0.909   0.472   1.949  0.2012 -0.5946 -0.3766
  140SOL    HW1  558   0.960   0.396   1.928 -0.4132 -1.6251  0.2688
  140SOL    HW2  559   0.882   0.461   2.044  0.2579  1.5553  2.6106
  140SOL     MW  560   0.912   0.461   1.959  0.1276 -0.4469  0.1027
  141SOL     OW  561   1.117   0.672   1.724  0.3634  0.4628 -0.0249
  141SOL    HW1  562   1.116   0.598   1.661  0.9410  1.7790  0.0977
  141SOL    HW2  563   1.179   0.637   1.794  1.1456  0.4418  1.6746
  141SOL     MW  564   1.125   0.658   1.725  0.5428  0.6337  0.2155
  142SOL     OW  565   0.835   1.168   0.771 -0.2754 -0.1211  0.0472
  142SOL    HW1  566   0.872   1.107   0.708 -1.8125  1.0091  1.1617
  142SOL    HW2  567   0.916   1.228   0.784  1.6504  0.8449 -0.7924
  142SOL     MW  568   0.850   1.168   0.765 -0.2241  0.1555  0.0834
  143SOL     OW  569   1.830   0.731   1.047 -0.1473  0.5657 -0.4239
  143SOL    HW1  570   1.898   0.743   0.987 -0.8437  1.1734  0.8886
  143SOL    HW2  571   1.745   0.743   0.997 -1.7756 -1.4379 -0.0192
  143SOL     MW  572   1.827   0.734   1.032 -0.4540  0.3815 -0.1973
  144SOL     OW  573   0.237   1.330   1.756 -0.1646  0.3864 -0.2140
  144SOL    HW1  574   0.312   1.389   1.743 -0.6840 -2.5236  1.1160
  144SOL    HW2  575   0.252   1.277   1.834  1.9908  0.9791  2.8341
  144SOL     MW  576   0.249   1.331   1.765  0.0513  0.0806  0.3636
  145SOL     OW  577   0.227   0.490   1.178  0.1665 -0.3316  0.2339
  145SOL    HW1  578   0.250   0.400   1.206  1.5517  2.4950 -2.2229
  145SOL    HW2  579   0.171   0.471   1.099 -2.6577  2.6092 -0.7319
  145SOL     MW  580   0.223   0.476   1.171 -0.0234  0.4293 -0.2177
  146SOL     OW  581   0.797   1.990   1.551  0.3233  1.0192 -0.0302
  146SOL    HW1  582   0.806   1.998   1.458 -1.2883 -0.6092 -1.1356
  146SOL    HW2  583   0.739   1.914   1.554  0.1314  1.3291  2.5468
  146SOL     MW  584   0.791   1.981   1.539  0.0854  0.8452  0.1639
  147SOL     OW  585   0.437   0.523   3.002 -0.0979 -0.2070 -0.1241
  147SOL    HW1  586   0.374   0.513   3.075 -0.2563 -3.0413  1.0166
  147SOL    HW2  587   0.393   0.591   2.946  0.5410 -0.0077 -1.1693
  147SOL     MW  588   0.423   0.531   3.004 -0.0345 -0.5547 -0.1115
  148SOL     OW  589   0.016   0.882   1.315  0.3365  0.1381 -0.2191
  148SOL    HW1  590   0.109   0.890   1.297  0.6838  1.3614  1.1449
  148SOL    HW2  591  -0.017   0.974   1.312 -2.4918  1.4185 -1.7500
  148SOL     MW  592   0.024   0.895   1.312  0.0091  0.4685 -0.2412
  149SOL     OW  593   1.517   1.219   1.447 -0.3422  0.0262  0.2147
  149SOL    HW1  594   1.449   1.222   1.522 -2.9200  1.3751  2.8865
  149SOL    HW2  595   1.541   1.310   1.423  1.4252  0.6244  1.3377
  149SOL     MW  596   1.512   1.231   1.454 -0.4491  0.2831  0.7154
  150SOL     OW  597   1.704   1.455   0.883 -0.3709  0.0600  0.0246
  150SOL    HW1  598   1.767   1.388   0.896  0.4123 -0.3012 -0.9681
  150SOL    HW2  599   1.761   1.529   0.858  3.8959 -1.3911  2.1088
  150SOL     MW  600   1.720   1.456   0.881  0.2954 -0.1791  0.1686
  151SOL     OW  601   1.591   1.846   0.811  0.3469 -0.3019 -0.2474
  151SOL    HW1  602   1.555   1.844   0.721 -0.5653 -0.9197  0.3516
  151SOL    HW2  603   1.518   1.808   0.867 -1.1480 -0.4267 -1.0605
  151SOL     MW  604   1.577   1.841   0.806  0.0293 -0.3999 -0.2757
  152SOL     OW  605   0.655   1.424   1.593 -0.0904  0.1220  0.2360
  152SOL    HW1  606   0.709   1.455   1.522 -0.9435 -3.4790  0.2095
  152SOL    HW2  607   0.589   1.362   1.558  1.7970  2.5220 -3.4658
  152SOL     MW  608   0.653   1.420   1.579  0.0460 -0.0364 -0.2559
  153SOL     OW  609   2.616   1.213   0.737  0.2324  0.4270  0.2223
  153SOL    HW1  610   2.702   1.183   0.717 -0.0555 -0.6996  1.5190
  153SOL    HW2  611   2.549   1.153   0.718  1.6700  0.4678 -0.3606
  153SOL     MW  612   2.619   1.201   0.732  0.3841  0.2837  0.3165
  154SOL     OW  613   0.116   1.783   1.763 -0.3080  0.0889  0.0937
  154SOL    HW1  614   0.059   1.694   1.761 -2.4987 -0.7334 -0.0745
  154SOL    HW2  615   0.202   1.764   1.812  0.0874 -0.3532  2.6302
  154SOL     MW  616   0.120   1.769   1.769 -0.5449 -0.0779  0.4062
  155SOL     OW  617   1.160   0.700   0.291  0.2543 -0.0346  0.0693
  155SOL    HW1  618   1.161   0.658   0.376  0.7949  1.7921 -3.9086
  155SOL    HW2  619   1.139   0.796   0.309 -3.4716  2.0788  1.9957
  155SOL     MW  620   1.158   0.707   0.305 -0.1659  0.4853 -0.2014
  156SOL     OW  621   1.572   3.102   1.098 -0.2200 -0.6416 -0.2665
  156SOL    HW1  622   1.629   3.145   1.164  1.7262  2.6320  2.3667
  156SOL    HW2  623   1.588   3.005   1.108 -0.4576  1.3838  4.4200
  156SOL     MW  624   1.582   3.095   1.108  0.0054  0.0575  0.6993
  157SOL     OW  625   1.260   1.142   0.159 -0.0974 -0.4197  0.0252
  157SOL    HW1  626   1.255   1.060   0.212  3.2415 -0.3350 -2.5300
  157SOL    HW2  627   1.338   1.189   0.187  0.5690  0.2810  4.8959
  157SOL     MW  628   1.269   1.137   0.169  0.4310 -0.3161  0.3307
  158SOL     OW  629   0.341   1.643   2.329 -0.6044 -0.3224  0.7283
  158SOL    HW1  630   0.286   1.688   2.264 -2.7094 -0.3524  0.9768
  158SOL    HW2  631   0.357   1.718   2.385  2.0257  0.3866 -0.7534
  158SOL     MW  632   0.336   1.659   2.328 -0.5351 -0.2328  0.5656
  159SOL     OW  633   1.213   1.719   0.486  0.2463 -0.2399 -0.4288
  159SOL    HW1  634   1.162   1.659   0.431 -0.4635  0.0500 -0.5270
  159SOL    HW2  635   1.156   1.752   0.552  0.6852 -0.1560  0.9302
  159SOL     MW  636   1.199   1.716   0.488  0.2105 -0.1906 -0.2625
  160SOL     OW  637   0.474   1.156   1.543 -0.4154  0.2272  0.8079
  160SOL    HW1  638   0.435   1.073   1.582  0.5508 -0.9068 -3.0574
  160SOL    HW2  639   0.564   1.142   1.525  1.0127 -1.6404  2.3011
  160SOL     MW  640   0.481   1.143   1.546 -0.0995 -0.1689  0.4949
  161SOL     OW  641   0.484   2.304   2.654 -0.0802 -0.3507 -0.1931
  161SOL    HW1  642   0.386   2.317   2.632 -2.6921 -3.2959 -3.8039
  161SOL    HW2  643   0.504   2.234   2.596  0.8600  0.9801 -0.7921
  161SOL     MW  644   0.474   2.296   2.643 -0.3008 -0.5637 -0.7485
  162SOL     OW  645   1.099   1.812   1.839 -0.0193  0.3933  0.4004
  162SOL    HW1  646   1.115   1.899   1.885 -2.6955  1.8095  0.4749
  162SOL    HW2  647   1.020   1.777   1.893 -1.1187 -1.2933  2.2227
  162SOL     MW  648   1.091   1.819   1.852 -0.5175  0.3576  0.6507
  163SOL     OW  649   2.122   3.034   0.800 -0.5308  0.1345 -0.1265
  163SOL    HW1  650   2.075   3.111   0.768 -0.9710 -0.4332 -1.6008
  163SOL    HW2  651   2.058   2.957   0.803 -1.9033 -1.0643  0.9554
  163SOL     MW  652   2.107   3.034   0.796 -0.7700 -0.0986 -0.1783
  164SOL     OW  653   0.215   0.215   0.786 -0.1608 -0.6691 -0.4720
  164SOL    HW1  654   0.121   0.199   0.822  0.6839 -0.7673  0.5743
  164SOL    HW2  655   0.249   0.138   0.738 -0.6123 -2.0126 -1.8077
  164SOL     MW  656   0.207   0.203   0.784 -0.1089 -0.8593 -0.5102
  165SOL     OW  657   1.149   1.291   0.383 -0.1702 -0.1411  0.3172
  165SOL    HW1  658   1.192   1.263   0.460  3.7118  0.8250  2.0747
  165SOL    HW2  659   1.186   1.226   0.319 -1.3441 -0.7523 -0.0654
  165SOL     MW  660   1.159   1.279   0.385  0.1872 -0.0943  0.4986
  166SOL     OW  661   0.336   1.181   1.051 -0.7058  0.6926 -0.3417
  166SOL    HW1  662   0.357   1.220   1.135  0.4415 -0.0982  0.5725
  166SOL    HW2  663   0.413   1.134   1.020  1.6571 -1.6619  0.5004
  166SOL     MW  664   0.349   1.180   1.058 -0.2426  0.2776 -0.1100
  167SOL     OW  665   0.801   1.155   0.399 -0.0272 -0.3556  0.2017
  167SOL    HW1  666   0.805   1.245   0.361  0.0666 -3.3150 -1.3680
  167SOL    HW2  667   0.810   1.106   0.319  0.2115  0.0326  0.7103
  167SOL     MW  668   0.802   1.161   0.383  0.0167 -0.6949  0.0617
  168SOL     OW  669   1.682   1.644   3.053  0.1342  0.1749  0.3077
  168SOL    HW1  670   1.604   1.702   3.038  0.5110  1.3836 -0.7485
  168SOL    HW2  671   1.671   1.556   3.017 -2.5166  0.4934  0.3662
  168SOL     MW  672   1.670   1.640   3.046 -0.1658  0.3764  0.1760
  169SOL     OW  673   0.302   0.914   1.348  0.1169 -0.6033 -0.1500
  169SOL    HW1  674   0.337   0.841   1.397 -1.6790 -4.2782  1.2751
  169SOL    HW2  675   0.297   0.993   1.407 -0.9779  2.3833  0.4923
  169SOL     MW  676   0.306   0.915   1.362 -0.2645 -0.6941  0.1228
  170SOL     OW  677   1.097   1.564   1.454 -0.1750  0.0922 -0.1753
  170SOL    HW1  678   1.059   1.629   1.513  0.7144 -1.9270  0.4059
  170SOL    HW2  679   1.113   1.597   1.364  0.4490 -1.1853 -1.9484
  170SOL     MW  680   1.094   1.577   1.450  0.0247 -0.3428 -0.3326
  171SOL     OW  681   0.491   1.509   0.505 -0.1557 -0.3298 -0.2169
  171SOL    HW1  682   0.412   1.534   0.462 -0.5478  1.4945 -2.5581
  171SOL    HW2  683   0.497   1.416   0.521  3.9580  1.9062 -2.4109
  171SOL     MW  684   0.482   1.500   0.501  0.3353  0.2059 -0.8153
  172SOL     OW  685   0.772   0.293   1.288  0.5510  0.1028  1.0997
  172SOL    HW1  686   0.779   0.225   1.220 -1.1405 -1.7671 -0.6880
  172SOL    HW2  687   0.830   0.254   1.349 -0.5809 -0.3825 -2.7313
  172SOL     MW  688   0.781   0.279   1.287  0.1785 -0.2079  0.3584
  173SOL     OW  689   0.500   1.752   0.296 -0.0381 -0.7043 -0.3512
  173SOL    HW1  690   0.568   1.682   0.294 -1.2223  0.9668 -1.8317
  173SOL    HW2  691   0.468   1.760   0.387 -0.2556 -1.0678  0.8343
  173SOL     MW  692   0.505   1.744   0.308 -0.2230 -0.5318 -0.3901
  174SOL     OW  693   1.926   0.904   1.503  0.3820  0.7002 -0.2738
  174SOL    HW1  694   1.868   0.831   1.515  0.5991  0.3764 -0.6037
  174SOL    HW2  695   1.897   0.947   1.418 -1.5251  1.7349 -2.2640
  174SOL     MW  696   1.915   0.900   1.493  0.1590  0.7940 -0.5799
  175SOL     OW  697   0.599   1.488   0.239  0.3743  0.2099  0.8995
  175SOL    HW1  698   0.550   1.444   0.309 -0.4425  1.3822  2.0600
  175SOL    HW2  699   0.695   1.482   0.255  0.3426 -0.7283 -1.3006
  175SOL     MW  700   0.605   1.481   0.250  0.2624  0.2408  0.7624
  176SOL     OW  701   0.093   1.506   1.213  0.3455  0.2587 -0.6037
  176SOL    HW1  702   0.067   1.438   1.149  2.0674  0.7338 -0.5223
  176SOL    HW2  703   0.016   1.511   1.270 -1.8481 -0.5442 -0.0692
  176SOL     MW  704   0.079   1.498   1.212  0.2833  0.2155 -0.5224
  177SOL     OW  705   0.532   0.277   1.433  0.8823  0.3869  0.4367
  177SOL    HW1  706   0.617   0.281   1.387  1.1542 -0.0749  0.3164
  177SOL    HW2  707   0.534   0.353   1.490 -0.1956  1.7401 -1.1912
  177SOL     MW  708   0.544   0.288   1.434  0.7760  0.5045  0.2060
  178SOL     OW  709   3.102   0.633   2.933 -0.3808  0.8531 -0.6652
  178SOL    HW1  710   3.016   0.596   2.932 -2.3431 -1.5297 -3.8055
  178SOL    HW2  711   3.135   0.596   2.857  3.1935 -1.8638 -0.9476
  178SOL     MW  712   3.095   0.623   2.923 -0.1681  0.1803 -1.1168
  179SOL     OW  713   1.574   1.478   1.373  0.8875 -0.0449  0.4872
  179SOL    HW1  714   1.591   1.504   1.466 -0.9785 -0.4048 -0.0495
  179SOL    HW2  715   1.667   1.469   1.347 -0.1645 -0.6125 -1.1283
  179SOL     MW  716   1.589   1.480   1.382  0.5025 -0.1673  0.2032
  180SOL     OW  717   0.049   0.234   0.433 -0.0794 -0.1736  0.1533
  180SOL    HW1  718  -0.036   0.272   0.410  0.9971 -1.1813 -0.1733
  180SOL    HW2  719   0.091   0.317   0.461 -0.8438  1.4382  0.2698
  180SOL     MW  720   0.043   0.250   0.434 -0.0382 -0.0939  0.1256
  181SOL     OW  721   1.079   1.322   0.040 -0.5688 -0.3943 -0.0837
  181SOL    HW1  722   1.126   1.338   0.121  0.1972  1.5947  1.9970
  181SOL    HW2  723   1.152   1.303  -0.022 -0.0686  0.6232 -4.4562
  181SOL     MW  724   1.095   1.321   0.042 -0.4017  0.0024 -0.3861
  182SOL     OW  725   0.355   0.906   1.625 -0.0218  0.9926  0.6511
  182SOL    HW1  726   0.275   0.921   1.675  2.0041 -0.2615  1.5161
  182SOL    HW2  727   0.400   0.845   1.686 -0.8658 -0.9598  1.9972
  182SOL     MW  728   0.350   0.900   1.640  0.1341  0.5696  0.9429
  183SOL     OW  729   1.544   1.738   1.272 -0.2072 -0.0911 -0.3756
  183SOL    HW1  730   1.631   1.768   1.286 -0.6198 -0.6478  0.1531
  183SOL    HW2  731   1.556   1.639   1.286 -0.5237  1.4682 -3.2976
  183SOL     MW  732   1.557   1.729   1.276 -0.3034  0.0411 -0.6914
  184SOL     OW  733   0.847   0.635   1.699  0.2706  0.2139 -0.5831
  184SOL    HW1  734   0.941   0.655   1.709 -2.2530 -0.7561  1.2057
  184SOL    HW2  735   0.827   0.577   1.773 -1.6327  0.1540 -2.1881
  184SOL     MW  736   0.856   0.630   1.710 -0.3135  0.0780 -0.5589
  185SOL     OW  737   1.070   0.960   1.867 -0.4571 -0.3870 -0.1122
  185SOL    HW1  738   1.039   0.874   1.904 -0.1666  0.7491 -1.8601
  185SOL    HW2  739   1.126   0.995   1.937  3.1711  0.6708 -0.1460
  185SOL     MW  740   1.073   0.953   1.881  0.0599 -0.0976 -0.3472
  186SOL     OW  741   0.280   1.636   1.523  0.8111  0.0614 -0.2579
  186SOL    HW1  742   0.312   1.587   1.449  1.1121  2.3551 -1.0694
  186SOL    HW2  743   0.189   1.606   1.536  0.6892  3.1811  0.2725
  186SOL     MW  744   0.273   1.626   1.515  0.8347  0.7756 -0.2950
  187SOL     OW  745   1.407   0.839   1.362 -0.1177  0.5989  0.1844
  187SOL    HW1  746   1.397   0.865   1.452 -1.0421 -0.0482 -1.5085
  187SOL    HW2  747   1.317   0.861   1.339  0.4089  0.7474 -1.0985
  187SOL     MW  748   1.394   0.845   1.371 -0.1702  0.5331 -0.2082
  188SOL     OW  749   1.865   1.216   0.923  0.5034 -0.1111 -0.2830
  188SOL    HW1  750   1.901   1.227   1.012 -0.1797 -0.4560 -0.2862
  188SOL    HW2  751   1.832   1.127   0.925  0.6518  0.9939 -0.0552
  188SOL     MW  752   1.866   1.206   0.935  0.4329 -0.0108 -0.2533
  189SOL     OW  753   0.729   0.722   0.854  0.1225  0.5195  0.1481
  189SOL    HW1  754   0.654   0.771   0.873 -0.4826  0.3148 -1.2390
  189SOL    HW2  755   0.787   0.747   0.930 -0.2012 -0.0913 -0.2695
  189SOL     MW  756   0.727   0.732   0.867 -0.0000  0.4119 -0.0900
  190SOL     OW  757   1.885   0.288   2.034  0.0394  0.5025  0.0341
  190SOL    HW1  758   1.878   0.253   2.126  0.4597 -0.0929 -0.2548
  190SOL    HW2  759   1.964   0.346   2.040  0.0342  1.1139 -3.1634
  190SOL     MW  760   1.894   0.291   2.047  0.0941  0.5046 -0.4259
  191SOL     OW  761   1.507   1.054   1.224 -0.4686  0.2006 -0.4481
  191SOL    HW1  762   1.517   1.113   1.300 -0.5261  1.6899  1.9360
  191SOL    HW2  763   1.492   0.969   1.264 -0.6035 -1.4844 -0.5845
  191SOL     MW  764   1.506   1.050   1.240 -0.4940  0.1748 -0.1516
  192SOL     OW  765   0.514   2.200   2.951  0.6415 -0.0482 -0.2576
  192SOL    HW1  766   0.494   2.233   2.861 -1.6882 -0.9987 -0.2200
  192SOL    HW2  767   0.520   2.106   2.928  0.2416  1.6346  0.4514
  192SOL     MW  768   0.512   2.192   2.936  0.2813  0.0484 -0.1591
  193SOL     OW  769   0.828   1.674   0.786 -0.3730  0.4550 -0.3317
  193SOL    HW1  770   0.745   1.684   0.841  3.1753 -0.8554  1.1588
  193SOL    HW2  771   0.795   1.613   0.729 -2.1455 -1.8245  1.4287
  193SOL     MW  772   0.813   1.667   0.786 -0.1387 -0.0187  0.0972
  194SOL     OW  773   0.390   1.334   0.842  0.1271  0.2651  0.0182
  194SOL    HW1  774   0.355   1.305   0.920  3.0351 -1.5922  0.1660
  194SOL    HW2  775   0.314   1.362   0.790  1.2048  1.5085  2.6590
  194SOL     MW  776   0.375   1.334   0.845  0.6530  0.1841  0.3861
  195SOL     OW  777   1.230   1.119   2.971  0.0550  0.0685 -0.4259
  195SOL    HW1  778   1.235   1.116   3.067  1.8217  1.3982  1.4642
  195SOL    HW2  779   1.170   1.038   2.960 -0.8526 -1.6378 -2.3632
  195SOL     MW  780   1.223   1.108   2.982  0.1684  0.0188 -0.4321
  196SOL     OW  781   2.247   0.977   0.521 -0.0827 -0.4069  0.1717
  196SOL    HW1  782   2.282   0.962   0.429  0.3922  2.6343 -1.8538
  196SOL    HW2  783   2.251   1.069   0.530  1.0969  0.0499 -2.1678
  196SOL     MW  784   2.252   0.987   0.510  0.1356  0.0546 -0.4042
  197SOL     OW  785   0.611   1.308   2.180  0.0295 -0.6724  0.3088
  197SOL    HW1  786   0.648   1.229   2.136  0.6412 -1.6838  0.5855
  197SOL    HW2  787   0.682   1.377   2.168  0.8082  0.6899 -1.7583
  197SOL     MW  788   0.625   1.306   2.173  0.2129 -0.6261  0.0726
  198SOL     OW  789   2.920   1.374   1.031  0.4181 -0.6269  0.5761
  198SOL    HW1  790   2.900   1.463   0.995 -2.4261 -1.1899  0.0990
  198SOL    HW2  791   2.833   1.320   1.018 -2.7869 -0.6324  1.6174
  198SOL     MW  792   2.906   1.379   1.024 -0.3800 -0.7019  0.6506
  199SOL     OW  793   0.651   1.220   1.826 -0.2306 -0.7761  0.5242
  199SOL    HW1  794   0.566   1.225   1.864  1.9819 -0.2421 -0.4898
  199SOL    HW2  795   0.655   1.302   1.768  0.8257 -1.5228  1.3334
  199SOL     MW  796   0.641   1.232   1.824  0.2007 -0.8042  0.4972
  200SOL     OW  797   1.859   2.961   1.299  0.2869 -0.1507  0.2587
  200SOL    HW1  798   1.921   2.981   1.222  0.5762  2.1630 -0.6781
  200SOL    HW2  799   1.827   3.049   1.309  0.7730 -0.8438  0.1877
  200SOL     MW  800   1.863   2.975   1.290  0.3892  0.0631  0.1258
  201SOL     OW  801   1.188   0.298   0.857  0.0427  0.0805  0.2139
  201SOL    HW1  802   1.151   0.222   0.818  2.7719  0.7812  1.4799
  201SOL    HW2  803   1.283   0.275   0.856  0.4177  0.7922 -3.0170
  201SOL     MW  804   1.196   0.285   0.852  0.4523  0.2668 -0.0454
  202SOL     OW  805   1.445   1.690   1.010 -0.8037 -1.0796 -0.2687
  202SOL    HW1  806   1.434   1.593   1.000 -1.7324  0.8593  3.0247
  202SOL    HW2  807   1.486   1.702   1.099  1.7037  0.6826  1.5008
  202SOL     MW  808   1.449   1.679   1.020 -0.5954 -0.5913  0.3993
  203SOL     OW  809   0.013   0.413   1.349 -0.1700 -0.0452 -0.1445
  203SOL    HW1  810   0.019   0.321   1.338 -1.2680 -0.4033  2.6240
  203SOL    HW2  811   0.065   0.454   1.278 -0.6907 -0.2531  0.4760
  203SOL     MW  812   0.021   0.406   1.338 -0.3836 -0.1199  0.3027
  204SOL     OW  813   1.006   1.837   0.655  0.2104 -0.2860 -0.1558
  204SOL    HW1  814   0.931   1.807   0.709  0.6374 -0.9469 -0.2328
  204SOL    HW2  815   0.967   1.866   0.570  1.2109  1.7662 -0.4145
  204SOL     MW  816   0.991   1.837   0.651  0.3988 -0.1024 -0.2001
  205SOL     OW  817   1.385   3.000   1.340 -0.1735 -0.4811  0.9252
  205SOL    HW1  818   1.426   3.055   1.272  0.9651  1.2198  1.0506
  205SOL    HW2  819   1.306   3.052   1.360  1.1935 -1.1883  2.4872
  205SOL     MW  820   1.380   3.014   1.334  0.1571 -0.3500  1.1479
  206SOL     OW  821   0.356   2.873   1.377 -0.2616 -0.2283  0.2672
  206SOL    HW1  822   0.349   2.908   1.289 -0.1110 -0.5597 -0.0866
  206SOL    HW2  823   0.451   2.867   1.392  1.1654 -1.1908 -1.4042
  206SOL     MW  824   0.368   2.877   1.368 -0.0535 -0.3990  0.0000
  207SOL     OW  825   0.863   1.727   0.218 -0.1260 -0.3509 -0.1190
  207SOL    HW1  826   0.956   1.741   0.198 -1.1694  1.2277 -0.4430
  207SOL    HW2  827   0.853   1.644   0.267 -1.0926 -0.6534  1.9322
  207SOL     MW  828   0.874   1.718   0.222 -0.3912 -0.1826  0.1089
  208SOL     OW  829   0.783   1.501   1.371 -0.2626 -0.3005  0.2876
  208SOL    HW1  830   0.856   1.547   1.341 -2.2567 -3.6334  0.2839
  208SOL    HW2  831   0.774   1.424   1.308 -0.7235  0.7221  2.8354
  208SOL     MW  832   0.791   1.497   1.358 -0.5865 -0.6053  0.6233
  209SOL     OW  833   1.616   0.489   2.823  0.0879  0.5295 -0.2630
  209SOL    HW1  834   1.672   0.565   2.850  1.4650  2.0583 -0.2171
  209SOL    HW2  835   1.669   0.431   2.770  1.7313 -0.0188  3.1864
  209SOL     MW  836   1.630   0.492   2.819  0.4864  0.6589  0.1982
  210SOL     OW  837   1.443   1.411   0.956 -0.0532 -0.1623 -0.0293
  210SOL    HW1  838   1.534   1.417   0.929 -2.8685 -0.5655 -0.3095
  210SOL    HW2  839   1.401   1.426   0.866 -1.2501  0.5072  0.8155
  210SOL     MW  840   1.449   1.414   0.940 -0.5825 -0.1272  0.0452
  211SOL     OW  841   1.748   0.453   0.881  0.1165 -0.9249 -0.2423
  211SOL    HW1  842   1.745   0.471   0.789 -0.9453 -2.2742 -1.9241
  211SOL    HW2  843   1.832   0.436   0.909 -0.3378  0.7544 -1.7347
  211SOL     MW  844   1.759   0.453   0.872 -0.0835 -0.8814 -0.6611
  212SOL     OW  845   0.406   1.221   0.227  0.1960  0.5918  0.8305
  212SOL    HW1  846   0.353   1.144   0.245  1.5238  0.5935 -1.8115
  212SOL    HW2  847   0.469   1.182   0.153 -0.2235 -3.0008 -1.2111
  212SOL     MW  848   0.407   1.206   0.220  0.3158  0.1180  0.2125
  213SOL     OW  849   0.424   1.795   3.060 -0.1208  0.3994  0.7743
  213SOL    HW1  850   0.483   1.840   3.119  0.7867  1.5981 -0.6926
  213SOL    HW2  851   0.452   1.848   2.982  0.3040 -0.2169  0.3701
  213SOL     MW  852   0.435   1.808   3.058  0.0550  0.4762  0.5274
  214SOL     OW  853   0.566   0.363   2.122 -0.1138  0.0455 -0.1973
  214SOL    HW1  854   0.503   0.436   2.125  2.1477 -0.5126  1.7922
  214SOL    HW2  855   0.573   0.353   2.022  0.4727 -1.6120  0.9100
  214SOL     MW  856   0.559   0.371   2.109  0.2619 -0.2468  0.2113
  215SOL     OW  857   0.531   0.540   2.490  0.5519  1.2676  0.1236
  215SOL    HW1  858   0.461   0.584   2.445  1.1441  2.2757  3.0566
  215SOL    HW2  859   0.499   0.451   2.481  2.7523 -1.7813 -0.9038
  215SOL     MW  860   0.518   0.534   2.483  0.9203  0.9983  0.3750
  216SOL     OW  861   2.916   3.089   2.856 -0.1913 -0.2054 -0.1217
  216SOL    HW1  862   2.821   3.099   2.840 -0.1362  1.8377  1.6749
  216SOL    HW2  863   2.965   3.135   2.795  0.7016 -0.4351  1.2082
  216SOL     MW  864   2.910   3.096   2.846 -0.0662  0.0338  0.2908
  217SOL     OW  865   0.945   1.094   0.147 -0.3737 -0.1153 -0.1672
  217SOL    HW1  866   0.976   1.038   0.076 -1.4155  0.9423  1.2530
  217SOL    HW2  867   0.983   1.179   0.116  1.7351  0.6666 -3.2215
  217SOL     MW  868   0.954   1.097   0.134 -0.2329  0.1274 -0.3828
  218SOL     OW  869   0.814   1.402   2.603 -0.7272  0.7520 -0.0296
  218SOL    HW1  870   0.786   1.323   2.649  1.6448  1.7915  0.3059
  218SOL    HW2  871   0.893   1.422   2.657  0.5527  0.7774  0.7365
  218SOL     MW  872   0.821   1.395   2.616 -0.2454  0.8925  0.1158
  219SOL     OW  873   1.061   0.461   2.552  0.6938 -0.0551 -0.2787
  219SOL    HW1  874   1.125   0.523   2.565  0.2747 -5.1728 -2.8186
  219SOL    HW2  875   0.979   0.510   2.537  0.3059 -1.0849  0.0076
  219SOL     MW  876   1.059   0.476   2.552  0.5873 -0.8662 -0.5761
  220SOL     OW  877   1.673   0.497   2.219 -0.1377  0.2896 -0.2953
  220SOL    HW1  878   1.582   0.521   2.194 -0.5086  0.0885  0.5431
  220SOL    HW2  879   1.699   0.422   2.163  0.2832 -1.1883  0.1712
  220SOL     MW  880   1.664   0.491   2.208 -0.1311  0.0681 -0.1231
  221SOL     OW  881   0.357   1.371   2.939 -0.6522 -0.2010 -0.5230
  221SOL    HW1  882   0.419   1.294   2.919 -0.2876 -1.8089  1.0901
  221SOL    HW2  883   0.415   1.449   2.923 -1.5836 -1.3447  1.0082
  221SOL     MW  884   0.373   1.371   2.935 -0.7270 -0.5640 -0.1082
  222SOL     OW  885   0.519   0.909   2.734 -0.0979 -0.0970 -0.1081
  222SOL    HW1  886   0.442   0.898   2.679  1.3328  1.2877 -1.7463
  222SOL    HW2  887   0.547   0.816   2.748 -0.6536  0.6233 -0.2568
  222SOL     MW  888   0.513   0.895   2.729  0.0175  0.1807 -0.3439
  223SOL     OW  889   3.044   2.038   2.523  0.4722  0.5631  0.3831
  223SOL    HW1  890   3.072   2.087   2.596  0.2316 -0.6654  0.9064
  223SOL    HW2  891   3.088   2.081   2.453  1.3961 -1.2786  1.0728
  223SOL     MW  892   3.053   2.050   2.523  0.5623  0.1580  0.5431
  224SOL     OW  893   1.459   0.630   2.415 -0.3706 -0.6475 -0.1427
  224SOL    HW1  894   1.549   0.607   2.447 -0.9861 -0.6603 -1.6667
  224SOL    HW2  895   1.456   0.720   2.443  0.6066 -0.5672  0.5126
  224SOL     MW  896   1.470   0.639   2.423 -0.3229 -0.6386 -0.2573
  225SOL     OW  897   2.929   1.506   2.183 -0.5449 -0.0126  0.1897
  225SOL    HW1  898   2.978   1.587   2.159 -1.8777 -0.9682  0.6542
  225SOL    HW2  899   2.859   1.526   2.244 -0.5574  2.9455  0.5315
  225SOL     MW  900   2.926   1.519   2.188 -0.7224  0.2516  0.2960
  226SOL     OW  901   0.455   1.566   2.695 -0.2475  0.2815  0.1215
  226SOL    HW1  902   0.539   1.582   2.648  1.4207 -2.4293  0.4929
  226SOL    HW2  903   0.404   1.647   2.691  0.1043 -0.5749  3.1125
  226SOL     MW  904   0.460   1.579   2.688  0.0190 -0.1892  0.5652
  227SOL     OW  905   0.517   1.148   2.890 -0.2656  0.0483  0.1070
  227SOL    HW1  906   0.604   1.171   2.854 -1.1122 -1.9493  1.3863
  227SOL    HW2  907   0.498   1.059   2.855 -2.0835 -3.4580  1.4052
  227SOL     MW  908   0.526   1.139   2.880 -0.6171 -0.6779  0.4471
  228SOL     OW  909   0.788   1.101   2.016  0.0888  0.2046 -0.4306
  228SOL    HW1  910   0.731   1.140   1.955 -1.7042  0.0326 -0.1546
  228SOL    HW2  911   0.866   1.157   2.007  0.0658  1.4343  2.9794
  228SOL     MW  912   0.791   1.114   2.007 -0.1508  0.3442  0.0557
  229SOL     OW  913   0.182   0.567   0.028 -0.4676  0.5254  0.1100
  229SOL    HW1  914   0.112   0.567  -0.045  0.6027  2.3684 -0.9477
  229SOL    HW2  915   0.158   0.493   0.089  1.8770  0.2598 -0.5206
  229SOL     MW  916   0.169   0.557   0.027 -0.0170  0.7335 -0.1127
  230SOL     OW  917   1.768   1.345   2.151  0.1168  0.2798  0.3912
  230SOL    HW1  918   1.675   1.315   2.139 -0.2484  0.9375  3.2733
  230SOL    HW2  919   1.832   1.269   2.133 -0.4757 -1.5568  1.4670
  230SOL     MW  920   1.764   1.331   2.147 -0.0096  0.1242  0.9134
  231SOL     OW  921   2.714   1.269   2.225 -0.2289 -0.6681  0.2918
  231SOL    HW1  922   2.775   1.329   2.181 -3.2361  0.6423 -2.1108
  231SOL    HW2  923   2.647   1.269   2.151 -0.7733 -0.0160 -2.8636
  231SOL     MW  924   2.713   1.277   2.210 -0.6975 -0.4091 -0.4415
  232SOL     OW  925   2.267   0.888   1.981 -0.4774  0.0211  0.4905
  232SOL    HW1  926   2.173   0.907   1.976  1.1362  1.5832  2.5663
  232SOL    HW2  927   2.265   0.819   2.053 -3.0031 -0.1225 -0.5645
  232SOL     MW  928   2.255   0.881   1.989 -0.5978  0.2082  0.6252
  233SOL     OW  929   2.096   0.444   2.063  0.0933 -0.1679 -0.3076
  233SOL    HW1  930   2.152   0.376   2.031 -1.5885  3.6397  2.4524
  233SOL    HW2  931   2.131   0.470   2.143 -3.0114 -1.9900 -0.5822
  233SOL     MW  932   2.108   0.438   2.069 -0.5383  0.0941  0.0203
  234SOL     OW  933   0.262   1.058   2.628  0.3130 -0.0770 -0.2461
  234SOL    HW1  934   0.195   1.075   2.560 -1.6172  0.8877 -0.5522
  234SOL    HW2  935   0.292   1.141   2.652 -2.7694  1.4746 -2.2650
  234SOL     MW  936   0.257   1.071   2.622 -0.3484  0.2550 -0.5528
  235SOL     OW  937   1.129   0.032   2.821 -0.6666  0.1317 -0.0253
  235SOL    HW1  938   1.139   0.020   2.915 -0.6162  0.9135 -1.8690
  235SOL    HW2  939   1.100   0.124   2.814 -3.1390  0.9836 -0.3206
  235SOL     MW  940   1.126   0.043   2.832 -0.9861  0.3473 -0.3075
  236SOL     OW  941   2.961   0.613   0.183 -0.0830  0.7028 -0.0716
  236SOL    HW1  942   3.003   0.620   0.269 -0.3278 -0.4085 -1.9916
  236SOL    HW2  943   2.993   0.687   0.139  1.5486 -1.2235 -1.4535
  236SOL     MW  944   2.971   0.623   0.188  0.0999  0.3020 -0.5072
  237SOL     OW  945   1.898   1.128   2.117  0.3119  0.6874  0.1680
  237SOL    HW1  946   1.848   1.062   2.182 -0.4536 -2.1422  0.0991
  237SOL    HW2  947   1.872   1.102   2.030  0.7619 -1.3147  0.1213
  237SOL     MW  948   1.888   1.116   2.114  0.2703  0.0499  0.1527
  238SOL     OW  949   1.097   1.718   2.899  0.1975 -0.1223  0.1023
  238SOL    HW1  950   1.036   1.649   2.893  1.6201  0.1309 -1.0241
  238SOL    HW2  951   1.183   1.669   2.906  0.3801 -1.5526 -3.3332
  238SOL     MW  952   1.100   1.702   2.899  0.4093 -0.2776 -0.4996
  239SOL     OW  953   1.170   1.283   2.363  0.1202 -0.3866  0.2306
  239SOL    HW1  954   1.091   1.332   2.377 -0.5798  0.4677  1.6597
  239SOL    HW2  955   1.195   1.243   2.446 -1.5690 -0.9362  0.8505
  239SOL     MW  956   1.163   1.284   2.376 -0.1950 -0.3464  0.5009
  240SOL     OW  957   0.571   0.839   2.311  0.0524 -0.3022 -0.3626
  240SOL    HW1  958   0.625   0.890   2.370 -2.0159 -0.3097  0.0308
  240SOL    HW2  959   0.641   0.821   2.253  3.5950  2.3273  0.1041
  240SOL     MW  960   0.587   0.843   2.311  0.2469  0.0437 -0.2491
  241SOL     OW  961   0.679   0.454   3.094 -0.5525 -0.1928 -0.4782
  241SOL    HW1  962   0.705   0.525   3.155 -3.5756  3.3659 -0.7484
  241SOL    HW2  963   0.587   0.473   3.071  2.6096  0.8202  0.7217
  241SOL     MW  964   0.670   0.466   3.099 -0.5341  0.4104 -0.3556
  242SOL     OW  965   1.508   1.617   2.294  0.5501 -0.1311 -0.3121
  242SOL    HW1  966   1.437   1.681   2.299 -0.0784 -0.3576  2.2655
  242SOL    HW2  967   1.473   1.552   2.238  0.7118  1.3142  0.2275
  242SOL     MW  968   1.494   1.616   2.287  0.4885  0.0297  0.0992
  243SOL     OW  969   0.962   0.232   2.413 -0.0827 -0.6882  0.7124
  243SOL    HW1  970   1.042   0.186   2.393 -1.3086  0.0768  0.8728
  243SOL    HW2  971   0.995   0.321   2.440 -2.4431 -1.8023 -0.0798
  243SOL     MW  972   0.977   0.238   2.414 -0.5559 -0.7343  0.6290
  244SOL     OW  973   0.121   0.790   2.388  0.1010  0.0228 -0.1019
  244SOL    HW1  974   0.109   0.879   2.419  1.0171  2.8593  0.3444
  244SOL    HW2  975   0.215   0.773   2.369  2.4911  1.8586 -1.5828
  244SOL     MW  976   0.132   0.799   2.390  0.5373  0.6393 -0.2384
  245SOL     OW  977   1.275   0.102   2.395 -0.0851 -0.5324 -0.1941
  245SOL    HW1  978   1.350   0.088   2.339 -0.3669  1.0670  2.7352
  245SOL    HW2  979   1.277   0.032   2.456 -0.0586  2.1959 -2.2412
  245SOL     MW  980   1.285   0.091   2.395 -0.1188  0.0386 -0.0777
  246SOL     OW  981   1.183   1.085   2.085 -0.1137 -0.6888 -0.0715
  246SOL    HW1  982   1.127   1.073   2.161  0.0783  0.2022  1.1149
  246SOL    HW2  983   1.262   1.043   2.128  1.0711 -0.1806  1.3485
  246SOL     MW  984   1.186   1.078   2.101  0.0680 -0.5042  0.2724
  247SOL     OW  985   0.783   0.644   0.186  0.0268 -0.0197  0.0929
  247SOL    HW1  986   0.754   0.738   0.182  0.5131  1.7606 -0.2992
  247SOL    HW2  987   0.876   0.636   0.159  2.5573  1.0382 -1.6270
  247SOL     MW  988   0.791   0.655   0.182  0.4248  0.3548 -0.1858
  248SOL     OW  989   0.345   1.334   2.627  0.3977 -0.1472  0.4138
  248SOL    HW1  990   0.366   1.346   2.536  0.6094  1.0779  0.4816
  248SOL    HW2  991   0.393   1.403   2.672  0.9362 -1.2946 -0.2522
  248SOL     MW  992   0.354   1.345   2.621  0.4967 -0.1369  0.3349
  249SOL     OW  993   3.025   1.914   2.800 -0.3239 -0.3958  0.3119
  249SOL    HW1  994   2.982   1.829   2.782  1.5829 -2.2761 -0.9080
  249SOL    HW2  995   3.109   1.892   2.841  1.0907 -1.6344 -3.0864
  249SOL     MW  996   3.031   1.900   2.803  0.1143 -0.8073 -0.2974
  250SOL     OW  997   2.270   0.708   2.193 -0.0955 -0.5742  0.4585
  250SOL    HW1  998   2.209   0.652   2.230  0.1522  2.9531 -1.2245
  250SOL    HW2  999   2.360   0.690   2.240  0.5692 -0.3306 -1.4872
  250SOL     MW 1000   2.274   0.698   2.204  0.0249 -0.0767 -0.0202
  251SOL     OW 1001   0.171   0.874   2.012 -0.3514  0.1804 -0.8146
  251SOL    HW1 1002   0.135   0.793   2.030 -0.7848 -0.7113  1.6802
  251SOL    HW2 1003   0.188   0.878   1.919  2.7378  0.2686 -1.2471
  251SOL     MW 1004   0.168   0.864   2.002 -0.0010  0.0744 -0.5425
  252SOL     OW 1005   1.701   1.026   2.885 -0.0060 -0.5561  0.4365
  252SOL    HW1 1006   1.743   1.064   2.960  1.2621  2.1802 -3.1487
  252SOL    HW2 1007   1.769   1.038   2.825  1.2829  1.1786 -1.2334
  252SOL     MW 1008   1.715   1.033   2.887  0.3313  0.0338 -0.2569
  253SOL     OW 1009   1.139   1.670   2.541 -0.1189  0.0337  0.2507
  253SOL    HW1 1010   1.086   1.625   2.468 -0.7985 -1.9963 -3.2175
  253SOL    HW2 1011   1.072   1.735   2.561  1.5164 -0.0720  0.1781
  253SOL     MW 1012   1.123   1.673   2.534  0.0072 -0.2481 -0.2165
  254SOL     OW 1013   0.984   1.048   2.270  0.0047  0.1650  0.5877
  254SOL    HW1 1014   0.934   0.971   2.241 -1.0783 -1.7222 -0.7486
  254SOL    HW2 1015   0.919   1.116   2.290  0.1196 -2.2044  0.7071
  254SOL     MW 1016   0.968   1.047   2.269 -0.1230 -0.3966  0.4271
  255SOL     OW 1017   0.862   2.481   2.139  0.4192 -0.7618  0.3867
  255SOL    HW1 1018   0.779   2.439   2.130 -1.6657  1.8557  0.1923
  255SOL    HW2 1019   0.926   2.435   2.201  0.8143  0.1878  0.3105
  255SOL     MW 1020   0.859   2.469   2.146  0.1963 -0.2911  0.3510
  256SOL     OW 1021   1.349   2.804   3.063 -0.1776  0.5703 -0.1623
  256SOL    HW1 1022   1.316   2.716   3.060 -0.7415  1.5572 -1.8878
  256SOL    HW2 1023   1.391   2.800   2.977 -0.4706 -1.5359  0.8492
  256SOL     MW 1024   1.350   2.792   3.051 -0.2907  0.4226 -0.2565
  257SOL     OW 1025   0.056   1.975   0.044  0.0261  0.3291 -0.6761
  257SOL    HW1 1026   0.112   1.959   0.119  0.4638  0.8084  1.7069
  257SOL    HW2 1027   0.082   1.919  -0.029 -0.9873  0.0779  0.3604
  257SOL     MW 1028   0.066   1.965   0.044 -0.0499  0.3592 -0.2249
  258SOL     OW 1029   0.697   0.987   2.529  0.2044 -0.2953  0.2991
  258SOL    HW1 1030   0.719   1.082   2.516  1.1094  2.0896  1.1262
  258SOL    HW2 1031   0.623   0.962   2.591  1.4914 -0.0624  2.2896
  258SOL     MW 1032   0.690   0.996   2.535  0.4936  0.0501  0.6709
  259SOL     OW 1033   0.809   0.413   2.258 -0.1622  0.0314  0.2242
  259SOL    HW1 1034   0.731   0.377   2.219  1.8662 -0.2327  1.5050
  259SOL    HW2 1035   0.852   0.332   2.293  1.1207  1.3190 -2.1218
  259SOL     MW 1036   0.804   0.397   2.257  0.2747  0.1665  0.0837
  260SOL     OW 1037   0.653   0.072   1.611  0.7372 -0.1391  0.2534
  260SOL    HW1 1038   0.605   0.139   1.567  1.3681 -1.4939 -0.8406
  260SOL    HW2 1039   0.749   0.090   1.594 -3.0765  3.1322 -3.1200
  260SOL     MW 1040   0.659   0.083   1.603  0.3173  0.1138 -0.3360
  261SOL     OW 1041   1.021   0.746   2.019  0.1696  0.4848  0.0652
  261SOL    HW1 1042   1.082   0.732   2.095 -3.2003  1.0226  1.2535
  261SOL    HW2 1043   0.988   0.660   1.984 -0.9196 -2.4672  0.2520
  261SOL     MW 1044   1.025   0.733   2.024 -0.4187  0.1663  0.2466
  262SOL     OW 1045   1.111   0.315   0.144 -0.4271  0.3636 -0.0303
  262SOL    HW1 1046   1.204   0.310   0.113 -0.4695  3.7329 -2.1229
  262SOL    HW2 1047   1.054   0.264   0.085 -2.0351 -1.4975  1.8181
  262SOL     MW 1048   1.116   0.308   0.133 -0.6448  0.5626 -0.0625
  263SOL     OW 1049   0.399   0.002   2.480 -0.6669  0.3427  0.2572
  263SOL    HW1 1050   0.319   0.048   2.499 -3.1858 -2.4730  1.1933
  263SOL    HW2 1051   0.433   0.020   2.396 -0.1728  0.0418  0.1536
  263SOL     MW 1052   0.393   0.010   2.471 -0.9340 -0.0685  0.3670
  264SOL     OW 1053   1.542   1.467   1.921 -0.2271 -0.5012  0.9226
  264SOL    HW1 1054   1.498   1.378   1.923 -1.6090  0.4761 -1.9872
  264SOL    HW2 1055   1.630   1.451   1.906 -2.4463  0.1640 -0.8547
  264SOL     MW 1056   1.548   1.453   1.919 -0.7022 -0.2845  0.3042
  265SOL     OW 1057   0.706   2.774   2.335 -0.0428 -0.2340  0.5114
  265SOL    HW1 1058   0.799   2.743   2.328  0.7921  2.7450 -3.1098
  265SOL    HW2 1059   0.695   2.798   2.430 -0.9061 -1.8063  1.9778
  265SOL     MW 1060   0.717   2.773   2.347 -0.0466 -0.0484  0.2271
  266SOL     OW 1061   0.812   0.853   2.150 -0.4132 -0.4473 -0.4793
  266SOL    HW1 1062   0.802   0.927   2.094  1.2457  0.1422  0.8822
  266SOL    HW2 1063   0.875   0.800   2.092 -1.2598  0.0371 -1.3677
  266SOL     MW 1064   0.819   0.856   2.135 -0.3060 -0.3056 -0.4169
  267SOL     OW 1065   1.383   1.746   2.685  0.1761 -0.1176  0.6339
  267SOL    HW1 1066   1.446   1.699   2.635  0.2653 -1.0189  1.3064
  267SOL    HW2 1067   1.294   1.720   2.649 -2.9138 -0.8758  0.2527
  267SOL     MW 1068   1.380   1.736   2.674 -0.2198 -0.3366  0.6723
  268SOL     OW 1069   0.089   0.915   1.727 -0.4098 -0.2767 -0.4317
  268SOL    HW1 1070  -0.003   0.915   1.752 -0.1649  1.3956  0.3339
  268SOL    HW2 1071   0.091   0.844   1.658 -0.2129 -2.2640 -2.6831
  268SOL     MW 1072   0.077   0.906   1.721 -0.3515 -0.3182 -0.6278
  269SOL     OW 1073   1.367   1.834   2.403 -0.4223 -0.1370 -0.0864
  269SOL    HW1 1074   1.423   1.887   2.463 -1.4046 -2.7262  3.2235
  269SOL    HW2 1075   1.303   1.791   2.461  0.4967 -1.3602  3.4278
  269SOL     MW 1076   1.366   1.835   2.418 -0.4307 -0.6400  0.8139
  270SOL     OW 1077   1.092   0.458   1.524  0.0862  0.3621  0.2329
  270SOL    HW1 1078   1.068   0.384   1.580  1.7373 -0.1563  0.4627
  270SOL    HW2 1079   1.184   0.449   1.510 -4.0320  2.4829  1.5330
  270SOL     MW 1080   1.101   0.447   1.530 -0.2393  0.5735  0.4348
  271SOL     OW 1081   0.764   0.081   2.552 -0.9165  0.4618  0.6581
  271SOL    HW1 1082   0.762   0.047   2.640 -1.7422  0.5187 -0.3408
  271SOL    HW2 1083   0.829   0.145   2.538 -0.3035 -2.2533  2.9274
  271SOL     MW 1084   0.772   0.085   2.562 -0.9446  0.1111  0.8257
  272SOL     OW 1085   1.455   2.779   2.819  0.2218  0.6367  0.4331
  272SOL    HW1 1086   1.419   2.771   2.735  2.1213 -1.5553  1.1407
  272SOL    HW2 1087   1.495   2.871   2.820 -1.2511  0.5955 -0.1758
  272SOL     MW 1088   1.455   2.790   2.808  0.2781  0.3421  0.4461
  273SOL     OW 1089   1.458   0.805   2.808 -0.4352 -0.5561 -0.0886
  273SOL    HW1 1090   1.553   0.800   2.800  1.1824 -0.8738  0.8248
  273SOL    HW2 1091   1.440   0.901   2.803  2.2933  0.4078  0.4772
  273SOL     MW 1092   1.468   0.817   2.806  0.1382 -0.4709  0.1066
  274SOL     OW 1093   1.401   0.638   0.119 -0.1628  0.6076  0.1218
  274SOL    HW1 1094   1.481   0.611   0.170 -1.0505 -1.0589  2.1623
  274SOL    HW2 1095   1.338   0.663   0.192  0.3006  0.2421 -1.0489
  274SOL     MW 1096   1.403   0.637   0.136 -0.2188  0.3395  0.2365
  275SOL     OW 1097   1.857   0.555   1.701  0.5263 -0.1406  0.3456
  275SOL    HW1 1098   1.888   0.582   1.782  1.9587 -0.8943 -1.1735
  275SOL    HW2 1099   1.839   0.462   1.711 -1.7237  1.9225  0.4352
  275SOL     MW 1100   1.859   0.546   1.713  0.4184  0.0322  0.1570
  276SOL     OW 1101   0.396   1.163   1.939  1.0294 -0.0475  0.0556
  276SOL    HW1 1102   0.423   1.082   1.984  0.0163  0.9746  0.2023
  276SOL    HW2 1103   0.371   1.223   2.010  0.5974  2.0348  0.6937
  276SOL     MW 1104   0.396   1.160   1.954  0.8388  0.3621  0.1591
  277SOL     OW 1105   1.953   1.139   2.458  0.1332  0.0615 -0.1185
  277SOL    HW1 1106   1.984   1.214   2.507  1.1491  0.1508 -0.2532
  277SOL    HW2 1107   2.018   1.129   2.394 -1.4839  1.1187 -2.3726
  277SOL     MW 1108   1.966   1.147   2.456  0.0538  0.2128 -0.4337
  278SOL     OW 1109   1.468   0.622   1.597 -0.6771 -0.0765  0.0471
  278SOL    HW1 1110   1.469   0.599   1.687  1.2418  1.3002  1.1620
  278SOL    HW2 1111   1.557   0.658   1.576 -0.1078  1.7876  0.2961
  278SOL     MW 1112   1.480   0.624   1.606 -0.3488  0.3511  0.2271
  279SOL     OW 1113   0.504   0.095   2.215 -0.1092 -0.4972 -0.5668
  279SOL    HW1 1114   0.601   0.072   2.217  2.3899  1.0682 -3.7939
  279SOL    HW2 1115   0.516   0.192   2.204 -0.0437  0.6151  2.4148
  279SOL     MW 1116   0.518   0.105   2.214  0.2291 -0.1439 -0.5992
  280SOL     OW 1117   1.385   0.992   2.238 -0.4727  0.0906 -0.4968
  280SOL    HW1 1118   1.466   0.971   2.196 -0.9372 -0.9054  0.5050
  280SOL    HW2 1119   1.375   0.954   2.324 -0.9442 -0.4987 -0.3245
  280SOL     MW 1120   1.394   0.984   2.244 -0.5962 -0.1186 -0.3419
  281SOL     OW 1121   1.393   1.073   2.769  0.1878  0.0211  0.1552
  281SOL    HW1 1122   1.458   1.143   2.754 -0.4547  0.1189  0.3205
  281SOL    HW2 1123   1.355   1.106   2.853 -2.3423 -1.4104  0.4090
  281SOL     MW 1124   1.397   1.086   2.778 -0.2308 -0.1549  0.2105
  282SOL     OW 1125   1.095   1.320   1.634 -0.8601  0.2917 -0.3109
  282SOL    HW1 1126   1.069   1.380   1.569  1.2500 -2.7852  1.1127
  282SOL    HW2 1127   1.017   1.286   1.674 -1.1300  2.8942 -2.5182
  282SOL     MW 1128   1.082   1.323   1.631 -0.6173  0.2291 -0.4143
  283SOL     OW 1129   0.818   1.344   3.017  0.1628 -0.2647 -0.2119
  283SOL    HW1 1130   0.914   1.343   3.038  2.1567 -0.6392 -1.4204
  283SOL    HW2 1131   0.800   1.435   3.007 -2.4748 -0.9830 -0.3604
  283SOL     MW 1132   0.828   1.356   3.018  0.0779 -0.4089 -0.3910
  284SOL     OW 1133   0.351   0.681   2.337 -0.3787 -0.2099  0.7489
  284SOL    HW1 1134   0.436   0.733   2.320 -1.9429  1.2090 -0.5717
  284SOL    HW2 1135   0.347   0.626   2.257  1.5395  2.8165 -0.9686
  284SOL     MW 1136   0.362   0.681   2.324 -0.3320  0.3766  0.3481
  285SOL     OW 1137   0.859   0.912   2.802  0.2875  0.8873 -0.5501
  285SOL    HW1 1138   0.911   0.932   2.726  0.4675  1.3127  0.5536
  285SOL    HW2 1139   0.798   0.846   2.782  1.4521  3.4891  1.2080
  285SOL     MW 1140   0.858   0.906   2.789  0.4649  1.2867 -0.1725
  286SOL     OW 1141   1.068   1.448   2.732 -0.0749 -0.3606  0.1061
  286SOL    HW1 1142   1.105   1.363   2.709 -0.5873 -2.6882  4.1882
  286SOL    HW2 1143   1.115   1.511   2.672 -0.3068 -2.0925 -0.8936
  286SOL     MW 1144   1.079   1.445   2.721 -0.1731 -0.8962  0.5128
  287SOL     OW 1145   1.091   0.954   0.326  0.0034  0.3412  0.0349
  287SOL    HW1 1146   1.048   0.977   0.410 -0.4808 -1.3530 -2.2919
  287SOL    HW2 1147   1.035   0.994   0.259  0.1878  3.1130 -0.0408
  287SOL     MW 1148   1.078   0.962   0.328 -0.0361  0.4833 -0.2821
  288SOL     OW 1149   1.494   0.707   2.093 -0.1352  0.6438 -0.0936
  288SOL    HW1 1150   1.407   0.736   2.122  2.9430 -1.4128 -2.4195
  288SOL    HW2 1151   1.562   0.775   2.106 -2.0847 -1.3742 -0.3292
  288SOL     MW 1152   1.491   0.720   2.099  0.0137  0.1062 -0.4316
  289SOL     OW 1153   0.997   0.994   2.581  0.4797  1.2042  0.1592
  289SOL    HW1 1154   1.044   0.935   2.530 -0.8076  1.6211  0.3816
  289SOL    HW2 1155   0.920   1.026   2.526  0.8387  0.1699  0.5405
  289SOL     MW 1156   0.993   0.990   2.567  0.3572  1.1228  0.2388
  290SOL     OW 1157   0.693   0.645   1.476 -0.2618 -0.0618  0.3761
  290SOL    HW1 1158   0.738   0.610   1.400 -1.7148 -0.6807  1.7758
  290SOL    HW2 1159   0.750   0.645   1.552  0.3890 -0.7724 -2.5305
  290SOL     MW 1160   0.706   0.640   1.476 -0.3676 -0.2372  0.1773
  291SOL     OW 1161   0.225   0.347   0.212 -0.6518 -0.0549  0.2223
  291SOL    HW1 1162   0.314   0.331   0.187 -3.0545  1.3356 -0.1192
  291SOL    HW2 1163   0.192   0.261   0.223 -1.8029  1.2940  2.2090
  291SOL     MW 1164   0.232   0.334   0.210 -1.1207  0.3066  0.4394
  292SOL     OW 1165   1.025   0.573   0.081 -0.0650 -0.2149 -0.4127
  292SOL    HW1 1166   1.084   0.620   0.141  0.7195 -3.5969 -0.0134
  292SOL    HW2 1167   1.034   0.479   0.115  0.0260 -1.6328  0.2266
  292SOL     MW 1168   1.034   0.567   0.093  0.0505 -0.8482 -0.2757
  293SOL     OW 1169   0.148   0.138   2.526 -0.8538 -0.5317  0.2686
  293SOL    HW1 1170   0.142   0.066   2.465 -0.1944  0.3649 -1.8115
  293SOL    HW2 1171   0.054   0.141   2.550  1.8746  0.2640 -1.6798
  293SOL     MW 1172   0.134   0.129   2.521 -0.4068 -0.3084 -0.2629
  294SOL     OW 1173   1.271   0.435   2.299 -0.8676 -0.1610 -0.4711
  294SOL    HW1 1174   1.332   0.489   2.355 -0.1297  2.1025  1.5272
  294SOL    HW2 1175   1.238   0.376   2.365  0.9798 -0.6039 -1.6987
  294SOL     MW 1176   1.275   0.434   2.315 -0.5265  0.0792 -0.3694
  295SOL     OW 1177   0.855   0.655   2.483  0.2021  0.3606 -0.1697
  295SOL    HW1 1178   0.806   0.610   2.417  0.2452 -0.3346  0.4712
  295SOL    HW2 1179   0.789   0.677   2.551  0.5423  1.9435 -0.1073
  295SOL     MW 1180   0.839   0.652   2.483  0.2526  0.4777 -0.0769
  296SOL     OW 1181   1.367   0.344   2.067  0.2233  0.1309 -0.2642
  296SOL    HW1 1182   1.382   0.248   2.077  1.3690  0.9561  1.8600
  296SOL    HW2 1183   1.337   0.369   2.152  0.2828 -1.1652 -0.9587
  296SOL     MW 1184   1.365   0.335   2.079  0.3823  0.0688 -0.0756
  297SOL     OW 1185   1.363   0.373   1.518  0.6115 -0.0393 -0.3811
  297SOL    HW1 1186   1.410   0.449   1.547  0.4765  1.8798  0.0000
  297SOL    HW2 1187   1.356   0.309   1.594 -2.8042  0.6502  0.5193
  297SOL     MW 1188   1.368   0.375   1.532  0.1430  0.3049 -0.2120
  298SOL     OW 1189   1.698   0.928   2.142  0.1283  0.1401 -0.0031
  298SOL    HW1 1190   1.698   0.952   2.046 -1.4579 -1.3065  0.6549
  298SOL    HW2 1191   1.765   0.855   2.153  1.8391  0.2390  1.2809
  298SOL     MW 1192   1.707   0.921   2.131  0.1447 -0.0377  0.2532
  299SOL     OW 1193   0.603   1.172   0.039 -0.0837 -0.3157 -0.4296
  299SOL    HW1 1194   0.568   1.144  -0.056 -1.2064  1.5938 -2.0284
  299SOL    HW2 1195   0.689   1.219   0.028  0.7601 -2.1121 -0.9196
  299SOL     MW 1196   0.609   1.174   0.025 -0.1205 -0.3008 -0.7052
  300SOL     OW 1197   1.164   1.202   2.659  0.0521  0.3439  0.2441
  300SOL    HW1 1198   1.113   1.126   2.638 -0.4136  0.2785  3.2959
  300SOL    HW2 1199   1.242   1.164   2.701 -1.4047  3.8157  3.5906
  300SOL     MW 1200   1.167   1.187   2.661 -0.2015  0.7934  1.0883
  301SOL     OW 1201   1.475   1.009   0.689  0.1201  0.6370 -0.3132
  301SOL    HW1 1202   1.474   1.046   0.775 -2.7710  1.7227 -2.0001
  301SOL    HW2 1203   1.410   0.940   0.688  0.4663 -0.9036 -0.9263
  301SOL     MW 1204   1.467   1.004   0.700 -0.2157  0.5769 -0.6167
  302SOL     OW 1205   0.229   1.605   2.028  0.6800 -0.4576  0.1486
  302SOL    HW1 1206   0.223   1.510   2.038 -1.1739 -2.5418  0.0883
  302SOL    HW2 1207   0.141   1.636   2.029  1.7054  0.3175  0.0210
  302SOL     MW 1208   0.217   1.596   2.030  0.5707 -0.6304  0.1238
  303SOL     OW 1209   0.284   1.790   2.678  0.5772  0.0259  0.0471
  303SOL    HW1 1210   0.227   1.795   2.601 -1.2492  1.2000  2.5647
  303SOL    HW2 1211   0.228   1.788   2.755 -1.4868 -3.7997  0.2266
  303SOL     MW 1212   0.269   1.790   2.678  0.0639 -0.3240  0.4030
  304SOL     OW 1213   0.528   2.095   2.474 -0.0963  0.2818 -0.1152
  304SOL    HW1 1214   0.570   2.168   2.431  1.2483  0.8226  1.2873
  304SOL    HW2 1215   0.575   2.015   2.441  1.2717  0.5934 -3.2395
  304SOL     MW 1216   0.540   2.094   2.464  0.2616  0.3943 -0.3424
  305SOL     OW 1217   1.133   0.634   0.566  0.2786 -0.4531  0.0607
  305SOL    HW1 1218   1.043   0.611   0.531 -1.7320  1.3856 -1.0004
  305SOL    HW2 1219   1.188   0.542   0.573  0.6010 -2.2728 -0.3462
  305SOL     MW 1220   1.128   0.619   0.562  0.0558 -0.4506 -0.1330
  306SOL     OW 1221   1.131   1.539   0.294  0.6340 -0.1807 -0.0037
  306SOL    HW1 1222   1.156   1.451   0.326  2.3178  3.1730  0.2847
  306SOL    HW2 1223   1.190   1.548   0.216  1.7047  1.3017  1.6459
  306SOL     MW 1224   1.142   1.529   0.288  0.9975  0.4574  0.2520
  307SOL     OW 1225   1.462   0.552   1.873 -0.4205  0.3510 -0.2850
  307SOL    HW1 1226   1.428   0.482   1.929  0.8881  0.0005 -0.3458
  307SOL    HW2 1227   1.465   0.631   1.934  3.3279 -1.1496  1.5998
  307SOL     MW 1228   1.458   0.553   1.889  0.2468  0.1067 -0.0443
  308SOL     OW 1229   2.283   0.578   2.743 -0.2806  0.0291 -0.7354
  308SOL    HW1 1230   2.377   0.592   2.771 -0.8282 -1.1564  0.1865
  308SOL    HW2 1231   2.246   0.661   2.709 -2.9387 -0.7310  1.5597
  308SOL     MW 1232   2.290   0.591   2.742 -0.7036 -0.2276 -0.3109
  309SOL     OW 1233   0.537   0.515   0.288  0.7962 -0.1977  0.1941
  309SOL    HW1 1234   0.628   0.546   0.283 -0.0953  2.5614  0.2416
  309SOL    HW2 1235   0.535   0.418   0.270 -3.8945  1.1181  0.1325
  309SOL     MW 1236   0.549   0.506   0.285  0.0597  0.3399  0.1922
  310SOL     OW 1237   0.385   0.530   1.855  0.1366 -0.3226  0.0423
  310SOL    HW1 1238   0.394   0.513   1.762 -1.1651  2.9949 -0.3227
  310SOL    HW2 1239   0.446   0.606   1.852  1.6308  0.8627  0.2123
  310SOL     MW 1240   0.394   0.538   1.842  0.1620  0.2715  0.0166
  311SOL     OW 1241   2.001   0.710   1.916 -0.1883  0.1523 -0.2619
  311SOL    HW1 1242   1.935   0.686   1.990 -1.9897 -1.2790 -0.0433
  311SOL    HW2 1243   2.057   0.637   1.910  1.6106  5.6023  0.2351
  311SOL     MW 1244   2.000   0.697   1.925 -0.1887  0.6825 -0.1675
  312SOL     OW 1245   1.734   2.468   0.154  0.6075 -0.4449 -0.0525
  312SOL    HW1 1246   1.769   2.473   0.243  0.6243 -0.0184 -1.1455
  312SOL    HW2 1247   1.653   2.526   0.156 -3.2299 -0.6737 -1.1718
  312SOL     MW 1248   1.728   2.476   0.166  0.1034 -0.4188 -0.3444
  313SOL     OW 1249   0.103   1.144   3.068 -0.6187  0.1800  0.4489
  313SOL    HW1 1250   0.064   1.187   3.146 -1.9071 -0.6981  1.1907
  313SOL    HW2 1251   0.120   1.218   3.015 -1.6783 -1.1637  2.4536
  313SOL     MW 1252   0.100   1.159   3.071 -0.9285 -0.1131  0.8113
  314SOL     OW 1253   2.218   2.876   3.079 -0.0294 -0.4643 -0.3870
  314SOL    HW1 1254   2.133   2.892   3.028  0.6381 -0.3759 -0.4814
  314SOL    HW2 1255   2.256   2.953   3.097 -1.0035 -1.6110  2.2306
  314SOL     MW 1256   2.212   2.888   3.074 -0.0699 -0.6040 -0.0541
  315SOL     OW 1257   1.510   1.857   3.028 -0.0059  0.6458  0.2300
  315SOL    HW1 1258   1.457   1.932   3.063  0.5831  5.0470  0.3138
  315SOL    HW2 1259   1.560   1.895   2.956  0.5396 -0.0864 -2.0734
  315SOL     MW 1260   1.510   1.872   3.023  0.1438  1.1299 -0.0629
  316SOL     OW 1261   1.222   0.711   2.714 -0.0970 -0.4229  0.2086
  316SOL    HW1 1262   1.312   0.714   2.732  1.1801  1.0207 -1.4784
  316SOL    HW2 1263   1.187   0.656   2.787 -1.3788 -0.9617  0.7039
  316SOL     MW 1264   1.229   0.704   2.726 -0.0976 -0.3035  0.0513
  317SOL     OW 1265   0.685   1.625   2.572 -0.1882 -0.3760 -0.2354
  317SOL    HW1 1266   0.738   1.541   2.596  1.4491 -0.0405  1.6640
  317SOL    HW2 1267   0.667   1.612   2.484 -2.1832 -0.3587  1.9676
  317SOL     MW 1268   0.689   1.612   2.564 -0.2354 -0.3295  0.3059
  318SOL     OW 1269   1.358   0.406   2.861 -0.1717 -0.3554  0.0055
  318SOL    HW1 1270   1.301   0.482   2.867  0.9644 -2.0134  0.7130
  318SOL    HW2 1271   1.443   0.441   2.866 -0.7626 -1.4239 -1.8411
  318SOL     MW 1272   1.361   0.421   2.862 -0.0997 -0.7151 -0.1448
  319SOL     OW 1273   0.829   0.509   2.860  0.1404 -0.2540  0.2703
  319SOL    HW1 1274   0.825   0.432   2.801  0.2066  0.2188  0.7732
  319SOL    HW2 1275   0.776   0.491   2.937 -3.4332 -0.7712 -1.3084
  319SOL     MW 1276   0.821   0.497   2.863 -0.3223 -0.2598  0.1284
  320SOL     OW 1277   1.006   1.314   1.997  0.3561 -0.6783  0.0914
  320SOL    HW1 1278   1.071   1.268   2.047  0.7413  2.7608  2.9238
  320SOL    HW2 1279   1.052   1.385   1.950 -0.1708 -0.1994  0.0552
  320SOL     MW 1280   1.021   1.317   1.998  0.3374 -0.1614  0.4604
  321SOL     OW 1281   1.019   0.929   3.044 -0.4531  0.6631 -0.2845
  321SOL    HW1 1282   0.987   0.925   2.952  0.4507 -0.3332  0.0662
  321SOL    HW2 1283   1.089   0.862   3.053 -1.1394  2.4227  0.5929
  321SOL     MW 1284   1.024   0.920   3.033 -0.4244  0.7638 -0.1225
  322SOL     OW 1285   1.346   0.863   1.648 -0.0883 -0.4414  0.0353
  322SOL    HW1 1286   1.400   0.783   1.649 -0.9870  0.0950  1.3357
  322SOL    HW2 1287   1.263   0.828   1.680 -0.0188  0.6932  0.6839
  322SOL     MW 1288   1.342   0.848   1.652 -0.1977 -0.2209  0.2924
  323SOL     OW 1289   1.156   1.531   1.899 -0.5563 -0.4576  0.4413
  323SOL    HW1 1290   1.228   1.497   1.844 -0.0620  0.9880 -1.0418
  323SOL    HW2 1291   1.137   1.613   1.857 -0.9073  0.5296  3.1849
  323SOL     MW 1292   1.163   1.537   1.886 -0.5374 -0.1366  0.6076
  324SOL     OW 1293   1.443   0.899   2.505 -0.1468 -0.5115  0.4747
  324SOL    HW1 1294   1.387   0.899   2.577  2.7954 -0.2253 -3.4622
  324SOL    HW2 1295   1.520   0.955   2.535 -0.9373 -1.3178 -3.3134
  324SOL     MW 1296   1.445   0.907   2.519  0.1371 -0.5801 -0.5446
  325SOL     OW 1297   1.099   0.538   2.913  0.4260  0.7088 -0.1714
  325SOL    HW1 1298   1.116   0.566   3.003 -2.3292 -3.1188  0.9132
  325SOL    HW2 1299   1.002   0.535   2.915 -0.2232  1.4085  3.1966
  325SOL     MW 1300   1.088   0.541   2.925 -0.0232  0.2961  0.4161
  326SOL     OW 1301   0.384   1.361   2.354 -0.3124  0.0743 -0.5929
  326SOL    HW1 1302   0.468   1.336   2.314  1.4115  0.0902 -0.2006
  326SOL    HW2 1303   0.370   1.460   2.345 -2.5297  1.8947 -0.0916
  326SOL     MW 1304   0.394   1.370   2.347 -0.3775  0.3166 -0.4750
  327SOL     OW 1305   1.957   0.748   2.411  0.1471 -0.1331  0.0574
  327SOL    HW1 1306   1.910   0.699   2.480 -0.5421  0.0758  0.3571
  327SOL    HW2 1307   1.996   0.822   2.454  0.9018  1.1986 -0.3955
  327SOL     MW 1308   1.956   0.751   2.426  0.1558  0.0702  0.0371
  328SOL     OW 1309   0.260   1.338   2.112 -0.5039 -0.3557 -0.0068
  328SOL    HW1 1310   0.180   1.292   2.128  1.2069  1.5495 -0.9851
  328SOL    HW2 1311   0.316   1.349   2.197  4.0314  0.9178  0.3792
  328SOL     MW 1312   0.257   1.334   2.125  0.3202  0.0637 -0.0850
  329SOL     OW 1313   0.037   0.136   1.367 -0.5469  0.8071  0.2339
  329SOL    HW1 1314   0.014   0.129   1.461  2.4684 -2.0783 -3.3870
  329SOL    HW2 1315   0.133   0.150   1.372 -0.1260 -1.4471  0.3406
  329SOL     MW 1316   0.046   0.137   1.380 -0.0935  0.1290 -0.2297
  330SOL     OW 1317   0.332   0.063   1.963  0.2346 -0.1617 -0.0725
  330SOL    HW1 1318   0.424   0.085   1.971 -0.0372 -1.3194  1.4592
  330SOL    HW2 1319   0.322  -0.008   2.026  0.2402 -0.2102  0.2331
  330SOL     MW 1320   0.342   0.057   1.972  0.1995 -0.3209  0.1699
  331SOL     OW 1321   0.790   1.236   2.393  0.6622 -0.2116  0.6430
  331SOL    HW1 1322   0.718   1.255   2.327  0.1128 -1.3313  1.3408
  331SOL    HW2 1323   0.816   1.308   2.454 -0.1427 -3.9396 -3.6291
  331SOL     MW 1324   0.784   1.248   2.392  0.4835 -0.8512  0.1714
  332SOL     OW 1325   1.357   1.644   2.945 -0.1247 -0.5203 -0.1247
  332SOL    HW1 1326   1.408   1.646   2.866 -0.4473 -0.5147  0.8890
  332SOL    HW2 1327   1.355   1.738   2.965 -0.0690  0.6577  0.0951
  332SOL     MW 1328   1.363   1.657   2.937 -0.1599 -0.3642  0.0381
  333SOL     OW 1329   1.703   1.350   2.926  0.4195 -0.1372  0.0236
  333SOL    HW1 1330   1.794   1.334   2.905 -0.0888 -0.8091  3.4190
  333SOL    HW2 1331   1.689   1.295   3.006 -2.1563 -1.4139  2.0735
  333SOL     MW 1332   1.713   1.341   2.934  0.0126 -0.3943  0.7421
  334SOL     OW 1333   1.323   3.054   2.634  0.0551 -0.1743 -0.4075
  334SOL    HW1 1334   1.249   3.059   2.694  0.5584 -2.2095 -4.4058
  334SOL    HW2 1335   1.387   3.110   2.683  1.1961 -1.5014 -1.1745
  334SOL     MW 1336   1.322   3.062   2.649  0.2720 -0.6179 -1.0362
  335SOL     OW 1337   1.263   0.775   3.026  0.3312 -0.3636  0.6113
  335SOL    HW1 1338   1.305   0.716   3.092 -2.7874  1.9503 -2.9619
  335SOL    HW2 1339   1.326   0.792   2.956 -2.0593  3.0594  2.3548
  335SOL     MW 1340   1.277   0.769   3.025 -0.3957  0.3933  0.3699
  336SOL     OW 1341   0.923   1.108   1.709 -0.5065 -0.3846  0.3091
  336SOL    HW1 1342   0.884   1.144   1.786 -0.5240  0.5312 -0.5403
  336SOL    HW2 1343   1.002   1.058   1.752  2.6179 -1.1774 -0.1411
  336SOL     MW 1344   0.928   1.106   1.725 -0.0966 -0.3684  0.1376
  337SOL     OW 1345   0.510   1.950   2.845  0.8086 -0.2307  0.7054
  337SOL    HW1 1346   0.466   1.966   2.762 -0.2347  0.6687  1.1864
  337SOL    HW2 1347   0.588   1.903   2.817  0.9516 -1.3963 -2.3384
  337SOL     MW 1348   0.515   1.946   2.830  0.6898 -0.2658  0.3672
  338SOL     OW 1349   1.114   0.778   2.465  0.4542 -0.2155 -0.0711
  338SOL    HW1 1350   1.027   0.731   2.472  1.2796  1.2937  0.0773
  338SOL    HW2 1351   1.152   0.761   2.550 -0.8508  0.0023 -0.4535
  338SOL     MW 1352   1.107   0.769   2.477  0.3909  0.0124 -0.1020
  339SOL     OW 1353   1.348   1.274   1.905 -0.1775  0.1876  0.0718
  339SOL    HW1 1354   1.346   1.221   1.822  0.0311 -0.4483  0.0381
  339SOL    HW2 1355   1.330   1.220   1.983  0.9955 -2.0697  0.6549
  339SOL     MW 1356   1.345   1.260   1.904  0.0048 -0.1941  0.1443
  340SOL     OW 1357   1.310   1.544   0.098 -0.0456 -0.0017  0.6063
  340SOL    HW1 1358   1.350   1.568   0.008  1.6816  1.0688 -2.6771
  340SOL    HW2 1359   1.376   1.488   0.142  0.6077  1.8106 -0.1393
  340SOL     MW 1360   1.324   1.540   0.092  0.2685  0.3786  0.0747
  341SOL     OW 1361   0.104   1.381   2.826 -0.4910  0.4035  0.3995
  341SOL    HW1 1362   0.199   1.375   2.864  2.7776  0.5575 -1.8771
  341SOL    HW2 1363   0.131   1.383   2.733  0.5001 -1.6653 -0.5731
  341SOL     MW 1364   0.120   1.381   2.819  0.0711  0.1509 -0.0292
  342SOL     OW 1365   1.389   0.325   0.026  0.3181  0.0802 -0.1692
  342SOL    HW1 1366   1.421   0.400   0.072 -2.4326 -2.2410 -0.6238
  342SOL    HW2 1367   1.369   0.356  -0.064 -1.5124  0.1402 -1.9721
  342SOL     MW 1368   1.390   0.339   0.020 -0.2863 -0.2181 -0.4671
  343SOL     OW 1369   0.256   0.271   2.149  0.1386  0.2988 -0.9145
  343SOL    HW1 1370   0.292   0.199   2.098  1.4690  0.9995 -0.0806
  343SOL    HW2 1371   0.158   0.256   2.141 -1.6787  1.3367 -1.2065
  343SOL     MW 1372   0.248   0.260   2.141  0.0743  0.5282 -0.8430
  344SOL     OW 1373   1.682   2.036   0.191 -0.2333  0.0015  0.3096
  344SOL    HW1 1374   1.722   2.093   0.130  0.6418  0.9728 -2.2451
  344SOL    HW2 1375   1.586   2.038   0.158  0.2749  0.3728  0.4086
  344SOL     MW 1376   1.675   2.044   0.179 -0.0508  0.1787 -0.0144
  345SOL     OW 1377   0.642   1.584   2.300 -0.1651 -0.7563 -0.6831
  345SOL    HW1 1378   0.552   1.605   2.282 -0.7577 -3.0636 -0.6787
  345SOL    HW2 1379   0.694   1.583   2.216 -0.2985  0.7980 -1.6535
  345SOL     MW 1380   0.637   1.587   2.286 -0.2609 -0.8557 -0.8105
  346SOL     OW 1381   1.668   1.172   0.038 -0.2071  0.5501 -0.1440
  346SOL    HW1 1382   1.725   1.210   0.104  1.5786  2.4689 -3.8232
  346SOL    HW2 1383   1.639   1.089   0.080 -2.7277 -2.3384 -0.7157
  346SOL     MW 1384   1.672   1.166   0.053 -0.3041  0.4222 -0.7049
  347SOL     OW 1385   1.205   0.684   2.197  0.7887  0.7569 -0.1849
  347SOL    HW1 1386   1.225   0.592   2.215 -0.5380  2.5145  0.4141
  347SOL    HW2 1387   1.174   0.728   2.278  0.4963  1.8329 -2.0644
  347SOL     MW 1388   1.204   0.678   2.210  0.5751  1.1308 -0.3538
  348SOL     OW 1389   1.290   2.551   1.944 -0.3047 -0.7322 -0.5342
  348SOL    HW1 1390   1.313   2.489   2.019  0.5062 -1.6216 -0.6570
  348SOL    HW2 1391   1.349   2.633   1.952  2.4401 -0.5081  1.0718
  348SOL     MW 1392   1.301   2.554   1.955  0.1644 -0.8200 -0.3385
  349SOL     OW 1393   1.459   0.158   2.780 -0.2191 -0.1228  0.4393
  349SOL    HW1 1394   1.415   0.247   2.787 -0.1706 -0.1843 -0.1391
  349SOL    HW2 1395   1.469   0.124   2.874 -1.5822 -2.7676 -0.4886
  349SOL     MW 1396   1.455   0.165   2.794 -0.3925 -0.4799  0.2406
  350SOL     OW 1397   1.872   0.621   2.649  0.0549 -0.4696  0.1605
  350SOL    HW1 1398   1.822   0.544   2.618  1.8327 -1.4067 -0.8873
  350SOL    HW2 1399   1.946   0.580   2.706  0.1684 -1.3812 -1.2969
  350SOL     MW 1400   1.875   0.606   2.652  0.3044 -0.7135 -0.1701
  351SOL     OW 1401   0.114   1.181   1.561  0.3220 -0.7039 -0.5559
  351SOL    HW1 1402   0.086   1.117   1.627  1.9938  1.3520  2.6286
  351SOL    HW2 1403   0.153   1.253   1.615 -1.4633  0.0893  0.1332
  351SOL     MW 1404   0.115   1.182   1.577  0.3070 -0.3280 -0.0448
  352SOL     OW 1405   0.744   1.799   2.814  0.0238 -0.1382  0.5656
  352SOL    HW1 1406   0.768   1.760   2.899 -0.3103 -0.1607 -0.1505
  352SOL    HW2 1407   0.740   1.723   2.757 -0.1306 -2.1698  2.0033
  352SOL     MW 1408   0.746   1.784   2.818 -0.0407 -0.4092  0.6608
  353SOL     OW 1409   3.088   2.571   2.656 -0.0254  0.2031  0.7143
  353SOL    HW1 1410   3.175   2.529   2.637  0.5686 -0.8394 -4.3483
  353SOL    HW2 1411   3.071   2.633   2.588 -2.5440  0.3509  0.7205
  353SOL     MW 1412   3.098   2.573   2.644 -0.2793  0.0851  0.0472
  354SOL     OW 1413   0.350   2.416   0.796 -0.5648 -0.0188 -0.5382
  354SOL    HW1 1414   0.425   2.381   0.845 -2.7216  1.8091  0.5683
  354SOL    HW2 1415   0.272   2.358   0.822  0.9850 -0.3593 -1.4283
  354SOL     MW 1416   0.350   2.404   0.806 -0.6449  0.1774 -0.5096
  355SOL     OW 1417   0.110   2.265   0.407 -0.4184  0.4261  0.0239
  355SOL    HW1 1418   0.021   2.217   0.393 -1.6140  1.6783 -1.8122
  355SOL    HW2 1419   0.090   2.298   0.496  3.7731  0.2297 -1.2589
  355SOL     MW 1420   0.096   2.263   0.417 -0.0231  0.5654 -0.3876
  356SOL     OW 1421   0.741   2.963   1.007 -0.1364 -0.4381 -0.4649
  356SOL    HW1 1422   0.816   2.952   0.949  1.3244  0.2858  0.4078
  356SOL    HW2 1423   0.661   2.928   0.958  0.8637  0.5976 -3.4636
  356SOL     MW 1424   0.740   2.957   0.993  0.1883 -0.2059 -0.7454
  357SOL     OW 1425   1.861   2.801   0.465  0.7438  0.2764 -0.5001
  357SOL    HW1 1426   1.834   2.778   0.555  0.2230 -0.8456 -0.4136
  357SOL    HW2 1427   1.931   2.742   0.441  0.0522 -1.1630  0.0260
  357SOL     MW 1428   1.867   2.790   0.474  0.5838 -0.0615 -0.4193
  358SOL     OW 1429   0.412   0.129   1.060 -0.3611 -0.5727 -0.1876
  358SOL    HW1 1430   0.511   0.134   1.073  0.3177  1.6894 -0.5223
  358SOL    HW2 1431   0.400   0.142   0.964 -0.0067 -1.5310 -0.1786
  358SOL     MW 1432   0.423   0.132   1.049 -0.2248 -0.4007 -0.2306
  359SOL     OW 1433   0.913   2.939   1.896  0.4109 -0.3999  0.6631
  359SOL    HW1 1434   0.903   2.841   1.914 -1.5084 -0.7116  0.2662
  359SOL    HW2 1435   0.912   2.952   1.802 -0.5709  3.5053 -2.3027
  359SOL     MW 1436   0.911   2.928   1.886  0.0281  0.0743  0.2194
  360SOL     OW 1437   0.571   2.760   0.904 -0.2561 -0.1387 -0.2340
  360SOL    HW1 1438   0.598   2.735   0.817  0.3254 -2.1075  0.3715
  360SOL    HW2 1439   0.590   2.687   0.960  2.2132  2.5266 -0.2178
  360SOL     MW 1440   0.577   2.747   0.900  0.1464 -0.0468 -0.1520
  361SOL     OW 1441   0.138   2.712   1.347 -0.8074  0.1352 -1.1132
  361SOL    HW1 1442   0.089   2.765   1.406  1.6988 -2.4497 -1.8814
  361SOL    HW2 1443   0.225   2.744   1.354  0.0944  0.2157  1.2450
  361SOL     MW 1444   0.143   2.723   1.356 -0.3578 -0.1952 -0.9034
  362SOL     OW 1445   1.393   2.424   0.596  0.1902 -0.2005 -0.3022
  362SOL    HW1 1446   1.436   2.376   0.670  2.8179 -0.5297 -1.0770
  362SOL    HW2 1447   1.455   2.500   0.592  1.0796  1.8237  2.1053
  362SOL     MW 1448   1.407   2.428   0.605  0.6542  0.0232 -0.0868
  363SOL     OW 1449   0.307   3.101   0.648 -0.0772  0.4934 -0.4363
  363SOL    HW1 1450   0.304   3.037   0.718  2.0098 -1.0444 -1.2776
  363SOL    HW2 1451   0.238   3.085   0.582  0.1350  0.2839 -1.3256
  363SOL     MW 1452   0.297   3.090   0.649  0.2262  0.2629 -0.6646
  364SOL     OW 1453   0.763   0.227   0.145  0.4730  0.5723 -0.2367
  364SOL    HW1 1454   0.725   0.139   0.163  0.4153 -2.5387 -1.5380
  364SOL    HW2 1455   0.689   0.290   0.114 -0.9418  0.6307  2.9113
  364SOL     MW 1456   0.748   0.224   0.143  0.2787  0.1695  0.0070
  365SOL     OW 1457   0.877   2.007   1.281 -0.1412 -0.7968  0.3123
  365SOL    HW1 1458   0.849   2.080   1.225  0.4578 -1.0196 -0.7687
  365SOL    HW2 1459   0.835   1.927   1.237  2.2839 -0.4647 -0.5150
  365SOL     MW 1460   0.867   2.006   1.268  0.2578 -0.7824  0.0605
  366SOL     OW 1461   2.881   2.657   0.940 -0.3819  0.0047 -0.2433
  366SOL    HW1 1462   2.974   2.632   0.976  1.9111  0.2883  1.8923
  366SOL    HW2 1463   2.912   2.679   0.851 -1.5024 -0.4445  0.7089
  366SOL     MW 1464   2.898   2.656   0.933 -0.2272 -0.0171  0.1641
  367SOL     OW 1465   1.304   3.050   1.001  0.6979  0.3919 -0.6215
  367SOL    HW1 1466   1.375   3.094   1.035  0.9151 -0.5219  0.1468
  367SOL    HW2 1467   1.307   3.032   0.909  0.5954  2.2691 -1.1491
  367SOL     MW 1468   1.314   3.053   0.994  0.7130  0.5190 -0.5898
  368SOL     OW 1469   1.708   0.394   0.598  0.1369 -0.7351 -0.3012
  368SOL    HW1 1470   1.791   0.350   0.572  2.6031 -1.0651  0.4519
  368SOL    HW2 1471   1.712   0.479   0.553 -1.2777 -2.4719  2.4601
  368SOL     MW 1472   1.719   0.400   0.588  0.2756 -1.0078  0.1625
  369SOL     OW 1473   0.158   2.414   1.750 -0.1081  0.5908  0.0776
  369SOL    HW1 1474   0.257   2.403   1.760  1.1596 -1.1169 -2.8690
  369SOL    HW2 1475   0.145   2.506   1.737  1.2149  0.8741 -1.3817
  369SOL     MW 1476   0.169   2.425   1.750  0.2337  0.4028 -0.5037
  370SOL     OW 1477   0.686   0.136   1.068 -0.7768 -0.0468 -0.0534
  370SOL    HW1 1478   0.723   0.184   0.994 -2.2736  2.6723 -0.8891
  370SOL    HW2 1479   0.716   0.042   1.063  0.8389  0.7894 -2.7751
  370SOL     MW 1480   0.695   0.130   1.057 -0.7611  0.4223 -0.5227
  371SOL     OW 1481   1.122   2.905   1.480 -0.3898  0.1233  0.4864
  371SOL    HW1 1482   1.119   2.810   1.469 -1.5477  1.3447  1.5121
  371SOL    HW2 1483   1.068   2.933   1.405 -0.4564 -1.8239  0.9798
  371SOL     MW 1484   1.114   2.896   1.469 -0.5514  0.0275  0.6868
  372SOL     OW 1485   0.815   2.311   0.463 -0.2715 -0.1967 -0.3159
  372SOL    HW1 1486   0.781   2.231   0.507 -0.1571 -0.5600 -2.1247
  372SOL    HW2 1487   0.852   2.274   0.382  1.7726 -0.0176  0.7222
  372SOL     MW 1488   0.815   2.295   0.458  0.0133 -0.2210 -0.4176
  373SOL     OW 1489   2.798   2.978   1.417 -0.2983  0.3265  0.1350
  373SOL    HW1 1490   2.885   2.957   1.396 -0.9518 -2.1351  0.8486
  373SOL    HW2 1491   2.776   3.044   1.355  0.6857 -1.4824 -2.9396
  373SOL     MW 1492   2.807   2.984   1.406 -0.2547 -0.2370 -0.1765
  374SOL     OW 1493   1.593   0.461   0.241 -0.2023 -0.2978 -0.3408
  374SOL    HW1 1494   1.682   0.423   0.235  1.0448 -1.0569 -0.5287
  374SOL    HW2 1495   1.553   0.407   0.306 -0.6710 -0.6357  1.1658
  374SOL     MW 1496   1.599   0.449   0.249 -0.0996 -0.4425 -0.1668
  375SOL     OW 1497   1.106   2.030   2.202 -0.2837 -0.6766 -0.6137
  375SOL    HW1 1498   1.126   2.003   2.293 -0.4797  0.7465 -1.9628
  375SOL    HW2 1499   1.038   1.968   2.171  0.4074 -1.2294  0.2830
  375SOL     MW 1500   1.100   2.018   2.210 -0.2184 -0.5617 -0.6734
  376SOL     OW 1501   0.854   2.527   0.142  0.4510  0.7028 -0.4391
  376SOL    HW1 1502   0.792   2.453   0.178 -0.7263 -3.2164  0.4207
  376SOL    HW2 1503   0.851   2.509   0.044 -0.7105 -1.5958 -1.1153
  376SOL     MW 1504   0.845   2.514   0.134  0.1424 -0.1176 -0.4149
  377SOL     OW 1505   1.351   2.084   0.952 -0.1815 -0.1482  0.6309
  377SOL    HW1 1506   1.272   2.053   0.908  0.3764  0.2206  1.9104
  377SOL    HW2 1507   1.318   2.088   1.037 -1.2501 -0.9320  0.4358
  377SOL     MW 1508   1.336   2.080   0.957 -0.2489 -0.2029  0.7740
  378SOL     OW 1509   0.880   2.861   1.627 -0.1072 -0.3854 -0.5920
  378SOL    HW1 1510   0.884   2.763   1.625  0.8781 -2.4312 -3.0746
  378SOL    HW2 1511   0.970   2.876   1.597  4.0422  0.1291  1.4708
  378SOL     MW 1512   0.893   2.850   1.623  0.5702 -0.5874 -0.6474
  379SOL     OW 1513   1.068   1.556   2.305  0.2060 -0.1064  0.2794
  379SOL    HW1 1514   1.010   1.565   2.231  0.3092 -0.0963  0.8230
  379SOL    HW2 1515   1.150   1.505   2.285  0.4616  1.3203 -1.3570
  379SOL     MW 1516   1.071   1.550   2.292  0.2533  0.0831  0.1352
  380SOL     OW 1517   0.920   0.141   1.534 -0.1491  0.3134  0.1019
  380SOL    HW1 1518   0.942   0.080   1.459 -0.1771  0.7037  0.3063
  380SOL    HW2 1519   0.971   0.111   1.614 -1.6203 -1.3150 -0.0711
  380SOL     MW 1520   0.929   0.129   1.534 -0.3469  0.1500  0.1060
  381SOL     OW 1521   0.846   2.067   0.898  0.5214 -0.0505 -0.2846
  381SOL    HW1 1522   0.939   2.060   0.866 -1.3682  3.1707 -2.3502
  381SOL    HW2 1523   0.857   2.116   0.980  0.2139 -0.6095 -2.0305
  381SOL     MW 1524   0.860   2.073   0.904  0.2315  0.3007 -0.7875
  382SOL     OW 1525   0.864   0.134   0.583 -0.4456  0.4959 -0.5488
  382SOL    HW1 1526   0.830   0.131   0.677  1.7566 -1.3016  0.9453
  382SOL    HW2 1527   0.832   0.053   0.547 -2.3030  0.4805 -1.1050
  382SOL     MW 1528   0.855   0.123   0.591 -0.4001  0.2567 -0.4251
  383SOL     OW 1529   0.654   0.007   0.294  0.1840  0.1359 -0.3913
  383SOL    HW1 1530   0.708  -0.060   0.258 -2.0653 -0.0476 -0.7225
  383SOL    HW2 1531   0.597  -0.041   0.350  1.5264  1.5503 -2.9125
  383SOL     MW 1532   0.654  -0.008   0.296  0.0643  0.2983 -0.7676
  384SOL     OW 1533   0.789   2.958   0.610  0.9518 -0.4330  0.0963
  384SOL    HW1 1534   0.844   2.971   0.695 -4.1829  1.2418  1.0711
  384SOL    HW2 1535   0.746   2.873   0.622 -0.3905  1.4760 -1.3653
  384SOL     MW 1536   0.791   2.949   0.623  0.0972  0.0398  0.0321
  385SOL     OW 1537   1.388   2.052   1.546  0.3495 -0.1016  0.0358
  385SOL    HW1 1538   1.482   2.072   1.583  1.2859 -1.3008  3.3330
  385SOL    HW2 1539   1.367   1.971   1.596  0.4137 -1.3068  1.2238
  385SOL     MW 1540   1.398   2.044   1.557  0.4815 -0.4188  0.6275
  386SOL     OW 1541   1.457   0.380   0.848 -0.0093  0.1235  0.1723
  386SOL    HW1 1542   1.434   0.439   0.920  1.9076 -1.3983  0.5602
  386SOL    HW2 1543   1.551   0.374   0.861 -0.9877  2.4189  1.4085
  386SOL     MW 1544   1.467   0.387   0.859  0.1146  0.2256  0.3866
  387SOL     OW 1545   0.825   2.266   1.573  0.5308 -0.4378 -0.1149
  387SOL    HW1 1546   0.909   2.285   1.520  2.3751 -0.9061  1.5057
  387SOL    HW2 1547   0.824   2.175   1.573  0.4526  2.0702 -0.1612
  387SOL     MW 1548   0.836   2.257   1.566  0.7638 -0.1687  0.0928
  388SOL     OW 1549   1.476   2.799   1.497  0.6367 -0.3216  0.3050
  388SOL    HW1 1550   1.438   2.847   1.427  3.2711  1.3151  2.1294
  388SOL    HW2 1551   1.544   2.741   1.459  1.1800  0.2293 -1.5267
  388SOL     MW 1552   1.480   2.798   1.483  1.0560 -0.0330  0.3040
  389SOL     OW 1553   0.443   0.094   3.051 -0.8255 -0.1526  0.0598
  389SOL    HW1 1554   0.508   0.036   3.003  0.5651 -0.0356 -1.6351
  389SOL    HW2 1555   0.414   0.151   2.977  0.8574 -0.4927  1.4427
  389SOL     MW 1556   0.448   0.094   3.035 -0.4200 -0.1820  0.0186
  390SOL     OW 1557   1.374   3.091   0.714  0.0419 -0.1853  0.4032
  390SOL    HW1 1558   1.398   3.057   0.626  0.3371 -3.7547  1.0145
  390SOL    HW2 1559   1.459   3.138   0.739 -1.2154 -2.7833 -1.9576
  390SOL     MW 1560   1.389   3.093   0.705 -0.0850 -0.9990  0.1724
  391SOL     OW 1561   0.307   2.150   1.504 -0.1400 -0.0277  0.1725
  391SOL    HW1 1562   0.300   2.120   1.595  2.4742 -1.4899 -2.9774
  391SOL    HW2 1563   0.246   2.227   1.497 -0.2175  0.8623 -0.0427
  391SOL     MW 1564   0.298   2.156   1.515  0.1947 -0.1032 -0.2715
  392SOL     OW 1565   1.956   2.111   0.323  0.1311 -1.0721  0.2230
  392SOL    HW1 1566   2.008   2.183   0.360  0.1126 -1.2817  0.0586
  392SOL    HW2 1567   1.863   2.137   0.331 -1.2906 -0.6596  1.3178
  392SOL     MW 1568   1.951   2.124   0.329 -0.0589 -1.0453  0.3457
  393SOL     OW 1569   0.244   2.954   2.793  0.7639  0.0057 -0.2280
  393SOL    HW1 1570   0.333   2.943   2.760  0.2777  0.0339  1.7590
  393SOL    HW2 1571   0.228   3.048   2.804  1.9476  0.9341 -0.5408
  393SOL     MW 1572   0.254   2.965   2.790  0.8560  0.1319 -0.0071
  394SOL     OW 1573   0.966   1.767   1.583 -0.6025  0.2620  1.0521
  394SOL    HW1 1574   1.010   1.771   1.666 -1.3871 -1.6968 -0.0824
  394SOL    HW2 1575   0.922   1.849   1.579  0.5389  0.2409 -0.1328
  394SOL     MW 1576   0.966   1.778   1.594 -0.5555  0.0008  0.7461
  395SOL     OW 1577   0.956   2.939   2.716  0.0327 -0.0023 -0.2096
  395SOL    HW1 1578   1.003   3.007   2.768 -1.6707 -3.1871 -0.8766
  395SOL    HW2 1579   1.026   2.872   2.698  0.7562 -2.5943 -0.8612
  395SOL     MW 1580   0.971   2.939   2.721 -0.0966 -0.7645 -0.3836
  396SOL     OW 1581   0.708   1.899   2.366 -0.4353  0.8415  0.4668
  396SOL    HW1 1582   0.754   1.862   2.443  2.2553  2.7676  0.7284
  396SOL    HW2 1583   0.654   1.829   2.323  1.4138 -0.0838 -1.0737
  396SOL     MW 1584   0.707   1.885   2.370  0.1637  0.9736  0.2981
  397SOL     OW 1585   1.035   2.291   1.405  0.4324  0.2352  0.5681
  397SOL    HW1 1586   1.063   2.305   1.317 -0.4671 -1.0306  0.5533
  397SOL    HW2 1587   1.104   2.305   1.478 -0.3225  0.4381  0.7251
  397SOL     MW 1588   1.048   2.295   1.403  0.2141  0.0949  0.5869
  398SOL     OW 1589   0.662   2.710   0.663  0.2684 -0.4313 -0.0848
  398SOL    HW1 1590   0.641   2.700   0.568  0.5879  1.9014 -0.0741
  398SOL    HW2 1591   0.722   2.635   0.676 -2.1029 -0.4765 -0.8970
  398SOL     MW 1592   0.667   2.698   0.652 -0.0023 -0.1295 -0.1906
  399SOL     OW 1593   0.330   2.046   0.396 -0.1825 -0.2257 -0.0128
  399SOL    HW1 1594   0.255   2.101   0.401 -0.1296  0.9344 -1.9682
  399SOL    HW2 1595   0.395   2.104   0.349  1.9740  0.4443  0.2877
  399SOL     MW 1596   0.328   2.061   0.391  0.1090  0.0158 -0.2312
  400SOL     OW 1597   0.601   1.942   0.132  0.0870  0.4597  0.1025
  400SOL    HW1 1598   0.573   2.042   0.142  0.6648  1.4375  0.8343
  400SOL    HW2 1599   0.579   1.883   0.206 -0.9411 -0.6905  1.4559
  400SOL     MW 1600   0.595   1.947   0.143  0.0275  0.4369  0.3777
  401SOL     OW 1601   0.837   2.013   3.089 -0.1750 -0.5563  0.4231
  401SOL    HW1 1602   0.916   1.957   3.083  0.0938  1.9216 -1.1001
  401SOL    HW2 1603   0.765   1.956   3.116 -1.5758  0.8169  2.3255
  401SOL     MW 1604   0.838   1.998   3.092 -0.3243 -0.0482  0.4731
  402SOL     OW 1605   0.596   3.021   1.844 -0.2561  0.2426  0.3815
  402SOL    HW1 1606   0.671   2.993   1.900 -0.6356  1.7414  3.5742
  402SOL    HW2 1607   0.623   3.019   1.754  0.1305 -0.8774 -1.1832
  402SOL     MW 1608   0.610   3.017   1.840 -0.2551  0.2926  0.5963
  403SOL     OW 1609   0.146   0.493   0.429 -0.2496 -0.1201  0.2368
  403SOL    HW1 1610   0.226   0.512   0.485 -0.4579  0.2549 -2.0946
  403SOL    HW2 1611   0.180   0.454   0.353 -0.2020 -0.7109  0.6592
  403SOL     MW 1612   0.161   0.490   0.426 -0.2708 -0.1486 -0.0151
  404SOL     OW 1613   0.954   2.976   0.827  0.5228  0.0565 -0.1184
  404SOL    HW1 1614   1.031   2.915   0.821 -1.4058  0.5549  1.9044
  404SOL    HW2 1615   1.001   3.063   0.824  1.1127  0.9847 -0.2725
  404SOL     MW 1616   0.970   2.980   0.826  0.3462  0.2448  0.1281
  405SOL     OW 1617   0.524   2.487   1.511 -0.2111  0.8363 -0.5657
  405SOL    HW1 1618   0.557   2.561   1.472  1.1674 -2.9134  0.9093
  405SOL    HW2 1619   0.555   2.425   1.445 -1.1953  3.2169  0.7609
  405SOL     MW 1620   0.532   2.489   1.497 -0.1591  0.6557 -0.1960
  406SOL     OW 1621   0.454   2.339   1.086 -0.7875 -0.6682  0.0407
  406SOL    HW1 1622   0.360   2.368   1.099 -2.2369 -0.6468  0.0616
  406SOL    HW2 1623   0.464   2.258   1.145  2.6165 -1.9869 -0.8885
  406SOL     MW 1624   0.443   2.332   1.096 -0.5296 -0.8393 -0.0791
  407SOL     OW 1625   0.054   2.631   1.104 -0.1860 -0.1125  0.3037
  407SOL    HW1 1626   0.102   2.663   1.186  0.1689 -0.6471  3.2307
  407SOL    HW2 1627   0.120   2.642   1.033  0.6829 -0.1093  1.0252
  407SOL     MW 1628   0.069   2.637   1.105 -0.0245 -0.1826  0.7851
  408SOL     OW 1629   2.124   2.181   0.699 -0.4050  0.0456  0.2616
  408SOL    HW1 1630   2.068   2.192   0.782  0.0798  2.4893  1.3214
  408SOL    HW2 1631   2.063   2.113   0.657 -1.1036  0.6246 -1.3780
  408SOL     MW 1632   2.109   2.174   0.704 -0.4332  0.4444  0.1851
  409SOL     OW 1633   1.601   0.084   0.848  0.1695 -0.2436 -0.2119
  409SOL    HW1 1634   1.665   0.153   0.844 -0.4137 -0.9296  1.2293
  409SOL    HW2 1635   1.592   0.061   0.941  1.6586 -0.1981  2.0157
  409SOL     MW 1636   1.608   0.090   0.860  0.2890 -0.3281  0.2722
  410SOL     OW 1637   1.076   2.446   1.175 -0.0683  0.2372  0.3194
  410SOL    HW1 1638   1.022   2.449   1.097 -0.7794  0.0086  1.7851
  410SOL    HW2 1639   1.158   2.438   1.130 -0.3530  0.1777  0.4968
  410SOL     MW 1640   1.080   2.445   1.159 -0.1997  0.1992  0.5362
  411SOL     OW 1641   1.997   2.921   2.935 -0.2137 -0.1903  0.6793
  411SOL    HW1 1642   1.999   2.926   2.837  0.8098  0.1622 -1.2103
  411SOL    HW2 1643   1.948   3.001   2.960  0.6446 -2.1455  1.5232
  411SOL     MW 1644   1.990   2.932   2.926  0.0346 -0.4018  0.5414
  412SOL     OW 1645   1.023   2.241   0.607  0.7000  0.1027  0.1282
  412SOL    HW1 1646   1.054   2.321   0.652  1.6362 -2.1295  1.5206
  412SOL    HW2 1647   0.941   2.260   0.564 -0.8814  2.5730  1.4366
  412SOL     MW 1648   1.016   2.254   0.607  0.6149  0.1341  0.4846
  413SOL     OW 1649   0.617   2.683   0.024 -0.3264 -0.3625 -0.1045
  413SOL    HW1 1650   0.679   2.618   0.064  0.0664  0.2255  0.9288
  413SOL    HW2 1651   0.625   2.656  -0.066  0.8013 -0.0462  1.1405
  413SOL     MW 1652   0.626   2.671   0.017 -0.1258 -0.2431  0.1961
  414SOL     OW 1653   2.044   2.988   1.099  0.3897  0.2337 -0.2674
  414SOL    HW1 1654   2.113   3.052   1.113  0.8271  0.5251  1.1203
  414SOL    HW2 1655   2.023   2.975   1.003 -0.8621 -0.9337 -1.3162
  414SOL     MW 1656   2.050   2.995   1.088  0.2822  0.1181 -0.2227
  415SOL     OW 1657   1.645   2.851   1.158 -0.0182  0.4222  0.2345
  415SOL    HW1 1658   1.723   2.866   1.215  0.0356 -3.3769 -0.0344
  415SOL    HW2 1659   1.677   2.778   1.102  0.5791  1.2703  1.2695
  415SOL     MW 1660   1.659   2.843   1.158  0.0677  0.0328  0.3356
  416SOL     OW 1661   0.642   1.791   1.426  0.6366 -0.1543 -0.0662
  416SOL    HW1 1662   0.552   1.794   1.447 -1.5397 -2.4969 -1.6131
  416SOL    HW2 1663   0.656   1.707   1.390  1.2500  0.8520  0.3676
  416SOL     MW 1664   0.632   1.781   1.424  0.4304 -0.3306 -0.2131
  417SOL     OW 1665   0.920   0.051   2.081 -0.1883  0.0133  0.5810
  417SOL    HW1 1666   0.869   0.032   2.156 -0.0343  1.9357  0.9698
  417SOL    HW2 1667   0.890   0.001   2.010  0.0298 -0.2484  1.8662
  417SOL     MW 1668   0.909   0.042   2.082 -0.1392  0.2324  0.8018
  418SOL     OW 1669   0.775   2.869   0.198 -0.4933 -0.4004  0.1661
  418SOL    HW1 1670   0.846   2.835   0.143 -1.1896 -3.0350 -1.6768
  418SOL    HW2 1671   0.693   2.848   0.155  1.4988  1.2557  1.8100
  418SOL     MW 1672   0.774   2.862   0.185 -0.3224 -0.5295  0.1399
  419SOL     OW 1673   0.637   2.692   1.331 -0.1236 -0.1879  0.5228
  419SOL    HW1 1674   0.629   2.782   1.358 -0.4818  2.6653 -0.8556
  419SOL    HW2 1675   0.721   2.652   1.356  1.6748  4.0300 -0.7416
  419SOL     MW 1676   0.647   2.699   1.338  0.0665  0.7450  0.1741
  420SOL     OW 1677   0.831   2.226   1.124 -0.3066  0.2581  0.4592
  420SOL    HW1 1678   0.763   2.243   1.188  3.3443  0.5678  0.2801
  420SOL    HW2 1679   0.844   2.311   1.084  0.8498 -0.8668  1.7194
  420SOL     MW 1680   0.824   2.239   1.127  0.3277  0.1505  0.6019
  421SOL     OW 1681   2.929   0.127   0.077  0.0532 -0.2832 -0.2388
  421SOL    HW1 1682   2.856   0.088   0.037  1.0185  0.9904  0.5921
  421SOL    HW2 1683   2.992   0.055   0.054 -2.4891  1.5276  0.2239
  421SOL     MW 1684   2.928   0.112   0.069 -0.1548  0.1238 -0.0681
  422SOL     OW 1685   0.903   2.445   0.971 -0.0063  0.0667 -0.1611
  422SOL    HW1 1686   0.828   2.495   0.995  1.0417 -2.9546 -2.3128
  422SOL    HW2 1687   0.933   2.472   0.884  3.1228  0.4214  0.3648
  422SOL     MW 1688   0.897   2.455   0.963  0.5448 -0.2851 -0.3756
  423SOL     OW 1689   1.536   0.041   0.489  0.3135  0.0811 -0.2704
  423SOL    HW1 1690   1.596   0.024   0.420  2.9411  0.0321  1.7022
  423SOL    HW2 1691   1.515   0.132   0.488  1.3925 -0.6601 -0.1876
  423SOL     MW 1692   1.541   0.051   0.480  0.8026 -0.0232  0.0008
  424SOL     OW 1693   0.638   2.304   1.338  0.3073  0.3494 -0.0297
  424SOL    HW1 1694   0.564   2.241   1.340 -1.6333  1.6989 -1.2526
  424SOL    HW2 1695   0.696   2.271   1.407 -1.7354 -2.0636  0.3778
  424SOL     MW 1696   0.636   2.291   1.347 -0.2182  0.2091 -0.1373
  425SOL     OW 1697   1.729   2.802   2.052  0.2999  0.5939  0.0045
  425SOL    HW1 1698   1.756   2.808   1.955 -0.7764  0.1724 -2.0954
  425SOL    HW2 1699   1.778   2.729   2.089  0.5630  0.2996  0.1840
  425SOL     MW 1700   1.739   2.793   2.044  0.1926  0.4994 -0.2489
  426SOL     OW 1701   0.841   1.712   1.938 -0.4125  1.1390  0.0214
  426SOL    HW1 1702   0.788   1.694   1.857 -0.7655 -0.0640  0.7151
  426SOL    HW2 1703   0.799   1.764   2.001  1.3736 -0.8309  2.8682
  426SOL     MW 1704   0.828   1.717   1.935 -0.2235  0.7203  0.4886
  427SOL     OW 1705   0.373   1.749   1.879  0.6587  0.0899  0.1887
  427SOL    HW1 1706   0.412   1.683   1.824 -1.9390  2.4822  2.1651
  427SOL    HW2 1707   0.314   1.691   1.937 -0.0898 -3.1948 -1.0968
  427SOL     MW 1708   0.371   1.733   1.880  0.2172 -0.0278  0.2799
  428SOL     OW 1709   0.638   2.540   1.094 -0.0304  0.2103 -0.5100
  428SOL    HW1 1710   0.580   2.461   1.105 -1.3077 -0.2840 -1.7102
  428SOL    HW2 1711   0.625   2.593   1.167  1.8929 -2.1099  0.2318
  428SOL     MW 1712   0.629   2.537   1.105  0.0549 -0.1610 -0.5705
  429SOL     OW 1713   1.209   2.799   1.073  0.7926  0.6246 -0.4860
  429SOL    HW1 1714   1.117   2.792   1.106  1.1877  1.0140 -2.2017
  429SOL    HW2 1715   1.223   2.889   1.049  0.8915 -0.1146 -1.0776
  429SOL     MW 1716   1.199   2.810   1.074  0.8578  0.5785 -0.7904
  430SOL     OW 1717   1.190   2.818   0.795  0.4906 -0.0404 -0.0658
  430SOL    HW1 1718   1.182   2.791   0.887 -1.2115 -0.9805 -1.1414
  430SOL    HW2 1719   1.137   2.758   0.745 -2.1186  0.0668  1.1839
  430SOL     MW 1720   1.182   2.807   0.800 -0.0783 -0.1503 -0.0428
  431SOL     OW 1721   0.337   1.906   1.124  0.3864 -0.2013  0.1812
  431SOL    HW1 1722   0.389   1.821   1.124  2.8097 -0.7887  2.2400
  431SOL    HW2 1723   0.355   1.952   1.040  1.0216  2.2123 -1.2994
  431SOL     MW 1724   0.346   1.901   1.113  0.7900  0.0397  0.2575
  432SOL     OW 1725   0.015   0.002   1.121  0.0534 -0.2410  0.3266
  432SOL    HW1 1726   0.030   0.065   1.195 -3.1241  4.7028 -1.0980
  432SOL    HW2 1727  -0.034  -0.066   1.163  2.8513  1.6769 -4.4546
  432SOL     MW 1728   0.011   0.001   1.136  0.0033  0.6644 -0.4922
  433SOL     OW 1729   0.639   2.923   1.494 -0.1062 -0.3695 -0.0867
  433SOL    HW1 1730   0.652   3.011   1.533  1.8345  0.0922 -2.7133
  433SOL    HW2 1731   0.727   2.895   1.526  1.7177 -0.5982  0.6117
  433SOL     MW 1732   0.652   2.931   1.503  0.3905 -0.3388 -0.3411
  434SOL     OW 1733   1.477   2.806   1.788  0.0379 -0.7712  0.6124
  434SOL    HW1 1734   1.393   2.824   1.824 -0.0201 -0.9582 -0.3302
  434SOL    HW2 1735   1.469   2.819   1.690 -1.7376  0.8918  0.4188
  434SOL     MW 1736   1.465   2.810   1.780 -0.2040 -0.5765  0.4625
  435SOL     OW 1737   2.691   1.790   0.282 -0.1381 -0.2284 -0.3917
  435SOL    HW1 1738   2.741   1.788   0.200 -2.5060 -1.7616  2.1589
  435SOL    HW2 1739   2.603   1.817   0.264 -2.1532  1.3143 -0.1377
  435SOL     MW 1740   2.686   1.793   0.269 -0.7164 -0.2271 -0.0217
  436SOL     OW 1741   1.367   2.751   0.352  0.4903 -0.1241  0.3321
  436SOL    HW1 1742   1.428   2.727   0.417 -3.2207 -0.1894 -0.3866
  436SOL    HW2 1743   1.372   2.845   0.361  2.4671 -2.2247  0.2340
  436SOL     MW 1744   1.376   2.761   0.362  0.2615 -0.4099  0.2243
  437SOL     OW 1745   0.909   3.080   1.303 -0.1698  0.9705  0.2833
  437SOL    HW1 1746   0.956   3.108   1.221 -0.7386  1.1272 -0.5600
  437SOL    HW2 1747   0.862   3.005   1.277  0.0363  0.0195 -1.9810
  437SOL     MW 1748   0.909   3.074   1.289 -0.2177  0.8657 -0.1267
  438SOL     OW 1749   0.859   2.690   1.987 -0.2022 -0.2038  0.0883
  438SOL    HW1 1750   0.868   2.620   2.057 -0.6432 -0.5432  3.9428
  438SOL    HW2 1751   0.809   2.649   1.919 -0.1580 -0.6591  3.5056
  438SOL     MW 1752   0.854   2.675   1.988 -0.2545 -0.3087  1.0478
  439SOL     OW 1753   1.159   2.063   0.446 -0.2597  0.0698 -0.3413
  439SOL    HW1 1754   1.100   2.112   0.507 -0.2443  2.3442 -0.3916
  439SOL    HW2 1755   1.172   2.133   0.381  0.4844 -0.8020  0.9818
  439SOL     MW 1756   1.153   2.079   0.445 -0.1595  0.2549 -0.1734
  440SOL     OW 1757   1.798   2.743   3.017  0.6106 -0.1669  0.1533
  440SOL    HW1 1758   1.782   2.780   3.109  3.1893 -2.0118  2.6213
  440SOL    HW2 1759   1.870   2.798   2.987  2.7319 -1.1579 -1.8785
  440SOL     MW 1760   1.805   2.755   3.025  1.2307 -0.5411  0.2108
  441SOL     OW 1761   0.499   2.726   0.426  0.1286 -0.3047  0.7967
  441SOL    HW1 1762   0.441   2.686   0.355  2.9985 -2.7122 -0.2369
  441SOL    HW2 1763   0.500   2.817   0.414  2.6695 -4.4784 -0.9203
  441SOL     MW 1764   0.491   2.733   0.415  0.8425 -1.1730  0.4338
  442SOL     OW 1765   0.033   2.380   0.625  0.4300  0.7967 -0.0548
  442SOL    HW1 1766   0.044   2.465   0.583 -1.2982 -2.0676  2.4889
  442SOL    HW2 1767  -0.059   2.363   0.637  0.9818 -0.1777 -0.0590
  442SOL     MW 1768   0.023   2.389   0.621  0.2748  0.2902  0.2802
  443SOL     OW 1769   1.472   1.797   1.952 -0.1550  0.0703  0.2147
  443SOL    HW1 1770   1.427   1.826   1.874  0.1271 -1.1172  0.8939
  443SOL    HW2 1771   1.472   1.704   1.945  3.0100 -0.1846 -1.3723
  443SOL     MW 1772   1.466   1.788   1.940  0.2998 -0.1200  0.0949
  444SOL     OW 1773   0.923   2.588   1.596 -0.3948  0.0344  0.3216
  444SOL    HW1 1774   1.005   2.566   1.638  1.3408  0.3476  0.2002
  444SOL    HW2 1775   0.853   2.563   1.653  0.5247 -0.4907 -1.6642
  444SOL     MW 1776   0.924   2.582   1.609 -0.0445  0.0065  0.0436
  445SOL     OW 1777   1.192   0.083   1.375 -0.8595  0.2079  0.0236
  445SOL    HW1 1778   1.131   0.111   1.440 -0.2012 -1.1733  0.3775
  445SOL    HW2 1779   1.230   0.160   1.332  1.2533 -0.8690  1.0707
  445SOL     MW 1780   1.189   0.097   1.378 -0.4939 -0.1164  0.2084
  446SOL     OW 1781   2.689   2.841   1.062 -0.2389 -0.4881 -0.4626
  446SOL    HW1 1782   2.663   2.907   0.993 -1.4000  1.6134  0.8519
  446SOL    HW2 1783   2.750   2.779   1.024 -0.3630 -1.8274  0.3435
  446SOL     MW 1784   2.693   2.842   1.048 -0.4085 -0.3876 -0.1828
  447SOL     OW 1785   0.063   1.963   1.557  0.4985  0.3490 -0.3447
  447SOL    HW1 1786   0.095   1.914   1.637  0.7252 -1.2461  1.3061
  447SOL    HW2 1787  -0.011   1.909   1.529  0.9970  2.3256  3.3275
  447SOL     MW 1788   0.057   1.949   1.564  0.5942  0.3993  0.3576
  448SOL     OW 1789   1.688   2.330   1.667 -0.2337 -0.0036 -0.0897
  448SOL    HW1 1790   1.627   2.259   1.682  1.5681 -0.0861 -1.9961
  448SOL    HW2 1791   1.638   2.406   1.692 -0.4192  0.2924  1.2114
  448SOL     MW 1792   1.673   2.331   1.672 -0.0205  0.0245 -0.1696
  449SOL     OW 1793   0.953   2.896   0.404 -0.4103 -0.0680  0.0743
  449SOL    HW1 1794   0.900   2.847   0.340 -0.9478  0.2221 -1.2400
  449SOL    HW2 1795   0.885   2.923   0.473 -1.0938  4.4621 -0.9685
  449SOL     MW 1796   0.937   2.893   0.404 -0.5714  0.5680 -0.2367
  450SOL     OW 1797   1.178   2.508   0.765  0.6407 -1.0192  1.1786
  450SOL    HW1 1798   1.188   2.452   0.836 -0.0970  1.3814 -1.2043
  450SOL    HW2 1799   1.260   2.500   0.708  0.6475 -0.3463 -0.9527
  450SOL     MW 1800   1.190   2.500   0.767  0.5443 -0.6137  0.5830
  451SOL     OW 1801   0.541   2.004   1.692 -0.2884 -0.2867 -0.1044
  451SOL    HW1 1802   0.618   2.032   1.638 -0.4889  1.4794 -3.4226
  451SOL    HW2 1803   0.488   1.965   1.624 -1.6244  1.4670  1.7283
  451SOL     MW 1804   0.545   2.002   1.676 -0.4912  0.1777 -0.3004
  452SOL     OW 1805   0.293   2.628   0.004 -0.5978  0.6165  0.4788
  452SOL    HW1 1806   0.380   2.671  -0.014  0.1170 -1.4797 -1.5541
  452SOL    HW2 1807   0.238   2.694  -0.031 -0.6047 -0.4907  0.4042
  452SOL     MW 1808   0.297   2.642  -0.003 -0.5044  0.1938  0.2007
  453SOL     OW 1809   0.201   2.985   1.580 -0.2183 -0.2332  0.1360
  453SOL    HW1 1810   0.245   2.951   1.657 -1.0496  0.1296  1.1626
  453SOL    HW2 1811   0.260   2.956   1.513  0.5976 -2.6390  2.6862
  453SOL     MW 1812   0.215   2.977   1.581 -0.2203 -0.5028  0.6079
  454SOL     OW 1813   0.961   2.782   1.181 -0.0972  0.2119 -0.0284
  454SOL    HW1 1814   0.936   2.706   1.231 -0.7518 -1.5722  0.7745
  454SOL    HW2 1815   0.889   2.800   1.122 -0.4630  1.9588  0.2437
  454SOL     MW 1816   0.948   2.774   1.180 -0.2318  0.2070  0.1135
  455SOL     OW 1817   1.753   2.826   0.186 -0.0413 -0.7248  0.1838
  455SOL    HW1 1818   1.813   2.801   0.260 -1.5888 -0.0600  0.6877
  455SOL    HW2 1819   1.681   2.765   0.188  1.0525 -2.1045 -0.1538
  455SOL     MW 1820   1.751   2.815   0.196 -0.1012 -0.8192  0.2057
  456SOL     OW 1821   2.761   0.250   1.468  0.2831 -0.2872  0.0521
  456SOL    HW1 1822   2.742   0.195   1.388 -0.8554 -0.1241 -0.3599
  456SOL    HW2 1823   2.820   0.317   1.439  0.9580 -1.6896  0.2944
  456SOL     MW 1824   2.766   0.251   1.454  0.2219 -0.4507  0.0297
  457SOL     OW 1825   0.820   1.664   3.054 -0.3367 -0.1245 -0.4334
  457SOL    HW1 1826   0.733   1.619   3.067  1.2968 -0.9450  2.2832
  457SOL    HW2 1827   0.840   1.685   3.147  2.6322 -1.8734  0.6017
  457SOL     MW 1828   0.812   1.661   3.068  0.2705 -0.4635  0.0616
  458SOL     OW 1829   1.361   1.465   0.722 -0.4297  0.0047 -0.8447
  458SOL    HW1 1830   1.278   1.523   0.717 -0.6900  0.1071  2.2054
  458SOL    HW2 1831   1.347   1.376   0.684  0.8526 -1.1136 -0.6675
  458SOL     MW 1832   1.348   1.461   0.716 -0.2949 -0.1294 -0.4189
  459SOL     OW 1833   1.586   3.049   0.240 -0.9341  0.1449 -0.4120
  459SOL    HW1 1834   1.630   2.962   0.223  0.3708  0.2927  0.0894
  459SOL    HW2 1835   1.529   3.067   0.161 -1.0113  0.1203  1.2448
  459SOL     MW 1836   1.584   3.040   0.227 -0.7721  0.1611 -0.1273
  460SOL     OW 1837   1.775   2.238   0.635  0.0672 -0.1824 -0.0257
  460SOL    HW1 1838   1.689   2.236   0.682  1.6775 -1.3874 -1.3450
  460SOL    HW2 1839   1.810   2.151   0.633 -0.5825  2.8531  0.4704
  460SOL     MW 1840   1.769   2.227   0.641  0.1939  0.0591 -0.1343
  461SOL     OW 1841   0.412   2.451   0.534  0.3812  0.0885  0.4479
  461SOL    HW1 1842   0.407   2.544   0.502  0.8081  1.9286  0.5991
  461SOL    HW2 1843   0.378   2.451   0.621  0.4642 -1.5556  2.0611
  461SOL     MW 1844   0.407   2.464   0.542  0.4484  0.1144  0.6807
  462SOL     OW 1845   0.288   0.242   1.276  0.3110 -0.1634 -0.1666
  462SOL    HW1 1846   0.329   0.191   1.205 -0.1232  0.1233 -0.3947
  462SOL    HW2 1847   0.361   0.244   1.340 -1.2387  2.2033 -2.0529
  462SOL     MW 1848   0.303   0.236   1.275  0.0492  0.1867 -0.4456
  463SOL     OW 1849   1.097   0.083   0.721 -0.0457  0.7225 -0.1612
  463SOL    HW1 1850   1.185   0.063   0.689  0.0476  0.0615  2.5978
  463SOL    HW2 1851   1.045   0.102   0.642  0.9892  0.4300  1.2333
  463SOL     MW 1852   1.102   0.083   0.706  0.1032  0.5967  0.3868
  464SOL     OW 1853   0.747   3.074   2.271  0.2169 -0.3162  0.0558
  464SOL    HW1 1854   0.750   2.977   2.287  0.1297  1.3028 -0.3312
  464SOL    HW2 1855   0.779   3.103   2.363  0.7840 -3.3755 -0.9454
  464SOL     MW 1856   0.752   3.065   2.285  0.2802 -0.5062 -0.1273
  465SOL     OW 1857   0.836   0.343   0.407 -0.0192 -0.9643  0.6221
  465SOL    HW1 1858   0.822   0.275   0.478  1.8259 -3.0012  0.5929
  465SOL    HW2 1859   0.815   0.300   0.325 -0.0243 -0.8607  3.1492
  465SOL     MW 1860   0.831   0.329   0.406  0.2236 -1.2193  0.9517
  466SOL     OW 1861   1.107   2.045   0.795 -0.3994  0.0187  0.1710
  466SOL    HW1 1862   1.082   1.959   0.759  0.4721 -3.6728  4.0674
  466SOL    HW2 1863   1.084   2.119   0.732  0.8399  0.6055  0.1159
  466SOL     MW 1864   1.100   2.043   0.782 -0.1209 -0.3909  0.6778
  467SOL     OW 1865   1.259   2.360   0.978 -0.3592  0.4304 -0.1353
  467SOL    HW1 1866   1.347   2.380   1.011 -0.9920 -1.4493  1.9762
  467SOL    HW2 1867   1.269   2.268   0.949 -0.3643  0.6332 -1.8720
  467SOL     MW 1868   1.272   2.350   0.978 -0.4433  0.2092 -0.0858
  468SOL     OW 1869   0.474   2.667   1.923 -0.8105  0.1348  0.3002
  468SOL    HW1 1870   0.427   2.584   1.895 -1.5036 -2.2098 -2.3102
  468SOL    HW2 1871   0.429   2.729   1.873  0.8281  3.7489  1.4829
  468SOL     MW 1872   0.462   2.664   1.913 -0.6858  0.3023  0.1118
  469SOL     OW 1873   0.322   2.149   1.794 -0.1481 -0.4412  0.0902
  469SOL    HW1 1874   0.252   2.088   1.808 -0.8775 -0.9512 -1.3854
  469SOL    HW2 1875   0.395   2.088   1.789  0.2720  0.0074 -2.9235
  469SOL     MW 1876   0.323   2.133   1.795 -0.1889 -0.4493 -0.5021
  470SOL     OW 1877   3.038   2.590   0.102  0.2167  0.4474  0.0568
  470SOL    HW1 1878   2.954   2.595   0.157 -2.6672 -0.3940 -0.2380
  470SOL    HW2 1879   3.012   2.619   0.012 -0.2792 -1.6562  0.5202
  470SOL     MW 1880   3.024   2.594   0.097 -0.2292  0.0588  0.0790
  471SOL     OW 1881   1.144   2.640   1.375  0.3454  0.0528 -0.1678
  471SOL    HW1 1882   1.093   2.571   1.331  0.3630 -1.5309  1.1484
  471SOL    HW2 1883   1.177   2.699   1.306  0.8845  2.3848  1.5501
  471SOL     MW 1884   1.142   2.639   1.360  0.4188  0.1515  0.2325
  472SOL     OW 1885   2.960   2.138   0.365  0.2387  0.3517 -0.0540
  472SOL    HW1 1886   2.939   2.110   0.274 -2.8413  0.1386 -1.1128
  472SOL    HW2 1887   2.896   2.070   0.409 -1.3065 -3.3145  0.0643
  472SOL     MW 1888   2.949   2.125   0.359 -0.3715 -0.1601 -0.1781
  473SOL     OW 1889   0.881   2.554   1.345  0.0624  0.3369  0.4630
  473SOL    HW1 1890   0.907   2.465   1.318  0.3660 -0.7040  2.0535
  473SOL    HW2 1891   0.908   2.558   1.441  2.2795  0.3802 -2.6365
  473SOL     MW 1892   0.888   2.543   1.354  0.3950  0.2053  0.2639
  474SOL     OW 1893   0.746   2.275   1.837  1.2373 -0.4330  0.0690
  474SOL    HW1 1894   0.829   2.287   1.888  0.6428  2.3269 -0.1070
  474SOL    HW2 1895   0.766   2.261   1.746 -0.9855 -0.3515 -2.0870
  474SOL     MW 1896   0.760   2.275   1.832  0.8656 -0.0581 -0.2386
  475SOL     OW 1897   1.590   3.082   1.529 -0.4028  0.2219  0.5189
  475SOL    HW1 1898   1.521   3.032   1.480 -1.0870 -1.8146  0.1539
  475SOL    HW2 1899   1.661   3.019   1.538 -2.4176 -2.2534 -2.0130
  475SOL     MW 1900   1.591   3.067   1.524 -0.7589 -0.3734  0.1367
  476SOL     OW 1901   1.438   2.681   1.196  0.2015  0.1326  0.3122
  476SOL    HW1 1902   1.368   2.705   1.145  2.0329 -0.5033  1.1993
  476SOL    HW2 1903   1.493   2.760   1.195 -0.0220 -2.2066  1.5764
  476SOL     MW 1904   1.436   2.694   1.189  0.4136 -0.2599  0.5960
  477SOL     OW 1905   0.871   2.527   0.700  0.4552 -0.5406 -0.3584
  477SOL    HW1 1906   0.932   2.596   0.668 -1.0821  1.4981 -1.8970
  477SOL    HW2 1907   0.865   2.480   0.618  1.4297  2.1872  1.4957
  477SOL     MW 1908   0.878   2.530   0.685  0.3810  0.0883 -0.3168
  478SOL     OW 1909   0.214   2.647   0.864 -0.3136  0.1398 -0.6486
  478SOL    HW1 1910   0.272   2.713   0.828  0.4470 -2.7838 -0.0621
  478SOL    HW2 1911   0.265   2.563   0.852 -0.2557  0.4662 -1.7064
  478SOL     MW 1912   0.229   2.645   0.857 -0.2056 -0.2029 -0.7108
  479SOL     OW 1913   1.400   1.989   1.283  0.5527  0.4560  0.7188
  479SOL    HW1 1914   1.398   2.014   1.378 -1.4216 -0.0260 -0.9718
  479SOL    HW2 1915   1.444   1.903   1.290 -0.2809  0.3882  1.7183
  479SOL     MW 1916   1.405   1.981   1.297  0.1822  0.3835  0.6276
  480SOL     OW 1917   1.960   2.448   1.350 -0.6988 -0.3857 -0.2674
  480SOL    HW1 1918   1.983   2.354   1.378 -3.0423 -1.0601 -3.2060
  480SOL    HW2 1919   1.946   2.441   1.258 -1.2248  2.5181  0.6533
  480SOL     MW 1920   1.961   2.435   1.342 -1.0774 -0.0916 -0.5336
  481SOL     OW 1921   1.083   0.076   1.091 -0.2156 -0.6229  0.5925
  481SOL    HW1 1922   1.165   0.037   1.056 -0.5599  0.7039  2.2304
  481SOL    HW2 1923   1.108   0.168   1.093  0.6582 -0.3012  0.8056
  481SOL     MW 1924   1.097   0.083   1.086 -0.1458 -0.4054  0.8367
  482SOL     OW 1925   1.045   3.096   0.258  0.5473 -0.3130 -0.3605
  482SOL    HW1 1926   1.018   3.021   0.308 -2.2021  2.0063  0.8887
  482SOL    HW2 1927   1.035   3.174   0.314 -1.9039  0.9192  0.0503
  482SOL     MW 1928   1.040   3.096   0.272 -0.1389  0.1556 -0.1415
  483SOL     OW 1929   0.480   2.988   0.462  0.3639  0.5486  0.1889
  483SOL    HW1 1930   0.403   2.993   0.403  1.2918  0.9469 -2.5414
  483SOL    HW2 1931   0.449   3.050   0.533 -0.0361  1.1985  2.9145
  483SOL     MW 1932   0.466   2.997   0.463  0.4336  0.6869  0.1882
  484SOL     OW 1933   1.835   2.038   1.433  0.5762  0.1075  0.2930
  484SOL    HW1 1934   1.915   2.099   1.431  0.5721  2.6870 -1.0890
  484SOL    HW2 1935   1.814   2.043   1.529 -2.5850  0.5769  0.0434
  484SOL     MW 1936   1.843   2.047   1.446  0.1586  0.5098  0.0777
  485SOL     OW 1937   0.632   2.418   0.297  0.1214  0.0418 -0.2151
  485SOL    HW1 1938   0.663   2.388   0.389  2.3865  0.3268  0.4172
  485SOL    HW2 1939   0.574   2.495   0.309 -2.3424  0.6435 -0.2788
  485SOL     MW 1940   0.628   2.424   0.311  0.0952  0.1587 -0.1401
  486SOL     OW 1941   0.170   2.376   1.478 -0.3295 -0.3263  0.6281
  486SOL    HW1 1942   0.182   2.445   1.412 -1.1813  1.0934  1.3609
  486SOL    HW2 1943   0.180   2.420   1.561  0.4982 -2.7544  1.8965
  486SOL     MW 1944   0.173   2.391   1.481 -0.3327 -0.4594  0.8922
  487SOL     OW 1945   1.174   1.767   1.047 -0.3519  0.0397  0.4548
  487SOL    HW1 1946   1.155   1.837   1.102  0.8481  0.0724 -2.3624
  487SOL    HW2 1947   1.272   1.762   1.047  1.6175 -1.8009  0.4890
  487SOL     MW 1948   1.185   1.775   1.054  0.0663 -0.1988  0.0876
  488SOL     OW 1949   1.607   1.854   0.538  0.6144  0.1361 -0.3305
  488SOL    HW1 1950   1.679   1.868   0.476  1.3285  0.1769 -2.3813
  488SOL    HW2 1951   1.542   1.924   0.523 -0.1495 -0.3019  1.9080
  488SOL     MW 1952   1.608   1.865   0.528  0.6078  0.0837 -0.3057
  489SOL     OW 1953   0.781   0.820   0.584  0.0856 -0.3177  0.0212
  489SOL    HW1 1954   0.775   0.732   0.539 -4.1045  3.2064 -3.6520
  489SOL    HW2 1955   0.769   0.805   0.678 -0.9538 -2.2275 -2.2454
  489SOL     MW 1956   0.778   0.806   0.591 -0.6044 -0.1047 -0.7625
  490SOL     OW 1957   1.436   2.070   0.481 -0.0545  0.6679 -0.8931
  490SOL    HW1 1958   1.462   2.157   0.442 -0.4180  0.3563 -1.8560
  490SOL    HW2 1959   1.343   2.074   0.485 -0.2891  1.4215 -1.3772
  490SOL     MW 1960   1.427   2.082   0.476 -0.1334  0.7262 -1.0840
  491SOL     OW 1961   1.305   3.018   0.415  0.6519  0.6410  0.1242
  491SOL    HW1 1962   1.388   3.076   0.423  4.0901  2.5368  0.5200
  491SOL    HW2 1963   1.249   3.060   0.350 -1.1689 -0.1065  1.1534
  491SOL     MW 1964   1.308   3.031   0.407  0.8653  0.7925  0.3122
  492SOL     OW 1965   1.503   2.201   0.751 -0.6667  0.1669 -0.1034
  492SOL    HW1 1966   1.481   2.133   0.694  0.8615 -0.0049  0.9246
  492SOL    HW2 1967   1.444   2.170   0.826 -0.6794 -2.2889 -0.0095
  492SOL     MW 1968   1.493   2.188   0.753 -0.4667 -0.1798  0.0446
  493SOL     OW 1969   0.277   2.970   0.282 -0.2056  0.5087 -0.1685
  493SOL    HW1 1970   0.208   2.990   0.347  3.2926 -0.7714  2.5897
  493SOL    HW2 1971   0.257   3.037   0.212  1.7288  0.6967 -0.2725
  493SOL     MW 1972   0.266   2.981   0.281  0.5112  0.3646  0.1817
  494SOL     OW 1973   0.449   2.433   1.764  0.3300 -0.2704 -0.5005
  494SOL    HW1 1974   0.520   2.383   1.804 -0.6326 -0.8953  1.6258
  494SOL    HW2 1975   0.478   2.447   1.674  0.5155  0.1822  3.7642
  494SOL     MW 1976   0.462   2.429   1.757  0.2274 -0.2931  0.3427
  495SOL     OW 1977   2.827   1.748   2.559 -0.1006  0.4931  0.6051
  495SOL    HW1 1978   2.817   1.840   2.549  4.2892 -2.2036 -1.7375
  495SOL    HW2 1979   2.797   1.746   2.649 -0.5242  2.9952 -2.2535
  495SOL     MW 1980   2.822   1.760   2.570  0.4227  0.4674 -0.0811
  496SOL     OW 1981   2.913   2.331   2.646 -0.5690 -0.3094  0.1603
  496SOL    HW1 1982   2.936   2.292   2.729 -0.9575  0.6699 -1.5076
  496SOL    HW2 1983   2.963   2.413   2.647  2.6224 -1.0637 -0.4781
  496SOL     MW 1984   2.922   2.337   2.657 -0.1992 -0.2797 -0.1440
  497SOL     OW 1985   1.539   2.215   2.673  0.2978 -0.3870  0.2092
  497SOL    HW1 1986   1.473   2.157   2.635 -2.0282 -0.5618  1.0512
  497SOL    HW2 1987   1.562   2.174   2.758 -0.5324 -0.2247 -1.0492
  497SOL     MW 1988   1.533   2.202   2.679 -0.1187 -0.3887  0.1543
  498SOL     OW 1989   1.493   2.695   2.356  0.0274 -0.0517 -0.0137
  498SOL    HW1 1990   1.496   2.601   2.364 -0.9137 -0.0692 -0.2727
  498SOL    HW2 1991   1.583   2.722   2.348 -1.2321  0.6387  0.2535
  498SOL     MW 1992   1.506   2.686   2.356 -0.2629  0.0371 -0.0126
  499SOL     OW 1993   0.962   0.153   3.069  0.3200  0.4024  0.2774
  499SOL    HW1 1994   0.882   0.156   3.125 -2.0782  1.3046  1.0100
  499SOL    HW2 1995   1.000   0.067   3.099 -0.1872  0.3130  2.8187
  499SOL     MW 1996   0.956   0.142   3.080 -0.0633  0.5096  0.7093
  500SOL     OW 1997   1.028   2.485   2.765 -0.4566  0.2296  0.3465
  500SOL    HW1 1998   1.106   2.479   2.827  0.2454  0.5285  0.3373
  500SOL    HW2 1999   0.946   2.492   2.819 -2.4937  1.8328 -0.2909
  500SOL     MW 2000   1.028   2.485   2.780 -0.6327  0.4806  0.2612
  501SOL     OW 2001   1.758   2.209   3.058 -0.0036 -0.1072 -0.0940
  501SOL    HW1 2002   1.734   2.300   3.065 -0.0567 -0.4177 -3.2754
  501SOL    HW2 2003   1.849   2.211   3.041 -0.5585 -2.6258  1.5260
  501SOL     MW 2004   1.767   2.222   3.057 -0.0838 -0.4805 -0.3000
  502SOL     OW 2005   0.108   2.832   3.001 -0.4370  0.0472 -0.3449
  502SOL    HW1 2006   0.035   2.783   2.963 -0.5043 -0.3166 -2.9524
  502SOL    HW2 2007   0.156   2.864   2.930 -1.9220 -1.5700 -0.6043
  502SOL     MW 2008   0.104   2.829   2.987 -0.6418 -0.2142 -0.7232
  503SOL     OW 2009   1.041   2.918   2.156  0.2618  0.4582 -0.0492
  503SOL    HW1 2010   0.970   2.880   2.106  1.4212 -2.3414  0.7845
  503SOL    HW2 2011   1.033   3.016   2.149  0.7395  2.2987  1.6347
  503SOL     MW 2012   1.031   2.926   2.149  0.4778  0.3317  0.2829
  504SOL     OW 2013   0.114   2.710   2.120  0.9557 -0.5094 -0.4141
  504SOL    HW1 2014   0.130   2.624   2.077 -1.5052  2.5109  0.0349
  504SOL    HW2 2015   0.099   2.694   2.214 -1.7804  0.1945  1.9732
  504SOL     MW 2016   0.114   2.696   2.127  0.2700 -0.0180 -0.0399
  505SOL     OW 2017   1.717   2.718   2.687  0.1316 -0.4346  0.1516
  505SOL    HW1 2018   1.698   2.668   2.612 -2.5674  0.7984 -0.1854
  505SOL    HW2 2019   1.655   2.701   2.755 -0.2058  1.0703  1.1511
  505SOL     MW 2020   1.706   2.709   2.686 -0.2691 -0.0734  0.2390
  506SOL     OW 2021   1.643   3.002   2.860  0.0842 -0.1253  0.6030
  506SOL    HW1 2022   1.693   2.954   2.926  1.1820  0.9191  0.6531
  506SOL    HW2 2023   1.697   3.014   2.783 -1.9177  0.5077  0.1213
  506SOL     MW 2024   1.656   2.997   2.859 -0.0351  0.0960  0.5461
  507SOL     OW 2025   0.801   2.826   2.899 -0.6991  1.1562  0.4621
  507SOL    HW1 2026   0.856   2.872   2.839  0.0643 -0.5196  0.0284
  507SOL    HW2 2027   0.730   2.889   2.918  1.7771 -0.6181 -1.3820
  507SOL     MW 2028   0.799   2.840   2.894 -0.2717  0.7010  0.1616
  508SOL     OW 2029   1.121   2.070   2.474 -0.4486  0.8107  0.1259
  508SOL    HW1 2030   1.201   2.054   2.523 -1.5136 -1.4402 -2.9875
  508SOL    HW2 2031   1.081   2.156   2.499 -0.2012  1.4006  0.8463
  508SOL     MW 2032   1.126   2.079   2.484 -0.5565  0.5915 -0.1898
  509SOL     OW 2033   0.560   2.535   2.903  0.5670  0.3237  0.4991
  509SOL    HW1 2034   0.576   2.546   2.800  4.0169  4.7920 -1.3494
  509SOL    HW2 2035   0.487   2.468   2.904 -0.5660 -0.7254 -0.7320
  509SOL     MW 2036   0.553   2.528   2.889  0.8727  0.7749  0.0927
  510SOL     OW 2037   1.484   2.537   1.728 -0.4212  0.5203  0.6838
  510SOL    HW1 2038   1.488   2.626   1.763  0.1271  0.4465  1.2190
  510SOL    HW2 2039   1.410   2.495   1.781 -1.4569  1.2873 -0.0533
  510SOL     MW 2040   1.475   2.543   1.740 -0.4855  0.6117  0.6571
  511SOL     OW 2041   0.424   2.590   2.482 -0.2333  0.0409  0.0859
  511SOL    HW1 2042   0.504   2.569   2.533 -1.8186  0.4343  1.9353
  511SOL    HW2 2043   0.443   2.596   2.387 -3.7982  0.2797  2.2981
  511SOL     MW 2044   0.437   2.588   2.476 -0.9128  0.1243  0.6218
  512SOL     OW 2045   1.009   1.969   2.842  0.1357 -0.3063 -0.6042
  512SOL    HW1 2046   0.916   1.979   2.859  0.1143  0.0242  0.1013
  512SOL    HW2 2047   1.031   1.875   2.856  1.2142  0.0200  3.1779
  512SOL     MW 2048   1.000   1.958   2.846  0.2751 -0.2196 -0.0121
  513SOL     OW 2049   1.465   2.386   2.387 -0.0032 -0.2920 -0.4113
  513SOL    HW1 2050   1.513   2.393   2.471 -0.0748  1.0494 -0.4831
  513SOL    HW2 2051   1.490   2.295   2.367 -0.6292  0.6509 -2.4529
  513SOL     MW 2052   1.474   2.375   2.395 -0.0953  0.0094 -0.6901
  514SOL     OW 2053   0.238   2.432   2.609  0.7534  0.0334 -0.3435
  514SOL    HW1 2054   0.297   2.501   2.574  1.8979 -0.4758 -0.5439
  514SOL    HW2 2055   0.262   2.430   2.702  0.9356 -1.8088  2.0438
  514SOL     MW 2056   0.249   2.441   2.617  0.9284 -0.2768 -0.0550
  515SOL     OW 2057   1.172   2.066   1.914  0.5805  0.1213 -0.4522
  515SOL    HW1 2058   1.118   2.140   1.930 -1.0128 -1.2359 -0.4181
  515SOL    HW2 2059   1.201   2.044   1.999 -2.6850 -1.2549  1.5387
  515SOL     MW 2060   1.168   2.073   1.928 -0.0606 -0.2394 -0.1850
  516SOL     OW 2061   1.441   2.511   3.066  0.0422 -0.5483  0.4182
  516SOL    HW1 2062   1.516   2.492   3.012 -1.9685  0.2251  2.2329
  516SOL    HW2 2063   1.365   2.470   3.020  2.5771  1.9621  0.2303
  516SOL     MW 2064   1.441   2.503   3.053  0.1113 -0.1150  0.6329
  517SOL     OW 2065   0.572   2.426   2.101 -0.2173 -0.3647 -0.6913
  517SOL    HW1 2066   0.562   2.526   2.128  1.3251  1.7242 -0.6205
  517SOL    HW2 2067   0.492   2.397   2.047 -0.9497 -1.9245 -2.4377
  517SOL     MW 2068   0.560   2.435   2.098 -0.1104 -0.2949 -0.9124
  518SOL     OW 2069   1.888   0.077   2.995 -0.0240  0.0159  0.7057
  518SOL    HW1 2070   1.851   0.132   2.921 -3.1969 -0.0869 -0.0075
  518SOL    HW2 2071   1.829   0.105   3.067  0.3880  0.7823  0.1194
  518SOL     MW 2072   1.875   0.088   2.995 -0.3883  0.1034  0.5342
  519SOL     OW 2073   0.741   2.543   1.799 -0.0457  0.0619  0.6006
  519SOL    HW1 2074   0.726   2.443   1.812  2.8474  1.1595 -1.3191
  519SOL    HW2 2075   0.650   2.569   1.796 -4.2699 -1.5254 -0.9512
  519SOL     MW 2076   0.727   2.534   1.800 -0.2213 -0.0027  0.1426
  520SOL     OW 2077   1.196   2.147   2.912 -0.4967  0.0595 -0.6407
  520SOL    HW1 2078   1.118   2.104   2.877 -0.2572  3.0031 -0.8317
  520SOL    HW2 2079   1.246   2.090   2.975 -2.3502 -0.2591  3.2696
  520SOL     MW 2080   1.192   2.134   2.916 -0.7097  0.4058 -0.1500
  521SOL     OW 2081   1.752   2.003   2.230 -0.5876 -0.1549 -0.3696
  521SOL    HW1 2082   1.763   2.043   2.145 -2.7733 -0.0185  0.7277
  521SOL    HW2 2083   1.750   1.905   2.223 -0.4856 -0.1464  0.1653
  521SOL     MW 2084   1.753   1.995   2.218 -0.8625 -0.1358 -0.1543
  522SOL     OW 2085   2.868   2.611   2.231  0.4381  0.6748  0.3636
  522SOL    HW1 2086   2.930   2.542   2.264  3.6904  0.4490  2.2947
  522SOL    HW2 2087   2.783   2.615   2.273  0.7239 -0.8790  0.1265
  522SOL     MW 2088   2.865   2.603   2.241  0.9049  0.4400  0.5871
  523SOL     OW 2089   0.845   1.500   2.125 -0.3982  0.2620 -0.0899
  523SOL    HW1 2090   0.850   1.570   2.057  0.2055  0.9756  1.2923
  523SOL    HW2 2091   0.885   1.421   2.083 -0.5188 -0.2382 -1.5486
  523SOL     MW 2092   0.851   1.499   2.110 -0.3345  0.2902 -0.1000
  524SOL     OW 2093   0.816   2.460   2.952 -0.4920 -0.0933 -0.2069
  524SOL    HW1 2094   0.734   2.504   2.945 -1.8043  0.3825  1.1354
  524SOL    HW2 2095   0.806   2.370   2.922  3.5450 -0.2386 -0.2780
  524SOL     MW 2096   0.804   2.454   2.947 -0.1325 -0.0497 -0.0392
  525SOL     OW 2097   0.345   2.306   2.030  0.1418  0.0035 -0.2240
  525SOL    HW1 2098   0.363   2.241   2.105 -0.8973 -1.3869  0.1925
  525SOL    HW2 2099   0.339   2.263   1.944  1.9560 -2.6459  0.8800
  525SOL     MW 2100   0.346   2.292   2.029  0.2441 -0.5295 -0.0234
  526SOL     OW 2101   0.631   2.124   2.096  0.0589 -0.0511  0.1417
  526SOL    HW1 2102   0.630   2.162   2.010  0.3611  0.6957  0.2041
  526SOL    HW2 2103   0.612   2.197   2.152 -2.2684  1.2009  0.3326
  526SOL     MW 2104   0.629   2.138   2.092 -0.2083  0.2126  0.1751
  527SOL     OW 2105   1.413   1.963   2.148  0.4008  0.5624  0.8484
  527SOL    HW1 2106   1.377   1.910   2.224 -0.6851 -0.2534 -1.7831
  527SOL    HW2 2107   1.432   1.897   2.077 -1.0139  2.4662 -1.3948
  527SOL     MW 2108   1.411   1.947   2.148  0.0709  0.7060  0.2052
  528SOL     OW 2109   0.595   3.023   2.933 -0.3057  0.4948 -0.0758
  528SOL    HW1 2110   0.669   3.082   2.912 -1.3305  0.6083 -1.4332
  528SOL    HW2 2111   0.543   3.019   2.850 -1.9757  0.2136  1.9941
  528SOL     MW 2112   0.598   3.030   2.919 -0.6613  0.4727  0.0182
  529SOL     OW 2113   0.983   2.286   1.945  0.5491  0.1855 -0.0566
  529SOL    HW1 2114   1.007   2.317   2.029  0.2856 -1.5219 -1.0876
  529SOL    HW2 2115   1.017   2.351   1.886 -0.6955 -1.8951 -0.1583
  529SOL     MW 2116   0.990   2.299   1.948  0.3501 -0.3143 -0.2061
  530SOL     OW 2117   1.199   2.437   2.981 -0.7262 -0.2653  0.5431
  530SOL    HW1 2118   1.165   2.479   3.060 -1.5140  3.5362 -0.6082
  530SOL    HW2 2119   1.173   2.344   2.981 -2.0770  0.8822 -0.1223
  530SOL     MW 2120   1.191   2.430   2.991 -1.0083  0.3877  0.3034
  531SOL     OW 2121   0.941   1.863   2.562  0.3715  0.1119 -0.1521
  531SOL    HW1 2122   0.997   1.940   2.538  0.4593  1.2323 -5.3333
  531SOL    HW2 2123   0.912   1.886   2.651 -1.4133  2.2749  4.3929
  531SOL     MW 2124   0.945   1.876   2.570  0.1476  0.5451 -0.2360
  532SOL     OW 2125   1.754   0.202   2.765 -0.0310  0.1848  0.1127
  532SOL    HW1 2126   1.693   0.141   2.732  3.2701 -1.1861  1.5082
  532SOL    HW2 2127   1.839   0.168   2.733  2.7942  1.6418  1.2891
  532SOL     MW 2128   1.757   0.190   2.756  0.7773  0.1962  0.4521
  533SOL     OW 2129   1.965   2.560   3.094  0.2487 -0.3324  0.1816
  533SOL    HW1 2130   1.905   2.511   3.155 -0.4522 -1.8684 -0.0621
  533SOL    HW2 2131   1.896   2.631   3.062 -0.6341 -0.5584 -1.8333
  533SOL     MW 2132   1.948   2.563   3.098  0.0398 -0.5649 -0.1164
  534SOL     OW 2133   1.707   2.370   2.508 -0.3928  0.0991  0.0760
  534SOL    HW1 2134   1.655   2.307   2.558 -0.7578 -1.3901  0.6942
  534SOL    HW2 2135   1.781   2.393   2.570  0.1381  3.6965  1.6891
  534SOL     MW 2136   1.710   2.365   2.522 -0.3709  0.3773  0.3704
  535SOL     OW 2137   1.890   2.376   1.866  0.0997 -0.1583  0.0046
  535SOL    HW1 2138   1.848   2.368   1.777  1.9776  0.2120  1.7273
  535SOL    HW2 2139   1.983   2.352   1.849 -0.4342 -1.1911 -1.0433
  535SOL     MW 2140   1.897   2.372   1.852  0.2770 -0.2457  0.0936
  536SOL     OW 2141   0.491   1.878   2.125  0.3209  0.3032 -0.3580
  536SOL    HW1 2142   0.451   1.836   2.051 -0.0996 -1.6038 -3.4423
  536SOL    HW2 2143   0.544   1.953   2.091 -0.5666  1.5007  1.4660
  536SOL     MW 2144   0.493   1.883   2.111  0.1483  0.2096 -0.5243
  537SOL     OW 2145   1.062   0.288   2.767 -0.2489  0.2909 -0.1928
  537SOL    HW1 2146   1.075   0.359   2.836  0.2062 -0.2562 -1.0216
  537SOL    HW2 2147   1.071   0.334   2.685  0.8130 -1.5947  0.9515
  537SOL     MW 2148   1.065   0.304   2.765 -0.0487 -0.0301 -0.1512
  538SOL     OW 2149   1.431   0.064   0.059  0.3226  0.0669 -0.0750
  538SOL    HW1 2150   1.421   0.158   0.049 -0.4078  0.4152  0.2005
  538SOL    HW2 2151   1.346   0.037   0.019  1.0386  1.4347 -0.6544
  538SOL     MW 2152   1.419   0.073   0.052  0.3207  0.2933 -0.1151
  539SOL     OW 2153   0.718   2.836   2.589  0.6354  0.5367  0.1681
  539SOL    HW1 2154   0.807   2.861   2.616  0.6456  2.0348 -0.8221
  539SOL    HW2 2155   0.705   2.760   2.646 -0.9717  4.1370 -0.7644
  539SOL     MW 2156   0.728   2.829   2.600  0.4247  1.2094 -0.0856
  540SOL     OW 2157   0.306   2.445   2.881 -0.0277 -0.4956  0.0187
  540SOL    HW1 2158   0.316   2.518   2.945 -1.6828 -1.2547 -1.2752
  540SOL    HW2 2159   0.285   2.368   2.937  0.9816 -0.1311 -0.2809
  540SOL     MW 2160   0.305   2.445   2.897 -0.1129 -0.5477 -0.1916
  541SOL     OW 2161   0.257   2.940   2.118  0.0189 -0.0398 -0.4189
  541SOL    HW1 2162   0.197   2.865   2.096  2.8244 -3.3108 -0.7658
  541SOL    HW2 2163   0.292   2.920   2.206  1.0697 -1.3345 -1.3705
  541SOL     MW 2164   0.254   2.927   2.127  0.5277 -0.6422 -0.5902
  542SOL     OW 2165   0.973   2.283   2.607 -0.2030 -0.7396  0.3680
  542SOL    HW1 2166   0.915   2.235   2.663 -0.4547 -0.2109 -1.3838
  542SOL    HW2 2167   1.008   2.355   2.670  0.9206  0.6782 -0.4630
  542SOL     MW 2168   0.970   2.286   2.623 -0.0879 -0.4828  0.0272
  543SOL     OW 2169   1.597   2.450   2.828  0.3611  0.4908  0.2291
  543SOL    HW1 2170   1.548   2.386   2.781  1.9527  3.2559  1.7200
  543SOL    HW2 2171   1.659   2.480   2.763  0.8065 -2.7874 -1.3372
  543SOL     MW 2172   1.599   2.445   2.813  0.6299  0.4231  0.2191
  544SOL     OW 2173   0.684   0.313   2.717 -0.4697 -0.1480  0.0061
  544SOL    HW1 2174   0.601   0.300   2.761 -2.2118  1.8455  1.4573
  544SOL    HW2 2175   0.680   0.248   2.644  1.0607  0.4257 -0.3404
  544SOL     MW 2176   0.673   0.303   2.713 -0.4977  0.1907  0.1518
  545SOL     OW 2177   1.522   2.121   2.340  0.6830 -0.5078  0.0063
  545SOL    HW1 2178   1.459   2.092   2.273  0.4027 -0.5353  0.4686
  545SOL    HW2 2179   1.596   2.071   2.330 -1.3010 -0.0901  0.3699
  545SOL     MW 2180   1.523   2.110   2.330  0.3843 -0.4563  0.1153
  546SOL     OW 2181   2.904   1.969   0.143  0.5351  0.0716  0.2652
  546SOL    HW1 2182   2.869   2.036   0.080  0.5957  1.1543  0.4042
  546SOL    HW2 2183   2.989   1.963   0.100  0.8238 -0.4809  2.1354
  546SOL     MW 2184   2.911   1.977   0.129  0.5812  0.1416  0.5303
  547SOL     OW 2185   0.199   0.066   0.097 -0.1387 -0.5589 -0.1792
  547SOL    HW1 2186   0.273   0.082   0.033 -0.3859  1.7406 -1.6309
  547SOL    HW2 2187   0.132   0.021   0.050 -1.1954  0.6226 -2.7751
  547SOL     MW 2188   0.200   0.062   0.082 -0.3108 -0.0996 -0.7132
  548SOL     OW 2189   0.372   2.570   0.256  0.1573  0.2812 -0.2879
  548SOL    HW1 2190   0.322   2.584   0.175 -2.5255  1.0994 -0.0835
  548SOL    HW2 2191   0.350   2.485   0.286  0.7526  3.6277  1.2078
  548SOL     MW 2192   0.363   2.561   0.250 -0.1181  0.8307 -0.0636
  549SOL     OW 2193   0.840   1.930   2.127 -0.0394 -0.2218  0.3494
  549SOL    HW1 2194   0.790   2.007   2.127  2.2386  1.3839 -0.1573
  549SOL    HW2 2195   0.832   1.892   2.215  1.6840 -1.7303  0.3789
  549SOL     MW 2196   0.832   1.935   2.138  0.4886 -0.2090  0.2865
  550SOL     OW 2197   1.810   1.628   2.524 -1.2101 -0.2275  0.0831
  550SOL    HW1 2198   1.807   1.617   2.429  1.4181 -3.9271  3.4106
  550SOL    HW2 2199   1.809   1.722   2.542  0.3963 -2.7054  2.0815
  550SOL     MW 2200   1.809   1.639   2.514 -0.6514 -1.0426  0.7858
  551SOL     OW 2201   0.920   2.227   0.194 -0.4908  0.0022  0.2385
  551SOL    HW1 2202   1.014   2.253   0.198  2.4663  0.6364 -2.0701
  551SOL    HW2 2203   0.917   2.153   0.132  2.6469  2.3081  1.9894
  551SOL     MW 2204   0.932   2.221   0.187  0.3133  0.3901  0.1649
  552SOL     OW 2205   1.761   1.733   2.248  0.1052 -0.2251 -0.3198
  552SOL    HW1 2206   1.681   1.683   2.263 -0.8586 -3.9699 -2.9541
  552SOL    HW2 2207   1.807   1.676   2.188 -3.9816 -1.0361  1.5881
  552SOL     MW 2208   1.757   1.719   2.242 -0.5612 -0.8262 -0.4156
  553SOL     OW 2209   1.241   2.300   1.577  0.4450  0.2300  0.1617
  553SOL    HW1 2210   1.299   2.227   1.597 -0.9932  1.5486 -1.6095
  553SOL    HW2 2211   1.291   2.368   1.534 -2.7063 -2.2884  1.0591
  553SOL     MW 2212   1.255   2.299   1.574 -0.1606  0.0717  0.0464
  554SOL     OW 2213   0.510   2.974   2.685 -0.1784  0.0902 -0.2749
  554SOL    HW1 2214   0.472   3.032   2.620  0.4539  1.2684 -1.3501
  554SOL    HW2 2215   0.594   2.940   2.648  0.5446  0.5136  0.2808
  554SOL     MW 2216   0.516   2.977   2.671  0.0004  0.3015 -0.3434
  555SOL     OW 2217   0.635   2.524   2.622  0.3972  0.2079  0.1633
  555SOL    HW1 2218   0.589   2.438   2.614 -0.8142 -2.3150  1.6058
  555SOL    HW2 2219   0.715   2.525   2.561  2.1198 -0.8347 -0.2823
  555SOL     MW 2220   0.639   2.513   2.613  0.4646 -0.2625  0.2948
  556SOL     OW 2221   1.063   1.844   0.044 -0.5074 -0.4405  0.1322
  556SOL    HW1 2222   1.064   1.797  -0.038 -2.3775 -1.3095  0.6683
  556SOL    HW2 2223   1.142   1.831   0.101  1.2131 -0.1503  0.3233
  556SOL     MW 2224   1.074   1.836   0.040 -0.5271 -0.5169  0.2281
  557SOL     OW 2225   1.041   2.722   0.581 -0.6395 -0.1317  0.3855
  557SOL    HW1 2226   1.092   2.661   0.531  2.7950  1.3230 -0.6107
  557SOL    HW2 2227   1.016   2.786   0.516  3.7325 -1.1631  1.8616
  557SOL     MW 2228   1.044   2.722   0.566  0.3905 -0.0759  0.4489
  558SOL     OW 2229   0.222   2.227   3.024 -0.2314 -0.0950 -0.5878
  558SOL    HW1 2230   0.312   2.191   3.031  1.1330  2.3300  0.3970
  558SOL    HW2 2231   0.180   2.244   3.113 -3.0260  0.4492  3.0856
  558SOL     MW 2232   0.228   2.225   3.036 -0.4201  0.2968  0.0268
  559SOL     OW 2233   1.058   2.303   2.251 -0.1816 -0.4543  0.1742
  559SOL    HW1 2234   1.150   2.321   2.271 -1.8301 -0.2767 -0.6863
  559SOL    HW2 2235   1.050   2.210   2.241  1.4199  0.8591 -1.3842
  559SOL     MW 2236   1.069   2.293   2.252 -0.1878 -0.2576 -0.1449
  560SOL     OW 2237   2.171   2.670   0.147  0.0223  0.1006 -0.3746
  560SOL    HW1 2238   2.214   2.740   0.103  2.1107 -1.5191 -0.5201
  560SOL    HW2 2239   2.094   2.645   0.091 -0.5534  0.4104  0.4325
  560SOL     MW 2240   2.166   2.676   0.134  0.2219 -0.0722 -0.2873
  561SOL     OW 2241   0.486   2.204   0.178  0.0285  0.1705 -0.3548
  561SOL    HW1 2242   0.457   2.230   0.091 -0.6358 -1.1368 -0.0130
  561SOL    HW2 2243   0.534   2.282   0.207  0.5011  0.3962 -1.5700
  561SOL     MW 2244   0.488   2.217   0.171  0.0032  0.0278 -0.4700
  562SOL     OW 2245   0.657   2.313   2.362  0.1930  0.7523 -0.2053
  562SOL    HW1 2246   0.607   2.371   2.305 -2.1809 -2.1701  4.1816
  562SOL    HW2 2247   0.736   2.350   2.399  0.4145  0.1849  2.3557
  562SOL     MW 2248   0.661   2.326   2.359 -0.0910  0.2919  0.7114
  563SOL     OW 2249   1.266   0.405   0.577 -0.0046 -0.2946 -0.2192
  563SOL    HW1 2250   1.202   0.343   0.531  0.2949  0.9328 -1.4154
  563SOL    HW2 2251   1.279   0.362   0.661  2.1980 -1.1411  3.0941
  563SOL     MW 2252   1.259   0.391   0.582  0.3255 -0.2443  0.0601
  564SOL     OW 2253   0.999   2.708   2.331  0.3593  1.0015  0.3504
  564SOL    HW1 2254   1.034   2.767   2.270 -2.3672  0.0130  1.8839
  564SOL    HW2 2255   1.033   2.727   2.421 -2.2864 -0.6362 -2.8471
  564SOL     MW 2256   1.008   2.718   2.335 -0.3495  0.6550  0.1308
  565SOL     OW 2257   2.749   2.805   2.624 -0.0737 -0.0736 -0.1145
  565SOL    HW1 2258   2.753   2.888   2.576  1.4004 -1.1682 -3.2868
  565SOL    HW2 2259   2.741   2.741   2.561  1.3625  3.3893  1.3174
  565SOL     MW 2260   2.748   2.808   2.610  0.3103  0.2388 -0.3441
  566SOL     OW 2261   2.182   1.934   2.381  0.3346 -0.1636  0.0848
  566SOL    HW1 2262   2.175   1.901   2.289  1.0610 -3.0605 -2.3907
  566SOL    HW2 2263   2.236   2.008   2.365 -3.1179 -1.3262  0.0770
  566SOL     MW 2264   2.188   1.939   2.367 -0.0250 -0.6992 -0.2429
  567SOL     OW 2265   1.168   3.054   0.004 -0.1943 -0.5410 -0.0073
  567SOL    HW1 2266   1.153   3.065   0.097  0.0496  0.5626 -1.4197
  567SOL    HW2 2267   1.241   2.987  -0.003  2.9042  2.6876  2.1287
  567SOL     MW 2268   1.176   3.047   0.015  0.2467  0.0306  0.0882
  568SOL     OW 2269   1.655   2.033   2.857 -0.4617  0.1106  0.1892
  568SOL    HW1 2270   1.710   2.079   2.917  0.7057  0.2096  1.3031
  568SOL    HW2 2271   1.710   2.012   2.781  1.2064  0.5249  0.4434
  568SOL     MW 2272   1.669   2.036   2.855 -0.0876  0.1783  0.3697
  569SOL     OW 2273   0.127   2.243   2.430 -0.1851 -0.0231 -0.5696
  569SOL    HW1 2274   0.078   2.300   2.375  0.3280 -1.9800  0.6834
  569SOL    HW2 2275   0.179   2.301   2.488  0.7170  2.5894 -1.7945
  569SOL     MW 2276   0.127   2.258   2.430  0.0017  0.0634 -0.5659
  570SOL     OW 2277   1.492   0.302   0.456  0.4007  0.4428  0.2551
  570SOL    HW1 2278   1.411   0.349   0.489 -0.5770 -1.3753  1.5858
  570SOL    HW2 2279   1.565   0.334   0.517 -0.1608 -1.9633 -2.1708
  570SOL     MW 2280   1.491   0.312   0.468  0.1976 -0.1146  0.1106
  571SOL     OW 2281   1.351   2.368   2.135 -0.1230 -0.3459 -0.1152
  571SOL    HW1 2282   1.386   2.371   2.226 -2.1909 -1.3923  1.5013
  571SOL    HW2 2283   1.424   2.321   2.084  2.1410  4.0304 -0.4848
  571SOL     MW 2284   1.365   2.363   2.141 -0.0972  0.0935  0.0493
  572SOL     OW 2285   1.110   2.596   0.102 -0.2990  0.1773  0.2865
  572SOL    HW1 2286   1.086   2.678   0.077 -0.1026 -3.3108  1.0074
  572SOL    HW2 2287   1.017   2.554   0.115  1.1200 -2.3450 -1.5944
  572SOL     MW 2288   1.095   2.602   0.100 -0.0858 -0.6157  0.1334
  573SOL     OW 2289   1.206   2.299   0.286  0.2186  0.1324  0.4265
  573SOL    HW1 2290   1.278   2.323   0.226  0.5398 -0.3272 -1.9356
  573SOL    HW2 2291   1.193   2.385   0.331 -1.8457  1.4585  0.4289
  573SOL     MW 2292   1.214   2.314   0.284 -0.0114  0.2467  0.1152
  574SOL     OW 2293   1.153   2.571   0.378  0.4186  0.4339 -0.1185
  574SOL    HW1 2294   1.233   2.625   0.374  1.4227 -0.6516 -1.1932
  574SOL    HW2 2295   1.123   2.582   0.292  0.1156  0.6396  0.8153
  574SOL     MW 2296   1.160   2.580   0.366  0.5111  0.3178 -0.1371
  575SOL     OW 2297   3.078   2.217   1.638  0.1768  0.2812  1.0808
  575SOL    HW1 2298   3.113   2.137   1.595  0.2807  0.6674 -0.3783
  575SOL    HW2 2299   3.152   2.268   1.679  0.4588  0.8731  0.5664
  575SOL     MW 2300   3.092   2.213   1.638  0.2277  0.4102  0.8204
  576SOL     OW 2301   2.927   1.868   1.921 -0.0139 -0.4766 -0.2703
  576SOL    HW1 2302   2.907   1.955   1.892 -0.0606 -0.3023  0.0786
  576SOL    HW2 2303   2.855   1.829   1.865  0.2769 -0.5929 -2.4818
  576SOL     MW 2304   2.915   1.874   1.910  0.0183 -0.4690 -0.5160
  577SOL     OW 2305   2.142   0.156   0.027  0.2764  0.4074  0.4099
  577SOL    HW1 2306   2.100   0.158  -0.060  1.4434 -0.5485  1.2450
  577SOL    HW2 2307   2.089   0.094   0.079 -0.3598 -1.6463  2.0975
  577SOL     MW 2308   2.130   0.148   0.022  0.3465  0.0103  0.7427
  578SOL     OW 2309   1.984   2.122   2.342  0.2131  0.0508  0.4596
  578SOL    HW1 2310   1.898   2.079   2.322 -0.6550 -1.7749  0.0331
  578SOL    HW2 2311   2.051   2.047   2.367  1.1298 -1.0562  1.8284
  578SOL     MW 2312   1.982   2.107   2.343  0.2195 -0.3361  0.5839
  579SOL     OW 2313   0.858   2.502   2.479  0.1393 -0.4651 -0.4460
  579SOL    HW1 2314   0.896   2.427   2.515  0.7024 -1.0639 -2.3965
  579SOL    HW2 2315   0.928   2.551   2.437  0.6583 -2.0958  1.3058
  579SOL     MW 2316   0.872   2.499   2.478  0.2821 -0.7592 -0.4722
  580SOL     OW 2317   0.998   2.833   3.093  0.0333 -0.5522  0.0602
  580SOL    HW1 2318   1.026   2.925   3.111  4.4436 -0.6485 -1.6181
  580SOL    HW2 2319   0.920   2.826   3.021  1.6254  1.6943 -3.2581
  580SOL     MW 2320   0.992   2.844   3.086  0.8252 -0.2685 -0.5991
  581SOL     OW 2321   1.097   2.470   1.778 -0.1841  0.3946 -0.4056
  581SOL    HW1 2322   1.168   2.498   1.842  1.5361 -2.1013  0.0313
  581SOL    HW2 2323   1.142   2.405   1.726 -1.5605 -0.5404 -1.1639
  581SOL     MW 2324   1.112   2.465   1.780 -0.1388 -0.0581 -0.4480
  582SOL     OW 2325   0.008   2.964   2.661 -0.2064 -0.1977 -0.3250
  582SOL    HW1 2326  -0.069   2.952   2.715 -0.8178 -2.3256  3.0398
  582SOL    HW2 2327   0.084   2.934   2.713 -1.0884  3.1203 -0.4538
  582SOL     MW 2328   0.008   2.959   2.675 -0.4035 -0.0407  0.1019
  583SOL     OW 2329   1.926   2.397   2.667  0.5834  0.1797  0.5314
  583SOL    HW1 2330   1.999   2.419   2.609  0.0499  0.9735 -1.0680
  583SOL    HW2 2331   1.924   2.299   2.660  1.3931 -2.1481  1.0588
  583SOL     MW 2332   1.935   2.387   2.659  0.6199 -0.0227  0.3900
  584SOL     OW 2333   0.188   1.888   2.193  0.0063 -0.2115 -0.5085
  584SOL    HW1 2334   0.165   1.875   2.288  0.1461  2.2153  1.7636
  584SOL    HW2 2335   0.273   1.931   2.206 -1.4552 -4.3815  1.7535
  584SOL     MW 2336   0.196   1.892   2.207 -0.1681 -0.4415  0.0898
  585SOL     OW 2337   1.530   2.673   0.161 -0.1278 -0.5772  0.0103
  585SOL    HW1 2338   1.482   2.641   0.082  0.2078 -2.2592  0.8693
  585SOL    HW2 2339   1.463   2.703   0.227  1.1308 -2.6871 -1.4265
  585SOL     MW 2340   1.515   2.673   0.159  0.0825 -1.0775 -0.0660
  586SOL     OW 2341   1.349   2.775   2.582  0.1849 -0.4239  0.0931
  586SOL    HW1 2342   1.394   2.765   2.496 -2.4074  2.7104  2.2039
  586SOL    HW2 2343   1.346   2.873   2.590 -1.2190  0.1160  1.6533
  586SOL     MW 2344   1.355   2.787   2.572 -0.3424  0.0609  0.5775
  587SOL     OW 2345   1.283   1.473   2.152 -1.0041  0.6716 -0.0050
  587SOL    HW1 2346   1.280   1.382   2.174  2.1092  1.2994  0.7261
  587SOL    HW2 2347   1.250   1.483   2.065  0.4578  1.1790  1.7987
  587SOL     MW 2348   1.278   1.462   2.143 -0.4004  0.8214  0.3294
  588SOL     OW 2349   1.318   2.033   2.682 -0.2156  0.3097 -0.4813
  588SOL    HW1 2350   1.323   1.939   2.696 -2.3468 -0.8445 -0.2573
  588SOL    HW2 2351   1.268   2.073   2.756 -2.1721  0.4280 -2.5215
  588SOL     MW 2352   1.312   2.026   2.693 -0.7550  0.1730 -0.7209
  589SOL     OW 2353   1.359   2.045   0.027  0.6091  0.6882  0.4043
  589SOL    HW1 2354   1.381   2.139   0.044 -2.1555  0.3982 -3.3604
  589SOL    HW2 2355   1.323   2.011   0.110  0.6944 -0.4374  2.8051
  589SOL     MW 2356   1.357   2.053   0.040  0.2556  0.5015  0.2243
  590SOL     OW 2357   0.481   2.654   2.230 -0.3094  0.4913  0.6414
  590SOL    HW1 2358   0.438   2.692   2.143 -1.1637 -0.0667 -2.4476
  590SOL    HW2 2359   0.572   2.694   2.246  0.1347  0.3049  1.7180
  590SOL     MW 2360   0.487   2.664   2.220 -0.3635  0.3931  0.3759
  591SOL     OW 2361   2.198   0.683   0.159 -0.3343  0.5013  0.3353
  591SOL    HW1 2362   2.136   0.719   0.223  1.1158 -1.6201 -0.5889
  591SOL    HW2 2363   2.162   0.726   0.082  3.4609  1.1322  0.2202
  591SOL     MW 2364   2.185   0.694   0.157  0.3578  0.3047  0.1982
  592SOL     OW 2365   1.639   2.899   0.742 -0.2857  0.1180 -0.7614
  592SOL    HW1 2366   1.591   2.982   0.761 -1.4557 -0.0801 -0.7690
  592SOL    HW2 2367   1.717   2.897   0.795 -0.8955  0.0898  1.9260
  592SOL     MW 2368   1.643   2.909   0.751 -0.5205  0.0881 -0.4079
  593SOL     OW 2369   1.936   0.730   0.724 -0.1358  0.6869 -0.5784
  593SOL    HW1 2370   1.873   0.726   0.646  1.1569 -1.8438 -0.9666
  593SOL    HW2 2371   1.988   0.653   0.709  1.5836  1.6575  0.3263
  593SOL     MW 2372   1.934   0.720   0.712  0.2616  0.4811 -0.5102
  594SOL     OW 2373   2.822   1.042   1.350  0.0791  0.3605  0.2371
  594SOL    HW1 2374   2.904   1.098   1.333  1.4178  2.2638 -0.9889
  594SOL    HW2 2375   2.764   1.046   1.272 -1.3271  4.2688 -2.3370
  594SOL     MW 2376   2.825   1.050   1.338  0.0702  1.1273 -0.2643
  595SOL     OW 2377   0.546   0.948   0.850  0.1658 -0.0073 -0.2215
  595SOL    HW1 2378   0.514   1.011   0.780  0.6096  1.2374  1.0540
  595SOL    HW2 2379   0.608   1.004   0.907 -0.6180 -1.3137 -0.5487
  595SOL     MW 2380   0.550   0.963   0.848  0.1209 -0.0154 -0.0964
  596SOL     OW 2381   2.450   1.357   0.490 -0.0305 -0.1350  0.1920
  596SOL    HW1 2382   2.453   1.437   0.441  2.5798 -1.6852  2.5053
  596SOL    HW2 2383   2.500   1.390   0.564 -0.9552  0.5847  0.9435
  596SOL     MW 2384   2.457   1.372   0.493  0.1919 -0.2446  0.5964
  597SOL     OW 2385   2.228   0.658   1.601 -0.0439  0.7865  1.1448
  597SOL    HW1 2386   2.250   0.599   1.676  0.9761  0.3108  2.4206
  597SOL    HW2 2387   2.169   0.605   1.537  2.9278  2.8577  1.4197
  597SOL     MW 2388   2.223   0.643   1.603  0.4828  0.9970  1.3494
  598SOL     OW 2389   2.583   1.018   2.879 -0.0566 -0.2874 -0.3338
  598SOL    HW1 2390   2.572   0.929   2.909  0.1004 -0.0088 -0.8679
  598SOL    HW2 2391   2.672   1.049   2.882  0.5593 -2.0216 -3.3016
  598SOL     MW 2392   2.593   1.011   2.883  0.0454 -0.4795 -0.7959
  599SOL     OW 2393   3.024   0.503   2.244 -0.9492  0.5560 -0.6679
  599SOL    HW1 2394   3.099   0.551   2.280  2.6467  0.9928  0.7940
  599SOL    HW2 2395   3.024   0.515   2.141  0.1206  0.4720 -0.6624
  599SOL     MW 2396   3.034   0.511   2.235 -0.3336  0.6025 -0.4743
  600SOL     OW 2397   1.832   1.699   0.829 -0.0147 -0.3783 -0.4784
  600SOL    HW1 2398   1.865   1.736   0.914  1.1974  0.2577 -1.1708
  600SOL    HW2 2399   1.751   1.745   0.809  0.9769 -1.2419 -0.4958
  600SOL     MW 2400   1.826   1.710   0.838  0.2761 -0.4083 -0.5720
  601SOL     OW 2401   2.538   0.764   0.862 -0.0528 -0.2405 -0.2436
  601SOL    HW1 2402   2.545   0.749   0.960  0.5467  2.2963 -2.2083
  601SOL    HW2 2403   2.484   0.692   0.822 -1.2871  0.5045 -1.9559
  601SOL     MW 2404   2.532   0.752   0.870 -0.1366  0.1925 -0.7288
  602SOL     OW 2405   2.250   1.934   0.768 -0.3793  0.7735  0.1011
  602SOL    HW1 2406   2.193   1.860   0.734 -2.3894 -0.9808 -0.0095
  602SOL    HW2 2407   2.211   2.018   0.727  3.5412 -1.4047 -1.2758
  602SOL     MW 2408   2.238   1.936   0.758 -0.1273  0.2547 -0.0951
  603SOL     OW 2409   3.008   1.358   1.969  0.5870 -0.5377  0.3586
  603SOL    HW1 2410   2.983   1.401   2.048  0.1928  1.3228  0.9385
  603SOL    HW2 2411   3.066   1.284   1.997  2.7886 -2.7019  2.6021
  603SOL     MW 2412   3.012   1.354   1.983  0.8255 -0.5778  0.7311
  604SOL     OW 2413   2.024   1.385   0.346 -0.2722 -0.1369 -0.6374
  604SOL    HW1 2414   2.071   1.313   0.388 -2.5612 -0.0858  1.7755
  604SOL    HW2 2415   1.965   1.419   0.413  0.6399 -0.4553 -0.1071
  604SOL     MW 2416   2.022   1.380   0.360 -0.4539 -0.1722 -0.2491
  605SOL     OW 2417   2.434   1.451   0.789 -0.0527 -0.1760 -0.3205
  605SOL    HW1 2418   2.458   1.510   0.719  0.7416 -0.5906  0.1293
  605SOL    HW2 2419   2.493   1.375   0.783  0.4174 -0.6212 -1.4379
  605SOL     MW 2420   2.445   1.449   0.779  0.1141 -0.2894 -0.4086
  606SOL     OW 2421   2.688   1.770   1.781 -0.0437  0.3481  0.0125
  606SOL    HW1 2422   2.612   1.801   1.825 -2.1280 -1.4313 -3.3666
  606SOL    HW2 2423   2.668   1.681   1.774  2.2559  2.7251 -1.2085
  606SOL     MW 2424   2.675   1.762   1.786 -0.0153  0.4270 -0.5944
  607SOL     OW 2425   2.397   0.997   3.079  0.2502  0.0574  0.3759
  607SOL    HW1 2426   2.478   1.032   3.031 -0.8506  2.4786 -1.7007
  607SOL    HW2 2427   2.415   0.992   3.173 -3.0819  4.1493 -1.3133
  607SOL     MW 2428   2.410   1.001   3.085 -0.3346  0.9167 -0.1210
  608SOL     OW 2429   1.912   0.258   0.466  0.2441 -0.0670 -0.5685
  608SOL    HW1 2430   1.922   0.300   0.374  0.8217 -0.6074 -0.2232
  608SOL    HW2 2431   1.896   0.161   0.461  1.0421 -0.2836 -2.4632
  608SOL     MW 2432   1.911   0.250   0.453  0.4256 -0.1669 -0.7729
  609SOL     OW 2433   2.107   1.887   3.086 -0.5122 -0.0456  0.1472
  609SOL    HW1 2434   2.036   1.830   3.049 -0.2818  1.2459 -0.9397
  609SOL    HW2 2435   2.111   1.864   3.178  0.8101  0.9365 -0.5125
  609SOL     MW 2436   2.098   1.877   3.093 -0.3074  0.2544 -0.0832
  610SOL     OW 2437   1.802   0.974   1.224 -0.2300  0.3511  0.6434
  610SOL    HW1 2438   1.831   0.897   1.174  0.2301 -1.8774 -2.1427
  610SOL    HW2 2439   1.703   0.992   1.204 -2.1497  0.2994  0.9703
  610SOL     MW 2440   1.793   0.966   1.215 -0.4226  0.0502  0.3189
  611SOL     OW 2441   2.479   1.645   0.588  0.0730  0.3565 -0.4311
  611SOL    HW1 2442   2.462   1.634   0.492  0.1240  2.7561 -1.1697
  611SOL    HW2 2443   2.482   1.739   0.603  2.0590  2.6078  1.2107
  611SOL     MW 2444   2.477   1.656   0.577  0.3418  0.9702 -0.3119
  612SOL     OW 2445   2.888   2.864   0.400  0.4491 -0.4849  0.5131
  612SOL    HW1 2446   2.923   2.913   0.474  0.2738 -1.0268 -2.9462
  612SOL    HW2 2447   2.974   2.849   0.354 -1.0773 -1.3414 -1.4719
  612SOL     MW 2448   2.904   2.868   0.404  0.2246 -0.6694 -0.2052
  613SOL     OW 2449   1.430   1.128   0.959  0.5505  0.4531 -0.7503
  613SOL    HW1 2450   1.439   1.222   0.959 -1.5520  0.5077  1.4026
  613SOL    HW2 2451   1.461   1.102   1.051  0.6221  2.4309 -0.1340
  613SOL     MW 2452   1.435   1.137   0.971  0.2825  0.7212 -0.3849
  614SOL     OW 2453   2.066   0.483   1.444 -0.1869  0.2355 -0.1513
  614SOL    HW1 2454   2.047   0.439   1.526  1.3919  1.5297 -0.3485
  614SOL    HW2 2455   1.984   0.537   1.416 -0.7902  0.5512 -1.9049
  614SOL     MW 2456   2.052   0.484   1.451 -0.0582  0.4479 -0.4087
  615SOL     OW 2457   2.398   0.727   0.327  0.4198 -0.3700  0.2922
  615SOL    HW1 2458   2.483   0.682   0.340 -0.9829  2.3093  1.3955
  615SOL    HW2 2459   2.345   0.694   0.255 -1.5841  2.7562  0.2170
  615SOL     MW 2460   2.403   0.717   0.319 -0.0296  0.3960  0.4279
  616SOL     OW 2461   2.581   0.387   1.648 -0.1715 -0.4268  0.0252
  616SOL    HW1 2462   2.575   0.313   1.586  0.1045  2.6893 -1.0078
  616SOL    HW2 2463   2.567   0.460   1.585  0.9614 -0.0838 -0.0183
  616SOL     MW 2464   2.579   0.387   1.632  0.0144  0.0296 -0.1168
  617SOL     OW 2465   2.805   0.568   1.839 -0.2690 -0.1890 -0.3799
  617SOL    HW1 2466   2.716   0.548   1.871  0.9582  1.9773 -0.8186
  617SOL    HW2 2467   2.844   0.482   1.800 -0.0484  1.0530  0.8966
  617SOL     MW 2468   2.799   0.554   1.838 -0.0780  0.2607 -0.2693
  618SOL     OW 2469   2.811   0.220   1.998  0.0090 -0.9782 -0.4525
  618SOL    HW1 2470   2.742   0.277   2.037  1.6718 -0.2623 -0.4775
  618SOL    HW2 2471   2.896   0.238   2.045 -1.0400  1.6226  1.2303
  618SOL     MW 2472   2.813   0.230   2.010  0.0900 -0.5406 -0.2338
  619SOL     OW 2473   2.726   0.735   0.061 -0.0500 -0.2301 -0.3804
  619SOL    HW1 2474   2.773   0.814   0.042  1.5498 -1.3497 -0.6040
  619SOL    HW2 2475   2.787   0.692   0.123 -1.5066  1.5032 -0.0015
  619SOL     MW 2476   2.741   0.740   0.066 -0.0311 -0.1491 -0.3599
  620SOL     OW 2477   2.227   1.014   0.912  0.1124  0.0314 -0.0619
  620SOL    HW1 2478   2.319   1.001   0.884 -0.5958  0.7456  0.0826
  620SOL    HW2 2479   2.176   0.987   0.837  0.4015 -1.1554  0.7525
  620SOL     MW 2480   2.233   1.009   0.898  0.0571 -0.0310  0.0646
  621SOL     OW 2481   1.518   2.195   1.967 -0.0191 -0.6864  0.1398
  621SOL    HW1 2482   1.477   2.123   2.013  0.8190  2.3397 -0.2522
  621SOL    HW2 2483   1.611   2.185   1.987 -2.2357 -1.5461  1.6529
  621SOL     MW 2484   1.525   2.185   1.976 -0.2010 -0.4006  0.2877
  622SOL     OW 2485   2.651   0.274   0.201  0.2631  0.3200 -0.2317
  622SOL    HW1 2486   2.745   0.301   0.203 -2.2641 -1.6779 -1.8617
  622SOL    HW2 2487   2.655   0.177   0.183 -1.0377 -0.6117 -0.3977
  622SOL     MW 2488   2.664   0.265   0.199 -0.2420 -0.0666 -0.4687
  623SOL     OW 2489   2.336   2.780   0.800  0.1405  0.6044 -0.3985
  623SOL    HW1 2490   2.406   2.838   0.780 -0.1022 -0.6441  1.5490
  623SOL    HW2 2491   2.327   2.791   0.901  3.4218 -0.0432 -0.6063
  623SOL     MW 2492   2.344   2.789   0.811  0.5414  0.3542 -0.1689
  624SOL     OW 2493   2.137   1.582   3.020  0.1078 -0.1134 -0.3162
  624SOL    HW1 2494   2.087   1.499   3.008 -1.5871 -0.9750 -1.0624
  624SOL    HW2 2495   2.100   1.620   3.103  2.4718 -1.9258  0.9005
  624SOL     MW 2496   2.125   1.576   3.029  0.1961 -0.4662 -0.2541
  625SOL     OW 2497   2.145   1.941   1.034 -0.2358  0.3646  0.1819
  625SOL    HW1 2498   2.188   1.870   1.085 -1.1849  1.0976  2.4951
  625SOL    HW2 2499   2.201   1.946   0.958  0.3239  1.3644  0.2459
  625SOL     MW 2500   2.158   1.933   1.031 -0.2872  0.5932  0.4956
  626SOL     OW 2501   0.127   1.850   2.466 -0.4992 -0.2900  0.2663
  626SOL    HW1 2502   0.069   1.764   2.488 -0.2060 -2.8848 -1.5857
  626SOL    HW2 2503   0.065   1.919   2.501 -1.2938  2.6009  0.3521
  626SOL     MW 2504   0.111   1.848   2.473 -0.5654 -0.2510  0.0333
  627SOL     OW 2505   2.597   0.785   2.615  0.3388  0.2703 -0.1030
  627SOL    HW1 2506   2.515   0.842   2.618 -1.7017 -0.6511 -1.2477
  627SOL    HW2 2507   2.627   0.796   2.527  0.0730 -0.1726  0.5245
  627SOL     MW 2508   2.590   0.794   2.604  0.0345  0.0903 -0.1712
  628SOL     OW 2509   2.337   1.381   1.281 -0.3196 -0.5104 -0.4526
  628SOL    HW1 2510   2.290   1.312   1.236 -0.7058  1.9306 -1.1591
  628SOL    HW2 2511   2.427   1.372   1.249 -0.6536 -5.1440  0.9921
  628SOL     MW 2512   2.342   1.371   1.271 -0.4146 -0.7997 -0.3552
  629SOL     OW 2513   1.850   0.614   1.323  0.0524 -0.3717  0.1569
  629SOL    HW1 2514   1.891   0.630   1.237  0.3977 -0.0388  0.2358
  629SOL    HW2 2515   1.765   0.587   1.287  0.6775 -1.1666 -1.7688
  629SOL     MW 2516   1.844   0.612   1.307  0.1805 -0.4326 -0.0868
  630SOL     OW 2517   2.400   1.938   3.069 -0.4989  0.4044 -0.1672
  630SOL    HW1 2518   2.408   1.992   2.987 -0.7967  2.0576 -2.2894
  630SOL    HW2 2519   2.307   1.915   3.084  1.0744  0.7883  1.2813
  630SOL     MW 2520   2.389   1.942   3.060 -0.3306  0.6732 -0.2561
  631SOL     OW 2521   2.096   1.864   1.478 -0.1616  0.3365 -0.1533
  631SOL    HW1 2522   2.074   1.785   1.534 -0.7909  1.5567  0.8789
  631SOL    HW2 2523   2.019   1.917   1.479  0.8744  1.2196 -0.6220
  631SOL     MW 2524   2.083   1.860   1.486 -0.1080  0.6140 -0.0789
  632SOL     OW 2525   0.389   1.886   1.478  0.1185  0.4031  0.3716
  632SOL    HW1 2526   0.325   1.954   1.464  1.9074 -1.0833  0.5671
  632SOL    HW2 2527   0.332   1.804   1.499 -3.6672 -1.1332 -0.0564
  632SOL     MW 2528   0.373   1.884   1.479 -0.1449  0.0043  0.3410
  633SOL     OW 2529   2.619   0.563   0.365 -0.0920  0.7225  0.0036
  633SOL    HW1 2530   2.692   0.558   0.423  0.1071  0.9154 -2.1679
  633SOL    HW2 2531   2.590   0.474   0.337 -1.5954  1.3438  1.0324
  633SOL     MW 2532   2.624   0.550   0.369 -0.2641  0.8300 -0.1471
  634SOL     OW 2533   2.704   3.083   0.611  0.1425  0.4337  0.6379
  634SOL    HW1 2534   2.698   3.173   0.589 -0.7182 -1.2678  1.9116
  634SOL    HW2 2535   2.694   3.035   0.531 -0.7200  0.2604  0.6923
  634SOL     MW 2536   2.702   3.088   0.598 -0.0849  0.1864  0.8131
  635SOL     OW 2537   2.664   0.058   1.846  0.3789  0.6314 -0.2077
  635SOL    HW1 2538   2.714  -0.016   1.803 -1.4649  3.3882  0.3507
  635SOL    HW2 2539   2.723   0.104   1.904 -3.5855  1.5091 -0.6810
  635SOL     MW 2540   2.678   0.054   1.848 -0.3875  1.1109 -0.1965
  636SOL     OW 2541   2.691   1.642   0.753 -0.1303 -0.2537 -0.2871
  636SOL    HW1 2542   2.604   1.636   0.722  0.1822 -1.5798  1.9265
  636SOL    HW2 2543   2.693   1.736   0.769 -1.9009 -1.0259 -1.3317
  636SOL     MW 2544   2.680   1.653   0.751 -0.3227 -0.5305 -0.1329
  637SOL     OW 2545   2.930   1.439   0.716  0.5108 -0.2166 -0.2386
  637SOL    HW1 2546   2.992   1.502   0.754  0.3393  2.4229  1.0730
  637SOL    HW2 2547   2.842   1.475   0.731 -0.3527 -1.2157  0.4994
  637SOL     MW 2548   2.927   1.452   0.723  0.3742 -0.0001  0.0318
  638SOL     OW 2549   2.821   0.536   0.553  0.1158 -0.1982  0.2650
  638SOL    HW1 2550   2.894   0.581   0.510 -0.2756 -0.7387  2.6496
  638SOL    HW2 2551   2.835   0.568   0.642  1.4309  1.0375 -0.4728
  638SOL     MW 2552   2.833   0.546   0.559  0.2377 -0.1065  0.4823
  639SOL     OW 2553   1.826   3.082   0.534 -0.2252  0.0114 -0.2313
  639SOL    HW1 2554   1.728   3.058   0.541  0.4392  0.9117  0.1270
  639SOL    HW2 2555   1.882   3.006   0.527 -0.9042  0.0338 -1.9660
  639SOL     MW 2556   1.820   3.069   0.534 -0.2271  0.1331 -0.4129
  640SOL     OW 2557   0.286   1.449   0.117 -0.0613 -0.0716  0.6466
  640SOL    HW1 2558   0.356   1.438   0.054  1.7558 -1.8117  0.6690
  640SOL    HW2 2559   0.292   1.360   0.153  0.8218  2.0990  0.3126
  640SOL     MW 2560   0.296   1.436   0.114  0.2950 -0.0148  0.6055
  641SOL     OW 2561   2.311   0.364   0.390  0.3929 -0.0185 -0.2787
  641SOL    HW1 2562   2.318   0.316   0.305  1.1785  1.5171 -2.3188
  641SOL    HW2 2563   2.356   0.312   0.454  0.8044 -0.9724  0.4333
  641SOL     MW 2564   2.318   0.351   0.387  0.5508  0.0583 -0.4539
  642SOL     OW 2565   0.114   3.073   0.477  0.2377 -0.5463 -0.1896
  642SOL    HW1 2566   0.127   3.168   0.454  0.8823 -0.7516 -0.7113
  642SOL    HW2 2567   0.027   3.061   0.514  3.0777  0.1096  2.0278
  642SOL     MW 2568   0.104   3.084   0.479  0.6975 -0.4869  0.0341
  643SOL     OW 2569   2.133   0.356   1.673 -0.4018 -0.2175 -0.1434
  643SOL    HW1 2570   2.054   0.319   1.720 -0.2488 -0.8866  0.7645
  643SOL    HW2 2571   2.151   0.289   1.601  0.1274 -0.4745  0.5140
  643SOL     MW 2572   2.125   0.342   1.670 -0.3118 -0.3397  0.0631
  644SOL     OW 2573   2.700   1.911   0.947  0.0878 -0.3278 -0.0049
  644SOL    HW1 2574   2.688   1.882   1.034 -0.0491  0.3201 -1.8735
  644SOL    HW2 2575   2.616   1.966   0.944  1.4777  1.5937 -2.7369
  644SOL     MW 2576   2.687   1.915   0.958  0.2532  0.0112 -0.6119
  645SOL     OW 2577   2.822   0.992   0.774  0.5046 -0.2052  0.1410
  645SOL    HW1 2578   2.912   0.965   0.782  1.1407  0.5550  0.7902
  645SOL    HW2 2579   2.785   1.004   0.863 -1.8329  2.2858  1.0648
  645SOL     MW 2580   2.829   0.990   0.787  0.2801  0.2238  0.3486
  646SOL     OW 2581   0.123   2.276   0.860  0.0663  0.3145 -0.7443
  646SOL    HW1 2582   0.134   2.173   0.843 -0.6096 -4.1217 -0.6209
  646SOL    HW2 2583   0.067   2.304   0.783 -0.1131  0.5881 -2.1993
  646SOL     MW 2584   0.117   2.266   0.848 -0.0466 -0.2347 -0.9200
  647SOL     OW 2585   2.798   0.496   3.024  0.0710 -0.4869  0.1827
  647SOL    HW1 2586   2.721   0.443   3.048 -1.2288 -0.0809  3.7527
  647SOL    HW2 2587   2.787   0.587   3.050  1.2450  0.7582 -2.0740
  647SOL     MW 2588   2.787   0.501   3.030  0.0544 -0.2691  0.3560
  648SOL     OW 2589   2.121   0.634   1.118 -0.0716 -0.0578  0.1602
  648SOL    HW1 2590   2.174   0.571   1.172  1.3899 -1.9317 -1.4534
  648SOL    HW2 2591   2.124   0.721   1.162 -0.9931  1.0742  0.1330
  648SOL     MW 2592   2.128   0.637   1.131 -0.0003 -0.1557 -0.0563
  649SOL     OW 2593   2.419   2.688   1.312 -0.0371 -0.0287  0.2273
  649SOL    HW1 2594   2.514   2.705   1.324  1.0587  0.1884 -0.1903
  649SOL    HW2 2595   2.400   2.593   1.296 -2.0089  1.9769 -0.9677
  649SOL     MW 2596   2.429   2.677   1.311 -0.1527  0.2646  0.0145
  650SOL     OW 2597   2.717   0.246   0.511  0.3400  0.2738  0.4138
  650SOL    HW1 2598   2.789   0.311   0.500  0.0811  1.7107  0.4917
  650SOL    HW2 2599   2.728   0.181   0.440 -0.9268  0.1453  0.5819
  650SOL     MW 2600   2.728   0.246   0.500  0.1387  0.4464  0.4463
  651SOL     OW 2601   3.101   0.459   1.003 -0.2797  0.2574 -0.3111
  651SOL    HW1 2602   3.139   0.518   0.936  1.6947  0.9383  1.7248
  651SOL    HW2 2603   3.022   0.513   1.034 -1.1098 -0.1312  0.9648
  651SOL     MW 2604   3.096   0.474   0.998 -0.1287  0.2959  0.1258
  652SOL     OW 2605   2.317   1.433   2.908 -0.2193 -0.0501 -0.8681
  652SOL    HW1 2606   2.396   1.475   2.872  0.1433  0.4179  1.9708
  652SOL    HW2 2607   2.257   1.507   2.921  1.2095 -0.8681 -0.0042
  652SOL     MW 2608   2.319   1.448   2.905  0.0171 -0.0963 -0.3796
  653SOL     OW 2609   1.849   0.373   0.219 -0.0351 -0.1333 -0.2952
  653SOL    HW1 2610   1.822   0.288   0.183 -1.4080  1.1039  1.2598
  653SOL    HW2 2611   1.871   0.438   0.151 -1.6111 -0.6586 -0.1973
  653SOL     MW 2612   1.849   0.371   0.205 -0.4242 -0.0394 -0.0771
  654SOL     OW 2613   2.443   1.008   0.728  0.0135 -0.4911  0.3556
  654SOL    HW1 2614   2.414   0.977   0.647  4.1972  1.5982  0.5910
  654SOL    HW2 2615   2.474   0.930   0.782  0.2312 -0.3064 -2.3005
  654SOL     MW 2616   2.444   0.994   0.725  0.5942 -0.1911  0.0362
  655SOL     OW 2617   2.906   0.958   0.305  0.8111  0.2585  0.2528
  655SOL    HW1 2618   2.880   0.998   0.387 -1.5893 -2.8523 -0.0994
  655SOL    HW2 2619   2.965   0.890   0.333  0.2943  1.0158  0.4180
  655SOL     MW 2620   2.910   0.954   0.320  0.4262 -0.0520  0.2281
  656SOL     OW 2621   1.751   2.663   1.436 -0.6477  0.2413  0.3085
  656SOL    HW1 2622   1.815   2.732   1.437 -2.0304  0.6838 -0.7826
  656SOL    HW2 2623   1.793   2.587   1.397 -1.3154  0.9759  0.3432
  656SOL     MW 2624   1.765   2.662   1.431 -0.9183  0.3966  0.1691
  657SOL     OW 2625   0.088   1.779   1.114 -0.0557 -0.1311  0.3562
  657SOL    HW1 2626   0.170   1.819   1.120 -1.2562  0.1565  0.3335
  657SOL    HW2 2627   0.090   1.685   1.128 -2.0920  0.5041 -2.1446
  657SOL     MW 2628   0.099   1.772   1.117 -0.4828 -0.0093  0.0233
  658SOL     OW 2629   2.659   1.349   0.214 -0.4224  0.0067  0.2881
  658SOL    HW1 2630   2.648   1.271   0.267  3.0086 -1.0608 -1.4819
  658SOL    HW2 2631   2.683   1.419   0.277  0.2853 -0.8642 -3.2844
  658SOL     MW 2632   2.661   1.348   0.229  0.1236 -0.2490 -0.4168
  659SOL     OW 2633   2.099   1.391   1.043  0.3247 -0.0392  0.1781
  659SOL    HW1 2634   2.164   1.333   1.081 -0.7247  2.4131 -1.7969
  659SOL    HW2 2635   2.094   1.470   1.100  1.7522 -0.2927 -0.2428
  659SOL     MW 2636   2.107   1.394   1.056  0.3746  0.2509 -0.1380
  660SOL     OW 2637   2.082   1.614   1.608  0.1328  0.2862  0.1116
  660SOL    HW1 2638   2.113   1.627   1.698  0.2212  0.2324 -0.9029
  660SOL    HW2 2639   2.015   1.539   1.602 -0.7819 -1.4605 -0.5870
  660SOL     MW 2640   2.077   1.606   1.619  0.0238  0.0487 -0.1144
  661SOL     OW 2641   2.389   1.000   0.266 -0.6815 -0.3046  0.3313
  661SOL    HW1 2642   2.471   1.041   0.311 -0.9968  0.3454 -0.3569
  661SOL    HW2 2643   2.401   0.904   0.277 -1.5217  2.2648 -0.3739
  661SOL     MW 2644   2.402   0.993   0.273 -0.8340  0.1202  0.1475
  662SOL     OW 2645   2.512   2.997   0.791 -0.1331 -0.4371 -0.2288
  662SOL    HW1 2646   2.456   3.066   0.815 -2.5851 -1.4904  0.4648
  662SOL    HW2 2647   2.576   3.035   0.731 -3.2700  4.3073 -1.8201
  662SOL     MW 2648   2.513   3.011   0.786 -0.8705  0.0499 -0.3473
  663SOL     OW 2649   2.720   1.538   0.393  0.2614  0.0677  0.1518
  663SOL    HW1 2650   2.723   1.622   0.349 -0.3205 -1.4606  0.7307
  663SOL    HW2 2651   2.748   1.558   0.474  1.2149 -0.3545 -1.8541
  663SOL     MW 2652   2.724   1.552   0.398  0.3104 -0.1897 -0.0365
  664SOL     OW 2653   2.531   1.485   1.548 -0.0198  0.5133  0.1629
  664SOL    HW1 2654   2.482   1.552   1.503  0.6709  0.1979 -0.7539
  664SOL    HW2 2655   2.461   1.423   1.573 -0.4489  2.6103  2.7121
  664SOL     MW 2656   2.516   1.485   1.545  0.0147  0.7484  0.3783
  665SOL     OW 2657   2.876   0.760   2.146  0.2956 -0.2733  0.6678
  665SOL    HW1 2658   2.844   0.790   2.059  0.3454 -1.3997 -0.0026
  665SOL    HW2 2659   2.959   0.715   2.140  0.4120 -1.0361  1.9781
  665SOL     MW 2660   2.883   0.758   2.134  0.3175 -0.5225  0.7522
  666SOL     OW 2661   2.803   2.969   1.692 -0.1242 -0.1953 -0.3083
  666SOL    HW1 2662   2.770   2.989   1.603  1.2104 -1.6997 -0.3783
  666SOL    HW2 2663   2.756   2.884   1.719  0.1278 -2.8088 -0.5547
  666SOL     MW 2664   2.792   2.960   1.684  0.0852 -0.7386 -0.3500
  667SOL     OW 2665   2.008   2.702   1.736 -0.2893 -0.1634 -0.0260
  667SOL    HW1 2666   2.043   2.681   1.823 -0.7608  0.4083  1.8858
  667SOL    HW2 2667   2.067   2.774   1.715 -2.3133 -2.0018  1.6062
  667SOL     MW 2668   2.020   2.708   1.745 -0.6186 -0.3305  0.4416
  668SOL     OW 2669   2.783   0.610   0.818 -0.7318  0.4291 -0.2599
  668SOL    HW1 2670   2.827   0.603   0.901  0.2572  0.4502 -0.8894
  668SOL    HW2 2671   2.710   0.663   0.844  2.0298  1.0949  2.9820
  668SOL     MW 2672   2.779   0.616   0.832 -0.2369  0.5197  0.0847
  669SOL     OW 2673   0.188   1.011   0.674  0.3158  0.1596  0.0383
  669SOL    HW1 2674   0.170   1.009   0.770  1.4763 -1.5830  2.6028
  669SOL    HW2 2675   0.282   1.046   0.672 -1.1972 -1.2356  1.1902
  669SOL     MW 2676   0.198   1.015   0.687  0.2693 -0.2544  0.5287
  670SOL     OW 2677   2.906   0.337   0.256  0.0949 -0.3246 -0.3137
  670SOL    HW1 2678   2.933   0.276   0.189 -1.2496  2.0174  1.0691
  670SOL    HW2 2679   2.918   0.426   0.216 -2.0046  1.7810 -1.5674
  670SOL     MW 2680   2.911   0.341   0.242 -0.3595  0.2622 -0.2967
  671SOL     OW 2681   2.055   3.023   1.466  0.1916 -0.3087  0.6677
  671SOL    HW1 2682   1.990   2.992   1.399  1.8218 -0.7956  0.9644
  671SOL    HW2 2683   2.003   3.057   1.538 -1.2727  0.3158  0.6126
  671SOL     MW 2684   2.040   3.023   1.467  0.2135 -0.2906  0.6996
  672SOL     OW 2685   1.801   1.784   1.303 -0.4028  0.4182 -0.1041
  672SOL    HW1 2686   1.808   1.880   1.345 -1.9015  0.9185  0.6468
  672SOL    HW2 2687   1.803   1.803   1.211 -1.2983  1.6833  0.7986
  672SOL     MW 2688   1.802   1.799   1.296 -0.7187  0.6512  0.1141
  673SOL     OW 2689   2.824   1.087   0.524 -0.0291  0.1722 -0.5040
  673SOL    HW1 2690   2.803   1.044   0.603 -0.2837  0.5988  0.8117
  673SOL    HW2 2691   2.909   1.129   0.548  1.1973 -0.3897  1.0165
  673SOL     MW 2692   2.833   1.087   0.537  0.0991  0.1543 -0.1298
  674SOL     OW 2693   2.460   3.049   1.201  0.3601 -0.3268 -0.3488
  674SOL    HW1 2694   2.418   3.075   1.121  0.3853  0.1448 -0.2248
  674SOL    HW2 2695   2.489   2.959   1.189 -1.8426  0.6873  2.2251
  674SOL     MW 2696   2.459   3.041   1.189  0.0728 -0.1308  0.0072
  675SOL     OW 2697   2.986   0.844   1.061  0.1915 -0.4725 -0.9154
  675SOL    HW1 2698   3.031   0.856   1.145  2.4042 -1.2652 -1.5741
  675SOL    HW2 2699   3.046   0.888   0.998  2.5454  2.8343 -0.2666
  675SOL     MW 2700   3.000   0.851   1.064  0.7940 -0.1408 -0.9167
  676SOL     OW 2701   2.891   1.435   1.735  0.0991 -0.3423  0.0817
  676SOL    HW1 2702   2.881   1.349   1.694 -0.9671 -0.4547 -4.8685
  676SOL    HW2 2703   2.931   1.410   1.819 -0.0742  1.7639 -0.2504
  676SOL     MW 2704   2.895   1.420   1.740 -0.0645 -0.0793 -0.6152
  677SOL     OW 2705   2.477   0.717   1.876  0.6140 -0.1290 -0.3169
  677SOL    HW1 2706   2.425   0.641   1.849 -3.0880  3.6900 -0.2805
  677SOL    HW2 2707   2.411   0.775   1.913 -1.8610  0.1214 -0.1532
  677SOL     MW 2708   2.461   0.715   1.877 -0.2010  0.4079 -0.2905
  678SOL     OW 2709   2.371   1.567   0.326  0.1976 -0.3816  0.1663
  678SOL    HW1 2710   2.284   1.598   0.353  1.3588  2.2766 -3.2450
  678SOL    HW2 2711   2.357   1.516   0.242  0.6188 -0.7663 -1.0746
  678SOL     MW 2712   2.358   1.564   0.318  0.4064 -0.0816 -0.4475
  679SOL     OW 2713   2.276   0.446   1.270 -0.1353  0.8898 -0.5519
  679SOL    HW1 2714   2.267   0.367   1.218 -2.5742  0.1532 -0.9765
  679SOL    HW2 2715   2.204   0.451   1.333  0.9399 -0.9717  0.0442
  679SOL     MW 2716   2.265   0.436   1.272 -0.3152  0.5470 -0.5293
  680SOL     OW 2717   2.454   0.163   1.481 -0.6471  0.4689  0.3262
  680SOL    HW1 2718   2.365   0.184   1.466  2.1619 -1.0667  0.7936
  680SOL    HW2 2719   2.468   0.073   1.439 -0.6166  0.9127 -2.1496
  680SOL     MW 2720   2.444   0.154   1.474 -0.2724  0.3248  0.0612
  681SOL     OW 2721   0.228   0.579   1.452  0.3626  0.3291  0.0946
  681SOL    HW1 2722   0.201   0.494   1.483 -0.7856  0.0806  3.4384
  681SOL    HW2 2723   0.238   0.569   1.356 -0.4401 -0.9550 -2.5983
  681SOL     MW 2724   0.226   0.566   1.444  0.1052  0.1269  0.1805
  682SOL     OW 2725   3.049   2.857   1.531 -0.5182  0.0281  0.3709
  682SOL    HW1 2726   3.119   2.919   1.531 -0.7374 -3.8645 -0.6006
  682SOL    HW2 2727   2.968   2.878   1.579  0.4224 -0.2826 -4.1988
  682SOL     MW 2728   3.048   2.868   1.538 -0.4230 -0.5265 -0.3602
  683SOL     OW 2729   2.118   0.780   3.023  0.0053  0.5760 -0.0979
  683SOL    HW1 2730   2.044   0.719   3.043  1.5778 -0.5249 -1.5005
  683SOL    HW2 2731   2.096   0.875   3.032  1.3116  1.5962  1.5160
  683SOL     MW 2732   2.105   0.784   3.027  0.3851  0.5654 -0.0700
  684SOL     OW 2733   2.061   1.759   0.680  0.1448  0.4048  0.6477
  684SOL    HW1 2734   2.079   1.695   0.605 -1.9893 -0.3484  0.6295
  684SOL    HW2 2735   1.988   1.717   0.727 -0.0560 -1.7785 -1.0935
  684SOL     MW 2736   2.054   1.745   0.676 -0.1633  0.0174  0.4155
  685SOL     OW 2737   2.629   1.749   1.165 -0.2590 -0.0562  0.3320
  685SOL    HW1 2738   2.686   1.724   1.240 -2.2571  1.2902  2.7100
  685SOL    HW2 2739   2.622   1.669   1.117  1.9048 -1.4341 -2.0413
  685SOL     MW 2740   2.636   1.735   1.169 -0.2372 -0.0604  0.3326
  686SOL     OW 2741   2.816   0.643   1.545  0.3110  0.2839 -0.7933
  686SOL    HW1 2742   2.799   0.600   1.626 -1.1038  0.4344 -0.2135
  686SOL    HW2 2743   2.912   0.668   1.546  0.7361  0.9891  0.2579
  686SOL     MW 2744   2.826   0.641   1.556  0.1804  0.3968 -0.5781
  687SOL     OW 2745   2.152   0.199   1.088  0.5164  0.5436  0.0260
  687SOL    HW1 2746   2.234   0.188   1.050 -0.0798  0.3416 -1.3394
  687SOL    HW2 2747   2.092   0.252   1.033  0.1179  0.5450 -0.5610
  687SOL     MW 2748   2.155   0.204   1.075  0.3852  0.5171 -0.2316
  688SOL     OW 2749   2.474   0.597   1.481  0.3177 -0.1522  0.5999
  688SOL    HW1 2750   2.437   0.548   1.405  0.9135  1.1691 -0.6653
  688SOL    HW2 2751   2.393   0.626   1.526  0.0390 -0.7144  1.2796
  688SOL     MW 2752   2.459   0.594   1.477  0.3595 -0.0521  0.5226
  689SOL     OW 2753   2.498   0.742   3.009 -0.0490  0.2561  0.4100
  689SOL    HW1 2754   2.438   0.807   3.048  0.0108  0.9651 -1.4350
  689SOL    HW2 2755   2.567   0.741   3.077  2.4028 -0.3493  0.8041
  689SOL     MW 2756   2.499   0.750   3.023  0.2824  0.2698  0.2185
  690SOL     OW 2757   2.014   0.975   1.834 -0.1514  0.2441 -0.1270
  690SOL    HW1 2758   1.991   0.883   1.855  2.9181 -0.0352 -0.3453
  690SOL    HW2 2759   2.078   0.960   1.762  3.4828 -1.7376 -0.4969
  690SOL     MW 2760   2.020   0.961   1.828  0.7331 -0.0543 -0.2046
  691SOL     OW 2761   2.426   0.310   0.877  0.0438 -0.2009  0.1415
  691SOL    HW1 2762   2.514   0.323   0.911 -0.0821 -0.9969  2.4673
  691SOL    HW2 2763   2.395   0.387   0.830  0.1619 -2.1299  2.4650
  691SOL     MW 2764   2.434   0.322   0.875  0.0427 -0.5604  0.7549
  692SOL     OW 2765   2.757   1.636   1.390 -0.1773  0.2530 -0.5914
  692SOL    HW1 2766   2.726   1.578   1.456  0.5105  1.2647  0.3017
  692SOL    HW2 2767   2.800   1.711   1.430  0.4915 -2.1519  2.4839
  692SOL     MW 2768   2.758   1.638   1.404  0.0017  0.0692 -0.0679
  693SOL     OW 2769   2.239   0.450   3.092 -0.6873 -0.5721 -0.2893
  693SOL    HW1 2770   2.191   0.380   3.122 -0.7677 -1.6417 -2.0399
  693SOL    HW2 2771   2.242   0.512   3.163  0.4483 -1.7385  0.1068
  693SOL     MW 2772   2.233   0.449   3.105 -0.5481 -0.8671 -0.4680
  694SOL     OW 2773   1.957   1.192   1.189  0.4760 -0.1251 -0.1529
  694SOL    HW1 2774   2.044   1.173   1.148  3.3936 -0.1242  0.4904
  694SOL    HW2 2775   1.922   1.103   1.215 -0.0101 -1.2108  1.4837
  694SOL     MW 2776   1.964   1.178   1.187  0.7968 -0.2682  0.1479
  695SOL     OW 2777   2.934   1.434   1.292 -0.4645  0.3632  0.5883
  695SOL    HW1 2778   2.909   1.418   1.198 -2.0359 -0.7297  0.5092
  695SOL    HW2 2779   2.869   1.497   1.326  2.4606 -1.0823  1.2070
  695SOL     MW 2780   2.922   1.440   1.284 -0.2859  0.0283  0.6595
  696SOL     OW 2781   2.046   1.364   0.749 -0.0047 -0.8339  0.2405
  696SOL    HW1 2782   2.093   1.397   0.823 -0.2687 -0.2076  1.1745
  696SOL    HW2 2783   1.977   1.317   0.796 -2.3693  0.2326 -1.5307
  696SOL     MW 2784   2.043   1.362   0.765 -0.3515 -0.6105  0.1300
  697SOL     OW 2785   2.921   1.048   2.232  0.5707  0.1150  0.1424
  697SOL    HW1 2786   2.833   1.077   2.239  0.2453  0.8874  1.7680
  697SOL    HW2 2787   2.908   0.952   2.205 -1.8635 -1.4145  0.8793
  697SOL     MW 2788   2.908   1.039   2.229  0.2066  0.0151  0.4541
  698SOL     OW 2789   2.512   0.388   3.067 -0.4454 -0.5044  0.0025
  698SOL    HW1 2790   2.413   0.403   3.078  1.0534 -1.7160 -2.0090
  698SOL    HW2 2791   2.548   0.368   3.149 -1.0372  1.5734 -2.0052
  698SOL     MW 2792   2.504   0.387   3.079 -0.3258 -0.3901 -0.5278
  699SOL     OW 2793   1.864   1.569   1.996 -0.3258 -0.0237 -0.3881
  699SOL    HW1 2794   1.857   1.481   2.041  0.0411  0.2997  2.6967
  699SOL    HW2 2795   1.944   1.567   1.945 -0.8387 -0.0025 -1.1176
  699SOL     MW 2796   1.874   1.557   1.995 -0.3451  0.0218 -0.0774
  700SOL     OW 2797   2.707   0.895   1.590  0.3440  0.1288 -0.8563
  700SOL    HW1 2798   2.783   0.942   1.569  1.4027  0.5788  1.4928
  700SOL    HW2 2799   2.742   0.805   1.589 -0.6052 -1.5469 -0.1454
  700SOL     MW 2800   2.722   0.889   1.587  0.3584 -0.0329 -0.4526
  701SOL     OW 2801   1.634   1.070   2.584 -0.6643  0.0548  0.1734
  701SOL    HW1 2802   1.712   1.039   2.629 -0.2568 -1.6990  0.9696
  701SOL    HW2 2803   1.621   1.157   2.635 -0.5984 -3.2821  1.3826
  701SOL     MW 2804   1.643   1.077   2.597 -0.6019 -0.6169  0.4380
  702SOL     OW 2805   2.071   0.487   0.688  0.2329  0.2392  0.1345
  702SOL    HW1 2806   2.073   0.388   0.661 -0.9577  2.2307  1.4860
  702SOL    HW2 2807   2.133   0.527   0.619  0.1666 -0.0884 -0.1586
  702SOL     MW 2808   2.080   0.479   0.675  0.0671  0.4588  0.2741
  703SOL     OW 2809   2.693   1.256   0.993 -0.7319  0.1758 -0.1963
  703SOL    HW1 2810   2.684   1.247   0.897 -0.1726  1.3358 -1.3229
  703SOL    HW2 2811   2.699   1.168   1.042 -0.6401 -0.4846  0.1890
  703SOL     MW 2812   2.693   1.243   0.987 -0.6460  0.2417 -0.2941
  704SOL     OW 2813   3.056   1.287   0.167  0.2643 -0.1498  0.3657
  704SOL    HW1 2814   2.975   1.268   0.109  0.5725 -0.6492  0.1699
  704SOL    HW2 2815   3.032   1.279   0.260 -0.5823 -2.3699 -0.2573
  704SOL     MW 2816   3.042   1.284   0.172  0.1932 -0.5086  0.2577
  705SOL     OW 2817   2.048   1.611   1.300  0.0852 -0.0498  0.2306
  705SOL    HW1 2818   1.993   1.688   1.296  0.2755  1.6986 -3.7416
  705SOL    HW2 2819   2.085   1.606   1.389  2.8773 -0.9179 -0.6150
  705SOL     MW 2820   2.045   1.620   1.311  0.4787  0.0663 -0.4051
  706SOL     OW 2821   3.052   1.178   0.670  0.8351 -0.2739 -0.7472
  706SOL    HW1 2822   3.133   1.182   0.612  3.0399  2.0546 -2.1532
  706SOL    HW2 2823   3.006   1.263   0.662 -0.6909 -0.4146 -2.2537
  706SOL     MW 2824   3.057   1.190   0.661  0.9247  0.0147 -1.1315
  707SOL     OW 2825   2.329   0.050   0.945 -0.0592 -0.1755 -0.0606
  707SOL    HW1 2826   2.346   0.133   0.893 -1.4266  2.0343 -1.2230
  707SOL    HW2 2827   2.258   0.011   0.898  3.0213 -0.3599  0.9338
  707SOL     MW 2828   2.322   0.056   0.932  0.1668  0.0917 -0.0828
  708SOL     OW 2829   2.391   1.423   0.094 -0.1857  0.0543 -0.5273
  708SOL    HW1 2830   2.485   1.409   0.112 -0.3689 -0.0142 -2.5077
  708SOL    HW2 2831   2.376   1.442   0.002  0.0467 -0.7259  1.3493
  708SOL     MW 2832   2.401   1.424   0.084 -0.1792 -0.0577 -0.5410
  709SOL     OW 2833   1.693   1.595   0.224  0.2366 -0.7077  0.1835
  709SOL    HW1 2834   1.657   1.628   0.140 -0.1153 -0.4032 -0.6757
  709SOL    HW2 2835   1.619   1.589   0.289 -0.2668 -2.3971  0.5671
  709SOL     MW 2836   1.678   1.598   0.221  0.1238 -0.8904  0.1207
  710SOL     OW 2837   2.255   1.170   1.140  0.1427  0.1692 -0.9473
  710SOL    HW1 2838   2.223   1.121   1.062 -0.3493 -0.2229 -0.9384
  710SOL    HW2 2839   2.293   1.108   1.204 -0.8353 -2.4837 -0.7411
  710SOL     MW 2840   2.256   1.155   1.138 -0.0512 -0.2326 -0.9189
  711SOL     OW 2841   2.387   0.083   1.778  0.1898 -0.0639 -0.2530
  711SOL    HW1 2842   2.470   0.089   1.828  1.8580  1.4439 -2.5481
  711SOL    HW2 2843   2.398   0.115   1.686  1.9201 -1.6281 -1.5272
  711SOL     MW 2844   2.399   0.088   1.772  0.6382 -0.0713 -0.7240
  712SOL     OW 2845   1.889   0.619   3.086 -0.2556  0.1347 -0.0392
  712SOL    HW1 2846   1.844   0.655   3.010  2.0001 -0.5927  1.9981
  712SOL    HW2 2847   1.839   0.650   3.168  0.2453  0.1112  0.1946
  712SOL     MW 2848   1.877   0.628   3.087  0.1081  0.0356  0.2604
  713SOL     OW 2849   2.588   0.683   1.118  0.3568  0.0155 -0.3144
  713SOL    HW1 2850   2.601   0.586   1.131  0.5330 -0.3982 -0.7029
  713SOL    HW2 2851   2.561   0.711   1.206  0.9776 -0.2631  0.0131
  713SOL     MW 2852   2.586   0.674   1.132  0.4620 -0.0758 -0.3224
  714SOL     OW 2853   2.226   0.204   1.992 -0.3066 -0.1928 -0.3127
  714SOL    HW1 2854   2.270   0.142   2.046 -0.1935  0.2862 -0.6210
  714SOL    HW2 2855   2.257   0.194   1.904 -0.0587  0.9279  0.1066
  714SOL     MW 2856   2.236   0.195   1.988 -0.2590  0.0183 -0.2981
  715SOL     OW 2857   1.836   1.984   1.693  0.3235 -0.1465  0.0311
  715SOL    HW1 2858   1.930   2.003   1.722 -0.9653 -0.3254 -0.0323
  715SOL    HW2 2859   1.814   1.902   1.742 -1.3827 -0.8210  2.0093
  715SOL     MW 2860   1.845   1.976   1.704 -0.0716 -0.2591  0.2837
  716SOL     OW 2861   2.446   0.533   0.737 -0.1377  0.4156 -0.0540
  716SOL    HW1 2862   2.516   0.510   0.683 -0.1283  0.2449 -0.1858
  716SOL    HW2 2863   2.386   0.570   0.674 -0.6096  3.4395 -0.2777
  716SOL     MW 2864   2.448   0.535   0.722 -0.1987  0.7921 -0.1009
  717SOL     OW 2865   2.786   1.679   2.842 -0.0546  0.5937  0.1384
  717SOL    HW1 2866   2.862   1.631   2.883  2.9691 -1.6942  0.3125
  717SOL    HW2 2867   2.731   1.712   2.912 -0.0846 -2.9134 -2.5348
  717SOL     MW 2868   2.789   1.677   2.857  0.3404 -0.1709 -0.1914
  718SOL     OW 2869   2.637   1.311   1.308 -0.0169 -0.0906  0.4270
  718SOL    HW1 2870   2.640   1.340   1.401  1.0862 -1.8427 -0.9297
  718SOL    HW2 2871   2.722   1.331   1.276 -0.0069 -1.3194 -1.1420
  718SOL     MW 2872   2.649   1.317   1.316  0.1300 -0.4839  0.0410
  719SOL     OW 2873   2.188   1.246   0.521 -0.0360 -0.8233 -0.2856
  719SOL    HW1 2874   2.265   1.307   0.528 -2.6262  0.4490  0.6921
  719SOL    HW2 2875   2.137   1.275   0.604 -0.3623 -1.1046  0.3691
  719SOL     MW 2876   2.192   1.258   0.533 -0.4208 -0.6925 -0.0702
  720SOL     OW 2877   2.839   1.252   0.037  0.2721  0.7587  0.2772
  720SOL    HW1 2878   2.809   1.160   0.042  1.7314 -1.8873  1.9245
  720SOL    HW2 2879   2.787   1.300   0.101 -0.3198  0.9827 -0.8856
  720SOL     MW 2880   2.828   1.246   0.046  0.3865  0.4391  0.3411
  721SOL     OW 2881   2.577   0.813   1.359 -0.0138 -0.2381  0.2365
  721SOL    HW1 2882   2.541   0.731   1.401 -2.0194 -1.0564  1.5098
  721SOL    HW2 2883   2.605   0.859   1.439 -1.0055  0.6283  4.3573
  721SOL     MW 2884   2.576   0.808   1.375 -0.4093 -0.2318  0.9482
  722SOL     OW 2885   2.580   1.137   0.404  0.4283 -0.1091 -0.0795
  722SOL    HW1 2886   2.534   1.208   0.451  0.3686 -1.6905 -1.7669
  722SOL    HW2 2887   2.661   1.111   0.452  0.1526 -0.3230  0.5137
  722SOL     MW 2888   2.585   1.143   0.417  0.3841 -0.3460 -0.2239
  723SOL     OW 2889   2.285   1.339   1.543  0.0040  0.1495  0.0577
  723SOL    HW1 2890   2.316   1.366   1.458 -1.7323  0.3523 -0.4315
  723SOL    HW2 2891   2.213   1.396   1.550 -2.1981 -0.0587 -1.8804
  723SOL     MW 2892   2.279   1.350   1.533 -0.5156  0.1488 -0.2626
  724SOL     OW 2893   2.483   0.253   0.617 -0.1146 -0.3693 -0.0040
  724SOL    HW1 2894   2.492   0.273   0.709  1.0893 -0.3409 -0.9390
  724SOL    HW2 2895   2.571   0.252   0.577  0.7842 -1.8884 -0.7951
  724SOL     MW 2896   2.496   0.256   0.624  0.1628 -0.5660 -0.2318
  725SOL     OW 2897   2.649   0.416   1.183  0.2530 -0.3578 -0.7965
  725SOL    HW1 2898   2.715   0.438   1.242 -0.9361  0.3529 -2.2975
  725SOL    HW2 2899   2.586   0.366   1.236 -1.1960 -2.0051  0.8418
  725SOL     MW 2900   2.649   0.412   1.198 -0.0951 -0.4814 -0.7784
  726SOL     OW 2901   2.488   2.480   0.439 -0.4899  0.0964 -0.0891
  726SOL    HW1 2902   2.532   2.523   0.366  1.1034  1.3217  1.2757
  726SOL    HW2 2903   2.474   2.553   0.496 -1.4417  3.1825  1.9891
  726SOL     MW 2904   2.492   2.495   0.437 -0.4053  0.6653  0.3652
  727SOL     OW 2905   2.870   0.311   1.726  0.1685  0.0254 -0.0752
  727SOL    HW1 2906   2.800   0.296   1.661  0.0601 -0.1082  0.3347
  727SOL    HW2 2907   2.838   0.285   1.807 -0.5162  2.6437 -0.2783
  727SOL     MW 2908   2.856   0.306   1.728  0.0639  0.3532 -0.0479
  728SOL     OW 2909   2.800   1.184   2.859 -0.4167  0.4118 -0.1044
  728SOL    HW1 2910   2.813   1.247   2.792  0.4574  0.1448  1.0034
  728SOL    HW2 2911   2.811   1.231   2.944  1.1175 -1.9181 -0.8140
  728SOL     MW 2912   2.803   1.199   2.862 -0.0989  0.0692 -0.0519
  729SOL     OW 2913   2.554   1.509   1.065  0.2273 -0.5122  0.1995
  729SOL    HW1 2914   2.567   1.417   1.082  0.6636 -0.8822 -0.6336
  729SOL    HW2 2915   2.513   1.511   0.980 -2.6692  0.8946  0.9401
  729SOL     MW 2916   2.551   1.497   1.056 -0.0973 -0.3754  0.1873
  730SOL     OW 2917   2.175   1.146   0.199  0.2033 -0.1342  0.0514
  730SOL    HW1 2918   2.258   1.091   0.219  0.5713 -2.1975  0.4417
  730SOL    HW2 2919   2.209   1.236   0.194  1.8322  0.7484  1.3148
  730SOL     MW 2920   2.191   1.151   0.201  0.4668 -0.2900  0.2696
  731SOL     OW 2921   2.782   1.980   2.920  0.3419 -0.3906  0.2482
  731SOL    HW1 2922   2.727   1.986   2.848  1.0961 -0.1413 -0.9394
  731SOL    HW2 2923   2.872   1.996   2.897 -0.8018  1.8966  1.4419
  731SOL     MW 2924   2.786   1.983   2.907  0.2905 -0.0560  0.2490
  732SOL     OW 2925   2.324   0.980   1.344  0.4004 -0.1743  0.1138
  732SOL    HW1 2926   2.297   1.000   1.437 -2.4342  0.6425  2.0078
  732SOL    HW2 2927   2.409   0.932   1.343  1.5568  0.5056  0.0264
  732SOL     MW 2928   2.331   0.977   1.357  0.1790  0.0231  0.3522
  733SOL     OW 2929   2.394   2.690   2.993 -0.0529 -0.4755 -0.0707
  733SOL    HW1 2930   2.319   2.748   2.983 -2.6396  0.7463 -0.1842
  733SOL    HW2 2931   2.362   2.601   2.985 -2.9958  2.2013 -0.8127
  733SOL     MW 2932   2.380   2.686   2.991 -0.7825  0.0389 -0.1836
  734SOL     OW 2933   1.514   0.281   2.504  0.1543  0.1287  0.0198
  734SOL    HW1 2934   1.499   0.259   2.598  0.4794  2.4155  0.8101
  734SOL    HW2 2935   1.477   0.210   2.457  3.2356 -0.3584  0.2381
  734SOL     MW 2936   1.507   0.269   2.510  0.6037  0.3662  0.1528
  735SOL     OW 2937   3.017   0.868   2.693  0.1763 -0.0683  0.2851
  735SOL    HW1 2938   2.989   0.775   2.695 -1.0505  0.8245  0.5688
  735SOL    HW2 2939   3.014   0.903   2.784  2.2245 -1.0128  0.6282
  735SOL     MW 2940   3.013   0.861   2.706  0.2847 -0.0752  0.3678
  736SOL     OW 2941   0.134   0.556   2.522  0.2652 -0.6328 -0.0801
  736SOL    HW1 2942   0.137   0.648   2.477  2.4336  1.7303 -0.7515
  736SOL    HW2 2943   0.194   0.494   2.471  1.1913 -0.3213  1.3979
  736SOL     MW 2944   0.142   0.560   2.510  0.6735 -0.2799  0.0263
  737SOL     OW 2945   2.997   0.570   2.652  0.4612 -0.5480  0.3031
  737SOL    HW1 2946   2.939   0.600   2.579  0.4216  0.1599  0.0039
  737SOL    HW2 2947   3.081   0.546   2.616 -2.2420 -0.0397  0.9011
  737SOL     MW 2948   3.000   0.571   2.638  0.0993 -0.3875  0.3426
  738SOL     OW 2949   0.104   0.412   1.852 -0.2734  0.0240  0.2434
  738SOL    HW1 2950   0.180   0.470   1.868  1.5768 -0.6801  2.4441
  738SOL    HW2 2951   0.106   0.387   1.757  2.2059  0.0073 -0.6399
  738SOL     MW 2952   0.114   0.417   1.842  0.2978 -0.0711  0.4172
  739SOL     OW 2953   2.530   0.985   2.106  0.2682  0.1164  0.2256
  739SOL    HW1 2954   2.451   1.002   2.065 -2.6672 -1.9842  1.0707
  739SOL    HW2 2955   2.544   0.893   2.109  0.2233 -0.4643 -0.7085
  739SOL     MW 2956   2.521   0.975   2.101 -0.1250 -0.2374  0.2138
  740SOL     OW 2957   0.144   1.777   2.947  0.5261  0.6478 -0.4566
  740SOL    HW1 2958   0.082   1.706   2.967 -1.0047 -2.4242  1.1361
  740SOL    HW2 2959   0.230   1.760   2.992  2.3812  1.4619 -0.5279
  740SOL     MW 2960   0.147   1.766   2.955  0.5689  0.3499 -0.2559
  741SOL     OW 2961   2.246   1.161   2.716  0.3753 -0.0671 -0.0981
  741SOL    HW1 2962   2.194   1.225   2.671  1.9043 -0.1486 -0.6920
  741SOL    HW2 2963   2.227   1.168   2.817 -0.3245  2.8359  0.6072
  741SOL     MW 2964   2.237   1.170   2.724  0.4847  0.3052 -0.0834
  742SOL     OW 2965   1.536   1.225   2.325 -0.4417  0.2909  0.9429
  742SOL    HW1 2966   1.470   1.154   2.340  1.2389 -0.7732  0.6688
  742SOL    HW2 2967   1.596   1.224   2.398  0.4618 -1.1821 -0.6964
  742SOL     MW 2968   1.536   1.215   2.337 -0.1007 -0.0439  0.6904
  743SOL     OW 2969   2.541   1.234   2.688  1.1631  0.0760 -0.9496
  743SOL    HW1 2970   2.439   1.232   2.700 -2.5515  0.1095  0.5421
  743SOL    HW2 2971   2.568   1.201   2.772  0.3379 -0.5499 -0.2449
  743SOL     MW 2972   2.531   1.229   2.701  0.5641 -0.0022 -0.6598
  744SOL     OW 2973   2.727   0.865   1.926  0.5402  0.6778 -0.4498
  744SOL    HW1 2974   2.690   0.954   1.931 -1.0308  1.5900 -0.8508
  744SOL    HW2 2975   2.673   0.826   1.855  0.8999 -0.1828  0.9797
  744SOL     MW 2976   2.715   0.872   1.917  0.3804  0.6846 -0.3141
  745SOL     OW 2977   1.698   0.469   2.485  0.5100 -0.0693  0.0708
  745SOL    HW1 2978   1.699   0.473   2.388 -1.3964 -4.1630  1.2402
  745SOL    HW2 2979   1.627   0.404   2.497  0.5229 -2.2430  0.4599
  745SOL     MW 2980   1.689   0.461   2.474  0.2602 -0.8962  0.2764
  746SOL     OW 2981   1.585   1.497   1.654  0.0507  0.4932  0.3742
  746SOL    HW1 2982   1.672   1.516   1.677  1.9130  2.0730 -2.7848
  746SOL    HW2 2983   1.535   1.495   1.735  1.7958 -1.0925  0.5641
  746SOL     MW 2984   1.590   1.499   1.668  0.5267  0.4924 -0.0175
  747SOL     OW 2985   2.612   1.137   1.815 -0.4381  0.0663  0.2925
  747SOL    HW1 2986   2.530   1.099   1.782  2.4330 -0.6186  0.2457
  747SOL    HW2 2987   2.593   1.183   1.898 -1.1737 -1.1262 -1.3276
  747SOL     MW 2988   2.599   1.138   1.822 -0.1564 -0.1814  0.0725
  748SOL     OW 2989   0.082   0.117   1.877  0.0125  0.1481 -0.3583
  748SOL    HW1 2990   0.166   0.097   1.915 -2.7922  2.8536 -1.0641
  748SOL    HW2 2991   0.089   0.210   1.859 -0.2981 -2.1215 -3.2176
  748SOL     MW 2992   0.094   0.127   1.880 -0.3985  0.2056 -0.8287
  749SOL     OW 2993   2.573   0.597   2.786  0.4548 -0.0159  0.3449
  749SOL    HW1 2994   2.588   0.675   2.730 -0.9275  0.2159 -0.2113
  749SOL    HW2 2995   2.553   0.639   2.875  0.2784 -1.4860  1.8666
  749SOL     MW 2996   2.572   0.613   2.790  0.2492 -0.1793  0.4723
  750SOL     OW 2997   2.053   3.090   1.964  0.5223  0.4790 -0.2991
  750SOL    HW1 2998   2.089   3.179   1.988  0.7141  1.0616 -1.0449
  750SOL    HW2 2999   2.140   3.035   1.954  1.4626  0.1646 -1.4030
  750SOL     MW 3000   2.069   3.095   1.965  0.6717  0.5144 -0.5432
  751SOL     OW 3001   0.279   0.347   2.411 -0.0284  1.0479 -0.0354
  751SOL    HW1 3002   0.251   0.272   2.457 -1.6276  1.2617 -1.5696
  751SOL    HW2 3003   0.277   0.319   2.320 -3.7879 -0.5511  1.0118
  751SOL     MW 3004   0.275   0.334   2.405 -0.7354  0.8651 -0.0996
  752SOL     OW 3005   2.143   0.835   2.754 -0.1770  0.0476  0.4099
  752SOL    HW1 3006   2.228   0.870   2.735 -0.6129 -2.0025  2.5776
  752SOL    HW2 3007   2.138   0.816   2.849  0.9547  0.1210  0.3931
  752SOL     MW 3008   2.154   0.837   2.764 -0.0852 -0.2132  0.6937
  753SOL     OW 3009   2.791   0.141   2.404  0.0661 -0.4313  0.3110
  753SOL    HW1 3010   2.773   0.049   2.382 -0.5592 -0.3707 -0.6494
  753SOL    HW2 3011   2.750   0.196   2.339  2.0862  0.2283 -1.5047
  753SOL     MW 3012   2.783   0.136   2.393  0.2501 -0.3363 -0.0552
  754SOL     OW 3013   2.273   2.958   2.642  0.3330  0.0772  0.4391
  754SOL    HW1 3014   2.295   2.992   2.555 -0.5243 -0.1815 -0.6726
  754SOL    HW2 3015   2.350   2.913   2.677  0.2372  0.1079  2.8957
  754SOL     MW 3016   2.286   2.957   2.635  0.2072  0.0471  0.6165
  755SOL     OW 3017   2.751   1.530   2.397  0.2935 -0.2241  0.0013
  755SOL    HW1 3018   2.758   1.450   2.447  0.6069 -2.7383 -2.8645
  755SOL    HW2 3019   2.766   1.600   2.464 -3.5355  0.9663  0.9680
  755SOL     MW 3020   2.754   1.529   2.412 -0.1704 -0.3988 -0.2492
  756SOL     OW 3021   2.213   1.202   2.982 -0.4446  0.0417  0.2570
  756SOL    HW1 3022   2.244   1.293   2.964 -0.8050  0.9685  0.8442
  756SOL    HW2 3023   2.281   1.155   3.036 -0.3674 -0.4208  0.0902
  756SOL     MW 3024   2.226   1.207   2.987 -0.4819  0.1029  0.3125
  757SOL     OW 3025   2.194   0.930   1.608  0.3036 -0.2672 -0.2915
  757SOL    HW1 3026   2.241   0.848   1.604 -0.9439  2.4191  0.9427
  757SOL    HW2 3027   2.103   0.916   1.570 -0.6717  0.4161 -0.4599
  757SOL     MW 3028   2.188   0.918   1.603  0.0103  0.1773 -0.1509
  758SOL     OW 3029   2.222   1.817   2.625  0.0736  0.0423  0.2964
  758SOL    HW1 3030   2.228   1.878   2.549 -3.0461  4.1474 -0.9407
  758SOL    HW2 3031   2.309   1.778   2.627  1.6129  1.0448  0.7142
  758SOL     MW 3032   2.234   1.820   2.616 -0.1349  0.7162  0.1883
  759SOL     OW 3033   1.548   1.286   2.709  0.2156  0.6941 -0.3401
  759SOL    HW1 3034   1.517   1.365   2.669 -0.2012 -0.1682  1.0929
  759SOL    HW2 3035   1.610   1.318   2.782  0.6177 -1.2810 -1.4156
  759SOL     MW 3036   1.552   1.301   2.714  0.2137  0.3197 -0.2930
  760SOL     OW 3037   2.578   1.985   2.703  0.6253 -0.4231 -0.4637
  760SOL    HW1 3038   2.548   1.895   2.671  0.4246  1.4968 -0.0022
  760SOL    HW2 3039   2.576   2.035   2.621 -0.0307 -2.7097  1.2678
  760SOL     MW 3040   2.574   1.980   2.688  0.5123 -0.4715 -0.1744
  761SOL     OW 3041   2.211   0.413   2.542  0.7509 -0.1547 -0.4803
  761SOL    HW1 3042   2.140   0.348   2.569 -0.0643 -0.6889  0.8104
  761SOL    HW2 3043   2.241   0.472   2.614  0.6432 -2.5947  0.8257
  761SOL     MW 3044   2.206   0.412   2.555  0.6291 -0.5471 -0.1377
  762SOL     OW 3045   3.064   0.242   2.161  0.5229  0.4359  0.1390
  762SOL    HW1 3046   3.085   0.159   2.202 -1.5718 -1.0107  1.6381
  762SOL    HW2 3047   3.077   0.313   2.228 -0.5336 -2.1391  1.7152
  762SOL     MW 3048   3.069   0.241   2.175  0.1072 -0.0947  0.5448
  763SOL     OW 3049   2.345   1.035   2.332  0.2907  0.0404 -0.4982
  763SOL    HW1 3050   2.403   1.001   2.261  3.2145  0.7492  0.4813
  763SOL    HW2 3051   2.405   1.097   2.380  1.7176 -2.5770  1.6524
  763SOL     MW 3052   2.361   1.039   2.329  0.8647 -0.2114 -0.0852
  764SOL     OW 3053   0.405   0.287   2.846  0.2737  0.2221  0.5932
  764SOL    HW1 3054   0.320   0.242   2.827 -0.0644 -0.5752 -0.5224
  764SOL    HW2 3055   0.389   0.381   2.870 -0.4524  0.2892 -0.3450
  764SOL     MW 3056   0.392   0.293   2.846  0.1333  0.1258  0.3222
  765SOL     OW 3057   2.722   2.967   2.398 -0.2553 -0.7252  0.1993
  765SOL    HW1 3058   2.663   2.980   2.325 -0.9821  2.1394 -0.0406
  765SOL    HW2 3059   2.805   2.934   2.357 -0.0545 -0.3977 -0.7001
  765SOL     MW 3060   2.725   2.964   2.383 -0.3247 -0.3040  0.0490
  766SOL     OW 3061   1.913   2.965   2.171  0.1545  0.2113 -0.3854
  766SOL    HW1 3062   1.941   3.020   2.093  1.9765  0.1231 -1.4644
  766SOL    HW2 3063   1.835   2.912   2.134 -0.1418 -1.9041  0.3701
  766SOL     MW 3064   1.906   2.965   2.156  0.3558 -0.0794 -0.4281
  767SOL     OW 3065   2.636   0.597   2.117  0.0949  0.1297 -0.6793
  767SOL    HW1 3066   2.728   0.630   2.126 -0.5213  0.4742 -3.0788
  767SOL    HW2 3067   2.609   0.641   2.035  1.2182 -0.0955 -1.0930
  767SOL     MW 3068   2.644   0.607   2.108  0.1618  0.1454 -1.0505
  768SOL     OW 3069   3.008   1.549   2.941 -0.7516 -0.1661  0.0281
  768SOL    HW1 3070   3.037   1.540   3.029  0.7401  2.6011  1.5640
  768SOL    HW2 3071   3.060   1.481   2.901 -1.7906  1.1130 -0.2135
  768SOL     MW 3072   3.019   1.539   2.947 -0.6919  0.3678  0.1989
  769SOL     OW 3073   2.491   0.654   2.355  0.1318 -0.0306  1.2642
  769SOL    HW1 3074   2.534   0.622   2.430 -0.8812 -1.0902  0.0828
  769SOL    HW2 3075   2.546   0.628   2.281  2.8045 -1.9020  1.7294
  769SOL     MW 3076   2.504   0.646   2.355  0.3508 -0.4173  1.1697
  770SOL     OW 3077   3.089   1.623   2.522 -0.3843  0.1755  0.0368
  770SOL    HW1 3078   2.998   1.638   2.523 -0.8659 -1.7270 -3.8268
  770SOL    HW2 3079   3.091   1.522   2.509  1.0444  0.4812  2.2686
  770SOL     MW 3080   3.078   1.611   2.520 -0.2593 -0.0352 -0.1785
  771SOL     OW 3081   3.069   0.612   1.985  0.1577 -0.4249  0.2522
  771SOL    HW1 3082   2.994   0.638   1.929  1.6481  1.1692 -4.0583
  771SOL    HW2 3083   3.117   0.533   1.950  1.0905  1.8304 -0.4642
  771SOL     MW 3084   3.066   0.605   1.973  0.4775  0.0830 -0.4110
  772SOL     OW 3085   0.062   0.005   2.289 -0.2884  0.5779 -0.2532
  772SOL    HW1 3086  -0.017  -0.035   2.258  1.0486 -0.2533  0.7141
  772SOL    HW2 3087   0.128  -0.027   2.231 -1.9299  0.7876  1.7144
  772SOL     MW 3088   0.061  -0.004   2.277 -0.3286  0.4959  0.1340
  773SOL     OW 3089   2.480   2.815   2.766  0.3682 -0.1894  0.3893
  773SOL    HW1 3090   2.487   2.752   2.698  0.5287  0.4308 -0.7491
  773SOL    HW2 3091   2.450   2.756   2.836 -0.7695 -0.4043 -0.6933
  773SOL     MW 3092   2.477   2.799   2.766  0.2393 -0.1359  0.0963
  774SOL     OW 3093   2.292   1.134   1.747 -0.5647  0.2270  0.0260
  774SOL    HW1 3094   2.295   1.208   1.684  1.1394  0.6910  1.8047
  774SOL    HW2 3095   2.256   1.057   1.704  0.4290 -0.1315 -0.3137
  774SOL     MW 3096   2.288   1.134   1.733 -0.2088  0.2410  0.2159
  775SOL     OW 3097   2.306   2.914   2.348 -0.1760 -0.2267  0.2239
  775SOL    HW1 3098   2.322   2.985   2.286  1.1817  0.0250  1.8549
  775SOL    HW2 3099   2.360   2.842   2.325 -0.6259  2.4381  0.9034
  775SOL     MW 3100   2.316   2.914   2.337 -0.0563  0.1581  0.5287
  776SOL     OW 3101   0.020   1.532   0.098 -0.1260 -0.0231  0.6463
  776SOL    HW1 3102   0.110   1.517   0.085 -1.9197 -0.0281 -1.0758
  776SOL    HW2 3103  -0.010   1.442   0.119  2.8068  3.1532  1.2666
  776SOL     MW 3104   0.028   1.518   0.099  0.0243  0.3953  0.5010
  777SOL     OW 3105   2.929   0.961   1.777 -0.4653 -0.1972  0.8587
  777SOL    HW1 3106   2.907   1.050   1.748  1.0077 -3.4695  1.7316
  777SOL    HW2 3107   2.848   0.917   1.808 -0.8301 -1.6835 -0.5744
  777SOL     MW 3108   2.915   0.967   1.777 -0.3191 -0.8250  0.7848
  778SOL     OW 3109   2.898   0.351   2.783  0.3413  0.2574 -0.1525
  778SOL    HW1 3110   2.839   0.374   2.853  0.5772 -1.6656 -0.7167
  778SOL    HW2 3111   2.943   0.438   2.756  1.5561 -0.4496  0.2163
  778SOL     MW 3112   2.896   0.366   2.789  0.5327 -0.0896 -0.1783
  779SOL     OW 3113   2.100   0.531   2.325 -0.0918 -0.0037  0.1274
  779SOL    HW1 3114   2.069   0.601   2.376  0.7784 -3.4194  1.8607
  779SOL    HW2 3115   2.144   0.482   2.393 -0.3342  2.3019  0.0541
  779SOL     MW 3116   2.102   0.534   2.341 -0.0090 -0.1501  0.3464
  780SOL     OW 3117   0.190   0.126   2.811  0.0455  0.2674 -0.4181
  780SOL    HW1 3118   0.132   0.194   2.844  0.9553 -1.0833 -0.5072
  780SOL    HW2 3119   0.173   0.110   2.717  1.0451 -0.9084 -1.4904
  780SOL     MW 3120   0.180   0.133   2.803  0.2974 -0.0660 -0.5714
  781SOL     OW 3121   3.023   1.376   2.414 -0.0708 -0.4654 -0.5293
  781SOL    HW1 3122   3.011   1.407   2.321  0.1692  2.8431 -0.9955
  781SOL    HW2 3123   3.077   1.303   2.429 -1.8242 -2.0347 -1.7744
  781SOL     MW 3124   3.029   1.370   2.404 -0.2705 -0.2359 -0.7551
  782SOL     OW 3125   0.557   1.544   3.076  0.8741 -0.6802 -0.0916
  782SOL    HW1 3126   0.502   1.622   3.073  0.7674 -0.0623 -2.2150
  782SOL    HW2 3127   0.554   1.524   3.174  0.7093  2.5822 -2.9158
  782SOL     MW 3128   0.549   1.551   3.089  0.8383 -0.1682 -0.7444
  783SOL     OW 3129   2.820   0.562   2.424 -0.0086 -0.0289 -0.1158
  783SOL    HW1 3130   2.882   0.527   2.357  0.4806  0.5941  1.0167
  783SOL    HW2 3131   2.772   0.493   2.476 -0.4885 -3.3640  0.2262
  783SOL     MW 3132   2.822   0.548   2.422 -0.0074 -0.3868  0.0788
  784SOL     OW 3133   0.200   0.909   2.889 -0.0321  0.3035 -0.4388
  784SOL    HW1 3134   0.197   0.979   2.946 -1.3454 -3.4549  0.9076
  784SOL    HW2 3135   0.203   0.951   2.803 -1.3229  0.9288  4.2278
  784SOL     MW 3136   0.200   0.924   2.885 -0.3757 -0.1099  0.3546
  785SOL     OW 3137   0.355   0.545   2.104 -0.0997  0.4535 -0.0034
  785SOL    HW1 3138   0.390   0.551   2.016 -1.1769 -0.4569 -1.8112
  785SOL    HW2 3139   0.327   0.454   2.118 -0.4623 -1.7679 -2.8938
  785SOL     MW 3140   0.356   0.534   2.095 -0.2897  0.0403 -0.6233
  786SOL     OW 3141   2.029   0.471   2.844 -0.1382 -0.0345 -0.0844
  786SOL    HW1 3142   2.024   0.457   2.940 -0.0282 -2.4402  1.5552
  786SOL    HW2 3143   2.119   0.500   2.822  3.2388 -0.4349 -0.4292
  786SOL     MW 3144   2.040   0.473   2.854  0.3219 -0.4047  0.0865
  787SOL     OW 3145   2.424   0.145   2.922 -0.0888 -0.2790 -0.5123
  787SOL    HW1 3146   2.483   0.149   2.847 -1.3169  2.0394  0.5753
  787SOL    HW2 3147   2.425   0.233   2.957 -0.9601 -0.3999  0.1863
  787SOL     MW 3148   2.432   0.157   2.917 -0.3658  0.0109 -0.2766
  788SOL     OW 3149   2.943   2.871   2.284  0.1961 -0.9489  0.2466
  788SOL    HW1 3150   2.940   2.794   2.222 -0.2437  0.5570 -3.8139
  788SOL    HW2 3151   3.020   2.851   2.339 -0.0001  0.0716  1.2719
  788SOL     MW 3152   2.953   2.858   2.283  0.1122 -0.6156 -0.1539
  789SOL     OW 3153   0.042   0.284   3.025  0.1383  0.2619  0.2024
  789SOL    HW1 3154  -0.045   0.270   3.065  0.3925  0.3514 -1.0707
  789SOL    HW2 3155   0.100   0.273   3.104 -0.4285 -0.8116  0.8957
  789SOL     MW 3156   0.038   0.281   3.041  0.0971  0.1321  0.1259
  790SOL     OW 3157   0.021   1.051   2.475  0.0846 -0.4553 -0.7346
  790SOL    HW1 3158  -0.028   1.027   2.550 -1.5916  0.1178 -1.2560
  790SOL    HW2 3159  -0.042   1.042   2.403  0.9493  0.4271  0.9319
  790SOL     MW 3160   0.006   1.046   2.475 -0.0224 -0.2633 -0.5835
  791SOL     OW 3161   2.679   0.417   2.613  0.4733  0.1419 -0.3796
  791SOL    HW1 3162   2.637   0.481   2.677  1.9076 -0.9412 -1.2038
  791SOL    HW2 3163   2.749   0.368   2.662 -0.7230  0.5338 -1.0108
  791SOL     MW 3164   2.683   0.419   2.628  0.5047  0.0507 -0.5717
  792SOL     OW 3165   2.424   0.275   2.382 -0.6644  0.6270  0.2441
  792SOL    HW1 3166   2.362   0.329   2.432  1.3100 -3.6977  1.2591
  792SOL    HW2 3167   2.461   0.222   2.454 -2.0768  1.8968 -1.3901
  792SOL     MW 3168   2.421   0.275   2.398 -0.5902  0.2240  0.1624
  793SOL     OW 3169   1.759   1.014   1.871 -0.3386 -0.4058  0.1413
  793SOL    HW1 3170   1.748   1.047   1.783  2.1493  1.9336  2.4416
  793SOL    HW2 3171   1.861   1.001   1.862  2.1413  0.3510  0.7634
  793SOL     MW 3172   1.771   1.017   1.858  0.3169  0.0027  0.5269
  794SOL     OW 3173   1.436   2.284   0.115 -0.2114 -0.3222  0.1996
  794SOL    HW1 3174   1.459   2.371   0.077  0.4714 -1.7519  1.3689
  794SOL    HW2 3175   1.483   2.279   0.201  0.0088 -2.4461  0.9899
  794SOL     MW 3176   1.445   2.295   0.121 -0.0923 -0.7911  0.4582
  795SOL     OW 3177   2.367   0.936   2.594 -0.1444  0.2860 -0.0567
  795SOL    HW1 3178   2.342   1.013   2.646 -0.8975  0.1572 -0.1951
  795SOL    HW2 3179   2.331   0.949   2.505  0.3094  1.5707 -2.1854
  795SOL     MW 3180   2.359   0.948   2.589 -0.1839  0.4385 -0.3558
  796SOL     OW 3181   0.324   0.663   2.802  0.1698 -0.7287  0.0015
  796SOL    HW1 3182   0.281   0.741   2.840  0.5591 -1.2554  1.4726
  796SOL    HW2 3183   0.273   0.654   2.722 -0.4087  1.7890 -0.3895
  796SOL     MW 3184   0.312   0.672   2.796  0.1449 -0.4660  0.1440
  797SOL     OW 3185   2.564   0.163   2.589 -0.0724  0.1237  0.2338
  797SOL    HW1 3186   2.580   0.258   2.608 -1.2116  3.0263  2.4736
  797SOL    HW2 3187   2.637   0.136   2.530  1.1654 -0.5665 -0.2523
  797SOL     MW 3188   2.575   0.172   2.583 -0.0594  0.4156  0.4652
  798SOL     OW 3189   2.385   0.043   2.189  0.0159  0.1188  0.1688
  798SOL    HW1 3190   2.393   0.128   2.234  0.3762 -0.8539  2.1946
  798SOL    HW2 3191   2.474   0.024   2.158 -0.6494 -1.3012 -0.0417
  798SOL     MW 3192   2.398   0.051   2.191 -0.0244 -0.1969  0.4083
  799SOL     OW 3193   2.537   2.923   0.198  0.1922 -0.1417  0.0876
  799SOL    HW1 3194   2.555   2.904   0.106  1.5494 -0.3730  0.4235
  799SOL    HW2 3195   2.457   2.976   0.193  0.6927 -1.4068  2.1918
  799SOL     MW 3196   2.529   2.927   0.185  0.4373 -0.3391  0.4095
  800SOL     OW 3197   1.912   3.092   1.718  0.0713  0.3384 -0.1841
  800SOL    HW1 3198   1.857   3.011   1.729  2.6037 -1.7466  2.5001
  800SOL    HW2 3199   1.970   3.093   1.795 -3.1056  0.1562  2.2938
  800SOL     MW 3200   1.912   3.082   1.730 -0.0137  0.0393  0.4970
  801SOL     OW 3201   2.834   1.324   2.600  0.0684  0.5905 -0.5691
  801SOL    HW1 3202   2.821   1.226   2.584 -0.3191 -0.0374  1.0015
  801SOL    HW2 3203   2.917   1.342   2.549  0.5288 -1.4213 -1.7376
  801SOL     MW 3204   2.843   1.314   2.591  0.0780  0.2423 -0.5161
  802SOL     OW 3205   2.546   1.502   2.744 -0.4047 -0.4369 -0.2053
  802SOL    HW1 3206   2.563   1.430   2.681 -0.0168 -1.6420  1.6432
  802SOL    HW2 3207   2.624   1.547   2.771 -0.4751  2.8794  1.2272
  802SOL     MW 3208   2.559   1.499   2.739 -0.3628 -0.1584  0.2276
  803SOL     OW 3209   2.257   1.301   1.956 -0.6428 -0.3933 -0.1250
  803SOL    HW1 3210   2.233   1.252   2.039 -2.5760 -2.7334 -0.9046
  803SOL    HW2 3211   2.240   1.234   1.893 -0.7660  0.4386  3.1555
  803SOL     MW 3212   2.252   1.285   1.959 -0.9141 -0.5923  0.2050
  804SOL     OW 3213   2.361   0.001   0.059  0.1835 -0.0680  0.1032
  804SOL    HW1 3214   2.283   0.064   0.046  1.2756  1.6966  0.1509
  804SOL    HW2 3215   2.419   0.043  -0.008 -0.0916  1.1841  2.6710
  804SOL     MW 3216   2.359   0.015   0.049  0.2913  0.3300  0.4483
  805SOL     OW 3217   2.836   1.046   2.574  0.0923  0.4055  0.6229
  805SOL    HW1 3218   2.750   1.010   2.575  1.6180 -1.3198  2.0201
  805SOL    HW2 3219   2.894   0.980   2.613 -0.4308 -1.9951  1.3256
  805SOL     MW 3220   2.832   1.033   2.579  0.2246 -0.1389  0.8999
  806SOL     OW 3221   2.651   0.337   2.184 -0.0774 -0.1309 -0.0679
  806SOL    HW1 3222   2.583   0.332   2.244  1.2604  0.4604 -2.1057
  806SOL    HW2 3223   2.649   0.427   2.162  2.4080 -0.5006 -1.6978
  806SOL     MW 3224   2.642   0.348   2.189  0.4270 -0.1016 -0.5518
  807SOL     OW 3225   0.040   1.150   2.118  0.2289 -0.0625  0.4288
  807SOL    HW1 3226   0.060   1.062   2.087  1.2874  0.7257  0.4362
  807SOL    HW2 3227  -0.042   1.130   2.162  0.4216 -1.2006 -0.0100
  807SOL     MW 3228   0.031   1.136   2.120  0.3940 -0.1087  0.3719
  808SOL     OW 3229   2.642   3.061   2.809  0.6787 -0.1449  0.0825
  808SOL    HW1 3230   2.606   2.974   2.792  0.1803  0.8408  0.5115
  808SOL    HW2 3231   2.630   3.113   2.729  1.2747 -1.0900  1.7761
  808SOL     MW 3232   2.636   3.056   2.796  0.6916 -0.1395  0.3625
  809SOL     OW 3233   2.526   1.236   2.418  0.3366 -0.0855  0.2172
  809SOL    HW1 3234   2.560   1.230   2.511  2.4279 -1.2201  3.9303
  809SOL    HW2 3235   2.596   1.233   2.354  0.9068 -2.8375 -1.4728
  809SOL     MW 3236   2.540   1.235   2.422  0.6877 -0.5983  0.4841
  810SOL     OW 3237   2.177   1.201   2.189  0.8732  0.9214  0.4386
  810SOL    HW1 3238   2.241   1.133   2.227  0.7462  0.7760  0.6448
  810SOL    HW2 3239   2.107   1.151   2.142  1.0456 -2.2269  1.1380
  810SOL     MW 3240   2.176   1.186   2.188  0.8792  0.4869  0.5581
  811SOL     OW 3241   1.475   0.077   2.234 -0.3382 -0.1341 -0.1767
  811SOL    HW1 3242   1.559   0.049   2.270 -1.4979 -1.0820 -2.2077
  811SOL    HW2 3243   1.453   0.048   2.139 -1.4434 -1.8939  0.4324
  811SOL     MW 3244   1.483   0.069   2.226 -0.6371 -0.4913 -0.3643
  812SOL     OW 3245   1.451   2.762   2.083  0.4116  0.0944 -0.2781
  812SOL    HW1 3246   1.544   2.781   2.062 -1.4132  0.6438 -0.5445
  812SOL    HW2 3247   1.451   2.715   2.165  0.3153  0.9905 -0.2183
  812SOL     MW 3248   1.464   2.758   2.091  0.1581  0.2851 -0.3054
  813SOL     OW 3249   1.856   0.719   2.156 -0.3923 -0.6258 -0.4180
  813SOL    HW1 3250   1.790   0.646   2.170 -1.9327 -2.4666 -1.2283
  813SOL    HW2 3251   1.892   0.741   2.242  1.6440  0.5570 -1.5275
  813SOL     MW 3252   1.852   0.712   2.169 -0.3269 -0.7127 -0.6713
  814SOL     OW 3253   2.824   1.176   1.645 -0.0068 -0.1767 -0.5049
  814SOL    HW1 3254   2.752   1.171   1.704 -2.2075  1.2973 -1.1849
  814SOL    HW2 3255   2.793   1.146   1.562  0.2303 -1.4500 -0.2236
  814SOL     MW 3256   2.811   1.172   1.642 -0.2659 -0.1503 -0.5575
  815SOL     OW 3257   2.502   1.639   2.366 -0.0064  0.0353  0.3273
  815SOL    HW1 3258   2.436   1.570   2.356  0.3427  3.8410  0.9960
  815SOL    HW2 3259   2.586   1.604   2.356  1.8398  1.7370 -0.5833
  815SOL     MW 3260   2.504   1.626   2.363  0.2833  0.7620  0.2954
  816SOL     OW 3261   0.675   0.662   2.710 -0.1761 -0.1046  0.5192
  816SOL    HW1 3262   0.733   0.613   2.765 -1.5878 -0.5605 -0.2945
  816SOL    HW2 3263   0.618   0.594   2.663  1.4270  0.6208 -0.4425
  816SOL     MW 3264   0.675   0.647   2.711 -0.1509 -0.0690  0.2850
  817SOL     OW 3265   3.060   1.176   1.304  0.3971  0.3530  0.4980
  817SOL    HW1 3266   3.114   1.177   1.382  0.4974 -1.5073  1.9390
  817SOL    HW2 3267   3.016   1.264   1.303  2.9037 -0.2449 -2.7221
  817SOL     MW 3268   3.062   1.188   1.314  0.7411  0.0287  0.2633
  818SOL     OW 3269   1.905   0.987   2.687  0.0403  0.7267 -0.2934
  818SOL    HW1 3270   1.937   1.028   2.603  2.8469  1.0549 -0.7405
  818SOL    HW2 3271   1.973   0.926   2.716  0.4564 -0.5811 -1.0552
  818SOL     MW 3272   1.918   0.985   2.680  0.4655  0.5975 -0.4529
  819SOL     OW 3273   1.938   0.230   2.321  0.1721 -0.5354  0.0479
  819SOL    HW1 3274   2.030   0.245   2.284  1.0445 -1.3580 -1.7499
  819SOL    HW2 3275   1.952   0.225   2.414 -0.6499  0.7510  1.7203
  819SOL     MW 3276   1.952   0.231   2.328  0.1788 -0.4742  0.0314
  820SOL     OW 3277   2.478   1.731   2.619  0.1398  0.3778  0.2013
  820SOL    HW1 3278   2.497   1.664   2.692  2.7735  1.6752  1.1764
  820SOL    HW2 3279   2.480   1.679   2.542 -0.5932  0.6089  0.7127
  820SOL     MW 3280   2.481   1.715   2.619  0.3906  0.5795  0.3974
  821SOL     OW 3281   2.540   1.328   1.990  0.0779  0.3875 -0.3588
  821SOL    HW1 3282   2.576   1.396   1.932  1.3182  0.4203  1.9612
  821SOL    HW2 3283   2.448   1.333   1.975 -0.7037  3.1594  0.0102
  821SOL     MW 3284   2.532   1.338   1.980  0.1384  0.7576 -0.0040
  822SOL     OW 3285   2.882   2.621   1.436 -0.0721 -0.3650 -0.4140
  822SOL    HW1 3286   2.806   2.667   1.388 -1.1070  0.9842  0.5974
  822SOL    HW2 3287   2.958   2.675   1.423  1.7040  0.0541  0.9415
  822SOL     MW 3288   2.882   2.634   1.428  0.0257 -0.1317 -0.1017
  823SOL     OW 3289   2.363   0.477   1.793 -0.0965  0.6267  0.2656
  823SOL    HW1 3290   2.439   0.439   1.739 -0.7966  1.0632 -3.1250
  823SOL    HW2 3291   2.282   0.440   1.764 -0.1528 -1.9900  2.5225
  823SOL     MW 3292   2.362   0.467   1.782 -0.1963  0.3391  0.1160
  824SOL     OW 3293   2.133   1.352   2.567 -0.4452  0.2587  0.2890
  824SOL    HW1 3294   2.206   1.385   2.505 -0.9077  0.3299  0.7994
  824SOL    HW2 3295   2.094   1.432   2.598  0.1172 -2.0310 -1.8821
  824SOL     MW 3296   2.138   1.367   2.563 -0.4320 -0.0340  0.0699
  825SOL     OW 3297   2.120   2.323   0.361 -0.3601 -0.2349 -0.0966
  825SOL    HW1 3298   2.176   2.329   0.288 -1.0682 -2.0616  2.4921
  825SOL    HW2 3299   2.168   2.341   0.446  1.5283  1.0519  0.1957
  825SOL     MW 3300   2.134   2.326   0.363 -0.2044 -0.3061  0.2835
  826SOL     OW 3301   1.777   2.431   0.444  0.2041  0.0969  0.3866
  826SOL    HW1 3302   1.774   2.367   0.511  0.7758  1.3227  2.0964
  826SOL    HW2 3303   1.836   2.501   0.474  1.8128  1.5258 -0.0276
  826SOL     MW 3304   1.784   2.432   0.457  0.4917  0.4472  0.5576
  827SOL     OW 3305   1.925   2.254   0.874  0.1134  0.0256  0.3359
  827SOL    HW1 3306   1.886   2.252   0.786  0.8390 -0.2728  1.9517
  827SOL    HW2 3307   1.860   2.197   0.914 -1.5706  0.6688 -1.5071
  827SOL     MW 3308   1.911   2.246   0.867 -0.0130  0.0711  0.3059
  828SOL     OW 3309   0.093   2.653   0.523 -0.2672  0.5317 -0.5050
  828SOL    HW1 3310   0.165   2.703   0.562 -0.1841 -1.3144 -1.1388
  828SOL    HW2 3311   0.066   2.699   0.447 -0.6576 -0.0654 -0.1208
  828SOL     MW 3312   0.099   2.666   0.518 -0.3077  0.2093 -0.5379
  829SOL     OW 3313   2.980   2.874   1.179 -0.1882  0.3751 -0.2674
  829SOL    HW1 3314   2.924   2.857   1.109 -1.5346 -1.1248 -1.8505
  829SOL    HW2 3315   3.051   2.814   1.168 -1.6321  0.9361 -0.8432
  829SOL     MW 3316   2.982   2.864   1.168 -0.5563  0.2512 -0.5522
  830SOL     OW 3317   2.500   2.830   1.993  0.7850  0.5390  0.0291
  830SOL    HW1 3318   2.418   2.862   1.945 -3.1934 -2.9621 -1.9467
  830SOL    HW2 3319   2.559   2.793   1.929  1.1628 -0.6461  0.6149
  830SOL     MW 3320   2.497   2.829   1.978  0.3099 -0.0793 -0.1543
  831SOL     OW 3321   2.457   2.429   1.225 -0.1034 -0.1549 -0.5293
  831SOL    HW1 3322   2.437   2.339   1.258 -1.2809 -2.7376 -0.4377
  831SOL    HW2 3323   2.550   2.426   1.189  1.4470 -1.8058  1.3157
  831SOL     MW 3324   2.467   2.417   1.225 -0.0542 -0.7135 -0.2738
  832SOL     OW 3325   2.415   2.108   1.927 -0.2285  0.2182 -0.0468
  832SOL    HW1 3326   2.379   2.190   1.911  0.3604  0.6989 -1.8627
  832SOL    HW2 3327   2.472   2.082   1.851 -0.1367  0.8076  0.5836
  832SOL     MW 3328   2.418   2.115   1.915 -0.1387  0.3594 -0.2032
  833SOL     OW 3329   1.613   2.500   0.793 -0.0232  0.5570 -0.1082
  833SOL    HW1 3330   1.578   2.422   0.842  1.2120 -1.5671  1.9305
  833SOL    HW2 3331   1.545   2.566   0.804  3.1062  0.6272  0.2009
  833SOL     MW 3332   1.600   2.498   0.801  0.5527  0.2860  0.2016
  834SOL     OW 3333   2.215   2.410   0.598  0.7785  0.2544  0.0699
  834SOL    HW1 3334   2.199   2.335   0.653 -0.7646  0.0613  1.2409
  834SOL    HW2 3335   2.305   2.418   0.627 -2.1038 -1.3511  0.4485
  834SOL     MW 3336   2.225   2.401   0.609  0.1946  0.0171  0.2744
  835SOL     OW 3337   1.834   2.618   0.687 -0.4749  0.1041  0.3207
  835SOL    HW1 3338   1.759   2.563   0.728 -2.0749 -1.2248  0.2776
  835SOL    HW2 3339   1.923   2.570   0.704  0.9717 -5.3887  0.9746
  835SOL     MW 3340   1.836   2.604   0.695 -0.4952 -0.7960  0.4013
  836SOL     OW 3341   2.076   2.050   1.772 -0.2931 -0.1473  0.2504
  836SOL    HW1 3342   2.115   1.967   1.792 -0.5395  0.1684  3.2268
  836SOL    HW2 3343   2.126   2.114   1.824  1.8777 -1.3695 -2.1811
  836SOL     MW 3344   2.087   2.048   1.781 -0.0392 -0.2669  0.3223
  837SOL     OW 3345   2.079   0.216   0.666 -0.5605 -0.2290  0.0602
  837SOL    HW1 3346   2.016   0.220   0.594  1.8976 -0.7815  2.2053
  837SOL    HW2 3347   2.153   0.177   0.616 -0.2871  0.9424 -1.8030
  837SOL     MW 3348   2.080   0.211   0.650 -0.2001 -0.1473  0.0974
  838SOL     OW 3349   2.940   2.050   0.907  0.2993  0.3911  0.1419
  838SOL    HW1 3350   2.865   1.994   0.900  0.2078  0.7735 -3.6299
  838SOL    HW2 3351   2.980   2.038   0.994  0.7250  1.0296  1.0284
  838SOL     MW 3352   2.935   2.041   0.918  0.3434  0.5258 -0.2388
  839SOL     OW 3353   1.526   2.432   1.043  0.3412  0.3835  0.4578
  839SOL    HW1 3354   1.528   2.504   1.108 -0.2929  1.8676 -1.9909
  839SOL    HW2 3355   1.570   2.362   1.084 -3.6286  3.6147 -1.2301
  839SOL     MW 3356   1.532   2.433   1.057 -0.2663  1.0056 -0.0880
  840SOL     OW 3357   2.384   2.111   2.317 -0.5905 -0.4639  0.2252
  840SOL    HW1 3358   2.361   2.194   2.278  3.2672 -1.1586  0.5326
  840SOL    HW2 3359   2.430   2.132   2.400 -0.0905  0.9436  0.1628
  840SOL     MW 3360   2.387   2.125   2.323 -0.0155 -0.3699  0.2575
  841SOL     OW 3361   2.277   2.294   0.142 -0.3484  0.7446 -0.3118
  841SOL    HW1 3362   2.276   2.382   0.106 -2.6624  0.5311  2.0949
  841SOL    HW2 3363   2.196   2.254   0.106 -0.9322 -0.6046 -1.2710
  841SOL     MW 3364   2.266   2.300   0.133 -0.7307  0.5384 -0.1208
  842SOL     OW 3365   2.657   1.969   1.464  0.2642  0.1294 -0.3261
  842SOL    HW1 3366   2.611   1.885   1.454 -3.5685  0.7228 -0.8957
  842SOL    HW2 3367   2.663   2.010   1.378  1.3332  0.5569 -0.8672
  842SOL     MW 3368   2.652   1.964   1.451 -0.1005  0.2641 -0.4726
  843SOL     OW 3369   2.685   2.740   1.778 -0.2171 -0.1708  0.4784
  843SOL    HW1 3370   2.763   2.694   1.805 -1.3381  2.0111 -1.0053
  843SOL    HW2 3371   2.640   2.670   1.720  0.3953  0.6500  2.4447
  843SOL     MW 3372   2.689   2.725   1.774 -0.2842  0.2254  0.5420
  844SOL     OW 3373   2.691   2.336   1.106  0.3052  0.3616  0.2842
  844SOL    HW1 3374   2.709   2.370   1.015 -0.5019  2.5824 -0.0513
  844SOL    HW2 3375   2.763   2.349   1.165  1.1971 -1.4361 -0.2172
  844SOL     MW 3376   2.703   2.342   1.102  0.3164  0.4175  0.1737
  845SOL     OW 3377   2.819   2.614   0.272 -0.4600 -0.1107  0.0579
  845SOL    HW1 3378   2.820   2.543   0.344 -0.1306 -0.7322 -0.2917
  845SOL    HW2 3379   2.821   2.698   0.317 -0.6548  0.7838 -3.2680
  845SOL     MW 3380   2.819   2.616   0.287 -0.4422 -0.0747 -0.4270
  846SOL     OW 3381   1.441   2.712   0.783  0.4282 -0.2428  0.1068
  846SOL    HW1 3382   1.497   2.790   0.791  1.6527  0.0985 -1.2878
  846SOL    HW2 3383   1.347   2.747   0.771  0.5196 -0.3339 -2.8768
  846SOL     MW 3384   1.436   2.727   0.782  0.6018 -0.2098 -0.4709
  847SOL     OW 3385   2.423   1.824   0.220  0.3361  0.0839  0.0356
  847SOL    HW1 3386   2.411   1.740   0.255  1.6347  0.5668  2.9386
  847SOL    HW2 3387   2.402   1.819   0.128  1.0437  1.5017  3.4049
  847SOL     MW 3388   2.419   1.812   0.212  0.6008  0.3347  0.8632
  848SOL     OW 3389   2.714   2.100   1.220  0.5290  0.1394  0.6181
  848SOL    HW1 3390   2.699   2.170   1.157 -2.7021  2.8141  1.1491
  848SOL    HW2 3391   2.807   2.081   1.209  1.0152 -2.6914 -0.9267
  848SOL     MW 3392   2.724   2.106   1.211  0.1668  0.1188  0.4843
  849SOL     OW 3393   1.911   2.844   0.842 -0.5243  0.1199  0.7126
  849SOL    HW1 3394   1.882   2.803   0.922  1.1052 -0.2652 -0.8515
  849SOL    HW2 3395   1.914   2.771   0.775 -2.2101 -1.4672 -2.3410
  849SOL     MW 3396   1.908   2.829   0.843 -0.5317 -0.1403  0.1033
  850SOL     OW 3397   2.324   1.940   1.619  0.1565 -0.5922 -0.1118
  850SOL    HW1 3398   2.247   1.928   1.560  1.7260  0.1641 -1.0269
  850SOL    HW2 3399   2.359   2.030   1.594 -0.3330  4.1892  1.9374
  850SOL     MW 3400   2.319   1.950   1.608  0.2990  0.1385  0.0378
  851SOL     OW 3401   2.585   2.220   0.392  0.2767 -0.0646 -0.6913
  851SOL    HW1 3402   2.584   2.186   0.299  2.4027 -1.7643  0.0039
  851SOL    HW2 3403   2.552   2.308   0.399 -1.7238  0.3095  2.1919
  851SOL     MW 3404   2.580   2.227   0.380  0.2933 -0.2395 -0.2192
  852SOL     OW 3405   2.333   2.039   0.357 -0.0396  0.3912  0.2831
  852SOL    HW1 3406   2.376   2.119   0.323 -0.0027  0.6625 -3.3186
  852SOL    HW2 3407   2.368   1.967   0.296  1.9837 -0.4232  0.0447
  852SOL     MW 3408   2.343   2.040   0.345  0.2322  0.3196 -0.2236
  853SOL     OW 3409   2.514   2.404   1.900  0.1589 -0.0838 -0.2352
  853SOL    HW1 3410   2.533   2.453   1.816  0.0114  0.1383 -2.0203
  853SOL    HW2 3411   2.605   2.384   1.931  2.0886 -0.3622 -0.0821
  853SOL     MW 3412   2.529   2.408   1.893  0.3940 -0.0912 -0.4505
  854SOL     OW 3413   2.900   2.265   0.751 -0.3459 -0.2077  0.4003
  854SOL    HW1 3414   2.809   2.243   0.721 -0.0821 -1.3051 -0.6806
  854SOL    HW2 3415   2.925   2.188   0.812 -0.0446  1.2253  0.4786
  854SOL     MW 3416   2.892   2.252   0.755 -0.2713 -0.1634  0.2680
  855SOL     OW 3417   2.833   2.370   0.414  0.2431 -0.0394 -0.2731
  855SOL    HW1 3418   2.756   2.312   0.399  0.0713 -1.2098 -0.1338
  855SOL    HW2 3419   2.907   2.305   0.402  1.3775 -0.7759  0.8544
  855SOL     MW 3420   2.833   2.354   0.410  0.3701 -0.2910 -0.1060
  856SOL     OW 3421   2.086   1.823   0.249 -0.8939  0.3855  0.1286
  856SOL    HW1 3422   1.994   1.836   0.270 -1.4444  1.6428 -0.9537
  856SOL    HW2 3423   2.139   1.882   0.306 -1.0906  0.9767 -0.0640
  856SOL     MW 3424   2.081   1.833   0.259 -0.9925  0.6294 -0.0396
  857SOL     OW 3425   2.481   1.930   0.580  0.3427 -0.2858  0.3275
  857SOL    HW1 3426   2.440   1.968   0.503  0.3352 -0.2157  1.9256
  857SOL    HW2 3427   2.416   1.956   0.649  0.2071  0.9971 -1.7492
  857SOL     MW 3428   2.467   1.939   0.579  0.3238 -0.1073  0.2644
  858SOL     OW 3429   2.935   2.686   1.863  0.8439  0.1213  0.9273
  858SOL    HW1 3430   2.998   2.741   1.907 -0.7954  0.9174  0.0415
  858SOL    HW2 3431   2.974   2.614   1.822 -0.5981  0.0695  0.1215
  858SOL     MW 3432   2.948   2.684   1.864  0.4373  0.2195  0.7041
  859SOL     OW 3433   1.748   2.652   0.985  0.0765  0.1221  0.0725
  859SOL    HW1 3434   1.698   2.626   0.907  2.1457  1.0351  0.8908
  859SOL    HW2 3435   1.774   2.576   1.031  1.2584  0.3210  2.6076
  859SOL     MW 3436   1.745   2.639   0.981  0.5055  0.2688  0.5149
  860SOL     OW 3437   2.651   2.568   0.060  0.3876 -0.2976 -0.0980
  860SOL    HW1 3438   2.697   2.593   0.145  0.8380 -1.5472 -0.4673
  860SOL    HW2 3439   2.629   2.650   0.029 -0.1081 -1.8622  0.8406
  860SOL     MW 3440   2.654   2.582   0.067  0.3816 -0.6689 -0.0229
  861SOL     OW 3441   1.599   2.146   1.178 -0.7593 -0.0851 -0.5349
  861SOL    HW1 3442   1.645   2.183   1.257  3.7947  0.2039 -0.0411
  861SOL    HW2 3443   1.522   2.094   1.210  1.5700  0.7949  3.1188
  861SOL     MW 3444   1.595   2.144   1.193  0.1489  0.0691  0.0123
  862SOL     OW 3445   2.449   1.718   1.460  0.6726  0.7279  0.1786
  862SOL    HW1 3446   2.400   1.793   1.501  2.2914 -1.6339  0.4991
  862SOL    HW2 3447   2.414   1.716   1.370 -2.9481 -1.8526  2.4796
  862SOL     MW 3448   2.438   1.728   1.453  0.4084  0.0758  0.5245
  863SOL     OW 3449   2.877   1.652   0.942 -0.3066 -0.0234 -0.0186
  863SOL    HW1 3450   2.822   1.696   1.005 -1.0147  0.8211 -0.3397
  863SOL    HW2 3451   2.813   1.636   0.870  0.0428  0.7850 -0.2593
  863SOL     MW 3452   2.861   1.656   0.940 -0.3540  0.1947 -0.0927
  864SOL     OW 3453   3.074   1.764   0.773  0.2482  0.2891  0.1211
  864SOL    HW1 3454   3.015   1.772   0.852 -1.7536  2.2280 -1.2265
  864SOL    HW2 3455   3.014   1.762   0.695 -0.0203 -2.1117  0.8720
  864SOL     MW 3456   3.058   1.765   0.773 -0.0513  0.2281  0.0424
  865SOL     OW 3457   2.512   2.157   0.138  0.3502 -0.0667  0.0942
  865SOL    HW1 3458   2.476   2.077   0.112  0.8519  1.2797 -1.4943
  865SOL    HW2 3459   2.429   2.215   0.131 -3.9770  1.7636 -2.3558
  865SOL     MW 3460   2.496   2.154   0.134 -0.1545  0.3524 -0.4386
  866SOL     OW 3461   2.727   2.363   1.530 -0.1835 -0.5611  0.0079
  866SOL    HW1 3462   2.721   2.266   1.529 -0.1493 -3.7358  1.0311
  866SOL    HW2 3463   2.775   2.381   1.454  0.1210  1.2463 -0.3062
  866SOL     MW 3464   2.733   2.353   1.520 -0.1388 -0.7415  0.1015
  867SOL     OW 3465   0.171   2.712   1.726  0.3587  0.5428 -0.0522
  867SOL    HW1 3466   0.237   2.776   1.751 -1.2220  2.6419 -0.3549
  867SOL    HW2 3467   0.106   2.761   1.669 -0.7199  0.0523 -0.7763
  867SOL     MW 3468   0.171   2.727   1.722  0.0078  0.7550 -0.1876
  868SOL     OW 3469   2.734   2.646   0.578 -0.0745 -0.5949 -0.5712
  868SOL    HW1 3470   2.712   2.556   0.545  0.9344  1.0498 -0.2338
  868SOL    HW2 3471   2.671   2.700   0.533 -0.5003 -1.2737  1.0138
  868SOL     MW 3472   2.723   2.642   0.568  0.0024 -0.4675 -0.3175
  869SOL     OW 3473   1.937   2.454   1.081  0.1436 -0.1759 -0.2779
  869SOL    HW1 3474   2.017   2.480   1.033  0.3363 -2.1990 -1.3271
  869SOL    HW2 3475   1.918   2.370   1.032  3.3628  2.4284 -2.0898
  869SOL     MW 3476   1.945   2.446   1.068  0.5938 -0.0992 -0.6554
  870SOL     OW 3477   2.165   0.015   0.462 -0.2221  0.4422  0.1617
  870SOL    HW1 3478   2.230   0.057   0.400  2.9855  0.4470 -3.0648
  870SOL    HW2 3479   2.214  -0.069   0.485  1.8909 -0.3878  0.2751
  870SOL     MW 3480   2.180   0.010   0.457  0.4799  0.3334 -0.2490
  871SOL     OW 3481   2.459   2.046   0.903 -0.7642 -0.2567 -0.0569
  871SOL    HW1 3482   2.383   2.008   0.855 -2.8726  1.9669  0.2179
  871SOL    HW2 3483   2.419   2.134   0.930 -3.0871 -0.9054  0.5215
  871SOL     MW 3484   2.444   2.053   0.900 -1.3489 -0.0489  0.0557
  872SOL     OW 3485   2.108   2.470   1.615 -0.0992 -0.1542  0.1904
  872SOL    HW1 3486   2.064   2.543   1.656  1.4965  0.7897 -0.1497
  872SOL    HW2 3487   2.069   2.475   1.528  1.9864 -3.4491  0.3501
  872SOL     MW 3488   2.097   2.480   1.609  0.3865 -0.4644  0.1666
  873SOL     OW 3489   2.884   2.133   1.835  0.5048  0.1992 -0.4765
  873SOL    HW1 3490   2.862   2.209   1.892  1.2305 -0.1543  1.0814
  873SOL    HW2 3491   2.954   2.162   1.778  2.3765  0.6207 -0.1842
  873SOL     MW 3492   2.890   2.147   1.835  0.8475  0.2082 -0.2324
  874SOL     OW 3493   2.319   1.420   2.383  0.6883 -0.1713 -0.1261
  874SOL    HW1 3494   2.262   1.391   2.307 -0.3444  1.5330  0.4413
  874SOL    HW2 3495   2.381   1.356   2.407 -2.5271  2.3379  0.1779
  874SOL     MW 3496   2.320   1.408   2.376  0.1278  0.3847 -0.0111
  875SOL     OW 3497   2.343   2.297   1.000 -0.6256 -0.5867  0.1518
  875SOL    HW1 3498   2.362   2.365   0.934  0.5164 -1.9965 -0.2905
  875SOL    HW2 3499   2.393   2.331   1.073  1.2186 -3.6030 -0.6952
  875SOL     MW 3500   2.352   2.310   1.001 -0.2316 -1.1707 -0.0183
  876SOL     OW 3501   3.087   2.211   1.303  0.4104  0.3002 -0.3866
  876SOL    HW1 3502   3.131   2.249   1.226  2.3550  0.0185  0.2462
  876SOL    HW2 3503   3.135   2.241   1.375 -0.6363 -2.0279  0.4436
  876SOL     MW 3504   3.099   2.220   1.302  0.5289 -0.0441 -0.1936
  877SOL     OW 3505   0.019   2.790   0.274  0.1764 -0.0565 -0.1311
  877SOL    HW1 3506   0.100   2.843   0.249  2.1795 -0.0762 -1.8749
  877SOL    HW2 3507   0.003   2.730   0.203 -0.9777  0.4601  3.3953
  877SOL     MW 3508   0.028   2.789   0.261  0.2884  0.0090  0.1041
  878SOL     OW 3509   2.260   1.695   1.147  0.0021  0.8768 -0.4580
  878SOL    HW1 3510   2.185   1.681   1.219 -2.4864 -0.0005  1.6958
  878SOL    HW2 3511   2.313   1.620   1.129  1.9580 -0.6987  0.5575
  878SOL     MW 3512   2.257   1.683   1.154 -0.0681  0.5531 -0.0398
  879SOL     OW 3513   2.706   2.450   0.851  0.2352 -0.0565  0.0774
  879SOL    HW1 3514   2.742   2.529   0.892  1.5058  0.9603 -0.7907
  879SOL    HW2 3515   2.786   2.413   0.812 -2.0389 -0.6519  3.1214
  879SOL     MW 3516   2.722   2.456   0.852  0.1028 -0.0009  0.3645
  880SOL     OW 3517   2.596   2.197   0.709  0.4979  0.1680 -0.2128
  880SOL    HW1 3518   2.567   2.126   0.778  1.4723  2.8935  2.5867
  880SOL    HW2 3519   2.574   2.173   0.624  0.5648 -1.9748  1.4565
  880SOL     MW 3520   2.589   2.185   0.707  0.6353  0.2449  0.3768
  881SOL     OW 3521   2.978   2.717   0.706 -0.3468 -0.5192  0.5218
  881SOL    HW1 3522   2.889   2.690   0.665 -2.8644 -0.7368 -0.3889
  881SOL    HW2 3523   3.040   2.679   0.651 -1.6947 -1.5033  0.7702
  881SOL     MW 3524   2.974   2.709   0.693 -0.8568 -0.6778  0.4344
  882SOL     OW 3525   2.247   2.920   1.926 -0.2704  0.0218 -0.4147
  882SOL    HW1 3526   2.259   2.924   1.829  1.3630 -1.6179 -0.0434
  882SOL    HW2 3527   2.202   2.840   1.947 -1.2870 -0.9422 -0.3110
  882SOL     MW 3528   2.243   2.910   1.916 -0.1890 -0.3217 -0.3521
  883SOL     OW 3529   2.455   2.160   1.310 -0.6492  0.3731  0.4910
  883SOL    HW1 3530   2.539   2.126   1.270  1.7830  1.8702  1.2456
  883SOL    HW2 3531   2.378   2.126   1.264  0.2780  0.3854 -2.4901
  883SOL     MW 3532   2.456   2.151   1.299 -0.2059  0.5722  0.1972
  884SOL     OW 3533   1.880   1.866   1.040 -0.1864  0.4799 -0.0421
  884SOL    HW1 3534   1.816   1.943   1.035  1.3130 -0.4411  0.8089
  884SOL    HW2 3535   1.970   1.908   1.033 -0.7106  0.2445 -0.1150
  884SOL     MW 3536   1.884   1.882   1.038 -0.0577  0.3273  0.0606
  885SOL     OW 3537   2.933   2.433   1.708 -0.1749 -0.0478  0.2661
  885SOL    HW1 3538   2.995   2.367   1.672 -0.2351 -0.5480 -0.2029
  885SOL    HW2 3539   2.873   2.454   1.634  0.5393 -0.4292  0.2789
  885SOL     MW 3540   2.933   2.427   1.693 -0.0886 -0.1641  0.2059
  886SOL     OW 3541   2.896   2.385   1.289  0.1748  0.1637  0.1121
  886SOL    HW1 3542   2.959   2.321   1.330  1.9989 -2.2977  0.4290
  886SOL    HW2 3543   2.906   2.474   1.326  3.0968 -0.7804 -1.4569
  886SOL     MW 3544   2.906   2.388   1.299  0.8010 -0.2856 -0.0531
  887SOL     OW 3545   2.321   2.633   1.566  0.7139 -0.4033 -0.5587
  887SOL    HW1 3546   2.342   2.649   1.473  0.0917 -1.0038 -1.4985
  887SOL    HW2 3547   2.252   2.570   1.563 -0.9641 -0.3040 -0.8058
  887SOL     MW 3548   2.315   2.627   1.553  0.4104 -0.4694 -0.7153
  888SOL     OW 3549   2.077   2.185   1.426  0.0965  0.5526 -0.3510
  888SOL    HW1 3550   2.124   2.188   1.342  1.4619  2.6662 -1.5898
  888SOL    HW2 3551   2.136   2.213   1.500  0.2158 -0.2241  1.4747
  888SOL     MW 3552   2.091   2.189   1.425  0.2924  0.7290 -0.2735
  889SOL     OW 3553   2.271   1.935   2.069  0.4862 -0.0836 -0.1023
  889SOL    HW1 3554   2.351   1.903   2.107 -0.7551  1.2586 -0.4444
  889SOL    HW2 3555   2.304   2.001   2.005 -0.9958  0.4707 -2.1467
  889SOL     MW 3556   2.286   1.939   2.065  0.1269  0.1666 -0.4172
  890SOL     OW 3557   0.068   2.352   0.123 -0.4244  0.0876 -0.2432
  890SOL    HW1 3558   0.041   2.446   0.112  0.2795 -0.2354  1.4893
  890SOL    HW2 3559   0.062   2.332   0.214  0.7090  0.4377 -1.4060
  890SOL     MW 3560   0.064   2.362   0.134 -0.1820  0.0912 -0.1680
  891SOL     OW 3561   3.010   1.963   1.198  0.1993 -0.5537  0.2592
  891SOL    HW1 3562   3.088   1.921   1.164  0.8297  3.6024  1.2759
  891SOL    HW2 3563   3.048   2.049   1.231  0.2087 -1.1246 -1.8767
  891SOL     MW 3564   3.025   1.968   1.198  0.2837 -0.0807  0.1115
  892SOL     OW 3565   2.436   2.351   2.736 -0.5277  0.3772 -0.0126
  892SOL    HW1 3566   2.420   2.271   2.797  1.0469  1.9981  0.3345
  892SOL    HW2 3567   2.517   2.394   2.774  2.8371  1.4432 -0.9235
  892SOL     MW 3568   2.445   2.346   2.749  0.1240  0.7317 -0.0870
  893SOL     OW 3569   1.629   2.329   1.393 -0.0949  0.1037 -0.0469
  893SOL    HW1 3570   1.551   2.378   1.405  1.3810  1.0035  1.7244
  893SOL    HW2 3571   1.676   2.351   1.472 -1.1513  2.9812 -1.3215
  893SOL     MW 3572   1.625   2.339   1.405 -0.0395  0.6021  0.0186
  894SOL     OW 3573   2.778   1.981   0.474  0.2685  0.3506  1.2652
  894SOL    HW1 3574   2.695   1.991   0.518  2.9842 -0.3689 -0.7110
  894SOL    HW2 3575   2.763   1.913   0.408 -0.0724 -0.4411  1.5752
  894SOL     MW 3576   2.765   1.974   0.471  0.5818  0.1512  1.0453
  895SOL     OW 3577   2.185   2.151   1.187 -0.1299  0.3551  0.6582
  895SOL    HW1 3578   2.233   2.207   1.119  0.3456  1.3584  1.2713
  895SOL    HW2 3579   2.150   2.074   1.132 -2.9271  1.4852 -2.3668
  895SOL     MW 3580   2.186   2.148   1.171 -0.4362  0.6366  0.3400
  896SOL     OW 3581   2.304   2.806   1.083  1.1117 -0.4925  0.3791
  896SOL    HW1 3582   2.336   2.777   1.172  1.5994 -1.0369 -0.6714
  896SOL    HW2 3583   2.235   2.867   1.098  0.6562 -0.3750  2.3259
  896SOL     MW 3584   2.299   2.811   1.097  1.1160 -0.5488  0.4974
  897SOL     OW 3585   3.098   3.069   3.046  0.9735 -0.8201 -0.6500
  897SOL    HW1 3586   3.133   2.979   3.037  2.1943 -1.1251 -0.8759
  897SOL    HW2 3587   3.021   3.067   2.994  0.6419  0.8102  1.2312
  897SOL     MW 3588   3.092   3.057   3.038  1.0908 -0.6452 -0.4316
  898SOL     OW 3589   2.171   0.189   1.427 -0.8440 -0.0013 -0.1666
  898SOL    HW1 3590   2.132   0.103   1.449 -1.4834  0.2710  0.5557
  898SOL    HW2 3591   2.144   0.217   1.344  2.4609  1.8753  1.5997
  898SOL     MW 3592   2.163   0.181   1.419 -0.4923  0.2822  0.1618
  899SOL     OW 3593   3.009   2.981   0.612  0.5514 -0.5659 -0.2809
  899SOL    HW1 3594   3.012   2.900   0.659 -0.6406 -1.0396 -0.7743
  899SOL    HW2 3595   2.927   3.020   0.653 -0.5714  0.2869 -0.7455
  899SOL     MW 3596   2.999   2.976   0.624  0.2460 -0.5159 -0.4073
  900SOL     OW 3597   0.180   2.368   1.137 -0.0824  0.2993  0.3242
  900SOL    HW1 3598   0.128   2.450   1.132  2.1709  2.6244 -3.9597
  900SOL    HW2 3599   0.159   2.318   1.056  0.6752 -3.1894  0.3277
  900SOL     MW 3600   0.170   2.373   1.126  0.3149  0.1457 -0.2406
  901SOL     OW 3601   1.753   2.872   1.776  0.1902 -0.1766 -0.4071
  901SOL    HW1 3602   1.784   2.787   1.762 -1.0525  2.2691  1.0323
  901SOL    HW2 3603   1.650   2.863   1.765 -3.7588  0.0837  3.0418
  901SOL     MW 3604   1.743   2.860   1.773 -0.4948  0.1804  0.2379
  902SOL     OW 3605   2.614   2.085   1.723 -0.2358  0.1670  0.2488
  902SOL    HW1 3606   2.627   2.039   1.642 -1.7871 -0.4959 -0.1428
  902SOL    HW2 3607   2.699   2.084   1.764  0.9655 -2.2381 -1.0676
  902SOL     MW 3608   2.627   2.079   1.718 -0.2820 -0.2378  0.0234
  903SOL     OW 3609   1.548   2.643   0.542  0.0100  0.7112 -0.0733
  903SOL    HW1 3610   1.641   2.625   0.528 -0.1553 -2.2078 -2.1700
  903SOL    HW2 3611   1.537   2.687   0.625 -2.9908 -1.5781  0.5442
  903SOL     MW 3612   1.559   2.646   0.551 -0.4077  0.0240 -0.2685
  904SOL     OW 3613   2.561   2.533   1.660 -0.1905  0.1947  0.7026
  904SOL    HW1 3614   2.475   2.558   1.612 -1.1437  1.4196 -0.2557
  904SOL    HW2 3615   2.615   2.473   1.600 -1.2001  1.5345 -1.0143
  904SOL     MW 3616   2.557   2.528   1.646 -0.4495  0.5331  0.3496
  905SOL     OW 3617   2.335   2.509   2.082  0.0115 -0.0360 -0.0133
  905SOL    HW1 3618   2.410   2.466   2.037  2.6214 -0.7268  2.2330
  905SOL    HW2 3619   2.306   2.433   2.139 -1.4593  1.2897  2.3085
  905SOL     MW 3620   2.341   2.493   2.083  0.1618  0.0478  0.5894
  906SOL     OW 3621   2.427   2.483   0.777 -0.8386 -0.6990  0.4028
  906SOL    HW1 3622   2.513   2.445   0.780 -1.6690  0.7354 -0.3343
  906SOL    HW2 3623   2.427   2.575   0.800 -1.8156  0.9228  1.1771
  906SOL     MW 3624   2.438   2.490   0.781 -1.0771 -0.2958  0.4077
  907SOL     OW 3625   2.673   2.736   1.329 -0.6764 -0.5123  0.5408
  907SOL    HW1 3626   2.707   2.815   1.372 -1.1113 -2.6522 -3.1855
  907SOL    HW2 3627   2.670   2.769   1.237  0.8943  4.1884 -1.8803
  907SOL     MW 3628   2.677   2.751   1.322 -0.5265 -0.1744 -0.2703
  908SOL     OW 3629   2.681   2.318   3.068 -0.0189 -0.1982  0.0594
  908SOL    HW1 3630   2.617   2.267   3.107 -0.7547 -1.6762  0.4607
  908SOL    HW2 3631   2.672   2.400   3.118 -0.1519  0.0880  0.0819
  908SOL     MW 3632   2.671   2.322   3.080 -0.1335 -0.3555  0.1153
  909SOL     OW 3633   1.710   0.100   1.307  0.1725 -0.1857 -0.4796
  909SOL    HW1 3634   1.676   0.192   1.319  0.9422 -0.8490  0.3084
  909SOL    HW2 3635   1.682   0.055   1.395  0.1060  2.6557  0.1131
  909SOL     MW 3636   1.702   0.106   1.320  0.2653  0.1017 -0.2974
  910SOL     OW 3637   2.133   1.639   0.433 -0.0446  0.0799  0.7517
  910SOL    HW1 3638   2.108   1.549   0.408  2.6188  1.9875  0.7913
  910SOL    HW2 3639   2.104   1.690   0.352 -0.6067 -1.0940  0.2459
  910SOL     MW 3640   2.126   1.634   0.419  0.2327  0.1767  0.6902
  911SOL     OW 3641   2.396   2.211   1.572 -0.2708 -0.1719  0.2523
  911SOL    HW1 3642   2.474   2.220   1.626 -0.2350 -0.4584 -1.2947
  911SOL    HW2 3643   2.425   2.205   1.487 -3.0184 -0.8542 -0.0553
  911SOL     MW 3644   2.410   2.211   1.568 -0.6286 -0.2997  0.0076
  912SOL     OW 3645   2.936   1.852   1.435 -0.1380 -0.3481  0.2492
  912SOL    HW1 3646   2.944   1.887   1.340  0.0852 -1.2471 -0.9743
  912SOL    HW2 3647   2.886   1.919   1.478  0.5976  1.5951  0.0575
  912SOL     MW 3648   2.931   1.865   1.428 -0.0115 -0.2103  0.0625
  913SOL     OW 3649   2.686   0.015   0.313 -0.2707 -0.7364 -0.2570
  913SOL    HW1 3650   2.777  -0.019   0.316 -1.1781 -0.9746 -0.5410
  913SOL    HW2 3651   2.638  -0.053   0.268  1.0292 -0.9790  1.2412
  913SOL     MW 3652   2.691   0.002   0.307 -0.2189 -0.7999 -0.0968
  914SOL     OW 3653   2.637   1.777   3.040  0.3234 -0.2621  0.5170
  914SOL    HW1 3654   2.699   1.851   3.019  0.4588 -1.1098  0.4250
  914SOL    HW2 3655   2.555   1.824   3.069 -1.0182 -0.9954 -0.5653
  914SOL     MW 3656   2.634   1.793   3.041  0.1642 -0.4707  0.3621
  915SOL     OW 3657   1.791   0.110   0.168  0.1112  0.3284  0.1313
  915SOL    HW1 3658   1.868   0.048   0.191  1.7622  0.3441  0.1848
  915SOL    HW2 3659   1.714   0.058   0.199  1.4768  3.1428  0.4165
  915SOL     MW 3660   1.791   0.095   0.175  0.5092  0.7018  0.1760
  916SOL     OW 3661   1.788   2.145   1.981 -0.2428 -0.8180  0.2578
  916SOL    HW1 3662   1.812   2.230   1.943 -1.8983 -1.7842  0.4509
  916SOL    HW2 3663   1.844   2.087   1.928  0.8581 -1.4538 -1.6817
  916SOL     MW 3664   1.799   2.148   1.969 -0.3160 -1.0294  0.0274
  917SOL     OW 3665   2.519   2.193   2.530 -0.1841 -0.2240 -0.0280
  917SOL    HW1 3666   2.480   2.250   2.598 -3.1759  2.6595 -0.2390
  917SOL    HW2 3667   2.579   2.250   2.485  1.1113 -0.0051 -1.4156
  917SOL     MW 3668   2.522   2.208   2.533 -0.4079  0.1854 -0.2389
  918SOL     OW 3669   2.039   1.614   2.682 -0.2995 -0.2767 -0.1297
  918SOL    HW1 3670   1.962   1.616   2.623  0.1796 -2.1416 -0.7605
  918SOL    HW2 3671   2.091   1.696   2.657 -2.1407 -0.2819 -3.5979
  918SOL     MW 3672   2.036   1.625   2.671 -0.4792 -0.5234 -0.6705
  919SOL     OW 3673   3.042   2.397   2.293  0.2700 -0.1682 -0.0592
  919SOL    HW1 3674   2.972   2.339   2.260  2.9872 -0.0545  2.9703
  919SOL    HW2 3675   3.103   2.411   2.221 -0.0501 -0.0721 -2.7833
  919SOL     MW 3676   3.041   2.392   2.279  0.5863 -0.1405 -0.0189
  920SOL     OW 3677   2.596   2.860   3.042 -0.4147  0.3091 -0.7161
  920SOL    HW1 3678   2.520   2.798   3.037  0.9663 -1.4302 -0.8147
  920SOL    HW2 3679   2.657   2.825   2.977 -0.6112  4.1707 -0.0735
  920SOL     MW 3680   2.594   2.847   3.033 -0.2584  0.5891 -0.6443
  921SOL     OW 3681   2.419   2.584   2.599 -0.3557 -0.3044 -0.0685
  921SOL    HW1 3682   2.497   2.568   2.546 -1.1366 -0.4283  0.9980
  921SOL    HW2 3683   2.422   2.519   2.668 -1.5554  1.3205 -0.3452
  921SOL     MW 3684   2.430   2.573   2.601 -0.6170 -0.1064  0.0357
  922SOL     OW 3685   2.088   2.637   0.407 -0.2637  0.5145 -0.0614
  922SOL    HW1 3686   2.137   2.635   0.324  2.3078  0.0061 -1.3582
  922SOL    HW2 3687   2.108   2.545   0.447  1.7235 -0.3784 -0.7123
  922SOL     MW 3688   2.097   2.624   0.401  0.3378  0.3296 -0.3184
  923SOL     OW 3689   2.222   2.878   1.655 -0.0713 -0.6434 -0.1429
  923SOL    HW1 3690   2.278   2.801   1.641 -0.7290 -0.4937  0.6693
  923SOL    HW2 3691   2.185   2.908   1.571  2.3945 -0.3231 -0.9743
  923SOL     MW 3692   2.224   2.872   1.642  0.1673 -0.5814 -0.1455
  924SOL     OW 3693   1.078   2.714   2.619 -0.3028  0.5931 -0.1875
  924SOL    HW1 3694   1.173   2.714   2.611 -1.9699  0.9749 -1.4104
  924SOL    HW2 3695   1.058   2.637   2.672 -3.0623 -0.6745 -0.4075
  924SOL     MW 3696   1.088   2.704   2.625 -0.8868  0.4762 -0.3779
  925SOL     OW 3697   3.001   0.142   2.622 -0.4106  0.0643  0.4338
  925SOL    HW1 3698   2.942   0.136   2.550  0.3144  1.8768 -3.7543
  925SOL    HW2 3699   2.963   0.221   2.666  0.7088 -1.2360  1.1688
  925SOL     MW 3700   2.988   0.152   2.619 -0.1672  0.1319 -0.0218
  926SOL     OW 3701   2.807   2.414   1.951 -0.4444 -0.0686  0.2127
  926SOL    HW1 3702   2.811   2.495   1.991  0.3496 -2.2079 -0.9195
  926SOL    HW2 3703   2.847   2.422   1.864  0.3910 -0.0322  0.3296
  926SOL     MW 3704   2.813   2.425   1.945 -0.2294 -0.3461  0.0788
  927SOL     OW 3705   2.366   0.119   0.298 -0.2374  0.2453 -0.2598
  927SOL    HW1 3706   2.448   0.138   0.341 -2.5269  0.4348 -0.1796
  927SOL    HW2 3707   2.383   0.096   0.206 -2.8006 -1.1605  3.0186
  927SOL     MW 3708   2.379   0.118   0.292 -0.8777  0.0849  0.1833
  928SOL     OW 3709   2.162   2.322   1.860  0.0511  0.4233 -0.0004
  928SOL    HW1 3710   2.185   2.355   1.771  2.6877  2.1182  2.8916
  928SOL    HW2 3711   2.213   2.381   1.913 -1.4559 -0.7017 -0.4122
  928SOL     MW 3712   2.172   2.334   1.855  0.2002  0.4985  0.3269
  929SOL     OW 3713   2.725   2.349   2.445 -0.3888  0.1956 -0.8113
  929SOL    HW1 3714   2.765   2.301   2.372  0.6605 -1.1671  0.0542
  929SOL    HW2 3715   2.786   2.330   2.519  2.1597 -1.4838  1.1421
  929SOL     MW 3716   2.738   2.340   2.445  0.0859 -0.2058 -0.4394
  930SOL     OW 3717   2.033   2.845   2.668  0.8292 -0.2729  0.3937
  930SOL    HW1 3718   2.043   2.770   2.723 -2.3835 -0.1248 -0.0244
  930SOL    HW2 3719   2.123   2.889   2.661  1.2223  1.4805 -1.4962
  930SOL     MW 3720   2.046   2.841   2.674  0.4572 -0.0220  0.0892
  931SOL     OW 3721   0.040   2.766   2.448 -0.1634 -0.2960 -0.0556
  931SOL    HW1 3722   0.019   2.833   2.525  4.4632  0.4763  0.5638
  931SOL    HW2 3723   0.137   2.773   2.437 -2.2229 -1.6826 -0.9968
  931SOL     MW 3724   0.050   2.776   2.457  0.1753 -0.3771 -0.0980
  932SOL     OW 3725   2.772   2.043   2.443 -0.8570 -0.0655  0.2784
  932SOL    HW1 3726   2.860   2.041   2.483  0.9967  0.6451 -1.3017
  932SOL    HW2 3727   2.783   2.034   2.347 -2.5946  0.4558 -0.0479
  932SOL     MW 3728   2.785   2.041   2.436 -0.8417  0.0971  0.0269
  933SOL     OW 3729   2.094   2.770   2.221 -0.3632 -0.0416  0.0736
  933SOL    HW1 3730   2.165   2.811   2.265 -0.3955  1.1074 -5.2089
  933SOL    HW2 3731   2.033   2.847   2.205  3.1478 -2.1312  1.3588
  933SOL     MW 3732   2.096   2.786   2.225  0.0958 -0.1657 -0.4538
  934SOL     OW 3733   2.012   2.669   2.457 -0.2692 -0.5826 -0.1433
  934SOL    HW1 3734   2.002   2.737   2.518 -0.0778  0.0183  0.7646
  934SOL    HW2 3735   2.037   2.717   2.373  1.5581  1.5177 -1.6301
  934SOL     MW 3736   2.014   2.684   2.454 -0.0029 -0.2262 -0.2196
  935SOL     OW 3737   2.637   1.497   1.805 -0.1269  0.5627  0.8263
  935SOL    HW1 3738   2.735   1.479   1.800  2.1830 -1.1129  0.8671
  935SOL    HW2 3739   2.607   1.486   1.714  0.0377 -2.2361  2.0878
  935SOL     MW 3740   2.646   1.493   1.792  0.1996 -0.0277  0.9981
  936SOL     OW 3741   2.926   2.210   0.019  0.1600  0.1780  0.1370
  936SOL    HW1 3742   2.987   2.280   0.057  1.0065 -0.1696 -0.0351
  936SOL    HW2 3743   2.850   2.254  -0.011 -1.0290  1.0028 -3.3298
  936SOL     MW 3744   2.924   2.225   0.020  0.1148  0.2410 -0.3431
  937SOL     OW 3745   1.906   2.130   2.612  0.5301 -0.4399  0.0498
  937SOL    HW1 3746   1.991   2.112   2.657  0.1439 -1.8110 -0.0983
  937SOL    HW2 3747   1.926   2.155   2.521  1.5422 -1.3069 -0.6362
  937SOL     MW 3748   1.920   2.131   2.606  0.6127 -0.7352 -0.0602
  938SOL     OW 3749   2.226   1.803   1.835 -0.3643  0.3362  0.1399
  938SOL    HW1 3750   2.278   1.847   1.769  1.5422  4.3984 -0.8849
  938SOL    HW2 3751   2.226   1.852   1.916  1.8735  1.1868 -0.5931
  938SOL     MW 3752   2.233   1.815   1.837  0.1825  0.9844 -0.0920
  939SOL     OW 3753   2.789   1.978   2.173 -0.2187  0.0912 -0.8554
  939SOL    HW1 3754   2.829   1.929   2.101 -1.3381 -0.4340 -1.6506
  939SOL    HW2 3755   2.702   1.944   2.191 -0.5901  0.5809 -2.9990
  939SOL     MW 3756   2.783   1.967   2.166 -0.4154  0.0865 -1.2432
  940SOL     OW 3757   2.213   0.081   2.769  0.7848 -0.1235  0.2412
  940SOL    HW1 3758   2.220  -0.013   2.738 -1.6937 -0.3678 -2.2586
  940SOL    HW2 3759   2.283   0.105   2.827  0.6266 -0.5803 -0.8007
  940SOL     MW 3760   2.223   0.072   2.773  0.4369 -0.2160 -0.2261
  941SOL     OW 3761   0.122   2.451   2.067 -0.2632  0.0954 -0.7592
  941SOL    HW1 3762   0.207   2.395   2.085  1.0055  0.2694  1.4925
  941SOL    HW2 3763   0.112   2.446   1.975 -0.2831  0.8246  1.3326
  941SOL     MW 3764   0.132   2.443   2.057 -0.0985  0.2146 -0.1861
  942SOL     OW 3765   2.799   2.257   2.172 -0.4009  0.1102 -0.0700
  942SOL    HW1 3766   2.796   2.321   2.097 -2.0181 -1.1603  3.0018
  942SOL    HW2 3767   2.768   2.166   2.156 -1.0705  2.2150  2.4778
  942SOL     MW 3768   2.794   2.253   2.160 -0.7026  0.2203  0.6715
  943SOL     OW 3769   0.347   2.172   2.258  0.2510  0.5337  0.4651
  943SOL    HW1 3770   0.261   2.183   2.293 -1.6605 -2.0401  2.2246
  943SOL    HW2 3771   0.404   2.145   2.330  1.2646  0.5356  0.4196
  943SOL     MW 3772   0.343   2.170   2.272  0.1325  0.1943  0.6912
  944SOL     OW 3773   2.130   2.656   1.983 -0.3151  0.5842  0.1153
  944SOL    HW1 3774   2.208   2.607   2.006 -2.1326 -0.8346 -0.6375
  944SOL    HW2 3775   2.086   2.682   2.071  1.9123  1.8319 -0.8019
  944SOL     MW 3776   2.134   2.653   1.998 -0.2610  0.5616 -0.1051
  945SOL     OW 3777   2.745   2.681   2.882 -0.0526 -0.5344  0.3441
  945SOL    HW1 3778   2.722   2.581   2.865 -2.6206  0.4282  0.5580
  945SOL    HW2 3779   2.740   2.722   2.791  1.6397 -1.3738  0.3119
  945SOL     MW 3780   2.741   2.673   2.868 -0.1681 -0.5181  0.3681
  946SOL     OW 3781   2.442   2.720   2.239  0.3277  0.3707 -0.2739
  946SOL    HW1 3782   2.482   2.752   2.167 -0.1166 -3.2407  2.0135
  946SOL    HW2 3783   2.394   2.643   2.199  0.0157 -0.6232  0.6010
  946SOL     MW 3784   2.441   2.714   2.224  0.2279 -0.2370  0.1433
  947SOL     OW 3785   2.038   3.036   0.208  0.0291 -0.7107 -0.2405
  947SOL    HW1 3786   2.063   2.951   0.181 -2.5634  2.3664 -3.0346
  947SOL    HW2 3787   2.066   3.043   0.306 -0.4187  0.4530  1.4573
  947SOL     MW 3788   2.045   3.026   0.217 -0.3720 -0.1512 -0.3852
  948SOL     OW 3789   1.819   3.039   2.634 -0.0712  0.1100 -0.3130
  948SOL    HW1 3790   1.862   2.951   2.638  2.8972  0.2139  1.2109
  948SOL    HW2 3791   1.776   3.047   2.547 -0.1870 -1.4910 -1.0977
  948SOL     MW 3792   1.819   3.028   2.623  0.3052 -0.0875 -0.2155
  949SOL     OW 3793   2.515   1.885   2.224  0.1924  0.3560 -0.5157
  949SOL    HW1 3794   2.508   1.810   2.283 -0.1563  0.4694  1.2947
  949SOL    HW2 3795   2.469   1.957   2.269 -2.5083  0.1464 -0.0929
  949SOL     MW 3796   2.508   1.884   2.238 -0.2099  0.3433 -0.2210
  950SOL     OW 3797   2.295   2.448   2.950  0.1492  0.0628 -0.2602
  950SOL    HW1 3798   2.338   2.396   2.882 -4.0807 -1.7076  0.3129
  950SOL    HW2 3799   2.208   2.477   2.912 -1.8106  1.2521 -2.4014
  950SOL     MW 3800   2.290   2.445   2.936 -0.6675 -0.0138 -0.4671
  951SOL     OW 3801   3.017   2.225   2.868  0.1276 -0.0038 -0.0809
  951SOL    HW1 3802   2.972   2.189   2.943 -0.5756  0.3905 -3.1438
  951SOL    HW2 3803   3.085   2.269   2.910 -0.7080  0.4878  1.0063
  951SOL     MW 3804   3.020   2.226   2.884 -0.0755  0.1131 -0.3415
  952SOL     OW 3805   3.060   1.733   2.119  0.1075  0.0507  0.2986
  952SOL    HW1 3806   3.014   1.773   2.042 -0.6271 -0.9638 -1.3130
  952SOL    HW2 3807   3.132   1.798   2.137  0.5493  1.2826 -2.2097
  952SOL     MW 3808   3.063   1.747   2.111  0.0689  0.0793 -0.2450
  953SOL     OW 3809   1.912   1.771   2.884 -0.2268 -0.1426 -0.7132
  953SOL    HW1 3810   1.829   1.729   2.911 -2.8746 -0.6320 -0.2186
  953SOL    HW2 3811   1.952   1.703   2.829 -0.1025  0.7240 -0.2678
  953SOL     MW 3812   1.906   1.757   2.880 -0.5597 -0.0928 -0.5892
  954SOL     OW 3813   2.408   2.118   2.851  0.2537 -1.0222 -0.8356
  954SOL    HW1 3814   2.320   2.087   2.826  0.6260 -0.3875 -0.5962
  954SOL    HW2 3815   2.473   2.072   2.790  0.0979  2.5402 -1.7270
  954SOL     MW 3816   2.405   2.108   2.840  0.2823 -0.4684 -0.9216
  955SOL     OW 3817   1.571   1.545   2.568 -0.4746  0.3184 -0.0472
  955SOL    HW1 3818   1.535   1.527   2.480  1.8160  2.4029  3.7366
  955SOL    HW2 3819   1.664   1.565   2.549  0.7461  1.2011  1.5829
  955SOL     MW 3820   1.578   1.545   2.554 -0.0114  0.7099  0.6671
  956SOL     OW 3821   2.686   2.420   2.820  0.0375 -0.7920  0.2147
  956SOL    HW1 3822   2.704   2.387   2.905 -0.2975  0.8482 -0.6270
  956SOL    HW2 3823   2.738   2.369   2.756 -3.1420  2.2652 -1.2529
  956SOL     MW 3824   2.695   2.409   2.823 -0.4262 -0.1722 -0.0900
  957SOL     OW 3825   2.273   2.841   0.539  0.0309 -0.3681  0.2825
  957SOL    HW1 3826   2.228   2.771   0.498  2.0626 -0.9344 -1.2331
  957SOL    HW2 3827   2.273   2.824   0.632  0.7086  4.0804 -2.7168
  957SOL     MW 3828   2.267   2.830   0.546  0.3884  0.1441 -0.3132
  958SOL     OW 3829   2.070   2.552   2.852 -0.3890  0.2527  0.0061
  958SOL    HW1 3830   2.028   2.484   2.800  1.5145  2.3962 -0.0611
  958SOL    HW2 3831   2.028   2.535   2.942 -0.0151 -0.9787  0.3947
  958SOL     MW 3832   2.059   2.541   2.857 -0.0885  0.3730  0.0485
  959SOL     OW 3833   2.541   2.758   0.424  0.0612 -0.2544 -0.0290
  959SOL    HW1 3834   2.534   2.798   0.333  0.6684 -0.1608  0.1061
  959SOL    HW2 3835   2.461   2.786   0.469  2.5477  0.6259  0.6137
  959SOL     MW 3836   2.529   2.767   0.418  0.4694 -0.1259  0.0736
  960SOL     OW 3837   1.911   2.384   2.310 -0.5591  0.0234 -0.0061
  960SOL    HW1 3838   1.930   2.290   2.307  3.0122  0.3399 -0.0911
  960SOL    HW2 3839   1.831   2.389   2.360  0.0351  1.8473  1.6590
  960SOL     MW 3840   1.903   2.372   2.316 -0.0095  0.3058  0.2024
  961SOL     OW 3841   2.220   2.337   2.260 -0.0864  0.0530 -0.8316
  961SOL    HW1 3842   2.136   2.294   2.241 -1.4910  0.4517  0.2537
  961SOL    HW2 3843   2.194   2.373   2.351 -0.8556 -1.0699  1.5394
  961SOL     MW 3844   2.206   2.336   2.269 -0.3732 -0.0426 -0.3756
  962SOL     OW 3845   2.150   2.032   2.791  0.3673  0.2528 -0.5500
  962SOL    HW1 3846   2.096   2.017   2.872  0.5878 -3.9928 -0.7032
  962SOL    HW2 3847   2.183   1.955   2.736  1.1451  0.0037 -1.7886
  962SOL     MW 3848   2.147   2.020   2.794  0.4990 -0.3403 -0.7337
  963SOL     OW 3849   1.841   2.546   2.084  0.1750 -0.5915  0.0912
  963SOL    HW1 3850   1.856   2.487   2.161 -2.4565 -0.8190  2.0589
  963SOL    HW2 3851   1.868   2.491   2.007  2.0902 -1.6418  3.1103
  963SOL     MW 3852   1.847   2.531   2.084  0.0805 -0.7601  0.7492
  964SOL     OW 3853   1.797   1.886   2.653 -0.2948  0.6260 -0.8040
  964SOL    HW1 3854   1.823   1.974   2.629 -3.0017 -2.2746 -1.6644
  964SOL    HW2 3855   1.829   1.858   2.737 -1.7725  0.8509 -0.1484
  964SOL     MW 3856   1.804   1.894   2.661 -0.8469  0.2730 -0.8310
  965SOL     OW 3857   2.142   2.587   0.860 -0.0740 -0.4027  0.4725
  965SOL    HW1 3858   2.175   2.512   0.811 -0.8871 -0.0933  0.2681
  965SOL    HW2 3859   2.219   2.645   0.871  0.2460 -0.4192  0.7470
  965SOL     MW 3860   2.156   2.585   0.855 -0.1391 -0.3641  0.4818
  966SOL     OW 3861   2.661   2.616   2.420 -0.2679  0.0040 -0.8313
  966SOL    HW1 3862   2.601   2.657   2.358 -0.2419  0.5396  3.2468
  966SOL    HW2 3863   2.661   2.521   2.410  0.5171 -1.1463  1.6657
  966SOL     MW 3864   2.653   2.609   2.410 -0.1609 -0.0771  0.0362
  967SOL     OW 3865   2.656   0.048   3.090 -0.0617 -0.3722  0.5296
  967SOL    HW1 3866   2.637  -0.049   3.068  0.4561  0.1376  0.5931
  967SOL    HW2 3867   2.665   0.071   2.999 -0.7736  2.8131 -0.1790
  967SOL     MW 3868   2.654   0.038   3.075 -0.0873  0.1153  0.4445
  968SOL     OW 3869   3.018   2.659   2.925  0.1302 -0.3221  0.3907
  968SOL    HW1 3870   2.929   2.694   2.915  1.2268  1.1004  5.0544
  968SOL    HW2 3871   3.039   2.625   2.838  0.2396 -2.1535 -0.0647
  968SOL     MW 3872   3.009   2.659   2.912  0.2894 -0.3761  0.9460
  969SOL     OW 3873   1.580   2.102   1.732  0.2019  0.0012  0.1056
  969SOL    HW1 3874   1.674   2.088   1.744 -2.1475 -1.1897  0.4169
  969SOL    HW2 3875   1.547   2.143   1.812  1.3639  1.5657 -2.6758
  969SOL     MW 3876   1.588   2.105   1.744  0.0453  0.0505 -0.2203
  970SOL     OW 3877   1.728   1.801   1.862  0.1154 -0.4203 -0.2226
  970SOL    HW1 3878   1.778   1.736   1.909  1.8511 -0.1725  0.4760
  970SOL    HW2 3879   1.639   1.812   1.899  1.3627  0.2737  0.4665
  970SOL     MW 3880   1.723   1.794   1.873  0.5090 -0.2960 -0.0395
  971SOL     OW 3881   1.760   0.001   2.362  0.2873  0.2837  0.1490
  971SOL    HW1 3882   1.809  -0.036   2.283  1.6635  1.9899 -2.3727
  971SOL    HW2 3883   1.784   0.096   2.362 -1.4096 -1.7075 -0.1169
  971SOL     MW 3884   1.770   0.009   2.352  0.2450  0.2461 -0.2188
  972SOL     OW 3885   0.301   2.830   2.410 -0.1294 -0.4294  0.4533
  972SOL    HW1 3886   0.352   2.751   2.422 -2.1667  2.1896 -0.7448
  972SOL    HW2 3887   0.348   2.893   2.467  0.1746  1.4747  1.8668
  972SOL     MW 3888   0.314   2.828   2.419 -0.3581  0.1674  0.4817
  973SOL     OW 3889   2.615   3.021   2.143 -0.1520  0.0090  0.3885
  973SOL    HW1 3890   2.560   2.958   2.090  2.8867  0.0569  3.1899
  973SOL    HW2 3891   2.681   3.058   2.083  0.5317  1.0344 -0.0623
  973SOL     MW 3892   2.617   3.017   2.128  0.3391  0.1506  0.6986
  974SOL     OW 3893   2.009   0.143   2.600  0.2445 -0.3936  0.3550
  974SOL    HW1 3894   2.088   0.131   2.654 -2.0520  1.7065 -0.3651
  974SOL    HW2 3895   1.960   0.061   2.605  1.3187 -0.5035  0.7320
  974SOL     MW 3896   2.013   0.131   2.608  0.0832 -0.1310  0.3097
  975SOL     OW 3897   2.182   2.465   2.506 -0.2892 -0.5748  0.0199
  975SOL    HW1 3898   2.250   2.520   2.538 -0.4546 -0.4747 -1.6781
  975SOL    HW2 3899   2.105   2.521   2.470 -1.3051  2.8986  1.0161
  975SOL     MW 3900   2.181   2.480   2.506 -0.4450 -0.1033 -0.0727
  976SOL     OW 3901   0.170   0.351   1.589 -0.3832 -0.0479 -0.0273
  976SOL    HW1 3902   0.225   0.275   1.614 -1.7103 -0.6726  0.1576
  976SOL    HW2 3903   0.090   0.303   1.568 -0.4108 -2.3894  0.8300
  976SOL     MW 3904   0.167   0.335   1.589 -0.5620 -0.4393  0.1102
  977SOL     OW 3905   1.752   2.743   2.385 -0.5514 -0.1187  0.0746
  977SOL    HW1 3906   1.838   2.698   2.382  3.6059  1.9695  0.6261
  977SOL    HW2 3907   1.773   2.826   2.418  1.5513 -1.8435  1.2397
  977SOL     MW 3908   1.766   2.748   2.389  0.2745 -0.0708  0.3011
   3.10000   3.10000   3.10000
