977 TIP4P/2005f water molecules t=   0.28000 step= 280
 3908
    1SOL     OW    1   0.284   0.748   0.031  0.9615  0.1109  0.6163
    1SOL    HW1    2   0.265   0.782  -0.053  0.5057  0.8442  1.2822
    1SOL    HW2    3   0.286   0.648   0.018 -2.2959 -1.4515  0.8387
    1SOL     MW    4   0.282   0.739   0.018  0.4716  0.0015  0.7335
    2SOL     OW    5   0.353   3.030   1.147 -0.5389  0.1088 -0.1782
    2SOL    HW1    6   0.396   3.100   1.100 -0.6163 -0.8038  1.2941
    2SOL    HW2    7   0.262   3.060   1.157  0.6839  0.6951 -0.6499
    2SOL     MW    8   0.346   3.044   1.142 -0.3878  0.0658 -0.0462
    3SOL     OW    9   2.666   0.402   0.924 -0.5714  0.0724  0.0950
    3SOL    HW1   10   2.676   0.481   0.872  0.4776  2.2283 -2.0162
    3SOL    HW2   11   2.662   0.437   1.011  2.6083  0.7058  0.5058
    3SOL     MW   12   2.667   0.417   0.929 -0.0135  0.4404 -0.1293
    4SOL     OW   13   3.068   1.820   0.630 -0.4064 -0.0740 -0.2412
    4SOL    HW1   14   2.985   1.832   0.589  2.8203 -2.8732 -2.8733
    4SOL    HW2   15   3.125   1.772   0.569  0.1172 -0.3005 -0.1388
    4SOL     MW   16   3.065   1.815   0.616  0.0884 -0.4732 -0.5750
    5SOL     OW   17   1.707   1.433   0.520 -0.3211 -0.6168 -0.0137
    5SOL    HW1   18   1.773   1.404   0.577 -0.7612  0.1134  0.8949
    5SOL    HW2   19   1.624   1.429   0.568  1.2043  1.1495  2.8058
    5SOL     MW   20   1.704   1.429   0.534 -0.1779 -0.2874  0.4782
    6SOL     OW   21   0.873   1.414   0.612 -0.0950  0.1513  0.0062
    6SOL    HW1   22   0.792   1.428   0.663 -1.9390  0.6150 -0.1113
    6SOL    HW2   23   0.900   1.319   0.628  1.3165  0.2293 -0.5191
    6SOL     MW   24   0.866   1.404   0.621 -0.1521  0.2227 -0.0786
    7SOL     OW   25   1.965   1.067   0.023  1.0752 -0.0064  0.6854
    7SOL    HW1   26   1.990   1.122  -0.051 -3.2813 -0.3760 -3.9889
    7SOL    HW2   27   2.018   1.102   0.095  0.0192  0.2282  1.6191
    7SOL     MW   28   1.975   1.079   0.023  0.3610 -0.0242  0.1919
    8SOL     OW   29   1.009   1.309   1.044  0.1970  0.1566 -0.1473
    8SOL    HW1   30   1.098   1.319   1.070 -2.0186  3.5352 -1.1161
    8SOL    HW2   31   0.989   1.218   1.071  2.3572  2.1140 -1.6854
    8SOL     MW   32   1.018   1.298   1.051  0.1897  0.8606 -0.4781
    9SOL     OW   33   1.029   0.475   1.356  0.3862  0.0058 -0.9416
    9SOL    HW1   34   0.951   0.433   1.312  1.4800 -1.5229 -1.4332
    9SOL    HW2   35   1.049   0.430   1.439 -0.2988 -0.6753  1.4898
    9SOL     MW   36   1.021   0.464   1.361  0.4401 -0.2857 -0.6856
   10SOL     OW   37   0.308   0.846   0.469  0.6914 -0.4343 -0.1126
   10SOL    HW1   38   0.397   0.863   0.432 -1.6004 -2.7709  0.4548
   10SOL    HW2   39   0.283   0.893   0.549 -0.3342 -1.6109  0.0578
   10SOL     MW   40   0.317   0.855   0.475  0.2537 -0.8978 -0.0153
   11SOL     OW   41   0.899   1.094   1.594 -0.4309 -0.2941  1.1552
   11SOL    HW1   42   0.865   1.097   1.684 -0.4467  0.5998 -0.1369
   11SOL    HW2   43   0.848   1.016   1.551 -1.3941 -0.6989  1.9729
   11SOL     MW   44   0.888   1.084   1.600 -0.5600 -0.2296  1.0926
   12SOL     OW   45   0.010   1.131   0.840  0.1680  0.7601 -0.1591
   12SOL    HW1   46   0.058   1.189   0.904  0.4432  6.5009  0.6872
   12SOL    HW2   47  -0.056   1.186   0.806  1.0321  0.1313  0.8850
   12SOL     MW   48   0.008   1.146   0.844  0.3183  1.4345  0.0903
   13SOL     OW   49   1.933   1.433   1.406 -0.3385  0.0551 -0.8413
   13SOL    HW1   50   1.968   1.397   1.325 -0.1475 -0.6220 -1.8037
   13SOL    HW2   51   1.890   1.516   1.378 -1.1491 -2.1490 -1.2369
   13SOL     MW   52   1.932   1.439   1.391 -0.4202 -0.3250 -1.0205
   14SOL     OW   53   0.627   0.336   1.769  0.0376 -0.4920  0.8220
   14SOL    HW1   54   0.603   0.265   1.710  1.6888  1.9177 -0.0781
   14SOL    HW2   55   0.699   0.308   1.826  1.3988 -0.7060  0.6352
   14SOL     MW   56   0.633   0.323   1.769  0.4351 -0.2023  0.6786
   15SOL     OW   57   1.986   0.548   0.918  0.1803  0.1307  0.0465
   15SOL    HW1   58   1.997   0.570   1.013 -0.0906  0.6986  0.9379
   15SOL    HW2   59   2.070   0.538   0.872  1.0496  1.9760  1.1434
   15SOL     MW   60   1.999   0.550   0.925  0.2592  0.4491  0.3088
   16SOL     OW   61   0.206   1.784   0.322  0.4252 -0.3301  0.3397
   16SOL    HW1   62   0.288   1.739   0.309 -2.5689  0.5204  0.9751
   16SOL    HW2   63   0.225   1.876   0.342 -1.9502  0.2966  3.7657
   16SOL     MW   64   0.219   1.790   0.323 -0.2833 -0.1352  0.8756
   17SOL     OW   65   1.080   0.821   1.459 -0.1655  0.0839  0.2155
   17SOL    HW1   66   1.109   0.835   1.554  2.5063 -1.4544 -0.8102
   17SOL    HW2   67   0.998   0.767   1.464 -2.6024 -1.4527  0.2148
   17SOL     MW   68   1.073   0.815   1.473 -0.1345 -0.3218  0.0801
   18SOL     OW   69   0.026   1.546   0.414  0.1215  0.1136 -0.2190
   18SOL    HW1   70   0.080   1.594   0.345  0.2827 -0.5358  0.4561
   18SOL    HW2   71   0.014   1.461   0.377  1.5461  0.6412  2.5019
   18SOL     MW   72   0.031   1.541   0.400  0.3307  0.0975  0.2291
   19SOL     OW   73   0.126   1.291   1.024 -0.2543  0.0052  0.0025
   19SOL    HW1   74   0.167   1.332   0.948 -1.7635  1.7649  2.1693
   19SOL    HW2   75   0.049   1.343   1.046 -0.1199  1.2977 -0.9652
   19SOL     MW   76   0.121   1.303   1.017 -0.4357  0.4079  0.1607
   20SOL     OW   77   0.459   2.158   1.296  0.1623 -0.3025  0.2812
   20SOL    HW1   78   0.404   2.094   1.245 -0.2075  2.5610  0.3692
   20SOL    HW2   79   0.390   2.210   1.340  0.1089 -1.3366 -0.6266
   20SOL     MW   80   0.443   2.156   1.295  0.1065 -0.0611  0.1730
   21SOL     OW   81   0.548   0.905   0.355  0.0886 -0.1093 -0.0168
   21SOL    HW1   82   0.601   0.862   0.418 -0.6747  0.9517 -3.6760
   21SOL    HW2   83   0.561   0.854   0.275 -2.1995 -0.2000 -2.6402
   21SOL     MW   84   0.557   0.893   0.353 -0.3140  0.0187 -0.8457
   22SOL     OW   85   1.538   0.552   1.140 -0.8096 -0.4053  0.0128
   22SOL    HW1   86   1.567   0.546   1.046  0.8751 -0.2616  0.1913
   22SOL    HW2   87   1.458   0.600   1.144  0.1636 -3.1605 -0.0354
   22SOL     MW   88   1.531   0.557   1.129 -0.4589 -0.7498  0.0300
   23SOL     OW   89   3.031   0.742   0.741  0.0104  0.3617  0.0140
   23SOL    HW1   90   3.075   0.653   0.743  2.8000 -0.2506 -0.8262
   23SOL    HW2   91   3.099   0.808   0.733 -2.6431 -2.3112  1.5908
   23SOL     MW   92   3.045   0.739   0.740  0.0284 -0.0717  0.1112
   24SOL     OW   93   2.033   2.194   0.035 -0.3969  0.4780 -0.2425
   24SOL    HW1   94   2.002   2.158   0.120 -1.2895  1.8972  2.4802
   24SOL    HW2   95   2.076   2.120  -0.017 -0.9507  0.9972 -0.4955
   24SOL     MW   96   2.034   2.179   0.039 -0.5877  0.7338  0.0834
   25SOL     OW   97   0.257   1.437   0.547  1.0424 -0.4824 -0.2065
   25SOL    HW1   98   0.172   1.468   0.513 -3.3252  1.4911 -0.5350
   25SOL    HW2   99   0.319   1.445   0.475 -0.1183 -0.3873 -0.1400
   25SOL     MW  100   0.254   1.442   0.533  0.3130 -0.2095 -0.2411
   26SOL     OW  101   2.056   0.952   0.389  0.4001 -0.7787  0.5541
   26SOL    HW1  102   1.961   0.945   0.373 -0.5426  0.6510 -0.7222
   26SOL    HW2  103   2.088   1.033   0.336  0.3465  0.9757  0.0641
   26SOL     MW  104   2.048   0.961   0.380  0.2686 -0.3586  0.3211
   27SOL     OW  105   1.977   1.420   0.260  0.3632  0.3555  0.3253
   27SOL    HW1  106   1.901   1.376   0.295  1.1645 -2.4690 -2.1977
   27SOL    HW2  107   2.023   1.469   0.332 -0.2538  2.4823  1.8121
   27SOL     MW  108   1.973   1.421   0.274  0.3875  0.2634  0.1886
   28SOL     OW  109   0.398   0.959   1.883 -0.2233  0.1980  0.6723
   28SOL    HW1  110   0.332   0.916   1.938  0.5224  3.8213  1.7179
   28SOL    HW2  111   0.422   0.896   1.816  1.6510  2.0594 -2.9292
   28SOL     MW  112   0.392   0.945   1.882  0.1224  0.9216  0.3350
   29SOL     OW  113   0.245   1.451   0.820 -0.0813 -0.3206 -0.4959
   29SOL    HW1  114   0.219   1.540   0.850 -0.7110  1.3534  1.7164
   29SOL    HW2  115   0.245   1.456   0.724  2.8584  1.2812 -1.8256
   29SOL     MW  116   0.242   1.464   0.811  0.2235  0.1116 -0.3794
   30SOL     OW  117   0.904   1.023   1.148 -0.1278  0.5699 -0.0031
   30SOL    HW1  118   0.824   1.061   1.189 -1.3291 -1.1543 -2.3313
   30SOL    HW2  119   0.972   1.028   1.221 -1.7100 -0.6589  2.5357
   30SOL     MW  120   0.902   1.029   1.163 -0.4951  0.1803  0.0247
   31SOL     OW  121   0.459   0.276   0.244  0.0771  0.4257  0.4270
   31SOL    HW1  122   0.469   0.181   0.276  0.9295  0.2490 -0.7807
   31SOL    HW2  123   0.467   0.271   0.149  0.8649 -0.8613 -2.5883
   31SOL     MW  124   0.461   0.263   0.236  0.2935  0.2326 -0.1302
   32SOL     OW  125   2.693   1.036   1.119  0.6205  0.3333 -0.2003
   32SOL    HW1  126   2.668   0.944   1.140  1.1184 -0.9497 -0.2772
   32SOL    HW2  127   2.787   1.032   1.094 -2.0235 -0.7162 -0.7529
   32SOL     MW  128   2.702   1.023   1.118  0.3374  0.0256 -0.2834
   33SOL     OW  129   1.748   1.248   0.319 -0.3628 -0.1068 -0.0662
   33SOL    HW1  130   1.766   1.161   0.360  0.8369  0.9003 -1.1964
   33SOL    HW2  131   1.723   1.297   0.398 -1.4872 -0.2080  1.1949
   33SOL     MW  132   1.747   1.243   0.335 -0.3529  0.0127 -0.0489
   34SOL     OW  133   1.244   1.857   1.136 -0.9572  0.2769  0.3298
   34SOL    HW1  134   1.153   1.876   1.160  2.0638  1.9797 -0.0095
   34SOL    HW2  135   1.303   1.885   1.215  0.6463 -0.0500  1.0852
   34SOL     MW  136   1.240   1.863   1.150 -0.3470  0.4584  0.3847
   35SOL     OW  137   0.379   0.061   1.871 -0.1364  0.2817  0.3100
   35SOL    HW1  138   0.398   0.025   1.962 -0.1547  2.5140  1.6619
   35SOL    HW2  139   0.425   0.001   1.805  1.8600 -0.9487 -2.3042
   35SOL     MW  140   0.387   0.048   1.874  0.1246  0.4139  0.1434
   36SOL     OW  141   1.908   1.957   0.556  0.0364  0.3378  0.5637
   36SOL    HW1  142   1.940   1.958   0.464  0.1746  2.7092  1.2642
   36SOL    HW2  143   1.888   1.864   0.573  0.1237  0.1516 -0.3710
   36SOL     MW  144   1.910   1.945   0.546  0.0661  0.6261  0.5328
   37SOL     OW  145   1.741   2.014   0.951 -0.3939  0.6800  0.6138
   37SOL    HW1  146   1.699   1.937   0.915  0.6549  2.2989  2.4885
   37SOL    HW2  147   1.660   2.048   1.006  3.5428  2.0264  0.1138
   37SOL     MW  148   1.725   2.008   0.954  0.2639  1.0713  0.7952
   38SOL     OW  149   2.861   0.948   0.205 -0.1594  0.4368  0.0900
   38SOL    HW1  150   2.898   0.948   0.291 -0.5912 -0.8831 -1.9694
   38SOL    HW2  151   2.919   0.884   0.158  0.4463 -0.7645 -3.0109
   38SOL     MW  152   2.874   0.940   0.210 -0.1365  0.1042 -0.5908
   39SOL     OW  153   1.459   0.694   0.860  0.0572 -0.0854 -0.0102
   39SOL    HW1  154   1.429   0.603   0.881  1.0278 -0.6189 -0.5372
   39SOL    HW2  155   1.437   0.741   0.941  1.2049  0.0422 -1.2622
   39SOL     MW  156   1.452   0.688   0.873  0.3367 -0.1390 -0.2449
   40SOL     OW  157   1.285   1.880   0.270 -0.3932  0.2285 -0.1810
   40SOL    HW1  158   1.303   1.789   0.294  0.6904 -0.5806 -1.1967
   40SOL    HW2  159   1.320   1.924   0.347  1.6794 -1.9069 -0.4810
   40SOL     MW  160   1.292   1.874   0.283  0.0232 -0.1600 -0.3546
   41SOL     OW  161   0.584   0.528   1.586 -0.2486  0.5919  0.1464
   41SOL    HW1  162   0.669   0.563   1.562  2.8097 -0.1249 -2.7399
   41SOL    HW2  163   0.599   0.466   1.657 -0.2618 -1.0548  0.4550
   41SOL     MW  164   0.597   0.524   1.592  0.1532  0.2801 -0.1937
   42SOL     OW  165   1.335   3.069   1.943 -0.1806  0.3615  0.0833
   42SOL    HW1  166   1.245   3.065   1.980  2.6777 -0.3629  0.4063
   42SOL    HW2  167   1.376   2.985   1.979 -3.0738  0.0454  0.4933
   42SOL     MW  168   1.328   3.057   1.953 -0.1852  0.2242  0.1800
   43SOL     OW  169   1.604   0.232   1.597 -0.7695  0.0011  0.1123
   43SOL    HW1  170   1.644   0.173   1.532 -0.9604  0.8199  0.8201
   43SOL    HW2  171   1.530   0.172   1.635 -0.3545  0.1108  0.9904
   43SOL     MW  172   1.599   0.217   1.593 -0.7399  0.1236  0.3216
   44SOL     OW  173   1.324   0.754   1.096 -0.1963 -0.2236  0.5660
   44SOL    HW1  174   1.320   0.847   1.072  1.9018 -0.1721  1.8698
   44SOL    HW2  175   1.298   0.755   1.190 -0.2668  0.1847  2.7791
   44SOL     MW  176   1.320   0.766   1.105  0.0712 -0.1629  1.0300
   45SOL     OW  177   1.102   0.725   0.786  0.6205 -0.9680 -0.4222
   45SOL    HW1  178   1.039   0.735   0.861 -1.0331  0.9019 -0.1072
   45SOL    HW2  179   1.135   0.638   0.784 -0.3406  3.3706 -1.6306
   45SOL     MW  180   1.098   0.715   0.796  0.2755 -0.1489 -0.5401
   46SOL     OW  181   0.589   1.141   0.594 -0.2196  0.8898 -0.1516
   46SOL    HW1  182   0.576   1.167   0.497  0.4013  2.1702 -0.4804
   46SOL    HW2  183   0.662   1.082   0.593 -0.2051  1.3359 -1.1734
   46SOL     MW  184   0.597   1.137   0.581 -0.1357  1.1176 -0.3298
   47SOL     OW  185   0.139   1.931   1.834  0.5110 -0.2016  0.3532
   47SOL    HW1  186   0.195   1.868   1.789 -1.4198  0.9632  2.0458
   47SOL    HW2  187   0.114   1.889   1.917  0.5610 -0.2395 -0.8129
   47SOL     MW  188   0.143   1.917   1.839  0.2629 -0.0529  0.4227
   48SOL     OW  189   1.027   0.654   1.044  0.4129 -0.1758 -0.5000
   48SOL    HW1  190   0.964   0.696   1.104  1.9788  0.0394  0.6426
   48SOL    HW2  191   1.114   0.677   1.059 -0.8244 -1.1724  0.0209
   48SOL     MW  192   1.030   0.663   1.054  0.4563 -0.2789 -0.2805
   49SOL     OW  193   1.881   0.747   1.601  0.4531 -0.3713  0.1578
   49SOL    HW1  194   1.796   0.723   1.655 -0.2789  0.0336 -2.7654
   49SOL    HW2  195   1.924   0.661   1.585 -1.2029 -0.7390 -0.0717
   49SOL     MW  196   1.875   0.733   1.606  0.1380 -0.3664 -0.2581
   50SOL     OW  197   1.293   0.984   0.533 -0.1836 -0.4932 -0.5010
   50SOL    HW1  198   1.276   1.031   0.619 -1.8653  1.6792 -1.6397
   50SOL    HW2  199   1.301   0.895   0.556 -0.2389  3.9030 -1.0313
   50SOL     MW  200   1.292   0.978   0.547 -0.4128  0.3735 -0.7212
   51SOL     OW  201   0.330   2.848   0.941  0.6611  0.0483  0.9857
   51SOL    HW1  202   0.424   2.827   0.939 -1.9329  0.4087 -1.7500
   51SOL    HW2  203   0.330   2.910   1.019  0.0907  0.1668  0.9077
   51SOL     MW  204   0.342   2.854   0.951  0.2436  0.1115  0.6144
   52SOL     OW  205   0.809   1.844   0.386 -0.0408 -0.5404 -0.1198
   52SOL    HW1  206   0.768   1.903   0.447 -0.6926 -0.5463 -1.0171
   52SOL    HW2  207   0.774   1.857   0.297  0.9880 -1.1537  0.5369
   52SOL     MW  208   0.799   1.853   0.382  0.0090 -0.6221 -0.1516
   53SOL     OW  209   0.423   2.053   0.588  0.6697  0.2057 -0.5592
   53SOL    HW1  210   0.360   2.039   0.513  2.3393 -0.7152  2.8518
   53SOL    HW2  211   0.439   2.146   0.600  2.6462  3.6652  0.9170
   53SOL     MW  212   0.417   2.064   0.580  1.1508  0.5406  0.0857
   54SOL     OW  213   2.210   0.820   0.885 -0.3289 -0.3310  1.0093
   54SOL    HW1  214   2.267   0.804   0.809  1.3076  1.4148  1.3228
   54SOL    HW2  215   2.123   0.808   0.850 -0.7055 -0.8896 -1.6000
   54SOL     MW  216   2.206   0.816   0.870 -0.1627 -0.1744  0.7064
   55SOL     OW  217   0.538   1.480   1.562  0.4875  0.8016  0.0650
   55SOL    HW1  218   0.519   1.518   1.477  1.9606  2.5889 -0.2547
   55SOL    HW2  219   0.623   1.433   1.548  0.0330  2.1532  0.5583
   55SOL     MW  220   0.547   1.478   1.549  0.6219  1.2157  0.0879
   56SOL     OW  221   0.544   0.778   0.086  0.1237  0.4896 -0.0904
   56SOL    HW1  222   0.547   0.869   0.044 -1.1804  1.6202  2.3643
   56SOL    HW2  223   0.452   0.760   0.085  2.6960 -2.6535  0.3598
   56SOL     MW  224   0.532   0.788   0.080  0.2910  0.2241  0.2929
   57SOL     OW  225   1.250   1.222   1.173 -0.1734  0.3048 -0.3596
   57SOL    HW1  226   1.343   1.229   1.197  0.7026  0.8761 -1.4556
   57SOL    HW2  227   1.203   1.168   1.242 -0.9755 -2.1862  0.8128
   57SOL     MW  228   1.256   1.216   1.185 -0.1637  0.0515 -0.3495
   58SOL     OW  229   0.698   1.100   1.295 -0.1691  0.4220 -0.0344
   58SOL    HW1  230   0.634   1.162   1.258  1.5706 -1.2817  0.3086
   58SOL    HW2  231   0.654   1.056   1.370  2.2438  1.4010  1.9286
   58SOL     MW  232   0.683   1.103   1.300  0.3788  0.3264  0.2699
   59SOL     OW  233   1.522   1.629   0.273  0.1589  0.4590 -0.0525
   59SOL    HW1  234   1.604   1.598   0.318  0.5362  0.1934  2.5745
   59SOL    HW2  235   1.464   1.641   0.350  1.6704 -1.5231  1.0823
   59SOL     MW  236   1.526   1.627   0.289  0.4081  0.1625  0.4438
   60SOL     OW  237   3.079   0.173   1.621 -0.1001  0.0120 -0.1990
   60SOL    HW1  238   3.016   0.240   1.642 -0.0855 -2.4381 -1.0013
   60SOL    HW2  239   3.026   0.093   1.607  0.1228  1.5313 -0.5480
   60SOL     MW  240   3.064   0.171   1.622 -0.0688 -0.1108 -0.3509
   61SOL     OW  241   2.013   1.509   3.084 -0.3797 -0.0385  0.4434
   61SOL    HW1  242   2.017   1.511   3.180  0.9545 -1.1222  1.8488
   61SOL    HW2  243   2.023   1.425   3.051  0.0668  0.7877 -0.0506
   61SOL     MW  244   2.015   1.498   3.092 -0.1448 -0.0725  0.5636
   62SOL     OW  245   0.595   1.630   0.584 -0.7372 -0.0024  0.3295
   62SOL    HW1  246   0.669   1.619   0.530  2.4424 -2.6482  0.3571
   62SOL    HW2  247   0.586   1.544   0.626 -0.5349  3.4223 -1.3231
   62SOL     MW  248   0.603   1.617   0.582 -0.2910  0.1004  0.1151
   63SOL     OW  249   1.718   0.715   0.686  0.3453  0.5403 -0.7986
   63SOL    HW1  250   1.669   0.726   0.605 -2.1213 -2.4228  0.5015
   63SOL    HW2  251   1.665   0.747   0.758  0.5718 -0.7943  0.7552
   63SOL     MW  252   1.704   0.721   0.685  0.0497 -0.0267 -0.4220
   64SOL     OW  253   0.249   1.702   0.977 -0.5104 -0.3637 -0.7925
   64SOL    HW1  254   0.317   1.737   0.926  1.4916  2.1838  0.5626
   64SOL    HW2  255   0.165   1.729   0.939  1.5713  0.1529  2.0807
   64SOL     MW  256   0.247   1.710   0.965  0.0284  0.0406 -0.2346
   65SOL     OW  257   1.536   2.267   0.327  0.6692  1.0816  0.3819
   65SOL    HW1  258   1.607   2.241   0.261 -0.9037 -2.2728 -2.3495
   65SOL    HW2  259   1.568   2.323   0.393 -0.8866 -1.1343 -0.8105
   65SOL     MW  260   1.549   2.271   0.327  0.2564  0.3466 -0.1358
   66SOL     OW  261   0.311   0.567   0.511 -0.2570 -0.9081 -0.0144
   66SOL    HW1  262   0.377   0.516   0.466  1.9133  2.2226 -2.8355
   66SOL    HW2  263   0.335   0.657   0.495 -1.7666 -1.9612  0.1410
   66SOL     MW  264   0.323   0.572   0.503 -0.1698 -0.6340 -0.3661
   67SOL     OW  265   1.541   0.176   2.034  0.2797 -0.9514 -0.0257
   67SOL    HW1  266   1.545   0.245   1.962  0.2257  3.7763  1.2319
   67SOL    HW2  267   1.466   0.116   2.006 -0.5969  0.6279 -0.2003
   67SOL     MW  268   1.532   0.177   2.021  0.1569 -0.1193  0.1172
   68SOL     OW  269   0.639   0.072   2.966  0.0889  0.4897 -0.3252
   68SOL    HW1  270   0.612   0.082   2.876 -3.3916 -1.0952  1.0045
   68SOL    HW2  271   0.648   0.158   3.000 -2.8592 -1.9686 -1.3011
   68SOL     MW  272   0.637   0.085   2.958 -0.7593 -0.0437 -0.2785
   69SOL     OW  273   1.067   0.189   1.961 -0.5856  0.2667 -0.2467
   69SOL    HW1  274   1.157   0.203   1.988  0.0999  0.1440  0.2599
   69SOL    HW2  275   1.040   0.098   1.976 -3.7088  3.0740 -3.7679
   69SOL     MW  276   1.075   0.179   1.967 -0.9072  0.6209 -0.6445
   70SOL     OW  277   0.592   1.813   1.118  0.4470 -0.1983 -0.2843
   70SOL    HW1  278   0.608   1.720   1.138  1.7834 -1.8270 -1.0337
   70SOL    HW2  279   0.664   1.832   1.053 -0.5591 -0.4322  2.7049
   70SOL     MW  280   0.603   1.803   1.112  0.4906 -0.4440  0.0112
   71SOL     OW  281   1.763   0.698   1.236  0.1069 -0.0328 -0.0135
   71SOL    HW1  282   1.744   0.722   1.327 -0.3438  0.7683 -1.0287
   71SOL    HW2  283   1.684   0.656   1.206 -0.8895 -2.2232 -0.6962
   71SOL     MW  284   1.750   0.696   1.244 -0.0841 -0.2161 -0.2375
   72SOL     OW  285   0.820   1.818   0.988  0.1216 -0.6034 -0.3569
   72SOL    HW1  286   0.818   1.888   0.921 -1.7800  0.8237 -0.4371
   72SOL    HW2  287   0.842   1.734   0.946 -2.5721  0.3928 -1.6576
   72SOL     MW  288   0.822   1.816   0.973 -0.4847 -0.2837 -0.5391
   73SOL     OW  289   1.281   0.664   1.348 -0.6350 -0.2533 -0.1281
   73SOL    HW1  290   1.248   0.576   1.356 -2.3844  0.4216 -2.0643
   73SOL    HW2  291   1.204   0.712   1.382  1.2676  1.3846 -2.2217
   73SOL     MW  292   1.267   0.658   1.354 -0.6148  0.0518 -0.6598
   74SOL     OW  293   2.762   0.124   1.015  0.3501  0.4349  0.0039
   74SOL    HW1  294   2.796   0.040   0.983  1.8303 -1.0316  0.0425
   74SOL    HW2  295   2.766   0.187   0.943 -3.1647 -0.7963  0.5614
   74SOL     MW  296   2.767   0.122   1.001  0.0816  0.0790  0.0826
   75SOL     OW  297   1.628   1.317   0.083 -0.3899  0.3796 -0.3060
   75SOL    HW1  298   1.684   1.302   0.162 -1.7680 -1.0609 -0.1002
   75SOL    HW2  299   1.642   1.235   0.044 -2.0685 -0.1633  1.7583
   75SOL     MW  300   1.637   1.304   0.089 -0.7932  0.1179 -0.0065
   76SOL     OW  301   2.919   0.669   0.472  0.0314 -0.1288 -0.3679
   76SOL    HW1  302   2.952   0.684   0.561  0.2189 -0.0269  1.2464
   76SOL    HW2  303   3.000   0.639   0.423  0.6264  1.8582 -0.5572
   76SOL     MW  304   2.934   0.667   0.477  0.1346  0.1468 -0.1799
   77SOL     OW  305   0.899   0.411   0.517  0.3175  0.2751 -0.3356
   77SOL    HW1  306   0.842   0.486   0.540 -1.7787  0.4357 -0.0914
   77SOL    HW2  307   0.827   0.342   0.497  1.6003 -1.0864  1.6025
   77SOL     MW  308   0.882   0.412   0.517  0.2102  0.1166 -0.0477
   78SOL     OW  309   0.803   0.761   1.201 -0.7151 -0.3887 -0.1865
   78SOL    HW1  310   0.724   0.759   1.157 -0.4596  0.2533  2.9764
   78SOL    HW2  311   0.835   0.850   1.181 -3.0484  0.6672 -0.0498
   78SOL     MW  312   0.797   0.773   1.193 -0.9893 -0.1647  0.2489
   79SOL     OW  313   1.855   1.669   0.597  0.7076  0.6499  0.0100
   79SOL    HW1  314   1.797   1.608   0.559  2.6211  0.5334  0.4675
   79SOL    HW2  315   1.835   1.677   0.688  1.6956 -0.6411  1.0554
   79SOL     MW  316   1.844   1.662   0.604  1.0905  0.4642  0.2083
   80SOL     OW  317   0.151   0.985   0.299 -0.3300  0.1283  0.2430
   80SOL    HW1  318   0.056   0.964   0.325 -0.8842  1.1619 -0.2995
   80SOL    HW2  319   0.212   0.924   0.348 -2.3413 -0.4944  0.6220
   80SOL     MW  320   0.146   0.974   0.309 -0.6685  0.1825  0.2214
   81SOL     OW  321   1.916   1.903   0.228  0.1915  0.2921 -0.1896
   81SOL    HW1  322   1.845   1.862   0.170 -3.4120 -0.2077  2.6667
   81SOL    HW2  323   1.893   1.994   0.239 -2.3049  1.5873 -1.0503
   81SOL     MW  324   1.904   1.909   0.222 -0.6133  0.3970  0.0737
   82SOL     OW  325   0.833   0.979   0.558  0.0753  0.3219 -0.2637
   82SOL    HW1  326   0.918   0.974   0.503 -0.0356  0.0003  2.5050
   82SOL    HW2  327   0.785   0.896   0.538 -4.3235 -0.7357 -0.8888
   82SOL     MW  328   0.838   0.967   0.548 -0.5197  0.1399  0.0191
   83SOL     OW  329   0.100   0.626   1.384  0.5491 -0.1694 -0.0384
   83SOL    HW1  330   0.118   0.716   1.356  2.8170 -3.5851  0.2626
   83SOL    HW2  331   0.182   0.591   1.420  3.1873  2.9367 -0.4208
   83SOL     MW  332   0.113   0.633   1.385  1.1964 -0.2102 -0.0492
   84SOL     OW  333   0.075   0.283   1.033  0.1055 -0.6872 -0.5816
   84SOL    HW1  334  -0.008   0.297   0.987  0.0833  0.7662 -0.4297
   84SOL    HW2  335   0.073   0.189   1.056  1.6426 -1.2414 -1.0704
   84SOL     MW  336   0.064   0.272   1.030  0.3054 -0.5686 -0.6261
   85SOL     OW  337   0.416   0.432   0.754  0.1017  0.3761 -0.0449
   85SOL    HW1  338   0.380   0.486   0.690  3.5292 -1.9515  3.6264
   85SOL    HW2  339   0.343   0.371   0.775  0.3734  0.9427  1.3146
   85SOL     MW  340   0.402   0.431   0.749  0.5898  0.1438  0.6189
   86SOL     OW  341   1.187   0.436   1.131  0.1673 -0.0327  0.1352
   86SOL    HW1  342   1.139   0.488   1.059  0.5704  1.0435 -2.0532
   86SOL    HW2  343   1.140   0.449   1.216 -1.1715  1.1631  0.2381
   86SOL     MW  344   1.174   0.445   1.133  0.0439  0.2671 -0.1399
   87SOL     OW  345   1.206   1.457   1.285 -0.0954  0.2800 -0.7506
   87SOL    HW1  346   1.215   1.518   1.212 -0.3144 -0.3342 -3.2978
   87SOL    HW2  347   1.220   1.372   1.247 -1.1887  0.3655  1.6657
   87SOL     MW  348   1.209   1.454   1.270 -0.2686  0.2102 -0.7679
   88SOL     OW  349   1.346   1.022   0.994 -0.7733  0.4147 -0.1946
   88SOL    HW1  350   1.435   1.039   1.017 -1.4580  0.5227 -2.7248
   88SOL    HW2  351   1.293   1.084   1.048 -1.7035 -0.3713  0.3851
   88SOL     MW  352   1.350   1.032   1.004 -0.9864  0.3252 -0.4520
   89SOL     OW  353   1.737   0.601   0.312 -0.4001  0.9831  0.7568
   89SOL    HW1  354   1.791   0.563   0.375 -1.7216  0.1778 -0.8983
   89SOL    HW2  355   1.808   0.640   0.259  0.5495  2.0685  0.1790
   89SOL     MW  356   1.754   0.601   0.313 -0.4492  1.0200  0.4622
   90SOL     OW  357   0.692   1.206   2.776  0.6354 -0.3861 -0.4823
   90SOL    HW1  358   0.738   1.120   2.780  1.3479 -0.8220 -1.2945
   90SOL    HW2  359   0.691   1.245   2.860  1.5057  0.2927 -0.6227
   90SOL     MW  360   0.698   1.200   2.787  0.8442 -0.3541 -0.6080
   91SOL     OW  361   2.074   0.690   0.503  0.9770 -0.5714  0.6825
   91SOL    HW1  362   2.061   0.769   0.452 -1.3923 -1.3789 -2.5249
   91SOL    HW2  363   2.077   0.623   0.432 -1.4982 -1.7232 -0.8449
   91SOL     MW  364   2.073   0.692   0.487  0.3378 -0.8299  0.0578
   92SOL     OW  365   1.593   0.809   0.454 -0.4816  0.2023 -0.5202
   92SOL    HW1  366   1.507   0.776   0.485 -2.0000  0.3785 -0.5941
   92SOL    HW2  367   1.634   0.745   0.397 -0.3052  0.8019  2.6640
   92SOL     MW  368   1.587   0.796   0.451 -0.6587  0.3047 -0.1098
   93SOL     OW  369   1.074   0.251   0.327  0.3853  0.3114  0.3543
   93SOL    HW1  370   1.026   0.323   0.369  1.0590  0.3379  2.5541
   93SOL    HW2  371   1.082   0.278   0.234 -0.3207 -2.7301  1.0714
   93SOL     MW  372   1.069   0.264   0.320  0.3810 -0.0864  0.7392
   94SOL     OW  373   1.934   1.299   1.649 -0.3732  0.4650  0.3965
   94SOL    HW1  374   1.908   1.338   1.567  1.3436 -0.3645  1.5274
   94SOL    HW2  375   1.892   1.217   1.653  4.5448  1.4993  0.0564
   94SOL     MW  376   1.925   1.293   1.638  0.5022  0.4920  0.5009
   95SOL     OW  377   0.859   1.530   0.974 -0.7809 -0.0070 -0.0211
   95SOL    HW1  378   0.915   1.461   1.002 -0.3087 -1.3055 -0.2714
   95SOL    HW2  379   0.801   1.551   1.039 -0.9141  0.0875 -0.2801
   95SOL     MW  380   0.859   1.523   0.986 -0.7361 -0.1659 -0.0883
   96SOL     OW  381   1.248   1.804   1.586 -0.3502  0.2911 -0.0326
   96SOL    HW1  382   1.152   1.792   1.578  2.5288  1.5383 -0.1629
   96SOL    HW2  383   1.292   1.767   1.511 -3.0777 -2.5958  0.8505
   96SOL     MW  384   1.241   1.797   1.575 -0.3302  0.0748  0.0667
   97SOL     OW  385   1.265   1.406   0.831 -0.0912 -0.9901 -0.3866
   97SOL    HW1  386   1.276   1.458   0.910 -0.0262 -2.5088 -3.4100
   97SOL    HW2  387   1.184   1.443   0.796 -0.0905  1.2043  1.5470
   97SOL     MW  388   1.256   1.417   0.837 -0.0825 -0.9009 -0.5304
   98SOL     OW  389   1.512   1.325   1.170  0.2708  0.2155 -0.6418
   98SOL    HW1  390   1.548   1.406   1.211  1.8340 -0.8177  3.2359
   98SOL    HW2  391   1.544   1.324   1.079  1.5427 -0.0604 -0.1888
   98SOL     MW  392   1.521   1.335   1.163  0.6449  0.0428 -0.0704
   99SOL     OW  393   1.530   0.308   1.277  0.2392  0.4935 -0.2488
   99SOL    HW1  394   1.516   0.363   1.204  1.7250  2.7974 -1.7692
   99SOL    HW2  395   1.483   0.354   1.348 -0.9588  0.3493  2.3695
   99SOL     MW  396   1.522   0.321   1.277  0.2771  0.7784 -0.1039
  100SOL     OW  397   1.073   1.068   1.345 -0.8002 -0.0013  0.8185
  100SOL    HW1  398   1.021   1.122   1.405 -0.8019  1.0411 -0.1259
  100SOL    HW2  399   1.077   0.981   1.391 -1.4640  1.0360  0.8871
  100SOL     MW  400   1.067   1.063   1.359 -0.8880  0.2731  0.7030
  101SOL     OW  401   0.608   1.165   0.313  0.0797 -0.3113 -0.4893
  101SOL    HW1  402   0.585   1.067   0.321 -0.3650 -1.2366  0.4741
  101SOL    HW2  403   0.569   1.196   0.229 -0.1058 -0.2354  0.4114
  101SOL     MW  404   0.600   1.156   0.303 -0.0035 -0.4234 -0.2433
  102SOL     OW  405   2.954   0.592   0.978  0.0274 -0.0228  0.4489
  102SOL    HW1  406   3.018   0.670   0.965  0.4473  0.1258 -0.7370
  102SOL    HW2  407   2.968   0.563   1.068  0.9261  1.3509 -1.7207
  102SOL     MW  408   2.964   0.598   0.988  0.2014  0.1781  0.0062
  103SOL     OW  409   1.607   0.357   1.861  0.3758  0.0742  0.8911
  103SOL    HW1  410   1.611   0.308   1.775  0.8898 -1.2379 -2.6420
  103SOL    HW2  411   1.690   0.343   1.898  1.4459  1.7978 -1.3910
  103SOL     MW  412   1.618   0.348   1.854  0.5848  0.1285  0.1238
  104SOL     OW  413   0.118   1.844   1.415  0.2731  0.1114 -0.5938
  104SOL    HW1  414   0.191   1.780   1.421 -0.3587 -0.0259  0.0468
  104SOL    HW2  415   0.037   1.804   1.419  3.0223  4.0598 -0.9856
  104SOL     MW  416   0.117   1.830   1.416  0.5525  0.6142 -0.5610
  105SOL     OW  417   0.166   1.133   0.541  0.2395  0.2889  0.1951
  105SOL    HW1  418   0.161   1.094   0.449 -0.0606 -0.1367  1.2676
  105SOL    HW2  419   0.212   1.219   0.542  3.2887 -0.1988  3.2621
  105SOL     MW  420   0.171   1.139   0.529  0.6022  0.1684  0.7413
  106SOL     OW  421   0.831   0.327   0.933  0.3204  0.2757 -0.3453
  106SOL    HW1  422   0.786   0.390   0.879 -0.4324  0.7090  1.4539
  106SOL    HW2  423   0.916   0.317   0.890 -1.4955  1.9546  1.3682
  106SOL     MW  424   0.836   0.334   0.920 -0.0185  0.5544  0.1182
  107SOL     OW  425   0.802   2.197   3.034  0.1045 -0.1347 -0.4804
  107SOL    HW1  426   0.763   2.121   2.990 -0.9384 -1.7335  2.1873
  107SOL    HW2  427   0.875   2.150   3.079 -1.8767 -0.9803  1.3390
  107SOL     MW  428   0.807   2.181   3.034 -0.2945 -0.4572  0.1116
  108SOL     OW  429   1.416   1.585   1.461 -0.0651  0.0124 -0.9717
  108SOL    HW1  430   1.345   1.533   1.428  1.2280  0.3375 -0.8340
  108SOL    HW2  431   1.412   1.559   1.558 -1.9223  0.4373  2.0032
  108SOL     MW  432   1.406   1.575   1.469 -0.1395  0.1114 -0.5610
  109SOL     OW  433   1.963   0.764   0.220 -0.2197  0.1708  0.4040
  109SOL    HW1  434   1.965   0.754   0.121  0.1134  2.3114  0.4274
  109SOL    HW2  435   2.035   0.824   0.241  2.5007 -0.2149  1.9099
  109SOL     MW  436   1.973   0.771   0.209  0.1832  0.4023  0.6058
  110SOL     OW  437   0.403   1.797   0.702  0.4752 -0.0823 -0.3375
  110SOL    HW1  438   0.451   1.717   0.679  0.3880 -0.4609  0.3099
  110SOL    HW2  439   0.427   1.859   0.639  0.2497 -0.7212  0.2296
  110SOL     MW  440   0.413   1.795   0.690  0.4340 -0.2166 -0.1772
  111SOL     OW  441   0.730   0.887   1.493  0.2118 -0.7472  0.2650
  111SOL    HW1  442   0.754   0.797   1.476 -0.9567 -0.0536 -1.9991
  111SOL    HW2  443   0.663   0.871   1.563 -2.6428 -0.6233 -1.0263
  111SOL     MW  444   0.724   0.873   1.500 -0.3190 -0.6393 -0.2041
  112SOL     OW  445   1.306   1.103   1.640  0.1683  0.1484  0.9018
  112SOL    HW1  446   1.246   1.185   1.644 -1.7064 -1.4511 -1.2030
  112SOL    HW2  447   1.265   1.021   1.682 -0.2258 -0.8196  1.6301
  112SOL     MW  448   1.293   1.103   1.646 -0.1310 -0.1904  0.7202
  113SOL     OW  449   1.367   0.098   1.689  0.3015  0.1006  0.1195
  113SOL    HW1  450   1.357   0.051   1.775 -2.1441  0.4579 -1.6727
  113SOL    HW2  451   1.338   0.028   1.627  1.7602  1.4632  2.5411
  113SOL     MW  452   1.362   0.082   1.692  0.1712  0.3275  0.2025
  114SOL     OW  453   0.443   2.804   1.840  0.2903 -0.3241 -0.4936
  114SOL    HW1  454   0.433   2.862   1.915  2.6476  1.9555 -0.9211
  114SOL    HW2  455   0.420   2.851   1.759 -0.9293 -0.0075 -2.6163
  114SOL     MW  456   0.439   2.818   1.839  0.4404  0.0185 -0.8301
  115SOL     OW  457   0.463   0.851   1.089  0.2692 -0.5761  0.1191
  115SOL    HW1  458   0.485   0.759   1.079  1.1653  1.0906  2.0214
  115SOL    HW2  459   0.392   0.859   1.151 -0.9448  1.4788 -0.2453
  115SOL     MW  460   0.457   0.840   1.096  0.2273 -0.0851  0.3220
  116SOL     OW  461   0.765   1.008   0.913  0.1316  0.0843 -0.3986
  116SOL    HW1  462   0.809   1.075   0.857 -1.2850  0.5636  0.8544
  116SOL    HW2  463   0.828   1.009   0.984 -0.4703 -0.2383  2.8107
  116SOL     MW  464   0.779   1.017   0.915 -0.1347  0.1050  0.1902
  117SOL     OW  465   1.205   1.131   0.779  0.7019  0.0510  0.2734
  117SOL    HW1  466   1.239   1.092   0.855  0.2707  3.9310 -3.4146
  117SOL    HW2  467   1.210   1.224   0.800  0.6021  0.0995 -0.6573
  117SOL     MW  468   1.210   1.138   0.792  0.6319  0.5693 -0.3360
  118SOL     OW  469   3.090   2.961   1.726 -0.3415  0.3785 -0.0985
  118SOL    HW1  470   3.128   3.011   1.810  1.1259  0.1804  1.2704
  118SOL    HW2  471   2.995   2.947   1.735  1.1218  2.1679  1.3696
  118SOL     MW  472   3.083   2.966   1.738  0.0452  0.5884  0.2758
  119SOL     OW  473   0.562   1.324   1.204  0.0399  0.0798 -0.2228
  119SOL    HW1  474   0.539   1.326   1.107  2.3121  0.4731 -0.1758
  119SOL    HW2  475   0.478   1.311   1.241  1.6043 -0.7246  1.9571
  119SOL     MW  476   0.548   1.322   1.196  0.5461  0.0255  0.0710
  120SOL     OW  477   0.216   0.673   0.929  0.0065  0.5199 -0.1962
  120SOL    HW1  478   0.230   0.638   1.019  0.5082 -1.8646 -1.1073
  120SOL    HW2  479   0.268   0.756   0.927 -0.7833  1.3619  1.1445
  120SOL     MW  480   0.225   0.679   0.940 -0.0315  0.3164 -0.1395
  121SOL     OW  481   1.801   1.030   1.718  0.5621 -0.0836 -0.2571
  121SOL    HW1  482   1.716   1.046   1.688  0.4061  0.3065  1.3411
  121SOL    HW2  483   1.813   0.948   1.679 -0.3163  0.1390  0.1607
  121SOL     MW  484   1.792   1.021   1.709  0.4256 -0.0028  0.0089
  122SOL     OW  485   0.105   0.513   0.732 -0.1147 -0.2059  0.3876
  122SOL    HW1  486   0.167   0.506   0.660  0.5525 -0.8795 -0.1574
  122SOL    HW2  487   0.152   0.564   0.798  0.0040  0.5761  0.6486
  122SOL     MW  488   0.119   0.518   0.731 -0.0110 -0.1916  0.3501
  123SOL     OW  489   1.790   1.023   0.469 -0.3486  0.4560  0.2303
  123SOL    HW1  490   1.713   0.982   0.508 -0.3398 -3.1032 -0.6169
  123SOL    HW2  491   1.852   1.039   0.545  0.7076  0.1236  0.9065
  123SOL     MW  492   1.788   1.020   0.484 -0.2081 -0.0575  0.2078
  124SOL     OW  493   0.670   0.503   0.827 -0.1101  0.4540  0.2298
  124SOL    HW1  494   0.587   0.465   0.791  2.0732 -0.2778  0.4471
  124SOL    HW2  495   0.676   0.597   0.813 -2.9972 -1.9525  0.0066
  124SOL     MW  496   0.660   0.510   0.821 -0.2030  0.0400  0.2290
  125SOL     OW  497   0.689   1.668   1.653 -0.5199  0.0146 -0.0340
  125SOL    HW1  498   0.628   1.598   1.609  2.1943  3.1947  0.0149
  125SOL    HW2  499   0.639   1.752   1.668 -2.1477  0.1805  3.3491
  125SOL     MW  500   0.674   1.670   1.649 -0.3766  0.4561  0.4188
  126SOL     OW  501   2.133   1.614   1.950  0.1630 -0.0721  0.2436
  126SOL    HW1  502   2.192   1.694   1.940  1.8956 -0.2532  0.2127
  126SOL    HW2  503   2.188   1.537   1.962 -0.5529  1.5237  1.6470
  126SOL     MW  504   2.148   1.615   1.950  0.2971  0.1145  0.4247
  127SOL     OW  505   0.612   0.720   1.900  0.2304 -0.3100 -0.2026
  127SOL    HW1  506   0.692   0.683   1.927  1.8337  0.7818  0.6919
  127SOL    HW2  507   0.619   0.815   1.925 -0.2928  2.5527  0.3397
  127SOL     MW  508   0.623   0.728   1.907  0.3729  0.2118 -0.0130
  128SOL     OW  509   1.759   0.756   2.884  0.7845  0.3848 -0.1457
  128SOL    HW1  510   1.776   0.711   2.803 -1.9224  2.3593 -0.3117
  128SOL    HW2  511   1.732   0.845   2.854  2.2997 -0.7493 -1.1265
  128SOL     MW  512   1.758   0.762   2.869  0.6273  0.4957 -0.2970
  129SOL     OW  513   1.484   0.962   0.207  0.1962  0.0737  0.2651
  129SOL    HW1  514   1.442   0.885   0.170  1.4456  1.1541  0.8416
  129SOL    HW2  515   1.543   0.954   0.281  1.4460  0.8981  0.4921
  129SOL     MW  516   1.486   0.951   0.212  0.5260  0.3251  0.3711
  130SOL     OW  517   0.747   1.485   0.365 -0.2489 -0.1175  0.1696
  130SOL    HW1  518   0.794   1.430   0.432  0.5858 -3.3424  2.5296
  130SOL    HW2  519   0.820   1.532   0.318  1.7439 -0.0007  0.4396
  130SOL     MW  520   0.763   1.484   0.368  0.1242 -0.5276  0.5166
  131SOL     OW  521   3.038   0.765   0.065  0.2615 -0.7719  0.3321
  131SOL    HW1  522   3.019   0.817  -0.021 -1.7461  1.1853 -1.2828
  131SOL    HW2  523   3.138   0.785   0.074  0.8726  2.4186  0.1959
  131SOL     MW  524   3.048   0.775   0.055  0.0773 -0.0927  0.1011
  132SOL     OW  525   2.745   0.164   1.277  0.6882 -0.4659  0.0563
  132SOL    HW1  526   2.762   0.159   1.182  1.1387 -0.2772 -0.1171
  132SOL    HW2  527   2.655   0.121   1.280  0.4994  0.1898 -0.6628
  132SOL     MW  528   2.736   0.157   1.265  0.7227 -0.3545 -0.0614
  133SOL     OW  529   1.122   0.196   1.691 -0.1366 -0.4392  0.0207
  133SOL    HW1  530   1.213   0.165   1.677  0.3218  0.2051  0.5433
  133SOL    HW2  531   1.113   0.189   1.786  1.3000 -0.7944 -0.0345
  133SOL     MW  532   1.133   0.191   1.701  0.1135 -0.4010  0.0823
  134SOL     OW  533   1.364   2.511   1.390  0.6487  0.3409 -0.3544
  134SOL    HW1  534   1.293   2.578   1.390  4.3732 -0.8144 -1.7934
  134SOL    HW2  535   1.417   2.534   1.470 -2.8510 -0.9731 -1.1184
  134SOL     MW  536   1.362   2.523   1.401  0.6783  0.0151 -0.6451
  135SOL     OW  537   3.035   0.970   2.969  0.1454 -0.3091  0.3083
  135SOL    HW1  538   3.106   1.041   2.978 -0.6962  0.0434 -0.1774
  135SOL    HW2  539   2.951   1.025   2.994 -2.5476  3.3892 -1.3828
  135SOL     MW  540   3.033   0.986   2.973 -0.3209  0.2254  0.0211
  136SOL     OW  541   0.277   1.998   0.847  0.6033  0.6282 -0.2744
  136SOL    HW1  542   0.209   1.939   0.879  1.1842 -1.6049 -2.4128
  136SOL    HW2  543   0.343   1.946   0.790  0.8709 -1.8300  1.5722
  136SOL     MW  544   0.277   1.984   0.844  0.7153  0.0092 -0.3129
  137SOL     OW  545   0.684   1.997   0.561  0.8213  0.1312 -0.4934
  137SOL    HW1  546   0.717   2.016   0.650  0.2565  2.5235  0.8568
  137SOL    HW2  547   0.586   2.009   0.569 -0.5469  0.5184  2.4686
  137SOL     MW  548   0.675   2.001   0.574  0.5662  0.4979  0.0756
  138SOL     OW  549   0.532   0.586   1.063 -0.6290 -0.8252  0.2066
  138SOL    HW1  550   0.446   0.551   1.059 -0.8297  3.3615  2.0407
  138SOL    HW2  551   0.580   0.538   0.995  1.0794 -0.7868 -0.4569
  138SOL     MW  552   0.527   0.575   1.053 -0.4301 -0.2678  0.3610
  139SOL     OW  553   2.745   0.518   1.412 -0.6704 -0.6125 -0.3568
  139SOL    HW1  554   2.797   0.441   1.426 -1.5635 -2.9030  1.2453
  139SOL    HW2  555   2.806   0.598   1.433  1.1452  0.9962 -1.7170
  139SOL     MW  556   2.760   0.518   1.417 -0.5487 -0.7024 -0.3249
  140SOL     OW  557   0.865   0.321   2.136 -0.0674  0.5804 -0.4470
  140SOL    HW1  558   0.910   0.269   2.071 -2.6469  0.0309 -1.4804
  140SOL    HW2  559   0.906   0.302   2.223  2.2835 -1.7764  2.9839
  140SOL     MW  560   0.876   0.311   2.139 -0.0976  0.1969 -0.1307
  141SOL     OW  561   1.005   0.611   1.763 -0.5025  0.2616 -0.0649
  141SOL    HW1  562   1.077   0.548   1.729  0.6421  0.7244 -0.6146
  141SOL    HW2  563   1.054   0.691   1.765  2.0225 -0.3994 -0.9147
  141SOL     MW  564   1.021   0.613   1.759 -0.0183  0.2355 -0.2496
  142SOL     OW  565   0.928   1.142   0.738 -0.1584  0.3702  0.8315
  142SOL    HW1  566   0.904   1.074   0.674  2.9952  0.8424 -0.0572
  142SOL    HW2  567   1.019   1.113   0.771 -0.5837  1.6027 -1.2714
  142SOL     MW  568   0.937   1.129   0.734  0.2016  0.5951  0.4368
  143SOL     OW  569   1.885   0.914   1.118 -0.0650 -0.2578 -0.0656
  143SOL    HW1  570   1.922   0.883   1.035 -0.4499 -0.5891 -1.0710
  143SOL    HW2  571   1.838   0.838   1.150  0.5596 -0.9655  0.0656
  143SOL     MW  572   1.884   0.900   1.111 -0.0334 -0.3949 -0.1809
  144SOL     OW  573   0.137   1.172   1.542 -0.1621  0.1711 -0.2968
  144SOL    HW1  574   0.215   1.118   1.540 -1.4554 -0.8942 -2.0107
  144SOL    HW2  575   0.138   1.216   1.629  2.8874 -1.1529  0.4356
  144SOL     MW  576   0.147   1.170   1.553  0.0696 -0.1441 -0.4263
  145SOL     OW  577   0.289   0.467   1.123  0.4880  0.6462 -0.6048
  145SOL    HW1  578   0.311   0.423   1.201 -2.3863  2.7605 -1.5773
  145SOL    HW2  579   0.238   0.407   1.064 -1.3122 -0.0124 -3.8271
  145SOL     MW  580   0.285   0.453   1.126 -0.1288  0.8383 -1.1583
  146SOL     OW  581   0.902   1.892   1.393  0.2029 -0.6501 -0.6721
  146SOL    HW1  582   0.921   1.932   1.299  0.5965  1.9739 -0.8246
  146SOL    HW2  583   0.806   1.906   1.399 -0.2005  1.1761  1.9085
  146SOL     MW  584   0.892   1.899   1.381  0.2016 -0.0629 -0.3518
  147SOL     OW  585   0.391   0.450   2.854 -0.4052 -0.0281  0.4622
  147SOL    HW1  586   0.349   0.468   2.933  2.7184 -1.4360 -1.3812
  147SOL    HW2  587   0.351   0.500   2.785 -1.1868  1.1736  0.5122
  147SOL     MW  588   0.381   0.459   2.855 -0.0962 -0.0553  0.2255
  148SOL     OW  589   0.044   0.939   1.303  0.1701  0.1617  0.1180
  148SOL    HW1  590   0.138   0.940   1.315 -0.6151 -1.1910 -0.9083
  148SOL    HW2  591   0.005   0.931   1.391 -1.8664 -1.8286  3.7333
  148SOL     MW  592   0.052   0.938   1.316 -0.2022 -0.2794  0.4596
  149SOL     OW  593   1.420   1.121   1.400  0.1810  0.0905  0.7242
  149SOL    HW1  594   1.384   1.102   1.493 -0.8913 -0.6104  0.8576
  149SOL    HW2  595   1.483   1.195   1.416  2.0647 -0.1574  0.3870
  149SOL     MW  596   1.424   1.128   1.415  0.2880 -0.0347  0.6973
  150SOL     OW  597   1.819   1.336   0.755 -0.1441 -0.4736  0.6862
  150SOL    HW1  598   1.851   1.247   0.742 -1.1295  0.5184 -2.0477
  150SOL    HW2  599   1.893   1.382   0.787  1.2069 -0.9385 -0.0185
  150SOL     MW  600   1.833   1.330   0.757 -0.0959 -0.4040  0.2325
  151SOL     OW  601   1.620   1.793   0.850  0.0359  0.0910  0.1224
  151SOL    HW1  602   1.583   1.778   0.764 -0.0427 -0.2114  1.1647
  151SOL    HW2  603   1.578   1.720   0.896  0.1972  1.1267 -0.1192
  151SOL     MW  604   1.609   1.782   0.845  0.0468  0.1878  0.2280
  152SOL     OW  605   0.776   1.350   1.543  0.3002  0.7262 -0.1887
  152SOL    HW1  606   0.803   1.261   1.524  2.2471 -1.5308 -0.5061
  152SOL    HW2  607   0.861   1.397   1.523  0.0618 -0.5348 -0.3093
  152SOL     MW  608   0.791   1.344   1.538  0.5256  0.2620 -0.2465
  153SOL     OW  609   2.664   1.231   0.689 -0.0392  0.1378  0.2677
  153SOL    HW1  610   2.732   1.200   0.632  0.2307 -0.8881  0.4997
  153SOL    HW2  611   2.611   1.150   0.707  0.8611  3.2624  0.9686
  153SOL     MW  612   2.666   1.216   0.684  0.1152  0.4147  0.3908
  154SOL     OW  613   0.321   1.779   1.700  0.0510  0.0894 -0.1376
  154SOL    HW1  614   0.347   1.762   1.614 -1.3970 -1.8440 -2.0484
  154SOL    HW2  615   0.352   1.704   1.755  1.6676  0.8126 -1.6875
  154SOL     MW  616   0.328   1.767   1.696  0.0732 -0.0703 -0.5942
  155SOL     OW  617   1.107   0.720   0.280  0.3632 -0.5156  0.9060
  155SOL    HW1  618   1.112   0.652   0.348 -1.2976  1.1482  1.8049
  155SOL    HW2  619   1.075   0.802   0.324 -2.4820 -0.9122  1.1113
  155SOL     MW  620   1.103   0.722   0.295 -0.2313 -0.3484  1.0517
  156SOL     OW  621   1.505   3.045   1.037 -0.6326 -1.0175  0.2011
  156SOL    HW1  622   1.575   3.112   1.060  0.2505 -0.3484  0.5404
  156SOL    HW2  623   1.513   2.975   1.102 -0.9412  0.6179  0.7037
  156SOL     MW  624   1.515   3.045   1.048 -0.5568 -0.7135  0.3122
  157SOL     OW  625   1.372   1.224   0.124 -0.7033  0.7308 -0.1137
  157SOL    HW1  626   1.396   1.133   0.148  0.5788 -2.3633 -0.0379
  157SOL    HW2  627   1.460   1.261   0.109 -0.7644 -0.3226  1.5282
  157SOL     MW  628   1.387   1.217   0.126 -0.5422  0.1836  0.1129
  158SOL     OW  629   0.380   1.651   2.280  0.1845  0.7364 -0.5088
  158SOL    HW1  630   0.361   1.739   2.245  0.4350  1.3458 -2.6490
  158SOL    HW2  631   0.292   1.611   2.300  0.3347 -1.0852  4.7781
  158SOL     MW  632   0.366   1.658   2.278  0.2373  0.5765 -0.0937
  159SOL     OW  633   1.306   1.659   0.448  0.1284  0.1501  0.2061
  159SOL    HW1  634   1.276   1.581   0.399  1.3594  1.9597  3.2037
  159SOL    HW2  635   1.221   1.690   0.488 -0.2787  0.1070  2.0428
  159SOL     MW  636   1.291   1.653   0.447  0.2371  0.3832  0.8439
  160SOL     OW  637   0.447   1.073   1.545  0.1267 -0.1955  0.0947
  160SOL    HW1  638   0.464   0.991   1.588  1.8845  0.9050 -1.3839
  160SOL    HW2  639   0.481   1.140   1.603 -0.4240  0.4211 -1.5377
  160SOL     MW  640   0.454   1.071   1.558  0.2860  0.0311 -0.3158
  161SOL     OW  641   0.589   2.120   2.705 -0.3948 -0.1633 -0.2304
  161SOL    HW1  642   0.515   2.144   2.762 -0.0688  2.8328  1.0853
  161SOL    HW2  643   0.551   2.077   2.631  1.7762  0.6695  2.7903
  161SOL     MW  644   0.574   2.118   2.703 -0.0653  0.3419  0.3417
  162SOL     OW  645   1.030   1.707   1.810 -0.5121 -0.6462 -0.3555
  162SOL    HW1  646   1.024   1.804   1.839 -0.6248  0.1238 -2.3114
  162SOL    HW2  647   0.951   1.658   1.845  0.6329  1.2854 -1.1775
  162SOL     MW  648   1.019   1.713   1.818 -0.3759 -0.2898 -0.7220
  163SOL     OW  649   2.127   0.156   0.973 -0.6967  0.2091 -0.5009
  163SOL    HW1  650   2.116   0.162   0.876  1.9855 -0.0561  1.9285
  163SOL    HW2  651   2.082   0.078   1.002  1.0367 -0.0496 -0.5898
  163SOL     MW  652   2.120   0.146   0.964 -0.1141  0.1400 -0.1921
  164SOL     OW  653   0.244   0.201   0.818 -0.0103  0.1272 -0.2995
  164SOL    HW1  654   0.152   0.198   0.835 -2.1347 -0.5355  1.6860
  164SOL    HW2  655   0.259   0.117   0.774 -0.1866  0.1715  2.1667
  164SOL     MW  656   0.234   0.190   0.815 -0.3138  0.0456  0.2878
  165SOL     OW  657   1.367   1.219   0.413  0.1123  0.1645 -0.0100
  165SOL    HW1  658   1.360   1.133   0.453 -1.1512  0.9036 -0.7900
  165SOL    HW2  659   1.392   1.205   0.325 -3.6636 -1.0887 -0.2509
  165SOL     MW  660   1.369   1.206   0.407 -0.5526  0.0967 -0.1447
  166SOL     OW  661   0.510   1.077   0.976 -0.9064  0.4538  0.1753
  166SOL    HW1  662   0.492   0.990   1.022  3.0416 -1.9206 -1.1048
  166SOL    HW2  663   0.603   1.065   0.944 -1.6041 -1.9358  0.4135
  166SOL     MW  664   0.520   1.064   0.978 -0.4775 -0.1747  0.0378
  167SOL     OW  665   0.912   1.145   0.261 -0.5563 -0.0864 -0.0749
  167SOL    HW1  666   0.822   1.159   0.278  2.9014 -0.5202  2.4777
  167SOL    HW2  667   0.930   1.171   0.171  0.5893 -2.5349 -2.6357
  167SOL     MW  668   0.903   1.150   0.251  0.0511 -0.4667 -0.0760
  168SOL     OW  669   1.695   1.743   2.889  0.4109 -0.2229  0.1086
  168SOL    HW1  670   1.617   1.795   2.906 -0.2482 -2.6426 -1.8864
  168SOL    HW2  671   1.671   1.648   2.912  1.7872  0.1635 -0.8143
  168SOL     MW  672   1.681   1.738   2.894  0.5056 -0.4912 -0.2764
  169SOL     OW  673   0.302   0.931   1.335 -0.0717  0.5103 -0.0201
  169SOL    HW1  674   0.368   0.931   1.406  0.2257 -0.1970  2.9431
  169SOL    HW2  675   0.326   1.018   1.298  1.7126  1.6670  1.2148
  169SOL     MW  676   0.314   0.943   1.339  0.2030  0.5696  0.5338
  170SOL     OW  677   1.033   1.466   1.480  0.1377 -0.0677 -0.1606
  170SOL    HW1  678   0.973   1.539   1.449 -2.3145  0.1833 -0.7035
  170SOL    HW2  679   1.096   1.451   1.410 -0.4227  0.4624  3.6279
  170SOL     MW  680   1.033   1.474   1.467 -0.2598  0.0353  0.2676
  171SOL     OW  681   0.599   1.389   0.711  0.3580 -0.4235 -0.2591
  171SOL    HW1  682   0.553   1.395   0.797  1.2313 -1.2631  2.2243
  171SOL    HW2  683   0.594   1.297   0.687 -2.4174 -1.8700 -0.8514
  171SOL     MW  684   0.592   1.378   0.719  0.1070 -0.7251 -0.0096
  172SOL     OW  685   0.833   0.327   1.218 -0.1366  0.2709  0.0492
  172SOL    HW1  686   0.830   0.327   1.120 -0.8504  0.9524 -0.9075
  172SOL    HW2  687   0.750   0.366   1.246  3.5299 -1.3939  0.9546
  172SOL     MW  688   0.821   0.332   1.208  0.2530  0.1412  0.0424
  173SOL     OW  689   0.467   1.677   0.324  0.5043  0.3784  0.3162
  173SOL    HW1  690   0.435   1.583   0.320 -1.8045 -1.2861  0.8004
  173SOL    HW2  691   0.509   1.684   0.409  0.2145  1.1779 -0.5189
  173SOL     MW  692   0.468   1.665   0.334  0.1614  0.2642  0.2699
  174SOL     OW  693   2.030   0.955   1.514  0.4417 -0.1264 -0.5017
  174SOL    HW1  694   1.974   0.883   1.557 -3.2340 -3.3711 -2.7071
  174SOL    HW2  695   1.967   1.005   1.457  2.9366 -2.8929 -2.3453
  174SOL     MW  696   2.014   0.952   1.512  0.2859 -0.9195 -1.0359
  175SOL     OW  697   0.432   1.419   0.347  0.6622  0.7202 -0.4015
  175SOL    HW1  698   0.414   1.400   0.253  0.5070 -2.4641 -3.0859
  175SOL    HW2  699   0.522   1.397   0.368 -1.3110  1.6862 -1.5988
  175SOL     MW  700   0.442   1.413   0.338  0.3814  0.4275 -0.9136
  176SOL     OW  701   0.298   1.209   1.256  0.1801 -0.6880 -0.4212
  176SOL    HW1  702   0.256   1.246   1.179  0.7630  1.5817 -1.2911
  176SOL    HW2  703   0.276   1.275   1.331 -1.0247  0.7703  2.7006
  176SOL     MW  704   0.290   1.222   1.256  0.0980 -0.1961 -0.1241
  177SOL     OW  705   0.628   0.460   1.310  0.5166 -0.0623 -0.1453
  177SOL    HW1  706   0.594   0.518   1.235  0.8755  1.2546 -1.9083
  177SOL    HW2  707   0.610   0.495   1.395  0.6110  0.0477 -2.5818
  177SOL     MW  708   0.621   0.472   1.311  0.5764  0.1260 -0.6994
  178SOL     OW  709   3.097   0.438   2.949 -0.1141 -0.1873 -0.0536
  178SOL    HW1  710   3.029   0.452   3.018  0.3441 -1.2972 -1.6473
  178SOL    HW2  711   3.049   0.451   2.863  0.3030 -0.2165  0.1313
  178SOL     MW  712   3.082   0.442   2.947  0.0014 -0.3376 -0.2395
  179SOL     OW  713   1.618   1.336   1.495  0.0822 -0.2766 -0.0060
  179SOL    HW1  714   1.622   1.409   1.562  2.0332  3.0999  1.1961
  179SOL    HW2  715   1.706   1.305   1.488  0.1832 -1.8409 -1.0920
  179SOL     MW  716   1.630   1.341   1.503  0.3529 -0.0375  0.0093
  180SOL     OW  717   3.033   0.281   0.490  0.2577  0.4914  0.2836
  180SOL    HW1  718   2.990   0.263   0.402 -0.0987 -0.3730 -2.4038
  180SOL    HW2  719   3.076   0.363   0.476 -0.6864 -1.1975 -0.7170
  180SOL     MW  720   3.033   0.289   0.477  0.0861  0.1545 -0.2030
  181SOL     OW  721   1.123   1.426   3.074 -0.3002  0.3477 -0.7202
  181SOL    HW1  722   1.164   1.505   3.108  2.8322 -1.0534 -0.9421
  181SOL    HW2  723   1.164   1.427   2.984 -1.6437  0.0452  0.1173
  181SOL     MW  724   1.134   1.436   3.067 -0.0642  0.1230 -0.6390
  182SOL     OW  725   0.481   0.805   1.650  0.1026  0.2455 -0.6442
  182SOL    HW1  726   0.393   0.778   1.669  1.8122  0.1067 -0.5194
  182SOL    HW2  727   0.535   0.728   1.677  0.1584 -1.0680 -1.9270
  182SOL     MW  728   0.476   0.791   1.656  0.3355  0.0539 -0.7970
  183SOL     OW  729   1.621   1.537   1.306  0.2952 -0.1960 -0.3086
  183SOL    HW1  730   1.545   1.564   1.363 -0.7125  1.3782  2.8337
  183SOL    HW2  731   1.668   1.471   1.358  0.1328  0.3582  0.8648
  183SOL     MW  732   1.617   1.532   1.320  0.1408  0.0849  0.2608
  184SOL     OW  733   0.837   0.599   1.972  0.2437  0.6792 -0.0609
  184SOL    HW1  734   0.892   0.586   1.890  0.7414  0.6320 -2.3364
  184SOL    HW2  735   0.854   0.529   2.043  1.4876 -0.3608 -1.7877
  184SOL     MW  736   0.846   0.588   1.971  0.4735  0.5357 -0.5890
  185SOL     OW  737   1.117   0.961   1.938  0.2745 -0.2855 -0.1647
  185SOL    HW1  738   1.118   0.886   1.991  0.4660  1.9840  0.0938
  185SOL    HW2  739   1.157   1.030   2.000 -0.5204  0.5164  0.4770
  185SOL     MW  740   1.123   0.960   1.953  0.1949  0.1198 -0.0459
  186SOL     OW  741   0.372   1.683   1.410  0.2609 -0.4279  0.0055
  186SOL    HW1  742   0.430   1.732   1.348  1.7168 -1.9274 -1.4572
  186SOL    HW2  743   0.329   1.617   1.355  1.7712 -0.4136 -2.0927
  186SOL     MW  744   0.374   1.681   1.394  0.6523 -0.6238 -0.4643
  187SOL     OW  745   1.511   0.679   1.475  0.3738  0.6659 -0.0074
  187SOL    HW1  746   1.471   0.668   1.561 -0.0416 -1.1132 -0.8614
  187SOL    HW2  747   1.435   0.675   1.415 -0.4159 -0.8900  0.2000
  187SOL     MW  748   1.496   0.677   1.479  0.2148  0.2259 -0.0927
  188SOL     OW  749   1.918   1.062   0.722  0.0932 -1.0210 -0.1301
  188SOL    HW1  750   1.928   0.983   0.779 -0.9514 -0.6003 -0.2397
  188SOL    HW2  751   2.001   1.074   0.676 -0.8802  1.9127  3.0927
  188SOL     MW  752   1.930   1.053   0.723 -0.1730 -0.5784  0.2807
  189SOL     OW  753   0.664   0.779   0.802 -0.1231 -0.0043 -0.1306
  189SOL    HW1  754   0.575   0.807   0.784  1.4459 -1.7199 -1.5473
  189SOL    HW2  755   0.709   0.854   0.845  5.9334 -2.4745  1.2971
  189SOL     MW  756   0.658   0.793   0.805  0.8830 -0.5566 -0.1292
  190SOL     OW  757   1.857   0.355   1.966 -0.0711 -0.6506 -0.1779
  190SOL    HW1  758   1.882   0.277   1.923  2.4729 -0.9020 -1.1379
  190SOL    HW2  759   1.925   0.422   1.939 -2.0661  2.1436  1.2747
  190SOL     MW  760   1.869   0.354   1.957  0.0014 -0.3151 -0.1129
  191SOL     OW  761   1.597   0.930   1.471 -0.3423  0.0719 -1.4209
  191SOL    HW1  762   1.528   0.998   1.444 -1.7122 -0.8622  0.7187
  191SOL    HW2  763   1.544   0.850   1.467 -0.2430  0.1832 -2.7610
  191SOL     MW  764   1.581   0.929   1.467 -0.5099 -0.0366 -1.3154
  192SOL     OW  765   0.753   1.966   2.914  0.5388  0.0118 -0.9891
  192SOL    HW1  766   0.734   2.005   2.827 -3.9158  1.6788  0.8170
  192SOL    HW2  767   0.701   1.886   2.911  0.4008 -0.4514 -0.1246
  192SOL     MW  768   0.744   1.961   2.902 -0.0671  0.1706 -0.6367
  193SOL     OW  769   1.038   1.568   0.732  0.3051  1.0154 -0.1015
  193SOL    HW1  770   0.983   1.576   0.810  0.4036 -1.0335 -2.8224
  193SOL    HW2  771   0.998   1.496   0.681 -0.0932 -0.5782 -0.4596
  193SOL     MW  772   1.025   1.560   0.735  0.2655  0.5349 -0.5077
  194SOL     OW  773   0.462   1.340   0.952  0.3274  0.1527 -0.1034
  194SOL    HW1  774   0.471   1.241   0.950 -1.1354 -0.7624 -0.6532
  194SOL    HW2  775   0.388   1.364   0.896 -0.1627 -3.2200 -0.6919
  194SOL     MW  776   0.453   1.330   0.944  0.0697 -0.4130 -0.2536
  195SOL     OW  777   1.301   1.168   2.968 -0.2393  0.2865  0.4681
  195SOL    HW1  778   1.328   1.191   3.060 -0.7755 -0.0427  2.0454
  195SOL    HW2  779   1.216   1.120   2.977 -2.9734  0.9540  2.3975
  195SOL     MW  780   1.294   1.165   2.982 -0.6708  0.3311  0.9308
  196SOL     OW  781   2.163   1.053   0.604 -0.3064  0.4633  0.1910
  196SOL    HW1  782   2.124   1.016   0.525  1.3562 -0.6476 -0.5107
  196SOL    HW2  783   2.190   1.145   0.593  0.3609 -0.6466  2.3831
  196SOL     MW  784   2.162   1.060   0.592  0.0010  0.1703  0.3876
  197SOL     OW  785   0.567   1.250   2.009 -0.0475  0.4393 -0.0852
  197SOL    HW1  786   0.566   1.158   2.010 -1.4544  0.9164 -0.0562
  197SOL    HW2  787   0.566   1.277   1.921  1.1671 -0.3083  3.5005
  197SOL     MW  788   0.566   1.242   1.998 -0.0729  0.4036  0.3917
  198SOL     OW  789   2.918   1.381   1.047  0.1523  0.7272 -0.3222
  198SOL    HW1  790   2.930   1.476   1.018  1.2361  1.7617  0.8426
  198SOL    HW2  791   2.827   1.367   1.050  3.1936 -0.5261 -2.8333
  198SOL     MW  792   2.908   1.392   1.044  0.6966  0.6983 -0.4998
  199SOL     OW  793   0.489   1.279   1.743  0.3629  0.3412  0.0506
  199SOL    HW1  794   0.405   1.235   1.770  1.5233 -1.7702  2.8875
  199SOL    HW2  795   0.475   1.355   1.689  3.9727  0.5175 -1.0470
  199SOL     MW  796   0.476   1.283   1.739  0.9923  0.0859  0.2801
  200SOL     OW  797   1.934   3.087   1.326 -0.0199  0.5274  0.6303
  200SOL    HW1  798   1.936   3.082   1.228 -0.3804  1.4548 -1.1997
  200SOL    HW2  799   1.841   3.103   1.350  0.0876 -0.6784  0.5489
  200SOL     MW  800   1.922   3.089   1.316 -0.0533  0.4907  0.3781
  201SOL     OW  801   1.124   0.306   0.807 -0.4049 -0.6018 -0.2092
  201SOL    HW1  802   1.165   0.217   0.838 -0.9117 -2.2263  2.1649
  201SOL    HW2  803   1.123   0.311   0.712 -0.8092 -0.1388 -1.0670
  201SOL     MW  804   1.129   0.295   0.798 -0.5251 -0.7551 -0.0092
  202SOL     OW  805   1.581   1.592   1.025 -0.2790  0.2169  0.2723
  202SOL    HW1  806   1.587   1.508   0.975 -2.2238  0.2069  0.0317
  202SOL    HW2  807   1.594   1.571   1.119  1.1177 -0.4864 -1.1644
  202SOL     MW  808   1.583   1.578   1.031 -0.3514  0.1228  0.0510
  203SOL     OW  809   3.036   0.462   1.226  1.0541 -0.4236 -0.0479
  203SOL    HW1  810   3.090   0.395   1.187 -1.4022  0.6539  1.3225
  203SOL    HW2  811   3.095   0.516   1.269 -3.7908  1.3792 -2.7682
  203SOL     MW  812   3.051   0.461   1.227  0.0908 -0.0436 -0.2260
  204SOL     OW  813   1.077   1.764   0.531  0.2649 -0.3071  0.1860
  204SOL    HW1  814   1.057   1.691   0.591  1.7740  1.5471 -0.7776
  204SOL    HW2  815   0.990   1.780   0.491 -0.3396 -3.7732  0.2599
  204SOL     MW  816   1.063   1.756   0.533  0.3842 -0.5197  0.0686
  205SOL     OW  817   1.394   0.074   1.324  0.2381 -0.0866  0.2567
  205SOL    HW1  818   1.343   0.053   1.246 -1.5347  0.7056  2.2019
  205SOL    HW2  819   1.429   0.163   1.317 -2.9386 -0.2776  1.2554
  205SOL     MW  820   1.392   0.083   1.313 -0.4149 -0.0072  0.6452
  206SOL     OW  821   0.521   3.080   1.369 -0.3994 -0.3972  0.1807
  206SOL    HW1  822   0.472   3.046   1.292  0.2278  2.0121 -1.1920
  206SOL    HW2  823   0.591   3.008   1.381  0.4018  2.1715 -1.0717
  206SOL     MW  824   0.524   3.066   1.360 -0.2109  0.2596 -0.1656
  207SOL     OW  825   0.989   1.549   0.216  0.5469 -0.1047  0.4629
  207SOL    HW1  826   1.023   1.640   0.202  0.8465  0.7901 -2.3981
  207SOL    HW2  827   1.054   1.498   0.273  0.7373 -2.5432  1.9870
  207SOL     MW  828   1.002   1.554   0.222  0.6115 -0.3084  0.2865
  208SOL     OW  829   0.647   1.575   1.229  0.1340  0.4708 -0.7449
  208SOL    HW1  830   0.724   1.572   1.282  0.2492  1.2877  1.1427
  208SOL    HW2  831   0.612   1.479   1.223 -2.4733 -1.6102  1.7147
  208SOL     MW  832   0.652   1.562   1.235 -0.1948  0.3040 -0.1713
  209SOL     OW  833   1.480   0.495   2.800 -0.4806  0.8219 -0.0079
  209SOL    HW1  834   1.506   0.548   2.878 -0.8323 -0.0602  2.1936
  209SOL    HW2  835   1.555   0.430   2.797  1.8452 -0.5323 -0.9287
  209SOL     MW  836   1.493   0.493   2.810 -0.2201  0.5268  0.1610
  210SOL     OW  837   1.569   1.361   0.890 -0.3344  0.7550 -0.4170
  210SOL    HW1  838   1.656   1.345   0.857  1.3540  0.3082 -0.0635
  210SOL    HW2  839   1.515   1.341   0.815 -0.1296  1.7147  0.4332
  210SOL     MW  840   1.573   1.356   0.876 -0.0846  0.8227 -0.2582
  211SOL     OW  841   1.713   0.468   0.923 -0.1001  0.2872  0.2892
  211SOL    HW1  842   1.688   0.445   0.829 -0.8631  1.8335  0.4364
  211SOL    HW2  843   1.812   0.493   0.923  2.0976  1.1009  0.4900
  211SOL     MW  844   1.723   0.468   0.911  0.0892  0.5986  0.3351
  212SOL     OW  845   0.243   1.093   0.046 -0.3244  0.0705  0.1575
  212SOL    HW1  846   0.200   1.069   0.129 -0.5260 -0.7494 -1.4123
  212SOL    HW2  847   0.330   1.053   0.044 -2.5516 -0.9385  4.5872
  212SOL     MW  848   0.249   1.085   0.056 -0.6449 -0.1708  0.5348
  213SOL     OW  849   0.486   1.685   3.097 -0.6811 -0.3271  0.2355
  213SOL    HW1  850   0.531   1.748   3.155  0.1157  0.1984 -1.2383
  213SOL    HW2  851   0.483   1.724   3.014  0.1280  2.0969 -0.6305
  213SOL     MW  852   0.492   1.699   3.094 -0.4692  0.0621 -0.0732
  214SOL     OW  853   0.630   0.255   2.273  0.3620  0.4514  0.4570
  214SOL    HW1  854   0.554   0.305   2.245 -1.0136 -0.4535 -2.0326
  214SOL    HW2  855   0.703   0.258   2.214  1.7749 -1.9522 -0.6717
  214SOL     MW  856   0.630   0.262   2.262  0.3669  0.0149 -0.0204
  215SOL     OW  857   0.499   0.746   2.638 -0.3909  0.4727 -0.1047
  215SOL    HW1  858   0.508   0.690   2.560  1.1679 -0.2271 -1.2355
  215SOL    HW2  859   0.422   0.711   2.681  1.0431  1.1752 -2.6454
  215SOL     MW  860   0.490   0.734   2.633  0.0039  0.4730 -0.5891
  216SOL     OW  861   3.097   3.077   2.759 -0.0493 -0.1701 -0.9929
  216SOL    HW1  862   3.036   3.045   2.828 -1.6902 -2.2619  1.0241
  216SOL    HW2  863   3.033   3.144   2.719  0.1496  2.9922 -0.5060
  216SOL     MW  864   3.080   3.082   2.762 -0.2395 -0.0288 -0.6625
  217SOL     OW  865   0.984   1.184   3.094 -0.3793 -0.1618 -0.4192
  217SOL    HW1  866   1.042   1.101   3.081  2.3867  0.8804  0.3577
  217SOL    HW2  867   1.041   1.267   3.104  3.4603  1.6449  2.3826
  217SOL     MW  868   0.999   1.184   3.094  0.4922  0.2141  0.0530
  218SOL     OW  869   0.914   1.392   2.483  0.0340 -0.7441  0.2517
  218SOL    HW1  870   0.905   1.301   2.506 -2.7917  1.1526 -1.3652
  218SOL    HW2  871   0.993   1.411   2.527 -1.3318  3.4122 -0.7984
  218SOL     MW  872   0.923   1.383   2.492 -0.5190  0.0545 -0.1002
  219SOL     OW  873   1.006   0.427   2.498  0.6527  0.1983 -1.1649
  219SOL    HW1  874   1.086   0.469   2.468  3.0075 -1.0807  1.1468
  219SOL    HW2  875   0.965   0.499   2.540 -0.2644  0.0402 -0.8262
  219SOL     MW  876   1.011   0.442   2.500  0.8424  0.0087 -0.8152
  220SOL     OW  877   1.753   0.533   2.189 -0.3124 -0.2849  0.4202
  220SOL    HW1  878   1.680   0.585   2.162  1.5223 -0.4172 -1.2775
  220SOL    HW2  879   1.771   0.492   2.111  1.7228  0.3520  2.4848
  220SOL     MW  880   1.746   0.535   2.175  0.1982 -0.2183  0.4686
  221SOL     OW  881   0.408   1.413   2.908  0.1088 -0.4967 -0.7460
  221SOL    HW1  882   0.421   1.323   2.875  2.6989 -3.4926  3.3969
  221SOL    HW2  883   0.409   1.463   2.827 -2.7029 -0.3512  2.3125
  221SOL     MW  884   0.410   1.408   2.893  0.0796 -0.8728  0.2041
  222SOL     OW  885   0.327   0.959   2.649 -0.7148 -0.1996 -0.1817
  222SOL    HW1  886   0.293   0.962   2.562  0.6785  1.7490 -2.1485
  222SOL    HW2  887   0.399   0.901   2.637 -0.7657  0.6133 -1.7053
  222SOL     MW  888   0.332   0.952   2.636 -0.5377  0.1647 -0.6422
  223SOL     OW  889   3.091   1.986   2.627  0.3335 -0.2017 -0.5939
  223SOL    HW1  890   3.155   1.928   2.675  0.4809  0.6918 -0.6290
  223SOL    HW2  891   3.131   2.057   2.566 -3.3412  0.6407  1.5066
  223SOL     MW  892   3.105   1.988   2.625 -0.1319  0.0273 -0.3214
  224SOL     OW  893   1.509   0.839   2.588 -0.3498  0.1604  0.4440
  224SOL    HW1  894   1.440   0.838   2.657 -1.9607  1.1640 -0.1069
  224SOL    HW2  895   1.513   0.926   2.551  0.8014 -2.9085  0.0503
  224SOL     MW  896   1.500   0.851   2.592 -0.4105 -0.1121  0.3194
  225SOL     OW  897   2.908   1.484   2.226 -0.0184 -0.0168 -0.0681
  225SOL    HW1  898   2.985   1.526   2.184  0.3463  1.4889 -0.3189
  225SOL    HW2  899   2.860   1.556   2.275 -1.9954  1.2583 -0.1168
  225SOL     MW  900   2.911   1.499   2.227 -0.2312  0.3501 -0.1076
  226SOL     OW  901   0.391   1.490   2.623 -0.2622  0.0489 -0.0991
  226SOL    HW1  902   0.476   1.459   2.596  0.0459 -0.6294 -1.6767
  226SOL    HW2  903   0.396   1.582   2.611 -0.4046 -0.4804 -1.3375
  226SOL     MW  904   0.403   1.498   2.618 -0.2403 -0.1104 -0.4707
  227SOL     OW  905   0.425   1.136   2.844 -0.1514 -0.2072  0.4547
  227SOL    HW1  906   0.513   1.159   2.805 -3.1827  0.8287 -0.7073
  227SOL    HW2  907   0.375   1.091   2.781  0.9311 -1.0544 -0.1671
  227SOL     MW  908   0.430   1.133   2.831 -0.4085 -0.1823  0.2194
  228SOL     OW  909   0.687   0.981   1.980  0.0977  0.0763 -0.1202
  228SOL    HW1  910   0.759   1.026   1.928 -1.0256 -1.3655 -0.2662
  228SOL    HW2  911   0.735   0.955   2.056  0.3339  3.9918 -2.1134
  228SOL     MW  912   0.703   0.984   1.983 -0.0194  0.4027 -0.4024
  229SOL     OW  913   0.245   0.499   3.093 -0.2629 -0.4401  0.2731
  229SOL    HW1  914   0.159   0.490   3.054  2.5566 -0.7619  0.6880
  229SOL    HW2  915   0.242   0.441   3.171 -0.9072  0.2585 -0.3438
  229SOL     MW  916   0.234   0.490   3.098  0.0241 -0.3904  0.2465
  230SOL     OW  917   1.770   1.345   2.111  0.1221 -0.2149 -0.2702
  230SOL    HW1  918   1.747   1.340   2.206 -0.7574  1.4724  1.0422
  230SOL    HW2  919   1.787   1.251   2.086  1.5378  0.3288  1.9690
  230SOL     MW  920   1.769   1.332   2.120  0.1928  0.0795  0.1984
  231SOL     OW  921   2.803   1.241   2.165 -0.4611  0.3956 -0.4216
  231SOL    HW1  922   2.849   1.322   2.169 -0.3195  0.9307 -0.4603
  231SOL    HW2  923   2.736   1.282   2.112  0.0749 -0.3927  1.0253
  231SOL     MW  924   2.800   1.257   2.159 -0.3717  0.3622 -0.2358
  232SOL     OW  925   2.283   0.930   2.100  0.4670 -0.6494  0.0011
  232SOL    HW1  926   2.216   0.974   2.046  2.0996 -0.4985  1.6561
  232SOL    HW2  927   2.235   0.915   2.186 -2.9856  1.1258  0.8348
  232SOL     MW  928   2.268   0.934   2.104  0.2269 -0.3953  0.3295
  233SOL     OW  929   2.075   0.537   1.937 -0.1727 -0.6376  0.2044
  233SOL    HW1  930   2.120   0.578   1.856 -0.0214  2.6337  0.7463
  233SOL    HW2  931   2.150   0.501   1.989 -1.9289  0.3215  0.6647
  233SOL     MW  932   2.091   0.537   1.933 -0.3845 -0.0794  0.3366
  234SOL     OW  933   0.257   0.975   2.381  0.3932  0.3308 -0.9660
  234SOL    HW1  934   0.163   1.007   2.376 -1.1847  0.1701  0.8827
  234SOL    HW2  935   0.311   1.054   2.372  2.2217  1.4814 -0.9019
  234SOL     MW  936   0.252   0.990   2.379  0.4263  0.4614 -0.7136
  235SOL     OW  937   0.990   3.048   2.788  0.4938 -0.1455 -0.0468
  235SOL    HW1  938   1.009   2.972   2.846  2.2988  0.0494 -0.5773
  235SOL    HW2  939   0.976   3.118   2.850 -0.2769 -0.3745  0.2640
  235SOL     MW  940   0.991   3.047   2.804  0.6303 -0.1500 -0.0758
  236SOL     OW  941   2.934   0.521   0.066 -0.1720  0.6134 -0.8102
  236SOL    HW1  942   2.858   0.527   0.003  0.3406 -1.9099 -0.4550
  236SOL    HW2  943   2.978   0.612   0.061 -0.8529 -1.6023  0.9979
  236SOL     MW  944   2.930   0.533   0.057 -0.1942 -0.0118 -0.5247
  237SOL     OW  945   1.767   0.874   2.182  0.2016 -0.1356  0.7490
  237SOL    HW1  946   1.796   0.965   2.146 -2.6624  0.8494 -0.6817
  237SOL    HW2  947   1.818   0.864   2.264 -1.0296  2.0115 -0.9312
  237SOL     MW  948   1.777   0.885   2.188 -0.3387  0.2776  0.3385
  238SOL     OW  949   1.107   1.752   2.974 -0.0168 -0.2492 -0.0225
  238SOL    HW1  950   1.035   1.685   2.978  0.7161 -1.6631  1.3725
  238SOL    HW2  951   1.196   1.723   3.004 -1.4613  1.5962  0.8432
  238SOL     MW  952   1.109   1.739   2.978 -0.1107 -0.1922  0.2758
  239SOL     OW  953   1.194   1.385   2.307 -0.5892  0.3636  0.0124
  239SOL    HW1  954   1.202   1.409   2.398 -1.6541  0.1664  1.1172
  239SOL    HW2  955   1.124   1.320   2.290  0.5252 -0.5634 -0.1210
  239SOL     MW  956   1.186   1.380   2.317 -0.5827  0.2153  0.1405
  240SOL     OW  957   0.608   0.839   2.255 -0.3235  0.5599  0.5741
  240SOL    HW1  958   0.606   0.905   2.323 -1.3258 -1.0328  0.9213
  240SOL    HW2  959   0.691   0.801   2.251 -0.1756  1.9710  0.1721
  240SOL     MW  960   0.619   0.843   2.263 -0.4362  0.5359  0.5668
  241SOL     OW  961   0.651   0.374   2.960 -0.0432 -0.5223  0.6161
  241SOL    HW1  962   0.686   0.421   3.038 -1.7461 -0.8677  0.9313
  241SOL    HW2  963   0.569   0.420   2.936  1.7308  1.9782  3.2211
  241SOL     MW  964   0.645   0.386   2.967 -0.0338 -0.2379  1.0013
  242SOL     OW  965   1.446   1.689   2.345  1.0859  0.4975 -0.3460
  242SOL    HW1  966   1.447   1.785   2.365 -2.1452  3.4979 -0.0124
  242SOL    HW2  967   1.366   1.679   2.293 -1.6104  1.9331  1.1204
  242SOL     MW  968   1.435   1.700   2.341  0.3038  1.0828 -0.1085
  243SOL     OW  969   0.985   0.206   2.340 -0.7040  0.3144  0.1888
  243SOL    HW1  970   1.078   0.192   2.315 -0.4919  0.7337  4.3443
  243SOL    HW2  971   0.985   0.260   2.414 -4.0953 -0.2071 -0.3509
  243SOL     MW  972   0.997   0.211   2.347 -1.1235  0.3009  0.6659
  244SOL     OW  973   0.200   0.714   2.280  0.0130 -0.1513  0.1473
  244SOL    HW1  974   0.230   0.809   2.284  0.4294 -1.6837 -0.1406
  244SOL    HW2  975   0.280   0.672   2.277 -1.9581  1.0494  0.8163
  244SOL     MW  976   0.215   0.721   2.280 -0.1921 -0.1950  0.1976
  245SOL     OW  977   1.228   0.161   2.290 -0.5534  0.0837  0.3690
  245SOL    HW1  978   1.269   0.074   2.293  1.0495 -0.2625  3.0571
  245SOL    HW2  979   1.295   0.220   2.320 -0.9301  0.3737  1.7035
  245SOL     MW  980   1.243   0.158   2.294 -0.3916  0.0763  0.8997
  246SOL     OW  981   1.163   1.141   2.151  0.1938 -0.2382 -0.4793
  246SOL    HW1  982   1.120   1.090   2.223  0.9363 -1.2785 -1.5829
  246SOL    HW2  983   1.251   1.172   2.191  1.8828  1.7454  1.1079
  246SOL     MW  984   1.169   1.139   2.166  0.5146 -0.1137 -0.4155
  247SOL     OW  985   0.673   0.522   0.126  0.3911 -0.2162 -0.4145
  247SOL    HW1  986   0.630   0.602   0.100  1.5939 -1.8903 -1.0612
  247SOL    HW2  987   0.766   0.546   0.118  0.3693  0.4942 -0.5794
  247SOL     MW  988   0.680   0.536   0.122  0.5469 -0.3434 -0.5216
  248SOL     OW  989   0.435   1.208   2.423 -0.1801 -0.1929 -0.0860
  248SOL    HW1  990   0.427   1.286   2.369 -0.3233 -1.3644  0.6272
  248SOL    HW2  991   0.390   1.238   2.507  0.9802  1.1048  3.4387
  248SOL     MW  992   0.428   1.222   2.427 -0.0459 -0.1763  0.4732
  249SOL     OW  993   0.165   1.789   2.716 -0.0690  0.1858  0.2108
  249SOL    HW1  994   0.117   1.714   2.676 -0.1675  0.7618  0.5137
  249SOL    HW2  995   0.190   1.758   2.803 -1.0306 -0.4199  0.2979
  249SOL     MW  996   0.162   1.775   2.722 -0.2089  0.1819  0.2623
  250SOL     OW  997   2.155   0.883   2.368  0.2386  0.3144  0.2217
  250SOL    HW1  998   2.235   0.818   2.362 -2.4451  0.5597 -1.1147
  250SOL    HW2  999   2.188   0.963   2.415 -0.2071 -1.2488 -1.2659
  250SOL     MW 1000   2.170   0.885   2.373 -0.1743  0.1405 -0.1509
  251SOL     OW 1001   0.191   0.824   1.995  0.1327 -0.0777 -0.1719
  251SOL    HW1 1002   0.160   0.752   2.053  0.5093 -1.5801  0.2703
  251SOL    HW2 1003   0.179   0.797   1.908  0.7962  3.2864 -0.1765
  251SOL     MW 1004   0.185   0.811   1.992  0.2700  0.1679 -0.1141
  252SOL     OW 1005   1.708   1.007   2.825  0.6781 -0.2075 -0.4150
  252SOL    HW1 1006   1.731   1.060   2.905  1.3016  0.4012 -0.7647
  252SOL    HW2 1007   1.759   1.047   2.755  0.6890 -2.3595 -1.1664
  252SOL     MW 1008   1.718   1.020   2.827  0.7618 -0.4111 -0.5603
  253SOL     OW 1009   1.149   1.731   2.556 -0.2668  0.0105  0.1384
  253SOL    HW1 1010   1.138   1.762   2.467 -1.2163  1.9244  0.0183
  253SOL    HW2 1011   1.057   1.734   2.597  1.3430  1.2842 -2.1111
  253SOL     MW 1012   1.135   1.736   2.549 -0.1797  0.4311 -0.1742
  254SOL     OW 1013   1.026   1.028   2.333  0.1500 -0.0718 -1.0687
  254SOL    HW1 1014   1.001   0.935   2.321  1.5473  0.2978 -3.1982
  254SOL    HW2 1015   0.945   1.074   2.310  1.3385 -1.9072  1.9874
  254SOL     MW 1016   1.012   1.022   2.328  0.4912 -0.2652 -0.9464
  255SOL     OW 1017   0.795   2.408   2.238  0.2107 -0.1838 -0.3561
  255SOL    HW1 1018   0.702   2.380   2.238 -2.3789  1.2228 -0.2194
  255SOL    HW2 1019   0.816   2.422   2.330  2.8907  2.1962 -0.3968
  255SOL     MW 1020   0.785   2.407   2.250  0.2226  0.3158 -0.3435
  256SOL     OW 1021   1.160   2.826   2.900 -0.4298 -0.7006 -0.1741
  256SOL    HW1 1022   1.186   2.731   2.901 -1.3537  0.3842 -2.5624
  256SOL    HW2 1023   1.244   2.866   2.868  2.3662 -0.7997  1.2238
  256SOL     MW 1024   1.174   2.819   2.896 -0.1828 -0.5705 -0.3048
  257SOL     OW 1025   0.117   1.860   0.047  0.1758 -0.4884  0.6350
  257SOL    HW1 1026   0.136   1.833   0.141 -0.8320 -1.0575 -2.9219
  257SOL    HW2 1027   0.175   1.805  -0.007  0.3726  1.7708  1.6832
  257SOL     MW 1028   0.127   1.849   0.052  0.0688 -0.2654  0.3040
  258SOL     OW 1029   0.666   1.058   2.471  0.2901  0.1578 -0.0318
  258SOL    HW1 1030   0.708   1.101   2.400  3.2795 -1.8168  1.6059
  258SOL    HW2 1031   0.590   1.114   2.497 -3.6376  1.3570  0.6469
  258SOL     MW 1032   0.661   1.071   2.465  0.1663  0.0555  0.2738
  259SOL     OW 1033   0.666   0.479   2.456  0.8478  0.1541 -0.6434
  259SOL    HW1 1034   0.590   0.524   2.416  0.8353  0.7103  1.2768
  259SOL    HW2 1035   0.670   0.395   2.400  0.6880 -1.2854  0.9212
  259SOL     MW 1036   0.657   0.474   2.443  0.8251  0.0375 -0.1837
  260SOL     OW 1037   0.606   0.133   1.592 -0.8135 -0.5741  0.2881
  260SOL    HW1 1038   0.557   0.119   1.512 -0.4553 -0.0186 -0.1557
  260SOL    HW2 1039   0.697   0.155   1.569  0.0665 -0.1152 -1.4777
  260SOL     MW 1040   0.612   0.134   1.578 -0.6501 -0.4403 -0.0035
  261SOL     OW 1041   1.120   0.667   2.114  0.5118 -0.3193  0.0250
  261SOL    HW1 1042   1.139   0.633   2.203  1.2276  1.0798  0.8446
  261SOL    HW2 1043   1.198   0.645   2.071 -0.4715 -0.4201  0.2321
  261SOL     MW 1044   1.133   0.659   2.120  0.4765 -0.1480  0.1605
  262SOL     OW 1045   1.129   0.348   0.081  0.1953 -0.1419  0.0430
  262SOL    HW1 1046   1.222   0.334   0.098 -1.4537  2.8246  0.4594
  262SOL    HW2 1047   1.110   0.324  -0.006  1.3992  1.3466 -0.8837
  262SOL     MW 1048   1.139   0.343   0.072  0.1366  0.4459 -0.0243
  263SOL     OW 1049   0.489   3.023   2.526  0.2315  0.3783  0.7812
  263SOL    HW1 1050   0.415   3.083   2.519 -0.0608  3.4373 -1.0926
  263SOL    HW2 1051   0.504   3.012   2.429 -1.6623 -2.7924 -0.2762
  263SOL     MW 1052   0.481   3.030   2.512 -0.0570  0.3635  0.3945
  264SOL     OW 1053   1.552   1.370   1.946 -0.1792  0.4862 -0.3142
  264SOL    HW1 1054   1.485   1.412   1.995  0.8508 -0.8395  1.6984
  264SOL    HW2 1055   1.625   1.352   2.011 -0.7021 -0.1271  1.0316
  264SOL     MW 1056   1.552   1.374   1.961 -0.1123  0.2303  0.1289
  265SOL     OW 1057   0.681   2.740   2.248  0.4525 -0.4399  0.0338
  265SOL    HW1 1058   0.713   2.677   2.187 -3.0831  1.3578  2.4386
  265SOL    HW2 1059   0.711   2.715   2.336  0.9402  0.3089 -1.0045
  265SOL     MW 1060   0.689   2.728   2.251  0.0503 -0.1039  0.2141
  266SOL     OW 1061   0.896   0.787   2.260  0.1093  0.7404 -0.7297
  266SOL    HW1 1062   0.946   0.740   2.185  0.5030 -1.3132 -0.0943
  266SOL    HW2 1063   0.900   0.729   2.343  0.8242  0.5142  1.9169
  266SOL     MW 1064   0.903   0.773   2.261  0.2556  0.4396 -0.2967
  267SOL     OW 1065   1.382   1.798   2.689  0.2634 -0.3750  0.3854
  267SOL    HW1 1066   1.458   1.738   2.683  2.0605 -1.5564 -0.9970
  267SOL    HW2 1067   1.322   1.775   2.623  1.2323  0.4095 -0.2442
  267SOL     MW 1068   1.384   1.787   2.679  0.6284 -0.4273  0.1200
  268SOL     OW 1069   0.194   0.762   1.702 -0.3018 -0.6088  0.1359
  268SOL    HW1 1070   0.116   0.791   1.658  0.4790  1.8077 -0.4227
  268SOL    HW2 1071   0.199   0.670   1.684  2.9780  3.7313  1.6542
  268SOL     MW 1072   0.184   0.753   1.694  0.2340  0.2826  0.2625
  269SOL     OW 1073   1.445   1.963   2.444 -0.5349 -0.0338  0.3883
  269SOL    HW1 1074   1.476   1.930   2.525  1.1306  1.7161 -5.3081
  269SOL    HW2 1075   1.365   2.010   2.474  4.0196  1.1914  0.6763
  269SOL     MW 1076   1.438   1.964   2.459  0.2858  0.3587 -0.3253
  270SOL     OW 1077   1.176   0.455   1.613 -0.0617 -0.1463 -0.2973
  270SOL    HW1 1078   1.152   0.361   1.639 -0.4556 -2.8464 -2.1075
  270SOL    HW2 1079   1.268   0.450   1.587 -2.4023 -1.2015  1.2222
  270SOL     MW 1080   1.185   0.442   1.613 -0.4225 -0.6418 -0.3357
  271SOL     OW 1081   0.868   3.082   2.393 -0.2670 -0.2173 -0.3478
  271SOL    HW1 1082   0.905   3.019   2.461 -1.7899 -0.7271  0.2609
  271SOL    HW2 1083   0.909   3.173   2.393 -3.3187  2.7991  0.8304
  271SOL     MW 1084   0.879   3.086   2.402 -0.8706  0.1134 -0.1120
  272SOL     OW 1085   1.381   2.990   2.824  0.0108 -0.7629  0.3616
  272SOL    HW1 1086   1.332   3.037   2.756 -0.5158 -1.8946 -2.3371
  272SOL    HW2 1087   1.380   3.045   2.908  0.1417  2.0295 -1.5260
  272SOL     MW 1088   1.375   3.003   2.826 -0.0414 -0.5438 -0.2435
  273SOL     OW 1089   1.441   0.931   2.887 -0.3953  0.4068 -0.0128
  273SOL    HW1 1090   1.519   0.962   2.837  0.1696 -3.2331  1.2870
  273SOL    HW2 1091   1.393   1.012   2.898  1.0770  1.2606 -0.0307
  273SOL     MW 1092   1.445   0.946   2.882 -0.1266  0.0392  0.1563
  274SOL     OW 1093   1.340   0.734   0.137 -0.2833  0.5140  0.1613
  274SOL    HW1 1094   1.386   0.656   0.167 -1.6813 -0.8830 -0.1097
  274SOL    HW2 1095   1.258   0.741   0.198 -1.9327  0.4054  1.0862
  274SOL     MW 1096   1.336   0.724   0.149 -0.6853  0.3153  0.2475
  275SOL     OW 1097   1.704   0.705   1.821 -0.0756  0.6243  0.0195
  275SOL    HW1 1098   1.776   0.734   1.884 -1.0156 -1.1885  0.6989
  275SOL    HW2 1099   1.721   0.611   1.806  0.6967 -0.1472  1.0310
  275SOL     MW 1100   1.715   0.697   1.828 -0.0977  0.2833  0.2426
  276SOL     OW 1101   0.247   1.172   1.814 -0.2917  0.1654  0.2261
  276SOL    HW1 1102   0.309   1.102   1.826 -3.7157 -1.0011 -0.2538
  276SOL    HW2 1103   0.212   1.196   1.896 -0.3873  2.0877 -0.9469
  276SOL     MW 1104   0.251   1.166   1.826 -0.7561  0.2651  0.0080
  277SOL     OW 1105   1.945   1.373   2.650 -0.0764 -0.1336 -0.3288
  277SOL    HW1 1106   2.001   1.445   2.689  0.6834  2.2309  0.4831
  277SOL    HW2 1107   1.994   1.288   2.646 -0.7076 -2.1485 -3.1956
  277SOL     MW 1108   1.959   1.371   2.655 -0.0594 -0.0875 -0.5999
  278SOL     OW 1109   1.428   0.660   1.735  0.5075  0.0475 -0.1726
  278SOL    HW1 1110   1.383   0.600   1.799  0.5016  0.5494  0.6511
  278SOL    HW2 1111   1.517   0.686   1.774 -0.0588  0.4798  0.8829
  278SOL     MW 1112   1.434   0.655   1.749  0.4320  0.1708  0.0753
  279SOL     OW 1113   0.573   3.054   2.270 -0.0489 -0.1408 -0.8651
  279SOL    HW1 1114   0.664   3.019   2.267 -0.4970  2.8141 -0.5704
  279SOL    HW2 1115   0.584   3.145   2.297 -0.8528 -0.9728  4.4316
  279SOL     MW 1116   0.586   3.061   2.273 -0.2141  0.1393 -0.1274
  280SOL     OW 1117   1.496   1.147   2.229  0.5773 -0.2697 -0.4308
  280SOL    HW1 1118   1.494   1.071   2.169 -0.1920 -0.7526  0.8517
  280SOL    HW2 1119   1.501   1.121   2.319 -0.8799 -1.0509 -0.3265
  280SOL     MW 1120   1.497   1.133   2.233  0.2836 -0.4364 -0.2478
  281SOL     OW 1121   1.259   1.418   2.849 -0.0304 -0.2662  0.6166
  281SOL    HW1 1122   1.355   1.439   2.841  0.1761 -4.6389  1.4407
  281SOL    HW2 1123   1.269   1.329   2.884 -0.6267 -1.8130  1.2058
  281SOL     MW 1124   1.273   1.409   2.852 -0.0818 -1.0472  0.8031
  282SOL     OW 1125   1.122   1.301   1.693  0.9479 -0.0605  0.1560
  282SOL    HW1 1126   1.092   1.352   1.615  1.0160 -0.6260 -1.7562
  282SOL    HW2 1127   1.043   1.246   1.709 -3.3142  4.2287  0.8340
  282SOL     MW 1128   1.107   1.301   1.685  0.3945  0.4308 -0.0069
  283SOL     OW 1129   0.709   1.232   3.083  0.3698  0.7221  0.0228
  283SOL    HW1 1130   0.804   1.221   3.078 -0.3813  0.8481  0.4175
  283SOL    HW2 1131   0.706   1.317   3.122 -3.3314 -0.5316 -1.8561
  283SOL     MW 1132   0.722   1.242   3.088 -0.2176  0.5733 -0.1730
  284SOL     OW 1133   0.473   0.631   2.332 -0.2770  0.4541  0.1254
  284SOL    HW1 1134   0.522   0.722   2.316  3.1894 -0.5890 -1.2417
  284SOL    HW2 1135   0.454   0.583   2.248  0.8752  0.4386 -1.3635
  284SOL     MW 1136   0.477   0.637   2.319  0.3324  0.3144 -0.2514
  285SOL     OW 1137   0.884   0.929   2.840 -0.6955  1.0884  0.5757
  285SOL    HW1 1138   0.929   0.968   2.772  0.3522 -1.2963  1.7653
  285SOL    HW2 1139   0.845   0.841   2.820 -1.2045 -2.4852 -1.0035
  285SOL     MW 1140   0.885   0.922   2.828 -0.6244  0.3022  0.5243
  286SOL     OW 1141   1.175   1.459   2.594  0.1887 -0.2075 -0.0637
  286SOL    HW1 1142   1.217   1.435   2.681 -0.7869 -0.7665 -0.6485
  286SOL    HW2 1143   1.165   1.552   2.612  0.5240  0.4599 -0.7102
  286SOL     MW 1144   1.179   1.468   2.608  0.1042 -0.1932 -0.2261
  287SOL     OW 1145   1.041   0.962   0.415 -0.2148 -0.1467 -0.8843
  287SOL    HW1 1146   1.130   0.993   0.439 -0.5452 -0.5404 -2.1167
  287SOL    HW2 1147   1.016   1.032   0.356 -0.2001 -0.9586  1.0627
  287SOL     MW 1148   1.049   0.976   0.411 -0.2565 -0.3057 -0.7900
  288SOL     OW 1149   1.502   0.641   2.141 -0.3391 -0.4442 -0.2060
  288SOL    HW1 1150   1.487   0.635   2.236 -0.7874  1.6005 -3.3322
  288SOL    HW2 1151   1.526   0.729   2.122 -1.6829 -1.6691 -2.1176
  288SOL     MW 1152   1.503   0.652   2.151 -0.5755 -0.3360 -0.8707
  289SOL     OW 1153   0.903   1.087   2.584  0.3276  0.0941  0.7221
  289SOL    HW1 1154   0.972   1.042   2.531  1.3231  0.0550  0.8962
  289SOL    HW2 1155   0.819   1.071   2.536 -3.0066 -0.3747  0.5113
  289SOL     MW 1156   0.901   1.079   2.571  0.0190  0.0271  0.7173
  290SOL     OW 1157   0.856   0.620   1.531 -0.1927 -1.0959  0.0445
  290SOL    HW1 1158   0.912   0.572   1.474  0.1502  0.5215  1.2843
  290SOL    HW2 1159   0.901   0.602   1.616  1.3044 -1.9624  0.7060
  290SOL     MW 1160   0.870   0.611   1.535  0.0501 -0.9968  0.2953
  291SOL     OW 1161   0.191   0.345   0.220 -0.5882 -0.1056  0.1196
  291SOL    HW1 1162   0.274   0.307   0.244 -1.8821  0.6270  2.1137
  291SOL    HW2 1163   0.133   0.283   0.178  0.0137  1.7891  0.6770
  291SOL     MW 1164   0.195   0.332   0.217 -0.6795  0.2411  0.4562
  292SOL     OW 1165   0.949   0.568   0.091  0.4501 -0.3964  0.2060
  292SOL    HW1 1166   0.982   0.641   0.145 -1.9772 -0.9408  0.3937
  292SOL    HW2 1167   1.017   0.501   0.097  0.1768  1.9191 -0.2855
  292SOL     MW 1168   0.962   0.569   0.099  0.0938 -0.1627  0.1659
  293SOL     OW 1169   0.234   0.065   2.499 -0.2465 -0.4130  0.1298
  293SOL    HW1 1170   0.160   0.051   2.438  0.6635  0.7494 -2.3464
  293SOL    HW2 1171   0.201   0.126   2.564  2.4808 -0.6082 -1.0038
  293SOL     MW 1172   0.220   0.071   2.500  0.2334 -0.2854 -0.3465
  294SOL     OW 1173   1.466   0.630   2.420 -0.2953 -0.4373 -0.7273
  294SOL    HW1 1174   1.499   0.699   2.480 -1.1473  1.8833  1.9418
  294SOL    HW2 1175   1.485   0.548   2.465 -0.3086  0.7952 -2.3574
  294SOL     MW 1176   1.473   0.628   2.434 -0.4095  0.0315 -0.5902
  295SOL     OW 1177   0.845   0.665   2.497  1.2025  0.0188 -0.3790
  295SOL    HW1 1178   0.781   0.594   2.465  0.1543  1.5899 -1.2935
  295SOL    HW2 1179   0.818   0.690   2.589 -1.0079  2.0775  0.0635
  295SOL     MW 1180   0.833   0.659   2.505  0.7726  0.4977 -0.4413
  296SOL     OW 1181   1.302   0.316   2.077  0.5153  0.2377  0.4141
  296SOL    HW1 1182   1.388   0.282   2.090  3.4089 -0.7700 -2.2586
  296SOL    HW2 1183   1.246   0.258   2.126 -2.6767  0.4668 -0.9131
  296SOL     MW 1184   1.306   0.304   2.085  0.4760  0.1350 -0.1137
  297SOL     OW 1185   1.418   0.422   1.512  0.3542  0.0604  0.6020
  297SOL    HW1 1186   1.471   0.506   1.514  0.7900 -2.0420 -1.3327
  297SOL    HW2 1187   1.480   0.354   1.535  1.2041  0.5269 -0.3683
  297SOL     MW 1188   1.433   0.424   1.516  0.5238 -0.1555  0.2187
  298SOL     OW 1189   1.516   0.924   2.074  0.4586  0.1132  0.0480
  298SOL    HW1 1190   1.514   0.952   1.981 -0.4129  1.5480  0.3644
  298SOL    HW2 1191   1.608   0.911   2.097 -1.8228  1.6481  0.8016
  298SOL     MW 1192   1.528   0.926   2.064  0.0426  0.5050  0.1891
  299SOL     OW 1193   0.527   1.030   3.094 -0.0105  0.0085  0.3499
  299SOL    HW1 1194   0.602   1.082   3.119  2.5186 -0.0769  1.1768
  299SOL    HW2 1195   0.502   1.057   3.000 -2.9412 -1.6275  0.2164
  299SOL     MW 1196   0.534   1.040   3.085 -0.0635 -0.2186  0.4413
  300SOL     OW 1197   1.230   1.131   2.507  0.2407  0.3232  0.3566
  300SOL    HW1 1198   1.168   1.075   2.457 -1.6884 -0.9096 -3.1536
  300SOL    HW2 1199   1.167   1.202   2.532  0.3490  1.5995  0.6112
  300SOL     MW 1200   1.214   1.133   2.504  0.0005  0.3289 -0.0729
  301SOL     OW 1201   1.368   0.714   0.572 -0.3231  0.1576 -0.1127
  301SOL    HW1 1202   1.397   0.716   0.665  0.4604  0.4950  0.5996
  301SOL    HW2 1203   1.310   0.640   0.558 -1.2678 -1.7719 -1.0213
  301SOL     MW 1204   1.364   0.704   0.582 -0.3443 -0.0525 -0.1386
  302SOL     OW 1205   0.131   1.453   1.942 -0.4069  0.4477  0.8712
  302SOL    HW1 1206   0.139   1.402   2.023  0.3027 -1.2306 -1.7552
  302SOL    HW2 1207   0.088   1.527   1.980 -1.4046 -2.6430  1.9040
  302SOL     MW 1208   0.126   1.456   1.958 -0.4449 -0.1815  0.6609
  303SOL     OW 1209   0.397   1.767   2.577  0.0706 -0.7156 -0.0730
  303SOL    HW1 1210   0.380   1.749   2.485 -0.5779  1.4394 -0.8288
  303SOL    HW2 1211   0.308   1.778   2.614  1.8672  2.3933 -3.0019
  303SOL     MW 1212   0.383   1.766   2.570  0.2221 -0.0211 -0.5592
  304SOL     OW 1213   0.518   2.076   2.424  1.2710  0.3047 -0.3476
  304SOL    HW1 1214   0.499   2.162   2.387 -0.7767 -0.4065  1.5770
  304SOL    HW2 1215   0.596   2.035   2.384 -0.1494  0.6695  1.7633
  304SOL     MW 1216   0.526   2.082   2.414  0.8134  0.2590  0.1849
  305SOL     OW 1217   1.161   0.549   0.513 -0.3463 -0.0251  0.0835
  305SOL    HW1 1218   1.061   0.549   0.529 -3.1564 -1.1955  0.2844
  305SOL    HW2 1219   1.170   0.454   0.518  0.0085 -0.4273  1.3828
  305SOL     MW 1220   1.149   0.536   0.516 -0.6703 -0.2326  0.2814
  306SOL     OW 1221   1.224   1.436   0.308 -0.6339 -0.2184 -0.0236
  306SOL    HW1 1222   1.262   1.352   0.331  0.3236  2.1682 -1.6093
  306SOL    HW2 1223   1.275   1.476   0.229  0.1325  1.3140 -2.4552
  306SOL     MW 1224   1.236   1.430   0.301 -0.4064  0.2987 -0.5536
  307SOL     OW 1225   1.322   0.567   1.950  0.1875  0.4318 -0.2343
  307SOL    HW1 1226   1.316   0.473   1.979 -0.2219  1.2319  0.6539
  307SOL    HW2 1227   1.388   0.596   2.012  1.5795 -3.4160  0.9260
  307SOL     MW 1228   1.330   0.558   1.962  0.3171  0.0297  0.0359
  308SOL     OW 1229   2.107   0.612   2.695  0.3477  0.7330 -0.6156
  308SOL    HW1 1230   2.093   0.517   2.711 -1.2493  0.4129  1.0958
  308SOL    HW2 1231   2.182   0.653   2.736 -1.3142 -3.7891  2.5059
  308SOL     MW 1232   2.115   0.604   2.702 -0.0823  0.0941  0.0220
  309SOL     OW 1233   0.562   0.495   0.417  0.1797  0.5264  0.4218
  309SOL    HW1 1234   0.577   0.401   0.434  0.1694 -1.0523 -0.0704
  309SOL    HW2 1235   0.547   0.501   0.322 -1.8892 -0.2538  0.3779
  309SOL     MW 1236   0.562   0.484   0.407 -0.0946  0.2151  0.3510
  310SOL     OW 1237   0.427   0.529   1.915  0.4015 -0.0081  0.2053
  310SOL    HW1 1238   0.484   0.461   1.874 -0.8123 -0.9081 -1.2948
  310SOL    HW2 1239   0.485   0.605   1.925  1.9095 -1.9176 -0.5998
  310SOL     MW 1240   0.442   0.530   1.911  0.4403 -0.3788 -0.0989
  311SOL     OW 1241   1.906   0.751   1.986  0.4068 -0.3399 -0.0145
  311SOL    HW1 1242   1.859   0.781   2.067  1.0897  2.3220  0.8486
  311SOL    HW2 1243   1.954   0.668   2.007 -3.7397  0.6422  0.4053
  311SOL     MW 1244   1.906   0.744   2.000 -0.0502  0.1409  0.1547
  312SOL     OW 1245   1.752   2.542   0.002  0.1182 -0.4890  0.0919
  312SOL    HW1 1246   1.790   2.578   0.080 -3.5175  0.6712  0.4417
  312SOL    HW2 1247   1.657   2.515   0.013 -1.9221 -0.2900 -1.1911
  312SOL     MW 1248   1.745   2.543   0.014 -0.6307 -0.3097 -0.0312
  313SOL     OW 1249   0.089   1.235   2.964  0.1005  0.0028 -0.0337
  313SOL    HW1 1250   0.164   1.236   3.026  0.9599  0.9684 -0.5212
  313SOL    HW2 1251   0.125   1.238   2.875  1.9189 -0.7819  2.1018
  313SOL     MW 1252   0.104   1.235   2.960  0.4538  0.0267  0.1837
  314SOL     OW 1253   2.154   3.040   2.961 -0.2272  0.0814 -0.3057
  314SOL    HW1 1254   2.101   3.109   2.910 -0.7664 -1.2761  1.1870
  314SOL    HW2 1255   2.200   3.100   3.020  1.9195 -0.6252  1.0988
  314SOL     MW 1256   2.153   3.057   2.962 -0.0151 -0.1910  0.0766
  315SOL     OW 1257   1.560   1.971   3.023 -0.1879 -0.1146 -0.0842
  315SOL    HW1 1258   1.495   2.001   3.082  2.2691  0.8081  0.4618
  315SOL    HW2 1259   1.577   2.042   2.956  0.1658  2.1536 -0.5013
  315SOL     MW 1260   1.554   1.984   3.022  0.1829  0.3064 -0.0672
  316SOL     OW 1261   1.230   0.671   2.673 -0.1621 -0.1434  0.2825
  316SOL    HW1 1262   1.309   0.631   2.639 -0.4808  1.1629  1.2353
  316SOL    HW2 1263   1.224   0.640   2.757 -0.9510  1.4438 -1.9738
  316SOL     MW 1264   1.240   0.661   2.679 -0.3083  0.2383  0.1105
  317SOL     OW 1265   0.632   1.403   2.575  0.4437  0.4753  0.3130
  317SOL    HW1 1266   0.684   1.348   2.625 -0.5215  3.5912 -0.1887
  317SOL    HW2 1267   0.693   1.437   2.512 -3.5490 -0.2550  1.6203
  317SOL     MW 1268   0.647   1.400   2.573 -0.2105  0.7900  0.4193
  318SOL     OW 1269   1.288   0.335   2.901  0.2832  0.1546  0.3033
  318SOL    HW1 1270   1.198   0.386   2.904  0.7041  0.3521  0.2989
  318SOL    HW2 1271   1.345   0.403   2.856  2.7517 -2.8611 -2.8147
  318SOL     MW 1272   1.284   0.351   2.895  0.6644 -0.2173 -0.1086
  319SOL     OW 1273   0.821   0.403   2.763  0.3200  0.0738  0.1778
  319SOL    HW1 1274   0.801   0.360   2.682  0.7878  1.4257  2.2324
  319SOL    HW2 1275   0.744   0.388   2.819 -2.1371  0.6974 -2.0208
  319SOL     MW 1276   0.808   0.395   2.759  0.0575  0.3345  0.1588
  320SOL     OW 1277   1.002   1.327   2.024 -0.2970  0.3601  0.0909
  320SOL    HW1 1278   1.059   1.257   2.067  1.4444 -2.9403 -1.3839
  320SOL    HW2 1279   1.061   1.398   1.988 -1.6240  0.5399 -2.5090
  320SOL     MW 1280   1.017   1.327   2.025 -0.2423 -0.0516 -0.4467
  321SOL     OW 1281   1.097   0.956   3.007  0.2089  0.0004  0.4688
  321SOL    HW1 1282   1.007   0.929   2.974 -0.3125 -0.8085 -1.4699
  321SOL    HW2 1283   1.155   0.877   2.997 -1.7001 -0.2714  1.0740
  321SOL     MW 1284   1.093   0.942   3.001 -0.1118 -0.1422  0.2928
  322SOL     OW 1285   1.192   0.818   1.709 -0.5916 -0.1200  0.5072
  322SOL    HW1 1286   1.265   0.761   1.718 -1.0839  0.7537  2.2735
  322SOL    HW2 1287   1.186   0.850   1.799  0.8978  0.6755  1.1810
  322SOL     MW 1288   1.201   0.815   1.722 -0.4600  0.1003  0.8291
  323SOL     OW 1289   1.182   1.497   1.884  0.1947  0.0825 -0.0112
  323SOL    HW1 1290   1.177   1.426   1.821  0.7804 -4.2760 -0.9600
  323SOL    HW2 1291   1.121   1.567   1.845 -2.6140 -1.7531 -0.9092
  323SOL     MW 1292   1.173   1.497   1.871 -0.0986 -0.7347 -0.2549
  324SOL     OW 1293   1.510   1.087   2.484  0.7138  0.3868  0.2483
  324SOL    HW1 1294   1.429   1.125   2.518 -0.1604  0.9075  0.0254
  324SOL    HW2 1295   1.560   1.160   2.520 -0.3931  0.3103 -0.4373
  324SOL     MW 1296   1.506   1.101   2.493  0.4524  0.4454  0.1284
  325SOL     OW 1297   1.053   0.483   2.905  0.4851 -0.0784 -0.6661
  325SOL    HW1 1298   1.030   0.541   2.976 -0.1911  2.0920 -0.0610
  325SOL    HW2 1299   0.974   0.462   2.850 -1.7979  0.5898  2.2901
  325SOL     MW 1300   1.040   0.488   2.907  0.0947  0.2961 -0.1962
  326SOL     OW 1301   0.389   1.378   2.198  0.2824 -1.0587  0.1937
  326SOL    HW1 1302   0.452   1.317   2.160  1.5629 -2.2620  0.1321
  326SOL    HW2 1303   0.416   1.470   2.189  1.4384 -0.1131  1.7174
  326SOL     MW 1304   0.401   1.382   2.192  0.6038 -1.0927  0.3866
  327SOL     OW 1305   1.903   0.838   2.399 -0.7938  0.3317 -0.4666
  327SOL    HW1 1306   1.889   0.794   2.486 -0.0269 -0.6106  1.0562
  327SOL    HW2 1307   1.998   0.863   2.401 -0.8250  3.0860  1.8252
  327SOL     MW 1308   1.913   0.835   2.411 -0.6967  0.5707  0.0367
  328SOL     OW 1309   0.130   1.334   2.194  0.4608  0.1360  0.5355
  328SOL    HW1 1310   0.097   1.255   2.148  1.5415  0.7509 -1.2766
  328SOL    HW2 1311   0.224   1.327   2.198 -1.1317  2.1370  1.5096
  328SOL     MW 1312   0.138   1.323   2.189  0.3933  0.4812  0.4249
  329SOL     OW 1313   0.116   0.169   1.382 -0.1956  0.0411 -0.0836
  329SOL    HW1 1314   0.057   0.179   1.455  2.1314  3.6341 -3.9959
  329SOL    HW2 1315   0.198   0.214   1.407  0.2067 -3.3085 -0.8346
  329SOL     MW 1316   0.119   0.176   1.395  0.1645  0.0732 -0.6989
  330SOL     OW 1317   0.401   2.977   2.066  0.0807  0.4420 -0.2723
  330SOL    HW1 1318   0.455   2.993   2.141  0.0664 -1.3216 -2.9852
  330SOL    HW2 1319   0.309   2.972   2.109 -1.4382  1.8584  0.2005
  330SOL     MW 1320   0.396   2.978   2.082 -0.1216  0.3962 -0.5679
  331SOL     OW 1321   0.821   1.202   2.262  0.4301 -0.1060  0.0189
  331SOL    HW1 1322   0.781   1.221   2.171 -0.4309  0.5597 -0.6106
  331SOL    HW2 1323   0.825   1.295   2.287  0.7597  1.0576  1.5809
  331SOL     MW 1324   0.816   1.217   2.253  0.3600  0.1353  0.1419
  332SOL     OW 1325   1.401   1.759   2.965 -0.8038  0.3096 -0.2842
  332SOL    HW1 1326   1.374   1.781   2.874 -0.8199  2.4352  0.4880
  332SOL    HW2 1327   1.450   1.832   2.997 -1.0812  0.0623 -0.0015
  332SOL     MW 1328   1.404   1.771   2.958 -0.8425  0.5575 -0.1450
  333SOL     OW 1329   1.719   1.509   3.012 -0.4791  0.2444 -0.3344
  333SOL    HW1 1330   1.811   1.514   3.034 -1.4099  2.7555  0.0904
  333SOL    HW2 1331   1.675   1.449   3.075  1.5051  0.3195  0.9634
  333SOL     MW 1332   1.725   1.502   3.023 -0.3401  0.5856 -0.1072
  334SOL     OW 1333   1.226   3.094   2.643  0.1658 -0.0890  0.4822
  334SOL    HW1 1334   1.142   3.096   2.682  4.4151  0.7973 -1.3839
  334SOL    HW2 1335   1.260   3.186   2.645 -1.3819  0.5474  0.1753
  334SOL     MW 1336   1.220   3.107   2.648  0.5223  0.1119  0.1955
  335SOL     OW 1337   1.268   0.742   2.985 -0.1379  0.0027  0.1434
  335SOL    HW1 1338   1.281   0.752   3.083 -0.0181 -0.8400  3.0372
  335SOL    HW2 1339   1.338   0.795   2.947  1.5984 -2.3748  3.5947
  335SOL     MW 1340   1.279   0.750   2.993  0.1070 -0.4222  0.9805
  336SOL     OW 1341   0.896   1.119   1.865 -0.2049  0.7934  0.0181
  336SOL    HW1 1342   0.932   1.194   1.907  1.2118 -0.3229  1.7404
  336SOL    HW2 1343   0.973   1.068   1.869  1.3463  0.3751  0.1186
  336SOL     MW 1344   0.911   1.122   1.871  0.1867  0.5909  0.2586
  337SOL     OW 1345   0.537   1.768   2.841 -0.5910  0.2490  0.1519
  337SOL    HW1 1346   0.499   1.808   2.758 -1.5008  1.0088 -0.6204
  337SOL    HW2 1347   0.608   1.705   2.811  1.0818  2.1157 -1.9538
  337SOL     MW 1348   0.541   1.765   2.826 -0.4903  0.5955 -0.2278
  338SOL     OW 1349   1.067   0.828   2.528  0.2019 -0.5120  0.2678
  338SOL    HW1 1350   0.975   0.794   2.526  0.7211 -0.0504  1.3708
  338SOL    HW2 1351   1.122   0.781   2.598  5.5050 -1.9912  0.9362
  338SOL     MW 1352   1.062   0.817   2.537  0.9701 -0.6462  0.5015
  339SOL     OW 1353   1.524   1.113   1.830  0.5902 -0.5908 -0.0387
  339SOL    HW1 1354   1.447   1.139   1.776  0.6014  0.3883  0.3804
  339SOL    HW2 1355   1.540   1.192   1.879  0.2875 -3.6527 -0.1426
  339SOL     MW 1356   1.516   1.127   1.829  0.5518 -0.8656  0.0029
  340SOL     OW 1357   1.334   1.605   0.082  0.4592  0.2212  0.4946
  340SOL    HW1 1358   1.353   1.641  -0.001 -2.8695 -0.7549  0.5413
  340SOL    HW2 1359   1.421   1.609   0.124 -1.6088  1.7109  0.1375
  340SOL     MW 1360   1.348   1.610   0.077 -0.2528  0.2890  0.4536
  341SOL     OW 1361   0.181   1.344   2.669  0.0882 -0.5466  0.0694
  341SOL    HW1 1362   0.251   1.410   2.657 -0.4199  1.0778  3.3599
  341SOL    HW2 1363   0.124   1.349   2.589 -2.6408  0.4197 -1.7562
  341SOL     MW 1364   0.183   1.353   2.657 -0.3389 -0.2048  0.2627
  342SOL     OW 1365   1.406   0.289   0.071 -0.1899  0.0045 -0.4286
  342SOL    HW1 1366   1.450   0.372   0.101  0.4407  1.3802 -1.8019
  342SOL    HW2 1367   1.404   0.308  -0.024 -1.0068  0.9774 -1.8519
  342SOL     MW 1368   1.412   0.302   0.063 -0.2145  0.3144 -0.7976
  343SOL     OW 1369   0.199   0.299   2.313  0.3309 -0.3411 -0.4026
  343SOL    HW1 1370   0.231   0.228   2.372  0.0880  0.1271  2.4434
  343SOL    HW2 1371   0.141   0.259   2.240  1.4430 -0.6474 -1.7082
  343SOL     MW 1372   0.196   0.284   2.311  0.4456 -0.3197 -0.1993
  344SOL     OW 1373   1.713   2.143   0.164 -0.4618 -0.7342  0.6886
  344SOL    HW1 1374   1.733   2.186   0.081  0.8331  0.3781  2.6517
  344SOL    HW2 1375   1.667   2.065   0.135  4.0012  0.6935  0.7949
  344SOL     MW 1376   1.710   2.138   0.149  0.2979 -0.3990  0.9616
  345SOL     OW 1377   0.675   1.617   2.351  0.0524 -0.1118 -0.0721
  345SOL    HW1 1378   0.581   1.613   2.324 -1.7693  0.8669  0.0196
  345SOL    HW2 1379   0.723   1.566   2.282  0.9404 -0.5916  1.7165
  345SOL     MW 1380   0.669   1.610   2.338 -0.0708 -0.0459  0.1760
  346SOL     OW 1381   1.695   1.046   0.024 -0.3728  0.3484  0.5954
  346SOL    HW1 1382   1.788   1.047   0.046 -2.0169 -0.0592 -1.6141
  346SOL    HW2 1383   1.642   0.994   0.084 -0.6450 -0.3826 -4.0695
  346SOL     MW 1384   1.700   1.040   0.034 -0.6256  0.1981 -0.3116
  347SOL     OW 1385   1.180   0.604   2.385  0.2418 -0.4562  0.3299
  347SOL    HW1 1386   1.277   0.621   2.372 -2.0465  0.2844 -0.4293
  347SOL    HW2 1387   1.149   0.682   2.426 -2.5722  0.0710 -1.3380
  347SOL     MW 1388   1.189   0.617   2.389 -0.4314 -0.2889  0.0096
  348SOL     OW 1389   1.364   2.633   1.884 -0.2076  0.2741  0.4584
  348SOL    HW1 1390   1.422   2.570   1.930  1.1849 -3.5895  0.5231
  348SOL    HW2 1391   1.383   2.710   1.936  0.2955 -0.1452 -1.4155
  348SOL     MW 1392   1.374   2.635   1.897  0.0425 -0.2910  0.2197
  349SOL     OW 1393   1.375   0.220   2.673  0.5035  0.2009 -0.4793
  349SOL    HW1 1394   1.331   0.243   2.757 -0.2953  2.1842 -1.0364
  349SOL    HW2 1395   1.460   0.173   2.697  1.1594  0.1797 -1.7347
  349SOL     MW 1396   1.381   0.217   2.687  0.4846  0.4598 -0.7185
  350SOL     OW 1397   1.861   0.690   2.635 -0.4073  0.5553 -0.2702
  350SOL    HW1 1398   1.815   0.618   2.586 -3.1322  2.2995 -3.1540
  350SOL    HW2 1399   1.953   0.665   2.652  0.3126 -1.1041  0.4944
  350SOL     MW 1400   1.867   0.677   2.630 -0.6719  0.5665 -0.5498
  351SOL     OW 1401   3.098   0.932   1.589  0.2929  0.0039  0.3409
  351SOL    HW1 1402   3.010   0.934   1.621  1.3156  1.5901  1.5246
  351SOL    HW2 1403   3.125   1.023   1.580 -0.4754  0.5898  0.1927
  351SOL     MW 1404   3.090   0.944   1.592  0.3265  0.2905  0.4775
  352SOL     OW 1405   0.777   1.615   2.758 -0.3695  0.5762 -0.2283
  352SOL    HW1 1406   0.796   1.591   2.857 -0.2180  0.3920  3.1840
  352SOL    HW2 1407   0.743   1.538   2.714  2.2958 -2.2919 -0.4015
  352SOL     MW 1408   0.775   1.601   2.765  0.0022  0.1735  0.1990
  353SOL     OW 1409   3.027   2.400   2.762 -0.8047  0.0726  0.2152
  353SOL    HW1 1410   3.108   2.371   2.723  0.5464 -0.3485  2.5185
  353SOL    HW2 1411   3.006   2.489   2.729 -0.5608 -0.1793  1.1510
  353SOL     MW 1412   3.035   2.408   2.752 -0.5942 -0.0162  0.6426
  354SOL     OW 1413   0.405   2.398   0.876  0.1573 -0.3892 -0.0949
  354SOL    HW1 1414   0.419   2.393   0.974 -0.7995  0.5836 -1.4838
  354SOL    HW2 1415   0.322   2.355   0.854 -0.3464  0.1289 -2.7911
  354SOL     MW 1416   0.396   2.392   0.886 -0.0354 -0.1925 -0.6339
  355SOL     OW 1417   0.083   2.248   0.384  0.1122 -0.3044  0.0767
  355SOL    HW1 1418  -0.005   2.205   0.380 -1.8181 -1.5552  0.4072
  355SOL    HW2 1419   0.088   2.289   0.472 -1.1705 -2.4847 -1.1439
  355SOL     MW 1420   0.072   2.248   0.395 -0.3117 -0.7571 -0.0407
  356SOL     OW 1421   0.793   2.978   1.018  0.3199 -0.5275  0.7334
  356SOL    HW1 1422   0.856   2.963   0.948  1.1132 -2.1391 -1.0436
  356SOL    HW2 1423   0.727   2.912   1.002  1.1460  1.5006  0.2550
  356SOL     MW 1424   0.793   2.967   1.007  0.5336 -0.4725  0.4358
  357SOL     OW 1425   1.797   2.938   0.366 -0.3668 -0.5036  0.1627
  357SOL    HW1 1426   1.748   2.876   0.421 -1.8748 -0.9673 -1.0958
  357SOL    HW2 1427   1.877   2.892   0.360 -1.5988  1.4198  1.4497
  357SOL     MW 1428   1.801   2.924   0.373 -0.7283 -0.3110  0.1665
  358SOL     OW 1429   0.417   0.177   1.041 -1.1771 -0.3688 -0.7362
  358SOL    HW1 1430   0.501   0.150   1.010  1.6546  0.8052 -2.8532
  358SOL    HW2 1431   0.373   0.204   0.959  0.1174  1.3170 -0.9437
  358SOL     MW 1432   0.422   0.177   1.026 -0.6327  0.0085 -1.0429
  359SOL     OW 1433   0.988   2.772   1.843  0.5782  0.1777 -1.0317
  359SOL    HW1 1434   0.946   2.722   1.911  1.7195 -3.7447 -1.2212
  359SOL    HW2 1435   1.032   2.690   1.819  0.3851 -0.7133  1.7890
  359SOL     MW 1436   0.988   2.755   1.849  0.7033 -0.4574 -0.6845
  360SOL     OW 1437   0.612   2.780   0.926  0.9010  0.2965  0.5651
  360SOL    HW1 1438   0.625   2.724   0.849  0.2200 -0.1922 -1.3506
  360SOL    HW2 1439   0.605   2.705   0.992 -1.4577  1.4096  0.8287
  360SOL     MW 1440   0.613   2.763   0.925  0.4999  0.3789  0.3471
  361SOL     OW 1441   0.159   2.760   1.355 -0.2839 -0.0821  0.0234
  361SOL    HW1 1442   0.145   2.847   1.389  2.2982 -2.6090 -2.2851
  361SOL    HW2 1443   0.244   2.729   1.390 -2.2231 -2.1304 -0.5087
  361SOL     MW 1444   0.168   2.768   1.364 -0.1991 -0.6857 -0.3514
  362SOL     OW 1445   1.485   2.398   0.587  0.1193  0.5968 -0.1845
  362SOL    HW1 1446   1.500   2.321   0.646  2.5133  0.3908 -0.4601
  362SOL    HW2 1447   1.481   2.480   0.637 -1.3344 -1.7046 -0.1928
  362SOL     MW 1448   1.486   2.399   0.602  0.2434  0.2660 -0.2219
  363SOL     OW 1449   0.213   3.033   0.739  0.1870  0.6052  0.4405
  363SOL    HW1 1450   0.207   2.979   0.812  0.4952  1.3251 -0.4597
  363SOL    HW2 1451   0.128   3.034   0.694  0.5114 -3.3438 -0.5243
  363SOL     MW 1452   0.201   3.026   0.742  0.2705  0.1792  0.1945
  364SOL     OW 1453   0.733   0.191   0.162 -0.1867 -0.3798 -0.5792
  364SOL    HW1 1454   0.701   0.098   0.172 -1.1557 -3.5013 -0.7601
  364SOL    HW2 1455   0.653   0.242   0.170  2.8925  0.2333  1.0144
  364SOL     MW 1456   0.718   0.185   0.165  0.0917 -0.7108 -0.3928
  365SOL     OW 1457   0.994   1.965   1.131  0.2164 -0.5486  0.0013
  365SOL    HW1 1458   0.979   2.050   1.098  3.0498 -0.4191  1.3171
  365SOL    HW2 1459   0.952   1.910   1.072  0.7935  1.6692 -0.8101
  365SOL     MW 1460   0.987   1.969   1.119  0.6664 -0.2389  0.0678
  366SOL     OW 1461   2.869   2.682   1.039  0.1876  0.0550  0.0837
  366SOL    HW1 1462   2.964   2.662   1.074  0.2768  1.9738 -0.5556
  366SOL    HW2 1463   2.878   2.681   0.944 -1.5619 -0.5309 -1.7642
  366SOL     MW 1464   2.883   2.679   1.031 -0.0314  0.2309 -0.2445
  367SOL     OW 1465   1.293   2.914   0.888 -0.0787 -0.0394  0.0756
  367SOL    HW1 1466   1.227   2.925   0.950  3.2506  0.3599 -2.5666
  367SOL    HW2 1467   1.251   2.854   0.818 -0.9915 -0.2390 -0.9522
  367SOL     MW 1468   1.279   2.907   0.887  0.2401 -0.0131 -0.4086
  368SOL     OW 1469   1.695   0.443   0.652  0.0659 -0.3636 -0.3564
  368SOL    HW1 1470   1.774   0.404   0.616  0.7075  0.4507  1.3004
  368SOL    HW2 1471   1.707   0.535   0.655 -2.1828  0.4751 -2.1378
  368SOL     MW 1472   1.707   0.450   0.648 -0.1461 -0.1455 -0.3729
  369SOL     OW 1473   0.124   2.489   1.752  0.0964  0.5777  0.0974
  369SOL    HW1 1474   0.217   2.459   1.749 -0.6448 -0.6275 -0.0938
  369SOL    HW2 1475   0.123   2.574   1.784 -1.2240  1.1860 -2.1808
  369SOL     MW 1476   0.136   2.496   1.756 -0.1756  0.4990 -0.2284
  370SOL     OW 1477   0.666   0.104   0.950 -0.1411 -0.1705  0.0525
  370SOL    HW1 1478   0.726   0.181   0.948  1.1167  0.4725  0.0473
  370SOL    HW2 1479   0.719   0.033   0.993 -1.4836 -0.8531  3.5483
  370SOL     MW 1480   0.681   0.105   0.955 -0.1523 -0.1757  0.5131
  371SOL     OW 1481   1.335   2.972   1.530  0.0314 -0.3137 -0.3557
  371SOL    HW1 1482   1.256   2.926   1.495  0.5145  2.9643  0.1345
  371SOL    HW2 1483   1.349   3.042   1.464 -1.0731 -0.8273 -1.4848
  371SOL     MW 1484   1.326   2.975   1.517 -0.0506  0.0510 -0.4400
  372SOL     OW 1485   0.808   2.249   0.517  0.5533 -0.3425  0.5280
  372SOL    HW1 1486   0.751   2.165   0.514 -1.2020  0.0599 -1.7546
  372SOL    HW2 1487   0.815   2.253   0.420 -0.4267 -1.9359  1.4198
  372SOL     MW 1488   0.801   2.239   0.504  0.1924 -0.4997  0.3445
  373SOL     OW 1489   2.834   3.032   1.391  0.4198  0.8455  0.0565
  373SOL    HW1 1490   2.894   2.987   1.327  0.7794  0.5734  0.7387
  373SOL    HW2 1491   2.799   3.109   1.343 -1.5096  0.6061  0.4452
  373SOL     MW 1492   2.837   3.036   1.377  0.2127  0.7780  0.1978
  374SOL     OW 1493   1.494   0.534   0.223  0.3516 -0.2398  0.1343
  374SOL    HW1 1494   1.578   0.562   0.243 -2.5968  1.1928  0.4146
  374SOL    HW2 1495   1.479   0.496   0.306  1.2273  1.2587  0.3599
  374SOL     MW 1496   1.503   0.533   0.237  0.0781  0.1470  0.2011
  375SOL     OW 1497   1.148   2.104   2.273  0.3589 -0.0736 -0.2998
  375SOL    HW1 1498   1.146   2.114   2.373  0.4782  1.8111  1.7279
  375SOL    HW2 1499   1.148   2.006   2.256  0.7348 -0.5452  0.9912
  375SOL     MW 1500   1.148   2.092   2.284  0.4242  0.1129  0.1380
  376SOL     OW 1501   0.677   2.541   0.139 -0.7352  0.0317  0.4983
  376SOL    HW1 1502   0.705   2.489   0.214  0.2404 -0.8358 -2.9270
  376SOL    HW2 1503   0.619   2.483   0.085 -0.4173  0.3367 -2.3057
  376SOL     MW 1504   0.673   2.527   0.142 -0.5646 -0.0425 -0.3236
  377SOL     OW 1505   1.215   2.070   0.936 -0.2733 -0.4466 -0.2499
  377SOL    HW1 1506   1.188   2.035   0.849  0.7253 -0.4202 -1.1195
  377SOL    HW2 1507   1.232   1.996   0.991 -2.8649 -2.4491 -2.4293
  377SOL     MW 1508   1.214   2.056   0.932 -0.4835 -0.7073 -0.6522
  378SOL     OW 1509   0.960   2.803   1.504 -0.0279 -0.1017  0.3682
  378SOL    HW1 1510   0.906   2.722   1.521 -2.0707 -0.9450  1.6438
  378SOL    HW2 1511   0.925   2.852   1.427  1.1591  2.4123  1.7673
  378SOL     MW 1512   0.949   2.799   1.496 -0.1408  0.1187  0.7211
  379SOL     OW 1513   1.054   1.836   2.299  0.1593  0.1180 -0.3123
  379SOL    HW1 1514   0.965   1.830   2.335 -0.8326  0.7581 -1.0979
  379SOL    HW2 1515   1.076   1.746   2.274  1.3061 -3.1876  1.2468
  379SOL     MW 1516   1.046   1.823   2.300  0.1797 -0.2337 -0.2102
  380SOL     OW 1517   0.892   0.218   1.556  0.4408  0.1699  0.0224
  380SOL    HW1 1518   0.905   0.183   1.464 -1.0501 -1.4630 -2.2647
  380SOL    HW2 1519   0.977   0.200   1.601  2.8803 -0.9813  1.1039
  380SOL     MW 1520   0.905   0.211   1.550  0.5659 -0.1974 -0.1367
  381SOL     OW 1521   0.815   2.016   0.800  0.0769 -0.2094  0.0126
  381SOL    HW1 1522   0.900   2.013   0.755 -0.6881 -0.7663  1.4258
  381SOL    HW2 1523   0.815   2.094   0.859 -1.7784 -0.2743 -0.8091
  381SOL     MW 1524   0.826   2.026   0.802 -0.2688 -0.2914  0.0907
  382SOL     OW 1525   0.697   0.030   0.669  0.3756 -0.5368  0.7800
  382SOL    HW1 1526   0.690   0.076   0.754  0.7091 -0.9684  2.3828
  382SOL    HW2 1527   0.650  -0.051   0.678 -1.1866  2.8821  1.7955
  382SOL     MW 1528   0.690   0.026   0.681  0.2135 -0.1426  1.1254
  383SOL     OW 1529   0.491   0.008   0.358 -0.4635 -0.0645  0.6630
  383SOL    HW1 1530   0.532  -0.033   0.429  0.2352 -1.0088 -4.2500
  383SOL    HW2 1531   0.401  -0.020   0.363  1.7349  1.6485 -1.0715
  383SOL     MW 1532   0.485  -0.001   0.368 -0.0813  0.0369 -0.2141
  384SOL     OW 1533   0.597   2.881   0.575 -0.2387  0.1479  0.0022
  384SOL    HW1 1534   0.621   2.800   0.622  0.9755  1.5030 -1.0697
  384SOL    HW2 1535   0.505   2.869   0.568  3.0066 -1.8710 -0.7051
  384SOL     MW 1536   0.588   2.869   0.580  0.3497  0.0603 -0.2325
  385SOL     OW 1537   1.334   2.065   1.542 -0.2802  0.0777 -0.4464
  385SOL    HW1 1538   1.415   2.083   1.594  0.7767  3.2083 -0.0080
  385SOL    HW2 1539   1.295   1.975   1.565 -0.8197 -1.1554 -2.5556
  385SOL     MW 1540   1.339   2.055   1.552 -0.2119  0.3280 -0.6668
  386SOL     OW 1541   1.373   0.434   0.908  0.6873  0.0576  0.4030
  386SOL    HW1 1542   1.302   0.378   0.872 -2.8096  1.4419 -0.1757
  386SOL    HW2 1543   1.353   0.429   1.002 -1.2875  0.4195  0.6586
  386SOL     MW 1544   1.361   0.426   0.916 -0.0346  0.2880  0.3604
  387SOL     OW 1545   0.875   2.155   1.482 -0.5971  0.8058  1.0411
  387SOL    HW1 1546   0.943   2.210   1.453 -3.5350 -0.9037 -0.3808
  387SOL    HW2 1547   0.912   2.065   1.475  0.8435 -2.6321  1.0384
  387SOL     MW 1548   0.889   2.150   1.478 -0.7947  0.1267  0.8532
  388SOL     OW 1549   1.540   2.830   1.176 -0.5238 -0.8905  0.2726
  388SOL    HW1 1550   1.463   2.774   1.167 -1.1811 -1.9968 -0.2956
  388SOL    HW2 1551   1.616   2.794   1.130 -0.7826  0.9070 -1.3205
  388SOL     MW 1552   1.540   2.818   1.169 -0.6446 -0.7993 -0.0126
  389SOL     OW 1553   0.388   0.186   3.099 -0.2521  0.5236 -0.3145
  389SOL    HW1 1554   0.435   0.102   3.099 -2.6843 -1.4358  1.5533
  389SOL    HW2 1555   0.294   0.171   3.091 -3.8580  0.5773 -1.4643
  389SOL     MW 1556   0.382   0.173   3.098 -1.0488  0.2721 -0.2198
  390SOL     OW 1557   1.364   0.052   0.591 -0.3228 -0.1780 -0.3193
  390SOL    HW1 1558   1.453   0.077   0.564 -1.7419 -2.3087 -1.9979
  390SOL    HW2 1559   1.367   0.048   0.687 -1.0239 -0.6351  0.4934
  390SOL     MW 1560   1.376   0.055   0.600 -0.6026 -0.5194 -0.4336
  391SOL     OW 1561   0.270   2.308   1.441  0.6706 -0.0819  0.0241
  391SOL    HW1 1562   0.226   2.240   1.496  1.0998 -1.0748  2.5508
  391SOL    HW2 1563   0.205   2.381   1.447  1.2518  1.6015 -1.6796
  391SOL     MW 1564   0.256   2.309   1.449  0.8039  0.0092  0.1327
  392SOL     OW 1565   1.981   2.150   0.318  0.0222 -0.1225 -0.0521
  392SOL    HW1 1566   1.901   2.202   0.327  1.5898 -2.5510  0.8510
  392SOL    HW2 1567   2.035   2.160   0.403 -0.9186 -2.6675  1.7058
  392SOL     MW 1568   1.978   2.158   0.331  0.1049 -0.7787  0.2990
  393SOL     OW 1569   0.234   3.002   2.918  1.0850 -0.4378 -0.8738
  393SOL    HW1 1570   0.299   3.066   2.899 -3.4540  1.2972  2.9031
  393SOL    HW2 1571   0.162   3.031   2.862 -0.7754 -2.4277  1.5141
  393SOL     MW 1572   0.233   3.014   2.908  0.2407 -0.4714 -0.0604
  394SOL     OW 1573   0.831   1.632   1.415  0.0135 -0.0218 -0.6418
  394SOL    HW1 1574   0.791   1.637   1.508  2.7570 -2.2259  2.1443
  394SOL    HW2 1575   0.867   1.720   1.393 -1.4287 -3.7318 -0.1971
  394SOL     MW 1576   0.830   1.644   1.424  0.1852 -0.8021 -0.2156
  395SOL     OW 1577   0.928   2.902   2.578  0.0942 -0.3112 -0.1424
  395SOL    HW1 1578   0.970   2.951   2.645  0.6349  1.8062  0.0513
  395SOL    HW2 1579   1.010   2.872   2.534  0.2218  0.5140 -0.2787
  395SOL     MW 1580   0.945   2.904   2.581  0.1824  0.0771 -0.1348
  396SOL     OW 1581   0.773   1.877   2.388  0.0046  0.3316  0.1144
  396SOL    HW1 1582   0.791   1.873   2.481 -0.3429 -2.5335 -0.8402
  396SOL    HW2 1583   0.736   1.789   2.373  1.2395 -1.2453 -2.0918
  396SOL     MW 1584   0.770   1.865   2.399  0.1217 -0.2545 -0.3027
  397SOL     OW 1585   1.021   2.348   1.333 -0.0680 -0.2471  0.2362
  397SOL    HW1 1586   1.057   2.372   1.248 -0.5447  1.0906  2.4117
  397SOL    HW2 1587   1.085   2.354   1.409  2.7030  0.3406  1.1452
  397SOL     MW 1588   1.034   2.352   1.332  0.2347  0.0070  0.6432
  398SOL     OW 1589   0.627   2.613   0.700  0.8584  0.6680  0.7689
  398SOL    HW1 1590   0.567   2.538   0.694  3.8980  2.3171 -2.6981
  398SOL    HW2 1591   0.708   2.586   0.656  2.6153 -1.5865 -1.9623
  398SOL     MW 1592   0.629   2.600   0.693  1.4912  0.5882 -0.0489
  399SOL     OW 1593   0.285   2.055   0.365  0.0908 -0.3592 -0.2489
  399SOL    HW1 1594   0.220   2.119   0.349  0.2128 -2.1167  2.4586
  399SOL    HW2 1595   0.357   2.055   0.296 -0.7709  1.3526  2.5048
  399SOL     MW 1596   0.286   2.063   0.353 -0.0068 -0.3653  0.4717
  400SOL     OW 1597   0.625   1.858   0.178 -0.1202  0.0971 -0.2793
  400SOL    HW1 1598   0.563   1.930   0.157  0.0159  0.3837  0.0124
  400SOL    HW2 1599   0.587   1.790   0.234 -0.8995 -0.2306 -0.6835
  400SOL     MW 1600   0.612   1.859   0.182 -0.2050  0.0917 -0.2942
  401SOL     OW 1601   1.012   2.079   0.055 -0.2649 -0.5066  0.6765
  401SOL    HW1 1602   0.990   1.986   0.088 -1.0274 -2.0310 -0.5330
  401SOL    HW2 1603   1.044   2.110   0.140 -1.9173 -2.6186 -0.4659
  401SOL     MW 1604   1.013   2.071   0.070 -0.5835 -0.9864  0.3662
  402SOL     OW 1605   0.712   2.853   1.736  0.2323  0.4680  0.3937
  402SOL    HW1 1606   0.636   2.835   1.791  3.1037  1.5769  1.1663
  402SOL    HW2 1607   0.791   2.828   1.780  0.1834  1.2900  1.4354
  402SOL     MW 1608   0.712   2.847   1.749  0.6047  0.7228  0.6331
  403SOL     OW 1609   0.050   0.529   0.390  0.0138 -0.9236  0.4808
  403SOL    HW1 1610   0.118   0.585   0.437  0.4995 -1.3270  2.5421
  403SOL    HW2 1611   0.098   0.486   0.311  1.6995  0.1747  2.0344
  403SOL     MW 1612   0.066   0.531   0.385  0.3003 -0.8319  0.9578
  404SOL     OW 1613   0.974   2.894   0.814  0.1451  0.0770 -0.6721
  404SOL    HW1 1614   1.020   2.821   0.775  0.5047  2.7206  0.2342
  404SOL    HW2 1615   1.020   2.972   0.781 -0.6415 -0.4305  1.5901
  404SOL     MW 1616   0.986   2.894   0.805  0.0888  0.3588 -0.2541
  405SOL     OW 1617   0.475   2.466   1.545 -0.0687 -0.3551 -0.2652
  405SOL    HW1 1618   0.461   2.551   1.502  0.8886  3.5258 -2.2980
  405SOL    HW2 1619   0.405   2.411   1.505  2.1190  4.0792 -0.7757
  405SOL     MW 1620   0.464   2.470   1.534  0.3463  0.7420 -0.6007
  406SOL     OW 1621   0.414   2.386   1.150 -0.0263 -0.3581 -0.0961
  406SOL    HW1 1622   0.320   2.371   1.161 -1.0716  0.7988 -0.0146
  406SOL    HW2 1623   0.459   2.298   1.179  2.5852  0.1470  2.9832
  406SOL     MW 1624   0.408   2.373   1.155  0.1803 -0.1388  0.3209
  407SOL     OW 1625   0.017   2.681   1.151  0.3892 -0.0474 -0.2462
  407SOL    HW1 1626   0.076   2.696   1.227 -2.8649  4.5662 -2.8456
  407SOL    HW2 1627   0.069   2.638   1.084 -0.0373 -0.2703 -3.0348
  407SOL     MW 1628   0.032   2.677   1.152 -0.0964  0.5319 -0.9571
  408SOL     OW 1629   2.118   2.141   0.557  0.4412  0.0248  0.2559
  408SOL    HW1 1630   2.103   2.215   0.611 -0.6248  0.7852 -0.3427
  408SOL    HW2 1631   2.046   2.074   0.592 -2.5170 -1.4590  1.6710
  408SOL     MW 1632   2.107   2.142   0.569 -0.0897 -0.0706  0.3637
  409SOL     OW 1633   1.359   0.125   0.888 -0.8899 -0.2538 -0.2339
  409SOL    HW1 1634   1.425   0.190   0.888 -0.2604 -0.1424  0.6176
  409SOL    HW2 1635   1.394   0.049   0.934 -1.3192 -0.1508 -0.6367
  409SOL     MW 1636   1.373   0.124   0.894 -0.8635 -0.2255 -0.1747
  410SOL     OW 1637   1.090   2.490   1.071  0.3491 -0.0695 -0.2548
  410SOL    HW1 1638   1.044   2.500   0.990  0.9233 -0.0412 -1.5284
  410SOL    HW2 1639   1.168   2.437   1.039 -0.6660  0.8672 -1.9655
  410SOL     MW 1640   1.094   2.484   1.056  0.2909  0.0579 -0.6485
  411SOL     OW 1641   1.979   0.139   2.843  0.1659 -0.4240  0.3792
  411SOL    HW1 1642   1.936   0.085   2.775  0.5985 -1.0861 -0.8008
  411SOL    HW2 1643   1.925   0.145   2.927 -1.1436  1.4079  1.5298
  411SOL     MW 1644   1.966   0.133   2.845  0.0502 -0.2697  0.3753
  412SOL     OW 1645   1.087   2.209   0.565 -0.0925 -0.0309  0.1021
  412SOL    HW1 1646   1.109   2.301   0.586  1.3675  1.4608 -1.2094
  412SOL    HW2 1647   0.989   2.211   0.564 -1.1005 -1.9954 -0.5607
  412SOL     MW 1648   1.077   2.222   0.568 -0.0328 -0.0933 -0.1584
  413SOL     OW 1649   0.542   2.788   0.169 -0.3215  0.2157 -0.3208
  413SOL    HW1 1650   0.592   2.699   0.163  1.5347 -0.3608 -1.2116
  413SOL    HW2 1651   0.566   2.831   0.082  1.1706 -0.8467 -1.1940
  413SOL     MW 1652   0.552   2.782   0.156  0.1203 -0.0005 -0.5535
  414SOL     OW 1653   1.995   3.038   1.072 -0.2020  0.9174  0.7813
  414SOL    HW1 1654   1.925   3.007   1.008  1.4475 -0.7662  0.6918
  414SOL    HW2 1655   2.067   2.978   1.046 -0.5208 -2.0733  0.1874
  414SOL     MW 1656   1.996   3.026   1.060 -0.0264  0.3007  0.6911
  415SOL     OW 1657   1.734   2.686   1.058 -0.4881 -0.0878 -0.0591
  415SOL    HW1 1658   1.698   2.628   1.129 -2.2868 -1.5789 -1.9007
  415SOL    HW2 1659   1.805   2.733   1.102 -3.4345 -1.1896  0.5041
  415SOL     MW 1660   1.738   2.684   1.073 -1.1141 -0.4299 -0.2277
  416SOL     OW 1661   0.607   1.935   1.379  0.0875  0.0953  0.4300
  416SOL    HW1 1662   0.561   2.021   1.372  0.2296 -0.1842 -0.1708
  416SOL    HW2 1663   0.613   1.903   1.285 -0.0486 -2.6040 -0.2031
  416SOL     MW 1664   0.602   1.942   1.365  0.0883 -0.2977  0.2672
  417SOL     OW 1665   1.030   3.011   1.980 -0.5135 -0.1819  0.0392
  417SOL    HW1 1666   0.950   2.997   2.037 -0.8771  0.6704  2.6000
  417SOL    HW2 1667   1.017   2.935   1.921 -0.1731 -0.5918  1.8061
  417SOL     MW 1668   1.018   2.999   1.980 -0.5165 -0.1235  0.6102
  418SOL     OW 1669   0.728   3.009   0.203 -0.1791  0.3522  0.4526
  418SOL    HW1 1670   0.791   2.980   0.135 -3.3118  1.1664 -0.6297
  418SOL    HW2 1671   0.652   2.949   0.201 -0.2051  1.1115 -1.7565
  418SOL     MW 1672   0.726   2.997   0.193 -0.5959  0.5598  0.0184
  419SOL     OW 1673   0.457   2.706   1.394  0.2699  0.3019 -0.0804
  419SOL    HW1 1674   0.511   2.769   1.441  0.9254 -0.1683 -3.3176
  419SOL    HW2 1675   0.502   2.683   1.311 -0.7158 -2.5830 -0.6610
  419SOL     MW 1676   0.470   2.711   1.389  0.2263 -0.1408 -0.5841
  420SOL     OW 1677   0.900   2.198   1.022 -0.5758 -0.4699 -0.1666
  420SOL    HW1 1678   0.831   2.210   1.088 -1.1990 -1.0335  0.2919
  420SOL    HW2 1679   0.887   2.275   0.968 -0.1987  0.2532  1.1000
  420SOL     MW 1680   0.889   2.210   1.023 -0.6083 -0.4489  0.0610
  421SOL     OW 1681   2.938   0.084   0.021  0.1783 -0.9087 -0.4380
  421SOL    HW1 1682   2.921   0.026  -0.047  1.1090  1.5531  0.3527
  421SOL    HW2 1683   2.976   0.034   0.092  1.1775  1.2259 -1.5810
  421SOL     MW 1684   2.941   0.070   0.021  0.4329 -0.3023 -0.4845
  422SOL     OW 1685   0.874   2.462   0.867  0.1664 -0.2281 -0.2278
  422SOL    HW1 1686   0.788   2.491   0.887  1.3601 -0.2433 -0.8606
  422SOL    HW2 1687   0.885   2.466   0.773 -0.6702  2.2168  3.2117
  422SOL     MW 1688   0.864   2.466   0.857  0.2135  0.0924  0.1425
  423SOL     OW 1689   1.601   0.148   0.493  0.0237  0.5455 -0.2167
  423SOL    HW1 1690   1.584   0.135   0.399  2.3337 -0.1072 -0.5928
  423SOL    HW2 1691   1.587   0.239   0.507 -1.3182 -1.1838  1.2688
  423SOL     MW 1692   1.597   0.159   0.482  0.1515  0.2312 -0.0703
  424SOL     OW 1693   0.741   2.207   1.250 -0.3758  0.2885  0.1719
  424SOL    HW1 1694   0.648   2.205   1.277  0.8301  0.4011 -0.9844
  424SOL    HW2 1695   0.795   2.205   1.330  3.5448 -1.2192 -0.9107
  424SOL     MW 1696   0.735   2.207   1.264  0.3006  0.1044 -0.1235
  425SOL     OW 1697   1.744   2.860   2.027  0.2177  0.1970 -0.3841
  425SOL    HW1 1698   1.729   2.835   1.932  0.1505  0.3762 -0.5724
  425SOL    HW2 1699   1.751   2.778   2.072  0.0906  2.2044  0.8773
  425SOL     MW 1700   1.743   2.846   2.020  0.1920  0.4855 -0.2425
  426SOL     OW 1701   0.738   1.615   1.917  0.1199  0.2672  0.0807
  426SOL    HW1 1702   0.711   1.621   1.823  1.1281 -0.8230 -3.2734
  426SOL    HW2 1703   0.692   1.688   1.957 -0.6173 -1.3208 -0.3602
  426SOL     MW 1704   0.728   1.625   1.910  0.1557 -0.0862 -0.4200
  427SOL     OW 1705   0.399   1.555   1.856  0.3413  0.3457 -0.0530
  427SOL    HW1 1706   0.457   1.490   1.887 -0.0551 -1.5802  3.9054
  427SOL    HW2 1707   0.317   1.518   1.893  1.9868  0.9395  0.7012
  427SOL     MW 1708   0.396   1.541   1.865  0.5061  0.1699  0.5688
  428SOL     OW 1709   0.586   2.633   1.148 -0.3086 -0.3596 -0.3822
  428SOL    HW1 1710   0.670   2.607   1.194  0.7751  0.4217  3.9773
  428SOL    HW2 1711   0.540   2.551   1.156  0.5482 -0.4320 -0.0237
  428SOL     MW 1712   0.591   2.619   1.155 -0.0526 -0.2661  0.2403
  429SOL     OW 1713   1.331   2.689   1.064  0.3015 -0.5392  0.2105
  429SOL    HW1 1714   1.248   2.644   1.090  0.0395  0.2381  1.2968
  429SOL    HW2 1715   1.315   2.746   0.990  1.5194 -2.0200  1.0988
  429SOL     MW 1716   1.318   2.691   1.058  0.4276 -0.6320  0.4710
  430SOL     OW 1717   1.184   2.719   0.696  0.2542 -0.6198 -0.2310
  430SOL    HW1 1718   1.253   2.650   0.697  1.6920  0.1209  0.0876
  430SOL    HW2 1719   1.138   2.720   0.611  1.4535  1.1458  0.1546
  430SOL     MW 1720   1.187   2.710   0.685  0.6022 -0.2891 -0.1381
  431SOL     OW 1721   0.325   1.948   1.144 -0.6919 -0.3864  0.4348
  431SOL    HW1 1722   0.364   1.866   1.154 -0.8192 -1.8888  0.5022
  431SOL    HW2 1723   0.297   1.956   1.051  1.2447  1.3851 -0.5797
  431SOL     MW 1724   0.327   1.938   1.133 -0.4532 -0.3509  0.3098
  432SOL     OW 1725   0.066   0.023   1.158 -0.8157  0.3257  0.2750
  432SOL    HW1 1726   0.066   0.089   1.223  0.9119  1.6983 -0.6174
  432SOL    HW2 1727   0.015  -0.050   1.187 -0.4645  0.1102  1.2308
  432SOL     MW 1728   0.059   0.022   1.171 -0.5414  0.4784  0.2834
  433SOL     OW 1729   0.665   2.865   1.453  0.3719 -0.4132  0.2768
  433SOL    HW1 1730   0.695   2.879   1.546 -0.2226  1.6822 -0.6552
  433SOL    HW2 1731   0.741   2.851   1.405 -2.3157  2.3356 -2.4739
  433SOL     MW 1732   0.679   2.865   1.459 -0.0611  0.2259 -0.2091
  434SOL     OW 1733   1.547   2.806   1.479 -0.3722  0.2996 -0.1475
  434SOL    HW1 1734   1.460   2.849   1.495 -0.8983 -3.7842 -2.5170
  434SOL    HW2 1735   1.564   2.805   1.383  1.0598  2.1429 -1.5978
  434SOL     MW 1736   1.538   2.812   1.469 -0.2526  0.0040 -0.6515
  435SOL     OW 1737   2.867   1.797   0.239  0.1928 -0.4324  0.1711
  435SOL    HW1 1738   2.907   1.861   0.180 -1.2489  1.6742 -0.2561
  435SOL    HW2 1739   2.840   1.725   0.181 -0.2225  1.1583  1.9573
  435SOL     MW 1740   2.869   1.796   0.223 -0.0522  0.0554  0.3504
  436SOL     OW 1741   1.442   2.776   0.313 -0.5589 -0.2705  0.3249
  436SOL    HW1 1742   1.481   2.759   0.402 -1.1041  1.0008 -0.5563
  436SOL    HW2 1743   1.399   2.860   0.328 -0.6178 -0.3999 -3.1593
  436SOL     MW 1744   1.442   2.785   0.327 -0.6386 -0.1198 -0.2510
  437SOL     OW 1745   0.873   2.947   1.275  0.1405 -0.4318 -0.1513
  437SOL    HW1 1746   0.915   3.031   1.309  1.2926  1.3888 -0.3856
  437SOL    HW2 1747   0.835   2.962   1.187 -0.5753 -0.8651  0.5382
  437SOL     MW 1748   0.874   2.960   1.268  0.1981 -0.2488 -0.0913
  438SOL     OW 1749   0.862   2.552   1.995 -0.0775  0.3461  0.0159
  438SOL    HW1 1750   0.863   2.503   2.083  0.3846  2.1179 -2.8023
  438SOL    HW2 1751   0.791   2.503   1.951  1.6386  1.0655 -1.7095
  438SOL     MW 1752   0.852   2.539   2.001  0.2099  0.6748 -0.5836
  439SOL     OW 1753   1.155   2.156   0.309  0.3042  0.0284  0.2799
  439SOL    HW1 1754   1.121   2.160   0.402  0.2130 -1.4037 -1.4819
  439SOL    HW2 1755   1.161   2.252   0.286 -0.5352 -0.6915  1.8113
  439SOL     MW 1756   1.151   2.169   0.318  0.1814 -0.2556  0.2495
  440SOL     OW 1757   1.662   3.026   2.999  0.4243 -0.3091  0.4030
  440SOL    HW1 1758   1.620   2.988   3.076  0.6926 -1.8688  0.5313
  440SOL    HW2 1759   1.695   2.950   2.955 -0.1719 -0.2716  1.6106
  440SOL     MW 1760   1.661   3.011   3.004  0.3811 -0.5099  0.5792
  441SOL     OW 1761   0.320   2.571   0.541 -0.3266 -0.0240  0.0754
  441SOL    HW1 1762   0.316   2.557   0.440 -0.4424 -0.3485  1.0208
  441SOL    HW2 1763   0.341   2.664   0.565 -2.9538  0.8714 -0.0533
  441SOL     MW 1764   0.322   2.582   0.531 -0.6885  0.0513  0.1832
  442SOL     OW 1765   0.037   2.344   0.628  0.1139  0.4162  0.3820
  442SOL    HW1 1766   0.014   2.433   0.644  1.6308 -2.2023  2.4591
  442SOL    HW2 1767  -0.038   2.286   0.630  1.9760  2.0455  1.6139
  442SOL     MW 1768   0.024   2.348   0.630  0.5598  0.2857  0.8186
  443SOL     OW 1769   1.375   1.710   1.848 -1.1570 -0.5698 -0.0549
  443SOL    HW1 1770   1.346   1.744   1.767 -1.7533 -0.2342 -1.9730
  443SOL    HW2 1771   1.320   1.626   1.862 -0.3350 -1.4829  2.6219
  443SOL     MW 1772   1.364   1.703   1.839 -1.1272 -0.6460  0.0452
  444SOL     OW 1773   0.845   2.573   1.572 -0.2339 -0.1480 -0.0139
  444SOL    HW1 1774   0.932   2.567   1.624 -1.4779 -0.6817 -0.8808
  444SOL    HW2 1775   0.771   2.593   1.633 -0.7131  0.5500  2.3178
  444SOL     MW 1776   0.847   2.575   1.587 -0.4613 -0.1263  0.1794
  445SOL     OW 1777   0.956   0.098   1.311  0.2150 -0.4435 -0.5371
  445SOL    HW1 1778   0.904   0.159   1.260  2.6129 -0.6517  3.2155
  445SOL    HW2 1779   1.040   0.105   1.268  2.1166  3.2784  0.4903
  445SOL     MW 1780   0.960   0.107   1.299  0.7823  0.0201  0.0936
  446SOL     OW 1781   2.761   2.929   1.017  0.8419  0.4099  0.2852
  446SOL    HW1 1782   2.684   2.951   0.963  1.9034  0.7632 -2.1218
  446SOL    HW2 1783   2.785   2.835   0.996 -0.6516  0.3342 -0.4351
  446SOL     MW 1784   2.754   2.920   1.007  0.7849  0.4465 -0.1274
  447SOL     OW 1785   3.028   2.055   1.705 -0.1775  0.0074  0.2403
  447SOL    HW1 1786   3.067   1.995   1.770  1.1165  1.1643 -0.2859
  447SOL    HW2 1787   2.986   1.989   1.644 -1.6191 -2.4882  0.4097
  447SOL     MW 1788   3.028   2.038   1.705 -0.1970 -0.1693  0.1933
  448SOL     OW 1789   1.668   2.353   1.659  0.1466 -0.5875 -0.0355
  448SOL    HW1 1790   1.615   2.272   1.667  2.0902  0.7560  2.8662
  448SOL    HW2 1791   1.612   2.421   1.631  1.8197 -2.4583  1.7531
  448SOL     MW 1792   1.654   2.351   1.656  0.6238 -0.6570  0.5834
  449SOL     OW 1793   0.843   2.880   0.418  0.4334  0.4757  0.2425
  449SOL    HW1 1794   0.806   2.903   0.335 -0.8466 -0.0319  0.9552
  449SOL    HW2 1795   0.763   2.876   0.476 -0.2865  1.7270  2.0263
  449SOL     MW 1796   0.828   2.883   0.415  0.1695  0.5738  0.5719
  450SOL     OW 1797   1.223   2.424   0.642  0.0047 -0.0561  0.6166
  450SOL    HW1 1798   1.228   2.387   0.735  0.3814  1.1700 -0.4874
  450SOL    HW2 1799   1.311   2.415   0.606 -0.0802 -1.1268  0.3006
  450SOL     MW 1800   1.236   2.418   0.650  0.0432 -0.0356  0.4293
  451SOL     OW 1801   0.617   1.955   1.674 -0.0535  0.0816  0.0781
  451SOL    HW1 1802   0.685   2.001   1.716 -0.3422 -3.9445 -0.4055
  451SOL    HW2 1803   0.614   1.974   1.578  0.9705  0.9212 -0.5333
  451SOL     MW 1804   0.626   1.964   1.667  0.0435 -0.3388 -0.0664
  452SOL     OW 1805   0.293   2.700   0.097  0.5903  0.6601  0.3654
  452SOL    HW1 1806   0.384   2.720   0.140  3.6734 -3.2484  0.3881
  452SOL    HW2 1807   0.312   2.709   0.004  0.1696  0.2772  1.9025
  452SOL     MW 1808   0.308   2.704   0.091  0.9415  0.0939  0.5712
  453SOL     OW 1809   0.391   2.980   1.633 -0.5783  0.0106  0.0722
  453SOL    HW1 1810   0.459   3.016   1.570  0.3821 -1.3461  1.0232
  453SOL    HW2 1811   0.317   3.004   1.576 -0.1472 -3.0558 -1.5055
  453SOL     MW 1812   0.390   2.988   1.617 -0.3947 -0.5730 -0.0105
  454SOL     OW 1813   1.052   2.782   1.155  0.1531  0.3022 -0.5641
  454SOL    HW1 1814   1.003   2.706   1.146  0.5757  1.4316  1.9301
  454SOL    HW2 1815   0.987   2.849   1.190  1.9555  1.8862  0.9057
  454SOL     MW 1816   1.037   2.781   1.159  0.4467  0.6602 -0.0411
  455SOL     OW 1817   1.594   2.938   0.161  0.0212 -0.3408 -0.0375
  455SOL    HW1 1818   1.673   2.945   0.214  1.6720  3.4110  2.7354
  455SOL    HW2 1819   1.544   2.874   0.215 -1.6048 -1.4934 -1.3732
  455SOL     MW 1820   1.598   2.930   0.175  0.0245  0.0021  0.1521
  456SOL     OW 1821   2.933   0.285   1.400  0.6663 -0.0205  0.5283
  456SOL    HW1 1822   2.861   0.254   1.349  1.5933 -1.2927  0.5897
  456SOL    HW2 1823   2.989   0.339   1.346 -0.5849 -3.5409  1.6389
  456SOL     MW 1824   2.931   0.288   1.386  0.6235 -0.6528  0.6829
  457SOL     OW 1825   0.887   1.546   3.008 -0.4055 -0.2526  0.2084
  457SOL    HW1 1826   0.829   1.542   3.083  2.7970  2.6842  0.5664
  457SOL    HW2 1827   0.964   1.499   3.044 -2.2424  0.3567 -0.3976
  457SOL     MW 1828   0.889   1.539   3.023 -0.2254  0.2153  0.1757
  458SOL     OW 1829   1.443   1.412   0.629  0.0703  0.4404  0.6247
  458SOL    HW1 1830   1.376   1.418   0.697 -1.9982 -2.2889  1.3245
  458SOL    HW2 1831   1.418   1.339   0.572 -2.4524 -0.6632 -1.1259
  458SOL     MW 1832   1.431   1.403   0.630 -0.5355 -0.0653  0.4860
  459SOL     OW 1833   1.574   0.113   0.229 -0.5388  0.3916  0.1280
  459SOL    HW1 1834   1.548   0.022   0.209 -0.0184 -0.2539  1.6055
  459SOL    HW2 1835   1.529   0.176   0.172 -0.2275  0.3844 -3.6148
  459SOL     MW 1836   1.565   0.110   0.218 -0.4290  0.3055 -0.1709
  460SOL     OW 1837   1.718   2.159   0.590 -0.7059  0.4092 -0.6157
  460SOL    HW1 1838   1.635   2.146   0.623  1.5476 -3.2250  3.0309
  460SOL    HW2 1839   1.771   2.071   0.585 -1.7612  0.3094  0.5844
  460SOL     MW 1840   1.714   2.145   0.594 -0.5478 -0.0835  0.0238
  461SOL     OW 1841   0.443   2.321   0.612  0.9152 -0.1141 -0.0704
  461SOL    HW1 1842   0.383   2.396   0.585  2.6821 -0.4059 -0.7893
  461SOL    HW2 1843   0.460   2.324   0.703  0.4532 -0.2713  0.3783
  461SOL     MW 1844   0.437   2.332   0.620  1.0873 -0.1733 -0.1060
  462SOL     OW 1845   0.389   0.297   1.299 -0.5783  0.2766  0.4479
  462SOL    HW1 1846   0.413   0.236   1.230  2.0121  0.0176 -1.2463
  462SOL    HW2 1847   0.476   0.333   1.329 -1.4407  1.7806 -2.7637
  462SOL     MW 1848   0.404   0.294   1.294 -0.3503  0.4409 -0.1994
  463SOL     OW 1849   1.008   0.054   0.714  0.4124  0.3979 -0.1253
  463SOL    HW1 1850   1.016   0.025   0.623  2.0501 -0.3519  2.3584
  463SOL    HW2 1851   0.916   0.082   0.724 -0.4537 -0.4491  1.6889
  463SOL     MW 1852   0.997   0.054   0.704  0.5142  0.1872  0.4418
  464SOL     OW 1853   0.840   2.968   2.156 -0.6099 -0.6122  0.5350
  464SOL    HW1 1854   0.813   2.882   2.184  0.0238  1.1103  0.4247
  464SOL    HW2 1855   0.855   3.007   2.248 -1.6972 -1.0049 -2.3263
  464SOL     MW 1856   0.838   2.962   2.172 -0.6697 -0.4367  0.1429
  465SOL     OW 1857   0.721   0.216   0.471  0.6664 -0.2478  0.0289
  465SOL    HW1 1858   0.690   0.144   0.525  0.0252  0.6819 -1.6919
  465SOL    HW2 1859   0.716   0.199   0.376 -0.9544  0.5567  1.3870
  465SOL     MW 1860   0.716   0.204   0.465  0.3679 -0.0190 -0.0189
  466SOL     OW 1861   1.081   1.976   0.690 -0.5177 -0.2686 -0.4935
  466SOL    HW1 1862   1.089   1.901   0.631  1.3559  0.1168  0.3407
  466SOL    HW2 1863   1.094   2.055   0.628  0.2076  1.7765  0.2733
  466SOL     MW 1864   1.084   1.976   0.674 -0.1748  0.0521 -0.2823
  467SOL     OW 1865   1.288   2.322   0.967 -0.2482 -0.0132  0.2748
  467SOL    HW1 1866   1.377   2.337   0.986  0.2220  2.0374  0.0298
  467SOL    HW2 1867   1.273   2.223   0.949  1.5848 -0.2726 -1.2169
  467SOL     MW 1868   1.298   2.311   0.967  0.0557  0.2231  0.0457
  468SOL     OW 1869   0.312   2.614   1.987 -0.1523  0.5219 -0.4881
  468SOL    HW1 1870   0.306   2.521   1.966  1.0307  0.7936 -1.7536
  468SOL    HW2 1871   0.380   2.659   1.932 -1.5297  1.0999 -0.3958
  468SOL     MW 1872   0.320   2.608   1.977 -0.1779  0.6340 -0.6429
  469SOL     OW 1873   0.406   2.080   1.841 -0.0030  0.0218  0.0744
  469SOL    HW1 1874   0.315   2.062   1.824  0.8063  0.6049 -0.7396
  469SOL    HW2 1875   0.450   2.038   1.760  0.4422  0.6639 -0.8757
  469SOL     MW 1876   0.400   2.072   1.828  0.1625  0.1834 -0.1583
  470SOL     OW 1877   3.077   2.524   0.172 -0.4592 -0.5069  0.0411
  470SOL    HW1 1878   2.989   2.500   0.203 -1.5343  0.4866  0.1604
  470SOL    HW2 1879   3.051   2.532   0.077 -0.1140  1.4699 -0.6460
  470SOL     MW 1880   3.062   2.522   0.164 -0.5555 -0.1150 -0.0338
  471SOL     OW 1881   1.183   2.707   1.386 -0.3633 -0.2695 -0.2490
  471SOL    HW1 1882   1.110   2.723   1.446 -1.8945  1.7704 -1.6287
  471SOL    HW2 1883   1.143   2.736   1.306 -1.5263 -0.6815 -0.3499
  471SOL     MW 1884   1.168   2.713   1.383 -0.7188 -0.0547 -0.4443
  472SOL     OW 1885   2.927   2.122   0.367 -0.0573  0.0322 -0.9090
  472SOL    HW1 1886   2.942   2.073   0.280 -0.1113 -0.3092  0.8812
  472SOL    HW2 1887   2.911   2.058   0.434 -1.2723 -2.7201 -0.9583
  472SOL     MW 1888   2.927   2.107   0.364 -0.2248 -0.3760 -0.6793
  473SOL     OW 1889   0.795   2.524   1.311  0.2047  0.2641 -0.2690
  473SOL    HW1 1890   0.879   2.474   1.301 -0.4598 -0.2802 -0.5020
  473SOL    HW2 1891   0.788   2.537   1.405  1.0025  0.8231 -0.4684
  473SOL     MW 1892   0.806   2.519   1.322  0.2223  0.2661 -0.3260
  474SOL     OW 1893   0.854   2.202   1.776 -0.0569  0.3109  0.0864
  474SOL    HW1 1894   0.938   2.240   1.789 -2.7857 -0.8363 -2.5970
  474SOL    HW2 1895   0.851   2.203   1.677 -0.0024 -0.9210 -2.7780
  474SOL     MW 1896   0.865   2.207   1.764 -0.4098 -0.0030 -0.6456
  475SOL     OW 1897   1.656   3.087   1.442 -0.7958 -0.0230 -0.1802
  475SOL    HW1 1898   1.578   3.102   1.385 -0.8127  2.2174 -1.0442
  475SOL    HW2 1899   1.629   3.003   1.485  1.0771 -2.3128  0.3556
  475SOL     MW 1900   1.642   3.078   1.440 -0.5509 -0.0295 -0.2235
  476SOL     OW 1901   1.459   2.602   0.796 -0.5163 -0.3852  0.1492
  476SOL    HW1 1902   1.417   2.604   0.886 -1.0967 -2.3074  0.0264
  476SOL    HW2 1903   1.505   2.686   0.794 -1.0809  1.7483 -4.1905
  476SOL     MW 1904   1.459   2.613   0.808 -0.6674 -0.3573 -0.4396
  477SOL     OW 1905   0.852   2.532   0.594 -0.1610 -0.2134  0.3635
  477SOL    HW1 1906   0.939   2.572   0.564 -2.0993 -0.7802  1.7752
  477SOL    HW2 1907   0.835   2.438   0.555  1.6490 -2.5084 -0.4953
  477SOL     MW 1908   0.861   2.525   0.585 -0.1780 -0.5910  0.4365
  478SOL     OW 1909   0.235   2.591   0.990 -0.0507 -0.3439 -0.4194
  478SOL    HW1 1910   0.237   2.677   0.943  2.5314  0.4310  1.3677
  478SOL    HW2 1911   0.290   2.543   0.926 -0.6399 -1.3586  0.1004
  478SOL     MW 1912   0.242   2.596   0.975  0.2123 -0.3755 -0.1150
  479SOL     OW 1913   1.411   1.938   1.335 -0.6246  0.4288  0.0135
  479SOL    HW1 1914   1.391   1.998   1.411  0.8848  0.6951 -3.6569
  479SOL    HW2 1915   1.485   1.879   1.357  0.1870  1.1641  1.9785
  479SOL     MW 1916   1.418   1.938   1.348 -0.3184  0.5610 -0.2115
  480SOL     OW 1917   1.789   2.365   1.294 -0.0909  0.2662 -0.3943
  480SOL    HW1 1918   1.804   2.270   1.317  0.4445 -1.8807  1.4222
  480SOL    HW2 1919   1.822   2.373   1.202 -0.9726  1.5922 -1.3553
  480SOL     MW 1920   1.795   2.354   1.285 -0.1366  0.1579 -0.2814
  481SOL     OW 1921   1.174   0.161   1.114  0.0610 -0.1080  0.7761
  481SOL    HW1 1922   1.237   0.127   1.050  0.1573  1.6855  2.6038
  481SOL    HW2 1923   1.193   0.256   1.118 -0.0210  0.9398 -1.9051
  481SOL     MW 1924   1.185   0.169   1.106  0.0629  0.2669  0.6635
  482SOL     OW 1925   1.027   3.088   0.428 -0.8996  0.6161 -0.1171
  482SOL    HW1 1926   0.942   3.046   0.415  0.9789  0.4141 -0.9272
  482SOL    HW2 1927   1.017   3.175   0.388  1.0700  0.2951 -0.6410
  482SOL     MW 1928   1.015   3.094   0.421 -0.3919  0.5471 -0.2931
  483SOL     OW 1929   0.308   2.848   0.546 -0.4880 -0.1227  0.1973
  483SOL    HW1 1930   0.291   2.892   0.457  0.5074  3.2341 -1.8877
  483SOL    HW2 1931   0.258   2.909   0.608 -0.7389  0.0360 -0.7808
  483SOL     MW 1932   0.299   2.862   0.543 -0.3898  0.3411 -0.2068
  484SOL     OW 1933   1.649   1.861   1.447 -0.1142  0.2777 -0.7579
  484SOL    HW1 1934   1.679   1.940   1.399 -1.2979 -1.1337 -0.2573
  484SOL    HW2 1935   1.677   1.881   1.533  0.6941  0.6166 -2.8918
  484SOL     MW 1936   1.657   1.874   1.452 -0.1637  0.1362 -0.9734
  485SOL     OW 1937   0.556   2.323   0.286 -0.2502  0.5559  0.2456
  485SOL    HW1 1938   0.558   2.304   0.378  1.7210  0.6842 -0.5143
  485SOL    HW2 1939   0.501   2.400   0.265 -0.6067  1.4776 -4.2707
  485SOL     MW 1940   0.549   2.331   0.295 -0.0371  0.6945 -0.4505
  486SOL     OW 1941   0.093   2.503   1.476 -0.1965 -0.5254 -0.2178
  486SOL    HW1 1942   0.092   2.590   1.448 -2.9846 -1.5788 -0.8622
  486SOL    HW2 1943   0.087   2.513   1.571  0.4458 -1.9958 -0.8173
  486SOL     MW 1944   0.092   2.516   1.485 -0.4796 -0.8584 -0.3819
  487SOL     OW 1945   1.296   1.614   1.028 -0.2264  0.3513 -0.7867
  487SOL    HW1 1946   1.267   1.705   1.060  0.2455  0.3197  2.5727
  487SOL    HW2 1947   1.386   1.619   1.049 -0.5954 -1.9878  0.1292
  487SOL     MW 1948   1.304   1.627   1.035 -0.2128  0.0385 -0.2226
  488SOL     OW 1949   1.473   1.805   0.607 -0.0313  0.0603  0.1444
  488SOL    HW1 1950   1.445   1.892   0.583  3.2842 -0.5362 -0.7496
  488SOL    HW2 1951   1.414   1.747   0.561  2.5553 -1.4078 -0.1713
  488SOL     MW 1952   1.461   1.808   0.598  0.7475 -0.2121 -0.0152
  489SOL     OW 1953   0.693   0.733   0.535 -0.0326  0.3113  0.3924
  489SOL    HW1 1954   0.645   0.649   0.528 -0.0105  0.3886 -0.3160
  489SOL    HW2 1955   0.689   0.753   0.631  0.7546  0.7490  0.6158
  489SOL     MW 1956   0.686   0.724   0.547  0.0741  0.3793  0.3284
  490SOL     OW 1957   1.369   2.061   0.470  0.2074  0.2543  0.0930
  490SOL    HW1 1958   1.438   2.113   0.424  1.3870 -0.7455 -1.3912
  490SOL    HW2 1959   1.289   2.081   0.419  0.3909 -0.8875 -1.4197
  490SOL     MW 1960   1.367   2.070   0.457  0.3873 -0.0283 -0.3024
  491SOL     OW 1961   1.295   3.005   0.385 -0.0688 -0.4168 -0.1003
  491SOL    HW1 1962   1.323   3.050   0.467 -0.9386  1.0529 -1.0583
  491SOL    HW2 1963   1.200   3.006   0.381 -2.4863  0.4270 -2.0465
  491SOL     MW 1964   1.286   3.011   0.396 -0.5026 -0.1116 -0.4835
  492SOL     OW 1965   1.459   2.158   0.711 -0.2120 -0.1797 -0.0571
  492SOL    HW1 1966   1.408   2.136   0.634 -0.5470  1.3033 -1.9646
  492SOL    HW2 1967   1.411   2.130   0.790 -0.7518 -0.5738 -0.6328
  492SOL     MW 1968   1.446   2.151   0.711 -0.3274 -0.0360 -0.3847
  493SOL     OW 1969   0.230   3.029   0.338  0.7689 -0.6278  0.1765
  493SOL    HW1 1970   0.154   3.049   0.399  1.1751 -0.2810  2.3752
  493SOL    HW2 1971   0.197   3.028   0.249 -1.3207 -1.4726  1.2649
  493SOL     MW 1972   0.216   3.032   0.334  0.5468 -0.6935  0.6102
  494SOL     OW 1973   0.396   2.369   1.800  0.0861 -0.3848  0.3268
  494SOL    HW1 1974   0.410   2.278   1.769 -1.3224  1.9755 -1.0679
  494SOL    HW2 1975   0.444   2.419   1.728  0.7109  1.8172 -0.7536
  494SOL     MW 1976   0.404   2.364   1.786 -0.0173  0.2171  0.0002
  495SOL     OW 1977   2.879   1.632   2.687  0.5395  0.1134 -0.0014
  495SOL    HW1 1978   2.871   1.715   2.731  2.5345 -0.0448 -0.0485
  495SOL    HW2 1979   2.836   1.573   2.745 -2.7137  2.3989  1.1401
  495SOL     MW 1980   2.872   1.635   2.701  0.3735  0.3941  0.1430
  496SOL     OW 1981   2.790   2.276   2.720 -0.1628 -0.4854  0.2241
  496SOL    HW1 1982   2.806   2.184   2.740 -1.7535  0.9588 -1.2606
  496SOL    HW2 1983   2.881   2.319   2.719 -2.0206  0.5607  0.0168
  496SOL     MW 1984   2.804   2.270   2.722 -0.6178 -0.1568  0.0008
  497SOL     OW 1985   1.513   2.358   2.571 -0.4444 -0.7577 -0.1928
  497SOL    HW1 1986   1.529   2.308   2.485 -1.4788 -0.7249  0.0922
  497SOL    HW2 1987   1.464   2.292   2.627 -0.4204 -3.5614 -2.3251
  497SOL     MW 1988   1.509   2.342   2.567 -0.5777 -1.1233 -0.4365
  498SOL     OW 1989   1.444   2.757   2.324 -0.1506  0.2000 -0.2839
  498SOL    HW1 1990   1.427   2.662   2.308 -1.6566  0.6950 -1.3939
  498SOL    HW2 1991   1.537   2.756   2.358  2.3333  0.8006 -0.3155
  498SOL     MW 1992   1.454   2.745   2.326 -0.0216  0.3446 -0.4345
  499SOL     OW 1993   0.974   0.068   0.080 -1.0145 -0.3950 -0.1598
  499SOL    HW1 1994   0.891   0.118   0.113  0.6277  0.4768  1.0470
  499SOL    HW2 1995   0.952  -0.027   0.059  1.8430  0.0685  0.0551
  499SOL     MW 1996   0.960   0.062   0.082 -0.4208 -0.2188  0.0278
  500SOL     OW 1997   1.049   2.513   2.722 -0.6415  0.0209 -0.2902
  500SOL    HW1 1998   1.119   2.493   2.781  0.6932  0.6980  0.4777
  500SOL    HW2 1999   0.992   2.569   2.774 -0.2225  2.1133  0.8341
  500SOL     MW 2000   1.051   2.517   2.736 -0.4101  0.3863 -0.0406
  501SOL     OW 2001   1.804   2.263   3.028 -0.6581 -0.1311  0.3861
  501SOL    HW1 2002   1.788   2.348   3.070  0.9918  0.6920 -0.0742
  501SOL    HW2 2003   1.894   2.235   3.058 -0.4871  0.7549 -0.0640
  501SOL     MW 2004   1.814   2.271   3.038 -0.4179  0.0944  0.2660
  502SOL     OW 2005   0.271   2.737   2.921 -0.3466 -0.0157  0.9917
  502SOL    HW1 2006   0.240   2.701   2.841 -1.0707 -1.6554  0.4435
  502SOL    HW2 2007   0.281   2.831   2.907  0.1977  1.5005 -1.2638
  502SOL     MW 2008   0.268   2.745   2.908 -0.3703 -0.0320  0.6218
  503SOL     OW 2009   1.121   2.553   2.073  0.2511 -0.0286  0.2884
  503SOL    HW1 2010   1.174   2.613   2.024 -2.9013  1.8865  0.2852
  503SOL    HW2 2011   1.029   2.583   2.061 -0.0365  3.3581 -1.6255
  503SOL     MW 2012   1.116   2.565   2.065 -0.2028  0.6709  0.0355
  504SOL     OW 2013   0.101   2.635   2.155 -0.1456 -0.0381 -0.1221
  504SOL    HW1 2014   0.170   2.601   2.095  1.4862 -1.6937 -0.9862
  504SOL    HW2 2015   0.051   2.560   2.189 -1.0765  3.0740 -0.4067
  504SOL     MW 2016   0.103   2.621   2.151 -0.0531  0.1541 -0.2736
  505SOL     OW 2017   1.588   2.792   2.741  0.5941 -0.6230  0.0718
  505SOL    HW1 2018   1.639   2.816   2.661  0.0998  2.9670  3.5470
  505SOL    HW2 2019   1.531   2.871   2.761 -1.3620  0.8199  0.3149
  505SOL     MW 2020   1.587   2.806   2.733  0.2708  0.0410  0.5624
  506SOL     OW 2021   1.607   0.093   2.751 -0.1150 -0.1280  0.1861
  506SOL    HW1 2022   1.600   0.041   2.825  0.1734  3.3251 -2.1962
  506SOL    HW2 2023   1.686   0.067   2.707 -1.5844 -0.4953  0.1991
  506SOL     MW 2024   1.617   0.083   2.755 -0.2708  0.2791 -0.1265
  507SOL     OW 2025   0.868   2.714   2.825 -0.2076 -0.0023 -0.5444
  507SOL    HW1 2026   0.880   2.777   2.755  0.4019  1.1707  0.0287
  507SOL    HW2 2027   0.792   2.654   2.802 -1.3987 -0.6858 -1.0150
  507SOL     MW 2028   0.859   2.715   2.813 -0.2844  0.0623 -0.5309
  508SOL     OW 2029   1.169   2.119   2.538 -0.4955 -0.1668  0.6934
  508SOL    HW1 2030   1.229   2.157   2.605 -0.8433 -0.6375 -0.3452
  508SOL    HW2 2031   1.085   2.098   2.583 -0.2008  0.8080  0.6992
  508SOL     MW 2032   1.166   2.121   2.553 -0.5025 -0.1003  0.5571
  509SOL     OW 2033   0.639   2.565   2.812  0.6964  0.9732 -0.6575
  509SOL    HW1 2034   0.599   2.512   2.741 -2.1971  0.2441  2.2032
  509SOL    HW2 2035   0.578   2.634   2.813 -1.8563 -0.8940 -0.9260
  509SOL     MW 2036   0.626   2.568   2.803 -0.0222  0.6306 -0.3155
  510SOL     OW 2037   1.495   2.577   1.620  0.1197 -0.2895 -0.2348
  510SOL    HW1 2038   1.515   2.667   1.583 -0.2808 -0.1883 -0.8857
  510SOL    HW2 2039   1.450   2.584   1.708 -0.4505  1.2617 -0.1033
  510SOL     MW 2040   1.492   2.590   1.627 -0.0084 -0.0715 -0.3033
  511SOL     OW 2041   0.345   2.513   2.496  0.1368 -0.0531  0.9780
  511SOL    HW1 2042   0.426   2.476   2.534  0.1048 -0.5372 -0.1422
  511SOL    HW2 2043   0.376   2.527   2.408 -1.8623  0.7244  2.4236
  511SOL     MW 2044   0.359   2.510   2.490 -0.1312 -0.0144  1.0209
  512SOL     OW 2045   1.034   1.963   2.814  0.2667  0.1962  0.5261
  512SOL    HW1 2046   0.951   1.963   2.866 -1.0988  0.9146 -0.1042
  512SOL    HW2 2047   1.077   1.879   2.858 -0.2653 -0.8296 -1.0662
  512SOL     MW 2048   1.029   1.952   2.826  0.0164  0.1557  0.2329
  513SOL     OW 2049   1.500   2.486   2.268 -0.3002  0.1069 -0.9883
  513SOL    HW1 2050   1.587   2.518   2.236  0.6444 -1.9405  0.5333
  513SOL    HW2 2051   1.512   2.401   2.312  2.7629  3.1385 -0.2308
  513SOL     MW 2052   1.513   2.479   2.270  0.2286  0.2367 -0.6876
  514SOL     OW 2053   0.194   2.334   2.677  0.0941 -0.0158 -0.1329
  514SOL    HW1 2054   0.245   2.406   2.642  1.3021  0.7725  2.4251
  514SOL    HW2 2055   0.261   2.301   2.741 -0.4963 -0.1078  2.3411
  514SOL     MW 2056   0.210   2.339   2.681  0.1756  0.0761  0.5310
  515SOL     OW 2057   1.076   1.974   1.840 -0.0959  0.2110 -0.2609
  515SOL    HW1 2058   1.049   2.068   1.827  0.6285 -2.9178 -0.2567
  515SOL    HW2 2059   1.159   1.976   1.895  1.1924  1.6246  1.2781
  515SOL     MW 2060   1.083   1.987   1.845  0.1697 -0.0153 -0.0573
  516SOL     OW 2061   1.297   2.582   2.921  0.0170  0.2152  0.8551
  516SOL    HW1 2062   1.318   2.588   2.824  0.6096  1.2498  0.4752
  516SOL    HW2 2063   1.244   2.499   2.946  0.1925 -2.4652  0.1764
  516SOL     MW 2064   1.293   2.572   2.911  0.1184 -0.0019  0.7154
  517SOL     OW 2065   0.517   2.326   2.244  0.1180  0.7959  0.2128
  517SOL    HW1 2066   0.487   2.412   2.211 -2.0330  1.0093 -1.7576
  517SOL    HW2 2067   0.482   2.265   2.181 -0.0728 -3.6704  1.5242
  517SOL     MW 2068   0.508   2.329   2.231 -0.1910  0.2347  0.1259
  518SOL     OW 2069   1.785   0.151   3.046  0.2221 -0.9829  0.1000
  518SOL    HW1 2070   1.799   0.166   3.143  0.0367 -0.7853 -0.3042
  518SOL    HW2 2071   1.753   0.061   3.033  1.1986 -0.2916 -0.2656
  518SOL     MW 2072   1.782   0.141   3.057  0.3265 -0.8656 -0.0016
  519SOL     OW 2073   0.625   2.394   1.943  0.3319  0.3643 -0.7291
  519SOL    HW1 2074   0.647   2.304   1.955 -1.3602  1.0886 -3.7173
  519SOL    HW2 2075   0.533   2.393   1.905 -0.9767  2.0024 -0.3733
  519SOL     MW 2076   0.616   2.382   1.939 -0.0640  0.6760 -1.0764
  520SOL     OW 2077   1.216   2.120   2.927  0.2511  0.0244  0.2584
  520SOL    HW1 2078   1.146   2.060   2.900  0.1581 -1.3699 -1.2807
  520SOL    HW2 2079   1.254   2.086   3.013 -0.0546  1.6948  1.3721
  520SOL     MW 2080   1.212   2.108   2.935  0.1985  0.0608  0.2023
  521SOL     OW 2081   1.772   2.033   2.243  0.4978  0.3062  0.0130
  521SOL    HW1 2082   1.786   2.024   2.144  0.1647  0.3517  0.3556
  521SOL    HW2 2083   1.761   1.947   2.279 -0.0993 -1.3028 -0.4770
  521SOL     MW 2084   1.773   2.021   2.234  0.3750  0.0999 -0.0064
  522SOL     OW 2085   2.827   2.567   2.239  0.7627 -0.3116  0.4921
  522SOL    HW1 2086   2.910   2.526   2.256 -1.0410  1.7874 -1.6158
  522SOL    HW2 2087   2.818   2.641   2.288 -1.2136 -0.5534 -3.1430
  522SOL     MW 2088   2.837   2.571   2.248  0.2640 -0.0665 -0.2656
  523SOL     OW 2089   0.815   1.484   2.150  0.3084 -0.0984 -0.2898
  523SOL    HW1 2090   0.777   1.547   2.084  3.6488  1.8999 -0.0622
  523SOL    HW2 2091   0.873   1.426   2.098 -0.2220  1.0334  0.2101
  523SOL     MW 2092   0.818   1.485   2.134  0.6792  0.3146 -0.1938
  524SOL     OW 2093   0.589   2.384   3.024  0.8125  0.0901 -0.1732
  524SOL    HW1 2094   0.609   2.442   2.952  4.1714  2.1676 -2.4001
  524SOL    HW2 2095   0.661   2.325   3.018 -1.3190  1.7365  1.5883
  524SOL     MW 2096   0.601   2.384   3.014  0.9744  0.5815 -0.2346
  525SOL     OW 2097   0.343   2.160   2.091  0.4698  0.2585  0.5696
  525SOL    HW1 2098   0.337   2.084   2.147  2.2487  2.3607 -1.8693
  525SOL    HW2 2099   0.381   2.126   2.007  0.0359  2.7424  0.8605
  525SOL     MW 2100   0.347   2.145   2.087  0.6473  0.8636  0.2862
  526SOL     OW 2101   0.734   2.093   1.994 -0.0012  0.8147 -0.2642
  526SOL    HW1 2102   0.775   2.136   1.921 -4.3961 -3.4105  3.9324
  526SOL    HW2 2103   0.789   2.108   2.072 -1.7383  1.1298  0.9876
  526SOL     MW 2104   0.746   2.100   1.995 -0.8102  0.2988  0.4547
  527SOL     OW 2105   1.302   1.914   2.009  0.3141 -0.0787 -0.1232
  527SOL    HW1 2106   1.282   1.849   2.077 -0.4274  0.1465 -2.1626
  527SOL    HW2 2107   1.342   1.855   1.945  0.1236 -0.1107 -0.2698
  527SOL     MW 2108   1.305   1.898   2.009  0.1911 -0.0532 -0.4117
  528SOL     OW 2109   0.608   2.899   3.025  0.0714 -0.3912  0.3897
  528SOL    HW1 2110   0.627   2.999   3.012  0.0393 -1.1198 -2.2975
  528SOL    HW2 2111   0.590   2.869   2.938  2.4988 -1.5558  0.5793
  528SOL     MW 2112   0.608   2.908   3.012  0.3874 -0.6410  0.0601
  529SOL     OW 2113   1.107   2.276   1.791  0.6409 -0.2471  0.1438
  529SOL    HW1 2114   1.152   2.281   1.878  1.7816 -0.0429  0.6089
  529SOL    HW2 2115   1.176   2.248   1.734 -0.7759  4.1309 -2.2470
  529SOL     MW 2116   1.122   2.273   1.795  0.6045  0.3574 -0.1103
  530SOL     OW 2117   1.122   2.389   2.991  0.3956 -0.4688  0.0625
  530SOL    HW1 2118   1.065   2.441   3.056  0.5352  0.4691 -0.7680
  530SOL    HW2 2119   1.101   2.299   2.993  0.9753 -1.1152  0.4917
  530SOL     MW 2120   1.112   2.384   3.000  0.4905 -0.4304  0.0095
  531SOL     OW 2121   0.895   1.814   2.615 -0.1116 -0.1409  0.4300
  531SOL    HW1 2122   0.943   1.864   2.678 -1.9323  0.3091 -0.7440
  531SOL    HW2 2123   0.860   1.736   2.658  2.4118 -1.4516 -2.3354
  531SOL     MW 2124   0.897   1.810   2.629 -0.0189 -0.2545 -0.0898
  532SOL     OW 2125   1.699   0.318   2.863 -0.3835 -0.6227  0.1793
  532SOL    HW1 2126   1.659   0.251   2.811  1.1564  1.9351  1.3182
  532SOL    HW2 2127   1.715   0.261   2.939  1.4219  0.7147  0.8491
  532SOL     MW 2128   1.696   0.302   2.866  0.0579 -0.1088  0.4180
  533SOL     OW 2129   1.776   2.776   2.960 -0.3067 -0.4631 -0.1679
  533SOL    HW1 2130   1.759   2.689   2.996  2.7544 -2.0569  2.2468
  533SOL    HW2 2131   1.732   2.775   2.873 -0.2521 -0.2067 -2.7911
  533SOL     MW 2132   1.768   2.764   2.953  0.1044 -0.6395 -0.1954
  534SOL     OW 2133   1.744   2.483   2.500 -0.0572  0.0745  0.2121
  534SOL    HW1 2134   1.662   2.445   2.546  1.4093  0.8343 -0.4851
  534SOL    HW2 2135   1.820   2.470   2.564  1.7908 -1.2051  1.2923
  534SOL     MW 2136   1.743   2.477   2.515  0.3801  0.0059  0.2626
  535SOL     OW 2137   1.790   2.373   1.920 -0.1597 -0.8416 -0.2655
  535SOL    HW1 2138   1.714   2.375   1.862 -1.9944  2.8502 -1.5960
  535SOL    HW2 2139   1.866   2.397   1.866  0.6882 -0.2295  1.1230
  535SOL     MW 2140   1.790   2.377   1.905 -0.2899 -0.2737 -0.2578
  536SOL     OW 2141   0.428   1.865   2.028  0.5059 -0.4541  0.1244
  536SOL    HW1 2142   0.415   1.903   1.941  2.5499 -0.6193 -1.8720
  536SOL    HW2 2143   0.526   1.853   2.042  0.8532 -1.3421 -1.3096
  536SOL     MW 2144   0.439   1.869   2.018  0.8214 -0.5931 -0.3282
  537SOL     OW 2145   0.970   0.192   2.930 -0.0912  0.2079  0.1501
  537SOL    HW1 2146   0.961   0.166   3.024 -1.6186  2.5411  0.6962
  537SOL    HW2 2147   0.880   0.223   2.909  0.5081  0.4279  1.2251
  537SOL     MW 2148   0.957   0.193   2.940 -0.2136  0.5448  0.3640
  538SOL     OW 2149   1.301   0.069   3.048  0.1721  0.1065  0.4691
  538SOL    HW1 2150   1.287   0.137   2.984  3.9556  0.8622 -1.0213
  538SOL    HW2 2151   1.346   0.120   3.124  0.2835  1.3063  2.4716
  538SOL     MW 2152   1.305   0.085   3.050  0.6860  0.3645  0.5367
  539SOL     OW 2153   0.740   2.702   2.501 -0.2854 -0.5175  0.0349
  539SOL    HW1 2154   0.802   2.773   2.517  0.5414 -1.2195  2.4153
  539SOL    HW2 2155   0.777   2.617   2.508  1.4510  0.7957 -1.1795
  539SOL     MW 2156   0.753   2.700   2.504  0.0528 -0.4368  0.1888
  540SOL     OW 2157   0.395   2.219   2.877 -0.6116 -0.1685 -0.6822
  540SOL    HW1 2158   0.456   2.276   2.929  0.4591  1.5801  1.2764
  540SOL    HW2 2159   0.349   2.166   2.943 -1.8883  0.5729 -0.2207
  540SOL     MW 2160   0.397   2.219   2.892 -0.6388  0.1601 -0.3629
  541SOL     OW 2161   0.193   2.886   2.254 -0.0806 -0.2213  0.2046
  541SOL    HW1 2162   0.170   2.798   2.220  0.0610 -0.2703  1.2521
  541SOL    HW2 2163   0.250   2.860   2.324 -0.5815  0.4938 -2.5712
  541SOL     MW 2164   0.198   2.871   2.259 -0.1280 -0.1335 -0.0234
  542SOL     OW 2165   0.883   2.302   2.778  0.1758 -0.4139 -0.0242
  542SOL    HW1 2166   0.864   2.283   2.874  1.2779 -1.7487 -1.8188
  542SOL    HW2 2167   0.949   2.372   2.787 -0.1989  2.6115  1.8709
  542SOL     MW 2168   0.889   2.309   2.792  0.2718 -0.1908 -0.0109
  543SOL     OW 2169   1.366   2.653   2.667  0.4202  0.0365  0.4094
  543SOL    HW1 2170   1.411   2.577   2.626  0.8554 -0.8515 -1.5455
  543SOL    HW2 2171   1.445   2.710   2.682  2.0634  0.5031 -2.4125
  543SOL     MW 2172   1.382   2.650   2.664  0.6944 -0.0191 -0.2208
  544SOL     OW 2173   0.695   0.084   2.591 -0.1924 -0.3039 -0.5116
  544SOL    HW1 2174   0.617   0.037   2.583  1.5809  0.2952  0.1882
  544SOL    HW2 2175   0.735   0.054   2.514  0.4257  1.4119 -0.6346
  544SOL     MW 2176   0.690   0.073   2.580  0.1231  0.0015 -0.4355
  545SOL     OW 2177   1.570   2.221   2.331 -0.1950 -0.8468  0.0027
  545SOL    HW1 2178   1.523   2.139   2.337  0.2325  3.0323  1.8396
  545SOL    HW2 2179   1.657   2.200   2.311 -0.5030 -0.6142 -1.4624
  545SOL     MW 2180   1.575   2.208   2.329 -0.1793 -0.3043  0.0518
  546SOL     OW 2181   2.974   2.020   0.111 -0.2044  0.0979  0.0528
  546SOL    HW1 2182   2.952   2.072   0.031 -0.6334  1.6926  1.1578
  546SOL    HW2 2183   3.042   1.955   0.076  2.0699 -0.9728 -3.6052
  546SOL     MW 2184   2.980   2.018   0.096  0.0391  0.1671 -0.2840
  547SOL     OW 2185   0.112   2.935   0.057 -0.1962 -0.1104 -0.1136
  547SOL    HW1 2186   0.146   2.950  -0.032 -0.7817 -0.3478 -1.8965
  547SOL    HW2 2187   0.160   2.858   0.088 -0.7812 -0.4471  2.9764
  547SOL     MW 2188   0.123   2.927   0.050 -0.3506 -0.1862  0.0588
  548SOL     OW 2189   0.278   2.493   0.281  0.7919 -0.1485 -0.2151
  548SOL    HW1 2190   0.268   2.549   0.205 -0.4556 -0.9442 -0.5694
  548SOL    HW2 2191   0.211   2.429   0.283  4.2767  0.2445 -0.8873
  548SOL     MW 2192   0.268   2.492   0.272  1.0871 -0.2016 -0.3505
  549SOL     OW 2193   0.701   1.827   2.070 -0.1519 -0.3734  0.8358
  549SOL    HW1 2194   0.723   1.906   2.015 -0.7745  5.0507  0.6903
  549SOL    HW2 2195   0.734   1.866   2.151 -0.1404 -0.0586  3.1916
  549SOL     MW 2196   0.708   1.843   2.073 -0.2326  0.3838  1.1274
  550SOL     OW 2197   1.861   1.747   2.525 -0.3533  0.4737  0.4153
  550SOL    HW1 2198   1.837   1.747   2.433 -1.0498 -0.9391 -3.0822
  550SOL    HW2 2199   1.850   1.842   2.543  1.1203  0.2657 -0.7233
  550SOL     MW 2200   1.856   1.760   2.515 -0.2508  0.2598 -0.1964
  551SOL     OW 2201   0.852   2.295   0.244 -0.0374  0.1698  0.1904
  551SOL    HW1 2202   0.934   2.318   0.199 -0.1836  1.1058  0.7455
  551SOL    HW2 2203   0.783   2.291   0.179  0.6646  0.1598 -0.6649
  551SOL     MW 2204   0.854   2.297   0.229  0.0360  0.2920  0.1508
  552SOL     OW 2205   1.737   1.751   2.280  0.3677  0.2246  0.2124
  552SOL    HW1 2206   1.651   1.717   2.275  0.2731 -1.5248 -0.3852
  552SOL    HW2 2207   1.771   1.697   2.204  0.9356 -0.5921 -0.4826
  552SOL     MW 2208   1.730   1.739   2.269  0.4302 -0.1140  0.0419
  553SOL     OW 2209   1.210   2.313   1.522 -0.0724  0.1177  0.1022
  553SOL    HW1 2210   1.241   2.228   1.489 -1.5390  0.0893 -2.5842
  553SOL    HW2 2211   1.266   2.379   1.478  0.1900 -0.7819 -1.4400
  553SOL     MW 2212   1.222   2.311   1.512 -0.2313 -0.0048 -0.4558
  554SOL     OW 2213   0.530   2.811   2.712  0.2897 -0.3716  0.5486
  554SOL    HW1 2214   0.527   2.904   2.687 -0.4364  1.3330 -1.2290
  554SOL    HW2 2215   0.583   2.774   2.642 -2.0117  3.6994  0.6975
  554SOL     MW 2216   0.537   2.818   2.700 -0.1097  0.3904  0.3337
  555SOL     OW 2217   0.560   2.370   2.611 -0.0467  0.0424  0.1283
  555SOL    HW1 2218   0.583   2.284   2.645 -1.3379 -4.4435 -0.6151
  555SOL    HW2 2219   0.648   2.388   2.565  0.7458  0.1788 -0.8468
  555SOL     MW 2220   0.575   2.361   2.609 -0.1125 -0.5315 -0.0984
  556SOL     OW 2221   1.048   1.798   0.140  0.2976  0.2877 -0.0466
  556SOL    HW1 2222   1.067   1.777   0.047 -2.1142  0.0600 -0.6687
  556SOL    HW2 2223   1.130   1.823   0.180 -2.2271 -1.7067 -1.6371
  556SOL     MW 2224   1.061   1.798   0.133 -0.3537 -0.0055 -0.3385
  557SOL     OW 2225   1.046   2.697   0.452 -0.0683 -0.0130  0.0034
  557SOL    HW1 2226   1.090   2.699   0.369 -1.6357 -1.5403  1.4661
  557SOL    HW2 2227   0.979   2.771   0.434 -2.6221 -0.1866 -3.9157
  557SOL     MW 2228   1.043   2.707   0.439 -0.6120 -0.2374 -0.3207
  558SOL     OW 2229   0.258   2.079   3.082  0.5860  0.5067  0.1811
  558SOL    HW1 2230   0.201   2.006   3.101  3.5699  2.1579  1.4409
  558SOL    HW2 2231   0.209   2.144   3.126 -0.7846 -1.5152  0.1620
  558SOL     MW 2232   0.244   2.078   3.091  0.7989  0.4578  0.3448
  559SOL     OW 2233   1.196   2.274   2.037 -0.4482  0.3817 -0.0274
  559SOL    HW1 2234   1.161   2.355   2.071  0.5771  1.1200 -0.5497
  559SOL    HW2 2235   1.213   2.210   2.112  0.7683 -1.8096  1.6491
  559SOL     MW 2236   1.194   2.276   2.051 -0.1524  0.1900  0.1249
  560SOL     OW 2237   1.931   2.957   0.036  0.0350 -0.9548 -0.0507
  560SOL    HW1 2238   2.010   2.991  -0.007  1.4667 -1.8378  1.4232
  560SOL    HW2 2239   1.885   2.900  -0.022 -0.3735 -0.3006 -0.2298
  560SOL     MW 2240   1.935   2.954   0.022  0.1700 -0.9850  0.1202
  561SOL     OW 2241   0.480   2.087   0.163 -0.2513 -0.0644  0.1755
  561SOL    HW1 2242   0.408   2.112   0.089  0.0127  0.6308 -0.9993
  561SOL    HW2 2243   0.517   2.170   0.203 -0.3953 -3.1701 -1.0690
  561SOL     MW 2244   0.475   2.101   0.158 -0.2355 -0.3825 -0.1437
  562SOL     OW 2245   0.869   2.138   2.232  0.3206  0.2882 -0.2209
  562SOL    HW1 2246   0.858   2.235   2.243 -0.6632  0.7293 -0.5473
  562SOL    HW2 2247   0.963   2.129   2.250  0.4391 -0.1955  0.8531
  562SOL     MW 2248   0.880   2.150   2.236  0.2064  0.2826 -0.1222
  563SOL     OW 2249   1.233   0.292   0.550 -0.8652  0.2415  0.3198
  563SOL    HW1 2250   1.188   0.278   0.463 -0.0428  1.1669 -0.0246
  563SOL    HW2 2251   1.278   0.204   0.571  0.9259  1.0486 -0.6042
  563SOL     MW 2252   1.233   0.279   0.541 -0.5203  0.4701  0.1524
  564SOL     OW 2253   1.014   2.610   2.330  0.3261  0.2027  0.6187
  564SOL    HW1 2254   1.070   2.601   2.253  0.5602  2.5684 -0.6084
  564SOL    HW2 2255   1.075   2.668   2.380 -1.0081 -0.3034 -0.1281
  564SOL     MW 2256   1.029   2.617   2.326  0.1809  0.4480  0.3582
  565SOL     OW 2257   2.915   2.657   2.675 -0.2440 -0.4706 -1.1303
  565SOL    HW1 2258   2.967   2.735   2.654  2.3902  1.1426 -4.1575
  565SOL    HW2 2259   2.852   2.645   2.595 -0.4024  1.0405 -0.8848
  565SOL     MW 2260   2.913   2.665   2.662  0.0827 -0.0584 -1.4973
  566SOL     OW 2261   2.226   1.962   2.339  1.0185 -0.9579  0.1781
  566SOL    HW1 2262   2.247   1.963   2.245  0.0791  1.8404  0.2537
  566SOL    HW2 2263   2.276   2.041   2.370 -0.4210  1.7532  0.6882
  566SOL     MW 2264   2.235   1.972   2.331  0.7047 -0.2309  0.2553
  567SOL     OW 2265   1.191   2.928   0.092 -0.1583 -0.2307  0.0399
  567SOL    HW1 2266   1.219   3.018   0.083  2.1000  0.2169 -1.4394
  567SOL    HW2 2267   1.202   2.898  -0.000 -0.4283 -0.1977 -1.1656
  567SOL     MW 2268   1.196   2.936   0.078  0.1041 -0.1673 -0.3143
  568SOL     OW 2269   1.652   2.138   2.833  0.4941 -0.3657  0.0724
  568SOL    HW1 2270   1.718   2.171   2.902 -0.9886  0.1326  2.6760
  568SOL    HW2 2271   1.706   2.116   2.756  1.3342  1.0048  3.7883
  568SOL     MW 2272   1.668   2.139   2.832  0.4093 -0.1191  0.9062
  569SOL     OW 2273   0.103   2.206   2.442 -0.5370 -0.2496 -0.7313
  569SOL    HW1 2274   0.047   2.276   2.410  0.9168 -3.8732  0.1182
  569SOL    HW2 2275   0.137   2.239   2.525  1.3802  2.1412 -2.5440
  569SOL     MW 2276   0.100   2.220   2.449 -0.0922 -0.4122 -0.8584
  570SOL     OW 2277   1.486   0.408   0.486 -1.0044  0.2809  0.6112
  570SOL    HW1 2278   1.429   0.353   0.535  0.6394  2.2714 -0.2994
  570SOL    HW2 2279   1.559   0.434   0.545 -2.9103  0.8490 -3.0841
  570SOL     MW 2280   1.488   0.404   0.500 -1.0390  0.6185  0.0035
  571SOL     OW 2281   1.474   2.405   1.990  0.1030 -0.6272 -0.2478
  571SOL    HW1 2282   1.458   2.410   2.086  3.4430 -0.1334  1.7435
  571SOL    HW2 2283   1.428   2.331   1.955 -1.0892  0.2698  0.6098
  571SOL     MW 2284   1.466   2.396   1.998  0.3864 -0.4437  0.1281
  572SOL     OW 2285   0.902   2.572   3.069  0.3850  0.3850  0.3167
  572SOL    HW1 2286   0.890   2.608   2.981  0.5918 -0.7957  0.1609
  572SOL    HW2 2287   0.817   2.560   3.114 -2.3064 -0.9191 -0.3318
  572SOL     MW 2288   0.889   2.575   3.063  0.0572  0.0572  0.2105
  573SOL     OW 2289   1.113   2.409   0.180 -0.1814  0.1127  0.2851
  573SOL    HW1 2290   1.196   2.382   0.134  1.2408 -0.8494 -1.5410
  573SOL    HW2 2291   1.119   2.502   0.190  2.0538  2.6164 -0.2167
  573SOL     MW 2292   1.124   2.418   0.176  0.3012  0.3161 -0.0220
  574SOL     OW 2293   1.172   2.691   0.210 -0.8578  0.4399  0.2482
  574SOL    HW1 2294   1.265   2.676   0.233 -1.4086  0.5513  0.8791
  574SOL    HW2 2295   1.176   2.776   0.174  0.5704 -0.4967  4.2585
  574SOL     MW 2296   1.185   2.700   0.208 -0.7420  0.3311  0.8606
  575SOL     OW 2297   3.056   2.306   1.843 -0.2025  0.1616  0.8882
  575SOL    HW1 2298   3.020   2.262   1.767  1.2666  2.9157  0.5962
  575SOL    HW2 2299   3.110   2.386   1.819  0.0362  1.8333 -0.1101
  575SOL     MW 2300   3.058   2.311   1.830  0.0229  0.7456  0.7179
  576SOL     OW 2301   2.821   1.812   2.037  0.3457 -0.0261  0.2571
  576SOL    HW1 2302   2.812   1.901   1.998 -1.2485 -0.4361 -0.2680
  576SOL    HW2 2303   2.738   1.766   2.023 -0.6399  2.2585 -0.3725
  576SOL     MW 2304   2.809   1.817   2.030  0.0053  0.2213  0.1048
  577SOL     OW 2305   2.067   0.230   0.060  0.1307 -0.5033  0.1568
  577SOL    HW1 2306   2.012   0.304   0.047  0.7486 -0.1751 -3.0344
  577SOL    HW2 2307   2.015   0.186   0.123  0.2713 -1.0031  4.0027
  577SOL     MW 2308   2.053   0.234   0.067  0.2308 -0.5259  0.2432
  578SOL     OW 2309   1.995   2.137   2.328  0.0672 -1.0447  0.0782
  578SOL    HW1 2310   1.919   2.088   2.283  0.5425  1.3755  1.4354
  578SOL    HW2 2311   2.068   2.068   2.327  1.6828 -0.9746  1.5749
  578SOL     MW 2312   1.995   2.121   2.322  0.3430 -0.7161  0.4548
  579SOL     OW 2313   0.834   2.440   2.518  0.0750 -0.1118  0.1556
  579SOL    HW1 2314   0.862   2.394   2.601  1.1594  0.2111 -1.5714
  579SOL    HW2 2315   0.919   2.474   2.484  2.3122 -0.6579  1.0029
  579SOL     MW 2316   0.849   2.439   2.524  0.5133 -0.1413  0.0395
  580SOL     OW 2317   0.913   2.908   0.026  0.3785  0.7177  0.1198
  580SOL    HW1 2318   0.998   2.892   0.075  0.3544  3.9976 -1.2865
  580SOL    HW2 2319   0.900   2.835  -0.028  0.7114 -0.0456 -1.1636
  580SOL     MW 2320   0.923   2.896   0.025  0.4193  1.0498 -0.2351
  581SOL     OW 2321   1.090   2.545   1.760 -0.3641  0.2940  0.1799
  581SOL    HW1 2322   1.176   2.580   1.780 -0.0804  0.2302  3.3247
  581SOL    HW2 2323   1.108   2.458   1.729 -0.7330  0.6141 -2.2363
  581SOL     MW 2324   1.104   2.538   1.758 -0.3753  0.3278  0.2760
  582SOL     OW 2325   0.002   2.855   2.605  0.0209  0.1531 -0.2582
  582SOL    HW1 2326   0.007   2.947   2.650  0.9042 -0.4898  0.8952
  582SOL    HW2 2327   0.087   2.826   2.576 -0.1055 -1.9643 -2.2568
  582SOL     MW 2328   0.014   2.863   2.607  0.1208 -0.2111 -0.3697
  583SOL     OW 2329   1.970   2.477   2.679  0.4070 -0.1466 -0.3828
  583SOL    HW1 2330   2.005   2.529   2.606  0.0843 -2.5849  0.1787
  583SOL    HW2 2331   1.999   2.384   2.670  2.8909 -1.5458 -0.3463
  583SOL     MW 2332   1.979   2.471   2.668  0.6921 -0.6529 -0.3039
  584SOL     OW 2333   0.149   1.841   2.125 -0.1378 -0.1735 -0.3329
  584SOL    HW1 2334   0.237   1.842   2.080  1.0533  0.2771 -0.5481
  584SOL    HW2 2335   0.165   1.889   2.204 -0.9269  1.4002 -0.2108
  584SOL     MW 2336   0.163   1.847   2.129 -0.0847  0.0936 -0.3452
  585SOL     OW 2337   1.466   2.567   0.033  0.8282 -0.2412 -0.2921
  585SOL    HW1 2338   1.415   2.576  -0.056  0.5070  2.5778 -1.4948
  585SOL    HW2 2339   1.464   2.649   0.072 -0.8037 -3.6815 -0.6565
  585SOL     MW 2340   1.459   2.579   0.026  0.5705 -0.3232 -0.4989
  586SOL     OW 2341   1.276   2.995   2.373 -0.6361  0.1418 -0.2177
  586SOL    HW1 2342   1.350   2.935   2.370  1.6693  1.1809  1.3057
  586SOL    HW2 2343   1.264   3.017   2.472 -3.3607  0.2320  0.5752
  586SOL     MW 2344   1.284   2.990   2.386 -0.6914  0.2908  0.0879
  587SOL     OW 2345   1.195   1.628   2.194  0.2653 -0.2417 -0.4243
  587SOL    HW1 2346   1.192   1.542   2.243 -0.4918 -1.0081 -1.8606
  587SOL    HW2 2347   1.186   1.595   2.099  1.7743 -0.4680 -1.5220
  587SOL     MW 2348   1.193   1.612   2.188  0.3645 -0.3727 -0.7586
  588SOL     OW 2349   1.384   2.161   2.718  0.4048 -0.8523  0.2606
  588SOL    HW1 2350   1.457   2.144   2.767  1.1004  0.6557 -1.7955
  588SOL    HW2 2351   1.311   2.137   2.780 -0.5776  2.7512 -0.3005
  588SOL     MW 2352   1.384   2.156   2.733  0.3670 -0.1779 -0.0847
  589SOL     OW 2353   1.347   2.049   0.056  0.2262  0.1172  0.4359
  589SOL    HW1 2354   1.342   2.143   0.077  0.3138  1.1191  0.1983
  589SOL    HW2 2355   1.296   2.000   0.123  1.9118 -2.1993 -2.1120
  589SOL     MW 2356   1.340   2.055   0.068  0.4602 -0.0562  0.0684
  590SOL     OW 2357   0.450   2.589   2.234  0.3026  0.1878  0.1332
  590SOL    HW1 2358   0.404   2.608   2.152 -3.4921 -0.5387  1.5703
  590SOL    HW2 2359   0.516   2.655   2.249 -1.2039  1.7044 -0.8164
  590SOL     MW 2360   0.452   2.600   2.225 -0.3969  0.2920  0.1975
  591SOL     OW 2361   2.267   0.714   3.053  0.7279  0.0644  0.3967
  591SOL    HW1 2362   2.183   0.742   3.022  0.0224 -0.0873  1.3612
  591SOL    HW2 2363   2.330   0.781   3.028 -0.5350  0.7070  2.3774
  591SOL     MW 2364   2.265   0.727   3.046  0.4682  0.1292  0.7853
  592SOL     OW 2365   1.842   2.949   0.849 -0.2874  0.5460  0.0937
  592SOL    HW1 2366   1.833   3.021   0.781  2.9792  2.5481 -0.9170
  592SOL    HW2 2367   1.910   2.882   0.819  3.5856  2.1380 -0.5248
  592SOL     MW 2368   1.850   2.950   0.836  0.6546  1.0202 -0.1213
  593SOL     OW 2369   1.922   0.791   0.839 -0.2786  0.0841  0.0199
  593SOL    HW1 2370   1.863   0.773   0.764 -1.2673  0.6096 -3.3651
  593SOL    HW2 2371   1.945   0.704   0.873  0.5027  1.0748  0.6714
  593SOL     MW 2372   1.917   0.777   0.834 -0.3060  0.2841 -0.3407
  594SOL     OW 2373   2.739   1.156   1.374  0.0122 -0.4505 -0.3506
  594SOL    HW1 2374   2.840   1.161   1.400  2.1923  4.6912  0.3634
  594SOL    HW2 2375   2.737   1.130   1.279 -0.5361 -2.6322 -0.7161
  594SOL     MW 2376   2.752   1.153   1.365  0.2275 -0.0599 -0.3046
  595SOL     OW 2377   0.431   0.961   0.737  0.4240 -0.5237 -0.2268
  595SOL    HW1 2378   0.465   1.029   0.671 -0.8252 -1.3717 -1.6620
  595SOL    HW2 2379   0.455   1.011   0.811 -2.9923  2.2840 -2.4855
  595SOL     MW 2380   0.438   0.977   0.738 -0.1916 -0.2652 -0.7142
  596SOL     OW 2381   2.444   1.357   0.590  0.3064 -0.2037 -0.4211
  596SOL    HW1 2382   2.484   1.436   0.554  3.7662  1.4028  1.7980
  596SOL    HW2 2383   2.508   1.330   0.656 -1.7770 -1.0459  0.1908
  596SOL     MW 2384   2.458   1.364   0.594  0.4880 -0.1029 -0.0476
  597SOL     OW 2385   2.170   0.657   1.716  0.2022  0.3175  0.1559
  597SOL    HW1 2386   2.248   0.612   1.744 -0.5625  1.6264  1.7968
  597SOL    HW2 2387   2.155   0.631   1.622 -0.3005  1.4178  0.6745
  597SOL     MW 2388   2.178   0.647   1.707  0.0350  0.6354  0.4408
  598SOL     OW 2389   2.621   1.007   2.863 -0.1538  0.3025 -0.0798
  598SOL    HW1 2390   2.694   0.974   2.812 -5.0094  0.5437  1.2923
  598SOL    HW2 2391   2.667   1.041   2.943  0.4808  3.3216 -0.4817
  598SOL     MW 2392   2.637   1.007   2.867 -0.7107  0.7327  0.0482
  599SOL     OW 2393   2.909   0.376   1.998  0.2725 -0.0793  0.2106
  599SOL    HW1 2394   2.877   0.341   2.080  1.5685  0.8388 -0.4209
  599SOL    HW2 2395   2.938   0.466   2.013 -0.1607 -0.7723  1.0394
  599SOL     MW 2396   2.909   0.383   2.011  0.3863 -0.0496  0.2366
  600SOL     OW 2397   1.873   1.707   0.884  0.2815  0.0839  0.1000
  600SOL    HW1 2398   1.892   1.712   0.974  2.2645  2.6708 -1.5142
  600SOL    HW2 2399   1.777   1.722   0.876  2.8588  0.0847  2.3930
  600SOL     MW 2400   1.863   1.710   0.895  0.8832  0.4253  0.1895
  601SOL     OW 2401   2.541   0.800   0.878  0.6136  0.0929 -0.1228
  601SOL    HW1 2402   2.547   0.822   0.973  1.6890 -0.0589 -0.0653
  601SOL    HW2 2403   2.479   0.722   0.872 -0.5902 -0.3589 -0.2965
  601SOL     MW 2404   2.534   0.792   0.890  0.5966  0.0133 -0.1382
  602SOL     OW 2405   2.301   1.936   0.678  0.4761 -0.2050 -0.1615
  602SOL    HW1 2406   2.229   1.884   0.716  0.7578  1.6877  2.5138
  602SOL    HW2 2407   2.266   2.020   0.651 -0.6550  0.4856  0.9140
  602SOL     MW 2408   2.287   1.940   0.680  0.3641  0.1359  0.3334
  603SOL     OW 2409   2.994   1.392   1.826 -0.3235  0.1592 -0.5451
  603SOL    HW1 2410   3.086   1.412   1.853  1.0858  0.9507  0.7810
  603SOL    HW2 2411   2.992   1.296   1.802 -0.2208  1.3155 -0.0352
  603SOL     MW 2412   3.006   1.382   1.826 -0.1240  0.4162 -0.3029
  604SOL     OW 2413   2.090   1.543   0.463  0.5379 -0.2108 -0.7757
  604SOL    HW1 2414   2.150   1.500   0.526 -2.3295 -1.5498 -1.0807
  604SOL    HW2 2415   2.013   1.584   0.508  0.5931  2.3194 -0.1086
  604SOL     MW 2416   2.087   1.542   0.477  0.1668 -0.0537 -0.7279
  605SOL     OW 2417   2.659   1.571   0.877 -0.5377  0.2421 -0.0635
  605SOL    HW1 2418   2.607   1.616   0.816  1.8823 -2.6076  0.4373
  605SOL    HW2 2419   2.601   1.535   0.936  2.5987 -0.5034  0.2645
  605SOL     MW 2420   2.645   1.572   0.877  0.1954 -0.2323  0.0458
  606SOL     OW 2421   2.537   1.756   2.004 -0.1384 -0.0651 -0.0645
  606SOL    HW1 2422   2.443   1.771   2.007 -1.3601  3.1257  3.8569
  606SOL    HW2 2423   2.541   1.696   1.923 -0.1671 -2.6284 -0.5795
  606SOL     MW 2424   2.525   1.750   1.994 -0.3034  0.0177  0.3850
  607SOL     OW 2425   2.338   1.017   3.014  0.2405 -0.1693 -0.3115
  607SOL    HW1 2426   2.411   1.011   2.951  0.9078 -2.8691 -0.5498
  607SOL    HW2 2427   2.370   1.061   3.096  0.3209 -0.4120  2.8813
  607SOL     MW 2428   2.352   1.022   3.017  0.3391 -0.5575  0.0783
  608SOL     OW 2429   1.886   0.277   0.587  0.1147  0.1757 -0.0581
  608SOL    HW1 2430   1.914   0.312   0.500  0.1208  2.9634 -0.3200
  608SOL    HW2 2431   1.864   0.179   0.573 -1.8096 -2.2419 -2.1612
  608SOL     MW 2432   1.887   0.268   0.574 -0.1384  0.2246 -0.3701
  609SOL     OW 2433   2.144   1.909   3.014  0.3848  0.9330  0.1400
  609SOL    HW1 2434   2.063   1.875   2.964  1.3787 -0.5525 -0.4764
  609SOL    HW2 2435   2.145   1.886   3.109 -1.7141 -1.5868 -1.5467
  609SOL     MW 2436   2.134   1.901   3.020  0.2390  0.4045 -0.1639
  610SOL     OW 2437   1.857   1.090   1.347  0.0309 -0.2698 -0.3581
  610SOL    HW1 2438   1.856   1.018   1.281 -0.5058 -0.4388 -0.1217
  610SOL    HW2 2439   1.779   1.080   1.395  0.7261 -0.6948 -0.8866
  610SOL     MW 2440   1.847   1.079   1.345  0.0518 -0.3482 -0.3967
  611SOL     OW 2441   2.445   1.677   0.715  0.1080 -0.5147  0.0430
  611SOL    HW1 2442   2.385   1.750   0.741 -0.5292 -0.2018  1.7964
  611SOL    HW2 2443   2.447   1.661   0.620  1.3281  0.0475 -3.2036
  611SOL     MW 2444   2.438   1.684   0.706  0.1849 -0.3992 -0.1540
  612SOL     OW 2445   2.788   2.805   0.458 -0.0325  0.5552 -0.2831
  612SOL    HW1 2446   2.820   2.879   0.515 -0.0512 -1.0048  1.3095
  612SOL    HW2 2447   2.873   2.784   0.412  1.1793 -0.8920  2.8820
  612SOL     MW 2448   2.803   2.812   0.459  0.1249  0.1585  0.3446
  613SOL     OW 2449   1.604   1.026   1.123 -0.5525  0.5248  0.0361
  613SOL    HW1 2450   1.616   1.105   1.182 -0.7793  1.3386  0.6672
  613SOL    HW2 2451   1.691   0.992   1.113 -1.3014  1.3997  1.9197
  613SOL     MW 2452   1.617   1.032   1.130 -0.6812  0.7476  0.3679
  614SOL     OW 2453   2.044   0.543   1.491  0.2715  0.0563  0.0707
  614SOL    HW1 2454   2.038   0.465   1.548  3.1122 -1.9620 -0.9303
  614SOL    HW2 2455   2.045   0.531   1.399 -2.4814 -0.9485 -0.4280
  614SOL     MW 2456   2.043   0.531   1.487  0.2831 -0.3426 -0.1272
  615SOL     OW 2457   2.261   0.828   0.185  0.8530  0.4571 -0.2659
  615SOL    HW1 2458   2.307   0.766   0.235 -3.1171  1.7148  2.3760
  615SOL    HW2 2459   2.244   0.786   0.100  2.3173  0.7035  0.3920
  615SOL     MW 2460   2.265   0.814   0.181  0.5224  0.6556  0.1695
  616SOL     OW 2461   2.571   0.434   1.595 -0.3644 -0.1393  0.5122
  616SOL    HW1 2462   2.532   0.366   1.539  1.6826  0.6809 -0.2933
  616SOL    HW2 2463   2.619   0.492   1.530  0.2445  0.0505  0.3632
  616SOL     MW 2464   2.572   0.433   1.579 -0.0140 -0.0061  0.3862
  617SOL     OW 2465   2.882   0.543   1.740 -0.3208  0.3868 -0.3659
  617SOL    HW1 2466   2.818   0.594   1.796  0.2608 -0.6356  1.0148
  617SOL    HW2 2467   2.856   0.448   1.732 -0.3803  0.0190 -1.5790
  617SOL     MW 2468   2.870   0.537   1.746 -0.2519  0.2034 -0.3438
  618SOL     OW 2469   2.648   0.367   1.918  0.0044  0.0909 -0.6808
  618SOL    HW1 2470   2.642   0.465   1.921 -0.2339  0.9983  3.2458
  618SOL    HW2 2471   2.739   0.365   1.949 -0.5718 -1.3930 -0.7511
  618SOL     MW 2472   2.659   0.380   1.923 -0.1030  0.0149 -0.1720
  619SOL     OW 2473   2.598   0.860   0.154 -0.5291 -0.7656  0.0083
  619SOL    HW1 2474   2.688   0.892   0.172  3.2375 -2.1816 -0.8181
  619SOL    HW2 2475   2.571   0.825   0.236 -0.4830 -2.7475  0.0510
  619SOL     MW 2476   2.606   0.860   0.167 -0.0260 -1.2139 -0.0951
  620SOL     OW 2477   2.283   1.086   0.930  0.0739  0.3292  0.1776
  620SOL    HW1 2478   2.351   1.121   0.876 -0.1013  0.3113  1.0569
  620SOL    HW2 2479   2.260   0.999   0.899  0.9864 -1.7124 -0.5465
  620SOL     MW 2480   2.289   1.079   0.919  0.1712  0.0575  0.1981
  621SOL     OW 2481   1.471   2.116   1.981 -0.4089  0.0707  0.2038
  621SOL    HW1 2482   1.400   2.055   1.995 -0.5934  1.4888 -0.0101
  621SOL    HW2 2483   1.513   2.122   2.069  2.1109 -1.4614 -0.0684
  621SOL     MW 2484   1.467   2.109   1.994 -0.1007  0.0556  0.1397
  622SOL     OW 2485   2.616   0.156   0.185 -0.1478 -0.3509  0.2372
  622SOL    HW1 2486   2.701   0.160   0.224 -0.4083  3.5266  0.2457
  622SOL    HW2 2487   2.593   0.058   0.162 -0.8490  0.2895 -0.0714
  622SOL     MW 2488   2.624   0.143   0.187 -0.2747  0.2452  0.1976
  623SOL     OW 2489   2.354   2.779   0.834 -0.4318 -0.2881  0.0753
  623SOL    HW1 2490   2.429   2.834   0.843 -0.0349 -1.0840 -1.4454
  623SOL    HW2 2491   2.304   2.794   0.913 -0.1526  1.4586 -0.0444
  623SOL     MW 2492   2.357   2.788   0.846 -0.3426 -0.1626 -0.1411
  624SOL     OW 2493   2.238   1.649   3.032 -0.0292  0.2530  0.4713
  624SOL    HW1 2494   2.156   1.600   3.036  2.1423  1.6287  0.5919
  624SOL    HW2 2495   2.211   1.741   3.028  0.1301 -0.6433  0.4533
  624SOL     MW 2496   2.223   1.655   3.032  0.2783  0.3162  0.4848
  625SOL     OW 2497   2.168   1.899   1.070 -0.3641  0.6422 -0.3921
  625SOL    HW1 2498   2.216   1.869   1.146 -3.0633  0.2087 -0.7267
  625SOL    HW2 2499   2.182   1.841   0.997 -3.6788 -2.2237  1.3701
  625SOL     MW 2500   2.176   1.887   1.070 -1.1576  0.2069 -0.2038
  626SOL     OW 2501   0.163   1.540   2.372 -0.1105 -0.4246 -0.3304
  626SOL    HW1 2502   0.121   1.452   2.361 -2.3077  0.4850  3.1010
  626SOL    HW2 2503   0.134   1.572   2.458 -1.9467  1.0616 -4.0185
  626SOL     MW 2504   0.154   1.532   2.382 -0.6427 -0.1085 -0.3643
  627SOL     OW 2505   2.443   0.822   2.559 -0.2243 -0.6573  0.1059
  627SOL    HW1 2506   2.382   0.903   2.550  0.3793  0.1294 -0.6063
  627SOL    HW2 2507   2.416   0.762   2.486  2.1118 -2.1340  2.4109
  627SOL     MW 2508   2.432   0.825   2.548  0.1635 -0.7483  0.3160
  628SOL     OW 2509   2.292   1.373   1.389 -0.4547 -0.0196  0.1173
  628SOL    HW1 2510   2.252   1.307   1.337  0.0596  1.5995 -0.2193
  628SOL    HW2 2511   2.387   1.378   1.363  1.2663 -0.3213 -0.8526
  628SOL     MW 2512   2.299   1.365   1.378 -0.1598  0.1542 -0.0551
  629SOL     OW 2513   1.991   0.547   1.211 -0.0953 -0.2490  0.4021
  629SOL    HW1 2514   2.060   0.616   1.226 -2.4974  0.5187 -0.0402
  629SOL    HW2 2515   1.907   0.594   1.226  1.4730 -1.3724  2.5800
  629SOL     MW 2516   1.989   0.562   1.215 -0.2053 -0.2960  0.6311
  630SOL     OW 2517   2.529   1.799   3.064  0.0864  0.2141 -0.1303
  630SOL    HW1 2518   2.461   1.855   3.023  2.0733  1.2979  1.8251
  630SOL    HW2 2519   2.480   1.720   3.085  1.6272  2.7884  0.8449
  630SOL     MW 2520   2.513   1.796   3.062  0.5519  0.6968  0.2563
  631SOL     OW 2521   1.978   1.793   1.596 -0.0258 -0.0658 -0.3051
  631SOL    HW1 2522   2.030   1.709   1.617  0.0691 -0.7967  0.3149
  631SOL    HW2 2523   1.956   1.780   1.500  0.3250  2.1934 -4.1874
  631SOL     MW 2524   1.982   1.780   1.586  0.0330  0.1358 -0.7356
  632SOL     OW 2525   0.167   2.091   1.580 -0.9727 -0.2452  0.0549
  632SOL    HW1 2526   0.080   2.082   1.609 -0.6372 -0.7069 -0.7540
  632SOL    HW2 2527   0.195   2.006   1.538  0.7824 -1.9047 -0.8856
  632SOL     MW 2528   0.159   2.079   1.578 -0.6969 -0.5251 -0.1759
  633SOL     OW 2529   2.421   0.689   0.353  0.1719  0.3849 -0.1137
  633SOL    HW1 2530   2.510   0.666   0.376  1.0399 -3.3400  0.2367
  633SOL    HW2 2531   2.378   0.607   0.375  1.4127 -1.6629  0.2896
  633SOL     MW 2532   2.427   0.675   0.359  0.4502 -0.3768 -0.0142
  634SOL     OW 2533   2.646   3.080   0.629 -0.0509  0.0019  0.4290
  634SOL    HW1 2534   2.682   3.169   0.614  0.3719 -0.8084 -1.0497
  634SOL    HW2 2535   2.618   3.044   0.545 -0.6243  0.0691 -1.2505
  634SOL     MW 2536   2.647   3.087   0.616 -0.0708 -0.0961  0.0123
  635SOL     OW 2537   2.625   0.128   1.802 -0.6951 -0.4003 -0.1448
  635SOL    HW1 2538   2.707   0.099   1.763  0.1132  1.7712  0.6829
  635SOL    HW2 2539   2.646   0.209   1.848  1.1875 -2.0609  0.4947
  635SOL     MW 2540   2.639   0.135   1.803 -0.3400 -0.3329  0.0488
  636SOL     OW 2541   2.942   1.647   0.973  0.7283  0.0961 -0.1118
  636SOL    HW1 2542   2.866   1.688   0.934 -0.8382 -0.1441  1.0174
  636SOL    HW2 2543   2.958   1.690   1.062 -1.0471  1.0649  1.5848
  636SOL     MW 2544   2.934   1.658   0.980  0.2874  0.1922  0.2610
  637SOL     OW 2545   2.902   1.489   0.697 -0.1444 -0.0667 -0.5089
  637SOL    HW1 2546   2.943   1.539   0.765 -0.4467  1.9108  1.7233
  637SOL    HW2 2547   2.818   1.469   0.736 -0.0346 -2.0887 -1.7141
  637SOL     MW 2548   2.896   1.493   0.711 -0.1698 -0.0726 -0.3734
  638SOL     OW 2549   2.651   0.660   0.500  0.0648 -0.1621 -0.2577
  638SOL    HW1 2550   2.746   0.651   0.478 -2.1587 -1.6877 -1.2162
  638SOL    HW2 2551   2.622   0.592   0.560 -1.5451  0.4937  0.2320
  638SOL     MW 2552   2.660   0.650   0.505 -0.4410 -0.2769 -0.3195
  639SOL     OW 2553   1.816   0.005   0.598  0.3846  0.2883 -1.2431
  639SOL    HW1 2554   1.720   0.027   0.591  0.9521 -1.8052 -1.5151
  639SOL    HW2 2555   1.824  -0.030   0.510  0.5022  0.8151 -0.3660
  639SOL     MW 2556   1.805   0.003   0.585  0.4750  0.0816 -1.1633
  640SOL     OW 2557   0.375   1.368   0.090 -0.2371  0.0627  0.3750
  640SOL    HW1 2558   0.391   1.401  -0.001 -1.0108  1.3784 -1.5334
  640SOL    HW2 2559   0.355   1.273   0.071  0.1838 -0.0399 -1.1886
  640SOL     MW 2560   0.374   1.360   0.076 -0.2837  0.2228 -0.0831
  641SOL     OW 2561   2.242   0.447   0.370 -0.4582 -0.1887  0.3274
  641SOL    HW1 2562   2.252   0.429   0.276  1.2590  1.0836 -0.8264
  641SOL    HW2 2563   2.306   0.392   0.407 -2.5449  1.0084 -0.3129
  641SOL     MW 2564   2.251   0.438   0.363 -0.5069  0.1371  0.0907
  642SOL     OW 2565   0.007   0.001   0.555 -0.9042 -0.7856  0.6513
  642SOL    HW1 2566  -0.023   0.087   0.524  1.6028  0.5663 -3.1105
  642SOL    HW2 2567  -0.073  -0.046   0.587 -2.3719 -0.2131  0.9065
  642SOL     MW 2568  -0.007   0.006   0.555 -0.7671 -0.5317  0.1886
  643SOL     OW 2569   2.013   0.339   1.668 -0.0892  0.5264 -0.1567
  643SOL    HW1 2570   2.101   0.326   1.701  0.1469  0.3329 -0.7938
  643SOL    HW2 2571   2.010   0.280   1.587  3.1950  0.1148  0.4164
  643SOL     MW 2572   2.024   0.329   1.661  0.3752  0.4466 -0.1651
  644SOL     OW 2573   2.711   1.843   0.993  0.2217  0.2333  0.3935
  644SOL    HW1 2574   2.664   1.820   1.070  1.2771 -1.2328  1.2880
  644SOL    HW2 2575   2.647   1.871   0.923 -0.1025  2.3967  0.6411
  644SOL     MW 2576   2.696   1.844   0.994  0.3182  0.3253  0.5442
  645SOL     OW 2577   2.806   0.886   0.656  0.6191 -0.0652 -0.1374
  645SOL    HW1 2578   2.866   0.843   0.718 -1.8930  1.1459  0.2932
  645SOL    HW2 2579   2.751   0.812   0.624  0.1908 -1.2233  2.3816
  645SOL     MW 2580   2.807   0.871   0.660  0.2311 -0.0582  0.2518
  646SOL     OW 2581   0.179   2.259   0.860 -0.3016 -0.0236 -0.3862
  646SOL    HW1 2582   0.227   2.181   0.836 -0.4441  0.6571 -2.7696
  646SOL    HW2 2583   0.130   2.270   0.779  2.8981 -2.3462 -0.0403
  646SOL     MW 2584   0.179   2.250   0.846  0.1018 -0.2402 -0.6550
  647SOL     OW 2585   2.729   0.542   2.976  0.0832  0.2341 -0.0966
  647SOL    HW1 2586   2.679   0.469   3.005 -1.7295  2.1600  2.1380
  647SOL    HW2 2587   2.670   0.610   2.986  1.3238 -0.0964 -0.5203
  647SOL     MW 2588   2.715   0.541   2.981  0.0077  0.4446  0.1423
  648SOL     OW 2589   2.222   0.710   1.190 -0.1322  0.3252 -0.1790
  648SOL    HW1 2590   2.214   0.756   1.108  2.2803 -3.3160  0.7887
  648SOL    HW2 2591   2.235   0.777   1.257 -2.4550  1.6619  0.4837
  648SOL     MW 2592   2.223   0.725   1.188 -0.1204  0.0211  0.0361
  649SOL     OW 2593   2.382   2.719   1.250  0.3528  0.3123  0.0463
  649SOL    HW1 2594   2.467   2.768   1.254  0.1366 -0.3514  1.0893
  649SOL    HW2 2595   2.394   2.648   1.185 -0.7979  2.4320  0.6068
  649SOL     MW 2596   2.395   2.716   1.242  0.1724  0.5044  0.2579
  650SOL     OW 2597   2.797   0.237   0.624  0.1933  0.2313  0.5107
  650SOL    HW1 2598   2.814   0.292   0.699  1.1251 -1.9850 -0.0271
  650SOL    HW2 2599   2.887   0.236   0.583  1.7256  1.2728 -1.7925
  650SOL     MW 2600   2.811   0.245   0.628  0.5184  0.0763  0.1359
  651SOL     OW 2601   2.967   0.341   0.838  0.4615  0.4134  0.0315
  651SOL    HW1 2602   3.042   0.398   0.804  2.1231  1.6237  0.9933
  651SOL    HW2 2603   2.923   0.401   0.900 -0.0323 -1.1800  0.3082
  651SOL     MW 2604   2.971   0.356   0.842  0.6156  0.3629  0.1949
  652SOL     OW 2605   2.377   1.424   2.959  0.6341 -0.4681  0.7627
  652SOL    HW1 2606   2.457   1.452   2.905  0.4113 -0.2859  0.6941
  652SOL    HW2 2607   2.338   1.510   2.985  0.6173 -1.1241 -0.6227
  652SOL     MW 2608   2.383   1.439   2.955  0.6025 -0.5306  0.5709
  653SOL     OW 2609   1.978   0.431   0.362  0.2465  0.1667 -0.4003
  653SOL    HW1 2610   1.963   0.363   0.296  0.6754 -1.2940  1.1730
  653SOL    HW2 2611   2.069   0.452   0.358  0.9453  1.5690 -0.2871
  653SOL     MW 2612   1.988   0.425   0.353  0.3953  0.1590 -0.1778
  654SOL     OW 2613   2.475   1.033   0.701 -0.2617 -0.1435  0.1623
  654SOL    HW1 2614   2.391   1.038   0.657  1.6230  1.5111 -1.5412
  654SOL    HW2 2615   2.491   0.939   0.717  1.5033  1.8147 -1.7896
  654SOL     MW 2616   2.466   1.022   0.697  0.2198  0.3332 -0.3200
  655SOL     OW 2617   3.022   0.914   0.434 -0.2957  0.3123 -0.4200
  655SOL    HW1 2618   2.997   0.952   0.517  0.9120 -1.2079  0.4100
  655SOL    HW2 2619   2.989   0.821   0.449 -0.4378  0.7674  2.6411
  655SOL     MW 2620   3.015   0.907   0.447 -0.1551  0.1718  0.0934
  656SOL     OW 2621   1.938   2.772   1.227 -0.1538 -0.4218  0.1514
  656SOL    HW1 2622   1.960   2.839   1.295  0.8414 -1.8788  0.6438
  656SOL    HW2 2623   1.973   2.699   1.269  1.7357  2.3082 -3.3209
  656SOL     MW 2624   1.946   2.771   1.242  0.2268 -0.2538 -0.2418
  657SOL     OW 2625   0.247   1.514   1.238  0.1557  0.1069  0.5401
  657SOL    HW1 2626   0.155   1.501   1.251  0.3292  0.8771 -1.5202
  657SOL    HW2 2627   0.259   1.540   1.146 -1.0977  0.0168 -1.5201
  657SOL     MW 2628   0.237   1.516   1.228  0.0132  0.1966 -0.0035
  658SOL     OW 2629   2.701   1.380   0.240  0.0755  0.0880 -0.0389
  658SOL    HW1 2630   2.652   1.306   0.283 -1.3518 -0.8762  0.2685
  658SOL    HW2 2631   2.736   1.435   0.308 -1.7137 -0.1272 -0.6553
  658SOL     MW 2632   2.699   1.377   0.254 -0.3489 -0.0676 -0.0796
  659SOL     OW 2633   2.245   1.558   1.014  0.5570  0.1647  0.2748
  659SOL    HW1 2634   2.333   1.516   1.041 -0.9161 -0.7214  0.4395
  659SOL    HW2 2635   2.235   1.607   1.091  1.7281 -1.3195 -2.1494
  659SOL     MW 2636   2.256   1.559   1.028  0.5171 -0.1480 -0.0233
  660SOL     OW 2637   2.050   1.543   1.713 -0.1358 -0.1560 -0.7077
  660SOL    HW1 2638   2.076   1.571   1.809 -2.0747  0.4704  0.5177
  660SOL    HW2 2639   2.008   1.461   1.727  3.0148  0.0582 -1.0111
  660SOL     MW 2640   2.048   1.536   1.727  0.0241 -0.0451 -0.5860
  661SOL     OW 2641   2.375   1.111   0.164  0.1326 -0.7677  0.4439
  661SOL    HW1 2642   2.428   1.128   0.240 -2.2747 -0.1987 -0.6117
  661SOL    HW2 2643   2.344   1.018   0.178 -1.6331 -0.4386 -0.8105
  661SOL     MW 2644   2.378   1.101   0.176 -0.4180 -0.6492  0.1391
  662SOL     OW 2645   2.539   2.990   0.877 -0.4636 -0.3115 -0.2081
  662SOL    HW1 2646   2.482   3.059   0.918 -2.4549 -1.6042 -0.9177
  662SOL    HW2 2647   2.563   3.027   0.793  0.1066 -0.0537 -0.4089
  662SOL     MW 2648   2.534   3.004   0.872 -0.6511 -0.4481 -0.3282
  663SOL     OW 2649   2.822   1.576   0.442 -0.0187 -0.0102 -0.0082
  663SOL    HW1 2650   2.880   1.625   0.389  1.2263  1.8540  0.0700
  663SOL    HW2 2651   2.867   1.549   0.522 -1.4776  2.0646 -1.2212
  663SOL     MW 2652   2.836   1.579   0.445 -0.0469  0.5095 -0.1579
  664SOL     OW 2653   2.490   1.586   1.551  0.4830  0.0071  0.1958
  664SOL    HW1 2654   2.456   1.677   1.555 -1.4482 -1.3367 -0.8926
  664SOL    HW2 2655   2.413   1.533   1.580 -2.0628 -0.8458  0.8666
  664SOL     MW 2656   2.475   1.591   1.555 -0.1077 -0.2827  0.1407
  665SOL     OW 2657   2.852   0.794   2.029  0.2241  0.0844  0.2260
  665SOL    HW1 2658   2.849   0.863   1.961 -0.5561 -0.2816  0.1678
  665SOL    HW2 2659   2.936   0.756   2.020 -0.2482 -0.1913 -0.5284
  665SOL     MW 2660   2.863   0.798   2.019  0.0589 -0.0003  0.1188
  666SOL     OW 2661   2.789   3.018   1.690 -0.0357  0.4663  0.1275
  666SOL    HW1 2662   2.799   3.030   1.595 -1.1139 -1.7760 -0.6263
  666SOL    HW2 2663   2.723   2.953   1.700  0.1751 -0.0118 -1.5465
  666SOL     MW 2664   2.782   3.011   1.679 -0.1502  0.1074 -0.1928
  667SOL     OW 2665   1.957   2.705   1.598  0.2914  0.5351  0.1810
  667SOL    HW1 2666   1.951   2.623   1.648  0.6344  3.2684  2.2973
  667SOL    HW2 2667   2.048   2.740   1.614 -0.6094 -0.9345 -1.3104
  667SOL     MW 2668   1.969   2.699   1.607  0.2178  0.7018  0.2635
  668SOL     OW 2669   2.742   0.639   0.805 -0.4114 -0.0040  0.1101
  668SOL    HW1 2670   2.831   0.620   0.842  1.0215 -0.0535 -1.9769
  668SOL    HW2 2671   2.698   0.707   0.850  0.3936 -2.2399 -2.9311
  668SOL     MW 2672   2.748   0.645   0.816 -0.1161 -0.3055 -0.5665
  669SOL     OW 2673   0.156   0.898   0.729 -0.0015 -0.6264  0.1355
  669SOL    HW1 2674   0.123   0.990   0.741  2.2676 -0.5761 -0.3111
  669SOL    HW2 2675   0.253   0.911   0.742  4.3858 -1.3302  0.9463
  669SOL     MW 2676   0.164   0.912   0.733  0.8768 -0.7126  0.1835
  670SOL     OW 2677   2.923   0.282   0.230  0.4530  0.0928 -0.2674
  670SOL    HW1 2678   2.924   0.226   0.153  0.0940  0.2177 -1.4876
  670SOL    HW2 2679   2.922   0.374   0.190 -0.2255  2.0427 -0.7386
  670SOL     MW 2680   2.923   0.287   0.215  0.3161  0.3666 -0.4906
  671SOL     OW 2681   2.170  -0.002   1.615  0.1230 -0.1555 -0.2292
  671SOL    HW1 2682   2.148   0.055   1.539  1.6038  1.5189  2.5800
  671SOL    HW2 2683   2.079   0.006   1.647  0.1723  0.2842 -0.5833
  671SOL     MW 2684   2.155   0.007   1.609  0.3249  0.1234  0.0947
  672SOL     OW 2685   1.878   1.705   1.344 -0.2937  0.1174 -0.0510
  672SOL    HW1 2686   1.791   1.711   1.361  0.8780 -3.0847 -0.2085
  672SOL    HW2 2687   1.878   1.737   1.253  0.4168 -0.6617  0.2927
  672SOL     MW 2688   1.867   1.710   1.334 -0.0454 -0.4079 -0.0264
  673SOL     OW 2689   2.787   1.108   0.462  0.4458 -0.1248  0.2526
  673SOL    HW1 2690   2.776   1.016   0.495 -1.0306  0.7214  1.1750
  673SOL    HW2 2691   2.875   1.152   0.493  0.5473  0.1637  0.2658
  673SOL     MW 2692   2.797   1.102   0.470  0.2644  0.0249  0.3761
  674SOL     OW 2693   2.509   0.045   1.285  0.0830  0.8419 -0.1565
  674SOL    HW1 2694   2.472   0.059   1.195  0.1177 -0.5481  2.6545
  674SOL    HW2 2695   2.538  -0.045   1.297 -0.7461 -0.8530  1.9346
  674SOL     MW 2696   2.508   0.035   1.274 -0.0218  0.4349  0.4903
  675SOL     OW 2697   2.965   1.061   1.105 -0.0986 -0.3436  0.2585
  675SOL    HW1 2698   3.030   1.017   1.167 -1.2819  2.5622  1.9788
  675SOL    HW2 2699   3.019   1.116   1.053  0.3344 -0.3676  0.9309
  675SOL     MW 2700   2.981   1.062   1.106 -0.1976  0.0366  0.5742
  676SOL     OW 2701   2.793   1.464   1.624 -0.6283 -0.0848 -0.1905
  676SOL    HW1 2702   2.763   1.378   1.614  1.6147  3.1495 -2.8881
  676SOL    HW2 2703   2.862   1.470   1.694 -2.0242 -2.2823  2.7265
  676SOL     MW 2704   2.799   1.454   1.632 -0.5165  0.0520 -0.1615
  677SOL     OW 2705   2.458   0.821   1.881 -0.6536 -0.1458  0.4905
  677SOL    HW1 2706   2.416   0.856   1.801 -0.5606 -1.0523  0.4416
  677SOL    HW2 2707   2.402   0.843   1.951 -0.7345 -0.4434 -4.2631
  677SOL     MW 2708   2.445   0.828   1.879 -0.6520 -0.3046 -0.1431
  678SOL     OW 2709   2.495   1.578   0.456  0.2965  0.1814  0.0287
  678SOL    HW1 2710   2.443   1.625   0.394  3.6232 -0.3241 -0.3281
  678SOL    HW2 2711   2.569   1.632   0.458  0.6913 -3.1701  0.6984
  678SOL     MW 2712   2.498   1.591   0.448  0.7876 -0.3275  0.0700
  679SOL     OW 2713   2.397   0.500   1.127 -0.9495 -0.5489 -1.0265
  679SOL    HW1 2714   2.330   0.433   1.135 -1.9040 -1.5083 -1.3440
  679SOL    HW2 2715   2.344   0.579   1.110  1.5713  1.3630  2.3876
  679SOL     MW 2716   2.381   0.502   1.126 -0.7428 -0.4232 -0.6180
  680SOL     OW 2717   2.401   0.277   1.450 -0.4307  0.1302 -0.6414
  680SOL    HW1 2718   2.348   0.237   1.516  2.2516 -1.7302  0.4871
  680SOL    HW2 2719   2.445   0.199   1.412  0.0234  1.6596  2.5194
  680SOL     MW 2720   2.400   0.262   1.454 -0.0168  0.0865 -0.0754
  681SOL     OW 2721   0.300   0.520   1.566 -0.1149  0.3293  0.2204
  681SOL    HW1 2722   0.293   0.439   1.611  1.1180  1.8519 -0.4511
  681SOL    HW2 2723   0.397   0.529   1.564 -0.8223  2.6701 -1.2817
  681SOL     MW 2724   0.312   0.511   1.572 -0.0456  0.8390 -0.0663
  682SOL     OW 2725   0.126   3.018   1.473  0.6019  0.1187  0.5309
  682SOL    HW1 2726   0.142   3.104   1.446  2.4245 -1.2334 -1.4660
  682SOL    HW2 2727   0.076   3.012   1.557 -0.3738 -2.9843  0.3469
  682SOL     MW 2728   0.122   3.028   1.481  0.7137 -0.4691  0.2431
  683SOL     OW 2729   2.012   0.823   2.995  0.5231 -0.0519 -0.4822
  683SOL    HW1 2730   1.925   0.801   2.959 -1.9426  0.6261  0.7578
  683SOL    HW2 2731   1.997   0.895   3.056  3.1603  1.4321  1.6857
  683SOL     MW 2732   1.998   0.830   2.998  0.5457  0.2333 -0.0326
  684SOL     OW 2733   2.161   1.739   0.838 -0.1816  0.1795  0.4901
  684SOL    HW1 2734   2.062   1.732   0.834  0.4511  0.8751 -0.0944
  684SOL    HW2 2735   2.198   1.655   0.877  1.1643 -1.4391 -0.4859
  684SOL     MW 2736   2.153   1.727   0.842  0.0795  0.0578  0.2842
  685SOL     OW 2737   2.565   1.729   1.214  0.0240 -0.6269  0.1280
  685SOL    HW1 2738   2.640   1.709   1.265 -1.2709  1.0077  1.0634
  685SOL    HW2 2739   2.556   1.655   1.155  2.2340 -0.0996 -1.0438
  685SOL     MW 2740   2.574   1.717   1.213  0.1447 -0.3417  0.0968
  686SOL     OW 2741   2.920   0.698   1.483 -0.4303  0.6314  0.1573
  686SOL    HW1 2742   2.909   0.665   1.573 -1.2759 -1.5976  1.5181
  686SOL    HW2 2743   2.996   0.653   1.448 -0.3203 -1.5354 -2.4719
  686SOL     MW 2744   2.928   0.688   1.490 -0.5273  0.0515 -0.0100
  687SOL     OW 2745   2.163   0.317   1.196  0.3212  0.0409  0.5540
  687SOL    HW1 2746   2.139   0.279   1.112  1.5350  0.8806 -0.6094
  687SOL    HW2 2747   2.108   0.399   1.202  0.7001  2.0420 -0.3994
  687SOL     MW 2748   2.153   0.323   1.186  0.5314  0.4157  0.2747
  688SOL     OW 2749   2.333   0.564   1.415 -0.1253 -0.1456  0.0769
  688SOL    HW1 2750   2.360   0.493   1.473  0.8033  2.3279  0.7223
  688SOL    HW2 2751   2.328   0.507   1.337 -0.0516 -2.1390 -0.1356
  688SOL     MW 2752   2.336   0.547   1.412  0.0069 -0.0823  0.1340
  689SOL     OW 2753   2.570   0.767   2.992  0.4030  0.1692  0.1788
  689SOL    HW1 2754   2.603   0.840   2.939 -0.0213 -0.0973  1.1127
  689SOL    HW2 2755   2.567   0.799   3.088  0.4144  0.3278 -1.5142
  689SOL     MW 2756   2.574   0.781   2.998  0.3486  0.1550  0.0787
  690SOL     OW 2757   2.050   1.025   1.969 -0.0481  0.0002  0.1538
  690SOL    HW1 2758   2.022   0.934   2.000 -2.4817  0.8896  0.5224
  690SOL    HW2 2759   2.083   1.000   1.879 -0.1816 -1.4562 -2.8162
  690SOL     MW 2760   2.051   1.010   1.961 -0.3868 -0.0746 -0.1894
  691SOL     OW 2761   2.449   0.265   0.820  0.5106 -0.4454  0.0649
  691SOL    HW1 2762   2.524   0.310   0.864  0.7580 -1.5109  0.9188
  691SOL    HW2 2763   2.371   0.333   0.818 -1.0532  0.0218 -1.8427
  691SOL     MW 2764   2.448   0.280   0.826  0.3369 -0.5244 -0.0741
  692SOL     OW 2765   2.773   1.678   1.388  0.2864  0.5612 -0.6282
  692SOL    HW1 2766   2.729   1.635   1.465  0.6039 -0.7088 -0.7829
  692SOL    HW2 2767   2.837   1.749   1.417 -1.5210 -1.0692  1.2413
  692SOL     MW 2768   2.776   1.682   1.402  0.0898  0.1785 -0.4020
  693SOL     OW 2769   2.273   0.413   0.104 -0.3379  0.4792 -0.1063
  693SOL    HW1 2770   2.194   0.355   0.090  1.2951  2.3042  1.6808
  693SOL    HW2 2771   2.266   0.487   0.047 -1.6965 -2.6875  0.4172
  693SOL     MW 2772   2.262   0.415   0.095 -0.3017  0.3022  0.1986
  694SOL     OW 2773   1.989   1.288   1.183 -0.1255 -0.3265 -0.4818
  694SOL    HW1 2774   2.081   1.261   1.178 -0.4628  1.6717 -0.8216
  694SOL    HW2 2775   1.943   1.224   1.236 -2.5388  1.6090  0.0361
  694SOL     MW 2776   1.995   1.276   1.190 -0.4884  0.1925 -0.4583
  695SOL     OW 2777   2.968   1.488   1.318 -0.4221 -0.2891 -0.0849
  695SOL    HW1 2778   2.923   1.462   1.238 -3.0152 -1.5666 -1.9805
  695SOL    HW2 2779   2.898   1.535   1.365  1.6529  0.5336  0.8648
  695SOL     MW 2780   2.953   1.491   1.314 -0.4905 -0.3491 -0.2097
  696SOL     OW 2781   2.037   1.405   0.920  0.3681 -0.1332  0.1070
  696SOL    HW1 2782   2.102   1.464   0.964  0.6014  2.4308 -2.5170
  696SOL    HW2 2783   2.038   1.338   0.985 -0.9183 -1.5218 -0.7842
  696SOL     MW 2784   2.046   1.404   0.934  0.2292  0.0219 -0.3568
  697SOL     OW 2785   2.865   0.946   2.291 -0.3657  0.6798 -0.1779
  697SOL    HW1 2786   2.793   0.997   2.309 -0.5764 -0.2143  0.8636
  697SOL    HW2 2787   2.847   0.897   2.209 -0.4036 -0.5165 -1.4035
  697SOL     MW 2788   2.853   0.947   2.283 -0.3985  0.4040 -0.2022
  698SOL     OW 2789   2.534   0.358   0.010 -0.4187 -1.0167  0.4793
  698SOL    HW1 2790   2.452   0.375   0.057  2.1693  2.1229  0.9345
  698SOL    HW2 2791   2.581   0.293   0.067  2.1799 -3.2937 -1.4634
  698SOL     MW 2792   2.530   0.352   0.024  0.2656 -0.9029  0.2830
  699SOL     OW 2793   1.822   1.602   2.057  0.0028  0.2853  0.1942
  699SOL    HW1 2794   1.817   1.508   2.080 -0.3178  1.5866 -2.2123
  699SOL    HW2 2795   1.902   1.617   2.007 -0.1850  0.2802  0.0507
  699SOL     MW 2796   1.832   1.592   2.053 -0.0643  0.4564 -0.1423
  700SOL     OW 2797   2.730   0.903   1.513  0.2054  0.6009  0.3245
  700SOL    HW1 2798   2.708   0.977   1.460 -0.8181 -1.5779  1.0242
  700SOL    HW2 2799   2.808   0.863   1.476 -3.9504 -1.2924 -0.8662
  700SOL     MW 2800   2.738   0.907   1.501 -0.4780  0.0636  0.2597
  701SOL     OW 2801   1.683   1.282   2.619 -0.2178 -0.0955 -0.1135
  701SOL    HW1 2802   1.775   1.310   2.626 -1.7817  1.8482 -1.8595
  701SOL    HW2 2803   1.633   1.334   2.689  0.2151  0.6312 -2.0922
  701SOL     MW 2804   1.689   1.293   2.630 -0.3671  0.2568 -0.6050
  702SOL     OW 2805   2.242   0.447   0.814  0.6385 -0.3171 -0.1019
  702SOL    HW1 2806   2.207   0.360   0.775 -0.5182  0.8610  1.8353
  702SOL    HW2 2807   2.261   0.503   0.737 -1.2147  1.9057  1.1708
  702SOL     MW 2808   2.240   0.443   0.799  0.2414  0.1316  0.3216
  703SOL     OW 2809   2.656   1.287   0.989 -0.4704  0.3556 -0.5491
  703SOL    HW1 2810   2.652   1.256   0.898  0.9596  0.2759  1.4007
  703SOL    HW2 2811   2.683   1.207   1.037 -0.1929 -2.4828  0.0708
  703SOL     MW 2812   2.659   1.272   0.983 -0.2451 -0.0294 -0.2101
  704SOL     OW 2813   0.026   1.268   0.253 -0.3041  0.3449 -0.0840
  704SOL    HW1 2814  -0.065   1.254   0.234  0.4566  3.0263 -2.3874
  704SOL    HW2 2815   0.058   1.194   0.307  1.3998 -0.7535 -2.2357
  704SOL     MW 2816   0.018   1.257   0.258  0.0211  0.5537 -0.6718
  705SOL     OW 2817   2.156   1.604   1.310 -0.5206 -0.7347 -0.0487
  705SOL    HW1 2818   2.068   1.608   1.353  0.3070  0.4582 -2.1403
  705SOL    HW2 2819   2.195   1.519   1.339  1.9894  2.9278  1.6622
  705SOL     MW 2820   2.149   1.594   1.319 -0.0802 -0.0941 -0.0989
  706SOL     OW 2821   2.995   1.255   0.575 -0.0825 -0.0013  0.1201
  706SOL    HW1 2822   3.083   1.214   0.588 -2.1681 -1.4873  1.1958
  706SOL    HW2 2823   2.980   1.343   0.610 -2.6269 -2.9334 -0.1128
  706SOL     MW 2824   3.005   1.261   0.581 -0.6934 -0.5842  0.2313
  707SOL     OW 2825   2.386   0.089   1.033 -0.2315 -0.5036  0.1526
  707SOL    HW1 2826   2.405   0.159   0.974  0.4631 -2.6571 -0.6789
  707SOL    HW2 2827   2.292   0.088   1.017 -0.2912 -0.9118 -0.0119
  707SOL     MW 2828   2.376   0.098   1.023 -0.1477 -0.8416  0.0212
  708SOL     OW 2829   2.527   1.505   0.062 -0.2388 -0.3245  0.1731
  708SOL    HW1 2830   2.562   1.457   0.139 -1.9232  0.4397 -0.0229
  708SOL    HW2 2831   2.455   1.456   0.024 -0.7285 -0.3475 -1.9616
  708SOL     MW 2832   2.522   1.492   0.067 -0.5256 -0.2267 -0.1344
  709SOL     OW 2833   1.706   1.750   0.108 -0.6416  0.1574 -0.1742
  709SOL    HW1 2834   1.684   1.730   0.012 -1.4073 -1.0842  0.3149
  709SOL    HW2 2835   1.640   1.716   0.165  1.0885 -0.0774 -1.5697
  709SOL     MW 2836   1.694   1.743   0.103 -0.5144 -0.0374 -0.2938
  710SOL     OW 2837   2.235   1.164   1.196  0.2341  0.3882 -0.1932
  710SOL    HW1 2838   2.235   1.122   1.107  0.1724 -0.7531  3.1762
  710SOL    HW2 2839   2.243   1.078   1.253 -1.2681 -1.4750  2.0119
  710SOL     MW 2840   2.236   1.147   1.191  0.0278 -0.0082  0.5423
  711SOL     OW 2841   2.336   0.188   1.724  0.3844 -0.4225 -0.0874
  711SOL    HW1 2842   2.423   0.148   1.734 -1.4806 -0.9384 -4.8238
  711SOL    HW2 2843   2.282   0.124   1.671  0.5184 -2.8849  0.0548
  711SOL     MW 2844   2.340   0.174   1.718  0.1560 -0.8155 -0.6936
  712SOL     OW 2845   1.624   0.593   3.055 -0.3528 -0.3217 -0.0329
  712SOL    HW1 2846   1.681   0.642   2.989  0.1149 -1.8173  0.8536
  712SOL    HW2 2847   1.599   0.653   3.118  2.8072 -0.2799 -1.5787
  712SOL     MW 2848   1.628   0.607   3.055  0.1258 -0.5135 -0.1199
  713SOL     OW 2849   2.590   0.797   1.151 -0.1303 -0.1177 -0.2236
  713SOL    HW1 2850   2.615   0.701   1.153  1.1473  0.5109  2.7931
  713SOL    HW2 2851   2.542   0.805   1.236  0.8940 -0.9210  1.5154
  713SOL     MW 2852   2.587   0.785   1.162  0.1734 -0.1407  0.4038
  714SOL     OW 2853   2.275   0.175   1.996 -0.1283 -0.0775 -0.0192
  714SOL    HW1 2854   2.348   0.152   2.056  2.0959 -2.3679 -2.1845
  714SOL    HW2 2855   2.307   0.166   1.905 -0.8199 -1.6215  1.1428
  714SOL     MW 2856   2.289   0.171   1.992  0.0739 -0.5834 -0.1516
  715SOL     OW 2857   1.741   1.919   1.715  0.2697  0.1218 -0.0086
  715SOL    HW1 2858   1.823   1.908   1.667  1.6823  0.9998 -1.8512
  715SOL    HW2 2859   1.709   1.834   1.753 -1.4555 -0.1201  1.3063
  715SOL     MW 2860   1.748   1.907   1.714  0.2285  0.2057 -0.0782
  716SOL     OW 2861   2.321   0.688   0.644  0.4988 -1.0707 -0.0804
  716SOL    HW1 2862   2.359   0.708   0.559 -1.2561  0.2664  1.8592
  716SOL    HW2 2863   2.229   0.684   0.608  0.2183  1.5479  1.9208
  716SOL     MW 2864   2.314   0.690   0.628  0.2302 -0.5488  0.4395
  717SOL     OW 2865   2.823   1.442   2.931  0.1336 -0.1604  0.2044
  717SOL    HW1 2866   2.919   1.443   2.911  0.5726  0.1432  2.1245
  717SOL    HW2 2867   2.822   1.491   3.015 -1.3296  3.2177  0.3095
  717SOL     MW 2868   2.835   1.448   2.939 -0.0016  0.3254  0.4716
  718SOL     OW 2869   2.577   1.368   1.382 -1.0694 -0.9557  0.6550
  718SOL    HW1 2870   2.606   1.425   1.458 -1.2300 -0.2251  0.5417
  718SOL    HW2 2871   2.624   1.284   1.390 -1.1173 -0.2817  1.0973
  718SOL     MW 2872   2.587   1.364   1.393 -1.0969 -0.7704  0.6984
  719SOL     OW 2873   2.190   1.362   0.647 -0.5844  0.7931 -0.5571
  719SOL    HW1 2874   2.288   1.368   0.638  0.8555 -0.8856  2.6807
  719SOL    HW2 2875   2.162   1.396   0.731  2.5621  0.8855  0.9026
  719SOL     MW 2876   2.199   1.367   0.657  0.0207  0.5838  0.0627
  720SOL     OW 2877   2.886   1.218   0.153  0.0460  0.5549 -0.4652
  720SOL    HW1 2878   2.855   1.126   0.172 -0.0387 -1.6797 -0.5757
  720SOL    HW2 2879   2.803   1.276   0.186 -3.5781 -1.4887 -0.2186
  720SOL     MW 2880   2.871   1.213   0.160 -0.4433 -0.0095 -0.4472
  721SOL     OW 2881   2.473   0.808   1.404  0.2653 -0.3689  0.3009
  721SOL    HW1 2882   2.455   0.712   1.405  3.3067  2.0758  3.5504
  721SOL    HW2 2883   2.549   0.803   1.458 -1.2526 -0.1561 -1.7749
  721SOL     MW 2884   2.480   0.795   1.411  0.4663 -0.0183  0.4558
  722SOL     OW 2885   2.555   1.196   0.364  0.0218  0.8476  0.2736
  722SOL    HW1 2886   2.507   1.238   0.436 -0.1934 -1.6890  1.7930
  722SOL    HW2 2887   2.631   1.144   0.399 -0.6803  0.1722  1.1204
  722SOL     MW 2888   2.558   1.195   0.378 -0.0992  0.4238  0.5858
  723SOL     OW 2889   2.289   1.434   1.643  0.6346 -0.0843 -0.9230
  723SOL    HW1 2890   2.275   1.403   1.549  1.0414 -1.0314 -1.5456
  723SOL    HW2 2891   2.199   1.453   1.679  0.1839 -0.1008 -3.9476
  723SOL     MW 2892   2.275   1.433   1.635  0.6288 -0.2114 -1.4042
  724SOL     OW 2893   2.483   0.387   0.559 -0.4478 -0.0097 -0.1206
  724SOL    HW1 2894   2.475   0.340   0.644  0.8458  0.5172 -1.0144
  724SOL    HW2 2895   2.577   0.389   0.547 -2.2051  2.1394 -1.6596
  724SOL     MW 2896   2.495   0.381   0.569 -0.5089  0.3434 -0.4416
  725SOL     OW 2897   2.666   0.532   1.160 -0.1402  0.2814 -0.0652
  725SOL    HW1 2898   2.707   0.520   1.243 -1.4619 -2.7829 -1.4153
  725SOL    HW2 2899   2.572   0.511   1.191 -3.2871  2.5043 -0.0855
  725SOL     MW 2900   2.659   0.528   1.175 -0.7298  0.1704 -0.2460
  726SOL     OW 2901   2.575   2.406   0.505  0.5318  0.4144 -0.6450
  726SOL    HW1 2902   2.522   2.462   0.437 -2.1610 -1.0327  0.1743
  726SOL    HW2 2903   2.524   2.378   0.578  0.3924  3.4430  0.1262
  726SOL     MW 2904   2.561   2.410   0.505  0.1581  0.6231 -0.4352
  727SOL     OW 2905   2.809   0.301   1.639 -0.7498 -0.2977 -0.4329
  727SOL    HW1 2906   2.846   0.268   1.552 -1.4871 -0.7226 -0.8691
  727SOL    HW2 2907   2.722   0.330   1.616 -0.8858 -0.3702  0.6878
  727SOL     MW 2908   2.803   0.300   1.624 -0.8650 -0.3633 -0.3426
  728SOL     OW 2909   2.817   1.137   3.004 -0.5196 -0.1194  0.0648
  728SOL    HW1 2910   2.811   1.221   2.955 -3.6924 -0.6581  2.2985
  728SOL    HW2 2911   2.853   1.169   3.090 -0.1476  1.0967 -1.2460
  728SOL     MW 2912   2.821   1.152   3.009 -0.8891 -0.0300  0.1866
  729SOL     OW 2913   2.509   1.484   1.130  0.6405 -0.1201  0.6596
  729SOL    HW1 2914   2.526   1.467   1.223 -2.8949  2.1058 -1.9960
  729SOL    HW2 2915   2.551   1.413   1.082  3.4964 -0.7390 -2.7938
  729SOL     MW 2916   2.516   1.472   1.136  0.5508  0.0919 -0.1464
  730SOL     OW 2917   2.107   1.159   0.238  0.2072 -0.1340 -0.0574
  730SOL    HW1 2918   2.188   1.164   0.180  3.7806  0.1675 -1.3885
  730SOL    HW2 2919   2.072   1.252   0.236  0.5236  1.6541  0.7980
  730SOL     MW 2920   2.113   1.172   0.230  0.7205  0.1417 -0.1202
  731SOL     OW 2921   2.813   1.810   2.891  0.5422  0.1404  0.7685
  731SOL    HW1 2922   2.726   1.827   2.862  2.0502  0.4679 -0.9602
  731SOL    HW2 2923   2.844   1.902   2.882 -0.5584 -1.5791  0.4018
  731SOL     MW 2924   2.805   1.825   2.886  0.5960 -0.0433  0.4920
  732SOL     OW 2925   2.261   0.945   1.335 -0.5973 -0.0174  0.1150
  732SOL    HW1 2926   2.187   0.948   1.403 -0.4436 -0.7877  3.4285
  732SOL    HW2 2927   2.329   0.896   1.377  2.1560  1.4656  2.6367
  732SOL     MW 2928   2.260   0.939   1.349 -0.2137  0.0767  0.8849
  733SOL     OW 2929   2.368   2.886   3.028 -0.4216 -0.2625 -0.0196
  733SOL    HW1 2930   2.297   2.948   3.009 -0.7698  0.9449 -0.9963
  733SOL    HW2 2931   2.326   2.802   3.056  0.0764  0.6107  0.8319
  733SOL     MW 2932   2.353   2.883   3.029 -0.4019  0.0120 -0.0361
  734SOL     OW 2933   1.484   0.351   2.472 -0.3299  0.2445 -0.1014
  734SOL    HW1 2934   1.441   0.312   2.546  0.2415  1.5934 -0.8564
  734SOL    HW2 2935   1.522   0.296   2.400  3.7791 -2.6074  0.4168
  734SOL     MW 2936   1.483   0.338   2.472  0.2877  0.0462 -0.1326
  735SOL     OW 2937   3.055   0.865   2.672  0.8869  0.2473 -0.0735
  735SOL    HW1 2938   3.006   0.790   2.632  1.1580 -1.2141 -0.7468
  735SOL    HW2 2939   3.026   0.877   2.762  0.5287  0.1684  0.6287
  735SOL     MW 2940   3.045   0.857   2.679  0.8754  0.0441 -0.0696
  736SOL     OW 2941   0.031   0.601   2.484 -0.4315  0.1930  0.5175
  736SOL    HW1 2942   0.080   0.639   2.407 -0.3256 -0.1610 -0.7773
  736SOL    HW2 2943   0.030   0.501   2.477 -1.3407 -1.7828  0.2272
  736SOL     MW 2944   0.038   0.593   2.473 -0.5375 -0.1144  0.3084
  737SOL     OW 2945   2.884   0.701   2.532  0.2805 -0.0317 -0.4037
  737SOL    HW1 2946   2.825   0.651   2.475  0.9022  0.5968 -0.9736
  737SOL    HW2 2947   2.966   0.661   2.501 -2.3045 -2.5668 -0.4547
  737SOL     MW 2948   2.887   0.689   2.521  0.0215 -0.2832 -0.4856
  738SOL     OW 2949   0.178   0.427   1.948 -0.1898  0.3880  0.8453
  738SOL    HW1 2950   0.270   0.438   1.940 -0.4594  1.3734 -1.2347
  738SOL    HW2 2951   0.177   0.354   1.886  0.5861  0.9230  3.6159
  738SOL     MW 2952   0.190   0.419   1.939 -0.1230  0.5886  0.9364
  739SOL     OW 2953   2.561   0.981   2.113 -0.7450  0.1796 -0.3583
  739SOL    HW1 2954   2.469   0.965   2.110  0.2424  0.4344 -1.0831
  739SOL    HW2 2955   2.590   1.022   2.025  4.5256 -2.1902  0.2331
  739SOL     MW 2956   2.553   0.985   2.101  0.0807 -0.0995 -0.3759
  740SOL     OW 2957   0.225   1.683   2.949 -0.8343 -0.0045 -0.0710
  740SOL    HW1 2958   0.156   1.620   2.961  0.5228 -1.1163  0.8040
  740SOL    HW2 2959   0.297   1.641   2.996 -0.2107  1.3449  0.4893
  740SOL     MW 2960   0.225   1.669   2.957 -0.5730  0.0269  0.1184
  741SOL     OW 2961   2.193   1.220   2.754 -0.0888 -0.3348  0.2688
  741SOL    HW1 2962   2.239   1.305   2.745  0.0586  0.9787 -1.4447
  741SOL    HW2 2963   2.151   1.219   2.840 -1.1454 -2.5660 -2.5364
  741SOL     MW 2964   2.193   1.231   2.764 -0.2087 -0.4559 -0.3274
  742SOL     OW 2965   1.668   1.355   2.357  0.5188 -0.0990 -0.0787
  742SOL    HW1 2966   1.585   1.311   2.340 -0.5311  2.2816 -0.5401
  742SOL    HW2 2967   1.688   1.335   2.452 -0.5694 -3.8000  3.4005
  742SOL     MW 2968   1.659   1.347   2.368  0.2367 -0.2732  0.3195
  743SOL     OW 2969   2.530   1.223   2.708 -0.1818  0.1018  0.3615
  743SOL    HW1 2970   2.454   1.221   2.758  2.6700 -0.7596 -0.9049
  743SOL    HW2 2971   2.592   1.167   2.756  2.3150 -0.0422  0.0745
  743SOL     MW 2972   2.528   1.216   2.721  0.5239 -0.0308  0.1565
  744SOL     OW 2973   2.777   0.920   1.799 -0.2415  0.5804  0.1754
  744SOL    HW1 2974   2.709   0.980   1.825 -1.9583 -1.7892 -0.5481
  744SOL    HW2 2975   2.750   0.888   1.713  3.0663 -1.5104 -0.2101
  744SOL     MW 2976   2.765   0.924   1.791 -0.0316 -0.0081  0.0291
  745SOL     OW 2977   1.731   0.476   2.482  0.7262 -0.3845  0.2135
  745SOL    HW1 2978   1.738   0.512   2.390 -1.4603 -2.5971 -0.4820
  745SOL    HW2 2979   1.640   0.443   2.497 -1.4017 -0.6951 -0.3077
  745SOL     MW 2980   1.720   0.476   2.472  0.1570 -0.7174  0.0529
  746SOL     OW 2981   1.584   1.507   1.694  0.0399  0.3001 -0.1779
  746SOL    HW1 2982   1.637   1.580   1.727 -1.0394 -0.0510  0.4153
  746SOL    HW2 2983   1.574   1.459   1.781 -0.5703  0.7594  1.1331
  746SOL     MW 2984   1.590   1.510   1.710 -0.1830  0.3144  0.0734
  747SOL     OW 2985   2.593   1.119   1.882  0.0122 -0.3957 -0.2135
  747SOL    HW1 2986   2.502   1.121   1.841 -2.4467  1.3407 -4.1265
  747SOL    HW2 2987   2.587   1.204   1.931 -3.7570  0.4040  0.1298
  747SOL     MW 2988   2.580   1.130   1.883 -0.8096 -0.0611 -0.6845
  748SOL     OW 2989   0.093   3.084   1.928 -0.1373 -0.4386 -0.4810
  748SOL    HW1 2990   0.183   3.088   1.899 -0.9192  0.5116  0.8821
  748SOL    HW2 2991   0.069   3.151   1.993 -0.0135  1.3691 -0.7697
  748SOL     MW 2992   0.102   3.093   1.933 -0.2242 -0.0747 -0.3393
  749SOL     OW 2993   2.413   0.657   2.769 -0.0650 -0.0794  0.1571
  749SOL    HW1 2994   2.432   0.731   2.701  0.2794  2.1257  0.6555
  749SOL    HW2 2995   2.459   0.685   2.849 -2.8209 -1.4289 -2.0072
  749SOL     MW 2996   2.421   0.670   2.771 -0.3832  0.0335 -0.0627
  750SOL     OW 2997   2.138   3.037   1.980 -0.4073 -0.0821 -0.4231
  750SOL    HW1 2998   2.180   3.128   1.993  1.2176 -1.5423 -0.6154
  750SOL    HW2 2999   2.216   2.975   1.975  1.2750 -2.8344  0.3425
  750SOL     MW 3000   2.154   3.041   1.981  0.0291 -0.6379 -0.3475
  751SOL     OW 3001   3.054   0.337   2.460 -0.0638  0.0447  0.0182
  751SOL    HW1 3002   2.986   0.333   2.392 -2.1482 -0.6074 -2.4102
  751SOL    HW2 3003   3.135   0.318   2.414 -2.2762  0.9826  1.1919
  751SOL     MW 3004   3.056   0.334   2.445 -0.6308  0.0824 -0.1474
  752SOL     OW 3005   2.144   0.925   2.766 -0.0298 -0.1803 -0.1568
  752SOL    HW1 3006   2.216   0.967   2.816 -0.2138  1.7843  0.2546
  752SOL    HW2 3007   2.094   0.886   2.839  0.9195  0.9222  1.9946
  752SOL     MW 3008   2.147   0.926   2.782  0.0712  0.2244  0.1813
  753SOL     OW 3009   2.857   0.325   2.268 -0.6058  0.5620 -0.0442
  753SOL    HW1 3010   2.794   0.251   2.261 -3.3372  0.0191 -1.0328
  753SOL    HW2 3011   2.803   0.396   2.306 -0.7634  0.9944 -1.0337
  753SOL     MW 3012   2.842   0.324   2.272 -0.9870  0.5474 -0.3052
  754SOL     OW 3013   2.281   2.975   2.602  0.4124 -0.5751  0.3067
  754SOL    HW1 3014   2.294   2.949   2.507  1.5001 -1.6809 -0.3505
  754SOL    HW2 3015   2.357   2.951   2.661 -0.4358 -0.7248  1.5284
  754SOL     MW 3016   2.293   2.969   2.597  0.4440 -0.7407  0.3812
  755SOL     OW 3017   2.758   1.626   2.442  0.1386 -0.6269  0.4441
  755SOL    HW1 3018   2.731   1.535   2.442 -0.0886  1.5961  0.2693
  755SOL    HW2 3019   2.810   1.637   2.523  1.4204 -0.6054  2.0640
  755SOL     MW 3020   2.761   1.615   2.453  0.2777 -0.3308  0.6348
  756SOL     OW 3021   2.161   1.248   3.028 -0.1221  0.2843  0.0330
  756SOL    HW1 3022   2.227   1.305   2.986 -0.0632 -1.9176  2.3985
  756SOL    HW2 3023   2.225   1.183   3.049  0.6303  1.8609  0.5711
  756SOL     MW 3024   2.178   1.247   3.025 -0.0150  0.2018  0.4161
  757SOL     OW 3025   2.172   0.942   1.747  0.4344 -0.4078 -0.4095
  757SOL    HW1 3026   2.179   0.843   1.738 -2.0525  0.7730 -2.5564
  757SOL    HW2 3027   2.124   0.962   1.663 -1.1522 -0.7745 -1.4991
  757SOL     MW 3028   2.166   0.931   1.735 -0.1031 -0.3004 -0.8365
  758SOL     OW 3029   2.252   1.865   2.624 -0.2720  0.6417  0.0073
  758SOL    HW1 3030   2.248   1.868   2.530 -2.0133 -0.9338 -2.1744
  758SOL    HW2 3031   2.318   1.798   2.653  0.2466  0.0432 -0.9179
  758SOL     MW 3032   2.260   1.856   2.615 -0.4333  0.3549 -0.4026
  759SOL     OW 3033   1.530   1.429   2.796 -0.4451 -0.0213 -0.1167
  759SOL    HW1 3034   1.540   1.496   2.722  0.2655 -1.0186 -0.0499
  759SOL    HW2 3035   1.595   1.458   2.855  0.8147  0.6338  0.0729
  759SOL     MW 3036   1.540   1.442   2.794 -0.1851 -0.0664 -0.0828
  760SOL     OW 3037   2.602   1.945   2.718 -0.1775  0.9661  0.1208
  760SOL    HW1 3038   2.560   1.882   2.661 -0.8257  0.4871  0.8208
  760SOL    HW2 3039   2.689   1.946   2.681  0.4574  0.5693 -0.4021
  760SOL     MW 3040   2.608   1.937   2.706 -0.1793  0.8506  0.1442
  761SOL     OW 3041   2.198   0.488   2.454 -0.3360  0.1872 -0.1895
  761SOL    HW1 3042   2.115   0.441   2.431 -0.4607 -1.2980  0.2821
  761SOL    HW2 3043   2.173   0.564   2.507 -5.0866 -2.0669  3.9046
  761SOL     MW 3044   2.184   0.492   2.458 -0.9793 -0.3062  0.4129
  762SOL     OW 3045   0.020   0.185   2.139  0.0568  0.1080  0.2627
  762SOL    HW1 3046   0.001   0.141   2.222  0.1074 -1.2291 -0.3119
  762SOL    HW2 3047  -0.042   0.257   2.134 -1.2749 -0.7267  0.0894
  762SOL     MW 3048   0.010   0.188   2.149 -0.1122 -0.1785  0.1640
  763SOL     OW 3049   2.477   1.195   2.345 -0.2358 -0.1157 -0.5376
  763SOL    HW1 3050   2.534   1.151   2.291  1.6079 -1.3599  1.3649
  763SOL    HW2 3051   2.542   1.259   2.382 -0.0177 -0.6262 -1.1033
  763SOL     MW 3052   2.493   1.198   2.342  0.0362 -0.3472 -0.3612
  764SOL     OW 3053   0.389   0.107   2.806 -0.3531  0.6267 -1.0300
  764SOL    HW1 3054   0.343   0.178   2.766  1.8693 -1.8880  1.2783
  764SOL    HW2 3055   0.414   0.146   2.890  0.7413 -0.3006  0.0259
  764SOL     MW 3056   0.386   0.122   2.812  0.0846  0.1725 -0.5861
  765SOL     OW 3057   2.704   0.114   2.289 -0.2631  0.8178 -0.1333
  765SOL    HW1 3058   2.694   0.084   2.196 -2.6969  1.4041 -0.2010
  765SOL    HW2 3059   2.756   0.042   2.328  1.4444 -0.8359  1.4784
  765SOL     MW 3060   2.709   0.100   2.282 -0.3589  0.6769  0.0704
  766SOL     OW 3061   1.934   3.063   2.171 -0.1352  0.4761 -0.2776
  766SOL    HW1 3062   2.016   3.063   2.117  1.4074  3.6000 -0.9005
  766SOL    HW2 3063   1.870   3.028   2.114 -0.5142 -0.8099  1.1935
  766SOL     MW 3064   1.936   3.058   2.156  0.0184  0.7186 -0.1657
  767SOL     OW 3065   2.675   0.637   1.917 -0.5627 -0.3815  0.4185
  767SOL    HW1 3066   2.726   0.714   1.939  0.5523  0.6334  0.5654
  767SOL    HW2 3067   2.591   0.672   1.882 -0.1249  1.5890  0.8399
  767SOL     MW 3068   2.671   0.652   1.915 -0.3578  0.0124  0.4935
  768SOL     OW 3069   3.091   1.494   2.978 -0.0439  0.2859  0.6075
  768SOL    HW1 3070   3.115   1.539   3.060 -0.0467 -1.2153 -1.7429
  768SOL    HW2 3071   3.113   1.405   3.000  0.3339 -1.0609  1.1768
  768SOL     MW 3072   3.097   1.489   2.991  0.0056 -0.0899  0.3725
  769SOL     OW 3073   2.340   0.700   2.339 -0.0613 -0.7708  0.5460
  769SOL    HW1 3074   2.292   0.616   2.332 -2.1565 -1.8981  1.5847
  769SOL    HW2 3075   2.429   0.698   2.307 -0.1605  0.1873  0.2609
  769SOL     MW 3076   2.345   0.688   2.334 -0.3509 -0.7931  0.6454
  770SOL     OW 3077   0.051   1.588   2.627  0.2582  0.8252 -0.4508
  770SOL    HW1 3078  -0.045   1.591   2.636  1.1268  2.3268  1.6414
  770SOL    HW2 3079   0.095   1.513   2.673  0.4464 -0.4694 -0.4813
  770SOL     MW 3080   0.044   1.578   2.634  0.3977  0.8525 -0.1788
  771SOL     OW 3081   3.074   0.605   1.964  0.1976 -0.1366  0.0189
  771SOL    HW1 3082   3.042   0.591   1.879 -2.5577  3.3382 -1.1279
  771SOL    HW2 3083   3.143   0.545   1.972 -1.8858 -0.1184 -0.4466
  771SOL     MW 3084   3.079   0.595   1.954 -0.4408  0.3242 -0.1938
  772SOL     OW 3085   0.015   3.105   2.339  0.5470  0.3611 -0.1358
  772SOL    HW1 3086  -0.064   3.089   2.390  3.5612 -0.8803 -0.0634
  772SOL    HW2 3087   0.051   3.021   2.306 -1.7936  0.4397  1.1223
  772SOL     MW 3088   0.009   3.092   2.341  0.6359  0.2077  0.0397
  773SOL     OW 3089   2.479   2.911   2.775  0.1105 -0.4940  0.7164
  773SOL    HW1 3090   2.523   2.827   2.771  1.9852  1.4802 -2.2076
  773SOL    HW2 3091   2.439   2.912   2.869 -1.8431 -3.8796  3.5997
  773SOL     MW 3092   2.479   2.900   2.787  0.1001 -0.6802  0.7110
  774SOL     OW 3093   2.357   1.139   1.738  0.2856 -0.0633  0.6800
  774SOL    HW1 3094   2.320   1.204   1.677  0.4416 -1.8990  0.0060
  774SOL    HW2 3095   2.284   1.066   1.741  0.0080  0.0055 -1.5059
  774SOL     MW 3096   2.342   1.138   1.731  0.2696 -0.2964  0.3026
  775SOL     OW 3097   2.298   2.887   2.349  0.1263  0.5341 -0.6091
  775SOL    HW1 3098   2.301   2.964   2.291  1.6866 -0.7050  0.4846
  775SOL    HW2 3099   2.382   2.845   2.325  0.7690  0.4823  2.2020
  775SOL     MW 3100   2.309   2.891   2.338  0.4169  0.3638 -0.0939
  776SOL     OW 3101   0.126   1.503   0.125 -0.1191  0.4355 -0.2485
  776SOL    HW1 3102   0.210   1.458   0.106 -0.8424 -0.1224 -1.0359
  776SOL    HW2 3103   0.070   1.434   0.159 -0.8339 -0.2607 -0.2631
  776SOL     MW 3104   0.130   1.488   0.127 -0.3088  0.2700 -0.3543
  777SOL     OW 3105   2.948   1.132   1.761  0.0300 -0.4530 -0.0622
  777SOL    HW1 3106   2.897   1.180   1.701  1.3698 -4.6951 -0.7060
  777SOL    HW2 3107   2.891   1.051   1.777 -0.0474 -3.3676  0.7183
  777SOL     MW 3108   2.934   1.127   1.755  0.1965 -1.3973 -0.0442
  778SOL     OW 3109   2.895   0.479   2.745 -0.5009 -0.5431 -0.0299
  778SOL    HW1 3110   2.837   0.523   2.809 -3.4239 -1.7007 -0.3284
  778SOL    HW2 3111   2.915   0.542   2.675  2.1222  0.5443  2.0634
  778SOL     MW 3112   2.890   0.493   2.744 -0.5404 -0.5524  0.2069
  779SOL     OW 3113   2.251   0.407   2.111  0.3462  0.1065 -0.1691
  779SOL    HW1 3114   2.232   0.385   2.198 -2.8094  0.8422  1.0069
  779SOL    HW2 3115   2.221   0.337   2.055  0.0705  1.0901  0.8562
  779SOL     MW 3116   2.245   0.395   2.115 -0.1065  0.3333  0.1213
  780SOL     OW 3117   0.155   0.241   2.696 -0.2764 -0.0250 -0.1413
  780SOL    HW1 3118   0.079   0.187   2.734 -0.9814 -1.7469  0.8644
  780SOL    HW2 3119   0.163   0.329   2.739  0.1807  1.4092  1.1802
  780SOL     MW 3120   0.146   0.245   2.707 -0.3091 -0.0630  0.1657
  781SOL     OW 3121   3.067   1.305   2.477 -0.0388  0.7161  0.8327
  781SOL    HW1 3122   3.035   1.361   2.406 -1.6245 -0.6765 -2.3084
  781SOL    HW2 3123   3.090   1.222   2.429  0.3877  0.5447 -0.5882
  781SOL     MW 3124   3.066   1.302   2.461 -0.1918  0.5098  0.2308
  782SOL     OW 3125   0.695   1.500   0.087 -0.2522 -0.0553  0.2338
  782SOL    HW1 3126   0.613   1.546   0.074 -2.7038 -3.6111  0.1918
  782SOL    HW2 3127   0.700   1.514   0.179 -0.0817  0.7373 -0.8384
  782SOL     MW 3128   0.685   1.507   0.098 -0.5531 -0.4198  0.0868
  783SOL     OW 3129   2.712   0.515   2.392  0.4309  1.0335  0.0973
  783SOL    HW1 3130   2.673   0.581   2.335  0.7116  0.8172 -0.8665
  783SOL    HW2 3131   2.647   0.500   2.467  1.3136 -3.1552  0.4698
  783SOL     MW 3132   2.698   0.522   2.394  0.5844  0.4523  0.0193
  784SOL     OW 3133   0.206   0.831   2.860 -0.0887  0.6613  0.1681
  784SOL    HW1 3134   0.115   0.861   2.859 -2.3701  1.2562 -2.7230
  784SOL    HW2 3135   0.237   0.869   2.781 -1.4300  0.1000  1.1554
  784SOL     MW 3136   0.198   0.840   2.850 -0.5667  0.6658 -0.0831
  785SOL     OW 3137   0.417   0.389   2.185  0.6095  0.1888  0.1409
  785SOL    HW1 3138   0.424   0.417   2.091  1.8136 -2.6789 -0.7197
  785SOL    HW2 3139   0.325   0.369   2.209 -0.9536  3.3805 -1.1392
  785SOL     MW 3140   0.406   0.390   2.176  0.5621  0.2315 -0.1416
  786SOL     OW 3141   1.886   0.432   0.008  0.2009 -0.1516 -0.3445
  786SOL    HW1 3142   1.812   0.452   0.060  2.0653 -0.6289 -2.3439
  786SOL    HW2 3143   1.853   0.433  -0.077  1.5075 -1.5932  1.0186
  786SOL     MW 3144   1.872   0.435   0.004  0.6193 -0.4048 -0.4284
  787SOL     OW 3145   2.464   0.171   2.932  0.2830 -0.2095  0.4041
  787SOL    HW1 3146   2.533   0.113   2.917  1.5421 -0.4232 -0.9630
  787SOL    HW2 3147   2.493   0.252   2.986 -0.4843  0.9895  2.9660
  787SOL     MW 3148   2.477   0.174   2.937  0.3479 -0.0795  0.5618
  788SOL     OW 3149   2.862   2.993   2.426 -0.5554 -0.1698 -0.3104
  788SOL    HW1 3150   2.864   2.948   2.510 -0.6384 -1.9158 -0.1404
  788SOL    HW2 3151   2.886   2.930   2.356  2.8537 -0.3556 -0.3912
  788SOL     MW 3152   2.866   2.979   2.428 -0.1166 -0.4247 -0.2986
  789SOL     OW 3153   0.115   0.165   3.097 -0.4522  0.1321 -0.5921
  789SOL    HW1 3154   0.057   0.093   3.104  3.2604 -1.4173  1.0109
  789SOL    HW2 3155   0.062   0.226   3.045  0.7148  1.2249  0.2979
  789SOL     MW 3156   0.100   0.164   3.091  0.1916  0.0718 -0.2632
  790SOL     OW 3157   3.097   1.041   2.435  1.0427  0.3839 -0.7083
  790SOL    HW1 3158   3.088   0.978   2.506 -1.1651  0.2580 -1.8533
  790SOL    HW2 3159   3.035   1.002   2.364 -1.4858 -1.8029 -1.0598
  790SOL     MW 3160   3.088   1.027   2.435  0.4178  0.0787 -0.9058
  791SOL     OW 3161   2.538   0.470   2.600 -0.4834  0.5994  0.0439
  791SOL    HW1 3162   2.480   0.526   2.653  2.7854 -1.2151  1.9909
  791SOL    HW2 3163   2.564   0.388   2.649 -2.0665  0.9395  1.6024
  791SOL     MW 3164   2.534   0.466   2.614 -0.2610  0.4049  0.5064
  792SOL     OW 3165   2.403   0.202   2.459 -0.8954  0.5640 -0.5263
  792SOL    HW1 3166   2.370   0.289   2.431 -1.4646 -0.6865 -1.2245
  792SOL    HW2 3167   2.363   0.180   2.543 -1.7931  0.6646  1.0600
  792SOL     MW 3168   2.393   0.211   2.466 -1.0889  0.4123 -0.4092
  793SOL     OW 3169   1.790   1.092   2.012  0.6926 -0.2139  0.0859
  793SOL    HW1 3170   1.744   1.090   1.921 -1.3209 -0.6364  1.5598
  793SOL    HW2 3171   1.883   1.086   1.982  1.7510 -1.9935 -0.2062
  793SOL     MW 3172   1.796   1.091   1.996  0.5666 -0.5044  0.2418
  794SOL     OW 3173   1.376   2.322   0.105  0.2338  0.0175  0.0006
  794SOL    HW1 3174   1.416   2.388   0.053 -3.7445 -2.8856  1.3129
  794SOL    HW2 3175   1.408   2.331   0.197 -1.8947  2.0560  3.0788
  794SOL     MW 3176   1.385   2.332   0.111 -0.5719 -0.0965  0.5799
  795SOL     OW 3177   2.304   1.067   2.535 -0.1055 -0.3367 -0.0908
  795SOL    HW1 3178   2.262   1.112   2.610 -0.1992  0.5806 -1.1242
  795SOL    HW2 3179   2.375   1.116   2.495  0.7876 -3.2406  2.6051
  795SOL     MW 3180   2.308   1.079   2.539 -0.0000 -0.5988  0.1285
  796SOL     OW 3181   0.248   0.612   2.699 -0.1596 -0.1489 -0.5671
  796SOL    HW1 3182   0.209   0.671   2.765 -2.0327 -0.3335 -0.0793
  796SOL    HW2 3183   0.188   0.609   2.626 -0.4378 -0.4922  0.0473
  796SOL     MW 3184   0.235   0.619   2.698 -0.4434 -0.2186 -0.4217
  797SOL     OW 3185   2.638   0.181   2.599 -0.1955 -0.3806 -0.2950
  797SOL    HW1 3186   2.563   0.189   2.548 -4.0808 -2.8934  0.8124
  797SOL    HW2 3187   2.716   0.179   2.546  0.1962  1.3569  0.7916
  797SOL     MW 3188   2.639   0.182   2.585 -0.6565 -0.4829 -0.0055
  798SOL     OW 3189   2.362   0.053   2.229  0.1456  0.4309 -0.5216
  798SOL    HW1 3190   2.354   0.109   2.310  2.1418  0.4694  0.1077
  798SOL    HW2 3191   2.452   0.029   2.219 -2.0006 -1.5155 -0.9221
  798SOL     MW 3192   2.373   0.058   2.238  0.1258  0.1792 -0.4914
  799SOL     OW 3193   2.550   2.975   0.119  0.0596 -0.0377  0.1939
  799SOL    HW1 3194   2.475   2.973   0.062 -2.4242  0.3338  1.5039
  799SOL    HW2 3195   2.516   2.974   0.206  0.2431  1.6393 -0.6213
  799SOL     MW 3196   2.535   2.975   0.123 -0.2439  0.2325  0.2592
  800SOL     OW 3197   1.929   3.061   1.760  0.0109  0.2846  0.3944
  800SOL    HW1 3198   1.856   3.005   1.733  0.6122  0.0512  0.1891
  800SOL    HW2 3199   1.973   3.025   1.841 -1.0471 -0.0224 -1.5842
  800SOL     MW 3200   1.925   3.049   1.767 -0.0494  0.2133  0.1063
  801SOL     OW 3201   2.846   1.222   2.620 -0.4072  0.0736  0.2708
  801SOL    HW1 3202   2.846   1.132   2.598  1.7668  0.3620 -1.5598
  801SOL    HW2 3203   2.929   1.250   2.580 -1.1438 -0.6846 -0.0060
  801SOL     MW 3204   2.857   1.214   2.612 -0.2175  0.0116 -0.0072
  802SOL     OW 3205   2.597   1.481   2.775 -0.4314 -0.1567 -0.4854
  802SOL    HW1 3206   2.580   1.389   2.751 -0.2709 -3.9407  0.8898
  802SOL    HW2 3207   2.680   1.460   2.827  1.5289  1.2470  0.8759
  802SOL     MW 3208   2.606   1.466   2.779 -0.1516 -0.4708 -0.1243
  803SOL     OW 3209   2.277   1.385   2.003 -0.2866 -0.0213  0.2332
  803SOL    HW1 3210   2.258   1.377   2.096  0.2958 -1.1076 -0.4569
  803SOL    HW2 3211   2.253   1.303   1.965 -0.9037 -0.8910  0.6768
  803SOL     MW 3212   2.271   1.373   2.010 -0.2912 -0.2793  0.2007
  804SOL     OW 3213   2.297   0.098   0.028 -0.0331 -0.4889 -0.1269
  804SOL    HW1 3214   2.213   0.154   0.039  0.9593  1.5852  0.3429
  804SOL    HW2 3215   2.354   0.139  -0.049 -1.5193  0.1573 -0.7425
  804SOL     MW 3216   2.293   0.111   0.019 -0.0983 -0.1300 -0.1462
  805SOL     OW 3217   2.708   0.879   2.649  0.7157  0.4475 -0.1597
  805SOL    HW1 3218   2.617   0.861   2.615  1.3118  0.1705  0.2473
  805SOL    HW2 3219   2.762   0.813   2.611  1.2695  1.6453  3.4221
  805SOL     MW 3220   2.703   0.868   2.640  0.8674  0.5690  0.3666
  806SOL     OW 3221   2.590   0.698   2.239 -0.5089 -0.3138 -0.2945
  806SOL    HW1 3222   2.587   0.674   2.148 -0.7373 -1.2342  0.1695
  806SOL    HW2 3223   2.612   0.788   2.225  0.1709 -1.1044 -3.6136
  806SOL     MW 3224   2.593   0.707   2.225 -0.4493 -0.5395 -0.6712
  807SOL     OW 3225   0.068   1.101   2.067  0.6313 -0.6085  0.1139
  807SOL    HW1 3226   0.111   1.011   2.068 -2.8337  0.1196  0.3841
  807SOL    HW2 3227  -0.016   1.093   2.025 -1.0831  0.2956 -2.2502
  807SOL     MW 3228   0.062   1.088   2.062 -0.0521 -0.3931 -0.1624
  808SOL     OW 3229   2.651   0.023   2.815 -0.0851 -0.8372 -0.0980
  808SOL    HW1 3230   2.596  -0.048   2.777  2.6946 -2.4819  1.0848
  808SOL    HW2 3231   2.666   0.077   2.731  0.7465 -0.5553 -2.5013
  808SOL     MW 3232   2.646   0.021   2.799  0.3913 -1.0170 -0.2590
  809SOL     OW 3233   2.688   1.352   2.397  0.0530  0.3015 -0.7285
  809SOL    HW1 3234   2.741   1.323   2.472  1.0555 -0.2363 -2.4128
  809SOL    HW2 3235   2.746   1.326   2.325  0.1914 -1.2599  1.7711
  809SOL     MW 3236   2.703   1.345   2.397  0.2035  0.0245 -0.6209
  810SOL     OW 3237   2.228   1.347   2.296  0.1312 -0.1139  0.3583
  810SOL    HW1 3238   2.298   1.282   2.309 -0.1546  2.0122  1.9515
  810SOL    HW2 3239   2.162   1.322   2.359 -0.0727 -1.6984 -0.1358
  810SOL     MW 3240   2.229   1.335   2.306  0.0666 -0.0425  0.5033
  811SOL     OW 3241   1.590   0.162   2.299 -0.4464 -0.1359 -0.4029
  811SOL    HW1 3242   1.678   0.127   2.321  0.9583  0.7575  2.5677
  811SOL    HW2 3243   1.585   0.160   2.206  1.3969 -2.4871  1.0595
  811SOL     MW 3244   1.601   0.157   2.290 -0.0179 -0.3282  0.1820
  812SOL     OW 3245   1.459   2.861   2.046  0.1483 -0.5411 -0.3037
  812SOL    HW1 3246   1.555   2.865   2.043  0.0397 -1.5296 -1.5514
  812SOL    HW2 3247   1.438   2.829   2.134 -0.2221 -1.2434 -0.1928
  812SOL     MW 3248   1.468   2.857   2.057  0.0851 -0.7641 -0.4537
  813SOL     OW 3249   2.029   0.614   2.244  0.2815 -0.0946  0.2780
  813SOL    HW1 3250   1.946   0.582   2.223  2.2113  0.7923  1.5057
  813SOL    HW2 3251   2.014   0.684   2.298 -1.6777 -1.1003  0.1390
  813SOL     MW 3252   2.016   0.619   2.248  0.2776 -0.1102  0.4216
  814SOL     OW 3253   2.696   1.224   1.638  0.0059 -0.0381  0.4965
  814SOL    HW1 3254   2.642   1.200   1.717  0.0295  1.2610  1.0853
  814SOL    HW2 3255   2.659   1.182   1.559  2.2643 -0.0504  0.9977
  814SOL     MW 3256   2.684   1.215   1.638  0.3070  0.1317  0.6403
  815SOL     OW 3257   2.547   1.770   2.409 -0.0662  0.1405  0.2425
  815SOL    HW1 3258   2.496   1.703   2.353 -0.0092 -3.3185 -1.8104
  815SOL    HW2 3259   2.635   1.727   2.418  0.9258  0.1677  0.4764
  815SOL     MW 3260   2.552   1.755   2.402  0.0722 -0.3123  0.0025
  816SOL     OW 3261   0.753   0.707   2.779 -0.0597 -0.1612  0.1624
  816SOL    HW1 3262   0.757   0.605   2.780  0.6559  3.3894  2.5205
  816SOL    HW2 3263   0.656   0.744   2.768 -1.2253  1.0395  1.7061
  816SOL     MW 3264   0.741   0.698   2.778 -0.1191  0.4657  0.6772
  817SOL     OW 3265   2.971   1.234   1.455  0.3375 -0.3347  0.3040
  817SOL    HW1 3266   3.064   1.224   1.480 -1.0510  1.2843 -0.7782
  817SOL    HW2 3267   2.965   1.320   1.402 -1.0124  1.2868 -1.4665
  817SOL     MW 3268   2.982   1.244   1.451 -0.0238  0.0929 -0.0724
  818SOL     OW 3269   1.897   1.058   2.632  0.0683 -0.2424  0.1688
  818SOL    HW1 3270   1.873   1.056   2.543 -1.7766  0.3268 -1.6053
  818SOL    HW2 3271   1.972   0.990   2.647 -0.1717 -0.0703  2.9811
  818SOL     MW 3272   1.904   1.049   2.622 -0.2068 -0.1446  0.3058
  819SOL     OW 3273   1.970   0.329   2.488  0.0650  0.1657  0.4571
  819SOL    HW1 3274   1.891   0.381   2.509 -0.3835 -2.0299 -2.4788
  819SOL    HW2 3275   2.031   0.324   2.561  0.3310 -1.2658 -0.8132
  819SOL     MW 3276   1.968   0.335   2.500  0.0409 -0.3129 -0.0979
  820SOL     OW 3277   2.457   1.675   2.648  0.0599 -0.5402 -0.6993
  820SOL    HW1 3278   2.518   1.618   2.699 -1.0459 -0.5554  0.4135
  820SOL    HW2 3279   2.495   1.687   2.559 -1.8232 -0.4769 -0.7882
  820SOL     MW 3280   2.470   1.669   2.643 -0.3344 -0.5339 -0.5642
  821SOL     OW 3281   2.578   1.372   1.986 -0.1669 -0.0453 -0.2459
  821SOL    HW1 3282   2.599   1.459   1.949 -0.8449 -1.4577  2.4701
  821SOL    HW2 3283   2.486   1.377   2.001  1.5890  2.1984  0.5789
  821SOL     MW 3284   2.568   1.384   1.983 -0.0247  0.0644  0.2213
  822SOL     OW 3285   2.906   2.744   1.474 -0.3869  0.1728 -0.1634
  822SOL    HW1 3286   2.939   2.733   1.559  0.2292 -1.3462 -1.4402
  822SOL    HW2 3287   2.914   2.833   1.456  0.0361 -1.5987 -0.1602
  822SOL     MW 3288   2.912   2.754   1.483 -0.2498 -0.2614 -0.3315
  823SOL     OW 3289   2.370   0.508   1.859  0.1596  0.6061 -0.2965
  823SOL    HW1 3290   2.409   0.433   1.826 -0.8053  0.7232  0.3167
  823SOL    HW2 3291   2.368   0.486   1.949  1.2884  0.4205 -1.0429
  823SOL     MW 3292   2.375   0.495   1.866  0.1812  0.5971 -0.3141
  824SOL     OW 3293   2.271   1.469   2.672  0.2863  0.0969 -0.0122
  824SOL    HW1 3294   2.351   1.522   2.660 -0.1736 -0.5828 -2.1050
  824SOL    HW2 3295   2.200   1.536   2.666  0.6327 -0.8604 -1.1700
  824SOL     MW 3296   2.272   1.485   2.670  0.2713 -0.1191 -0.4411
  825SOL     OW 3297   1.873   2.575   0.253  0.5556 -0.7958  0.2149
  825SOL    HW1 3298   1.843   2.503   0.315 -0.6311 -2.0899  3.3113
  825SOL    HW2 3299   1.941   2.537   0.198  0.8057  2.2719 -0.2288
  825SOL     MW 3300   1.878   2.560   0.254  0.4320 -0.5618  0.5649
  826SOL     OW 3301   1.796   2.376   0.435 -0.1721  0.2775 -0.1256
  826SOL    HW1 3302   1.778   2.284   0.470  1.8963 -1.7555 -1.1229
  826SOL    HW2 3303   1.749   2.430   0.501 -0.7826  3.7947 -3.1459
  826SOL     MW 3304   1.788   2.371   0.448  0.0203  0.4733 -0.6557
  827SOL     OW 3305   1.895   2.212   0.803  0.0734 -0.4203  0.1524
  827SOL    HW1 3306   1.832   2.226   0.732 -1.0260 -0.9610 -0.3971
  827SOL    HW2 3307   1.871   2.134   0.847 -2.5096  1.4907 -3.4200
  827SOL     MW 3308   1.884   2.204   0.799 -0.4125 -0.2395 -0.3915
  828SOL     OW 3309   0.048   2.619   0.572  0.2021 -0.3378 -0.1448
  828SOL    HW1 3310   0.146   2.616   0.580 -1.3645  1.4215 -0.6688
  828SOL    HW2 3311   0.035   2.654   0.484  0.9964 -2.2247 -0.5490
  828SOL     MW 3312   0.060   2.623   0.562  0.1002 -0.3546 -0.2673
  829SOL     OW 3313   2.984   2.932   1.197  0.1041  0.0897 -0.0537
  829SOL    HW1 3314   2.928   2.930   1.117  4.3662  0.3866  0.0209
  829SOL    HW2 3315   3.034   2.848   1.192  1.9837 -0.2845 -0.3069
  829SOL     MW 3316   2.983   2.921   1.185  0.9144  0.0795 -0.0772
  830SOL     OW 3317   2.568   2.817   2.028  0.3579 -0.4281  0.0310
  830SOL    HW1 3318   2.476   2.796   1.995  1.7576 -0.0120 -0.1215
  830SOL    HW2 3319   2.621   2.803   1.948 -0.6201 -0.1904  1.9525
  830SOL     MW 3320   2.563   2.813   2.013  0.4135 -0.3418  0.2644
  831SOL     OW 3321   2.363   2.434   1.176 -0.2300  0.0800  0.0597
  831SOL    HW1 3322   2.324   2.388   1.257 -0.5523  0.1725 -0.0286
  831SOL    HW2 3323   2.449   2.394   1.162 -1.1429  1.2703 -0.0434
  831SOL     MW 3324   2.369   2.423   1.185 -0.3930  0.2492  0.0345
  832SOL     OW 3325   2.358   2.196   1.861  0.1750 -0.0136 -0.0483
  832SOL    HW1 3326   2.395   2.279   1.892 -1.4050  0.7787  0.9930
  832SOL    HW2 3327   2.423   2.126   1.844 -0.2265 -3.8620  2.4415
  832SOL     MW 3328   2.372   2.198   1.863 -0.0864 -0.4169  0.4176
  833SOL     OW 3329   1.709   2.466   0.893  0.1404  0.1763 -0.2357
  833SOL    HW1 3330   1.629   2.436   0.932  1.2789  0.8356 -0.9930
  833SOL    HW2 3331   1.741   2.537   0.946  1.3039 -4.7772 -4.4778
  833SOL     MW 3332   1.703   2.471   0.905  0.4441 -0.3903 -0.8953
  834SOL     OW 3333   2.077   2.415   0.583 -0.4962  0.3060  0.4215
  834SOL    HW1 3334   2.000   2.429   0.524 -0.6863  1.9220 -1.2319
  834SOL    HW2 3335   2.148   2.397   0.520  1.9104  2.3207  0.4424
  834SOL     MW 3336   2.076   2.414   0.567 -0.2037  0.7850  0.2061
  835SOL     OW 3337   1.775   2.574   0.631 -0.6387 -0.4342 -0.1834
  835SOL    HW1 3338   1.740   2.550   0.724 -0.5343  0.7180  3.8221
  835SOL    HW2 3339   1.837   2.634   0.664  1.6435 -2.2432  1.5448
  835SOL     MW 3340   1.779   2.579   0.648 -0.3238 -0.5209  0.5731
  836SOL     OW 3341   1.894   2.173   1.574  0.2441 -0.3864 -0.0957
  836SOL    HW1 3342   1.977   2.210   1.600 -0.4160 -0.8285 -1.4699
  836SOL    HW2 3343   1.829   2.232   1.616 -1.4560  0.4949 -0.5002
  836SOL     MW 3344   1.896   2.185   1.583 -0.0673 -0.3284 -0.3303
  837SOL     OW 3345   2.140   0.227   0.699 -0.4500  0.5706 -0.5826
  837SOL    HW1 3346   2.052   0.238   0.658  2.7153  0.0167 -0.9839
  837SOL    HW2 3347   2.200   0.184   0.640 -2.4924  1.5697  0.0808
  837SOL     MW 3348   2.136   0.223   0.686 -0.3019  0.6294 -0.5480
  838SOL     OW 3349   2.927   2.028   0.933 -0.2035  0.1736  0.0253
  838SOL    HW1 3350   2.860   1.975   0.976 -1.9980  0.6138  0.1559
  838SOL    HW2 3351   3.004   1.971   0.930  0.2339  1.6663  1.0417
  838SOL     MW 3352   2.929   2.014   0.938 -0.3826  0.4286  0.1766
  839SOL     OW 3353   1.543   2.338   1.038 -0.2862 -0.0172  0.5698
  839SOL    HW1 3354   1.539   2.401   1.107 -1.6985 -2.5360  0.6974
  839SOL    HW2 3355   1.554   2.249   1.079 -1.8264  0.0868 -0.8567
  839SOL     MW 3356   1.544   2.334   1.052 -0.6758 -0.3358  0.3984
  840SOL     OW 3357   2.368   2.183   2.456 -0.0469 -0.4137  0.3891
  840SOL    HW1 3358   2.327   2.254   2.414  0.2912 -1.7849  2.0057
  840SOL    HW2 3359   2.341   2.213   2.545  0.9496 -2.4343 -0.2016
  840SOL     MW 3360   2.359   2.196   2.463  0.1292 -0.8612  0.5245
  841SOL     OW 3361   2.071   2.442   0.116  0.4147  0.3052 -0.0957
  841SOL    HW1 3362   2.123   2.485   0.046  2.8492  2.1984  0.5751
  841SOL    HW2 3363   2.070   2.348   0.091 -3.5977 -2.1472  0.0274
  841SOL     MW 3364   2.077   2.435   0.103  0.2065  0.2314  0.0091
  842SOL     OW 3365   2.687   2.079   1.528  0.1603  0.0591 -0.0223
  842SOL    HW1 3366   2.644   2.041   1.605 -2.6860  0.9931 -2.2556
  842SOL    HW2 3367   2.612   2.075   1.464 -1.3687  0.5311  0.6230
  842SOL     MW 3368   2.671   2.073   1.530 -0.4170  0.2446 -0.2318
  843SOL     OW 3369   2.661   2.752   1.782 -0.4400  0.2129 -0.0906
  843SOL    HW1 3370   2.734   2.691   1.762  1.5193 -0.6051 -1.5031
  843SOL    HW2 3371   2.577   2.703   1.752  1.7806  0.4986 -1.3661
  843SOL     MW 3372   2.660   2.737   1.775  0.1115  0.1426 -0.4452
  844SOL     OW 3373   2.626   2.386   1.151 -0.8774 -0.2101  0.3164
  844SOL    HW1 3374   2.661   2.412   1.063  1.2143  0.8866 -0.8021
  844SOL    HW2 3375   2.678   2.437   1.219 -0.2783  2.0081 -1.1535
  844SOL     MW 3376   2.637   2.396   1.148 -0.5224  0.2272 -0.0251
  845SOL     OW 3377   2.839   2.504   0.289 -0.3858 -0.0435  0.3982
  845SOL    HW1 3378   2.808   2.406   0.283 -0.0961 -1.4812 -0.2833
  845SOL    HW2 3379   2.822   2.532   0.377 -1.8655 -0.7648 -3.5380
  845SOL     MW 3380   2.833   2.494   0.300 -0.5428 -0.3283 -0.2111
  846SOL     OW 3381   1.593   2.850   0.799 -0.3448 -0.3479  0.2248
  846SOL    HW1 3382   1.682   2.885   0.824 -0.2523  1.5726 -1.8013
  846SOL    HW2 3383   1.532   2.904   0.846  0.8352 -2.2103 -0.5457
  846SOL     MW 3384   1.597   2.862   0.808 -0.1769 -0.3402 -0.1442
  847SOL     OW 3385   2.607   1.929   0.196 -0.3260 -0.4798 -0.2369
  847SOL    HW1 3386   2.695   1.891   0.204 -2.9272 -0.7462  3.6659
  847SOL    HW2 3387   2.565   1.887   0.123 -0.4249 -5.7477 -1.2400
  847SOL     MW 3388   2.613   1.918   0.188 -0.6823 -1.2100  0.1457
  848SOL     OW 3389   2.518   2.119   1.293 -0.5384  0.2639 -0.0084
  848SOL    HW1 3390   2.573   2.180   1.250  1.6947 -2.5695 -0.6368
  848SOL    HW2 3391   2.531   2.043   1.237  1.2255 -0.8825 -1.9416
  848SOL     MW 3392   2.527   2.117   1.280 -0.0110 -0.2612 -0.3464
  849SOL     OW 3393   1.976   2.717   0.801  0.5358  0.5433  0.1268
  849SOL    HW1 3394   2.005   2.648   0.862 -1.1345 -0.4359  1.6977
  849SOL    HW2 3395   2.051   2.730   0.747 -1.0045  2.2339 -0.4606
  849SOL     MW 3396   1.990   2.710   0.802  0.1122  0.6371  0.2565
  850SOL     OW 3397   2.178   1.959   1.679  0.5604  0.0534 -0.0832
  850SOL    HW1 3398   2.106   1.902   1.646 -2.8030  0.2951  0.6491
  850SOL    HW2 3399   2.148   2.044   1.666  1.8989 -0.0037  1.5592
  850SOL     MW 3400   2.165   1.962   1.673  0.2932  0.0778  0.2301
  851SOL     OW 3401   2.225   2.362   0.355 -0.3513 -0.3008  0.2117
  851SOL    HW1 3402   2.155   2.382   0.298 -1.6194 -2.0910  2.1994
  851SOL    HW2 3403   2.289   2.429   0.338  0.8700 -1.0094  0.9433
  851SOL     MW 3404   2.224   2.373   0.345 -0.3575 -0.6305  0.5705
  852SOL     OW 3405   2.294   2.122   0.215 -0.4534  0.3389 -0.8868
  852SOL    HW1 3406   2.278   2.190   0.283 -0.1827  0.6326  0.2638
  852SOL    HW2 3407   2.357   2.169   0.158  0.8212 -0.0594 -1.6106
  852SOL     MW 3408   2.300   2.137   0.217 -0.2495  0.3251 -0.8305
  853SOL     OW 3409   2.425   2.446   1.951  0.3918  0.1861  0.7491
  853SOL    HW1 3410   2.446   2.502   1.875  0.3091 -0.4555  0.8448
  853SOL    HW2 3411   2.502   2.423   2.003 -0.1316 -1.6596 -1.0840
  853SOL     MW 3412   2.438   2.450   1.948  0.3118 -0.1421  0.5199
  854SOL     OW 3413   2.869   2.220   0.740  0.3719  0.1970 -0.0160
  854SOL    HW1 3414   2.790   2.179   0.700 -0.8785  0.0344  0.5175
  854SOL    HW2 3415   2.892   2.151   0.805  0.9624 -1.9829 -0.6423
  854SOL     MW 3416   2.862   2.206   0.743  0.2848 -0.1121 -0.0283
  855SOL     OW 3417   2.688   2.261   0.293  0.0599  0.8823  0.3831
  855SOL    HW1 3418   2.644   2.292   0.370 -2.3972  0.3315 -3.3031
  855SOL    HW2 3419   2.750   2.195   0.327 -0.8649 -1.0140  2.3629
  855SOL     MW 3420   2.690   2.256   0.308 -0.3863  0.5594  0.1579
  856SOL     OW 3421   2.194   1.875   0.181 -0.6575 -0.2419  0.2566
  856SOL    HW1 3422   2.098   1.881   0.203 -1.3662 -0.2277 -0.6765
  856SOL    HW2 3423   2.230   1.965   0.200 -0.0764  1.7507  0.7695
  856SOL     MW 3424   2.186   1.887   0.186 -0.6743  0.0229  0.2011
  857SOL     OW 3425   2.540   1.913   0.456  0.6295  0.1183 -0.0523
  857SOL    HW1 3426   2.559   1.930   0.365  3.2903 -2.2642  1.9896
  857SOL    HW2 3427   2.455   1.886   0.469  0.9770  1.4570  1.4905
  857SOL     MW 3428   2.532   1.911   0.446  1.0264 -0.0194  0.4206
  858SOL     OW 3429   2.917   2.643   1.743  0.0567 -0.7360 -0.0466
  858SOL    HW1 3430   2.990   2.660   1.802  1.2155 -3.3383 -0.4402
  858SOL    HW2 3431   2.869   2.571   1.786 -0.6312  2.8679 -0.8817
  858SOL     MW 3432   2.920   2.636   1.757  0.1189 -0.6038 -0.2087
  859SOL     OW 3433   2.096   2.463   0.896 -0.7282  0.0181 -0.4571
  859SOL    HW1 3434   2.040   2.424   0.832  0.8258  0.5637  0.5222
  859SOL    HW2 3435   2.167   2.402   0.902  1.4265  1.1481 -2.2076
  859SOL     MW 3436   2.098   2.450   0.888 -0.2389  0.2392 -0.5588
  860SOL     OW 3437   2.633   2.627   0.176  0.2248  0.2112 -0.4225
  860SOL    HW1 3438   2.704   2.578   0.221 -1.5588 -1.9965 -2.6904
  860SOL    HW2 3439   2.671   2.709   0.146  0.2303 -2.4979  0.7744
  860SOL     MW 3440   2.648   2.632   0.178 -0.0098 -0.4375 -0.5638
  861SOL     OW 3441   1.573   2.101   1.166  0.3776 -0.0344  0.2072
  861SOL    HW1 3442   1.640   2.111   1.234 -2.0941 -2.4674  0.1892
  861SOL    HW2 3443   1.497   2.057   1.209 -0.7862  0.4781 -0.0047
  861SOL     MW 3444   1.572   2.097   1.181 -0.1021 -0.2878  0.1769
  862SOL     OW 3445   2.390   1.839   1.543 -0.6719  0.1727 -0.2502
  862SOL    HW1 3446   2.324   1.889   1.590  2.1274  1.6412 -1.5950
  862SOL    HW2 3447   2.356   1.820   1.456  1.4486 -0.0125 -1.2614
  862SOL     MW 3448   2.377   1.843   1.538 -0.0228  0.3420 -0.5610
  863SOL     OW 3449   3.062   1.800   1.160 -0.2446 -0.3497  0.1182
  863SOL    HW1 3450   3.155   1.825   1.164 -1.4009  1.4225  0.3469
  863SOL    HW2 3451   3.009   1.878   1.182  1.6902 -1.0938  0.0265
  863SOL     MW 3452   3.067   1.814   1.164 -0.1419 -0.2141  0.1363
  864SOL     OW 3453   0.034   1.844   0.887 -0.4468 -0.6140 -0.5416
  864SOL    HW1 3454  -0.038   1.805   0.937 -1.6435 -2.9507 -3.3793
  864SOL    HW2 3455  -0.001   1.841   0.794  1.1607  0.4182  0.6106
  864SOL     MW 3456   0.020   1.839   0.882 -0.3926 -0.7861 -0.7640
  865SOL     OW 3457   2.528   2.173   0.062  0.0259  0.1359 -0.8229
  865SOL    HW1 3458   2.571   2.107   0.130  0.2783 -2.1772  0.3063
  865SOL    HW2 3459   2.504   2.121  -0.015 -0.8574  0.2854  0.7818
  865SOL     MW 3460   2.531   2.157   0.061 -0.0573 -0.1496 -0.4622
  866SOL     OW 3461   2.696   2.380   1.588 -0.1448 -0.0576 -0.4383
  866SOL    HW1 3462   2.695   2.290   1.558 -1.4322  1.4348 -0.5586
  866SOL    HW2 3463   2.753   2.428   1.529  0.1265  0.5512  0.7018
  866SOL     MW 3464   2.704   2.374   1.576 -0.2789  0.2196 -0.3037
  867SOL     OW 3465   0.072   2.744   1.852 -0.2060  0.0933 -0.5537
  867SOL    HW1 3466   0.135   2.771   1.916 -0.0528  0.0816  1.5561
  867SOL    HW2 3467   0.066   2.819   1.794 -1.0322 -1.9347  0.8809
  867SOL     MW 3468   0.080   2.758   1.853 -0.2948 -0.1758 -0.0861
  868SOL     OW 3469   2.797   2.566   0.559 -0.0749 -0.0580 -0.0295
  868SOL    HW1 3470   2.720   2.506   0.545 -1.1612  0.5572  0.1384
  868SOL    HW2 3471   2.771   2.650   0.520 -1.2584 -0.3657 -1.1242
  868SOL     MW 3472   2.783   2.569   0.552 -0.3744 -0.0175 -0.1518
  869SOL     OW 3473   1.910   2.329   1.052  1.0720 -0.0496  0.0781
  869SOL    HW1 3474   1.984   2.387   1.023  1.1386  0.0435  1.0336
  869SOL    HW2 3475   1.845   2.316   0.972 -2.3346 -2.2757  0.2956
  869SOL     MW 3476   1.911   2.335   1.038  0.6313 -0.3310  0.2329
  870SOL     OW 3477   2.248   0.033   0.525 -0.3625 -0.3886 -0.5731
  870SOL    HW1 3478   2.301   0.064   0.449 -0.6328  0.9765 -1.9279
  870SOL    HW2 3479   2.269  -0.059   0.533 -0.3986 -0.2507  2.1958
  870SOL     MW 3480   2.258   0.025   0.516 -0.4030 -0.1903 -0.3866
  871SOL     OW 3481   2.473   2.033   0.880  0.0262 -0.9152  0.1172
  871SOL    HW1 3482   2.410   2.004   0.813 -1.1259 -0.2758  2.7134
  871SOL    HW2 3483   2.447   2.120   0.909  0.8557 -2.2444  0.5353
  871SOL     MW 3484   2.461   2.040   0.875 -0.0164 -1.0062  0.5149
  872SOL     OW 3485   2.015   2.549   1.382 -0.1523 -0.9730 -0.3547
  872SOL    HW1 3486   1.980   2.595   1.466 -0.8973 -3.1197  0.7958
  872SOL    HW2 3487   1.950   2.488   1.352 -0.0159  0.2342  1.1115
  872SOL     MW 3488   2.002   2.547   1.389 -0.2326 -1.0970 -0.0094
  873SOL     OW 3489   2.827   2.090   1.928  0.1798  0.1294  0.4881
  873SOL    HW1 3490   2.876   2.122   2.001 -2.3267  1.7052 -2.1628
  873SOL    HW2 3491   2.884   2.098   1.854  0.6892 -0.7244  0.5332
  873SOL     MW 3492   2.841   2.095   1.928 -0.0837  0.2246  0.1443
  874SOL     OW 3493   2.433   1.513   2.359 -0.0897  0.5027  0.7763
  874SOL    HW1 3494   2.349   1.476   2.337  0.8979 -2.3169 -3.3121
  874SOL    HW2 3495   2.490   1.443   2.336 -0.9047  0.9736  1.3254
  874SOL     MW 3496   2.429   1.499   2.353 -0.0669  0.1928  0.3093
  875SOL     OW 3497   2.323   2.303   0.911 -0.0058 -0.6089  0.4654
  875SOL    HW1 3498   2.384   2.371   0.871 -1.1402  2.0742 -1.8095
  875SOL    HW2 3499   2.305   2.316   1.002 -0.4174 -0.4686 -1.2524
  875SOL     MW 3500   2.329   2.314   0.918 -0.2098 -0.2364 -0.0614
  876SOL     OW 3501   3.032   2.328   1.327 -0.4482  0.1480 -0.0919
  876SOL    HW1 3502   3.103   2.354   1.265  1.0218  1.9124  0.3449
  876SOL    HW2 3503   3.080   2.366   1.399  1.9480 -1.7303  2.3107
  876SOL     MW 3504   3.048   2.337   1.329  0.0619  0.1330  0.2827
  877SOL     OW 3505   3.021   2.751   0.321 -0.6166 -0.0223  0.1383
  877SOL    HW1 3506   3.022   2.833   0.272  1.4279 -2.0442 -1.6121
  877SOL    HW2 3507   3.052   2.682   0.262 -1.6763 -0.3393  1.8970
  877SOL     MW 3508   3.026   2.753   0.307 -0.4867 -0.3309  0.1394
  878SOL     OW 3509   2.309   1.813   1.281 -0.3442  0.2331  0.2547
  878SOL    HW1 3510   2.261   1.733   1.310  1.0959  1.6879  0.5470
  878SOL    HW2 3511   2.396   1.791   1.248 -1.0304 -0.6853  2.6781
  878SOL     MW 3512   2.314   1.799   1.281 -0.2447  0.3039  0.6130
  879SOL     OW 3513   2.763   2.430   0.897 -0.4259 -0.0577 -0.7201
  879SOL    HW1 3514   2.819   2.503   0.934  0.1504  3.1056  1.8138
  879SOL    HW2 3515   2.816   2.358   0.872 -1.1440  1.4137  1.1338
  879SOL     MW 3516   2.778   2.430   0.898 -0.4446  0.5538 -0.1411
  880SOL     OW 3517   2.639   2.048   0.666 -0.4114  0.7700 -0.1347
  880SOL    HW1 3518   2.570   2.041   0.739 -1.9930 -0.7540  2.5298
  880SOL    HW2 3519   2.594   2.013   0.590 -2.4616 -0.0145 -0.2538
  880SOL     MW 3520   2.624   2.042   0.666 -0.8906  0.4654  0.2012
  881SOL     OW 3521   2.922   2.686   0.764 -0.0912 -0.0358 -0.3396
  881SOL    HW1 3522   2.871   2.624   0.704 -0.9299 -1.9365 -1.8738
  881SOL    HW2 3523   3.012   2.680   0.741  1.3656  0.9505  0.6619
  881SOL     MW 3524   2.927   2.677   0.753 -0.0096 -0.1564 -0.4099
  882SOL     OW 3525   2.327   2.782   1.882 -0.3322  0.4460  0.2694
  882SOL    HW1 3526   2.282   2.808   1.803  0.1209  0.5956  1.3982
  882SOL    HW2 3527   2.256   2.730   1.920  1.8415  0.3996  0.2742
  882SOL     MW 3528   2.311   2.779   1.876  0.0144  0.4596  0.4189
  883SOL     OW 3529   2.263   2.263   1.361  0.2291  0.5192  0.3946
  883SOL    HW1 3530   2.334   2.199   1.347  0.7536 -1.7896 -1.0297
  883SOL    HW2 3531   2.191   2.230   1.300 -0.8175  0.7101 -0.6630
  883SOL     MW 3532   2.263   2.250   1.351  0.1602  0.2398  0.0672
  884SOL     OW 3533   1.902   1.872   1.124 -0.8615  0.1951  0.4204
  884SOL    HW1 3534   1.856   1.928   1.061  0.3177  2.3509  0.4425
  884SOL    HW2 3535   1.992   1.873   1.101 -1.2816  1.2352 -1.8156
  884SOL     MW 3536   1.908   1.880   1.113 -0.7613  0.6167  0.1283
  885SOL     OW 3537   2.778   2.412   1.850  0.1775  0.1891 -0.0624
  885SOL    HW1 3538   2.866   2.369   1.868  1.5900 -3.3812  1.3704
  885SOL    HW2 3539   2.760   2.393   1.756 -2.1028  4.6348 -2.0403
  885SOL     MW 3540   2.787   2.403   1.840  0.0630  0.3046 -0.1343
  886SOL     OW 3541   2.803   2.482   1.372 -0.1950 -1.2660  0.1572
  886SOL    HW1 3542   2.878   2.433   1.336 -0.3139 -1.7354 -0.2008
  886SOL    HW2 3543   2.831   2.573   1.399  0.7864 -0.8472  0.4686
  886SOL     MW 3544   2.817   2.488   1.371 -0.0812 -1.2727  0.1510
  887SOL     OW 3545   2.302   2.611   1.489  0.0205 -0.0890  0.3825
  887SOL    HW1 3546   2.343   2.628   1.403 -1.0161  0.2092  0.5958
  887SOL    HW2 3547   2.223   2.567   1.461  1.7126 -3.2928 -0.7140
  887SOL     MW 3548   2.297   2.607   1.474  0.1070 -0.4724  0.2660
  888SOL     OW 3549   1.799   2.081   1.335  0.2855 -0.0038  0.2790
  888SOL    HW1 3550   1.860   2.049   1.271 -1.0861  0.6048 -1.1795
  888SOL    HW2 3551   1.848   2.125   1.408  0.7027  0.7610  1.2175
  888SOL     MW 3552   1.813   2.083   1.336  0.1596  0.1774  0.2104
  889SOL     OW 3553   2.340   2.025   2.101  0.4238 -0.5677  0.1878
  889SOL    HW1 3554   2.428   2.019   2.143  0.2708  1.3037  1.0174
  889SOL    HW2 3555   2.332   2.101   2.047  2.1460 -1.6369 -1.7220
  889SOL     MW 3556   2.350   2.034   2.099  0.6308 -0.4619  0.0453
  890SOL     OW 3557   0.127   2.298   0.099  0.0621 -0.4581 -0.4556
  890SOL    HW1 3558   0.097   2.387   0.094 -0.6444 -2.0391  1.7467
  890SOL    HW2 3559   0.094   2.275   0.189 -0.9268 -0.5809  0.6614
  890SOL     MW 3560   0.119   2.307   0.110 -0.1616 -0.6829 -0.0177
  891SOL     OW 3561   3.049   2.053   1.319 -0.1885 -0.0426 -0.2082
  891SOL    HW1 3562   3.119   2.010   1.365  0.6413  1.8378 -4.5828
  891SOL    HW2 3563   3.054   2.145   1.331 -0.3836 -0.7491  0.8768
  891SOL     MW 3564   3.059   2.060   1.327 -0.1048  0.1123 -0.6422
  892SOL     OW 3565   2.359   2.402   2.984  0.3584  0.4861  0.3345
  892SOL    HW1 3566   2.380   2.316   3.026  0.3494 -1.1251 -3.0838
  892SOL    HW2 3567   2.445   2.410   2.937  1.3649 -0.7858  0.3081
  892SOL     MW 3568   2.373   2.392   2.983  0.4900  0.1057 -0.1200
  893SOL     OW 3569   1.574   2.529   1.226 -0.2332 -0.3533  0.3514
  893SOL    HW1 3570   1.485   2.528   1.274 -1.1236 -2.7978 -2.9083
  893SOL    HW2 3571   1.633   2.468   1.275 -3.5969  0.1461 -1.2233
  893SOL     MW 3572   1.570   2.521   1.239 -0.7945 -0.6099 -0.2865
  894SOL     OW 3573   2.837   1.906   0.513 -0.4412  0.5159 -0.0581
  894SOL    HW1 3574   2.746   1.926   0.549 -3.8692 -1.5269  0.5724
  894SOL    HW2 3575   2.816   1.833   0.442  1.7173 -1.3475 -0.7767
  894SOL     MW 3576   2.822   1.899   0.508 -0.6087  0.0005 -0.0697
  895SOL     OW 3577   2.077   2.146   1.177 -0.1415  0.4604 -0.0733
  895SOL    HW1 3578   2.026   2.204   1.118  0.3788  1.7918  0.5098
  895SOL    HW2 3579   2.122   2.088   1.116 -0.3505 -1.1027 -0.6491
  895SOL     MW 3580   2.076   2.146   1.161 -0.1004  0.4299 -0.0724
  896SOL     OW 3581   2.199   2.836   1.065  0.0950 -0.2679  0.2416
  896SOL    HW1 3582   2.273   2.812   1.125 -0.6197 -1.7663 -0.8315
  896SOL    HW2 3583   2.125   2.798   1.104  1.9860  2.1430  2.3398
  896SOL     MW 3584   2.199   2.828   1.078  0.2502 -0.1475  0.3768
  897SOL     OW 3585   2.974   2.967   0.167  0.0202  0.3788  0.6189
  897SOL    HW1 3586   3.060   2.949   0.121  0.6699  1.0962 -1.2593
  897SOL    HW2 3587   2.903   2.928   0.115  2.4406  4.4480  0.5045
  897SOL     MW 3588   2.976   2.959   0.154  0.4253  1.0104  0.3560
  898SOL     OW 3589   2.076   0.186   1.424 -0.0004  0.0657  0.4452
  898SOL    HW1 3590   2.017   0.108   1.411 -0.0571  1.2095  0.7957
  898SOL    HW2 3591   2.080   0.234   1.341 -1.7803 -0.3257  1.0087
  898SOL     MW 3592   2.068   0.182   1.412 -0.2427  0.1650  0.5658
  899SOL     OW 3593   2.900   2.973   0.676  0.4840  0.0985  0.2992
  899SOL    HW1 3594   2.916   2.880   0.700  2.2955  0.7744  0.3613
  899SOL    HW2 3595   2.805   2.996   0.676 -0.7494 -0.7835  1.2619
  899SOL     MW 3596   2.889   2.964   0.679  0.5603  0.0713  0.4344
  900SOL     OW 3597   0.124   2.376   1.111  0.2251 -0.1523 -0.3066
  900SOL    HW1 3598   0.169   2.456   1.079 -0.8680  0.0780 -1.8591
  900SOL    HW2 3599   0.146   2.305   1.051 -0.7422 -1.1061  1.7409
  900SOL     MW 3600   0.132   2.377   1.099 -0.0468 -0.2478 -0.2413
  901SOL     OW 3601   1.733   2.817   1.736  0.1993  0.5454 -0.6786
  901SOL    HW1 3602   1.801   2.779   1.679  0.7940 -0.4862  0.4962
  901SOL    HW2 3603   1.670   2.838   1.669  2.9622  1.7154  1.4334
  901SOL     MW 3604   1.734   2.815   1.720  0.6423  0.5636 -0.2450
  902SOL     OW 3605   2.574   1.999   1.819  0.0750 -0.2150  0.4458
  902SOL    HW1 3606   2.545   1.929   1.873  0.0528  0.6258 -0.6724
  902SOL    HW2 3607   2.640   2.038   1.879 -0.7638  0.1631  1.9428
  902SOL     MW 3608   2.579   1.995   1.834 -0.0386 -0.0542  0.4958
  903SOL     OW 3609   1.637   2.795   0.521 -0.3774  0.3062  0.2311
  903SOL    HW1 3610   1.688   2.711   0.541  0.6050  1.7372  0.6733
  903SOL    HW2 3611   1.607   2.840   0.607 -0.5655 -1.1649  1.9827
  903SOL     MW 3612   1.640   2.790   0.535 -0.2726  0.3009  0.5206
  904SOL     OW 3613   2.507   2.555   1.672 -0.2466  0.8066  0.5261
  904SOL    HW1 3614   2.441   2.593   1.619  0.9772  0.0877  2.0078
  904SOL    HW2 3615   2.550   2.482   1.623  0.2711  1.5213  0.1381
  904SOL     MW 3616   2.504   2.551   1.658 -0.0168  0.8061  0.6704
  905SOL     OW 3617   2.349   2.590   2.168 -0.0261 -0.4703  0.8343
  905SOL    HW1 3618   2.379   2.537   2.096  1.5736  2.4466  1.0822
  905SOL    HW2 3619   2.303   2.531   2.233 -2.0636  0.3241 -0.3840
  905SOL     MW 3620   2.347   2.575   2.167 -0.0838  0.0193  0.7062
  906SOL     OW 3621   2.509   2.466   0.813  0.1343 -0.3726 -0.4408
  906SOL    HW1 3622   2.607   2.448   0.825  1.1154  0.9939 -0.3615
  906SOL    HW2 3623   2.505   2.552   0.847 -0.0385 -0.7004 -0.2805
  906SOL     MW 3624   2.522   2.475   0.819  0.2409 -0.2355 -0.4092
  907SOL     OW 3625   2.611   2.882   1.259  0.2808  0.1585 -0.4146
  907SOL    HW1 3626   2.677   2.899   1.329 -0.4890  3.2442 -0.2533
  907SOL    HW2 3627   2.654   2.903   1.177  0.9341  0.7810  0.6663
  907SOL     MW 3628   2.626   2.887   1.258  0.2654  0.6477 -0.2507
  908SOL     OW 3629   2.709   2.397   0.027  0.3023  0.4601 -0.3573
  908SOL    HW1 3630   2.681   2.313   0.078 -3.2405 -0.9130  1.0887
  908SOL    HW2 3631   2.677   2.460   0.085 -1.4259 -1.8567  0.4515
  908SOL     MW 3632   2.702   2.394   0.041 -0.3931 -0.0267 -0.0598
  909SOL     OW 3633   1.617   0.225   1.017 -0.3170 -0.3828  0.4112
  909SOL    HW1 3634   1.671   0.289   0.970 -0.3541  0.9031  1.3376
  909SOL    HW2 3635   1.627   0.259   1.104  2.1168 -2.7832 -1.4104
  909SOL     MW 3636   1.626   0.238   1.022 -0.0008 -0.5298  0.2931
  910SOL     OW 3637   2.289   1.755   0.402  0.1109  0.7294  0.2186
  910SOL    HW1 3638   2.219   1.712   0.445  0.9174 -2.4332  0.7842
  910SOL    HW2 3639   2.255   1.801   0.323  0.0646  0.2469  1.7433
  910SOL     MW 3640   2.276   1.756   0.397  0.2112  0.2485  0.4944
  911SOL     OW 3641   2.153   2.285   1.648 -0.2582  0.7215  0.6151
  911SOL    HW1 3642   2.224   2.263   1.703  1.5737  0.1262 -1.9774
  911SOL    HW2 3643   2.190   2.267   1.559  2.2080  0.8451 -0.7574
  911SOL     MW 3644   2.167   2.280   1.643  0.3089  0.6592  0.0919
  912SOL     OW 3645   2.902   1.914   1.495  0.5084  0.6518  0.4173
  912SOL    HW1 3646   2.944   1.958   1.419  0.0963  0.5363 -1.2110
  912SOL    HW2 3647   2.822   1.960   1.508 -2.8835 -0.8678 -2.4906
  912SOL     MW 3648   2.897   1.926   1.487  0.0065  0.4361 -0.1812
  913SOL     OW 3649   2.537   2.954   0.400 -0.0407 -0.2147  0.4970
  913SOL    HW1 3650   2.610   2.887   0.408  1.9875  0.1141  1.4324
  913SOL    HW2 3651   2.456   2.904   0.417 -0.0834 -1.4623  1.1382
  913SOL     MW 3652   2.536   2.938   0.403  0.2213 -0.3359  0.7050
  914SOL     OW 3653   2.788   1.650   0.034 -0.2281  0.3967 -0.2902
  914SOL    HW1 3654   2.771   1.705  -0.038  1.6569 -1.2207  0.7225
  914SOL    HW2 3655   2.718   1.589   0.029  5.0605  2.3808 -0.9876
  914SOL     MW 3656   2.777   1.649   0.023  0.7184  0.4451 -0.2486
  915SOL     OW 3657   1.843   0.158   0.219  0.1579  0.2612  0.0625
  915SOL    HW1 3658   1.880   0.108   0.290 -1.4344 -1.4824 -0.3292
  915SOL    HW2 3659   1.757   0.121   0.210  0.2713 -0.2102  1.8448
  915SOL     MW 3660   1.837   0.147   0.227 -0.0372 -0.0311  0.2460
  916SOL     OW 3661   1.823   2.083   1.979 -0.1187 -0.1081  0.5880
  916SOL    HW1 3662   1.833   2.180   1.970  0.7016 -1.3383  0.4597
  916SOL    HW2 3663   1.813   2.047   1.889 -0.5605 -0.6446  1.2019
  916SOL     MW 3664   1.823   2.091   1.966 -0.0687 -0.3412  0.6521
  917SOL     OW 3665   2.299   2.341   2.692  0.4674  0.1858 -0.0988
  917SOL    HW1 3666   2.305   2.331   2.788  0.9570  2.2678 -0.8616
  917SOL    HW2 3667   2.268   2.430   2.684 -1.4122 -1.0343 -3.1321
  917SOL     MW 3668   2.296   2.352   2.704  0.2840  0.2995 -0.5997
  918SOL     OW 3669   2.079   1.667   2.667  0.5665 -0.0218 -0.1824
  918SOL    HW1 3670   2.012   1.674   2.599 -2.3636  0.7253  2.2488
  918SOL    HW2 3671   2.142   1.736   2.645 -0.0634 -2.1819 -0.0049
  918SOL     MW 3672   2.078   1.677   2.655  0.0968 -0.2082  0.1618
  919SOL     OW 3673   3.072   2.393   2.278  0.2023 -0.5829  0.0082
  919SOL    HW1 3674   3.000   2.328   2.252  3.4898  2.1188  2.0409
  919SOL    HW2 3675   3.149   2.364   2.227  3.8366  0.6438 -1.1856
  919SOL     MW 3676   3.073   2.381   2.268  1.1156 -0.0646  0.1189
  920SOL     OW 3677   2.780   2.846   0.011  0.1101 -0.2224  0.1020
  920SOL    HW1 3678   2.704   2.902   0.027  0.0912  1.2613 -1.4774
  920SOL    HW2 3679   2.750   2.788  -0.061 -1.2862  0.9586 -0.2399
  920SOL     MW 3680   2.766   2.845   0.004 -0.0766  0.1292 -0.1515
  921SOL     OW 3681   2.515   2.615   2.680 -0.3002 -0.4380 -0.2048
  921SOL    HW1 3682   2.582   2.612   2.613 -1.0089 -0.8248 -2.2892
  921SOL    HW2 3683   2.544   2.559   2.746 -2.6554  3.3875 -2.2532
  921SOL     MW 3684   2.528   2.607   2.680 -0.7045  0.0157 -0.7501
  922SOL     OW 3685   2.036   2.809   0.253  0.2270 -0.0249 -0.4098
  922SOL    HW1 3686   1.986   2.823   0.171  1.1270 -0.2190  2.2973
  922SOL    HW2 3687   2.000   2.717   0.282  0.1205 -1.3636 -1.1259
  922SOL     MW 3688   2.025   2.799   0.246  0.3317 -0.2272 -0.1471
  923SOL     OW 3689   2.208   2.823   1.643  0.1050  0.4223  0.4816
  923SOL    HW1 3690   2.252   2.770   1.573 -2.2632  0.6148 -0.5106
  923SOL    HW2 3691   2.211   2.916   1.623  2.2963 -2.2412 -0.1501
  923SOL     MW 3692   2.214   2.828   1.631  0.0816  0.0962  0.2674
  924SOL     OW 3693   1.172   2.772   2.487 -0.0714  0.3389  0.3498
  924SOL    HW1 3694   1.201   2.837   2.418 -2.0475 -0.4560 -0.5308
  924SOL    HW2 3695   1.241   2.723   2.529  1.8048 -0.9505 -1.6938
  924SOL     MW 3696   1.185   2.774   2.483 -0.0846  0.0639 -0.0360
  925SOL     OW 3697   2.958   0.207   2.675  0.0585 -0.1857 -0.3990
  925SOL    HW1 3698   3.020   0.250   2.614 -1.6563  1.2933  4.4404
  925SOL    HW2 3699   2.904   0.282   2.694 -2.2864  1.4354 -1.8255
  925SOL     MW 3700   2.959   0.222   2.670 -0.4771  0.2234  0.0513
  926SOL     OW 3701   2.656   2.394   2.095 -0.0022  0.2564  0.0842
  926SOL    HW1 3702   2.707   2.467   2.130  0.4629 -0.1062  0.2639
  926SOL    HW2 3703   2.700   2.397   2.006  2.6037 -2.1488  1.7057
  926SOL     MW 3704   2.669   2.404   2.088  0.4030 -0.1088  0.3218
  927SOL     OW 3705   2.361   0.156   0.306 -0.0891 -0.1443  0.6570
  927SOL    HW1 3706   2.454   0.172   0.313 -1.8982 -1.6826 -0.0778
  927SOL    HW2 3707   2.344   0.136   0.217  0.1167 -2.0820 -0.7807
  927SOL     MW 3708   2.371   0.156   0.295 -0.3006 -0.6029  0.3703
  928SOL     OW 3709   2.004   2.506   1.785 -0.2026 -0.0517 -0.3314
  928SOL    HW1 3710   2.077   2.448   1.751  0.6512 -0.5513 -3.1553
  928SOL    HW2 3711   2.029   2.553   1.864  2.8572  0.5239 -0.5541
  928SOL     MW 3712   2.017   2.505   1.791  0.3137 -0.0417 -0.7334
  929SOL     OW 3713   2.772   2.357   2.440 -0.1140  0.1066  0.4769
  929SOL    HW1 3714   2.688   2.335   2.395  1.2402 -0.7755 -1.8710
  929SOL    HW2 3715   2.769   2.308   2.520  2.4416  3.8671 -0.0207
  929SOL     MW 3716   2.761   2.347   2.444  0.4019  0.4864  0.1014
  930SOL     OW 3717   2.020   2.898   2.656  0.3601  0.5308  0.5104
  930SOL    HW1 3718   2.035   2.847   2.733  0.5078  2.2913  0.0238
  930SOL    HW2 3719   2.109   2.937   2.643 -1.1099 -0.8006 -1.2041
  930SOL     MW 3720   2.034   2.896   2.665  0.1857  0.5874  0.2200
  931SOL     OW 3721   2.932   2.836   2.215 -0.2130  0.0198  0.6833
  931SOL    HW1 3722   3.003   2.793   2.167  1.2648 -1.1492  1.6168
  931SOL    HW2 3723   2.864   2.842   2.150  0.7048 -0.2268  2.5041
  931SOL     MW 3724   2.932   2.831   2.200  0.1031 -0.1670  1.0467
  932SOL     OW 3725   2.827   1.922   2.573  0.1671  0.0899  0.3642
  932SOL    HW1 3726   2.922   1.939   2.580  1.3975 -0.5867 -1.6411
  932SOL    HW2 3727   2.818   1.925   2.482  0.0182  2.4328  0.7303
  932SOL     MW 3728   2.838   1.925   2.562  0.3098  0.3098  0.1479
  933SOL     OW 3729   2.046   2.817   2.231 -0.6333 -0.1773 -0.2375
  933SOL    HW1 3730   2.128   2.861   2.255 -2.5685  1.5754 -4.1140
  933SOL    HW2 3731   1.989   2.892   2.212  1.8937  0.6322  3.0180
  933SOL     MW 3732   2.049   2.832   2.232 -0.5552  0.1608 -0.3195
  934SOL     OW 3733   2.016   2.688   2.463  0.3629  0.3767  0.0108
  934SOL    HW1 3734   2.004   2.763   2.516  1.5880 -1.5473  1.0848
  934SOL    HW2 3735   2.020   2.711   2.366  0.4962  0.0541 -0.5375
  934SOL     MW 3736   2.015   2.701   2.457  0.5421  0.0803  0.0801
  935SOL     OW 3737   2.604   1.601   1.796 -0.1068 -0.5838 -0.4825
  935SOL    HW1 3738   2.683   1.556   1.775 -2.6563  0.3218  0.6539
  935SOL    HW2 3739   2.559   1.591   1.718  0.6008 -3.0166  2.6628
  935SOL     MW 3740   2.608   1.594   1.783 -0.3499 -0.7853  0.0825
  936SOL     OW 3741   2.951   2.243   3.036  0.2347  0.0995 -0.1714
  936SOL    HW1 3742   3.026   2.268   3.084 -2.7860  1.4473  0.0232
  936SOL    HW2 3743   2.881   2.306   3.065  0.5341 -1.5352  1.6798
  936SOL     MW 3744   2.952   2.255   3.046 -0.1244  0.0616  0.0985
  937SOL     OW 3745   1.981   2.186   2.640 -0.3958  0.1054 -0.0222
  937SOL    HW1 3746   2.066   2.164   2.683  0.9425  2.9209 -1.6123
  937SOL    HW2 3747   1.999   2.175   2.543  0.0903 -0.4544 -0.1269
  937SOL     MW 3748   1.995   2.182   2.633 -0.1551  0.4030 -0.2458
  938SOL     OW 3749   2.270   1.849   1.918  0.5789  0.0263 -0.2496
  938SOL    HW1 3750   2.258   1.891   1.833 -0.3917  0.4458 -0.1383
  938SOL    HW2 3751   2.287   1.922   1.975 -1.3094 -4.1903 -0.8396
  938SOL     MW 3752   2.271   1.864   1.914  0.2017 -0.4747 -0.3128
  939SOL     OW 3753   2.803   1.949   2.272  0.2778 -0.8192  0.3182
  939SOL    HW1 3754   2.810   1.890   2.199 -0.1462  0.2570 -1.2914
  939SOL    HW2 3755   2.709   1.976   2.269 -1.8393  0.4808 -0.2274
  939SOL     MW 3756   2.792   1.944   2.262 -0.0575 -0.5057  0.0338
  940SOL     OW 3757   2.265   0.148   2.688  0.1133 -0.2373  0.4717
  940SOL    HW1 3758   2.257   0.057   2.661  1.9382  2.3726 -0.9920
  940SOL    HW2 3759   2.324   0.153   2.766 -1.0748  1.2594  0.4360
  940SOL     MW 3760   2.272   0.136   2.695  0.1973  0.3045  0.2739
  941SOL     OW 3761   0.172   2.364   2.072 -0.1099 -0.7544 -0.1142
  941SOL    HW1 3762   0.231   2.298   2.094 -0.9292  2.8592 -1.1895
  941SOL    HW2 3763   0.109   2.323   2.008 -0.0166 -0.4807 -0.9614
  941SOL     MW 3764   0.171   2.350   2.067 -0.2057 -0.2415 -0.3678
  942SOL     OW 3765   2.890   2.227   2.167 -0.1208 -0.0366  0.0574
  942SOL    HW1 3766   2.809   2.280   2.153 -0.4386  2.1160 -0.5911
  942SOL    HW2 3767   2.855   2.144   2.211  0.2225  0.4066 -1.0070
  942SOL     MW 3768   2.875   2.223   2.171 -0.1174  0.3059 -0.1686
  943SOL     OW 3769   0.262   2.007   2.321  0.6730  0.2572  0.0575
  943SOL    HW1 3770   0.205   2.088   2.346 -1.0146  1.6565  3.6884
  943SOL    HW2 3771   0.347   2.015   2.366  1.2224 -0.0520  1.7057
  943SOL     MW 3772   0.266   2.019   2.330  0.5228  0.4010  0.7541
  944SOL     OW 3773   2.112   2.661   2.004 -0.2019 -0.0760 -0.1126
  944SOL    HW1 3774   2.179   2.621   2.061  0.5634 -1.1496 -1.3992
  944SOL    HW2 3775   2.071   2.731   2.052 -1.2244 -2.1598 -2.5411
  944SOL     MW 3776   2.116   2.665   2.018 -0.2358 -0.4926 -0.6028
  945SOL     OW 3777   2.762   2.683   2.893 -0.0801  0.0457 -0.3637
  945SOL    HW1 3778   2.730   2.591   2.879  1.3199  0.5654 -0.8487
  945SOL    HW2 3779   2.816   2.708   2.816 -1.5546  1.5419  0.3002
  945SOL     MW 3780   2.765   2.674   2.881 -0.0899  0.3117 -0.3401
  946SOL     OW 3781   2.531   2.747   2.290 -0.7032  0.7002  0.0438
  946SOL    HW1 3782   2.564   2.764   2.199  0.9853 -0.2800  0.7573
  946SOL    HW2 3783   2.482   2.666   2.284 -1.6921 -2.8510 -0.2156
  946SOL     MW 3784   2.529   2.739   2.278 -0.6109  0.1023  0.1037
  947SOL     OW 3785   2.050   0.030   0.347 -0.3591 -0.2268 -0.6591
  947SOL    HW1 3786   2.052  -0.045   0.290 -0.4203 -4.5613 -0.2879
  947SOL    HW2 3787   2.120   0.021   0.418  4.7802  0.1142  1.8085
  947SOL     MW 3788   2.059   0.019   0.349  0.3109 -0.7537 -0.2845
  948SOL     OW 3789   1.829   3.095   2.607 -0.1727 -0.2361 -0.7694
  948SOL    HW1 3790   1.884   3.016   2.609 -1.4106 -0.9939 -0.2872
  948SOL    HW2 3791   1.822   3.112   2.515 -0.3925  1.5108  0.2103
  948SOL     MW 3792   1.835   3.087   2.595 -0.3650 -0.1056 -0.5765
  949SOL     OW 3793   2.535   2.005   2.315 -0.2338 -0.2797 -0.2537
  949SOL    HW1 3794   2.535   1.913   2.358 -0.4944  1.0477  1.5344
  949SOL    HW2 3795   2.502   2.057   2.389  1.3544  1.1692  1.2420
  949SOL     MW 3796   2.531   2.000   2.331 -0.0586  0.0866  0.1796
  950SOL     OW 3797   2.187   2.630   3.040 -0.6134 -0.2855 -0.1332
  950SOL    HW1 3798   2.242   2.556   3.016  0.6029 -0.0794 -2.4672
  950SOL    HW2 3799   2.117   2.639   2.973  0.0768  2.5721  1.2791
  950SOL     MW 3800   2.185   2.622   3.028 -0.3619  0.1187 -0.2548
  951SOL     OW 3801   2.903   2.058   2.850  0.8038  0.4557 -0.8534
  951SOL    HW1 3802   2.922   2.133   2.903 -2.0406 -0.2697 -1.2894
  951SOL    HW2 3803   2.989   2.049   2.801 -0.8285  0.2550  0.7319
  951SOL     MW 3804   2.917   2.067   2.850  0.2131  0.3335 -0.7018
  952SOL     OW 3805   3.087   1.635   2.085 -0.4818  0.2108 -0.4438
  952SOL    HW1 3806   3.013   1.679   2.047  0.1073  1.2837 -1.3505
  952SOL    HW2 3807   3.157   1.701   2.109 -0.5257 -2.0665  1.2857
  952SOL     MW 3808   3.086   1.649   2.083 -0.4099  0.0519 -0.3353
  953SOL     OW 3809   1.963   1.830   2.857 -0.1268  0.1306  0.4737
  953SOL    HW1 3810   1.879   1.785   2.872 -0.8893  0.4267  1.6622
  953SOL    HW2 3811   1.996   1.762   2.794  1.7189  1.5565  0.9760
  953SOL     MW 3812   1.956   1.815   2.851  0.0161  0.3578  0.6968
  954SOL     OW 3813   2.428   2.084   2.925  0.6608  0.6264  0.3776
  954SOL    HW1 3814   2.340   2.073   2.882 -0.5528 -1.9961 -2.9959
  954SOL    HW2 3815   2.498   2.053   2.859 -0.7488  1.9741  0.9304
  954SOL     MW 3816   2.425   2.078   2.911  0.3147  0.4582  0.0054
  955SOL     OW 3817   1.575   1.642   2.606 -0.0290 -0.1251 -0.0088
  955SOL    HW1 3818   1.530   1.644   2.525 -0.2099  0.1774 -0.3418
  955SOL    HW2 3819   1.667   1.679   2.591  3.0252  1.5901 -0.5099
  955SOL     MW 3820   1.581   1.647   2.593  0.3501  0.1411 -0.1188
  956SOL     OW 3821   2.616   2.414   2.870 -0.2215  0.1459  0.5048
  956SOL    HW1 3822   2.644   2.392   2.966  0.2550  1.9579 -1.0347
  956SOL    HW2 3823   2.684   2.360   2.819  0.2820 -0.7047  0.1056
  956SOL     MW 3824   2.629   2.404   2.876 -0.0922  0.2727  0.2490
  957SOL     OW 3825   2.304   2.801   0.412  0.0660 -0.0475 -0.1597
  957SOL    HW1 3826   2.223   2.807   0.353 -4.1527 -3.1373  1.3247
  957SOL    HW2 3827   2.260   2.761   0.494  3.9010 -0.1850 -1.2799
  957SOL     MW 3828   2.288   2.797   0.415  0.0153 -0.4733 -0.1116
  958SOL     OW 3829   2.003   2.687   2.850 -0.4318 -0.2982 -0.0996
  958SOL    HW1 3830   1.991   2.599   2.806  0.0947 -1.3654  0.2865
  958SOL    HW2 3831   1.924   2.710   2.889  1.0714 -1.5179 -2.6253
  958SOL     MW 3832   1.991   2.678   2.849 -0.1640 -0.5999 -0.3819
  959SOL     OW 3833   2.433   2.560   0.335  0.6792  0.0316 -0.1327
  959SOL    HW1 3834   2.493   2.597   0.268  0.6236 -1.3335 -0.1819
  959SOL    HW2 3835   2.406   2.635   0.388  0.4002 -0.5360  1.7405
  959SOL     MW 3836   2.438   2.575   0.333  0.6351 -0.2234  0.1080
  960SOL     OW 3837   1.946   2.417   2.306 -0.1554 -0.5107 -0.0404
  960SOL    HW1 3838   1.950   2.324   2.284 -1.7747  2.2399 -0.8836
  960SOL    HW2 3839   1.885   2.417   2.375 -1.9781 -1.6867 -1.2368
  960SOL     MW 3840   1.938   2.405   2.312 -0.6095 -0.3029 -0.3095
  961SOL     OW 3841   2.238   2.399   2.333 -0.3226  0.4898  0.4488
  961SOL    HW1 3842   2.151   2.426   2.307  2.0087 -0.1914  2.6924
  961SOL    HW2 3843   2.251   2.433   2.420  1.3584 -4.9807 -1.1259
  961SOL     MW 3844   2.228   2.407   2.341  0.2068 -0.3219  0.5370
  962SOL     OW 3845   2.166   2.065   2.796  0.1212 -0.1416  0.6018
  962SOL    HW1 3846   2.138   2.001   2.865  0.1893 -0.6221  0.8535
  962SOL    HW2 3847   2.199   2.013   2.719  1.1838 -2.6167 -1.5341
  962SOL     MW 3848   2.167   2.049   2.795  0.2704 -0.5315  0.3532
  963SOL     OW 3849   1.759   2.559   2.136  0.3995  0.3994 -0.4981
  963SOL    HW1 3850   1.827   2.516   2.185 -2.4749  2.4628 -2.6342
  963SOL    HW2 3851   1.737   2.506   2.059  0.9367  3.0264  0.9819
  963SOL     MW 3852   1.765   2.546   2.133  0.0911  1.0183 -0.5846
  964SOL     OW 3853   1.806   1.975   2.662  0.1858 -0.4532  0.8866
  964SOL    HW1 3854   1.876   2.043   2.632  0.6586  1.1030 -1.9612
  964SOL    HW2 3855   1.843   1.921   2.735 -1.8917 -0.5702  1.6259
  964SOL     MW 3856   1.820   1.977   2.667 -0.0259 -0.2633  0.6084
  965SOL     OW 3857   2.197   2.704   0.640 -0.0372 -0.1426  0.3682
  965SOL    HW1 3858   2.197   2.606   0.641  1.6808  0.1689 -1.2954
  965SOL    HW2 3859   2.261   2.733   0.713  2.8682 -1.9959  0.8427
  965SOL     MW 3860   2.206   2.695   0.650  0.5728 -0.3460  0.2113
  966SOL     OW 3861   2.705   2.634   2.482  0.0171  0.2490 -0.4160
  966SOL    HW1 3862   2.648   2.671   2.413 -1.0411  1.0939 -0.1086
  966SOL    HW2 3863   2.726   2.545   2.447 -2.3776  1.1546 -2.0328
  966SOL     MW 3864   2.701   2.627   2.468 -0.4385  0.4800 -0.5888
  967SOL     OW 3865   2.895   3.004   2.920 -0.4092 -0.4537  0.9625
  967SOL    HW1 3866   2.860   2.935   2.974 -1.0292 -0.7763 -2.5700
  967SOL    HW2 3867   2.806   3.045   2.904 -0.3552 -1.1694 -0.3288
  967SOL     MW 3868   2.878   3.001   2.925 -0.4839 -0.5907  0.3261
  968SOL     OW 3869   3.018   2.541   3.021 -0.2278  0.3367 -0.6318
  968SOL    HW1 3870   2.971   2.606   2.981  2.4700 -3.6685  0.4658
  968SOL    HW2 3871   3.070   2.503   2.953 -0.3057 -0.2798 -0.7048
  968SOL     MW 3872   3.019   2.544   3.007  0.1179 -0.2731 -0.4966
  969SOL     OW 3873   1.549   2.096   1.727  0.2150  0.0836  0.1035
  969SOL    HW1 3874   1.616   2.023   1.735 -1.2063  2.7338 -0.0284
  969SOL    HW2 3875   1.530   2.106   1.825  4.4470 -0.2166  2.8908
  969SOL     MW 3876   1.555   2.088   1.741  0.5858  0.3937  0.4539
  970SOL     OW 3877   1.670   1.707   1.856 -0.0599 -0.5523  0.4024
  970SOL    HW1 3878   1.720   1.672   1.932 -2.0189  1.0307  2.5959
  970SOL    HW2 3879   1.579   1.688   1.875 -2.1533 -0.8292 -2.3957
  970SOL     MW 3880   1.664   1.700   1.868 -0.5946 -0.3800  0.3226
  971SOL     OW 3881   1.854   0.097   2.372 -0.0933 -0.2401 -0.1918
  971SOL    HW1 3882   1.900   0.064   2.299 -2.6818 -0.9370  1.1945
  971SOL    HW2 3883   1.909   0.172   2.412 -0.1379  2.6961  2.1794
  971SOL     MW 3884   1.867   0.103   2.368 -0.4407  0.0553  0.3040
  972SOL     OW 3885   0.283   2.802   2.541  0.1831  0.0224 -0.1947
  972SOL    HW1 3886   0.310   2.707   2.550 -1.2858 -3.0278 -1.8380
  972SOL    HW2 3887   0.351   2.857   2.576  2.9014 -2.4165  0.6763
  972SOL     MW 3888   0.295   2.797   2.546  0.3479 -0.7019 -0.2966
  973SOL     OW 3889   2.605   3.103   2.048 -0.3625  0.2629 -0.0690
  973SOL    HW1 3890   2.578   3.010   2.047  3.2411  1.7245 -1.3472
  973SOL    HW2 3891   2.612   3.132   1.958 -0.3176  0.8820 -0.0278
  973SOL     MW 3892   2.602   3.094   2.036  0.1189  0.5374 -0.2322
  974SOL     OW 3893   2.091   0.345   2.738  0.9010  0.3935  0.1798
  974SOL    HW1 3894   2.165   0.291   2.708 -0.5512 -0.5956 -3.1530
  974SOL    HW2 3895   2.034   0.281   2.790  0.6963  1.0927 -2.8768
  974SOL     MW 3896   2.093   0.329   2.741  0.6824  0.3553 -0.6632
  975SOL     OW 3897   2.267   2.587   2.549 -0.0176 -0.5826  0.0249
  975SOL    HW1 3898   2.349   2.616   2.585 -2.3586  2.3579 -1.0860
  975SOL    HW2 3899   2.214   2.660   2.519 -1.0979 -1.6440 -1.1396
  975SOL     MW 3900   2.271   2.601   2.550 -0.4690 -0.3347 -0.2753
  976SOL     OW 3901   0.222   0.265   1.719 -0.3529  0.1830 -0.7005
  976SOL    HW1 3902   0.277   0.203   1.759 -2.7082  0.8198  0.7043
  976SOL    HW2 3903   0.133   0.219   1.699  0.4286 -1.5470 -2.2360
  976SOL     MW 3904   0.218   0.251   1.721 -0.5606  0.0388 -0.7178
  977SOL     OW 3905   1.671   2.766   2.456  0.3720 -0.2401  0.4044
  977SOL    HW1 3906   1.686   2.670   2.479  0.9420 -0.4586 -0.5571
  977SOL    HW2 3907   1.761   2.791   2.469  0.5356 -0.1410 -0.5350
  977SOL     MW 3908   1.685   2.757   2.461  0.4688 -0.2559  0.1536
   3.10000   3.10000   3.10000
