977 TIP4P/2005f water molecules t=   0.32000 step= 320
 3908
    1SOL     OW    1   0.295   0.762   0.047 -0.1098  0.3487  0.2283
    1SOL    HW1    2   0.263   0.787  -0.039 -1.9845  0.4305 -1.2192
    1SOL    HW2    3   0.317   0.667   0.045  1.7610  0.5140 -0.1687
    1SOL     MW    4   0.293   0.753   0.036 -0.1103  0.3813 -0.0150
    2SOL     OW    5   0.327   3.044   1.150 -0.8235  0.5706  0.3430
    2SOL    HW1    6   0.346   3.128   1.108 -0.3949 -1.4438  1.4034
    2SOL    HW2    7   0.234   3.043   1.163 -0.0088  2.3356  0.1222
    2SOL     MW    8   0.318   3.055   1.146 -0.6594  0.5377  0.4538
    3SOL     OW    9   2.658   0.404   0.918  0.1264 -0.4080 -0.2416
    3SOL    HW1   10   2.685   0.472   0.858 -0.4256  1.4278 -1.5846
    3SOL    HW2   11   2.670   0.439   1.001 -1.0008  1.0252 -1.4932
    3SOL     MW   12   2.663   0.417   0.921 -0.0952  0.0234 -0.5839
    4SOL     OW   13   3.067   1.809   0.605  0.1250 -0.3305 -0.9354
    4SOL    HW1   14   2.985   1.855   0.599 -2.5396 -1.2399 -1.7620
    4SOL    HW2   15   3.061   1.743   0.538 -1.9758 -0.1369  0.3065
    4SOL     MW   16   3.055   1.806   0.595 -0.5038 -0.4249 -0.8806
    5SOL     OW   17   1.695   1.423   0.536 -0.1646 -0.0320  0.4284
    5SOL    HW1   18   1.744   1.388   0.605  0.4395  0.4690 -0.0811
    5SOL    HW2   19   1.605   1.430   0.561  0.2484 -0.1599  2.7428
    5SOL     MW   20   1.690   1.419   0.548 -0.0304  0.0172  0.6665
    6SOL     OW   21   0.856   1.399   0.614 -0.1522 -0.5791  0.4649
    6SOL    HW1   22   0.769   1.399   0.656 -2.1119  0.6005  0.1585
    6SOL    HW2   23   0.903   1.324   0.655 -1.6396 -0.4499 -1.6383
    6SOL     MW   24   0.851   1.389   0.625 -0.6070 -0.4064  0.1470
    7SOL     OW   25   1.988   1.053   0.033  0.3829 -0.1715  0.1408
    7SOL    HW1   26   1.995   1.149   0.011 -1.3285  0.4003 -0.7184
    7SOL    HW2   27   2.036   1.055   0.114 -0.3712 -3.5016  1.7102
    7SOL     MW   28   1.995   1.066   0.041  0.0576 -0.5354  0.2345
    8SOL     OW   29   1.006   1.324   1.030 -0.2654  0.2975 -0.5104
    8SOL    HW1   30   1.094   1.296   1.051  0.3253 -3.2167  0.3502
    8SOL    HW2   31   0.963   1.245   1.030 -3.4256  3.3828 -0.5735
    8SOL     MW   32   1.012   1.310   1.033 -0.6044  0.2409 -0.4052
    9SOL     OW   33   1.040   0.471   1.337  0.3047 -0.0732  0.1300
    9SOL    HW1   34   0.964   0.418   1.302  1.0161 -0.2193 -2.4856
    9SOL    HW2   35   1.076   0.430   1.420 -1.2094 -0.8304  3.0242
    9SOL     MW   36   1.034   0.459   1.343  0.1988 -0.1924  0.1668
   10SOL     OW   37   0.317   0.815   0.465  0.1243 -0.6977 -0.1135
   10SOL    HW1   38   0.408   0.834   0.423 -2.1985 -2.1652 -1.1642
   10SOL    HW2   39   0.304   0.862   0.549 -0.6219 -1.4088 -0.5317
   10SOL     MW   40   0.327   0.824   0.470 -0.2807 -0.9851 -0.3073
   11SOL     OW   41   0.874   1.085   1.613 -0.5640 -0.1392  0.0695
   11SOL    HW1   42   0.882   1.093   1.708 -4.6636 -1.3600 -0.4808
   11SOL    HW2   43   0.812   1.006   1.598 -0.5039  1.3132 -0.6118
   11SOL     MW   44   0.867   1.076   1.623 -1.0970 -0.1086 -0.0930
   12SOL     OW   45   0.014   1.156   0.832 -0.1557 -0.1741 -0.3526
   12SOL    HW1   46   0.057   1.210   0.897 -0.4287  2.2569  2.2647
   12SOL    HW2   47  -0.030   1.217   0.773  3.3006  2.4420 -2.9574
   12SOL     MW   48   0.014   1.171   0.833  0.2643  0.4918 -0.3509
   13SOL     OW   49   1.911   1.430   1.376 -0.5977  0.0848 -0.5142
   13SOL    HW1   50   1.930   1.384   1.294 -0.9783 -0.7967 -1.3495
   13SOL    HW2   51   1.869   1.510   1.350  0.3889 -2.9339  0.0014
   13SOL     MW   52   1.908   1.435   1.362 -0.5178 -0.4298 -0.5564
   14SOL     OW   53   0.621   0.327   1.798 -0.2745 -0.1383  0.6290
   14SOL    HW1   54   0.595   0.245   1.760 -0.7983  2.0162  0.7313
   14SOL    HW2   55   0.707   0.325   1.834 -1.5807  0.1105 -0.5408
   14SOL     MW   56   0.629   0.316   1.798 -0.5160  0.1788  0.4881
   15SOL     OW   57   2.000   0.549   0.938  0.2946 -0.2432  0.6785
   15SOL    HW1   58   2.013   0.543   1.035  2.2685  0.8048  0.8224
   15SOL    HW2   59   2.079   0.514   0.894  0.5503  0.4684 -0.1017
   15SOL     MW   60   2.012   0.543   0.945  0.5888 -0.0110  0.5945
   16SOL     OW   61   0.210   1.770   0.334  0.3585 -0.3713 -0.0613
   16SOL    HW1   62   0.294   1.733   0.350 -2.9807 -1.3364  1.5285
   16SOL    HW2   63   0.222   1.870   0.335 -1.0529  0.7216  1.9242
   16SOL     MW   64   0.223   1.778   0.336 -0.2683 -0.3544  0.4104
   17SOL     OW   65   1.072   0.812   1.471 -0.3445 -0.0766  0.5746
   17SOL    HW1   66   1.093   0.835   1.566 -0.7090 -0.2191 -0.0252
   17SOL    HW2   67   0.979   0.775   1.471  0.4197 -1.6852 -1.4561
   17SOL     MW   68   1.063   0.810   1.484 -0.2918 -0.3076  0.2275
   18SOL     OW   69   0.040   1.546   0.415  0.3915 -0.0098 -0.0304
   18SOL    HW1   70   0.083   1.602   0.353 -0.0345 -0.5720  3.5736
   18SOL    HW2   71   0.025   1.468   0.365  0.5922  0.1137 -1.7978
   18SOL     MW   72   0.043   1.543   0.400  0.3618 -0.0677  0.2119
   19SOL     OW   73   0.114   1.315   1.032 -0.1891  0.8300  0.3873
   19SOL    HW1   74   0.141   1.364   0.959 -1.6542 -0.1506  1.6033
   19SOL    HW2   75   0.019   1.331   1.044 -0.9613  1.4389 -2.4111
   19SOL     MW   76   0.105   1.324   1.024 -0.4843  0.7809  0.1786
   20SOL     OW   77   0.464   2.141   1.303  0.1986 -0.7835 -0.0967
   20SOL    HW1   78   0.396   2.076   1.271 -0.9091  0.8322  3.1246
   20SOL    HW2   79   0.409   2.199   1.360 -0.5597  0.6020 -1.9503
   20SOL     MW   80   0.448   2.140   1.306 -0.0476 -0.3875  0.0837
   21SOL     OW   81   0.548   0.891   0.336  0.1020 -0.4283 -0.3437
   21SOL    HW1   82   0.607   0.856   0.399 -1.7745  2.2117  1.2727
   21SOL    HW2   83   0.572   0.844   0.254  3.1148 -1.4891 -0.7293
   21SOL     MW   84   0.559   0.880   0.334  0.2519 -0.2199 -0.1813
   22SOL     OW   85   1.523   0.550   1.136 -0.0234  0.5034 -0.5036
   22SOL    HW1   86   1.574   0.516   1.059  0.7844  1.6154  1.4276
   22SOL    HW2   87   1.473   0.623   1.110 -0.0266  1.8315  1.0841
   22SOL     MW   88   1.523   0.555   1.122  0.0828  0.8254 -0.0393
   23SOL     OW   89   3.043   0.737   0.741  0.5217 -0.0055 -0.1412
   23SOL    HW1   90   3.071   0.643   0.735  1.3339 -0.0830  0.4608
   23SOL    HW2   91   3.125   0.790   0.739 -0.7111 -4.1120 -0.2804
   23SOL     MW   92   3.058   0.732   0.740  0.4662 -0.5575 -0.0801
   24SOL     OW   93   2.026   2.193   0.032  0.2151 -0.3092 -0.1174
   24SOL    HW1   94   2.029   2.178   0.131 -3.0801 -1.1460  1.7772
   24SOL    HW2   95   2.083   2.129  -0.003 -1.1963  1.5444 -0.9686
   24SOL     MW   96   2.034   2.183   0.040 -0.4059 -0.1750  0.0202
   25SOL     OW   97   0.275   1.418   0.538  0.5072 -0.6835 -0.2800
   25SOL    HW1   98   0.208   1.482   0.498 -2.6071  1.1276 -2.1983
   25SOL    HW2   99   0.351   1.428   0.484 -0.2600  0.2864  1.4521
   25SOL     MW  100   0.276   1.428   0.526 -0.0049 -0.3166 -0.3046
   26SOL     OW  101   2.062   0.935   0.411 -0.1227 -0.2597  0.8111
   26SOL    HW1  102   1.983   0.983   0.438 -2.2307  0.2000 -0.4807
   26SOL    HW2  103   2.110   0.990   0.342  3.8041  1.5416  2.4360
   26SOL     MW  104   2.058   0.949   0.405  0.1173  0.0386  0.8551
   27SOL     OW  105   1.983   1.410   0.248  0.0001 -0.4358 -0.2910
   27SOL    HW1  106   1.910   1.375   0.297 -0.5102 -2.1188 -0.3607
   27SOL    HW2  107   2.035   1.468   0.304  1.7911  0.0780 -1.4721
   27SOL     MW  108   1.980   1.413   0.262  0.1691 -0.5900 -0.4560
   28SOL     OW  109   0.397   0.978   1.900  0.2880  0.4630  0.4766
   28SOL    HW1  110   0.331   0.915   1.929 -3.6994  2.5323 -3.8327
   28SOL    HW2  111   0.486   0.934   1.898  2.2584  2.4584  3.5455
   28SOL     MW  112   0.400   0.964   1.903  0.0219  0.9993  0.3130
   29SOL     OW  113   0.245   1.444   0.818  0.1287 -0.3337  0.1014
   29SOL    HW1  114   0.237   1.541   0.827 -2.7675  0.1696  2.1797
   29SOL    HW2  115   0.233   1.424   0.728 -0.1069 -1.7099 -0.6993
   29SOL     MW  116   0.242   1.454   0.807 -0.2845 -0.4489  0.2700
   30SOL     OW  117   0.894   1.037   1.144 -0.0070  0.2673 -0.1597
   30SOL    HW1  118   0.823   1.059   1.209 -0.3869 -1.5690 -1.3119
   30SOL    HW2  119   0.977   1.048   1.195 -1.0475  0.1758  1.5983
   30SOL     MW  120   0.896   1.041   1.159 -0.1944  0.0130 -0.0798
   31SOL     OW  121   0.464   0.279   0.251 -0.1081 -0.1424  0.3398
   31SOL    HW1  122   0.479   0.196   0.306  0.8229  0.3119 -2.4138
   31SOL    HW2  123   0.459   0.245   0.161  0.4094 -0.8385 -3.2267
   31SOL     MW  124   0.465   0.263   0.246  0.0830 -0.1743 -0.4941
   32SOL     OW  125   2.707   1.054   1.107 -0.0174  0.5649 -0.5231
   32SOL    HW1  126   2.685   0.964   1.139  1.4530 -0.5738  1.5148
   32SOL    HW2  127   2.808   1.057   1.106 -0.8376 -0.8260 -0.5798
   32SOL     MW  128   2.718   1.043   1.111  0.0684  0.2311 -0.2617
   33SOL     OW  129   1.737   1.259   0.319 -0.0993  0.5295  0.2745
   33SOL    HW1  130   1.753   1.177   0.365  0.3061  0.7423 -2.2765
   33SOL    HW2  131   1.737   1.316   0.396 -1.5532  0.5937  1.0628
   33SOL     MW  132   1.739   1.256   0.335 -0.2377  0.5660  0.0420
   34SOL     OW  133   1.231   1.853   1.138 -0.2474 -0.6608 -0.6141
   34SOL    HW1  134   1.142   1.893   1.154  3.4586  1.4178 -1.8664
   34SOL    HW2  135   1.294   1.891   1.210  2.3377  0.0431  1.0451
   34SOL     MW  136   1.227   1.863   1.150  0.5827 -0.2937 -0.5604
   35SOL     OW  137   0.360   0.085   1.864 -0.7521  0.4464 -0.6772
   35SOL    HW1  138   0.379   0.009   1.928  0.4588  2.0962  1.8336
   35SOL    HW2  139   0.384   0.048   1.773 -0.2352  0.3906  0.0644
   35SOL     MW  140   0.366   0.070   1.860 -0.5241  0.6567 -0.2481
   36SOL     OW  141   1.901   1.967   0.570 -0.5584  0.0179  0.1147
   36SOL    HW1  142   1.919   1.956   0.477  0.3044  1.4044  0.3006
   36SOL    HW2  143   1.890   1.877   0.602 -0.2599  0.1258  1.1900
   36SOL     MW  144   1.902   1.954   0.562 -0.4051  0.2151  0.2811
   37SOL     OW  145   1.736   2.048   0.972 -0.2858  0.5381  0.0194
   37SOL    HW1  146   1.698   1.984   0.915  2.3509  0.7973  0.4881
   37SOL    HW2  147   1.655   2.058   1.044 -0.3022  1.4468  1.4464
   37SOL     MW  148   1.720   2.041   0.974  0.0599  0.6922  0.2695
   38SOL     OW  149   2.857   0.953   0.196 -0.1914  0.0825 -0.1050
   38SOL    HW1  150   2.889   0.961   0.282  0.1438  0.5478 -1.2463
   38SOL    HW2  151   2.917   0.885   0.156 -0.3356 -1.2894 -0.7184
   38SOL     MW  152   2.869   0.945   0.202 -0.1662 -0.0371 -0.3365
   39SOL     OW  153   1.468   0.685   0.843 -0.0146 -0.3009 -0.6250
   39SOL    HW1  154   1.453   0.593   0.870  0.4492 -0.2861 -0.2259
   39SOL    HW2  155   1.399   0.728   0.889  1.3655  1.3205 -1.2129
   39SOL     MW  156   1.457   0.679   0.853  0.2287 -0.0850 -0.6499
   40SOL     OW  157   1.282   1.877   0.259  0.0145 -0.1529 -0.1610
   40SOL    HW1  158   1.292   1.792   0.305  0.5328  1.4776  1.4018
   40SOL    HW2  159   1.273   1.941   0.329 -2.3707 -0.8189  0.1283
   40SOL     MW  160   1.282   1.874   0.274 -0.2318 -0.0257  0.0834
   41SOL     OW  161   0.592   0.550   1.585  0.0748  0.3300  0.1188
   41SOL    HW1  162   0.680   0.578   1.562  1.5569  0.0614 -3.2852
   41SOL    HW2  163   0.601   0.469   1.634  1.3556 -1.4075 -0.0686
   41SOL     MW  164   0.605   0.543   1.588  0.4394  0.0653 -0.3550
   42SOL     OW  165   1.322   3.089   1.947 -0.1864  0.2295  0.0607
   42SOL    HW1  166   1.232   3.067   1.940  0.8660  0.8585  0.4088
   42SOL    HW2  167   1.364   3.004   1.979 -4.3283 -1.7929 -0.6916
   42SOL     MW  168   1.316   3.075   1.950 -0.5940  0.0457  0.0074
   43SOL     OW  169   1.580   0.226   1.617  0.2044 -0.2490  0.6951
   43SOL    HW1  170   1.633   0.157   1.582  0.7372  0.0164  0.8153
   43SOL    HW2  171   1.496   0.173   1.648 -1.0501 -1.9489  3.8422
   43SOL     MW  172   1.576   0.210   1.617  0.1092 -0.4383  1.1262
   44SOL     OW  173   1.317   0.751   1.106 -0.1038 -0.0272 -0.1699
   44SOL    HW1  174   1.318   0.844   1.121 -0.2514  0.0643 -1.5873
   44SOL    HW2  175   1.284   0.716   1.191 -0.3513  0.3852  1.5164
   44SOL     MW  176   1.313   0.759   1.119 -0.1559  0.0393 -0.1344
   45SOL     OW  177   1.122   0.700   0.764  0.6427 -0.7753 -0.3591
   45SOL    HW1  178   1.112   0.658   0.852  1.7648  0.0659 -1.5663
   45SOL    HW2  179   1.092   0.644   0.691 -3.4561  0.9765 -5.4505
   45SOL     MW  180   1.117   0.687   0.766  0.2499 -0.4332 -1.1902
   46SOL     OW  181   0.582   1.161   0.570 -0.1923 -0.1125 -0.8704
   46SOL    HW1  182   0.566   1.162   0.472 -0.5304  1.3486 -0.0090
   46SOL    HW2  183   0.669   1.120   0.580  1.3262 -1.4047 -1.9286
   46SOL     MW  184   0.591   1.156   0.559 -0.0366 -0.0902 -0.8964
   47SOL     OW  185   0.150   1.927   1.853  0.2271 -0.1711  0.2569
   47SOL    HW1  186   0.197   1.865   1.797 -1.6841  1.3394  2.0278
   47SOL    HW2  187   0.158   1.895   1.943  0.9181 -0.3789 -1.0823
   47SOL     MW  188   0.157   1.915   1.857  0.0661  0.0008  0.3139
   48SOL     OW  189   1.047   0.652   1.031  0.3640 -0.1355 -0.3936
   48SOL    HW1  190   0.956   0.654   1.055  0.9600 -0.2518 -0.6582
   48SOL    HW2  191   1.099   0.721   1.070  0.7648  2.6670  1.6772
   48SOL     MW  192   1.042   0.661   1.039  0.4955  0.2189 -0.1553
   49SOL     OW  193   1.886   0.738   1.598 -0.0406 -0.1209  0.0669
   49SOL    HW1  194   1.851   0.693   1.676  2.5205  0.7508 -3.4819
   49SOL    HW2  195   1.935   0.666   1.552 -1.2994 -0.3633 -0.1772
   49SOL     MW  196   1.888   0.722   1.602  0.1312 -0.0379 -0.4335
   50SOL     OW  197   1.274   0.985   0.520 -0.3858  0.1323  0.0929
   50SOL    HW1  198   1.265   1.018   0.614  0.6508  1.4614 -1.8402
   50SOL    HW2  199   1.319   0.906   0.527 -2.2244  1.3423 -1.5296
   50SOL     MW  200   1.279   0.979   0.533 -0.4916  0.4673 -0.3762
   51SOL     OW  201   0.351   2.847   0.967  0.8041 -0.0245  0.1898
   51SOL    HW1  202   0.444   2.839   0.960 -0.6768 -2.0464  3.9793
   51SOL    HW2  203   0.346   2.924   1.032 -1.2149 -0.2492  1.0963
   51SOL     MW  204   0.363   2.856   0.974  0.3424 -0.3209  0.8094
   52SOL     OW  205   0.818   1.808   0.384  0.1815 -1.0148  0.0092
   52SOL    HW1  206   0.796   1.885   0.431  0.7694 -0.7324 -0.8008
   52SOL    HW2  207   0.776   1.809   0.301  2.6223 -0.6803  0.8822
   52SOL     MW  208   0.810   1.818   0.379  0.5811 -0.9334  0.0175
   53SOL     OW  209   0.452   2.060   0.580  0.5009  0.1455 -0.4517
   53SOL    HW1  210   0.398   2.039   0.493 -1.5846 -0.6727  3.6113
   53SOL    HW2  211   0.460   2.150   0.599  0.1651  0.0447  1.0466
   53SOL     MW  212   0.446   2.069   0.571  0.1814  0.0242  0.2821
   54SOL     OW  213   2.204   0.809   0.917 -0.0096 -0.1596  0.5632
   54SOL    HW1  214   2.222   0.751   0.842 -2.5934 -2.1415  0.9734
   54SOL    HW2  215   2.109   0.830   0.908 -1.3735  0.9733  2.4765
   54SOL     MW  216   2.194   0.804   0.906 -0.5305 -0.2716  0.8698
   55SOL     OW  217   0.543   1.491   1.554 -0.1400 -0.0489 -0.0790
   55SOL    HW1  218   0.470   1.523   1.497 -1.2311 -0.6408 -0.4610
   55SOL    HW2  219   0.608   1.453   1.493 -1.0815  0.1127 -1.1697
   55SOL     MW  220   0.542   1.491   1.538 -0.4082 -0.1057 -0.2733
   56SOL     OW  221   0.568   0.782   0.102  0.6528 -0.2018  0.3142
   56SOL    HW1  222   0.590   0.861   0.047  1.4562 -0.5703  0.9811
   56SOL    HW2  223   0.474   0.787   0.099  3.3643 -0.5467  2.6885
   56SOL     MW  224   0.558   0.793   0.094  1.1166 -0.2959  0.7155
   57SOL     OW  225   1.252   1.218   1.166  0.5071  0.1357  0.0326
   57SOL    HW1  226   1.341   1.252   1.162  0.6031  0.3623 -0.0575
   57SOL    HW2  227   1.243   1.182   1.260 -1.4392  0.6883  1.0671
   57SOL     MW  228   1.262   1.218   1.178  0.2630  0.2385  0.1572
   58SOL     OW  229   0.692   1.110   1.299 -0.2166  0.3652  0.5193
   58SOL    HW1  230   0.658   1.197   1.278 -1.0382 -2.9406 -1.6705
   58SOL    HW2  231   0.670   1.099   1.389  0.1677 -0.3108 -1.0481
   58SOL     MW  232   0.684   1.120   1.308 -0.2743 -0.1602  0.0236
   59SOL     OW  233   1.537   1.637   0.293  0.2661 -0.1437  0.4653
   59SOL    HW1  234   1.601   1.580   0.335 -1.4996  2.2812  1.4254
   59SOL    HW2  235   1.485   1.672   0.371  2.1421 -0.1186  2.0657
   59SOL     MW  236   1.538   1.634   0.308  0.2806  0.1796  0.8031
   60SOL     OW  237   3.077   0.164   1.634  0.0421 -0.4553  0.7827
   60SOL    HW1  238   2.991   0.199   1.616 -1.0588 -2.6083 -1.2129
   60SOL    HW2  239   3.064   0.072   1.631 -0.0864 -0.2231  2.0914
   60SOL     MW  240   3.064   0.156   1.631 -0.1201 -0.7088  0.6921
   61SOL     OW  241   1.993   1.501   0.005 -0.7236 -0.2520  0.4693
   61SOL    HW1  242   1.976   1.484   0.099  0.2632  0.5403  0.5850
   61SOL    HW2  243   2.061   1.445  -0.033  1.4417 -0.9884 -1.8754
   61SOL     MW  244   2.000   1.491   0.013 -0.3077 -0.2446  0.1752
   62SOL     OW  245   0.582   1.627   0.582 -0.2035 -0.3601 -0.0363
   62SOL    HW1  246   0.660   1.619   0.517  2.8459 -1.2593 -2.9737
   62SOL    HW2  247   0.581   1.541   0.624  2.2780  2.8768 -2.4346
   62SOL     MW  248   0.593   1.614   0.579  0.5263 -0.0517 -0.7403
   63SOL     OW  249   1.714   0.729   0.660 -0.2444  0.4628 -0.2451
   63SOL    HW1  250   1.692   0.783   0.586  1.5286 -1.7542 -2.7594
   63SOL    HW2  251   1.636   0.692   0.700 -0.9815 -0.0408 -0.6930
   63SOL     MW  252   1.701   0.731   0.656 -0.1077  0.1039 -0.6360
   64SOL     OW  253   0.244   1.683   0.950 -0.1091 -0.2228 -0.7269
   64SOL    HW1  254   0.320   1.709   0.892  2.8547 -0.1741 -1.9265
   64SOL    HW2  255   0.165   1.720   0.914  1.1329 -3.4559  0.6533
   64SOL     MW  256   0.243   1.691   0.938  0.4458 -0.6430 -0.7031
   65SOL     OW  257   1.542   2.286   0.328  0.0188 -0.1045 -0.3683
   65SOL    HW1  258   1.618   2.226   0.307  1.6920 -1.6472  0.3279
   65SOL    HW2  259   1.577   2.362   0.374 -2.6533  4.1338  1.6260
   65SOL     MW  260   1.557   2.288   0.331 -0.1130  0.2511 -0.0133
   66SOL     OW  261   0.303   0.539   0.519 -0.0905 -0.5112  0.4381
   66SOL    HW1  262   0.375   0.511   0.464 -0.7568 -0.6165 -3.1865
   66SOL    HW2  263   0.303   0.634   0.505  3.1792 -1.3925  0.5234
   66SOL     MW  264   0.312   0.548   0.510  0.2530 -0.6414 -0.0289
   67SOL     OW  265   1.539   0.142   2.032 -0.0729 -0.8781 -0.1124
   67SOL    HW1  266   1.571   0.187   1.956 -2.0308 -0.2175 -1.5337
   67SOL    HW2  267   1.490   0.074   1.992 -0.0974  1.9162  2.2001
   67SOL     MW  268   1.537   0.139   2.017 -0.3344 -0.4222  0.0052
   68SOL     OW  269   0.632   0.078   2.947 -0.1705 -0.0823 -0.5411
   68SOL    HW1  270   0.596   0.089   2.859  0.0633  2.1643 -0.7529
   68SOL    HW2  271   0.642   0.163   2.983  0.0358 -1.5580  1.1559
   68SOL     MW  272   0.628   0.091   2.940 -0.1124  0.0194 -0.3451
   69SOL     OW  273   1.036   0.199   1.945 -0.7698  0.0484  0.2202
   69SOL    HW1  274   1.106   0.246   1.996  0.4883  2.7575 -2.7739
   69SOL    HW2  275   1.026   0.108   1.972 -1.4670  1.2864 -1.4754
   69SOL     MW  276   1.044   0.193   1.955 -0.6958  0.5692 -0.3985
   70SOL     OW  277   0.590   1.817   1.124 -0.3802  0.7846  0.0342
   70SOL    HW1  278   0.603   1.725   1.145  2.4350  0.5336  1.4993
   70SOL    HW2  279   0.647   1.832   1.048 -2.7586  0.8558  2.4802
   70SOL     MW  280   0.600   1.807   1.117 -0.3226  0.7609  0.5502
   71SOL     OW  281   1.754   0.687   1.240 -0.2642 -0.0782  0.1018
   71SOL    HW1  282   1.714   0.737   1.308 -0.1016 -2.0382  0.9523
   71SOL    HW2  283   1.680   0.643   1.194 -2.6869 -2.6474 -0.2842
   71SOL     MW  284   1.739   0.688   1.243 -0.5624 -0.6758  0.1631
   72SOL     OW  285   0.829   1.803   0.967  0.2775 -0.7769 -0.0762
   72SOL    HW1  286   0.822   1.858   0.886  1.8510  0.8083 -0.1146
   72SOL    HW2  287   0.832   1.709   0.951  0.8894  0.9937 -0.1979
   72SOL     MW  288   0.829   1.798   0.954  0.5658 -0.3341 -0.0973
   73SOL     OW  289   1.250   0.660   1.350 -0.8150  0.0637  0.2524
   73SOL    HW1  290   1.199   0.586   1.316 -0.4715 -1.4271  0.7686
   73SOL    HW2  291   1.180   0.707   1.397  0.4054 -2.0918  0.9723
   73SOL     MW  292   1.234   0.656   1.352 -0.6086 -0.4174  0.4155
   74SOL     OW  293   2.782   0.140   1.006  0.5230  0.2529 -0.4635
   74SOL    HW1  294   2.769   0.051   0.972 -1.3447  1.4875  0.4492
   74SOL    HW2  295   2.724   0.199   0.961  1.6366  2.8584 -0.6878
   74SOL     MW  296   2.773   0.136   0.995  0.4235  0.7596 -0.3727
   75SOL     OW  297   1.607   1.318   0.080 -0.4847  0.1574 -0.0620
   75SOL    HW1  298   1.660   1.325   0.161 -0.4805 -1.1059 -1.1487
   75SOL    HW2  299   1.642   1.240   0.041 -1.9545 -0.7895  1.3959
   75SOL     MW  300   1.619   1.309   0.085 -0.6781 -0.1342 -0.0130
   76SOL     OW  301   2.932   0.661   0.466  0.4009 -0.3066  0.0309
   76SOL    HW1  302   2.953   0.678   0.560  0.2735  0.1501  1.9487
   76SOL    HW2  303   3.009   0.604   0.443  0.8884  1.1341 -1.3208
   76SOL     MW  304   2.945   0.656   0.475  0.4484 -0.0563  0.1056
   77SOL     OW  305   0.910   0.429   0.507 -0.2680  0.3007 -0.3321
   77SOL    HW1  306   0.844   0.497   0.494  2.6399  1.5396 -0.9257
   77SOL    HW2  307   0.853   0.347   0.505 -0.6644  2.3434 -1.2155
   77SOL     MW  308   0.894   0.427   0.505  0.0634  0.7336 -0.5270
   78SOL     OW  309   0.780   0.754   1.199 -0.3411  0.0096  0.1443
   78SOL    HW1  310   0.691   0.759   1.160 -1.6415  0.8052 -3.5613
   78SOL    HW2  311   0.817   0.840   1.177  0.3283 -0.5714 -1.6475
   78SOL     MW  312   0.773   0.766   1.191 -0.4244  0.0379 -0.5810
   79SOL     OW  313   1.892   1.691   0.599  1.1801  0.5660  0.1787
   79SOL    HW1  314   1.826   1.629   0.578 -1.2535 -0.7290 -0.9699
   79SOL    HW2  315   1.924   1.679   0.689  2.1981 -0.2791  0.8495
   79SOL     MW  316   1.888   1.681   0.608  0.9933  0.2837  0.1157
   80SOL     OW  317   0.134   0.998   0.308  0.1795  0.5761  0.0648
   80SOL    HW1  318   0.048   0.959   0.344 -2.4665  0.1628 -1.1683
   80SOL    HW2  319   0.209   0.938   0.327 -1.6342 -0.5551  0.7682
   80SOL     MW  320   0.133   0.985   0.315 -0.4089  0.3723 -0.0051
   81SOL     OW  321   1.907   1.898   0.220 -0.5581 -0.5590 -0.0013
   81SOL    HW1  322   1.839   1.860   0.157  1.0670  1.4174 -2.8122
   81SOL    HW2  323   1.887   1.995   0.226 -1.7542  1.4666 -1.0565
   81SOL     MW  324   1.895   1.906   0.212 -0.5015 -0.0310 -0.5114
   82SOL     OW  325   0.812   0.989   0.557 -0.3825  0.5166  0.0314
   82SOL    HW1  326   0.869   0.985   0.475 -0.5763  2.8683  0.6202
   82SOL    HW2  327   0.782   0.893   0.570 -0.7474 -2.4154  1.1880
   82SOL     MW  328   0.816   0.976   0.548 -0.4562  0.4400  0.2617
   83SOL     OW  329   0.121   0.621   1.379  0.1463 -0.2432 -0.1775
   83SOL    HW1  330   0.163   0.693   1.343  2.4534 -0.2028  0.1126
   83SOL    HW2  331   0.187   0.575   1.434  4.2518  1.0065 -0.2533
   83SOL     MW  332   0.135   0.624   1.381  0.9924 -0.0730 -0.1492
   84SOL     OW  333   0.076   0.265   1.011 -0.0145  0.1350 -0.2902
   84SOL    HW1  334  -0.002   0.288   0.956 -0.1114  0.6712 -2.0844
   84SOL    HW2  335   0.052   0.184   1.063  1.9686 -2.9335 -3.4536
   84SOL     MW  336   0.062   0.258   1.010  0.2344 -0.1991 -0.9443
   85SOL     OW  337   0.417   0.440   0.756 -0.0898 -0.0190 -0.3444
   85SOL    HW1  338   0.383   0.466   0.678 -2.9432  0.1836  2.8949
   85SOL    HW2  339   0.404   0.346   0.764  0.1003  2.4844  1.1155
   85SOL     MW  340   0.411   0.431   0.747 -0.4412  0.3381  0.2756
   86SOL     OW  341   1.192   0.437   1.125  0.2171  0.0151 -0.2971
   86SOL    HW1  342   1.147   0.515   1.080  1.6493 -0.4782 -0.8126
   86SOL    HW2  343   1.147   0.420   1.211 -2.1690 -1.1922 -0.1910
   86SOL     MW  344   1.180   0.445   1.130  0.0912 -0.2093 -0.3511
   87SOL     OW  345   1.213   1.481   1.254  0.2913  0.6188 -0.7108
   87SOL    HW1  346   1.237   1.545   1.184  0.7853  1.0831 -0.8244
   87SOL    HW2  347   1.210   1.398   1.214  0.3542  2.2746 -0.2414
   87SOL     MW  348   1.216   1.478   1.240  0.3648  0.8985 -0.6638
   88SOL     OW  349   1.321   1.030   0.996 -0.2786 -0.0355  0.3008
   88SOL    HW1  350   1.410   1.019   1.028 -0.0599 -1.2970  0.2919
   88SOL    HW2  351   1.285   1.102   1.054 -1.3243 -1.5870  1.8389
   88SOL     MW  352   1.328   1.038   1.008 -0.3877 -0.4066  0.5026
   89SOL     OW  353   1.740   0.646   0.337  0.3662  0.8256  0.2477
   89SOL    HW1  354   1.785   0.562   0.332  2.4767 -1.0288  2.6559
   89SOL    HW2  355   1.807   0.702   0.291 -0.2538  0.4853 -2.0586
   89SOL     MW  356   1.755   0.642   0.330  0.5629  0.5360  0.2611
   90SOL     OW  357   0.713   1.195   2.770  0.4172 -0.1450  0.1602
   90SOL    HW1  358   0.795   1.150   2.755 -0.5121  1.1485 -0.0752
   90SOL    HW2  359   0.707   1.229   2.861 -2.1413  2.1676  0.9374
   90SOL     MW  360   0.723   1.193   2.780 -0.0429  0.3308  0.2317
   91SOL     OW  361   2.102   0.667   0.525  0.2238 -0.7326  0.7842
   91SOL    HW1  362   2.102   0.759   0.487  1.5190  1.0240 -1.1409
   91SOL    HW2  363   2.043   0.617   0.469  0.8926  3.0485 -1.0239
   91SOL     MW  364   2.094   0.673   0.513  0.4830 -0.0019  0.2916
   92SOL     OW  365   1.575   0.826   0.436 -0.3496  0.6953 -0.3452
   92SOL    HW1  366   1.522   0.773   0.495 -0.7591 -0.5699  0.0386
   92SOL    HW2  367   1.635   0.763   0.392 -0.9153  3.2076  1.1935
   92SOL     MW  368   1.576   0.810   0.438 -0.4782  0.8598 -0.0915
   93SOL     OW  369   1.075   0.263   0.343 -0.3570  0.7303 -0.4317
   93SOL    HW1  370   0.995   0.318   0.352 -1.1952 -0.2451  1.5041
   93SOL    HW2  371   1.108   0.287   0.258  1.6048 -0.5956  0.9071
   93SOL     MW  372   1.069   0.274   0.333 -0.2088  0.4266  0.0004
   94SOL     OW  373   1.925   1.312   1.661 -0.2081 -0.0346 -0.1583
   94SOL    HW1  374   1.944   1.307   1.572 -2.0879  0.4554  1.5900
   94SOL    HW2  375   1.901   1.226   1.686 -3.6153 -0.1217  2.4268
   94SOL     MW  376   1.924   1.300   1.653 -0.9057  0.0186  0.4134
   95SOL     OW  377   0.827   1.528   0.970 -0.7073 -0.1153 -0.2240
   95SOL    HW1  378   0.896   1.467   0.976  0.6433  1.2322  0.4649
   95SOL    HW2  379   0.769   1.525   1.048 -3.4739  1.1982  1.6215
   95SOL     MW  380   0.829   1.520   0.981 -0.8942  0.2358  0.1104
   96SOL     OW  381   1.243   1.809   1.590 -0.1048  0.1095  0.3390
   96SOL    HW1  382   1.153   1.804   1.590  0.8110 -2.6277 -1.0881
   96SOL    HW2  383   1.279   1.750   1.526  1.1215  1.5725 -0.2183
   96SOL     MW  384   1.236   1.801   1.582  0.1778 -0.0586  0.0772
   97SOL     OW  385   1.241   1.393   0.818 -0.7560  0.4636 -0.0719
   97SOL    HW1  386   1.276   1.432   0.893 -3.1082  1.2730 -0.1613
   97SOL    HW2  387   1.165   1.446   0.796 -0.0371 -0.8789 -0.7094
   97SOL     MW  388   1.236   1.405   0.825 -0.9715  0.3932 -0.1678
   98SOL     OW  389   1.520   1.315   1.153 -0.0887 -0.4590 -0.5823
   98SOL    HW1  390   1.558   1.397   1.186  1.0125 -0.3809 -0.2919
   98SOL    HW2  391   1.523   1.327   1.057 -1.1698 -1.5619 -0.6105
   98SOL     MW  392   1.526   1.327   1.144 -0.0860 -0.5942 -0.5477
   99SOL     OW  393   1.530   0.325   1.285 -0.2367 -0.2027  0.6149
   99SOL    HW1  394   1.505   0.393   1.229  1.2824 -0.6980 -2.3706
   99SOL    HW2  395   1.509   0.356   1.376  0.0466  1.6038  1.4697
   99SOL     MW  396   1.524   0.338   1.290  0.0011 -0.0297  0.3338
  100SOL     OW  397   1.049   1.078   1.384 -0.4949  0.2643  1.0679
  100SOL    HW1  398   0.986   1.092   1.455  0.0386 -1.3243  0.8325
  100SOL    HW2  399   1.069   0.983   1.391  0.2178  0.6109  0.4837
  100SOL     MW  400   1.043   1.067   1.394 -0.3305  0.1004  0.9598
  101SOL     OW  401   0.618   1.157   0.296  0.4385 -0.2947 -0.6859
  101SOL    HW1  402   0.602   1.059   0.313 -0.5626 -1.4826 -0.2498
  101SOL    HW2  403   0.593   1.168   0.208  0.2906  1.1853  1.2205
  101SOL     MW  404   0.613   1.145   0.287  0.2869 -0.2562 -0.3768
  102SOL     OW  405   2.955   0.594   0.994  0.1304  0.0593  0.2072
  102SOL    HW1  406   3.023   0.645   0.946 -2.7386 -1.4106  2.7104
  102SOL    HW2  407   2.991   0.566   1.077 -0.9987  1.2674 -0.7099
  102SOL     MW  408   2.969   0.597   0.998 -0.3971  0.0248  0.4165
  103SOL     OW  409   1.622   0.368   1.868  0.4054  0.3443  0.0830
  103SOL    HW1  410   1.619   0.325   1.776  0.3468 -0.9100 -1.1041
  103SOL    HW2  411   1.711   0.366   1.897 -2.4766  2.1479 -1.6920
  103SOL     MW  412   1.634   0.362   1.860  0.0174  0.4168 -0.3079
  104SOL     OW  413   0.144   1.855   1.400  0.9951  0.1497 -0.2481
  104SOL    HW1  414   0.225   1.812   1.381  0.6991  3.9296  0.8118
  104SOL    HW2  415   0.067   1.803   1.385 -1.4450 -2.0430 -0.8498
  104SOL     MW  416   0.145   1.843   1.396  0.6341  0.3591 -0.1876
  105SOL     OW  417   0.177   1.149   0.557  0.3051  0.5723 -0.0280
  105SOL    HW1  418   0.182   1.112   0.468 -0.9832 -0.9786  3.1335
  105SOL    HW2  419   0.205   1.244   0.554 -1.3233  1.1622  1.8882
  105SOL     MW  420   0.181   1.156   0.545 -0.0798  0.4455  0.6419
  106SOL     OW  421   0.850   0.329   0.933  0.3993  0.0144 -0.0977
  106SOL    HW1  422   0.791   0.388   0.889  1.7366 -0.0813  1.0013
  106SOL    HW2  423   0.931   0.334   0.886  1.0369 -0.5334  2.0155
  106SOL     MW  424   0.853   0.337   0.921  0.6598 -0.0705  0.3261
  107SOL     OW  425   0.806   2.194   3.031  0.4206 -0.0110 -0.2150
  107SOL    HW1  426   0.772   2.120   2.976 -0.3302 -0.2479 -0.4044
  107SOL    HW2  427   0.881   2.152   3.080 -2.4241 -4.1812  1.0631
  107SOL     MW  428   0.811   2.178   3.030 -0.0538 -0.5925 -0.0714
  108SOL     OW  429   1.391   1.596   1.437 -0.5376  0.3584 -0.5517
  108SOL    HW1  430   1.342   1.538   1.382 -1.7442  0.0252  0.1190
  108SOL    HW2  431   1.464   1.538   1.465 -3.4591  0.7409 -2.1693
  108SOL     MW  432   1.394   1.581   1.433 -1.0822  0.3649 -0.6767
  109SOL     OW  433   1.948   0.760   0.216 -0.5306 -0.2992 -0.4798
  109SOL    HW1  434   1.984   0.777   0.134  0.0421 -0.5012  1.8130
  109SOL    HW2  435   1.997   0.817   0.282 -1.2442  2.5515  0.8468
  109SOL     MW  436   1.959   0.770   0.214 -0.5492  0.0503 -0.0023
  110SOL     OW  437   0.418   1.801   0.698  0.2621  0.3261  0.1070
  110SOL    HW1  438   0.472   1.728   0.667 -1.2090 -1.0340  2.0136
  110SOL    HW2  439   0.414   1.867   0.630  0.3942  1.4658 -2.3725
  110SOL     MW  440   0.424   1.800   0.685  0.0855  0.2970  0.0314
  111SOL     OW  441   0.730   0.861   1.508  0.0034 -0.5868  0.2611
  111SOL    HW1  442   0.753   0.808   1.432 -0.9682 -0.9081 -1.5196
  111SOL    HW2  443   0.647   0.820   1.535  0.5773  0.7924  1.9979
  111SOL     MW  444   0.722   0.849   1.502 -0.0491 -0.4473  0.2553
  112SOL     OW  445   1.312   1.092   1.682  0.3213 -0.9570  1.0888
  112SOL    HW1  446   1.259   1.173   1.711  1.0981  0.9922 -1.7457
  112SOL    HW2  447   1.254   1.015   1.664 -0.6869  3.0776  1.1651
  112SOL     MW  448   1.297   1.092   1.683  0.2907 -0.1675  0.7249
  113SOL     OW  449   1.382   0.086   1.701  0.0379 -0.8785  0.2694
  113SOL    HW1  450   1.363   0.044   1.789 -1.0427 -1.7639 -1.2623
  113SOL    HW2  451   1.355   0.019   1.636 -0.7222  0.0687  2.8206
  113SOL     MW  452   1.376   0.072   1.704 -0.2050 -0.8703  0.4039
  114SOL     OW  453   0.459   2.805   1.828  0.4365  0.2072  0.2008
  114SOL    HW1  454   0.446   2.861   1.906  1.6654  1.9310  0.9259
  114SOL    HW2  455   0.434   2.856   1.749 -0.8923  0.4918 -1.6027
  114SOL     MW  456   0.454   2.819   1.828  0.4233  0.4722  0.0585
  115SOL     OW  457   0.462   0.829   1.106 -0.1732 -0.6347  0.5831
  115SOL    HW1  458   0.468   0.739   1.081  1.2153  1.7543 -0.4761
  115SOL    HW2  459   0.461   0.827   1.203 -0.2700  0.5503  2.2418
  115SOL     MW  460   0.462   0.817   1.116 -0.0028 -0.1632  0.6622
  116SOL     OW  461   0.766   1.013   0.909  0.0241  0.1662 -0.1836
  116SOL    HW1  462   0.821   1.079   0.863 -3.4463  1.9028  1.4901
  116SOL    HW2  463   0.812   1.017   0.991 -0.1547  0.1137  1.9003
  116SOL     MW  464   0.779   1.022   0.914 -0.4574  0.3884  0.3122
  117SOL     OW  465   1.223   1.130   0.764  0.0970 -0.6868 -0.5913
  117SOL    HW1  466   1.241   1.085   0.848  1.1711  2.2951 -3.5786
  117SOL    HW2  467   1.226   1.226   0.785 -0.8215 -0.0345 -1.9166
  117SOL     MW  468   1.226   1.136   0.778  0.1175 -0.2073 -1.1603
  118SOL     OW  469   3.066   2.983   1.703 -0.8080  0.7926 -0.9672
  118SOL    HW1  470   3.099   3.018   1.787 -2.4800  0.5451  2.4781
  118SOL    HW2  471   2.970   2.989   1.701  0.8513 -2.4307  0.4126
  118SOL     MW  472   3.057   2.988   1.714 -0.8097  0.3347 -0.3306
  119SOL     OW  473   0.555   1.325   1.205 -0.5238  0.1299 -0.2758
  119SOL    HW1  474   0.535   1.328   1.110  1.0777 -0.3227  0.1574
  119SOL    HW2  475   0.479   1.278   1.240 -1.5004 -0.0333  4.3568
  119SOL     MW  476   0.542   1.319   1.197 -0.4414  0.0487  0.3926
  120SOL     OW  477   0.216   0.684   0.926  0.0446  0.2234  0.0400
  120SOL    HW1  478   0.248   0.621   0.994 -3.0082  0.4163  1.1495
  120SOL    HW2  479   0.210   0.762   0.974 -1.7004 -1.0416 -0.9968
  120SOL     MW  480   0.219   0.686   0.941 -0.5884  0.0819  0.0496
  121SOL     OW  481   1.817   1.034   1.709  0.4077  0.2691  0.0452
  121SOL    HW1  482   1.722   1.028   1.710 -1.5751 -0.4322 -2.1032
  121SOL    HW2  483   1.833   0.945   1.672  0.3164 -0.9299 -1.7121
  121SOL     MW  484   1.807   1.021   1.704  0.1341  0.0183 -0.4701
  122SOL     OW  485   0.096   0.513   0.748 -0.3253  0.0688  0.3745
  122SOL    HW1  486   0.173   0.473   0.707  0.2053 -0.7009  1.2025
  122SOL    HW2  487   0.137   0.572   0.809 -0.1799  0.4014  1.1439
  122SOL     MW  488   0.111   0.515   0.751 -0.2361  0.0111  0.5852
  123SOL     OW  489   1.784   1.026   0.476 -0.0454 -0.1613 -0.1507
  123SOL    HW1  490   1.713   0.961   0.457 -2.8651  0.7339  0.9847
  123SOL    HW2  491   1.803   1.025   0.575  1.9343  0.6196  0.0951
  123SOL     MW  492   1.777   1.018   0.487 -0.1563  0.0599  0.0316
  124SOL     OW  493   0.659   0.517   0.841 -0.2332  0.1541  0.4910
  124SOL    HW1  494   0.565   0.496   0.807  0.8245  0.6574  0.1620
  124SOL    HW2  495   0.679   0.608   0.817 -1.9820 -1.9567  0.1697
  124SOL     MW  496   0.649   0.526   0.833 -0.3244 -0.0580  0.4052
  125SOL     OW  497   0.688   1.701   1.668  0.1418  1.0244  0.2793
  125SOL    HW1  498   0.637   1.621   1.623 -0.2104  0.3160 -2.3133
  125SOL    HW2  499   0.643   1.789   1.662  0.7691  2.0689  1.4674
  125SOL     MW  500   0.675   1.702   1.661  0.1781  1.0688  0.0940
  126SOL     OW  501   2.128   1.613   1.964 -0.4701 -0.1956  0.2118
  126SOL    HW1  502   2.181   1.697   1.951  0.6290  0.1878  0.9416
  126SOL    HW2  503   2.187   1.547   1.995 -0.3537  0.6451  1.2853
  126SOL     MW  504   2.143   1.615   1.966 -0.3097 -0.0341  0.4497
  127SOL     OW  505   0.618   0.727   1.892  0.2096  0.2246 -0.1786
  127SOL    HW1  506   0.692   0.676   1.903 -2.3574  1.4827 -1.1262
  127SOL    HW2  507   0.658   0.815   1.915  1.5771  1.7185 -2.0440
  127SOL     MW  508   0.633   0.732   1.897  0.0513  0.5877 -0.5498
  128SOL     OW  509   1.795   0.755   2.884  0.9832 -0.4787  0.1767
  128SOL    HW1  510   1.804   0.724   2.795 -2.4442 -0.0618  0.6731
  128SOL    HW2  511   1.761   0.846   2.867  2.7462 -0.5027 -1.2886
  128SOL     MW  512   1.792   0.763   2.870  0.7636 -0.4269  0.0488
  129SOL     OW  513   1.492   0.970   0.215 -0.3857  0.3531  0.1531
  129SOL    HW1  514   1.439   0.902   0.176  4.5933  0.9533 -0.6931
  129SOL    HW2  515   1.521   0.939   0.302  1.8818 -1.9574 -1.6937
  129SOL     MW  516   1.489   0.957   0.221  0.5704  0.1274 -0.2022
  130SOL     OW  517   0.749   1.479   0.372  0.0979 -0.1457 -0.1338
  130SOL    HW1  518   0.792   1.446   0.458  1.2542 -0.6951  2.3664
  130SOL    HW2  519   0.828   1.505   0.320  0.9179  1.5062 -0.3048
  130SOL     MW  520   0.765   1.478   0.376  0.3586 -0.0002  0.1735
  131SOL     OW  521   3.051   0.770   0.070  0.4046  0.2847  0.5313
  131SOL    HW1  522   3.089   0.833  -0.003  2.0719  2.9435 -1.4362
  131SOL    HW2  523   3.125   0.756   0.127 -1.6980 -0.5753 -1.8006
  131SOL     MW  524   3.066   0.777   0.068  0.3472  0.5220 -0.0360
  132SOL     OW  525   2.761   0.153   1.271  0.2108 -0.0510 -0.1503
  132SOL    HW1  526   2.771   0.155   1.175  0.4409  0.5186  0.6451
  132SOL    HW2  527   2.665   0.134   1.285 -0.3669  1.5694 -0.7283
  132SOL     MW  528   2.750   0.150   1.260  0.1650  0.2379 -0.1216
  133SOL     OW  529   1.123   0.187   1.697  0.0585 -0.1049  0.2287
  133SOL    HW1  530   1.206   0.140   1.685  1.0632  0.7992  0.3063
  133SOL    HW2  531   1.101   0.176   1.788  0.3140 -1.6884 -0.9278
  133SOL     MW  532   1.131   0.179   1.707  0.2248 -0.1946  0.0863
  134SOL     OW  533   1.364   2.507   1.392 -0.6692 -0.2240  0.5728
  134SOL    HW1  534   1.283   2.566   1.382  2.3755  0.2945 -0.2340
  134SOL    HW2  535   1.405   2.532   1.482 -0.2729  0.6677  0.2090
  134SOL     MW  536   1.359   2.518   1.403 -0.2152 -0.0380  0.4184
  135SOL     OW  537   3.031   0.970   2.972  0.0727  0.1161 -0.1697
  135SOL    HW1  538   3.096   1.037   2.961 -2.5831 -0.3844 -1.4250
  135SOL    HW2  539   2.952   1.011   3.025 -1.7344  0.6374  3.0722
  135SOL     MW  540   3.029   0.984   2.977 -0.5162  0.1189  0.0924
  136SOL     OW  541   0.290   2.008   0.851  0.1323  0.4789  0.2724
  136SOL    HW1  542   0.226   1.947   0.809  2.9299 -4.9623  0.5446
  136SOL    HW2  543   0.375   1.984   0.814 -2.6066 -0.3336  1.5461
  136SOL     MW  544   0.293   1.997   0.841  0.1400 -0.3462  0.4764
  137SOL     OW  545   0.715   2.012   0.552  1.1324  0.0259 -0.3669
  137SOL    HW1  546   0.725   2.009   0.648 -0.5859  2.0422  2.1441
  137SOL    HW2  547   0.620   2.033   0.541 -1.3301 -1.5425 -0.6977
  137SOL     MW  548   0.704   2.014   0.563  0.5808  0.0850 -0.0792
  138SOL     OW  549   0.532   0.567   1.081  0.1771 -0.1551  0.1665
  138SOL    HW1  550   0.446   0.532   1.069  2.1565  0.9515  0.9237
  138SOL    HW2  551   0.589   0.546   1.000  4.1773 -1.8366  1.9162
  138SOL     MW  552   0.528   0.559   1.069  0.9660 -0.2309  0.4973
  139SOL     OW  553   2.732   0.487   1.410 -0.3203 -0.6801 -0.0005
  139SOL    HW1  554   2.782   0.443   1.338 -0.2813  0.0329 -2.5944
  139SOL    HW2  555   2.780   0.569   1.438  1.2391 -0.2006  2.0497
  139SOL     MW  556   2.745   0.492   1.404 -0.1094 -0.5228 -0.0723
  140SOL     OW  557   0.865   0.341   2.111  0.0457  0.5468 -0.7946
  140SOL    HW1  558   0.920   0.296   2.049 -0.3806 -1.3585 -0.2140
  140SOL    HW2  559   0.880   0.314   2.199  0.5975  2.8421  0.9745
  140SOL     MW  560   0.874   0.332   2.114  0.0622  0.5983 -0.4846
  141SOL     OW  561   1.005   0.619   1.746  0.0719 -0.0025 -0.5288
  141SOL    HW1  562   1.059   0.543   1.706  1.7927  0.3553 -1.0272
  141SOL    HW2  563   1.070   0.688   1.741  1.6623  0.6980 -0.6132
  141SOL     MW  564   1.021   0.618   1.740  0.5088  0.1371 -0.6057
  142SOL     OW  565   0.935   1.171   0.759  0.5239  0.7759  0.2770
  142SOL    HW1  566   0.910   1.117   0.681  1.3447  0.5890 -1.9878
  142SOL    HW2  567   1.032   1.147   0.778 -1.5801 -0.4295 -1.5536
  142SOL     MW  568   0.944   1.161   0.751  0.3546  0.5922 -0.2633
  143SOL     OW  569   1.874   0.906   1.115 -0.3702 -0.1239 -0.2115
  143SOL    HW1  570   1.876   0.883   1.023 -0.9104 -0.9096  0.5646
  143SOL    HW2  571   1.829   0.832   1.155 -1.4358  0.3211  0.2455
  143SOL     MW  572   1.868   0.893   1.108 -0.5821 -0.1689 -0.0488
  144SOL     OW  573   0.143   1.170   1.539  0.4826 -0.3397  0.0535
  144SOL    HW1  574   0.210   1.142   1.476  2.4198  0.7183  0.5805
  144SOL    HW2  575   0.185   1.182   1.626 -1.2196  0.6355 -0.4570
  144SOL     MW  576   0.157   1.168   1.542  0.5136 -0.0714  0.0557
  145SOL     OW  577   0.275   0.484   1.089 -0.8616 -0.3684 -0.4776
  145SOL    HW1  578   0.293   0.459   1.176  0.7572  2.1087 -1.4369
  145SOL    HW2  579   0.230   0.411   1.034  0.6494 -0.1188 -1.1209
  145SOL     MW  580   0.271   0.471   1.093 -0.4487 -0.0086 -0.6890
  146SOL     OW  581   0.900   1.884   1.373 -0.0221 -0.0902 -0.2078
  146SOL    HW1  582   0.950   1.925   1.292 -0.2732  3.5914 -0.1001
  146SOL    HW2  583   0.809   1.913   1.351 -2.2184 -0.0470  1.1440
  146SOL     MW  584   0.894   1.893   1.359 -0.3450  0.4013 -0.0152
  147SOL     OW  585   0.385   0.441   2.878 -0.1629 -0.3676  0.8235
  147SOL    HW1  586   0.338   0.458   2.956  1.7903 -0.2139 -1.7438
  147SOL    HW2  587   0.349   0.489   2.804  0.4879 -0.0246 -0.4982
  147SOL     MW  588   0.374   0.450   2.878  0.1807 -0.3021  0.3104
  148SOL     OW  589   0.029   0.935   1.318 -0.3501 -0.1630  0.2793
  148SOL    HW1  590   0.121   0.932   1.315  0.1029 -0.3551  1.1503
  148SOL    HW2  591   0.005   0.953   1.414 -2.0614  0.9123  2.7521
  148SOL     MW  592   0.038   0.937   1.330 -0.5161 -0.0465  0.7205
  149SOL     OW  593   1.419   1.145   1.426 -0.1760  0.9396  0.5530
  149SOL    HW1  594   1.383   1.127   1.518 -0.9702 -0.3802  2.3584
  149SOL    HW2  595   1.499   1.199   1.442  0.2854  2.3815 -2.0185
  149SOL     MW  596   1.425   1.149   1.440 -0.2199  0.9557  0.4519
  150SOL     OW  597   1.817   1.312   0.777 -0.0383 -0.8600  0.5973
  150SOL    HW1  598   1.849   1.224   0.777  0.7868  0.6680  0.8432
  150SOL    HW2  599   1.893   1.361   0.794  0.3912  0.5463 -2.0586
  150SOL     MW  600   1.831   1.307   0.779  0.1272 -0.4728  0.2793
  151SOL     OW  601   1.624   1.806   0.854  0.2220  0.4268  0.2150
  151SOL    HW1  602   1.574   1.789   0.775  3.4151  0.3435 -0.3020
  151SOL    HW2  603   1.591   1.736   0.914 -0.6944  2.1817 -0.4196
  151SOL     MW  604   1.613   1.795   0.852  0.5224  0.6473  0.0631
  152SOL     OW  605   0.793   1.360   1.533  0.2260 -0.0660 -0.2864
  152SOL    HW1  606   0.792   1.282   1.596  1.3127 -1.1476  1.3048
  152SOL    HW2  607   0.886   1.369   1.512 -1.4183 -0.2635  1.3895
  152SOL     MW  608   0.805   1.351   1.539  0.1524 -0.2348  0.1446
  153SOL     OW  609   2.671   1.234   0.711  0.0042  0.0367  0.4431
  153SOL    HW1  610   2.736   1.186   0.655  2.5790 -2.2250  2.2765
  153SOL    HW2  611   2.592   1.167   0.716  1.1470  0.5087  0.7082
  153SOL     MW  612   2.669   1.219   0.704  0.4947 -0.1995  0.7200
  154SOL     OW  613   0.328   1.771   1.688  0.0309 -0.1563  0.1136
  154SOL    HW1  614   0.332   1.735   1.595  2.3559 -1.6717 -2.4455
  154SOL    HW2  615   0.364   1.705   1.748  0.8910 -0.7080 -2.1739
  154SOL     MW  616   0.333   1.758   1.684  0.4511 -0.4290 -0.5258
  155SOL     OW  617   1.109   0.700   0.312  0.0198 -0.7238  0.0559
  155SOL    HW1  618   1.108   0.645   0.391 -0.1547  0.6871  2.4236
  155SOL    HW2  619   1.078   0.788   0.343 -0.9871 -0.7064  1.5716
  155SOL     MW  620   1.105   0.705   0.326 -0.1360 -0.5353  0.5683
  156SOL     OW  621   1.486   3.029   1.037 -0.0860  0.0306 -0.0827
  156SOL    HW1  622   1.559   3.091   1.038 -1.7370 -2.3977 -0.3731
  156SOL    HW2  623   1.498   2.970   1.111 -1.4004  0.2363 -0.6168
  156SOL     MW  624   1.497   3.029   1.047 -0.4772 -0.2626 -0.1915
  157SOL     OW  625   1.358   1.230   0.136 -0.1193  0.1670  0.2874
  157SOL    HW1  626   1.398   1.141   0.150  0.0843 -2.5797  1.1084
  157SOL    HW2  627   1.437   1.277   0.108 -0.2771 -2.5301  1.1612
  157SOL     MW  628   1.374   1.225   0.134 -0.1133 -0.5513  0.5110
  158SOL     OW  629   0.402   1.675   2.270  0.6147  0.0230 -0.1768
  158SOL    HW1  630   0.369   1.690   2.182  2.8420  1.1368 -0.1081
  158SOL    HW2  631   0.319   1.652   2.309 -1.2926  2.1504 -0.4463
  158SOL     MW  632   0.386   1.674   2.263  0.6569  0.4506 -0.2033
  159SOL     OW  633   1.319   1.658   0.451  0.1648 -0.1532 -0.0410
  159SOL    HW1  634   1.292   1.574   0.417  3.3985  3.3055 -2.5034
  159SOL    HW2  635   1.237   1.696   0.492 -1.8580 -2.5728  2.4479
  159SOL     MW  636   1.305   1.652   0.452  0.3245 -0.0161 -0.0375
  160SOL     OW  637   0.454   1.073   1.549  0.1436  0.3142  0.2384
  160SOL    HW1  638   0.466   0.989   1.592 -1.7614 -0.8900 -1.9137
  160SOL    HW2  639   0.476   1.133   1.617  3.0560 -1.3172  0.3934
  160SOL     MW  640   0.459   1.070   1.563  0.2766 -0.0599 -0.0251
  161SOL     OW  641   0.576   2.111   2.710 -0.4214 -0.4729 -0.1087
  161SOL    HW1  642   0.493   2.120   2.756  0.3650  0.2662  0.8487
  161SOL    HW2  643   0.557   2.098   2.622  1.8611  2.8465  1.6788
  161SOL     MW  644   0.563   2.111   2.705 -0.0165  0.0626  0.2534
  162SOL     OW  645   1.004   1.686   1.794 -0.4825 -0.2405 -0.3192
  162SOL    HW1  646   1.032   1.778   1.824 -3.7760 -0.4099  0.5249
  162SOL    HW2  647   0.915   1.668   1.813  2.4392 -4.2872 -1.1176
  162SOL     MW  648   0.996   1.696   1.800 -0.5315 -0.7968 -0.3132
  163SOL     OW  649   2.115   0.172   0.961 -0.0786  0.6780 -0.3822
  163SOL    HW1  650   2.089   0.196   0.874 -0.0316 -0.1148  3.7302
  163SOL    HW2  651   2.059   0.100   0.989  0.8871  0.1718  0.4371
  163SOL     MW  652   2.104   0.165   0.953  0.0550  0.5066  0.2685
  164SOL     OW  653   0.244   0.215   0.804 -0.0162  0.4760 -0.7036
  164SOL    HW1  654   0.185   0.233   0.881 -3.1028  0.1023  1.1962
  164SOL    HW2  655   0.219   0.128   0.774  2.9409  0.9003 -0.6574
  164SOL     MW  656   0.233   0.206   0.810 -0.0333  0.4827 -0.4469
  165SOL     OW  657   1.367   1.232   0.409 -0.0199  0.3626  0.3371
  165SOL    HW1  658   1.347   1.148   0.450 -0.8413  0.5265 -2.3616
  165SOL    HW2  659   1.390   1.219   0.319  0.9752  2.1453 -0.6722
  165SOL     MW  660   1.367   1.219   0.403  0.0030  0.6194 -0.1521
  166SOL     OW  661   0.488   1.080   0.967 -0.5359 -0.1535 -0.6638
  166SOL    HW1  662   0.465   1.008   1.028  2.0498 -2.2956  1.4706
  166SOL    HW2  663   0.584   1.075   0.957 -0.1533 -2.2591  2.2481
  166SOL     MW  664   0.497   1.070   0.973 -0.1442 -0.7139  0.0020
  167SOL     OW  665   0.896   1.140   0.259 -0.5528 -0.1562 -0.1303
  167SOL    HW1  666   0.806   1.154   0.267 -1.4112 -0.6136  1.5491
  167SOL    HW2  667   0.929   1.181   0.175  2.7545  3.7911  0.3360
  167SOL     MW  668   0.889   1.147   0.249 -0.2297  0.3043  0.1528
  168SOL     OW  669   1.710   1.741   2.883  0.0572 -0.1166 -0.2439
  168SOL    HW1  670   1.622   1.774   2.870 -0.6647  0.9292 -0.0065
  168SOL    HW2  671   1.700   1.650   2.932 -1.7964  0.4448  1.0552
  168SOL     MW  672   1.697   1.734   2.888 -0.2826  0.0955 -0.0412
  169SOL     OW  673   0.318   0.951   1.335  0.6525  0.1187  0.1573
  169SOL    HW1  674   0.386   0.987   1.397  0.1777  1.3304 -0.4524
  169SOL    HW2  675   0.327   1.013   1.261 -2.4105  0.4025 -1.7197
  169SOL     MW  676   0.328   0.964   1.334  0.1857  0.3160 -0.1708
  170SOL     OW  677   1.038   1.464   1.481  0.7440 -0.2450 -0.2977
  170SOL    HW1  678   0.972   1.539   1.479 -2.0772  1.9781  1.4860
  170SOL    HW2  679   1.075   1.461   1.395 -0.9918  0.1734  2.0155
  170SOL     MW  680   1.034   1.474   1.469  0.1427  0.1035  0.2428
  171SOL     OW  681   0.616   1.384   0.711  0.4550  0.2523  0.1215
  171SOL    HW1  682   0.555   1.377   0.788 -1.0658  1.8821 -0.5539
  171SOL    HW2  683   0.592   1.307   0.663 -0.9994  0.5536  1.1871
  171SOL     MW  684   0.605   1.373   0.715  0.0624  0.5071  0.1730
  172SOL     OW  685   0.854   0.324   1.213  0.3542 -0.1700 -0.1970
  172SOL    HW1  686   0.861   0.322   1.113  2.4728 -0.7419 -0.4341
  172SOL    HW2  687   0.761   0.356   1.233  2.0800 -0.8629 -0.4647
  172SOL     MW  688   0.843   0.328   1.202  0.8614 -0.3368 -0.2636
  173SOL     OW  689   0.481   1.710   0.342  0.0050  0.9393  0.7710
  173SOL    HW1  690   0.461   1.620   0.308  1.4166 -0.0154 -1.7509
  173SOL    HW2  691   0.501   1.701   0.434  0.4166  1.5981  0.4270
  173SOL     MW  692   0.481   1.697   0.349  0.2456  0.9003  0.3929
  174SOL     OW  693   2.036   0.941   1.493 -0.5705 -0.0543 -0.3238
  174SOL    HW1  694   1.984   0.871   1.539 -3.1167 -1.3190  3.1382
  174SOL    HW2  695   1.977   1.007   1.461 -0.0857 -2.1768  1.6596
  174SOL     MW  696   2.021   0.941   1.495 -0.8425 -0.5012  0.3947
  175SOL     OW  697   0.463   1.433   0.325  0.9513  0.4092 -0.5029
  175SOL    HW1  698   0.439   1.401   0.241  1.4104 -1.4441 -1.3851
  175SOL    HW2  699   0.549   1.403   0.339 -0.5580 -1.7416  1.5284
  175SOL     MW  700   0.471   1.425   0.316  0.8127 -0.1191 -0.3513
  176SOL     OW  701   0.304   1.197   1.246 -0.0711  0.3534 -0.3182
  176SOL    HW1  702   0.258   1.206   1.159 -0.8473 -0.3949 -1.7381
  176SOL    HW2  703   0.272   1.280   1.288  3.5978 -0.0150 -4.1620
  176SOL     MW  704   0.293   1.209   1.240  0.3105  0.2060 -1.0127
  177SOL     OW  705   0.623   0.460   1.303 -0.2051 -0.3385  0.1416
  177SOL    HW1  706   0.581   0.514   1.224 -2.3280 -0.3750 -0.1799
  177SOL    HW2  707   0.635   0.511   1.380  0.4025  0.8134 -0.0425
  177SOL     MW  708   0.619   0.474   1.303 -0.4050 -0.1914  0.0749
  178SOL     OW  709   3.096   0.423   2.949 -0.1624 -0.4223  0.0228
  178SOL    HW1  710   3.039   0.466   3.021 -1.1286 -2.3394 -0.2371
  178SOL    HW2  711   3.040   0.427   2.870  2.6453  0.5210  0.8922
  178SOL     MW  712   3.081   0.429   2.948  0.0806 -0.5508  0.1032
  179SOL     OW  713   1.632   1.316   1.488  0.2965 -0.6406 -0.1514
  179SOL    HW1  714   1.613   1.378   1.561  0.7070  2.1524  2.1621
  179SOL    HW2  715   1.725   1.298   1.509  1.8575  0.2254 -1.4754
  179SOL     MW  716   1.642   1.322   1.501  0.5566 -0.1579 -0.0208
  180SOL     OW  717   3.034   0.283   0.479 -0.3162 -0.4479 -0.1700
  180SOL    HW1  718   3.001   0.269   0.386 -1.1894 -0.8669 -2.6332
  180SOL    HW2  719   3.083   0.363   0.474  0.6226 -0.6246 -1.5068
  180SOL     MW  720   3.036   0.292   0.466 -0.3076 -0.5265 -0.6714
  181SOL     OW  721   1.114   1.443   3.064 -0.0962  0.1750 -0.0021
  181SOL    HW1  722   1.162   1.451   3.145 -1.8343  3.6060  0.1232
  181SOL    HW2  723   1.185   1.420   2.999  0.3916 -0.7711  1.8196
  181SOL     MW  724   1.130   1.441   3.066 -0.2611  0.5029  0.2547
  182SOL     OW  725   0.479   0.813   1.624 -0.2370  0.1912 -0.3682
  182SOL    HW1  726   0.390   0.803   1.652 -0.3364  0.3199  0.5312
  182SOL    HW2  727   0.530   0.767   1.691 -0.8994  1.3190  0.3846
  182SOL     MW  728   0.474   0.806   1.637 -0.3375  0.3570 -0.1502
  183SOL     OW  729   1.640   1.530   1.300  0.4943 -0.1982 -0.2224
  183SOL    HW1  730   1.563   1.579   1.328 -1.1513  0.2758  3.3558
  183SOL    HW2  731   1.660   1.463   1.365  0.4479 -0.6126 -2.0441
  183SOL     MW  732   1.633   1.528   1.313  0.2711 -0.1904  0.0093
  184SOL     OW  733   0.854   0.614   1.982  0.4483  0.0570  0.6858
  184SOL    HW1  734   0.909   0.604   1.899  0.2761 -2.4256 -0.8378
  184SOL    HW2  735   0.856   0.538   2.035 -0.8715  3.3100 -1.3232
  184SOL     MW  736   0.861   0.603   1.978  0.2515  0.1587  0.2197
  185SOL     OW  737   1.122   0.952   1.945 -0.2768 -0.2120  0.3695
  185SOL    HW1  738   1.112   0.877   2.001  0.5925 -0.9948  2.9386
  185SOL    HW2  739   1.183   1.014   1.994 -0.5778 -0.1383 -0.4359
  185SOL     MW  740   1.129   0.951   1.959 -0.2018 -0.3055  0.6022
  186SOL     OW  741   0.387   1.672   1.411  0.4653 -0.0626  0.3604
  186SOL    HW1  742   0.453   1.721   1.365 -1.6407 -1.5045 -0.7198
  186SOL    HW2  743   0.348   1.612   1.348 -0.0057  0.9537 -1.0577
  186SOL     MW  744   0.391   1.671   1.397  0.1253 -0.1187  0.0308
  187SOL     OW  745   1.518   0.684   1.470  0.0414 -0.1248 -0.2110
  187SOL    HW1  746   1.491   0.677   1.563 -2.3707  1.1201 -0.7042
  187SOL    HW2  747   1.435   0.673   1.421 -0.2367 -0.9957 -0.5851
  187SOL     MW  748   1.504   0.681   1.476 -0.3136 -0.0755 -0.3254
  188SOL     OW  749   1.909   1.036   0.721 -0.2143 -0.3662 -0.0075
  188SOL    HW1  750   1.913   0.954   0.775  0.2221  0.7556 -0.9401
  188SOL    HW2  751   1.996   1.050   0.684 -2.7060  1.6974  0.7994
  188SOL     MW  752   1.921   1.027   0.723 -0.4855  0.0541 -0.0241
  189SOL     OW  753   0.661   0.776   0.800 -0.1305  0.4283  0.0957
  189SOL    HW1  754   0.582   0.829   0.793 -4.5262 -4.3201 -1.4024
  189SOL    HW2  755   0.718   0.845   0.842  1.2636  1.7209  1.9728
  189SOL     MW  756   0.658   0.792   0.805 -0.5265 -0.0277  0.1457
  190SOL     OW  757   1.868   0.336   1.962  0.3825 -0.8113  0.0211
  190SOL    HW1  758   1.887   0.259   1.904 -0.8443 -1.6546 -0.4998
  190SOL    HW2  759   1.943   0.401   1.957 -0.6605  0.5369  0.7492
  190SOL     MW  760   1.880   0.335   1.954  0.0831 -0.7447  0.0485
  191SOL     OW  761   1.615   0.936   1.412  1.0922  0.1230 -1.5028
  191SOL    HW1  762   1.543   1.005   1.405  0.7571  0.0513 -0.1951
  191SOL    HW2  763   1.560   0.860   1.438  1.1811 -0.0191 -1.6558
  191SOL     MW  764   1.598   0.935   1.415  1.0597  0.0948 -1.3504
  192SOL     OW  765   0.758   1.969   2.860 -0.1427  0.2650 -1.3016
  192SOL    HW1  766   0.700   1.986   2.784  1.3323 -0.0287 -1.7415
  192SOL    HW2  767   0.712   1.900   2.907  0.2640  0.5842 -1.7067
  192SOL     MW  768   0.744   1.962   2.856  0.1056  0.2684 -1.4131
  193SOL     OW  769   1.053   1.592   0.738  0.2635  0.1236  0.5930
  193SOL    HW1  770   1.040   1.624   0.822  0.5107  1.5036 -0.7083
  193SOL    HW2  771   0.987   1.527   0.715 -0.7170 -1.4239  2.3822
  193SOL     MW  772   1.042   1.588   0.746  0.1668  0.1015  0.6574
  194SOL     OW  773   0.474   1.350   0.941  0.4579  0.7548 -0.2067
  194SOL    HW1  774   0.467   1.253   0.938 -0.9774 -1.3672 -1.7032
  194SOL    HW2  775   0.395   1.382   0.899 -1.8764 -0.6541  0.7881
  194SOL     MW  776   0.463   1.341   0.935 -0.0395  0.2889 -0.2729
  195SOL     OW  777   1.280   1.164   2.986 -0.3799 -0.6115  0.2747
  195SOL    HW1  778   1.299   1.187   3.077  0.2520 -3.2286  1.9856
  195SOL    HW2  779   1.221   1.084   2.994 -3.4292  0.0616  1.0132
  195SOL     MW  780   1.275   1.157   2.999 -0.6988 -0.8680  0.5979
  196SOL     OW  781   2.173   1.080   0.629  0.0603  0.7681  0.6823
  196SOL    HW1  782   2.165   1.042   0.542  5.2914  1.5439 -0.3856
  196SOL    HW2  783   2.169   1.173   0.620  3.5282 -0.4041  0.2510
  196SOL     MW  784   2.172   1.087   0.616  1.2080  0.7158  0.4845
  197SOL     OW  785   0.569   1.258   2.011  0.1346  0.0691 -0.4513
  197SOL    HW1  786   0.564   1.163   2.018  1.1711 -1.3540 -0.2792
  197SOL    HW2  787   0.561   1.274   1.921  0.7790  0.1441  3.2175
  197SOL     MW  788   0.567   1.247   2.000  0.3564 -0.1088  0.0555
  198SOL     OW  789   2.938   1.405   1.039  0.9070 -0.0317 -0.0988
  198SOL    HW1  790   2.938   1.494   0.997 -0.1079  1.3023  0.6625
  198SOL    HW2  791   2.859   1.364   1.010 -3.4070 -0.1232  2.3845
  198SOL     MW  792   2.927   1.411   1.030  0.2039  0.1322  0.3293
  199SOL     OW  793   0.510   1.282   1.743  0.0630  0.1239 -0.0143
  199SOL    HW1  794   0.411   1.278   1.755  0.5950 -2.3667  0.3438
  199SOL    HW2  795   0.528   1.364   1.696  4.2684  0.7549 -1.6150
  199SOL     MW  796   0.499   1.292   1.739  0.6880 -0.1214 -0.1783
  200SOL     OW  797   1.916   3.092   1.353 -0.7022 -0.0607  0.6787
  200SOL    HW1  798   1.917   3.081   1.256 -1.4899 -0.8358 -1.6391
  200SOL    HW2  799   1.825   3.112   1.375  0.0804  0.8263  1.1451
  200SOL     MW  800   1.904   3.093   1.343 -0.7029 -0.0460  0.4344
  201SOL     OW  801   1.106   0.300   0.817 -0.8057 -0.0737  0.3836
  201SOL    HW1  802   1.071   0.206   0.805  0.8951  2.1394 -1.1923
  201SOL    HW2  803   1.153   0.321   0.732  1.4756  3.8716  0.0246
  201SOL     MW  804   1.108   0.291   0.804 -0.2803  0.7389  0.1283
  202SOL     OW  805   1.559   1.607   1.038 -0.3793  0.6975  0.3193
  202SOL    HW1  806   1.598   1.539   0.981 -1.2466 -0.0654  1.3918
  202SOL    HW2  807   1.611   1.607   1.117 -0.8161  0.7231 -1.3241
  202SOL     MW  808   1.571   1.598   1.041 -0.5514  0.6002  0.2440
  203SOL     OW  809   3.073   0.451   1.215  1.4020 -0.4291 -0.4145
  203SOL    HW1  810   3.112   0.396   1.151 -2.2333 -0.0110  0.4934
  203SOL    HW2  811   3.138   0.499   1.261 -3.5681  2.3386 -1.7550
  203SOL     MW  812   3.087   0.450   1.213  0.2666 -0.0088 -0.4716
  204SOL     OW  813   1.075   1.755   0.528 -0.1894  0.2002 -0.4453
  204SOL    HW1  814   1.067   1.676   0.588 -0.3112  0.2462 -3.2730
  204SOL    HW2  815   0.993   1.750   0.476 -0.8749  0.0596  1.1363
  204SOL     MW  816   1.063   1.744   0.529 -0.2959  0.1877 -0.6097
  205SOL     OW  817   1.393   0.072   1.333 -0.2828  0.4680 -0.1431
  205SOL    HW1  818   1.318   0.079   1.276  1.2319 -0.2362  0.0648
  205SOL    HW2  819   1.453   0.143   1.318 -0.3925  0.2352  0.3770
  205SOL     MW  820   1.391   0.082   1.324 -0.0975  0.3444 -0.0471
  206SOL     OW  821   0.501   3.075   1.373 -0.6921 -0.4286  0.2675
  206SOL    HW1  822   0.432   3.067   1.306  0.3194  0.3561  0.2802
  206SOL    HW2  823   0.530   2.985   1.385  0.0981  3.3342 -1.5771
  206SOL     MW  824   0.496   3.062   1.366 -0.4544  0.1714  0.0258
  207SOL     OW  825   0.979   1.547   0.242 -1.1091  0.2946  0.5865
  207SOL    HW1  826   0.997   1.636   0.207 -0.8945  1.6090  0.2290
  207SOL    HW2  827   1.063   1.509   0.282  0.4138 -2.5753  2.3741
  207SOL     MW  828   0.992   1.554   0.243 -0.8798  0.0894  0.7752
  208SOL     OW  829   0.654   1.574   1.209  0.4483 -0.4898 -0.4428
  208SOL    HW1  830   0.730   1.578   1.260 -0.2187 -1.0385  0.1231
  208SOL    HW2  831   0.608   1.487   1.217 -2.0018 -1.4281  2.2751
  208SOL     MW  832   0.658   1.563   1.217  0.0370 -0.6860 -0.0095
  209SOL     OW  833   1.473   0.525   2.809 -0.0470  0.8400  0.2938
  209SOL    HW1  834   1.499   0.596   2.870  1.5395  0.9922 -0.6340
  209SOL    HW2  835   1.551   0.463   2.824 -1.3762 -0.2661  2.1248
  209SOL     MW  836   1.487   0.526   2.819 -0.0130  0.7141  0.4130
  210SOL     OW  837   1.572   1.385   0.874  0.3245  0.6552 -0.4804
  210SOL    HW1  838   1.656   1.346   0.851  0.5106 -1.5998 -0.2700
  210SOL    HW2  839   1.536   1.393   0.788  0.4365 -0.5493  1.2466
  210SOL     MW  840   1.579   1.381   0.860  0.3638  0.1988 -0.2248
  211SOL     OW  841   1.712   0.481   0.934 -0.1504  0.0753  0.1125
  211SOL    HW1  842   1.684   0.457   0.844  1.3040  1.2768  0.5088
  211SOL    HW2  843   1.813   0.498   0.934 -0.7378  1.1766  0.7326
  211SOL     MW  844   1.722   0.480   0.922 -0.0360  0.3791  0.2466
  212SOL     OW  845   0.236   1.095   0.065 -0.2672  0.0911  0.5134
  212SOL    HW1  846   0.202   1.059   0.146  3.5250 -0.8728  0.9266
  212SOL    HW2  847   0.327   1.071   0.055  0.5632  2.0108  0.4362
  212SOL     MW  848   0.244   1.087   0.074  0.3427  0.2172  0.5577
  213SOL     OW  849   0.462   1.676   3.098 -0.4714 -0.3543  0.2352
  213SOL    HW1  850   0.483   1.760   3.137 -2.0913  0.0231 -1.3925
  213SOL    HW2  851   0.485   1.692   3.009 -1.9792  2.3107 -3.0298
  213SOL     MW  852   0.468   1.689   3.091 -0.8841  0.0471 -0.4104
  214SOL     OW  853   0.650   0.258   2.291  0.2503  0.0167  0.4049
  214SOL    HW1  854   0.570   0.297   2.261 -0.1423 -0.4827 -1.0012
  214SOL    HW2  855   0.719   0.275   2.231  1.7021 -2.5219 -2.4948
  214SOL     MW  856   0.649   0.266   2.279  0.3901 -0.3842 -0.1632
  215SOL     OW  857   0.484   0.753   2.628 -0.3740 -0.1556 -0.4239
  215SOL    HW1  858   0.504   0.772   2.534 -1.7966  1.3008  0.2697
  215SOL    HW2  859   0.430   0.677   2.625  0.8178  1.0267 -0.2809
  215SOL     MW  860   0.479   0.745   2.615 -0.4045  0.1926 -0.3135
  216SOL     OW  861   3.086   3.077   2.736 -0.2196 -0.1308 -0.4520
  216SOL    HW1  862   3.032   3.060   2.817 -1.0915 -0.4974  4.0860
  216SOL    HW2  863   3.028   3.151   2.703 -2.0027  0.4525 -1.2567
  216SOL     MW  864   3.071   3.084   2.743 -0.5699 -0.1022  0.0406
  217SOL     OW  865   0.974   1.189   3.094 -0.4979  0.0578  0.3775
  217SOL    HW1  866   1.012   1.107   3.056  1.9521  0.6902 -1.4842
  217SOL    HW2  867   1.019   1.271   3.051 -1.3908  2.4915 -4.2348
  217SOL     MW  868   0.985   1.189   3.084 -0.2925  0.4624 -0.4767
  218SOL     OW  869   0.910   1.358   2.490 -0.1449 -1.2236  0.2530
  218SOL    HW1  870   0.940   1.301   2.555 -0.1517 -2.8926  0.5269
  218SOL    HW2  871   0.973   1.428   2.502  1.0985  2.8286 -3.0202
  218SOL     MW  872   0.922   1.359   2.500  0.0183 -0.9091 -0.1427
  219SOL     OW  873   1.026   0.433   2.479  0.3731  0.3125  0.1217
  219SOL    HW1  874   1.085   0.495   2.436  1.2428  0.1129  1.2343
  219SOL    HW2  875   0.953   0.494   2.499 -0.2396  1.6855  0.1054
  219SOL     MW  876   1.024   0.450   2.476  0.4070  0.4673  0.2664
  220SOL     OW  877   1.757   0.514   2.210  0.0778 -0.3215  0.7814
  220SOL    HW1  878   1.679   0.557   2.183  1.6965 -1.9485 -1.3543
  220SOL    HW2  879   1.737   0.431   2.171 -1.7056 -1.8661 -1.1802
  220SOL     MW  880   1.744   0.509   2.202  0.0561 -0.7400  0.2408
  221SOL     OW  881   0.409   1.391   2.901 -0.1773 -0.4757 -0.2092
  221SOL    HW1  882   0.409   1.300   2.869  2.6434 -2.6524 -0.2881
  221SOL    HW2  883   0.389   1.437   2.824 -0.0682  3.6211  1.6245
  221SOL     MW  884   0.407   1.385   2.887  0.2092 -0.2223  0.0223
  222SOL     OW  885   0.308   0.960   2.636 -0.1227  0.0328 -0.0043
  222SOL    HW1  886   0.290   0.964   2.544 -0.6537 -1.1762 -2.6760
  222SOL    HW2  887   0.368   0.887   2.637 -1.4595  1.8632 -0.4709
  222SOL     MW  888   0.314   0.951   2.624 -0.3691  0.1148 -0.4184
  223SOL     OW  889  -0.006   1.995   2.609  0.2075  0.5991 -0.4171
  223SOL    HW1  890   0.056   1.936   2.666 -0.2063  1.7160  0.7420
  223SOL    HW2  891   0.045   2.040   2.537 -2.1001 -2.3120  0.9341
  223SOL     MW  892   0.009   1.993   2.607 -0.1516  0.3624 -0.0859
  224SOL     OW  893   1.488   0.832   2.607 -0.4397 -0.0758  0.4796
  224SOL    HW1  894   1.454   0.862   2.689  0.9817 -2.4746 -0.3589
  224SOL    HW2  895   1.514   0.908   2.560 -2.7820 -0.6655  0.3960
  224SOL     MW  896   1.487   0.846   2.612 -0.5612 -0.4701  0.3579
  225SOL     OW  897   2.912   1.489   2.233  0.0833  0.0157  0.5672
  225SOL    HW1  898   2.965   1.540   2.170  2.0794 -0.5159 -0.1356
  225SOL    HW2  899   2.886   1.550   2.307  1.1362  0.3498 -0.3207
  225SOL     MW  900   2.915   1.504   2.235  0.4856 -0.0104  0.3573
  226SOL     OW  901   0.383   1.492   2.624 -0.0565 -0.3156  0.2566
  226SOL    HW1  902   0.475   1.482   2.613 -1.6960 -0.5593 -2.0035
  226SOL    HW2  903   0.378   1.579   2.589  1.2152 -2.1852 -1.0700
  226SOL     MW  904   0.395   1.502   2.618 -0.1050 -0.5944 -0.2166
  227SOL     OW  905   0.426   1.123   2.855  0.3651 -0.6037  0.2971
  227SOL    HW1  906   0.519   1.124   2.839 -2.3005 -0.0244 -0.8624
  227SOL    HW2  907   0.387   1.105   2.770  0.0631  0.4624 -3.1182
  227SOL     MW  908   0.433   1.121   2.842 -0.0264 -0.3866 -0.3065
  228SOL     OW  909   0.692   0.988   1.974  0.0943  0.2848 -0.2384
  228SOL    HW1  910   0.760   1.054   1.954 -1.3488 -2.3604  2.3365
  228SOL    HW2  911   0.689   0.981   2.070 -0.3702 -0.3839  2.1288
  228SOL     MW  912   0.700   0.996   1.984 -0.1574 -0.1525  0.4137
  229SOL     OW  913   0.228   0.470   3.094 -0.8337 -0.5922 -0.0762
  229SOL    HW1  914   0.149   0.456   3.042  0.4806  0.5892  1.0443
  229SOL    HW2  915   0.204   0.429   3.180  0.4062 -1.0725 -2.1413
  229SOL     MW  916   0.214   0.462   3.098 -0.4967 -0.4997 -0.2008
  230SOL     OW  917   1.775   1.347   2.100  0.2478  0.1396 -0.6758
  230SOL    HW1  918   1.758   1.331   2.193 -2.0014  0.4332  0.3174
  230SOL    HW2  919   1.773   1.255   2.068  0.3747  0.9594  0.6757
  230SOL     MW  920   1.772   1.332   2.108 -0.0322  0.2865 -0.3665
  231SOL     OW  921   2.777   1.261   2.149 -0.7917  0.6889 -0.5211
  231SOL    HW1  922   2.833   1.336   2.156 -0.1320 -0.8381 -2.5669
  231SOL    HW2  923   2.712   1.306   2.099  0.8131  2.1220  1.8391
  231SOL     MW  924   2.776   1.277   2.144 -0.4929  0.6765 -0.4797
  232SOL     OW  925   2.287   0.911   2.101 -0.0793 -0.3807  0.0977
  232SOL    HW1  926   2.205   0.946   2.069  0.1691 -2.2303  1.0206
  232SOL    HW2  927   2.266   0.890   2.198 -2.6870 -0.3146 -0.4393
  232SOL     MW  928   2.273   0.913   2.110 -0.3906 -0.6160  0.1486
  233SOL     OW  929   2.053   0.516   1.947 -0.0722 -0.1230 -0.0274
  233SOL    HW1  930   2.078   0.547   1.855 -2.3150 -0.6479 -0.0742
  233SOL    HW2  931   2.134   0.484   1.987 -2.5531 -1.9912  0.4360
  233SOL     MW  932   2.067   0.516   1.940 -0.6954 -0.4387  0.0275
  234SOL     OW  933   0.276   0.989   2.347  0.4188  0.0672 -0.8119
  234SOL    HW1  934   0.186   1.023   2.332 -0.6451  0.9542 -1.0528
  234SOL    HW2  935   0.325   1.066   2.385  1.3844  0.1201  2.6110
  234SOL     MW  936   0.270   1.004   2.350  0.4058  0.1912 -0.3921
  235SOL     OW  937   1.019   3.047   2.795  0.6337  0.1604  0.2794
  235SOL    HW1  938   1.033   2.980   2.862 -1.9287  0.0883 -1.5001
  235SOL    HW2  939   0.992   3.125   2.845  1.1816 -0.2456  1.3007
  235SOL     MW  940   1.017   3.049   2.810  0.3679  0.0973  0.1794
  236SOL     OW  941   2.928   0.515   0.040  0.1220 -0.1966 -0.5095
  236SOL    HW1  942   2.845   0.522  -0.017 -1.4470 -2.7160  0.1934
  236SOL    HW2  943   2.955   0.614   0.051  0.3219  0.7691  0.7296
  236SOL     MW  944   2.921   0.529   0.034 -0.0587 -0.4016 -0.2533
  237SOL     OW  945   1.751   0.879   2.176 -0.4271 -0.3139  0.0481
  237SOL    HW1  946   1.796   0.956   2.126 -3.0364 -0.1788 -2.7225
  237SOL    HW2  947   1.797   0.878   2.264 -0.7418  2.0616 -0.4918
  237SOL     MW  948   1.763   0.889   2.181 -0.8129  0.0173 -0.3887
  238SOL     OW  949   1.099   1.741   2.975  0.1807 -0.2725 -0.2940
  238SOL    HW1  950   1.077   1.649   2.998 -0.6839  0.3422 -0.4077
  238SOL    HW2  951   1.196   1.750   2.961 -0.8719 -0.4030  2.7784
  238SOL     MW  952   1.109   1.730   2.976 -0.0723 -0.2086  0.0964
  239SOL     OW  953   1.171   1.395   2.317 -0.7262  0.2165  0.2776
  239SOL    HW1  954   1.202   1.398   2.409  2.8271 -0.4239  0.7317
  239SOL    HW2  955   1.119   1.321   2.299  1.3129 -0.6162  0.0080
  239SOL     MW  956   1.168   1.386   2.327  0.0117  0.0222  0.3020
  240SOL     OW  957   0.617   0.874   2.278  0.5047  1.1407  0.5318
  240SOL    HW1  958   0.632   0.940   2.343  2.2965  1.0847 -0.4800
  240SOL    HW2  959   0.700   0.834   2.253  1.4702 -2.7840 -0.9447
  240SOL     MW  960   0.630   0.878   2.284  0.8685  0.6155  0.2035
  241SOL     OW  961   0.638   0.354   2.993 -0.4323 -0.7595  0.5065
  241SOL    HW1  962   0.644   0.426   3.060 -0.4723  0.6525 -2.1670
  241SOL    HW2  963   0.554   0.371   2.948 -0.1020  2.1552  2.4913
  241SOL     MW  964   0.628   0.366   2.996 -0.3940 -0.1887  0.4156
  242SOL     OW  965   1.480   1.724   2.336  1.0251  0.5533 -0.2330
  242SOL    HW1  966   1.449   1.815   2.354 -0.2851  2.1765  0.0992
  242SOL    HW2  967   1.412   1.679   2.282 -0.1012  2.9682 -2.7229
  242SOL     MW  968   1.467   1.730   2.331  0.7037  1.0861 -0.5177
  243SOL     OW  969   0.946   0.221   2.352 -0.6395 -0.0810 -0.2200
  243SOL    HW1  970   1.030   0.201   2.317 -1.2684  2.8484  2.5489
  243SOL    HW2  971   0.979   0.272   2.425 -0.8715 -3.0252 -3.2252
  243SOL     MW  972   0.961   0.225   2.357 -0.7531 -0.0829 -0.2512
  244SOL     OW  973   0.197   0.707   2.294 -0.0727  0.1746  0.4559
  244SOL    HW1  974   0.206   0.801   2.297  0.3926 -3.1863 -0.1379
  244SOL    HW2  975   0.286   0.680   2.304  0.5174 -1.4763  0.7054
  244SOL     MW  976   0.210   0.716   2.295  0.0666 -0.4866  0.4105
  245SOL     OW  977   1.233   0.168   2.315  0.1416  0.5698  0.7349
  245SOL    HW1  978   1.238   0.077   2.286 -0.0552 -0.6780 -0.3349
  245SOL    HW2  979   1.260   0.162   2.406 -2.0359 -2.4859  2.1799
  245SOL     MW  980   1.237   0.155   2.323 -0.1717  0.0020  0.7844
  246SOL     OW  981   1.193   1.150   2.115  1.1190  0.2852 -0.8709
  246SOL    HW1  982   1.152   1.088   2.180  0.9525  0.4158  0.2439
  246SOL    HW2  983   1.293   1.139   2.132  0.8395  0.5289 -1.5606
  246SOL     MW  984   1.201   1.140   2.126  1.0602  0.3346 -0.8148
  247SOL     OW  985   0.689   0.515   0.106  0.3351 -0.0297 -0.3040
  247SOL    HW1  986   0.655   0.602   0.100 -0.3901 -0.8291 -0.4708
  247SOL    HW2  987   0.785   0.529   0.095  0.0117  2.0140 -0.1855
  247SOL     MW  988   0.697   0.528   0.104  0.1967  0.1345 -0.3104
  248SOL     OW  989   0.423   1.198   2.433  0.0841  0.0669  0.2802
  248SOL    HW1  990   0.435   1.227   2.344 -0.7278 -0.9772  1.0400
  248SOL    HW2  991   0.436   1.281   2.481 -1.0975 -2.1841 -0.7027
  248SOL     MW  992   0.426   1.213   2.428 -0.1789 -0.3678  0.2508
  249SOL     OW  993   0.181   1.828   2.722  0.5233  0.7683 -0.0975
  249SOL    HW1  994   0.119   1.759   2.690 -1.3871  2.5405  0.9568
  249SOL    HW2  995   0.182   1.810   2.816  0.5673  1.0630 -0.3146
  249SOL     MW  996   0.173   1.816   2.730  0.2771  1.0410  0.0130
  250SOL     OW  997   2.164   0.902   2.361  0.2331  0.1647 -0.1959
  250SOL    HW1  998   2.231   0.825   2.376  0.9592  0.0671 -0.4298
  250SOL    HW2  999   2.197   0.974   2.423 -1.4243  0.9111 -2.4865
  250SOL     MW 1000   2.177   0.901   2.371  0.1102  0.2503 -0.5290
  251SOL     OW 1001   0.186   0.826   1.991 -0.2434 -0.1699  0.2620
  251SOL    HW1 1002   0.184   0.772   2.071 -0.8004  2.9883  0.1173
  251SOL    HW2 1003   0.185   0.771   1.914  0.5208 -0.6460 -1.4767
  251SOL     MW 1004   0.186   0.812   1.991 -0.2161  0.1840  0.0135
  252SOL     OW 1005   1.720   1.009   2.817 -0.2211  0.4646  0.1324
  252SOL    HW1 1006   1.712   1.085   2.869 -0.3728 -1.4406 -0.7001
  252SOL    HW2 1007   1.779   1.037   2.747 -0.3373 -0.6982  0.5719
  252SOL     MW 1008   1.727   1.023   2.815 -0.2565  0.0598  0.0806
  253SOL     OW 1009   1.147   1.738   2.549  0.1859  0.1391 -0.0754
  253SOL    HW1 1010   1.128   1.759   2.456 -2.4918 -1.9578 -1.6728
  253SOL    HW2 1011   1.054   1.735   2.590  2.4530 -0.7580 -0.3213
  253SOL     MW 1012   1.132   1.741   2.542  0.1317 -0.2559 -0.3186
  254SOL     OW 1013   1.031   1.025   2.304  0.0408  0.4330 -0.6232
  254SOL    HW1 1014   0.995   0.938   2.283  1.5394 -0.2943 -1.4730
  254SOL    HW2 1015   0.959   1.081   2.277  1.6582 -1.0001 -0.3403
  254SOL     MW 1016   1.016   1.021   2.298  0.4519  0.1480 -0.6980
  255SOL     OW 1017   0.797   2.411   2.219  0.0247  0.3306 -0.3784
  255SOL    HW1 1018   0.710   2.369   2.219 -2.1356 -0.0147 -2.6139
  255SOL    HW2 1019   0.821   2.419   2.313  0.9063 -1.0921  0.9869
  255SOL     MW 1020   0.788   2.406   2.231 -0.1440  0.0973 -0.4932
  256SOL     OW 1021   1.153   2.821   2.902  0.0160  0.0203  0.5251
  256SOL    HW1 1022   1.192   2.737   2.927  0.3268  1.7959 -2.1669
  256SOL    HW2 1023   1.233   2.857   2.851  0.2630  0.0394 -1.7456
  256SOL     MW 1024   1.169   2.815   2.898  0.0896  0.2571 -0.1297
  257SOL     OW 1025   0.123   1.851   0.072  0.0403 -0.1003  0.9125
  257SOL    HW1 1026   0.165   1.808   0.148 -1.1255  2.2127 -2.6199
  257SOL    HW2 1027   0.112   1.779   0.010  2.5505  1.3002  1.5176
  257SOL     MW 1028   0.127   1.836   0.074  0.2177  0.3897  0.5263
  258SOL     OW 1029   0.670   1.065   2.456  0.1925  0.2894 -0.7538
  258SOL    HW1 1030   0.714   1.107   2.385  0.5424  0.3382 -2.7784
  258SOL    HW2 1031   0.584   1.110   2.479 -2.3530  0.3341  3.8682
  258SOL     MW 1032   0.664   1.076   2.450 -0.0972  0.3017 -0.4111
  259SOL     OW 1033   0.693   0.480   2.429  0.4518  0.1765 -0.6849
  259SOL    HW1 1034   0.615   0.531   2.404  0.1564  1.2062  0.0273
  259SOL    HW2 1035   0.675   0.389   2.389  3.0132 -0.7177  0.2309
  259SOL     MW 1036   0.681   0.474   2.421  0.7507  0.1943 -0.4701
  260SOL     OW 1037   0.585   0.118   1.598 -0.3659 -0.4304  0.2617
  260SOL    HW1 1038   0.554   0.091   1.511  0.6527  0.9627 -1.6687
  260SOL    HW2 1039   0.679   0.139   1.586 -0.3535  1.0853 -0.0359
  260SOL     MW 1040   0.593   0.117   1.585 -0.2299 -0.0466 -0.0323
  261SOL     OW 1041   1.135   0.667   2.121  0.2512  0.3490  0.0402
  261SOL    HW1 1042   1.170   0.644   2.208 -1.7355  0.5086  0.3967
  261SOL    HW2 1043   1.201   0.630   2.067 -0.1060 -1.0234  1.1633
  261SOL     MW 1044   1.148   0.659   2.125 -0.0581  0.1890  0.2354
  262SOL     OW 1045   1.133   0.353   0.077  0.2822 -0.0471 -0.0840
  262SOL    HW1 1046   1.226   0.346   0.072 -1.2505  1.4065 -0.7929
  262SOL    HW2 1047   1.091   0.317  -0.003 -2.2578 -1.8277 -0.0030
  262SOL     MW 1048   1.140   0.347   0.066 -0.2551 -0.0903 -0.1668
  263SOL     OW 1049   0.478   3.028   2.551 -0.3671 -0.1843  0.4606
  263SOL    HW1 1050   0.389   3.064   2.536 -1.6991  1.8048 -0.6232
  263SOL    HW2 1051   0.507   3.040   2.460 -0.4669  0.9383  0.9016
  263SOL     MW 1052   0.470   3.034   2.537 -0.5560  0.2263  0.3758
  264SOL     OW 1053   1.544   1.381   1.940 -0.2363  0.0263 -0.3251
  264SOL    HW1 1054   1.482   1.347   2.006 -0.0975 -1.8380  0.4454
  264SOL    HW2 1055   1.634   1.380   1.978 -0.0199  0.1589  1.1657
  264SOL     MW 1056   1.548   1.377   1.953 -0.1894 -0.2022 -0.0267
  265SOL     OW 1057   0.690   2.722   2.237  0.0027 -1.0079  0.0129
  265SOL    HW1 1058   0.769   2.681   2.217  2.6900  2.6646 -0.4655
  265SOL    HW2 1059   0.690   2.735   2.333 -1.2327 -0.9994 -2.3194
  265SOL     MW 1060   0.701   2.718   2.247  0.1943 -0.5222 -0.3580
  266SOL     OW 1061   0.894   0.808   2.233 -0.4633  0.2806 -0.6579
  266SOL    HW1 1062   0.948   0.761   2.165 -0.3642  2.6151 -0.0211
  266SOL    HW2 1063   0.900   0.754   2.318  2.2389 -2.2140  0.1092
  266SOL     MW 1064   0.902   0.795   2.235 -0.0937  0.2595 -0.4727
  267SOL     OW 1065   1.389   1.792   2.703 -0.0328 -0.0619  0.1010
  267SOL    HW1 1066   1.448   1.738   2.655  1.2749 -0.0020  0.5445
  267SOL    HW2 1067   1.301   1.778   2.672 -1.1202 -0.6009 -2.5943
  267SOL     MW 1068   1.385   1.783   2.693 -0.0038 -0.1251 -0.1961
  268SOL     OW 1069   0.198   0.752   1.716  0.1298 -0.2555  0.0839
  268SOL    HW1 1070   0.127   0.801   1.675 -0.1475  0.9964  1.1356
  268SOL    HW2 1071   0.216   0.682   1.659  3.1029  1.5584  4.3066
  268SOL     MW 1072   0.191   0.749   1.703  0.4854  0.1490  0.7798
  269SOL     OW 1073   1.431   1.974   2.449 -0.6734  0.2547  0.3352
  269SOL    HW1 1074   1.495   1.954   2.508  1.3126  1.4295  0.3935
  269SOL    HW2 1075   1.357   1.948   2.494  1.8216 -0.9854 -3.5494
  269SOL     MW 1076   1.430   1.968   2.463 -0.0822  0.2461 -0.1696
  270SOL     OW 1077   1.156   0.435   1.602 -0.4286 -0.3540 -0.5555
  270SOL    HW1 1078   1.153   0.340   1.634  0.2502 -3.0595 -0.1098
  270SOL    HW2 1079   1.244   0.448   1.570 -1.7014 -1.4137  1.1607
  270SOL     MW 1080   1.167   0.424   1.602 -0.5070 -0.8508 -0.2702
  271SOL     OW 1081   0.840   3.072   2.390 -0.5424 -0.5130 -0.0210
  271SOL    HW1 1082   0.903   3.010   2.433  0.0575  1.6160  0.8308
  271SOL    HW2 1083   0.872   3.164   2.394 -1.5972  1.0635  1.7716
  271SOL     MW 1084   0.853   3.076   2.396 -0.6024 -0.0241  0.3279
  272SOL     OW 1085   1.384   2.948   2.842  0.1188 -1.0076  0.5622
  272SOL    HW1 1086   1.349   3.010   2.781 -0.6371  0.7544  1.0453
  272SOL    HW2 1087   1.396   2.995   2.924  1.5464 -3.3243 -0.1999
  272SOL     MW 1088   1.381   2.963   2.845  0.2074 -1.0808  0.5254
  273SOL     OW 1089   1.431   0.943   2.885  0.0884  0.3601 -0.1319
  273SOL    HW1 1090   1.520   0.959   2.863 -1.8850 -0.2090 -0.3693
  273SOL    HW2 1091   1.400   1.032   2.904 -2.8878 -0.0318 -0.0279
  273SOL     MW 1092   1.439   0.957   2.885 -0.5646  0.2333 -0.1495
  274SOL     OW 1093   1.328   0.750   0.164 -0.0633  0.4027  0.6852
  274SOL    HW1 1094   1.393   0.698   0.205 -0.0789 -0.5031  1.2579
  274SOL    HW2 1095   1.246   0.730   0.217 -1.3958  0.1074  3.0322
  274SOL     MW 1096   1.326   0.741   0.176 -0.2412  0.2442  1.0704
  275SOL     OW 1097   1.696   0.712   1.815 -0.0140 -0.0773 -0.0126
  275SOL    HW1 1098   1.773   0.741   1.870 -0.6235  0.0765  0.6465
  275SOL    HW2 1099   1.655   0.639   1.866  0.7574  0.8040  1.2341
  275SOL     MW 1100   1.701   0.706   1.829  0.0073  0.0593  0.2389
  276SOL     OW 1101   0.230   1.187   1.808 -0.1952  0.6129 -0.2767
  276SOL    HW1 1102   0.295   1.135   1.851 -0.6640  0.6386 -3.4840
  276SOL    HW2 1103   0.162   1.205   1.875 -1.9556 -1.1200 -0.0985
  276SOL     MW 1104   0.230   1.183   1.822 -0.4893  0.3876 -0.6764
  277SOL     OW 1105   1.937   1.367   2.636  0.0744 -0.2183 -0.3592
  277SOL    HW1 1106   2.003   1.435   2.623 -3.6409 -0.8495 -1.1904
  277SOL    HW2 1107   1.983   1.286   2.669 -1.9808  0.2857  1.7857
  277SOL     MW 1108   1.952   1.365   2.638 -0.6870 -0.2351 -0.1858
  278SOL     OW 1109   1.449   0.681   1.729  0.2165  0.9488  0.0353
  278SOL    HW1 1110   1.416   0.609   1.788  1.7381 -0.3711 -0.0952
  278SOL    HW2 1111   1.540   0.713   1.757  0.2889 -1.1617 -0.1020
  278SOL     MW 1112   1.457   0.675   1.741  0.4269  0.4962 -0.0000
  279SOL     OW 1113   0.571   3.059   2.248 -0.0616  0.3843 -0.4077
  279SOL    HW1 1114   0.641   3.007   2.207 -1.3403  0.4278  1.4382
  279SOL    HW2 1115   0.599   3.152   2.237  3.8816 -0.2985 -4.1280
  279SOL     MW 1116   0.584   3.064   2.241  0.2899  0.3000 -0.6550
  280SOL     OW 1117   1.504   1.147   2.213  0.0584  0.3323 -0.2910
  280SOL    HW1 1118   1.513   1.067   2.159  1.5754  0.9298  0.5670
  280SOL    HW2 1119   1.524   1.123   2.300 -2.6075 -2.6758  0.1553
  280SOL     MW 1120   1.508   1.134   2.218 -0.0932  0.0142 -0.1189
  281SOL     OW 1121   1.271   1.392   2.846  0.2841 -0.2316 -0.8191
  281SOL    HW1 1122   1.364   1.416   2.825  0.3416 -2.5480  0.0750
  281SOL    HW2 1123   1.285   1.308   2.889  0.6062 -1.3751 -0.7001
  281SOL     MW 1124   1.285   1.384   2.849  0.3342 -0.6881 -0.6855
  282SOL     OW 1125   1.137   1.313   1.694  0.1352  0.5605  0.0705
  282SOL    HW1 1126   1.104   1.350   1.608 -1.5443 -0.0219 -0.4720
  282SOL    HW2 1127   1.056   1.274   1.727  0.8213 -2.1747 -0.7337
  282SOL     MW 1128   1.122   1.313   1.687  0.0041  0.1228 -0.1072
  283SOL     OW 1129   0.716   1.256   3.073  0.0974  0.4704 -0.3564
  283SOL    HW1 1130   0.809   1.239   3.072 -1.1041 -0.2304 -2.3802
  283SOL    HW2 1131   0.706   1.333   3.123 -2.7150 -1.8291 -0.8633
  283SOL     MW 1132   0.727   1.264   3.079 -0.4322  0.0746 -0.6903
  284SOL     OW 1133   0.462   0.629   2.336 -0.3874 -0.4052  0.3267
  284SOL    HW1 1134   0.497   0.713   2.299  0.5174 -0.5370  0.2491
  284SOL    HW2 1135   0.434   0.552   2.284 -0.4306  1.6087 -1.8254
  284SOL     MW 1136   0.463   0.630   2.325 -0.2737 -0.1569  0.0325
  285SOL     OW 1137   0.863   0.968   2.858 -0.2192  0.8924  0.5583
  285SOL    HW1 1138   0.879   0.994   2.770  0.2439  2.8847 -2.1319
  285SOL    HW2 1139   0.809   0.889   2.867 -2.3027 -1.3066  0.6890
  285SOL     MW 1140   0.858   0.961   2.847 -0.4330  0.8651  0.2206
  286SOL     OW 1141   1.174   1.448   2.581 -0.1926 -0.0762 -0.2050
  286SOL    HW1 1142   1.198   1.435   2.673  0.7321 -2.4801 -3.1056
  286SOL    HW2 1143   1.164   1.543   2.580 -0.8222  0.3342  1.6103
  286SOL     MW 1144   1.176   1.459   2.593 -0.1536 -0.3392 -0.3482
  287SOL     OW 1145   1.045   0.945   0.374 -0.0191 -0.2277 -0.8863
  287SOL    HW1 1146   1.114   0.988   0.428 -1.5801 -0.5859 -0.5766
  287SOL    HW2 1147   1.010   1.023   0.325  1.1085 -1.8163 -0.4145
  287SOL     MW 1148   1.049   0.961   0.375 -0.0763 -0.4846 -0.7832
  288SOL     OW 1149   1.502   0.639   2.130  0.2101  0.3799  0.1605
  288SOL    HW1 1150   1.467   0.628   2.223  0.4722  0.6272 -3.4425
  288SOL    HW2 1151   1.502   0.733   2.112  2.9537 -0.1513  0.5307
  288SOL     MW 1152   1.498   0.650   2.140  0.6067  0.3425 -0.2660
  289SOL     OW 1153   0.919   1.086   2.612  0.4724 -0.3744  0.5695
  289SOL    HW1 1154   0.980   1.021   2.576  0.6095  0.7147  2.7739
  289SOL    HW2 1155   0.851   1.085   2.545  0.0575  0.2232 -2.7904
  289SOL     MW 1156   0.918   1.078   2.599  0.4357 -0.1518  0.4171
  290SOL     OW 1157   0.850   0.582   1.526 -0.1490 -0.6531 -0.3545
  290SOL    HW1 1158   0.904   0.525   1.477  1.0174 -1.2542  0.0019
  290SOL    HW2 1159   0.900   0.587   1.607  0.6528 -0.8440  0.1767
  290SOL     MW 1160   0.864   0.575   1.530  0.1107 -0.7576 -0.2374
  291SOL     OW 1161   0.167   0.346   0.226 -0.3023 -0.2560 -0.1294
  291SOL    HW1 1162   0.258   0.355   0.251  0.0049  1.3322  0.7243
  291SOL    HW2 1163   0.158   0.267   0.176 -1.3046  0.1824  0.0922
  291SOL     MW 1164   0.178   0.337   0.223 -0.3940  0.0114  0.0124
  292SOL     OW 1165   0.963   0.558   0.100  0.4430 -0.3280  0.3913
  292SOL    HW1 1166   1.014   0.608   0.162 -0.7980  0.5211 -1.2581
  292SOL    HW2 1167   1.017   0.481   0.084  1.0224  2.2419 -0.2177
  292SOL     MW 1168   0.977   0.554   0.106  0.3557  0.1231  0.0933
  293SOL     OW 1169   0.240   0.058   2.497  0.1373  0.1365  0.0953
  293SOL    HW1 1170   0.164   0.038   2.439  1.2770 -1.6606 -1.3079
  293SOL    HW2 1171   0.204   0.121   2.555  1.1202  0.8274  0.2585
  293SOL     MW 1172   0.226   0.064   2.497  0.4174 -0.0094 -0.0683
  294SOL     OW 1173   1.448   0.627   2.390 -0.0465 -0.4226 -0.6629
  294SOL    HW1 1174   1.474   0.691   2.461 -1.5314  3.0467  1.0116
  294SOL    HW2 1175   1.469   0.538   2.427 -0.7630  2.0341  0.2467
  294SOL     MW 1176   1.454   0.624   2.405 -0.3370  0.3593 -0.3219
  295SOL     OW 1177   0.867   0.669   2.498  0.0852 -0.0015  0.0932
  295SOL    HW1 1178   0.792   0.615   2.463 -2.2599 -0.2385  1.4532
  295SOL    HW2 1179   0.859   0.682   2.596  0.1617 -0.7544  0.5894
  295SOL     MW 1180   0.856   0.664   2.506 -0.2141 -0.1321  0.3381
  296SOL     OW 1181   1.320   0.318   2.080  0.2849  0.0489 -0.1546
  296SOL    HW1 1182   1.393   0.266   2.050  3.0018 -2.8311 -1.9049
  296SOL    HW2 1183   1.311   0.287   2.171 -1.7417 -2.0281  1.5020
  296SOL     MW 1184   1.328   0.307   2.088  0.3760 -0.6051 -0.1669
  297SOL     OW 1185   1.438   0.425   1.516  0.0190  0.5682 -0.1630
  297SOL    HW1 1186   1.485   0.509   1.512  1.6501 -2.6682 -0.6198
  297SOL    HW2 1187   1.503   0.360   1.548  1.1709  0.7452 -0.1058
  297SOL     MW 1188   1.453   0.427   1.520  0.3861  0.1645 -0.2157
  298SOL     OW 1189   1.519   0.919   2.067 -0.0198 -0.3776 -0.4679
  298SOL    HW1 1190   1.537   0.975   1.989 -2.9751 -1.8309 -0.9144
  298SOL    HW2 1191   1.606   0.898   2.111 -1.0041  2.4029  1.1801
  298SOL     MW 1192   1.532   0.923   2.062 -0.5396 -0.2025 -0.3094
  299SOL     OW 1193   0.522   1.045   3.103 -0.3374  0.8550 -0.2348
  299SOL    HW1 1194   0.584   1.120   3.114  2.2033  2.8159  3.4082
  299SOL    HW2 1195   0.480   1.059   3.013  1.1573 -0.9457  0.3448
  299SOL     MW 1196   0.525   1.057   3.093  0.1950  0.8761  0.3223
  300SOL     OW 1197   1.242   1.142   2.512  0.4949  0.3581  0.1856
  300SOL    HW1 1198   1.163   1.082   2.494  0.5938 -0.6528  0.8815
  300SOL    HW2 1199   1.202   1.202   2.570  0.8367 -1.3337 -0.2478
  300SOL     MW 1200   1.226   1.142   2.517  0.5530  0.0015  0.2202
  301SOL     OW 1201   1.356   0.724   0.577 -0.2373  0.7048  0.3433
  301SOL    HW1 1202   1.376   0.717   0.672  1.9445 -0.4725 -0.3504
  301SOL    HW2 1203   1.266   0.687   0.567 -1.8068 -2.4555  0.4423
  301SOL     MW 1204   1.347   0.719   0.588 -0.1565  0.1325  0.2649
  302SOL     OW 1205   0.127   1.461   1.972 -0.0486  0.1838  0.5357
  302SOL    HW1 1206   0.097   1.413   2.049  0.5607 -0.0397 -0.9097
  302SOL    HW2 1207   0.079   1.542   1.980  0.8558 -1.7288 -0.2429
  302SOL     MW 1208   0.116   1.466   1.983  0.1511 -0.0980  0.2422
  303SOL     OW 1209   0.400   1.750   2.565 -0.2281  0.0752 -0.2109
  303SOL    HW1 1210   0.410   1.800   2.483 -0.6613 -0.3279 -0.0648
  303SOL    HW2 1211   0.318   1.780   2.603  3.0651  1.0113 -0.7955
  303SOL     MW 1212   0.390   1.761   2.559  0.1492  0.1455 -0.2687
  304SOL     OW 1213   0.560   2.088   2.420  1.5246  0.1089 -0.1124
  304SOL    HW1 1214   0.582   2.160   2.362 -2.0797  0.1516 -0.7046
  304SOL    HW2 1215   0.624   2.019   2.404 -3.7162 -0.7693 -0.2135
  304SOL     MW 1216   0.572   2.088   2.410  0.3576 -0.0013 -0.2039
  305SOL     OW 1217   1.136   0.552   0.524 -0.5194  0.3657  0.3476
  305SOL    HW1 1218   1.041   0.513   0.506 -2.5111 -0.7776  2.9459
  305SOL    HW2 1219   1.184   0.471   0.506  0.7152 -0.5402  0.6748
  305SOL     MW 1220   1.130   0.537   0.519 -0.6193  0.0953  0.7336
  306SOL     OW 1221   1.220   1.440   0.307  0.3685  0.0858  0.1971
  306SOL    HW1 1222   1.237   1.356   0.346  0.2946 -0.1833 -0.7388
  306SOL    HW2 1223   1.297   1.462   0.245  0.5608  0.2143  2.8681
  306SOL     MW 1224   1.233   1.432   0.304  0.3841  0.0673  0.4260
  307SOL     OW 1225   1.315   0.563   1.951 -0.3760 -0.4299 -0.3035
  307SOL    HW1 1226   1.335   0.470   1.972  0.2382  2.5765  2.1375
  307SOL    HW2 1227   1.383   0.597   2.011  0.8570 -0.8619 -2.1444
  307SOL     MW 1228   1.327   0.555   1.962 -0.1323 -0.0902 -0.2243
  308SOL     OW 1229   2.120   0.624   2.683  0.2584  0.5488 -0.2276
  308SOL    HW1 1230   2.133   0.542   2.726  1.3085  1.1515 -1.1605
  308SOL    HW2 1231   2.182   0.689   2.695 -0.5454  0.9425  0.6132
  308SOL     MW 1232   2.130   0.622   2.690  0.2909  0.6803 -0.2397
  309SOL     OW 1233   0.575   0.513   0.432  0.7480  0.3892  0.3994
  309SOL    HW1 1234   0.582   0.423   0.467 -0.6499  0.7573 -0.4798
  309SOL    HW2 1235   0.593   0.504   0.338 -1.0795 -0.2079  0.3516
  309SOL     MW 1236   0.578   0.500   0.424  0.3224  0.3589  0.2770
  310SOL     OW 1237   0.447   0.509   1.917  0.4879 -0.6551  0.1179
  310SOL    HW1 1238   0.512   0.437   1.897  0.9204  0.4916  1.1019
  310SOL    HW2 1239   0.496   0.591   1.911 -0.8806 -1.5216 -1.4187
  310SOL     MW 1240   0.462   0.510   1.913  0.3644 -0.6181  0.0450
  311SOL     OW 1241   1.919   0.763   1.993  0.5549  0.3691  0.0195
  311SOL    HW1 1242   1.852   0.771   2.065 -0.6932  2.5555  1.3169
  311SOL    HW2 1243   1.967   0.685   2.013 -2.0185  1.0853 -1.2545
  311SOL     MW 1244   1.917   0.754   2.005  0.0507  0.7521  0.0226
  312SOL     OW 1245   1.749   2.529   0.005  0.3610 -0.3620 -0.0907
  312SOL    HW1 1246   1.804   2.519   0.079  1.1383  3.2047  0.8074
  312SOL    HW2 1247   1.650   2.534   0.016  0.7642 -0.7759  2.0373
  312SOL     MW 1248   1.743   2.528   0.016  0.5168  0.0540  0.3085
  313SOL     OW 1249   0.097   1.234   2.954  0.2746 -0.2586 -0.4258
  313SOL    HW1 1250   0.156   1.190   3.017  1.5314  3.4149 -0.3423
  313SOL    HW2 1251   0.143   1.258   2.876 -0.1473 -1.3631 -0.7152
  313SOL     MW 1252   0.111   1.231   2.952  0.3848  0.0804 -0.4530
  314SOL     OW 1253   2.142   3.040   2.961 -0.3455 -0.0878  0.1648
  314SOL    HW1 1254   2.090   3.114   2.915 -0.7911 -2.2072 -0.7401
  314SOL    HW2 1255   2.188   3.088   3.024  0.2478 -1.6772  0.4235
  314SOL     MW 1256   2.141   3.056   2.963 -0.3260 -0.5772  0.0795
  315SOL     OW 1257   1.559   1.963   3.023 -0.2111 -0.3495  0.1949
  315SOL    HW1 1258   1.496   1.998   3.082  3.2143 -2.4258  0.8282
  315SOL    HW2 1259   1.598   2.039   2.970 -0.8590  2.4288 -0.1415
  315SOL     MW 1260   1.556   1.978   3.023  0.1554 -0.2569  0.2340
  316SOL     OW 1261   1.241   0.662   2.700  0.6978 -0.3073  1.1743
  316SOL    HW1 1262   1.320   0.624   2.731  1.6188 -0.7888  0.9730
  316SOL    HW2 1263   1.185   0.656   2.775 -1.7524 -3.2073  3.3541
  316SOL     MW 1264   1.244   0.656   2.714  0.4961 -0.7535  1.4354
  317SOL     OW 1265   0.650   1.425   2.593  0.5396  0.4948  0.4691
  317SOL    HW1 1266   0.655   1.340   2.628  1.3231  1.3479  2.7128
  317SOL    HW2 1267   0.714   1.421   2.531 -1.1442 -2.0696  3.1200
  317SOL     MW 1268   0.659   1.413   2.590  0.4208  0.2690  1.1149
  318SOL     OW 1269   1.308   0.336   2.909  0.4888  0.1902  0.0301
  318SOL    HW1 1270   1.217   0.383   2.913 -1.3169  0.1496  2.4489
  318SOL    HW2 1271   1.360   0.400   2.862  1.0488 -1.5061 -2.5329
  318SOL     MW 1272   1.303   0.351   2.904  0.3244 -0.0389  0.0111
  319SOL     OW 1273   0.828   0.415   2.773  0.1649  0.4239  0.4987
  319SOL    HW1 1274   0.810   0.362   2.698 -2.0201 -1.4962  0.6281
  319SOL    HW2 1275   0.754   0.401   2.834 -0.9335  1.4932  0.1452
  319SOL     MW 1276   0.816   0.406   2.771 -0.2683  0.3117  0.4692
  320SOL     OW 1277   1.007   1.333   2.022  0.6106  0.5027  0.0015
  320SOL    HW1 1278   1.065   1.260   2.058  0.9934 -2.7245  0.0517
  320SOL    HW2 1279   1.063   1.399   1.978  0.6775 -0.2655  0.8885
  320SOL     MW 1280   1.022   1.332   2.021  0.6699 -0.0245  0.1252
  321SOL     OW 1281   1.105   0.957   3.020  0.2371  0.0364  0.1231
  321SOL    HW1 1282   1.017   0.946   2.978 -1.5409 -0.6324  0.6419
  321SOL    HW2 1283   1.133   0.866   3.036 -1.7865  0.1455  0.7291
  321SOL     MW 1284   1.097   0.943   3.017 -0.2645 -0.0375  0.2715
  322SOL     OW 1285   1.184   0.817   1.729 -0.0087  0.1864  0.0617
  322SOL    HW1 1286   1.262   0.771   1.755  0.4680 -0.9874 -0.0991
  322SOL    HW2 1287   1.162   0.864   1.813  3.2181 -0.3312  1.3506
  322SOL     MW 1288   1.191   0.817   1.744  0.4799 -0.0367  0.2106
  323SOL     OW 1289   1.181   1.488   1.886 -0.3320 -0.2095  0.3682
  323SOL    HW1 1290   1.173   1.428   1.816 -2.2495 -2.5315 -1.1729
  323SOL    HW2 1291   1.111   1.551   1.858 -1.5619  0.8109 -0.6362
  323SOL     MW 1292   1.171   1.489   1.873 -0.7473 -0.3812  0.0324
  324SOL     OW 1293   1.526   1.097   2.496  0.0613 -0.0237  0.2926
  324SOL    HW1 1294   1.436   1.122   2.519  2.1070 -0.5941  0.5986
  324SOL    HW2 1295   1.566   1.170   2.547 -1.1627  0.0939 -4.6795
  324SOL     MW 1296   1.519   1.110   2.506  0.1697 -0.0835 -0.3231
  325SOL     OW 1297   1.076   0.490   2.888  0.8108  0.1178 -0.3611
  325SOL    HW1 1298   1.034   0.544   2.960 -0.8947 -0.8744  0.0849
  325SOL    HW2 1299   1.016   0.470   2.817  0.2738  2.7728 -0.5942
  325SOL     MW 1300   1.062   0.495   2.888  0.5150  0.3372 -0.3330
  326SOL     OW 1301   0.416   1.341   2.212  0.5159 -0.4269  0.4418
  326SOL    HW1 1302   0.474   1.306   2.144  0.6896 -2.7566  1.5893
  326SOL    HW2 1303   0.438   1.432   2.232  1.3975 -1.1272 -0.1708
  326SOL     MW 1304   0.426   1.349   2.205  0.6551 -0.8266  0.5123
  327SOL     OW 1305   1.889   0.856   2.419 -0.0507  0.8998  0.3372
  327SOL    HW1 1306   1.868   0.789   2.485 -0.6462 -0.1680  0.1009
  327SOL    HW2 1307   1.983   0.879   2.423  1.4119  0.5602  2.2421
  327SOL     MW 1308   1.898   0.850   2.428  0.0637  0.7141  0.5574
  328SOL     OW 1309   0.135   1.321   2.205  0.3152 -0.5472  0.4407
  328SOL    HW1 1310   0.088   1.238   2.188 -1.9346  1.7921 -3.5569
  328SOL    HW2 1311   0.226   1.299   2.200 -2.4377 -3.3048 -0.8501
  328SOL     MW 1312   0.141   1.307   2.202 -0.3448 -0.6024 -0.2571
  329SOL     OW 1313   0.129   0.176   1.372  0.4600  0.4814  0.1534
  329SOL    HW1 1314   0.060   0.211   1.421  2.8798 -2.7701 -2.3399
  329SOL    HW2 1315   0.197   0.242   1.365 -2.1265 -0.3949  0.2610
  329SOL     MW 1316   0.129   0.189   1.378  0.4380 -0.0632 -0.1613
  330SOL     OW 1317   0.398   2.981   2.057 -0.1966 -0.2397 -0.0157
  330SOL    HW1 1318   0.450   3.021   2.126 -1.1632 -1.1160 -1.6419
  330SOL    HW2 1319   0.333   2.932   2.114  0.2896  0.1761 -2.8892
  330SOL     MW 1320   0.397   2.980   2.074 -0.2600 -0.3005 -0.6094
  331SOL     OW 1321   0.828   1.202   2.268 -0.3102  0.1718  0.4276
  331SOL    HW1 1322   0.769   1.260   2.221  4.3136  0.3311  1.2547
  331SOL    HW2 1323   0.853   1.260   2.344  0.8644 -0.0185  1.4869
  331SOL     MW 1324   0.823   1.217   2.272  0.4548  0.1677  0.6765
  332SOL     OW 1325   1.367   1.772   2.962 -0.6810  0.1162  0.2476
  332SOL    HW1 1326   1.376   1.770   2.863 -1.5049  2.9872  0.6363
  332SOL    HW2 1327   1.423   1.843   2.986 -0.2165 -0.1842 -0.4720
  332SOL     MW 1328   1.375   1.781   2.952 -0.7284  0.4553  0.2040
  333SOL     OW 1329   1.710   1.503   3.006 -0.1549 -0.6129 -0.1424
  333SOL    HW1 1330   1.799   1.486   3.030  0.0932 -2.4159  0.1996
  333SOL    HW2 1331   1.653   1.462   3.071  1.4744  1.5033  1.8436
  333SOL     MW 1332   1.714   1.495   3.017  0.0928 -0.5716  0.1648
  334SOL     OW 1333   1.235   3.091   2.639  0.3623 -0.2553 -0.3170
  334SOL    HW1 1334   1.149   3.089   2.677  4.5444 -0.2009 -0.8445
  334SOL    HW2 1335   1.267   3.184   2.652 -2.6624  1.3226 -0.5093
  334SOL     MW 1336   1.228   3.103   2.646  0.5150 -0.0400 -0.4119
  335SOL     OW 1337   1.262   0.735   2.986 -0.1778 -0.0703 -0.4095
  335SOL    HW1 1338   1.286   0.749   3.079  1.3201  1.0498  1.7346
  335SOL    HW2 1339   1.310   0.795   2.932  0.7722 -1.7733  1.2543
  335SOL     MW 1340   1.272   0.745   2.991  0.1452 -0.1472  0.0929
  336SOL     OW 1341   0.900   1.142   1.878  0.2189  0.2616  0.4342
  336SOL    HW1 1342   0.933   1.224   1.908  0.1180  0.1491  0.8631
  336SOL    HW2 1343   0.976   1.093   1.907  1.2862 -0.9785  1.6344
  336SOL     MW 1344   0.914   1.146   1.886  0.3464  0.0831  0.6491
  337SOL     OW 1345   0.529   1.779   2.837 -0.0827 -0.0332 -0.0499
  337SOL    HW1 1346   0.456   1.756   2.780  3.0072  0.0655 -0.3746
  337SOL    HW2 1347   0.604   1.721   2.814 -0.5365  0.1615  0.5740
  337SOL     MW 1348   0.529   1.768   2.826  0.2651  0.0055 -0.0104
  338SOL     OW 1349   1.089   0.818   2.539  0.4167  0.1238  0.1019
  338SOL    HW1 1350   1.012   0.765   2.512  0.1310  3.6777 -2.2554
  338SOL    HW2 1351   1.145   0.768   2.598  2.6478 -1.9910  0.2592
  338SOL     MW 1352   1.086   0.804   2.543  0.6734  0.3137 -0.1884
  339SOL     OW 1353   1.554   1.087   1.836  0.8835 -0.6359  0.1190
  339SOL    HW1 1354   1.477   1.056   1.783  0.1626 -0.1670  2.3924
  339SOL    HW2 1355   1.538   1.177   1.844  1.9007 -1.3933 -0.1307
  339SOL     MW 1356   1.542   1.095   1.830  0.9226 -0.6740  0.3860
  340SOL     OW 1357   1.337   1.602   0.098  0.3783 -0.3165  0.5786
  340SOL    HW1 1358   1.342   1.666   0.031 -3.7277  0.5970 -0.4418
  340SOL    HW2 1359   1.415   1.614   0.151 -0.1178  0.1422 -1.2947
  340SOL     MW 1360   1.348   1.612   0.096 -0.2289 -0.1355  0.1968
  341SOL     OW 1361   0.164   1.320   2.679 -0.4915 -0.5216  0.4339
  341SOL    HW1 1362   0.230   1.367   2.632  0.3239  0.3557  1.3279
  341SOL    HW2 1363   0.098   1.304   2.605 -2.9756 -0.7835 -0.9471
  341SOL     MW 1364   0.164   1.324   2.663 -0.7117 -0.4404  0.3697
  342SOL     OW 1365   1.409   0.317   0.060  0.1136  0.9172  0.2485
  342SOL    HW1 1366   1.453   0.398   0.094 -1.2179  1.5972 -0.6273
  342SOL    HW2 1367   1.411   0.330  -0.039  2.3360  0.1151 -1.9382
  342SOL     MW 1368   1.415   0.330   0.051  0.2312  0.9011 -0.1556
  343SOL     OW 1369   0.205   0.288   2.313  0.1357 -0.3428  0.1329
  343SOL    HW1 1370   0.224   0.197   2.347 -0.9969 -0.4771  0.5463
  343SOL    HW2 1371   0.140   0.277   2.236  0.9933  2.6708 -2.1559
  343SOL     MW 1372   0.199   0.275   2.307  0.0994  0.0371 -0.1145
  344SOL     OW 1373   1.707   2.113   0.185 -0.1542 -0.6912  0.1347
  344SOL    HW1 1374   1.718   2.173   0.113 -0.1941 -1.2540  0.2924
  344SOL    HW2 1375   1.673   2.038   0.147 -2.4397 -1.3667  2.9299
  344SOL     MW 1376   1.704   2.111   0.171 -0.4610 -0.8545  0.5243
  345SOL     OW 1377   0.673   1.614   2.348 -0.2400 -0.1427 -0.1752
  345SOL    HW1 1378   0.580   1.625   2.320 -0.3489  0.2040  0.3915
  345SOL    HW2 1379   0.722   1.585   2.269  1.2938  1.1472  0.3505
  345SOL     MW 1380   0.667   1.612   2.334 -0.0520  0.0732 -0.0310
  346SOL     OW 1381   1.677   1.067   0.024 -0.3036  0.4183  0.1826
  346SOL    HW1 1382   1.766   1.061   0.051 -0.6642  1.4471 -3.7416
  346SOL    HW2 1383   1.619   1.057   0.098  0.5041  1.6029 -1.7278
  346SOL     MW 1384   1.681   1.065   0.038 -0.2446  0.7103 -0.5872
  347SOL     OW 1385   1.194   0.608   2.376  0.4419  0.5115 -0.4326
  347SOL    HW1 1386   1.293   0.599   2.387 -1.9318  0.2664 -3.8167
  347SOL    HW2 1387   1.180   0.688   2.426  2.0268  2.1442  0.8433
  347SOL     MW 1388   1.205   0.617   2.384  0.3378  0.6945 -0.7108
  348SOL     OW 1389   1.352   2.628   1.896 -0.5519 -0.3359  0.2981
  348SOL    HW1 1390   1.410   2.556   1.913  1.7877 -0.2731 -0.9734
  348SOL    HW2 1391   1.388   2.691   1.953 -1.2020 -0.8255 -1.6120
  348SOL     MW 1392   1.364   2.627   1.906 -0.3290 -0.3922 -0.1217
  349SOL     OW 1393   1.380   0.218   2.659  0.0743 -0.1429 -0.0427
  349SOL    HW1 1394   1.353   0.270   2.738 -1.7080 -0.5340  0.6258
  349SOL    HW2 1395   1.469   0.179   2.685  0.1917 -1.9067 -1.2715
  349SOL     MW 1396   1.388   0.220   2.673 -0.1454 -0.4272 -0.1166
  350SOL     OW 1397   1.837   0.706   2.617 -0.2584 -0.1780  0.0047
  350SOL    HW1 1398   1.802   0.616   2.602 -1.8908 -0.6292 -0.6168
  350SOL    HW2 1399   1.930   0.698   2.629  0.1227  0.8947  0.8328
  350SOL     MW 1400   1.844   0.693   2.616 -0.4235 -0.0960  0.0320
  351SOL     OW 1401   0.015   0.938   1.599  0.6017  0.0902  0.3662
  351SOL    HW1 1402  -0.044   0.977   1.662  0.5801  2.3236 -0.5961
  351SOL    HW2 1403   0.070   1.013   1.578  0.6374  0.7044 -0.3568
  351SOL     MW 1404   0.014   0.953   1.605  0.6036  0.4659  0.1439
  352SOL     OW 1405   0.757   1.625   2.765 -0.8785  0.2304  0.0630
  352SOL    HW1 1406   0.807   1.592   2.848 -0.2400 -0.5815  4.0585
  352SOL    HW2 1407   0.706   1.553   2.722 -2.3939 -0.4470  0.3932
  352SOL     MW 1408   0.757   1.611   2.770 -0.9942  0.0339  0.6337
  353SOL     OW 1409   3.006   2.409   2.766 -0.5815  0.2155 -0.3541
  353SOL    HW1 1410   3.091   2.377   2.736  0.9051 -0.1887 -0.4059
  353SOL    HW2 1411   2.988   2.491   2.718  0.5613  0.9788  0.8428
  353SOL     MW 1412   3.015   2.416   2.756 -0.2345  0.2629 -0.2030
  354SOL     OW 1413   0.407   2.388   0.866  0.1608 -0.3498 -0.2080
  354SOL    HW1 1414   0.453   2.362   0.944 -2.1271  1.1988 -1.5058
  354SOL    HW2 1415   0.324   2.337   0.861 -0.2050  0.5608 -1.6323
  354SOL     MW 1416   0.402   2.378   0.875 -0.1893 -0.0253 -0.5671
  355SOL     OW 1417   0.077   2.223   0.376 -0.0455 -0.5920 -0.1000
  355SOL    HW1 1418  -0.012   2.179   0.369 -2.7019 -0.7776  0.6375
  355SOL    HW2 1419   0.078   2.260   0.463 -0.5167 -2.7575 -1.7305
  355SOL     MW 1420   0.065   2.222   0.387 -0.4582 -0.9022 -0.2178
  356SOL     OW 1421   0.809   2.953   1.028  0.4735 -0.3631 -0.0303
  356SOL    HW1 1422   0.888   2.943   0.970  1.2210 -0.5387 -3.2520
  356SOL    HW2 1423   0.743   2.891   0.992  1.2091  1.4565  1.1075
  356SOL     MW 1424   0.811   2.943   1.015  0.6692 -0.1462 -0.3053
  357SOL     OW 1425   1.784   2.926   0.362 -0.3765 -0.6826 -0.0678
  357SOL    HW1 1426   1.731   2.875   0.422  0.2520  0.1695 -2.2051
  357SOL    HW2 1427   1.844   2.863   0.331  2.1467  1.0312 -0.1616
  357SOL     MW 1428   1.785   2.911   0.366  0.0393 -0.3441 -0.3622
  358SOL     OW 1429   0.390   0.166   1.015 -0.4731 -0.3069 -0.1888
  358SOL    HW1 1430   0.476   0.134   1.010  0.6968 -2.2634 -0.1762
  358SOL    HW2 1431   0.355   0.164   0.925  2.4270  2.3076 -0.0718
  358SOL     MW 1432   0.397   0.161   1.003  0.0639 -0.2201 -0.1717
  359SOL     OW 1433   0.983   2.795   1.833 -0.3784  1.2632  0.0981
  359SOL    HW1 1434   0.976   2.710   1.884  0.8043 -0.8634 -2.1101
  359SOL    HW2 1435   1.020   2.755   1.754 -2.3220 -0.0531  0.7399
  359SOL     MW 1436   0.987   2.779   1.829 -0.4788  0.8089 -0.1086
  360SOL     OW 1437   0.629   2.795   0.944 -0.0616  0.0479  0.6349
  360SOL    HW1 1438   0.662   2.741   0.870  0.6829  1.5956 -1.4982
  360SOL    HW2 1439   0.622   2.723   1.011 -2.3400  0.4455 -1.0494
  360SOL     MW 1440   0.632   2.778   0.943 -0.2640  0.3046  0.1312
  361SOL     OW 1441   0.159   2.754   1.364  0.4715 -0.0336  0.4795
  361SOL    HW1 1442   0.131   2.832   1.405 -1.9024 -3.0350 -1.3932
  361SOL    HW2 1443   0.255   2.754   1.371 -1.9592 -0.1511  0.5667
  361SOL     MW 1444   0.168   2.764   1.370 -0.1624 -0.4451  0.2439
  362SOL     OW 1445   1.497   2.428   0.590  0.3053  0.6559  0.4784
  362SOL    HW1 1446   1.464   2.343   0.619 -0.9660  2.2867  0.4469
  362SOL    HW2 1447   1.490   2.492   0.661 -0.8143 -0.0681 -2.2718
  362SOL     MW 1448   1.492   2.425   0.603 -0.0102  0.7755  0.1114
  363SOL     OW 1449   0.224   3.044   0.751  0.3466  0.0595  0.1334
  363SOL    HW1 1450   0.223   2.977   0.818 -1.0779 -0.5598  2.7016
  363SOL    HW2 1451   0.141   3.044   0.703  0.6178 -1.1724 -1.2413
  363SOL     MW 1452   0.213   3.035   0.753  0.1945 -0.1848  0.2909
  364SOL     OW 1453   0.722   0.178   0.154 -0.5858  0.2805  0.0206
  364SOL    HW1 1454   0.696   0.081   0.164  0.5401 -3.0812  1.2014
  364SOL    HW2 1455   0.640   0.219   0.158 -1.5967 -0.6546 -0.0236
  364SOL     MW 1456   0.707   0.171   0.156 -0.5706 -0.2864  0.1705
  365SOL     OW 1457   0.987   1.958   1.138 -0.9093 -0.1646 -0.2151
  365SOL    HW1 1458   0.955   2.041   1.109 -1.9875  0.8944  2.2636
  365SOL    HW2 1459   0.946   1.897   1.082 -0.2543  2.2039 -0.3561
  365SOL     MW 1460   0.977   1.961   1.127 -0.9651  0.2876  0.0934
  366SOL     OW 1461   2.867   2.677   1.017 -0.0257 -0.2450 -0.6490
  366SOL    HW1 1462   2.951   2.643   1.061 -0.7356  0.6057 -1.6286
  366SOL    HW2 1463   2.892   2.682   0.926 -0.5489  0.1571 -3.3804
  366SOL     MW 1464   2.881   2.673   1.010 -0.1884 -0.0797 -1.1387
  367SOL     OW 1465   1.286   2.892   0.878 -0.1846 -1.0150 -0.4139
  367SOL    HW1 1466   1.198   2.926   0.876 -3.7120 -0.6117 -2.7285
  367SOL    HW2 1467   1.277   2.816   0.813  0.8319 -0.5473  0.7168
  367SOL     MW 1468   1.273   2.886   0.870 -0.5159 -0.9001 -0.5701
  368SOL     OW 1469   1.681   0.448   0.650 -0.3388 -0.1342  0.1451
  368SOL    HW1 1470   1.730   0.379   0.606 -0.9255  0.9072 -0.4508
  368SOL    HW2 1471   1.718   0.529   0.617 -2.7124  3.5467 -0.0345
  368SOL     MW 1472   1.693   0.449   0.640 -0.7294  0.4889  0.0428
  369SOL     OW 1473   0.132   2.502   1.743  0.4573 -0.0819 -0.1929
  369SOL    HW1 1474   0.219   2.473   1.771 -0.5136 -0.4374 -1.9885
  369SOL    HW2 1475   0.121   2.586   1.779 -0.5017 -2.2362 -3.4435
  369SOL     MW 1476   0.142   2.509   1.751  0.2026 -0.4130 -0.8587
  370SOL     OW 1477   0.662   0.105   0.954 -0.1113  0.0152  0.2315
  370SOL    HW1 1478   0.724   0.179   0.943 -0.2699  0.8399 -0.1325
  370SOL    HW2 1479   0.721   0.035   0.985  0.5524 -0.2736  1.4744
  370SOL     MW 1480   0.678   0.106   0.956 -0.0447  0.0859  0.3475
  371SOL     OW 1481   1.327   2.973   1.510 -0.2292  0.1287 -0.0624
  371SOL    HW1 1482   1.242   2.940   1.520  0.6974  0.6543 -3.5726
  371SOL    HW2 1483   1.323   3.043   1.438 -2.1867  0.7229  0.2089
  371SOL     MW 1484   1.315   2.978   1.502 -0.3652  0.2765 -0.4898
  372SOL     OW 1485   0.829   2.248   0.523  0.3316  0.5949 -0.0406
  372SOL    HW1 1486   0.786   2.154   0.535 -2.2533  0.1492 -1.7657
  372SOL    HW2 1487   0.825   2.248   0.425  2.2425  1.0890  0.2647
  372SOL     MW 1488   0.823   2.235   0.512  0.2427  0.6013 -0.2280
  373SOL     OW 1489   2.847   3.043   1.411  0.4223 -0.4210  0.7279
  373SOL    HW1 1490   2.915   2.995   1.360  1.1747 -0.4243  2.4256
  373SOL    HW2 1491   2.815   3.118   1.357  0.9389  0.2069 -0.8994
  373SOL     MW 1492   2.851   3.047   1.397  0.5897 -0.3386  0.7372
  374SOL     OW 1493   1.492   0.514   0.235 -0.1509 -0.5113  0.3129
  374SOL    HW1 1494   1.569   0.554   0.256 -1.6586  0.1006  1.8171
  374SOL    HW2 1495   1.475   0.481   0.322  1.6945  0.5910  0.4598
  374SOL     MW 1496   1.500   0.515   0.249 -0.1063 -0.2851  0.5307
  375SOL     OW 1497   1.156   2.102   2.264 -0.1315 -0.0790 -0.2230
  375SOL    HW1 1498   1.175   2.130   2.359  0.1259 -0.1137  1.9761
  375SOL    HW2 1499   1.134   2.007   2.275  1.1650 -0.0340 -0.9637
  375SOL     MW 1500   1.156   2.093   2.278  0.0735 -0.0777 -0.0306
  376SOL     OW 1501   0.655   2.545   0.137 -0.5108  0.1222 -0.2393
  376SOL    HW1 1502   0.642   2.481   0.204 -0.9808 -0.0740  0.3229
  376SOL    HW2 1503   0.639   2.498   0.052  3.2745 -0.1245 -1.4079
  376SOL     MW 1504   0.651   2.530   0.135 -0.0734  0.0637 -0.3193
  377SOL     OW 1505   1.210   2.040   0.910  0.0712 -0.5365 -0.6586
  377SOL    HW1 1506   1.160   1.989   0.843  1.9119 -2.0229 -0.6823
  377SOL    HW2 1507   1.241   1.976   0.976  0.6466 -0.8910  1.0935
  377SOL     MW 1508   1.208   2.025   0.910  0.3900 -0.7794 -0.4305
  378SOL     OW 1509   0.969   2.812   1.523  0.3441  0.2387  0.4149
  378SOL    HW1 1510   0.917   2.728   1.550 -0.3802 -1.0359  2.8941
  378SOL    HW2 1511   0.937   2.841   1.438  2.3858 -0.3359 -0.1429
  378SOL     MW 1512   0.958   2.805   1.515  0.5179 -0.0053  0.6684
  379SOL     OW 1513   1.063   1.844   2.294  0.2098  0.5419 -0.1573
  379SOL    HW1 1514   0.970   1.834   2.283  0.0327 -1.8825 -0.0799
  379SOL    HW2 1515   1.092   1.766   2.240  2.0508 -1.8025 -1.6186
  379SOL     MW 1516   1.055   1.832   2.285  0.4294 -0.0873 -0.3399
  380SOL     OW 1517   0.897   0.214   1.541 -0.2558 -0.2341 -0.6477
  380SOL    HW1 1518   0.937   0.174   1.458 -1.6767  0.8294 -2.4075
  380SOL    HW2 1519   0.972   0.216   1.604  2.0181 -0.9901  1.3053
  380SOL     MW 1520   0.912   0.209   1.538 -0.1432 -0.1936 -0.6222
  381SOL     OW 1521   0.822   2.011   0.800  0.4073  0.0860 -0.1839
  381SOL    HW1 1522   0.908   2.006   0.756 -0.6255  0.5329  0.4743
  381SOL    HW2 1523   0.834   2.070   0.878 -1.5820 -1.8612 -0.0512
  381SOL     MW 1524   0.835   2.018   0.805  0.0086 -0.1120 -0.0796
  382SOL     OW 1525   0.715   0.017   0.706  0.7504 -0.3295  0.2363
  382SOL    HW1 1526   0.668   0.048   0.786  0.9818  0.9277  0.8324
  382SOL    HW2 1527   0.669  -0.054   0.667 -1.2835 -0.8719  2.7777
  382SOL     MW 1528   0.703   0.011   0.711  0.5126 -0.2352  0.6503
  383SOL     OW 1529   0.484   0.023   0.373 -0.4204  0.5620  0.1975
  383SOL    HW1 1530   0.548  -0.048   0.367  4.0571  0.0909 -0.1549
  383SOL    HW2 1531   0.398  -0.019   0.371  1.8552  1.6024  2.2289
  383SOL     MW 1532   0.481   0.008   0.372  0.4706  0.6371  0.4191
  384SOL     OW 1533   0.590   2.882   0.575 -0.1140 -0.0154  0.1452
  384SOL    HW1 1534   0.607   2.805   0.627 -1.7811  2.0028 -1.0497
  384SOL    HW2 1535   0.498   2.882   0.563 -0.1505  1.0594  0.8394
  384SOL     MW 1536   0.580   2.872   0.580 -0.3388  0.3927  0.0791
  385SOL     OW 1537   1.319   2.080   1.550 -0.2736  0.3183  0.6374
  385SOL    HW1 1538   1.412   2.082   1.587  2.6613 -0.3346 -0.9493
  385SOL    HW2 1539   1.272   1.996   1.581 -2.1733 -0.1452  0.9474
  385SOL     MW 1540   1.325   2.069   1.559 -0.1370  0.1710  0.4689
  386SOL     OW 1541   1.378   0.432   0.915  0.0192 -0.3475 -0.1586
  386SOL    HW1 1542   1.315   0.370   0.871 -0.8899 -1.5209  1.1353
  386SOL    HW2 1543   1.344   0.440   1.007 -1.5409  2.6557 -0.0260
  386SOL     MW 1544   1.365   0.425   0.922 -0.3066 -0.1060  0.0296
  387SOL     OW 1545   0.856   2.173   1.512 -0.4022  0.5361  0.0989
  387SOL    HW1 1546   0.900   2.249   1.493 -1.7472 -0.3501 -0.3996
  387SOL    HW2 1547   0.920   2.101   1.483 -0.0877 -1.2999 -0.2279
  387SOL     MW 1548   0.871   2.174   1.506 -0.5382  0.1769 -0.0100
  388SOL     OW 1549   1.521   2.801   1.204 -0.4119 -0.3361  0.8635
  388SOL    HW1 1550   1.450   2.745   1.171 -0.1173  0.0406  0.1483
  388SOL    HW2 1551   1.605   2.775   1.170 -1.3919  0.3520  1.2309
  388SOL     MW 1552   1.522   2.790   1.195 -0.5024 -0.1956  0.8176
  389SOL     OW 1553   0.373   0.195   3.087 -0.0919  0.0403  0.0223
  389SOL    HW1 1554   0.401   0.107   3.065  2.4555  1.8089 -4.5435
  389SOL    HW2 1555   0.283   0.202   3.063 -3.2454 -0.3179 -0.3658
  389SOL     MW 1556   0.365   0.184   3.081 -0.1718  0.2264 -0.6313
  390SOL     OW 1557   1.351   0.056   0.592 -0.0911  0.4398  0.3819
  390SOL    HW1 1558   1.438   0.091   0.582 -0.3172 -1.7368 -0.3282
  390SOL    HW2 1559   1.335   0.059   0.689 -2.2851 -0.9854  0.4578
  390SOL     MW 1560   1.361   0.061   0.604 -0.4104 -0.0354  0.2982
  391SOL     OW 1561   0.296   2.295   1.445  0.2942 -0.5677  0.2901
  391SOL    HW1 1562   0.242   2.225   1.487 -0.7334 -1.8056  1.1276
  391SOL    HW2 1563   0.225   2.359   1.434  1.0811  0.5197 -0.4378
  391SOL     MW 1564   0.279   2.294   1.449  0.2625 -0.5875  0.3046
  392SOL     OW 1565   1.985   2.159   0.323  0.2452  0.5788  0.1896
  392SOL    HW1 1566   1.927   2.221   0.359  0.2766  1.0162  0.1455
  392SOL    HW2 1567   2.055   2.148   0.392 -0.6819 -0.0771  1.3511
  392SOL     MW 1568   1.986   2.166   0.337  0.1271  0.5500  0.3370
  393SOL     OW 1569   0.252   3.001   2.885  0.3435 -0.0094 -1.0332
  393SOL    HW1 1570   0.322   3.047   2.849 -1.0045  0.3275  1.5040
  393SOL    HW2 1571   0.181   3.017   2.826 -0.0124  3.0182 -0.2727
  393SOL     MW 1572   0.252   3.009   2.872  0.1187  0.4345 -0.5981
  394SOL     OW 1573   0.833   1.628   1.407  0.0811  0.3976  0.0143
  394SOL    HW1 1574   0.761   1.638   1.475 -0.8954 -1.4610  0.0948
  394SOL    HW2 1575   0.877   1.720   1.403 -2.3534 -0.7816 -0.0195
  394SOL     MW 1576   0.829   1.641   1.415 -0.3690 -0.0032  0.0204
  395SOL     OW 1577   0.930   2.881   2.581 -0.0807 -0.4585  0.3775
  395SOL    HW1 1578   0.966   2.942   2.640  2.3896 -1.8828 -1.5169
  395SOL    HW2 1579   1.019   2.849   2.555 -1.2910  0.3390 -0.5777
  395SOL     MW 1580   0.946   2.885   2.586  0.0856 -0.5412  0.0016
  396SOL     OW 1581   0.767   1.867   2.379 -0.0757 -0.1001 -0.1504
  396SOL    HW1 1582   0.826   1.890   2.448 -0.8179 -0.5839 -0.1737
  396SOL    HW2 1583   0.731   1.782   2.409  0.6914 -2.5453 -0.9632
  396SOL     MW 1584   0.770   1.859   2.392 -0.0724 -0.4866 -0.2607
  397SOL     OW 1585   1.015   2.339   1.339 -0.4364 -0.2823 -0.0400
  397SOL    HW1 1586   1.040   2.400   1.275 -0.4714  0.1140  0.9962
  397SOL    HW2 1587   1.083   2.322   1.406  2.7464  0.4777 -0.2246
  397SOL     MW 1588   1.027   2.345   1.339 -0.0211 -0.1297  0.0724
  398SOL     OW 1589   0.656   2.648   0.723  0.5089  1.0114  0.4636
  398SOL    HW1 1590   0.574   2.616   0.700  0.8859 -0.9503  1.9590
  398SOL    HW2 1591   0.718   2.601   0.675 -1.4839  2.2471 -2.4380
  398SOL     MW 1592   0.653   2.638   0.713  0.2957  0.9156  0.2780
  399SOL     OW 1593   0.279   2.036   0.364 -0.1117 -0.4133 -0.1297
  399SOL    HW1 1594   0.218   2.110   0.363 -0.7922 -0.9525 -0.4968
  399SOL    HW2 1595   0.352   2.045   0.292  0.6854 -0.6021  1.8914
  399SOL     MW 1596   0.281   2.047   0.355 -0.0963 -0.5093  0.0885
  400SOL     OW 1597   0.618   1.849   0.162 -0.0389 -0.3278 -0.4239
  400SOL    HW1 1598   0.577   1.936   0.150 -1.6971 -0.5346 -0.1479
  400SOL    HW2 1599   0.574   1.801   0.233  0.1361 -0.0650 -0.7077
  400SOL     MW 1600   0.607   1.855   0.170 -0.2346 -0.3204 -0.4249
  401SOL     OW 1601   0.996   2.058   0.092 -0.3002  0.0019  1.1780
  401SOL    HW1 1602   1.004   1.956   0.112 -0.7364  0.1036  0.9743
  401SOL    HW2 1603   1.059   2.088   0.154 -0.0836  0.0317 -1.1622
  401SOL     MW 1604   1.005   2.049   0.103 -0.3292  0.0193  0.8423
  402SOL     OW 1605   0.731   2.871   1.741  0.2809  0.5218 -0.3686
  402SOL    HW1 1606   0.662   2.833   1.788  0.7154  0.4828 -0.5850
  402SOL    HW2 1607   0.812   2.874   1.794  1.1057 -2.9607  1.5586
  402SOL     MW 1608   0.732   2.867   1.754  0.4471  0.0572 -0.1429
  403SOL     OW 1609   0.058   0.499   0.417  0.1882 -0.4747  0.5842
  403SOL    HW1 1610   0.155   0.523   0.432 -0.8683  0.2596  1.5185
  403SOL    HW2 1611   0.054   0.450   0.327  0.5091  0.9716  1.1252
  403SOL     MW 1612   0.071   0.495   0.407  0.0912 -0.1870  0.7789
  404SOL     OW 1613   0.981   2.901   0.799  0.2716  0.1760 -0.3814
  404SOL    HW1 1614   1.036   2.834   0.767 -0.5854  0.1160  0.2035
  404SOL    HW2 1615   1.006   2.983   0.753  1.8406 -1.8207  1.4838
  404SOL     MW 1616   0.991   2.903   0.788  0.3655 -0.0954 -0.0581
  405SOL     OW 1617   0.479   2.472   1.542  0.0844 -0.1428  0.0938
  405SOL    HW1 1618   0.449   2.554   1.489 -2.9718  1.9066 -1.5485
  405SOL    HW2 1619   0.418   2.410   1.509  3.1561  2.1716  1.7462
  405SOL     MW 1620   0.467   2.475   1.530  0.0865  0.4330  0.0951
  406SOL     OW 1621   0.418   2.380   1.149  0.0322 -0.3378  0.0160
  406SOL    HW1 1622   0.327   2.384   1.112 -0.6537  1.3694 -1.9929
  406SOL    HW2 1623   0.416   2.296   1.207  1.0346  0.2147 -0.0700
  406SOL     MW 1624   0.406   2.369   1.152  0.0740 -0.0397 -0.2604
  407SOL     OW 1625   0.026   2.689   1.124  0.3068  0.1161 -0.4675
  407SOL    HW1 1626   0.079   2.675   1.206 -1.4765  2.1718 -1.5036
  407SOL    HW2 1627   0.093   2.693   1.050  0.4261  2.3647 -4.0170
  407SOL     MW 1628   0.042   2.688   1.125  0.0873  0.6840 -1.0725
  408SOL     OW 1629   2.126   2.133   0.576  0.4323 -0.2721  0.2192
  408SOL    HW1 1630   2.135   2.217   0.624  1.7089  1.9316  4.7008
  408SOL    HW2 1631   2.041   2.084   0.610 -2.4073 -0.3389 -0.4634
  408SOL     MW 1632   2.116   2.138   0.587  0.2261  0.0099  0.7204
  409SOL     OW 1633   1.329   0.108   0.884 -0.6423 -0.7897  0.0908
  409SOL    HW1 1634   1.389   0.180   0.909  1.7914  1.0565 -1.0404
  409SOL    HW2 1635   1.359   0.027   0.925 -1.1685 -0.1488  0.7574
  409SOL     MW 1636   1.341   0.107   0.893 -0.3906 -0.4616  0.0295
  410SOL     OW 1637   1.095   2.494   1.062 -0.2124  0.5034  0.0348
  410SOL    HW1 1638   1.033   2.481   0.986 -0.3728  0.0701 -1.4402
  410SOL    HW2 1639   1.169   2.431   1.033 -1.3920 -2.3065  0.7108
  410SOL     MW 1640   1.097   2.484   1.048 -0.3892  0.0755 -0.0707
  411SOL     OW 1641   1.976   0.112   2.856  0.0389 -0.5661 -0.2764
  411SOL    HW1 1642   1.925   0.093   2.774 -1.2674  0.0530  0.4756
  411SOL    HW2 1643   1.915   0.116   2.937 -0.6598  2.4696  2.7273
  411SOL     MW 1644   1.962   0.110   2.856 -0.2257 -0.0839  0.2191
  412SOL     OW 1645   1.078   2.207   0.564  0.1813 -0.1207  0.1657
  412SOL    HW1 1646   1.110   2.283   0.613 -0.4794  2.3888 -0.4975
  412SOL    HW2 1647   0.984   2.230   0.549 -0.9825 -0.6355 -2.4693
  412SOL     MW 1648   1.070   2.220   0.569 -0.0595  0.1425 -0.2694
  413SOL     OW 1649   0.554   2.800   0.161  0.3513  0.5905  0.3095
  413SOL    HW1 1650   0.571   2.700   0.152  1.1802 -0.8975 -1.5939
  413SOL    HW2 1651   0.580   2.827   0.072  0.6285 -0.8019 -1.7782
  413SOL     MW 1652   0.559   2.790   0.148  0.4973  0.2105 -0.2171
  414SOL     OW 1653   1.987   3.058   1.083 -0.3360  0.3590  0.1643
  414SOL    HW1 1654   1.938   3.039   1.000 -0.0885  0.6256  0.4857
  414SOL    HW2 1655   2.069   3.002   1.079 -0.2019 -0.7669 -1.8093
  414SOL     MW 1656   1.991   3.048   1.072 -0.2857  0.2457 -0.0537
  415SOL     OW 1657   1.713   2.674   1.060 -0.2120 -0.5911  0.1528
  415SOL    HW1 1658   1.680   2.605   1.124  0.4915 -1.1598  1.1316
  415SOL    HW2 1659   1.802   2.688   1.088 -2.0416  2.9925 -3.9425
  415SOL     MW 1660   1.720   2.666   1.072 -0.3606 -0.1933 -0.2584
  416SOL     OW 1661   0.619   1.929   1.386  0.2766 -0.3789 -0.0637
  416SOL    HW1 1662   0.573   2.014   1.390  1.6815  0.3265  1.8969
  416SOL    HW2 1663   0.614   1.906   1.289  0.2021  0.4599 -0.9981
  416SOL     MW 1664   0.612   1.937   1.374  0.4522 -0.1751  0.0717
  417SOL     OW 1665   1.022   3.014   1.982  0.0530  0.1706 -0.0437
  417SOL    HW1 1666   0.941   2.990   2.032 -1.5039  1.4374  1.2466
  417SOL    HW2 1667   1.013   2.947   1.915  0.0564  1.4915 -0.0660
  417SOL     MW 1668   1.010   3.002   1.980 -0.1519  0.5120  0.1236
  418SOL     OW 1669   0.708   3.008   0.213 -0.5213 -0.4877  0.2346
  418SOL    HW1 1670   0.790   2.987   0.172 -1.2967  0.7048  1.3672
  418SOL    HW2 1671   0.650   2.932   0.196  2.8990 -2.9604 -0.6478
  418SOL     MW 1672   0.711   2.995   0.206 -0.1724 -0.6566  0.2676
  419SOL     OW 1673   0.456   2.703   1.379 -0.0940 -0.0689 -0.4328
  419SOL    HW1 1674   0.520   2.740   1.437 -3.2057 -0.7685 -0.3270
  419SOL    HW2 1675   0.499   2.676   1.295  1.9808 -1.2734  0.3421
  419SOL     MW 1676   0.470   2.704   1.375 -0.2308 -0.3201 -0.3166
  420SOL     OW 1677   0.869   2.183   1.010 -0.7092 -0.3637 -0.2696
  420SOL    HW1 1678   0.822   2.207   1.090 -0.2776 -0.5544  0.2737
  420SOL    HW2 1679   0.896   2.269   0.979 -1.2931 -0.7386 -2.4351
  420SOL     MW 1680   0.866   2.198   1.017 -0.7293 -0.4383 -0.4836
  421SOL     OW 1681   2.947   0.081   0.012  0.1643  0.0549  0.0331
  421SOL    HW1 1682   2.928   0.030  -0.063  1.7834  2.2661  1.4096
  421SOL    HW2 1683   2.964   0.017   0.084  0.1211  1.7474 -1.3493
  421SOL     MW 1684   2.947   0.065   0.012  0.3723  0.5700  0.0323
  422SOL     OW 1685   0.887   2.454   0.876  0.6314 -0.1326  0.4018
  422SOL    HW1 1686   0.800   2.487   0.893 -0.6928 -0.1124 -0.2714
  422SOL    HW2 1687   0.902   2.455   0.784 -0.0876 -1.8167  2.4400
  422SOL     MW 1688   0.877   2.459   0.866  0.3618 -0.3521  0.5819
  423SOL     OW 1689   1.595   0.166   0.492 -0.6248  0.4206  0.1359
  423SOL    HW1 1690   1.565   0.132   0.407  0.8103  0.9231 -0.4694
  423SOL    HW2 1691   1.566   0.257   0.497  2.6116  1.9321 -1.4522
  423SOL     MW 1692   1.587   0.174   0.481 -0.0085  0.6863 -0.1535
  424SOL     OW 1693   0.734   2.215   1.250 -0.4538  0.1337  0.0746
  424SOL    HW1 1694   0.643   2.195   1.240  1.3115 -0.0782 -1.6497
  424SOL    HW2 1695   0.756   2.201   1.345  1.8179  2.0149  0.8723
  424SOL     MW 1696   0.725   2.211   1.261  0.0788  0.3540 -0.0476
  425SOL     OW 1697   1.750   2.866   2.013  0.2287 -0.0534 -0.5723
  425SOL    HW1 1698   1.747   2.864   1.916 -1.6891  1.4866  1.1248
  425SOL    HW2 1699   1.759   2.774   2.034 -0.5093 -0.4445  0.7401
  425SOL     MW 1700   1.751   2.853   2.003 -0.1217  0.0982 -0.1752
  426SOL     OW 1701   0.753   1.619   1.910  0.5329  0.3213  0.2587
  426SOL    HW1 1702   0.724   1.653   1.823 -0.4319  1.2898 -2.8956
  426SOL    HW2 1703   0.747   1.692   1.966 -0.1985 -0.8780  0.6217
  426SOL     MW 1704   0.749   1.633   1.906  0.3091  0.2908 -0.1096
  427SOL     OW 1705   0.405   1.565   1.860 -0.2698  0.3008 -0.0072
  427SOL    HW1 1706   0.475   1.566   1.933 -0.9449  2.0429  0.4854
  427SOL    HW2 1707   0.333   1.513   1.896  4.0952 -0.9627  2.1864
  427SOL     MW 1708   0.404   1.558   1.875  0.2170  0.3639  0.3472
  428SOL     OW 1709   0.576   2.605   1.153 -0.2696 -0.6296 -0.1603
  428SOL    HW1 1710   0.655   2.570   1.200  0.8737 -1.3684  2.5850
  428SOL    HW2 1711   0.525   2.523   1.150 -1.0712 -1.6957  4.7080
  428SOL     MW 1712   0.579   2.589   1.159 -0.2245 -0.8677  0.8443
  429SOL     OW 1713   1.338   2.665   1.060 -0.3101 -0.6074 -0.7531
  429SOL    HW1 1714   1.262   2.607   1.068  2.3906 -1.0312  1.6354
  429SOL    HW2 1715   1.307   2.744   1.015  0.1013 -0.5853  1.3541
  429SOL     MW 1716   1.324   2.668   1.055  0.1005 -0.6604 -0.1599
  430SOL     OW 1717   1.192   2.716   0.689 -0.1680  0.0472 -0.2920
  430SOL    HW1 1718   1.229   2.633   0.724  0.2657  1.9388  0.0153
  430SOL    HW2 1719   1.135   2.701   0.614 -0.1050  0.9260  0.5649
  430SOL     MW 1720   1.189   2.703   0.684 -0.1025  0.4127 -0.1384
  431SOL     OW 1721   0.304   1.947   1.154 -0.2042  0.4325 -0.0312
  431SOL    HW1 1722   0.377   1.880   1.137  1.5611  0.2347 -0.5478
  431SOL    HW2 1723   0.272   1.971   1.065 -4.3238 -3.2708  0.9744
  431SOL     MW 1724   0.309   1.941   1.140 -0.5149 -0.0822  0.0333
  432SOL     OW 1725   0.055   0.044   1.155 -0.1861  0.2833 -0.2208
  432SOL    HW1 1726   0.069   0.093   1.235  1.7925  0.3670 -2.5539
  432SOL    HW2 1727   0.011  -0.037   1.170  0.0030  0.4104  0.6806
  432SOL     MW 1728   0.051   0.040   1.168  0.0999  0.3111 -0.4097
  433SOL     OW 1729   0.678   2.863   1.457  0.0835  0.0093  0.4573
  433SOL    HW1 1730   0.698   2.861   1.553 -0.2371  1.2349 -0.9413
  433SOL    HW2 1731   0.755   2.898   1.416  0.1720  0.0200 -2.1675
  433SOL     MW 1732   0.691   2.867   1.464  0.0529  0.1724 -0.0735
  434SOL     OW 1733   1.550   2.815   1.465  0.1371  0.2659  0.0969
  434SOL    HW1 1734   1.486   2.876   1.502  0.4631 -1.7254  0.6297
  434SOL    HW2 1735   1.515   2.794   1.372  1.5776  1.1006 -2.4438
  434SOL     MW 1736   1.537   2.820   1.458  0.3702  0.1133 -0.1680
  435SOL     OW 1737   2.864   1.797   0.250 -0.1557 -0.0757 -0.0113
  435SOL    HW1 1738   2.945   1.845   0.224  1.1644 -0.3594 -0.6987
  435SOL    HW2 1739   2.843   1.728   0.183 -1.3491  1.6056  1.9774
  435SOL     MW 1740   2.872   1.795   0.238 -0.1390  0.1087  0.1604
  436SOL     OW 1741   1.414   2.765   0.316 -0.4318 -0.2998  0.1447
  436SOL    HW1 1742   1.474   2.737   0.384 -3.7537 -1.8315 -0.5863
  436SOL    HW2 1743   1.379   2.852   0.341 -0.2555 -0.7217 -1.8826
  436SOL     MW 1744   1.417   2.773   0.328 -0.8468 -0.5576 -0.2192
  437SOL     OW 1745   0.878   2.936   1.286  0.1984 -0.2419  0.5617
  437SOL    HW1 1746   0.907   3.026   1.314  0.6357  0.4749  2.6174
  437SOL    HW2 1747   0.821   2.942   1.207 -0.0083  1.2991  2.1060
  437SOL     MW 1748   0.874   2.949   1.279  0.2289  0.0560  1.0367
  438SOL     OW 1749   0.852   2.569   1.993 -0.4225  0.1901  0.2172
  438SOL    HW1 1750   0.857   2.519   2.076  2.8104  0.6416 -4.0892
  438SOL    HW2 1751   0.767   2.537   1.961  0.1188  0.8616  0.0032
  438SOL     MW 1752   0.841   2.558   2.000  0.0755  0.3383 -0.3792
  439SOL     OW 1753   1.161   2.161   0.313 -0.0580  0.4246 -0.0769
  439SOL    HW1 1754   1.126   2.191   0.402  1.1548  0.4416 -1.3256
  439SOL    HW2 1755   1.174   2.244   0.268  0.7393 -1.1135  1.4933
  439SOL     MW 1756   1.158   2.176   0.319  0.2072  0.2239 -0.0345
  440SOL     OW 1757   1.659   2.996   3.011 -0.4318 -0.7754  0.1366
  440SOL    HW1 1758   1.624   2.972   3.096  0.2275 -2.0925  0.0064
  440SOL    HW2 1759   1.688   2.912   2.976  0.6844 -0.0686 -0.6622
  440SOL     MW 1760   1.658   2.982   3.018 -0.1976 -0.8559  0.0140
  441SOL     OW 1761   0.309   2.570   0.540 -0.0808 -0.1877 -0.2921
  441SOL    HW1 1762   0.320   2.550   0.439 -0.4079  1.3661 -0.4423
  441SOL    HW2 1763   0.326   2.664   0.564  2.0208  0.4169  0.9226
  441SOL     MW 1764   0.313   2.580   0.530  0.1533  0.0971 -0.1517
  442SOL     OW 1765   0.036   2.348   0.647 -0.4418  0.2688 -0.1221
  442SOL    HW1 1766   0.045   2.441   0.626 -2.0308 -0.6631  3.2500
  442SOL    HW2 1767  -0.049   2.325   0.680  1.9680 -1.4268 -1.2276
  442SOL     MW 1768   0.026   2.357   0.648 -0.3335 -0.0779  0.1770
  443SOL     OW 1769   1.336   1.691   1.835 -0.6064 -0.3189 -0.4337
  443SOL    HW1 1770   1.329   1.733   1.748  0.5942  3.3707 -3.0222
  443SOL    HW2 1771   1.296   1.601   1.827 -1.0021  0.2614  1.1600
  443SOL     MW 1772   1.330   1.684   1.822 -0.5002  0.2444 -0.5650
  444SOL     OW 1773   0.828   2.568   1.585 -0.1441 -0.0814  0.5385
  444SOL    HW1 1774   0.905   2.539   1.630 -3.1372  0.4512 -0.5973
  444SOL    HW2 1775   0.755   2.564   1.648  0.4508 -1.5719 -2.2124
  444SOL     MW 1776   0.829   2.564   1.599 -0.4605 -0.2078  0.0257
  445SOL     OW 1777   0.975   0.096   1.296  0.0754 -0.0223 -0.2756
  445SOL    HW1 1778   0.916   0.165   1.265  3.5223 -1.1374  0.4782
  445SOL    HW2 1779   1.043   0.087   1.227  1.8151  0.5110 -2.1415
  445SOL     MW 1780   0.976   0.103   1.282  0.7597 -0.0991 -0.4223
  446SOL     OW 1781   2.784   2.944   1.022  0.2554  0.0183  0.0590
  446SOL    HW1 1782   2.708   2.946   0.964  0.2155  0.6652 -2.2553
  446SOL    HW2 1783   2.822   2.855   0.997  0.0653  0.2144 -0.8942
  446SOL     MW 1784   2.779   2.932   1.011  0.2251  0.1296 -0.3721
  447SOL     OW 1785   3.018   2.051   1.728 -0.2159 -0.2167  1.0222
  447SOL    HW1 1786   3.074   1.980   1.758  0.6693  1.8130 -0.0592
  447SOL    HW2 1787   2.980   2.002   1.653 -0.0297 -0.3629  0.5594
  447SOL     MW 1788   3.020   2.035   1.722 -0.0746  0.0318  0.8184
  448SOL     OW 1789   1.681   2.327   1.662  0.2559 -0.4697 -0.0821
  448SOL    HW1 1790   1.620   2.247   1.666  1.7481 -0.0779  0.3305
  448SOL    HW2 1791   1.628   2.402   1.657  2.0085  0.8193  0.3558
  448SOL     MW 1792   1.666   2.326   1.662  0.6840 -0.2479  0.0301
  449SOL     OW 1793   0.844   2.901   0.423  0.0245  0.7972  0.1689
  449SOL    HW1 1794   0.786   2.925   0.352 -0.8658 -0.5233 -0.1532
  449SOL    HW2 1795   0.784   2.906   0.500 -0.7654 -2.6914 -1.7047
  449SOL     MW 1796   0.829   2.905   0.424 -0.1972  0.1626 -0.1208
  450SOL     OW 1797   1.225   2.417   0.671 -0.0354 -0.2598  1.0726
  450SOL    HW1 1798   1.246   2.405   0.760  2.1977 -1.9177 -3.1252
  450SOL    HW2 1799   1.303   2.454   0.627 -0.5576  1.9384  1.5242
  450SOL     MW 1800   1.238   2.421   0.677  0.1903 -0.1885  0.5784
  451SOL     OW 1801   0.611   1.956   1.679 -0.2555 -0.1006 -0.0366
  451SOL    HW1 1802   0.702   1.984   1.693  2.1506  3.0103 -0.2112
  451SOL    HW2 1803   0.592   1.955   1.584 -1.7835  2.1731  1.2681
  451SOL     MW 1804   0.620   1.959   1.669 -0.1396  0.6098  0.1125
  452SOL     OW 1805   0.295   2.720   0.116 -0.6108  0.4071  0.4719
  452SOL    HW1 1806   0.384   2.760   0.136  2.5479 -0.1663  1.5559
  452SOL    HW2 1807   0.301   2.706   0.021 -0.2858 -0.5159  2.4479
  452SOL     MW 1808   0.308   2.723   0.106 -0.1512  0.2097  0.8756
  453SOL     OW 1809   0.371   2.974   1.634 -0.1729  0.0514 -0.0375
  453SOL    HW1 1810   0.436   3.014   1.582 -1.3548  0.2124  1.9516
  453SOL    HW2 1811   0.297   3.007   1.585 -0.8200  0.0262  2.5018
  453SOL     MW 1812   0.370   2.984   1.621 -0.4142  0.0693  0.5600
  454SOL     OW 1813   1.068   2.794   1.137  0.3628  0.3941 -0.3035
  454SOL    HW1 1814   1.035   2.707   1.111  2.0848 -2.9118 -3.0546
  454SOL    HW2 1815   0.995   2.832   1.188 -0.4697 -0.3302 -2.4114
  454SOL     MW 1816   1.054   2.787   1.141  0.4802 -0.1377 -0.9446
  455SOL     OW 1817   1.601   2.936   0.167 -0.1888  0.0475  0.1317
  455SOL    HW1 1818   1.667   2.924   0.233  2.4661  2.8455  2.2073
  455SOL    HW2 1819   1.525   2.893   0.205 -1.3427  0.2156  0.1882
  455SOL     MW 1820   1.600   2.929   0.181  0.0092  0.4388  0.4130
  456SOL     OW 1821   2.953   0.300   1.410  0.5483  0.8927 -0.3842
  456SOL    HW1 1822   2.898   0.244   1.360 -0.7337  4.0289 -1.0338
  456SOL    HW2 1823   3.004   0.357   1.347 -0.3002 -2.5103  1.9853
  456SOL     MW 1824   2.952   0.300   1.395  0.2672  0.8575 -0.1572
  457SOL     OW 1825   0.874   1.552   3.002 -0.4923  0.0753 -0.3051
  457SOL    HW1 1826   0.807   1.528   3.062  0.1830 -0.0399 -0.2552
  457SOL    HW2 1827   0.953   1.514   3.043 -2.6674  1.3653 -0.2106
  457SOL     MW 1828   0.875   1.544   3.015 -0.6902  0.2303 -0.2860
  458SOL     OW 1829   1.442   1.415   0.635  0.0400 -0.0074 -0.4044
  458SOL    HW1 1830   1.371   1.409   0.697  0.3073 -0.0119  0.8346
  458SOL    HW2 1831   1.430   1.333   0.582 -0.5351 -2.6174  0.8595
  458SOL     MW 1832   1.431   1.404   0.637 -0.0006 -0.3524 -0.0742
  459SOL     OW 1833   1.554   0.121   0.222 -0.4277 -0.0720 -0.1372
  459SOL    HW1 1834   1.557   0.034   0.183  1.1922  0.8436 -1.8197
  459SOL    HW2 1835   1.507   0.188   0.168 -0.7866  1.9340 -0.5701
  459SOL     MW 1836   1.549   0.118   0.209 -0.2613  0.3135 -0.4163
  460SOL     OW 1837   1.698   2.165   0.577 -0.0537  0.3622 -0.2587
  460SOL    HW1 1838   1.618   2.151   0.614 -1.9994 -1.9077 -0.7935
  460SOL    HW2 1839   1.752   2.080   0.578 -3.2124 -0.5641  0.5123
  460SOL     MW 1840   1.695   2.152   0.582 -0.7272 -0.0595 -0.2275
  461SOL     OW 1841   0.485   2.335   0.609  0.8613  0.9789 -0.1341
  461SOL    HW1 1842   0.416   2.387   0.573  1.2690 -2.4585  1.3824
  461SOL    HW2 1843   0.479   2.344   0.703  1.0051 -1.4380 -0.0548
  461SOL     MW 1844   0.475   2.343   0.617  0.9341  0.2065  0.0764
  462SOL     OW 1845   0.372   0.309   1.301 -0.2379  0.4364 -0.2344
  462SOL    HW1 1846   0.383   0.235   1.237 -1.1987 -1.4443 -0.1117
  462SOL    HW2 1847   0.450   0.310   1.354 -4.8347 -0.8757  0.9509
  462SOL     MW 1848   0.384   0.300   1.300 -0.9712  0.0151 -0.0618
  463SOL     OW 1849   1.016   0.051   0.708 -0.2520 -0.1478 -0.5201
  463SOL    HW1 1850   1.044   0.052   0.616  0.1378 -1.6695  0.6436
  463SOL    HW2 1851   0.919   0.062   0.701  0.6081 -0.5967  2.4459
  463SOL     MW 1852   1.007   0.053   0.695 -0.0871 -0.4078  0.0247
  464SOL     OW 1853   0.808   2.941   2.163 -0.8521 -0.6828 -0.4124
  464SOL    HW1 1854   0.769   2.853   2.181  1.0929  0.3115 -0.1822
  464SOL    HW2 1855   0.798   2.989   2.256 -1.4370  2.0424  0.3465
  464SOL     MW 1856   0.802   2.936   2.178 -0.6727 -0.1921 -0.2819
  465SOL     OW 1857   0.739   0.210   0.468  0.5490 -0.1926  0.2832
  465SOL    HW1 1858   0.717   0.167   0.549 -1.6439 -0.2728 -1.3278
  465SOL    HW2 1859   0.750   0.148   0.401 -0.2781 -0.1710  0.6553
  465SOL     MW 1860   0.737   0.196   0.470  0.1505 -0.2003  0.1197
  466SOL     OW 1861   1.060   1.975   0.698 -0.8700 -0.1600  0.3721
  466SOL    HW1 1862   1.067   1.901   0.636  0.9796 -0.9552  1.7053
  466SOL    HW2 1863   1.070   2.054   0.638  2.5537  1.0800 -0.5233
  466SOL     MW 1864   1.062   1.976   0.682 -0.1743 -0.1013  0.4299
  467SOL     OW 1865   1.271   2.329   0.961 -0.5163 -0.1663 -0.4706
  467SOL    HW1 1866   1.355   2.330   0.999 -1.0284 -0.0649 -2.0228
  467SOL    HW2 1867   1.241   2.233   0.954  0.5171  0.9290 -1.8152
  467SOL     MW 1868   1.278   2.316   0.965 -0.4475 -0.0084 -0.8528
  468SOL     OW 1869   0.314   2.625   1.968  0.3028  0.2683 -0.3655
  468SOL    HW1 1870   0.353   2.541   1.947 -1.5513 -1.3084  0.5357
  468SOL    HW2 1871   0.356   2.694   1.914  0.3573 -2.3417 -1.9543
  468SOL     MW 1872   0.324   2.623   1.958  0.0654 -0.2841 -0.4562
  469SOL     OW 1873   0.405   2.079   1.829  0.2120 -0.0538 -0.1697
  469SOL    HW1 1874   0.337   2.022   1.793 -1.0165  0.6018 -0.9663
  469SOL    HW2 1875   0.485   2.048   1.773 -1.0866 -0.2957 -0.7797
  469SOL     MW 1876   0.406   2.068   1.817 -0.1215  0.0008 -0.3553
  470SOL     OW 1877   3.065   2.509   0.175 -0.0221 -0.5125 -0.4169
  470SOL    HW1 1878   2.980   2.479   0.208 -0.8957  2.7253  1.3716
  470SOL    HW2 1879   3.048   2.514   0.080 -0.5720  0.2905  0.5349
  470SOL     MW 1880   3.052   2.506   0.167 -0.2099  0.0206 -0.0553
  471SOL     OW 1881   1.170   2.704   1.370  0.0839 -0.3272 -0.3444
  471SOL    HW1 1882   1.100   2.730   1.430 -0.4236  2.1250 -0.8015
  471SOL    HW2 1883   1.141   2.744   1.289 -1.0625  0.6470 -0.5794
  471SOL     MW 1884   1.157   2.713   1.367 -0.1343  0.1249 -0.4357
  472SOL     OW 1885   2.927   2.120   0.343  0.0047  0.3297 -0.5389
  472SOL    HW1 1886   2.931   2.074   0.254 -0.5209 -0.2447  1.3526
  472SOL    HW2 1887   2.902   2.055   0.404 -0.3229 -2.6855  0.2110
  472SOL     MW 1888   2.924   2.105   0.339 -0.1078 -0.1439 -0.1904
  473SOL     OW 1889   0.802   2.541   1.293  0.0162  0.2490 -0.5950
  473SOL    HW1 1890   0.792   2.448   1.290 -0.5061  1.7035 -0.4910
  473SOL    HW2 1891   0.812   2.559   1.386 -1.3362  1.1131  0.0103
  473SOL     MW 1892   0.802   2.531   1.305 -0.2311  0.5549 -0.5014
  474SOL     OW 1893   0.844   2.208   1.769 -0.1114  0.2067  0.4613
  474SOL    HW1 1894   0.934   2.225   1.774 -1.5268 -1.4164 -0.7046
  474SOL    HW2 1895   0.837   2.193   1.667  0.1858 -0.6009 -1.5879
  474SOL     MW 1896   0.855   2.208   1.756 -0.2590 -0.1140  0.0371
  475SOL     OW 1897   1.630   3.085   1.429 -0.5796 -0.1187 -0.2994
  475SOL    HW1 1898   1.542   3.115   1.401 -0.4179 -1.2648 -1.1743
  475SOL    HW2 1899   1.613   2.987   1.427  3.2551 -1.5013 -1.4526
  475SOL     MW 1900   1.616   3.076   1.425 -0.0523 -0.4524 -0.5670
  476SOL     OW 1901   1.432   2.588   0.793 -0.4801 -0.3925  0.3850
  476SOL    HW1 1902   1.413   2.576   0.885 -1.8942 -0.8759 -1.6042
  476SOL    HW2 1903   1.483   2.671   0.803  0.1430  2.7818 -1.5342
  476SOL     MW 1904   1.436   2.597   0.806 -0.5844 -0.0374 -0.1307
  477SOL     OW 1905   0.867   2.510   0.599  0.6639 -0.6388  0.0252
  477SOL    HW1 1906   0.926   2.550   0.533 -1.8203 -1.9781  1.9013
  477SOL    HW2 1907   0.828   2.417   0.573 -0.0806  0.1929 -1.9158
  477SOL     MW 1908   0.870   2.503   0.587  0.2379 -0.7058  0.0166
  478SOL     OW 1909   0.234   2.586   0.967  0.3131  0.0157 -0.4424
  478SOL    HW1 1910   0.282   2.670   0.958 -4.2889  2.2745 -2.8933
  478SOL    HW2 1911   0.295   2.530   0.919 -0.9821 -1.9900 -0.3266
  478SOL     MW 1912   0.248   2.590   0.960 -0.4650  0.0491 -0.7505
  479SOL     OW 1913   1.405   1.947   1.311  0.1044  0.3861 -0.4966
  479SOL    HW1 1914   1.382   2.006   1.384  1.9653 -0.7372 -1.0347
  479SOL    HW2 1915   1.488   1.900   1.331  0.4271 -0.7921 -0.7974
  479SOL     MW 1916   1.413   1.948   1.324  0.3925  0.0825 -0.6073
  480SOL     OW 1917   1.793   2.374   1.285  0.2910 -0.0073  0.1205
  480SOL    HW1 1918   1.775   2.284   1.323  0.0258  0.5215 -0.5568
  480SOL    HW2 1919   1.846   2.359   1.202 -0.0239  1.3094 -2.7382
  480SOL     MW 1920   1.798   2.360   1.279  0.2145  0.2362 -0.3460
  481SOL     OW 1921   1.189   0.156   1.145  0.6283 -0.3328  0.5908
  481SOL    HW1 1922   1.207   0.136   1.057 -1.4192 -0.3141  1.6182
  481SOL    HW2 1923   1.203   0.253   1.146  2.7345  0.4583 -1.2826
  481SOL     MW 1924   1.193   0.166   1.134  0.6360 -0.2259  0.4792
  482SOL     OW 1925   1.012   0.014   0.433 -0.1226  0.2269  0.1067
  482SOL    HW1 1926   0.958  -0.063   0.418 -1.0022  2.0855  2.4548
  482SOL    HW2 1927   1.004   0.068   0.356  0.8934  0.9396  0.9747
  482SOL     MW 1928   1.004   0.011   0.421 -0.1046  0.5661  0.5311
  483SOL     OW 1929   0.303   2.848   0.552  0.3204 -0.0630  0.7464
  483SOL    HW1 1930   0.266   2.891   0.466  0.9854  1.0410 -2.9752
  483SOL    HW2 1931   0.280   2.916   0.617 -1.2949 -2.1472 -0.8039
  483SOL     MW 1932   0.295   2.863   0.549  0.1950 -0.1923  0.0508
  484SOL     OW 1933   1.647   1.869   1.419  0.1107  0.0364 -0.6390
  484SOL    HW1 1934   1.718   1.928   1.401 -3.1998 -0.0726  0.2986
  484SOL    HW2 1935   1.649   1.867   1.512  0.2722  0.7698  0.5974
  484SOL     MW 1936   1.657   1.877   1.429 -0.3048  0.1188 -0.3522
  485SOL     OW 1937   0.537   2.339   0.289 -0.5979  0.4994  0.2403
  485SOL    HW1 1938   0.581   2.334   0.377  1.7168 -4.0453 -0.1152
  485SOL    HW2 1939   0.455   2.399   0.291 -3.9711 -1.7701  0.7670
  485SOL     MW 1940   0.532   2.346   0.301 -0.7376 -0.3997  0.2629
  486SOL     OW 1941   0.080   2.485   1.474 -0.1650 -0.1730  0.1998
  486SOL    HW1 1942   0.107   2.573   1.452  4.4219  0.5981  0.2021
  486SOL    HW2 1943   0.103   2.486   1.567 -2.8738 -1.9149 -1.4978
  486SOL     MW 1944   0.086   2.497   1.483  0.0828 -0.3011 -0.0239
  487SOL     OW 1945   1.290   1.613   1.015 -0.2389 -0.2472 -0.2024
  487SOL    HW1 1946   1.253   1.703   1.034  0.0371 -0.1844  0.7639
  487SOL    HW2 1947   1.382   1.632   1.026  0.4475 -0.3535  0.5496
  487SOL     MW 1948   1.297   1.627   1.019 -0.1119 -0.2530  0.0243
  488SOL     OW 1949   1.485   1.810   0.617  0.1761  0.2490  0.2803
  488SOL    HW1 1950   1.472   1.887   0.565  1.6417  1.4953 -0.2633
  488SOL    HW2 1951   1.420   1.745   0.593  1.3603 -2.0094  0.8881
  488SOL     MW 1952   1.475   1.811   0.607  0.5257  0.1155  0.2888
  489SOL     OW 1953   0.692   0.743   0.531 -0.2411 -0.1069 -0.6581
  489SOL    HW1 1954   0.643   0.664   0.504  0.3518  0.0530  0.3329
  489SOL    HW2 1955   0.659   0.754   0.621  0.8699  1.5142  0.1566
  489SOL     MW 1956   0.681   0.734   0.539 -0.0163  0.1281 -0.4198
  490SOL     OW 1957   1.388   2.071   0.451  0.7612  0.3360 -0.4771
  490SOL    HW1 1958   1.450   2.139   0.419 -0.6348  0.3703 -2.1457
  490SOL    HW2 1959   1.300   2.108   0.429  0.2820  0.0696 -1.4899
  490SOL     MW 1960   1.385   2.085   0.444  0.5138  0.3054 -0.8309
  491SOL     OW 1961   1.278   2.987   0.369 -0.4744 -0.2339 -0.1617
  491SOL    HW1 1962   1.317   3.016   0.450 -0.8848 -1.0164 -1.7337
  491SOL    HW2 1963   1.184   3.020   0.364 -1.7103  0.2913  0.0744
  491SOL     MW 1964   1.271   2.995   0.379 -0.6916 -0.2679 -0.3380
  492SOL     OW 1965   1.451   2.147   0.709 -0.1790 -0.3888  0.0411
  492SOL    HW1 1966   1.414   2.097   0.639 -2.6225 -0.6088 -0.1277
  492SOL    HW2 1967   1.397   2.135   0.783  0.8015  2.3879 -0.7284
  492SOL     MW 1968   1.439   2.139   0.710 -0.3720 -0.0515 -0.0827
  493SOL     OW 1969   0.236   3.005   0.352 -0.5393 -0.5022  0.3352
  493SOL    HW1 1970   0.165   3.061   0.391 -1.0158  0.3952 -2.3178
  493SOL    HW2 1971   0.198   2.954   0.280  0.8028 -0.3446 -1.5657
  493SOL     MW 1972   0.222   3.006   0.348 -0.4251 -0.3630 -0.2656
  494SOL     OW 1973   0.386   2.379   1.797 -0.4670  0.2055  0.1110
  494SOL    HW1 1974   0.390   2.288   1.821 -1.9975  1.2472 -2.1639
  494SOL    HW2 1975   0.419   2.380   1.703  0.5860  1.6841 -1.7175
  494SOL     MW 1976   0.390   2.367   1.788 -0.5300  0.5380 -0.4304
  495SOL     OW 1977   2.900   1.636   2.696  0.3055 -0.0219  0.2481
  495SOL    HW1 1978   2.867   1.713   2.742 -2.4535 -0.6244  2.4878
  495SOL    HW2 1979   2.891   1.564   2.761  2.6339 -0.4416  2.3422
  495SOL     MW 1980   2.894   1.637   2.710  0.2487 -0.1568  0.8199
  496SOL     OW 1981   2.772   2.267   2.715 -0.2579 -0.0712 -0.0242
  496SOL    HW1 1982   2.795   2.180   2.746 -2.9512  0.3782 -0.5674
  496SOL    HW2 1983   2.858   2.319   2.737 -0.9837  1.6342 -0.5998
  496SOL     MW 1984   2.787   2.263   2.722 -0.7090  0.2131 -0.1718
  497SOL     OW 1985   1.495   2.333   2.558 -0.1841 -0.0408 -0.3692
  497SOL    HW1 1986   1.521   2.271   2.481 -1.8383  0.1021 -0.1596
  497SOL    HW2 1987   1.451   2.271   2.622  0.6907 -2.9103 -1.2879
  497SOL     MW 1988   1.493   2.316   2.556 -0.2869 -0.4006 -0.4628
  498SOL     OW 1989   1.441   2.769   2.304  0.0962  0.1256 -0.4920
  498SOL    HW1 1990   1.440   2.675   2.282 -1.5252  1.1398 -1.5331
  498SOL    HW2 1991   1.506   2.770   2.380  1.8179  0.5491  1.2514
  498SOL     MW 1992   1.450   2.757   2.311  0.1094  0.3153 -0.3993
  499SOL     OW 1993   0.951   0.084   0.077 -0.2107  0.8658 -0.2090
  499SOL    HW1 1994   0.861   0.134   0.096 -1.6603  0.9864  1.7517
  499SOL    HW2 1995   0.933  -0.013   0.060  1.5748  0.0389  1.5495
  499SOL     MW 1996   0.937   0.078   0.077 -0.1664  0.7727  0.2817
  500SOL     OW 1997   1.032   2.523   2.720 -0.0977  0.2731  0.0407
  500SOL    HW1 1998   1.092   2.516   2.797  0.1952 -0.2531  0.7253
  500SOL    HW2 1999   0.968   2.590   2.751 -2.3574  0.0877  1.1507
  500SOL     MW 2000   1.032   2.531   2.734 -0.3572  0.1792  0.2775
  501SOL     OW 2001   1.765   2.268   3.048 -1.0073  0.0785  0.5717
  501SOL    HW1 2002   1.751   2.363   3.064 -1.9724  0.1992  2.8794
  501SOL    HW2 2003   1.854   2.242   3.081  0.0877  0.7438  0.0434
  501SOL     MW 2004   1.775   2.277   3.054 -0.9902  0.1822  0.8065
  502SOL     OW 2005   0.263   2.722   2.955 -0.1046 -0.6655  0.6902
  502SOL    HW1 2006   0.219   2.680   2.880 -0.8706 -0.1525  1.7465
  502SOL    HW2 2007   0.280   2.813   2.930 -0.3088  0.8462 -0.3117
  502SOL     MW 2008   0.259   2.729   2.942 -0.2326 -0.3984  0.6974
  503SOL     OW 2009   1.134   2.562   2.087  0.5561 -0.0038  0.5734
  503SOL    HW1 2010   1.198   2.614   2.039 -0.3968 -0.0177 -2.1412
  503SOL    HW2 2011   1.052   2.578   2.034 -0.5860  3.8868  0.6755
  503SOL     MW 2012   1.132   2.571   2.074  0.2797  0.5077  0.2287
  504SOL     OW 2013   0.082   2.647   2.160 -0.6118  0.2878  0.1678
  504SOL    HW1 2014   0.154   2.621   2.095  1.4862  1.1994 -0.1300
  504SOL    HW2 2015   0.058   2.568   2.203 -1.3513  1.3314  1.6196
  504SOL     MW 2016   0.088   2.633   2.157 -0.4325  0.5458  0.3200
  505SOL     OW 2017   1.603   2.790   2.754  0.2018 -0.0969  0.2489
  505SOL    HW1 2018   1.631   2.788   2.665  1.0013 -0.5470  1.8782
  505SOL    HW2 2019   1.537   2.866   2.765 -2.3169  0.9487 -3.6674
  505SOL     MW 2020   1.598   2.799   2.743 -0.0250 -0.0183 -0.0529
  506SOL     OW 2021   1.602   0.081   2.750 -0.0585 -0.6329 -0.1408
  506SOL    HW1 2022   1.605   0.016   2.813 -0.8071 -0.8107 -0.2261
  506SOL    HW2 2023   1.677   0.059   2.695  0.5824  1.4759  3.0190
  506SOL     MW 2024   1.612   0.069   2.751 -0.0727 -0.3782  0.2649
  507SOL     OW 2025   0.872   2.718   2.808  0.1920  0.3473 -0.0712
  507SOL    HW1 2026   0.868   2.788   2.740  1.3312 -0.7025 -2.6006
  507SOL    HW2 2027   0.795   2.658   2.799 -0.5779 -0.5016  0.4651
  507SOL     MW 2028   0.862   2.720   2.798  0.2407  0.0968 -0.3342
  508SOL     OW 2029   1.155   2.114   2.569 -0.0485 -0.1887  0.9311
  508SOL    HW1 2030   1.229   2.125   2.625 -1.5404  1.0541 -1.2090
  508SOL    HW2 2031   1.080   2.107   2.624  0.8206 -0.0797  0.4104
  508SOL     MW 2032   1.155   2.114   2.583 -0.1306 -0.0103  0.5800
  509SOL     OW 2033   0.641   2.576   2.794  0.0409 -0.5874 -0.2525
  509SOL    HW1 2034   0.628   2.522   2.716 -3.1720  3.3910 -1.4481
  509SOL    HW2 2035   0.593   2.653   2.771 -1.1654  0.5148 -0.4513
  509SOL     MW 2036   0.633   2.579   2.780 -0.5422  0.0830 -0.4364
  510SOL     OW 2037   1.500   2.566   1.617  0.2444 -0.2784  0.0853
  510SOL    HW1 2038   1.539   2.648   1.578 -1.7453  1.4958  0.8185
  510SOL    HW2 2039   1.442   2.586   1.691  1.1054 -2.3146 -0.9613
  510SOL     MW 2040   1.497   2.579   1.622  0.0954 -0.3130  0.0439
  511SOL     OW 2041   0.349   2.515   2.533  0.0844  0.0857  0.6801
  511SOL    HW1 2042   0.429   2.483   2.577 -0.8111  0.7451  1.0038
  511SOL    HW2 2043   0.378   2.516   2.445  0.3541 -0.5976  1.0201
  511SOL     MW 2044   0.363   2.511   2.527  0.0018  0.0825  0.7677
  512SOL     OW 2045   1.028   1.964   2.829 -0.3333  0.2352  0.4712
  512SOL    HW1 2046   0.934   1.980   2.849 -1.0804 -0.1154  0.0037
  512SOL    HW2 2047   1.036   1.877   2.885  1.5088 -1.4186 -0.0384
  512SOL     MW 2048   1.017   1.954   2.839 -0.1888 -0.0293  0.3423
  513SOL     OW 2049   1.509   2.498   2.224  0.3487  0.5784 -1.1827
  513SOL    HW1 2050   1.602   2.526   2.226  1.0092 -2.7949 -0.2758
  513SOL    HW2 2051   1.502   2.409   2.246  2.1776  1.1153  0.7912
  513SOL     MW 2052   1.521   2.490   2.227  0.6772  0.2041 -0.8026
  514SOL     OW 2053   0.196   2.337   2.682 -0.2492  0.0751 -0.0116
  514SOL    HW1 2054   0.248   2.399   2.627  0.3681  0.5297  0.4771
  514SOL    HW2 2055   0.273   2.298   2.729  0.4583  1.3586 -0.9304
  514SOL     MW 2056   0.213   2.340   2.681 -0.0744  0.3045 -0.0683
  515SOL     OW 2057   1.077   1.974   1.832  0.2035 -0.0308 -0.1828
  515SOL    HW1 2058   1.097   2.053   1.792  1.8575 -2.7099  0.0734
  515SOL    HW2 2059   1.158   1.958   1.892  0.2703 -1.1404 -2.5507
  515SOL     MW 2060   1.090   1.983   1.835  0.4305 -0.5307 -0.4614
  516SOL     OW 2061   1.298   2.592   2.943  0.0047  0.3738  0.4623
  516SOL    HW1 2062   1.323   2.583   2.849 -1.6385  0.5156 -1.4432
  516SOL    HW2 2063   1.237   2.520   2.971 -1.5603 -1.4698  1.5136
  516SOL     MW 2064   1.294   2.582   2.934 -0.4186  0.1493  0.3496
  517SOL     OW 2065   0.531   2.338   2.260  0.8236  0.4941  0.8084
  517SOL    HW1 2066   0.504   2.430   2.260 -1.1080  1.1946  0.6753
  517SOL    HW2 2067   0.480   2.302   2.187  0.6061 -2.9414 -0.7742
  517SOL     MW 2068   0.521   2.345   2.251  0.5401  0.1333  0.5820
  518SOL     OW 2069   1.806   0.124   3.056  0.2992 -0.7486  0.5170
  518SOL    HW1 2070   1.813   0.134   3.152 -0.5390  0.9824 -1.8652
  518SOL    HW2 2071   1.756   0.044   3.039  1.7824 -0.9861  1.3234
  518SOL     MW 2072   1.800   0.115   3.067  0.3843 -0.5515  0.3091
  519SOL     OW 2073   0.642   2.411   1.911  0.5110  0.5318 -0.8679
  519SOL    HW1 2074   0.691   2.329   1.922  1.3559 -0.5888  0.2291
  519SOL    HW2 2075   0.567   2.392   1.851  1.3988  0.2122 -0.7939
  519SOL     MW 2076   0.639   2.398   1.905  0.7396  0.3418 -0.7134
  520SOL     OW 2077   1.225   2.130   2.937  0.2386  0.1641  0.2251
  520SOL    HW1 2078   1.152   2.076   2.905 -2.1809 -0.3957 -0.0951
  520SOL    HW2 2079   1.256   2.091   3.022  0.9388  2.1481  0.5850
  520SOL     MW 2080   1.219   2.118   2.944  0.0117  0.3521  0.2303
  521SOL     OW 2081   1.768   2.032   2.245 -0.2389  0.0514  0.3225
  521SOL    HW1 2082   1.791   2.050   2.148 -2.1366 -2.0450 -1.9082
  521SOL    HW2 2083   1.763   1.937   2.260 -0.1144 -2.2227  1.9912
  521SOL     MW 2084   1.771   2.022   2.234 -0.4728 -0.5252  0.2483
  522SOL     OW 2085   2.854   2.553   2.233  0.6993 -0.4214 -0.1021
  522SOL    HW1 2086   2.873   2.497   2.302 -1.7277 -0.4646  0.0765
  522SOL    HW2 2087   2.901   2.635   2.234  2.6111  1.2845 -2.1704
  522SOL     MW 2088   2.863   2.556   2.242  0.6314 -0.2020 -0.3514
  523SOL     OW 2089   0.825   1.492   2.147 -0.0650  0.2470  0.0928
  523SOL    HW1 2090   0.765   1.491   2.071  0.6032 -0.5500  1.2530
  523SOL    HW2 2091   0.899   1.438   2.119 -0.9469  1.0207 -1.6035
  523SOL     MW 2092   0.827   1.485   2.133 -0.0932  0.2440  0.0220
  524SOL     OW 2093   0.621   2.397   3.009  0.5050  0.0313 -0.2762
  524SOL    HW1 2094   0.629   2.456   2.932  0.7457  2.0263 -3.8222
  524SOL    HW2 2095   0.689   2.336   3.007  0.0982  4.6753  0.0615
  524SOL     MW 2096   0.631   2.396   2.999  0.4831  0.9072 -0.6995
  525SOL     OW 2097   0.374   2.178   2.110  0.5124  0.1160  0.2308
  525SOL    HW1 2098   0.344   2.128   2.180  1.9077  2.8026  0.0683
  525SOL    HW2 2099   0.395   2.117   2.042 -0.1552  1.7590  2.5667
  525SOL     MW 2100   0.373   2.164   2.110  0.6084  0.6872  0.5176
  526SOL     OW 2101   0.719   2.114   1.998 -0.0244  0.6113 -0.1189
  526SOL    HW1 2102   0.766   2.135   1.907 -4.9499 -0.9147  2.2123
  526SOL    HW2 2103   0.787   2.131   2.066 -0.1012 -0.1994  0.6213
  526SOL     MW 2104   0.734   2.119   1.995 -0.6844  0.3030  0.2864
  527SOL     OW 2105   1.298   1.905   2.004 -0.4965 -0.1141  0.0113
  527SOL    HW1 2106   1.272   1.904   2.093  1.8919 -0.2474  0.5595
  527SOL    HW2 2107   1.304   1.813   1.978 -1.3142 -0.1075  0.6556
  527SOL     MW 2108   1.295   1.893   2.012 -0.2892 -0.1309  0.1686
  528SOL     OW 2109   0.615   2.889   3.023  0.3486  0.1281 -0.4340
  528SOL    HW1 2110   0.613   2.987   3.005 -0.3675 -2.2416  0.0910
  528SOL    HW2 2111   0.629   2.849   2.935 -1.1321  1.8566 -2.4807
  528SOL     MW 2112   0.616   2.897   3.009  0.0587  0.0435 -0.6347
  529SOL     OW 2113   1.124   2.260   1.775  0.2132 -0.6630 -0.2345
  529SOL    HW1 2114   1.173   2.280   1.856  0.1423  0.5507 -0.7187
  529SOL    HW2 2115   1.169   2.313   1.711 -2.9105  0.1889 -0.7158
  529SOL     MW 2116   1.137   2.270   1.777 -0.2083 -0.3904 -0.3619
  530SOL     OW 2117   1.137   2.377   2.985  0.2196 -0.1179 -0.2931
  530SOL    HW1 2118   1.055   2.366   3.031  2.6736 -0.2348 -0.0366
  530SOL    HW2 2119   1.172   2.292   2.959  1.5684 -1.1513 -1.9652
  530SOL     MW 2120   1.131   2.364   2.988  0.7214 -0.2697 -0.4799
  531SOL     OW 2121   0.897   1.814   2.632 -0.3119  0.3654  0.3384
  531SOL    HW1 2122   0.928   1.874   2.701  4.5978 -1.4692  1.0183
  531SOL    HW2 2123   0.849   1.747   2.681  3.1412 -1.4713 -0.5893
  531SOL     MW 2124   0.895   1.813   2.648  0.7915 -0.1190  0.3057
  532SOL     OW 2125   1.688   0.319   2.869 -0.5310  0.0791 -0.0585
  532SOL    HW1 2126   1.663   0.243   2.821  2.0186  3.1884  0.9873
  532SOL    HW2 2127   1.697   0.284   2.958  1.9649  1.8451  0.9521
  532SOL     MW 2128   1.686   0.304   2.874  0.1347  0.7224  0.2128
  533SOL     OW 2129   1.767   2.752   2.955 -0.3201 -0.6370  0.3639
  533SOL    HW1 2130   1.745   2.670   2.993  0.8848 -1.1328 -2.1199
  533SOL    HW2 2131   1.719   2.755   2.868  3.4395  0.9554 -3.1819
  533SOL     MW 2132   1.758   2.741   2.949  0.3349 -0.4923 -0.4317
  534SOL     OW 2133   1.750   2.486   2.511  0.0295  0.0268  0.2009
  534SOL    HW1 2134   1.671   2.434   2.538  1.4181  1.2386 -0.3408
  534SOL    HW2 2135   1.822   2.479   2.584  1.7367 -1.6556  0.8339
  534SOL     MW 2136   1.749   2.478   2.524  0.4380 -0.0353  0.2130
  535SOL     OW 2137   1.792   2.351   1.913  0.4336 -0.4655 -0.1503
  535SOL    HW1 2138   1.736   2.326   1.833 -1.9140 -0.2537 -0.5140
  535SOL    HW2 2139   1.869   2.400   1.881  0.1143  1.0576 -0.1400
  535SOL     MW 2140   1.795   2.354   1.898  0.0818 -0.2366 -0.1969
  536SOL     OW 2141   0.434   1.846   2.029 -0.3487 -0.4684  0.1799
  536SOL    HW1 2142   0.435   1.926   1.972  0.4266 -0.5618 -1.4766
  536SOL    HW2 2143   0.524   1.834   2.069  0.9342  2.3991 -1.2564
  536SOL     MW 2144   0.446   1.855   2.027 -0.0771 -0.1024 -0.2282
  537SOL     OW 2145   0.970   0.192   2.938  0.3272 -0.1759 -0.1414
  537SOL    HW1 2146   0.957   0.152   3.029 -0.1605  1.6129  1.8852
  537SOL    HW2 2147   0.897   0.245   2.921  0.2396 -1.5848  1.9426
  537SOL     MW 2148   0.959   0.193   2.947  0.2513 -0.1258  0.4010
  538SOL     OW 2149   1.311   0.062   3.053  0.0314 -0.6571  0.0550
  538SOL    HW1 2150   1.253   0.117   2.994 -1.6852  0.6068  0.1638
  538SOL    HW2 2151   1.344   0.127   3.120  1.5281 -0.6240 -3.7547
  538SOL     MW 2152   1.308   0.078   3.054  0.0024 -0.4859 -0.4333
  539SOL     OW 2153   0.731   2.692   2.523 -0.3735  0.0076  0.7009
  539SOL    HW1 2154   0.804   2.749   2.500  0.1395 -0.3571  1.1444
  539SOL    HW2 2155   0.762   2.604   2.527  0.7955 -0.1267 -1.5371
  539SOL     MW 2156   0.745   2.688   2.520 -0.1516 -0.0582  0.4641
  540SOL     OW 2157   0.369   2.222   2.857 -0.5617  0.1153 -0.4723
  540SOL    HW1 2158   0.432   2.290   2.895 -0.0652  0.1238 -0.9698
  540SOL    HW2 2159   0.347   2.166   2.932 -0.4806  1.5194  0.7685
  540SOL     MW 2160   0.375   2.224   2.872 -0.4855  0.3017 -0.3743
  541SOL     OW 2161   0.188   2.882   2.262 -0.0486  0.0380  0.3482
  541SOL    HW1 2162   0.163   2.796   2.225 -0.6291  0.6683  0.8965
  541SOL    HW2 2163   0.223   2.851   2.343  0.1705 -1.8263 -0.5934
  541SOL     MW 2164   0.189   2.866   2.268 -0.0962 -0.1248  0.2963
  542SOL     OW 2165   0.885   2.285   2.769 -0.2264 -0.5123 -0.2221
  542SOL    HW1 2166   0.859   2.287   2.858 -0.2805  2.1332 -3.8764
  542SOL    HW2 2167   0.952   2.359   2.766  1.8076  0.2464 -0.9576
  542SOL     MW 2168   0.890   2.295   2.781  0.0348 -0.0631 -0.8013
  543SOL     OW 2169   1.386   2.638   2.668  0.1425 -0.7798 -0.1070
  543SOL    HW1 2170   1.409   2.557   2.618  2.9088  0.0301  0.3034
  543SOL    HW2 2171   1.473   2.669   2.704  1.0648  0.7169  0.6602
  543SOL     MW 2172   1.401   2.631   2.666  0.6292 -0.4755  0.0484
  544SOL     OW 2173   0.703   0.088   2.582  0.0747  0.4796  0.1251
  544SOL    HW1 2174   0.619   0.057   2.580  1.7165  2.7185  2.7629
  544SOL    HW2 2175   0.740   0.044   2.509  0.4060 -2.8909  1.1387
  544SOL     MW 2176   0.696   0.078   2.572  0.3350  0.3303  0.6068
  545SOL     OW 2177   1.561   2.187   2.335 -0.5942 -1.1892  0.0671
  545SOL    HW1 2178   1.492   2.125   2.339  1.8798  1.5073 -0.9183
  545SOL    HW2 2179   1.644   2.144   2.317  2.8439 -0.0570  1.4821
  545SOL     MW 2180   1.563   2.173   2.334  0.1859 -0.6840  0.1238
  546SOL     OW 2181   2.975   2.017   0.101  0.1232 -0.0829 -0.3494
  546SOL    HW1 2182   2.977   2.082   0.029  1.2843 -0.8802 -0.9590
  546SOL    HW2 2183   3.063   1.964   0.094  2.2616 -1.2513  0.1423
  546SOL     MW 2184   2.987   2.018   0.091  0.5585 -0.3423 -0.3649
  547SOL     OW 2185   0.121   2.925   0.057  0.6242 -0.2027  0.0984
  547SOL    HW1 2186   0.156   2.980  -0.016 -1.5794  2.2493 -0.4007
  547SOL    HW2 2187   0.170   2.841   0.051 -0.1514 -2.2516 -0.8421
  547SOL     MW 2188   0.132   2.921   0.046  0.2311 -0.1495 -0.0915
  548SOL     OW 2189   0.319   2.484   0.277  1.1446 -0.0235 -0.0911
  548SOL    HW1 2190   0.345   2.566   0.235  2.3219 -0.0053 -0.1701
  548SOL    HW2 2191   0.262   2.444   0.214 -0.7497  0.0984 -1.9787
  548SOL     MW 2192   0.315   2.489   0.263  1.0500 -0.0050 -0.3506
  549SOL     OW 2193   0.695   1.842   2.108 -0.1410 -0.0750  1.0997
  549SOL    HW1 2194   0.726   1.932   2.084  1.0916  3.7273 -1.9415
  549SOL    HW2 2195   0.723   1.840   2.203  1.4067  3.6114  1.1398
  549SOL     MW 2196   0.702   1.854   2.117  0.2259  0.9131  0.7038
  550SOL     OW 2197   1.843   1.750   2.537 -0.4560 -0.0629  0.6153
  550SOL    HW1 2198   1.821   1.767   2.449 -1.7424 -1.2934 -1.3559
  550SOL    HW2 2199   1.833   1.836   2.574  0.7373 -0.9611 -0.0508
  550SOL     MW 2200   1.838   1.763   2.530 -0.4682 -0.3438  0.2673
  551SOL     OW 2201   0.854   2.309   0.251  0.1874  0.3409  0.1477
  551SOL    HW1 2202   0.934   2.360   0.239  0.3276 -0.6451  0.4077
  551SOL    HW2 2203   0.870   2.222   0.214  1.4599 -0.6002  2.6955
  551SOL     MW 2204   0.867   2.305   0.244  0.3738  0.0867  0.5181
  552SOL     OW 2205   1.747   1.758   2.281  0.2676  0.3818 -0.1075
  552SOL    HW1 2206   1.653   1.751   2.283 -1.5525  0.5650 -0.3671
  552SOL    HW2 2207   1.759   1.701   2.203 -1.1309  0.9651  0.5984
  552SOL     MW 2208   1.736   1.750   2.271 -0.1570  0.4829 -0.0486
  553SOL     OW 2209   1.216   2.327   1.523  0.3219  0.4543  0.2660
  553SOL    HW1 2210   1.264   2.242   1.517  0.0422 -0.1322 -3.7110
  553SOL    HW2 2211   1.272   2.390   1.471  1.1582  0.4457 -0.4330
  553SOL     MW 2212   1.230   2.324   1.515  0.3953  0.3758 -0.3510
  554SOL     OW 2213   0.539   2.814   2.717  0.3422  0.0819 -0.2989
  554SOL    HW1 2214   0.520   2.909   2.699  1.2492  1.2660 -1.8238
  554SOL    HW2 2215   0.604   2.794   2.656 -1.5144  2.3979  0.2785
  554SOL     MW 2216   0.545   2.824   2.707  0.2169  0.5437 -0.4239
  555SOL     OW 2217   0.570   2.377   2.612  0.7647  0.5759  0.0270
  555SOL    HW1 2218   0.589   2.305   2.667 -0.0929 -1.7377 -0.1250
  555SOL    HW2 2219   0.647   2.376   2.553 -2.0007 -2.2888 -0.5407
  555SOL     MW 2220   0.583   2.367   2.611  0.2867 -0.1073 -0.0679
  556SOL     OW 2221   1.048   1.808   0.130  0.1994 -0.0011  0.1377
  556SOL    HW1 2222   1.087   1.766   0.050 -2.3487  0.6519 -2.2546
  556SOL    HW2 2223   1.122   1.836   0.179 -1.4241 -2.2919  0.0202
  556SOL     MW 2224   1.063   1.806   0.126 -0.3510 -0.2172 -0.1934
  557SOL     OW 2225   1.025   2.691   0.464 -0.6023 -0.3640  0.6414
  557SOL    HW1 2226   1.068   2.703   0.379 -0.9762  0.3032  2.2397
  557SOL    HW2 2227   0.978   2.781   0.473 -1.6788  0.9601 -0.0941
  557SOL     MW 2228   1.025   2.705   0.454 -0.7936 -0.1013  0.7552
  558SOL     OW 2229   0.286   2.101   3.088  0.5115  0.1087 -0.0609
  558SOL    HW1 2230   0.222   2.033   3.086  0.8608  3.8273 -2.1154
  558SOL    HW2 2231   0.230   2.172   3.112  0.1628 -0.8927  0.5815
  558SOL     MW 2232   0.270   2.101   3.091  0.5116  0.4672 -0.2472
  559SOL     OW 2233   1.188   2.290   2.054 -0.3535  0.4154  0.4899
  559SOL    HW1 2234   1.197   2.379   2.089  0.7615  1.6366  1.1447
  559SOL    HW2 2235   1.183   2.221   2.128  3.1865 -0.7735  0.0981
  559SOL     MW 2236   1.189   2.293   2.068  0.2607  0.4196  0.5246
  560SOL     OW 2237   1.948   2.915   0.032  0.7242 -0.8268 -0.3508
  560SOL    HW1 2238   1.995   2.970  -0.033  0.1986 -0.4141  0.5543
  560SOL    HW2 2239   1.873   2.868  -0.009 -0.8534 -2.5259 -0.3684
  560SOL     MW 2240   1.944   2.916   0.018  0.4467 -0.9966 -0.2337
  561SOL     OW 2241   0.468   2.088   0.174  0.0295  0.1960  0.7618
  561SOL    HW1 2242   0.401   2.095   0.088 -2.8994  2.5892 -3.5321
  561SOL    HW2 2243   0.498   2.178   0.198  0.0712 -2.0413  1.0620
  561SOL     MW 2244   0.463   2.101   0.166 -0.3514  0.2166  0.2349
  562SOL     OW 2245   0.880   2.154   2.219  0.2892  0.5136 -0.4137
  562SOL    HW1 2246   0.864   2.248   2.222  0.4753  0.1407 -1.3457
  562SOL    HW2 2247   0.976   2.153   2.229  0.9612 -1.3014 -0.2415
  562SOL     MW 2248   0.890   2.166   2.220  0.4024  0.2249 -0.5139
  563SOL     OW 2249   1.218   0.287   0.566  0.1313 -0.3095  0.7214
  563SOL    HW1 2250   1.162   0.276   0.485 -0.1742 -0.8812  0.1448
  563SOL    HW2 2251   1.271   0.201   0.572 -0.2860 -0.6827 -0.7966
  563SOL     MW 2252   1.218   0.275   0.556  0.0359 -0.4342  0.4451
  564SOL     OW 2253   1.019   2.609   2.353 -0.0649 -0.1422  0.4013
  564SOL    HW1 2254   1.058   2.599   2.264  0.9984 -1.0709  0.8520
  564SOL    HW2 2255   1.084   2.673   2.387 -1.3352 -2.2902  0.9109
  564SOL     MW 2256   1.033   2.616   2.346 -0.0922 -0.5481  0.5280
  565SOL     OW 2257   2.916   2.644   2.623  0.0060 -0.6440 -1.0535
  565SOL    HW1 2258   2.968   2.725   2.623  1.4371  3.5660 -0.2967
  565SOL    HW2 2259   2.838   2.670   2.563 -0.1292  0.6652  0.2866
  565SOL     MW 2260   2.913   2.658   2.615  0.1770  0.0842 -0.7768
  566SOL     OW 2261   2.250   1.942   2.361  0.2281 -0.3637  0.6098
  566SOL    HW1 2262   2.277   1.934   2.271  0.7772 -0.3325  0.2801
  566SOL    HW2 2263   2.295   2.026   2.391  0.0255  1.3924 -1.3647
  566SOL     MW 2264   2.259   1.952   2.353  0.2738 -0.1279  0.3058
  567SOL     OW 2265   1.183   2.926   0.066 -0.0626 -0.2596 -0.9188
  567SOL    HW1 2266   1.222   3.014   0.040  0.1924  1.6491 -0.9439
  567SOL    HW2 2267   1.216   2.871  -0.008  0.4740  1.9783 -2.0740
  567SOL     MW 2268   1.193   2.931   0.053  0.0419  0.2875 -1.0746
  568SOL     OW 2269   1.659   2.133   2.838 -0.0659 -0.4437 -0.1942
  568SOL    HW1 2270   1.717   2.179   2.907  0.6779 -0.5385  1.0012
  568SOL    HW2 2271   1.711   2.077   2.781 -0.2587  3.5493  0.1764
  568SOL     MW 2272   1.674   2.132   2.840  0.0068  0.0706  0.0124
  569SOL     OW 2273   0.092   2.185   2.429 -0.0728 -0.4400 -0.1660
  569SOL    HW1 2274   0.052   2.257   2.380  1.3761 -1.2258  2.9929
  569SOL    HW2 2275   0.110   2.228   2.514 -2.7418 -3.3525  1.9806
  569SOL     MW 2276   0.089   2.200   2.434 -0.2338 -0.9280  0.5340
  570SOL     OW 2277   1.451   0.419   0.490 -0.7020  0.1752  0.1753
  570SOL    HW1 2278   1.378   0.372   0.529  0.7577 -2.8013  0.1652
  570SOL    HW2 2279   1.505   0.462   0.561 -2.5746  0.3193 -4.4153
  570SOL     MW 2280   1.448   0.419   0.505 -0.7565 -0.1985 -0.4317
  571SOL     OW 2281   1.475   2.397   1.981 -0.0589  0.2474 -0.3839
  571SOL    HW1 2282   1.471   2.440   2.069 -2.1964 -1.6800  0.0838
  571SOL    HW2 2283   1.481   2.302   1.995  1.1274 -0.2600 -2.0162
  571SOL     MW 2284   1.475   2.390   1.994 -0.1844 -0.0739 -0.5376
  572SOL     OW 2285   0.914   2.583   3.077  0.4435  0.4349  0.1214
  572SOL    HW1 2286   0.879   2.617   2.996 -0.8714 -0.1639  0.4285
  572SOL    HW2 2287   0.848   2.592   3.150 -0.9058 -1.4560  0.0508
  572SOL     MW 2288   0.901   2.589   3.076  0.0920  0.1064  0.1526
  573SOL     OW 2289   1.110   2.414   0.190 -0.2542 -0.2796  0.1362
  573SOL    HW1 2290   1.199   2.399   0.147  1.2679  1.4484  1.3392
  573SOL    HW2 2291   1.112   2.511   0.201  0.1430  3.8961  2.9635
  573SOL     MW 2292   1.122   2.425   0.186 -0.0010  0.4993  0.6680
  574SOL     OW 2293   1.156   2.688   0.231  0.0496 -0.1597  0.4604
  574SOL    HW1 2294   1.245   2.706   0.267 -1.3530 -0.0228 -1.7118
  574SOL    HW2 2295   1.150   2.753   0.168  0.2639 -0.7962  0.4258
  574SOL     MW 2296   1.167   2.699   0.227 -0.1072 -0.2256  0.1693
  575SOL     OW 2297   3.050   2.321   1.874  0.0731  0.2579  0.7865
  575SOL    HW1 2298   3.080   2.233   1.863 -0.8301 -0.5865 -0.6254
  575SOL    HW2 2299   3.088   2.375   1.802  0.9543 -0.5150 -0.6814
  575SOL     MW 2300   3.059   2.316   1.863  0.0702  0.0445  0.4066
  576SOL     OW 2301   2.829   1.815   2.039  0.2546  0.1613 -0.0150
  576SOL    HW1 2302   2.835   1.906   2.008 -2.0418 -0.6730  0.8426
  576SOL    HW2 2303   2.737   1.787   2.038  0.4240  0.1326 -0.2179
  576SOL     MW 2304   2.818   1.823   2.034 -0.0261  0.0474  0.0714
  577SOL     OW 2305   2.074   0.226   0.073  0.3698  0.5902  0.1689
  577SOL    HW1 2306   2.008   0.285   0.049  0.0285 -0.2943  0.1217
  577SOL    HW2 2307   2.024   0.178   0.141 -1.2006 -4.3977  2.1009
  577SOL     MW 2308   2.059   0.227   0.079  0.1176 -0.1846  0.4176
  578SOL     OW 2309   2.020   2.109   2.354  0.6282 -0.5144  0.9592
  578SOL    HW1 2310   1.940   2.063   2.313 -0.1239 -0.0799 -0.6137
  578SOL    HW2 2311   2.095   2.046   2.334  2.7325  1.2881  2.6824
  578SOL     MW 2312   2.020   2.095   2.346  0.8066 -0.2193  0.9790
  579SOL     OW 2313   0.847   2.433   2.521 -0.0782 -0.3509  0.1815
  579SOL    HW1 2314   0.861   2.372   2.595  3.6919  0.2128 -1.4741
  579SOL    HW2 2315   0.931   2.487   2.513  0.4493 -0.3055 -0.1534
  579SOL     MW 2316   0.860   2.432   2.530  0.4889 -0.2705 -0.0811
  580SOL     OW 2317   0.926   2.921   0.025  0.0462 -0.1551 -0.0240
  580SOL    HW1 2318   1.021   2.924   0.058  0.5636  0.6952 -0.4941
  580SOL    HW2 2319   0.923   2.843  -0.039 -0.9395 -0.6104 -1.9889
  580SOL     MW 2320   0.938   2.911   0.021 -0.0156 -0.1030 -0.3453
  581SOL     OW 2321   1.098   2.535   1.745  0.1436 -0.3642 -0.4689
  581SOL    HW1 2322   1.170   2.592   1.777  2.4072  0.1175 -3.7350
  581SOL    HW2 2323   1.094   2.465   1.813  3.0335 -1.9483  0.8578
  581SOL     MW 2324   1.107   2.533   1.758  0.8236 -0.5097 -0.7248
  582SOL     OW 2325   0.008   2.847   2.581  0.0205 -0.1062 -0.7214
  582SOL    HW1 2326  -0.020   2.931   2.625  0.9592 -0.8885 -0.9611
  582SOL    HW2 2327   0.105   2.835   2.589  2.0471 -2.6053  0.5400
  582SOL     MW 2328   0.017   2.856   2.588  0.4117 -0.5391 -0.5866
  583SOL     OW 2329   1.982   2.464   2.656 -0.1693 -0.1152 -0.5498
  583SOL    HW1 2330   2.044   2.490   2.591  2.2768 -1.3856  0.4368
  583SOL    HW2 2331   1.980   2.365   2.656  2.4245 -2.7250 -0.5598
  583SOL     MW 2332   1.990   2.454   2.648  0.4957 -0.6271 -0.4210
  584SOL     OW 2333   0.170   1.847   2.107  0.8575  0.2760 -0.5470
  584SOL    HW1 2334   0.268   1.842   2.091  1.4928 -0.6704 -0.3548
  584SOL    HW2 2335   0.166   1.888   2.196  1.3177 -1.2895  2.9836
  584SOL     MW 2336   0.182   1.851   2.116  1.0021 -0.0554 -0.0558
  585SOL     OW 2337   1.496   2.561   0.020  0.5438 -0.3944  0.1348
  585SOL    HW1 2338   1.428   2.579  -0.050 -0.5056  1.9166 -1.2303
  585SOL    HW2 2339   1.457   2.586   0.101 -3.1931  2.2691  0.8796
  585SOL     MW 2340   1.482   2.567   0.021 -0.0877  0.2619  0.0529
  586SOL     OW 2341   1.250   3.009   2.378 -0.6833  0.4314  0.1892
  586SOL    HW1 2342   1.338   2.981   2.342  0.0795 -0.8152 -1.2979
  586SOL    HW2 2343   1.269   3.040   2.473  1.6034  0.9675  1.0877
  586SOL     MW 2344   1.264   3.009   2.385 -0.2809  0.3376  0.1116
  587SOL     OW 2345   1.212   1.621   2.164  0.5161  0.0327 -1.0733
  587SOL    HW1 2346   1.201   1.546   2.227  0.1931  0.2004  0.0333
  587SOL    HW2 2347   1.215   1.577   2.082  0.3172 -0.9346  2.9559
  587SOL     MW 2348   1.211   1.605   2.162  0.4472 -0.0728 -0.3957
  588SOL     OW 2349   1.406   2.136   2.724  0.3913 -0.8919  0.2770
  588SOL    HW1 2350   1.492   2.125   2.758  2.9404  2.2319  1.3339
  588SOL    HW2 2351   1.342   2.118   2.796 -0.9642  0.4433 -1.3212
  588SOL     MW 2352   1.409   2.132   2.738  0.5488 -0.3036  0.2056
  589SOL     OW 2353   1.352   2.057   0.071  0.1694  0.2478  0.3118
  589SOL    HW1 2354   1.343   2.152   0.092 -1.9118  1.6191 -1.8915
  589SOL    HW2 2355   1.331   2.007   0.150 -1.3914 -1.1045 -1.9777
  589SOL     MW 2356   1.348   2.063   0.084 -0.3111  0.2503 -0.2810
  590SOL     OW 2357   0.436   2.608   2.240 -0.4195  0.5001  0.1357
  590SOL    HW1 2358   0.419   2.607   2.145  0.3747 -0.4569 -0.2619
  590SOL    HW2 2359   0.521   2.649   2.251 -0.6763  0.0200  0.8505
  590SOL     MW 2360   0.445   2.613   2.229 -0.3486  0.3105  0.1775
  591SOL     OW 2361   2.288   0.709   3.057  0.2636  0.0476  0.1340
  591SOL    HW1 2362   2.198   0.730   3.037 -0.3198  0.0163 -2.0182
  591SOL    HW2 2363   2.334   0.785   3.025  1.8499 -1.7999  0.0289
  591SOL     MW 2364   2.282   0.722   3.050  0.3959 -0.2003 -0.1639
  592SOL     OW 2365   1.844   2.982   0.848 -0.1134  0.7627  0.1367
  592SOL    HW1 2366   1.840   3.022   0.758 -0.7281 -0.7750 -0.7892
  592SOL    HW2 2367   1.892   2.895   0.851  4.8229  0.1419 -2.5670
  592SOL     MW 2368   1.850   2.976   0.837  0.4568  0.4779 -0.3422
  593SOL     OW 2369   1.917   0.805   0.839  0.1014 -0.0488  0.4737
  593SOL    HW1 2370   1.842   0.769   0.789 -2.8329  0.8451 -1.4021
  593SOL    HW2 2371   1.964   0.731   0.875 -0.6862  0.2805 -0.2672
  593SOL     MW 2372   1.914   0.790   0.837 -0.3897  0.1126  0.1284
  594SOL     OW 2373   2.731   1.129   1.361 -0.1780 -0.4647 -0.1756
  594SOL    HW1 2374   2.826   1.149   1.350  2.2729  0.8869 -0.0404
  594SOL    HW2 2375   2.711   1.117   1.265 -2.3217 -1.0666 -0.4655
  594SOL     MW 2376   2.741   1.130   1.347 -0.1375 -0.3658 -0.1960
  595SOL     OW 2377   0.445   0.941   0.725  0.8730 -0.4441 -0.1810
  595SOL    HW1 2378   0.489   1.011   0.674 -3.7269  0.2559  1.0100
  595SOL    HW2 2379   0.457   0.974   0.811  0.0978  0.4190 -0.0322
  595SOL     MW 2380   0.452   0.954   0.730  0.1638 -0.2379 -0.0043
  596SOL     OW 2381   2.454   1.342   0.578 -0.4156  0.1859 -0.0527
  596SOL    HW1 2382   2.472   1.421   0.527  4.8786 -0.4047 -1.1595
  596SOL    HW2 2383   2.522   1.345   0.643 -1.9113 -0.6169  0.8817
  596SOL     MW 2384   2.465   1.353   0.580  0.0856  0.0020 -0.0754
  597SOL     OW 2385   2.189   0.670   1.730  0.5212 -0.4544  0.2437
  597SOL    HW1 2386   2.261   0.614   1.762  0.7864  1.3148  1.2251
  597SOL    HW2 2387   2.158   0.635   1.645  0.6334  1.3613  1.2837
  597SOL     MW 2388   2.195   0.658   1.723  0.5710  0.0186  0.5104
  598SOL     OW 2389   2.598   1.012   2.868 -0.4529 -0.5101 -0.1659
  598SOL    HW1 2390   2.661   0.963   2.805  0.8100  3.8489  2.0170
  598SOL    HW2 2391   2.663   1.064   2.929 -2.6931  4.2499  0.7043
  598SOL     MW 2392   2.615   1.013   2.868 -0.5819  0.6930  0.2369
  599SOL     OW 2393   2.919   0.367   2.013  0.3197 -0.3493  0.1952
  599SOL    HW1 2394   2.887   0.381   2.103  0.6435 -2.4120 -1.2850
  599SOL    HW2 2395   2.987   0.429   1.997 -2.1475  1.2080  0.9153
  599SOL     MW 2396   2.924   0.377   2.023  0.0369 -0.4160  0.0949
  600SOL     OW 2397   1.893   1.714   0.887  0.1241  0.3612 -0.2684
  600SOL    HW1 2398   1.889   1.754   0.973 -1.1733 -2.0263  2.2014
  600SOL    HW2 2399   1.808   1.736   0.850  2.4826 -0.1139  3.0652
  600SOL     MW 2400   1.881   1.722   0.893  0.2641 -0.0165  0.4973
  601SOL     OW 2401   2.552   0.800   0.872 -0.2936 -0.2505 -0.2346
  601SOL    HW1 2402   2.557   0.819   0.969  0.1067  1.3146 -0.1010
  601SOL    HW2 2403   2.465   0.761   0.861  1.7652  3.9324 -0.1398
  601SOL     MW 2404   2.541   0.797   0.883  0.0309  0.5079 -0.2045
  602SOL     OW 2405   2.309   1.933   0.689  0.2938 -0.3965  0.4152
  602SOL    HW1 2406   2.245   1.864   0.711 -0.6104  0.0756 -1.1126
  602SOL    HW2 2407   2.270   1.992   0.623 -1.9542  0.9476  0.3781
  602SOL     MW 2408   2.295   1.931   0.683 -0.1221 -0.1568  0.2087
  603SOL     OW 2409   2.979   1.402   1.801 -0.2810 -0.0937 -0.5345
  603SOL    HW1 2410   3.063   1.422   1.850  0.3834  1.3655 -0.8546
  603SOL    HW2 2411   2.972   1.309   1.800 -0.1595  2.3291 -0.4248
  603SOL     MW 2412   2.990   1.392   1.808 -0.1773  0.4185 -0.5623
  604SOL     OW 2413   2.108   1.561   0.452  0.5463  0.8655 -0.2533
  604SOL    HW1 2414   2.145   1.513   0.529 -0.8259  2.7412 -0.0036
  604SOL    HW2 2415   2.044   1.625   0.486 -0.8369 -0.9652  0.0510
  604SOL     MW 2416   2.105   1.563   0.467  0.1828  0.8714 -0.1802
  605SOL     OW 2417   2.652   1.571   0.867 -0.1290  0.0876 -0.3748
  605SOL    HW1 2418   2.578   1.611   0.831  2.7747 -1.8958 -0.5740
  605SOL    HW2 2419   2.629   1.539   0.955  0.9895 -0.8264  2.0931
  605SOL     MW 2420   2.639   1.572   0.874  0.4017 -0.2947 -0.0755
  606SOL     OW 2421   2.542   1.763   2.005  0.4443  0.3165 -0.3123
  606SOL    HW1 2422   2.455   1.771   1.959 -0.7173 -1.8967 -1.1797
  606SOL    HW2 2423   2.568   1.688   1.946  2.6688 -1.7120  1.8521
  606SOL     MW 2424   2.534   1.754   1.991  0.5846 -0.2431 -0.1412
  607SOL     OW 2425   2.356   1.005   3.001  0.4776 -0.2605 -0.2141
  607SOL    HW1 2426   2.436   1.041   2.959 -0.8685 -0.2104 -2.0411
  607SOL    HW2 2427   2.345   1.033   3.094 -0.8036  0.0543  1.6033
  607SOL     MW 2428   2.365   1.013   3.008  0.1310 -0.2124 -0.2153
  608SOL     OW 2429   1.899   0.286   0.573 -0.1074  0.3838 -0.4684
  608SOL    HW1 2430   1.931   0.322   0.487  0.3257  1.3304 -1.6081
  608SOL    HW2 2431   1.915   0.186   0.563  2.3322 -2.7101  0.8921
  608SOL     MW 2432   1.905   0.278   0.561  0.2717  0.1005 -0.4393
  609SOL     OW 2433   2.162   1.937   3.040  0.3741  0.6376  0.8798
  609SOL    HW1 2434   2.073   1.909   3.009  0.0950 -0.3915  0.8953
  609SOL    HW2 2435   2.175   1.913   3.133 -0.9413  0.0965 -0.0193
  609SOL     MW 2436   2.152   1.930   3.048  0.1637  0.4305  0.7632
  610SOL     OW 2437   1.854   1.070   1.324  0.0450 -0.6897 -0.6702
  610SOL    HW1 2438   1.885   1.002   1.260 -1.8921 -2.2702  0.8526
  610SOL    HW2 2439   1.773   1.032   1.358 -2.9026  1.1757 -1.5649
  610SOL     MW 2440   1.847   1.056   1.320 -0.5995 -0.6521 -0.5874
  611SOL     OW 2441   2.450   1.658   0.715 -0.0090 -0.1132 -0.1422
  611SOL    HW1 2442   2.414   1.737   0.677  0.8006 -2.0921 -0.5035
  611SOL    HW2 2443   2.505   1.608   0.647  2.0065 -2.7240  1.0257
  611SOL     MW 2444   2.453   1.662   0.701  0.3638 -0.7188 -0.0357
  612SOL     OW 2445   2.783   2.835   0.458 -0.2820  0.7509  0.3233
  612SOL    HW1 2446   2.827   2.888   0.525  0.4702 -0.6314 -1.4458
  612SOL    HW2 2447   2.856   2.801   0.402  0.2402 -0.4110  2.1629
  612SOL     MW 2448   2.798   2.837   0.459 -0.1139  0.4152  0.3326
  613SOL     OW 2449   1.578   1.051   1.118 -0.9365  0.7247 -0.2729
  613SOL    HW1 2450   1.566   1.142   1.150  1.3290 -0.5244 -2.4310
  613SOL    HW2 2451   1.665   1.027   1.146 -0.5874  0.0855  0.9171
  613SOL     MW 2452   1.588   1.060   1.126 -0.5915  0.4756 -0.4006
  614SOL     OW 2453   2.045   0.550   1.497 -0.1284  0.6141  0.3559
  614SOL    HW1 2454   2.011   0.471   1.537  1.4805 -1.3230 -0.9293
  614SOL    HW2 2455   2.046   0.550   1.401 -0.6398  1.2446 -1.0726
  614SOL     MW 2456   2.040   0.540   1.490  0.0164  0.4417 -0.0022
  615SOL     OW 2457   2.280   0.857   0.201  0.0900 -0.3035  0.7320
  615SOL    HW1 2458   2.329   0.801   0.256 -0.4589 -1.5054  0.3169
  615SOL    HW2 2459   2.275   0.810   0.119  0.1770  3.4425  0.6538
  615SOL     MW 2460   2.286   0.844   0.198  0.0291  0.0322  0.6669
  616SOL     OW 2461   2.548   0.428   1.611 -0.7571 -0.1078  0.2144
  616SOL    HW1 2462   2.508   0.354   1.564  0.5032 -0.9214  1.6499
  616SOL    HW2 2463   2.605   0.463   1.537 -1.2507 -0.4734 -0.5583
  616SOL     MW 2464   2.550   0.423   1.595 -0.6559 -0.2634  0.3018
  617SOL     OW 2465   2.870   0.568   1.723 -0.3617  0.5585 -0.4514
  617SOL    HW1 2466   2.787   0.595   1.759  2.7092  2.7259 -1.3852
  617SOL    HW2 2467   2.870   0.472   1.704 -1.3429  0.1506  1.2336
  617SOL     MW 2468   2.859   0.559   1.726 -0.0860  0.7906 -0.3523
  618SOL     OW 2469   2.653   0.362   1.901  0.3121 -0.2404 -0.3314
  618SOL    HW1 2470   2.650   0.458   1.902  0.7124 -0.5785  1.3262
  618SOL    HW2 2471   2.739   0.357   1.942 -0.9897 -1.0434 -0.3793
  618SOL     MW 2472   2.664   0.374   1.906  0.1931 -0.3909 -0.1190
  619SOL     OW 2473   2.587   0.823   0.154 -0.3420 -1.0662  0.1036
  619SOL    HW1 2474   2.650   0.882   0.203  1.1970  1.2481  0.0939
  619SOL    HW2 2475   2.543   0.766   0.221 -1.1140 -1.8819  2.7015
  619SOL     MW 2476   2.589   0.823   0.169 -0.2408 -0.8685  0.4451
  620SOL     OW 2477   2.289   1.093   0.940  0.3060  0.0642  0.2805
  620SOL    HW1 2478   2.323   1.079   0.852 -1.8389  1.7468 -1.5960
  620SOL    HW2 2479   2.230   1.018   0.964 -1.1167 -0.5924  0.7766
  620SOL     MW 2480   2.285   1.081   0.932 -0.1647  0.1996  0.0984
  621SOL     OW 2481   1.470   2.123   1.998  0.3529 -0.2163  0.5096
  621SOL    HW1 2482   1.413   2.051   2.014  0.3725  1.6029 -0.0754
  621SOL    HW2 2483   1.551   2.094   2.034 -0.7566  0.3529 -0.5143
  621SOL     MW 2484   1.473   2.109   2.005  0.2091  0.0988  0.2973
  622SOL     OW 2485   2.614   0.147   0.201  0.1260 -0.4611  0.5009
  622SOL    HW1 2486   2.708   0.168   0.184  1.7380  0.3295 -0.4238
  622SOL    HW2 2487   2.601   0.055   0.159 -2.4477  0.6937  3.0715
  622SOL     MW 2488   2.625   0.138   0.193 -0.0009 -0.2044  0.7181
  623SOL     OW 2489   2.352   2.768   0.854 -0.1261 -0.3880  0.7930
  623SOL    HW1 2490   2.412   2.840   0.857  1.0883 -1.1069 -0.0320
  623SOL    HW2 2491   2.306   2.775   0.936  1.2421 -0.9023  1.2165
  623SOL     MW 2492   2.354   2.779   0.865  0.2146 -0.5507  0.7401
  624SOL     OW 2493   2.247   1.655   3.043  0.3104  0.1422  0.2165
  624SOL    HW1 2494   2.177   1.628   3.095  1.7556  0.5947 -1.5604
  624SOL    HW2 2495   2.221   1.744   3.022 -1.1862 -1.2964  0.3965
  624SOL     MW 2496   2.234   1.663   3.047  0.3036  0.0121  0.0058
  625SOL     OW 2497   2.141   1.924   1.058 -0.5899  0.9345 -0.1322
  625SOL    HW1 2498   2.212   1.892   1.108 -2.8602 -1.0570 -1.0989
  625SOL    HW2 2499   2.149   1.893   0.970  0.3551  0.0119  0.0992
  625SOL     MW 2500   2.151   1.916   1.053 -0.7647  0.5500 -0.2292
  626SOL     OW 2501   0.157   1.543   2.368  0.1410  0.3529 -0.5771
  626SOL    HW1 2502   0.124   1.477   2.304  0.3210 -0.1047  2.9580
  626SOL    HW2 2503   0.120   1.521   2.450  1.7073 -0.1256 -1.0786
  626SOL     MW 2504   0.148   1.531   2.370  0.3714  0.2294 -0.1768
  627SOL     OW 2505   2.450   0.812   2.571  0.2601  0.1805  0.2739
  627SOL    HW1 2506   2.398   0.898   2.583  2.0981  1.0492  1.9898
  627SOL    HW2 2507   2.428   0.785   2.482  2.1990 -1.5346  0.8864
  627SOL     MW 2508   2.440   0.820   2.561  0.7584  0.0688  0.5811
  628SOL     OW 2509   2.280   1.361   1.361 -0.8544 -0.2453 -0.9633
  628SOL    HW1 2510   2.258   1.286   1.309  1.2109 -1.1529  0.4286
  628SOL    HW2 2511   2.377   1.359   1.375  0.8546  0.5743 -1.9969
  628SOL     MW 2512   2.290   1.351   1.356 -0.3564 -0.2569 -0.9160
  629SOL     OW 2513   1.996   0.540   1.222  0.3585 -0.0502  0.0167
  629SOL    HW1 2514   2.077   0.596   1.202 -1.3451  1.3899 -0.8630
  629SOL    HW2 2515   1.922   0.601   1.223  1.1455 -0.7864  1.5034
  629SOL     MW 2516   1.997   0.555   1.220  0.2375  0.0427  0.0968
  630SOL     OW 2517   2.529   1.808   3.057 -0.5169  0.2224 -0.5747
  630SOL    HW1 2518   2.478   1.872   3.017  1.2785 -1.4498 -1.6631
  630SOL    HW2 2519   2.472   1.737   3.067  1.7973  0.5828 -0.1286
  630SOL     MW 2520   2.515   1.807   3.053  0.0253  0.0493 -0.6594
  631SOL     OW 2521   1.972   1.797   1.582 -0.2460  0.0784 -0.0103
  631SOL    HW1 2522   2.015   1.718   1.624  4.0691  1.1147 -1.7310
  631SOL    HW2 2523   1.938   1.749   1.501 -2.0546 -0.1279 -1.9252
  631SOL     MW 2524   1.973   1.780   1.577  0.0847  0.1879 -0.4900
  632SOL     OW 2525   0.145   2.085   1.565 -0.1749  0.0275 -0.9970
  632SOL    HW1 2526   0.064   2.111   1.606 -1.6497  0.0918  3.0087
  632SOL    HW2 2527   0.133   2.004   1.507  0.3940  0.3295  0.3050
  632SOL     MW 2528   0.133   2.078   1.563 -0.2944  0.0758 -0.2967
  633SOL     OW 2529   2.424   0.684   0.356 -0.2802  0.0396 -0.1716
  633SOL    HW1 2530   2.507   0.653   0.392 -0.1998 -2.8751  0.5531
  633SOL    HW2 2531   2.376   0.602   0.367  1.2190 -0.9363  1.0860
  633SOL     MW 2532   2.429   0.669   0.363 -0.0718 -0.4738  0.0899
  634SOL     OW 2533   2.647   3.084   0.646  0.1866  0.3878  0.6842
  634SOL    HW1 2534   2.672   3.175   0.630 -1.0676 -0.0483  0.1744
  634SOL    HW2 2535   2.614   3.045   0.563  0.9249 -0.3589 -2.2060
  634SOL     MW 2536   2.646   3.091   0.633  0.1185  0.2317  0.2356
  635SOL     OW 2537   2.589   0.112   1.798 -0.9853 -0.4211  0.0482
  635SOL    HW1 2538   2.653   0.061   1.749  0.0172  0.5932 -0.2263
  635SOL    HW2 2539   2.633   0.195   1.817  1.6228 -2.4521 -0.8935
  635SOL     MW 2540   2.603   0.116   1.794 -0.5089 -0.5552 -0.1122
  636SOL     OW 2541   2.951   1.656   0.964  0.1068  0.6405 -0.3408
  636SOL    HW1 2542   2.861   1.684   0.948 -1.2245  0.8926 -2.3740
  636SOL    HW2 2543   2.987   1.680   1.053 -2.5681 -2.0490  3.2609
  636SOL     MW 2544   2.944   1.663   0.974 -0.4218  0.3189 -0.1338
  637SOL     OW 2545   2.891   1.486   0.685 -0.5854  0.1180 -0.3892
  637SOL    HW1 2546   2.933   1.566   0.725  1.7213 -0.7099 -0.6788
  637SOL    HW2 2547   2.809   1.478   0.736  0.3883  0.7035  2.8340
  637SOL     MW 2548   2.886   1.495   0.697 -0.1526  0.0860 -0.0021
  638SOL     OW 2549   2.647   0.648   0.500  0.3300 -0.1869  0.4767
  638SOL    HW1 2550   2.725   0.675   0.455 -1.8526 -1.4393  0.1800
  638SOL    HW2 2551   2.679   0.611   0.582  2.3293 -1.9694 -2.0280
  638SOL     MW 2552   2.662   0.647   0.505  0.3058 -0.5873  0.1071
  639SOL     OW 2553   1.834   0.014   0.555  0.2810  0.3889 -0.9604
  639SOL    HW1 2554   1.753   0.064   0.537  1.6532 -0.8364  0.8937
  639SOL    HW2 2555   1.834  -0.041   0.477 -0.3113  1.8237 -1.7759
  639SOL     MW 2556   1.823   0.013   0.542  0.3839  0.4165 -0.8234
  640SOL     OW 2557   0.360   1.365   0.078 -0.5870 -0.2113 -0.3786
  640SOL    HW1 2558   0.393   1.366  -0.015 -0.4821 -1.6097 -2.4599
  640SOL    HW2 2559   0.304   1.287   0.078  0.6332  1.4493 -0.8533
  640SOL     MW 2560   0.357   1.355   0.066 -0.4122 -0.1767 -0.7159
  641SOL     OW 2561   2.247   0.451   0.379  0.5521  0.0633  0.1847
  641SOL    HW1 2562   2.267   0.423   0.289  1.4584  0.5210  0.3241
  641SOL    HW2 2563   2.316   0.414   0.428  1.2938  1.0817 -0.0319
  641SOL     MW 2564   2.259   0.442   0.374  0.7696  0.2580  0.1745
  642SOL     OW 2565   3.103   3.088   0.559  0.5060  0.0024  0.0385
  642SOL    HW1 2566   3.052   3.169   0.578 -0.8085  0.3877 -0.6190
  642SOL    HW2 2567   3.041   3.021   0.592  0.7107 -2.7703 -1.0366
  642SOL     MW 2568   3.088   3.090   0.566  0.3596 -0.3126 -0.1901
  643SOL     OW 2569   2.019   0.347   1.665 -0.1213  0.2066  0.4600
  643SOL    HW1 2570   2.077   0.336   1.741  1.9688 -3.6438 -0.8543
  643SOL    HW2 2571   2.051   0.288   1.592 -0.1869  0.9475  1.1661
  643SOL     MW 2572   2.031   0.338   1.665  0.1458 -0.2037  0.3798
  644SOL     OW 2573   2.717   1.863   1.015 -0.2718  0.6219  0.3981
  644SOL    HW1 2574   2.685   1.805   1.084  0.3990  0.4143  3.6229
  644SOL    HW2 2575   2.639   1.904   0.976  2.1252 -0.0329 -0.1141
  644SOL     MW 2576   2.703   1.861   1.019  0.1330  0.5081  0.7560
  645SOL     OW 2577   2.817   0.892   0.648  0.3190  0.1854 -0.2297
  645SOL    HW1 2578   2.897   0.862   0.686 -1.6863 -1.3857  0.4812
  645SOL    HW2 2579   2.751   0.825   0.661  1.0898  2.0249  1.7745
  645SOL     MW 2580   2.819   0.879   0.655  0.1562  0.2208  0.1286
  646SOL     OW 2581   0.177   2.251   0.846  0.0597 -0.0378  0.3483
  646SOL    HW1 2582   0.218   2.166   0.823  1.2786  0.7375 -2.8029
  646SOL    HW2 2583   0.128   2.273   0.761  0.4527 -3.3520  0.7911
  646SOL     MW 2584   0.176   2.243   0.832  0.2724 -0.3728 -0.0091
  647SOL     OW 2585   2.719   0.545   2.976 -0.3908  0.1240 -0.2336
  647SOL    HW1 2586   2.663   0.485   3.024 -1.1802 -2.1714  0.6885
  647SOL    HW2 2587   2.671   0.623   2.977 -2.3183 -2.6903  1.7529
  647SOL     MW 2588   2.706   0.547   2.982 -0.7493 -0.5502  0.1501
  648SOL     OW 2589   2.205   0.724   1.171 -0.5987  0.2789 -0.7384
  648SOL    HW1 2590   2.194   0.753   1.084 -1.4179 -0.6202  0.8666
  648SOL    HW2 2591   2.224   0.801   1.226 -0.6800 -0.2497  0.8656
  648SOL     MW 2592   2.206   0.738   1.167 -0.7175  0.0905 -0.3150
  649SOL     OW 2593   2.390   2.730   1.253  0.2648 -0.0853  0.1896
  649SOL    HW1 2594   2.479   2.771   1.244 -1.0407  1.1824  1.0213
  649SOL    HW2 2595   2.398   2.639   1.225 -1.1410  2.3120 -1.8301
  649SOL     MW 2596   2.403   2.724   1.248 -0.0929  0.3983  0.0329
  650SOL     OW 2597   2.806   0.241   0.643  0.1749 -0.1688  0.5485
  650SOL    HW1 2598   2.856   0.266   0.719 -1.0539  2.7451  0.5848
  650SOL    HW2 2599   2.870   0.261   0.569  1.5089 -0.6134  0.7203
  650SOL     MW 2600   2.821   0.247   0.643  0.1888  0.1570  0.5759
  651SOL     OW 2601   2.993   0.355   0.843  0.5327  0.3874 -0.0397
  651SOL    HW1 2602   3.066   0.394   0.786  1.4347 -0.9262  1.3177
  651SOL    HW2 2603   2.968   0.434   0.892  2.3942 -0.5095  0.1687
  651SOL     MW 2604   2.999   0.371   0.842  0.8974  0.0958  0.1669
  652SOL     OW 2605   2.388   1.403   2.971 -0.0065 -0.3239 -0.1815
  652SOL    HW1 2606   2.427   1.421   2.883  0.1545  1.0955  2.8044
  652SOL    HW2 2607   2.344   1.490   2.987  0.6587 -0.9098  0.4377
  652SOL     MW 2608   2.387   1.417   2.962  0.1025 -0.2140  0.2942
  653SOL     OW 2609   1.966   0.424   0.354 -0.5488 -0.3483 -0.3342
  653SOL    HW1 2610   1.945   0.384   0.272 -0.4147  0.5078  0.4324
  653SOL    HW2 2611   2.058   0.448   0.359 -2.3077  1.2980  1.9386
  653SOL     MW 2612   1.975   0.422   0.344 -0.7632 -0.0182  0.0668
  654SOL     OW 2613   2.470   1.040   0.708 -0.0753 -0.1021  0.5274
  654SOL    HW1 2614   2.392   1.010   0.663 -0.7719  2.0920  0.7320
  654SOL    HW2 2615   2.496   0.970   0.766  0.3225  2.3197  0.9086
  654SOL     MW 2616   2.463   1.026   0.710 -0.1148  0.5069  0.6047
  655SOL     OW 2617   3.010   0.925   0.422 -0.1392  0.3052 -0.4303
  655SOL    HW1 2618   3.022   0.961   0.510 -1.7187 -2.1395  1.6546
  655SOL    HW2 2619   2.995   0.827   0.433  1.4229 -1.1867  1.0222
  655SOL     MW 2620   3.010   0.917   0.435 -0.1415 -0.2142  0.0365
  656SOL     OW 2621   1.949   2.754   1.228  0.2151 -0.8347  0.0118
  656SOL    HW1 2622   1.907   2.818   1.280  0.6423 -3.4581 -1.1976
  656SOL    HW2 2623   1.960   2.685   1.288  0.4658  3.5297  0.8351
  656SOL     MW 2624   1.945   2.753   1.243  0.3046 -0.6050 -0.0391
  657SOL     OW 2625   0.244   1.521   1.241 -0.1117  0.3755 -0.0938
  657SOL    HW1 2626   0.152   1.505   1.261 -1.3037 -1.8279 -1.0446
  657SOL    HW2 2627   0.248   1.545   1.146 -1.9885 -1.9217 -1.1168
  657SOL     MW 2628   0.232   1.522   1.231 -0.5166 -0.2183 -0.3542
  658SOL     OW 2629   2.697   1.391   0.248  0.3151  0.5048  0.1660
  658SOL    HW1 2630   2.634   1.334   0.293  0.0553 -1.3341 -0.9802
  658SOL    HW2 2631   2.730   1.454   0.309 -0.3206  0.1026  2.0816
  658SOL     MW 2632   2.693   1.392   0.262  0.1970  0.2092  0.2675
  659SOL     OW 2633   2.269   1.554   1.033  0.7198 -0.3529  0.5218
  659SOL    HW1 2634   2.360   1.536   1.057 -3.5159  2.0385  0.8209
  659SOL    HW2 2635   2.233   1.536   1.116  0.9690  0.1579  2.0626
  659SOL     MW 2636   2.276   1.549   1.047  0.1938  0.0300  0.7645
  660SOL     OW 2637   2.051   1.550   1.684  0.1733  0.4461 -0.3808
  660SOL    HW1 2638   2.066   1.563   1.784 -1.6594  2.7066  0.2730
  660SOL    HW2 2639   1.994   1.475   1.684  2.3650  1.0371 -1.2410
  660SOL     MW 2640   2.045   1.542   1.697  0.2207  0.8224 -0.4081
  661SOL     OW 2641   2.372   1.088   0.180  0.4563  0.3811 -0.0294
  661SOL    HW1 2642   2.450   1.098   0.229 -0.3226 -1.1553  3.4153
  661SOL    HW2 2643   2.346   0.990   0.189 -1.7214  1.1923  0.9114
  661SOL     MW 2644   2.379   1.076   0.188  0.0662  0.2854  0.5492
  662SOL     OW 2645   2.520   2.978   0.867 -0.3485 -0.1002  0.1825
  662SOL    HW1 2646   2.472   3.046   0.917 -0.8818 -0.8401 -2.1158
  662SOL    HW2 2647   2.548   3.021   0.786  0.6271 -1.3450 -0.9132
  662SOL     MW 2648   2.517   2.992   0.863 -0.2902 -0.3620 -0.2653
  663SOL     OW 2649   2.810   1.577   0.433 -0.5064 -0.3620 -0.1634
  663SOL    HW1 2650   2.888   1.609   0.382  0.8214  1.6460  0.1095
  663SOL    HW2 2651   2.836   1.552   0.518 -0.6829 -0.4213 -2.4283
  663SOL     MW 2652   2.824   1.578   0.438 -0.3545 -0.1049 -0.4262
  664SOL     OW 2653   2.497   1.591   1.552  0.0436  0.4928 -0.3491
  664SOL    HW1 2654   2.451   1.671   1.523  0.4254 -1.0886  0.1657
  664SOL    HW2 2655   2.424   1.532   1.564 -0.5535  0.5918 -0.5057
  664SOL     MW 2656   2.481   1.594   1.549  0.0152  0.2972 -0.3018
  665SOL     OW 2657   2.868   0.802   2.045  0.4095  0.0190  0.3013
  665SOL    HW1 2658   2.842   0.834   1.960  1.2407  2.4579  2.3456
  665SOL    HW2 2659   2.939   0.743   2.026  0.5238 -1.5365 -0.8177
  665SOL     MW 2660   2.874   0.799   2.031  0.5343  0.1355  0.4234
  666SOL     OW 2661   2.795   3.026   1.684  0.3349  0.2857 -0.1120
  666SOL    HW1 2662   2.788   3.038   1.588 -0.1214  1.0264  0.3123
  666SOL    HW2 2663   2.732   2.957   1.710 -0.9057 -2.9615 -2.0381
  666SOL     MW 2664   2.786   3.019   1.674  0.1110 -0.0450 -0.3102
  667SOL     OW 2665   1.962   2.720   1.611  0.2195  0.2273  0.2333
  667SOL    HW1 2666   1.978   2.633   1.647 -2.9532  0.5682  0.2530
  667SOL    HW2 2667   2.042   2.772   1.635  0.4502 -3.0158 -0.8776
  667SOL     MW 2668   1.975   2.716   1.619 -0.1687 -0.1556  0.0893
  668SOL     OW 2669   2.736   0.626   0.788 -0.1928 -0.0454 -0.3918
  668SOL    HW1 2670   2.810   0.617   0.852  0.7424 -1.2855 -3.1894
  668SOL    HW2 2671   2.675   0.695   0.820  2.6118 -1.7676 -0.6872
  668SOL     MW 2672   2.737   0.634   0.801  0.3006 -0.4362 -0.7999
  669SOL     OW 2673   0.170   0.890   0.733  0.0927  0.3065 -0.1683
  669SOL    HW1 2674   0.150   0.982   0.718  0.5343 -0.4867 -0.5175
  669SOL    HW2 2675   0.272   0.892   0.746  2.0862  0.8099 -0.0775
  669SOL     MW 2676   0.181   0.903   0.733  0.4140  0.2682 -0.2024
  670SOL     OW 2677   2.937   0.287   0.210  0.2937  0.1298 -0.4953
  670SOL    HW1 2678   2.956   0.215   0.149  0.4223 -1.3584 -1.4255
  670SOL    HW2 2679   2.922   0.364   0.148 -0.7176  0.2330 -1.9895
  670SOL     MW 2680   2.937   0.288   0.194  0.1773 -0.0530 -0.8152
  671SOL     OW 2681   2.170   3.094   1.606 -0.4328 -0.1580 -0.2829
  671SOL    HW1 2682   2.123   3.144   1.539  1.3810 -2.0238  1.3077
  671SOL    HW2 2683   2.088   3.088   1.661  0.3618  0.5953 -0.5613
  671SOL     MW 2684   2.153   3.100   1.605 -0.0886 -0.3048 -0.1098
  672SOL     OW 2685   1.869   1.702   1.343 -0.0931  0.0495 -0.2352
  672SOL    HW1 2686   1.778   1.707   1.349 -3.1834  0.8331  0.7737
  672SOL    HW2 2687   1.878   1.750   1.261  0.6340 -1.5761  1.1041
  672SOL     MW 2688   1.859   1.709   1.333 -0.4049 -0.0616  0.0746
  673SOL     OW 2689   2.792   1.105   0.482 -0.4398  0.0519  0.4598
  673SOL    HW1 2690   2.783   1.019   0.530 -2.2705  0.4879 -0.3735
  673SOL    HW2 2691   2.875   1.160   0.518  0.5600 -0.1191  3.6709
  673SOL     MW 2692   2.802   1.101   0.493 -0.5494  0.0869  0.7735
  674SOL     OW 2693   2.495   0.072   1.287 -0.6825  0.6432 -0.4331
  674SOL    HW1 2694   2.464   0.093   1.197  0.1422 -1.6470  2.0175
  674SOL    HW2 2695   2.528  -0.022   1.289  0.5605  0.0366  1.9090
  674SOL     MW 2696   2.495   0.062   1.275 -0.4097  0.2610  0.1993
  675SOL     OW 2697   2.977   1.049   1.118  0.8977 -0.3416  0.4162
  675SOL    HW1 2698   3.027   0.993   1.180 -1.4847 -1.1963 -2.2116
  675SOL    HW2 2699   3.012   1.029   1.030 -1.3650 -2.2191 -1.1983
  675SOL     MW 2700   2.988   1.039   1.115  0.2848 -0.7021 -0.1435
  676SOL     OW 2701   2.787   1.483   1.623  0.0246  0.4606  0.0082
  676SOL    HW1 2702   2.756   1.400   1.646  2.3639  2.0671 -2.9268
  676SOL    HW2 2703   2.883   1.484   1.642 -0.9919  1.9273 -0.2908
  676SOL     MW 2704   2.795   1.472   1.628  0.1991  0.8661 -0.4185
  677SOL     OW 2705   2.434   0.814   1.886 -0.3593 -0.2130 -0.0013
  677SOL    HW1 2706   2.375   0.791   1.822 -1.3742 -1.3294  3.4145
  677SOL    HW2 2707   2.383   0.837   1.959 -0.9290  1.2453 -0.8994
  677SOL     MW 2708   2.420   0.814   1.888 -0.5684 -0.1679  0.3309
  678SOL     OW 2709   2.529   1.589   0.456  0.8221  0.3715  0.1188
  678SOL    HW1 2710   2.492   1.671   0.438  1.0195 -0.0085 -1.3072
  678SOL    HW2 2711   2.612   1.601   0.417  2.3610  1.4742  0.2622
  678SOL     MW 2712   2.535   1.602   0.449  1.0512  0.4669 -0.0504
  679SOL     OW 2713   2.366   0.485   1.100 -0.4018 -0.0151 -0.3729
  679SOL    HW1 2714   2.298   0.417   1.123 -0.7474 -1.1958  1.8621
  679SOL    HW2 2715   2.322   0.561   1.136  0.1304  2.0357 -4.1648
  679SOL     MW 2716   2.351   0.486   1.108 -0.3772  0.0997 -0.5783
  680SOL     OW 2717   2.393   0.273   1.442 -0.3712 -0.0822  0.0365
  680SOL    HW1 2718   2.370   0.220   1.523  0.6499 -4.0379 -0.7311
  680SOL    HW2 2719   2.418   0.203   1.382  1.2388 -0.8649  4.7729
  680SOL     MW 2720   2.393   0.257   1.445 -0.0240 -0.7074  0.5601
  681SOL     OW 2721   0.293   0.540   1.575 -0.1358  0.1213  0.2067
  681SOL    HW1 2722   0.271   0.453   1.602 -0.4009  0.7008  1.6385
  681SOL    HW2 2723   0.387   0.535   1.578 -2.0728  2.5192 -0.0947
  681SOL     MW 2724   0.303   0.528   1.579 -0.4264  0.5141  0.3558
  682SOL     OW 2725   0.153   2.999   1.494  0.2019 -0.4920  0.6761
  682SOL    HW1 2726   0.157   3.093   1.472  4.5587  0.9065 -2.5942
  682SOL    HW2 2727   0.089   2.976   1.567 -0.3698 -2.0909 -0.2601
  682SOL     MW 2728   0.145   3.009   1.501  0.7013 -0.5185  0.1211
  683SOL     OW 2729   2.036   0.824   2.994  0.6810 -0.2527  0.3174
  683SOL    HW1 2730   1.960   0.789   2.946  0.1758 -0.2905 -0.3923
  683SOL    HW2 2731   1.999   0.898   3.039  0.4777  1.4224  1.1351
  683SOL     MW 2732   2.021   0.829   2.993  0.5875 -0.0367  0.3316
  684SOL     OW 2733   2.156   1.755   0.846  0.0368  0.3110 -0.0035
  684SOL    HW1 2734   2.065   1.731   0.871  1.4399  3.7259  1.5803
  684SOL    HW2 2735   2.219   1.705   0.907  1.0160  0.4907  0.8455
  684SOL     MW 2736   2.153   1.745   0.857  0.3511  0.7853  0.3175
  685SOL     OW 2737   2.568   1.730   1.217  0.1136 -0.0419  0.1003
  685SOL    HW1 2738   2.646   1.720   1.270 -1.6766  2.2804  0.4329
  685SOL    HW2 2739   2.550   1.641   1.191 -0.0314  1.1709 -1.7532
  685SOL     MW 2740   2.576   1.717   1.220 -0.1418  0.4245 -0.1004
  686SOL     OW 2741   2.906   0.702   1.491 -0.4928  0.0945  0.1472
  686SOL    HW1 2742   2.906   0.666   1.582 -0.0797 -1.7748  2.0158
  686SOL    HW2 2743   2.984   0.760   1.473  0.1074  2.7426  0.7477
  686SOL     MW 2744   2.916   0.705   1.500 -0.3591  0.1973  0.4730
  687SOL     OW 2745   2.174   0.328   1.202  0.1424 -0.0532  0.1630
  687SOL    HW1 2746   2.132   0.268   1.140 -1.3181  0.6774 -1.9837
  687SOL    HW2 2747   2.099   0.380   1.241  0.0703 -0.3579  0.4150
  687SOL     MW 2748   2.159   0.327   1.199 -0.0598  0.0030 -0.0870
  688SOL     OW 2749   2.350   0.557   1.425  0.5904 -0.1234  0.4944
  688SOL    HW1 2750   2.372   0.540   1.515  1.2775  0.3219  0.9549
  688SOL    HW2 2751   2.308   0.472   1.414  1.7925  0.7866  2.4524
  688SOL     MW 2752   2.348   0.543   1.436  0.8396  0.0554  0.8135
  689SOL     OW 2753   2.585   0.779   2.993  0.4376  0.2123 -0.2526
  689SOL    HW1 2754   2.595   0.870   2.955 -1.8511 -0.0899  0.3374
  689SOL    HW2 2755   2.579   0.789   3.096 -0.4509  2.3083 -0.1874
  689SOL     MW 2756   2.586   0.792   3.002  0.0184  0.4490 -0.1661
  690SOL     OW 2757   2.061   1.004   1.970  0.7115 -1.0528  0.0961
  690SOL    HW1 2758   2.014   0.917   1.969  0.1037  0.7022 -1.0029
  690SOL    HW2 2759   2.105   1.000   1.880  1.8346 -0.3869 -2.6895
  690SOL     MW 2760   2.061   0.992   1.958  0.7795 -0.7334 -0.4164
  691SOL     OW 2761   2.466   0.250   0.824  0.3189 -0.3696  0.0049
  691SOL    HW1 2762   2.540   0.308   0.852  0.8741 -2.0819  1.3862
  691SOL    HW2 2763   2.380   0.305   0.844 -1.7675  0.7229  1.7871
  691SOL     MW 2764   2.464   0.265   0.830  0.1169 -0.4514  0.4223
  692SOL     OW 2765   2.784   1.696   1.383  0.4643  0.5582  0.2133
  692SOL    HW1 2766   2.784   1.627   1.451  1.4194  1.9130 -0.7287
  692SOL    HW2 2767   2.823   1.777   1.417 -0.2964 -3.4628 -0.1931
  692SOL     MW 2768   2.789   1.698   1.396  0.4899  0.2064  0.0354
  693SOL     OW 2769   2.265   0.435   0.099 -0.2275  0.1550 -0.2064
  693SOL    HW1 2770   2.191   0.377   0.075  2.6251  4.8649 -1.3852
  693SOL    HW2 2771   2.251   0.521   0.065  0.1997  1.4502  0.3026
  693SOL     MW 2772   2.253   0.438   0.091  0.2053  0.9473 -0.2948
  694SOL     OW 2773   1.979   1.275   1.161 -0.3479 -0.5065 -0.6962
  694SOL    HW1 2774   2.068   1.238   1.167  0.5706  2.6256 -0.8786
  694SOL    HW2 2775   1.920   1.215   1.206 -1.1632 -0.3882  0.5198
  694SOL     MW 2776   1.983   1.262   1.167 -0.3343 -0.0777 -0.5598
  695SOL     OW 2777   2.952   1.467   1.312 -0.1072 -0.2524 -0.1925
  695SOL    HW1 2778   2.958   1.430   1.219  0.0789 -1.7205 -2.6424
  695SOL    HW2 2779   2.902   1.545   1.293 -2.3494 -1.2520 -0.1944
  695SOL     MW 2780   2.946   1.473   1.297 -0.3785 -0.5780 -0.5160
  696SOL     OW 2781   2.053   1.398   0.915  0.4955 -0.0347  0.0102
  696SOL    HW1 2782   2.134   1.445   0.933  1.2018  0.1537 -3.4278
  696SOL    HW2 2783   2.028   1.375   1.004 -0.6175 -3.5473  1.2821
  696SOL     MW 2784   2.060   1.401   0.929  0.4418 -0.4733 -0.2756
  697SOL     OW 2785   2.857   0.969   2.281  0.1631  0.5833 -0.3445
  697SOL    HW1 2786   2.803   1.032   2.225  0.2106  2.6633 -2.5230
  697SOL    HW2 2787   2.883   0.896   2.223 -1.3621 -1.5584  1.2257
  697SOL     MW 2788   2.854   0.967   2.266 -0.0319  0.5752 -0.4248
  698SOL     OW 2789   2.537   0.335   0.030 -0.2799  0.1139  0.2851
  698SOL    HW1 2790   2.447   0.355   0.044  0.8289  0.3671 -0.1119
  698SOL    HW2 2791   2.558   0.282   0.107  3.2919 -1.1446  1.6086
  698SOL     MW 2792   2.528   0.331   0.042  0.3377 -0.0187  0.4074
  699SOL     OW 2793   1.834   1.617   2.066  0.4742  0.1093  0.3524
  699SOL    HW1 2794   1.821   1.526   2.098  1.7123  1.8028 -0.2587
  699SOL    HW2 2795   1.928   1.632   2.053  0.3713 -0.1918 -0.4037
  699SOL     MW 2796   1.845   1.607   2.068  0.6240  0.2930  0.1720
  700SOL     OW 2797   2.727   0.917   1.530  0.2143  0.0200  0.8438
  700SOL    HW1 2798   2.728   0.970   1.453 -4.0624 -2.5950  0.7802
  700SOL    HW2 2799   2.794   0.851   1.521 -0.4666  3.4143 -2.8479
  700SOL     MW 2800   2.736   0.915   1.519 -0.4398  0.1228  0.3483
  701SOL     OW 2801   1.672   1.283   2.619 -0.2431  0.1734  0.5547
  701SOL    HW1 2802   1.767   1.298   2.626 -0.6900  0.6850 -0.0050
  701SOL    HW2 2803   1.627   1.351   2.674  2.3183 -0.1859 -1.2974
  701SOL     MW 2804   1.679   1.294   2.628  0.0359  0.1935  0.2365
  702SOL     OW 2805   2.258   0.448   0.812  0.3250 -0.0368 -0.1954
  702SOL    HW1 2806   2.228   0.383   0.742 -0.9158  0.0427  0.2098
  702SOL    HW2 2807   2.309   0.519   0.769 -0.7099  1.4428  0.1094
  702SOL     MW 2808   2.261   0.449   0.797  0.0248  0.1689 -0.1017
  703SOL     OW 2809   2.646   1.289   0.973 -0.2232  0.0865 -0.5742
  703SOL    HW1 2810   2.644   1.272   0.880  0.4937 -3.5119  1.6777
  703SOL    HW2 2811   2.679   1.204   1.009  3.3219 -1.1487 -0.6080
  703SOL     MW 2812   2.650   1.275   0.966  0.3392 -0.5513 -0.2815
  704SOL     OW 2813   0.022   1.296   0.249 -0.0138  0.4204 -0.1529
  704SOL    HW1 2814  -0.062   1.269   0.213 -0.3678  3.4019  1.5410
  704SOL    HW2 2815   0.083   1.226   0.254  1.3780  3.8678  1.7703
  704SOL     MW 2816   0.019   1.283   0.245  0.1231  1.2686  0.3244
  705SOL     OW 2817   2.147   1.587   1.298 -0.0817 -0.6706 -0.6599
  705SOL    HW1 2818   2.060   1.564   1.319  1.4817  1.9944  1.6220
  705SOL    HW2 2819   2.199   1.503   1.306  1.0549  2.0008  0.5913
  705SOL     MW 2820   2.143   1.573   1.302  0.2745  0.0335 -0.1938
  706SOL     OW 2821   2.994   1.244   0.586  0.3893  0.0401  0.2225
  706SOL    HW1 2822   3.078   1.228   0.545 -1.5136 -0.7287  1.4557
  706SOL    HW2 2823   2.978   1.333   0.614  0.3938 -2.2557  1.0240
  706SOL     MW 2824   3.003   1.254   0.584  0.1388 -0.3642  0.4910
  707SOL     OW 2825   2.384   0.066   1.026  0.1603 -0.2606 -0.4524
  707SOL    HW1 2826   2.411   0.137   0.970 -1.3407  0.5079  0.3298
  707SOL    HW2 2827   2.290   0.072   1.006  0.4145 -2.6267 -1.4761
  707SOL     MW 2828   2.375   0.076   1.016 -0.0042 -0.4714 -0.4843
  708SOL     OW 2829   2.529   1.520   0.078  0.3808  0.9400  0.3957
  708SOL    HW1 2830   2.606   1.474   0.108 -1.2915  3.3192  1.2096
  708SOL    HW2 2831   2.487   1.461   0.014  0.0582 -2.5292  0.8707
  708SOL     MW 2832   2.534   1.506   0.073  0.1176  0.7962  0.5657
  709SOL     OW 2833   1.693   1.765   0.101 -0.0523  0.7306 -0.4726
  709SOL    HW1 2834   1.659   1.809   0.027 -0.5532  1.8010  5.1574
  709SOL    HW2 2835   1.627   1.729   0.157  0.3029  1.5103  1.1742
  709SOL     MW 2836   1.680   1.766   0.099 -0.0715  0.9747  0.4875
  710SOL     OW 2837   2.236   1.182   1.195 -0.1699  0.3202 -0.6084
  710SOL    HW1 2838   2.263   1.164   1.103 -0.7865 -1.1112  2.3324
  710SOL    HW2 2839   2.247   1.090   1.238  1.4310 -1.6026  1.8297
  710SOL     MW 2840   2.241   1.167   1.188 -0.0401 -0.1224  0.1013
  711SOL     OW 2841   2.357   0.169   1.708  0.7031  0.0482 -0.4868
  711SOL    HW1 2842   2.432   0.117   1.738 -0.6608 -1.7169 -4.0585
  711SOL    HW2 2843   2.300   0.094   1.669 -0.1368 -3.4168  0.0565
  711SOL     MW 2844   2.359   0.152   1.707  0.4123 -0.6419 -0.8864
  712SOL     OW 2845   1.618   0.582   3.045  0.1750 -0.0413 -0.5239
  712SOL    HW1 2846   1.676   0.642   2.995 -0.7290  0.1519  2.4032
  712SOL    HW2 2847   1.566   0.632   3.112 -2.5942  0.2812  0.8217
  712SOL     MW 2848   1.619   0.597   3.047 -0.3096  0.0267  0.0398
  713SOL     OW 2849   2.587   0.795   1.151 -0.0638  0.3538 -0.2843
  713SOL    HW1 2850   2.603   0.697   1.143 -1.2992 -0.3860  0.9594
  713SOL    HW2 2851   2.546   0.803   1.243  1.7729  0.8123  1.6934
  713SOL     MW 2852   2.584   0.783   1.162  0.0155  0.3167  0.1407
  714SOL     OW 2853   2.265   0.156   1.978 -0.5302 -0.4392 -0.2669
  714SOL    HW1 2854   2.302   0.129   2.065  1.4257  0.2623  0.0492
  714SOL    HW2 2855   2.336   0.177   1.917  0.4585 -2.5562  0.7462
  714SOL     MW 2856   2.279   0.156   1.981 -0.1417 -0.6260 -0.0915
  715SOL     OW 2857   1.764   1.913   1.712  0.4405 -0.3829  0.2492
  715SOL    HW1 2858   1.843   1.891   1.655  1.2980  1.5270 -3.5755
  715SOL    HW2 2859   1.721   1.831   1.746 -1.1179 -1.6668 -0.6029
  715SOL     MW 2860   1.769   1.900   1.709  0.3480 -0.3003 -0.3678
  716SOL     OW 2861   2.334   0.660   0.652  0.6092 -0.6556  0.5814
  716SOL    HW1 2862   2.401   0.621   0.599  0.9736 -3.0109  1.1081
  716SOL    HW2 2863   2.251   0.637   0.604  0.7273  1.4917  0.6617
  716SOL     MW 2864   2.332   0.652   0.639  0.6729 -0.6831  0.6615
  717SOL     OW 2865   2.822   1.449   2.944 -0.0651  0.0971  0.2875
  717SOL    HW1 2866   2.919   1.461   2.953 -0.6396  2.0026  0.2862
  717SOL    HW2 2867   2.790   1.500   3.024 -0.0784  0.7069  1.3492
  717SOL     MW 2868   2.831   1.457   2.956 -0.1427  0.4290  0.4274
  718SOL     OW 2869   2.529   1.342   1.400 -0.5543 -0.4392  0.4156
  718SOL    HW1 2870   2.562   1.415   1.456  0.0218 -1.0583 -2.9433
  718SOL    HW2 2871   2.597   1.273   1.402 -1.4519 -1.9151  1.6108
  718SOL     MW 2872   2.543   1.342   1.408 -0.5967 -0.7156  0.1301
  719SOL     OW 2873   2.168   1.378   0.640 -0.5366 -0.0290 -0.0265
  719SOL    HW1 2874   2.264   1.361   0.638  0.7825 -3.6268  2.7036
  719SOL    HW2 2875   2.131   1.356   0.726 -1.5452  0.0786  0.0821
  719SOL     MW 2876   2.176   1.373   0.651 -0.4956 -0.4895  0.3481
  720SOL     OW 2877   2.890   1.221   0.136  0.3804  0.0024 -0.2212
  720SOL    HW1 2878   2.859   1.137   0.174  0.4550 -2.2993  0.5260
  720SOL    HW2 2879   2.811   1.275   0.162 -3.6116  0.5941  1.1487
  720SOL     MW 2880   2.875   1.217   0.144 -0.1365 -0.2232  0.0581
  721SOL     OW 2881   2.494   0.802   1.414  0.0694  0.0616  0.1001
  721SOL    HW1 2882   2.461   0.712   1.439  6.6901  1.1175  0.1634
  721SOL    HW2 2883   2.557   0.819   1.482 -1.8270 -2.8514 -1.2155
  721SOL     MW 2884   2.498   0.792   1.426  0.6928 -0.1834 -0.0652
  722SOL     OW 2885   2.544   1.216   0.380 -0.0944  0.0021  0.1363
  722SOL    HW1 2886   2.488   1.238   0.451 -0.5191 -2.2209 -1.3203
  722SOL    HW2 2887   2.600   1.153   0.426 -1.6561 -1.0675  0.6713
  722SOL     MW 2888   2.544   1.210   0.395 -0.3565 -0.4323  0.0147
  723SOL     OW 2889   2.304   1.422   1.631 -0.0594 -0.3423  0.4834
  723SOL    HW1 2890   2.276   1.389   1.545  0.8354 -0.9366 -0.8858
  723SOL    HW2 2891   2.224   1.463   1.665 -0.2949 -3.3575 -0.8962
  723SOL     MW 2892   2.289   1.423   1.624  0.0276 -0.8185  0.1207
  724SOL     OW 2893   2.466   0.387   0.554 -0.5146 -0.2528 -0.0197
  724SOL    HW1 2894   2.468   0.331   0.630 -1.0627  1.1044 -0.9532
  724SOL    HW2 2895   2.534   0.350   0.499  0.0351 -0.7413 -0.7415
  724SOL     MW 2896   2.475   0.374   0.556 -0.5144 -0.1382 -0.2381
  725SOL     OW 2897   2.643   0.537   1.145 -1.0450 -0.0573 -0.3356
  725SOL    HW1 2898   2.662   0.535   1.233  2.4769 -0.2820 -2.4707
  725SOL    HW2 2899   2.545   0.521   1.151 -1.9183 -1.1601  1.4473
  725SOL     MW 2900   2.633   0.534   1.157 -0.6955 -0.2324 -0.3820
  726SOL     OW 2901   2.582   2.420   0.508  0.2335  0.1336  0.6736
  726SOL    HW1 2902   2.521   2.479   0.454 -3.3985 -1.6266  0.1668
  726SOL    HW2 2903   2.544   2.401   0.594 -2.9494  0.2968  1.6167
  726SOL     MW 2904   2.569   2.426   0.512 -0.6657 -0.0771  0.7312
  727SOL     OW 2905   2.784   0.284   1.638 -0.2541 -0.3858  0.0054
  727SOL    HW1 2906   2.831   0.294   1.551  0.0530  0.7838  2.1438
  727SOL    HW2 2907   2.702   0.329   1.620 -1.1393  0.0538  0.9171
  727SOL     MW 2908   2.779   0.291   1.624 -0.3303 -0.1735  0.4078
  728SOL     OW 2909   2.798   1.148   2.995 -0.3381  0.4623 -0.5150
  728SOL    HW1 2910   2.829   1.232   2.966  0.9692 -1.5611 -1.5856
  728SOL    HW2 2911   2.820   1.156   3.089  0.0384  2.1585 -0.2496
  728SOL     MW 2912   2.805   1.160   3.003 -0.1159  0.4192 -0.6212
  729SOL     OW 2913   2.533   1.459   1.135  0.2612 -0.9963  0.4017
  729SOL    HW1 2914   2.531   1.413   1.215  1.8050  2.0116 -1.3057
  729SOL    HW2 2915   2.569   1.404   1.066  1.2829  0.3639 -2.9089
  729SOL     MW 2916   2.537   1.445   1.136  0.5997 -0.4200 -0.2604
  730SOL     OW 2917   2.127   1.172   0.240  0.3665  0.2050  0.5010
  730SOL    HW1 2918   2.221   1.159   0.218  3.6543 -0.3142 -1.4100
  730SOL    HW2 2919   2.106   1.267   0.234 -1.2877  0.2892 -1.2725
  730SOL     MW 2920   2.136   1.183   0.236  0.5820  0.1476  0.0148
  731SOL     OW 2921   2.826   1.817   2.916  0.5484  0.4712  0.3001
  731SOL    HW1 2922   2.735   1.849   2.908 -1.0824  1.7097  2.5644
  731SOL    HW2 2923   2.872   1.898   2.894 -2.9621 -0.7442 -0.5141
  731SOL     MW 2924   2.820   1.832   2.912 -0.1300  0.4742  0.4914
  732SOL     OW 2925   2.248   0.938   1.345  0.7345 -0.1720 -0.8631
  732SOL    HW1 2926   2.163   0.939   1.394 -0.8798 -0.2134 -0.8275
  732SOL    HW2 2927   2.304   0.896   1.405 -1.8119 -0.6796  4.6891
  732SOL     MW 2928   2.244   0.932   1.359  0.1855 -0.2444 -0.1258
  733SOL     OW 2929   2.345   2.863   3.034 -0.7528 -1.0171  0.3599
  733SOL    HW1 2930   2.282   2.932   3.010 -0.6878  0.2843  0.8474
  733SOL    HW2 2931   2.297   2.781   3.033  0.9158 -0.0152 -1.6038
  733SOL     MW 2932   2.330   2.861   3.030 -0.5241 -0.7132  0.1651
  734SOL     OW 2933   1.488   0.366   2.452  0.1304  0.4354 -0.4360
  734SOL    HW1 2934   1.472   0.318   2.530 -0.0738  2.2009 -4.0030
  734SOL    HW2 2935   1.513   0.308   2.380  3.5544  0.4817 -0.2706
  734SOL     MW 2936   1.489   0.352   2.453  0.5552  0.6744 -0.8848
  735SOL     OW 2937   3.088   0.883   2.673  0.5849  0.6211 -0.2015
  735SOL    HW1 2938   3.048   0.807   2.627  0.7351 -0.3231  2.2119
  735SOL    HW2 2939   3.017   0.917   2.728  1.2501  0.5694  0.4588
  735SOL     MW 2940   3.074   0.877   2.674  0.6925  0.4897  0.2040
  736SOL     OW 2941   0.034   0.601   2.496  0.5822  0.0022  0.2050
  736SOL    HW1 2942   0.089   0.628   2.418  1.5170  0.4057  0.2260
  736SOL    HW2 2943   0.019   0.503   2.495 -0.2582 -1.7669 -0.5873
  736SOL     MW 2944   0.040   0.591   2.486  0.5946 -0.1780  0.1032
  737SOL     OW 2945   2.890   0.697   2.531  0.4374  0.2565  0.5636
  737SOL    HW1 2946   2.834   0.639   2.473 -0.6784  2.4705 -0.8566
  737SOL    HW2 2947   2.974   0.650   2.520 -2.1167 -2.0878  0.2870
  737SOL     MW 2948   2.894   0.683   2.522 -0.0468  0.2393  0.3397
  738SOL     OW 2949   0.171   0.444   1.977  0.0672  0.5115  0.3914
  738SOL    HW1 2950   0.262   0.465   1.985  0.0084 -2.0272  0.4619
  738SOL    HW2 2951   0.190   0.377   1.919 -1.8067  1.5480  1.4357
  738SOL     MW 2952   0.186   0.438   1.970 -0.1878  0.3133  0.5385
  739SOL     OW 2953   2.547   0.984   2.128 -0.5690  0.2181  0.4881
  739SOL    HW1 2954   2.463   0.939   2.126 -0.1571 -2.4655  1.8544
  739SOL    HW2 2955   2.549   1.036   2.048  1.7003 -0.1811  2.1463
  739SOL     MW 2956   2.536   0.985   2.117 -0.2152 -0.1887  0.8871
  740SOL     OW 2957   0.198   1.680   2.963 -0.4471  0.0957  0.4557
  740SOL    HW1 2958   0.139   1.607   2.980 -1.8794  0.0903 -0.2324
  740SOL    HW2 2959   0.271   1.663   3.022 -2.2137 -0.7959  0.9481
  740SOL     MW 2960   0.200   1.668   2.973 -0.8692 -0.0227  0.4299
  741SOL     OW 2961   2.199   1.209   2.746  0.5417 -0.1292 -0.1296
  741SOL    HW1 2962   2.229   1.280   2.687 -1.2360  0.4966 -2.5320
  741SOL    HW2 2963   2.203   1.239   2.837 -2.1954 -1.0274 -1.0580
  741SOL     MW 2964   2.203   1.222   2.750 -0.0540 -0.1652 -0.5691
  742SOL     OW 2965   1.677   1.355   2.353  0.0339  0.1594 -0.5650
  742SOL    HW1 2966   1.620   1.283   2.331  0.5225 -1.7687  0.2766
  742SOL    HW2 2967   1.695   1.341   2.448  1.6645  0.3301  3.0634
  742SOL     MW 2968   1.672   1.343   2.363  0.3135 -0.0725  0.0248
  743SOL     OW 2969   2.521   1.223   2.712 -0.4995 -0.2906 -0.0897
  743SOL    HW1 2970   2.431   1.216   2.741 -4.7886 -0.3994 -1.3951
  743SOL    HW2 2971   2.567   1.169   2.779 -0.0304  0.8780  0.0603
  743SOL     MW 2972   2.515   1.215   2.725 -1.0035 -0.1507 -0.2422
  744SOL     OW 2973   2.766   0.923   1.804 -0.5078 -0.2396  0.1701
  744SOL    HW1 2974   2.702   0.974   1.850  0.4898 -0.7564  2.0229
  744SOL    HW2 2975   2.744   0.930   1.710 -2.3562 -0.4810 -0.0686
  744SOL     MW 2976   2.755   0.931   1.798 -0.6201 -0.3396  0.3831
  745SOL     OW 2977   1.753   0.464   2.481  0.4039  0.1288  0.0215
  745SOL    HW1 2978   1.751   0.511   2.395  1.8705 -1.2689  0.5064
  745SOL    HW2 2979   1.672   0.408   2.491 -1.0161 -0.4960 -2.9429
  745SOL     MW 2980   1.742   0.463   2.471  0.4100 -0.1380 -0.3056
  746SOL     OW 2981   1.579   1.504   1.690 -0.3247 -0.5220 -0.2528
  746SOL    HW1 2982   1.606   1.585   1.731 -2.3646  0.0590 -1.1325
  746SOL    HW2 2983   1.547   1.463   1.773 -0.5454  0.5999 -0.3212
  746SOL     MW 2984   1.578   1.510   1.706 -0.6230 -0.2974 -0.3779
  747SOL     OW 2985   2.588   1.115   1.869  0.2902 -0.1162  0.4954
  747SOL    HW1 2986   2.512   1.118   1.816  2.2832  1.2916 -1.4998
  747SOL    HW2 2987   2.580   1.203   1.910 -1.0779  0.3326  0.9278
  747SOL     MW 2988   2.577   1.127   1.867  0.3726  0.1288  0.2892
  748SOL     OW 2989   0.105   3.089   1.930  0.2946  0.4109  0.1528
  748SOL    HW1 2990   0.195   3.115   1.916  0.9548  1.0406 -0.9427
  748SOL    HW2 2991   0.061   3.145   1.994  1.9164 -0.4030  1.8486
  748SOL     MW 2992   0.111   3.099   1.937  0.5957  0.3866  0.2320
  749SOL     OW 2993   2.399   0.646   2.781 -0.5854 -0.3395  0.4678
  749SOL    HW1 2994   2.440   0.706   2.709  1.6300  1.4932 -0.5869
  749SOL    HW2 2995   2.433   0.683   2.857  0.4932 -1.7371  0.0761
  749SOL     MW 2996   2.409   0.659   2.782 -0.1508 -0.2821  0.2769
  750SOL     OW 2997   2.127   3.023   1.959 -0.3477 -0.5860 -0.7732
  750SOL    HW1 2998   2.167   3.116   1.949 -1.2157  1.0609 -1.1813
  750SOL    HW2 2999   2.201   2.962   1.925  0.1782  1.3433 -0.3166
  750SOL     MW 3000   2.142   3.027   1.953 -0.3929 -0.1141 -0.7668
  751SOL     OW 3001   3.053   0.345   2.441  0.2944  0.0832 -0.4759
  751SOL    HW1 3002   2.995   0.352   2.365 -0.6571  1.5328 -2.9181
  751SOL    HW2 3003   3.138   0.319   2.413 -1.5679  0.3581 -0.1334
  751SOL     MW 3004   3.057   0.342   2.428 -0.0768  0.3107 -0.7529
  752SOL     OW 3005   2.136   0.923   2.763 -0.2802  0.3093 -0.4898
  752SOL    HW1 3006   2.160   1.012   2.793  0.1311 -1.3328  0.7990
  752SOL    HW2 3007   2.111   0.883   2.848 -1.8273  0.8663  0.5099
  752SOL     MW 3008   2.136   0.930   2.778 -0.4301  0.1661 -0.1878
  753SOL     OW 3009   2.842   0.355   2.265 -0.1430  0.8741  0.2265
  753SOL    HW1 3010   2.786   0.282   2.250 -1.3994  0.6825  0.4362
  753SOL    HW2 3011   2.786   0.420   2.309  0.3875 -0.0512 -0.3042
  753SOL     MW 3012   2.827   0.354   2.269 -0.2387  0.7267  0.1842
  754SOL     OW 3013   2.292   2.960   2.619  0.2596 -0.2180  0.5118
  754SOL    HW1 3014   2.294   2.946   2.521 -0.2236  0.9107  0.2210
  754SOL    HW2 3015   2.374   2.933   2.664  0.7924 -0.3084 -0.5818
  754SOL     MW 3016   2.303   2.955   2.612  0.2662 -0.0810  0.3292
  755SOL     OW 3017   2.776   1.601   2.453  0.5613 -0.6402 -0.1019
  755SOL    HW1 3018   2.749   1.509   2.452 -1.2766  1.6694  1.2932
  755SOL    HW2 3019   2.818   1.617   2.538 -0.3174 -0.4925  1.8487
  755SOL     MW 3020   2.778   1.591   2.464  0.2029 -0.3160  0.3395
  756SOL     OW 3021   2.164   1.266   3.022  0.0540  0.5347 -0.2821
  756SOL    HW1 3022   2.256   1.302   3.031 -0.5191 -2.7951 -1.8447
  756SOL    HW2 3023   2.183   1.176   3.050  2.0319  0.2931  0.9598
  756SOL     MW 3024   2.179   1.259   3.027  0.2394  0.0635 -0.3244
  757SOL     OW 3025   2.177   0.930   1.721  0.1342  0.2841 -0.4161
  757SOL    HW1 3026   2.199   0.833   1.724 -1.6369  0.0938 -0.5464
  757SOL    HW2 3027   2.144   0.943   1.630 -0.1623  0.5376 -3.0064
  757SOL     MW 3028   2.175   0.919   1.709 -0.1386  0.2924 -0.7750
  758SOL     OW 3029   2.247   1.876   2.611 -0.0401 -0.2143 -0.1166
  758SOL    HW1 3030   2.233   1.897   2.520  0.2358 -0.0469 -2.5995
  758SOL    HW2 3031   2.318   1.812   2.613 -0.5119 -0.2323  1.0747
  758SOL     MW 3032   2.255   1.870   2.599 -0.0659 -0.1946 -0.2870
  759SOL     OW 3033   1.526   1.438   2.789  0.0856  0.4264 -0.3343
  759SOL    HW1 3034   1.557   1.508   2.725 -0.0073 -1.1338 -0.8864
  759SOL    HW2 3035   1.586   1.456   2.864  3.1604  2.8771  1.0275
  759SOL     MW 3036   1.538   1.449   2.790  0.4791  0.5439 -0.2275
  760SOL     OW 3037   2.594   1.978   2.728 -0.1885  0.5045  0.4766
  760SOL    HW1 3038   2.558   1.890   2.726  0.6463  0.2398 -0.6212
  760SOL    HW2 3039   2.668   1.974   2.671  0.1691  1.3636 -0.1116
  760SOL     MW 3040   2.599   1.966   2.720 -0.0312  0.5829  0.2541
  761SOL     OW 3041   2.188   0.476   2.460  0.3460 -0.9040  0.3643
  761SOL    HW1 3042   2.101   0.433   2.454  0.2215 -0.1752 -0.1725
  761SOL    HW2 3043   2.186   0.545   2.528 -3.8386  2.1971 -0.0924
  761SOL     MW 3044   2.177   0.479   2.468 -0.2225 -0.3986  0.2332
  762SOL     OW 3045   0.022   0.182   2.126 -0.1496 -0.2960 -0.5868
  762SOL    HW1 3046   0.002   0.136   2.207 -0.0036 -0.0423 -0.4668
  762SOL    HW2 3047  -0.061   0.224   2.102  0.7807  1.3329 -2.0978
  762SOL     MW 3048   0.008   0.182   2.133 -0.0076 -0.0476 -0.7704
  763SOL     OW 3049   2.468   1.182   2.326 -0.4019 -0.5063 -0.3851
  763SOL    HW1 3050   2.472   1.131   2.241  2.1190 -1.6844 -3.9406
  763SOL    HW2 3051   2.545   1.238   2.320 -2.6827  0.5608  1.1478
  763SOL     MW 3052   2.478   1.183   2.314 -0.3702 -0.5209 -0.6520
  764SOL     OW 3053   0.386   0.130   2.790  0.0122  0.6488 -0.1626
  764SOL    HW1 3054   0.319   0.161   2.737 -0.8164 -0.0101 -0.0575
  764SOL    HW2 3055   0.381   0.190   2.864 -0.1378 -0.7079 -0.0746
  764SOL     MW 3056   0.377   0.142   2.793 -0.1169  0.3828 -0.1371
  765SOL     OW 3057   2.689   0.121   2.289 -0.3190 -0.1364 -0.0448
  765SOL    HW1 3058   2.686   0.085   2.201  0.4943 -0.0375  0.0105
  765SOL    HW2 3059   2.724   0.043   2.340 -0.8039 -0.5463  3.1969
  765SOL     MW 3060   2.693   0.106   2.284 -0.2757 -0.1775  0.3902
  766SOL     OW 3061   1.928   3.068   2.143 -0.2765 -0.1571 -0.8550
  766SOL    HW1 3062   2.008   3.053   2.089  1.5819  0.9022 -0.2717
  766SOL    HW2 3063   1.861   3.016   2.101 -2.5306 -0.5331 -1.4915
  766SOL     MW 3064   1.929   3.059   2.131 -0.3287 -0.0669 -0.8620
  767SOL     OW 3065   2.648   0.636   1.938 -0.6429  0.1213  0.7233
  767SOL    HW1 3066   2.720   0.688   1.976  0.9350  3.0147 -1.6169
  767SOL    HW2 3067   2.584   0.705   1.911 -1.0192 -1.1699 -0.0063
  767SOL     MW 3068   2.649   0.652   1.940 -0.4844  0.3327  0.3182
  768SOL     OW 3069   3.095   1.495   2.990  0.2731 -0.1362  0.1899
  768SOL    HW1 3070   3.138   1.496   3.077 -1.0684 -0.0065 -2.6578
  768SOL    HW2 3071   3.121   1.405   2.960 -0.4460 -3.2121  1.4610
  768SOL     MW 3072   3.104   1.483   2.997  0.0013 -0.5250 -0.0181
  769SOL     OW 3073   2.331   0.673   2.364 -0.3050 -0.2840  0.6549
  769SOL    HW1 3074   2.267   0.601   2.374 -2.3062 -0.2497 -1.5039
  769SOL    HW2 3075   2.405   0.654   2.306  1.3926 -0.1081  0.1653
  769SOL     MW 3076   2.332   0.661   2.358 -0.3450 -0.2563  0.3055
  770SOL     OW 3077   0.044   1.597   2.608 -0.0431  0.0458 -0.2639
  770SOL    HW1 3078  -0.052   1.603   2.623  1.5227  1.2471  0.1176
  770SOL    HW2 3079   0.082   1.515   2.642 -1.3457  0.9738  1.6062
  770SOL     MW 3080   0.036   1.587   2.615 -0.0084  0.3267  0.0332
  771SOL     OW 3081   3.056   0.608   1.957 -0.3367 -0.0994 -0.1963
  771SOL    HW1 3082   3.034   0.583   1.864 -3.0261 -0.1638 -2.4539
  771SOL    HW2 3083   3.137   0.565   1.977 -3.5634  2.6206  0.7473
  771SOL     MW 3084   3.064   0.599   1.947 -1.1173  0.2510 -0.3697
  772SOL     OW 3085   0.031   3.100   2.343  0.2191 -0.5973  0.1212
  772SOL    HW1 3086  -0.053   3.065   2.359  0.5524 -0.6259 -3.3950
  772SOL    HW2 3087   0.079   3.033   2.292 -2.6382 -0.0407  0.0753
  772SOL     MW 3088   0.026   3.086   2.338 -0.1140 -0.5276 -0.3488
  773SOL     OW 3089   2.488   2.875   2.797  0.3499 -1.2316  0.2605
  773SOL    HW1 3090   2.500   2.782   2.787  0.0557 -1.7079  1.2506
  773SOL    HW2 3091   2.437   2.888   2.883 -3.6783  1.3981  1.1717
  773SOL     MW 3092   2.483   2.865   2.807 -0.2204 -0.9475  0.5113
  774SOL     OW 3093   2.355   1.139   1.755 -0.6522  0.2531  0.2781
  774SOL    HW1 3094   2.333   1.222   1.715 -1.4109 -1.2132 -2.6712
  774SOL    HW2 3095   2.290   1.069   1.720 -0.4379  1.1619 -0.0767
  774SOL     MW 3096   2.343   1.141   1.745 -0.7240  0.1795 -0.1579
  775SOL     OW 3097   2.301   2.917   2.326 -0.3269  1.0890 -0.3767
  775SOL    HW1 3098   2.313   3.000   2.278  0.3701 -1.7353 -2.9398
  775SOL    HW2 3099   2.385   2.867   2.314 -0.9037  0.3075  1.7793
  775SOL     MW 3100   2.314   2.921   2.318 -0.3111  0.6132 -0.4304
  776SOL     OW 3101   0.121   1.512   0.126  0.0407  0.4075  0.3707
  776SOL    HW1 3102   0.213   1.507   0.099 -0.5806 -1.3606 -0.3767
  776SOL    HW2 3103   0.097   1.423   0.164 -0.6440 -1.3905 -1.1149
  776SOL     MW 3104   0.130   1.500   0.128 -0.1316 -0.0630  0.0761
  777SOL     OW 3105   2.960   1.109   1.756  0.8152 -0.0851  0.0302
  777SOL    HW1 3106   2.929   1.166   1.688 -1.4795  0.1349 -2.1781
  777SOL    HW2 3107   2.883   1.046   1.776  0.6586 -2.4621 -3.6950
  777SOL     MW 3108   2.946   1.108   1.749  0.4918 -0.3697 -0.7527
  778SOL     OW 3109   2.875   0.461   2.751 -0.5324 -0.3936  0.4262
  778SOL    HW1 3110   2.825   0.489   2.830  1.4862  2.0527  1.0608
  778SOL    HW2 3111   2.855   0.528   2.686 -1.2993 -2.2712 -1.1475
  778SOL     MW 3112   2.866   0.474   2.753 -0.3672 -0.3186  0.3023
  779SOL     OW 3113   2.265   0.433   2.114  0.3177  1.0042 -0.0152
  779SOL    HW1 3114   2.204   0.477   2.180  1.8503  2.4081  3.3384
  779SOL    HW2 3115   2.268   0.340   2.118 -1.8629  0.2959  0.1795
  779SOL     MW 3116   2.257   0.427   2.123  0.2322  1.0960  0.4529
  780SOL     OW 3117   0.152   0.240   2.698  0.1010  0.0247  0.3032
  780SOL    HW1 3118   0.094   0.195   2.762  0.9502  0.9112 -2.5478
  780SOL    HW2 3119   0.147   0.336   2.709  0.3364 -2.1530 -2.6624
  780SOL     MW 3120   0.144   0.247   2.708  0.2441 -0.1457 -0.4642
  781SOL     OW 3121   3.060   1.328   2.492 -0.3170  0.1143  0.2795
  781SOL    HW1 3122   3.044   1.392   2.418  2.0571  2.5141  0.6969
  781SOL    HW2 3123   3.082   1.246   2.444 -0.9340  0.2487 -3.1192
  781SOL     MW 3124   3.061   1.326   2.476 -0.0852  0.4486 -0.1139
  782SOL     OW 3125   0.664   1.492   0.096 -0.8859 -0.0332  0.2467
  782SOL    HW1 3126   0.617   1.572   0.096  1.1455 -0.3661 -0.7941
  782SOL    HW2 3127   0.698   1.504   0.181  0.0108  0.6120 -0.1247
  782SOL     MW 3128   0.662   1.504   0.107 -0.4996  0.0080  0.0604
  783SOL     OW 3129   2.723   0.551   2.401 -0.3241  0.9020  0.3749
  783SOL    HW1 3130   2.697   0.612   2.332  1.4875 -0.4891 -2.4039
  783SOL    HW2 3131   2.655   0.552   2.475 -1.1303 -0.6002  0.2824
  783SOL     MW 3132   2.711   0.559   2.402 -0.1914  0.5203 -0.0040
  784SOL     OW 3133   0.192   0.854   2.867 -0.1250  0.3353  0.1467
  784SOL    HW1 3134   0.100   0.842   2.830 -0.7838  1.2523 -0.3651
  784SOL    HW2 3135   0.231   0.902   2.798 -2.7590  1.1905  0.2191
  784SOL     MW 3136   0.185   0.859   2.853 -0.5595  0.5691  0.0887
  785SOL     OW 3137   0.443   0.411   2.180  0.4821  0.6756  0.0938
  785SOL    HW1 3138   0.424   0.454   2.096  3.1976  0.3109  0.8789
  785SOL    HW2 3139   0.368   0.352   2.198 -1.1320 -0.0987 -2.2028
  785SOL     MW 3140   0.431   0.409   2.171  0.6274  0.5253 -0.1056
  786SOL     OW 3141   1.896   0.425   3.085  0.3227 -0.0545 -0.6726
  786SOL    HW1 3142   1.829   0.484   3.114 -1.5377  1.7962 -0.8557
  786SOL    HW2 3143   1.892   0.429   2.990  0.1605 -1.3844 -2.9413
  786SOL     MW 3144   1.886   0.434   3.076  0.0559  0.0142 -0.9961
  787SOL     OW 3145   2.463   0.162   2.929 -0.2347 -0.3309 -0.5263
  787SOL    HW1 3146   2.533   0.109   2.906  1.1029 -2.9290 -0.5532
  787SOL    HW2 3147   2.496   0.232   2.985  0.9364  0.2962  0.7102
  787SOL     MW 3148   2.476   0.165   2.933  0.0963 -0.5909 -0.3667
  788SOL     OW 3149   2.845   3.000   2.419 -0.4370  0.6313 -0.0858
  788SOL    HW1 3150   2.855   2.955   2.502 -1.1809  1.6905  0.0355
  788SOL    HW2 3151   2.850   2.930   2.352  0.0012 -1.7578  1.1789
  788SOL     MW 3152   2.847   2.985   2.421 -0.4774  0.4558  0.0971
  789SOL     OW 3153   0.106   0.182   3.077 -0.5442  0.6828 -0.5362
  789SOL    HW1 3154   0.031   0.123   3.090 -3.1216  0.4053  0.4403
  789SOL    HW2 3155   0.055   0.250   3.038  2.8741  2.9847 -0.7643
  789SOL     MW 3156   0.089   0.183   3.074 -0.4333  0.9499 -0.4374
  790SOL     OW 3157   0.015   1.047   2.410  0.1063  0.5152 -0.4234
  790SOL    HW1 3158   0.027   0.986   2.482  0.7007 -1.9001 -0.1378
  790SOL    HW2 3159  -0.066   1.011   2.359 -2.0635 -1.5692 -0.1526
  790SOL     MW 3160   0.006   1.034   2.412 -0.1016 -0.0785 -0.3500
  791SOL     OW 3161   2.529   0.484   2.604  0.0432  0.1971 -0.2611
  791SOL    HW1 3162   2.478   0.536   2.667 -1.5287 -3.7593  1.6758
  791SOL    HW2 3163   2.533   0.396   2.633  0.0751  2.1501  0.9139
  791SOL     MW 3164   2.523   0.479   2.616 -0.1600 -0.0673  0.1495
  792SOL     OW 3165   2.365   0.227   2.442 -0.6637  0.8386 -0.4532
  792SOL    HW1 3166   2.360   0.319   2.453 -2.4866 -0.4829  0.3686
  792SOL    HW2 3167   2.320   0.184   2.515  0.6909 -1.4652  0.4048
  792SOL     MW 3168   2.359   0.234   2.453 -0.7255  0.3603 -0.2315
  793SOL     OW 3169   1.809   1.087   2.016  0.2659  0.3324 -0.3333
  793SOL    HW1 3170   1.787   1.071   1.927  0.8014  1.2798  2.5696
  793SOL    HW2 3171   1.904   1.065   2.013  2.1570 -2.1409  2.6311
  793SOL     MW 3172   1.819   1.082   2.004  0.5861  0.1311  0.4408
  794SOL     OW 3173   1.370   2.323   0.121  0.1572  0.2622  0.3077
  794SOL    HW1 3174   1.417   2.373   0.064 -1.3212 -3.7325  0.2326
  794SOL    HW2 3175   1.417   2.304   0.208 -0.6310  2.6582  3.3747
  794SOL     MW 3176   1.382   2.327   0.125 -0.1418  0.0512  0.7024
  795SOL     OW 3177   2.304   1.050   2.534  0.0605 -0.2981  0.1343
  795SOL    HW1 3178   2.260   1.089   2.611  2.0850 -1.0048  0.0920
  795SOL    HW2 3179   2.352   1.113   2.483 -0.2669  0.0087 -1.1156
  795SOL     MW 3180   2.304   1.063   2.537  0.2844 -0.3509 -0.0362
  796SOL     OW 3181   0.236   0.614   2.677 -0.2075  0.0906 -0.4105
  796SOL    HW1 3182   0.216   0.695   2.725  0.3039  0.1155  0.2455
  796SOL    HW2 3183   0.159   0.601   2.621 -0.6731  1.6708 -0.9781
  796SOL     MW 3184   0.223   0.623   2.676 -0.2014  0.3024 -0.3988
  797SOL     OW 3185   2.620   0.169   2.587 -0.6003 -0.1903 -0.3382
  797SOL    HW1 3186   2.544   0.181   2.536 -4.2639 -0.0532 -1.1943
  797SOL    HW2 3187   2.700   0.180   2.537  1.6172 -2.2055  1.3838
  797SOL     MW 3188   2.620   0.172   2.573 -0.7911 -0.4381 -0.2240
  798SOL     OW 3189   2.380   0.051   2.213  0.5178 -0.0529 -0.5680
  798SOL    HW1 3190   2.380   0.109   2.294 -0.4399 -1.2416 -0.7117
  798SOL    HW2 3191   2.466   0.039   2.173  1.8027 -0.0068  1.8193
  798SOL     MW 3192   2.392   0.057   2.219  0.5610 -0.2036 -0.2720
  799SOL     OW 3193   2.559   2.981   0.126  0.5205  0.0823  0.0835
  799SOL    HW1 3194   2.471   2.969   0.087 -2.2322  0.7475  0.7206
  799SOL    HW2 3195   2.538   2.977   0.219 -0.2522  0.7748  0.3933
  799SOL     MW 3196   2.545   2.979   0.133  0.0554  0.2614  0.2085
  800SOL     OW 3197   1.937   3.069   1.770  0.5224  0.1420  0.3875
  800SOL    HW1 3198   1.874   2.998   1.765  2.0393  1.0211 -0.5760
  800SOL    HW2 3199   1.995   3.060   1.847 -1.9171 -1.1342 -1.8052
  800SOL     MW 3200   1.937   3.058   1.779  0.4007  0.0896 -0.0289
  801SOL     OW 3201   2.827   1.224   2.615 -0.7314  0.2711 -0.3205
  801SOL    HW1 3202   2.848   1.128   2.614 -0.2578 -0.3395  0.5005
  801SOL    HW2 3203   2.911   1.264   2.600  0.9041 -2.5585 -1.3186
  801SOL     MW 3204   2.841   1.216   2.613 -0.4531 -0.1828 -0.3439
  802SOL     OW 3205   2.592   1.470   2.772  0.0073 -0.1561  0.0348
  802SOL    HW1 3206   2.580   1.385   2.739  1.3865  0.4590  1.4999
  802SOL    HW2 3207   2.670   1.443   2.827  0.7518  1.7984 -0.6403
  802SOL     MW 3208   2.600   1.455   2.775  0.2875  0.1829  0.1391
  803SOL     OW 3209   2.274   1.378   2.024  0.1493 -0.1373  0.5085
  803SOL    HW1 3210   2.251   1.351   2.112  0.3001  0.5913  0.5723
  803SOL    HW2 3211   2.231   1.317   1.962 -0.9181 -1.0100  2.0733
  803SOL     MW 3212   2.265   1.366   2.027  0.0284 -0.1563  0.7234
  804SOL     OW 3213   2.297   0.072   0.035  0.0334 -0.8530  0.4832
  804SOL    HW1 3214   2.221   0.132   0.043  1.2594 -0.4103  2.0558
  804SOL    HW2 3215   2.362   0.108  -0.032 -1.4808  0.5361 -1.3195
  804SOL     MW 3216   2.295   0.084   0.027 -0.0047 -0.6113  0.4529
  805SOL     OW 3217   2.733   0.898   2.643  0.3204  0.3378 -0.4317
  805SOL    HW1 3218   2.645   0.884   2.603  1.2198  3.2458  1.8484
  805SOL    HW2 3219   2.789   0.843   2.592  0.0056 -0.5703 -0.1780
  805SOL     MW 3220   2.729   0.889   2.631  0.3976  0.6017 -0.0974
  806SOL     OW 3221   2.572   0.687   2.203 -0.5622 -0.4652 -1.1081
  806SOL    HW1 3222   2.582   0.648   2.117 -0.5695  2.7726 -2.5293
  806SOL    HW2 3223   2.568   0.779   2.175  1.9378  0.7600 -0.8728
  806SOL     MW 3224   2.573   0.694   2.188 -0.2333  0.1237 -1.2646
  807SOL     OW 3225   0.086   1.077   2.063  0.4691 -0.8563 -0.1815
  807SOL    HW1 3226   0.128   1.002   2.023  0.5112  3.8404 -1.3511
  807SOL    HW2 3227  -0.004   1.087   2.022  0.4011 -2.6825  0.2116
  807SOL     MW 3228   0.080   1.068   2.052  0.4657 -0.4776 -0.2839
  808SOL     OW 3229   2.666   3.088   2.813 -0.0876 -0.6785  0.0143
  808SOL    HW1 3230   2.604   3.018   2.787  4.8333 -2.0072 -2.9408
  808SOL    HW2 3231   2.666   3.132   2.724  1.9930  1.4511 -0.1993
  808SOL     MW 3232   2.657   3.085   2.798  0.8361 -0.5728 -0.4038
  809SOL     OW 3233   2.690   1.355   2.389 -0.2115 -0.1089  0.2148
  809SOL    HW1 3234   2.735   1.296   2.453  0.1950 -0.9671 -1.4011
  809SOL    HW2 3235   2.742   1.337   2.306  0.3757 -1.5443  2.1092
  809SOL     MW 3236   2.703   1.345   2.387 -0.0804 -0.4116  0.2516
  810SOL     OW 3237   2.240   1.335   2.301  0.2872 -0.3259 -0.1504
  810SOL    HW1 3238   2.295   1.260   2.314 -0.6718  1.1707 -0.1416
  810SOL    HW2 3239   2.159   1.324   2.351  1.2365 -1.6208  0.5790
  810SOL     MW 3240   2.236   1.323   2.309  0.2859 -0.2993 -0.0530
  811SOL     OW 3241   1.579   0.154   2.308 -0.6807 -0.1797  0.1400
  811SOL    HW1 3242   1.674   0.132   2.317  0.4833  1.0600  2.9659
  811SOL    HW2 3243   1.563   0.148   2.218  1.0837 -0.8675  0.8180
  811SOL     MW 3244   1.590   0.150   2.298 -0.2943 -0.1068  0.6023
  812SOL     OW 3245   1.471   2.831   2.037  0.4512 -0.3633 -0.1525
  812SOL    HW1 3246   1.568   2.835   2.035  0.5597 -2.7329 -0.4334
  812SOL    HW2 3247   1.452   2.808   2.130  0.3962 -2.0193  0.2736
  812SOL     MW 3248   1.481   2.828   2.049  0.4583 -0.8944 -0.1333
  813SOL     OW 3249   2.020   0.610   2.248 -0.4087 -0.2985 -0.3600
  813SOL    HW1 3250   1.932   0.590   2.231 -1.9146  0.6758  0.2944
  813SOL    HW2 3251   2.023   0.690   2.306 -1.7215  1.9500  1.1951
  813SOL     MW 3252   2.009   0.618   2.253 -0.7806  0.1267 -0.0685
  814SOL     OW 3253   2.700   1.213   1.657  0.1634 -0.5407  0.3520
  814SOL    HW1 3254   2.643   1.172   1.727 -0.6756  0.7048 -1.9291
  814SOL    HW2 3255   2.678   1.167   1.578  0.6643  3.6283 -1.8282
  814SOL     MW 3256   2.690   1.201   1.656  0.1188  0.1737 -0.2366
  815SOL     OW 3257   2.543   1.759   2.408  0.3537  0.3703 -0.3032
  815SOL    HW1 3258   2.480   1.687   2.386 -1.6473 -2.5628 -0.5466
  815SOL    HW2 3259   2.626   1.714   2.413  0.5870 -0.7154 -1.1255
  815SOL     MW 3260   2.546   1.743   2.406  0.1205 -0.1600 -0.4438
  816SOL     OW 3261   0.748   0.705   2.775 -0.0699 -0.5102 -0.3660
  816SOL    HW1 3262   0.786   0.622   2.788 -1.8328  3.7856 -2.1222
  816SOL    HW2 3263   0.655   0.698   2.732  1.9148  2.0571 -0.1145
  816SOL     MW 3264   0.741   0.693   2.771 -0.0407  0.3953 -0.5645
  817SOL     OW 3265   2.988   1.238   1.460  0.4446 -0.0969  0.4926
  817SOL    HW1 3266   3.076   1.229   1.494 -0.1786  2.5809 -2.5960
  817SOL    HW2 3267   2.978   1.332   1.420 -1.5278 -0.4263 -3.1755
  817SOL     MW 3268   2.999   1.249   1.459  0.1022  0.2129 -0.3989
  818SOL     OW 3269   1.914   1.046   2.634  1.1117 -0.5114  0.0452
  818SOL    HW1 3270   1.895   0.975   2.564 -1.3529 -1.0595 -3.8565
  818SOL    HW2 3271   1.992   1.009   2.679 -1.3481  0.7220  1.1491
  818SOL     MW 3272   1.922   1.032   2.630  0.4620 -0.4210 -0.3239
  819SOL     OW 3273   1.971   0.321   2.492  0.1582 -0.2139  0.1957
  819SOL    HW1 3274   1.885   0.372   2.497 -0.6465 -1.6895 -0.4697
  819SOL    HW2 3275   2.017   0.313   2.578  2.6039 -2.0366 -0.9508
  819SOL     MW 3276   1.966   0.327   2.504  0.3748 -0.6491 -0.0434
  820SOL     OW 3277   2.452   1.670   2.637 -0.0095  0.2595  0.3026
  820SOL    HW1 3278   2.518   1.617   2.685 -0.4127  0.9190  1.7354
  820SOL    HW2 3279   2.495   1.709   2.557 -1.7686  0.9409  0.0028
  820SOL     MW 3280   2.466   1.668   2.633 -0.2948  0.4364  0.4521
  821SOL     OW 3281   2.568   1.366   1.986 -0.1138 -0.3359 -0.3032
  821SOL    HW1 3282   2.575   1.423   1.910 -3.4581 -0.7143  3.2747
  821SOL    HW2 3283   2.477   1.370   2.013 -0.7656  0.1718  0.5382
  821SOL     MW 3284   2.557   1.374   1.980 -0.6411 -0.3188  0.2799
  822SOL     OW 3285   2.890   2.732   1.465 -0.5344 -0.6973 -0.2152
  822SOL    HW1 3286   2.883   2.694   1.550 -0.8663 -2.1209  1.2054
  822SOL    HW2 3287   2.932   2.816   1.484  1.5796  1.2775  0.5380
  822SOL     MW 3288   2.894   2.738   1.479 -0.2993 -0.6246  0.0716
  823SOL     OW 3289   2.372   0.527   1.842 -0.3334  0.3262 -0.4880
  823SOL    HW1 3290   2.461   0.497   1.813  3.1571 -0.3182 -1.3369
  823SOL    HW2 3291   2.359   0.462   1.908  3.1686 -1.7416  0.0056
  823SOL     MW 3292   2.382   0.514   1.847  0.5892 -0.0317 -0.5349
  824SOL     OW 3293   2.270   1.461   2.664 -0.2922 -0.3666 -0.2693
  824SOL    HW1 3294   2.341   1.517   2.632 -1.0166 -0.0045  0.1755
  824SOL    HW2 3295   2.206   1.525   2.697  0.4884 -2.7218  0.1700
  824SOL     MW 3296   2.271   1.477   2.664 -0.2848 -0.6296 -0.1527
  825SOL     OW 3297   1.894   2.553   0.258  0.4385 -0.2903 -0.3622
  825SOL    HW1 3298   1.856   2.485   0.323  0.1030 -0.1833  4.3338
  825SOL    HW2 3299   1.978   2.521   0.226 -0.1772  2.0929  0.9515
  825SOL     MW 3300   1.900   2.540   0.262  0.3130  0.0382  0.4307
  826SOL     OW 3301   1.791   2.384   0.441 -0.2592  0.0451  0.7217
  826SOL    HW1 3302   1.751   2.300   0.478  0.8400 -3.7843 -1.8117
  826SOL    HW2 3303   1.772   2.446   0.511 -0.4360  1.0878  1.5298
  826SOL     MW 3304   1.783   2.381   0.455 -0.1375 -0.3226  0.4940
  827SOL     OW 3305   1.887   2.192   0.797 -0.0282 -0.4112 -0.0046
  827SOL    HW1 3306   1.818   2.222   0.735 -2.2843 -2.3926  1.2229
  827SOL    HW2 3307   1.844   2.133   0.853 -1.8577  0.3405 -0.3785
  827SOL     MW 3308   1.872   2.188   0.796 -0.5673 -0.5734  0.1080
  828SOL     OW 3309   0.043   2.609   0.573 -0.5492 -0.1516 -0.0987
  828SOL    HW1 3310   0.140   2.621   0.569 -1.4854 -0.2673  2.1304
  828SOL    HW2 3311   0.013   2.669   0.506  0.8024  0.5346  1.3324
  828SOL     MW 3312   0.052   2.618   0.564 -0.4944 -0.0763  0.3842
  829SOL     OW 3313   2.996   2.927   1.199  0.1072  0.0428  0.1639
  829SOL    HW1 3314   2.918   2.935   1.145  1.9919 -1.5559  0.5973
  829SOL    HW2 3315   3.044   2.848   1.164 -0.7212  0.3298 -1.0550
  829SOL     MW 3316   2.992   2.918   1.187  0.2466 -0.1303  0.0603
  830SOL     OW 3317   2.582   2.811   2.029  0.0945  0.1895 -0.1279
  830SOL    HW1 3318   2.484   2.823   2.006  1.9639 -2.1768  0.6418
  830SOL    HW2 3319   2.622   2.787   1.944  0.4247  2.8016  0.7057
  830SOL     MW 3320   2.574   2.810   2.015  0.3847  0.2219  0.0837
  831SOL     OW 3321   2.346   2.447   1.170 -0.3493  0.3796 -0.3399
  831SOL    HW1 3322   2.303   2.394   1.244 -0.5869  1.6779  0.6381
  831SOL    HW2 3323   2.440   2.421   1.168 -0.6856  0.8746  1.3398
  831SOL     MW 3324   2.353   2.437   1.179 -0.4250  0.6162  0.0108
  832SOL     OW 3325   2.359   2.188   1.863 -0.0589  0.0522  0.0869
  832SOL    HW1 3326   2.395   2.263   1.909  0.2671  0.2181  0.3915
  832SOL    HW2 3327   2.433   2.135   1.825 -0.2844 -3.0252  0.7125
  832SOL     MW 3328   2.374   2.191   1.864 -0.0456 -0.3319  0.2097
  833SOL     OW 3329   1.729   2.466   0.865 -0.0103 -0.0239  0.1030
  833SOL    HW1 3330   1.685   2.392   0.904  1.1770 -1.0660 -1.2351
  833SOL    HW2 3331   1.717   2.541   0.919  3.1258 -3.8575 -2.4128
  833SOL     MW 3332   1.722   2.466   0.878  0.5601 -0.6672 -0.4055
  834SOL     OW 3333   2.064   2.434   0.590 -0.3884  0.3527  0.0458
  834SOL    HW1 3334   1.974   2.416   0.567  1.6644 -0.1469  0.0700
  834SOL    HW2 3335   2.105   2.428   0.504 -0.6150  0.6211 -1.0249
  834SOL     MW 3336   2.058   2.431   0.575 -0.1474  0.3222 -0.0923
  835SOL     OW 3337   1.762   2.570   0.630 -0.0504  0.2048 -0.9223
  835SOL    HW1 3338   1.727   2.519   0.712  2.1949 -1.8792  3.3463
  835SOL    HW2 3339   1.815   2.634   0.682 -0.5586  4.8996  0.5080
  835SOL     MW 3340   1.765   2.571   0.648  0.1788  0.5492 -0.1704
  836SOL     OW 3341   1.901   2.169   1.576  0.0597  0.3235  0.2284
  836SOL    HW1 3342   1.985   2.205   1.598  2.0826 -0.6443 -0.4449
  836SOL    HW2 3343   1.836   2.231   1.619 -0.1019 -0.3578  2.3631
  836SOL     MW 3344   1.903   2.182   1.585  0.3052  0.1059  0.4212
  837SOL     OW 3345   2.128   0.238   0.681  0.1447 -0.0324 -0.0163
  837SOL    HW1 3346   2.046   0.273   0.635  2.5362 -0.5872 -2.3379
  837SOL    HW2 3347   2.160   0.164   0.631 -1.0103  0.9552 -1.7241
  837SOL     MW 3348   2.121   0.233   0.668  0.3079  0.0247 -0.5480
  838SOL     OW 3349   2.921   2.035   0.937 -0.0082 -0.0188 -0.0490
  838SOL    HW1 3350   2.847   1.977   0.965 -0.1738  0.8575  4.2480
  838SOL    HW2 3351   2.983   1.973   0.906  0.1967  0.4667 -1.0029
  838SOL     MW 3352   2.919   2.019   0.936 -0.0030  0.1609  0.3921
  839SOL     OW 3353   1.524   2.328   1.054 -0.3753 -0.4042  0.1536
  839SOL    HW1 3354   1.525   2.403   1.116  0.5590 -2.1020 -0.2634
  839SOL    HW2 3355   1.543   2.247   1.106 -0.7154  0.6998 -2.5090
  839SOL     MW 3356   1.527   2.327   1.069 -0.2969 -0.4825 -0.2527
  840SOL     OW 3357   2.363   2.161   2.470 -0.2797 -0.2667  0.2935
  840SOL    HW1 3358   2.320   2.230   2.424  1.4705  0.6172  1.7359
  840SOL    HW2 3359   2.355   2.207   2.553 -0.7489 -2.4006 -2.0641
  840SOL     MW 3360   2.356   2.176   2.475 -0.1107 -0.4316  0.1727
  841SOL     OW 3361   2.092   2.457   0.125  0.7895  0.4350  0.2202
  841SOL    HW1 3362   2.116   2.528   0.063  1.9206  0.9656 -0.4773
  841SOL    HW2 3363   2.081   2.377   0.070  0.7186 -4.3743  1.4239
  841SOL     MW 3364   2.094   2.456   0.109  0.9294 -0.1296  0.2870
  842SOL     OW 3365   2.669   2.087   1.529 -0.5144  0.3718  0.1860
  842SOL    HW1 3366   2.623   2.024   1.583 -0.8522 -1.9263 -2.2807
  842SOL    HW2 3367   2.626   2.077   1.441 -0.8411  0.0010  0.9996
  842SOL     MW 3368   2.657   2.078   1.525 -0.6021  0.0196 -0.0321
  843SOL     OW 3369   2.674   2.775   1.769  0.8241  0.8688 -0.3732
  843SOL    HW1 3370   2.744   2.703   1.781 -0.7323 -3.0875  1.0350
  843SOL    HW2 3371   2.586   2.727   1.747  0.1156  2.3219 -0.0137
  843SOL     MW 3372   2.671   2.759   1.768  0.5253  0.5385 -0.1400
  844SOL     OW 3373   2.612   2.380   1.161 -0.2207 -0.5110  0.3128
  844SOL    HW1 3374   2.656   2.374   1.071  2.0958  2.4686  0.6210
  844SOL    HW2 3375   2.683   2.398   1.228  0.6113 -0.4517 -0.8963
  844SOL     MW 3376   2.627   2.381   1.158  0.1947 -0.1100  0.1939
  845SOL     OW 3377   2.824   2.490   0.302  0.0056  0.1809  0.4203
  845SOL    HW1 3378   2.772   2.406   0.298 -0.3250 -3.1893  0.9979
  845SOL    HW2 3379   2.835   2.514   0.393 -0.7530  0.3170 -2.6325
  845SOL     MW 3380   2.818   2.482   0.313 -0.1381 -0.2458  0.0937
  846SOL     OW 3381   1.574   2.842   0.802 -0.5959  0.0225  0.3916
  846SOL    HW1 3382   1.653   2.881   0.841 -1.1205  0.6168  1.0822
  846SOL    HW2 3383   1.503   2.890   0.839 -2.2557 -0.9201 -1.0519
  846SOL     MW 3384   1.575   2.854   0.812 -0.8841 -0.0235  0.2923
  847SOL     OW 3385   2.604   1.904   0.190  0.4064 -0.1912 -0.0733
  847SOL    HW1 3386   2.692   1.875   0.189 -2.1648 -0.8476 -1.6074
  847SOL    HW2 3387   2.557   1.869   0.119 -0.7148 -3.0003  1.6164
  847SOL     MW 3388   2.609   1.896   0.180 -0.0808 -0.6484 -0.0528
  848SOL     OW 3389   2.508   2.127   1.292 -0.2316  0.1826  0.3650
  848SOL    HW1 3390   2.524   2.190   1.219 -1.7953  0.3339 -3.3393
  848SOL    HW2 3391   2.474   2.046   1.248 -1.0419  1.9725 -1.1721
  848SOL     MW 3392   2.506   2.124   1.276 -0.5448  0.4387 -0.3265
  849SOL     OW 3393   1.990   2.735   0.804  0.2244  0.1846  0.1365
  849SOL    HW1 3394   2.014   2.653   0.848 -1.4131 -0.3152 -0.7858
  849SOL    HW2 3395   2.058   2.743   0.742 -1.2302  3.2635 -0.9591
  849SOL     MW 3396   2.002   2.725   0.802 -0.1836  0.5249 -0.1297
  850SOL     OW 3397   2.192   1.966   1.682  0.1359  0.0807  0.2461
  850SOL    HW1 3398   2.127   1.928   1.622 -0.5982 -0.6543 -1.4731
  850SOL    HW2 3399   2.159   2.056   1.700 -0.9757  2.7805  0.2752
  850SOL     MW 3400   2.179   1.973   1.677 -0.1076  0.3400  0.0231
  851SOL     OW 3401   2.215   2.357   0.360 -0.1150  0.1822 -0.2534
  851SOL    HW1 3402   2.187   2.403   0.285 -0.7371  2.1894 -1.0304
  851SOL    HW2 3403   2.294   2.405   0.383  1.3176 -1.4384  4.6413
  851SOL     MW 3404   2.222   2.369   0.353 -0.0081  0.2332  0.2899
  852SOL     OW 3405   2.280   2.138   0.180 -0.2710  0.2942 -0.6512
  852SOL    HW1 3406   2.281   2.196   0.257 -0.2082 -0.3682 -0.7156
  852SOL    HW2 3407   2.370   2.149   0.144 -0.7189  1.9150 -2.9274
  852SOL     MW 3408   2.292   2.147   0.185 -0.3218  0.4206 -0.9600
  853SOL     OW 3409   2.444   2.448   1.969  0.4680  0.1053  0.2629
  853SOL    HW1 3410   2.463   2.508   1.898  0.2494 -0.6389  2.0132
  853SOL    HW2 3411   2.524   2.427   2.023 -1.0840 -0.9728 -1.3707
  853SOL     MW 3412   2.457   2.453   1.967  0.2344 -0.1351  0.2783
  854SOL     OW 3413   2.883   2.225   0.740  0.2322  0.3727 -0.0603
  854SOL    HW1 3414   2.816   2.172   0.695  0.7336 -0.0048  0.6991
  854SOL    HW2 3415   2.890   2.172   0.822  0.3606 -0.0670  0.6259
  854SOL     MW 3416   2.875   2.211   0.745  0.3153  0.2649  0.1304
  855SOL     OW 3417   2.693   2.276   0.304 -0.0559 -0.2394  0.2370
  855SOL    HW1 3418   2.668   2.304   0.388  1.1891 -2.7459  0.0414
  855SOL    HW2 3419   2.782   2.235   0.308  0.4059 -1.1512 -0.7067
  855SOL     MW 3420   2.701   2.274   0.315  0.1693 -0.6904  0.0866
  856SOL     OW 3421   2.164   1.876   0.192 -0.2731  0.0947  0.4327
  856SOL    HW1 3422   2.066   1.876   0.197 -0.9214 -0.2981 -1.3298
  856SOL    HW2 3423   2.192   1.967   0.210 -0.6944  2.7264  0.4144
  856SOL     MW 3424   2.155   1.888   0.195 -0.4143  0.3901  0.1977
  857SOL     OW 3425   2.548   1.908   0.462 -0.4156 -0.0023  0.1161
  857SOL    HW1 3426   2.551   1.925   0.369  4.1153 -1.7739  2.6148
  857SOL    HW2 3427   2.462   1.875   0.484 -2.5259 -2.1311  1.0005
  857SOL     MW 3428   2.537   1.906   0.452 -0.0962 -0.5169  0.5625
  858SOL     OW 3429   2.919   2.623   1.739  0.0489 -0.1333 -0.4099
  858SOL    HW1 3430   3.005   2.645   1.777 -0.5602  0.0990  1.3189
  858SOL    HW2 3431   2.887   2.545   1.782 -1.3564  3.3705 -1.3392
  858SOL     MW 3432   2.926   2.615   1.750 -0.2169  0.3597 -0.3045
  859SOL     OW 3433   2.077   2.466   0.871 -0.0793  0.2469 -0.5765
  859SOL    HW1 3434   2.058   2.419   0.792 -0.0292  0.6075 -2.7117
  859SOL    HW2 3435   2.151   2.421   0.910  0.7506 -1.1970  0.3144
  859SOL     MW 3436   2.084   2.454   0.865  0.0368  0.1040 -0.7406
  860SOL     OW 3437   2.648   2.632   0.148  0.5166  0.1434 -0.5979
  860SOL    HW1 3438   2.717   2.598   0.210 -0.2785  0.1377 -1.7446
  860SOL    HW2 3439   2.682   2.702   0.098  0.5706 -2.8390 -1.7234
  860SOL     MW 3440   2.662   2.637   0.150  0.4188 -0.2509 -0.8977
  861SOL     OW 3441   1.584   2.093   1.178  0.2871 -0.1682  0.4915
  861SOL    HW1 3442   1.659   2.100   1.236  0.4500 -2.1679 -0.1945
  861SOL    HW2 3443   1.513   2.039   1.227 -0.4738  1.3651  2.1195
  861SOL     MW 3444   1.584   2.087   1.192  0.2082 -0.2297  0.6158
  862SOL     OW 3445   2.384   1.845   1.534  0.0931 -0.0573  0.0973
  862SOL    HW1 3446   2.320   1.878   1.593  2.2528  2.4282 -1.2542
  862SOL    HW2 3447   2.351   1.826   1.443  2.2200 -0.5529 -0.5471
  862SOL     MW 3448   2.371   1.847   1.530  0.6587  0.2052 -0.1660
  863SOL     OW 3449   3.055   1.796   1.182 -0.1276 -0.1016  0.7717
  863SOL    HW1 3450   3.148   1.808   1.174 -0.5160  1.6253 -1.0034
  863SOL    HW2 3451   3.014   1.878   1.196  1.7833 -1.3617 -1.1164
  863SOL     MW 3452   3.062   1.809   1.182  0.0733 -0.0400  0.2884
  864SOL     OW 3453   0.020   1.826   0.864 -0.0991 -0.1807 -0.6942
  864SOL    HW1 3454  -0.050   1.772   0.905 -1.9697  1.9602  0.0881
  864SOL    HW2 3455   0.005   1.812   0.763  0.9416 -1.0436 -1.1148
  864SOL     MW 3456   0.009   1.817   0.856 -0.2086 -0.0121 -0.6465
  865SOL     OW 3457   2.533   2.176   0.052  0.2335  0.1669  0.2582
  865SOL    HW1 3458   2.600   2.108   0.088  0.3645  0.9537 -0.3585
  865SOL    HW2 3459   2.504   2.148  -0.035  2.0262 -1.8391  0.3490
  865SOL     MW 3460   2.538   2.163   0.045  0.4873  0.0060  0.1888
  866SOL     OW 3461   2.677   2.368   1.593 -0.6063 -0.6400  0.3476
  866SOL    HW1 3462   2.679   2.273   1.590 -2.0110 -0.3247 -0.2390
  866SOL    HW2 3463   2.728   2.405   1.521 -1.3445  2.1627  3.2685
  866SOL     MW 3464   2.684   2.360   1.583 -0.8890 -0.2286  0.6556
  867SOL     OW 3465   0.060   2.739   1.836 -0.6754  0.3013 -0.2505
  867SOL    HW1 3466   0.089   2.755   1.928 -1.4450  0.2523 -0.2110
  867SOL    HW2 3467   0.041   2.822   1.800  1.7613 -2.2898 -1.3046
  867SOL     MW 3468   0.061   2.752   1.843 -0.4555 -0.0470 -0.3844
  868SOL     OW 3469   2.792   2.563   0.555  0.2911  0.2200 -0.0342
  868SOL    HW1 3470   2.708   2.512   0.536 -1.5726  1.2327  2.3376
  868SOL    HW2 3471   2.780   2.645   0.506 -0.2477  0.2077 -0.7831
  868SOL     MW 3472   2.779   2.567   0.546 -0.0259  0.3520  0.1799
  869SOL     OW 3473   1.940   2.334   1.057  0.6169  0.1392 -0.2337
  869SOL    HW1 3474   1.976   2.415   1.012 -3.3623  2.9485  0.9942
  869SOL    HW2 3475   1.914   2.274   0.977 -0.6112 -0.2547  0.6859
  869SOL     MW 3476   1.941   2.337   1.041 -0.0701  0.4579  0.0496
  870SOL     OW 3477   2.236   0.023   0.516 -0.1638 -0.0434  0.1626
  870SOL    HW1 3478   2.280   0.074   0.450 -2.3414  0.0787  0.2928
  870SOL    HW2 3479   2.293  -0.054   0.512 -1.3270 -1.8608  0.2060
  870SOL     MW 3480   2.249   0.020   0.507 -0.6046 -0.2671  0.1855
  871SOL     OW 3481   2.475   1.999   0.897  0.1299 -0.6718  0.3982
  871SOL    HW1 3482   2.438   1.957   0.821 -1.2574 -1.2753  2.4932
  871SOL    HW2 3483   2.411   2.064   0.921 -1.3155 -2.3919  1.4291
  871SOL     MW 3484   2.462   2.002   0.890 -0.2438 -0.9784  0.8106
  872SOL     OW 3485   2.004   2.513   1.372 -0.2315 -0.4708 -0.0471
  872SOL    HW1 3486   1.997   2.566   1.454 -0.3193 -2.5705 -1.7865
  872SOL    HW2 3487   1.928   2.459   1.357 -1.2316  0.1702  0.4394
  872SOL     MW 3488   1.993   2.513   1.380 -0.3751 -0.6633 -0.2124
  873SOL     OW 3489   2.830   2.081   1.935  0.1026 -0.5782  0.1329
  873SOL    HW1 3490   2.848   2.135   2.008  0.5871 -1.7087 -1.9516
  873SOL    HW2 3491   2.898   2.101   1.869 -1.0308  1.5435 -1.0166
  873SOL     MW 3492   2.842   2.091   1.936  0.0170 -0.4474 -0.2938
  874SOL     OW 3493   2.433   1.530   2.378  0.0511  0.2074  0.3410
  874SOL    HW1 3494   2.355   1.474   2.364 -1.2607 -2.7510  0.2000
  874SOL    HW2 3495   2.502   1.465   2.382 -1.2179 -2.8064  0.2745
  874SOL     MW 3496   2.432   1.514   2.377 -0.2894 -0.5806  0.3136
  875SOL     OW 3497   2.322   2.286   0.932  0.2737 -0.3772  0.7335
  875SOL    HW1 3498   2.377   2.320   0.858 -2.4494  2.3153 -1.1845
  875SOL    HW2 3499   2.329   2.346   1.004 -2.6525  0.8152  0.3105
  875SOL     MW 3500   2.330   2.298   0.932 -0.4717  0.1354  0.4246
  876SOL     OW 3501   3.028   2.328   1.320  0.0246 -0.2332 -0.6224
  876SOL    HW1 3502   3.077   2.343   1.237  1.2023  0.4148  1.6387
  876SOL    HW2 3503   3.091   2.384   1.366  1.1553 -0.8286 -0.6591
  876SOL     MW 3504   3.043   2.337   1.315  0.3292 -0.2263 -0.3289
  877SOL     OW 3505   3.008   2.739   0.332 -0.1465 -0.2329  0.1787
  877SOL    HW1 3506   3.046   2.822   0.308  2.7829 -2.1436  1.3052
  877SOL    HW2 3507   3.034   2.676   0.266  0.1242 -0.2273  2.0894
  877SOL     MW 3508   3.016   2.742   0.320  0.2757 -0.4843  0.5795
  878SOL     OW 3509   2.302   1.825   1.279 -0.2325  0.2133 -0.6917
  878SOL    HW1 3510   2.244   1.746   1.294  1.5246  0.0310 -2.2270
  878SOL    HW2 3511   2.389   1.793   1.255 -0.9611  1.6363  1.3367
  878SOL     MW 3512   2.306   1.811   1.278 -0.0968  0.3770 -0.6266
  879SOL     OW 3513   2.754   2.433   0.892 -0.0006 -0.1129  0.0957
  879SOL    HW1 3514   2.817   2.505   0.923 -2.0381  0.9324 -0.7641
  879SOL    HW2 3515   2.791   2.378   0.828  0.0538 -0.9877  1.0043
  879SOL     MW 3516   2.767   2.435   0.888 -0.2623 -0.0904  0.1021
  880SOL     OW 3517   2.622   2.092   0.672 -0.0269  1.4465  0.1668
  880SOL    HW1 3518   2.564   2.059   0.746 -1.0370  0.7466  1.0965
  880SOL    HW2 3519   2.588   2.046   0.596 -2.0220  0.6755 -0.6979
  880SOL     MW 3520   2.610   2.081   0.671 -0.4234  1.2524  0.1754
  881SOL     OW 3521   2.932   2.690   0.753  0.4598  0.1586 -0.0312
  881SOL    HW1 3522   2.857   2.639   0.720 -1.1628 -0.7137 -0.8744
  881SOL    HW2 3523   3.008   2.673   0.696  2.1321 -0.1265 -1.0268
  881SOL     MW 3524   2.932   2.681   0.741  0.4663  0.0059 -0.2738
  882SOL     OW 3525   2.318   2.810   1.911 -0.3062  0.9157  0.9511
  882SOL    HW1 3526   2.301   2.821   1.819 -1.2529  1.8812  1.5335
  882SOL    HW2 3527   2.246   2.751   1.936  2.0770 -0.1458  1.6596
  882SOL     MW 3528   2.307   2.803   1.902 -0.1167  0.9030  1.1214
  883SOL     OW 3529   2.268   2.272   1.374  0.0484  0.2704  0.4363
  883SOL    HW1 3530   2.348   2.214   1.376  2.1162 -1.0668  1.0492
  883SOL    HW2 3531   2.200   2.218   1.325 -0.4439 -1.0031 -1.0874
  883SOL     MW 3532   2.270   2.257   1.368  0.2563 -0.0740  0.3161
  884SOL     OW 3533   1.876   1.882   1.131 -0.4727 -0.1162  0.0224
  884SOL    HW1 3534   1.823   1.947   1.083  1.1971  3.9875  1.8498
  884SOL    HW2 3535   1.967   1.893   1.112 -1.0033 -0.8840 -0.3520
  884SOL     MW 3536   1.881   1.892   1.122 -0.3224  0.3239  0.2141
  885SOL     OW 3537   2.791   2.418   1.846  0.2066 -0.1161 -0.0152
  885SOL    HW1 3538   2.877   2.370   1.871  1.9696 -0.2696  5.1239
  885SOL    HW2 3539   2.772   2.380   1.760  1.7880 -0.0860 -2.5507
  885SOL     MW 3540   2.800   2.407   1.838  0.6479 -0.1324  0.3283
  886SOL     OW 3541   2.802   2.455   1.355 -0.2393 -0.2704 -0.6219
  886SOL    HW1 3542   2.887   2.411   1.339 -0.1650  1.0982 -2.8330
  886SOL    HW2 3543   2.815   2.549   1.374 -1.3560 -1.5780 -0.8561
  886SOL     MW 3544   2.815   2.461   1.355 -0.3768 -0.2624 -0.9445
  887SOL     OW 3545   2.300   2.607   1.495  0.0115  0.1677  0.0217
  887SOL    HW1 3546   2.323   2.667   1.422  0.8881 -1.8869 -0.6193
  887SOL    HW2 3547   2.252   2.538   1.448 -1.4651  0.8740 -0.4988
  887SOL     MW 3548   2.297   2.606   1.479 -0.0677 -0.0102 -0.1316
  888SOL     OW 3549   1.808   2.083   1.339  0.3409  0.3175  0.1849
  888SOL    HW1 3550   1.891   2.082   1.289 -0.1124 -0.8688 -3.1216
  888SOL    HW2 3551   1.827   2.121   1.428  1.0727  0.7497  1.5184
  888SOL     MW 3552   1.821   2.088   1.344  0.3776  0.2180 -0.0754
  889SOL     OW 3553   2.359   2.016   2.106  0.2310 -0.2809 -0.0736
  889SOL    HW1 3554   2.447   2.002   2.146  0.6239  0.7602 -1.7911
  889SOL    HW2 3555   2.366   2.078   2.034  1.1971  1.6776 -0.8273
  889SOL     MW 3556   2.372   2.022   2.102  0.4103  0.1148 -0.3997
  890SOL     OW 3557   0.110   2.283   0.100 -0.6564 -0.1399  0.3367
  890SOL    HW1 3558   0.065   2.361   0.126 -1.0277 -0.8612  0.9518
  890SOL    HW2 3559   0.113   2.238   0.187 -1.3935  1.9143  0.7429
  890SOL     MW 3560   0.104   2.287   0.115 -0.8026  0.0359  0.4715
  891SOL     OW 3561   3.044   2.054   1.298 -0.2027  0.0412 -0.9122
  891SOL    HW1 3562   3.134   2.053   1.288  0.3626  0.1096  1.1507
  891SOL    HW2 3563   3.022   2.145   1.304  1.0238  0.8768  2.1568
  891SOL     MW 3564   3.053   2.066   1.297  0.0337  0.1605 -0.2351
  892SOL     OW 3565   2.369   2.415   2.980 -0.5800  0.2888 -0.2639
  892SOL    HW1 3566   2.348   2.327   3.001  3.3327  1.4585  1.0658
  892SOL    HW2 3567   2.463   2.407   2.949  0.6668 -0.4712 -1.9777
  892SOL     MW 3568   2.379   2.402   2.979  0.1007  0.3429 -0.3146
  893SOL     OW 3569   1.581   2.516   1.223  0.9091 -0.0582 -0.1646
  893SOL    HW1 3570   1.501   2.496   1.285 -1.9172 -0.8144 -0.1063
  893SOL    HW2 3571   1.651   2.452   1.256 -2.4790 -0.9591 -0.3507
  893SOL     MW 3572   1.580   2.505   1.236  0.0892 -0.2768 -0.1815
  894SOL     OW 3573   2.831   1.914   0.497  0.1175  0.0721 -0.4897
  894SOL    HW1 3574   2.734   1.932   0.515  0.9280  0.9626 -2.2035
  894SOL    HW2 3575   2.820   1.842   0.427  1.2649  0.7121  0.2823
  894SOL     MW 3576   2.817   1.907   0.490  0.3759  0.2740 -0.6140
  895SOL     OW 3577   2.081   2.158   1.190  0.3890  0.0300  0.8910
  895SOL    HW1 3578   2.037   2.223   1.135 -0.1823  0.8232  0.8272
  895SOL    HW2 3579   2.124   2.104   1.121  0.4416 -1.1131  0.8563
  895SOL     MW 3580   2.081   2.159   1.174  0.3206 -0.0162  0.8780
  896SOL     OW 3581   2.195   2.826   1.085 -0.0495 -0.1331  0.4723
  896SOL    HW1 3582   2.265   2.804   1.150 -2.2860 -0.2282  0.9020
  896SOL    HW2 3583   2.128   2.761   1.093 -1.9600 -1.5549  0.8879
  896SOL     MW 3584   2.196   2.815   1.095 -0.5966 -0.3333  0.5838
  897SOL     OW 3585   2.977   2.975   0.190 -0.2224 -0.2085  0.4589
  897SOL    HW1 3586   3.065   2.972   0.151  0.4873 -2.3899 -0.0010
  897SOL    HW2 3587   2.922   2.914   0.147  2.1964  1.7396  1.7014
  897SOL     MW 3588   2.981   2.967   0.179  0.1904 -0.2393  0.5622
  898SOL     OW 3589   2.083   0.198   1.455  0.6259  0.3627  0.7532
  898SOL    HW1 3590   2.011   0.151   1.407  0.3996  0.2031  2.1871
  898SOL    HW2 3591   2.146   0.231   1.392 -1.6538 -0.0507 -1.7791
  898SOL     MW 3592   2.082   0.196   1.440  0.2953  0.2871  0.6083
  899SOL     OW 3593   2.893   2.956   0.695 -0.6348 -0.5693  0.5617
  899SOL    HW1 3594   2.880   2.875   0.744 -0.7055 -1.4879 -1.5720
  899SOL    HW2 3595   2.808   3.005   0.682 -1.0624  0.0336 -0.5721
  899SOL     MW 3596   2.880   2.952   0.700 -0.7005 -0.6109  0.1306
  900SOL     OW 3597   0.128   2.361   1.110 -0.1597 -0.4287 -0.1988
  900SOL    HW1 3598   0.154   2.451   1.082  1.1053  0.0093  2.4299
  900SOL    HW2 3599   0.129   2.314   1.026  2.6884 -0.3977 -0.1733
  900SOL     MW 3600   0.132   2.367   1.095  0.3830 -0.3669  0.1514
  901SOL     OW 3601   1.754   2.848   1.717  0.5739  0.8762 -0.2803
  901SOL    HW1 3602   1.821   2.795   1.670  1.4519  1.9623  0.7921
  901SOL    HW2 3603   1.684   2.830   1.661 -0.1532  0.4863 -0.8185
  901SOL     MW 3604   1.753   2.839   1.704  0.5938  0.9680 -0.2098
  902SOL     OW 3605   2.575   2.005   1.839  0.2326  0.4237  0.1888
  902SOL    HW1 3606   2.570   1.920   1.879  2.0473  0.1635  2.6095
  902SOL    HW2 3607   2.664   2.017   1.872 -2.0632  0.2409  1.1298
  902SOL     MW 3608   2.586   1.995   1.849  0.1691  0.3652  0.6323
  903SOL     OW 3609   1.616   2.793   0.543 -0.5899 -0.2807  0.1754
  903SOL    HW1 3610   1.646   2.705   0.567 -0.3363  1.6560  1.3522
  903SOL    HW2 3611   1.586   2.843   0.626  0.1358 -1.4465  1.3025
  903SOL     MW 3612   1.616   2.788   0.557 -0.4607 -0.1790  0.4794
  904SOL     OW 3613   2.492   2.574   1.697 -0.2670 -0.0040  0.5529
  904SOL    HW1 3614   2.429   2.598   1.632  0.0187  0.9517  1.4585
  904SOL    HW2 3615   2.549   2.503   1.659 -2.2494 -0.2427  0.6891
  904SOL     MW 3616   2.492   2.568   1.683 -0.4908  0.0906  0.6904
  905SOL     OW 3617   2.335   2.579   2.189 -0.4243 -0.4258 -0.0161
  905SOL    HW1 3618   2.368   2.539   2.110 -0.5701  1.2871  0.3411
  905SOL    HW2 3619   2.298   2.506   2.252 -1.6697  1.1552  1.8427
  905SOL     MW 3620   2.335   2.564   2.187 -0.6078  0.0088  0.2763
  906SOL     OW 3621   2.505   2.462   0.781 -0.4424 -0.1826 -1.0899
  906SOL    HW1 3622   2.594   2.477   0.821  0.1909  1.2911 -1.2374
  906SOL    HW2 3623   2.461   2.546   0.800 -0.9438  1.3586 -0.7741
  906SOL     MW 3624   2.511   2.475   0.789 -0.4250  0.2152 -1.0677
  907SOL     OW 3625   2.627   2.902   1.248  0.3230  0.7532 -0.1027
  907SOL    HW1 3626   2.693   2.900   1.317 -0.0120 -1.6977 -0.7891
  907SOL    HW2 3627   2.674   2.920   1.167  2.9723  0.2122 -0.4277
  907SOL     MW 3628   2.642   2.904   1.247  0.6284  0.3585 -0.2362
  908SOL     OW 3629   2.709   2.395   0.014  0.1648 -0.2828 -0.2138
  908SOL    HW1 3630   2.671   2.322   0.072  0.0420 -3.7713  2.4070
  908SOL    HW2 3631   2.707   2.471   0.070  1.2715  2.2699  1.3182
  908SOL     MW 3632   2.703   2.395   0.029  0.2946 -0.4062  0.3341
  909SOL     OW 3633   1.612   0.202   1.031 -0.3828 -0.7140  0.4363
  909SOL    HW1 3634   1.634   0.282   0.982  1.7026 -2.0704 -0.0021
  909SOL    HW2 3635   1.570   0.238   1.106 -0.1277  3.6887 -1.0196
  909SOL     MW 3636   1.609   0.218   1.034 -0.0740 -0.3121  0.1863
  910SOL     OW 3637   2.296   1.774   0.415  0.2836  0.2663  0.0259
  910SOL    HW1 3638   2.244   1.691   0.427 -2.2211  0.0545  2.9422
  910SOL    HW2 3639   2.256   1.812   0.338  0.7154  0.6986  2.3965
  910SOL     MW 3640   2.284   1.768   0.406  0.0101  0.2954  0.7235
  911SOL     OW 3641   2.156   2.306   1.660 -0.0898  0.4192  0.2296
  911SOL    HW1 3642   2.218   2.270   1.724  2.4756 -1.1032  0.8303
  911SOL    HW2 3643   2.199   2.282   1.574  0.9532 -1.8184  0.1345
  911SOL     MW 3644   2.170   2.298   1.657  0.3863 -0.0769  0.2963
  912SOL     OW 3645   2.907   1.930   1.508  0.0056  0.4621  0.4083
  912SOL    HW1 3646   2.947   1.956   1.424 -2.0118  0.1417  0.0059
  912SOL    HW2 3647   2.832   1.981   1.506 -1.4110 -1.0240 -2.4658
  912SOL     MW 3648   2.903   1.940   1.497 -0.4475  0.2238 -0.0240
  913SOL     OW 3649   2.542   2.943   0.416  0.0367 -0.1998  0.2233
  913SOL    HW1 3650   2.621   2.888   0.440  1.3330 -0.8963 -0.9287
  913SOL    HW2 3651   2.467   2.882   0.432 -1.5033  0.1210  2.0576
  913SOL     MW 3652   2.542   2.928   0.421  0.0046 -0.2494  0.3133
  914SOL     OW 3653   2.784   1.651   0.020 -0.3358  0.1154 -0.0384
  914SOL    HW1 3654   2.807   1.706  -0.057 -1.8114 -1.7414  0.9062
  914SOL    HW2 3655   2.695   1.672   0.024  3.7316 -0.6654 -3.6648
  914SOL     MW 3656   2.775   1.661   0.010  0.0062 -0.2326 -0.3922
  915SOL     OW 3657   1.848   0.171   0.229  0.2540  0.5863  0.2805
  915SOL    HW1 3658   1.889   0.099   0.275 -2.2836  0.1427  1.8053
  915SOL    HW2 3659   1.754   0.153   0.237 -1.0883 -2.7137 -0.1418
  915SOL     MW 3660   1.841   0.159   0.236 -0.2579  0.0924  0.4259
  916SOL     OW 3661   1.816   2.083   1.988 -0.3626  0.1562 -0.3259
  916SOL    HW1 3662   1.804   2.174   1.954  1.5874 -0.1845  1.3748
  916SOL    HW2 3663   1.828   2.029   1.913  1.3743  1.5691  0.3319
  916SOL     MW 3664   1.816   2.088   1.974  0.1239  0.2977 -0.0147
  917SOL     OW 3665   2.317   2.345   2.686  0.7478  0.0544 -0.0492
  917SOL    HW1 3666   2.313   2.381   2.773  0.1913 -0.8330 -0.0767
  917SOL    HW2 3667   2.293   2.422   2.637 -2.5240 -1.0519  0.9202
  917SOL     MW 3668   2.313   2.360   2.691  0.2427 -0.2086  0.0751
  918SOL     OW 3669   2.078   1.662   2.666 -0.0691  0.0648 -0.0276
  918SOL    HW1 3670   2.022   1.664   2.589 -1.4831 -0.6093  0.6674
  918SOL    HW2 3671   2.141   1.734   2.655 -1.7742 -0.9778  1.4705
  918SOL     MW 3672   2.079   1.672   2.655 -0.4807 -0.1617  0.2618
  919SOL     OW 3673   3.096   2.382   2.266  0.2690 -0.3174 -0.6238
  919SOL    HW1 3674   3.009   2.338   2.227  0.5780  0.6355  1.1371
  919SOL    HW2 3675   3.161   2.361   2.194  3.3305 -0.5479 -1.9173
  919SOL     MW 3676   3.093   2.373   2.251  0.7137 -0.2221 -0.5621
  920SOL     OW 3677   2.765   2.832   0.027 -0.5209 -0.3192  0.5066
  920SOL    HW1 3678   2.685   2.887   0.040  0.6154  0.3480  1.9344
  920SOL    HW2 3679   2.760   2.807  -0.067 -0.9384  0.5008  0.5506
  920SOL     MW 3680   2.753   2.836   0.017 -0.4261 -0.1230  0.7008
  921SOL     OW 3681   2.504   2.618   2.669 -0.1486  0.2711 -0.1750
  921SOL    HW1 3682   2.572   2.632   2.603 -0.7158  2.1323 -0.3329
  921SOL    HW2 3683   2.523   2.539   2.707 -0.2824 -0.7146 -0.1085
  921SOL     MW 3684   2.515   2.609   2.665 -0.2411  0.3866 -0.1871
  922SOL     OW 3685   2.042   2.806   0.256  0.0990  0.0786  0.1669
  922SOL    HW1 3686   2.023   2.843   0.165 -1.4997 -3.6813  0.7645
  922SOL    HW2 3687   2.001   2.714   0.248  2.1317  0.5810  3.0980
  922SOL     MW 3688   2.034   2.799   0.243  0.1563 -0.3512  0.6325
  923SOL     OW 3689   2.209   2.831   1.652  0.1382  0.1287  0.1572
  923SOL    HW1 3690   2.247   2.762   1.594 -1.8000  0.5494 -0.5764
  923SOL    HW2 3691   2.212   2.919   1.611  0.3757 -1.4627  1.0143
  923SOL     MW 3692   2.215   2.834   1.639 -0.0862 -0.0258  0.1735
  924SOL     OW 3693   1.168   2.781   2.502  0.1123  0.1705  0.5535
  924SOL    HW1 3694   1.212   2.844   2.441 -0.1250  1.0607  1.4178
  924SOL    HW2 3695   1.225   2.747   2.575 -0.1033 -0.7487  2.5302
  924SOL     MW 3696   1.181   2.785   2.504  0.0525  0.1667  0.9283
  925SOL     OW 3697   2.951   0.196   2.667 -0.1784 -0.2180 -0.4812
  925SOL    HW1 3698   2.990   0.239   2.591 -0.7086 -2.6219  1.8479
  925SOL    HW2 3699   2.940   0.277   2.725  0.6233  1.3290 -0.8909
  925SOL     MW 3700   2.955   0.213   2.664 -0.1426 -0.3311 -0.2279
  926SOL     OW 3701   2.674   2.399   2.099  0.5766  0.1945  0.0066
  926SOL    HW1 3702   2.719   2.467   2.149  1.9586 -0.7150 -1.0505
  926SOL    HW2 3703   2.724   2.413   2.017  1.5437 -1.4878  1.5685
  926SOL     MW 3704   2.687   2.410   2.095  0.8866 -0.1474  0.0732
  927SOL     OW 3705   2.360   0.145   0.314  0.2861 -0.0366 -0.1059
  927SOL    HW1 3706   2.446   0.136   0.282 -0.7205 -1.1534  0.9606
  927SOL    HW2 3707   2.300   0.114   0.245 -1.7668 -1.6865 -2.2930
  927SOL     MW 3708   2.363   0.140   0.301 -0.1176 -0.4016 -0.2538
  928SOL     OW 3709   2.003   2.501   1.775 -0.0555 -0.4167 -0.2357
  928SOL    HW1 3710   2.055   2.426   1.733  2.9557  0.5341  0.4652
  928SOL    HW2 3711   2.045   2.542   1.853 -2.5270  2.0610  1.5355
  928SOL     MW 3712   2.015   2.496   1.780  0.0157  0.0357  0.0905
  929SOL     OW 3713   2.764   2.362   2.459  0.0127 -0.2138  0.6370
  929SOL    HW1 3714   2.773   2.276   2.432  0.3869  2.1656 -1.9137
  929SOL    HW2 3715   2.774   2.352   2.552 -3.2126  1.3338  1.0484
  929SOL     MW 3716   2.766   2.350   2.468 -0.3635  0.3043  0.3547
  930SOL     OW 3717   2.030   2.910   2.667  0.1694 -0.0213  0.3504
  930SOL    HW1 3718   2.019   2.845   2.733 -0.1195  0.2662  0.3745
  930SOL    HW2 3719   2.126   2.928   2.672 -1.3686 -0.8484 -1.7549
  930SOL     MW 3720   2.041   2.904   2.676 -0.0717 -0.0925  0.0758
  931SOL     OW 3721   2.933   2.821   2.233  0.3585 -0.8069 -0.0224
  931SOL    HW1 3722   3.028   2.808   2.229 -0.2177  1.2284  2.9270
  931SOL    HW2 3723   2.912   2.840   2.145  0.5200 -0.2013 -1.3979
  931SOL     MW 3724   2.943   2.822   2.221  0.3038 -0.4585  0.1853
  932SOL     OW 3725   2.831   1.929   2.570 -0.2277  0.1019 -0.0649
  932SOL    HW1 3726   2.924   1.953   2.586  0.4314  0.6404 -2.7020
  932SOL    HW2 3727   2.841   1.902   2.481 -0.4983 -1.0815 -2.9661
  932SOL     MW 3728   2.845   1.929   2.560 -0.1764  0.0168 -0.7956
  933SOL     OW 3729   2.026   2.817   2.219 -0.2001 -0.3770 -0.1524
  933SOL    HW1 3730   2.121   2.825   2.240 -1.0919  4.1155 -1.8793
  933SOL    HW2 3731   2.011   2.899   2.172  0.6729 -0.2279  0.7311
  933SOL     MW 3732   2.036   2.829   2.215 -0.2026  0.2354 -0.2637
  934SOL     OW 3733   2.037   2.702   2.480  0.3794  0.6642  0.5049
  934SOL    HW1 3734   2.014   2.772   2.539  1.1753  0.9822  1.2295
  934SOL    HW2 3735   2.018   2.727   2.384  0.5213 -2.1534  0.0400
  934SOL     MW 3736   2.031   2.715   2.475  0.5031  0.3344  0.5392
  935SOL     OW 3737   2.604   1.570   1.798  0.0911 -0.6642  0.2638
  935SOL    HW1 3738   2.680   1.541   1.751 -1.9939  0.5190  1.1791
  935SOL    HW2 3739   2.555   1.581   1.721  3.5316 -3.6879  2.2301
  935SOL     MW 3740   2.607   1.568   1.781  0.2700 -0.9070  0.6440
  936SOL     OW 3741   2.951   2.248   3.051 -0.1590 -0.1166  0.6201
  936SOL    HW1 3742   3.033   2.295   3.063  0.6108  2.1891  0.5687
  936SOL    HW2 3743   2.882   2.309   3.075  2.3013  0.7034 -0.9570
  936SOL     MW 3744   2.953   2.262   3.056  0.2672  0.2958  0.4052
  937SOL     OW 3745   1.974   2.193   2.625 -0.1643 -0.1492 -0.3957
  937SOL    HW1 3746   2.046   2.166   2.683  2.1711  3.0103 -1.1260
  937SOL    HW2 3747   1.999   2.161   2.535  0.8352 -1.4645  0.4176
  937SOL     MW 3748   1.987   2.185   2.621  0.2757  0.0941 -0.3848
  938SOL     OW 3749   2.287   1.831   1.903  0.4187 -0.1905 -0.1269
  938SOL    HW1 3750   2.271   1.870   1.817  1.2031 -1.8220 -1.5275
  938SOL    HW2 3751   2.302   1.903   1.960  0.2547 -4.4462 -1.4382
  938SOL     MW 3752   2.287   1.846   1.899  0.5006 -0.9672 -0.4847
  939SOL     OW 3753   2.807   1.937   2.290  0.3420  0.0106  0.5638
  939SOL    HW1 3754   2.809   1.881   2.215 -2.2419 -0.7020  0.1814
  939SOL    HW2 3755   2.712   1.965   2.290 -0.4025  2.5622  0.1760
  939SOL     MW 3756   2.795   1.934   2.280 -0.0971  0.2532  0.4622
  940SOL     OW 3757   2.290   0.136   2.702  0.9064 -0.5686  0.6365
  940SOL    HW1 3758   2.264   0.050   2.679 -0.0749  1.5430 -1.6035
  940SOL    HW2 3759   2.350   0.133   2.775  1.7837  0.7384 -2.6270
  940SOL     MW 3760   2.295   0.124   2.708  0.8926 -0.1176 -0.0896
  941SOL     OW 3761   0.151   2.342   2.065 -0.5895 -0.7477 -0.2566
  941SOL    HW1 3762   0.219   2.276   2.067 -2.6583  2.9593 -1.4966
  941SOL    HW2 3763   0.081   2.323   2.002  1.2065  2.0589  0.1481
  941SOL     MW 3764   0.151   2.331   2.057 -0.6255  0.1117 -0.3668
  942SOL     OW 3765   2.880   2.224   2.170 -0.2875 -0.4264  0.2977
  942SOL    HW1 3766   2.788   2.261   2.146 -0.6332  0.7762 -2.1353
  942SOL    HW2 3767   2.861   2.138   2.211 -0.4437  2.4334  0.6925
  942SOL     MW 3768   2.865   2.218   2.172 -0.3537  0.1096  0.0288
  943SOL     OW 3769   0.290   2.018   2.332  0.7724  0.1928  0.1190
  943SOL    HW1 3770   0.218   2.085   2.356  0.1003  2.2540 -0.7511
  943SOL    HW2 3771   0.380   2.049   2.353  1.8232  1.2543  0.7404
  943SOL     MW 3772   0.292   2.031   2.338  0.8224  0.6048  0.0861
  944SOL     OW 3773   2.115   2.644   1.998  0.1303 -0.6739  0.2825
  944SOL    HW1 3774   2.175   2.597   2.059  1.9718 -0.1593 -1.2549
  944SOL    HW2 3775   2.059   2.697   2.052  1.0418  1.6344 -2.3916
  944SOL     MW 3776   2.116   2.645   2.013  0.4935 -0.3014 -0.2732
  945SOL     OW 3777   2.761   2.680   2.883  0.0912 -0.3668 -0.2203
  945SOL    HW1 3778   2.683   2.629   2.867  1.3577  1.8524 -0.0362
  945SOL    HW2 3779   2.817   2.671   2.807 -1.0592  0.2224  0.4965
  945SOL     MW 3780   2.758   2.672   2.871  0.1065  0.0038 -0.1015
  946SOL     OW 3781   2.511   2.759   2.299 -0.0671  0.2622 -0.0555
  946SOL    HW1 3782   2.557   2.788   2.218  0.4622 -2.1033  0.0952
  946SOL    HW2 3783   2.472   2.679   2.273 -1.8423 -1.4976  2.9935
  946SOL     MW 3784   2.512   2.752   2.285 -0.2315 -0.2821  0.3667
  947SOL     OW 3785   2.040   3.102   0.317 -0.4206 -0.8986 -1.0772
  947SOL    HW1 3786   2.031   3.001   0.320 -2.0757 -1.8285 -1.8853
  947SOL    HW2 3787   2.088   3.125   0.396  2.9551 -1.4442  3.5708
  947SOL     MW 3788   2.045   3.092   0.328 -0.1936 -1.0933 -0.5705
  948SOL     OW 3789   1.815   3.076   2.618 -0.1185 -0.3825  0.4526
  948SOL    HW1 3790   1.892   3.017   2.624 -1.1715 -2.1446  1.9772
  948SOL    HW2 3791   1.820   3.109   2.530 -3.3861 -0.9545  1.4986
  948SOL     MW 3792   1.826   3.073   2.607 -0.6886 -0.6905  0.7918
  949SOL     OW 3793   2.538   2.022   2.298  0.3846  0.4410 -0.5410
  949SOL    HW1 3794   2.521   1.933   2.336  0.2052  0.6320  2.3076
  949SOL    HW2 3795   2.492   2.074   2.368  1.0250  0.6090  0.7745
  949SOL     MW 3796   2.529   2.017   2.312  0.4454  0.4884  0.0084
  950SOL     OW 3797   2.183   2.625   3.036  0.0497 -0.0378 -0.1811
  950SOL    HW1 3798   2.248   2.552   3.039  2.5281 -0.0386  2.4797
  950SOL    HW2 3799   2.123   2.625   2.959  2.0535  1.1310  0.0777
  950SOL     MW 3800   2.184   2.616   3.026  0.6411  0.1163  0.2041
  951SOL     OW 3801   2.933   2.066   2.819  1.2371 -0.1652 -0.6362
  951SOL    HW1 3802   2.973   2.126   2.878 -1.5201  1.8775 -1.9595
  951SOL    HW2 3803   3.002   2.053   2.749 -1.8466  0.3194  0.6405
  951SOL     MW 3804   2.948   2.072   2.817  0.4665  0.1683 -0.6423
  952SOL     OW 3805   3.051   1.650   2.066 -0.9953  0.9759 -0.4037
  952SOL    HW1 3806   2.966   1.692   2.043 -2.8498  0.6468 -1.1045
  952SOL    HW2 3807   3.116   1.718   2.084 -2.4395 -0.2735 -2.6224
  952SOL     MW 3808   3.048   1.665   2.065 -1.4305  0.7676 -0.7889
  953SOL     OW 3809   1.951   1.828   2.869  0.2511 -0.3164  0.2640
  953SOL    HW1 3810   1.862   1.793   2.874 -0.5873  2.3693  0.0876
  953SOL    HW2 3811   1.981   1.753   2.822  0.6827  2.2561  0.4326
  953SOL     MW 3812   1.943   1.814   2.864  0.1974  0.3773  0.2630
  954SOL     OW 3813   2.440   2.095   2.914  0.3689  0.0082 -0.6944
  954SOL    HW1 3814   2.354   2.119   2.867 -0.8687  0.3157 -3.1272
  954SOL    HW2 3815   2.501   2.059   2.843 -2.6967  2.1364 -1.1848
  954SOL     MW 3816   2.437   2.093   2.898 -0.1989  0.3296 -1.0801
  955SOL     OW 3817   1.591   1.629   2.592  0.5914 -0.5960 -0.1508
  955SOL    HW1 3818   1.576   1.607   2.499 -0.5806 -0.7830 -3.8237
  955SOL    HW2 3819   1.689   1.650   2.606  1.1052  1.0150 -1.0507
  955SOL     MW 3820   1.602   1.629   2.581  0.5046 -0.4081 -0.7542
  956SOL     OW 3821   2.615   2.436   2.879 -0.0766  0.7763 -0.5527
  956SOL    HW1 3822   2.656   2.410   2.969  0.4816  1.7286  1.5017
  956SOL    HW2 3823   2.655   2.364   2.820  2.7970 -0.7227  0.2362
  956SOL     MW 3824   2.626   2.423   2.883  0.3762  0.7042 -0.1775
  957SOL     OW 3825   2.300   2.793   0.405 -0.1697 -0.2470 -0.2672
  957SOL    HW1 3826   2.226   2.826   0.342 -1.0035  1.6518  0.5796
  957SOL    HW2 3827   2.249   2.746   0.478 -0.8209 -1.1069 -3.1477
  957SOL     MW 3828   2.284   2.791   0.406 -0.3657 -0.1099 -0.5355
  958SOL     OW 3829   1.999   2.679   2.835 -0.1804  0.0501 -0.5652
  958SOL    HW1 3830   1.993   2.596   2.779  0.1117 -0.5170  0.6293
  958SOL    HW2 3831   1.916   2.695   2.877  4.3156 -1.9117 -1.3005
  958SOL     MW 3832   1.987   2.670   2.833  0.4514 -0.2836 -0.5046
  959SOL     OW 3833   2.436   2.562   0.330 -0.2770  0.1464 -0.6108
  959SOL    HW1 3834   2.487   2.586   0.252 -1.2135  0.6574 -0.7853
  959SOL    HW2 3835   2.372   2.636   0.346 -1.1530  1.3497  4.0076
  959SOL     MW 3836   2.434   2.575   0.322 -0.5161  0.3726 -0.0245
  960SOL     OW 3837   1.933   2.398   2.301 -0.2219 -0.5621 -0.0353
  960SOL    HW1 3838   1.946   2.309   2.316 -1.9027  1.1354  0.2512
  960SOL    HW2 3839   1.889   2.426   2.382  0.4286 -1.5959  2.3286
  960SOL     MW 3840   1.929   2.390   2.314 -0.3578 -0.4745  0.3144
  961SOL     OW 3841   2.225   2.397   2.355 -0.7513 -0.4719  0.3719
  961SOL    HW1 3842   2.142   2.382   2.316  2.9226  0.0811 -2.6313
  961SOL    HW2 3843   2.231   2.467   2.424  1.5700 -4.9593  1.7264
  961SOL     MW 3844   2.215   2.404   2.359  0.0397 -0.9910  0.1544
  962SOL     OW 3845   2.188   2.065   2.801  0.4903  0.4469  0.0330
  962SOL    HW1 3846   2.174   2.010   2.879  0.8619 -2.1984 -1.5497
  962SOL    HW2 3847   2.216   2.014   2.726  2.7353  0.7845 -2.3201
  962SOL     MW 3848   2.190   2.051   2.801  0.8355  0.1424 -0.4863
  963SOL     OW 3849   1.767   2.581   2.115  0.4340  0.2280 -0.5565
  963SOL    HW1 3850   1.825   2.556   2.178 -1.8102  0.6073 -1.8743
  963SOL    HW2 3851   1.758   2.509   2.058 -2.2716  2.9979  1.3081
  963SOL     MW 3852   1.773   2.568   2.116 -0.2191  0.6435 -0.4843
  964SOL     OW 3853   1.817   1.974   2.696  0.3321  0.1485  0.7900
  964SOL    HW1 3854   1.850   2.059   2.647 -0.2068  2.7041 -2.4181
  964SOL    HW2 3855   1.890   1.928   2.750  0.0867  0.1510  2.7107
  964SOL     MW 3856   1.831   1.979   2.696  0.2286  0.4860  0.6202
  965SOL     OW 3857   2.197   2.686   0.637 -0.2667 -0.6026 -0.4594
  965SOL    HW1 3858   2.171   2.594   0.648  1.5960  0.8321  0.9304
  965SOL    HW2 3859   2.264   2.709   0.702  0.9699 -1.4335  0.3512
  965SOL     MW 3860   2.202   2.677   0.647  0.1422 -0.5229 -0.1691
  966SOL     OW 3861   2.696   2.648   2.468 -0.2953  0.3538 -0.2648
  966SOL    HW1 3862   2.637   2.684   2.399 -0.7619  0.2646 -0.8860
  966SOL    HW2 3863   2.716   2.561   2.433 -3.2209  0.1813  0.5588
  966SOL     MW 3864   2.691   2.641   2.454 -0.7429  0.3193 -0.2381
  967SOL     OW 3865   2.879   2.993   2.924 -0.1766 -0.0873 -0.2285
  967SOL    HW1 3866   2.854   2.962   3.008  0.3291 -1.4494 -1.8804
  967SOL    HW2 3867   2.789   3.029   2.889 -0.6035 -0.8837 -0.1679
  967SOL     MW 3868   2.863   2.993   2.931 -0.1662 -0.3721 -0.4385
  968SOL     OW 3869   3.011   2.554   2.988 -0.3164  0.2047 -0.4376
  968SOL    HW1 3870   2.942   2.614   2.975 -3.1450  2.6397 -1.0340
  968SOL    HW2 3871   3.006   2.510   2.904  2.5512  3.9369 -1.8293
  968SOL     MW 3872   3.001   2.556   2.976 -0.3113  1.0184 -0.6999
  969SOL     OW 3873   1.548   2.116   1.726 -0.2501  0.1505 -0.4817
  969SOL    HW1 3874   1.613   2.043   1.740 -3.1115  0.6342  1.4647
  969SOL    HW2 3875   1.500   2.122   1.815  0.1831  2.1738  3.0475
  969SOL     MW 3876   1.550   2.107   1.740 -0.5705  0.4813  0.2408
  970SOL     OW 3877   1.650   1.705   1.865 -0.5163  0.4427  0.1543
  970SOL    HW1 3878   1.717   1.667   1.923  1.7933  1.9639 -1.7451
  970SOL    HW2 3879   1.568   1.684   1.912 -1.4576 -1.7404  1.9290
  970SOL     MW 3880   1.648   1.697   1.879 -0.3358  0.3553  0.1378
  971SOL     OW 3881   1.839   0.119   2.366  0.0215  0.2820 -0.6089
  971SOL    HW1 3882   1.889   0.079   2.299 -1.5509  2.8371  0.5014
  971SOL    HW2 3883   1.902   0.188   2.414 -2.4179  3.2732  4.0164
  971SOL     MW 3884   1.854   0.123   2.363 -0.5078  1.0137  0.1478
  972SOL     OW 3885   0.286   2.784   2.525 -0.1817 -0.6522 -0.3955
  972SOL    HW1 3886   0.291   2.684   2.532  0.9999 -0.5079  0.5760
  972SOL    HW2 3887   0.347   2.821   2.592  0.4751  2.5186 -0.7932
  972SOL     MW 3888   0.295   2.776   2.535  0.0608 -0.2148 -0.3198
  973SOL     OW 3889   2.590   0.010   2.052 -0.2430  0.0146  0.1838
  973SOL    HW1 3890   2.589  -0.081   2.039 -2.7971  2.0605  2.1658
  973SOL    HW2 3891   2.595   0.051   1.965 -1.4440 -1.8999 -0.3625
  973SOL     MW 3892   2.590   0.004   2.039 -0.7384  0.0319  0.3732
  974SOL     OW 3893   2.114   0.360   2.737  0.2905  0.0406  0.4636
  974SOL    HW1 3894   2.184   0.300   2.705 -1.1481 -1.7544 -0.8409
  974SOL    HW2 3895   2.065   0.305   2.796  0.8899  0.5404 -2.8309
  974SOL     MW 3896   2.117   0.345   2.741  0.1797 -0.1303 -0.1432
  975SOL     OW 3897   2.253   2.566   2.545 -0.5665 -0.0202 -0.0136
  975SOL    HW1 3898   2.335   2.594   2.581  0.9900 -1.8912 -1.1441
  975SOL    HW2 3899   2.188   2.637   2.548  1.9028  1.8863  2.2644
  975SOL     MW 3900   2.255   2.579   2.550 -0.0353 -0.0155  0.1378
  976SOL     OW 3901   0.216   0.277   1.698 -0.0927  0.8647 -0.4969
  976SOL    HW1 3902   0.273   0.211   1.737  0.9147 -1.6231  1.8419
  976SOL    HW2 3903   0.122   0.236   1.694  0.7363 -0.5280  1.3677
  976SOL     MW 3904   0.211   0.263   1.703  0.1496  0.3527  0.0577
  977SOL     OW 3905   1.697   2.752   2.476  0.5119 -0.2688  0.4765
  977SOL    HW1 3906   1.734   2.661   2.492 -0.8653 -0.7342  0.0217
  977SOL    HW2 3907   1.754   2.777   2.404  0.1741 -0.4313 -0.6139
  977SOL     MW 3908   1.709   2.743   2.469  0.2856 -0.3517  0.2726
   3.10000   3.10000   3.10000
