977 TIP4P/2005f water molecules t=   0.72000 step= 720
 3908
    1SOL     OW    1   0.210   0.864   3.059  0.5379 -0.3704 -0.5094
    1SOL    HW1    2   0.190   0.877   2.969 -0.3182  0.8753  2.0291
    1SOL    HW2    3   0.195   0.776   3.095 -1.2143  1.6807  0.4405
    1SOL     MW    4   0.205   0.854   3.052  0.1938  0.0646 -0.0492
    2SOL     OW    5   0.253   2.992   1.168  0.9576  0.4767 -0.1210
    2SOL    HW1    6   0.326   3.047   1.136  0.8463  0.0826 -0.9423
    2SOL    HW2    7   0.172   3.029   1.133  0.8647  0.6641 -1.1629
    2SOL     MW    8   0.252   3.004   1.159  0.9307  0.4494 -0.3668
    3SOL     OW    9   2.640   0.401   0.929 -0.7295  0.4825  0.2681
    3SOL    HW1   10   2.664   0.482   0.873  1.5753  1.4474  0.1550
    3SOL    HW2   11   2.597   0.433   1.009  1.5113 -0.1492 -1.0586
    3SOL     MW   12   2.638   0.416   0.932 -0.1297  0.5264  0.0781
    4SOL     OW   13   3.055   1.701   0.601 -0.2597  0.0714  0.4193
    4SOL    HW1   14   2.977   1.739   0.561  1.7350 -2.1578  1.4397
    4SOL    HW2   15   3.110   1.676   0.526  0.4597  2.8567 -1.2605
    4SOL     MW   16   3.052   1.703   0.586  0.0984  0.1448  0.3323
    5SOL     OW   17   1.715   1.503   0.512  0.1571  0.1743  0.1811
    5SOL    HW1   18   1.760   1.446   0.572 -0.3453  0.7448 -1.2099
    5SOL    HW2   19   1.618   1.487   0.535 -2.5266 -0.4349  1.1472
    5SOL     MW   20   1.708   1.493   0.523 -0.2632  0.1692  0.1251
    6SOL     OW   21   0.858   1.406   0.647 -0.0076  0.5061 -0.3706
    6SOL    HW1   22   0.773   1.441   0.671 -0.6142 -0.8623  1.0089
    6SOL    HW2   23   0.848   1.316   0.672  1.2786  1.5422  2.3160
    6SOL     MW   24   0.845   1.399   0.654  0.0820  0.4623  0.1659
    7SOL     OW   25   2.006   1.142   0.001  0.4541  0.2553 -0.5257
    7SOL    HW1   26   2.078   1.202  -0.031  1.2114 -1.9795 -3.8315
    7SOL    HW2   27   2.038   1.135   0.092  1.7799  1.4810 -0.7801
    7SOL     MW   28   2.020   1.149   0.009  0.7290  0.1222 -0.9955
    8SOL     OW   29   0.959   1.334   1.026  0.2569 -0.2160  0.2349
    8SOL    HW1   30   1.045   1.293   1.047  3.9676  0.9346  0.9797
    8SOL    HW2   31   0.897   1.302   1.093  2.2481 -0.8947 -1.7253
    8SOL     MW   32   0.962   1.324   1.037  1.0092 -0.1537  0.0745
    9SOL     OW   33   1.044   0.465   1.365  0.0829  0.2383  0.3480
    9SOL    HW1   34   0.970   0.407   1.338 -1.4312  0.4744  0.1743
    9SOL    HW2   35   1.094   0.417   1.434  1.7583 -0.4644  2.1268
    9SOL     MW   36   1.041   0.451   1.371  0.1042  0.1767  0.5598
   10SOL     OW   37   0.279   0.796   0.452  0.2864 -0.1840  0.2613
   10SOL    HW1   38   0.372   0.793   0.425 -4.0962 -0.6401 -0.2356
   10SOL    HW2   39   0.274   0.869   0.520  1.0439 -1.2252  2.2058
   10SOL     MW   40   0.290   0.805   0.457 -0.1919 -0.3815  0.4523
   11SOL     OW   41   0.767   1.170   1.691  0.0552 -0.6984  0.7117
   11SOL    HW1   42   0.814   1.138   1.771  2.3448 -0.1316  2.5328
   11SOL    HW2   43   0.779   1.091   1.622  0.2638  1.0912 -2.3102
   11SOL     MW   44   0.775   1.156   1.693  0.3848 -0.3875  0.5533
   12SOL     OW   45   3.101   1.067   0.875  0.5610 -0.1205 -0.2612
   12SOL    HW1   46   3.132   1.144   0.929  1.2468  1.3635  0.9260
   12SOL    HW2   47   3.035   1.110   0.813 -0.1416 -0.5704  0.8208
   12SOL     MW   48   3.096   1.083   0.874  0.5588  0.0159  0.0382
   13SOL     OW   49   1.857   1.396   1.349  0.1386 -0.6394 -0.0310
   13SOL    HW1   50   1.885   1.367   1.267 -0.8922  1.0061  3.6157
   13SOL    HW2   51   1.872   1.492   1.343 -1.2490 -1.0947  0.7105
   13SOL     MW   52   1.862   1.405   1.338 -0.1805 -0.4823  0.5480
   14SOL     OW   53   0.609   0.370   1.829  0.4851 -0.4505  0.0296
   14SOL    HW1   54   0.566   0.282   1.849 -0.3345  0.9976  5.0394
   14SOL    HW2   55   0.680   0.363   1.893 -2.0342  2.7771  0.8398
   14SOL     MW   56   0.613   0.358   1.840  0.0446  0.1664  0.7975
   15SOL     OW   57   1.969   0.461   0.955  0.3330 -0.7492  0.6165
   15SOL    HW1   58   1.960   0.507   1.041 -0.2252  3.8819 -3.0787
   15SOL    HW2   59   2.058   0.459   0.920  0.0128 -0.2881  0.5036
   15SOL     MW   60   1.980   0.467   0.962  0.2171 -0.0773  0.1141
   16SOL     OW   61   0.230   1.843   0.331 -0.4786 -0.0301 -0.4236
   16SOL    HW1   62   0.308   1.789   0.360  2.0009 -0.3039 -2.0884
   16SOL    HW2   63   0.256   1.931   0.371 -0.6415  2.1075  2.9464
   16SOL     MW   64   0.244   1.847   0.340 -0.1729  0.2158 -0.1986
   17SOL     OW   65   1.049   0.918   1.525  0.1415  0.4854  0.0858
   17SOL    HW1   66   1.096   0.889   1.600  1.0768  1.0592 -0.0316
   17SOL    HW2   67   0.960   0.912   1.553  0.3258 -1.4314  1.6668
   17SOL     MW   68   1.043   0.913   1.539  0.2893  0.3082  0.2789
   18SOL     OW   69   0.103   1.606   0.395 -0.0181 -0.5124  0.0505
   18SOL    HW1   70   0.133   1.688   0.356 -1.7219 -0.2865  0.7398
   18SOL    HW2   71   0.061   1.552   0.326 -0.0612 -0.6899 -0.3361
   18SOL     MW   72   0.101   1.610   0.380 -0.2486 -0.5060  0.0904
   19SOL     OW   73   0.116   1.298   0.977  0.1247 -0.1745 -0.4064
   19SOL    HW1   74   0.140   1.348   0.899 -2.2619 -4.6814  0.8244
   19SOL    HW2   75   0.029   1.329   0.997  2.5019 -1.2469  0.1155
   19SOL     MW   76   0.108   1.308   0.970  0.1234 -0.9106 -0.1752
   20SOL     OW   77   0.413   2.124   1.191  0.1006 -0.3396 -0.4402
   20SOL    HW1   78   0.371   2.044   1.152  0.2493 -0.2907 -0.2435
   20SOL    HW2   79   0.356   2.150   1.267  0.6728 -1.9319 -3.7960
   20SOL     MW   80   0.400   2.117   1.196  0.1957 -0.5433 -0.8570
   21SOL     OW   81   0.540   0.814   0.356  0.2504  0.0492  0.0228
   21SOL    HW1   82   0.612   0.787   0.418 -0.1467  0.3807 -0.3373
   21SOL    HW2   83   0.554   0.785   0.267  2.4664  2.4707  0.6322
   21SOL     MW   84   0.551   0.807   0.352  0.4904  0.4124  0.0557
   22SOL     OW   85   1.457   0.626   1.110  0.2361  0.4386 -0.3188
   22SOL    HW1   86   1.476   0.570   1.041 -2.2395 -0.4389 -0.3816
   22SOL    HW2   87   1.381   0.675   1.079  0.5041 -0.3030 -1.0399
   22SOL     MW   88   1.449   0.625   1.097 -0.0552  0.2250 -0.4222
   23SOL     OW   89   0.032   0.776   0.638  0.5291 -0.5481 -0.1101
   23SOL    HW1   90   0.034   0.697   0.692  0.2019  2.0502  1.1908
   23SOL    HW2   91   0.108   0.831   0.666  2.4709  2.9140 -0.7901
   23SOL     MW   92   0.043   0.773   0.649  0.7422  0.2515 -0.0282
   24SOL     OW   93   1.995   2.206   0.101 -0.7793 -0.1585 -0.0382
   24SOL    HW1   94   1.995   2.159   0.185  1.4637 -1.5433 -0.0178
   24SOL    HW2   95   2.047   2.149   0.042 -1.2700 -1.0836  1.9093
   24SOL     MW   96   2.002   2.192   0.105 -0.5481 -0.4632  0.2214
   25SOL     OW   97   0.206   1.385   0.504  0.7053  0.3151 -0.9759
   25SOL    HW1   98   0.159   1.461   0.465 -1.8759 -1.7493 -1.8523
   25SOL    HW2   99   0.292   1.385   0.470 -2.3005  3.8475  0.0645
   25SOL     MW  100   0.211   1.395   0.494 -0.0319  0.5088 -0.9543
   26SOL     OW  101   1.997   0.987   0.380  0.1165  0.3365 -0.0605
   26SOL    HW1  102   1.926   1.016   0.449 -1.7684 -0.8515 -2.5216
   26SOL    HW2  103   2.043   1.071   0.350 -0.7750  2.4905 -0.1733
   26SOL     MW  104   1.994   1.002   0.386 -0.2498  0.4639 -0.4001
   27SOL     OW  105   2.066   1.421   0.225  0.3124  0.3892  0.9517
   27SOL    HW1  106   1.989   1.370   0.259 -1.1865 -0.9548 -0.1323
   27SOL    HW2  107   2.090   1.477   0.301  0.2841 -0.9813  1.3811
   27SOL     MW  108   2.059   1.422   0.239  0.1109  0.0310  0.8653
   28SOL     OW  109   0.403   1.075   2.029  0.5650  0.3659  0.1333
   28SOL    HW1  110   0.488   1.032   2.010  0.5695 -0.3874  2.3367
   28SOL    HW2  111   0.328   1.017   2.047 -0.8730 -2.7544 -2.0462
   28SOL     MW  112   0.404   1.062   2.029  0.3759 -0.1452  0.1365
   29SOL     OW  113   0.214   1.457   0.766  0.3542 -0.3327  0.0072
   29SOL    HW1  114   0.223   1.550   0.758 -2.8068 -1.0031 -0.0893
   29SOL    HW2  115   0.187   1.426   0.678 -0.2506 -0.3673 -1.5579
   29SOL     MW  116   0.211   1.465   0.753 -0.1426 -0.4257 -0.2120
   30SOL     OW  117   0.801   1.205   1.216 -0.5685  0.5107  0.2115
   30SOL    HW1  118   0.716   1.202   1.259 -1.4288 -0.0555 -1.1403
   30SOL    HW2  119   0.868   1.207   1.289  0.6732  1.1247 -0.2537
   30SOL     MW  120   0.799   1.205   1.231 -0.5182  0.5170 -0.0282
   31SOL     OW  121   0.421   0.189   0.185 -0.2932  0.0778  0.2614
   31SOL    HW1  122   0.430   0.111   0.241 -1.4363  2.0152  0.3006
   31SOL    HW2  123   0.434   0.166   0.093  1.2876  2.2321 -0.6499
   31SOL     MW  124   0.424   0.176   0.181 -0.2354  0.6177  0.1463
   32SOL     OW  125   2.789   0.998   1.137 -0.1169 -0.2513  0.1608
   32SOL    HW1  126   2.719   0.935   1.098  1.3665 -0.6481 -2.1363
   32SOL    HW2  127   2.871   0.950   1.115 -0.7119  2.3061 -2.1155
   32SOL     MW  128   2.791   0.984   1.129  0.0003  0.0338 -0.4426
   33SOL     OW  129   1.838   1.302   0.355  0.0940 -0.2439 -0.2031
   33SOL    HW1  130   1.816   1.245   0.426 -0.4900  1.0056  0.7114
   33SOL    HW2  131   1.786   1.379   0.387 -1.8401 -2.1194 -1.4705
   33SOL     MW  132   1.828   1.305   0.369 -0.2382 -0.3265 -0.2497
   34SOL     OW  133   1.235   1.872   1.080 -0.5245 -0.2487 -0.3883
   34SOL    HW1  134   1.145   1.899   1.100  2.5943  0.5485 -0.1890
   34SOL    HW2  135   1.285   1.891   1.163  2.0129  0.5918  0.7126
   34SOL     MW  136   1.229   1.878   1.094  0.2218 -0.0326 -0.2167
   35SOL     OW  137   0.431   0.172   1.870  0.7073  0.4367 -0.0474
   35SOL    HW1  138   0.384   0.111   1.929  1.2609 -0.9275  0.6803
   35SOL    HW2  139   0.443   0.121   1.791 -1.5980 -1.8055  2.5453
   35SOL     MW  140   0.427   0.157   1.867  0.4762 -0.0391  0.3907
   36SOL     OW  141   1.867   1.938   0.510  0.9485 -0.2165  0.5256
   36SOL    HW1  142   1.859   1.942   0.415 -0.6209 -1.1695  2.5956
   36SOL    HW2  143   1.898   1.845   0.528 -1.0800  0.6362  1.4319
   36SOL     MW  144   1.870   1.926   0.500  0.4738 -0.2297  0.9183
   37SOL     OW  145   1.761   2.006   1.021 -0.0060  0.4541 -0.0427
   37SOL    HW1  146   1.695   1.969   0.959  0.2257  0.0711  0.6778
   37SOL    HW2  147   1.709   2.062   1.074  0.8425 -0.7898 -0.3223
   37SOL     MW  148   1.745   2.008   1.020  0.1366  0.2395  0.0155
   38SOL     OW  149   2.794   0.898   0.142 -0.2412  0.3482 -0.6307
   38SOL    HW1  150   2.824   0.897   0.237 -1.6620 -3.1691 -1.2126
   38SOL    HW2  151   2.871   0.877   0.087  3.0180 -1.5834  1.4851
   38SOL     MW  152   2.808   0.895   0.148  0.0014 -0.3707 -0.4283
   39SOL     OW  153   1.422   0.617   0.779  0.1438 -0.6154  0.3888
   39SOL    HW1  154   1.394   0.526   0.811 -1.1930 -1.1627 -4.6662
   39SOL    HW2  155   1.342   0.659   0.757  0.7599 -0.9066  2.3048
   39SOL     MW  156   1.407   0.610   0.780  0.0487 -0.7260 -0.0253
   40SOL     OW  157   1.151   1.901   0.239 -0.7719  0.2814  0.6842
   40SOL    HW1  158   1.196   1.836   0.290  0.0708 -0.4679 -1.6460
   40SOL    HW2  159   1.120   1.968   0.302 -0.1603 -0.0352  0.2874
   40SOL     MW  160   1.153   1.901   0.254 -0.5800  0.1408  0.3244
   41SOL     OW  161   0.612   0.532   1.564  0.1797  0.4323  0.3367
   41SOL    HW1  162   0.705   0.563   1.559  0.0462  1.7156 -0.2123
   41SOL    HW2  163   0.611   0.483   1.647  0.3575  3.1109 -1.3976
   41SOL     MW  164   0.624   0.530   1.574  0.1855  0.9551  0.0354
   42SOL     OW  165   1.238   3.029   1.977  0.2161  0.7002 -0.7027
   42SOL    HW1  166   1.145   3.020   1.997 -0.0816  0.2346 -1.2624
   42SOL    HW2  167   1.270   2.941   1.992 -0.2370 -2.4881 -1.4311
   42SOL     MW  168   1.230   3.017   1.981  0.1171  0.2181 -0.8726
   43SOL     OW  169   1.553   0.131   1.733  0.1423 -0.1214 -0.3945
   43SOL    HW1  170   1.588   0.091   1.648  1.5999  2.6827 -2.2618
   43SOL    HW2  171   1.457   0.101   1.741 -0.9960  1.3949 -1.0019
   43SOL     MW  172   1.545   0.122   1.723  0.1844  0.4486 -0.7210
   44SOL     OW  173   1.220   0.749   1.064 -1.2981  0.2372 -0.2861
   44SOL    HW1  174   1.211   0.834   1.025 -1.6979 -1.0025 -1.0089
   44SOL    HW2  175   1.229   0.765   1.160 -2.2733 -0.5421 -1.3556
   44SOL     MW  176   1.220   0.763   1.072 -1.4795 -0.0292 -0.5226
   45SOL     OW  177   1.177   0.756   0.732  0.2412  0.5682 -0.1216
   45SOL    HW1  178   1.142   0.721   0.812  1.7637  2.1317  2.0788
   45SOL    HW2  179   1.154   0.704   0.652  0.1865  1.4886 -0.6572
   45SOL     MW  180   1.170   0.744   0.732  0.4349  0.8959  0.0980
   46SOL     OW  181   0.549   1.150   0.565  0.5682  0.3489 -0.2018
   46SOL    HW1  182   0.530   1.136   0.473 -0.9277 -2.1591 -0.4163
   46SOL    HW2  183   0.638   1.125   0.573 -3.0353  0.9801 -0.6930
   46SOL     MW  184   0.558   1.145   0.554 -0.1046  0.1012 -0.2949
   47SOL     OW  185   0.159   1.941   1.806 -0.0120  0.7044  0.9480
   47SOL    HW1  186   0.211   1.864   1.780 -0.2953  2.4221  2.5768
   47SOL    HW2  187   0.165   1.944   1.902 -1.5205 -1.9150 -1.3461
   47SOL     MW  188   0.167   1.931   1.815 -0.2484  0.5854  0.8602
   48SOL     OW  189   1.108   0.538   0.957  0.3431 -0.5451  0.0012
   48SOL    HW1  190   1.022   0.527   0.987  1.0257 -1.3857 -2.2034
   48SOL    HW2  191   1.137   0.621   1.001 -1.4951 -0.2935 -0.5284
   48SOL     MW  192   1.100   0.547   0.967  0.1906 -0.6228 -0.3595
   49SOL     OW  193   1.834   0.740   1.585  0.1440 -0.2417  0.1260
   49SOL    HW1  194   1.788   0.706   1.659  1.8639  3.0127  0.2976
   49SOL    HW2  195   1.876   0.659   1.544 -1.0834 -0.6751 -0.4761
   49SOL     MW  196   1.834   0.725   1.590  0.2090  0.1305  0.0692
   50SOL     OW  197   1.198   1.079   0.523  0.3282 -0.0296  0.3033
   50SOL    HW1  198   1.140   1.100   0.591  1.4790 -1.0216 -1.8113
   50SOL    HW2  199   1.267   1.033   0.573  0.7563 -1.8355 -0.5701
   50SOL     MW  200   1.199   1.076   0.539  0.5365 -0.3988 -0.0910
   51SOL     OW  201   0.305   2.897   0.935  0.1495  0.0149 -0.5668
   51SOL    HW1  202   0.404   2.897   0.951  1.5901  2.4918  0.4772
   51SOL    HW2  203   0.273   2.922   1.019  1.5181 -2.0081 -2.8409
   51SOL     MW  204   0.313   2.900   0.949  0.5201  0.0748 -0.7291
   52SOL     OW  205   0.818   1.840   0.448  0.1072  0.1626 -0.1239
   52SOL    HW1  206   0.777   1.925   0.459 -1.4398  0.2218 -3.8908
   52SOL    HW2  207   0.831   1.829   0.355 -0.9278  0.8546  0.9600
   52SOL     MW  208   0.814   1.850   0.437 -0.2335  0.2617 -0.4779
   53SOL     OW  209   0.438   2.147   0.641 -0.0863 -0.0484 -0.0201
   53SOL    HW1  210   0.370   2.130   0.577 -1.8824 -3.5390  0.9659
   53SOL    HW2  211   0.462   2.243   0.616 -2.4270  0.7720  1.8742
   53SOL     MW  212   0.432   2.158   0.629 -0.6321 -0.4007  0.3599
   54SOL     OW  213   2.104   0.883   0.863 -0.2149  0.8433 -0.1882
   54SOL    HW1  214   2.108   0.907   0.769  1.7879 -0.2636 -2.1253
   54SOL    HW2  215   2.028   0.821   0.869 -0.1997 -0.7841 -0.0275
   54SOL     MW  216   2.095   0.878   0.851  0.0513  0.4825 -0.4226
   55SOL     OW  217   0.565   1.531   1.638 -0.6719  0.4518 -0.2659
   55SOL    HW1  218   0.498   1.550   1.571 -0.3817 -0.6909 -1.3136
   55SOL    HW2  219   0.618   1.474   1.586 -0.5993  2.2059  1.4365
   55SOL     MW  220   0.563   1.526   1.622 -0.6241  0.5325 -0.1795
   56SOL     OW  221   0.561   0.771   0.051  0.4940 -0.0517 -0.2394
   56SOL    HW1  222   0.582   0.864   0.030  0.1769  1.3061 -0.4452
   56SOL    HW2  223   0.470   0.782   0.047  1.8801 -0.9858 -1.6150
   56SOL     MW  224   0.551   0.785   0.047  0.6351  0.0042 -0.4480
   57SOL     OW  225   1.191   1.226   1.097 -0.8066 -0.1285 -0.5429
   57SOL    HW1  226   1.283   1.258   1.076 -0.8150  1.1803 -2.6486
   57SOL    HW2  227   1.213   1.169   1.178 -0.2400 -1.7203  2.4055
   57SOL     MW  228   1.206   1.223   1.105 -0.7329 -0.1658 -0.4317
   58SOL     OW  229   0.534   1.157   1.312  0.3349 -0.3399  0.7157
   58SOL    HW1  230   0.508   1.241   1.264 -0.3933  1.0058 -0.7177
   58SOL    HW2  231   0.572   1.190   1.392  0.2827 -2.8657 -0.7274
   58SOL     MW  232   0.536   1.172   1.316  0.2319 -0.4956  0.3362
   59SOL     OW  233   1.542   1.689   0.330 -0.2214  0.1736  0.2262
   59SOL    HW1  234   1.598   1.657   0.395  1.2891 -1.1447 -1.5450
   59SOL    HW2  235   1.452   1.670   0.359  2.0014  0.0081  0.9281
   59SOL     MW  236   1.537   1.683   0.342  0.2711 -0.0222  0.0851
   60SOL     OW  237   0.072   0.177   1.610 -0.7120  0.4337 -0.1974
   60SOL    HW1  238  -0.010   0.215   1.589 -1.6851 -0.3817 -2.1330
   60SOL    HW2  239   0.066   0.136   1.696 -0.5164 -0.7229  0.4690
   60SOL     MW  240   0.060   0.176   1.619 -0.8145  0.1735 -0.3649
   61SOL     OW  241   2.047   1.484   3.057 -0.2792  0.7391  0.3365
   61SOL    HW1  242   2.046   1.443   3.145  2.0713 -0.7404 -0.5149
   61SOL    HW2  243   2.119   1.445   3.009 -1.1669  0.3188 -0.7751
   61SOL     MW  244   2.056   1.473   3.062 -0.0862  0.4884  0.0775
   62SOL     OW  245   0.577   1.708   0.637 -0.5986 -0.5248 -0.2787
   62SOL    HW1  246   0.671   1.736   0.625  3.7546  1.1031  1.5054
   62SOL    HW2  247   0.576   1.620   0.677 -1.8969  0.4448 -0.0997
   62SOL     MW  248   0.589   1.700   0.641 -0.1955 -0.1821 -0.0197
   63SOL     OW  249   1.668   0.690   0.736  0.4215 -0.3673  0.2496
   63SOL    HW1  250   1.662   0.751   0.660  0.6834  0.6446 -0.1633
   63SOL    HW2  251   1.579   0.670   0.765  0.1100 -1.4965 -3.0404
   63SOL     MW  252   1.656   0.695   0.730  0.4150 -0.3828 -0.2390
   64SOL     OW  253   0.250   1.735   0.745 -0.3089  0.5806  0.1802
   64SOL    HW1  254   0.321   1.795   0.750 -2.1369  0.9504 -1.8833
   64SOL    HW2  255   0.166   1.782   0.711 -1.5153  1.1489 -0.0011
   64SOL     MW  256   0.248   1.749   0.741 -0.7093  0.7044 -0.1160
   65SOL     OW  257   1.538   2.356   0.411 -0.2014  0.2200  0.0680
   65SOL    HW1  258   1.614   2.316   0.449  0.0451 -2.3932 -1.5812
   65SOL    HW2  259   1.507   2.409   0.482  1.1664 -1.5530 -2.5272
   65SOL     MW  260   1.544   2.358   0.426  0.0116 -0.3587 -0.4920
   66SOL     OW  261   0.288   0.558   0.569 -0.3680  0.4216 -0.2243
   66SOL    HW1  262   0.344   0.517   0.502  0.2573 -1.2170  2.8090
   66SOL    HW2  263   0.276   0.653   0.541 -1.3184  1.8629  1.2451
   66SOL     MW  264   0.294   0.565   0.557 -0.4109  0.3956  0.3698
   67SOL     OW  265   1.512   0.080   2.035  0.2097 -0.1928  0.1579
   67SOL    HW1  266   1.554   0.087   1.949  2.9886  2.3822  1.8660
   67SOL    HW2  267   1.452   0.008   2.024  0.5849 -2.0763 -1.8333
   67SOL     MW  268   1.510   0.072   2.022  0.6259 -0.1016  0.1205
   68SOL     OW  269   0.647   0.120   2.943  0.0986  0.2688 -0.1570
   68SOL    HW1  270   0.626   0.166   2.861  0.1013  3.4538 -0.5407
   68SOL    HW2  271   0.662   0.180   3.010  0.6491 -1.6362 -0.6667
   68SOL     MW  272   0.646   0.134   2.941  0.1716  0.4377 -0.2749
   69SOL     OW  273   0.998   0.181   2.004 -0.1333  0.5312  0.1012
   69SOL    HW1  274   1.085   0.205   2.049  3.9114 -1.8108 -1.2581
   69SOL    HW2  275   0.983   0.092   2.031  0.5070 -0.5330  0.6082
   69SOL     MW  276   1.008   0.172   2.014  0.4849  0.0818 -0.0113
   70SOL     OW  277   0.520   1.720   1.114 -0.3704  0.2754 -0.1152
   70SOL    HW1  278   0.585   1.683   1.179  0.1051 -1.8610 -0.5104
   70SOL    HW2  279   0.581   1.739   1.047 -0.1141  2.9504 -1.7735
   70SOL     MW  280   0.537   1.718   1.113 -0.2738  0.3464 -0.3862
   71SOL     OW  281   1.627   0.538   1.330 -0.8258 -0.3076  0.2463
   71SOL    HW1  282   1.605   0.606   1.394  2.1324  1.4755 -0.1966
   71SOL    HW2  283   1.584   0.576   1.248  0.0786 -0.4179 -0.3235
   71SOL     MW  284   1.618   0.552   1.328 -0.3162 -0.0869  0.1127
   72SOL     OW  285   0.763   1.789   0.988 -0.2554  0.5451  0.2996
   72SOL    HW1  286   0.752   1.819   0.898  1.8951  0.1600 -2.0237
   72SOL    HW2  287   0.752   1.693   0.992 -0.5151 -0.0994  0.1954
   72SOL     MW  288   0.760   1.780   0.977 -0.0059  0.4092 -0.0207
   73SOL     OW  289   1.159   0.714   1.357 -0.0639  0.5086 -0.4027
   73SOL    HW1  290   1.121   0.624   1.361 -1.0659 -0.1912 -1.0382
   73SOL    HW2  291   1.097   0.771   1.398  1.8082  0.9969 -0.0207
   73SOL     MW  292   1.145   0.710   1.363  0.0509  0.4807 -0.4361
   74SOL     OW  293   2.802   0.170   0.943 -0.3748 -0.3090 -0.0728
   74SOL    HW1  294   2.835   0.163   0.854  2.1335 -0.1710 -1.2048
   74SOL    HW2  295   2.763   0.261   0.949  1.2048  1.0604  0.5220
   74SOL     MW  296   2.801   0.181   0.932  0.1646 -0.1101 -0.1437
   75SOL     OW  297   1.655   1.386   0.090 -0.3276  0.1218 -0.0374
   75SOL    HW1  298   1.704   1.386   0.169 -2.8553  0.6738  0.4031
   75SOL    HW2  299   1.687   1.305   0.051  2.1887  0.0868 -0.5378
   75SOL     MW  300   1.666   1.375   0.095 -0.3291  0.1900 -0.0453
   76SOL     OW  301   3.018   0.620   0.444 -0.0532  0.1416  0.5874
   76SOL    HW1  302   3.040   0.657   0.530  1.3616  0.9374 -0.7161
   76SOL    HW2  303   3.080   0.549   0.432 -1.8847  1.9488  1.6384
   76SOL     MW  304   3.029   0.616   0.454 -0.1082  0.4850  0.5541
   77SOL     OW  305   0.794   0.554   0.402 -0.6933  0.0356 -0.1349
   77SOL    HW1  306   0.787   0.574   0.311  1.0961  0.9159 -0.9613
   77SOL    HW2  307   0.720   0.492   0.420 -1.3986 -0.0033 -0.5446
   77SOL     MW  308   0.783   0.549   0.393 -0.5502  0.1466 -0.2980
   78SOL     OW  309   0.742   0.897   1.285 -0.4466  0.5084  0.0701
   78SOL    HW1  310   0.728   0.986   1.296  3.3256 -1.4254 -0.3297
   78SOL    HW2  311   0.716   0.874   1.200 -1.4643  0.8226  1.2032
   78SOL     MW  312   0.737   0.906   1.275 -0.0832  0.2947  0.1669
   79SOL     OW  313   1.930   1.681   0.587  0.0813 -0.4073  0.0609
   79SOL    HW1  314   1.854   1.619   0.560  1.1608  0.1311 -2.2656
   79SOL    HW2  315   1.913   1.695   0.680  2.1566 -0.5291 -3.3232
   79SOL     MW  316   1.918   1.675   0.596  0.4976 -0.3523 -0.6925
   80SOL     OW  317   0.077   0.943   0.304  0.1835 -0.0073  0.2381
   80SOL    HW1  318  -0.015   0.919   0.333  0.7632 -1.1041  1.0375
   80SOL    HW2  319   0.149   0.888   0.340 -0.6594 -0.2394  0.5882
   80SOL     MW  320   0.074   0.932   0.312  0.1488 -0.1827  0.3897
   81SOL     OW  321   1.890   1.896   0.227  0.1992 -0.2900 -0.5261
   81SOL    HW1  322   1.852   1.811   0.190 -0.9857  0.7291 -1.8983
   81SOL    HW2  323   1.817   1.964   0.203  1.2596 -2.3257 -1.4629
   81SOL     MW  324   1.875   1.894   0.219  0.1828 -0.4242 -0.8308
   82SOL     OW  325   0.827   1.058   0.522 -0.0464 -0.5265 -0.2193
   82SOL    HW1  326   0.835   1.067   0.426 -0.2157 -0.3248  0.4263
   82SOL    HW2  327   0.800   0.970   0.529  2.4770  3.0107 -0.8327
   82SOL     MW  328   0.824   1.048   0.510  0.2642 -0.0332 -0.2150
   83SOL     OW  329   0.119   0.601   1.366 -0.3812  0.6367  0.8415
   83SOL    HW1  330   0.120   0.688   1.335  0.7407  1.1354  1.2025
   83SOL    HW2  331   0.185   0.580   1.431 -2.9732 -0.0341  0.6016
   83SOL     MW  332   0.128   0.610   1.370 -0.5752  0.6140  0.8575
   84SOL     OW  333   0.083   0.271   0.935  0.7123  0.2795  0.6155
   84SOL    HW1  334  -0.005   0.310   0.909 -0.3645 -0.0570  0.4603
   84SOL    HW2  335   0.050   0.190   0.980 -0.1301 -0.2478  0.9081
   84SOL     MW  336   0.067   0.266   0.938  0.4590  0.1655  0.6336
   85SOL     OW  337   0.475   0.423   0.741 -0.1337 -0.4570 -0.2507
   85SOL    HW1  338   0.426   0.485   0.694  1.8996  3.3949  2.3331
   85SOL    HW2  339   0.417   0.354   0.761  0.2274  1.3052 -0.4285
   85SOL     MW  340   0.461   0.422   0.737  0.1822  0.2837  0.0667
   86SOL     OW  341   1.218   0.332   1.098 -0.3063 -0.6245  0.5735
   86SOL    HW1  342   1.169   0.404   1.054  0.8301  1.6726  1.0150
   86SOL    HW2  343   1.240   0.373   1.182  0.8889 -2.5840 -0.6072
   86SOL     MW  344   1.214   0.347   1.103  0.0013 -0.5800  0.4760
   87SOL     OW  345   1.157   1.426   1.295  1.0393 -0.0308 -0.0423
   87SOL    HW1  346   1.162   1.491   1.223 -3.3759 -1.9938 -0.1755
   87SOL    HW2  347   1.167   1.342   1.250 -0.9756  1.0369 -0.4064
   87SOL     MW  348   1.159   1.423   1.280  0.1909 -0.1489 -0.1079
   88SOL     OW  349   1.214   0.995   0.923 -0.1442  0.0835 -0.2453
   88SOL    HW1  350   1.307   1.009   0.941  1.3744  0.2867 -0.2585
   88SOL    HW2  351   1.171   1.051   0.987 -0.1013 -0.2607 -1.2781
   88SOL     MW  352   1.220   1.004   0.934  0.0618  0.0649 -0.3833
   89SOL     OW  353   1.771   0.681   0.355  0.2733  0.0356  0.3714
   89SOL    HW1  354   1.836   0.617   0.392 -0.0561  2.8233 -0.4679
   89SOL    HW2  355   1.796   0.680   0.264  0.4099 -2.2345  1.0362
   89SOL     MW  356   1.783   0.672   0.348  0.2479  0.1039  0.3484
   90SOL     OW  357   0.688   1.157   2.787 -0.1928 -0.1537 -0.5600
   90SOL    HW1  358   0.737   1.068   2.818 -1.2902 -3.1788  3.7317
   90SOL    HW2  359   0.706   1.209   2.864  0.1454 -0.6709  1.0423
   90SOL     MW  360   0.697   1.152   2.801 -0.2930 -0.6211  0.2176
   91SOL     OW  361   2.183   0.658   0.523 -0.6821  0.4604 -0.9665
   91SOL    HW1  362   2.228   0.707   0.451  0.8498 -1.0432 -1.7984
   91SOL    HW2  363   2.179   0.571   0.490 -0.5441  0.5103  1.2136
   91SOL     MW  364   2.188   0.653   0.509 -0.4618  0.2686 -0.7886
   92SOL     OW  365   1.634   0.840   0.522  0.2049  0.2566  0.1737
   92SOL    HW1  366   1.541   0.835   0.533  2.1068  0.0869  0.5436
   92SOL    HW2  367   1.671   0.762   0.472  0.2520 -1.2106  0.8399
   92SOL     MW  368   1.627   0.829   0.517  0.4620  0.0406  0.3104
   93SOL     OW  369   0.986   0.275   0.402 -0.6229 -0.8141  0.3034
   93SOL    HW1  370   0.939   0.355   0.420  0.5545 -1.1366  0.7923
   93SOL    HW2  371   1.034   0.285   0.320 -0.7513  0.3477  1.0576
   93SOL     MW  372   0.986   0.287   0.393 -0.4845 -0.7033  0.4674
   94SOL     OW  373   1.843   1.429   1.617 -1.0565  0.5137 -0.0447
   94SOL    HW1  374   1.861   1.418   1.521  1.6420 -0.1383 -2.4928
   94SOL    HW2  375   1.808   1.344   1.642 -2.5680 -1.7726  1.1761
   94SOL     MW  376   1.841   1.417   1.608 -0.8999  0.1260 -0.2066
   95SOL     OW  377   0.760   1.505   0.981  0.2527  0.1367 -0.6642
   95SOL    HW1  378   0.836   1.444   0.980 -0.8182  0.5840  2.1549
   95SOL    HW2  379   0.690   1.449   0.948 -1.4653  1.3563  1.6345
   95SOL     MW  380   0.761   1.489   0.976 -0.1153  0.3566  0.0110
   96SOL     OW  381   1.235   1.848   1.642  0.0568  0.0953 -0.0234
   96SOL    HW1  382   1.154   1.844   1.684 -0.5373 -1.8229  1.1609
   96SOL    HW2  383   1.243   1.767   1.580 -2.3962 -0.2615 -1.2565
   96SOL     MW  384   1.225   1.837   1.640 -0.3452 -0.2049 -0.0299
   97SOL     OW  385   1.280   1.436   0.803  0.4719 -0.2121 -0.3282
   97SOL    HW1  386   1.288   1.457   0.899 -0.8126  0.2897 -0.4697
   97SOL    HW2  387   1.220   1.507   0.775  0.0024  1.7583 -0.8956
   97SOL     MW  388   1.273   1.448   0.812  0.2405  0.1141 -0.4217
   98SOL     OW  389   1.462   1.289   1.048 -0.0361 -0.4159 -0.4976
   98SOL    HW1  390   1.483   1.337   1.127 -0.5894  0.2769  2.8300
   98SOL    HW2  391   1.528   1.318   0.989  0.0132  1.6747  0.1528
   98SOL     MW  392   1.474   1.300   1.050 -0.1026 -0.0487  0.0273
   99SOL     OW  393   1.361   0.386   1.347 -0.1224  0.3108 -0.4942
   99SOL    HW1  394   1.422   0.452   1.313  0.2637  0.8994 -0.4759
   99SOL    HW2  395   1.394   0.363   1.434 -1.5719 -0.8523 -1.3971
   99SOL     MW  396   1.373   0.392   1.354 -0.2627  0.2350 -0.6110
  100SOL     OW  397   1.019   1.153   1.364 -0.1190 -0.2101 -0.2351
  100SOL    HW1  398   1.061   1.229   1.408  2.0614 -0.3552 -0.0205
  100SOL    HW2  399   1.035   1.072   1.417 -0.3896  0.2023 -0.5258
  100SOL     MW  400   1.027   1.152   1.377  0.1330 -0.1749 -0.2451
  101SOL     OW  401   0.502   1.082   0.315 -0.1709  0.0682  0.2711
  101SOL    HW1  402   0.515   0.988   0.329 -3.0566  1.1909 -2.6681
  101SOL    HW2  403   0.485   1.086   0.221 -0.8056 -2.0986 -2.8675
  101SOL     MW  404   0.502   1.070   0.304 -0.6354 -0.0695 -0.5308
  102SOL     OW  405   2.910   0.591   0.995 -0.4286  0.3005  0.4550
  102SOL    HW1  406   2.959   0.676   0.993 -0.3463 -2.6268 -0.3977
  102SOL    HW2  407   2.953   0.541   1.067 -1.9438 -0.7954 -0.8342
  102SOL     MW  408   2.922   0.595   1.004 -0.6176 -0.2303  0.1724
  103SOL     OW  409   1.742   0.364   1.804 -0.2875 -0.6931 -0.5734
  103SOL    HW1  410   1.718   0.287   1.757 -1.7870  2.2850  0.6512
  103SOL    HW2  411   1.772   0.332   1.884 -0.8328 -3.5335 -0.5367
  103SOL     MW  412   1.743   0.350   1.809 -0.5573 -0.6749 -0.4070
  104SOL     OW  413   0.119   1.741   1.540 -0.8668 -0.6501 -0.2091
  104SOL    HW1  414   0.042   1.729   1.590  1.5143  0.4590 -5.7531
  104SOL    HW2  415   0.091   1.711   1.452 -0.7648 -0.3938  0.2095
  104SOL     MW  416   0.105   1.736   1.535 -0.5392 -0.4700 -0.8853
  105SOL     OW  417   0.019   1.159   0.484 -0.1154 -0.2132 -0.1281
  105SOL    HW1  418   0.041   1.086   0.419  1.4043  0.8244 -2.3359
  105SOL    HW2  419   0.104   1.205   0.495  1.0997 -0.4482 -3.0126
  105SOL     MW  420   0.033   1.155   0.477  0.2454 -0.1073 -0.8000
  106SOL     OW  421   0.876   0.365   1.030  0.0779 -0.3275 -0.2631
  106SOL    HW1  422   0.811   0.427   0.996  1.0924  1.7003 -1.4918
  106SOL    HW2  423   0.913   0.315   0.958 -0.7383 -0.4904  2.6568
  106SOL     MW  424   0.873   0.366   1.016  0.1041 -0.0815 -0.0400
  107SOL     OW  425   0.773   2.165   2.971  0.0070  0.5212 -0.4024
  107SOL    HW1  426   0.710   2.122   2.905  0.7241  0.4212  1.4083
  107SOL    HW2  427   0.753   2.143   3.062 -0.3430 -0.0257 -0.8065
  107SOL     MW  428   0.762   2.156   2.974  0.0554  0.4358 -0.2169
  108SOL     OW  429   1.294   1.552   1.525 -0.6060  0.4558  0.5921
  108SOL    HW1  430   1.257   1.486   1.457  0.8303  0.4481  0.4189
  108SOL    HW2  431   1.376   1.511   1.560 -0.7237  0.9237  0.4817
  108SOL     MW  432   1.300   1.538   1.521 -0.4320  0.5165  0.5547
  109SOL     OW  433   1.985   0.780   0.176 -0.1834  0.0454 -0.0583
  109SOL    HW1  434   2.076   0.796   0.149  0.2582  0.2190  0.5647
  109SOL    HW2  435   1.987   0.835   0.256 -2.2116  5.0914  0.3317
  109SOL     MW  436   1.997   0.789   0.183 -0.3928  0.7341  0.0753
  110SOL     OW  437   0.466   1.914   0.782 -0.2751  0.2106  0.4393
  110SOL    HW1  438   0.518   1.839   0.745  3.9117  3.2145  0.7038
  110SOL    HW2  439   0.480   1.990   0.725 -0.6339 -3.4589 -2.0878
  110SOL     MW  440   0.475   1.914   0.769  0.2300  0.1228  0.1408
  111SOL     OW  441   0.784   0.934   1.551  0.9695  0.0643  0.3402
  111SOL    HW1  442   0.759   0.902   1.461  1.8182 -1.8922 -0.3126
  111SOL    HW2  443   0.705   0.922   1.604  1.1113  1.1312  1.3728
  111SOL     MW  444   0.770   0.928   1.546  1.1002 -0.0530  0.3903
  112SOL     OW  445   1.330   1.058   1.607 -0.0517  0.0526 -0.2683
  112SOL    HW1  446   1.260   1.121   1.637  0.1828  1.1962  0.0145
  112SOL    HW2  447   1.280   0.976   1.595 -1.9661  1.1291  1.1984
  112SOL     MW  448   1.314   1.056   1.609 -0.2733  0.3455 -0.0374
  113SOL     OW  449   1.302   0.042   1.747 -0.0188  0.2397  0.0052
  113SOL    HW1  450   1.287   0.001   1.836  2.8342 -0.0993  1.4822
  113SOL    HW2  451   1.291  -0.030   1.677 -3.2398  0.3192  0.7741
  113SOL     MW  452   1.298   0.027   1.750 -0.0674  0.2055  0.3015
  114SOL     OW  453   0.337   2.856   1.946 -0.7264  0.1169 -0.0611
  114SOL    HW1  454   0.335   2.947   1.979 -2.8618  0.7099 -0.7754
  114SOL    HW2  455   0.395   2.864   1.865 -1.2081 -0.8030  0.2135
  114SOL     MW  456   0.344   2.869   1.940 -1.0717  0.0738 -0.1191
  115SOL     OW  457   0.514   0.825   1.137  0.3719  0.1131  0.0689
  115SOL    HW1  458   0.506   0.731   1.149 -1.5421 -0.7567 -2.4296
  115SOL    HW2  459   0.464   0.864   1.212 -4.7078 -1.7128  1.0891
  115SOL     MW  460   0.506   0.818   1.148 -0.5508 -0.2425 -0.1261
  116SOL     OW  461   0.790   1.013   1.011  0.5131 -0.0657 -0.7173
  116SOL    HW1  462   0.826   1.050   0.930 -0.6185  4.6013 -1.8446
  116SOL    HW2  463   0.806   1.082   1.075  0.9867  1.1393  0.5626
  116SOL     MW  464   0.797   1.027   1.008  0.4263  0.7091 -0.6971
  117SOL     OW  465   1.130   1.205   0.777 -0.8683 -0.1009  0.1643
  117SOL    HW1  466   1.157   1.140   0.841  2.4531 -2.6827 -0.3856
  117SOL    HW2  467   1.183   1.287   0.797  2.8128  0.6051  0.5341
  117SOL     MW  468   1.141   1.207   0.788  0.0556 -0.3484  0.1406
  118SOL     OW  469   3.046   2.910   1.726 -0.2219  0.1837  1.1157
  118SOL    HW1  470   3.073   2.978   1.789 -0.5940  1.6197  0.4066
  118SOL    HW2  471   2.957   2.933   1.709  4.2324  3.1104  0.1468
  118SOL     MW  472   3.038   2.922   1.732  0.3167  0.7593  0.8943
  119SOL     OW  473   0.469   1.431   1.210  0.2889  0.4073  0.0144
  119SOL    HW1  474   0.500   1.471   1.131  1.3272  0.4306 -0.5845
  119SOL    HW2  475   0.374   1.400   1.200  2.3606  1.0382  2.5111
  119SOL     MW  476   0.460   1.433   1.199  0.6993  0.4936  0.2648
  120SOL     OW  477   0.279   0.702   0.979 -0.1985  0.1891 -0.3413
  120SOL    HW1  478   0.309   0.620   1.020 -0.3747 -1.9772 -0.2004
  120SOL    HW2  479   0.330   0.772   1.016 -0.3224  0.1566  0.4805
  120SOL     MW  480   0.290   0.700   0.990 -0.2381 -0.1010 -0.2143
  121SOL     OW  481   1.772   1.163   1.702 -0.4489  0.6015 -0.3207
  121SOL    HW1  482   1.692   1.127   1.733 -1.4281  2.2311  0.1509
  121SOL    HW2  483   1.805   1.096   1.639 -0.6429  0.0720  0.3527
  121SOL     MW  484   1.766   1.150   1.698 -0.6037  0.7466 -0.1696
  122SOL     OW  485   0.113   0.561   0.793 -0.0990 -0.1200 -0.3036
  122SOL    HW1  486   0.182   0.545   0.727  0.3178 -3.0663  0.0634
  122SOL    HW2  487   0.148   0.619   0.860 -0.2761 -3.2272  0.1793
  122SOL     MW  488   0.127   0.567   0.793 -0.0673 -0.9187 -0.1915
  123SOL     OW  489   1.816   1.062   0.577  0.3091 -0.3223 -0.2044
  123SOL    HW1  490   1.760   0.983   0.573 -0.0326 -2.1151 -1.6568
  123SOL    HW2  491   1.810   1.090   0.672 -0.4020  0.7672  1.0864
  123SOL     MW  492   1.808   1.056   0.589  0.1702 -0.4151 -0.2257
  124SOL     OW  493   0.691   0.530   0.909  0.3028  0.2766 -0.6395
  124SOL    HW1  494   0.623   0.506   0.847  1.8683 -0.2070 -0.5123
  124SOL    HW2  495   0.715   0.618   0.885 -0.6604 -1.3772  0.6832
  124SOL     MW  496   0.685   0.538   0.898  0.3823 -0.0054 -0.4482
  125SOL     OW  497   0.708   1.767   1.706  0.4129  0.5613 -0.1978
  125SOL    HW1  498   0.624   1.718   1.696  0.2484  1.0416  0.2019
  125SOL    HW2  499   0.685   1.855   1.698 -0.5047 -2.4694  2.4086
  125SOL     MW  500   0.694   1.772   1.703  0.2701  0.2248  0.1988
  126SOL     OW  501   2.130   1.599   1.957 -0.4800  0.1592  0.4418
  126SOL    HW1  502   2.186   1.674   1.922 -1.6459  2.2040  0.6636
  126SOL    HW2  503   2.194   1.526   1.961  1.6988 -0.0236 -0.6287
  126SOL     MW  504   2.146   1.599   1.953 -0.3464  0.4049  0.3298
  127SOL     OW  505   0.693   0.805   1.863  0.1043  0.1256 -0.2724
  127SOL    HW1  506   0.776   0.758   1.862 -1.7481  2.2314 -0.5372
  127SOL    HW2  507   0.701   0.867   1.938 -0.1164 -0.0046  1.4333
  127SOL     MW  508   0.705   0.807   1.873 -0.1692  0.3862 -0.0823
  128SOL     OW  509   1.845   0.757   2.919 -0.6706 -0.6742 -0.3904
  128SOL    HW1  510   1.829   0.721   2.833  0.2996  2.4212 -1.9146
  128SOL    HW2  511   1.781   0.829   2.927  2.2158  0.5905  1.8065
  128SOL     MW  512   1.834   0.762   2.909 -0.1618 -0.0989 -0.3017
  129SOL     OW  513   1.648   0.927   0.199  0.1321  0.1061  0.6042
  129SOL    HW1  514   1.580   0.863   0.193  2.2734 -0.1189  0.4299
  129SOL    HW2  515   1.674   0.925   0.287 -1.0538 -0.3776 -0.6808
  129SOL     MW  516   1.642   0.919   0.210  0.2582  0.0126  0.4117
  130SOL     OW  517   0.744   1.363   0.375 -0.4405 -0.6316 -0.7035
  130SOL    HW1  518   0.809   1.353   0.450 -0.1454 -2.6196  3.7867
  130SOL    HW2  519   0.790   1.386   0.296 -0.0555  2.8136 -2.3025
  130SOL     MW  520   0.759   1.365   0.374 -0.3508 -0.4393 -0.3220
  131SOL     OW  521   2.989   0.839   3.056 -0.1505 -0.0115  0.1850
  131SOL    HW1  522   3.007   0.881   2.971 -0.9643  0.2981 -0.1447
  131SOL    HW2  523   3.073   0.839   3.097 -3.4573  0.1886  2.9676
  131SOL     MW  524   3.003   0.845   3.050 -0.6942  0.0558  0.5086
  132SOL     OW  525   2.730   0.167   1.211 -0.5519  0.2282  0.2887
  132SOL    HW1  526   2.744   0.166   1.113 -2.5649  0.5874  1.0421
  132SOL    HW2  527   2.636   0.138   1.215  0.9541 -2.0994 -1.4313
  132SOL     MW  528   2.720   0.163   1.199 -0.6188 -0.0315  0.1611
  133SOL     OW  529   1.043   0.167   1.718  0.8318  0.2856  0.0346
  133SOL    HW1  530   1.125   0.120   1.705  0.3915 -0.9124  0.1562
  133SOL    HW2  531   1.031   0.173   1.813 -0.9161 -1.6593  0.2238
  133SOL     MW  532   1.052   0.162   1.729  0.5431 -0.1291  0.0757
  134SOL     OW  533   1.420   2.507   1.425 -0.0597 -0.2566  0.2687
  134SOL    HW1  534   1.374   2.587   1.406 -1.8612  0.6442 -0.3510
  134SOL    HW2  535   1.477   2.529   1.503  3.8293  2.6461  0.7151
  134SOL     MW  536   1.422   2.520   1.433  0.2157  0.2452  0.2458
  135SOL     OW  537   3.057   1.036   2.836  0.2193 -0.0512  0.3018
  135SOL    HW1  538   3.119   1.094   2.876  0.9346  1.1112  1.8455
  135SOL    HW2  539   2.972   1.073   2.856  0.7293  0.7069 -3.5389
  135SOL     MW  540   3.054   1.049   2.844  0.3810  0.2022 -0.0012
  136SOL     OW  541   0.243   2.059   0.913 -0.6266  0.0064 -0.1940
  136SOL    HW1  542   0.176   1.997   0.878  0.6640  1.3931  1.6462
  136SOL    HW2  543   0.333   2.032   0.880  1.2940  1.1411 -0.6674
  136SOL     MW  544   0.246   2.047   0.904 -0.2029  0.3391 -0.0136
  137SOL     OW  545   0.678   2.069   0.544 -0.0905 -0.2907  0.3130
  137SOL    HW1  546   0.705   2.044   0.635  2.2282  0.7443 -0.4787
  137SOL    HW2  547   0.583   2.090   0.568 -0.5085 -2.2927 -1.9752
  137SOL     MW  548   0.669   2.069   0.559  0.1603 -0.4183 -0.0934
  138SOL     OW  549   0.505   0.548   1.118  0.0201  0.0555 -0.1627
  138SOL    HW1  550   0.430   0.488   1.089  1.7863 -0.8651 -0.5848
  138SOL    HW2  551   0.563   0.565   1.046 -2.3029  1.6677 -1.5544
  138SOL     MW  552   0.502   0.543   1.104 -0.0534  0.1468 -0.4020
  139SOL     OW  553   2.759   0.578   1.375  0.5138 -0.1120 -0.2072
  139SOL    HW1  554   2.817   0.508   1.344 -1.7996  1.4202  1.9007
  139SOL    HW2  555   2.812   0.640   1.426  0.4438 -0.4292 -3.9741
  139SOL     MW  556   2.774   0.577   1.378  0.1994  0.0483 -0.4261
  140SOL     OW  557   0.802   0.360   2.081  0.1522  0.0964 -0.2841
  140SOL    HW1  558   0.874   0.302   2.075 -0.7432  0.7088  1.4932
  140SOL    HW2  559   0.797   0.406   2.163 -0.5969 -0.5629 -0.5998
  140SOL     MW  560   0.811   0.359   2.091 -0.0647  0.0902 -0.0912
  141SOL     OW  561   1.073   0.564   1.778  0.0207  0.1147 -0.7668
  141SOL    HW1  562   1.115   0.492   1.736 -1.4820  0.0904  2.2221
  141SOL    HW2  563   1.126   0.641   1.760 -1.1678 -0.8742  2.7107
  141SOL     MW  564   1.086   0.565   1.770 -0.3344 -0.0190  0.0864
  142SOL     OW  565   0.872   1.138   0.769 -0.6939  0.2131 -0.1368
  142SOL    HW1  566   0.872   1.109   0.677 -0.2907  0.4032  0.6968
  142SOL    HW2  567   0.968   1.160   0.786 -0.9520 -1.6499 -1.6733
  142SOL     MW  568   0.885   1.137   0.759 -0.6748 -0.0076 -0.2296
  143SOL     OW  569   1.745   0.789   1.091  0.1233 -0.0929 -0.1969
  143SOL    HW1  570   1.795   0.793   1.009 -0.9149  0.1513 -0.3375
  143SOL    HW2  571   1.695   0.709   1.084 -0.2384 -3.1346 -0.6888
  143SOL     MW  572   1.745   0.779   1.079 -0.0614 -0.4620 -0.2803
  144SOL     OW  573   0.242   1.228   1.516  0.5062 -0.5295  0.2189
  144SOL    HW1  574   0.339   1.228   1.515  1.9911  0.0108 -1.0591
  144SOL    HW2  575   0.222   1.227   1.607  0.4122 -1.4570 -0.9910
  144SOL     MW  576   0.252   1.228   1.528  0.6897 -0.5806 -0.1093
  145SOL     OW  577   0.260   0.411   1.072 -0.4289  0.5749  0.1925
  145SOL    HW1  578   0.265   0.337   1.140 -1.1911 -1.1532  3.6759
  145SOL    HW2  579   0.194   0.367   1.002 -0.4817  0.4266  0.6564
  145SOL     MW  580   0.252   0.395   1.072 -0.5364  0.3273  0.7133
  146SOL     OW  581   0.852   1.942   1.348 -0.5017 -0.1950 -0.1978
  146SOL    HW1  582   0.888   1.927   1.257 -1.3046  0.9587 -2.1368
  146SOL    HW2  583   0.758   1.935   1.358  1.3623 -1.3374 -2.2146
  146SOL     MW  584   0.844   1.939   1.337 -0.3617 -0.1935 -0.7197
  147SOL     OW  585   0.387   0.389   3.014 -0.2665 -0.0004  0.0219
  147SOL    HW1  586   0.317   0.420   3.069  1.3078 -1.0053 -0.2456
  147SOL    HW2  587   0.388   0.445   2.938  0.3005 -0.9353 -0.2725
  147SOL     MW  588   0.378   0.400   3.011  0.0160 -0.2563 -0.0522
  148SOL     OW  589   0.100   0.887   1.294  0.1148 -0.3999 -0.1706
  148SOL    HW1  590   0.197   0.896   1.298  3.4358 -0.6927  0.1776
  148SOL    HW2  591   0.069   0.907   1.380  1.5334  1.7408 -3.4801
  148SOL     MW  592   0.109   0.891   1.306  0.7401 -0.1561 -0.5613
  149SOL     OW  593   1.368   1.185   1.322 -0.1700 -0.4121  0.1306
  149SOL    HW1  594   1.331   1.145   1.399 -0.2246 -2.3382 -1.2635
  149SOL    HW2  595   1.446   1.238   1.353  0.2031  1.5757 -0.7997
  149SOL     MW  596   1.373   1.187   1.336 -0.1280 -0.4040 -0.1761
  150SOL     OW  597   1.862   1.406   0.741 -0.5254  0.2381  0.1048
  150SOL    HW1  598   1.910   1.320   0.756  0.6366 -0.0903 -1.4064
  150SOL    HW2  599   1.901   1.464   0.803 -2.8059 -0.6747  0.2590
  150SOL     MW  600   1.873   1.402   0.751 -0.6730  0.0743 -0.0742
  151SOL     OW  601   1.654   1.821   0.848  0.6341 -0.8340 -0.4443
  151SOL    HW1  602   1.626   1.825   0.757 -0.7237 -0.8974  0.6958
  151SOL    HW2  603   1.600   1.759   0.885 -0.8671  3.2305 -3.5172
  151SOL     MW  604   1.643   1.814   0.841  0.2569 -0.3061 -0.6993
  152SOL     OW  605   0.730   1.369   1.501 -0.6572  0.6708 -0.2716
  152SOL    HW1  606   0.750   1.303   1.567  0.6605  0.4541 -2.2987
  152SOL    HW2  607   0.816   1.408   1.481 -2.3222 -0.5985 -3.7408
  152SOL     MW  608   0.744   1.366   1.507 -0.7030  0.4748 -0.9968
  153SOL     OW  609   2.611   1.263   0.759 -0.0031 -0.3729  0.1288
  153SOL    HW1  610   2.686   1.222   0.706 -2.0149 -0.6941  2.9817
  153SOL    HW2  611   2.539   1.199   0.762 -2.1296  2.1182  0.1205
  153SOL     MW  612   2.612   1.249   0.753 -0.5491 -0.0866  0.5041
  154SOL     OW  613   0.368   1.760   1.734 -0.3544  0.3206  0.1063
  154SOL    HW1  614   0.344   1.717   1.651  1.0590 -0.5265  2.4755
  154SOL    HW2  615   0.350   1.693   1.801 -0.5791  2.3413 -0.9464
  154SOL     MW  616   0.362   1.746   1.732 -0.1976  0.4754  0.2800
  155SOL     OW  617   1.179   0.721   0.283 -0.1442 -0.2076 -0.2332
  155SOL    HW1  618   1.159   0.679   0.372 -0.8864 -2.5103 -1.9418
  155SOL    HW2  619   1.130   0.804   0.277 -0.1893 -3.2738 -1.8245
  155SOL     MW  620   1.170   0.726   0.294 -0.2481 -0.9160 -0.6686
  156SOL     OW  621   1.592   3.029   1.041 -0.3659  0.3361  0.5060
  156SOL    HW1  622   1.611   3.108   1.085  0.0731  0.5121 -0.7145
  156SOL    HW2  623   1.575   2.962   1.112 -0.2451  0.4751  0.0333
  156SOL     MW  624   1.592   3.031   1.056 -0.2920  0.3777  0.2826
  157SOL     OW  625   1.450   1.138   0.112  0.1829  0.1173 -0.0269
  157SOL    HW1  626   1.520   1.082   0.148  2.9332 -2.4195  2.0232
  157SOL    HW2  627   1.499   1.210   0.075  0.1485  0.1542 -2.8142
  157SOL     MW  628   1.466   1.140   0.112  0.5412 -0.2126 -0.1241
  158SOL     OW  629   0.478   1.627   2.209  0.6863 -0.3804 -0.0575
  158SOL    HW1  630   0.448   1.663   2.127 -0.9114  2.4090 -1.0197
  158SOL    HW2  631   0.401   1.631   2.268  0.3099  0.2799  1.9072
  158SOL     MW  632   0.464   1.632   2.206  0.4259  0.0747  0.0747
  159SOL     OW  633   1.257   1.724   0.400  0.0517 -0.6750  0.0296
  159SOL    HW1  634   1.230   1.634   0.364  1.2183 -3.5110 -0.2893
  159SOL    HW2  635   1.201   1.743   0.480  1.3047  1.6943  0.5005
  159SOL     MW  636   1.246   1.715   0.406  0.3710 -0.7365  0.0496
  160SOL     OW  637   0.513   1.155   1.588  0.2468  0.0253 -0.7290
  160SOL    HW1  638   0.507   1.065   1.617 -1.6564 -1.6193  1.5794
  160SOL    HW2  639   0.564   1.200   1.663  0.3769  1.6440 -0.2939
  160SOL     MW  640   0.519   1.149   1.602  0.0129  0.0219 -0.3670
  161SOL     OW  641   0.497   2.188   2.552 -0.2422  0.6032  0.1956
  161SOL    HW1  642   0.416   2.227   2.517 -1.0939  1.9505  1.0322
  161SOL    HW2  643   0.536   2.133   2.483 -2.1576  1.4811 -0.8261
  161SOL     MW  644   0.492   2.186   2.539 -0.6073  0.8968  0.1712
  162SOL     OW  645   1.067   1.775   1.852  0.4862  0.5402  0.0765
  162SOL    HW1  646   1.075   1.861   1.896  0.3248  4.0048  0.3109
  162SOL    HW2  647   0.975   1.741   1.884 -0.4914 -0.3795 -1.5549
  162SOL     MW  648   1.056   1.782   1.862  0.3360  0.8760 -0.1078
  163SOL     OW  649   2.127   0.044   0.971  0.3599 -0.5785 -0.2571
  163SOL    HW1  650   2.111   0.091   0.885  0.0334  1.2086 -3.0711
  163SOL    HW2  651   2.039   0.011   0.998  0.5619  2.4157 -3.5614
  163SOL     MW  652   2.113   0.046   0.963  0.3435  0.0523 -1.0643
  164SOL     OW  653   0.352   0.199   0.854 -0.0132 -0.2703  1.2349
  164SOL    HW1  654   0.263   0.211   0.876 -0.8210  0.1217  2.2598
  164SOL    HW2  655   0.342   0.121   0.796  0.4662 -0.5436 -0.1569
  164SOL     MW  656   0.339   0.190   0.849 -0.0566 -0.2546  1.1865
  165SOL     OW  657   1.330   1.244   0.361 -0.0048  0.0944 -0.1007
  165SOL    HW1  658   1.267   1.191   0.410  1.5271  0.2092 -3.4007
  165SOL    HW2  659   1.363   1.176   0.299 -1.6969 -0.5505 -0.0987
  165SOL     MW  660   1.326   1.228   0.360 -0.0259  0.0245 -0.5358
  166SOL     OW  661   0.529   1.091   0.987 -0.0657  0.4960  0.1510
  166SOL    HW1  662   0.490   1.025   1.049  1.7957 -0.1852  1.6970
  166SOL    HW2  663   0.622   1.074   1.002 -1.2284  0.1127 -0.3115
  166SOL     MW  664   0.536   1.080   0.997  0.0265  0.3556  0.2940
  167SOL     OW  665   0.800   1.047   0.256 -0.1289 -0.1873 -0.1517
  167SOL    HW1  666   0.713   1.057   0.231  0.6912 -0.6498  1.3624
  167SOL    HW2  667   0.854   1.095   0.186 -1.0014 -1.2972  1.3339
  167SOL     MW  668   0.796   1.055   0.243 -0.1358 -0.3948  0.2440
  168SOL     OW  669   1.646   1.673   2.953 -0.0092  0.4915  0.6191
  168SOL    HW1  670   1.560   1.645   2.921 -0.7542 -0.4019  0.4110
  168SOL    HW2  671   1.701   1.588   2.952  1.2089 -2.8121 -1.2709
  168SOL     MW  672   1.642   1.658   2.949  0.0532 -0.0623  0.3423
  169SOL     OW  673   0.384   0.925   1.370  0.1076 -0.3419  0.7944
  169SOL    HW1  674   0.441   0.897   1.440 -1.0437  0.4577  0.1848
  169SOL    HW2  675   0.389   1.024   1.371 -1.6690  0.2159  1.0229
  169SOL     MW  676   0.392   0.934   1.379 -0.2787 -0.1628  0.7441
  170SOL     OW  677   0.972   1.479   1.497  0.2439  0.7781  0.8093
  170SOL    HW1  678   0.970   1.574   1.523 -0.3345  0.3187  2.0104
  170SOL    HW2  679   1.019   1.482   1.412  1.5351  4.3956 -3.6933
  170SOL     MW  680   0.978   1.492   1.489  0.3380  1.1948  0.3737
  171SOL     OW  681   0.577   1.424   0.679 -0.0877 -0.0649  0.3704
  171SOL    HW1  682   0.519   1.409   0.763 -0.0446  1.4210  0.0799
  171SOL    HW2  683   0.567   1.341   0.633  1.2046 -0.3693  1.4345
  171SOL     MW  684   0.568   1.411   0.684  0.0885  0.0910  0.4724
  172SOL     OW  685   0.847   0.285   1.300  0.5652 -0.7359 -0.0840
  172SOL    HW1  686   0.856   0.327   1.214 -1.0639  2.0299 -0.3887
  172SOL    HW2  687   0.754   0.310   1.315 -1.2305  0.1545 -1.2746
  172SOL     MW  688   0.836   0.294   1.291  0.1133 -0.2535 -0.2813
  173SOL     OW  689   0.444   1.675   0.379  0.1407  0.4267  0.3598
  173SOL    HW1  690   0.433   1.577   0.361 -0.7824  1.8748 -0.3084
  173SOL    HW2  691   0.509   1.675   0.451 -1.2742  0.3926  0.8522
  173SOL     MW  692   0.451   1.662   0.386 -0.1678  0.6133  0.3366
  174SOL     OW  693   1.873   0.999   1.528 -0.6026  0.1767  0.1583
  174SOL    HW1  694   1.859   0.907   1.539 -1.3172  1.6779  0.1864
  174SOL    HW2  695   1.838   1.006   1.438 -1.4357 -2.3841  3.7169
  174SOL     MW  696   1.866   0.988   1.518 -0.8068  0.0369  0.6315
  175SOL     OW  697   0.479   1.404   0.373 -0.0692  0.6010  0.6776
  175SOL    HW1  698   0.434   1.367   0.295 -2.0640 -0.3503 -2.2227
  175SOL    HW2  699   0.570   1.360   0.374 -0.1703 -1.0622  0.2833
  175SOL     MW  700   0.485   1.393   0.363 -0.3457  0.2560  0.2429
  176SOL     OW  701   0.194   1.363   1.228  0.1347  0.4008  0.1523
  176SOL    HW1  702   0.181   1.320   1.145 -0.5288 -0.8700  1.7521
  176SOL    HW2  703   0.154   1.321   1.298 -0.8775 -0.3117 -2.6664
  176SOL     MW  704   0.187   1.352   1.226 -0.0864  0.1392 -0.0085
  177SOL     OW  705   0.571   0.377   1.341 -0.1600  0.9024  0.1821
  177SOL    HW1  706   0.543   0.441   1.263 -0.3443  0.9029 -0.9823
  177SOL    HW2  707   0.603   0.432   1.414  1.4624  0.0107 -1.1408
  177SOL     MW  708   0.572   0.393   1.340  0.0297  0.7848 -0.1461
  178SOL     OW  709   0.011   0.411   2.917  0.5235  0.1867  0.4034
  178SOL    HW1  710  -0.041   0.436   2.993  2.2696  0.3211  1.0620
  178SOL    HW2  711  -0.050   0.437   2.851  2.6040 -1.2869 -0.6923
  178SOL     MW  712  -0.004   0.418   2.918  1.0284  0.0100  0.3457
  179SOL     OW  713   1.583   1.347   1.404  0.0199  0.2529 -0.1028
  179SOL    HW1  714   1.595   1.368   1.496  1.3853 -1.0152 -0.0111
  179SOL    HW2  715   1.672   1.347   1.370 -0.0852 -0.4908 -1.4708
  179SOL     MW  716   1.596   1.349   1.412  0.1862 -0.0125 -0.2712
  180SOL     OW  717   3.015   0.206   0.475  0.5537  0.1291  0.0032
  180SOL    HW1  718   2.995   0.146   0.403  2.3238  2.4212  1.0913
  180SOL    HW2  719   3.081   0.267   0.446 -0.8536 -0.7477  0.2693
  180SOL     MW  720   3.021   0.207   0.462  0.6015  0.3158  0.1818
  181SOL     OW  721   1.139   1.355   3.067 -0.4677  0.2397  0.6776
  181SOL    HW1  722   1.209   1.416   3.096 -1.1394 -1.2099 -1.5959
  181SOL    HW2  723   1.188   1.281   3.031  0.8516  2.3444  1.9254
  181SOL     MW  724   1.155   1.354   3.066 -0.3823  0.3262  0.5422
  182SOL     OW  725   0.528   0.890   1.668 -0.1690 -0.2908  0.2926
  182SOL    HW1  726   0.437   0.870   1.694 -1.7576 -0.1024 -3.1528
  182SOL    HW2  727   0.583   0.849   1.733 -0.2686  2.7898  2.4729
  182SOL     MW  728   0.523   0.882   1.680 -0.3917  0.1405  0.1257
  183SOL     OW  729   1.525   1.550   1.217  0.4180 -0.1471  0.0469
  183SOL    HW1  730   1.446   1.605   1.216  0.6035  2.5777  1.6027
  183SOL    HW2  731   1.528   1.500   1.304  1.6105  0.6493  0.0477
  183SOL     MW  732   1.515   1.551   1.228  0.5998  0.3175  0.2523
  184SOL     OW  733   0.901   0.618   1.987  0.2828  0.1702  0.1283
  184SOL    HW1  734   0.980   0.597   1.934  0.2206 -0.5641  0.0449
  184SOL    HW2  735   0.858   0.536   2.018  0.5518 -2.1601  1.0155
  184SOL     MW  736   0.906   0.605   1.984  0.3101 -0.2341  0.2343
  185SOL     OW  737   1.212   0.994   1.928  0.2478  0.6426 -0.1459
  185SOL    HW1  738   1.246   0.915   1.976  4.8381  1.4430  0.6899
  185SOL    HW2  739   1.234   1.068   1.988 -1.1138 -0.9348 -1.6894
  185SOL     MW  740   1.219   0.994   1.942  0.6738  0.5401 -0.2393
  186SOL     OW  741   0.395   1.639   1.461 -0.0722 -0.3446  0.5636
  186SOL    HW1  742   0.434   1.618   1.375  1.6855  3.0082  2.3864
  186SOL    HW2  743   0.311   1.599   1.457 -0.1676 -1.1562 -2.1537
  186SOL     MW  744   0.389   1.631   1.449  0.1471 -0.0093  0.4456
  187SOL     OW  745   1.439   0.715   1.434 -0.2043 -0.2817  0.0104
  187SOL    HW1  746   1.437   0.672   1.519  0.0973 -2.6390 -1.0914
  187SOL    HW2  747   1.346   0.728   1.417  1.1703 -0.7436  2.4038
  187SOL     MW  748   1.426   0.711   1.443  0.0169 -0.6537  0.1808
  188SOL     OW  749   1.953   1.137   0.828  0.2576  0.1776 -0.5856
  188SOL    HW1  750   1.951   1.161   0.917  1.7344  0.6347 -1.9084
  188SOL    HW2  751   2.008   1.061   0.839 -0.7488 -1.1035  2.6309
  188SOL     MW  752   1.960   1.130   0.841  0.3196  0.0689 -0.3358
  189SOL     OW  753   0.730   0.798   0.803  0.0623 -0.2387  0.4024
  189SOL    HW1  754   0.641   0.839   0.792  0.7858  0.4878  0.3097
  189SOL    HW2  755   0.770   0.852   0.878 -1.8108  1.7356  1.1437
  189SOL     MW  756   0.723   0.810   0.811 -0.0894  0.1177  0.4880
  190SOL     OW  757   1.870   0.244   2.054  0.5037  0.7235  0.6921
  190SOL    HW1  758   1.883   0.154   2.069  0.4078  0.9575 -2.3082
  190SOL    HW2  759   1.959   0.281   2.038 -0.4383  1.7190  1.9121
  190SOL     MW  760   1.884   0.237   2.054  0.3668  0.8857  0.4572
  191SOL     OW  761   1.515   0.933   1.223 -0.1289 -0.3634 -0.0217
  191SOL    HW1  762   1.461   0.993   1.275  2.1826  0.9746 -0.6991
  191SOL    HW2  763   1.522   0.851   1.273 -1.7547  0.6016  1.4623
  191SOL     MW  764   1.509   0.930   1.236 -0.0384 -0.0595  0.0847
  192SOL     OW  765   0.573   2.060   2.805 -0.1080  0.2846 -0.1257
  192SOL    HW1  766   0.529   2.088   2.726 -2.1413  1.6254 -3.3559
  192SOL    HW2  767   0.602   1.968   2.792 -2.1706  0.2297 -0.8868
  192SOL     MW  768   0.571   2.052   2.793 -0.6484  0.4543 -0.6523
  193SOL     OW  769   1.046   1.575   0.784 -0.2887 -0.3262  1.0430
  193SOL    HW1  770   1.036   1.565   0.879 -1.0559  1.7994 -2.3584
  193SOL    HW2  771   0.993   1.502   0.741  0.5362 -0.9073 -1.0917
  193SOL     MW  772   1.038   1.564   0.791 -0.2811 -0.1224  0.3126
  194SOL     OW  773   0.462   1.379   0.910 -0.7156  0.1571 -0.0642
  194SOL    HW1  774   0.485   1.294   0.941  1.5635  2.1889  0.0238
  194SOL    HW2  775   0.374   1.364   0.879  1.0358  1.7831 -1.5666
  194SOL     MW  776   0.454   1.366   0.910 -0.1838  0.6397 -0.2508
  195SOL     OW  777   1.274   1.106   2.992  0.6405 -0.1915  0.1402
  195SOL    HW1  778   1.327   1.119   3.069 -1.8286  1.2415 -3.5638
  195SOL    HW2  779   1.191   1.053   3.008 -1.5926 -0.4761  0.5489
  195SOL     MW  780   1.270   1.101   3.004  0.0201 -0.0400 -0.2946
  196SOL     OW  781   2.172   1.050   0.626  0.1298 -0.5474  0.0110
  196SOL    HW1  782   2.115   1.028   0.550 -1.1794  1.4109 -0.5244
  196SOL    HW2  783   2.162   1.146   0.637 -2.3633 -0.1620 -2.0790
  196SOL     MW  784   2.163   1.060   0.617 -0.3719 -0.2381 -0.3354
  197SOL     OW  785   0.677   1.252   2.043 -0.4490 -0.0992  0.6159
  197SOL    HW1  786   0.693   1.155   2.038 -0.1915 -3.3104  1.2040
  197SOL    HW2  787   0.641   1.281   1.962  2.2064  0.0811 -0.7565
  197SOL     MW  788   0.674   1.243   2.032 -0.0647 -0.4991  0.5124
  198SOL     OW  789   2.979   1.379   1.068 -0.1253 -0.7175  0.0444
  198SOL    HW1  790   2.960   1.469   1.057  0.6952 -0.9892 -0.3378
  198SOL    HW2  791   2.898   1.325   1.049  1.3331 -3.3732 -1.8344
  198SOL     MW  792   2.966   1.384   1.064  0.1754 -1.1037 -0.2539
  199SOL     OW  793   0.522   1.347   1.832  0.1135  0.1893  0.7954
  199SOL    HW1  794   0.456   1.290   1.794  0.8611 -0.9463  0.7161
  199SOL    HW2  795   0.546   1.413   1.763 -1.5744 -0.4870  0.1233
  199SOL     MW  796   0.517   1.349   1.818 -0.0106 -0.0498  0.6962
  200SOL     OW  797   1.880   0.006   1.340  0.0254  0.3833  0.0434
  200SOL    HW1  798   1.860   0.003   1.242 -0.6627 -0.8516 -2.8496
  200SOL    HW2  799   1.801   0.033   1.383  0.3113  1.5703  2.4903
  200SOL     MW  800   1.867   0.009   1.333 -0.0277  0.3770 -0.0154
  201SOL     OW  801   0.959   0.224   0.818 -0.1923 -0.3398  0.1174
  201SOL    HW1  802   0.934   0.140   0.779 -0.5075 -0.1503  0.2951
  201SOL    HW2  803   1.016   0.276   0.749 -1.4255 -0.8641 -0.6784
  201SOL     MW  804   0.963   0.220   0.804 -0.3966 -0.3840  0.0358
  202SOL     OW  805   1.514   1.604   0.952 -0.5555 -0.6320 -0.1426
  202SOL    HW1  806   1.558   1.537   0.906  1.7880  0.6953  1.3118
  202SOL    HW2  807   1.555   1.603   1.041  0.5098 -1.1395  0.1315
  202SOL     MW  808   1.525   1.595   0.958 -0.1057 -0.5238  0.0854
  203SOL     OW  809   3.093   0.455   1.162  0.4680 -0.0547 -0.2272
  203SOL    HW1  810   3.167   0.464   1.107  0.0112 -0.5780  1.3057
  203SOL    HW2  811   3.120   0.515   1.236  0.0439  0.2173 -0.6377
  203SOL     MW  812   3.107   0.464   1.164  0.3518 -0.0878 -0.0791
  204SOL     OW  813   1.044   1.801   0.587  0.2753 -0.1121  0.0176
  204SOL    HW1  814   1.035   1.712   0.629 -1.9944 -2.6633 -0.2987
  204SOL    HW2  815   0.961   1.828   0.543 -1.4819 -0.6586  1.2461
  204SOL     MW  816   1.032   1.793   0.587 -0.2560 -0.5208  0.1380
  205SOL     OW  817   1.342   0.104   1.348 -0.0102 -0.3724  0.1594
  205SOL    HW1  818   1.268   0.087   1.291 -0.1838  0.2811  0.7181
  205SOL    HW2  819   1.355   0.203   1.338  0.8069 -1.3103  1.9363
  205SOL     MW  820   1.334   0.115   1.339  0.0747 -0.4099  0.4675
  206SOL     OW  821   0.423   3.036   1.404  0.1489 -0.4038  0.4117
  206SOL    HW1  822   0.374   3.012   1.325  0.0048 -1.8425 -1.2819
  206SOL    HW2  823   0.500   2.967   1.412 -2.0651  1.2465  0.1928
  206SOL     MW  824   0.427   3.024   1.395 -0.1622 -0.3759  0.1594
  207SOL     OW  825   0.947   1.502   0.208 -0.5993 -0.5498 -0.2867
  207SOL    HW1  826   0.932   1.596   0.199 -2.5479  0.0926  0.1452
  207SOL    HW2  827   1.035   1.492   0.239  0.7193  2.5702  0.5144
  207SOL     MW  828   0.957   1.513   0.211 -0.6825 -0.0534 -0.1240
  208SOL     OW  829   0.694   1.627   1.315  0.5476 -0.0279 -0.2263
  208SOL    HW1  830   0.755   1.663   1.377 -1.6598  1.0990  1.5356
  208SOL    HW2  831   0.704   1.535   1.324 -0.6459  1.3821  1.2988
  208SOL     MW  832   0.704   1.620   1.324  0.0989  0.3068  0.2074
  209SOL     OW  833   1.576   0.523   2.909 -0.4169  0.1054  0.6893
  209SOL    HW1  834   1.625   0.588   2.953  0.6337 -0.6110 -0.6807
  209SOL    HW2  835   1.640   0.450   2.885 -1.6791  2.6277  1.4920
  209SOL     MW  836   1.591   0.522   2.912 -0.4448  0.3436  0.6144
  210SOL     OW  837   1.589   1.378   0.817  0.2039 -0.5761 -0.2511
  210SOL    HW1  838   1.682   1.378   0.785  0.4556  0.8716 -2.2144
  210SOL    HW2  839   1.535   1.354   0.738  0.0393  1.3078 -2.7316
  210SOL     MW  840   1.594   1.375   0.803  0.2154 -0.1365 -0.8374
  211SOL     OW  841   1.640   0.385   0.969 -0.1148 -0.3932 -0.2639
  211SOL    HW1  842   1.603   0.383   0.880  2.5224 -0.0051  1.7866
  211SOL    HW2  843   1.732   0.375   0.961  0.1973  1.0617  0.4761
  211SOL     MW  844   1.647   0.383   0.956  0.2744 -0.1500  0.1043
  212SOL     OW  845   0.194   1.097   0.083 -0.1865 -0.5781  0.0906
  212SOL    HW1  846   0.137   1.081   0.161  0.8040 -1.2372  0.0153
  212SOL    HW2  847   0.219   1.011   0.045  1.8790  0.8922 -1.3462
  212SOL     MW  848   0.190   1.083   0.088  0.2167 -0.4711 -0.1089
  213SOL     OW  849   0.442   1.686   3.034  0.7605 -0.3771  0.1962
  213SOL    HW1  850   0.463   1.745   3.107  0.1770 -1.1459 -0.6702
  213SOL    HW2  851   0.495   1.725   2.956  3.8563  1.5569  0.6558
  213SOL     MW  852   0.452   1.699   3.034  1.0920 -0.2234  0.1425
  214SOL     OW  853   0.592   0.290   2.225 -0.8401  0.1602  0.6315
  214SOL    HW1  854   0.532   0.365   2.203 -3.5015  1.7968 -0.6843
  214SOL    HW2  855   0.653   0.289   2.148  1.5984 -0.1858 -1.6045
  214SOL     MW  856   0.592   0.300   2.212 -0.8695  0.3305  0.1628
  215SOL     OW  857   0.512   0.675   2.671  0.2545  0.9549  0.0222
  215SOL    HW1  858   0.504   0.651   2.579 -0.5391 -2.1342 -1.0979
  215SOL    HW2  859   0.447   0.615   2.710 -1.4958 -0.4169 -0.8949
  215SOL     MW  860   0.502   0.664   2.664 -0.0812  0.3663 -0.2466
  216SOL     OW  861   2.959   3.076   2.646 -0.8582  0.0278  0.0878
  216SOL    HW1  862   2.934   3.054   2.739 -2.1080 -1.2591  1.5269
  216SOL    HW2  863   2.929   3.170   2.622 -1.2944  3.0484 -2.3005
  216SOL     MW  864   2.952   3.085   2.655 -1.0806  0.2565 -0.0375
  217SOL     OW  865   0.912   1.214   0.034  0.5243 -0.5733  0.1107
  217SOL    HW1  866   0.968   1.152  -0.007  1.0604  0.7409  0.2968
  217SOL    HW2  867   0.971   1.281   0.065 -0.8894  0.6676  3.1382
  217SOL     MW  868   0.927   1.215   0.033  0.4085 -0.2362  0.5347
  218SOL     OW  869   0.907   1.323   2.538  0.5350  0.2295 -0.2060
  218SOL    HW1  870   0.905   1.242   2.588 -1.2547  1.0860 -0.1452
  218SOL    HW2  871   0.991   1.364   2.542 -1.0400  0.0722 -1.9554
  218SOL     MW  872   0.918   1.317   2.545  0.0911  0.3217 -0.4288
  219SOL     OW  873   1.093   0.483   2.612  0.0853 -0.0570  0.4843
  219SOL    HW1  874   1.175   0.527   2.592  0.9503 -1.4973  0.0072
  219SOL    HW2  875   1.035   0.541   2.557  0.3646 -3.6861 -3.7942
  219SOL     MW  876   1.096   0.496   2.602  0.2363 -0.7259 -0.1431
  220SOL     OW  877   1.786   0.452   2.228 -0.3239  0.0020  0.6124
  220SOL    HW1  878   1.732   0.504   2.169  1.0177 -0.2916  0.3548
  220SOL    HW2  879   1.801   0.372   2.176 -5.2354 -1.5683 -2.8793
  220SOL     MW  880   1.781   0.448   2.213 -0.7949 -0.2439  0.1177
  221SOL     OW  881   0.358   1.344   2.902 -0.5461 -0.2329  0.0241
  221SOL    HW1  882   0.371   1.243   2.900 -2.4134 -2.9904  2.5643
  221SOL    HW2  883   0.410   1.375   2.826 -0.9482  1.5026 -0.7005
  221SOL     MW  884   0.367   1.334   2.891 -0.8455 -0.3677  0.2636
  222SOL     OW  885   0.366   0.916   2.669  1.1706  0.0967 -0.1123
  222SOL    HW1  886   0.335   0.949   2.585 -0.4845  0.5913  3.1015
  222SOL    HW2  887   0.448   0.874   2.656  0.4507  2.7209  0.0867
  222SOL     MW  888   0.372   0.915   2.656  0.8572  0.5082  0.3380
  223SOL     OW  889   0.019   2.076   2.613 -0.1280  0.3793 -0.5808
  223SOL    HW1  890   0.066   1.992   2.642  1.0092 -1.1225 -1.7471
  223SOL    HW2  891   0.070   2.138   2.559 -1.7097  0.6055 -0.4992
  223SOL     MW  892   0.032   2.073   2.610 -0.1866  0.2110 -0.7240
  224SOL     OW  893   1.534   0.817   2.607  0.5073 -0.1937 -0.4924
  224SOL    HW1  894   1.521   0.864   2.693 -1.6538 -0.5192 -0.5141
  224SOL    HW2  895   1.542   0.890   2.546  1.2921  3.6219  0.3196
  224SOL     MW  896   1.533   0.833   2.610  0.3257  0.2668 -0.3881
  225SOL     OW  897   2.954   1.504   2.305 -0.5387  0.2344 -0.0526
  225SOL    HW1  898   3.017   1.561   2.259  0.9815 -1.0522 -1.4968
  225SOL    HW2  899   2.916   1.553   2.378 -1.4928 -2.7546 -0.4896
  225SOL     MW  900   2.957   1.518   2.309 -0.4640 -0.3298 -0.3008
  226SOL     OW  901   0.467   1.426   2.654 -0.3235  0.1210  0.7466
  226SOL    HW1  902   0.558   1.449   2.639  1.9433  1.9523  2.2596
  226SOL    HW2  903   0.431   1.511   2.643  0.3892 -1.2654  1.5975
  226SOL     MW  904   0.474   1.440   2.650  0.0696  0.1797  1.0585
  227SOL     OW  905   0.421   1.090   2.873  0.5771 -0.1327  0.1485
  227SOL    HW1  906   0.508   1.122   2.831  0.9375  2.1863 -1.0683
  227SOL    HW2  907   0.383   1.036   2.808 -2.1868  1.4852 -0.3784
  227SOL     MW  908   0.427   1.087   2.859  0.2600  0.3867 -0.0815
  228SOL     OW  909   0.733   0.980   2.048 -0.2118  0.0708  0.1267
  228SOL    HW1  910   0.822   1.003   2.010 -4.3581  1.5126  0.6096
  228SOL    HW2  911   0.739   0.922   2.127 -0.3049 -0.6946  0.6820
  228SOL     MW  912   0.745   0.975   2.053 -0.7711  0.1600  0.2637
  229SOL     OW  913   0.153   0.588   0.034  0.5211  0.7734  0.1127
  229SOL    HW1  914   0.111   0.554  -0.046  0.9120 -2.6467 -0.5251
  229SOL    HW2  915   0.159   0.507   0.085 -2.2117 -0.0553 -1.2699
  229SOL     MW  916   0.148   0.573   0.030  0.2121  0.2128 -0.1538
  230SOL     OW  917   1.771   1.377   2.021  0.0938 -0.1107  0.1856
  230SOL    HW1  918   1.754   1.366   2.112  0.3014 -0.1910 -0.3357
  230SOL    HW2  919   1.840   1.313   2.000  0.6900  1.2556 -2.3455
  230SOL     MW  920   1.778   1.367   2.030  0.1999  0.0589 -0.2171
  231SOL     OW  921   2.775   1.322   2.210  0.4681 -0.2581 -0.8269
  231SOL    HW1  922   2.849   1.382   2.220 -2.2536 -0.6480 -2.2560
  231SOL    HW2  923   2.707   1.384   2.175  0.3657  2.9566  1.9369
  231SOL     MW  924   2.776   1.338   2.207  0.0955  0.1146 -0.6508
  232SOL     OW  925   2.234   0.807   2.115 -0.2345  0.1077 -0.2043
  232SOL    HW1  926   2.177   0.862   2.059  0.3789 -2.9553  1.9844
  232SOL    HW2  927   2.215   0.845   2.200  0.8312 -0.0598 -0.4065
  232SOL     MW  928   2.224   0.819   2.119 -0.0129 -0.3185  0.0578
  233SOL     OW  929   2.046   0.468   1.949 -0.0729 -0.5616  0.0636
  233SOL    HW1  930   2.111   0.422   1.898 -1.9628  2.3295 -1.1289
  233SOL    HW2  931   2.080   0.482   2.039 -1.1029  1.4368 -0.9136
  233SOL     MW  932   2.059   0.464   1.954 -0.4581  0.0835 -0.2227
  234SOL     OW  933   0.279   1.009   2.431  0.3402  0.1619  1.0803
  234SOL    HW1  934   0.194   1.045   2.399  0.1068  1.2778 -1.9450
  234SOL    HW2  935   0.350   1.079   2.414  1.2486 -2.5874 -1.8083
  234SOL     MW  936   0.277   1.023   2.425  0.4293 -0.0536  0.3000
  235SOL     OW  937   1.150   3.054   2.721 -0.1625 -0.6972 -0.1237
  235SOL    HW1  938   1.157   3.008   2.810 -0.1156 -0.0922  0.5100
  235SOL    HW2  939   1.136   3.149   2.742  2.1718  0.2249 -1.4633
  235SOL     MW  940   1.149   3.060   2.736  0.1517 -0.4957 -0.2168
  236SOL     OW  941   2.943   0.523   3.100 -0.4326  0.0997  0.1573
  236SOL    HW1  942   2.846   0.526   3.077  0.9771  1.0281 -1.2107
  236SOL    HW2  943   2.963   0.615   3.117  1.2441  0.5107 -1.1384
  236SOL     MW  944   2.933   0.536   3.099 -0.0253  0.2764 -0.1942
  237SOL     OW  945   1.935   1.061   2.216  0.5091  0.8365  0.7085
  237SOL    HW1  946   1.959   1.063   2.126 -4.3660  1.7216  2.0898
  237SOL    HW2  947   1.866   1.124   2.217  0.5640 -0.9604 -0.8163
  237SOL     MW  948   1.929   1.069   2.204 -0.1269  0.7162  0.6896
  238SOL     OW  949   1.089   1.784   2.997 -0.4224  0.2032 -0.3663
  238SOL    HW1  950   1.040   1.701   2.981  1.4588  0.2567 -1.1474
  238SOL    HW2  951   1.185   1.771   3.003  1.0326 -2.2759 -0.6510
  238SOL     MW  952   1.096   1.771   2.996  0.0178 -0.1168 -0.5069
  239SOL     OW  953   1.257   1.373   2.360 -0.1169  0.2665 -0.4552
  239SOL    HW1  954   1.236   1.430   2.442  1.7309  1.0205  1.4134
  239SOL    HW2  955   1.255   1.277   2.397 -1.4603 -4.0593  0.6451
  239SOL     MW  956   1.254   1.368   2.376 -0.0504 -0.2047 -0.0635
  240SOL     OW  957   0.732   0.806   2.266  0.2323  0.3846  0.1300
  240SOL    HW1  958   0.731   0.872   2.336  1.6615 -0.6789 -0.2131
  240SOL    HW2  959   0.819   0.760   2.265 -0.8521  0.3529  1.0647
  240SOL     MW  960   0.743   0.809   2.275  0.2778  0.2401  0.2081
  241SOL     OW  961   0.645   0.388   0.001 -0.4534  0.6518 -0.2555
  241SOL    HW1  962   0.686   0.459   0.053 -1.8112  0.2593 -0.7695
  241SOL    HW2  963   0.547   0.392   0.004 -0.9589 -1.2710 -2.0932
  241SOL     MW  964   0.638   0.398   0.008 -0.6992  0.3463 -0.5658
  242SOL     OW  965   1.487   1.688   2.354  0.3813 -0.2065  0.7207
  242SOL    HW1  966   1.460   1.785   2.362 -0.8250  2.7207  1.8707
  242SOL    HW2  967   1.427   1.645   2.287  0.0443 -2.8409  1.8467
  242SOL     MW  968   1.475   1.695   2.347  0.1777 -0.1678  1.0210
  243SOL     OW  969   1.032   0.246   2.451 -0.0204 -0.1506  0.6141
  243SOL    HW1  970   1.119   0.244   2.408  0.7572  2.1867 -1.7235
  243SOL    HW2  971   1.046   0.324   2.505 -0.3308  1.1332 -0.1043
  243SOL     MW  972   1.045   0.256   2.452  0.0413  0.3272  0.2109
  244SOL     OW  973   0.245   0.737   2.352  0.0613  0.2115 -0.4219
  244SOL    HW1  974   0.265   0.828   2.374 -1.5961  1.4107 -0.3408
  244SOL    HW2  975   0.326   0.693   2.362  0.6176 -0.8593 -0.7376
  244SOL     MW  976   0.258   0.743   2.356 -0.0840  0.2284 -0.4528
  245SOL     OW  977   1.281   0.236   2.322 -0.5516 -0.2386 -0.0748
  245SOL    HW1  978   1.342   0.164   2.338  1.8871 -1.7703  0.0319
  245SOL    HW2  979   1.335   0.306   2.358  3.0107 -0.0340  0.4641
  245SOL     MW  980   1.296   0.236   2.329  0.2401 -0.4137  0.0104
  246SOL     OW  981   1.182   1.231   2.139  0.4448 -0.5962  0.7262
  246SOL    HW1  982   1.120   1.167   2.184 -1.1420 -1.9008  1.0904
  246SOL    HW2  983   1.217   1.275   2.214 -1.6903  2.1527 -2.1714
  246SOL     MW  984   1.178   1.229   2.155 -0.0463 -0.4056  0.3920
  247SOL     OW  985   0.774   0.587   0.128 -0.1457 -0.3508  0.5087
  247SOL    HW1  986   0.724   0.657   0.085 -0.5243 -1.1723  1.4715
  247SOL    HW2  987   0.863   0.605   0.100  0.8570  1.6461  0.2959
  247SOL     MW  988   0.779   0.599   0.119 -0.0634 -0.1957  0.6076
  248SOL     OW  989   0.477   1.208   2.437 -0.0421 -0.1336  0.6295
  248SOL    HW1  990   0.478   1.247   2.347  1.1593  0.9915  1.9995
  248SOL    HW2  991   0.457   1.281   2.498 -1.7495  1.1506 -0.6038
  248SOL     MW  992   0.474   1.223   2.433 -0.1089  0.1843  0.6475
  249SOL     OW  993   0.142   1.841   2.714  0.3963  0.0721  0.3641
  249SOL    HW1  994   0.125   1.759   2.658  1.3021  0.1504 -0.5237
  249SOL    HW2  995   0.151   1.811   2.808  0.6775 -1.5243  3.2016
  249SOL     MW  996   0.141   1.826   2.719  0.5529 -0.1282  0.6213
  250SOL     OW  997   2.180   0.861   2.397 -0.2789  0.3107 -0.6305
  250SOL    HW1  998   2.252   0.792   2.391  1.0359 -0.6773 -1.0297
  250SOL    HW2  999   2.221   0.944   2.429 -0.2182  0.3810 -2.8909
  250SOL     MW 1000   2.195   0.863   2.401 -0.0975  0.1896 -0.9814
  251SOL     OW 1001   0.151   0.940   2.040 -0.3168 -0.6999 -0.5814
  251SOL    HW1 1002   0.099   0.907   2.112 -1.7618  2.3025  3.1831
  251SOL    HW2 1003   0.165   0.864   1.977 -0.2744 -1.2847 -0.4113
  251SOL     MW 1004   0.146   0.926   2.041 -0.5019 -0.3809 -0.0623
  252SOL     OW 1005   1.703   0.990   2.880  0.5910 -0.0487 -0.6643
  252SOL    HW1 1006   1.714   1.078   2.921  1.9636 -2.0408  1.3023
  252SOL    HW2 1007   1.765   0.995   2.804  1.4686 -1.6497 -1.0484
  252SOL     MW 1008   1.712   1.002   2.875  0.8879 -0.5228 -0.4555
  253SOL     OW 1009   1.206   1.771   2.559  0.5084 -0.0338 -0.0239
  253SOL    HW1 1010   1.166   1.763   2.471 -0.3436 -1.6482 -1.2309
  253SOL    HW2 1011   1.160   1.832   2.608  4.2079 -0.8485 -0.3464
  253SOL     MW 1012   1.195   1.778   2.554  0.8841 -0.3543 -0.2257
  254SOL     OW 1013   1.025   1.033   2.277  0.0960 -0.5176 -0.0894
  254SOL    HW1 1014   1.008   0.942   2.254  2.2640  0.5217 -0.5895
  254SOL    HW2 1015   0.937   1.077   2.268  2.5590 -0.8112  0.8867
  254SOL     MW 1016   1.011   1.027   2.273  0.7070 -0.4192 -0.0266
  255SOL     OW 1017   0.815   2.545   2.220 -0.3444  0.2325  0.4090
  255SOL    HW1 1018   0.758   2.479   2.260 -1.6539  0.9459  1.6192
  255SOL    HW2 1019   0.907   2.531   2.247  1.7645  1.0716 -0.7935
  255SOL     MW 1020   0.820   2.535   2.229 -0.2389  0.4374  0.4100
  256SOL     OW 1021   1.228   2.780   2.833  0.0292 -0.7471  0.1479
  256SOL    HW1 1022   1.205   2.719   2.769  1.0219 -0.6660  3.6373
  256SOL    HW2 1023   1.323   2.800   2.839  0.9148 -1.9628 -0.9500
  256SOL     MW 1024   1.237   2.775   2.825  0.2770 -0.8968  0.4634
  257SOL     OW 1025   0.117   1.936   0.097 -0.0140 -0.3259 -0.0767
  257SOL    HW1 1026   0.160   1.906   0.177 -3.0208  0.2529  0.0319
  257SOL    HW2 1027   0.135   1.869   0.026 -2.1034 -0.5236 -1.1728
  257SOL     MW 1028   0.125   1.923   0.098 -0.6864 -0.2757 -0.2070
  258SOL     OW 1029   0.699   1.017   2.469 -0.2984  0.0707 -0.0219
  258SOL    HW1 1030   0.714   1.079   2.402 -3.5473 -0.6635  2.1440
  258SOL    HW2 1031   0.654   1.065   2.534 -4.4512 -1.2689  0.0460
  258SOL     MW 1032   0.695   1.032   2.469 -1.2750 -0.2029  0.2728
  259SOL     OW 1033   0.759   0.472   2.373  0.3203 -0.5459  0.4256
  259SOL    HW1 1034   0.689   0.536   2.383  1.4906 -1.4372  0.3915
  259SOL    HW2 1035   0.718   0.393   2.343  0.7185  0.1005  0.6450
  259SOL     MW 1036   0.744   0.470   2.370  0.5272 -0.5782  0.4500
  260SOL     OW 1037   0.534   0.131   1.606 -0.8632  0.1773  0.1936
  260SOL    HW1 1038   0.504   0.079   1.532  1.3305 -0.4413  0.2579
  260SOL    HW2 1039   0.634   0.134   1.598 -1.1342 -0.9043  3.6610
  260SOL     MW 1040   0.543   0.124   1.595 -0.6095 -0.0471  0.6596
  261SOL     OW 1041   1.288   0.737   2.017  0.5083  0.4561  0.1649
  261SOL    HW1 1042   1.290   0.750   2.113 -0.7578 -0.9482 -0.6883
  261SOL    HW2 1043   1.338   0.659   1.992 -1.4490  1.5012  0.2804
  261SOL     MW 1044   1.295   0.728   2.027  0.0830  0.4087  0.0676
  262SOL     OW 1045   1.109   0.303   0.150 -0.1010  0.5245 -0.0269
  262SOL    HW1 1046   1.201   0.289   0.126 -0.7122  0.9629  1.7491
  262SOL    HW2 1047   1.057   0.252   0.093  1.2434  0.1502  0.7110
  262SOL     MW 1048   1.114   0.294   0.139 -0.0043  0.5329  0.3048
  263SOL     OW 1049   0.436   3.054   2.530 -0.1011  0.8833 -0.6478
  263SOL    HW1 1050   0.358   3.108   2.518  1.2156  1.1597 -1.1868
  263SOL    HW2 1051   0.481   3.077   2.449 -3.0147  1.7899 -1.0070
  263SOL     MW 1052   0.431   3.064   2.518 -0.3118  1.0394 -0.7663
  264SOL     OW 1053   1.524   1.277   1.936 -0.0423 -0.1726 -0.1758
  264SOL    HW1 1054   1.486   1.244   2.016  0.2240 -2.3426 -2.6634
  264SOL    HW2 1055   1.605   1.317   1.972 -1.1264 -0.3246 -1.4063
  264SOL     MW 1056   1.530   1.278   1.952 -0.1502 -0.4790 -0.6664
  265SOL     OW 1057   0.667   2.796   2.268 -0.1685  0.3616  0.3637
  265SOL    HW1 1058   0.726   2.729   2.228  0.8462 -1.0605 -0.6106
  265SOL    HW2 1059   0.680   2.793   2.363 -1.3945 -2.7838 -2.7900
  265SOL     MW 1060   0.677   2.787   2.275 -0.1964 -0.2410 -0.1809
  266SOL     OW 1061   1.019   0.744   2.215 -0.1997 -0.7254  0.1493
  266SOL    HW1 1062   1.004   0.699   2.129  0.0987  4.1010 -0.8864
  266SOL    HW2 1063   1.106   0.737   2.252  0.3103 -0.9948  2.0793
  266SOL     MW 1064   1.028   0.737   2.209 -0.0930 -0.1242  0.2673
  267SOL     OW 1065   1.368   1.681   2.748  0.0715  0.4001  0.8078
  267SOL    HW1 1066   1.452   1.654   2.705 -0.5074  1.1599 -1.3621
  267SOL    HW2 1067   1.322   1.738   2.679  1.3527  1.3533  0.7306
  267SOL     MW 1068   1.373   1.685   2.733  0.1642  0.6261  0.5113
  268SOL     OW 1069   0.279   0.831   1.751 -0.0242  0.1935 -0.2977
  268SOL    HW1 1070   0.208   0.878   1.701 -1.2830 -0.5007 -0.6266
  268SOL    HW2 1071   0.268   0.738   1.723  1.6210  0.1866 -0.8125
  268SOL     MW 1072   0.269   0.825   1.741  0.0268  0.1010 -0.4090
  269SOL     OW 1073   1.402   1.946   2.358  0.0507  0.2491 -0.1104
  269SOL    HW1 1074   1.434   2.034   2.334 -0.0516  0.6248 -2.6718
  269SOL    HW2 1075   1.345   1.956   2.433 -3.6963  0.0657  1.9901
  269SOL     MW 1076   1.399   1.959   2.365 -0.4572  0.2745 -0.1712
  270SOL     OW 1077   1.180   0.373   1.589 -0.4570 -0.3769  0.3459
  270SOL    HW1 1078   1.144   0.305   1.648 -0.0353 -0.1192 -0.9842
  270SOL    HW2 1079   1.273   0.360   1.601 -1.4418  3.2291 -1.4765
  270SOL     MW 1080   1.188   0.362   1.598 -0.5313  0.1329 -0.0700
  271SOL     OW 1081   0.896   0.005   2.495  0.2870  0.4093  0.2015
  271SOL    HW1 1082   0.926  -0.009   2.581 -2.2164  0.4962 -1.1875
  271SOL    HW2 1083   0.947   0.083   2.460 -3.5121 -0.5884  1.6807
  271SOL     MW 1084   0.907   0.014   2.502 -0.5446  0.2891  0.2134
  272SOL     OW 1085   1.468   2.894   2.785  0.6161  0.5630 -0.0925
  272SOL    HW1 1086   1.462   2.948   2.709  0.1931  0.9861  2.0841
  272SOL    HW2 1087   1.517   2.952   2.839 -2.0790 -1.2569 -2.0409
  272SOL     MW 1088   1.474   2.908   2.782  0.2047  0.3787 -0.0624
  273SOL     OW 1089   1.436   0.925   2.851 -0.2339  0.8560  0.0539
  273SOL    HW1 1090   1.524   0.956   2.873 -2.1408  1.4902 -2.0765
  273SOL    HW2 1091   1.371   0.985   2.893  0.1976  3.2986  0.2672
  273SOL     MW 1092   1.439   0.937   2.860 -0.4285  1.2619 -0.1990
  274SOL     OW 1093   1.444   0.746   0.190  0.7882 -0.5014 -0.3998
  274SOL    HW1 1094   1.479   0.660   0.200 -0.2569  0.7615 -3.2427
  274SOL    HW2 1095   1.352   0.743   0.230  0.6256  0.5767  1.7758
  274SOL     MW 1096   1.437   0.735   0.197  0.6289 -0.1925 -0.4878
  275SOL     OW 1097   1.699   0.632   1.815  0.1621  0.0978  0.3780
  275SOL    HW1 1098   1.760   0.664   1.883  2.1011 -0.6183  3.2389
  275SOL    HW2 1099   1.709   0.534   1.820 -0.9232 -0.1999 -1.8274
  275SOL     MW 1100   1.708   0.623   1.825  0.2747 -0.0360  0.4645
  276SOL     OW 1101   0.280   1.216   1.820 -0.5756 -0.6396  0.5444
  276SOL    HW1 1102   0.326   1.174   1.895 -1.0116  0.3334 -0.3336
  276SOL    HW2 1103   0.192   1.230   1.844 -0.6447  1.4717  0.2408
  276SOL     MW 1104   0.274   1.212   1.833 -0.6422 -0.2327  0.3885
  277SOL     OW 1105   1.866   1.280   2.458  0.0701 -0.1121 -0.6300
  277SOL    HW1 1106   1.948   1.334   2.474 -1.0401 -1.2415 -0.1814
  277SOL    HW2 1107   1.897   1.192   2.484 -0.6944 -1.2476 -2.5040
  277SOL     MW 1108   1.881   1.276   2.464 -0.1773 -0.4110 -0.8181
  278SOL     OW 1109   1.441   0.617   1.700  0.2621 -0.2298  0.0167
  278SOL    HW1 1110   1.404   0.559   1.769  0.0654 -1.7083 -0.1280
  278SOL    HW2 1111   1.530   0.624   1.723 -0.3356  0.3639 -1.2471
  278SOL     MW 1112   1.448   0.610   1.712  0.1573 -0.3466 -0.1692
  279SOL     OW 1113   0.527   0.030   2.262 -0.3039 -0.4553  0.1362
  279SOL    HW1 1114   0.619   0.030   2.282  0.1145  1.5074  3.9857
  279SOL    HW2 1115   0.520   0.123   2.243 -0.6813  1.2969  1.5507
  279SOL     MW 1116   0.538   0.042   2.262 -0.2985  0.0348  0.8307
  280SOL     OW 1117   1.483   1.057   2.165 -0.2780 -0.3267 -0.5160
  280SOL    HW1 1118   1.537   0.995   2.115 -0.3715 -0.9790 -1.3349
  280SOL    HW2 1119   1.464   1.022   2.258  0.0412 -0.5201  0.6031
  280SOL     MW 1120   1.488   1.044   2.171 -0.2483 -0.4383 -0.4764
  281SOL     OW 1121   1.282   1.290   2.723  0.1696  0.3650  0.2715
  281SOL    HW1 1122   1.371   1.317   2.709 -3.3595 -1.2511 -2.5106
  281SOL    HW2 1123   1.286   1.235   2.799  1.3193  0.9675  1.2043
  281SOL     MW 1124   1.294   1.287   2.731 -0.1443  0.2313  0.0275
  282SOL     OW 1125   1.149   1.277   1.652  0.3742 -0.5153 -0.1866
  282SOL    HW1 1126   1.092   1.335   1.612  2.9061  0.6409 -0.0297
  282SOL    HW2 1127   1.126   1.287   1.747 -2.4413  1.2886 -1.3187
  282SOL     MW 1128   1.138   1.286   1.659  0.3368 -0.1247 -0.3152
  283SOL     OW 1129   0.689   1.290   3.024  0.7991 -0.2627 -0.8592
  283SOL    HW1 1130   0.771   1.266   3.072  1.6481  0.0802 -1.2459
  283SOL    HW2 1131   0.680   1.392   3.042  1.1464  1.9607  2.0944
  283SOL     MW 1132   0.699   1.300   3.033  0.9570  0.0759 -0.5205
  284SOL     OW 1133   0.523   0.649   2.385 -0.3857 -0.4186  0.6739
  284SOL    HW1 1134   0.583   0.709   2.341 -0.9255  1.0124 -0.2938
  284SOL    HW2 1135   0.488   0.606   2.304 -2.1368 -2.2940 -0.2113
  284SOL     MW 1136   0.526   0.651   2.368 -0.6880 -0.4772  0.4294
  285SOL     OW 1137   0.849   0.925   2.819  0.0707 -0.5008 -0.2523
  285SOL    HW1 1138   0.889   0.941   2.729 -1.5395 -0.4791 -2.1832
  285SOL    HW2 1139   0.818   0.835   2.814  0.2060 -0.9234 -0.1834
  285SOL     MW 1140   0.850   0.916   2.806 -0.1239 -0.5537 -0.4980
  286SOL     OW 1141   1.160   1.496   2.571  0.5399  0.4243  0.0414
  286SOL    HW1 1142   1.195   1.466   2.655 -0.4847 -2.1383 -1.8757
  286SOL    HW2 1143   1.180   1.589   2.572  1.1238  0.5896  0.3205
  286SOL     MW 1144   1.167   1.504   2.582  0.4818  0.1080 -0.1747
  287SOL     OW 1145   1.067   0.956   0.281  0.1258  0.7090  0.2918
  287SOL    HW1 1146   1.092   0.999   0.364  2.3554  0.0881 -2.5162
  287SOL    HW2 1147   0.973   0.965   0.270  0.6144 -0.0688 -0.8975
  287SOL     MW 1148   1.058   0.962   0.291  0.4845  0.5244 -0.2356
  288SOL     OW 1149   1.577   0.615   2.116 -0.4272 -0.7222  0.0751
  288SOL    HW1 1150   1.567   0.644   2.207 -3.7539 -2.2145  0.0541
  288SOL    HW2 1151   1.608   0.697   2.070 -2.5117  1.1751 -1.5620
  288SOL     MW 1152   1.580   0.629   2.122 -1.1411 -0.6688 -0.1437
  289SOL     OW 1153   0.936   1.025   2.581  0.1015  0.2638 -0.1548
  289SOL    HW1 1154   0.991   0.953   2.540 -0.3064  0.1533  2.3517
  289SOL    HW2 1155   0.854   1.035   2.531 -0.0140  1.1872 -2.5776
  289SOL     MW 1156   0.932   1.016   2.569  0.0325  0.3711 -0.1437
  290SOL     OW 1157   0.904   0.566   1.570  0.0196  0.6453 -0.3063
  290SOL    HW1 1158   0.960   0.523   1.504  1.6561 -2.4034  1.4163
  290SOL    HW2 1159   0.961   0.572   1.651 -0.2758  0.7036  1.9034
  290SOL     MW 1160   0.919   0.561   1.572  0.1965  0.2507  0.2125
  291SOL     OW 1161   0.182   0.327   0.144  0.5011 -0.6641  0.1559
  291SOL    HW1 1162   0.259   0.283   0.178  0.5582 -0.5060 -2.4859
  291SOL    HW2 1163   0.124   0.254   0.102  2.0981  0.9660  1.0827
  291SOL     MW 1164   0.185   0.311   0.143  0.7193 -0.4282 -0.0704
  292SOL     OW 1165   1.045   0.554   0.097 -0.0830  0.1497  0.2149
  292SOL    HW1 1166   1.095   0.618   0.156  0.8234  0.1328 -0.6859
  292SOL    HW2 1167   1.079   0.460   0.107 -1.0558  1.9622 -2.0963
  292SOL     MW 1168   1.056   0.550   0.106 -0.0918  0.3866 -0.2089
  293SOL     OW 1169   0.242   0.144   2.441 -0.2777 -0.2577  0.5149
  293SOL    HW1 1170   0.154   0.122   2.403  0.5596 -0.3201 -2.3625
  293SOL    HW2 1171   0.218   0.204   2.511 -0.1971  1.5264  1.1949
  293SOL     MW 1172   0.227   0.149   2.445 -0.1566 -0.0306  0.2250
  294SOL     OW 1173   1.500   0.630   2.393  0.0367  0.2289 -0.1987
  294SOL    HW1 1174   1.544   0.668   2.470 -1.5825  2.7156  0.4547
  294SOL    HW2 1175   1.482   0.543   2.418  1.1370  4.5982 -2.2090
  294SOL     MW 1176   1.503   0.624   2.407 -0.0318  1.1335 -0.3777
  295SOL     OW 1177   0.895   0.664   2.501 -0.0153 -0.2277  0.1025
  295SOL    HW1 1178   0.860   0.585   2.453  0.6009  4.5087  0.7229
  295SOL    HW2 1179   0.877   0.657   2.597  1.3946 -1.5778 -1.1480
  295SOL     MW 1180   0.888   0.653   2.508  0.2520  0.2191  0.0193
  296SOL     OW 1181   1.259   0.270   2.052  0.1001 -0.5607 -0.2200
  296SOL    HW1 1182   1.332   0.205   2.040 -0.7574  0.0078  0.3272
  296SOL    HW2 1183   1.269   0.270   2.147 -0.5544 -1.1028 -1.2558
  296SOL     MW 1184   1.270   0.261   2.063 -0.0994 -0.5572 -0.2845
  297SOL     OW 1185   1.461   0.343   1.598 -0.3377 -0.0798  0.2084
  297SOL    HW1 1186   1.513   0.424   1.607  0.0304  0.0466 -2.0996
  297SOL    HW2 1187   1.495   0.282   1.665 -3.9075  0.3973  2.1469
  297SOL     MW 1188   1.472   0.346   1.608 -0.7602 -0.0002  0.1596
  298SOL     OW 1189   1.651   0.873   1.993 -0.1426 -0.1843 -0.1886
  298SOL    HW1 1190   1.618   0.932   1.919  0.4434 -0.7568 -2.0288
  298SOL    HW2 1191   1.745   0.880   1.979 -0.8125  0.6742 -2.1640
  298SOL     MW 1192   1.659   0.882   1.981 -0.1537 -0.1466 -0.6920
  299SOL     OW 1193   0.556   1.050   0.012 -0.3620 -0.1912  0.4337
  299SOL    HW1 1194   0.592   1.138   0.012 -0.2074 -2.4042  0.0968
  299SOL    HW2 1195   0.510   1.065  -0.071 -2.4668  1.2089  1.0004
  299SOL     MW 1196   0.555   1.064   0.001 -0.6193 -0.2985  0.4640
  300SOL     OW 1197   1.205   1.151   2.511  0.5533 -0.3052  0.3995
  300SOL    HW1 1198   1.116   1.113   2.507  4.3333 -0.0542 -3.7595
  300SOL    HW2 1199   1.230   1.194   2.597  0.3593  0.0203 -0.4601
  300SOL     MW 1200   1.196   1.152   2.522  1.0265 -0.2292 -0.2626
  301SOL     OW 1201   1.378   0.918   0.689 -0.1100  0.5947  0.1757
  301SOL    HW1 1202   1.421   0.942   0.777  0.7758  0.5870 -1.1362
  301SOL    HW2 1203   1.305   0.860   0.725  1.5316 -1.6117  0.5099
  301SOL     MW 1204   1.374   0.913   0.706  0.2235  0.3026  0.0467
  302SOL     OW 1205   0.111   1.491   2.035  0.4084 -0.6054  0.1784
  302SOL    HW1 1206   0.149   1.414   2.086  1.0390  1.3027 -2.7265
  302SOL    HW2 1207   0.090   1.560   2.103  1.4693 -0.0467  0.2676
  302SOL     MW 1208   0.114   1.490   2.051  0.6316 -0.2799 -0.1931
  303SOL     OW 1209   0.392   1.693   2.635 -0.0688  0.2530  0.3925
  303SOL    HW1 1210   0.358   1.675   2.546  2.3523  1.4520  0.2457
  303SOL    HW2 1211   0.362   1.777   2.671  1.8606 -0.6113 -0.2860
  303SOL     MW 1212   0.383   1.702   2.628  0.5052  0.2972  0.2836
  304SOL     OW 1213   0.637   2.047   2.354 -0.3026 -0.6685 -0.0680
  304SOL    HW1 1214   0.664   2.109   2.289 -1.0022  0.3800 -1.0205
  304SOL    HW2 1215   0.719   1.997   2.368  0.8706 -0.5831  0.2952
  304SOL     MW 1216   0.651   2.049   2.347 -0.2401 -0.5189 -0.1458
  305SOL     OW 1217   1.100   0.570   0.522  0.1129  0.0062 -0.1817
  305SOL    HW1 1218   1.010   0.592   0.508  1.7752 -2.4077 -0.5506
  305SOL    HW2 1219   1.105   0.486   0.571  0.5988  1.8739 -1.1624
  305SOL     MW 1220   1.089   0.562   0.526  0.3963 -0.0658 -0.3598
  306SOL     OW 1221   1.239   1.480   0.267  0.5134  0.0099 -0.1565
  306SOL    HW1 1222   1.251   1.401   0.314  1.6915  0.2910  0.7544
  306SOL    HW2 1223   1.306   1.473   0.196 -3.5841 -0.4457  1.6111
  306SOL     MW 1224   1.249   1.469   0.264  0.1282 -0.0132  0.1969
  307SOL     OW 1225   1.396   0.495   1.941  0.1660  0.5012 -0.1225
  307SOL    HW1 1226   1.352   0.411   1.964 -0.2029 -2.5893  1.3721
  307SOL    HW2 1227   1.469   0.526   2.004  1.9808  2.1102  1.8707
  307SOL     MW 1228   1.399   0.488   1.953  0.3568  0.3058  0.3377
  308SOL     OW 1229   2.137   0.599   2.700  0.4005  0.2880  0.5936
  308SOL    HW1 1230   2.229   0.558   2.713  1.4361 -2.5120 -0.8274
  308SOL    HW2 1231   2.152   0.690   2.711  0.4020 -1.5814 -3.0873
  308SOL     MW 1232   2.151   0.605   2.703  0.5373 -0.3281 -0.0795
  309SOL     OW 1233   0.398   0.371   0.406  0.1453 -0.3666 -0.4714
  309SOL    HW1 1234   0.484   0.345   0.440  0.4225 -0.3381 -0.4637
  309SOL    HW2 1235   0.389   0.313   0.332  0.4612 -1.3978  1.1915
  309SOL     MW 1236   0.408   0.360   0.401  0.2236 -0.4989 -0.2510
  310SOL     OW 1237   0.486   0.598   1.925  0.1435  0.4538  0.3182
  310SOL    HW1 1238   0.533   0.532   1.870  1.4706  0.6602  1.5413
  310SOL    HW2 1239   0.530   0.685   1.901  0.6992  0.4734 -0.9222
  310SOL     MW 1240   0.498   0.600   1.915  0.3919  0.4837  0.3159
  311SOL     OW 1241   1.920   0.720   1.965  0.7803 -0.5673 -0.2480
  311SOL    HW1 1242   1.901   0.717   2.057  0.9914  1.3281 -2.0094
  311SOL    HW2 1243   1.965   0.631   1.942 -0.7481 -1.5571 -0.4481
  311SOL     MW 1244   1.924   0.708   1.974  0.6065 -0.4478 -0.5068
  312SOL     OW 1245   1.670   2.499   0.106  0.1415 -0.3356 -0.6978
  312SOL    HW1 1246   1.730   2.517   0.181 -0.3288  0.3375  0.8592
  312SOL    HW2 1247   1.599   2.557   0.124  1.8175  0.3963  2.9179
  312SOL     MW 1248   1.669   2.509   0.118  0.3006 -0.1503 -0.0153
  313SOL     OW 1249   0.103   1.218   2.970  0.1671 -0.1158 -0.4166
  313SOL    HW1 1250   0.139   1.192   3.056 -0.1613  4.4150  0.2533
  313SOL    HW2 1251   0.175   1.264   2.927  3.9138  0.6661 -1.9429
  313SOL     MW 1252   0.117   1.220   2.976  0.6181  0.5851 -0.5296
  314SOL     OW 1253   2.111   2.975   3.002 -0.0160  0.4785 -0.1599
  314SOL    HW1 1254   2.053   3.032   2.951 -2.2349 -0.7669  0.8932
  314SOL    HW2 1255   2.173   3.024   3.054  2.8587 -0.1088 -1.9955
  314SOL     MW 1256   2.112   2.989   3.002  0.0705  0.2367 -0.2632
  315SOL     OW 1257   1.513   1.913   0.041 -0.2080 -0.0168 -0.4512
  315SOL    HW1 1258   1.428   1.969   0.055 -0.5991  1.3528  0.0606
  315SOL    HW2 1259   1.548   1.953  -0.039 -0.7337 -0.7923 -0.9654
  315SOL     MW 1260   1.506   1.926   0.033 -0.3290  0.0616 -0.4515
  316SOL     OW 1261   1.307   0.666   2.705  0.0389  0.3264  0.4472
  316SOL    HW1 1262   1.387   0.720   2.698  0.0852  0.4431 -1.6618
  316SOL    HW2 1263   1.264   0.684   2.793 -2.0159 -2.3558  2.2275
  316SOL     MW 1264   1.312   0.676   2.716 -0.2261 -0.0121  0.4038
  317SOL     OW 1265   0.717   1.510   2.557  0.3900  0.1962  0.3863
  317SOL    HW1 1266   0.778   1.436   2.543  3.4161  2.3218  0.1023
  317SOL    HW2 1267   0.702   1.543   2.466 -0.5197  1.4446  0.1341
  317SOL     MW 1268   0.723   1.505   2.543  0.6693  0.6413  0.3156
  318SOL     OW 1269   1.335   0.394   2.932 -0.0176 -0.3153  0.0271
  318SOL    HW1 1270   1.256   0.446   2.912 -1.8171  3.1815 -0.4305
  318SOL    HW2 1271   1.410   0.449   2.908  0.3676  0.7788 -1.0486
  318SOL     MW 1272   1.334   0.408   2.926 -0.2042  0.2904 -0.1752
  319SOL     OW 1273   0.765   0.397   2.868  0.1122 -0.6362 -0.0898
  319SOL    HW1 1274   0.704   0.356   2.804 -2.2455 -0.6085  0.7515
  319SOL    HW2 1275   0.713   0.391   2.952  0.1410 -0.0766 -0.0205
  319SOL     MW 1276   0.750   0.390   2.871 -0.1951 -0.5587  0.0303
  320SOL     OW 1277   1.059   1.334   1.923 -0.0893 -0.2253 -0.3662
  320SOL    HW1 1278   1.104   1.289   2.000 -0.5699  0.8547  1.9238
  320SOL    HW2 1279   1.116   1.415   1.904 -1.5258  3.4471  0.7809
  320SOL     MW 1280   1.073   1.339   1.931 -0.3422  0.4017  0.0873
  321SOL     OW 1281   1.046   0.985   3.032 -0.5057 -0.7852 -0.1044
  321SOL    HW1 1282   0.985   0.961   2.958 -0.1794  1.8544 -2.9105
  321SOL    HW2 1283   1.108   0.913   3.054  1.1685 -0.6894 -1.9740
  321SOL     MW 1284   1.046   0.973   3.025 -0.2418 -0.4243 -0.7213
  322SOL     OW 1285   1.237   0.807   1.710  0.7956  0.5157 -0.2163
  322SOL    HW1 1286   1.296   0.740   1.674  1.7511 -1.7646 -0.8094
  322SOL    HW2 1287   1.279   0.850   1.782  1.4457 -0.2404  0.3473
  322SOL     MW 1288   1.250   0.803   1.714  1.0074  0.1150 -0.2202
  323SOL     OW 1289   1.208   1.542   1.888  0.2442  0.3415 -0.4234
  323SOL    HW1 1290   1.243   1.532   1.801 -0.5908 -1.0871  2.0978
  323SOL    HW2 1291   1.139   1.609   1.872  1.1949  0.8875  1.9462
  323SOL     MW 1292   1.204   1.549   1.874  0.2594  0.2250  0.2219
  324SOL     OW 1293   1.470   1.015   2.428 -0.4577 -0.1319  0.2694
  324SOL    HW1 1294   1.376   1.016   2.466  2.8814  2.5203 -1.8117
  324SOL    HW2 1295   1.514   1.094   2.465 -2.4131 -1.0067 -1.0306
  324SOL     MW 1296   1.463   1.026   2.438 -0.2751  0.1026 -0.1767
  325SOL     OW 1297   1.092   0.500   2.912  0.2220 -0.5245  0.5703
  325SOL    HW1 1298   1.067   0.521   3.002 -0.9348  0.5550 -0.5544
  325SOL    HW2 1299   1.012   0.494   2.856 -4.0816 -1.0816  0.3045
  325SOL     MW 1300   1.078   0.502   2.917 -0.4984 -0.4556  0.3868
  326SOL     OW 1301   0.472   1.336   2.185 -0.1566  0.1307 -1.2090
  326SOL    HW1 1302   0.537   1.280   2.136  1.1210 -1.5605 -1.1769
  326SOL    HW2 1303   0.505   1.426   2.180  0.2704 -2.4618 -0.8212
  326SOL     MW 1304   0.485   1.340   2.178  0.0683 -0.4345 -1.1536
  327SOL     OW 1305   1.906   0.847   2.454  0.4362 -0.4900  0.0042
  327SOL    HW1 1306   1.909   0.767   2.516  0.5432 -2.0227  1.1377
  327SOL    HW2 1307   2.002   0.871   2.430  0.9042  0.4467  1.5720
  327SOL     MW 1308   1.919   0.840   2.459  0.5121 -0.5686  0.3606
  328SOL     OW 1309   0.204   1.279   2.199 -0.1230  0.3550 -0.5771
  328SOL    HW1 1310   0.148   1.220   2.154  1.5904  0.7197  0.7958
  328SOL    HW2 1311   0.295   1.258   2.170  2.0198 -0.1371 -0.4204
  328SOL     MW 1312   0.209   1.268   2.189  0.3858  0.3382 -0.3753
  329SOL     OW 1313   0.118   0.061   1.374 -0.5495 -0.3802 -1.0041
  329SOL    HW1 1314   0.107   0.110   1.453  0.3001 -0.9919 -0.8978
  329SOL    HW2 1315   0.206   0.095   1.352  5.1746 -1.9143  0.6993
  329SOL     MW 1316   0.128   0.072   1.382  0.3179 -0.6633 -0.7653
  330SOL     OW 1317   0.305   3.098   2.079  0.1060  0.3149  0.1999
  330SOL    HW1 1318   0.375   3.101   2.146  2.5546 -0.7313 -2.0214
  330SOL    HW2 1319   0.239   3.048   2.120 -1.6929 -1.3438  0.1641
  330SOL     MW 1320   0.305   3.091   2.093  0.1917 -0.0420 -0.0979
  331SOL     OW 1321   0.823   1.205   2.279  0.3135  0.1634 -0.0885
  331SOL    HW1 1322   0.786   1.244   2.202  1.5612  0.3603  1.0868
  331SOL    HW2 1323   0.896   1.262   2.311  2.6446 -0.5865 -1.2521
  331SOL     MW 1324   0.828   1.218   2.273  0.7857  0.0904 -0.0870
  332SOL     OW 1325   1.366   1.697   3.013  0.1715  0.3988  0.4189
  332SOL    HW1 1326   1.363   1.716   2.912  0.5438 -0.0612  1.5335
  332SOL    HW2 1327   1.428   1.762   3.051  2.6242  1.2512  1.0959
  332SOL     MW 1328   1.374   1.708   3.005  0.5442  0.4506  0.6552
  333SOL     OW 1329   1.787   1.438   2.960 -0.6155 -0.5746 -0.0939
  333SOL    HW1 1330   1.889   1.453   2.966  1.3239  1.1686 -4.1776
  333SOL    HW2 1331   1.758   1.432   3.050 -1.1262  2.3823 -1.3488
  333SOL     MW 1332   1.797   1.439   2.973 -0.4270  0.0455 -0.7983
  334SOL     OW 1333   1.407   3.089   2.568  0.5345  0.3505  0.0752
  334SOL    HW1 1334   1.326   3.060   2.611 -0.2510 -0.6776 -0.7682
  334SOL    HW2 1335   1.425   3.171   2.614 -1.6693 -0.6142  0.2834
  334SOL     MW 1336   1.399   3.096   2.580  0.1401  0.0876 -0.0086
  335SOL     OW 1337   1.261   0.768   3.010  0.4577 -0.2795 -0.1258
  335SOL    HW1 1338   1.287   0.692   3.060 -1.7649 -1.2480 -1.7461
  335SOL    HW2 1339   1.341   0.807   2.983 -2.3497  0.7146 -1.6231
  335SOL     MW 1340   1.275   0.763   3.013 -0.2059 -0.2761 -0.5371
  336SOL     OW 1341   0.952   1.071   1.918  0.6021 -0.1411  0.2048
  336SOL    HW1 1342   0.970   1.165   1.926  0.3427  0.4505  0.0540
  336SOL    HW2 1343   1.035   1.025   1.927 -0.1716 -1.6436  2.8416
  336SOL     MW 1344   0.965   1.077   1.920  0.4658 -0.2613  0.5328
  337SOL     OW 1345   0.618   1.780   2.804 -0.5285  0.0672 -0.7065
  337SOL    HW1 1346   0.574   1.735   2.733 -1.3426 -1.3855  1.2448
  337SOL    HW2 1347   0.715   1.760   2.788  2.4350  1.3464  1.1361
  337SOL     MW 1348   0.625   1.771   2.792 -0.2449  0.0444 -0.2060
  338SOL     OW 1349   1.140   0.820   2.516 -0.1695 -0.8435 -0.1596
  338SOL    HW1 1350   1.067   0.759   2.493  0.5122  0.3397 -2.0431
  338SOL    HW2 1351   1.201   0.772   2.577 -0.3403 -2.4823  1.4555
  338SOL     MW 1352   1.139   0.806   2.521 -0.1021 -0.9036 -0.1950
  339SOL     OW 1353   1.554   1.056   1.805 -0.0306  0.0085  0.4342
  339SOL    HW1 1354   1.481   1.053   1.738 -2.8791  2.4056 -1.1630
  339SOL    HW2 1355   1.535   1.140   1.852  1.5658 -0.1218  0.2018
  339SOL     MW 1356   1.542   1.067   1.802 -0.1958  0.3076  0.1928
  340SOL     OW 1357   1.402   1.462   0.053 -0.1542 -0.2063 -0.3116
  340SOL    HW1 1358   1.410   1.545   0.008  2.0560 -0.1469  3.7581
  340SOL    HW2 1359   1.496   1.437   0.063 -0.0083  0.1962  0.4129
  340SOL     MW 1360   1.416   1.469   0.048  0.1566 -0.1453  0.3209
  341SOL     OW 1361   0.121   1.399   2.687  0.7387 -0.0342  0.1825
  341SOL    HW1 1362   0.202   1.353   2.688 -0.3285 -0.1719  0.1941
  341SOL    HW2 1363   0.071   1.357   2.612  0.7791 -0.4246  2.6438
  341SOL     MW 1364   0.125   1.388   2.678  0.6032 -0.1039  0.5087
  342SOL     OW 1365   1.373   0.297   0.086 -0.2148 -0.0990  0.0861
  342SOL    HW1 1366   1.442   0.351   0.121 -2.0692 -0.8115  1.0624
  342SOL    HW2 1367   1.356   0.336  -0.002 -1.0652 -0.4282 -0.4059
  342SOL     MW 1368   1.380   0.309   0.079 -0.5717 -0.2364  0.1500
  343SOL     OW 1369   0.224   0.303   2.215  0.3948  0.1699 -0.3885
  343SOL    HW1 1370   0.258   0.222   2.258  1.7734 -0.8242 -3.1240
  343SOL    HW2 1371   0.187   0.283   2.129 -0.2795  0.2102  0.5482
  343SOL     MW 1372   0.224   0.290   2.209  0.4877  0.0441 -0.6258
  344SOL     OW 1373   1.695   2.061   0.177  0.0941  0.4756 -0.4476
  344SOL    HW1 1374   1.718   2.110   0.096  1.3970 -0.4477  0.7577
  344SOL    HW2 1375   1.623   2.006   0.156  1.7559 -0.8791  1.5688
  344SOL     MW 1376   1.689   2.060   0.164  0.4853  0.1751 -0.0225
  345SOL     OW 1377   0.732   1.646   2.307 -0.1218  0.2679  0.1367
  345SOL    HW1 1378   0.643   1.624   2.268 -2.8790  0.4536 -0.6317
  345SOL    HW2 1379   0.787   1.601   2.244  1.8132 -0.8311 -0.4297
  345SOL     MW 1380   0.728   1.637   2.294 -0.2303  0.1474 -0.0394
  346SOL     OW 1381   1.737   1.136   0.024 -0.4379  0.0769 -0.4472
  346SOL    HW1 1382   1.831   1.130   0.008 -1.6491 -0.2948 -1.2527
  346SOL    HW2 1383   1.725   1.066   0.085  1.7527 -0.7913 -0.7019
  346SOL     MW 1384   1.748   1.126   0.030 -0.3086 -0.0867 -0.5871
  347SOL     OW 1385   1.279   0.773   2.294  0.5006  0.0761 -0.0114
  347SOL    HW1 1386   1.345   0.720   2.341 -1.0415  1.0929  1.3103
  347SOL    HW2 1387   1.243   0.821   2.364  1.7974 -0.6142 -2.2491
  347SOL     MW 1388   1.283   0.772   2.309  0.4683  0.1192 -0.1323
  348SOL     OW 1389   1.367   2.611   1.863  0.7139 -0.2116 -0.0019
  348SOL    HW1 1390   1.421   2.540   1.906  0.0443  2.4481  0.5532
  348SOL    HW2 1391   1.396   2.691   1.907  4.4561  0.2426 -0.6533
  348SOL     MW 1392   1.378   2.612   1.874  1.1193  0.1993 -0.0146
  349SOL     OW 1393   1.415   0.259   2.712  0.5727 -0.1022 -0.1845
  349SOL    HW1 1394   1.364   0.306   2.779  1.9806  0.0718 -1.2479
  349SOL    HW2 1395   1.503   0.271   2.751  2.0077 -0.4440  0.6188
  349SOL     MW 1396   1.420   0.267   2.726  0.9478 -0.1244 -0.2188
  350SOL     OW 1397   1.891   0.640   2.620 -0.9184  0.1777  0.3657
  350SOL    HW1 1398   1.852   0.559   2.585 -0.6538  1.0714  0.3782
  350SOL    HW2 1399   1.986   0.626   2.644  3.1186 -0.7395 -0.7302
  350SOL     MW 1400   1.898   0.627   2.619 -0.3509  0.1746  0.2228
  351SOL     OW 1401   0.071   0.949   1.564 -0.4932  0.5374 -0.8131
  351SOL    HW1 1402  -0.006   0.994   1.603 -2.5145  0.5979 -1.6889
  351SOL    HW2 1403   0.123   1.018   1.524 -0.0467 -3.2272 -0.1619
  351SOL     MW 1404   0.068   0.964   1.564 -0.7009  0.0487 -0.8428
  352SOL     OW 1405   0.856   1.675   2.713  0.3082 -0.1190 -0.1017
  352SOL    HW1 1406   0.900   1.609   2.759 -1.8717  1.9239  0.7865
  352SOL    HW2 1407   0.810   1.621   2.644  1.5335 -1.3565 -1.8273
  352SOL     MW 1408   0.856   1.659   2.710  0.1823 -0.0128 -0.2122
  353SOL     OW 1409   3.075   2.448   2.732  0.5504 -0.5896 -0.0921
  353SOL    HW1 1410   3.155   2.400   2.733  2.4938  2.9768  2.4965
  353SOL    HW2 1411   3.074   2.510   2.657  2.4958  0.0444 -3.7036
  353SOL     MW 1412   3.086   2.449   2.722  1.0635 -0.0354 -0.2271
  354SOL     OW 1413   0.363   2.493   0.843 -0.1944  0.8389 -0.0915
  354SOL    HW1 1414   0.380   2.465   0.935  2.4732 -0.3175  0.6219
  354SOL    HW2 1415   0.292   2.427   0.813 -0.2244 -1.8604 -2.0269
  354SOL     MW 1416   0.356   2.480   0.851  0.1536  0.3302 -0.2527
  355SOL     OW 1417   0.027   2.236   0.371 -0.0380  0.6201  0.2029
  355SOL    HW1 1418  -0.047   2.174   0.365  0.4692  0.9515  2.0163
  355SOL    HW2 1419   0.015   2.282   0.451  1.0516 -0.7227  0.1373
  355SOL     MW 1420   0.016   2.234   0.381  0.1727  0.4867  0.4335
  356SOL     OW 1421   0.844   2.876   1.046 -0.8483 -0.1859 -0.3822
  356SOL    HW1 1422   0.886   2.879   0.958  0.1779 -0.4390 -1.1895
  356SOL    HW2 1423   0.753   2.855   1.032 -2.5678 -1.4892 -1.3728
  356SOL     MW 1424   0.837   2.874   1.032 -0.9398 -0.3913 -0.6194
  357SOL     OW 1425   1.799   2.942   0.413  0.4730 -0.3714  0.4868
  357SOL    HW1 1426   1.737   2.893   0.471 -0.6451  0.3977 -2.1386
  357SOL    HW2 1427   1.862   2.881   0.403 -3.1054  3.9122 -0.7159
  357SOL     MW 1428   1.799   2.928   0.419 -0.1466  0.2952 -0.0183
  358SOL     OW 1429   0.474   0.065   1.071  0.2661 -0.0269  0.2338
  358SOL    HW1 1430   0.568   0.066   1.046 -0.0018 -0.7188 -2.4612
  358SOL    HW2 1431   0.438   0.114   0.996 -0.8195  1.4653  0.3824
  358SOL     MW 1432   0.482   0.072   1.058  0.0875  0.0787 -0.1022
  359SOL     OW 1433   0.885   2.837   1.829 -0.5743  0.4951 -0.1697
  359SOL    HW1 1434   0.890   2.741   1.852  1.0678  0.8927  0.8733
  359SOL    HW2 1435   0.961   2.853   1.763  3.4841  1.6740  0.7719
  359SOL     MW 1436   0.896   2.826   1.823  0.1778  0.7031  0.0921
  360SOL     OW 1437   0.583   2.804   1.018 -0.1535 -0.1050  0.0511
  360SOL    HW1 1438   0.583   2.762   0.929  1.9059  1.4315  0.5203
  360SOL    HW2 1439   0.582   2.725   1.072 -1.9067  1.3872 -0.6547
  360SOL     MW 1440   0.583   2.788   1.013 -0.1131  0.2946  0.0199
  361SOL     OW 1441   0.194   2.714   1.342  0.0947 -0.1172 -0.0057
  361SOL    HW1 1442   0.157   2.794   1.384  0.8520 -2.3659 -1.6727
  361SOL    HW2 1443   0.287   2.705   1.367  1.5952  1.6492  2.5061
  361SOL     MW 1444   0.201   2.723   1.351  0.3926 -0.1808  0.1057
  362SOL     OW 1445   1.470   2.446   0.652  0.2429 -0.0528  0.0805
  362SOL    HW1 1446   1.511   2.366   0.674  0.2848 -0.4387  3.2873
  362SOL    HW2 1447   1.490   2.515   0.719 -0.4672  0.7457 -1.0509
  362SOL     MW 1448   1.478   2.445   0.664  0.1547  0.0016  0.3543
  363SOL     OW 1449   0.299   3.065   0.714 -0.3258 -0.3926  0.8991
  363SOL    HW1 1450   0.297   2.995   0.781  3.4091  1.8241 -0.1394
  363SOL    HW2 1451   0.212   3.061   0.671  0.8349 -2.3760  0.9986
  363SOL     MW 1452   0.287   3.055   0.717  0.3201 -0.3618  0.7752
  364SOL     OW 1453   0.697   0.206   0.237  0.0040 -0.7053 -0.0085
  364SOL    HW1 1454   0.631   0.143   0.244  0.0625 -0.3184  0.2297
  364SOL    HW2 1455   0.665   0.276   0.181  1.6866 -1.2710  0.7585
  364SOL     MW 1456   0.684   0.207   0.231  0.2337 -0.7289  0.1241
  365SOL     OW 1457   0.986   1.937   1.100  0.4468 -0.6637  0.1188
  365SOL    HW1 1458   0.962   2.022   1.050  0.3331  2.8006  0.2416
  365SOL    HW2 1459   0.934   1.877   1.041 -1.8481 -1.1122 -2.1570
  365SOL     MW 1460   0.976   1.941   1.085  0.1290 -0.2658 -0.1653
  366SOL     OW 1461   2.851   2.618   1.071 -0.0260  0.0579 -0.4100
  366SOL    HW1 1462   2.912   2.629   1.139 -2.2250  0.1820 -1.4552
  366SOL    HW2 1463   2.897   2.628   0.985 -0.1051  0.2004 -1.5918
  366SOL     MW 1464   2.865   2.621   1.069 -0.3266  0.0931 -0.7038
  367SOL     OW 1465   1.244   2.856   0.907  0.5116  0.3832  0.2301
  367SOL    HW1 1466   1.205   2.939   0.901 -3.6598 -3.6393 -2.4488
  367SOL    HW2 1467   1.232   2.820   0.817 -0.2226 -0.5946 -0.6407
  367SOL     MW 1468   1.237   2.863   0.895 -0.1356 -0.2766 -0.2383
  368SOL     OW 1469   1.669   0.430   0.671 -0.3044 -0.1615  0.2031
  368SOL    HW1 1470   1.756   0.394   0.660  0.0981 -1.0651 -0.2171
  368SOL    HW2 1471   1.669   0.526   0.699 -0.7500  0.3636  1.0235
  368SOL     MW 1472   1.680   0.438   0.673 -0.3101 -0.2115  0.2559
  369SOL     OW 1473   0.172   2.480   1.660  0.4321  0.5293 -0.4117
  369SOL    HW1 1474   0.259   2.487   1.696 -0.5831  1.2147  2.4621
  369SOL    HW2 1475   0.122   2.560   1.680 -1.0511 -0.4896 -1.1104
  369SOL     MW 1476   0.177   2.491   1.668  0.1025  0.4853 -0.1247
  370SOL     OW 1477   0.739   0.054   0.997 -0.1605 -0.5069 -0.3828
  370SOL    HW1 1478   0.772   0.134   1.039 -0.5933  1.7244 -0.8131
  370SOL    HW2 1479   0.777  -0.010   1.052 -3.4409  0.0920  1.5576
  370SOL     MW 1480   0.748   0.056   1.010 -0.6505 -0.1335 -0.1835
  371SOL     OW 1481   1.335   2.973   1.521  0.2703 -0.6287 -0.1701
  371SOL    HW1 1482   1.294   2.895   1.477 -1.3314  0.0607  1.8857
  371SOL    HW2 1483   1.322   3.046   1.457 -1.8064  0.1397 -0.4959
  371SOL     MW 1484   1.328   2.973   1.507 -0.2150 -0.4364  0.0581
  372SOL     OW 1485   0.765   2.333   0.450 -0.6096  0.4418  0.1347
  372SOL    HW1 1486   0.713   2.248   0.449 -0.0717 -0.3328  2.3168
  372SOL    HW2 1487   0.790   2.336   0.352 -1.2921 -1.2513 -0.9528
  372SOL     MW 1488   0.762   2.322   0.437 -0.6287  0.1162  0.2791
  373SOL     OW 1489   2.791   3.026   1.403 -0.1612  0.1804  0.5292
  373SOL    HW1 1490   2.845   2.981   1.337 -0.4639  2.1459  0.5105
  373SOL    HW2 1491   2.790   3.115   1.368  0.5983 -0.7120  3.7341
  373SOL     MW 1492   2.798   3.032   1.390 -0.1010  0.3220  0.9496
  374SOL     OW 1493   1.534   0.474   0.211  0.1415 -0.2148 -0.4456
  374SOL    HW1 1494   1.632   0.474   0.209 -1.5700 -2.8167 -2.7763
  374SOL    HW2 1495   1.513   0.475   0.304 -2.2284 -1.0469 -1.1736
  374SOL     MW 1496   1.544   0.474   0.223 -0.3970 -0.6678 -0.8492
  375SOL     OW 1497   1.112   2.091   2.292  0.4943 -0.4263  0.1878
  375SOL    HW1 1498   1.161   2.114   2.368  1.1053  0.0248  1.1016
  375SOL    HW2 1499   1.104   1.997   2.300 -1.0131 -1.2927 -0.1321
  375SOL     MW 1500   1.117   2.082   2.303  0.3761 -0.4811  0.2661
  376SOL     OW 1501   0.673   2.516   0.068  0.5036  0.2673 -0.5290
  376SOL    HW1 1502   0.633   2.495   0.153 -3.2403  2.2979  1.5327
  376SOL    HW2 1503   0.628   2.458   0.002 -1.8010  0.6829 -0.7338
  376SOL     MW 1504   0.662   2.506   0.071 -0.2944  0.5901 -0.2840
  377SOL     OW 1505   1.349   1.990   0.850  0.2273  0.1004 -0.1870
  377SOL    HW1 1506   1.298   1.968   0.774  2.3538  1.1826 -1.8771
  377SOL    HW2 1507   1.311   1.936   0.921 -1.1256  2.7971 -0.3191
  377SOL     MW 1508   1.337   1.980   0.849  0.3294  0.5990 -0.4274
  378SOL     OW 1509   1.032   2.815   1.586  0.1789 -0.4254  0.2694
  378SOL    HW1 1510   1.006   2.721   1.577  0.4917 -2.0397  4.3929
  378SOL    HW2 1511   0.997   2.866   1.513 -2.0119 -0.1656  0.7504
  378SOL     MW 1512   1.024   2.810   1.576 -0.0689 -0.6041  0.8769
  379SOL     OW 1513   1.119   1.770   2.301  0.0393  0.0919 -0.0880
  379SOL    HW1 1514   1.033   1.745   2.266  0.0224  0.5645  0.0296
  379SOL    HW2 1515   1.184   1.701   2.275  0.0380  0.9178 -1.3054
  379SOL     MW 1516   1.116   1.758   2.293  0.0369  0.2632 -0.2331
  380SOL     OW 1517   0.820   0.067   1.573 -0.5086 -0.0152 -0.5892
  380SOL    HW1 1518   0.837   0.081   1.482  1.8429 -0.3334  2.4994
  380SOL    HW2 1519   0.897   0.099   1.627  0.2267 -1.3338  1.0928
  380SOL     MW 1520   0.833   0.073   1.568 -0.1013 -0.2312  0.0402
  381SOL     OW 1521   0.801   2.011   0.778 -0.4264 -0.1489 -0.1746
  381SOL    HW1 1522   0.891   1.986   0.781 -0.4731 -0.4545 -2.0747
  381SOL    HW2 1523   0.794   2.077   0.852  1.6245 -0.8405  1.9524
  381SOL     MW 1524   0.812   2.016   0.788 -0.1620 -0.2804 -0.1447
  382SOL     OW 1525   0.660   0.102   0.710 -0.3472 -0.2135 -0.1963
  382SOL    HW1 1526   0.677   0.079   0.803 -0.7694  1.1737 -2.6602
  382SOL    HW2 1527   0.620   0.022   0.676 -1.2340 -0.6837  0.3492
  382SOL     MW 1528   0.657   0.088   0.717 -0.5199 -0.0925 -0.4494
  383SOL     OW 1529   0.523   3.102   0.369  0.5787 -0.6107  0.0662
  383SOL    HW1 1530   0.570   3.036   0.318  2.3462 -0.4336 -2.8457
  383SOL    HW2 1531   0.460   3.051   0.421  1.5719  0.3359  0.1440
  383SOL     MW 1532   0.521   3.087   0.369  0.9430 -0.4624 -0.3077
  384SOL     OW 1533   0.637   2.924   0.639 -0.1284  0.5056 -0.3063
  384SOL    HW1 1534   0.683   2.880   0.710  0.2529  1.7593 -3.7025
  384SOL    HW2 1535   0.552   2.877   0.646 -0.2562 -1.6203 -0.2878
  384SOL     MW 1536   0.632   2.912   0.649 -0.0950  0.3906 -0.7519
  385SOL     OW 1537   1.339   2.069   1.494 -0.6176 -0.4570 -0.4919
  385SOL    HW1 1538   1.415   2.069   1.551  1.1369  2.3762 -2.7090
  385SOL    HW2 1539   1.286   2.004   1.546 -1.3711  2.0514 -0.3507
  385SOL     MW 1540   1.342   2.061   1.508 -0.4855  0.2478 -0.7658
  386SOL     OW 1541   1.325   0.386   0.839 -0.3204 -0.2960 -0.3953
  386SOL    HW1 1542   1.245   0.363   0.782 -0.1202 -1.6355  0.8586
  386SOL    HW2 1543   1.300   0.356   0.925  0.1126  3.6357  0.3253
  386SOL     MW 1544   1.311   0.379   0.843 -0.2369  0.0460 -0.1348
  387SOL     OW 1545   0.869   2.179   1.456 -0.0905 -0.8568  0.7208
  387SOL    HW1 1546   0.905   2.239   1.392 -1.4621  0.0995  0.6511
  387SOL    HW2 1547   0.869   2.090   1.412 -0.0786 -1.3399  0.6874
  387SOL     MW 1548   0.873   2.175   1.442 -0.2699 -0.7943  0.7072
  388SOL     OW 1549   1.536   2.756   1.204 -0.6267  0.1290 -0.3211
  388SOL    HW1 1550   1.458   2.718   1.159  0.3324  0.0116 -4.1971
  388SOL    HW2 1551   1.604   2.687   1.195  1.0999  2.1155  1.4736
  388SOL     MW 1552   1.535   2.742   1.197 -0.2723  0.3756 -0.5957
  389SOL     OW 1553   0.385   3.095   3.039  0.5374  0.2661 -0.0504
  389SOL    HW1 1554   0.418   3.014   2.996  1.0187 -0.6975 -1.1511
  389SOL    HW2 1555   0.374   3.158   2.963  0.8394  3.6657 -1.1788
  389SOL     MW 1556   0.388   3.092   3.023  0.6408  0.5875 -0.3445
  390SOL     OW 1557   1.304   0.099   0.649 -0.0556  0.3382  0.1608
  390SOL    HW1 1558   1.389   0.096   0.595 -1.9090  0.3286 -1.6621
  390SOL    HW2 1559   1.317   0.068   0.738 -0.0935 -1.5724  0.0239
  390SOL     MW 1560   1.317   0.094   0.653 -0.3052  0.0848 -0.0978
  391SOL     OW 1561   0.278   2.230   1.385  0.0280 -0.6363 -0.5487
  391SOL    HW1 1562   0.239   2.152   1.436 -0.7152 -1.2227  2.4494
  391SOL    HW2 1563   0.218   2.315   1.392 -2.1757 -1.1707 -2.7590
  391SOL     MW 1564   0.265   2.231   1.393 -0.3608 -0.7842 -0.4447
  392SOL     OW 1565   2.080   2.129   0.382  0.1646  0.2458 -0.1585
  392SOL    HW1 1566   2.105   2.067   0.447 -1.5651  0.8830 -0.0181
  392SOL    HW2 1567   2.029   2.182   0.442 -1.4992  1.0980  1.8630
  392SOL     MW 1568   2.076   2.128   0.399 -0.2832  0.4423  0.1268
  393SOL     OW 1569   0.188   3.013   2.712 -0.1843  0.1685 -0.0034
  393SOL    HW1 1570   0.235   3.078   2.764  0.2267 -4.0342  0.2588
  393SOL    HW2 1571   0.120   3.066   2.676  1.4944  0.0742  0.2420
  393SOL     MW 1572   0.185   3.029   2.714  0.0914 -0.3984  0.0635
  394SOL     OW 1573   0.899   1.741   1.500  0.3711  0.1755  0.0486
  394SOL    HW1 1574   0.832   1.757   1.566 -0.7506  0.6726  3.1464
  394SOL    HW2 1575   0.890   1.814   1.430  1.5931  1.1464 -1.0698
  394SOL     MW 1576   0.889   1.753   1.499  0.3843  0.3692  0.3098
  395SOL     OW 1577   1.011   2.804   2.636  0.3002 -0.3875 -0.1396
  395SOL    HW1 1578   1.076   2.872   2.667  0.1024 -0.2128 -2.4441
  395SOL    HW2 1579   1.071   2.730   2.614 -0.5533  1.3048 -3.0130
  395SOL     MW 1580   1.027   2.803   2.637  0.1615 -0.1412 -0.8228
  396SOL     OW 1581   0.854   1.875   2.386 -1.0130 -0.0426 -0.0197
  396SOL    HW1 1582   0.902   1.872   2.471  0.7066  1.7306  0.0297
  396SOL    HW2 1583   0.815   1.787   2.377 -0.3254  2.5140 -2.3488
  396SOL     MW 1584   0.855   1.863   2.396 -0.6954  0.5286 -0.3204
  397SOL     OW 1585   1.045   2.347   1.293  0.0561 -0.1405 -0.7306
  397SOL    HW1 1586   1.090   2.394   1.221  2.9062  0.1634 -1.2973
  397SOL    HW2 1587   1.116   2.310   1.349  1.2233  0.3753 -0.6465
  397SOL     MW 1588   1.060   2.348   1.291  0.5861 -0.0323 -0.7943
  398SOL     OW 1589   0.584   2.672   0.771 -0.7312  0.0080 -0.1114
  398SOL    HW1 1590   0.510   2.631   0.719  0.6745  0.6166  0.2415
  398SOL    HW2 1591   0.661   2.628   0.732  0.4653 -0.4472 -1.2008
  398SOL     MW 1592   0.585   2.661   0.759 -0.3878  0.0282 -0.2085
  399SOL     OW 1593   0.267   2.093   0.450 -0.3886  0.2256 -0.7771
  399SOL    HW1 1594   0.190   2.153   0.433  1.7570  2.9829 -2.0074
  399SOL    HW2 1595   0.336   2.124   0.384  0.3017 -0.1894 -2.3789
  399SOL     MW 1596   0.266   2.105   0.439 -0.0144  0.5347 -1.1507
  400SOL     OW 1597   0.560   1.831   0.181 -0.2612  0.6916  0.2585
  400SOL    HW1 1598   0.538   1.924   0.187 -0.4422 -0.8541 -2.7873
  400SOL    HW2 1599   0.525   1.790   0.254 -0.1501  2.3137 -3.0114
  400SOL     MW 1600   0.552   1.838   0.191 -0.2704  0.7016 -0.5748
  401SOL     OW 1601   0.905   2.064   0.133 -0.4295 -0.2588  0.3119
  401SOL    HW1 1602   0.876   1.973   0.146  0.5534 -0.5509 -0.8314
  401SOL    HW2 1603   0.969   2.079   0.209 -0.3801 -1.1911 -1.5452
  401SOL     MW 1604   0.910   2.054   0.144 -0.2933 -0.4203 -0.0840
  402SOL     OW 1605   0.673   2.962   1.688 -0.3869 -0.1445  0.0534
  402SOL    HW1 1606   0.715   2.911   1.759 -2.4001 -2.6374 -0.3633
  402SOL    HW2 1607   0.748   3.019   1.652  2.1238  2.3317  1.0708
  402SOL     MW 1608   0.689   2.963   1.693 -0.3212 -0.1467  0.1327
  403SOL     OW 1609   0.093   0.416   0.411  0.0935 -0.3975 -0.0782
  403SOL    HW1 1610   0.173   0.443   0.458 -1.7175  0.1606  0.6519
  403SOL    HW2 1611   0.110   0.394   0.321  1.0273 -1.8326 -0.2297
  403SOL     MW 1612   0.106   0.417   0.405 -0.0222 -0.5132 -0.0019
  404SOL     OW 1613   0.902   2.840   0.788 -0.5675  0.0411 -0.3489
  404SOL    HW1 1614   0.976   2.793   0.744 -0.3285 -1.5948 -0.3746
  404SOL    HW2 1615   0.901   2.929   0.749 -0.8055 -0.3134 -0.7655
  404SOL     MW 1616   0.912   2.846   0.777 -0.5674 -0.2215 -0.4073
  405SOL     OW 1617   0.485   2.365   1.516  0.3854  0.2109 -0.0021
  405SOL    HW1 1618   0.461   2.457   1.490 -3.1788  0.6266  1.1211
  405SOL    HW2 1619   0.410   2.305   1.472 -0.3689 -0.5661  0.6520
  405SOL     MW 1620   0.472   2.369   1.507 -0.1844  0.1632  0.2324
  406SOL     OW 1621   0.335   2.405   1.127 -0.1048  0.1781  0.3286
  406SOL    HW1 1622   0.237   2.415   1.120  0.2596  0.1583  1.5235
  406SOL    HW2 1623   0.349   2.312   1.143 -0.3447 -1.1509  0.8079
  406SOL     MW 1624   0.324   2.394   1.128 -0.0884  0.0002  0.5495
  407SOL     OW 1625   3.093   2.736   1.126 -0.8904 -0.1380  0.2781
  407SOL    HW1 1626   3.166   2.754   1.188  3.8472  0.5935 -1.5641
  407SOL    HW2 1627   3.135   2.742   1.047 -0.1508 -4.5164  1.2954
  407SOL     MW 1628   3.108   2.739   1.124 -0.1677 -0.6191  0.1693
  408SOL     OW 1629   2.055   2.063   0.743 -0.2513  0.2312  0.3675
  408SOL    HW1 1630   1.997   2.098   0.811 -0.6590 -0.1485  1.6903
  408SOL    HW2 1631   1.995   2.050   0.676  1.3270  2.1161  2.0355
  408SOL     MW 1632   2.039   2.066   0.743 -0.0969  0.4298  0.7621
  409SOL     OW 1633   1.363   0.052   0.925  0.4677  0.8307 -0.2378
  409SOL    HW1 1634   1.347   0.133   0.968 -1.8642  0.1523 -1.9416
  409SOL    HW2 1635   1.443   0.022   0.966  1.4802  3.4923  0.0050
  409SOL     MW 1636   1.371   0.059   0.936  0.2936  1.0924 -0.4305
  410SOL     OW 1637   1.145   2.431   1.049  0.7331  0.3133 -0.4880
  410SOL    HW1 1638   1.077   2.466   0.989 -0.4275 -2.6386 -0.2139
  410SOL    HW2 1639   1.188   2.357   1.006  3.2717 -2.5763  2.2916
  410SOL     MW 1640   1.142   2.426   1.036  0.9149 -0.4574 -0.0851
  411SOL     OW 1641   1.951   0.025   2.846 -0.3464 -0.3978 -0.4581
  411SOL    HW1 1642   1.889  -0.017   2.786 -0.5653 -0.1289 -0.9883
  411SOL    HW2 1643   1.897   0.064   2.919 -0.9754  2.6162  0.0293
  411SOL     MW 1644   1.935   0.025   2.848 -0.4583  0.0354 -0.4637
  412SOL     OW 1645   0.985   2.254   0.592 -0.5423 -0.1624 -0.0372
  412SOL    HW1 1646   1.047   2.334   0.612  2.1065 -2.3581 -0.0143
  412SOL    HW2 1647   0.893   2.286   0.564 -2.5558  1.5447 -0.6269
  412SOL     MW 1648   0.981   2.269   0.591 -0.4585 -0.2269 -0.1120
  413SOL     OW 1649   0.533   2.745   3.093 -0.2907  0.5187 -0.8821
  413SOL    HW1 1650   0.576   2.660   3.127  0.2942 -1.3031 -0.3066
  413SOL    HW2 1651   0.570   2.770   3.013 -3.6797  0.2496  2.0427
  413SOL     MW 1652   0.544   2.737   3.087 -0.6607  0.2429 -0.4203
  414SOL     OW 1653   1.930   3.002   1.075  0.4930 -0.0572  0.0001
  414SOL    HW1 1654   1.867   2.973   1.002 -0.6418  0.2891  1.2403
  414SOL    HW2 1655   2.001   2.937   1.074  0.2448 -2.3551 -0.3556
  414SOL     MW 1656   1.931   2.990   1.065  0.3105 -0.3147  0.1168
  415SOL     OW 1657   1.730   2.558   1.126  0.0913 -0.2638 -0.2273
  415SOL    HW1 1658   1.698   2.483   1.169  0.1971 -0.7374  2.7434
  415SOL    HW2 1659   1.783   2.613   1.186 -1.4256 -0.3933  1.2305
  415SOL     MW 1660   1.733   2.555   1.139 -0.0949 -0.3433  0.3570
  416SOL     OW 1661   0.540   1.947   1.362 -0.2205  0.0161 -0.2126
  416SOL    HW1 1662   0.500   2.011   1.303  0.8253  0.4051  0.1071
  416SOL    HW2 1663   0.499   1.871   1.336 -0.1098  1.8279 -1.1649
  416SOL     MW 1664   0.529   1.945   1.351 -0.0679  0.3065 -0.2961
  417SOL     OW 1665   0.973   3.012   2.057  0.6125  0.1789  0.5096
  417SOL    HW1 1666   0.910   3.013   2.123 -2.5637 -0.6884 -3.1017
  417SOL    HW2 1667   0.938   2.959   1.982  1.8774 -0.2858 -1.6224
  417SOL     MW 1668   0.960   3.005   2.056  0.3603  0.0031 -0.2482
  418SOL     OW 1669   0.629   2.950   0.164  0.6369  0.0520 -0.5419
  418SOL    HW1 1670   0.716   2.968   0.120 -1.9588  0.4774 -2.5272
  418SOL    HW2 1671   0.580   2.887   0.104  1.9637  1.1219 -0.4071
  418SOL     MW 1672   0.634   2.944   0.151  0.4695  0.2493 -0.7861
  419SOL     OW 1673   0.458   2.616   1.403 -0.3300 -0.3846  0.1830
  419SOL    HW1 1674   0.499   2.698   1.429  0.2928  2.3972 -2.2137
  419SOL    HW2 1675   0.495   2.594   1.320  1.1587  2.9903 -1.3585
  419SOL     MW 1676   0.468   2.624   1.395 -0.0514  0.4277 -0.3366
  420SOL     OW 1677   0.849   2.177   0.982  0.7068  0.7801 -0.1556
  420SOL    HW1 1678   0.805   2.192   1.068 -0.1120 -2.8697 -1.0632
  420SOL    HW2 1679   0.878   2.261   0.954  1.3890  0.1064 -1.7588
  420SOL     MW 1680   0.847   2.190   0.990  0.6888  0.2097 -0.4869
  421SOL     OW 1681   2.941   0.064   0.017 -0.0544 -0.5629  0.2476
  421SOL    HW1 1682   2.891   0.032  -0.061  0.5195 -0.2617 -1.2518
  421SOL    HW2 1683   2.972  -0.015   0.068  1.6568 -2.1136  0.0529
  421SOL     MW 1684   2.939   0.049   0.013  0.2471 -0.7278  0.0241
  422SOL     OW 1685   0.904   2.441   0.907 -0.0949  0.5618 -0.3597
  422SOL    HW1 1686   0.829   2.472   0.954 -0.8262 -1.7476  0.2601
  422SOL    HW2 1687   0.884   2.466   0.822  1.9380  2.2618  1.0984
  422SOL     MW 1688   0.892   2.449   0.902  0.0768  0.4814 -0.0855
  423SOL     OW 1689   1.522   0.148   0.501  0.1481 -0.3484 -0.1847
  423SOL    HW1 1690   1.519   0.154   0.407  0.6329 -0.0624 -0.7060
  423SOL    HW2 1691   1.489   0.232   0.520  1.8649 -3.3669 -0.8853
  423SOL     MW 1692   1.518   0.160   0.491  0.4386 -0.7089 -0.3459
  424SOL     OW 1693   0.672   2.252   1.200 -0.2874  0.2177  0.1058
  424SOL    HW1 1694   0.588   2.214   1.161  0.7569 -1.4330 -1.9792
  424SOL    HW2 1695   0.655   2.253   1.299 -2.5740 -0.3825  0.9624
  424SOL     MW 1696   0.659   2.247   1.208 -0.4513 -0.0793 -0.0563
  425SOL     OW 1697   1.723   2.861   1.954  0.0894 -0.0098 -0.0561
  425SOL    HW1 1698   1.739   2.867   1.855 -0.0046  1.5072 -2.3075
  425SOL    HW2 1699   1.751   2.770   1.968  0.8959 -1.2146  0.4675
  425SOL     MW 1700   1.729   2.850   1.943  0.1834  0.0314 -0.2840
  426SOL     OW 1701   0.830   1.679   1.942 -0.3342 -0.3578  0.2055
  426SOL    HW1 1702   0.785   1.710   1.860 -0.2906 -0.2101 -0.8365
  426SOL    HW2 1703   0.793   1.749   2.008  0.2672 -0.5650  1.2730
  426SOL     MW 1704   0.819   1.692   1.940 -0.2491 -0.3656  0.2089
  427SOL     OW 1705   0.333   1.549   1.902 -0.4246  0.3878 -0.0327
  427SOL    HW1 1706   0.388   1.474   1.877  2.0694  0.9248 -1.2680
  427SOL    HW2 1707   0.263   1.523   1.963  4.7524  0.1762  0.5191
  427SOL     MW 1708   0.331   1.536   1.907  0.5875  0.4307 -0.1229
  428SOL     OW 1709   0.576   2.564   1.169  0.1612  0.2161  0.0080
  428SOL    HW1 1710   0.653   2.530   1.217  1.0892  1.4067 -1.5378
  428SOL    HW2 1711   0.514   2.495   1.144 -0.8366  2.0243 -1.0272
  428SOL     MW 1712   0.578   2.551   1.172  0.1520  0.6118 -0.3325
  429SOL     OW 1713   1.323   2.644   1.076  0.3956  0.6563  0.2290
  429SOL    HW1 1714   1.268   2.566   1.064 -1.6511 -0.2669 -1.4363
  429SOL    HW2 1715   1.280   2.712   1.017  0.2292  2.7278  0.9234
  429SOL     MW 1716   1.310   2.642   1.066  0.1036  0.8078  0.1009
  430SOL     OW 1717   1.170   2.722   0.672  0.1756  0.4686  0.5213
  430SOL    HW1 1718   1.184   2.626   0.683  2.0220  0.1859  0.8779
  430SOL    HW2 1719   1.113   2.730   0.599  0.9898  3.0388  0.4776
  430SOL     MW 1720   1.164   2.711   0.664  0.5266  0.7704  0.5626
  431SOL     OW 1721   0.267   1.890   1.113  1.0034 -0.1005 -0.1861
  431SOL    HW1 1722   0.338   1.840   1.073 -1.4800  1.5199 -0.2965
  431SOL    HW2 1723   0.248   1.954   1.040 -2.6782  0.2697  1.0120
  431SOL     MW 1724   0.274   1.892   1.098  0.1900  0.1621 -0.0426
  432SOL     OW 1725   0.012   0.046   1.117  0.3783  0.0327 -0.4757
  432SOL    HW1 1726   0.047   0.052   1.209  0.5828 -0.2921 -2.0518
  432SOL    HW2 1727  -0.071  -0.002   1.122  3.0554 -1.7615  1.4368
  432SOL     MW 1728   0.005   0.041   1.130  0.7585 -0.2469 -0.4313
  433SOL     OW 1729   0.619   2.851   1.431 -0.4297  0.0981  0.8516
  433SOL    HW1 1730   0.628   2.885   1.523 -0.0670 -0.3323 -0.7014
  433SOL    HW2 1731   0.702   2.880   1.388  1.5907 -0.4721  1.9995
  433SOL     MW 1732   0.631   2.859   1.438 -0.1153 -0.0339  0.7981
  434SOL     OW 1733   1.580   2.872   1.471  0.0429  0.1713 -0.1843
  434SOL    HW1 1734   1.490   2.895   1.506  2.5245 -0.5567  0.4319
  434SOL    HW2 1735   1.575   2.840   1.383 -1.3627 -0.5532 -0.9466
  434SOL     MW 1736   1.568   2.871   1.464  0.1848 -0.0204 -0.2036
  435SOL     OW 1737   2.812   1.817   0.183  0.0558  0.4325 -0.1500
  435SOL    HW1 1738   2.868   1.887   0.153  0.8440  1.9915  0.1548
  435SOL    HW2 1739   2.808   1.749   0.111  1.9012 -0.5241 -0.5717
  435SOL     MW 1740   2.819   1.817   0.170  0.4033  0.5120 -0.1654
  436SOL     OW 1741   1.272   2.778   0.311 -0.0695  0.5062  0.1746
  436SOL    HW1 1742   1.327   2.736   0.377  2.1933  1.5479  0.5186
  436SOL    HW2 1743   1.242   2.858   0.349  0.5018 -1.5493 -0.3696
  436SOL     MW 1744   1.275   2.783   0.325  0.3045  0.3724  0.1482
  437SOL     OW 1745   0.885   2.904   1.362  0.4849 -0.4354  0.3040
  437SOL    HW1 1746   0.916   2.982   1.314 -0.0488  0.2031  1.7129
  437SOL    HW2 1747   0.916   2.828   1.311 -0.0307  0.5954 -0.8372
  437SOL     MW 1748   0.893   2.904   1.349  0.3464 -0.2152  0.3393
  438SOL     OW 1749   0.887   2.596   1.946 -0.4575 -0.2041 -0.2974
  438SOL    HW1 1750   0.847   2.564   2.027 -1.1038  2.3693 -3.1379
  438SOL    HW2 1751   0.861   2.550   1.867  0.1928  0.5734 -0.5131
  438SOL     MW 1752   0.878   2.586   1.946 -0.4570  0.2380 -0.7006
  439SOL     OW 1753   1.082   2.132   0.361 -0.2667  0.0527  0.1611
  439SOL    HW1 1754   1.039   2.153   0.441 -2.2372 -0.2925  0.2753
  439SOL    HW2 1755   1.115   2.219   0.337  1.2560 -0.9077  2.0834
  439SOL     MW 1756   1.081   2.146   0.368 -0.3258 -0.1196  0.4298
  440SOL     OW 1757   1.670   2.938   3.042  0.5632  0.7186  0.3754
  440SOL    HW1 1758   1.618   2.928   3.123 -1.2386  0.1181  3.5595
  440SOL    HW2 1759   1.738   2.877   3.055 -0.6526  0.9608 -2.2686
  440SOL     MW 1760   1.673   2.929   3.054  0.1650  0.6713  0.4467
  441SOL     OW 1761   0.354   2.638   0.513 -0.0322  0.0580 -0.4940
  441SOL    HW1 1762   0.304   2.622   0.432 -0.4203  1.7191  1.5862
  441SOL    HW2 1763   0.374   2.734   0.517  2.0072  3.9851 -0.3501
  441SOL     MW 1764   0.350   2.649   0.503  0.1857  0.7953 -0.2005
  442SOL     OW 1765   3.049   2.358   0.633  0.0660 -0.2199 -0.0183
  442SOL    HW1 1766   3.085   2.444   0.642 -0.3347 -2.6282 -2.6591
  442SOL    HW2 1767   2.959   2.353   0.670  0.7191  1.6329  0.3799
  442SOL     MW 1768   3.042   2.369   0.639  0.0993 -0.2932 -0.3142
  443SOL     OW 1769   1.383   1.753   1.884  1.0855  0.2534  0.6673
  443SOL    HW1 1770   1.339   1.797   1.809  1.3294 -1.0641  2.0033
  443SOL    HW2 1771   1.332   1.678   1.914  2.3501 -1.4312  2.9510
  443SOL     MW 1772   1.370   1.749   1.878  1.2846 -0.1427  1.1449
  444SOL     OW 1773   0.935   2.570   1.572 -0.0285 -0.1102  0.6840
  444SOL    HW1 1774   1.010   2.520   1.616  1.3332 -0.2418  1.1271
  444SOL    HW2 1775   0.867   2.587   1.638  1.6461  1.6730 -0.1733
  444SOL     MW 1776   0.936   2.566   1.587  0.3721  0.1077  0.6293
  445SOL     OW 1777   0.947   0.028   1.255 -0.2539  0.0033 -0.0631
  445SOL    HW1 1778   0.924   0.124   1.271  0.8706  2.3656 -0.4151
  445SOL    HW2 1779   1.012   0.015   1.188 -2.1326 -1.3040  0.2276
  445SOL     MW 1780   0.952   0.039   1.249 -0.3534  0.1425 -0.0712
  446SOL     OW 1781   2.692   2.840   1.100 -0.1221 -0.0369 -0.4190
  446SOL    HW1 1782   2.651   2.881   1.021 -0.2199 -0.0303 -1.3535
  446SOL    HW2 1783   2.725   2.750   1.078 -1.7054 -0.8058  0.3154
  446SOL     MW 1784   2.691   2.834   1.087 -0.3439 -0.1374 -0.4454
  447SOL     OW 1785   3.043   2.072   1.656  0.8425 -0.0105  0.4644
  447SOL    HW1 1786   3.099   2.014   1.710  1.5122  2.4035  1.7628
  447SOL    HW2 1787   2.966   2.021   1.625  3.0040  2.1006  1.8487
  447SOL     MW 1788   3.041   2.057   1.659  1.2160  0.5866  0.8184
  448SOL     OW 1789   1.702   2.347   1.678  0.7375  0.8279  0.4263
  448SOL    HW1 1790   1.640   2.268   1.667  1.2122 -0.9663  1.0312
  448SOL    HW2 1791   1.647   2.419   1.660  3.3279 -0.5538  0.1087
  448SOL     MW 1792   1.687   2.347   1.674  1.1419  0.4088  0.4642
  449SOL     OW 1793   0.763   2.857   0.379 -0.2226 -0.2597  0.5963
  449SOL    HW1 1794   0.714   2.859   0.293  2.0171 -1.6017 -1.5538
  449SOL    HW2 1795   0.708   2.881   0.449  0.8930  2.4771  1.7555
  449SOL     MW 1796   0.749   2.861   0.377  0.2201 -0.0756  0.4656
  450SOL     OW 1797   1.184   2.444   0.685  0.2261  0.0475 -0.2161
  450SOL    HW1 1798   1.203   2.397   0.767 -1.5647 -0.0355  0.5979
  450SOL    HW2 1799   1.280   2.448   0.658 -0.2082  0.6960 -2.7586
  450SOL     MW 1800   1.199   2.438   0.692 -0.0675  0.1221 -0.4441
  451SOL     OW 1801   0.619   2.038   1.645 -0.0717  0.3045  0.3176
  451SOL    HW1 1802   0.669   2.121   1.662  2.6196  0.9256  0.1699
  451SOL    HW2 1803   0.616   2.041   1.550 -2.0807 -1.7697 -0.5088
  451SOL     MW 1804   0.625   2.050   1.635  0.0183  0.1128  0.1891
  452SOL     OW 1805   0.276   2.731   0.055  0.0899 -0.9384 -0.1079
  452SOL    HW1 1806   0.359   2.723   0.010 -2.9745  0.5448 -3.4116
  452SOL    HW2 1807   0.219   2.746  -0.026 -0.7812 -0.1774 -0.4950
  452SOL     MW 1808   0.280   2.732   0.038 -0.4293 -0.6423 -0.5949
  453SOL     OW 1809   0.379   3.024   1.710 -0.2229 -0.6441 -0.3531
  453SOL    HW1 1810   0.478   3.034   1.707  0.6440  1.9750  0.0751
  453SOL    HW2 1811   0.357   3.035   1.619 -0.8827  0.2392  1.0825
  453SOL     MW 1812   0.389   3.027   1.698 -0.1956 -0.1820 -0.1072
  454SOL     OW 1813   0.993   2.689   1.203 -0.9003  0.1454 -0.1731
  454SOL    HW1 1814   0.917   2.638   1.237 -0.6180  0.4368  0.5480
  454SOL    HW2 1815   0.967   2.738   1.125 -0.9397  1.8072 -0.7098
  454SOL     MW 1816   0.979   2.689   1.197 -0.8682  0.4031 -0.1487
  455SOL     OW 1817   1.527   2.933   0.187  0.1306 -0.5300 -0.3040
  455SOL    HW1 1818   1.568   2.918   0.275 -0.9523  1.3901  0.3766
  455SOL    HW2 1819   1.445   2.887   0.184  1.5878  0.4272  0.3682
  455SOL     MW 1820   1.521   2.925   0.198  0.1800 -0.1504 -0.1255
  456SOL     OW 1821   2.899   0.356   1.314 -0.1217 -0.3551  0.2977
  456SOL    HW1 1822   2.854   0.280   1.264 -0.2442 -0.8891 -0.2301
  456SOL    HW2 1823   2.980   0.365   1.257 -0.4643  0.2227  0.3794
  456SOL     MW 1824   2.904   0.347   1.300 -0.1831 -0.3493  0.2389
  457SOL     OW 1825   0.933   1.547   2.994  0.4672 -0.1411 -0.1696
  457SOL    HW1 1826   0.840   1.542   3.023 -0.6778 -0.0107 -2.6118
  457SOL    HW2 1827   0.978   1.475   3.032  1.5537 -1.9098 -4.2702
  457SOL     MW 1828   0.926   1.537   3.003  0.4595 -0.3572 -1.0329
  458SOL     OW 1829   1.448   1.389   0.546 -0.1039 -0.2835 -0.3987
  458SOL    HW1 1830   1.383   1.428   0.603  1.3114 -1.0091 -0.8044
  458SOL    HW2 1831   1.399   1.346   0.475  1.3927  2.3359  1.1387
  458SOL     MW 1832   1.433   1.388   0.544  0.2803 -0.0336 -0.2494
  459SOL     OW 1833   1.527   0.099   0.217 -0.9819  0.5245  0.0972
  459SOL    HW1 1834   1.532   0.004   0.205  0.8742 -0.8531 -2.8291
  459SOL    HW2 1835   1.468   0.135   0.151 -1.5476 -2.6848 -0.2279
  459SOL     MW 1836   1.520   0.091   0.207 -0.8116 -0.0807 -0.3318
  460SOL     OW 1837   1.800   2.150   0.687  0.2773  0.4876  0.1236
  460SOL    HW1 1838   1.706   2.141   0.718  1.8303  0.9765 -0.5684
  460SOL    HW2 1839   1.800   2.097   0.605  1.6316  0.4841 -0.8945
  460SOL     MW 1840   1.788   2.142   0.681  0.6609  0.5517 -0.1021
  461SOL     OW 1841   0.506   2.403   0.614  0.1877 -0.1329 -0.1455
  461SOL    HW1 1842   0.457   2.459   0.555  1.7789  1.0276 -0.5011
  461SOL    HW2 1843   0.482   2.429   0.704 -1.9329 -0.6761 -1.2476
  461SOL     MW 1844   0.496   2.414   0.618  0.1178 -0.0515 -0.3378
  462SOL     OW 1845   0.337   0.229   1.271  0.3287 -0.3908 -0.4113
  462SOL    HW1 1846   0.406   0.157   1.239 -0.2639 -2.4051 -1.0883
  462SOL    HW2 1847   0.395   0.277   1.326  2.2292  0.9362 -0.6195
  462SOL     MW 1848   0.354   0.226   1.274  0.5012 -0.4815 -0.5281
  463SOL     OW 1849   0.903   3.087   0.689 -0.5200  0.4099  0.0762
  463SOL    HW1 1850   0.925   3.118   0.599 -0.7298  0.5422  0.1851
  463SOL    HW2 1851   0.812   3.111   0.690  1.5338  1.8745 -0.3605
  463SOL     MW 1852   0.894   3.095   0.677 -0.2767  0.6206  0.0330
  464SOL     OW 1853   0.790   3.042   2.256  0.5537 -0.3579  0.1528
  464SOL    HW1 1854   0.734   2.961   2.254 -2.4764 -2.8872  1.8260
  464SOL    HW2 1855   0.828   3.052   2.342  2.1801  1.3061  2.8713
  464SOL     MW 1856   0.788   3.032   2.267  0.3685 -0.4720  0.7322
  465SOL     OW 1857   0.652   0.315   0.480 -0.1227  0.5876  0.1012
  465SOL    HW1 1858   0.650   0.258   0.559  2.3628  0.3763  0.7908
  465SOL    HW2 1859   0.676   0.256   0.401 -1.9520  1.6358 -2.4922
  465SOL     MW 1860   0.655   0.299   0.480 -0.0361  0.6980 -0.1500
  466SOL     OW 1861   1.088   2.015   0.743  0.1346  0.1071 -0.1639
  466SOL    HW1 1862   1.079   1.946   0.681 -0.3920 -0.5013  2.1423
  466SOL    HW2 1863   1.063   2.095   0.692  1.1907 -0.0065 -2.0648
  466SOL     MW 1864   1.083   2.016   0.728  0.2044  0.0118 -0.1104
  467SOL     OW 1865   1.275   2.261   0.891  0.1900  0.3960  0.2351
  467SOL    HW1 1866   1.369   2.267   0.910 -0.9039  0.1585 -0.7941
  467SOL    HW2 1867   1.271   2.166   0.877 -1.1197  0.1548  1.0317
  467SOL     MW 1868   1.287   2.249   0.892 -0.1271  0.3328  0.2044
  468SOL     OW 1869   0.356   2.582   1.987  0.0577 -0.1854 -0.1127
  468SOL    HW1 1870   0.372   2.518   1.917  0.0954  1.6940 -0.3391
  468SOL    HW2 1871   0.359   2.676   1.955 -2.8366 -0.2863 -3.3445
  468SOL     MW 1872   0.359   2.586   1.974 -0.3192  0.0493 -0.5689
  469SOL     OW 1873   0.367   2.135   1.773 -0.2817 -0.0748  0.0892
  469SOL    HW1 1874   0.315   2.059   1.778 -0.3924  2.7560 -0.3205
  469SOL    HW2 1875   0.451   2.102   1.735  0.5262 -2.0040 -0.7978
  469SOL     MW 1876   0.371   2.121   1.769 -0.1897  0.0442 -0.0819
  470SOL     OW 1877   3.043   2.583   0.078 -0.3464 -0.7232  0.3119
  470SOL    HW1 1878   2.974   2.547   0.131 -2.2627 -2.4438 -1.1514
  470SOL    HW2 1879   3.009   2.586  -0.011  0.2080  2.4545 -0.2614
  470SOL     MW 1880   3.030   2.579   0.074 -0.5261 -0.5309  0.0432
  471SOL     OW 1881   1.245   2.742   1.413  0.2535  0.5445  0.3824
  471SOL    HW1 1882   1.187   2.749   1.490 -0.4448  0.8405  0.7763
  471SOL    HW2 1883   1.181   2.737   1.339 -1.5025 -1.7290 -0.5817
  471SOL     MW 1884   1.229   2.742   1.413 -0.0703  0.2836  0.3072
  472SOL     OW 1885   2.905   2.056   0.391 -0.0141  0.0140  0.2945
  472SOL    HW1 1886   2.927   2.065   0.296 -1.3994 -0.9893  0.8044
  472SOL    HW2 1887   2.883   1.970   0.426 -0.0391 -0.3835 -0.7010
  472SOL     MW 1888   2.905   2.046   0.383 -0.2002 -0.1708  0.2304
  473SOL     OW 1889   0.807   2.480   1.339  0.5211  0.6290  0.0588
  473SOL    HW1 1890   0.886   2.433   1.309 -0.3606  1.8123  1.8764
  473SOL    HW2 1891   0.821   2.511   1.421 -0.6481  2.2211 -1.2549
  473SOL     MW 1892   0.819   2.478   1.346  0.2505  0.9952  0.1253
  474SOL     OW 1893   0.754   2.258   1.683  0.0339 -0.3728 -0.3049
  474SOL    HW1 1894   0.836   2.256   1.730  0.4664  1.6144  1.2598
  474SOL    HW2 1895   0.784   2.263   1.595 -1.8308 -1.2383  3.4964
  474SOL     MW 1896   0.769   2.259   1.678 -0.1551 -0.2248  0.4031
  475SOL     OW 1897   1.617   0.030   1.491  0.1391 -0.3692 -0.1664
  475SOL    HW1 1898   1.535   0.073   1.453  0.1189  0.2124  1.1202
  475SOL    HW2 1899   1.595  -0.065   1.507 -4.2039 -1.0013  0.7915
  475SOL     MW 1900   1.603   0.023   1.488 -0.4366 -0.3759  0.1298
  476SOL     OW 1901   1.497   2.624   0.858  0.0663 -0.2837 -0.0216
  476SOL    HW1 1902   1.428   2.641   0.926 -0.9181 -0.6835  0.8443
  476SOL    HW2 1903   1.513   2.720   0.840  1.1366  1.0314 -2.4022
  476SOL     MW 1904   1.490   2.639   0.864  0.0776 -0.1629 -0.2214
  477SOL     OW 1905   0.798   2.527   0.663 -0.2505  0.4892 -0.0823
  477SOL    HW1 1906   0.855   2.574   0.602 -2.3049  1.5490 -3.8492
  477SOL    HW2 1907   0.764   2.462   0.600 -0.2718  0.2694  1.0677
  477SOL     MW 1908   0.801   2.525   0.646 -0.5244  0.6000 -0.4276
  478SOL     OW 1909   0.153   2.681   0.903 -0.3885  0.6516  0.1370
  478SOL    HW1 1910   0.206   2.759   0.905 -0.6181 -0.3402 -1.2315
  478SOL    HW2 1911   0.212   2.617   0.873  2.8264 -0.7781  0.1131
  478SOL     MW 1912   0.168   2.683   0.899  0.0054  0.3321 -0.0467
  479SOL     OW 1913   1.409   1.925   1.278  0.0427  0.6703 -0.0900
  479SOL    HW1 1914   1.385   1.976   1.357  1.2449  0.1013  0.6253
  479SOL    HW2 1915   1.493   1.893   1.296 -1.1647 -1.4323  1.8299
  479SOL     MW 1916   1.417   1.927   1.291  0.0420  0.3178  0.2577
  480SOL     OW 1917   1.842   2.406   1.377 -0.2273 -0.0478 -0.0891
  480SOL    HW1 1918   1.849   2.317   1.408  0.1918  2.0838  2.0390
  480SOL    HW2 1919   1.908   2.417   1.313 -1.7384 -0.7902  0.6787
  480SOL     MW 1920   1.852   2.396   1.373 -0.3714  0.1355  0.2930
  481SOL     OW 1921   1.182   0.063   1.130  0.1550  0.1607  0.6547
  481SOL    HW1 1922   1.227   0.018   1.062  0.1564 -1.1998  1.6721
  481SOL    HW2 1923   1.188   0.163   1.123 -0.6735  1.6959  2.2435
  481SOL     MW 1924   1.188   0.070   1.120  0.0459  0.1838  0.9986
  482SOL     OW 1925   0.940   0.008   0.407 -0.5632 -0.1729  0.2568
  482SOL    HW1 1926   0.883  -0.040   0.344  0.5666 -0.1696 -0.1732
  482SOL    HW2 1927   0.931   0.103   0.397 -3.0404  0.6818  1.3958
  482SOL     MW 1928   0.931   0.014   0.397 -0.7410 -0.0597  0.3504
  483SOL     OW 1929   0.380   2.919   0.506 -0.2469  0.5619  0.1699
  483SOL    HW1 1930   0.301   2.920   0.450  0.0840  0.7159 -0.4995
  483SOL    HW2 1931   0.360   2.974   0.588 -1.1699  1.7137  2.4074
  483SOL     MW 1932   0.367   2.926   0.510 -0.3251  0.7342  0.3768
  484SOL     OW 1933   1.676   1.856   1.376 -0.0815 -0.1232 -0.4228
  484SOL    HW1 1934   1.732   1.923   1.339 -0.5880  0.8215 -1.6539
  484SOL    HW2 1935   1.658   1.887   1.462  0.3733  1.4549 -0.1287
  484SOL     MW 1936   1.681   1.869   1.382 -0.0883  0.2097 -0.5465
  485SOL     OW 1937   0.542   2.393   0.279 -0.8191  0.1336  0.2485
  485SOL    HW1 1938   0.579   2.442   0.359 -0.9662  2.3100  2.0715
  485SOL    HW2 1939   0.467   2.455   0.269  1.0260 -0.4727  1.2501
  485SOL     MW 1940   0.537   2.407   0.288 -0.5950  0.3408  0.6212
  486SOL     OW 1941   0.127   2.457   1.397 -0.2487 -0.1020 -0.1483
  486SOL    HW1 1942   0.157   2.547   1.369  0.1648 -1.7347  3.0875
  486SOL    HW2 1943   0.114   2.472   1.491  0.4970  0.4866  1.0200
  486SOL     MW 1944   0.129   2.471   1.406 -0.0957 -0.2398  0.4328
  487SOL     OW 1945   1.276   1.603   1.099  0.1493 -0.0081  0.1370
  487SOL    HW1 1946   1.247   1.698   1.092  0.2346  1.3560  0.2105
  487SOL    HW2 1947   1.350   1.596   1.030  2.4662 -1.3704 -1.6400
  487SOL     MW 1948   1.282   1.614   1.089  0.4662 -0.0078 -0.0878
  488SOL     OW 1949   1.612   1.856   0.574  0.1957 -0.1561 -0.2321
  488SOL    HW1 1950   1.700   1.891   0.556 -1.0007  0.3266  0.5627
  488SOL    HW2 1951   1.563   1.875   0.493 -0.2765 -0.1375  0.7294
  488SOL     MW 1952   1.617   1.863   0.561 -0.0245 -0.0899 -0.0004
  489SOL     OW 1953   0.759   0.799   0.539 -0.3537 -0.7149  0.3674
  489SOL    HW1 1954   0.781   0.710   0.506  0.1566  0.0183  2.7431
  489SOL    HW2 1955   0.759   0.784   0.634 -2.0778  0.7024  0.8424
  489SOL     MW 1956   0.762   0.785   0.547 -0.5139 -0.4312  0.7435
  490SOL     OW 1957   1.412   2.112   0.444  0.1267 -0.2350  0.5602
  490SOL    HW1 1958   1.455   2.199   0.425  0.1765  0.7615 -0.3234
  490SOL    HW2 1959   1.317   2.118   0.420 -0.9155  1.2276  1.1324
  490SOL     MW 1960   1.405   2.124   0.439 -0.0043  0.0895  0.5191
  491SOL     OW 1961   1.197   2.998   0.451  0.4142  0.5765  0.6547
  491SOL    HW1 1962   1.228   3.052   0.521 -2.9843  2.3748  1.3528
  491SOL    HW2 1963   1.109   3.026   0.449 -0.5111 -1.4445  0.4250
  491SOL     MW 1964   1.190   3.009   0.460 -0.1563  0.5471  0.7165
  492SOL     OW 1965   1.537   2.139   0.720 -0.2297  0.1688  0.0600
  492SOL    HW1 1966   1.500   2.117   0.629 -1.6925  1.1730  1.9125
  492SOL    HW2 1967   1.484   2.085   0.786 -1.4844 -0.8640 -1.1631
  492SOL     MW 1968   1.526   2.129   0.717 -0.5882  0.1650  0.1431
  493SOL     OW 1969   0.133   2.920   0.391 -0.2724  0.0258 -0.7889
  493SOL    HW1 1970   0.085   2.981   0.448  1.8826  1.3618 -2.9544
  493SOL    HW2 1971   0.147   2.957   0.301  0.0307 -2.0565 -1.7760
  493SOL     MW 1972   0.128   2.933   0.386  0.0519 -0.0726 -1.2048
  494SOL     OW 1973   0.430   2.410   1.766 -0.6331 -0.0670 -0.3136
  494SOL    HW1 1974   0.393   2.317   1.789  0.4195  1.2446  0.0711
  494SOL    HW2 1975   0.463   2.401   1.672 -0.2349  1.8248  0.2483
  494SOL     MW 1976   0.430   2.397   1.756 -0.4417  0.3556 -0.1887
  495SOL     OW 1977   2.885   1.661   2.719 -0.5160 -0.1937  0.0924
  495SOL    HW1 1978   2.877   1.748   2.768 -1.0017  2.3270 -1.9243
  495SOL    HW2 1979   2.895   1.582   2.776  0.3012 -0.3565  0.8822
  495SOL     MW 1980   2.885   1.662   2.733 -0.4723  0.1174 -0.0695
  496SOL     OW 1981   2.852   2.316   2.635 -0.0721  0.2909 -0.0791
  496SOL    HW1 1982   2.868   2.228   2.671  1.2985 -0.2185 -0.6364
  496SOL    HW2 1983   2.937   2.350   2.651 -0.5957 -0.3086 -0.5782
  496SOL     MW 1984   2.866   2.309   2.642  0.0397  0.1446 -0.2185
  497SOL     OW 1985   1.514   2.310   2.534  0.4258 -0.1217  0.9541
  497SOL    HW1 1986   1.501   2.275   2.446  0.2816  1.3120 -0.0645
  497SOL    HW2 1987   1.472   2.252   2.588  1.0271  1.6754  0.2490
  497SOL     MW 1988   1.507   2.298   2.529  0.4861  0.3045  0.7267
  498SOL     OW 1989   1.579   2.720   2.256 -0.7626 -0.4796  0.3802
  498SOL    HW1 1990   1.573   2.627   2.242  1.4374  2.7490  0.2790
  498SOL    HW2 1991   1.640   2.724   2.326 -2.4665 -2.4362 -1.0079
  498SOL     MW 1992   1.586   2.708   2.264 -0.6971 -0.3118  0.1837
  499SOL     OW 1993   0.920   0.162   3.096 -0.2983  0.1774  0.3236
  499SOL    HW1 1994   0.866   0.198   3.161 -1.1944  0.2557 -3.2671
  499SOL    HW2 1995   0.894   0.070   3.097  0.8847  4.3219 -0.5891
  499SOL     MW 1996   0.910   0.154   3.104 -0.2605  0.7346 -0.2706
  500SOL     OW 1997   1.003   2.442   2.794 -0.0875 -0.2050  0.3741
  500SOL    HW1 1998   1.061   2.445   2.869  0.3536 -1.8545  0.4652
  500SOL    HW2 1999   0.954   2.524   2.807  0.7287  1.8787 -0.5034
  500SOL     MW 2000   1.004   2.453   2.806  0.0784 -0.1477  0.2704
  501SOL     OW 2001   1.751   2.239   3.073  0.2208  0.3584  0.3129
  501SOL    HW1 2002   1.701   2.316   3.095 -1.0790  0.3953 -0.7464
  501SOL    HW2 2003   1.842   2.248   3.103 -0.9645  1.9363  1.4145
  501SOL     MW 2004   1.756   2.250   3.080 -0.1071  0.5714  0.3185
  502SOL     OW 2005   0.113   2.809   2.937  0.1004  0.4648  0.2807
  502SOL    HW1 2006   0.036   2.747   2.929 -1.1217  0.7520  0.3352
  502SOL    HW2 2007   0.123   2.844   2.844 -1.3609 -0.5765  0.3122
  502SOL     MW 2008   0.104   2.805   2.923 -0.2537  0.3653  0.2921
  503SOL     OW 2009   1.137   2.616   2.054  0.4543 -0.1875 -0.4017
  503SOL    HW1 2010   1.204   2.600   1.989 -1.1394  1.4123  2.2214
  503SOL    HW2 2011   1.053   2.615   2.004 -1.6403  2.1016  1.3310
  503SOL     MW 2012   1.135   2.614   2.039 -0.0323  0.3256  0.1730
  504SOL     OW 2013   0.096   2.647   2.048  0.0816 -0.0987 -0.3168
  504SOL    HW1 2014   0.187   2.619   2.033  1.1166 -0.8139  1.8570
  504SOL    HW2 2015   0.063   2.582   2.106 -0.8493  2.8121  2.0404
  504SOL     MW 2016   0.103   2.635   2.054  0.0953  0.1910  0.2811
  505SOL     OW 2017   1.646   2.672   2.725  0.0998 -0.2216  0.1575
  505SOL    HW1 2018   1.685   2.676   2.633  0.0918 -1.1943  0.5901
  505SOL    HW2 2019   1.588   2.751   2.733 -1.0741 -0.3296 -2.0520
  505SOL     MW 2020   1.643   2.683   2.714 -0.0562 -0.3642 -0.0769
  506SOL     OW 2021   1.632   0.018   2.864  0.4188 -0.0753  0.2804
  506SOL    HW1 2022   1.670  -0.037   2.939 -1.4688  0.6612  1.1273
  506SOL    HW2 2023   1.680  -0.012   2.783  0.5774 -3.3809 -1.8974
  506SOL     MW 2024   1.644   0.007   2.863  0.1906 -0.4142  0.1048
  507SOL     OW 2025   0.905   2.684   2.870  0.4978  0.0840  0.0045
  507SOL    HW1 2026   0.943   2.717   2.789  2.1157  0.7674 -0.0160
  507SOL    HW2 2027   0.810   2.694   2.859  1.4591 -2.2205 -0.2803
  507SOL     MW 2028   0.897   2.690   2.858  0.8381 -0.1299 -0.0358
  508SOL     OW 2029   1.243   2.115   2.530 -0.3862 -0.0815 -0.0413
  508SOL    HW1 2030   1.287   2.095   2.613 -0.0273 -0.2167 -0.8033
  508SOL    HW2 2031   1.167   2.173   2.546  4.3374 -1.1644  0.4088
  508SOL     MW 2032   1.239   2.120   2.543  0.2844 -0.2422 -0.0824
  509SOL     OW 2033   0.642   2.625   2.789  0.3696 -0.8160 -0.1196
  509SOL    HW1 2034   0.646   2.571   2.715  1.0579  3.3188  2.0566
  509SOL    HW2 2035   0.598   2.709   2.754  2.3792 -1.2594 -2.8012
  509SOL     MW 2036   0.637   2.629   2.774  0.7256 -0.3289 -0.1863
  510SOL     OW 2037   1.570   2.607   1.641 -0.0888 -0.0382 -0.4950
  510SOL    HW1 2038   1.588   2.683   1.596 -2.4508 -1.0110  0.5719
  510SOL    HW2 2039   1.486   2.629   1.696  2.0026 -2.3393 -1.4491
  510SOL     MW 2040   1.561   2.620   1.643 -0.1245 -0.4702 -0.4801
  511SOL     OW 2041   0.387   2.615   2.517  0.4451  0.1410 -0.6130
  511SOL    HW1 2042   0.455   2.565   2.554  0.7565 -1.3805  0.1912
  511SOL    HW2 2043   0.416   2.625   2.422 -0.1765  0.1985 -0.9709
  511SOL     MW 2044   0.400   2.610   2.509  0.4041 -0.0522 -0.5541
  512SOL     OW 2045   0.988   2.031   2.887 -0.1381 -0.1822 -0.1542
  512SOL    HW1 2046   0.922   2.089   2.932 -2.5046  0.0612 -1.0011
  512SOL    HW2 2047   1.031   1.960   2.937 -2.3578 -0.6514  1.5409
  512SOL     MW 2048   0.985   2.029   2.900 -0.7432 -0.2120 -0.0423
  513SOL     OW 2049   1.682   2.457   2.202 -0.7559 -0.0569 -0.3140
  513SOL    HW1 2050   1.728   2.539   2.159  0.3634  2.8561  0.4665
  513SOL    HW2 2051   1.706   2.438   2.296 -2.6541  0.3813  0.6005
  513SOL     MW 2052   1.691   2.465   2.209 -0.8587  0.3853 -0.0904
  514SOL     OW 2053   0.250   2.408   2.679  0.1343  0.3366  0.0733
  514SOL    HW1 2054   0.300   2.488   2.658 -1.2663 -0.0917  0.4394
  514SOL    HW2 2055   0.294   2.373   2.757  1.5979  2.5310  0.9739
  514SOL     MW 2056   0.262   2.414   2.686  0.1426  0.5696  0.2404
  515SOL     OW 2057   1.066   2.071   1.933 -0.0183  0.3690  0.0448
  515SOL    HW1 2058   1.057   2.157   1.898  0.6150 -2.4132  0.6477
  515SOL    HW2 2059   1.129   2.075   2.006 -0.0890  2.4879  3.0738
  515SOL     MW 2060   1.073   2.083   1.939  0.0559  0.2815  0.5240
  516SOL     OW 2061   1.409   2.494   2.972 -0.3724 -0.4471  0.4515
  516SOL    HW1 2062   1.418   2.471   2.880  0.9679  0.2131 -0.0898
  516SOL    HW2 2063   1.323   2.456   2.999 -0.3480 -2.7665  2.1807
  516SOL     MW 2064   1.399   2.486   2.963 -0.1923 -0.6660  0.6083
  517SOL     OW 2065   0.601   2.404   2.265 -0.1533  0.0899  0.2498
  517SOL    HW1 2066   0.560   2.489   2.276  1.0257 -0.3096 -3.0807
  517SOL    HW2 2067   0.545   2.343   2.207 -3.9262 -3.3035 -1.5295
  517SOL     MW 2068   0.588   2.407   2.259 -0.4955 -0.4105 -0.4244
  518SOL     OW 2069   1.850   0.052   0.013  0.6099  0.5925  0.4353
  518SOL    HW1 2070   1.783   0.120   0.030  0.2538 -0.6223 -0.3620
  518SOL    HW2 2071   1.807  -0.038   0.020 -3.3149 -1.1988  0.3683
  518SOL     MW 2072   1.835   0.049   0.017  0.0451  0.1959  0.3213
  519SOL     OW 2073   0.714   2.521   1.720  0.2256 -0.3610 -0.1989
  519SOL    HW1 2074   0.710   2.427   1.685 -1.3180 -2.3848 -0.1790
  519SOL    HW2 2075   0.628   2.527   1.762 -0.4574 -0.9879  1.8452
  519SOL     MW 2076   0.703   2.509   1.721 -0.0682 -0.7107  0.0734
  520SOL     OW 2077   1.208   2.201   2.949 -0.0939  0.0037 -0.5318
  520SOL    HW1 2078   1.125   2.164   2.910 -0.7829 -0.5279 -2.7821
  520SOL    HW2 2079   1.213   2.147   3.032 -0.4863 -0.4981  1.1441
  520SOL     MW 2080   1.198   2.189   2.955 -0.2366 -0.1327 -0.6076
  521SOL     OW 2081   1.752   2.033   2.224 -0.3171  0.1165 -0.5936
  521SOL    HW1 2082   1.776   2.030   2.130  1.6356 -0.3034  1.4831
  521SOL    HW2 2083   1.756   1.942   2.252  0.4176 -0.3415 -0.8438
  521SOL     MW 2084   1.756   2.021   2.216  0.0375  0.0007 -0.3526
  522SOL     OW 2085   2.919   2.516   2.282  0.2445  0.4231  0.2418
  522SOL    HW1 2086   2.995   2.457   2.264  0.7175 -0.9327  1.4034
  522SOL    HW2 2087   2.963   2.594   2.294 -0.4968 -1.4495  0.8107
  522SOL     MW 2088   2.935   2.519   2.281  0.2091 -0.0029  0.4702
  523SOL     OW 2089   0.907   1.501   2.126  0.0615 -0.3626 -0.6659
  523SOL    HW1 2090   0.878   1.553   2.044  2.5814 -0.4254 -0.1698
  523SOL    HW2 2091   0.965   1.444   2.077  0.8316 -0.8144  1.6146
  523SOL     MW 2092   0.911   1.500   2.108  0.4956 -0.4305 -0.2996
  524SOL     OW 2093   0.587   2.390   2.946 -0.3552  0.0126  0.4063
  524SOL    HW1 2094   0.597   2.460   2.880  1.8344  1.8170  0.3960
  524SOL    HW2 2095   0.674   2.340   2.940  2.7412 -0.4278  0.1230
  524SOL     MW 2096   0.600   2.392   2.937  0.3422  0.1926  0.3676
  525SOL     OW 2097   0.456   2.208   2.133 -0.1491  0.8822 -0.5933
  525SOL    HW1 2098   0.413   2.135   2.184  0.7956 -1.2913  1.3134
  525SOL    HW2 2099   0.527   2.178   2.077  0.1440 -0.2592  1.7309
  525SOL     MW 2100   0.460   2.195   2.132  0.0142  0.4448 -0.0350
  526SOL     OW 2101   0.698   2.118   1.992  0.2720  0.2895  0.0990
  526SOL    HW1 2102   0.682   2.136   1.908 -0.0716 -2.1674  3.4272
  526SOL    HW2 2103   0.759   2.179   2.033 -2.6963 -0.0557 -2.4911
  526SOL     MW 2104   0.704   2.128   1.986 -0.1650 -0.0802  0.1964
  527SOL     OW 2105   1.326   1.953   2.080 -0.0195  0.3702  0.5423
  527SOL    HW1 2106   1.347   1.958   2.170 -0.8455  1.9862 -1.5240
  527SOL    HW2 2107   1.342   1.869   2.048  0.8253  1.8175 -0.4277
  527SOL     MW 2108   1.331   1.943   2.088 -0.0170  0.7744  0.1417
  528SOL     OW 2109   0.682   2.918   2.925 -0.1149  0.1141  0.2732
  528SOL    HW1 2110   0.652   3.010   2.920  0.3746  1.3391  1.9373
  528SOL    HW2 2111   0.672   2.895   2.826  1.2883 -1.0046 -1.4933
  528SOL     MW 2112   0.677   2.927   2.911  0.1348  0.1281  0.2597
  529SOL     OW 2113   0.944   2.330   1.890  0.3852 -0.4262 -0.7342
  529SOL    HW1 2114   0.990   2.321   1.973  0.5842  3.2402  1.3781
  529SOL    HW2 2115   1.006   2.393   1.847 -0.0184 -1.5163  0.8008
  529SOL     MW 2116   0.958   2.337   1.895  0.3582 -0.0863 -0.2530
  530SOL     OW 2117   1.145   2.456   3.057  0.4004  0.5752  0.0529
  530SOL    HW1 2118   1.062   2.511   3.074 -3.7326 -1.1923 -3.1866
  530SOL    HW2 2119   1.102   2.374   3.063  1.0498  0.9153 -2.7736
  530SOL     MW 2120   1.128   2.452   3.060 -0.0592  0.3869 -0.7474
  531SOL     OW 2121   0.981   1.905   2.648  0.2616  0.4629 -0.2889
  531SOL    HW1 2122   0.975   1.967   2.721  2.3476 -2.1705 -0.2903
  531SOL    HW2 2123   0.941   1.818   2.674  2.0984 -2.0723  1.7633
  531SOL     MW 2124   0.975   1.902   2.661  0.7792 -0.2191 -0.0183
  532SOL     OW 2125   1.704   0.299   2.838  0.1943 -0.0761  0.2826
  532SOL    HW1 2126   1.675   0.218   2.870 -1.0664  0.8279 -0.1910
  532SOL    HW2 2127   1.793   0.313   2.892  1.5735  0.4052 -0.6195
  532SOL     MW 2128   1.712   0.290   2.849  0.2100  0.1067  0.1011
  533SOL     OW 2129   1.787   2.636   2.983 -0.5110 -0.2686  0.2096
  533SOL    HW1 2130   1.739   2.593   3.055 -3.1028  0.3755 -0.5577
  533SOL    HW2 2131   1.722   2.651   2.906 -2.1936  1.1046 -1.6875
  533SOL     MW 2132   1.772   2.632   2.982 -1.0750 -0.0024 -0.1419
  534SOL     OW 2133   1.779   2.379   2.465  0.4711 -0.8202  0.2042
  534SOL    HW1 2134   1.710   2.329   2.509 -1.2068 -0.5359  1.5174
  534SOL    HW2 2135   1.855   2.374   2.539 -1.5524  2.0723  1.2336
  534SOL     MW 2136   1.780   2.371   2.481 -0.0173 -0.4011  0.5133
  535SOL     OW 2137   1.832   2.322   1.957  0.1481 -0.1165 -0.0765
  535SOL    HW1 2138   1.786   2.354   1.880 -1.8124  0.0526 -0.0676
  535SOL    HW2 2139   1.924   2.338   1.928  0.6365  0.8202 -1.2237
  535SOL     MW 2140   1.838   2.328   1.943 -0.0461  0.0294 -0.2267
  536SOL     OW 2141   0.467   1.830   2.018  0.0424 -0.0152 -0.1760
  536SOL    HW1 2142   0.468   1.815   1.924 -0.4074  1.9052 -2.0984
  536SOL    HW2 2143   0.552   1.857   2.043 -3.1098  1.1287  1.8841
  536SOL     MW 2144   0.478   1.831   2.009 -0.4328  0.3891 -0.1579
  537SOL     OW 2145   1.115   0.196   2.895 -0.0331  0.5995 -0.0384
  537SOL    HW1 2146   1.047   0.180   2.959 -3.1184  0.2951 -0.6012
  537SOL    HW2 2147   1.113   0.293   2.870 -1.3489  0.5549  0.3721
  537SOL     MW 2148   1.106   0.207   2.900 -0.6138  0.5534 -0.0585
  538SOL     OW 2149   1.361   0.065   2.970  0.7955  0.4042  0.0019
  538SOL    HW1 2150   1.290   0.127   2.952  0.3153  0.3019 -0.3312
  538SOL    HW2 2151   1.429   0.078   2.903  1.1338 -0.8278  0.3306
  538SOL     MW 2152   1.360   0.075   2.959  0.7768  0.2282  0.0013
  539SOL     OW 2153   0.765   2.756   2.519 -0.1205  0.3258  0.4945
  539SOL    HW1 2154   0.848   2.800   2.543  0.6192  1.0232  0.5835
  539SOL    HW2 2155   0.787   2.657   2.517 -0.7284 -1.4685 -0.5929
  539SOL     MW 2156   0.779   2.748   2.522 -0.1031  0.1811  0.3627
  540SOL     OW 2157   0.348   2.283   2.890 -0.1367  0.6142 -0.0586
  540SOL    HW1 2158   0.438   2.311   2.889 -1.0958 -1.1222 -3.6825
  540SOL    HW2 2159   0.340   2.236   2.971  0.4562  0.0462  0.5376
  540SOL     MW 2160   0.359   2.280   2.900 -0.1850  0.3101 -0.4581
  541SOL     OW 2161   0.144   2.912   2.201  0.1214 -0.0250 -0.4447
  541SOL    HW1 2162   0.161   2.836   2.147  0.2824 -0.4408 -0.9249
  541SOL    HW2 2163   0.212   2.905   2.273  2.4277  0.4406  0.0791
  541SOL     MW 2164   0.155   2.901   2.203  0.4469 -0.0185 -0.4390
  542SOL     OW 2165   1.037   2.269   2.570  0.5014  0.5873 -0.5306
  542SOL    HW1 2166   0.988   2.199   2.600  0.0053  0.3891 -1.8520
  542SOL    HW2 2167   1.047   2.326   2.647 -0.0990  0.0962 -0.0923
  542SOL     MW 2168   1.032   2.268   2.584  0.3567  0.4964 -0.6471
  543SOL     OW 2169   1.412   2.520   2.683  0.0761 -0.0334  0.1776
  543SOL    HW1 2170   1.453   2.447   2.627  2.3453 -1.9742 -1.1864
  543SOL    HW2 2171   1.481   2.585   2.701  0.8342  1.1989  3.2422
  543SOL     MW 2172   1.427   2.519   2.678  0.4755 -0.1269  0.4020
  544SOL     OW 2173   0.579   0.237   2.700  0.1024  0.1483  0.0291
  544SOL    HW1 2174   0.485   0.198   2.708  2.5066 -0.6212 -1.0163
  544SOL    HW2 2175   0.626   0.187   2.631  1.4611 -0.0164 -0.2954
  544SOL     MW 2176   0.573   0.225   2.692  0.5989  0.0251 -0.1517
  545SOL     OW 2177   1.521   2.167   2.257  0.1956  0.3257  0.1053
  545SOL    HW1 2178   1.482   2.170   2.169 -0.1913 -0.2143 -0.5852
  545SOL    HW2 2179   1.618   2.149   2.237  1.5665 -1.8620  0.4537
  545SOL     MW 2180   1.528   2.165   2.242  0.3254 -0.0342  0.0602
  546SOL     OW 2181   2.956   2.046   0.113  0.0936  0.0056 -0.2502
  546SOL    HW1 2182   2.966   2.143   0.081 -1.8646  1.1159 -0.5475
  546SOL    HW2 2183   3.039   1.997   0.095  0.5333 -3.8743  1.2890
  546SOL     MW 2184   2.968   2.053   0.107 -0.1067 -0.3598 -0.0864
  547SOL     OW 2185   0.227   2.979   0.153  0.1884  0.0883  0.5357
  547SOL    HW1 2186   0.274   3.030   0.095 -1.9192  0.4615 -0.7602
  547SOL    HW2 2187   0.245   2.888   0.125 -0.5983 -0.8986 -1.3021
  547SOL     MW 2188   0.235   2.974   0.142 -0.1935  0.0073  0.1222
  548SOL     OW 2189   0.318   2.548   0.242  0.1540 -0.0863 -0.5409
  548SOL    HW1 2190   0.316   2.618   0.177 -2.0476  1.3330  1.2670
  548SOL    HW2 2191   0.244   2.498   0.217  1.5179  2.3241  0.9343
  548SOL     MW 2192   0.308   2.551   0.230  0.0434  0.4190 -0.1077
  549SOL     OW 2193   0.753   1.878   2.095  0.8839  0.1350  0.9243
  549SOL    HW1 2194   0.757   1.971   2.051  1.2489 -0.5538 -0.9688
  549SOL    HW2 2195   0.780   1.882   2.187 -2.1979 -0.6390 -0.0932
  549SOL     MW 2196   0.757   1.891   2.101  0.5255 -0.0580  0.5403
  550SOL     OW 2197   1.816   1.748   2.511 -0.2770 -0.2793 -0.1460
  550SOL    HW1 2198   1.809   1.745   2.419 -1.4606 -0.1200  1.5001
  550SOL    HW2 2199   1.803   1.837   2.530  0.5391  0.3894  0.7406
  550SOL     MW 2200   1.813   1.760   2.501 -0.3255 -0.1700  0.1881
  551SOL     OW 2201   0.885   2.351   0.225  0.8337 -0.2036  0.0669
  551SOL    HW1 2202   0.982   2.362   0.228  2.9812  0.1697 -2.3458
  551SOL    HW2 2203   0.875   2.262   0.193 -1.2437  0.6455 -2.7910
  551SOL     MW 2204   0.896   2.341   0.221  0.8429 -0.0423 -0.6285
  552SOL     OW 2205   1.740   1.776   2.229  0.0313 -0.1362  0.2550
  552SOL    HW1 2206   1.646   1.758   2.230 -0.7670  0.2169  0.0007
  552SOL    HW2 2207   1.774   1.728   2.150  1.3043 -3.0208 -4.8229
  552SOL     MW 2208   1.732   1.767   2.219  0.0939 -0.4703 -0.4485
  553SOL     OW 2209   1.234   2.328   1.494 -0.0475 -0.3095 -0.2402
  553SOL    HW1 2210   1.282   2.243   1.499  1.6397 -1.3912 -0.0399
  553SOL    HW2 2211   1.295   2.389   1.453 -0.1584  3.1651  0.1738
  553SOL     MW 2212   1.248   2.325   1.489  0.1605  0.0062 -0.1591
  554SOL     OW 2213   0.586   2.864   2.683 -0.0153  0.1669 -0.0813
  554SOL    HW1 2214   0.522   2.921   2.633 -1.8897 -2.0182  0.6079
  554SOL    HW2 2215   0.661   2.847   2.623 -0.6277 -1.2069 -2.0276
  554SOL     MW 2216   0.587   2.869   2.669 -0.3434 -0.3027 -0.2472
  555SOL     OW 2217   0.605   2.455   2.581 -0.3834 -0.5408  0.4485
  555SOL    HW1 2218   0.554   2.368   2.571 -1.0496 -1.2813 -2.2759
  555SOL    HW2 2219   0.684   2.441   2.527  2.5186 -3.3454 -2.6753
  555SOL     MW 2220   0.609   2.442   2.573 -0.0884 -1.0086 -0.3232
  556SOL     OW 2221   0.939   1.782   0.173 -0.0956 -0.2332 -0.2995
  556SOL    HW1 2222   0.960   1.778   0.079 -0.5915 -0.9101  0.2585
  556SOL    HW2 2223   1.022   1.818   0.211  0.5104  1.4519  0.1357
  556SOL     MW 2224   0.952   1.786   0.166 -0.0811 -0.1002 -0.1685
  557SOL     OW 2225   0.962   2.714   0.513  0.6420 -0.3701 -0.1553
  557SOL    HW1 2226   0.994   2.671   0.438 -0.5953  2.2118  0.2923
  557SOL    HW2 2227   0.903   2.777   0.475 -0.1621  2.5401 -0.4936
  557SOL     MW 2228   0.959   2.717   0.498  0.3727  0.3545 -0.1408
  558SOL     OW 2229   0.255   2.147   0.045  0.1840 -0.4852 -0.6265
  558SOL    HW1 2230   0.202   2.069   0.042 -1.7578  1.2561 -1.3334
  558SOL    HW2 2231   0.188   2.213   0.064  1.2821  1.3705  2.1465
  558SOL     MW 2232   0.239   2.146   0.047  0.0727 -0.0106 -0.3539
  559SOL     OW 2233   1.120   2.309   2.097  0.0196  0.6429  0.0352
  559SOL    HW1 2234   1.149   2.388   2.141  0.0659 -0.9882 -0.9000
  559SOL    HW2 2235   1.129   2.227   2.157 -1.2734 -2.0646  0.1714
  559SOL     MW 2236   1.125   2.308   2.111 -0.1449  0.0705 -0.0702
  560SOL     OW 2237   1.922   2.862   0.057 -0.2475  0.1342  0.5093
  560SOL    HW1 2238   1.986   2.921   0.009  0.6076  2.3414  0.9573
  560SOL    HW2 2239   1.906   2.782   0.008 -1.6794  1.0671  0.8493
  560SOL     MW 2240   1.929   2.859   0.044 -0.3236  0.5485  0.6132
  561SOL     OW 2241   0.451   2.122   0.235  0.2060  0.2207  0.5311
  561SOL    HW1 2242   0.401   2.163   0.158  1.3383  1.3803 -0.2151
  561SOL    HW2 2243   0.523   2.185   0.260 -2.0673 -2.0740 -2.4282
  561SOL     MW 2244   0.454   2.136   0.228  0.0555  0.0709  0.0422
  562SOL     OW 2245   0.855   2.179   2.222 -0.4524  0.0703  0.0012
  562SOL    HW1 2246   0.891   2.263   2.251 -0.1796 -0.9517 -2.3181
  562SOL    HW2 2247   0.923   2.113   2.250 -1.4736 -1.7464  0.7148
  562SOL     MW 2248   0.869   2.182   2.230 -0.5511 -0.3042 -0.2107
  563SOL     OW 2249   1.134   0.310   0.642 -0.0801 -0.2386  0.3965
  563SOL    HW1 2250   1.101   0.293   0.553 -0.6729  2.7848 -0.2513
  563SOL    HW2 2251   1.189   0.234   0.664  0.8258 -0.6101 -0.3219
  563SOL     MW 2252   1.137   0.298   0.634 -0.0388  0.1113  0.2162
  564SOL     OW 2253   1.073   2.536   2.325 -0.4783  0.0796 -0.1095
  564SOL    HW1 2254   1.105   2.584   2.241 -1.4815 -0.2088 -0.2133
  564SOL    HW2 2255   1.124   2.573   2.399  0.3636  0.4832 -2.1494
  564SOL     MW 2256   1.084   2.547   2.324 -0.4996  0.0948 -0.3924
  565SOL     OW 2257   2.877   2.685   2.600  0.2366  0.5241  0.1550
  565SOL    HW1 2258   2.941   2.720   2.545  0.6488 -0.3470  4.4394
  565SOL    HW2 2259   2.797   2.667   2.550 -2.6944 -1.4609  1.0453
  565SOL     MW 2260   2.875   2.687   2.586 -0.0957  0.1473  0.8378
  566SOL     OW 2261   2.160   1.844   2.431  0.0044  0.5499  0.1226
  566SOL    HW1 2262   2.205   1.790   2.369 -1.8026 -1.7081  1.7114
  566SOL    HW2 2263   2.201   1.933   2.418 -0.1323 -2.4632 -2.1915
  566SOL     MW 2264   2.171   1.849   2.421 -0.2520 -0.1456  0.0269
  567SOL     OW 2265   1.128   2.959   3.037 -0.3683 -0.0845 -0.6761
  567SOL    HW1 2266   1.192   3.025   3.014  2.2456  1.6426 -0.5819
  567SOL    HW2 2267   1.164   2.873   3.012  1.2002  0.4795  3.2918
  567SOL     MW 2268   1.141   2.956   3.031  0.1835  0.2178 -0.1402
  568SOL     OW 2269   1.590   2.049   2.922  0.4066  0.7390 -0.1163
  568SOL    HW1 2270   1.630   2.122   2.962 -0.1824 -0.8961 -1.7940
  568SOL    HW2 2271   1.668   2.014   2.877  2.3175  0.4055 -0.6984
  568SOL     MW 2272   1.605   2.054   2.921  0.5810  0.4792 -0.4144
  569SOL     OW 2273   0.208   2.236   2.455 -0.2861  0.0284  0.3320
  569SOL    HW1 2274   0.159   2.270   2.378  1.4561 -2.0751  1.3924
  569SOL    HW2 2275   0.220   2.319   2.503  2.0109  0.9962  0.0692
  569SOL     MW 2276   0.203   2.251   2.451  0.2468 -0.1215  0.4372
  570SOL     OW 2277   1.488   0.435   0.472 -0.2718  0.1884  0.2288
  570SOL    HW1 2278   1.400   0.457   0.506  0.3800 -1.9813  3.5224
  570SOL    HW2 2279   1.558   0.436   0.540  1.5522  0.9762  0.6358
  570SOL     MW 2280   1.486   0.438   0.486  0.0549  0.0060  0.7171
  571SOL     OW 2281   1.496   2.408   2.003 -0.1065 -0.0661 -0.0864
  571SOL    HW1 2282   1.560   2.405   2.077  1.8532 -2.1816  0.3684
  571SOL    HW2 2283   1.470   2.319   1.989  0.7991 -1.6884 -1.3472
  571SOL     MW 2284   1.501   2.396   2.011  0.2715 -0.5593 -0.1927
  572SOL     OW 2285   0.925   2.602   0.016 -0.3404 -0.9164 -0.1970
  572SOL    HW1 2286   0.913   2.644  -0.069 -0.6784  0.1403  2.3995
  572SOL    HW2 2287   0.841   2.556   0.032 -0.5216 -1.8808 -0.7599
  572SOL     MW 2288   0.912   2.601   0.007 -0.4089 -0.9042  0.0713
  573SOL     OW 2289   1.157   2.366   0.264 -0.0201  0.0864  0.0156
  573SOL    HW1 2290   1.227   2.365   0.194 -1.1631  0.3051  1.5178
  573SOL    HW2 2291   1.127   2.459   0.270 -1.0003  3.6770 -2.0247
  573SOL     MW 2292   1.162   2.378   0.256 -0.3003  0.5890 -0.0554
  574SOL     OW 2293   1.059   2.614   0.271  0.3191  0.0876 -0.3723
  574SOL    HW1 2294   1.126   2.685   0.283 -0.5235  0.6865 -0.5253
  574SOL    HW2 2295   1.010   2.621   0.191  0.9364 -2.0515  0.1265
  574SOL     MW 2296   1.062   2.624   0.262  0.2894 -0.1156 -0.3267
  575SOL     OW 2297   3.093   2.312   1.787  0.2353 -0.3196 -0.3483
  575SOL    HW1 2298   3.049   2.248   1.725 -1.5649 -0.8521  1.2480
  575SOL    HW2 2299   3.155   2.364   1.734  0.9915  0.9861  1.3194
  575SOL     MW 2300   3.096   2.311   1.772  0.0975 -0.2176  0.0824
  576SOL     OW 2301   2.877   1.798   2.031  0.7068  0.0686  0.0783
  576SOL    HW1 2302   2.880   1.885   1.982  0.3422  0.5508  0.0612
  576SOL    HW2 2303   2.796   1.759   2.001  2.0814  0.4608 -2.6719
  576SOL     MW 2304   2.867   1.805   2.021  0.8401  0.1839 -0.2868
  577SOL     OW 2305   2.136   0.276   0.058  0.2839 -0.6005 -0.3863
  577SOL    HW1 2306   2.079   0.266  -0.018  1.0657 -0.1037  0.1511
  577SOL    HW2 2307   2.082   0.234   0.134 -4.1774 -2.1279  0.3541
  577SOL     MW 2308   2.121   0.269   0.058 -0.2016 -0.7365 -0.2177
  578SOL     OW 2309   1.921   2.053   2.454 -0.4226  0.1258 -0.3998
  578SOL    HW1 2310   1.858   2.055   2.387  1.1792 -1.5392  1.8264
  578SOL    HW2 2311   1.970   1.974   2.441 -1.2478  0.8021 -0.0554
  578SOL     MW 2312   1.919   2.043   2.444 -0.3201 -0.0047 -0.0607
  579SOL     OW 2313   0.869   2.473   2.505  0.6435  0.1876 -0.3971
  579SOL    HW1 2314   0.918   2.402   2.548 -0.9255 -0.7297  2.6832
  579SOL    HW2 2315   0.934   2.516   2.449 -0.5230  1.0930 -1.0085
  579SOL     MW 2316   0.884   2.470   2.504  0.2826  0.1861 -0.0713
  580SOL     OW 2317   0.861   2.992   0.012  0.4369 -0.3323  0.2981
  580SOL    HW1 2318   0.948   2.958  -0.014 -0.0921  1.4871  1.0561
  580SOL    HW2 2319   0.811   2.970  -0.067  0.3652  1.4358  0.7521
  580SOL     MW 2320   0.866   2.984  -0.002  0.3577  0.1410  0.4580
  581SOL     OW 2321   1.133   2.456   1.702 -0.3037  0.2762 -0.1455
  581SOL    HW1 2322   1.203   2.499   1.747 -1.9348  1.2543 -2.9732
  581SOL    HW2 2323   1.169   2.385   1.648 -0.1440  0.2532 -0.9557
  581SOL     MW 2324   1.147   2.452   1.701 -0.4979  0.4022 -0.6255
  582SOL     OW 2325   3.085   2.874   2.518 -0.4454  0.0590  0.0826
  582SOL    HW1 2326   3.032   2.939   2.567  1.3965 -1.1844 -0.8868
  582SOL    HW2 2327   3.178   2.903   2.510 -0.1610  0.0998  1.4603
  582SOL     MW 2328   3.090   2.886   2.524 -0.1649 -0.0997  0.1365
  583SOL     OW 2329   1.966   2.389   2.648 -0.1505 -0.5088 -0.1641
  583SOL    HW1 2330   2.042   2.410   2.592 -0.8654  0.0795 -0.8185
  583SOL    HW2 2331   1.971   2.293   2.676  3.8081  0.0400  0.7261
  583SOL     MW 2332   1.977   2.379   2.644  0.2775 -0.3587 -0.1330
  584SOL     OW 2333   0.197   1.900   2.116 -0.8305 -0.1377  0.5498
  584SOL    HW1 2334   0.285   1.874   2.079  1.4124  2.3789 -3.0841
  584SOL    HW2 2335   0.233   1.940   2.197 -0.8341 -4.5742  1.2050
  584SOL     MW 2336   0.213   1.902   2.122 -0.5351 -0.3910  0.1568
  585SOL     OW 2337   1.442   2.654   0.093 -0.0969 -0.1912  0.1961
  585SOL    HW1 2338   1.423   2.649   0.004  0.1147  0.1396 -0.8709
  585SOL    HW2 2339   1.360   2.671   0.142 -0.6680  2.5985  3.3102
  585SOL     MW 2340   1.429   2.656   0.088 -0.1443  0.2205  0.4662
  586SOL     OW 2341   1.408   2.821   2.472  0.2100 -0.7374  0.2736
  586SOL    HW1 2342   1.476   2.833   2.409  2.1809  0.0415  0.6126
  586SOL    HW2 2343   1.410   2.913   2.512 -0.4959  2.8766  0.1665
  586SOL     MW 2344   1.417   2.835   2.469  0.3769 -0.1578  0.3042
  587SOL     OW 2345   1.302   1.571   2.177 -0.1081 -0.6030  0.3722
  587SOL    HW1 2346   1.292   1.484   2.220 -0.9678  0.1383 -1.4179
  587SOL    HW2 2347   1.304   1.555   2.085  2.3609 -0.2452  0.4195
  587SOL     MW 2348   1.301   1.557   2.171  0.1042 -0.4580  0.1423
  588SOL     OW 2349   1.389   2.135   2.751 -0.4736 -0.1997 -0.4148
  588SOL    HW1 2350   1.458   2.105   2.811  0.1193  1.6813 -0.3676
  588SOL    HW2 2351   1.346   2.183   2.823 -1.2810  1.8345  2.1673
  588SOL     MW 2352   1.392   2.137   2.768 -0.5019  0.3169 -0.0679
  589SOL     OW 2353   1.311   2.071   0.063  0.0347 -0.1156 -0.1531
  589SOL    HW1 2354   1.347   2.154   0.100  1.9567 -0.5438  2.5906
  589SOL    HW2 2355   1.257   2.034   0.135 -0.2720 -0.4467 -0.1146
  589SOL     MW 2356   1.309   2.077   0.078  0.2478 -0.2158  0.2140
  590SOL     OW 2357   0.439   2.644   2.254  0.3467  0.9073 -0.5611
  590SOL    HW1 2358   0.406   2.638   2.158 -0.5218  3.0449 -0.8406
  590SOL    HW2 2359   0.506   2.713   2.238 -0.9694  3.8344  1.7638
  590SOL     MW 2360   0.443   2.652   2.239  0.0584  1.5755 -0.2912
  591SOL     OW 2361   2.283   0.730   3.067  0.0583 -0.1969  0.1113
  591SOL    HW1 2362   2.221   0.808   3.046  0.8378 -0.4781 -0.8953
  591SOL    HW2 2363   2.364   0.749   3.021  0.6149  1.0574 -2.3827
  591SOL     MW 2364   2.285   0.743   3.058  0.2346 -0.0685 -0.3505
  592SOL     OW 2365   1.799   2.935   0.830  0.2498 -0.1942 -0.1673
  592SOL    HW1 2366   1.813   3.005   0.766  0.6734  0.0921  0.7853
  592SOL    HW2 2367   1.857   2.865   0.802 -0.9019 -1.9998  1.3330
  592SOL     MW 2368   1.809   2.935   0.818  0.1538 -0.3947  0.1563
  593SOL     OW 2369   1.899   0.719   0.884 -0.1074 -0.3912  0.4919
  593SOL    HW1 2370   1.815   0.707   0.839 -0.3006 -0.1278  0.2875
  593SOL    HW2 2371   1.944   0.634   0.888 -2.0573 -1.1154  2.4525
  593SOL     MW 2372   1.894   0.706   0.879 -0.3901 -0.4520  0.7236
  594SOL     OW 2373   2.777   1.168   1.342  0.2999  0.0514 -0.0878
  594SOL    HW1 2374   2.867   1.180   1.365  0.6158  0.2750 -0.2064
  594SOL    HW2 2375   2.775   1.127   1.254 -0.7983 -0.4613 -0.7196
  594SOL     MW 2376   2.789   1.164   1.334  0.1967  0.0132 -0.1868
  595SOL     OW 2377   0.503   0.979   0.750 -0.3229  0.2066  0.4052
  595SOL    HW1 2378   0.528   1.036   0.672  0.8048 -4.0252  1.3134
  595SOL    HW2 2379   0.531   1.029   0.826 -0.6309  0.3265  1.1771
  595SOL     MW 2380   0.510   0.993   0.750 -0.2148 -0.3359  0.6268
  596SOL     OW 2381   2.515   1.352   0.529 -0.6711  0.2135  0.3136
  596SOL    HW1 2382   2.554   1.436   0.498  0.6689  1.7815 -2.9822
  596SOL    HW2 2383   2.562   1.319   0.609 -2.9460 -2.2341  1.5294
  596SOL     MW 2384   2.526   1.359   0.535 -0.7945  0.0975  0.0392
  597SOL     OW 2385   2.193   0.696   1.603  0.3872  0.0753 -0.1968
  597SOL    HW1 2386   2.239   0.627   1.649  1.7963 -0.8776 -1.9815
  597SOL    HW2 2387   2.110   0.651   1.579 -1.6557  2.4994  2.2864
  597SOL     MW 2388   2.188   0.681   1.606  0.3036  0.2694 -0.1047
  598SOL     OW 2389   2.595   0.972   2.868  0.4406 -0.0187 -0.5042
  598SOL    HW1 2390   2.607   0.938   2.779 -1.9124 -1.4160 -3.6671
  598SOL    HW2 2391   2.674   1.015   2.898  1.5081  0.7689 -2.0078
  598SOL     MW 2392   2.607   0.973   2.860  0.2710 -0.0991 -1.1199
  599SOL     OW 2393   2.937   0.408   2.083  0.6431 -0.3509 -0.0619
  599SOL    HW1 2394   2.908   0.413   2.174 -0.0540  1.7569  0.0157
  599SOL    HW2 2395   2.988   0.495   2.067  1.9079 -1.1505 -1.0407
  599SOL     MW 2396   2.940   0.420   2.092  0.7180 -0.1783 -0.1808
  600SOL     OW 2397   1.914   1.749   0.885 -0.1156 -0.6650 -0.2003
  600SOL    HW1 2398   1.961   1.795   0.958 -0.9566  0.7281 -2.8861
  600SOL    HW2 2399   1.840   1.808   0.875  4.2976  1.0908  0.3358
  600SOL     MW 2400   1.911   1.763   0.894  0.3557 -0.2495 -0.4840
  601SOL     OW 2401   2.519   0.784   0.828  0.4154 -0.5341 -0.1314
  601SOL    HW1 2402   2.511   0.816   0.920 -0.3746 -0.2736  3.4073
  601SOL    HW2 2403   2.439   0.732   0.798  1.1039 -1.8833  0.0994
  601SOL     MW 2404   2.507   0.782   0.836  0.4020 -0.6777  0.3659
  602SOL     OW 2405   2.306   1.949   0.829  0.5805  0.0067  0.3197
  602SOL    HW1 2406   2.275   1.862   0.861  1.9680 -1.2099 -0.8579
  602SOL    HW2 2407   2.232   1.985   0.784  0.4799  0.1431 -1.3631
  602SOL     MW 2408   2.292   1.942   0.827  0.7503 -0.1358 -0.0577
  603SOL     OW 2409   3.059   1.377   1.818 -0.3862  0.4073 -0.1529
  603SOL    HW1 2410   3.093   1.450   1.867  0.6866  1.2648 -2.6106
  603SOL    HW2 2411   3.081   1.296   1.869 -0.8632 -0.2688  3.1824
  603SOL     MW 2412   3.066   1.376   1.831 -0.3076  0.4312 -0.0371
  604SOL     OW 2413   2.142   1.548   0.469  0.5413  0.3366 -0.1236
  604SOL    HW1 2414   2.156   1.478   0.533 -1.3960 -0.8427 -1.1380
  604SOL    HW2 2415   2.078   1.604   0.511  4.4684 -2.9458  0.2386
  604SOL     MW 2416   2.135   1.546   0.483  0.8038 -0.2521 -0.2097
  605SOL     OW 2417   2.644   1.538   0.825 -0.6515  0.5026 -0.1008
  605SOL    HW1 2418   2.591   1.608   0.777 -0.2408  1.8697  0.5194
  605SOL    HW2 2419   2.621   1.447   0.790 -1.1070  0.0530  2.4107
  605SOL     MW 2420   2.634   1.535   0.814 -0.6574  0.6237  0.3124
  606SOL     OW 2421   2.596   1.859   1.898  0.4523 -0.0629  0.0947
  606SOL    HW1 2422   2.502   1.846   1.910 -0.7462 -2.4302 -2.4095
  606SOL    HW2 2423   2.629   1.774   1.868 -0.1975 -0.1306 -2.6289
  606SOL     MW 2424   2.588   1.846   1.896  0.2085 -0.3841 -0.5950
  607SOL     OW 2425   2.350   1.028   3.049 -0.1770  0.1701 -0.0126
  607SOL    HW1 2426   2.438   1.029   3.008  1.6340 -2.4914  0.4196
  607SOL    HW2 2427   2.363   0.987   3.141  1.3470 -1.2501  0.8234
  607SOL     MW 2428   2.363   1.023   3.056  0.2631 -0.3684  0.1547
  608SOL     OW 2429   1.899   0.295   0.617  0.1550  0.3583  0.0357
  608SOL    HW1 2430   1.922   0.318   0.527 -1.7217  0.0117  0.4985
  608SOL    HW2 2431   1.848   0.209   0.610  3.6000 -3.0287 -1.9996
  608SOL     MW 2432   1.896   0.287   0.605  0.3619 -0.1343 -0.1718
  609SOL     OW 2433   2.098   2.013   3.053  0.1669 -0.2167  0.0376
  609SOL    HW1 2434   2.018   1.963   3.045  0.7199  1.4427 -1.1136
  609SOL    HW2 2435   2.131   1.972   3.136  0.5176 -0.1066  0.4005
  609SOL     MW 2436   2.092   2.001   3.063  0.2861  0.0168 -0.0664
  610SOL     OW 2437   1.766   1.016   1.261  0.4203  0.3828 -0.1601
  610SOL    HW1 2438   1.789   0.934   1.216 -0.2930  0.2999  3.0469
  610SOL    HW2 2439   1.675   1.024   1.244  2.0646 -0.1340  2.6980
  610SOL     MW 2440   1.757   1.006   1.253  0.5431  0.3037  0.6401
  611SOL     OW 2441   2.528   1.756   0.694  0.5262 -0.0595  0.2680
  611SOL    HW1 2442   2.469   1.812   0.750 -2.1823  1.8807 -3.7321
  611SOL    HW2 2443   2.529   1.794   0.602  0.3635  0.6304 -1.0332
  611SOL     MW 2444   2.520   1.769   0.689  0.1474  0.2875 -0.4315
  612SOL     OW 2445   2.809   2.831   0.386 -0.0347 -0.1505  0.3555
  612SOL    HW1 2446   2.836   2.890   0.458 -2.3257  2.0596 -0.9824
  612SOL    HW2 2447   2.892   2.794   0.356 -0.4784  1.4808 -0.1572
  612SOL     MW 2448   2.823   2.834   0.392 -0.3955  0.3563  0.1113
  613SOL     OW 2449   1.478   1.004   0.932  0.3395  0.5197 -0.0236
  613SOL    HW1 2450   1.489   1.091   0.975 -0.6953  0.4610 -0.0374
  613SOL    HW2 2451   1.516   0.945   0.997 -1.4864  0.8922 -0.0670
  613SOL     MW 2452   1.485   1.008   0.946 -0.0379  0.5611 -0.0311
  614SOL     OW 2453   1.975   0.533   1.495  0.3750 -0.0804 -0.0608
  614SOL    HW1 2454   2.001   0.468   1.558  1.1049 -0.8691 -0.6419
  614SOL    HW2 2455   1.966   0.501   1.405  0.4498  2.1701 -1.0804
  614SOL     MW 2456   1.977   0.520   1.491  0.4812  0.1125 -0.2720
  615SOL     OW 2457   2.382   0.735   0.298 -0.0010 -0.2383  0.2464
  615SOL    HW1 2458   2.458   0.696   0.341 -0.0395 -1.6012 -0.0322
  615SOL    HW2 2459   2.369   0.693   0.214 -0.4424  0.0234 -1.7030
  615SOL     MW 2460   2.391   0.724   0.293 -0.0644 -0.3836 -0.0476
  616SOL     OW 2461   2.509   0.438   1.602 -0.2565  0.5194  0.1543
  616SOL    HW1 2462   2.476   0.360   1.553 -1.6597 -0.3279 -0.3661
  616SOL    HW2 2463   2.505   0.505   1.536 -1.2463 -0.8309 -1.3282
  616SOL     MW 2464   2.504   0.437   1.587 -0.5722  0.2295 -0.1100
  617SOL     OW 2465   2.923   0.537   1.746 -0.2134 -0.1194 -0.2613
  617SOL    HW1 2466   2.831   0.544   1.780 -1.5046 -3.1582 -1.5902
  617SOL    HW2 2467   2.933   0.446   1.705  2.6359 -0.4097  2.6122
  617SOL     MW 2468   2.912   0.526   1.745 -0.0078 -0.5586 -0.0575
  618SOL     OW 2469   2.709   0.340   1.924  0.5645  0.2338 -0.5127
  618SOL    HW1 2470   2.682   0.427   1.897  0.6855 -0.6205 -1.8277
  618SOL    HW2 2471   2.776   0.346   1.991  0.1440  3.6025 -1.8277
  618SOL     MW 2472   2.714   0.353   1.929  0.5250  0.5656 -0.8597
  619SOL     OW 2473   2.668   0.650   0.117  0.3473 -0.1235 -0.0955
  619SOL    HW1 2474   2.712   0.733   0.117 -0.2859 -0.0660  0.3954
  619SOL    HW2 2475   2.640   0.643   0.209  1.4822  0.2784 -0.9111
  619SOL     MW 2476   2.670   0.660   0.129  0.4135 -0.0629 -0.1383
  620SOL     OW 2477   2.315   1.038   1.009 -0.0178 -0.1743  0.0079
  620SOL    HW1 2478   2.379   1.090   0.962 -1.4514 -1.1464 -2.3430
  620SOL    HW2 2479   2.270   0.996   0.940  0.1406  1.4987  1.8834
  620SOL     MW 2480   2.317   1.039   0.994 -0.1860 -0.0818 -0.0549
  621SOL     OW 2481   1.475   2.125   1.953  0.8581  0.0446  0.1383
  621SOL    HW1 2482   1.406   2.063   1.977  3.0244 -0.0443 -0.2920
  621SOL    HW2 2483   1.551   2.067   1.957 -1.5609 -0.1924 -0.3004
  621SOL     MW 2484   1.476   2.109   1.956  0.8247  0.0016  0.0236
  622SOL     OW 2485   2.587   0.169   0.272  0.4671 -0.2027  0.1131
  622SOL    HW1 2486   2.682   0.194   0.280 -0.7815 -3.7801  1.9606
  622SOL    HW2 2487   2.590   0.078   0.299 -1.1535  1.0207  0.1303
  622SOL     MW 2488   2.600   0.160   0.277  0.0885 -0.5133  0.3591
  623SOL     OW 2489   2.361   2.817   0.873  0.4533  0.2963 -0.0527
  623SOL    HW1 2490   2.443   2.870   0.863 -1.6741  0.4969  1.9192
  623SOL    HW2 2491   2.309   2.872   0.932  0.8246  0.8119  1.9917
  623SOL     MW 2492   2.365   2.831   0.879  0.2216  0.3908  0.4772
  624SOL     OW 2493   2.170   1.722   3.008 -0.4801  0.4608 -0.0986
  624SOL    HW1 2494   2.131   1.645   3.043  1.9614  1.2175  1.6112
  624SOL    HW2 2495   2.084   1.767   2.985 -2.5657  2.3970 -0.9089
  624SOL     MW 2496   2.154   1.718   3.009 -0.4331  0.8161  0.0200
  625SOL     OW 2497   2.210   1.996   1.119  0.0893 -0.6380 -0.0160
  625SOL    HW1 2498   2.279   1.931   1.120  1.6528 -2.3712 -0.5869
  625SOL    HW2 2499   2.186   2.029   1.031 -2.9901 -2.5610  0.6436
  625SOL     MW 2500   2.216   1.992   1.107 -0.1107 -1.1204 -0.0043
  626SOL     OW 2501   0.226   1.607   2.374  0.5697  0.3570 -0.0043
  626SOL    HW1 2502   0.215   1.515   2.344  1.7770 -2.5059  1.2798
  626SOL    HW2 2503   0.138   1.642   2.405  2.1587  0.0327 -0.4888
  626SOL     MW 2504   0.213   1.600   2.374  0.9386 -0.0635  0.1012
  627SOL     OW 2505   2.451   0.782   2.649  0.0903 -0.2982  0.0497
  627SOL    HW1 2506   2.413   0.869   2.665  0.7697  0.6233 -0.4088
  627SOL    HW2 2507   2.453   0.768   2.555  1.6329  2.5559  0.4921
  627SOL     MW 2508   2.446   0.792   2.639  0.3835  0.2000  0.0476
  628SOL     OW 2509   2.299   1.345   1.371  0.7909  0.1957  0.5478
  628SOL    HW1 2510   2.248   1.283   1.311 -0.2360  1.5047  0.5912
  628SOL    HW2 2511   2.393   1.321   1.358 -1.3016  0.9626 -0.4818
  628SOL     MW 2512   2.305   1.334   1.361  0.3794  0.4696  0.4177
  629SOL     OW 2513   1.870   0.557   1.212 -0.2890 -0.2057 -0.7611
  629SOL    HW1 2514   1.868   0.652   1.204  1.0300  0.3143  0.1884
  629SOL    HW2 2515   1.789   0.534   1.253  0.2155 -0.3834  0.9343
  629SOL     MW 2516   1.859   0.567   1.217 -0.0484 -0.1606 -0.4121
  630SOL     OW 2517   2.441   1.812   3.032  0.3845 -0.4158 -0.6201
  630SOL    HW1 2518   2.443   1.905   2.996 -2.2747  2.1163 -3.3887
  630SOL    HW2 2519   2.350   1.781   3.029 -0.0491 -0.9982  0.1283
  630SOL     MW 2520   2.429   1.820   3.027 -0.0236 -0.1586 -0.8866
  631SOL     OW 2521   1.958   1.836   1.580 -0.5068  0.3318 -0.0006
  631SOL    HW1 2522   1.977   1.754   1.629  1.2461 -0.5173  0.7611
  631SOL    HW2 2523   1.937   1.798   1.499  0.5801  0.4583  0.7509
  631SOL     MW 2524   1.958   1.820   1.576 -0.1321  0.2364  0.1991
  632SOL     OW 2525   0.142   2.020   1.475  0.6874 -0.1991 -0.3715
  632SOL    HW1 2526   0.078   2.055   1.540 -1.2839 -0.9577  2.0364
  632SOL    HW2 2527   0.158   1.930   1.507  0.4708  2.5746  0.0497
  632SOL     MW 2528   0.136   2.013   1.488  0.3987  0.0668  0.0018
  633SOL     OW 2529   2.593   0.558   0.366  0.2065 -0.7907 -0.2312
  633SOL    HW1 2530   2.685   0.558   0.404  2.4925 -1.5713  1.8310
  633SOL    HW2 2531   2.537   0.527   0.437  2.0219  0.3735  0.0234
  633SOL     MW 2532   2.598   0.554   0.380  0.7476 -0.7401  0.0745
  634SOL     OW 2533   2.690   3.052   0.619  0.2499  0.0199  0.0853
  634SOL    HW1 2534   2.722   3.143   0.619  1.3709  2.3063 -1.0623
  634SOL    HW2 2535   2.633   3.042   0.542  0.4006  0.5573 -1.7769
  634SOL     MW 2536   2.687   3.063   0.609  0.4177  0.3925 -0.3118
  635SOL     OW 2537   2.614   0.098   1.846 -0.0202  0.3662 -0.2471
  635SOL    HW1 2538   2.685   0.049   1.799  1.8553 -1.0856 -3.0281
  635SOL    HW2 2539   2.657   0.179   1.885 -0.0079  2.5522  2.1470
  635SOL     MW 2540   2.629   0.102   1.845  0.2289  0.4631 -0.2981
  636SOL     OW 2541   2.929   1.671   1.124 -0.5764 -0.0874  0.3422
  636SOL    HW1 2542   2.840   1.700   1.155 -1.5068 -2.7745 -0.9607
  636SOL    HW2 2543   2.983   1.752   1.125  0.0941  1.8307  0.9720
  636SOL     MW 2544   2.924   1.686   1.128 -0.6107 -0.1889  0.2534
  637SOL     OW 2545   2.850   1.477   0.680  0.0562  0.1097  0.3144
  637SOL    HW1 2546   2.921   1.539   0.690  1.1439 -1.7889  1.6054
  637SOL    HW2 2547   2.778   1.520   0.735 -0.1169 -0.5991  2.6719
  637SOL     MW 2548   2.850   1.491   0.688  0.1769 -0.2343  0.7958
  638SOL     OW 2549   2.783   0.477   0.554 -0.0292 -0.3191  0.2674
  638SOL    HW1 2550   2.871   0.488   0.525  1.1124 -1.0903 -1.1577
  638SOL    HW2 2551   2.777   0.538   0.626  3.1211  1.6885 -0.4541
  638SOL     MW 2552   2.794   0.486   0.560  0.5371 -0.1560 -0.0158
  639SOL     OW 2553   1.777   0.055   0.566 -0.1208 -0.1848  0.4553
  639SOL    HW1 2554   1.683   0.085   0.538 -0.2514 -0.1161 -2.1068
  639SOL    HW2 2555   1.798  -0.021   0.506 -0.0087 -0.8105  0.9352
  639SOL     MW 2556   1.767   0.049   0.554 -0.1232 -0.2583  0.1806
  640SOL     OW 2557   0.369   1.331   0.113  0.1467 -0.6993  0.3938
  640SOL    HW1 2558   0.393   1.339   0.020  0.9715 -0.1269 -0.6478
  640SOL    HW2 2559   0.325   1.246   0.121  1.0896 -0.3744 -1.2247
  640SOL     MW 2560   0.367   1.320   0.102  0.3799 -0.5809  0.0428
  641SOL     OW 2561   2.219   0.421   0.337 -0.4392  0.0428 -0.6825
  641SOL    HW1 2562   2.275   0.454   0.267 -0.4360 -2.6580 -0.2608
  641SOL    HW2 2563   2.248   0.329   0.343 -0.8959 -2.3604 -0.1073
  641SOL     MW 2564   2.230   0.413   0.328 -0.4991 -0.6306 -0.5510
  642SOL     OW 2565   0.053   3.087   0.579 -0.0223 -0.0702  0.0970
  642SOL    HW1 2566  -0.008   3.161   0.565 -1.1133  0.1399  0.2090
  642SOL    HW2 2567  -0.009   3.015   0.616  1.1903 -3.4364 -0.6222
  642SOL     MW 2568   0.037   3.087   0.582 -0.0062 -0.4866  0.0169
  643SOL     OW 2569   2.083   0.320   1.643 -0.4454 -0.0149 -0.3580
  643SOL    HW1 2570   2.035   0.263   1.700  0.0285  3.8873  0.8372
  643SOL    HW2 2571   2.071   0.268   1.564  1.3269 -0.6372  1.3968
  643SOL     MW 2572   2.075   0.306   1.640 -0.1490  0.4179  0.0312
  644SOL     OW 2573   2.741   1.997   1.046 -0.2025  0.6884 -0.2620
  644SOL    HW1 2574   2.715   1.938   1.113 -1.8255  0.3158 -0.6333
  644SOL    HW2 2575   2.664   2.040   1.013  2.4423 -1.7084  0.1772
  644SOL     MW 2576   2.727   1.995   1.050 -0.0677  0.3230 -0.2530
  645SOL     OW 2577   2.859   0.846   0.665 -0.1563 -0.4785  0.0733
  645SOL    HW1 2578   2.949   0.830   0.674 -2.1266  0.7280  0.5774
  645SOL    HW2 2579   2.823   0.798   0.739 -1.5168  2.1133 -0.8702
  645SOL     MW 2580   2.866   0.837   0.676 -0.5958  0.0226  0.0153
  646SOL     OW 2581   0.193   2.293   0.772 -0.0459  0.0411 -0.0184
  646SOL    HW1 2582   0.197   2.205   0.815 -1.0109 -4.5228  1.2062
  646SOL    HW2 2583   0.113   2.285   0.731  1.5036 -1.4466 -0.2079
  646SOL     MW 2584   0.183   2.280   0.772  0.0312 -0.7574  0.1182
  647SOL     OW 2585   2.677   0.480   2.978 -0.4113  0.2661  0.2949
  647SOL    HW1 2586   2.637   0.418   3.042 -0.8240 -0.0777 -0.3135
  647SOL    HW2 2587   2.630   0.556   3.003  1.5324 -0.4582 -1.4670
  647SOL     MW 2588   2.666   0.482   2.989 -0.2093  0.1251 -0.0178
  648SOL     OW 2589   2.132   0.728   1.165  0.3459  0.1096  0.9841
  648SOL    HW1 2590   2.150   0.790   1.089 -1.4628 -0.3253  0.2669
  648SOL    HW2 2591   2.147   0.779   1.246 -2.7560  1.2580 -1.2596
  648SOL     MW 2592   2.136   0.743   1.166 -0.3020  0.2037  0.5934
  649SOL     OW 2593   2.312   2.734   1.292  0.6908 -0.1584 -0.0659
  649SOL    HW1 2594   2.400   2.775   1.293  0.6985  1.6175  1.6770
  649SOL    HW2 2595   2.331   2.645   1.266 -0.3090 -2.6902 -2.6860
  649SOL     MW 2596   2.326   2.728   1.289  0.5599 -0.2582 -0.1817
  650SOL     OW 2597   2.796   0.207   0.650  0.2463  0.5483 -0.4120
  650SOL    HW1 2598   2.812   0.301   0.654 -0.2654  0.5164 -0.8773
  650SOL    HW2 2599   2.861   0.197   0.578  0.0124  4.4991 -2.2325
  650SOL     MW 2600   2.806   0.218   0.641  0.1480  1.0653 -0.7136
  651SOL     OW 2601   3.005   0.408   0.798 -0.1848 -0.0118  0.6304
  651SOL    HW1 2602   3.101   0.441   0.785  1.4880 -1.0214 -2.4747
  651SOL    HW2 2603   2.970   0.472   0.862  0.8848  0.4691  3.0840
  651SOL     MW 2604   3.013   0.421   0.804  0.1770 -0.0816  0.5444
  652SOL     OW 2605   2.423   1.482   2.972  0.4080 -0.6142 -0.8033
  652SOL    HW1 2606   2.489   1.480   2.902 -2.9489  0.7726 -1.3748
  652SOL    HW2 2607   2.401   1.577   2.990 -0.3767  1.8027 -0.7854
  652SOL     MW 2608   2.429   1.495   2.965 -0.1384 -0.1123 -0.8763
  653SOL     OW 2609   1.896   0.429   0.383  0.0452 -0.4118  0.4950
  653SOL    HW1 2610   1.836   0.361   0.360  0.0966  0.6542  0.2140
  653SOL    HW2 2611   1.963   0.427   0.320 -2.3823  0.1952  2.3011
  653SOL     MW 2612   1.897   0.420   0.372 -0.2683 -0.1910  0.6962
  654SOL     OW 2613   2.428   1.049   0.734 -0.5117  0.0588 -0.1616
  654SOL    HW1 2614   2.351   1.041   0.679 -0.3581 -0.9053  0.0860
  654SOL    HW2 2615   2.467   0.959   0.744  1.6977  0.2682 -3.0566
  654SOL     MW 2616   2.423   1.036   0.728 -0.1999 -0.0408 -0.5109
  655SOL     OW 2617   2.912   0.881   0.389 -0.8973 -0.3376 -0.1504
  655SOL    HW1 2618   2.876   0.889   0.477  0.7003 -0.6878  0.6803
  655SOL    HW2 2619   2.963   0.795   0.390 -0.0372 -0.7886 -1.2435
  655SOL     MW 2620   2.914   0.870   0.400 -0.5731 -0.4433 -0.1850
  656SOL     OW 2621   1.880   2.738   1.301 -0.7677 -0.5382  0.4767
  656SOL    HW1 2622   1.857   2.828   1.295 -0.1827  1.5919 -2.9461
  656SOL    HW2 2623   1.963   2.729   1.346  1.1734  0.5369  2.0514
  656SOL     MW 2624   1.888   2.749   1.306 -0.4344 -0.1153  0.2329
  657SOL     OW 2625   0.149   1.675   1.265 -0.4651  0.6323  0.0442
  657SOL    HW1 2626   0.230   1.699   1.218 -0.7830  0.5964  0.2078
  657SOL    HW2 2627   0.111   1.597   1.226  2.0777  0.3421 -0.3317
  657SOL     MW 2628   0.154   1.668   1.254 -0.1715  0.5892  0.0162
  658SOL     OW 2629   2.720   1.306   0.223  0.2930  0.2749  0.1393
  658SOL    HW1 2630   2.675   1.232   0.262  0.5342  2.5709  1.5345
  658SOL    HW2 2631   2.738   1.367   0.294 -0.6801  0.1760 -1.3439
  658SOL     MW 2632   2.716   1.305   0.237  0.1964  0.5648  0.1277
  659SOL     OW 2633   2.270   1.485   1.080 -0.1481  0.2575  0.2876
  659SOL    HW1 2634   2.354   1.528   1.069 -1.9825  1.6941 -3.7966
  659SOL    HW2 2635   2.238   1.501   1.167  1.0973 -0.9226 -1.1772
  659SOL     MW 2636   2.277   1.492   1.090 -0.2258  0.2913 -0.4445
  660SOL     OW 2637   2.030   1.599   1.711  0.5077  0.1073  0.2628
  660SOL    HW1 2638   2.072   1.600   1.802  3.3368 -0.0480 -1.7403
  660SOL    HW2 2639   1.954   1.536   1.707 -1.6400  0.5306  0.1442
  660SOL     MW 2640   2.026   1.591   1.723  0.5976  0.1426 -0.0171
  661SOL     OW 2641   2.366   1.009   0.228 -0.2205 -0.1217 -0.2199
  661SOL    HW1 2642   2.451   1.048   0.262  3.6759 -0.7051 -0.3633
  661SOL    HW2 2643   2.371   0.919   0.259 -0.3688 -0.2302 -1.5598
  661SOL     MW 2644   2.378   1.002   0.236  0.2740 -0.2130 -0.4156
  662SOL     OW 2645   2.577   2.984   0.860 -0.6576 -0.2916 -0.1440
  662SOL    HW1 2646   2.526   3.054   0.893 -0.4742  0.0943  0.6755
  662SOL    HW2 2647   2.615   3.012   0.776  0.7727 -1.3660  0.2578
  662SOL     MW 2648   2.575   2.997   0.853 -0.4447 -0.3824  0.0171
  663SOL     OW 2649   2.748   1.473   0.433 -0.6134 -0.4138  0.5993
  663SOL    HW1 2650   2.712   1.566   0.415  0.6029  1.6435  1.8121
  663SOL    HW2 2651   2.794   1.477   0.521  0.6097  1.2037  0.9579
  663SOL     MW 2652   2.750   1.486   0.442 -0.2916  0.0710  0.8066
  664SOL     OW 2653   2.499   1.527   1.602 -0.0330  0.2175 -0.1701
  664SOL    HW1 2654   2.490   1.617   1.569  0.5819 -1.2612  0.1946
  664SOL    HW2 2655   2.408   1.502   1.622 -0.0917  4.2334  1.3416
  664SOL     MW 2656   2.485   1.536   1.600  0.0404  0.5523  0.0775
  665SOL     OW 2657   2.853   0.883   2.015 -0.1511 -0.1264 -0.0116
  665SOL    HW1 2658   2.843   0.913   1.922  0.7774 -1.0972  2.3073
  665SOL    HW2 2659   2.935   0.840   2.006 -1.0153  1.9336  0.3988
  665SOL     MW 2660   2.863   0.881   2.001 -0.1426  0.0173  0.3485
  666SOL     OW 2661   2.764   3.025   1.699 -0.4259 -0.0179  0.0741
  666SOL    HW1 2662   2.780   3.018   1.604 -2.5454 -0.9667  0.8905
  666SOL    HW2 2663   2.715   2.948   1.710  1.4840  1.5893  0.3941
  666SOL     MW 2664   2.759   3.014   1.688 -0.4535  0.0689  0.2240
  667SOL     OW 2665   1.979   2.649   1.735  0.3296  0.2927  1.1613
  667SOL    HW1 2666   2.014   2.567   1.774 -2.0855 -0.7164  0.2596
  667SOL    HW2 2667   2.052   2.713   1.721  0.0518  0.9395 -1.8955
  667SOL     MW 2668   1.993   2.647   1.738 -0.0257  0.2449  0.6390
  668SOL     OW 2669   2.746   0.629   0.791 -0.3636  0.1901  0.0963
  668SOL    HW1 2670   2.794   0.611   0.870 -0.6228  2.2093 -0.2875
  668SOL    HW2 2671   2.680   0.690   0.816  3.3973 -1.6697 -1.6761
  668SOL     MW 2672   2.743   0.635   0.805  0.0984  0.2112 -0.1882
  669SOL     OW 2673   0.237   0.945   0.693 -0.4555  0.6599  0.7793
  669SOL    HW1 2674   0.197   0.989   0.760  0.9415 -1.6327 -2.0249
  669SOL    HW2 2675   0.334   0.942   0.713  2.1827 -1.4453  0.1400
  669SOL     MW 2676   0.245   0.950   0.704  0.0769  0.0797  0.3249
  670SOL     OW 2677   2.853   0.232   0.218  0.5107 -0.1515 -0.1194
  670SOL    HW1 2678   2.876   0.175   0.140  0.0334  0.6130 -0.7942
  670SOL    HW2 2679   2.899   0.315   0.205  2.0376 -2.3725 -0.0317
  670SOL     MW 2680   2.862   0.236   0.206  0.6492 -0.3437 -0.1969
  671SOL     OW 2681   2.071   2.936   1.471 -0.5220  0.1628 -0.2392
  671SOL    HW1 2682   2.032   2.979   1.389 -0.9841  2.1328  0.4459
  671SOL    HW2 2683   2.034   2.991   1.541  0.1045  2.9232 -1.4741
  671SOL     MW 2684   2.061   2.949   1.470 -0.5003  0.7870 -0.3118
  672SOL     OW 2685   1.900   1.671   1.364  0.3368 -0.2429 -0.5097
  672SOL    HW1 2686   1.811   1.692   1.398 -0.3472  1.8815 -1.3669
  672SOL    HW2 2687   1.919   1.721   1.279  1.5439 -2.2469  0.7639
  672SOL     MW 2688   1.891   1.680   1.357  0.4058 -0.2270 -0.4547
  673SOL     OW 2689   2.755   1.078   0.574  0.5544 -0.4941  0.0951
  673SOL    HW1 2690   2.779   1.001   0.630  2.0517 -0.2120  1.5847
  673SOL    HW2 2691   2.829   1.135   0.576 -1.8637  2.1180  1.8648
  673SOL     MW 2692   2.768   1.075   0.582  0.4329 -0.1122  0.5251
  674SOL     OW 2693   2.463   0.066   1.259 -0.5457 -0.6368  0.7635
  674SOL    HW1 2694   2.429   0.062   1.168  1.7062 -1.9376  0.1056
  674SOL    HW2 2695   2.464  -0.028   1.286 -1.1398  0.4039  1.1706
  674SOL     MW 2696   2.458   0.053   1.251 -0.3270 -0.6711  0.7304
  675SOL     OW 2697   3.023   0.873   1.069 -0.1238  0.0019 -0.1491
  675SOL    HW1 2698   3.079   0.881   1.144 -1.7127 -2.8636  1.3034
  675SOL    HW2 2699   3.045   0.927   0.993 -0.4311 -0.5443  3.3421
  675SOL     MW 2700   3.033   0.881   1.069 -0.3740 -0.4482  0.5032
  676SOL     OW 2701   2.846   1.469   1.689 -0.1226 -0.0109  0.0175
  676SOL    HW1 2702   2.793   1.398   1.639  1.6508  1.2497  0.7724
  676SOL    HW2 2703   2.933   1.432   1.715  0.3441  0.8904  1.1287
  676SOL     MW 2704   2.851   1.455   1.686  0.1729  0.2744  0.2638
  677SOL     OW 2705   2.416   0.640   1.962  0.0459 -0.2330 -0.0568
  677SOL    HW1 2706   2.357   0.588   1.905  2.6110  1.7912 -2.6510
  677SOL    HW2 2707   2.344   0.695   2.000 -0.8146 -0.6669  1.0498
  677SOL     MW 2708   2.399   0.640   1.959  0.2708 -0.0232 -0.2531
  678SOL     OW 2709   2.518   1.644   0.380  0.1325 -0.1663 -0.0825
  678SOL    HW1 2710   2.423   1.679   0.388 -1.6665 -0.4610 -0.3790
  678SOL    HW2 2711   2.526   1.614   0.283 -0.4771 -2.5892 -2.1944
  678SOL     MW 2712   2.506   1.644   0.368 -0.1853 -0.5249 -0.4003
  679SOL     OW 2713   2.264   0.475   1.168  0.0346  0.4717  0.4408
  679SOL    HW1 2714   2.237   0.385   1.159 -1.1711  0.3073  0.1804
  679SOL    HW2 2715   2.189   0.532   1.156 -0.1149  1.1711  1.8282
  679SOL     MW 2716   2.250   0.471   1.165 -0.1442  0.5423  0.5895
  680SOL     OW 2717   2.341   0.142   1.478 -0.4294  0.1720  0.5962
  680SOL    HW1 2718   2.255   0.182   1.478  2.1863 -2.5623 -0.4337
  680SOL    HW2 2719   2.384   0.126   1.388 -0.7221  1.0372 -0.9218
  680SOL     MW 2720   2.335   0.145   1.466 -0.1229 -0.0746  0.2600
  681SOL     OW 2721   0.337   0.557   1.571 -0.6192 -0.4348  0.4073
  681SOL    HW1 2722   0.310   0.484   1.622 -0.5148  1.4252 -0.6020
  681SOL    HW2 2723   0.431   0.537   1.571 -0.1558  1.6006  0.9717
  681SOL     MW 2724   0.346   0.545   1.577 -0.5442  0.0792  0.3486
  682SOL     OW 2725   0.079   2.926   1.477 -0.0163  0.1651 -0.3088
  682SOL    HW1 2726   0.094   3.020   1.440 -0.4163  0.2184 -1.3781
  682SOL    HW2 2727   0.023   2.942   1.552  1.1840 -1.4877  1.5086
  682SOL     MW 2728   0.073   2.940   1.482  0.0893 -0.0459 -0.2101
  683SOL     OW 2729   2.068   0.880   2.997  0.2263  0.1902 -0.0570
  683SOL    HW1 2730   1.986   0.830   2.970  1.0547  0.9773  0.5071
  683SOL    HW2 2731   2.039   0.967   3.017 -0.8313 -1.0137  0.5490
  683SOL     MW 2732   2.053   0.885   2.996  0.1961  0.1352  0.0974
  684SOL     OW 2733   2.215   1.706   0.914  0.0465 -0.3135 -0.1987
  684SOL    HW1 2734   2.155   1.705   0.844  0.8016 -0.9364 -0.0664
  684SOL    HW2 2735   2.228   1.622   0.952  0.9051 -1.7474  1.6167
  684SOL     MW 2736   2.209   1.695   0.910  0.2594 -0.5849  0.0583
  685SOL     OW 2737   2.684   1.751   1.224 -0.1090  0.2351 -0.2853
  685SOL    HW1 2738   2.723   1.709   1.303  1.9019  1.3562 -0.4571
  685SOL    HW2 2739   2.635   1.686   1.171  0.8137 -1.3151  1.0022
  685SOL     MW 2740   2.683   1.737   1.227  0.2781  0.1785 -0.1381
  686SOL     OW 2741   2.925   0.739   1.528  0.0936  0.0527  0.5652
  686SOL    HW1 2742   2.929   0.674   1.600 -2.4083 -0.2253 -2.2148
  686SOL    HW2 2743   3.010   0.775   1.527  1.8648 -0.3667  0.4814
  686SOL     MW 2744   2.937   0.735   1.538 -0.0028 -0.0393  0.1873
  687SOL     OW 2745   2.060   0.273   1.141  0.0316 -0.4876 -0.1242
  687SOL    HW1 2746   2.085   0.190   1.101 -3.7746  0.3722  2.5789
  687SOL    HW2 2747   2.040   0.331   1.069 -2.8231  0.9712  1.2028
  687SOL     MW 2748   2.060   0.269   1.126 -0.8472 -0.1817  0.4075
  688SOL     OW 2749   2.391   0.634   1.402 -0.5583 -0.8360  0.0716
  688SOL    HW1 2750   2.349   0.595   1.327  1.3828 -2.5692 -1.2727
  688SOL    HW2 2751   2.323   0.657   1.463  1.4401  0.7793 -2.3614
  688SOL     MW 2752   2.377   0.632   1.400 -0.0385 -0.8516 -0.4268
  689SOL     OW 2753   2.540   0.740   2.996  0.0746 -0.0710 -0.3070
  689SOL    HW1 2754   2.564   0.831   2.974 -1.9822 -1.8724  1.9818
  689SOL    HW2 2755   2.559   0.740   3.095  1.1078  0.9818 -1.0632
  689SOL     MW 2756   2.546   0.752   3.006 -0.0605 -0.1698 -0.1048
  690SOL     OW 2757   2.078   0.939   1.951 -0.1201  0.1381 -0.6690
  690SOL    HW1 2758   2.026   0.859   1.936 -0.1803  1.4181  0.5628
  690SOL    HW2 2759   2.124   0.944   1.870 -0.5617  0.6414  0.6678
  690SOL     MW 2760   2.077   0.929   1.939 -0.1863  0.3734 -0.3301
  691SOL     OW 2761   2.440   0.269   0.843 -0.0955 -0.0008  0.5913
  691SOL    HW1 2762   2.519   0.305   0.888  0.4639 -2.6789  1.7905
  691SOL    HW2 2763   2.377   0.340   0.869 -0.5458 -0.3489  0.2369
  691SOL     MW 2764   2.442   0.283   0.853 -0.0811 -0.4001  0.7028
  692SOL     OW 2765   2.825   1.623   1.452 -0.5765 -0.5785  0.1528
  692SOL    HW1 2766   2.819   1.574   1.534  2.0600  1.7065 -0.6202
  692SOL    HW2 2767   2.874   1.710   1.472 -0.4957 -0.7267  1.2228
  692SOL     MW 2768   2.830   1.628   1.466 -0.2180 -0.2965  0.1920
  693SOL     OW 2769   2.327   0.495   0.070  0.0564 -0.0915 -0.3127
  693SOL    HW1 2770   2.241   0.453   0.064 -0.1254 -1.2660  4.3359
  693SOL    HW2 2771   2.319   0.571   0.005 -0.8927 -1.9834  3.5596
  693SOL     MW 2772   2.314   0.500   0.061 -0.0928 -0.4961  0.8116
  694SOL     OW 2773   1.934   1.208   1.099 -0.0111 -0.2502  0.9152
  694SOL    HW1 2774   2.028   1.199   1.141  1.2713  0.7145 -0.6108
  694SOL    HW2 2775   1.884   1.138   1.140  0.6161  0.6173  0.4274
  694SOL     MW 2776   1.940   1.197   1.110  0.2409 -0.0085  0.6495
  695SOL     OW 2777   3.013   1.478   1.361 -0.0772  0.2861  0.7177
  695SOL    HW1 2778   2.995   1.477   1.265 -0.6632 -1.8885 -0.4127
  695SOL    HW2 2779   2.951   1.540   1.391  1.0496 -1.9624 -1.3898
  695SOL     MW 2780   3.003   1.486   1.352 -0.0059 -0.2975  0.2905
  696SOL     OW 2781   2.117   1.371   0.882  0.3026  0.0134  0.3922
  696SOL    HW1 2782   2.168   1.420   0.952 -2.0227 -0.6576 -1.5537
  696SOL    HW2 2783   2.060   1.312   0.930  1.6345 -0.9545 -0.4370
  696SOL     MW 2784   2.116   1.369   0.898  0.1715 -0.2028  0.0261
  697SOL     OW 2785   2.923   1.119   2.155  0.3951  0.1902 -0.1358
  697SOL    HW1 2786   2.852   1.169   2.183 -0.7152  0.5887  1.1952
  697SOL    HW2 2787   2.895   1.037   2.109 -1.4374  0.5062  0.7381
  697SOL     MW 2788   2.910   1.115   2.153  0.0068  0.2845  0.1551
  698SOL     OW 2789   2.538   0.316   0.039 -0.7211  0.1352  0.0877
  698SOL    HW1 2790   2.468   0.381   0.059  0.3006  0.3566 -0.0805
  698SOL    HW2 2791   2.546   0.273   0.125 -1.9668 -0.1555  3.1720
  698SOL     MW 2792   2.530   0.319   0.053 -0.7506  0.1261  0.4724
  699SOL     OW 2793   1.839   1.652   1.987  0.6301 -0.8351  0.0007
  699SOL    HW1 2794   1.822   1.564   1.987 -1.1626  1.3275 -2.1602
  699SOL    HW2 2795   1.935   1.661   1.993 -1.7845  0.3192  0.8348
  699SOL     MW 2796   1.850   1.641   1.988  0.0750 -0.3975 -0.1743
  700SOL     OW 2797   2.698   0.928   1.518  0.1227  0.1745 -0.3816
  700SOL    HW1 2798   2.707   1.001   1.456 -0.7631  0.3790 -2.2924
  700SOL    HW2 2799   2.784   0.890   1.510  0.7338  0.7933  0.4329
  700SOL     MW 2800   2.710   0.933   1.509  0.0865  0.2831 -0.5262
  701SOL     OW 2801   1.598   1.232   2.498  0.2123 -0.0506 -0.3661
  701SOL    HW1 2802   1.696   1.233   2.499  1.3464  2.2513  0.4675
  701SOL    HW2 2803   1.581   1.260   2.587  1.3973 -1.0858 -1.2165
  701SOL     MW 2804   1.609   1.236   2.510  0.5183  0.1165 -0.3683
  702SOL     OW 2805   2.217   0.414   0.870 -0.1517  1.1274  0.0816
  702SOL    HW1 2806   2.191   0.352   0.798  0.8080 -0.8508 -2.1272
  702SOL    HW2 2807   2.265   0.491   0.828  2.6039  0.9589  1.9250
  702SOL     MW 2808   2.220   0.416   0.855  0.3385  0.8441  0.0334
  703SOL     OW 2809   2.745   1.240   1.005  0.0418 -0.3035 -0.2907
  703SOL    HW1 2810   2.697   1.250   0.923 -2.5140 -0.3495 -1.3576
  703SOL    HW2 2811   2.755   1.149   1.018 -0.1882  2.7065  0.1869
  703SOL     MW 2812   2.740   1.229   0.996 -0.3258  0.0876 -0.3684
  704SOL     OW 2813   0.019   1.284   0.246 -0.3411 -0.7156 -0.0252
  704SOL    HW1 2814  -0.051   1.241   0.194 -1.9722 -0.2870 -2.1667
  704SOL    HW2 2815   0.018   1.254   0.336  2.5593  0.6690 -5.0468
  704SOL     MW 2816   0.010   1.274   0.251 -0.1737 -0.4763 -0.9703
  705SOL     OW 2817   2.220   1.628   1.331  0.0519  0.2541 -0.0248
  705SOL    HW1 2818   2.132   1.644   1.363 -4.8629 -0.3868  2.8368
  705SOL    HW2 2819   2.247   1.551   1.373  1.5196  2.2593  0.3488
  705SOL     MW 2820   2.212   1.620   1.341 -0.4029  0.4341  0.4020
  706SOL     OW 2821   2.954   1.217   0.694  0.1706 -0.2548 -0.2124
  706SOL    HW1 2822   3.027   1.204   0.630 -2.5051  2.9689  0.2329
  706SOL    HW2 2823   2.935   1.313   0.693 -2.7589 -1.9309  0.8133
  706SOL     MW 2824   2.961   1.228   0.685 -0.5689 -0.0506 -0.0183
  707SOL     OW 2825   2.387   0.031   0.984  0.3669 -0.6240  0.1221
  707SOL    HW1 2826   2.382   0.106   0.927  1.9301  1.4328 -2.1161
  707SOL    HW2 2827   2.297   0.003   0.977 -0.4243  1.3792 -0.2266
  707SOL     MW 2828   2.374   0.037   0.976  0.4687 -0.0884 -0.2192
  708SOL     OW 2829   2.552   1.512   0.125 -0.5535 -0.4988 -0.2848
  708SOL    HW1 2830   2.601   1.438   0.159 -0.5312 -0.6874  0.7349
  708SOL    HW2 2831   2.516   1.493   0.042 -0.4831 -3.2824  1.4182
  708SOL     MW 2832   2.554   1.500   0.119 -0.5413 -0.8910  0.0744
  709SOL     OW 2833   1.735   1.705   0.118  0.7061 -0.4650 -0.2120
  709SOL    HW1 2834   1.716   1.718   0.031  0.0902  1.3024  0.2800
  709SOL    HW2 2835   1.655   1.713   0.173 -0.8745 -2.4201  2.2020
  709SOL     MW 2836   1.722   1.707   0.114  0.4163 -0.4898  0.1714
  710SOL     OW 2837   2.168   1.174   1.197 -0.5076  0.6987  0.2202
  710SOL    HW1 2838   2.248   1.155   1.147  0.0308  0.8481  1.3177
  710SOL    HW2 2839   2.160   1.097   1.254 -0.4502 -0.8213  0.0416
  710SOL     MW 2840   2.177   1.161   1.198 -0.4290  0.5179  0.3414
  711SOL     OW 2841   2.357   0.131   1.770  0.1098 -0.0483  0.2958
  711SOL    HW1 2842   2.448   0.117   1.793 -2.0877 -1.2998  1.4521
  711SOL    HW2 2843   2.347   0.082   1.686  1.4452 -1.2447  3.0395
  711SOL     MW 2844   2.368   0.122   1.762 -0.0040 -0.3713  0.8103
  712SOL     OW 2845   1.899   0.557   3.096 -0.0496 -0.4362  0.7141
  712SOL    HW1 2846   1.864   0.637   3.051  1.3376  1.5203  2.8749
  712SOL    HW2 2847   1.962   0.593   3.164  3.7336 -0.7527  2.8251
  712SOL     MW 2848   1.903   0.573   3.099  0.6326 -0.2199  1.2778
  713SOL     OW 2849   2.584   0.825   1.108  0.5593 -0.0148 -0.0915
  713SOL    HW1 2850   2.569   0.733   1.103 -1.2387 -0.5842  0.0868
  713SOL    HW2 2851   2.543   0.849   1.196  0.4928  2.3810 -0.8027
  713SOL     MW 2852   2.577   0.816   1.119  0.3133  0.2262 -0.1618
  714SOL     OW 2853   2.191   0.222   1.965  0.6377  0.3259  0.2201
  714SOL    HW1 2854   2.233   0.200   2.055 -1.5003 -0.1540 -0.7682
  714SOL    HW2 2855   2.249   0.167   1.906  1.8651  0.6590 -1.9214
  714SOL     MW 2856   2.204   0.212   1.969  0.5176  0.3065 -0.1928
  715SOL     OW 2857   1.713   1.937   1.679  0.2830  0.4742 -0.2553
  715SOL    HW1 2858   1.798   1.905   1.648 -1.6777  0.3730  3.4037
  715SOL    HW2 2859   1.667   1.852   1.697  3.1553 -2.4499 -2.2351
  715SOL     MW 2860   1.718   1.921   1.677  0.4033  0.0751 -0.0338
  716SOL     OW 2861   2.345   0.600   0.735 -0.1280  0.3601  0.3652
  716SOL    HW1 2862   2.400   0.545   0.679 -0.0135 -0.7270  0.4187
  716SOL    HW2 2863   2.285   0.640   0.673 -0.0384 -1.2573 -0.1333
  716SOL     MW 2864   2.344   0.598   0.719 -0.1010  0.0033  0.3065
  717SOL     OW 2865   2.885   1.462   2.918  0.1116  1.1155  0.0818
  717SOL    HW1 2866   2.979   1.456   2.926 -1.2886 -0.4257  0.1782
  717SOL    HW2 2867   2.858   1.523   2.989 -0.8151  0.2262  2.3528
  717SOL     MW 2868   2.894   1.469   2.928 -0.1954  0.7948  0.3941
  718SOL     OW 2869   2.567   1.364   1.351  0.8902  0.0366  0.3683
  718SOL    HW1 2870   2.569   1.422   1.426  2.1077 -2.1899 -2.7887
  718SOL    HW2 2871   2.646   1.316   1.339 -0.2334  1.9993 -1.3220
  718SOL     MW 2872   2.578   1.366   1.360  0.9026  0.0018 -0.2713
  719SOL     OW 2873   2.233   1.335   0.630  0.3843  0.6447 -0.2194
  719SOL    HW1 2874   2.325   1.323   0.603  1.0623  0.7505 -1.0525
  719SOL    HW2 2875   2.236   1.349   0.723 -1.0113 -0.6489 -1.0680
  719SOL     MW 2876   2.245   1.335   0.639  0.2896  0.4880 -0.4413
  720SOL     OW 2877   2.911   1.166   0.098 -0.3826 -0.1187 -0.5143
  720SOL    HW1 2878   2.889   1.081   0.139  0.6262 -2.4172 -0.4235
  720SOL    HW2 2879   2.825   1.219   0.117 -2.1724 -0.9028  1.6178
  720SOL     MW 2880   2.897   1.161   0.106 -0.4856 -0.5254 -0.2210
  721SOL     OW 2881   2.466   0.907   1.348 -0.6328  0.3434  0.0960
  721SOL    HW1 2882   2.428   0.824   1.380 -0.9231 -0.7923 -0.1592
  721SOL    HW2 2883   2.552   0.911   1.397 -1.8341  2.0294 -0.6470
  721SOL     MW 2884   2.472   0.897   1.359 -0.8296  0.4160 -0.0357
  722SOL     OW 2885   2.583   1.129   0.381  0.0132  0.6089 -0.2497
  722SOL    HW1 2886   2.532   1.196   0.427  0.8957 -0.5221  0.1715
  722SOL    HW2 2887   2.650   1.102   0.450  2.1695 -2.1782  2.1633
  722SOL     MW 2888   2.585   1.134   0.396  0.4141  0.0920  0.1242
  723SOL     OW 2889   2.246   1.410   1.640  0.4781  0.2533 -0.5267
  723SOL    HW1 2890   2.254   1.384   1.544  2.6403 -1.4022 -1.6200
  723SOL    HW2 2891   2.180   1.480   1.652 -1.2670 -0.4481 -2.6160
  723SOL     MW 2892   2.238   1.416   1.629  0.5331 -0.0576 -0.9466
  724SOL     OW 2893   2.504   0.418   0.624 -0.4794 -0.2805  0.2715
  724SOL    HW1 2894   2.483   0.353   0.694 -1.1126  0.5663 -0.3068
  724SOL    HW2 2895   2.591   0.394   0.595 -1.4744  0.0750  1.1284
  724SOL     MW 2896   2.513   0.406   0.629 -0.6942 -0.1219  0.3083
  725SOL     OW 2897   2.535   0.511   1.152  0.0644 -0.1011  0.4334
  725SOL    HW1 2898   2.583   0.516   1.242  1.4857 -1.7529  0.4484
  725SOL    HW2 2899   2.457   0.468   1.171  1.1266  1.4625 -1.0257
  725SOL     MW 2900   2.531   0.506   1.166  0.3921 -0.1127  0.2429
  726SOL     OW 2901   2.580   2.461   0.557 -0.0203  0.3495 -0.4317
  726SOL    HW1 2902   2.527   2.515   0.497 -0.6231 -1.0379  0.1095
  726SOL    HW2 2903   2.522   2.417   0.625  4.4844 -0.8667 -0.0924
  726SOL     MW 2904   2.565   2.462   0.558  0.4945  0.0060 -0.3156
  727SOL     OW 2905   2.905   0.284   1.597 -0.3520  0.7542  0.3968
  727SOL    HW1 2906   2.899   0.332   1.518 -4.3573  0.3680  2.9618
  727SOL    HW2 2907   2.821   0.246   1.615  0.3732 -0.6420  2.1227
  727SOL     MW 2908   2.893   0.285   1.589 -0.7848  0.5190  0.9630
  728SOL     OW 2909   2.829   1.131   2.925 -0.3614 -0.1927  0.1597
  728SOL    HW1 2910   2.833   1.218   2.879 -1.7896 -0.2720 -2.0977
  728SOL    HW2 2911   2.879   1.152   3.004  1.5025  1.4723 -1.0838
  728SOL     MW 2912   2.836   1.146   2.929 -0.3039  0.0165 -0.3022
  729SOL     OW 2913   2.544   1.544   1.079  0.3957  0.1898 -0.3076
  729SOL    HW1 2914   2.594   1.471   1.116 -0.2337 -0.6044 -2.4662
  729SOL    HW2 2915   2.577   1.543   0.989 -2.8838  0.1321  2.5928
  729SOL     MW 2916   2.555   1.534   1.072 -0.1201  0.0774 -0.2097
  730SOL     OW 2917   2.142   1.157   0.225  0.1294  0.5398  0.0066
  730SOL    HW1 2918   2.229   1.123   0.231  0.0858  2.6907  3.4000
  730SOL    HW2 2919   2.145   1.254   0.229 -0.6098 -0.2976  1.1530
  730SOL     MW 2920   2.154   1.166   0.227  0.0261  0.7131  0.6056
  731SOL     OW 2921   2.857   1.891   2.871 -0.0341  0.9418 -0.1106
  731SOL    HW1 2922   2.784   1.923   2.797  1.5702 -1.7180 -1.1697
  731SOL    HW2 2923   2.916   1.968   2.882  0.4157 -0.3501  1.0468
  731SOL     MW 2924   2.855   1.906   2.863  0.2370  0.4204 -0.0977
  732SOL     OW 2925   2.190   0.930   1.367 -0.7743 -0.4101  0.8591
  732SOL    HW1 2926   2.160   0.953   1.457  4.2211  0.4751  2.2179
  732SOL    HW2 2927   2.284   0.943   1.368  0.6503  0.3666  1.2832
  732SOL     MW 2928   2.199   0.935   1.379  0.0727 -0.1909  1.0943
  733SOL     OW 2929   2.322   2.800   3.009  0.0697  0.3104 -0.1230
  733SOL    HW1 2930   2.239   2.840   2.978  1.5008 -0.0367 -0.5094
  733SOL    HW2 2931   2.307   2.703   3.000 -1.0109 -0.7092 -0.0641
  733SOL     MW 2932   2.309   2.793   3.003  0.1159  0.1301 -0.1662
  734SOL     OW 2933   1.490   0.356   2.453  0.3120 -0.0929 -0.1267
  734SOL    HW1 2934   1.466   0.337   2.542 -0.5102  1.7777  1.6013
  734SOL    HW2 2935   1.544   0.280   2.416  0.3699  1.1975 -1.3170
  734SOL     MW 2936   1.494   0.343   2.460  0.2112  0.3241 -0.0558
  735SOL     OW 2937   2.959   0.953   2.595 -0.6094 -0.0033  0.1320
  735SOL    HW1 2938   2.947   0.855   2.610 -1.3401  0.2723  0.0910
  735SOL    HW2 2939   3.016   0.990   2.659  0.0042  0.1615 -2.2634
  735SOL     MW 2940   2.965   0.945   2.606 -0.6248  0.0548 -0.1895
  736SOL     OW 2941   0.118   0.593   2.562  0.0426 -0.9053 -0.5324
  736SOL    HW1 2942   0.151   0.655   2.499  1.2541  1.5524 -0.3714
  736SOL    HW2 2943   0.095   0.516   2.506  1.3819 -1.1077  0.4779
  736SOL     MW 2944   0.120   0.591   2.546  0.3792 -0.6078 -0.3778
  737SOL     OW 2945   2.926   0.666   2.623 -0.0374 -0.4800  0.2195
  737SOL    HW1 2946   2.882   0.642   2.541 -1.8856 -0.4114  1.0208
  737SOL    HW2 2947   3.021   0.656   2.606 -0.0660  1.5090 -0.6615
  737SOL     MW 2948   2.933   0.662   2.610 -0.2850 -0.2086  0.2090
  738SOL     OW 2949   0.231   0.525   1.905 -0.0650  0.8688  0.0161
  738SOL    HW1 2950   0.324   0.550   1.926 -0.5399 -2.5949 -0.4434
  738SOL    HW2 2951   0.241   0.448   1.846  1.7409 -0.6638 -3.1171
  738SOL     MW 2952   0.245   0.518   1.900  0.1106  0.2096 -0.4579
  739SOL     OW 2953   2.447   1.040   2.125 -0.5746  0.0158 -0.2042
  739SOL    HW1 2954   2.447   0.945   2.120  1.7911  0.9335  2.0256
  739SOL    HW2 2955   2.503   1.071   2.052 -1.2575  1.1510 -0.0564
  739SOL     MW 2956   2.455   1.032   2.115 -0.3526  0.2867  0.1095
  740SOL     OW 2957   0.180   1.786   2.974 -0.0580  0.4961  0.4314
  740SOL    HW1 2958   0.146   1.695   2.983 -0.2246 -1.4382 -0.8317
  740SOL    HW2 2959   0.269   1.754   2.969 -0.3753 -0.4788  0.1750
  740SOL     MW 2960   0.187   1.770   2.975 -0.1218  0.1123  0.2309
  741SOL     OW 2961   2.266   1.293   2.708 -0.0122  0.3950 -0.4685
  741SOL    HW1 2962   2.213   1.347   2.652 -1.3261  0.3219  1.8736
  741SOL    HW2 2963   2.234   1.309   2.797 -1.9067  0.0391 -0.9375
  741SOL     MW 2964   2.255   1.302   2.712 -0.4355  0.3384 -0.2213
  742SOL     OW 2965   1.571   1.318   2.216 -0.2298 -0.7486  0.2099
  742SOL    HW1 2966   1.552   1.224   2.210 -0.4098 -0.7683  0.0809
  742SOL    HW2 2967   1.573   1.332   2.308  1.3898  1.4214 -0.2480
  742SOL     MW 2968   1.569   1.308   2.227 -0.0399 -0.4649  0.1325
  743SOL     OW 2969   2.535   1.236   2.790  0.2715  0.3360  0.4673
  743SOL    HW1 2970   2.443   1.243   2.763 -2.9531  0.3091 -2.1445
  743SOL    HW2 2971   2.551   1.150   2.814  0.6925  4.3434  1.2529
  743SOL     MW 2972   2.525   1.225   2.790 -0.0984  0.8612  0.2264
  744SOL     OW 2973   2.747   0.991   1.774 -0.0791  0.5039 -0.1798
  744SOL    HW1 2974   2.678   1.043   1.821 -0.6413  1.1716 -1.1683
  744SOL    HW2 2975   2.706   0.960   1.687  0.9484  0.4975 -0.8777
  744SOL     MW 2976   2.733   0.994   1.769 -0.0177  0.5912 -0.4023
  745SOL     OW 2977   1.790   0.420   2.496  0.0908  0.0259 -0.3410
  745SOL    HW1 2978   1.791   0.445   2.399 -3.2744  0.4572 -0.8994
  745SOL    HW2 2979   1.695   0.403   2.518  0.2257 -1.0910  2.9620
  745SOL     MW 2980   1.778   0.421   2.486 -0.3354 -0.0646  0.0211
  746SOL     OW 2981   1.495   1.462   1.707 -0.1772 -0.8143 -0.1633
  746SOL    HW1 2982   1.572   1.521   1.715 -0.8612  0.5121 -0.3841
  746SOL    HW2 2983   1.489   1.424   1.793 -2.2833  1.2157 -0.2615
  746SOL     MW 2984   1.505   1.465   1.720 -0.5453 -0.3715 -0.2054
  747SOL     OW 2985   2.555   1.155   1.904  0.2935 -0.3432 -0.3486
  747SOL    HW1 2986   2.468   1.175   1.864  4.0607 -0.1724 -2.2652
  747SOL    HW2 2987   2.591   1.240   1.933  0.9811 -0.7698 -0.2755
  747SOL     MW 2988   2.548   1.169   1.903  0.8813 -0.3769 -0.5918
  748SOL     OW 2989   0.100   0.001   1.870  0.2455  0.3277  0.0344
  748SOL    HW1 2990   0.164  -0.047   1.924  0.0002  0.5659 -0.2426
  748SOL    HW2 2991   0.061   0.069   1.930 -3.0735  0.6378  1.0722
  748SOL     MW 2992   0.103   0.003   1.885 -0.2248  0.4000  0.1348
  749SOL     OW 2993   2.401   0.536   2.761 -0.3436 -0.1836  0.3200
  749SOL    HW1 2994   2.419   0.626   2.738 -1.4228  1.2522  2.7762
  749SOL    HW2 2995   2.430   0.531   2.844  1.0083 -0.2265 -3.1590
  749SOL     MW 2996   2.407   0.547   2.769 -0.3076  0.0002  0.1850
  750SOL     OW 2997   2.043   3.078   1.960 -0.2404  0.1760 -0.1143
  750SOL    HW1 2998   2.089   3.163   1.974 -4.0381  0.3501  3.2880
  750SOL    HW2 2999   2.109   3.016   1.952 -0.0558  0.3274 -1.2506
  750SOL     MW 3000   2.058   3.081   1.961 -0.7171  0.2189  0.1847
  751SOL     OW 3001   0.024   0.429   2.375  0.0227  0.8372 -0.1630
  751SOL    HW1 3002  -0.069   0.412   2.345  0.9952  1.7145 -0.6373
  751SOL    HW2 3003   0.080   0.385   2.311 -0.9768 -1.0719 -2.1384
  751SOL     MW 3004   0.019   0.421   2.362  0.0191  0.7011 -0.4862
  752SOL     OW 3005   2.127   0.881   2.744 -0.0596 -0.2529 -0.4460
  752SOL    HW1 3006   2.217   0.912   2.749 -0.3557 -1.8629  0.5624
  752SOL    HW2 3007   2.106   0.866   2.839 -1.8246 -1.5404 -0.4606
  752SOL     MW 3008   2.136   0.884   2.758 -0.3315 -0.6352 -0.3149
  753SOL     OW 3009   2.858   0.350   2.346 -0.2166 -0.5952 -0.1815
  753SOL    HW1 3010   2.792   0.286   2.315  0.3052 -0.0950 -1.9358
  753SOL    HW2 3011   2.809   0.417   2.395  3.8088 -0.9531  1.7412
  753SOL     MW 3012   2.843   0.350   2.348  0.3834 -0.5764 -0.1592
  754SOL     OW 3013   2.212   3.012   2.649  0.5038 -0.2697  0.6900
  754SOL    HW1 3014   2.237   2.997   2.557 -0.8671  0.2158  1.9809
  754SOL    HW2 3015   2.284   2.968   2.694 -1.1281 -0.7526 -1.5891
  754SOL     MW 3016   2.225   3.004   2.643  0.1076 -0.2694  0.5596
  755SOL     OW 3017   2.748   1.592   2.489  0.4296 -0.3882  0.0677
  755SOL    HW1 3018   2.687   1.525   2.522 -1.0070  1.6388  1.8229
  755SOL    HW2 3019   2.793   1.633   2.562  0.3950 -2.4029 -0.8693
  755SOL     MW 3020   2.746   1.589   2.503  0.2355 -0.3866  0.1756
  756SOL     OW 3021   2.243   1.283   3.005  0.9875  0.4375  0.2832
  756SOL    HW1 3022   2.313   1.344   3.010 -1.8658  1.9908  2.6486
  756SOL    HW2 3023   2.287   1.197   3.018 -0.2030  0.6213  1.0038
  756SOL     MW 3024   2.258   1.279   3.007  0.4540  0.6667  0.6904
  757SOL     OW 3025   2.124   0.966   1.632  0.0420 -0.3951  0.2888
  757SOL    HW1 3026   2.145   0.873   1.626 -1.7543  0.0343 -1.6417
  757SOL    HW2 3027   2.035   0.971   1.596 -0.3614 -0.1572  1.7307
  757SOL     MW 3028   2.115   0.955   1.626 -0.2482 -0.3070  0.2243
  758SOL     OW 3029   2.236   1.770   2.673  0.0340  0.7852  0.1354
  758SOL    HW1 3030   2.211   1.773   2.582 -0.4603  1.0130  2.2303
  758SOL    HW2 3031   2.335   1.754   2.683 -0.9922 -1.2420  3.0148
  758SOL     MW 3032   2.246   1.768   2.663 -0.1666  0.5478  0.7917
  759SOL     OW 3033   1.560   1.366   2.741 -0.1068 -0.7472 -0.5496
  759SOL    HW1 3034   1.581   1.450   2.688 -2.3545  4.3557  0.7258
  759SOL    HW2 3035   1.619   1.379   2.821  4.1203 -5.6926 -0.6847
  759SOL     MW 3036   1.571   1.379   2.745  0.1544 -0.7264 -0.3991
  760SOL     OW 3037   2.681   1.965   2.696 -0.0845 -0.2331  0.8210
  760SOL    HW1 3038   2.617   1.897   2.673 -1.6586 -1.9011 -2.3800
  760SOL    HW2 3039   2.750   1.969   2.623 -2.8726 -0.9910 -1.1732
  760SOL     MW 3040   2.682   1.956   2.683 -0.6600 -0.5531  0.1355
  761SOL     OW 3041   2.109   0.437   2.438  0.0666  0.7784 -0.1243
  761SOL    HW1 3042   2.057   0.356   2.434 -1.3608 -3.4525  3.8694
  761SOL    HW2 3043   2.107   0.452   2.535 -1.8697  0.6212  2.0096
  761SOL     MW 3044   2.102   0.428   2.450 -0.3772  0.1994  0.6842
  762SOL     OW 3045   3.092   0.170   2.060 -0.3071  0.2742 -0.3230
  762SOL    HW1 3046   3.106   0.138   2.153 -2.6099  2.2211  1.8923
  762SOL    HW2 3047   3.026   0.241   2.070 -0.7502 -0.2202  1.4751
  762SOL     MW 3048   3.085   0.175   2.074 -0.6694  0.4658  0.2065
  763SOL     OW 3049   2.406   1.153   2.370 -0.6577 -0.3616  0.5947
  763SOL    HW1 3050   2.418   1.116   2.277 -1.8198 -2.0429  0.1224
  763SOL    HW2 3051   2.485   1.209   2.377 -1.2391  0.3188  0.3356
  763SOL     MW 3052   2.418   1.155   2.358 -0.8877 -0.4936  0.4982
  764SOL     OW 3053   0.330   0.180   2.821  0.1179  0.2143  0.1763
  764SOL    HW1 3054   0.239   0.197   2.795  1.5230 -1.2979 -0.5143
  764SOL    HW2 3055   0.351   0.244   2.892  0.0017  1.1619  0.3984
  764SOL     MW 3056   0.321   0.190   2.827  0.2879  0.1398  0.1145
  765SOL     OW 3057   2.688   0.130   2.314  0.1310 -0.5340 -0.4202
  765SOL    HW1 3058   2.638   0.102   2.238 -2.7787 -2.1923  0.6116
  765SOL    HW2 3059   2.754   0.060   2.321 -0.3854 -0.2215  1.4789
  765SOL     MW 3060   2.690   0.117   2.305 -0.3210 -0.7115 -0.0335
  766SOL     OW 3061   1.844   3.014   2.148  0.0828  0.1581  0.3797
  766SOL    HW1 3062   1.927   3.036   2.100  0.6064  0.7835  1.4882
  766SOL    HW2 3063   1.784   2.964   2.086 -2.3223  2.4364 -0.6806
  766SOL     MW 3064   1.847   3.010   2.133 -0.1654  0.5412  0.3860
  767SOL     OW 3065   2.678   0.599   1.857  0.3164  0.2783  0.1444
  767SOL    HW1 3066   2.726   0.641   1.931 -2.0765 -0.5260  0.9820
  767SOL    HW2 3067   2.591   0.642   1.845  0.1824  0.5963  1.0026
  767SOL     MW 3068   2.673   0.610   1.865 -0.0170  0.2141  0.3682
  768SOL     OW 3069   0.055   1.525   2.933  0.2119  0.2402  0.5887
  768SOL    HW1 3070   0.083   1.512   3.025 -1.8274  0.0828  1.5006
  768SOL    HW2 3071   0.102   1.465   2.871  2.0799  0.6908  0.2973
  768SOL     MW 3072   0.065   1.516   2.937  0.1893  0.2789  0.6706
  769SOL     OW 3073   2.371   0.645   2.385  0.3658 -0.1763 -0.7138
  769SOL    HW1 3074   2.299   0.583   2.354  0.2736 -1.6275 -2.0953
  769SOL    HW2 3075   2.444   0.630   2.325  0.6554 -0.3633  0.9113
  769SOL     MW 3076   2.371   0.635   2.373  0.3919 -0.3924 -0.6817
  770SOL     OW 3077   0.018   1.636   2.562 -0.8678  0.2916  0.0926
  770SOL    HW1 3078  -0.051   1.679   2.619  0.6507  1.5977 -0.5315
  770SOL    HW2 3079   0.054   1.564   2.621  1.5756  1.3016  1.7619
  770SOL     MW 3080   0.014   1.632   2.577 -0.3451  0.5972  0.2305
  771SOL     OW 3081   3.072   0.633   1.966  0.5250  0.2761 -0.5004
  771SOL    HW1 3082   3.029   0.593   1.884 -2.0016 -2.7725 -0.0059
  771SOL    HW2 3083   3.161   0.612   1.959 -0.6567  0.3052  1.1034
  771SOL     MW 3084   3.078   0.625   1.954  0.0358 -0.1223 -0.2236
  772SOL     OW 3085   0.014   0.040   2.295 -0.1872  0.6127 -0.6599
  772SOL    HW1 3086  -0.063   0.007   2.338 -1.4659 -1.0975 -0.6310
  772SOL    HW2 3087   0.050  -0.048   2.268 -0.8870 -0.6188 -1.8687
  772SOL     MW 3088   0.008   0.024   2.297 -0.4483  0.2246 -0.8156
  773SOL     OW 3089   2.412   2.892   2.760 -0.4237 -0.4808  0.5325
  773SOL    HW1 3090   2.399   2.821   2.700  0.0655 -1.8392 -0.8560
  773SOL    HW2 3091   2.389   2.861   2.847  3.2468 -0.0654  0.8260
  773SOL     MW 3092   2.407   2.879   2.764  0.1251 -0.6053  0.3881
  774SOL     OW 3093   2.315   1.173   1.776 -0.4130 -0.1685 -0.0849
  774SOL    HW1 3094   2.283   1.245   1.718  0.1553 -1.4239 -2.5957
  774SOL    HW2 3095   2.266   1.091   1.742 -1.3131  1.6373 -1.9339
  774SOL     MW 3096   2.304   1.172   1.764 -0.4567 -0.0959 -0.6602
  775SOL     OW 3097   2.279   2.994   2.364 -0.8537  0.3373  0.5395
  775SOL    HW1 3098   2.294   3.077   2.321  0.2429 -2.5457 -1.2866
  775SOL    HW2 3099   2.350   2.940   2.328 -0.7937  1.9084  0.0497
  775SOL     MW 3100   2.290   2.998   2.354 -0.7011  0.1642  0.2339
  776SOL     OW 3101   0.142   1.493   0.086 -0.0016  0.1725 -0.0070
  776SOL    HW1 3102   0.226   1.452   0.099 -1.3176 -1.8787  1.0631
  776SOL    HW2 3103   0.090   1.434   0.138  0.4078 -2.6560 -0.0873
  776SOL     MW 3104   0.147   1.480   0.094 -0.1212 -0.4714  0.1236
  777SOL     OW 3105   3.006   1.085   1.716 -0.2947 -0.4825  0.2986
  777SOL    HW1 3106   3.000   1.163   1.662  2.4983 -0.9576 -1.2465
  777SOL    HW2 3107   2.912   1.051   1.718 -3.9573  0.2520 -0.5019
  777SOL     MW 3108   2.993   1.091   1.709 -0.4094 -0.4483 -0.0109
  778SOL     OW 3109   2.823   0.449   2.751 -0.1929  0.4818 -0.1026
  778SOL    HW1 3110   2.775   0.476   2.831  1.3724  0.2333  1.6013
  778SOL    HW2 3111   2.863   0.535   2.721  0.7177  4.1052 -1.9855
  778SOL     MW 3112   2.822   0.464   2.757  0.1337  0.9271 -0.1262
  779SOL     OW 3113   2.144   0.551   2.205 -0.6376  0.3734 -0.4561
  779SOL    HW1 3114   2.115   0.646   2.205 -2.4706 -0.1871  1.3832
  779SOL    HW2 3115   2.124   0.520   2.289  0.2359 -2.4320 -2.4586
  779SOL     MW 3116   2.138   0.560   2.216 -0.7642 -0.0707 -0.4777
  780SOL     OW 3117   0.092   0.275   2.684 -0.3062 -0.5188  0.4876
  780SOL    HW1 3118   0.068   0.346   2.746  0.3928  2.4206  1.3439
  780SOL    HW2 3119   0.021   0.279   2.618  0.5022 -1.7317 -3.1552
  780SOL     MW 3120   0.080   0.285   2.684 -0.1073 -0.2910  0.1199
  781SOL     OW 3121   3.054   1.303   2.502 -0.0654 -0.0578  0.4164
  781SOL    HW1 3122   3.030   1.372   2.440 -2.0718 -0.8730  0.5440
  781SOL    HW2 3123   3.083   1.232   2.445 -0.9153  1.5970 -0.8075
  781SOL     MW 3124   3.055   1.302   2.487 -0.4423  0.0529  0.2718
  782SOL     OW 3125   0.674   1.550   3.071  0.0651 -0.1248 -0.0915
  782SOL    HW1 3126   0.595   1.602   3.060  0.4020  0.6315  2.8400
  782SOL    HW2 3127   0.703   1.570   3.158 -3.1286 -3.8103 -1.4561
  782SOL     MW 3128   0.667   1.559   3.081 -0.3118 -0.5113  0.1152
  783SOL     OW 3129   2.722   0.566   2.420 -0.1010 -0.7843  0.2255
  783SOL    HW1 3130   2.680   0.566   2.331 -0.4580 -1.0056  0.7983
  783SOL    HW2 3131   2.655   0.526   2.476  1.2964 -1.3467 -1.6439
  783SOL     MW 3132   2.708   0.561   2.416  0.0363 -0.8877  0.0544
  784SOL     OW 3133   0.149   0.827   2.811  0.4359  0.2444  0.0095
  784SOL    HW1 3134   0.082   0.899   2.814  1.1071 -2.0382 -2.1557
  784SOL    HW2 3135   0.216   0.857   2.746 -0.5442  0.0101 -1.9551
  784SOL     MW 3136   0.149   0.840   2.803  0.3951 -0.0877 -0.5354
  785SOL     OW 3137   0.429   0.512   2.183  0.2298 -0.0919 -0.1187
  785SOL    HW1 3138   0.448   0.526   2.089  1.7503  3.2568  1.5459
  785SOL    HW2 3139   0.347   0.460   2.188  0.7767 -1.8895  0.4899
  785SOL     MW 3140   0.421   0.507   2.171  0.5026  0.1128  0.1812
  786SOL     OW 3141   1.970   0.317   2.958  0.4321 -0.7181 -0.5161
  786SOL    HW1 3142   1.950   0.410   2.987  0.5914 -2.3741 -0.8665
  786SOL    HW2 3143   2.003   0.310   2.867  3.7256 -0.5618  2.7590
  786SOL     MW 3144   1.972   0.328   2.950  0.8876 -0.9159 -0.1302
  787SOL     OW 3145   2.454   0.164   2.930  0.2981 -0.0039 -0.3325
  787SOL    HW1 3146   2.525   0.096   2.907 -1.9910  0.2453 -0.9619
  787SOL    HW2 3147   2.497   0.228   2.990 -0.3420  1.0546 -5.8983
  787SOL     MW 3148   2.469   0.163   2.935 -0.0884  0.1686 -1.1499
  788SOL     OW 3149   2.838   3.010   2.336  0.1237  0.0420  0.2258
  788SOL    HW1 3150   2.790   2.989   2.411 -2.6779  0.6893 -2.4742
  788SOL    HW2 3151   2.867   2.926   2.288  0.8754 -1.7856 -1.6535
  788SOL     MW 3152   2.835   2.996   2.340 -0.1468 -0.1137 -0.3784
  789SOL     OW 3153   0.090   0.161   3.050  0.2725 -0.0319  0.0862
  789SOL    HW1 3154   0.002   0.118   3.067 -1.0686 -1.6098  2.0423
  789SOL    HW2 3155   0.075   0.244   3.003  2.2462  1.3797  2.1770
  789SOL     MW 3156   0.076   0.166   3.046  0.3560 -0.0539  0.6202
  790SOL     OW 3157   0.021   1.072   2.368  0.3423  0.0367  0.4128
  790SOL    HW1 3158  -0.008   1.020   2.437 -0.4326  0.5691 -0.1546
  790SOL    HW2 3159  -0.057   1.076   2.316 -0.5727 -0.9078  0.7808
  790SOL     MW 3160   0.007   1.065   2.370  0.1193 -0.0177  0.3865
  791SOL     OW 3161   2.590   0.401   2.618 -0.0404 -0.3116 -0.1364
  791SOL    HW1 3162   2.512   0.438   2.653  1.6315 -0.3453  0.8280
  791SOL    HW2 3163   2.655   0.417   2.694  2.6813  1.2648  0.3044
  791SOL     MW 3164   2.588   0.408   2.633  0.5393 -0.1081  0.0490
  792SOL     OW 3165   2.359   0.305   2.418 -0.1677  0.7108  0.1979
  792SOL    HW1 3166   2.280   0.359   2.413  2.3616 -2.3475 -2.2345
  792SOL    HW2 3167   2.369   0.255   2.500  1.4251  1.9240 -1.0818
  792SOL     MW 3168   2.350   0.305   2.428  0.3762  0.4674 -0.2919
  793SOL     OW 3169   1.931   1.176   1.946 -0.2384 -0.3969  0.4529
  793SOL    HW1 3170   1.873   1.178   1.861 -0.2177 -0.4369 -2.4441
  793SOL    HW2 3171   1.975   1.092   1.932  0.2092 -0.5847 -1.8301
  793SOL     MW 3172   1.929   1.165   1.933 -0.1766 -0.4269 -0.2305
  794SOL     OW 3173   1.394   2.321   0.128  0.4252 -0.4389  0.0286
  794SOL    HW1 3174   1.407   2.384   0.059 -0.1076 -3.6285  2.5666
  794SOL    HW2 3175   1.470   2.337   0.185 -0.4064 -0.9856 -1.3458
  794SOL     MW 3176   1.406   2.332   0.127  0.2452 -0.9318  0.1821
  795SOL     OW 3177   2.354   1.042   2.611  0.2494 -0.3227 -0.0613
  795SOL    HW1 3178   2.311   1.128   2.651 -2.4148  1.9369  1.6924
  795SOL    HW2 3179   2.382   1.066   2.520 -1.0100 -1.3600 -2.8213
  795SOL     MW 3180   2.352   1.056   2.604 -0.2683 -0.1614 -0.1940
  796SOL     OW 3181   0.283   0.568   2.779  0.6463  0.3635  0.1416
  796SOL    HW1 3182   0.236   0.631   2.833 -2.5262 -1.9343  2.3803
  796SOL    HW2 3183   0.229   0.548   2.697  3.2571 -0.8217 -0.6982
  796SOL     MW 3184   0.270   0.574   2.775  0.5722 -0.0960  0.3262
  797SOL     OW 3185   2.656   0.107   2.591 -0.4307  0.1665  0.5267
  797SOL    HW1 3186   2.632   0.187   2.629  1.3358  2.7311 -0.7860
  797SOL    HW2 3187   2.664   0.112   2.497  1.0241  1.2277  3.9347
  797SOL     MW 3188   2.654   0.119   2.584 -0.0057  0.6449  0.8032
  798SOL     OW 3189   2.281   0.123   2.225  0.1310  0.1537  0.0863
  798SOL    HW1 3190   2.317   0.189   2.287 -1.6577  2.5864  1.4240
  798SOL    HW2 3191   2.358   0.092   2.174  1.5242  1.1472 -1.7953
  798SOL     MW 3192   2.296   0.128   2.227  0.0788  0.6057  0.0145
  799SOL     OW 3193   2.561   2.933   0.036 -0.0950 -0.3226 -0.8881
  799SOL    HW1 3194   2.480   2.892   0.007 -0.7968  2.8279  0.6092
  799SOL    HW2 3195   2.520   3.004   0.084 -1.0034  2.8102 -2.4812
  799SOL     MW 3196   2.545   2.937   0.039 -0.3074  0.5064 -0.9008
  800SOL     OW 3197   1.967   3.101   1.678  0.3447  0.0385 -0.1102
  800SOL    HW1 3198   1.894   3.041   1.686  1.4403  0.6770  1.2262
  800SOL    HW2 3199   2.002   3.104   1.764 -0.9819 -1.6669 -2.1508
  800SOL     MW 3200   1.962   3.094   1.690  0.3142 -0.1023 -0.2031
  801SOL     OW 3201   2.807   1.286   2.645 -0.1735  0.2563  0.2942
  801SOL    HW1 3202   2.771   1.198   2.624  1.2071 -0.4985 -1.0431
  801SOL    HW2 3203   2.881   1.279   2.588 -1.2796 -0.3129 -0.1730
  801SOL     MW 3204   2.812   1.273   2.635 -0.1373  0.0816  0.0561
  802SOL     OW 3205   2.612   1.504   2.772 -0.5159  0.8317  0.1841
  802SOL    HW1 3206   2.614   1.405   2.754  2.3351 -0.0151 -0.9287
  802SOL    HW2 3207   2.707   1.533   2.769  1.6777  0.0906  0.5116
  802SOL     MW 3208   2.625   1.495   2.769  0.1497  0.6222  0.0805
  803SOL     OW 3209   2.287   1.373   1.978  0.1097 -1.0626 -0.4440
  803SOL    HW1 3210   2.261   1.349   2.070  1.6436  1.0438  2.1643
  803SOL    HW2 3211   2.287   1.294   1.922 -1.8768 -0.8916 -2.2261
  803SOL     MW 3212   2.284   1.359   1.983  0.0500 -0.7621 -0.3350
  804SOL     OW 3213   2.304   0.068   0.033 -0.0343 -0.1593  0.1356
  804SOL    HW1 3214   2.243   0.140   0.030  1.9430 -3.6349  0.4782
  804SOL    HW2 3215   2.357   0.103  -0.041 -2.5549 -1.5214 -2.9241
  804SOL     MW 3216   2.303   0.082   0.023 -0.1060 -0.7976 -0.2229
  805SOL     OW 3217   2.700   1.036   2.558  0.0452  0.1391  0.1499
  805SOL    HW1 3218   2.631   0.992   2.512 -1.3956 -0.3666  3.1491
  805SOL    HW2 3219   2.779   0.976   2.564 -2.0885 -0.2540 -1.8668
  805SOL     MW 3220   2.702   1.022   2.553 -0.4265  0.0205  0.2795
  806SOL     OW 3221   2.550   0.560   2.196 -0.3196 -0.8729  0.0432
  806SOL    HW1 3222   2.511   0.470   2.189 -1.9468 -2.4953  0.1395
  806SOL    HW2 3223   2.531   0.605   2.113 -2.1437  0.6847 -0.0668
  806SOL     MW 3224   2.542   0.554   2.184 -0.7750 -0.8815  0.0414
  807SOL     OW 3225   0.020   1.187   1.995 -0.4816 -0.1124 -0.4283
  807SOL    HW1 3226   0.052   1.097   1.982  2.0980 -0.9968  0.0948
  807SOL    HW2 3227  -0.063   1.181   2.045 -3.8277  0.3709  2.9536
  807SOL     MW 3228   0.013   1.174   2.000 -0.5827 -0.1653  0.0869
  808SOL     OW 3229   2.614   3.077   2.822 -0.7196  0.4847 -0.2602
  808SOL    HW1 3230   2.543   3.006   2.820  1.7757  0.6469  1.6981
  808SOL    HW2 3231   2.619   3.114   2.732 -1.1876  0.0531  1.4135
  808SOL     MW 3232   2.605   3.073   2.810 -0.4521  0.4491  0.2190
  809SOL     OW 3233   2.612   1.332   2.430  0.2771  0.0977  0.0602
  809SOL    HW1 3234   2.653   1.277   2.497  1.1864 -3.7547 -0.9264
  809SOL    HW2 3235   2.677   1.346   2.362 -2.5402 -0.2597  1.0563
  809SOL     MW 3236   2.626   1.326   2.430  0.0254 -0.4578  0.0615
  810SOL     OW 3237   2.201   1.294   2.219 -0.1181 -0.4598 -0.1357
  810SOL    HW1 3238   2.265   1.247   2.273  0.5610  1.0548  3.0245
  810SOL    HW2 3239   2.111   1.270   2.243 -3.3367  0.9177 -0.1229
  810SOL     MW 3240   2.198   1.285   2.229 -0.4532 -0.0782  0.2829
  811SOL     OW 3241   1.568   0.128   2.309 -0.0971  0.1655  0.7703
  811SOL    HW1 3242   1.627   0.068   2.360  0.5425  0.3846 -2.4968
  811SOL    HW2 3243   1.570   0.094   2.219  1.1333  0.9086  0.3684
  811SOL     MW 3244   1.576   0.116   2.304  0.1496  0.2924  0.2862
  812SOL     OW 3245   1.457   2.832   2.009  0.4648  0.5879  1.2202
  812SOL    HW1 3246   1.545   2.849   1.979 -0.8204  0.0406 -1.4928
  812SOL    HW2 3247   1.481   2.788   2.092 -0.1892  0.8289  0.5653
  812SOL     MW 3248   1.472   2.828   2.016  0.2089  0.5475  0.7758
  813SOL     OW 3249   1.870   0.711   2.231  0.1490  0.8550 -0.3273
  813SOL    HW1 3250   1.820   0.629   2.258 -1.0990 -1.3024  1.1486
  813SOL    HW2 3251   1.877   0.767   2.310 -2.2069  0.5025  0.8736
  813SOL     MW 3252   1.864   0.708   2.245 -0.3265  0.5239  0.0259
  814SOL     OW 3253   2.710   1.251   1.626  0.4541  0.1270 -0.1858
  814SOL    HW1 3254   2.667   1.197   1.688 -2.0044 -1.3195 -3.3648
  814SOL    HW2 3255   2.737   1.192   1.553  0.6461  2.0833  2.5938
  814SOL     MW 3256   2.708   1.236   1.625  0.1550  0.1942 -0.2385
  815SOL     OW 3257   2.553   1.730   2.390 -0.5595  0.2940 -0.2276
  815SOL    HW1 3258   2.499   1.661   2.352  2.1170  3.1655  1.4027
  815SOL    HW2 3259   2.645   1.684   2.406  0.0287 -3.5972 -1.6845
  815SOL     MW 3260   2.558   1.715   2.387 -0.1288  0.1595 -0.2047
  816SOL     OW 3261   0.763   0.660   2.757 -0.1990  0.5963  0.2345
  816SOL    HW1 3262   0.754   0.586   2.815  1.4485  1.4577 -2.2329
  816SOL    HW2 3263   0.668   0.654   2.722  1.3558 -0.0107 -0.5489
  816SOL     MW 3264   0.749   0.650   2.760  0.2235  0.6298 -0.1944
  817SOL     OW 3265   3.036   1.237   1.483 -0.2837  0.0437  0.1345
  817SOL    HW1 3266   3.130   1.256   1.481  0.9032  1.7158  0.1262
  817SOL    HW2 3267   3.013   1.324   1.457  0.1907 -1.3056 -0.1705
  817SOL     MW 3268   3.046   1.251   1.479 -0.0645  0.0863  0.0931
  818SOL     OW 3269   1.885   1.004   2.679  0.4144 -0.1946 -0.5007
  818SOL    HW1 3270   1.893   0.975   2.588 -2.0188  0.1910  0.7544
  818SOL    HW2 3271   1.958   0.953   2.716 -0.8243 -1.5396 -0.9208
  818SOL     MW 3272   1.896   0.993   2.672 -0.0700 -0.3212 -0.3905
  819SOL     OW 3273   1.933   0.197   2.445 -0.3258 -0.3138  0.3974
  819SOL    HW1 3274   1.875   0.266   2.449  0.8492 -2.7522 -0.4696
  819SOL    HW2 3275   1.966   0.197   2.536 -0.6103  1.6540  2.5737
  819SOL     MW 3276   1.930   0.206   2.458 -0.2083 -0.3759  0.5702
  820SOL     OW 3277   2.514   1.735   2.657 -0.3131 -0.5227 -1.0220
  820SOL    HW1 3278   2.537   1.649   2.703 -0.5733 -0.3259 -1.5092
  820SOL    HW2 3279   2.521   1.720   2.563  0.4534 -1.9316  0.2432
  820SOL     MW 3280   2.518   1.722   2.651 -0.2463 -0.6826 -0.9193
  821SOL     OW 3281   2.577   1.434   2.043  0.3707  0.4175 -0.5588
  821SOL    HW1 3282   2.606   1.491   1.968 -1.0007 -0.1446 -4.4157
  821SOL    HW2 3283   2.480   1.431   2.015  0.1139 -0.7960 -1.4404
  821SOL     MW 3284   2.568   1.441   2.029  0.1559  0.1832 -1.1840
  822SOL     OW 3285   2.713   2.648   1.375  0.2464 -0.2186  0.1882
  822SOL    HW1 3286   2.719   2.644   1.469 -1.7109 -4.0427  1.5956
  822SOL    HW2 3287   2.652   2.715   1.358  0.7500  0.2079  0.7916
  822SOL     MW 3288   2.706   2.656   1.386  0.0546 -0.6669  0.4535
  823SOL     OW 3289   2.290   0.493   1.754 -0.4652  0.5072 -0.6500
  823SOL    HW1 3290   2.374   0.483   1.707 -0.1029 -1.5089 -0.8424
  823SOL    HW2 3291   2.242   0.426   1.706  0.4261  1.4865 -0.8829
  823SOL     MW 3292   2.294   0.482   1.741 -0.2998  0.3704 -0.7061
  824SOL     OW 3293   2.100   1.434   2.515 -0.4739 -0.5414  0.0803
  824SOL    HW1 3294   2.140   1.478   2.440 -0.5067 -0.6613  0.8558
  824SOL    HW2 3295   2.051   1.501   2.561 -0.7543 -1.0762 -0.3594
  824SOL     MW 3296   2.099   1.449   2.511 -0.5153 -0.6278  0.1246
  825SOL     OW 3297   1.899   2.551   0.307  0.8721  0.1400  0.4932
  825SOL    HW1 3298   1.915   2.486   0.373 -2.5473 -1.2868 -1.5320
  825SOL    HW2 3299   1.954   2.526   0.233 -0.3004  2.0488 -0.5809
  825SOL     MW 3300   1.909   2.539   0.306  0.2663  0.2036  0.0843
  826SOL     OW 3301   1.892   2.374   0.528  0.0217 -0.1004 -0.3279
  826SOL    HW1 3302   1.848   2.298   0.575 -0.8480  0.7201  2.1041
  826SOL    HW2 3303   1.855   2.453   0.571  2.7955  0.6377 -0.6224
  826SOL     MW 3304   1.882   2.375   0.540  0.2729  0.1053 -0.0459
  827SOL     OW 3305   1.921   2.187   0.956 -0.0033  0.2550  0.1102
  827SOL    HW1 3306   1.880   2.263   0.927  2.3718 -1.8531  2.0581
  827SOL    HW2 3307   1.857   2.113   0.975 -0.5661  0.4405  0.8500
  827SOL     MW 3308   1.907   2.187   0.955  0.2358  0.0013  0.4648
  828SOL     OW 3309   0.087   2.611   0.607 -0.1819 -0.0275  0.1199
  828SOL    HW1 3310   0.180   2.624   0.587  0.6355 -0.8105  1.8815
  828SOL    HW2 3311   0.047   2.603   0.515  2.0714 -0.8314 -0.9300
  828SOL     MW 3312   0.094   2.612   0.592  0.2233 -0.2369  0.2138
  829SOL     OW 3313   2.941   2.953   1.147  0.0682 -0.3406  0.3343
  829SOL    HW1 3314   2.858   2.918   1.116  1.8621 -0.7065 -0.4922
  829SOL    HW2 3315   2.996   2.873   1.156  0.0577 -0.6661  0.6115
  829SOL     MW 3316   2.937   2.938   1.144  0.3035 -0.4318  0.2619
  830SOL     OW 3317   2.515   2.878   2.033 -0.0811 -0.6373  0.4248
  830SOL    HW1 3318   2.422   2.894   2.012  0.4180  1.5767  0.0719
  830SOL    HW2 3319   2.551   2.847   1.952 -2.2234 -1.6989 -1.0646
  830SOL     MW 3320   2.507   2.876   2.019 -0.2979 -0.4852  0.1817
  831SOL     OW 3321   2.397   2.467   1.296  0.2853 -0.2255 -0.0776
  831SOL    HW1 3322   2.367   2.424   1.382  0.9305 -1.9711  2.1145
  831SOL    HW2 3323   2.483   2.431   1.277 -1.4848  1.0770  0.0748
  831SOL     MW 3324   2.404   2.457   1.304  0.1369 -0.2840  0.2318
  832SOL     OW 3325   2.390   2.187   1.918 -0.3663  0.0207 -0.4404
  832SOL    HW1 3326   2.419   2.264   1.974 -1.3351 -0.7969  1.1961
  832SOL    HW2 3327   2.468   2.175   1.864  0.3204 -0.5485 -0.3544
  832SOL     MW 3328   2.404   2.196   1.919 -0.4035 -0.1623 -0.2131
  833SOL     OW 3329   1.770   2.433   0.867 -0.3364  0.4841  0.2133
  833SOL    HW1 3330   1.683   2.401   0.873  3.0696  4.8613  0.6156
  833SOL    HW2 3331   1.770   2.475   0.961  1.9133  0.8088  3.0567
  833SOL     MW 3332   1.759   2.434   0.880  0.4098  1.1045  0.6416
  834SOL     OW 3333   2.147   2.467   0.569  0.3190  0.0183 -0.1584
  834SOL    HW1 3334   2.067   2.421   0.567  2.8934 -3.9145  0.9104
  834SOL    HW2 3335   2.189   2.446   0.494  3.4217  2.8091  1.8735
  834SOL     MW 3336   2.142   2.458   0.559  1.0681 -0.1324  0.2507
  835SOL     OW 3337   1.778   2.583   0.640 -0.3418 -0.0861 -0.3414
  835SOL    HW1 3338   1.767   2.538   0.731 -0.8500  0.6303 -1.2435
  835SOL    HW2 3339   1.856   2.641   0.651  0.5238  2.8991 -0.8414
  835SOL     MW 3340   1.787   2.585   0.654 -0.2946  0.4023 -0.5264
  836SOL     OW 3341   1.916   2.195   1.606  0.4668 -0.6353 -0.6548
  836SOL    HW1 3342   1.998   2.241   1.611 -0.2822  0.3422  0.6121
  836SOL    HW2 3343   1.846   2.255   1.635  1.0968  0.6956  1.4596
  836SOL     MW 3344   1.918   2.209   1.611  0.4511 -0.3308 -0.2087
  837SOL     OW 3345   2.128   0.191   0.715 -0.3692 -0.1751 -0.1344
  837SOL    HW1 3346   2.041   0.231   0.692 -1.6860  1.5459 -0.5934
  837SOL    HW2 3347   2.160   0.153   0.631 -0.6793  3.7137 -0.6963
  837SOL     MW 3348   2.121   0.192   0.701 -0.5838  0.5651 -0.2691
  838SOL     OW 3349   2.951   2.150   0.923 -0.2145  0.2542 -0.3023
  838SOL    HW1 3350   2.893   2.091   0.976 -0.6399  0.5942  0.9586
  838SOL    HW2 3351   3.023   2.090   0.896  1.8482 -1.7278  0.9133
  838SOL     MW 3352   2.953   2.134   0.926  0.0015  0.0375  0.0245
  839SOL     OW 3353   1.523   2.345   0.952  0.1270 -0.0783 -0.4004
  839SOL    HW1 3354   1.524   2.427   1.001 -0.4504 -1.1275 -0.3690
  839SOL    HW2 3355   1.541   2.272   1.014 -0.3658 -1.0356  0.8192
  839SOL     MW 3356   1.525   2.346   0.967 -0.0142 -0.3430 -0.2353
  840SOL     OW 3357   2.335   2.079   2.413 -0.5456 -0.2472 -0.1437
  840SOL    HW1 3358   2.300   2.120   2.338 -2.3315 -1.7983  1.0989
  840SOL    HW2 3359   2.370   2.159   2.461  0.2708 -1.9086  4.0707
  840SOL     MW 3360   2.335   2.095   2.410 -0.6735 -0.6711  0.5763
  841SOL     OW 3361   2.097   2.472   0.120  0.7705  0.0909 -0.5193
  841SOL    HW1 3362   2.158   2.492   0.051  0.3435 -0.9953  0.0788
  841SOL    HW2 3363   2.077   2.378   0.102  2.3919 -2.6983  1.7569
  841SOL     MW 3364   2.103   2.462   0.109  0.9281 -0.4204 -0.1401
  842SOL     OW 3365   2.615   1.943   1.586  0.4179 -0.6904  0.5474
  842SOL    HW1 3366   2.547   1.879   1.605 -1.8121 -1.4386  2.0326
  842SOL    HW2 3367   2.574   2.003   1.529  1.4970 -1.0470  1.2828
  842SOL     MW 3368   2.600   1.943   1.581  0.2661 -0.8362  0.8404
  843SOL     OW 3369   2.599   2.748   1.799 -0.2932 -0.4648 -0.2381
  843SOL    HW1 3370   2.690   2.734   1.763  1.9789 -0.5984 -1.5376
  843SOL    HW2 3371   2.547   2.680   1.770 -2.8353  1.5060  0.1446
  843SOL     MW 3372   2.604   2.737   1.790 -0.3288 -0.2224 -0.3590
  844SOL     OW 3373   2.604   2.297   1.208  0.0993 -0.2345  0.1609
  844SOL    HW1 3374   2.633   2.324   1.126 -2.7520 -0.2054 -1.9198
  844SOL    HW2 3375   2.681   2.320   1.258 -1.7147  2.4716  1.0137
  844SOL     MW 3376   2.618   2.304   1.204 -0.5162  0.1264 -0.0011
  845SOL     OW 3377   2.854   2.491   0.284  0.1331  0.0077  0.5203
  845SOL    HW1 3378   2.801   2.415   0.301  2.5120 -0.7932  0.8717
  845SOL    HW2 3379   2.867   2.533   0.369  0.3658 -2.3545 -0.6552
  845SOL     MW 3380   2.849   2.486   0.298  0.4777 -0.4097  0.4116
  846SOL     OW 3381   1.533   2.872   0.781 -0.5793 -0.4048  0.1904
  846SOL    HW1 3382   1.625   2.878   0.821  1.7789 -2.7112 -0.3517
  846SOL    HW2 3383   1.471   2.922   0.838  1.7566 -0.5245  0.4015
  846SOL     MW 3384   1.537   2.880   0.794  0.0400 -0.7249  0.1468
  847SOL     OW 3385   2.572   1.926   0.178 -0.5800  0.2473 -0.1033
  847SOL    HW1 3386   2.658   1.881   0.189  1.0616 -1.5495  0.6821
  847SOL    HW2 3387   2.513   1.858   0.138 -0.2314  1.1031 -2.3077
  847SOL     MW 3388   2.576   1.911   0.174 -0.3174  0.1231 -0.2905
  848SOL     OW 3389   2.520   2.111   1.396  0.5350 -0.1535  0.3046
  848SOL    HW1 3390   2.543   2.169   1.325 -0.2922 -0.3349  0.2719
  848SOL    HW2 3391   2.468   2.040   1.360  0.6214 -1.2496  1.5350
  848SOL     MW 3392   2.516   2.109   1.382  0.4373 -0.3221  0.4626
  849SOL     OW 3393   2.000   2.748   0.768 -0.7901 -0.1980  0.6451
  849SOL    HW1 3394   2.033   2.693   0.835 -0.9432  1.0838 -1.1919
  849SOL    HW2 3395   2.084   2.772   0.717  1.6252  2.2312  1.8053
  849SOL     MW 3396   2.016   2.744   0.770 -0.4916  0.2916  0.5558
  850SOL     OW 3397   2.220   1.936   1.638  0.2502  0.3855  0.1507
  850SOL    HW1 3398   2.128   1.943   1.618 -0.5819  1.1771 -0.1998
  850SOL    HW2 3399   2.255   2.022   1.646  1.2893 -1.8080 -3.6724
  850SOL     MW 3400   2.212   1.948   1.637  0.2775  0.2006 -0.4000
  851SOL     OW 3401   2.275   2.419   0.332  0.0938 -0.3523 -0.3810
  851SOL    HW1 3402   2.212   2.426   0.262  1.4160 -0.4742  0.9643
  851SOL    HW2 3403   2.323   2.503   0.342 -2.9337 -0.1358 -1.6754
  851SOL     MW 3404   2.273   2.431   0.325 -0.1312 -0.3399 -0.3743
  852SOL     OW 3405   2.366   2.155   0.261  0.2936 -0.1893  0.1206
  852SOL    HW1 3406   2.345   2.250   0.264  0.5276 -0.4737  3.1668
  852SOL    HW2 3407   2.431   2.145   0.198 -1.9761  1.3111  2.8937
  852SOL     MW 3408   2.372   2.166   0.253  0.0250 -0.0288  0.8884
  853SOL     OW 3409   2.484   2.421   1.993  0.5431  0.2271 -0.8474
  853SOL    HW1 3410   2.483   2.460   1.903  0.0808  0.9295 -2.4666
  853SOL    HW2 3411   2.571   2.419   2.023 -1.1182 -0.8951 -2.1816
  853SOL     MW 3412   2.496   2.426   1.985  0.2629  0.1717 -1.2371
  854SOL     OW 3413   2.795   2.281   0.743  0.0397  0.6066 -0.5666
  854SOL    HW1 3414   2.716   2.242   0.709  0.5305  2.3543 -1.0429
  854SOL    HW2 3415   2.839   2.213   0.796  0.4432  1.8729  1.9358
  854SOL     MW 3416   2.791   2.267   0.745  0.1577  1.0042 -0.2993
  855SOL     OW 3417   2.715   2.249   0.359  0.3123 -0.2135  0.0649
  855SOL    HW1 3418   2.664   2.292   0.427 -1.0015  2.6051  0.9637
  855SOL    HW2 3419   2.779   2.188   0.395  1.8038 -0.5668  1.6306
  855SOL     MW 3420   2.717   2.246   0.373  0.3358  0.1118  0.3900
  856SOL     OW 3421   2.200   1.952   0.194 -0.4910  0.4563 -0.2142
  856SOL    HW1 3422   2.115   1.956   0.236  0.8619  0.3702 -1.3949
  856SOL    HW2 3423   2.255   2.028   0.220  0.5850  2.1363 -0.6947
  856SOL     MW 3424   2.196   1.962   0.203 -0.1705  0.6666 -0.4334
  857SOL     OW 3425   2.584   1.967   0.454  0.4782  0.0321  0.6026
  857SOL    HW1 3426   2.583   2.064   0.430 -0.7552  3.4649  0.7169
  857SOL    HW2 3427   2.548   1.924   0.371 -3.6175 -3.2684 -1.5267
  857SOL     MW 3428   2.579   1.974   0.440 -0.2249  0.0496  0.3367
  858SOL     OW 3429   2.832   2.664   1.676  0.3230 -0.0067  0.2528
  858SOL    HW1 3430   2.922   2.685   1.694  1.6533 -1.9941  1.3141
  858SOL    HW2 3431   2.831   2.588   1.730 -0.2767 -2.5863  1.8627
  858SOL     MW 3432   2.844   2.656   1.685  0.4194 -0.6093  0.6053
  859SOL     OW 3433   2.132   2.541   0.903  0.2758  0.3845  0.0183
  859SOL    HW1 3434   2.099   2.474   0.842  0.3429  2.6303  1.0955
  859SOL    HW2 3435   2.224   2.549   0.882 -1.8815  0.4452  0.0871
  859SOL     MW 3436   2.140   2.533   0.892  0.0000  0.6888  0.1695
  860SOL     OW 3437   2.621   2.590   0.185  0.4002  0.1335  0.3957
  860SOL    HW1 3438   2.690   2.549   0.230 -3.0391 -0.6088 -0.0959
  860SOL    HW2 3439   2.655   2.680   0.167  1.1633  0.2537  0.5368
  860SOL     MW 3440   2.635   2.596   0.188  0.0471  0.0514  0.3495
  861SOL     OW 3441   1.550   2.135   1.127 -0.0584 -0.0947  0.3516
  861SOL    HW1 3442   1.557   2.208   1.192 -0.4273  0.3850  2.2547
  861SOL    HW2 3443   1.491   2.060   1.157 -1.3132 -2.6148  2.7676
  861SOL     MW 3444   1.543   2.135   1.139 -0.2726 -0.3639  0.9215
  862SOL     OW 3445   2.405   1.778   1.545  0.0124  0.1104 -0.1925
  862SOL    HW1 3446   2.321   1.808   1.576  0.7843  2.6026 -0.7295
  862SOL    HW2 3447   2.397   1.797   1.450  4.6840 -2.5074  0.2503
  862SOL     MW 3448   2.393   1.784   1.537  0.7306  0.0938 -0.2049
  863SOL     OW 3449   3.082   1.898   1.095 -1.2898 -0.6681 -0.5870
  863SOL    HW1 3450   3.169   1.865   1.127  2.0695 -1.4932 -2.8224
  863SOL    HW2 3451   3.051   1.976   1.146  1.5709  0.6343 -1.1549
  863SOL     MW 3452   3.090   1.904   1.106 -0.4691 -0.6052 -0.9568
  864SOL     OW 3453   0.017   1.927   0.817 -0.2991  0.0388 -0.4483
  864SOL    HW1 3454   0.001   1.879   0.898 -0.0560  1.0446 -1.0729
  864SOL    HW2 3455  -0.034   1.868   0.753 -1.2682  1.3539 -1.3766
  864SOL     MW 3456   0.008   1.913   0.819 -0.3949  0.3450 -0.6532
  865SOL     OW 3457   2.625   2.137   3.101  0.3701  0.0902  0.3438
  865SOL    HW1 3458   2.614   2.054   3.150  1.4203 -0.1116  0.5863
  865SOL    HW2 3459   2.584   2.114   3.015 -1.8108 -0.7058  0.9562
  865SOL     MW 3460   2.618   2.123   3.096  0.2209 -0.0415  0.4566
  866SOL     OW 3461   2.681   2.303   1.615 -0.3114 -0.1041  0.7017
  866SOL    HW1 3462   2.672   2.217   1.661  1.3116  0.5057  2.1998
  866SOL    HW2 3463   2.697   2.285   1.526  2.2718  0.6617  1.7740
  866SOL     MW 3464   2.682   2.289   1.610  0.2436  0.0774  1.0408
  867SOL     OW 3465   0.010   2.658   1.776  0.1273 -0.0305  0.1341
  867SOL    HW1 3466   0.037   2.648   1.865  2.7910  0.6800  0.5837
  867SOL    HW2 3467   0.005   2.755   1.760 -1.0080  1.0056 -1.2299
  867SOL     MW 3468   0.013   2.669   1.786  0.3290  0.1999  0.0135
  868SOL     OW 3469   2.812   2.587   0.536 -0.0120  0.1802  0.3420
  868SOL    HW1 3470   2.730   2.541   0.551 -0.1554  1.0481  1.6022
  868SOL    HW2 3471   2.795   2.667   0.478 -1.1277 -0.4811 -1.3934
  868SOL     MW 3472   2.799   2.592   0.530 -0.1781  0.2075  0.2793
  869SOL     OW 3473   1.997   2.375   1.152  0.2749 -0.0836 -0.6597
  869SOL    HW1 3474   2.082   2.396   1.112  1.6920 -0.0899  0.2536
  869SOL    HW2 3475   1.966   2.302   1.093  2.2574 -3.0540  0.1134
  869SOL     MW 3476   2.004   2.368   1.139  0.7235 -0.4764 -0.4372
  870SOL     OW 3477   2.164   0.020   0.482 -0.2986 -1.1335  0.3481
  870SOL    HW1 3478   2.222   0.080   0.434  2.0368  0.2721 -2.0262
  870SOL    HW2 3479   2.181  -0.064   0.450 -0.6978 -0.1041 -0.7034
  870SOL     MW 3480   2.174   0.017   0.471 -0.0431 -0.8122 -0.1039
  871SOL     OW 3481   2.491   2.118   0.956  0.1514 -0.4480 -0.0182
  871SOL    HW1 3482   2.440   2.049   0.913  0.3126  2.1251  0.5783
  871SOL    HW2 3483   2.426   2.181   0.982  0.8577  1.0919 -2.6533
  871SOL     MW 3484   2.476   2.117   0.953  0.2659  0.0946 -0.2872
  872SOL     OW 3485   2.049   2.572   1.482  0.2902  0.0696  0.0833
  872SOL    HW1 3486   2.013   2.595   1.570  0.7617 -0.5936  0.9924
  872SOL    HW2 3487   1.985   2.509   1.446  1.3768 -0.2405 -1.5081
  872SOL     MW 3488   2.036   2.567   1.489  0.4958 -0.0588 -0.0067
  873SOL     OW 3489   2.910   2.051   1.896  0.1375 -0.7496 -0.3164
  873SOL    HW1 3490   2.948   2.100   1.968  1.3214  0.0576 -0.5519
  873SOL    HW2 3491   2.946   2.069   1.812 -1.4973 -2.5992  1.2169
  873SOL     MW 3492   2.920   2.060   1.895  0.0780 -0.8871 -0.1451
  874SOL     OW 3493   2.356   1.523   2.380 -0.6481 -0.1789  0.1274
  874SOL    HW1 3494   2.312   1.493   2.298 -4.2717 -0.1645  0.2894
  874SOL    HW2 3495   2.424   1.465   2.412 -2.1694 -0.8845 -0.4569
  874SOL     MW 3496   2.359   1.511   2.374 -1.3269 -0.2701  0.0717
  875SOL     OW 3497   2.282   2.331   1.070  0.1790 -0.2279  0.3515
  875SOL    HW1 3498   2.316   2.390   1.005  1.0348 -1.7111  0.0750
  875SOL    HW2 3499   2.312   2.374   1.151  1.0554 -1.5959 -0.4285
  875SOL     MW 3500   2.290   2.345   1.072  0.4076 -0.6041  0.2121
  876SOL     OW 3501   3.029   2.324   1.237  0.1717  0.1947 -0.3653
  876SOL    HW1 3502   3.053   2.333   1.146 -1.1600 -0.4603  1.0792
  876SOL    HW2 3503   3.100   2.371   1.288  1.3444  0.4891  0.1955
  876SOL     MW 3504   3.042   2.331   1.231  0.1507  0.1471 -0.1007
  877SOL     OW 3505   3.046   2.712   0.350 -0.7473 -0.2991 -0.4599
  877SOL    HW1 3506   3.115   2.773   0.356 -0.5612 -3.0044  1.0877
  877SOL    HW2 3507   3.039   2.688   0.256  0.0754  0.3610 -2.6466
  877SOL     MW 3508   3.054   2.717   0.338 -0.6142 -0.5690 -0.5442
  878SOL     OW 3509   2.431   1.860   1.290 -0.2267 -0.3045 -0.0527
  878SOL    HW1 3510   2.382   1.784   1.260  0.8739 -0.1907 -0.6065
  878SOL    HW2 3511   2.520   1.840   1.272  1.5484  0.5701 -2.2602
  878SOL     MW 3512   2.436   1.847   1.284  0.1527 -0.1741 -0.4170
  879SOL     OW 3513   2.677   2.435   0.960 -0.0700 -0.2973 -0.0274
  879SOL    HW1 3514   2.726   2.502   1.010 -1.4784  1.7992  0.6855
  879SOL    HW2 3515   2.732   2.396   0.887  1.1188  1.1836  0.5642
  879SOL     MW 3516   2.691   2.439   0.957 -0.0990  0.1747  0.1447
  880SOL     OW 3517   2.548   2.184   0.683  0.1591  0.4583  0.0648
  880SOL    HW1 3518   2.527   2.162   0.777  0.7848 -0.4013  4.4279
  880SOL    HW2 3519   2.504   2.122   0.627  2.3584 -2.5658 -1.3896
  880SOL     MW 3520   2.539   2.173   0.688  0.5318 -0.0541  0.4486
  881SOL     OW 3521   2.954   2.661   0.783 -0.4872  0.3555  0.3314
  881SOL    HW1 3522   2.916   2.630   0.696  1.4771  0.7495 -2.6944
  881SOL    HW2 3523   3.049   2.660   0.763  0.2736  0.9974  0.3297
  881SOL     MW 3524   2.962   2.657   0.769 -0.1276  0.4921 -0.0681
  882SOL     OW 3525   2.260   2.888   1.925  0.6800 -0.2009 -0.3218
  882SOL    HW1 3526   2.260   2.860   1.835 -1.4330 -1.0234 -0.9245
  882SOL    HW2 3527   2.217   2.815   1.969  0.0309  1.2119 -2.8105
  882SOL     MW 3528   2.254   2.875   1.919  0.3156 -0.1230 -0.7297
  883SOL     OW 3529   2.327   2.271   1.490 -0.4587 -0.1346  0.8847
  883SOL    HW1 3530   2.385   2.197   1.470  2.1591 -1.7447 -0.8367
  883SOL    HW2 3531   2.267   2.253   1.419  0.7756 -1.2749 -2.1755
  883SOL     MW 3532   2.326   2.259   1.478  0.0495 -0.4975  0.2538
  884SOL     OW 3533   1.958   1.847   1.154 -0.1699  0.0766 -0.0361
  884SOL    HW1 3534   1.880   1.896   1.128 -1.1168 -2.3548 -0.6248
  884SOL    HW2 3535   2.040   1.897   1.144  1.5098  0.3374 -1.0922
  884SOL     MW 3536   1.958   1.860   1.150 -0.0732 -0.2098 -0.2531
  885SOL     OW 3537   2.830   2.421   1.830  0.1288  0.1031  0.1961
  885SOL    HW1 3538   2.926   2.399   1.826  0.7153 -0.7984  0.1384
  885SOL    HW2 3539   2.785   2.384   1.750 -1.5635  0.3859 -0.3073
  885SOL     MW 3540   2.837   2.413   1.819 -0.0171  0.0215  0.1221
  886SOL     OW 3541   2.805   2.381   1.356 -0.0324 -0.1157 -0.0608
  886SOL    HW1 3542   2.886   2.368   1.309  1.1124  0.4229  0.6343
  886SOL    HW2 3543   2.795   2.475   1.341  0.2473  0.5668  3.4376
  886SOL     MW 3544   2.815   2.392   1.348  0.1556  0.0454  0.4925
  887SOL     OW 3545   2.319   2.590   1.549  0.1794 -0.0546  0.6511
  887SOL    HW1 3546   2.335   2.656   1.478 -0.2551 -1.0035  0.5861
  887SOL    HW2 3547   2.225   2.560   1.531 -1.4769  2.5406  2.0285
  887SOL     MW 3548   2.309   2.595   1.537 -0.0964  0.1626  0.8242
  888SOL     OW 3549   1.840   2.100   1.353  0.1397 -0.5120  0.6881
  888SOL    HW1 3550   1.937   2.112   1.341  1.1238  0.0753 -0.0873
  888SOL    HW2 3551   1.825   2.104   1.448 -1.4754 -0.2703  1.7689
  888SOL     MW 3552   1.851   2.102   1.364  0.0564 -0.4026  0.7284
  889SOL     OW 3553   2.326   2.007   2.102 -0.2670  0.2720 -0.1786
  889SOL    HW1 3554   2.409   1.985   2.146 -2.2892  0.0974  0.7242
  889SOL    HW2 3555   2.338   2.080   2.037  0.2515 -0.1768 -0.1274
  889SOL     MW 3556   2.338   2.014   2.099 -0.4654  0.1897 -0.0528
  890SOL     OW 3557   0.102   2.369   0.155  0.2614 -0.4046 -0.4944
  890SOL    HW1 3558   0.055   2.450   0.130  1.2458 -2.4397 -1.6254
  890SOL    HW2 3559   0.064   2.337   0.240 -1.2380  2.2869 -1.6171
  890SOL     MW 3560   0.090   2.376   0.163  0.1934 -0.3180 -0.7918
  891SOL     OW 3561   3.007   2.058   1.309  0.2032  0.3434 -0.4537
  891SOL    HW1 3562   3.096   2.052   1.345 -0.5925 -1.0110  1.0376
  891SOL    HW2 3563   3.002   2.152   1.295 -0.0678  1.1970 -0.2097
  891SOL     MW 3564   3.018   2.070   1.312  0.0624  0.2773 -0.2247
  892SOL     OW 3565   2.447   2.359   2.845  0.2357 -0.2042 -0.2753
  892SOL    HW1 3566   2.446   2.270   2.885 -2.1989  2.1870  0.6455
  892SOL    HW2 3567   2.540   2.392   2.844 -2.2368  0.6245  0.2902
  892SOL     MW 3568   2.459   2.352   2.850 -0.4117  0.2206 -0.0792
  893SOL     OW 3569   1.579   2.341   1.304 -0.2903  0.4233  0.0244
  893SOL    HW1 3570   1.521   2.404   1.356  0.4887  0.1281 -0.9858
  893SOL    HW2 3571   1.665   2.348   1.344 -0.6053 -0.6189  0.2274
  893SOL     MW 3572   1.583   2.350   1.316 -0.2291  0.2468 -0.0821
  894SOL     OW 3573   2.819   1.785   0.483  0.3265  0.2146  0.5463
  894SOL    HW1 3574   2.717   1.804   0.481  1.2369 -0.6766 -0.2382
  894SOL    HW2 3575   2.849   1.755   0.402  2.2978  2.9760 -0.5143
  894SOL     MW 3576   2.809   1.783   0.472  0.7067  0.4613  0.3029
  895SOL     OW 3577   2.107   2.187   1.322  0.1212 -0.5050 -0.0224
  895SOL    HW1 3578   2.096   2.255   1.260 -0.2167  1.1143 -0.2304
  895SOL    HW2 3579   2.158   2.121   1.268 -0.8327 -0.7235  2.3707
  895SOL     MW 3580   2.112   2.187   1.307 -0.0492 -0.3201  0.2659
  896SOL     OW 3581   2.138   2.802   1.069 -0.0253  0.0285 -0.1732
  896SOL    HW1 3582   2.190   2.771   1.142  1.6678 -2.2098 -1.9366
  896SOL    HW2 3583   2.129   2.718   1.022  0.1958 -2.4782 -3.2106
  896SOL     MW 3584   2.144   2.787   1.072  0.2272 -0.5976 -0.8066
  897SOL     OW 3585   2.997   2.913   0.113 -0.0712  0.5932 -0.0822
  897SOL    HW1 3586   3.066   2.907   0.045 -1.6387  2.2178  0.5047
  897SOL    HW2 3587   2.924   2.849   0.111 -1.4309 -1.7366  1.0450
  897SOL     MW 3588   2.997   2.904   0.104 -0.4574  0.5002  0.1440
  898SOL     OW 3589   2.062   0.221   1.401 -0.0808 -1.2162 -0.4216
  898SOL    HW1 3590   2.012   0.144   1.382 -0.7171 -0.6257 -0.8818
  898SOL    HW2 3591   2.063   0.260   1.313  0.4932 -0.9198 -2.4450
  898SOL     MW 3592   2.056   0.216   1.387 -0.0890 -1.0992 -0.7493
  899SOL     OW 3593   2.940   2.931   0.636  0.0224  0.3314 -0.1110
  899SOL    HW1 3594   2.950   2.854   0.688  0.1339  0.8800 -0.9341
  899SOL    HW2 3595   2.852   2.963   0.648  2.1284  1.9563  1.5218
  899SOL     MW 3596   2.930   2.925   0.644  0.3150  0.6182 -0.0041
  900SOL     OW 3597   0.064   2.431   1.008 -0.1982  0.4108  0.7318
  900SOL    HW1 3598   0.074   2.515   0.962  0.0126  0.4453  0.4118
  900SOL    HW2 3599   0.068   2.361   0.939 -0.2443 -1.6419 -0.7040
  900SOL     MW 3600   0.066   2.433   0.993 -0.1765  0.1445  0.5001
  901SOL     OW 3601   1.783   2.852   1.689 -0.8803  0.3469 -0.0802
  901SOL    HW1 3602   1.843   2.781   1.700 -0.8669  0.5017  1.9479
  901SOL    HW2 3603   1.740   2.845   1.605 -1.0973  1.0865 -0.1135
  901SOL     MW 3604   1.785   2.841   1.679 -0.9072  0.4649  0.1830
  902SOL     OW 3605   2.664   2.120   1.831  0.1795 -0.2763 -0.6043
  902SOL    HW1 3606   2.626   2.030   1.833 -3.9290 -0.8896 -2.0137
  902SOL    HW2 3607   2.748   2.094   1.863  0.9450 -0.1315  1.2470
  902SOL     MW 3608   2.670   2.105   1.835 -0.2616 -0.3381 -0.5460
  903SOL     OW 3609   1.610   2.785   0.522  0.4789 -0.3065 -0.2923
  903SOL    HW1 3610   1.641   2.699   0.549 -0.0989 -0.4275  0.3080
  903SOL    HW2 3611   1.558   2.814   0.602 -2.1680 -0.8368  1.3287
  903SOL     MW 3612   1.607   2.777   0.536  0.0534 -0.3924  0.0007
  904SOL     OW 3613   2.503   2.490   1.724 -0.1139 -0.0412  0.2934
  904SOL    HW1 3614   2.440   2.524   1.662 -0.8284 -0.5260  1.7268
  904SOL    HW2 3615   2.558   2.430   1.677 -2.2320 -2.0677  0.5145
  904SOL     MW 3616   2.502   2.486   1.710 -0.4877 -0.3726  0.5117
  905SOL     OW 3617   2.322   2.562   2.161  0.4147  0.7448  0.0031
  905SOL    HW1 3618   2.380   2.535   2.090 -0.0202 -0.8791 -2.1972
  905SOL    HW2 3619   2.300   2.475   2.211 -2.5407 -3.3807 -0.5717
  905SOL     MW 3620   2.327   2.547   2.158 -0.0326 -0.0138 -0.3630
  906SOL     OW 3621   2.428   2.560   0.916  0.2284  0.9062 -0.3091
  906SOL    HW1 3622   2.522   2.529   0.923  1.0406  2.0791 -0.6276
  906SOL    HW2 3623   2.410   2.655   0.927 -2.6333 -2.4326  0.8582
  906SOL     MW 3624   2.438   2.568   0.919 -0.0420  0.6204 -0.1971
  907SOL     OW 3625   2.567   2.870   1.337 -0.5120  0.2751  0.2727
  907SOL    HW1 3626   2.628   2.912   1.396 -1.3497  2.1406 -0.3071
  907SOL    HW2 3627   2.621   2.867   1.255 -0.1280  1.8680 -2.5050
  907SOL     MW 3628   2.582   2.875   1.334 -0.5718  0.7314 -0.1703
  908SOL     OW 3629   2.759   2.365   0.010 -0.3765 -0.2959  0.0915
  908SOL    HW1 3630   2.701   2.294   0.027 -1.4383 -1.1063 -1.2720
  908SOL    HW2 3631   2.740   2.425   0.077  0.5557 -2.1846  0.8371
  908SOL     MW 3632   2.749   2.364   0.021 -0.3936 -0.6520  0.0100
  909SOL     OW 3633   1.655   0.177   1.165  0.6850  0.1403 -0.1284
  909SOL    HW1 3634   1.653   0.241   1.088 -1.0743 -0.6465 -1.6234
  909SOL    HW2 3635   1.651   0.238   1.233  1.4387 -1.0587 -2.3380
  909SOL     MW 3636   1.654   0.194   1.164  0.5523 -0.1217 -0.6172
  910SOL     OW 3637   2.277   1.798   0.416 -0.7119 -0.6420 -0.3448
  910SOL    HW1 3638   2.227   1.717   0.431 -1.0552  1.4255 -0.7970
  910SOL    HW2 3639   2.242   1.845   0.337 -1.2037  1.5685  0.1228
  910SOL     MW 3640   2.266   1.793   0.408 -0.8221 -0.0776 -0.3428
  911SOL     OW 3641   2.200   2.224   1.730 -0.1116 -0.4414  0.5684
  911SOL    HW1 3642   2.275   2.218   1.794 -0.7237 -0.2935  0.9395
  911SOL    HW2 3643   2.242   2.253   1.646  1.0662  0.1938 -0.4604
  911SOL     MW 3644   2.215   2.227   1.728 -0.0370 -0.3381  0.4816
  912SOL     OW 3645   2.878   1.914   1.522  0.6616 -0.0356  0.5363
  912SOL    HW1 3646   2.890   1.965   1.438  0.5639  1.8150 -1.4928
  912SOL    HW2 3647   2.785   1.932   1.544  3.2331 -2.0812  0.2985
  912SOL     MW 3648   2.867   1.923   1.514  0.9880 -0.0613  0.2372
  913SOL     OW 3649   2.584   3.002   0.352 -0.1481 -0.2423 -0.2159
  913SOL    HW1 3650   2.650   2.934   0.346  0.4062  0.2768  0.3163
  913SOL    HW2 3651   2.507   2.956   0.373  0.9047 -0.1426 -0.1842
  913SOL     MW 3652   2.582   2.987   0.354  0.0639 -0.1607 -0.1415
  914SOL     OW 3653   2.766   1.682   3.041  0.3127  0.3351 -0.0760
  914SOL    HW1 3654   2.793   1.755   2.985  2.6665  0.5417 -1.8791
  914SOL    HW2 3655   2.682   1.681   3.077 -0.9386  0.0681  1.0767
  914SOL     MW 3656   2.759   1.691   3.039  0.4582  0.3271 -0.1618
  915SOL     OW 3657   1.764   0.245   0.226 -0.2190 -0.2344  0.2054
  915SOL    HW1 3658   1.836   0.187   0.242 -0.6070  0.8252  0.7658
  915SOL    HW2 3659   1.690   0.186   0.214  0.3016  0.5867  1.6852
  915SOL     MW 3660   1.764   0.230   0.226 -0.2015  0.0137  0.4745
  916SOL     OW 3661   1.744   2.056   1.955  0.4450  0.2784  0.0008
  916SOL    HW1 3662   1.790   2.140   1.965  1.4922 -0.9742  4.0668
  916SOL    HW2 3663   1.768   2.031   1.867 -1.5935  0.0057  0.0339
  916SOL     MW 3664   1.753   2.064   1.944  0.3142  0.0772  0.5416
  917SOL     OW 3665   2.417   2.310   2.540  0.0660 -0.3211 -0.0719
  917SOL    HW1 3666   2.438   2.298   2.633  2.4650 -2.0850 -0.3911
  917SOL    HW2 3667   2.505   2.325   2.497 -1.3192 -0.3660 -1.5094
  917SOL     MW 3668   2.432   2.310   2.547  0.1997 -0.5597 -0.3037
  918SOL     OW 3669   1.988   1.644   2.718 -0.2336 -0.0212 -0.5252
  918SOL    HW1 3670   1.929   1.672   2.642  0.5017 -0.8872  0.6450
  918SOL    HW2 3671   2.080   1.664   2.693  0.8645  0.6154 -0.1475
  918SOL     MW 3672   1.992   1.650   2.705  0.0083 -0.0515 -0.3210
  919SOL     OW 3673   0.042   2.360   2.245  0.2245 -0.1128 -0.0938
  919SOL    HW1 3674  -0.024   2.295   2.230  2.1988 -2.0001  0.6427
  919SOL    HW2 3675   0.087   2.338   2.164  1.9981 -2.4296  0.2487
  919SOL     MW 3676   0.039   2.348   2.233  0.7190 -0.6675  0.0486
  920SOL     OW 3677   2.781   2.777   0.008 -0.2863 -0.3907 -0.6722
  920SOL    HW1 3678   2.707   2.838   0.015 -0.3428  2.0038 -0.8284
  920SOL    HW2 3679   2.759   2.727  -0.069 -1.1496  1.7219  0.7531
  920SOL     MW 3680   2.769   2.778  -0.001 -0.4076  0.2039 -0.5048
  921SOL     OW 3681   2.381   2.635   2.641 -0.2205  0.1367 -0.6129
  921SOL    HW1 3682   2.470   2.638   2.612  0.6876 -4.1185 -1.0971
  921SOL    HW2 3683   2.390   2.558   2.699  0.3017 -1.6446  1.1436
  921SOL     MW 3684   2.394   2.625   2.645 -0.0318 -0.6598 -0.4451
  922SOL     OW 3685   2.014   2.814   0.319  0.1193  0.8423 -0.3269
  922SOL    HW1 3686   1.978   2.830   0.232 -0.6373  0.4988  3.4055
  922SOL    HW2 3687   2.000   2.716   0.333  2.4300 -1.6459  2.3512
  922SOL     MW 3688   2.007   2.803   0.309  0.3243  0.4687  0.5189
  923SOL     OW 3689   2.203   2.798   1.682 -0.1157  0.1555 -0.2860
  923SOL    HW1 3690   2.254   2.726   1.639 -0.5279 -0.8118  0.8464
  923SOL    HW2 3691   2.173   2.852   1.610 -0.1224 -2.4465  0.4611
  923SOL     MW 3692   2.206   2.796   1.667 -0.1710 -0.3154 -0.0380
  924SOL     OW 3693   1.221   2.631   2.552  0.3950 -0.7113 -0.5042
  924SOL    HW1 3694   1.269   2.711   2.528 -0.1143  3.1783 -1.1754
  924SOL    HW2 3695   1.297   2.583   2.592 -1.2811  1.4661  1.3534
  924SOL     MW 3696   1.237   2.635   2.554  0.1067  0.0892 -0.3477
  925SOL     OW 3697   2.931   0.254   2.585  0.2617 -0.2568  0.2959
  925SOL    HW1 3698   2.897   0.272   2.499  3.1336 -0.0232 -2.4524
  925SOL    HW2 3699   2.890   0.314   2.651  0.7446  1.3837 -4.1223
  925SOL     MW 3700   2.921   0.264   2.582  0.7043 -0.0095 -0.6497
  926SOL     OW 3701   2.749   2.414   2.075 -0.1661 -0.2689 -0.2935
  926SOL    HW1 3702   2.818   2.461   2.123  0.2919 -0.9282 -0.1431
  926SOL    HW2 3703   2.788   2.421   1.984  1.8143  1.8105 -0.2184
  926SOL     MW 3704   2.763   2.421   2.069  0.1556 -0.0816 -0.2638
  927SOL     OW 3705   2.326   0.151   0.299 -0.4195  0.2012 -0.3792
  927SOL    HW1 3706   2.422   0.138   0.296  3.1231 -0.1508  0.1190
  927SOL    HW2 3707   2.286   0.115   0.216  0.7524 -0.1050 -1.6073
  927SOL     MW 3708   2.333   0.145   0.288  0.2026  0.1144 -0.4755
  928SOL     OW 3709   2.082   2.410   1.873 -0.1768 -0.2235  0.0416
  928SOL    HW1 3710   2.119   2.340   1.817  0.8154 -3.5516  2.2403
  928SOL    HW2 3711   2.160   2.449   1.918  0.5514 -0.4968  0.5125
  928SOL     MW 3712   2.097   2.406   1.872  0.0502 -0.6987  0.3938
  929SOL     OW 3713   2.668   2.362   2.419  0.0575 -0.0674  0.2652
  929SOL    HW1 3714   2.672   2.384   2.327  2.5201 -0.7424  2.3174
  929SOL    HW2 3715   2.756   2.354   2.450  0.5622  0.9280 -0.1505
  929SOL     MW 3716   2.680   2.364   2.411  0.4490 -0.0251  0.4811
  930SOL     OW 3717   1.994   2.838   2.695 -0.1651 -0.3066  0.3920
  930SOL    HW1 3718   2.007   2.763   2.760  0.6843 -0.1187 -3.7827
  930SOL    HW2 3719   2.074   2.893   2.690 -1.1520  3.1498  2.2420
  930SOL     MW 3720   2.006   2.835   2.703 -0.1833  0.1743  0.0852
  931SOL     OW 3721   3.004   2.777   2.288  0.1384  0.0444 -0.1488
  931SOL    HW1 3722   3.032   2.814   2.375  0.5850 -3.4688  1.7243
  931SOL    HW2 3723   3.088   2.793   2.238 -0.9647  1.2014  1.4026
  931SOL     MW 3724   3.019   2.784   2.293  0.0518 -0.2665  0.3031
  932SOL     OW 3725   2.869   1.986   2.510 -0.5661  0.0763 -0.0751
  932SOL    HW1 3726   2.954   2.016   2.546 -0.2017 -2.0359  1.3038
  932SOL    HW2 3727   2.866   1.996   2.417 -2.8719  0.9922  1.1003
  932SOL     MW 3728   2.880   1.991   2.503 -0.8223 -0.0815  0.2619
  933SOL     OW 3729   2.066   2.871   2.253 -0.3363 -0.1488  0.3657
  933SOL    HW1 3730   2.140   2.922   2.289 -0.4434  0.1593 -1.8676
  933SOL    HW2 3731   1.985   2.918   2.275  0.5964  0.7994  1.8661
  933SOL     MW 3732   2.065   2.884   2.261 -0.2274  0.0169  0.2690
  934SOL     OW 3733   2.017   2.699   2.454 -0.3965 -0.0272  0.2524
  934SOL    HW1 3734   2.017   2.746   2.540  0.0222  1.1363 -2.4117
  934SOL    HW2 3735   2.041   2.763   2.388  2.3400 -0.0874 -0.0338
  934SOL     MW 3736   2.020   2.713   2.457  0.0198  0.1183 -0.1369
  935SOL     OW 3737   2.669   1.598   1.833 -0.0794  0.3814  0.2725
  935SOL    HW1 3738   2.748   1.580   1.788 -0.8594 -0.5002  1.9374
  935SOL    HW2 3739   2.591   1.577   1.776 -2.4926 -2.2745 -0.4048
  935SOL     MW 3740   2.669   1.593   1.819 -0.5007 -0.0854  0.4028
  936SOL     OW 3741   3.026   2.272   3.071 -0.3498 -0.1783  0.0302
  936SOL    HW1 3742   3.081   2.304   3.144 -1.3271  1.2615 -1.6160
  936SOL    HW2 3743   2.942   2.314   3.072  1.8816  1.5880  0.2021
  936SOL     MW 3744   3.022   2.282   3.081 -0.1843  0.2447 -0.1643
  937SOL     OW 3745   1.993   2.110   2.706 -0.5631 -0.7382 -0.1738
  937SOL    HW1 3746   2.084   2.070   2.730  1.1404 -2.0384 -0.6511
  937SOL    HW2 3747   2.008   2.098   2.615  1.6047  0.4566  0.3245
  937SOL     MW 3748   2.007   2.103   2.697 -0.0523 -0.7521 -0.1710
  938SOL     OW 3749   2.282   1.822   1.874 -0.6776  0.2028  0.0040
  938SOL    HW1 3750   2.240   1.862   1.794  3.0810  0.4693  0.0376
  938SOL    HW2 3751   2.303   1.898   1.926 -0.9991  1.9440 -1.9481
  938SOL     MW 3752   2.279   1.837   1.871 -0.2241  0.4677 -0.2492
  939SOL     OW 3753   2.807   1.997   2.218  0.0535 -0.0820  0.4236
  939SOL    HW1 3754   2.824   1.913   2.170 -0.8295 -2.9452 -0.4610
  939SOL    HW2 3755   2.712   1.996   2.227  1.3138 -1.7642 -0.3756
  939SOL     MW 3756   2.796   1.986   2.213  0.1033 -0.6818  0.2015
  940SOL     OW 3757   2.317   0.182   2.680 -0.2406  0.1633 -0.5629
  940SOL    HW1 3758   2.303   0.086   2.668 -0.0925  0.1309 -0.2795
  940SOL    HW2 3759   2.361   0.187   2.761  0.8700  1.2671 -3.1911
  940SOL     MW 3760   2.321   0.170   2.689 -0.0745  0.3046 -0.8723
  941SOL     OW 3761   0.189   2.261   2.014 -0.1632  0.0011 -0.3424
  941SOL    HW1 3762   0.277   2.238   2.035  0.2601  0.1238 -0.3680
  941SOL    HW2 3763   0.159   2.218   1.938  2.6070  2.3434  4.2714
  941SOL     MW 3764   0.197   2.252   2.007  0.2581  0.3264  0.2630
  942SOL     OW 3765   2.934   2.217   2.153  0.1737  0.3249  0.0114
  942SOL    HW1 3766   2.863   2.268   2.105 -2.3767  0.0256  0.4006
  942SOL    HW2 3767   2.892   2.133   2.184  0.8142  1.6720  0.1522
  942SOL     MW 3768   2.919   2.213   2.151 -0.0783  0.4631  0.0813
  943SOL     OW 3769   0.353   2.020   2.305 -0.5034  0.1044 -0.1226
  943SOL    HW1 3770   0.324   2.081   2.379  1.3466  1.6839  1.3341
  943SOL    HW2 3771   0.449   2.018   2.331  1.5447  2.0701  0.4732
  943SOL     MW 3772   0.362   2.028   2.318  0.0109  0.5722  0.1482
  944SOL     OW 3773   2.099   2.684   2.062 -0.5836 -0.0137 -0.5502
  944SOL    HW1 3774   2.140   2.616   2.115  1.4796  0.9781  2.2681
  944SOL    HW2 3775   2.083   2.752   2.127 -1.3244 -0.2529  0.2426
  944SOL     MW 3776   2.102   2.684   2.078 -0.4091  0.0856 -0.0737
  945SOL     OW 3777   2.751   2.686   2.849  0.6170  0.1309  0.5928
  945SOL    HW1 3778   2.739   2.588   2.841 -2.5619 -0.4554  1.8911
  945SOL    HW2 3779   2.774   2.709   2.758 -2.0574 -1.7967  0.1727
  945SOL     MW 3780   2.753   2.676   2.836 -0.1553 -0.2008  0.7087
  946SOL     OW 3781   2.503   2.738   2.286  0.2363 -0.0342  0.9320
  946SOL    HW1 3782   2.533   2.762   2.195 -2.4440 -0.2469  0.5188
  946SOL    HW2 3783   2.422   2.695   2.254  2.0771  0.9177 -3.3418
  946SOL     MW 3784   2.496   2.735   2.270  0.1255  0.0633  0.3136
  947SOL     OW 3785   1.997   0.096   0.262 -0.1972 -0.1391  0.2939
  947SOL    HW1 3786   1.955   0.027   0.206  0.2015  2.1138  2.2651
  947SOL    HW2 3787   2.043   0.046   0.330 -1.1387  0.8638 -0.6039
  947SOL     MW 3788   1.998   0.080   0.264 -0.2688  0.2905  0.4355
  948SOL     OW 3789   1.778   3.002   2.662  0.2110 -0.5166 -0.1881
  948SOL    HW1 3790   1.848   2.935   2.679 -0.9452  0.7263 -2.0101
  948SOL    HW2 3791   1.769   3.006   2.560 -1.5156  1.7478  1.5405
  948SOL     MW 3792   1.786   2.993   2.651 -0.1693 -0.0538 -0.2004
  949SOL     OW 3793   2.542   1.975   2.282 -0.1709  0.1650  0.3328
  949SOL    HW1 3794   2.548   1.885   2.319 -1.5146 -0.8915  0.0256
  949SOL    HW2 3795   2.481   2.024   2.345  1.0588 -1.0389 -0.3094
  949SOL     MW 3796   2.534   1.969   2.295 -0.1859 -0.1332  0.2075
  950SOL     OW 3797   2.283   2.528   3.010  0.4300 -0.4366  0.3592
  950SOL    HW1 3798   2.357   2.478   2.974  1.6863 -1.2860 -2.3810
  950SOL    HW2 3799   2.203   2.520   2.952 -0.7579  0.4184 -1.2739
  950SOL     MW 3800   2.282   2.520   2.997  0.4390 -0.4359 -0.2178
  951SOL     OW 3801   2.976   2.131   2.833  0.2740  0.0673  0.7802
  951SOL    HW1 3802   2.996   2.194   2.898  2.3424 -1.0258 -2.0446
  951SOL    HW2 3803   3.058   2.131   2.779 -1.1022  1.3105 -0.6473
  951SOL     MW 3804   2.989   2.139   2.834  0.3653  0.0871  0.2191
  952SOL     OW 3805   3.087   1.695   2.152  0.2404 -0.6751 -0.3585
  952SOL    HW1 3806   2.996   1.723   2.119 -2.2929 -1.0165  3.2890
  952SOL    HW2 3807   3.158   1.761   2.128  0.4374  0.1330  0.1850
  952SOL     MW 3808   3.085   1.708   2.145 -0.0678 -0.6135  0.1945
  953SOL     OW 3809   1.893   1.781   2.931  0.0134  0.0362 -0.0734
  953SOL    HW1 3810   1.799   1.752   2.944  3.7101 -0.9738 -0.5836
  953SOL    HW2 3811   1.928   1.723   2.862 -2.5906  1.2892  3.0243
  953SOL     MW 3812   1.885   1.770   2.924  0.1575  0.0682  0.2680
  954SOL     OW 3813   2.483   2.073   2.863  0.1367  0.6849 -0.0570
  954SOL    HW1 3814   2.397   2.033   2.833  0.1858  0.7259 -1.6580
  954SOL    HW2 3815   2.555   2.040   2.804 -1.2940 -1.8817  1.6966
  954SOL     MW 3816   2.481   2.063   2.851 -0.0456  0.3516 -0.0369
  955SOL     OW 3817   1.597   1.592   2.606 -0.1637 -0.1762 -0.1657
  955SOL    HW1 3818   1.551   1.610   2.515  1.4184  0.1787  1.2995
  955SOL    HW2 3819   1.675   1.651   2.609  0.7610  0.0631  1.6744
  955SOL     MW 3820   1.601   1.602   2.594  0.1671 -0.0978  0.2704
  956SOL     OW 3821   2.703   2.416   2.844 -0.1501 -0.2672 -0.6166
  956SOL    HW1 3822   2.734   2.409   2.934 -1.2786 -2.2502 -0.8018
  956SOL    HW2 3823   2.756   2.361   2.793  0.7110 -1.4309 -0.8510
  956SOL     MW 3824   2.714   2.408   2.849 -0.1854 -0.6823 -0.6720
  957SOL     OW 3825   2.300   2.878   0.373  0.4975 -0.3166 -0.0720
  957SOL    HW1 3826   2.224   2.842   0.325 -0.1415  0.1666  0.9237
  957SOL    HW2 3827   2.271   2.859   0.464  0.5452  2.7941 -1.2198
  957SOL     MW 3828   2.286   2.870   0.379  0.4195  0.1576 -0.0920
  958SOL     OW 3829   2.031   2.615   2.845  0.5822  0.3700  0.1360
  958SOL    HW1 3830   2.016   2.539   2.788 -3.5904  0.6271 -0.7838
  958SOL    HW2 3831   1.952   2.603   2.904  2.0443 -0.5811  2.2261
  958SOL     MW 3832   2.019   2.603   2.845  0.2245  0.2784  0.2904
  959SOL     OW 3833   2.429   2.632   0.368  0.1683  0.0669  0.2013
  959SOL    HW1 3834   2.498   2.608   0.312  0.5197  0.8299 -2.3261
  959SOL    HW2 3835   2.401   2.723   0.348 -1.3526 -1.2674  0.1177
  959SOL     MW 3836   2.434   2.641   0.358  0.0140 -0.0085 -0.1432
  960SOL     OW 3837   1.964   2.303   2.267  0.4762 -0.1199 -0.2593
  960SOL    HW1 3838   1.906   2.325   2.197 -1.3135 -1.0770  1.9761
  960SOL    HW2 3839   1.905   2.285   2.341 -1.4430  1.6373  0.0852
  960SOL     MW 3840   1.949   2.304   2.267 -0.0131 -0.0143  0.0811
  961SOL     OW 3841   2.252   2.326   2.294  0.2300  0.4020 -0.0650
  961SOL    HW1 3842   2.155   2.314   2.287 -0.6491 -1.4958 -2.5851
  961SOL    HW2 3843   2.260   2.373   2.377 -1.1450 -1.2435 -1.4481
  961SOL     MW 3844   2.240   2.331   2.304 -0.0674 -0.0655 -0.5800
  962SOL     OW 3845   2.223   2.009   2.807 -0.4891 -0.6009  0.2624
  962SOL    HW1 3846   2.178   2.009   2.892 -0.3626  0.1701  0.3609
  962SOL    HW2 3847   2.196   1.933   2.752 -0.7481 -1.1335 -0.7630
  962SOL     MW 3848   2.214   1.999   2.811 -0.5066 -0.5694  0.1401
  963SOL     OW 3849   1.827   2.618   2.040 -0.3410 -0.0109  0.4333
  963SOL    HW1 3850   1.920   2.657   2.041  2.6398  1.3462  1.7895
  963SOL    HW2 3851   1.837   2.538   1.983  1.2297 -0.0410  1.6423
  963SOL     MW 3852   1.841   2.612   2.033  0.2595  0.1642  0.7718
  964SOL     OW 3853   1.765   1.946   2.755 -0.6634 -0.2051 -0.1295
  964SOL    HW1 3854   1.828   2.015   2.728 -1.3950 -0.9513  2.2707
  964SOL    HW2 3855   1.821   1.886   2.812  0.1139 -5.0000 -1.4455
  964SOL     MW 3856   1.781   1.947   2.759 -0.6574 -0.9362  0.0135
  965SOL     OW 3857   2.235   2.756   0.628  0.1802 -0.2945 -0.0966
  965SOL    HW1 3858   2.228   2.664   0.610 -2.9577  0.8447 -0.8370
  965SOL    HW2 3859   2.294   2.758   0.703  2.5712  1.5486 -0.8624
  965SOL     MW 3860   2.242   2.744   0.635  0.0817  0.0989 -0.2954
  966SOL     OW 3861   2.619   2.631   2.506  0.1137  0.3997  0.2189
  966SOL    HW1 3862   2.582   2.664   2.426 -0.1367 -0.3844 -1.2706
  966SOL    HW2 3863   2.637   2.538   2.481  2.8928 -2.2621 -0.8490
  966SOL     MW 3864   2.616   2.623   2.492  0.4473 -0.0549 -0.1185
  967SOL     OW 3865   2.861   3.019   2.910 -0.6371  0.0213  0.0052
  967SOL    HW1 3866   2.856   2.936   2.955 -0.4105  1.0271 -1.2765
  967SOL    HW2 3867   2.772   3.040   2.879  0.2585 -0.1803 -0.5151
  967SOL     MW 3868   2.848   3.011   2.912 -0.4890  0.1274 -0.2326
  968SOL     OW 3869   2.999   2.633   2.923 -0.2704  0.7820 -0.5410
  968SOL    HW1 3870   2.917   2.661   2.892 -1.2412  0.9589  0.5447
  968SOL    HW2 3871   3.031   2.578   2.849  2.9937  2.9572 -2.5764
  968SOL     MW 3872   2.993   2.629   2.909  0.0322  1.0923 -0.6663
  969SOL     OW 3873   1.537   2.129   1.675 -0.3251  0.0202  0.4514
  969SOL    HW1 3874   1.604   2.063   1.690  0.3424 -1.4016 -1.3299
  969SOL    HW2 3875   1.500   2.147   1.760 -0.5457  0.1023 -3.4981
  969SOL     MW 3876   1.541   2.122   1.688 -0.2661 -0.1565 -0.3047
  970SOL     OW 3877   1.632   1.693   1.766 -0.7872  0.6015 -0.0102
  970SOL    HW1 3878   1.702   1.706   1.826  0.2822  1.2551 -0.3338
  970SOL    HW2 3879   1.553   1.691   1.813  0.8493  1.6249 -0.9759
  970SOL     MW 3880   1.631   1.694   1.780 -0.4302  0.8227 -0.1803
  971SOL     OW 3881   1.763   3.065   2.399 -0.0816 -0.3907  0.4681
  971SOL    HW1 3882   1.781   3.037   2.313 -2.8352 -1.1548 -1.5633
  971SOL    HW2 3883   1.824   3.143   2.420  0.9745  2.8114  2.2093
  971SOL     MW 3884   1.774   3.072   2.391 -0.3056 -0.0691  0.4298
  972SOL     OW 3885   0.264   2.849   2.449  0.3385  0.3141  0.7471
  972SOL    HW1 3886   0.299   2.772   2.491 -1.3712 -0.2413  0.9598
  972SOL    HW2 3887   0.311   2.918   2.492 -1.4960  1.2544 -3.2422
  972SOL     MW 3888   0.275   2.848   2.460 -0.1292  0.3649  0.2488
  973SOL     OW 3889   2.536   0.039   2.114 -0.6558  0.4007 -0.7642
  973SOL    HW1 3890   2.554  -0.052   2.106 -1.3010  0.9885 -2.0605
  973SOL    HW2 3891   2.555   0.064   2.022 -1.0566  1.2473 -3.5898
  973SOL     MW 3892   2.541   0.030   2.101 -0.7938  0.5899 -1.3080
  974SOL     OW 3893   2.051   0.208   2.688 -0.3971 -0.3454 -0.3370
  974SOL    HW1 3894   2.150   0.205   2.690  2.8758  1.1866  1.0403
  974SOL    HW2 3895   2.027   0.134   2.746  1.1416  0.3600  0.4856
  974SOL     MW 3896   2.061   0.198   2.696  0.2377 -0.0502 -0.0467
  975SOL     OW 3897   2.179   2.486   2.505  0.5665 -0.5688 -0.2180
  975SOL    HW1 3898   2.262   2.497   2.554  0.3657 -1.6021 -4.0461
  975SOL    HW2 3899   2.144   2.575   2.485 -3.1536 -0.0941 -0.8293
  975SOL     MW 3900   2.185   2.499   2.509  0.0492 -0.6425 -0.8037
  976SOL     OW 3901   0.246   0.344   1.714 -0.0338  0.1802 -0.1936
  976SOL    HW1 3902   0.317   0.288   1.752  2.6830 -1.9300 -0.8687
  976SOL    HW2 3903   0.193   0.287   1.661  1.6329 -1.8333 -1.8205
  976SOL     MW 3904   0.249   0.329   1.712  0.5446 -0.3639 -0.4974
  977SOL     OW 3905   1.752   2.650   2.472  0.4274 -0.2834  0.1746
  977SOL    HW1 3906   1.762   2.552   2.481 -0.1069 -0.3887  1.4129
  977SOL    HW2 3907   1.839   2.687   2.471  1.2948 -1.1913 -0.0024
  977SOL     MW 3908   1.765   2.642   2.473  0.4714 -0.4171  0.3146
   3.10000   3.10000   3.10000
