977 TIP4P/2005f water molecules t=   1.92000 step= 1920
 3908
    1SOL     OW    1   0.449   0.754   0.162  0.0001 -1.0331  0.4031
    1SOL    HW1    2   0.425   0.699   0.092 -1.0289 -0.2079  1.8579
    1SOL    HW2    3   0.464   0.706   0.240 -0.2812 -0.9555  0.9262
    1SOL     MW    4   0.448   0.741   0.163 -0.1728 -0.9140  0.6640
    2SOL     OW    5   0.272   2.993   1.134 -0.0289 -0.3600  0.8572
    2SOL    HW1    6   0.325   3.072   1.105 -0.9151  0.6035  0.0277
    2SOL    HW2    7   0.179   3.011   1.121  1.3498 -2.4393 -0.4069
    2SOL     MW    8   0.267   3.006   1.129  0.0361 -0.5072  0.5810
    3SOL     OW    9   2.695   0.349   0.898 -0.3886  0.3032 -0.7225
    3SOL    HW1   10   2.709   0.429   0.853  1.2834  1.7217 -1.9400
    3SOL    HW2   11   2.683   0.369   0.986  0.3496 -0.2758 -4.5845
    3SOL     MW   12   2.696   0.362   0.903 -0.0706  0.4140 -1.3927
    4SOL     OW   13   2.931   1.746   0.539 -0.3968  0.0601  0.3541
    4SOL    HW1   14   2.866   1.813   0.517  1.6265 -0.6223 -0.0702
    4SOL    HW2   15   2.979   1.736   0.451 -0.8551  1.4501 -1.1363
    4SOL     MW   16   2.929   1.754   0.524 -0.1903  0.1535  0.1015
    5SOL     OW   17   1.617   1.464   0.625 -0.0617 -0.0815  0.0569
    5SOL    HW1   18   1.630   1.450   0.718 -2.1144 -0.9921  0.3660
    5SOL    HW2   19   1.521   1.493   0.633 -0.2774  1.3241 -0.6532
    5SOL     MW   20   1.606   1.466   0.639 -0.3610 -0.0162  0.0040
    6SOL     OW   21   0.764   1.430   0.612 -0.2622  0.4096  0.2782
    6SOL    HW1   22   0.672   1.409   0.598  2.2084 -0.9877 -1.4895
    6SOL    HW2   23   0.799   1.367   0.675 -1.7106 -2.1384 -0.0804
    6SOL     MW   24   0.756   1.419   0.618 -0.1274 -0.1109 -0.0024
    7SOL     OW   25   2.008   1.011   0.024 -0.4388  0.3016  0.6131
    7SOL    HW1   26   2.079   1.063   0.075  1.8109  2.8914  1.9693
    7SOL    HW2   27   1.950   0.983   0.091  0.7223  0.3799 -2.1269
    7SOL     MW   28   2.009   1.014   0.040  0.0112  0.6536  0.4305
    8SOL     OW   29   0.852   1.387   0.987  0.6723  0.2071  0.3640
    8SOL    HW1   30   0.892   1.473   1.013 -1.1872  4.3534 -2.3008
    8SOL    HW2   31   0.882   1.319   1.043 -0.7908  0.6719 -1.9932
    8SOL     MW   32   0.862   1.390   0.998  0.2339  0.8155 -0.2986
    9SOL     OW   33   0.871   0.540   1.288 -0.2016 -0.0043  0.5233
    9SOL    HW1   34   0.854   0.447   1.294  1.4756  1.0003  0.4222
    9SOL    HW2   35   0.944   0.564   1.346  2.4780 -1.1576 -2.8910
    9SOL     MW   36   0.878   0.531   1.297  0.3732 -0.0240  0.0595
   10SOL     OW   37   0.323   0.845   0.508 -0.2809  0.5650 -0.2236
   10SOL    HW1   38   0.414   0.887   0.502  2.7609 -1.6374  1.6501
   10SOL    HW2   39   0.276   0.884   0.580  1.5315  0.6374 -1.4620
   10SOL     MW   40   0.329   0.855   0.517  0.3596  0.2840 -0.1398
   11SOL     OW   41   0.739   1.095   1.469 -0.2430  0.0300 -0.8047
   11SOL    HW1   42   0.809   1.107   1.536 -1.7481 -1.3623  1.7444
   11SOL    HW2   43   0.777   1.027   1.414 -0.8983 -0.6250  1.6916
   11SOL     MW   44   0.753   1.087   1.471 -0.5280 -0.2401 -0.1390
   12SOL     OW   45   3.088   1.066   0.912 -0.1612 -0.2569 -0.2224
   12SOL    HW1   46   3.152   1.130   0.947 -0.2276 -1.1577 -0.7465
   12SOL    HW2   47   3.046   1.105   0.832  0.1607  1.5450  0.4662
   12SOL     MW   48   3.091   1.080   0.906 -0.1275 -0.1380 -0.2007
   13SOL     OW   49   1.852   1.427   1.289  0.3738 -0.2624 -0.2469
   13SOL    HW1   50   1.871   1.334   1.266  2.5977  0.3351 -0.3819
   13SOL    HW2   51   1.930   1.477   1.270  0.2304  0.1633  1.8079
   13SOL     MW   52   1.865   1.421   1.283  0.6483 -0.1274  0.0064
   14SOL     OW   53   0.586   0.254   1.865 -0.1699 -0.2481  0.5321
   14SOL    HW1   54   0.622   0.234   1.777  0.2735  0.6214 -1.6244
   14SOL    HW2   55   0.492   0.276   1.846 -0.8761  0.0817  1.0796
   14SOL     MW   56   0.579   0.254   1.851 -0.2045 -0.0899  0.3198
   15SOL     OW   57   2.013   0.404   0.962 -0.7070  0.2310  0.3241
   15SOL    HW1   58   2.031   0.480   1.018 -2.8980  0.1953  2.9772
   15SOL    HW2   59   2.041   0.443   0.872 -0.6155  0.1803 -1.8778
   15SOL     MW   60   2.019   0.419   0.958 -0.9840  0.2196  0.3837
   16SOL     OW   61   0.222   1.834   0.258  0.0840 -0.4977 -0.0407
   16SOL    HW1   62   0.318   1.800   0.254  0.1262  1.2705 -2.1945
   16SOL    HW2   63   0.229   1.912   0.312  0.9903  1.4407 -1.3576
   16SOL     MW   64   0.235   1.840   0.265  0.2092 -0.0087 -0.4986
   17SOL     OW   65   1.134   0.859   1.388 -0.2047 -0.4748  0.0999
   17SOL    HW1   66   1.145   0.836   1.477  1.9446 -1.0284 -0.7355
   17SOL    HW2   67   1.036   0.863   1.384 -2.2314 -1.0929 -2.3341
   17SOL     MW   68   1.122   0.856   1.399 -0.1885 -0.6294 -0.3315
   18SOL     OW   69   0.003   1.631   0.351 -0.1807  0.5714  0.0691
   18SOL    HW1   70   0.042   1.716   0.344  0.0861 -1.2265 -0.0737
   18SOL    HW2   71  -0.014   1.611   0.258 -0.3650 -0.9597  1.7165
   18SOL     MW   72   0.006   1.640   0.338 -0.1698  0.1321  0.2676
   19SOL     OW   73   0.084   1.390   0.947  0.1539  0.0211 -0.3665
   19SOL    HW1   74   0.101   1.409   0.854  1.2407  0.1445  1.1082
   19SOL    HW2   75  -0.008   1.384   0.955 -1.1437  0.6492 -1.2472
   19SOL     MW   76   0.074   1.392   0.936  0.1261  0.1203 -0.2882
   20SOL     OW   77   0.446   2.119   1.264  0.2083  0.0146 -0.0290
   20SOL    HW1   78   0.437   2.032   1.217  3.8355 -2.5774 -2.4860
   20SOL    HW2   79   0.398   2.113   1.344 -0.6608  1.9777  0.8419
   20SOL     MW   80   0.439   2.107   1.268  0.5722 -0.0684 -0.2383
   21SOL     OW   81   0.564   0.930   0.459  0.4165  0.0687  0.1132
   21SOL    HW1   82   0.636   0.895   0.508 -0.5850  3.0323 -0.3898
   21SOL    HW2   83   0.593   0.927   0.364 -1.6605  2.3029  1.7060
   21SOL     MW   84   0.577   0.925   0.453  0.0104  0.7545  0.2570
   22SOL     OW   85   1.542   0.768   0.951 -0.0944  0.0859 -0.0825
   22SOL    HW1   86   1.548   0.706   0.877  1.1254  2.8399 -1.8599
   22SOL    HW2   87   1.464   0.822   0.937 -1.4939  0.8558 -0.4494
   22SOL     MW   88   1.533   0.767   0.939 -0.1181  0.5509 -0.3654
   23SOL     OW   89  -0.002   0.809   0.670 -0.3112  0.3338 -0.1491
   23SOL    HW1   90   0.034   0.743   0.735  1.2414 -0.0522  0.7951
   23SOL    HW2   91   0.064   0.885   0.659  3.5966  1.4674  0.6478
   23SOL     MW   92   0.012   0.811   0.677  0.4093  0.4325  0.0806
   24SOL     OW   93   2.010   2.178   0.057 -0.2523  0.3590 -0.3906
   24SOL    HW1   94   2.001   2.135   0.146 -1.4412  2.1139 -3.3107
   24SOL    HW2   95   2.031   2.105  -0.005 -1.6327 -1.8172 -1.1294
   24SOL     MW   96   2.012   2.163   0.060 -0.5913  0.3035 -0.8734
   25SOL     OW   97   0.218   1.454   0.397 -0.3560  0.0606  0.1092
   25SOL    HW1   98   0.152   1.517   0.387  0.4078  2.8562  2.8973
   25SOL    HW2   99   0.266   1.441   0.323  0.5155  4.0109  2.4539
   25SOL     MW  100   0.216   1.461   0.386 -0.1402  0.9507  0.7864
   26SOL     OW  101   1.940   1.014   0.332  0.0786 -0.3067  0.2191
   26SOL    HW1  102   1.927   1.070   0.412 -0.8286  1.0689 -1.3166
   26SOL    HW2  103   2.016   1.065   0.294  2.0113 -0.2925 -0.0096
   26SOL     MW  104   1.949   1.028   0.337  0.2139 -0.1233 -0.0137
   27SOL     OW  105   1.839   1.356   0.149  0.0667 -1.0553 -0.0464
   27SOL    HW1  106   1.789   1.437   0.177  1.1082  1.8703 -3.2232
   27SOL    HW2  107   1.918   1.359   0.200  0.2269 -2.0508 -0.5101
   27SOL     MW  108   1.843   1.367   0.159  0.2253 -0.8007 -0.5267
   28SOL     OW  109   0.441   0.916   2.081  0.0488 -0.3970 -0.5383
   28SOL    HW1  110   0.469   0.906   2.172 -1.9378  2.6391 -1.8119
   28SOL    HW2  111   0.350   0.903   2.074 -1.5246  2.7801  1.0548
   28SOL     MW  112   0.433   0.913   2.092 -0.4209  0.4228 -0.4961
   29SOL     OW  113   0.172   1.435   0.687  0.3201  0.2246 -0.0698
   29SOL    HW1  114   0.172   1.531   0.675  0.0234 -0.1597  3.5409
   29SOL    HW2  115   0.183   1.408   0.597 -2.5784  2.7131 -0.1224
   29SOL     MW  116   0.173   1.445   0.674 -0.1015  0.5022  0.3997
   30SOL     OW  117   0.721   1.276   1.232  0.3519 -0.3729  0.0714
   30SOL    HW1  118   0.624   1.292   1.231  1.2504  2.4596  2.9249
   30SOL    HW2  119   0.737   1.235   1.320  1.5375 -0.7833  1.4945
   30SOL     MW  120   0.710   1.273   1.243  0.6269 -0.0534  0.6357
   31SOL     OW  121   0.465   0.250   0.175 -0.7621 -0.1288 -0.0137
   31SOL    HW1  122   0.513   0.184   0.231  0.7606  0.5356  0.5047
   31SOL    HW2  123   0.463   0.205   0.087  1.7542  1.1608  1.5717
   31SOL     MW  124   0.471   0.235   0.171 -0.2292  0.1290  0.2638
   32SOL     OW  125   2.731   0.994   1.069 -0.6215 -0.3883 -0.3969
   32SOL    HW1  126   2.671   0.947   1.125  1.9226  0.0730 -2.3806
   32SOL    HW2  127   2.818   0.957   1.107  1.5473  1.1106  1.9212
   32SOL     MW  128   2.735   0.983   1.082  0.0003 -0.1297 -0.3528
   33SOL     OW  129   1.627   1.290   0.393 -0.0581  1.3224  0.0836
   33SOL    HW1  130   1.694   1.231   0.433 -0.5481  0.0608 -2.1471
   33SOL    HW2  131   1.635   1.370   0.446  1.9036  0.7859  0.1432
   33SOL     MW  132   1.637   1.293   0.406  0.1361  1.0852 -0.2028
   34SOL     OW  133   1.149   2.002   1.176 -0.1337 -0.2223 -0.2134
   34SOL    HW1  134   1.057   2.002   1.203  1.1365  2.9631  0.4722
   34SOL    HW2  135   1.185   2.019   1.262  1.6923  0.9712  2.9224
   34SOL     MW  136   1.141   2.004   1.191  0.2748  0.3555  0.2908
   35SOL     OW  137   0.352   0.134   1.664  0.5361 -0.4179  0.1299
   35SOL    HW1  138   0.345   0.099   1.752  1.6587 -1.1717 -0.0060
   35SOL    HW2  139   0.328   0.059   1.610 -1.8032 -0.9908 -0.3740
   35SOL     MW  140   0.348   0.120   1.669  0.3756 -0.5929  0.0455
   36SOL     OW  141   1.947   2.016   0.592 -0.2551 -0.2084  0.8597
   36SOL    HW1  142   1.956   2.021   0.498 -0.6537 -0.9245 -0.2627
   36SOL    HW2  143   1.971   1.928   0.602 -1.9125  1.8817  0.0389
   36SOL     MW  144   1.951   2.005   0.581 -0.5264 -0.0271  0.6033
   37SOL     OW  145   1.719   2.055   0.952 -0.4314 -0.2267 -0.4281
   37SOL    HW1  146   1.673   1.991   0.898  1.3655  1.5633 -0.1680
   37SOL    HW2  147   1.650   2.102   1.006 -0.2224 -2.7647 -0.3054
   37SOL     MW  148   1.704   2.053   0.952 -0.1668 -0.3254 -0.3776
   38SOL     OW  149   2.856   0.972   0.058  0.1139  0.2088 -0.0543
   38SOL    HW1  150   2.902   0.952   0.141 -1.8448 -0.7552 -1.6778
   38SOL    HW2  151   2.912   0.986  -0.027  1.4372  1.1053  2.0357
   38SOL     MW  152   2.870   0.971   0.058  0.0301  0.1999  0.0073
   39SOL     OW  153   1.516   0.597   0.692 -0.4448 -0.8148 -0.4581
   39SOL    HW1  154   1.490   0.522   0.743  1.9058 -1.9857 -2.9996
   39SOL    HW2  155   1.450   0.668   0.697  1.3775 -2.9743  0.1016
   39SOL     MW  156   1.504   0.596   0.699  0.1058 -1.2542 -0.7196
   40SOL     OW  157   1.277   1.879   0.224 -0.1430 -0.2825 -0.3086
   40SOL    HW1  158   1.343   1.815   0.253  0.6042  0.7411  0.3748
   40SOL    HW2  159   1.239   1.920   0.302 -0.3456  1.9794  0.4308
   40SOL     MW  160   1.281   1.876   0.238 -0.0712  0.1510 -0.1209
   41SOL     OW  161   0.460   0.500   1.570 -0.4103  0.0206 -0.8599
   41SOL    HW1  162   0.524   0.564   1.529  0.0933  2.1134  1.4604
   41SOL    HW2  163   0.372   0.522   1.528 -1.4725 -0.5857  0.4570
   41SOL     MW  164   0.457   0.512   1.559 -0.4840  0.2167 -0.3800
   42SOL     OW  165   1.264   2.892   1.987  0.3631  0.1195  0.1558
   42SOL    HW1  166   1.202   2.901   2.057  0.8364 -1.9928 -2.3788
   42SOL    HW2  167   1.344   2.844   2.032  2.6805 -1.7436  2.2667
   42SOL     MW  168   1.267   2.887   2.002  0.7313 -0.4050  0.0999
   43SOL     OW  169   1.395   0.136   1.688  0.2327  0.2091 -0.0340
   43SOL    HW1  170   1.449   0.103   1.619  2.3954  3.0289  0.1440
   43SOL    HW2  171   1.320   0.078   1.672  0.4498  0.8547 -0.3772
   43SOL     MW  172   1.392   0.124   1.677  0.5467  0.6664 -0.0558
   44SOL     OW  173   1.193   0.850   0.938 -0.3620  0.4950  0.2399
   44SOL    HW1  174   1.169   0.941   0.959 -0.6445  0.5032  0.2360
   44SOL    HW2  175   1.148   0.792   0.998  1.0244 -1.4452  0.6508
   44SOL     MW  176   1.184   0.854   0.949 -0.2163  0.2401  0.2936
   45SOL     OW  177   1.316   0.773   0.711 -0.0175  0.2729 -0.0214
   45SOL    HW1  178   1.269   0.814   0.783  0.8810  0.9085  1.6031
   45SOL    HW2  179   1.244   0.749   0.646 -2.8677 -1.5472 -1.3385
   45SOL     MW  180   1.301   0.775   0.712 -0.2750  0.1167  0.0192
   46SOL     OW  181   0.443   1.121   0.688  0.2623  0.0213  0.4601
   46SOL    HW1  182   0.499   1.149   0.618  2.2016  2.2341 -0.0315
   46SOL    HW2  183   0.439   1.203   0.749 -1.9101 -0.8637  0.7249
   46SOL     MW  184   0.450   1.136   0.687  0.2315  0.1965  0.4302
   47SOL     OW  185   0.151   2.020   1.927 -0.3666  0.0036  0.4420
   47SOL    HW1  186   0.119   1.941   1.879 -1.9700 -2.9686 -0.9526
   47SOL    HW2  187   0.147   1.998   2.019 -1.1143  3.1695 -1.5897
   47SOL     MW  188   0.146   2.007   1.933 -0.6768  0.0292 -0.0101
   48SOL     OW  189   1.284   0.505   1.044 -0.0387  0.3740 -0.5500
   48SOL    HW1  190   1.239   0.449   0.978  2.4086  1.6887 -1.6049
   48SOL    HW2  191   1.210   0.556   1.071 -1.1136 -2.6779 -0.9950
   48SOL     MW  192   1.268   0.504   1.039  0.1424  0.1448 -0.7479
   49SOL     OW  193   1.740   0.703   1.527  0.7625 -0.3057  0.1667
   49SOL    HW1  194   1.794   0.655   1.593  2.9794  1.4858  0.9865
   49SOL    HW2  195   1.769   0.661   1.446 -0.4546  0.8998 -2.6099
   49SOL     MW  196   1.751   0.691   1.525  0.8944  0.0897 -0.0915
   50SOL     OW  197   1.288   1.240   0.595 -0.4463 -0.1222  0.7659
   50SOL    HW1  198   1.216   1.240   0.664  1.5028 -0.1606 -2.1515
   50SOL    HW2  199   1.355   1.175   0.627  2.5975 -0.2617 -1.3841
   50SOL     MW  200   1.287   1.231   0.608  0.2124 -0.1457  0.0973
   51SOL     OW  201   0.332   2.913   0.857 -0.4492 -0.0196  0.0429
   51SOL    HW1  202   0.414   2.870   0.883 -0.4259 -1.0800  0.3094
   51SOL    HW2  203   0.300   2.937   0.945 -0.4656 -3.8253  1.2431
   51SOL     MW  204   0.339   2.910   0.872 -0.4483 -0.6617  0.2364
   52SOL     OW  205   0.804   1.853   0.456 -0.1820 -0.0546  0.2469
   52SOL    HW1  206   0.793   1.946   0.445 -0.5001  0.1402 -2.6377
   52SOL    HW2  207   0.817   1.818   0.365  0.4175  0.4268 -0.3325
   52SOL     MW  208   0.805   1.860   0.442 -0.1449  0.0346 -0.2101
   53SOL     OW  209   0.478   2.155   0.621 -0.1462  0.1478  0.7147
   53SOL    HW1  210   0.452   2.116   0.535 -0.2690  0.7826  0.0405
   53SOL    HW2  211   0.453   2.246   0.618  0.0981 -1.7433  0.6626
   53SOL     MW  212   0.471   2.162   0.609 -0.1301 -0.0180  0.6189
   54SOL     OW  213   2.039   0.980   0.684  0.1007  0.2801 -0.0556
   54SOL    HW1  214   2.110   0.984   0.623 -0.8800 -1.3020 -0.6285
   54SOL    HW2  215   2.005   0.891   0.690  0.3557  0.7384 -0.7190
   54SOL     MW  216   2.044   0.969   0.677  0.0050  0.1319 -0.2187
   55SOL     OW  217   0.430   1.535   1.717 -0.0957  0.1724  0.4603
   55SOL    HW1  218   0.392   1.575   1.634 -1.3338  0.3210 -0.9488
   55SOL    HW2  219   0.505   1.484   1.684 -0.5843 -1.9111 -0.9943
   55SOL     MW  220   0.435   1.533   1.702 -0.3235 -0.0829  0.0824
   56SOL     OW  221   0.672   0.909   0.198  0.7810  0.6918  0.0504
   56SOL    HW1  222   0.682   0.990   0.145  2.6629 -0.8367  0.4411
   56SOL    HW2  223   0.591   0.873   0.156  1.9235  2.1051  1.1696
   56SOL     MW  224   0.663   0.915   0.186  1.1800  0.6766  0.2496
   57SOL     OW  225   1.090   1.342   1.197 -0.3673 -0.1654  0.2213
   57SOL    HW1  226   1.186   1.368   1.203 -1.9932  2.1551  0.2390
   57SOL    HW2  227   1.090   1.274   1.264 -2.0884  0.2043  0.9242
   57SOL     MW  228   1.103   1.337   1.206 -0.8089  0.1895  0.3163
   58SOL     OW  229   0.438   1.240   1.300 -0.2552 -0.5822  0.2364
   58SOL    HW1  230   0.394   1.330   1.290 -0.5821  0.0249  0.8389
   58SOL    HW2  231   0.413   1.218   1.386 -2.5028  1.9396 -1.7099
   58SOL     MW  232   0.429   1.249   1.310 -0.5949 -0.1694  0.0591
   59SOL     OW  233   1.478   1.663   0.390 -0.2696  0.1108  0.3728
   59SOL    HW1  234   1.528   1.714   0.445 -1.2895 -2.4456 -3.0624
   59SOL    HW2  235   1.389   1.680   0.423  2.5300  1.2969 -1.2352
   59SOL     MW  236   1.473   1.672   0.402 -0.0348 -0.0700 -0.2926
   60SOL     OW  237   3.050   0.151   1.613  0.0209 -0.0918  0.0740
   60SOL    HW1  238   2.972   0.205   1.643  0.2570 -1.4074 -0.3490
   60SOL    HW2  239   3.096   0.132   1.691 -3.1402 -0.9480 -3.0840
   60SOL     MW  240   3.046   0.156   1.628 -0.3650 -0.3784 -0.3985
   61SOL     OW  241   1.972   1.373   3.002 -0.3255  0.2807  0.5917
   61SOL    HW1  242   1.903   1.365   3.073 -0.2376  0.9631 -2.2086
   61SOL    HW2  243   2.024   1.298   3.006 -1.1993  0.6298  0.5024
   61SOL     MW  244   1.969   1.362   3.012 -0.4292  0.4168  0.2104
   62SOL     OW  245   0.542   1.798   0.550 -0.2394  0.4465 -0.3279
   62SOL    HW1  246   0.637   1.817   0.533  2.1399  1.0314 -3.3882
   62SOL    HW2  247   0.530   1.704   0.550  0.3795 -0.0181 -2.3087
   62SOL     MW  248   0.553   1.788   0.548  0.1561  0.4624 -0.9930
   63SOL     OW  249   1.711   0.670   0.505 -0.0708  0.1609  0.2119
   63SOL    HW1  250   1.680   0.761   0.501 -2.1877 -0.0813 -1.5259
   63SOL    HW2  251   1.639   0.637   0.562 -0.8516  0.4307  0.9159
   63SOL     MW  252   1.698   0.677   0.512 -0.4531  0.1645  0.0755
   64SOL     OW  253   0.191   1.702   0.629  0.1313 -0.3215 -0.3669
   64SOL    HW1  254   0.247   1.762   0.673 -0.4504 -1.1695  0.8439
   64SOL    HW2  255   0.108   1.731   0.665 -1.9248  1.2743  0.2499
   64SOL     MW  256   0.188   1.713   0.639 -0.2168 -0.2228 -0.1258
   65SOL     OW  257   1.562   2.328   0.370  0.9079  0.2124  0.2730
   65SOL    HW1  258   1.647   2.363   0.397 -0.0164  0.9199 -0.2471
   65SOL    HW2  259   1.502   2.366   0.436  0.5192  2.9352  2.2372
   65SOL     MW  260   1.565   2.337   0.382  0.7347  0.6650  0.4635
   66SOL     OW  261   0.404   0.573   0.523  0.2463  0.1829 -0.0639
   66SOL    HW1  262   0.459   0.547   0.447 -2.4142  0.5083  0.1790
   66SOL    HW2  263   0.387   0.668   0.514 -1.1334 -0.1766 -1.5534
   66SOL     MW  264   0.409   0.582   0.512 -0.2868  0.1784 -0.2283
   67SOL     OW  265   1.343   0.087   1.980  0.1253  0.3251 -0.9411
   67SOL    HW1  266   1.375   0.100   1.892  2.0963 -0.3475 -0.9368
   67SOL    HW2  267   1.339  -0.008   1.991  0.8498  1.3842  2.0326
   67SOL     MW  268   1.347   0.076   1.969  0.4810  0.3761 -0.5482
   68SOL     OW  269   0.801   0.099   2.830 -0.0525  0.0231 -0.0179
   68SOL    HW1  270   0.746   0.179   2.821  1.3748  0.0906  0.4114
   68SOL    HW2  271   0.880   0.126   2.869  1.4654 -0.5731 -1.3730
   68SOL     MW  272   0.804   0.113   2.834  0.3361 -0.0466 -0.1401
   69SOL     OW  273   1.088   0.271   1.960  0.1673 -0.5441  0.5553
   69SOL    HW1  274   1.172   0.248   1.991 -0.7880 -0.3455  0.3169
   69SOL    HW2  275   1.020   0.218   2.010 -0.0958  1.8482 -1.9715
   69SOL     MW  276   1.090   0.261   1.971  0.0065 -0.2022  0.1905
   70SOL     OW  277   0.532   1.682   1.128  0.0100 -0.5963  0.3207
   70SOL    HW1  278   0.626   1.714   1.132  0.5617 -0.1773 -4.8301
   70SOL    HW2  279   0.552   1.612   1.059  4.0766 -2.6889 -1.0689
   70SOL     MW  280   0.547   1.677   1.120  0.6194 -0.8172 -0.5423
   71SOL     OW  281   1.585   0.627   1.218 -0.0295  0.6209 -0.0394
   71SOL    HW1  282   1.550   0.698   1.261 -0.6611  0.3499  0.4900
   71SOL    HW2  283   1.541   0.637   1.135 -0.8629 -0.7958  4.3326
   71SOL     MW  284   1.575   0.638   1.213 -0.2228  0.3982  0.6073
   72SOL     OW  285   0.791   1.841   1.088 -0.0285 -0.4178  0.0294
   72SOL    HW1  286   0.812   1.909   1.025 -1.3360 -0.6084  1.7291
   72SOL    HW2  287   0.873   1.792   1.094 -0.7414 -1.3524 -0.5628
   72SOL     MW  288   0.805   1.843   1.080 -0.2950 -0.5663  0.1756
   73SOL     OW  289   1.081   0.656   1.126  0.2264  0.2180 -0.1589
   73SOL    HW1  290   0.989   0.630   1.140 -0.0292  0.5079 -0.3704
   73SOL    HW2  291   1.100   0.701   1.214  1.6300  0.7739  3.8409
   73SOL     MW  292   1.071   0.658   1.140  0.3778  0.3296  0.3410
   74SOL     OW  293   2.821   0.095   0.979 -0.1353  0.2158 -0.1036
   74SOL    HW1  294   2.917   0.103   0.977 -0.6345 -0.9391 -0.0362
   74SOL    HW2  295   2.790   0.175   0.936 -0.3414  0.3011 -0.3302
   74SOL     MW  296   2.830   0.107   0.973 -0.2283  0.0747 -0.1246
   75SOL     OW  297   1.460   1.314   0.178 -0.2729  0.1372  0.2703
   75SOL    HW1  298   1.516   1.285   0.104 -2.4165 -2.3170  0.5273
   75SOL    HW2  299   1.521   1.294   0.248  2.4296  0.5587 -0.9303
   75SOL     MW  300   1.476   1.307   0.177 -0.1991 -0.1310  0.1458
   76SOL     OW  301   3.036   0.688   0.462 -0.4025 -0.1383  0.6871
   76SOL    HW1  302   3.053   0.748   0.540 -0.1629 -1.2880  1.0085
   76SOL    HW2  303   3.116   0.640   0.446 -0.4878 -0.1267  0.6306
   76SOL     MW  304   3.049   0.690   0.470 -0.3822 -0.2885  0.7220
   77SOL     OW  305   0.851   0.598   0.441  0.2907 -0.1261  0.3699
   77SOL    HW1  306   0.827   0.639   0.356 -0.7256 -1.0102  0.5074
   77SOL    HW2  307   0.806   0.509   0.444  0.2610 -0.8946 -2.8672
   77SOL     MW  308   0.842   0.591   0.430  0.1527 -0.3441 -0.0391
   78SOL     OW  309   0.791   0.868   1.105 -0.5185 -0.1861  0.2862
   78SOL    HW1  310   0.782   0.954   1.064 -1.3207  0.9181 -0.6026
   78SOL    HW2  311   0.700   0.841   1.132 -0.1064  0.1428  0.4912
   78SOL     MW  312   0.778   0.876   1.103 -0.5699  0.0030  0.1960
   79SOL     OW  313   1.910   1.496   0.567  0.7188 -0.2768  0.6241
   79SOL    HW1  314   1.818   1.498   0.565  0.5462  1.5811  0.3473
   79SOL    HW2  315   1.932   1.429   0.636 -1.3003 -1.4899 -0.7938
   79SOL     MW  316   1.901   1.488   0.576  0.4296 -0.1917  0.4005
   80SOL     OW  317   0.223   0.984   0.301 -0.0387  0.3271  0.1026
   80SOL    HW1  318   0.175   0.942   0.232 -0.7196  1.7774 -1.1447
   80SOL    HW2  319   0.250   0.917   0.371  0.0136  0.5390  0.2735
   80SOL     MW  320   0.221   0.970   0.301 -0.1216  0.5464 -0.0394
   81SOL     OW  321   1.789   1.823   0.273 -0.8653 -0.1355 -0.5481
   81SOL    HW1  322   1.744   1.745   0.253  0.5666  1.0880  1.0335
   81SOL    HW2  323   1.749   1.893   0.226 -2.3388 -1.5652 -1.2221
   81SOL     MW  324   1.778   1.822   0.264 -0.8708 -0.1627 -0.4283
   82SOL     OW  325   0.953   1.024   0.566 -0.4134 -0.4270 -0.0536
   82SOL    HW1  326   0.896   1.074   0.502 -1.2714  0.0260 -0.3888
   82SOL    HW2  327   0.903   0.942   0.574 -1.6371  0.2163  2.2425
   82SOL     MW  328   0.939   1.020   0.558 -0.6880 -0.2823  0.2051
   83SOL     OW  329   0.006   0.709   1.510  0.2568 -0.0987 -0.6361
   83SOL    HW1  330   0.015   0.772   1.441  0.3863  0.2395 -0.8810
   83SOL    HW2  331   0.084   0.653   1.490  0.2892 -1.6016  0.3712
   83SOL     MW  332   0.017   0.710   1.498  0.2782 -0.2524 -0.5355
   84SOL     OW  333   3.091   0.199   0.927  0.1938  0.4802  0.2386
   84SOL    HW1  334   3.098   0.296   0.957  1.0330 -0.6268  0.8175
   84SOL    HW2  335   3.130   0.139   0.991  1.1187  0.5641  0.7882
   84SOL     MW  336   3.097   0.204   0.940  0.4265  0.3452  0.3875
   85SOL     OW  337   0.366   0.462   0.783  0.0043 -0.2938 -0.1095
   85SOL    HW1  338   0.389   0.486   0.689  2.8628 -1.7995 -1.1248
   85SOL    HW2  339   0.304   0.386   0.779 -1.5104  0.3778 -2.0883
   85SOL     MW  340   0.361   0.456   0.770  0.1816 -0.4038 -0.5045
   86SOL     OW  341   1.294   0.265   1.208 -0.0329 -0.6340  0.2016
   86SOL    HW1  342   1.290   0.346   1.160  0.5037  0.9555  0.6952
   86SOL    HW2  343   1.387   0.267   1.241  2.1986 -0.2881 -1.8478
   86SOL     MW  344   1.306   0.276   1.206  0.3324 -0.3787 -0.0037
   87SOL     OW  345   0.977   1.589   1.189 -0.3256  0.0780 -0.0045
   87SOL    HW1  346   1.041   1.639   1.134 -2.7512 -0.6497 -2.0583
   87SOL    HW2  347   1.006   1.499   1.194 -2.4288  0.0396  2.3704
   87SOL     MW  348   0.989   1.583   1.183 -0.9231 -0.0230  0.0379
   88SOL     OW  349   1.165   1.129   1.012  0.2676 -0.3740 -0.3675
   88SOL    HW1  350   1.256   1.146   1.015 -0.1039  0.5173 -1.6994
   88SOL    HW2  351   1.124   1.175   1.084  1.2094  1.6207 -0.1711
   88SOL     MW  352   1.172   1.137   1.022  0.3428  0.0068 -0.5173
   89SOL     OW  353   1.788   0.737   0.216 -0.1210 -0.1606  0.1384
   89SOL    HW1  354   1.725   0.677   0.253  0.4427  1.5859 -0.1350
   89SOL    HW2  355   1.852   0.747   0.292  0.8372  0.4702  0.9382
   89SOL     MW  356   1.788   0.731   0.231  0.0798  0.1530  0.2079
   90SOL     OW  357   0.787   1.195   2.759 -0.7012  0.4757  0.1204
   90SOL    HW1  358   0.805   1.102   2.744 -0.2077  2.7368  3.6258
   90SOL    HW2  359   0.821   1.220   2.844  2.0208 -1.1301 -0.3021
   90SOL     MW  360   0.794   1.186   2.768 -0.2769  0.5622  0.5272
   91SOL     OW  361   2.275   0.615   0.527 -0.2346  0.3197 -0.3753
   91SOL    HW1  362   2.325   0.676   0.472 -2.7469  0.9894 -0.1027
   91SOL    HW2  363   2.292   0.529   0.481 -0.2331 -2.7002  1.1103
   91SOL     MW  364   2.284   0.612   0.514 -0.5659  0.0096 -0.1434
   92SOL     OW  365   1.644   0.938   0.490  0.2150 -0.2583  0.3514
   92SOL    HW1  366   1.562   0.957   0.541 -1.2027 -1.7171  0.3223
   92SOL    HW2  367   1.626   0.950   0.398  1.9374  0.7594 -1.7005
   92SOL     MW  368   1.631   0.942   0.485  0.2552 -0.3165  0.0769
   93SOL     OW  369   1.117   0.219   0.404 -0.2096 -0.3758 -0.4376
   93SOL    HW1  370   1.023   0.237   0.424 -1.0733  2.6805 -0.5066
   93SOL    HW2  371   1.119   0.268   0.319 -1.4081  2.4983  1.1108
   93SOL     MW  372   1.105   0.228   0.396 -0.4817  0.4066 -0.2424
   94SOL     OW  373   1.907   1.375   1.581  0.1540  0.0895 -0.4618
   94SOL    HW1  374   1.870   1.396   1.495 -0.8288 -0.6652 -1.1008
   94SOL    HW2  375   1.844   1.309   1.616 -4.5029 -0.5244 -0.5993
   94SOL     MW  376   1.894   1.369   1.575 -0.5901 -0.0911 -0.5643
   95SOL     OW  377   0.606   1.503   0.930  0.2724 -0.1195 -0.0314
   95SOL    HW1  378   0.687   1.457   0.931  0.0693 -0.6135  0.4768
   95SOL    HW2  379   0.535   1.443   0.888 -0.1963 -0.3714 -0.9871
   95SOL     MW  380   0.607   1.489   0.925  0.1837 -0.2179 -0.0905
   96SOL     OW  381   1.323   1.809   1.698 -0.2060  0.4290  0.3655
   96SOL    HW1  382   1.238   1.839   1.725 -0.2756  0.0283 -0.3418
   96SOL    HW2  383   1.320   1.713   1.695 -1.7080 -0.9167  2.9034
   96SOL     MW  384   1.311   1.801   1.702 -0.4134  0.1986  0.6070
   97SOL     OW  385   1.089   1.562   0.844 -0.1216 -0.1317 -0.0389
   97SOL    HW1  386   1.117   1.633   0.904 -1.8025 -2.6267  1.6691
   97SOL    HW2  387   1.000   1.587   0.825  1.0998  0.5569  2.5151
   97SOL     MW  388   1.081   1.575   0.849 -0.1823 -0.3701  0.5235
   98SOL     OW  389   1.358   1.397   1.207  0.4171  0.2307  0.4455
   98SOL    HW1  390   1.436   1.415   1.260 -0.9637 -0.0202 -1.8575
   98SOL    HW2  391   1.380   1.396   1.115  0.8633 -0.3383  0.5399
   98SOL     MW  392   1.371   1.400   1.202  0.2938  0.1225  0.1541
   99SOL     OW  393   1.537   0.337   1.308  0.0686  0.2719 -0.5001
   99SOL    HW1  394   1.554   0.417   1.252  0.5016 -1.0826 -1.3024
   99SOL    HW2  395   1.473   0.371   1.378  1.4535  0.6831  1.5313
   99SOL     MW  396   1.531   0.352   1.310  0.3084  0.1475 -0.3379
  100SOL     OW  397   1.080   1.155   1.404 -0.2112  0.0718 -0.0086
  100SOL    HW1  398   1.087   1.225   1.470 -2.4019 -1.1565 -0.5696
  100SOL    HW2  399   1.119   1.073   1.440  2.3361 -1.2126  1.9932
  100SOL     MW  400   1.086   1.153   1.418 -0.1642 -0.2597  0.1815
  101SOL     OW  401   0.538   1.253   0.473  0.4996 -0.2006 -0.1288
  101SOL    HW1  402   0.487   1.215   0.401 -0.0648 -2.6076 -0.7144
  101SOL    HW2  403   0.621   1.208   0.446  3.6313 -1.0206  2.8244
  101SOL     MW  404   0.543   1.242   0.460  0.8383 -0.6263  0.1836
  102SOL     OW  405   2.884   0.590   1.065  0.5007  0.3709 -0.5162
  102SOL    HW1  406   2.932   0.674   1.078 -3.3207 -1.6636 -0.5281
  102SOL    HW2  407   2.867   0.575   1.160 -0.3687  0.4757  2.5179
  102SOL     MW  408   2.888   0.599   1.079 -0.1182  0.1163 -0.1174
  103SOL     OW  409   1.900   0.260   1.768 -0.1248 -0.4200  0.4657
  103SOL    HW1  410   1.887   0.165   1.766 -0.6219  1.3434  2.1627
  103SOL    HW2  411   1.872   0.290   1.858 -1.4930  1.5047 -2.3915
  103SOL     MW  412   1.894   0.252   1.780 -0.3709  0.0666  0.3126
  104SOL     OW  413   0.045   1.539   1.675  0.0080  0.0587 -0.1115
  104SOL    HW1  414   0.093   1.463   1.703  1.4961  1.9329  0.1414
  104SOL    HW2  415  -0.046   1.504   1.667  0.6353  1.5293 -0.3785
  104SOL     MW  416   0.039   1.525   1.678  0.2871  0.5000 -0.1134
  105SOL     OW  417   0.120   1.209   0.411  0.5989 -0.1968 -0.8007
  105SOL    HW1  418   0.173   1.137   0.374  0.1141 -1.4275 -1.0407
  105SOL    HW2  419   0.160   1.294   0.393  1.3357  0.6362  2.8226
  105SOL     MW  420   0.132   1.211   0.403  0.6322 -0.2492 -0.3543
  106SOL     OW  421   0.862   0.234   0.857  0.2319 -0.2694  0.1231
  106SOL    HW1  422   0.803   0.312   0.865  1.6861  2.9707  0.7471
  106SOL    HW2  423   0.918   0.228   0.932  0.7323  1.3885 -1.3053
  106SOL     MW  424   0.861   0.244   0.868  0.4898  0.3769  0.0169
  107SOL     OW  425   0.792   2.188   2.874 -0.2078 -0.2828  0.0387
  107SOL    HW1  426   0.695   2.178   2.900 -0.8445 -2.0705  0.6505
  107SOL    HW2  427   0.833   2.137   2.943  2.2567  1.6086  2.8095
  107SOL     MW  428   0.785   2.180   2.887  0.0334 -0.2691  0.4850
  108SOL     OW  429   1.317   1.559   1.637  0.5109 -0.3315 -0.1476
  108SOL    HW1  430   1.279   1.555   1.543 -2.4977 -1.9715  2.0528
  108SOL    HW2  431   1.413   1.555   1.639 -2.1670  0.8067  2.8778
  108SOL     MW  432   1.324   1.558   1.625 -0.2394 -0.3977  0.5419
  109SOL     OW  433   2.021   0.753   0.384 -0.2129  0.0548  0.1840
  109SOL    HW1  434   2.015   0.845   0.393 -2.4219 -0.2135 -0.9536
  109SOL    HW2  435   2.092   0.728   0.441 -1.2037  0.2590 -1.5538
  109SOL     MW  436   2.030   0.762   0.393 -0.6351  0.0463 -0.1953
  110SOL     OW  437   0.397   1.892   0.775 -0.0531  0.2385 -0.6261
  110SOL    HW1  438   0.458   1.854   0.709 -1.5307  0.3589 -1.3379
  110SOL    HW2  439   0.392   1.986   0.752  1.4651 -1.9821 -0.7449
  110SOL     MW  440   0.404   1.899   0.763 -0.0477 -0.0386 -0.7357
  111SOL     OW  441   0.858   0.873   1.367  0.0220 -0.7861 -0.2044
  111SOL    HW1  442   0.845   0.887   1.267 -1.6231  1.6503 -1.2899
  111SOL    HW2  443   0.788   0.818   1.399 -1.3128  1.7016  3.8862
  111SOL     MW  444   0.847   0.868   1.358 -0.3712 -0.1364  0.1921
  112SOL     OW  445   1.332   1.159   1.655 -0.5526 -0.0657 -0.2799
  112SOL    HW1  446   1.250   1.203   1.648  0.3201  2.2090 -0.4403
  112SOL    HW2  447   1.322   1.062   1.665 -0.2677 -1.9020  0.1415
  112SOL     MW  448   1.320   1.152   1.655 -0.3999 -0.0079 -0.2454
  113SOL     OW  449   1.230   2.995   1.718  0.3000  0.0131 -0.6223
  113SOL    HW1  450   1.233   2.942   1.797  0.3638  0.1611  1.0030
  113SOL    HW2  451   1.197   2.939   1.645  1.3966 -3.3765  0.2159
  113SOL     MW  452   1.226   2.980   1.718  0.4531 -0.4146 -0.2973
  114SOL     OW  453   0.337   2.906   1.850  0.1527  0.0500  1.1223
  114SOL    HW1  454   0.420   2.953   1.835 -2.4411 -0.3398 -4.1642
  114SOL    HW2  455   0.312   2.914   1.944 -1.4721 -0.0957 -0.6281
  114SOL     MW  456   0.345   2.913   1.860 -0.4039 -0.0207  0.1938
  115SOL     OW  457   0.510   0.867   1.178 -0.9694 -0.2105  0.0599
  115SOL    HW1  458   0.504   0.782   1.134  1.7539 -0.6776  2.3567
  115SOL    HW2  459   0.447   0.870   1.255 -0.3156  1.0144 -0.3580
  115SOL     MW  460   0.501   0.856   1.182 -0.5238 -0.1105  0.3078
  116SOL     OW  461   0.708   1.115   0.986  0.0532 -0.4318 -0.3387
  116SOL    HW1  462   0.754   1.151   0.907  2.3302  0.5353  0.5278
  116SOL    HW2  463   0.724   1.174   1.057  2.0579 -0.7876 -0.6333
  116SOL     MW  464   0.716   1.127   0.985  0.6181 -0.3512 -0.2633
  117SOL     OW  465   1.077   1.258   0.795  0.4473 -0.2948  0.6208
  117SOL    HW1  466   1.100   1.216   0.878  0.9613  0.0836  3.6830
  117SOL    HW2  467   1.070   1.350   0.822  0.8298 -1.3058 -0.6318
  117SOL     MW  468   1.079   1.265   0.809  0.5655 -0.3783  0.8595
  118SOL     OW  469   3.099   2.951   1.841 -0.1709 -0.4590  0.6725
  118SOL    HW1  470   3.134   3.035   1.857  0.1390 -3.4495 -2.7014
  118SOL    HW2  471   3.007   2.964   1.821 -1.3403 -1.7007 -2.4432
  118SOL     MW  472   3.091   2.963   1.840 -0.2843 -1.0174 -0.1837
  119SOL     OW  473   0.375   1.509   1.306 -0.4572  0.3196 -0.3721
  119SOL    HW1  474   0.439   1.565   1.257  0.5175  1.1266 -1.1177
  119SOL    HW2  475   0.290   1.536   1.268 -1.0494  0.5927  1.0898
  119SOL     MW  476   0.372   1.520   1.294 -0.4067  0.4621 -0.2776
  120SOL     OW  477   0.296   0.879   0.957 -0.0471 -0.2052 -0.2331
  120SOL    HW1  478   0.313   0.866   1.051 -0.0531 -2.4230  0.6746
  120SOL    HW2  479   0.388   0.889   0.928 -0.0862  1.7941 -0.5820
  120SOL     MW  480   0.311   0.878   0.966 -0.0531 -0.2341 -0.1593
  121SOL     OW  481   1.767   1.128   1.615 -0.0876  0.5217  0.3179
  121SOL    HW1  482   1.699   1.162   1.557  1.9881  2.3152 -1.4353
  121SOL    HW2  483   1.841   1.087   1.561  0.0343  0.0761 -0.0478
  121SOL     MW  484   1.768   1.127   1.600  0.2023  0.6995  0.0383
  122SOL     OW  485   0.147   0.632   0.844  0.5977 -0.5551 -0.5315
  122SOL    HW1  486   0.235   0.590   0.817 -0.2534 -0.3086 -1.1225
  122SOL    HW2  487   0.165   0.714   0.890 -2.8931 -0.5207 -2.9469
  122SOL     MW  488   0.161   0.637   0.847  0.0248 -0.5181 -0.9282
  123SOL     OW  489   1.850   1.133   0.566 -0.4284 -0.1639  0.0687
  123SOL    HW1  490   1.787   1.063   0.548 -0.1522  1.0244  0.1439
  123SOL    HW2  491   1.924   1.086   0.610  0.6491  0.9330  1.2647
  123SOL     MW  492   1.851   1.118   0.569 -0.2498  0.1376  0.2364
  124SOL     OW  493   0.671   0.476   0.809  0.0217  0.3890 -0.0358
  124SOL    HW1  494   0.582   0.469   0.781  2.5248  0.4468 -0.1329
  124SOL    HW2  495   0.702   0.562   0.791  0.0017 -0.3649 -3.1680
  124SOL     MW  496   0.663   0.486   0.803  0.3493  0.2971 -0.4619
  125SOL     OW  497   0.643   1.776   1.716  0.1025  0.3875  0.2039
  125SOL    HW1  498   0.672   1.763   1.622  1.8166 -1.3052  2.3568
  125SOL    HW2  499   0.587   1.860   1.712 -1.2124  0.0961  0.4512
  125SOL     MW  500   0.640   1.786   1.703  0.1551  0.1257  0.5206
  126SOL     OW  501   2.121   1.539   1.863 -0.3470 -0.0986 -0.0639
  126SOL    HW1  502   2.160   1.619   1.896  0.5149  0.7484  1.0541
  126SOL    HW2  503   2.175   1.467   1.900 -0.4609  0.5017  1.0683
  126SOL     MW  504   2.133   1.540   1.872 -0.2483  0.0924  0.2330
  127SOL     OW  505   0.537   0.779   1.837  0.2203  0.3614  0.0809
  127SOL    HW1  506   0.622   0.747   1.826  0.7985 -0.8006 -0.8364
  127SOL    HW2  507   0.537   0.825   1.923  1.0536  1.9738  2.2347
  127SOL     MW  508   0.548   0.781   1.847  0.4065  0.4208  0.2441
  128SOL     OW  509   1.731   0.741   2.860  0.2866 -0.4284 -0.0095
  128SOL    HW1  510   1.795   0.725   2.789 -0.6116 -2.1529  0.3192
  128SOL    HW2  511   1.721   0.837   2.869  0.2052 -0.0555  0.2289
  128SOL     MW  512   1.738   0.751   2.852  0.1574 -0.6067  0.0653
  129SOL     OW  513   1.626   0.953   0.157  0.2523 -0.1581  0.2064
  129SOL    HW1  514   1.562   0.888   0.128  1.7841 -1.1537  0.4376
  129SOL    HW2  515   1.701   0.899   0.171  0.7331  2.8976 -2.2549
  129SOL     MW  516   1.627   0.938   0.155  0.5178  0.1137 -0.0879
  130SOL     OW  517   0.857   1.463   0.351  0.1660  0.0957  0.6182
  130SOL    HW1  518   0.850   1.452   0.448  3.9948 -3.0419  3.2922
  130SOL    HW2  519   0.949   1.477   0.337  1.2235  0.5172  2.1178
  130SOL     MW  520   0.869   1.463   0.362  0.8107 -0.2627  1.1689
  131SOL     OW  521   0.065   0.837   0.052 -0.0632  0.1149 -0.1549
  131SOL    HW1  522   0.008   0.828  -0.027  0.4395  2.6202  0.1846
  131SOL    HW2  523   0.131   0.762   0.050 -1.5101  0.7716 -1.0774
  131SOL     MW  524   0.066   0.826   0.041 -0.1878  0.5321 -0.2318
  132SOL     OW  525   2.711   0.062   1.241 -0.8762 -0.1431  0.1188
  132SOL    HW1  526   2.750   0.070   1.155  0.2151  1.8300  1.2720
  132SOL    HW2  527   2.632   0.011   1.230  0.8435 -0.1600  1.6054
  132SOL     MW  528   2.706   0.056   1.228 -0.5053  0.1150  0.4671
  133SOL     OW  529   1.086   0.121   1.726 -0.3523  0.4087 -0.5170
  133SOL    HW1  530   1.123   0.033   1.735  1.7000 -0.0286 -1.3867
  133SOL    HW2  531   1.123   0.167   1.803 -2.2839  2.9931 -2.6158
  133SOL     MW  532   1.095   0.115   1.737 -0.3364  0.6920 -0.9087
  134SOL     OW  533   1.407   2.466   1.470  0.2642  0.0860  0.2497
  134SOL    HW1  534   1.363   2.542   1.424 -1.5319  1.4676 -0.0157
  134SOL    HW2  535   1.427   2.514   1.560 -0.4328  0.7904  1.4359
  134SOL     MW  536   1.404   2.483   1.476 -0.0648  0.3612  0.3712
  135SOL     OW  537   2.979   1.008   2.929 -0.1872 -0.0491  0.2095
  135SOL    HW1  538   3.056   1.036   2.971  0.3429  1.9445 -0.2182
  135SOL    HW2  539   2.931   1.089   2.900 -0.6698  1.6041  0.9285
  135SOL     MW  540   2.983   1.022   2.931 -0.1809  0.4321  0.2479
  136SOL     OW  541   0.137   1.998   0.848 -0.1819 -0.0190 -0.1396
  136SOL    HW1  542   0.056   1.952   0.849  2.2561 -2.0218 -0.8633
  136SOL    HW2  543   0.203   1.940   0.807 -1.6752 -0.2870 -1.3085
  136SOL     MW  544   0.135   1.984   0.843 -0.0572 -0.3186 -0.3893
  137SOL     OW  545   0.741   2.089   0.622  0.0762  0.4675  0.1417
  137SOL    HW1  546   0.767   2.072   0.712 -2.0676  1.3752  0.1108
  137SOL    HW2  547   0.644   2.111   0.625  0.2923  0.0199 -1.1018
  137SOL     MW  548   0.732   2.089   0.635 -0.1781  0.5282 -0.0265
  138SOL     OW  549   0.526   0.635   1.059 -0.0156 -0.0106 -0.3176
  138SOL    HW1  550   0.453   0.577   1.038  1.6026  0.5307 -0.5567
  138SOL    HW2  551   0.589   0.610   0.986 -1.4165  1.1214  0.0402
  138SOL     MW  552   0.525   0.624   1.047  0.0130  0.2102 -0.3019
  139SOL     OW  553   2.845   0.480   1.317 -0.6121 -0.1124  0.0758
  139SOL    HW1  554   2.937   0.446   1.331 -1.9415 -0.0970 -0.1254
  139SOL    HW2  555   2.831   0.544   1.390 -0.7327  0.0189 -2.5989
  139SOL     MW  556   2.855   0.484   1.328 -0.8034 -0.0930 -0.3036
  140SOL     OW  557   0.900   0.482   1.950 -0.4504  0.7292  0.1663
  140SOL    HW1  558   0.972   0.421   1.941 -0.1351  0.2332 -0.4596
  140SOL    HW2  559   0.854   0.444   2.025  2.1580  1.1156 -1.4668
  140SOL     MW  560   0.903   0.469   1.958 -0.0646  0.7147 -0.1318
  141SOL     OW  561   1.136   0.684   1.717  0.1308 -0.1971 -0.1841
  141SOL    HW1  562   1.142   0.612   1.650  0.1864  0.9042  0.7709
  141SOL    HW2  563   1.173   0.657   1.797 -1.5880  0.0834 -2.7333
  141SOL     MW  564   1.142   0.671   1.718 -0.0886 -0.0148 -0.3945
  142SOL     OW  565   0.823   1.177   0.747 -0.6172  0.1595 -0.7210
  142SOL    HW1  566   0.858   1.117   0.684 -0.9184  1.1868 -1.3737
  142SOL    HW2  567   0.906   1.224   0.778  1.6186  1.5689 -0.9087
  142SOL     MW  568   0.839   1.175   0.742 -0.3619  0.4810 -0.8319
  143SOL     OW  569   1.822   0.773   1.033 -0.1568  0.9167 -0.0129
  143SOL    HW1  570   1.841   0.773   0.936  0.1226  1.3384 -1.5025
  143SOL    HW2  571   1.732   0.752   1.038 -0.1511  4.1200 -2.5290
  143SOL     MW  572   1.813   0.771   1.021 -0.1192  1.3950 -0.5414
  144SOL     OW  573   0.236   1.346   1.758  0.3114  0.1444  0.0911
  144SOL    HW1  574   0.303   1.411   1.758 -1.0789  0.2582 -3.4983
  144SOL    HW2  575   0.286   1.270   1.796 -2.0403 -0.9564  0.2373
  144SOL     MW  576   0.252   1.345   1.763 -0.1823  0.0142 -0.3632
  145SOL     OW  577   0.220   0.489   1.185 -0.1417 -0.0726  0.3104
  145SOL    HW1  578   0.263   0.409   1.212 -1.7036  1.1023 -1.9584
  145SOL    HW2  579   0.165   0.474   1.103  0.8295 -1.3409 -0.5694
  145SOL     MW  580   0.218   0.476   1.178 -0.2197 -0.0849 -0.1051
  146SOL     OW  581   0.808   1.998   1.546  0.1101 -0.8882  0.0948
  146SOL    HW1  582   0.844   1.987   1.456  0.2558 -0.9094  2.3123
  146SOL    HW2  583   0.739   1.935   1.555 -0.6155  0.4815 -0.7250
  146SOL     MW  584   0.804   1.988   1.535  0.0336 -0.7103  0.2792
  147SOL     OW  585   0.405   0.517   3.010 -0.8022  0.0127  0.4579
  147SOL    HW1  586   0.317   0.521   3.057 -1.9423 -2.4115  1.3834
  147SOL    HW2  587   0.379   0.563   2.924 -3.6385  1.7371  0.8256
  147SOL     MW  588   0.390   0.524   3.005 -1.3268 -0.0796  0.6285
  148SOL     OW  589   0.032   0.900   1.285  0.0678  0.3597 -0.6975
  148SOL    HW1  590   0.127   0.887   1.288  2.1291  0.4457  1.4102
  148SOL    HW2  591   0.020   0.996   1.302  1.3035  0.0207 -0.7323
  148SOL     MW  592   0.043   0.911   1.288  0.5028  0.3263 -0.4240
  149SOL     OW  593   1.507   1.208   1.464  0.3461 -0.4489 -0.1470
  149SOL    HW1  594   1.434   1.200   1.535 -2.2305 -1.4482  2.5717
  149SOL    HW2  595   1.521   1.302   1.448 -0.6916  0.6239 -1.1910
  149SOL     MW  596   1.499   1.219   1.471 -0.1308 -0.4392  0.0740
  150SOL     OW  597   1.707   1.439   0.890  0.4963 -0.3159 -0.1214
  150SOL    HW1  598   1.772   1.370   0.911 -0.6050 -2.1482  1.4197
  150SOL    HW2  599   1.749   1.526   0.865  1.0873  1.3568  2.2512
  150SOL     MW  600   1.721   1.442   0.889  0.4290 -0.3369  0.3949
  151SOL     OW  601   1.606   1.829   0.807  0.0141 -0.1829 -0.2577
  151SOL    HW1  602   1.595   1.877   0.723  1.1998 -0.5685 -0.2585
  151SOL    HW2  603   1.525   1.790   0.839  2.9463  1.9688  2.1152
  151SOL     MW  604   1.594   1.830   0.800  0.5574  0.0501  0.0553
  152SOL     OW  605   0.642   1.406   1.619 -0.0607 -0.8621  0.5048
  152SOL    HW1  606   0.688   1.424   1.541  0.0079  0.1526 -0.0513
  152SOL    HW2  607   0.591   1.331   1.594 -2.1884 -1.6186  4.0257
  152SOL     MW  608   0.642   1.399   1.606 -0.3324 -0.8280  0.8960
  153SOL     OW  609   2.623   1.233   0.731 -0.0549  0.1727 -0.5561
  153SOL    HW1  610   2.703   1.198   0.690  0.4781 -1.6732 -1.6136
  153SOL    HW2  611   2.568   1.162   0.718  1.8415  3.0900  1.5583
  153SOL     MW  612   2.626   1.219   0.724  0.2656  0.3141 -0.4166
  154SOL     OW  613   0.118   1.787   1.774  0.5410  0.5784  0.2105
  154SOL    HW1  614   0.057   1.703   1.765 -1.6047 -1.6229 -1.0960
  154SOL    HW2  615   0.214   1.762   1.776  0.6825 -1.5226 -0.2566
  154SOL     MW  616   0.123   1.772   1.773  0.2766  0.0108 -0.0235
  155SOL     OW  617   1.175   0.699   0.282  0.0032 -0.0722  0.0279
  155SOL    HW1  618   1.141   0.664   0.358  1.6540 -1.6806 -2.7440
  155SOL    HW2  619   1.163   0.796   0.296 -0.5004  2.3858  0.6875
  155SOL     MW  620   1.169   0.707   0.294  0.1546  0.0399 -0.2508
  156SOL     OW  621   1.556   3.092   1.109 -0.2777 -0.1941  0.2623
  156SOL    HW1  622   1.613   3.141   1.168  2.5726  3.6924  1.2961
  156SOL    HW2  623   1.583   2.999   1.123  0.2462  1.7235  0.3543
  156SOL     MW  624   1.567   3.086   1.118  0.1675  0.5717  0.4109
  157SOL     OW  625   1.276   1.118   0.162  0.6157 -0.3311 -0.1612
  157SOL    HW1  626   1.260   1.055   0.230 -3.9888  0.4780  1.5546
  157SOL    HW2  627   1.343   1.184   0.176  1.9555  0.5255 -1.1304
  157SOL     MW  628   1.283   1.118   0.173  0.1850 -0.1114 -0.0627
  158SOL     OW  629   0.318   1.626   2.356 -0.4266  0.0838  0.1559
  158SOL    HW1  630   0.269   1.620   2.275  0.2529 -1.3086  1.4595
  158SOL    HW2  631   0.302   1.704   2.407 -4.3491 -1.5577  1.7368
  158SOL     MW  632   0.309   1.636   2.352 -0.8545 -0.3165  0.5364
  159SOL     OW  633   1.233   1.718   0.478  0.3654  0.0440 -0.0461
  159SOL    HW1  634   1.184   1.653   0.424 -1.1735  0.5955  0.3021
  159SOL    HW2  635   1.165   1.754   0.539  0.4142  1.5761  3.0207
  159SOL     MW  636   1.217   1.714   0.479  0.1688  0.3189  0.4044
  160SOL     OW  637   0.475   1.165   1.569  0.2807  0.2383  0.1432
  160SOL    HW1  638   0.420   1.094   1.611 -1.1343  3.1306 -1.1245
  160SOL    HW2  639   0.555   1.118   1.541  4.2419  0.2984 -1.5137
  160SOL     MW  640   0.478   1.149   1.571  0.6166  0.6279 -0.2427
  161SOL     OW  641   0.485   2.279   2.660 -0.0144  0.0414  0.4576
  161SOL    HW1  642   0.391   2.309   2.640 -0.7851 -2.0541  0.8647
  161SOL    HW2  643   0.514   2.223   2.590  4.9198 -2.0396  1.2572
  161SOL     MW  644   0.476   2.276   2.648  0.5350 -0.5096  0.6168
  162SOL     OW  645   1.075   1.816   1.865 -0.1276 -0.3553  0.4025
  162SOL    HW1  646   1.096   1.903   1.903 -2.0535  1.6627 -1.3246
  162SOL    HW2  647   0.984   1.782   1.897 -2.3727  1.1119  0.4051
  162SOL     MW  648   1.066   1.823   1.874 -0.6779  0.1045  0.1750
  163SOL     OW  649   2.085   3.044   0.795 -0.8397  0.3537 -0.0522
  163SOL    HW1  650   2.047   3.130   0.767 -0.4896  1.1424  1.9222
  163SOL    HW2  651   2.004   2.988   0.801 -0.1151  1.7364  1.8436
  163SOL     MW  652   2.070   3.048   0.792 -0.6979  0.6402  0.4584
  164SOL     OW  653   0.224   0.212   0.780  0.5250  0.6172  0.2893
  164SOL    HW1  654   0.133   0.192   0.819  1.5958  1.6887  1.0703
  164SOL    HW2  655   0.239   0.134   0.727  1.2974 -0.7329  0.4638
  164SOL     MW  656   0.214   0.199   0.778  0.7682  0.5805  0.4154
  165SOL     OW  657   1.139   1.278   0.376 -0.8066 -0.4242 -1.4127
  165SOL    HW1  658   1.185   1.269   0.458  1.6646  1.1141 -0.1030
  165SOL    HW2  659   1.183   1.232   0.307 -2.4542  3.0779 -0.5709
  165SOL     MW  660   1.151   1.271   0.378 -0.6980  0.2409 -1.1288
  166SOL     OW  661   0.323   1.188   1.048  0.0748 -0.1411 -0.1039
  166SOL    HW1  662   0.358   1.195   1.139  0.2104 -1.9470  0.9434
  166SOL    HW2  663   0.361   1.103   1.024 -3.1299  0.7076  0.0652
  166SOL     MW  664   0.333   1.178   1.057 -0.3301 -0.2674  0.0566
  167SOL     OW  665   0.786   1.154   0.381 -0.0460  0.6280 -0.6353
  167SOL    HW1  666   0.822   1.238   0.381 -4.0747  1.2015  1.0379
  167SOL    HW2  667   0.801   1.120   0.292 -0.2660 -0.9012 -0.5766
  167SOL     MW  668   0.793   1.160   0.369 -0.6065  0.5019 -0.4068
  168SOL     OW  669   1.687   1.655   3.062  0.1425  0.4064  0.0870
  168SOL    HW1  670   1.631   1.732   3.046 -1.5371 -1.1256 -0.0285
  168SOL    HW2  671   1.668   1.593   2.990  2.7856 -1.3693 -0.0826
  168SOL     MW  672   1.677   1.657   3.050  0.2696 -0.0300  0.0494
  169SOL     OW  673   0.299   0.883   1.342  0.0567 -0.6907 -0.1625
  169SOL    HW1  674   0.324   0.805   1.403  1.2613  0.9433  2.3956
  169SOL    HW2  675   0.329   0.961   1.394 -1.0031 -2.3729  1.0439
  169SOL     MW  676   0.306   0.883   1.357  0.0758 -0.6971  0.3341
  170SOL     OW  677   1.079   1.556   1.455 -0.6294  0.1804  0.2135
  170SOL    HW1  678   1.045   1.635   1.495 -0.7697 -0.9236 -1.7426
  170SOL    HW2  679   1.056   1.582   1.363  1.2668  1.9703  2.4338
  170SOL     MW  680   1.072   1.570   1.448 -0.3977  0.2709  0.2484
  171SOL     OW  681   0.481   1.527   0.502 -0.4262  0.4491  0.4952
  171SOL    HW1  682   0.392   1.546   0.462 -0.4432 -0.2464 -4.6436
  171SOL    HW2  683   0.472   1.429   0.498  1.6236  1.9054  4.1019
  171SOL     MW  684   0.468   1.517   0.496 -0.1580  0.5495  0.2931
  172SOL     OW  685   0.789   0.277   1.310  0.1255 -0.3333 -0.2774
  172SOL    HW1  686   0.761   0.227   1.229  1.8378  0.7194 -1.4394
  172SOL    HW2  687   0.832   0.225   1.376  1.8005  1.8152  2.6135
  172SOL     MW  688   0.791   0.263   1.308  0.5724  0.0890 -0.0493
  173SOL     OW  689   0.485   1.744   0.275 -0.3148  0.2614 -0.4946
  173SOL    HW1  690   0.540   1.667   0.265 -0.3638  2.7397  2.0291
  173SOL    HW2  691   0.481   1.757   0.372 -2.5969  0.4434 -0.4335
  173SOL     MW  692   0.492   1.735   0.287 -0.6223  0.6124 -0.1536
  174SOL     OW  693   1.929   0.937   1.477 -0.0944  0.5044 -0.4376
  174SOL    HW1  694   1.871   0.863   1.500 -2.1775 -1.2831  0.7082
  174SOL    HW2  695   1.883   0.958   1.390 -0.5791  1.1587 -1.6466
  174SOL     MW  696   1.915   0.930   1.469 -0.4332  0.3549 -0.4460
  175SOL     OW  697   0.604   1.504   0.255 -0.1135  0.2985 -0.2804
  175SOL    HW1  698   0.557   1.480   0.339 -1.4875  0.2074 -0.9763
  175SOL    HW2  699   0.694   1.491   0.293 -1.6479 -1.8974 -0.6278
  175SOL     MW  700   0.610   1.499   0.271 -0.4973 -0.0032 -0.4181
  176SOL     OW  701   0.122   1.514   1.189  0.7356  0.0084 -0.2650
  176SOL    HW1  702   0.096   1.465   1.108  0.8773  0.0710  1.3367
  176SOL    HW2  703   0.046   1.516   1.252  0.2138 -0.1590  0.6317
  176SOL     MW  704   0.109   1.508   1.186  0.6854 -0.0054  0.0647
  177SOL     OW  705   0.559   0.276   1.451  0.0937 -0.3831  0.3420
  177SOL    HW1  706   0.638   0.292   1.397 -2.2601 -0.2545 -1.8799
  177SOL    HW2  707   0.528   0.358   1.489  0.5306 -0.9442  1.8639
  177SOL     MW  708   0.565   0.289   1.449 -0.1592 -0.4402  0.2497
  178SOL     OW  709   3.092   0.653   2.906  0.1143  0.3780 -0.3073
  178SOL    HW1  710   3.046   0.617   2.824  1.2195  0.8813 -1.4967
  178SOL    HW2  711   3.177   0.703   2.875  2.0173  3.8492  2.0470
  178SOL     MW  712   3.097   0.655   2.891  0.5112  0.9024 -0.1536
  179SOL     OW  713   1.596   1.470   1.390 -0.1716 -0.2440  0.4398
  179SOL    HW1  714   1.624   1.483   1.480  0.8932  2.4649 -1.3329
  179SOL    HW2  715   1.672   1.477   1.331  0.5770  0.1369  1.8307
  179SOL     MW  716   1.609   1.473   1.394  0.0677  0.1637  0.3895
  180SOL     OW  717   0.034   0.226   0.425 -0.5359 -0.0917 -0.4707
  180SOL    HW1  718  -0.051   0.255   0.396 -0.8402 -1.2258  0.5507
  180SOL    HW2  719   0.084   0.301   0.464  0.5110 -1.6854 -1.4844
  180SOL     MW  720   0.029   0.239   0.426 -0.4379 -0.4516 -0.4697
  181SOL     OW  721   1.052   1.320   0.024 -0.4640  0.2579 -0.3249
  181SOL    HW1  722   1.099   1.406   0.034 -0.7100 -0.0665 -1.8853
  181SOL    HW2  723   1.098   1.259  -0.041  3.5171 -1.4472  0.4592
  181SOL     MW  724   1.064   1.324   0.017  0.0288 -0.0099 -0.4273
  182SOL     OW  725   0.360   0.942   1.672  0.2782  0.1979  1.0758
  182SOL    HW1  726   0.269   0.912   1.685 -1.6288  3.5675  1.7800
  182SOL    HW2  727   0.426   0.891   1.727  0.5146  0.9471  0.6140
  182SOL     MW  728   0.357   0.931   1.681  0.0578  0.7413  1.1078
  183SOL     OW  729   1.520   1.737   1.246 -0.4658 -0.0223 -0.0915
  183SOL    HW1  730   1.607   1.773   1.235 -0.4184  0.8778  0.5117
  183SOL    HW2  731   1.529   1.675   1.311  1.2052  1.3106 -3.7301
  183SOL     MW  732   1.533   1.734   1.253 -0.2391  0.2723 -0.4920
  184SOL     OW  733   0.856   0.638   1.695  0.5491 -0.0335  0.3553
  184SOL    HW1  734   0.931   0.693   1.687 -1.7201 -0.9897  1.5528
  184SOL    HW2  735   0.880   0.589   1.772 -0.3180  2.1891  0.9793
  184SOL     MW  736   0.869   0.639   1.704  0.1353  0.1336  0.5956
  185SOL     OW  737   1.082   0.952   1.852  0.1167 -0.0358 -0.5691
  185SOL    HW1  738   1.052   0.867   1.877  1.1728  1.2670 -1.5839
  185SOL    HW2  739   1.134   0.975   1.931  2.3829 -3.0819  2.6575
  185SOL     MW  740   1.085   0.944   1.866  0.5551 -0.2659 -0.2773
  186SOL     OW  741   0.302   1.644   1.514 -0.1187 -0.0257 -0.0470
  186SOL    HW1  742   0.330   1.598   1.436 -3.0681 -0.4938  0.4031
  186SOL    HW2  743   0.216   1.610   1.536 -0.3229  0.5789  0.6327
  186SOL     MW  744   0.294   1.634   1.507 -0.5348 -0.0077  0.1021
  187SOL     OW  745   1.404   0.858   1.360  0.3324  0.3265 -0.2831
  187SOL    HW1  746   1.442   0.874   1.443 -0.1171 -0.0026  0.8539
  187SOL    HW2  747   1.309   0.864   1.360  1.5117 -1.2264 -1.1153
  187SOL     MW  748   1.397   0.861   1.371  0.4287  0.0782 -0.2429
  188SOL     OW  749   1.871   1.217   0.915 -0.1300 -0.1420  0.2553
  188SOL    HW1  750   1.901   1.226   1.007 -2.6964  0.8253  0.4970
  188SOL    HW2  751   1.862   1.125   0.899 -0.0008 -1.0801 -1.1120
  188SOL     MW  752   1.874   1.206   0.925 -0.4516 -0.1381  0.1068
  189SOL     OW  753   0.732   0.753   0.850  0.2727  0.4685  0.0346
  189SOL    HW1  754   0.655   0.808   0.853  0.6539  1.1073  1.6123
  189SOL    HW2  755   0.790   0.782   0.919 -0.5760  0.0673 -3.0111
  189SOL     MW  756   0.729   0.764   0.859  0.2110  0.4999 -0.1591
  190SOL     OW  757   1.867   0.306   2.042 -0.5708  0.1773  0.4035
  190SOL    HW1  758   1.856   0.287   2.133 -1.5305  2.8346 -0.0510
  190SOL    HW2  759   1.924   0.388   2.049 -0.7023  1.3701  1.2270
  190SOL     MW  760   1.873   0.314   2.055 -0.7147  0.6852  0.4522
  191SOL     OW  761   1.499   1.070   1.205  0.1690  0.4828 -0.5690
  191SOL    HW1  762   1.492   1.131   1.284 -0.9238  0.3500  3.3293
  191SOL    HW2  763   1.460   0.992   1.243 -2.1420 -0.5499 -0.6372
  191SOL     MW  764   1.493   1.068   1.221 -0.2801  0.3290 -0.0637
  192SOL     OW  765   0.536   2.206   2.935  0.2503  0.1584 -0.4309
  192SOL    HW1  766   0.524   2.262   2.858  1.9095 -1.8571 -0.8768
  192SOL    HW2  767   0.503   2.118   2.912 -0.6284  1.8062  1.9175
  192SOL     MW  768   0.530   2.201   2.921  0.3533  0.1099 -0.1798
  193SOL     OW  769   0.820   1.670   0.779  0.1136 -0.0799  0.3160
  193SOL    HW1  770   0.763   1.724   0.819 -0.3983 -0.6861 -2.9396
  193SOL    HW2  771   0.771   1.604   0.723  0.9334 -1.8052 -2.9334
  193SOL     MW  772   0.806   1.669   0.777  0.1542 -0.3875 -0.5423
  194SOL     OW  773   0.409   1.355   0.837 -0.0009  0.1531 -0.1326
  194SOL    HW1  774   0.368   1.304   0.907  1.7799  2.7422 -3.3066
  194SOL    HW2  775   0.338   1.389   0.784  0.4718 -0.0330  1.1572
  194SOL     MW  776   0.394   1.352   0.839  0.2964  0.4702 -0.3812
  195SOL     OW  777   1.213   1.127   2.989 -0.7728  0.3311  0.8545
  195SOL    HW1  778   1.251   1.115   3.079  0.9769 -1.7893  2.2864
  195SOL    HW2  779   1.164   1.046   2.963  2.1436  0.0135 -0.8438
  195SOL     MW  780   1.211   1.115   2.998 -0.1572  0.0095  0.8194
  196SOL     OW  781   2.257   0.967   0.519  0.0427 -0.0478  0.1342
  196SOL    HW1  782   2.307   0.964   0.432  1.2104 -1.1544  0.4583
  196SOL    HW2  783   2.225   1.055   0.514  0.8173 -0.0511  4.4809
  196SOL     MW  784   2.259   0.978   0.507  0.2990 -0.1943  0.7504
  197SOL     OW  785   0.632   1.268   2.202  0.4938 -0.7216  0.5055
  197SOL    HW1  786   0.645   1.188   2.151  1.8650  0.3997  1.7285
  197SOL    HW2  787   0.663   1.339   2.145 -0.1581 -2.7703  1.1754
  197SOL     MW  788   0.638   1.267   2.187  0.5887 -0.8439  0.7553
  198SOL     OW  789   2.913   1.375   1.053 -0.1401  0.5466  0.2038
  198SOL    HW1  790   2.895   1.463   1.018  0.9890  1.1490  0.3629
  198SOL    HW2  791   2.829   1.325   1.033 -3.4323 -1.9339  0.1368
  198SOL     MW  792   2.899   1.380   1.046 -0.4255  0.2988  0.2159
  199SOL     OW  793   0.650   1.204   1.813  0.0910  0.0319 -0.5045
  199SOL    HW1  794   0.561   1.200   1.857  0.7883  0.4324 -4.3214
  199SOL    HW2  795   0.654   1.279   1.757  2.0842 -3.6628  2.2839
  199SOL     MW  796   0.639   1.213   1.812  0.4460 -0.4027 -0.6402
  200SOL     OW  797   1.876   2.956   1.301  0.4836  0.0469  0.1692
  200SOL    HW1  798   1.940   2.941   1.224  0.0897 -1.3948 -2.1309
  200SOL    HW2  799   1.838   3.046   1.300 -0.5321  0.2672 -0.7143
  200SOL     MW  800   1.879   2.966   1.291  0.2976 -0.1143 -0.2509
  201SOL     OW  801   1.208   0.321   0.865  0.1195  0.2817 -0.0820
  201SOL    HW1  802   1.154   0.251   0.831  0.7795  1.9558  1.0753
  201SOL    HW2  803   1.302   0.300   0.859 -0.2174  3.0468 -0.3623
  201SOL     MW  804   1.213   0.309   0.860  0.1621  0.8674  0.0337
  202SOL     OW  805   1.406   1.666   1.008 -0.9953 -0.2389 -0.4006
  202SOL    HW1  806   1.423   1.586   0.964  1.4657  0.6035 -0.3680
  202SOL    HW2  807   1.452   1.663   1.098  2.0226  0.6183  1.0436
  202SOL     MW  808   1.414   1.655   1.014 -0.2724 -0.0147 -0.2058
  203SOL     OW  809   0.007   0.420   1.338 -0.0307  0.7432 -0.1835
  203SOL    HW1  810   0.004   0.330   1.307  1.3721  2.0354 -1.9615
  203SOL    HW2  811   0.062   0.462   1.272 -2.0257 -1.6740 -2.5612
  203SOL     MW  812   0.014   0.414   1.325 -0.1088  0.5948 -0.7318
  204SOL     OW  813   1.028   1.816   0.646  0.3158 -0.3482 -0.3698
  204SOL    HW1  814   0.966   1.784   0.710 -0.6913 -0.0056 -1.6963
  204SOL    HW2  815   0.968   1.830   0.571 -0.0760 -1.2604  0.0462
  204SOL     MW  816   1.012   1.814   0.644  0.1312 -0.4234 -0.4900
  205SOL     OW  817   1.387   2.995   1.375  0.0043  0.1718  0.1364
  205SOL    HW1  818   1.392   2.970   1.283 -3.5530 -1.1236  1.8077
  205SOL    HW2  819   1.316   3.058   1.385  0.4854 -0.1578 -0.3039
  205SOL     MW  820   1.378   3.000   1.364 -0.4015 -0.0426  0.2988
  206SOL     OW  821   0.342   2.869   1.381 -0.2589  0.1698 -0.0526
  206SOL    HW1  822   0.332   2.904   1.292 -2.0430 -0.5299 -0.7887
  206SOL    HW2  823   0.432   2.844   1.397 -1.7021  0.1047  0.6074
  206SOL     MW  824   0.352   2.870   1.371 -0.6847  0.0689 -0.0626
  207SOL     OW  825   0.857   1.718   0.213 -0.3322 -0.0261 -0.2639
  207SOL    HW1  826   0.939   1.730   0.164 -0.0121 -1.5404  0.8243
  207SOL    HW2  827   0.863   1.632   0.259  1.0100  0.4814  0.5720
  207SOL     MW  828   0.868   1.708   0.213 -0.1129 -0.1589 -0.0100
  208SOL     OW  829   0.769   1.501   1.372 -0.3670  0.1239 -0.1827
  208SOL    HW1  830   0.828   1.555   1.323 -0.0330  3.6903 -0.9413
  208SOL    HW2  831   0.773   1.413   1.320  0.5840  3.8035 -0.6713
  208SOL     MW  832   0.777   1.496   1.358 -0.1974  1.0799 -0.3472
  209SOL     OW  833   1.618   0.505   2.816 -0.3123 -0.1591 -0.0831
  209SOL    HW1  834   1.673   0.586   2.814 -2.7895 -0.4710  2.2104
  209SOL    HW2  835   1.675   0.434   2.846  0.5925 -1.5830 -2.4596
  209SOL     MW  836   1.633   0.506   2.820 -0.5197 -0.3881 -0.0941
  210SOL     OW  837   1.452   1.408   0.937  0.0469  0.3190 -0.7927
  210SOL    HW1  838   1.550   1.417   0.912 -0.6241  0.4972  0.4844
  210SOL    HW2  839   1.397   1.422   0.855  0.2600  0.1264 -1.4912
  210SOL     MW  840   1.458   1.411   0.923 -0.0135  0.3171 -0.7164
  211SOL     OW  841   1.748   0.392   0.857 -0.1904 -1.4137 -0.1534
  211SOL    HW1  842   1.760   0.390   0.763 -1.0991 -1.7496 -0.6415
  211SOL    HW2  843   1.837   0.384   0.884  3.8811 -0.5003 -0.7710
  211SOL     MW  844   1.761   0.390   0.849  0.2269 -1.3375 -0.2993
  212SOL     OW  845   0.405   1.215   0.235 -0.2617 -0.5368 -0.0942
  212SOL    HW1  846   0.354   1.134   0.251 -2.4280  0.3590  1.6593
  212SOL    HW2  847   0.479   1.188   0.168  3.2605 -0.6395 -5.2067
  212SOL     MW  848   0.408   1.201   0.228 -0.0828 -0.4321 -0.5374
  213SOL     OW  849   0.425   1.810   3.078 -0.1174  0.1603 -0.0027
  213SOL    HW1  850   0.458   1.838   3.165  0.3330 -1.6011  1.6038
  213SOL    HW2  851   0.468   1.862   3.006 -0.2390 -0.8762  0.4008
  213SOL     MW  852   0.435   1.821   3.080 -0.0740 -0.2088  0.2625
  214SOL     OW  853   0.577   0.350   2.118  0.4597 -0.3786 -0.1362
  214SOL    HW1  854   0.501   0.401   2.124  1.2898 -1.9215  0.6221
  214SOL    HW2  855   0.604   0.330   2.023 -2.6765  0.5633  0.5823
  214SOL     MW  856   0.571   0.354   2.106  0.1554 -0.4579  0.0586
  215SOL     OW  857   0.565   0.582   2.506  0.7289  0.1986  0.2526
  215SOL    HW1  858   0.487   0.604   2.460  1.2791  0.5506 -0.4458
  215SOL    HW2  859   0.612   0.508   2.472 -1.1081  1.8118 -0.5585
  215SOL     MW  860   0.561   0.575   2.496  0.5591  0.4579  0.0534
  216SOL     OW  861   2.928   3.077   2.839  0.2984 -0.4266 -0.5558
  216SOL    HW1  862   2.831   3.076   2.829  2.2524  0.9067 -3.1869
  216SOL    HW2  863   2.955   3.151   2.789  3.2042  1.0861  0.2319
  216SOL     MW  864   2.919   3.087   2.831  0.9396 -0.0511 -0.7990
  217SOL     OW  865   0.921   1.103   0.140 -0.4667 -0.0886 -0.1533
  217SOL    HW1  866   0.951   1.056   0.062 -2.2093  0.8841  0.9561
  217SOL    HW2  867   0.970   1.189   0.142 -0.2061  2.3073  1.3571
  217SOL     MW  868   0.931   1.108   0.130 -0.6622  0.3558  0.1923
  218SOL     OW  869   0.824   1.403   2.617  0.0770 -0.1070  0.0252
  218SOL    HW1  870   0.800   1.319   2.661  0.8629  0.1727 -0.1517
  218SOL    HW2  871   0.914   1.430   2.657  2.5818  0.7297 -1.9784
  218SOL     MW  872   0.833   1.396   2.628  0.5112  0.0403 -0.2625
  219SOL     OW  873   1.079   0.445   2.527  0.0300 -0.4412 -0.5487
  219SOL    HW1  874   1.131   0.443   2.447 -0.2744  1.4582 -4.7063
  219SOL    HW2  875   1.024   0.521   2.516  0.8597 -1.0090 -0.3833
  219SOL     MW  876   1.079   0.455   2.515  0.0993 -0.2655 -1.0754
  220SOL     OW  877   1.668   0.503   2.196 -0.3603 -0.1324 -0.5806
  220SOL    HW1  878   1.609   0.578   2.178 -0.9299 -1.6511 -0.2639
  220SOL    HW2  879   1.674   0.451   2.117 -1.1219  1.0625  0.2592
  220SOL     MW  880   1.661   0.506   2.183 -0.5360 -0.1752 -0.4280
  221SOL     OW  881   0.338   1.362   2.932 -0.1620 -0.0100  0.0638
  221SOL    HW1  882   0.379   1.279   2.898  2.3271  0.8585  3.3730
  221SOL    HW2  883   0.394   1.432   2.911 -1.9338  0.5425 -0.6401
  221SOL     MW  884   0.351   1.360   2.925 -0.0674  0.1775  0.4075
  222SOL     OW  885   0.509   0.916   2.729 -0.3807  0.3096 -0.1378
  222SOL    HW1  886   0.436   0.916   2.667 -0.2997 -2.6318 -0.9044
  222SOL    HW2  887   0.556   0.833   2.730  0.9705  2.2274  0.3841
  222SOL     MW  888   0.505   0.905   2.721 -0.1917  0.1746 -0.1701
  223SOL     OW  889   3.049   2.063   2.545 -0.5880  0.0390  0.6249
  223SOL    HW1  890   3.052   2.021   2.632  2.5956  0.5054  2.7760
  223SOL    HW2  891   3.100   2.140   2.536 -0.0545  0.5692 -1.7132
  223SOL     MW  892   3.056   2.067   2.556 -0.0976  0.1705  0.6002
  224SOL     OW  893   1.440   0.586   2.409 -0.2732 -0.9668  0.1796
  224SOL    HW1  894   1.499   0.555   2.471 -1.2658  0.1457 -0.6727
  224SOL    HW2  895   1.427   0.681   2.423 -0.4158 -0.1030 -2.5986
  224SOL     MW  896   1.446   0.595   2.419 -0.4230 -0.7061 -0.2994
  225SOL     OW  897   2.909   1.509   2.190 -0.0387  0.1324 -0.2855
  225SOL    HW1  898   2.955   1.590   2.170  0.2911 -2.4581  0.3734
  225SOL    HW2  899   2.844   1.535   2.253 -0.1360 -0.9875  1.8871
  225SOL     MW  900   2.906   1.523   2.196 -0.0080 -0.3572  0.0881
  226SOL     OW  901   0.449   1.570   2.723 -0.1637 -0.4424  0.7918
  226SOL    HW1  902   0.518   1.608   2.667 -1.4910  1.4489 -0.2190
  226SOL    HW2  903   0.392   1.646   2.727  1.0238  0.0911  0.6239
  226SOL     MW  904   0.450   1.585   2.716 -0.1821 -0.1225  0.6363
  227SOL     OW  905   0.500   1.134   2.873 -0.2566 -0.2211 -0.3949
  227SOL    HW1  906   0.564   1.187   2.830  0.4859  1.3558 -0.5580
  227SOL    HW2  907   0.515   1.044   2.830 -0.0218 -1.9016 -2.9815
  227SOL     MW  908   0.510   1.129   2.862 -0.1277 -0.2348 -0.7577
  228SOL     OW  909   0.801   1.108   2.033  0.0492  0.1682  0.2649
  228SOL    HW1  910   0.757   1.130   1.955  4.1022 -0.9664  1.0386
  228SOL    HW2  911   0.883   1.157   2.032 -1.1892  0.9491  0.9126
  228SOL     MW  912   0.806   1.118   2.023  0.4206  0.1216  0.4525
  229SOL     OW  913   0.170   0.586   0.029  0.0581 -0.0816  0.0007
  229SOL    HW1  914   0.126   0.570  -0.059 -0.1621 -1.5703 -0.2643
  229SOL    HW2  915   0.173   0.506   0.081 -1.4499  0.5649 -1.1271
  229SOL     MW  916   0.165   0.573   0.024 -0.1699 -0.1927 -0.1830
  230SOL     OW  917   1.756   1.384   2.172 -0.2589  0.6714  0.5284
  230SOL    HW1  918   1.726   1.362   2.256 -1.9097  0.1751 -1.5909
  230SOL    HW2  919   1.786   1.293   2.152 -1.2964  0.6308 -0.2892
  230SOL     MW  920   1.756   1.369   2.181 -0.6136  0.6006  0.1409
  231SOL     OW  921   2.712   1.235   2.208  0.2222 -0.5928 -0.7516
  231SOL    HW1  922   2.744   1.326   2.213  2.5502 -1.2641  2.8796
  231SOL    HW2  923   2.637   1.245   2.141 -2.0777 -0.8710  1.2113
  231SOL     MW  924   2.706   1.249   2.199  0.2259 -0.7181 -0.0135
  232SOL     OW  925   2.264   0.888   2.007  0.2027 -0.0671  0.5799
  232SOL    HW1  926   2.177   0.916   1.984 -0.1755 -0.7124 -3.0106
  232SOL    HW2  927   2.251   0.824   2.082  2.1523 -1.9587 -1.7643
  232SOL     MW  928   2.250   0.883   2.014  0.4100 -0.4018 -0.2032
  233SOL     OW  929   2.103   0.453   2.047  0.5205 -0.1055 -0.3945
  233SOL    HW1  930   2.148   0.379   2.024 -2.3979  4.0175 -1.0026
  233SOL    HW2  931   2.117   0.469   2.138 -1.1806  0.3118  0.2343
  233SOL     MW  932   2.111   0.445   2.056 -0.0890  0.4935 -0.3918
  234SOL     OW  933   0.266   1.054   2.624 -0.0865 -0.1493  0.1159
  234SOL    HW1  934   0.206   1.071   2.550  1.4319 -1.9659 -0.6367
  234SOL    HW2  935   0.302   1.137   2.639  2.0894 -1.4773  0.9438
  234SOL     MW  936   0.263   1.067   2.616  0.4009 -0.5642  0.1258
  235SOL     OW  937   1.099   0.029   2.813 -0.2419 -0.0761 -0.1028
  235SOL    HW1  938   1.133   0.021   2.899  2.9630  1.2949 -1.1017
  235SOL    HW2  939   1.081   0.122   2.790  0.5771  0.1178 -0.8071
  235SOL     MW  940   1.101   0.040   2.821  0.2890  0.1304 -0.3275
  236SOL     OW  941   2.952   0.629   0.153 -0.0081 -0.0609 -0.2625
  236SOL    HW1  942   2.972   0.651   0.240  0.1344 -1.1692  0.1834
  236SOL    HW2  943   3.023   0.674   0.103  0.5766  2.1505 -0.9125
  236SOL     MW  944   2.964   0.638   0.158  0.0878  0.0846 -0.2894
  237SOL     OW  945   1.921   1.123   2.132  0.4199  0.0296  0.2643
  237SOL    HW1  946   1.857   1.043   2.127 -1.1549  1.1363  2.0496
  237SOL    HW2  947   1.981   1.114   2.054  3.5445 -1.6341  0.2002
  237SOL     MW  948   1.920   1.112   2.121  0.6243 -0.0439  0.4914
  238SOL     OW  949   1.101   1.701   2.900  0.2649 -0.3060  0.1495
  238SOL    HW1  950   1.067   1.612   2.879 -2.8134 -1.8427  1.7984
  238SOL    HW2  951   1.188   1.689   2.942  0.3981  0.5786 -3.1595
  238SOL     MW  952   1.108   1.688   2.903 -0.1237 -0.3921 -0.0695
  239SOL     OW  953   1.174   1.273   2.380  0.3186  0.3415  0.3739
  239SOL    HW1  954   1.149   1.366   2.374 -3.1635 -1.1841  1.0142
  239SOL    HW2  955   1.183   1.260   2.474  1.2819 -1.4637 -0.3830
  239SOL     MW  956   1.172   1.283   2.391 -0.0137 -0.0979  0.3585
  240SOL     OW  957   0.591   0.841   2.306  0.5717  0.2518  0.1866
  240SOL    HW1  958   0.636   0.877   2.383 -1.8172 -1.9754  1.8713
  240SOL    HW2  959   0.646   0.831   2.232 -0.2255 -0.1638 -0.0677
  240SOL     MW  960   0.604   0.845   2.307  0.1513 -0.0969  0.3753
  241SOL     OW  961   0.672   0.459   3.087 -0.0793  0.0677  0.4974
  241SOL    HW1  962   0.704   0.521   3.158  2.5991  0.1839  0.1917
  241SOL    HW2  963   0.582   0.488   3.070  1.8483  0.3270 -2.1189
  241SOL     MW  964   0.664   0.471   3.094  0.5284  0.1172  0.1119
  242SOL     OW  965   1.513   1.612   2.289 -0.5349 -0.0229  0.0178
  242SOL    HW1  966   1.479   1.694   2.328 -1.1363 -1.3543  1.2226
  242SOL    HW2  967   1.441   1.569   2.244 -1.2692 -1.3972 -0.6773
  242SOL     MW  968   1.499   1.617   2.288 -0.7111 -0.3799  0.0850
  243SOL     OW  969   0.962   0.196   2.445 -0.0155 -0.3686  0.6201
  243SOL    HW1  970   1.035   0.140   2.421  0.2200 -0.3000  0.8710
  243SOL    HW2  971   1.003   0.276   2.479  0.1195 -4.2121  0.2233
  243SOL     MW  972   0.977   0.199   2.447  0.0334 -0.8667  0.6008
  244SOL     OW  973   0.105   0.791   2.381 -0.4840 -0.7964 -0.2414
  244SOL    HW1  974   0.080   0.884   2.396 -2.1073  0.4889  0.2527
  244SOL    HW2  975   0.200   0.794   2.372  3.5549 -0.6095 -1.5237
  244SOL     MW  976   0.114   0.803   2.382 -0.1653 -0.6022 -0.3454
  245SOL     OW  977   1.238   0.099   2.399 -0.8087 -0.0422  0.0659
  245SOL    HW1  978   1.313   0.080   2.348 -2.2135  1.9622  0.3760
  245SOL    HW2  979   1.246   0.046   2.474 -1.0197  2.1049 -1.3567
  245SOL     MW  980   1.249   0.090   2.402 -1.0219  0.5056 -0.0808
  246SOL     OW  981   1.167   1.072   2.086 -0.4685 -0.0009 -0.0309
  246SOL    HW1  982   1.120   1.061   2.167 -0.7834  1.3924  0.6798
  246SOL    HW2  983   1.258   1.043   2.106  0.1004  0.8526  1.0880
  246SOL     MW  984   1.173   1.066   2.099 -0.4350  0.2955  0.2105
  247SOL     OW  985   0.778   0.650   0.161 -0.4284 -0.0065 -0.4825
  247SOL    HW1  986   0.765   0.747   0.165  0.1293  0.8572 -1.5716
  247SOL    HW2  987   0.863   0.638   0.128 -0.2139 -2.4287 -1.3185
  247SOL     MW  988   0.787   0.661   0.157 -0.3265 -0.2121 -0.7365
  248SOL     OW  989   0.355   1.311   2.622  0.2573 -0.2054 -0.4541
  248SOL    HW1  990   0.359   1.333   2.529 -1.2712 -0.5591 -1.3236
  248SOL    HW2  991   0.381   1.391   2.664 -0.1355 -1.5523  0.1723
  248SOL     MW  992   0.359   1.325   2.615  0.0038 -0.4298 -0.4862
  249SOL     OW  993   3.025   1.878   2.798  0.1115 -0.9587 -0.1734
  249SOL    HW1  994   2.984   1.795   2.782 -2.3687  2.0083 -0.5760
  249SOL    HW2  995   3.095   1.852   2.860  1.2579 -0.5487 -0.0253
  249SOL     MW  996   3.029   1.864   2.804 -0.0645 -0.5131 -0.2070
  250SOL     OW  997   2.276   0.695   2.211  0.6404  0.0505  0.4232
  250SOL    HW1  998   2.220   0.636   2.258 -0.1064  2.2823  3.9803
  250SOL    HW2  999   2.345   0.718   2.275 -3.4793 -1.1036 -0.4087
  250SOL     MW 1000   2.278   0.690   2.226 -0.0017  0.1927  0.7828
  251SOL     OW 1001   0.152   0.884   1.982 -0.4392  0.3744 -0.4237
  251SOL    HW1 1002   0.099   0.803   2.014 -0.3891 -2.0386 -1.5604
  251SOL    HW2 1003   0.121   0.886   1.890  0.2220 -1.5060 -1.7930
  251SOL     MW 1004   0.141   0.873   1.974 -0.3454 -0.1921 -0.7544
  252SOL     OW 1005   1.721   1.026   2.897  0.3113 -0.1054  0.5326
  252SOL    HW1 1006   1.696   1.076   2.973 -1.3080  0.5821  0.6184
  252SOL    HW2 1007   1.810   1.054   2.862  2.5400  1.3372 -3.4567
  252SOL     MW 1008   1.730   1.036   2.902  0.3917  0.1757  0.0176
  253SOL     OW 1009   1.142   1.670   2.555 -0.0738  0.2903  0.5528
  253SOL    HW1 1010   1.114   1.617   2.480 -1.6394 -0.4437 -2.3165
  253SOL    HW2 1011   1.087   1.744   2.562  0.3612 -0.9241  0.8312
  253SOL     MW 1012   1.131   1.673   2.546 -0.2229  0.0332  0.2110
  254SOL     OW 1013   0.972   1.031   2.284 -0.1028 -0.6354 -0.1404
  254SOL    HW1 1014   0.889   0.987   2.252 -0.3169 -0.0858 -0.7309
  254SOL    HW2 1015   0.948   1.117   2.315  0.9859 -2.0825  1.4080
  254SOL     MW 1016   0.958   1.037   2.284  0.0126 -0.7538 -0.0140
  255SOL     OW 1017   0.867   2.444   2.165 -0.1742 -0.2082 -0.0020
  255SOL    HW1 1018   0.780   2.395   2.157 -1.3334 -3.9072  0.4925
  255SOL    HW2 1019   0.929   2.372   2.203 -0.3790 -1.4181 -1.3310
  255SOL     MW 1020   0.864   2.428   2.169 -0.3542 -0.8559 -0.1121
  256SOL     OW 1021   1.315   2.830   3.068 -0.0840 -0.5975 -0.0766
  256SOL    HW1 1022   1.341   2.755   3.121  0.0022  1.1961  2.5165
  256SOL    HW2 1023   1.366   2.831   2.983 -0.1571  2.0168  0.2697
  256SOL     MW 1024   1.325   2.820   3.064 -0.0823 -0.0159  0.3112
  257SOL     OW 1025   0.075   1.971   0.038  0.4998 -0.4422  0.3182
  257SOL    HW1 1026   0.143   1.920   0.088  0.8595  0.2821  1.0734
  257SOL    HW2 1027   0.105   1.957  -0.052  3.5517 -0.3242 -0.1380
  257SOL     MW 1028   0.088   1.963   0.033  0.9499 -0.3311  0.3577
  258SOL     OW 1029   0.708   0.975   2.531  0.0485 -0.1668 -0.3000
  258SOL    HW1 1030   0.717   1.071   2.500  1.4956 -0.4694  0.7307
  258SOL    HW2 1031   0.624   0.987   2.575  0.8992 -1.4571 -4.3703
  258SOL     MW 1032   0.698   0.989   2.533  0.3517 -0.3770 -0.7010
  259SOL     OW 1033   0.809   0.423   2.261 -0.1215  0.1937  0.1194
  259SOL    HW1 1034   0.724   0.399   2.226  0.5115  0.2796  0.6581
  259SOL    HW2 1035   0.846   0.355   2.310  0.2178  1.7748 -1.8206
  259SOL     MW 1036   0.803   0.411   2.262  0.0068  0.4137 -0.0655
  260SOL     OW 1037   0.671   0.083   1.613  0.0482  0.3457  0.2870
  260SOL    HW1 1038   0.641   0.157   1.560 -4.0406  1.1076 -0.3180
  260SOL    HW2 1039   0.763   0.085   1.592 -1.2595 -2.3948  0.9624
  260SOL     MW 1040   0.679   0.093   1.603 -0.6638  0.0847  0.2963
  261SOL     OW 1041   1.011   0.725   2.014 -0.0780 -0.7803 -0.0056
  261SOL    HW1 1042   1.065   0.722   2.094 -1.0640  1.8494  0.9112
  261SOL    HW2 1043   0.968   0.631   2.008 -1.7155 -1.9148 -0.7578
  261SOL     MW 1044   1.012   0.712   2.024 -0.4241 -0.5830  0.0161
  262SOL     OW 1045   1.115   0.327   0.140  0.9823 -0.0544  0.3316
  262SOL    HW1 1046   1.208   0.315   0.116  0.0860  0.6207 -1.2357
  262SOL    HW2 1047   1.070   0.271   0.078  0.9655  0.0440 -0.3824
  262SOL     MW 1048   1.121   0.319   0.129  0.8618  0.0477  0.0306
  263SOL     OW 1049   0.362   0.013   2.474 -0.4225 -0.0813 -0.1969
  263SOL    HW1 1050   0.286   0.060   2.509 -1.5385  0.9001 -1.2644
  263SOL    HW2 1051   0.396   0.074   2.404 -1.6143  2.6269 -2.8574
  263SOL     MW 1052   0.357   0.028   2.469 -0.7270  0.4055 -0.6888
  264SOL     OW 1053   1.541   1.463   1.955 -0.0416  0.3117  0.5011
  264SOL    HW1 1054   1.463   1.403   1.949  3.9380 -3.1314  1.6495
  264SOL    HW2 1055   1.555   1.474   2.051  0.7713  1.5859  3.1860
  264SOL     MW 1056   1.533   1.456   1.967  0.5908  0.0256  1.0069
  265SOL     OW 1057   0.715   2.776   2.331  0.3302  0.1912 -0.3390
  265SOL    HW1 1058   0.808   2.745   2.323  1.5969  3.0722  2.9261
  265SOL    HW2 1059   0.700   2.797   2.425 -0.8417 -1.0747  1.0776
  265SOL     MW 1060   0.725   2.774   2.342  0.3427  0.4043  0.2787
  266SOL     OW 1061   0.787   0.857   2.131 -0.3331  0.2953 -0.4900
  266SOL    HW1 1062   0.803   0.943   2.097  1.0020 -0.4356  1.4359
  266SOL    HW2 1063   0.861   0.801   2.097 -0.9670  0.7972 -0.8766
  266SOL     MW 1064   0.799   0.861   2.122 -0.2405  0.2651 -0.2869
  267SOL     OW 1065   1.371   1.729   2.703 -0.5663  0.1165  0.3622
  267SOL    HW1 1066   1.426   1.667   2.658 -1.7924  0.2972 -0.1694
  267SOL    HW2 1067   1.291   1.727   2.643 -1.1129 -1.0445  0.8008
  267SOL     MW 1068   1.368   1.721   2.689 -0.8002 -0.0129  0.3499
  268SOL     OW 1069   0.083   0.900   1.697  0.1766 -0.2573 -0.6730
  268SOL    HW1 1070  -0.010   0.912   1.714  0.9618 -1.2447  0.5037
  268SOL    HW2 1071   0.080   0.815   1.642 -1.4230 -1.8345 -2.2045
  268SOL     MW 1072   0.070   0.890   1.692  0.0691 -0.5957 -0.7198
  269SOL     OW 1073   1.343   1.810   2.406 -0.5973 -0.1528 -0.1719
  269SOL    HW1 1074   1.355   1.893   2.452  0.6551  0.1987 -1.3547
  269SOL    HW2 1075   1.248   1.791   2.420  0.5303 -4.1220 -0.8682
  269SOL     MW 1076   1.332   1.819   2.414 -0.2833 -0.6302 -0.4198
  270SOL     OW 1077   1.099   0.480   1.539  0.3154  0.1638  0.2414
  270SOL    HW1 1078   1.031   0.419   1.559  0.4659  1.2027  0.0183
  270SOL    HW2 1079   1.177   0.435   1.550 -1.6942  3.2145  0.8121
  270SOL     MW 1080   1.100   0.466   1.543  0.0701  0.7034  0.2872
  271SOL     OW 1081   0.726   0.099   2.570 -0.4008  0.4932 -0.2982
  271SOL    HW1 1082   0.762   0.083   2.657 -1.2461 -1.2898 -0.9589
  271SOL    HW2 1083   0.791   0.156   2.535  0.9055 -0.9680 -0.0481
  271SOL     MW 1084   0.739   0.105   2.577 -0.3399  0.0652 -0.3524
  272SOL     OW 1085   1.487   2.801   2.841  0.3147  0.2099  0.4770
  272SOL    HW1 1086   1.440   2.795   2.762  0.7656 -1.1200 -0.8927
  272SOL    HW2 1087   1.541   2.889   2.837  1.1133 -1.6312 -1.9224
  272SOL     MW 1088   1.488   2.812   2.830  0.4796 -0.2085 -0.0203
  273SOL     OW 1089   1.447   0.791   2.819 -0.2762 -0.2375  0.5055
  273SOL    HW1 1090   1.542   0.769   2.821  0.3686  0.7881 -1.7680
  273SOL    HW2 1091   1.439   0.887   2.822 -3.4569 -1.0042  0.9130
  273SOL     MW 1092   1.459   0.801   2.820 -0.6108 -0.2034  0.2593
  274SOL     OW 1093   1.399   0.657   0.147  0.2090  0.2065  0.7940
  274SOL    HW1 1094   1.463   0.587   0.175 -0.1360 -0.0759 -0.3106
  274SOL    HW2 1095   1.320   0.652   0.211  0.6431  2.2378  0.1863
  274SOL     MW 1096   1.397   0.647   0.159  0.2207  0.4372  0.5681
  275SOL     OW 1097   1.881   0.556   1.713  0.4674  0.0518  0.2555
  275SOL    HW1 1098   1.911   0.606   1.787  0.9814  0.2543  1.5096
  275SOL    HW2 1099   1.890   0.463   1.726 -0.5531 -0.6776 -1.3652
  275SOL     MW 1100   1.886   0.550   1.725  0.4006 -0.0177  0.2071
  276SOL     OW 1101   0.423   1.171   1.957  0.2212 -0.0911  0.5939
  276SOL    HW1 1102   0.417   1.086   1.998  0.2101  0.9774 -1.5196
  276SOL    HW2 1103   0.357   1.226   2.008 -2.3239 -0.3440  1.4238
  276SOL     MW 1104   0.413   1.167   1.969 -0.1161  0.0165  0.4246
  277SOL     OW 1105   1.979   1.152   2.442  0.4274  0.3229 -0.5263
  277SOL    HW1 1106   2.022   1.230   2.482  0.8298  0.3020  3.0798
  277SOL    HW2 1107   1.883   1.175   2.443 -0.6549 -0.6278  2.5026
  277SOL     MW 1108   1.972   1.165   2.448  0.3377  0.1947  0.3491
  278SOL     OW 1109   1.447   0.616   1.612 -0.0510 -0.0023  0.3960
  278SOL    HW1 1110   1.446   0.583   1.706 -0.1754 -0.0229 -2.9642
  278SOL    HW2 1111   1.538   0.644   1.597 -0.2335  1.3311 -1.9537
  278SOL     MW 1112   1.459   0.615   1.623 -0.0915  0.1709 -0.3573
  279SOL     OW 1113   0.504   0.081   2.202  0.3417 -0.1660  0.1705
  279SOL    HW1 1114   0.578   0.014   2.221 -0.3818 -0.7974 -1.7754
  279SOL    HW2 1115   0.536   0.164   2.162 -1.2090 -1.0506  0.7074
  279SOL     MW 1116   0.518   0.083   2.199  0.0416 -0.3660 -0.0154
  280SOL     OW 1117   1.400   0.985   2.242  0.8900 -0.1295  0.3596
  280SOL    HW1 1118   1.493   1.001   2.224  1.9109  1.8629  0.1797
  280SOL    HW2 1119   1.415   0.950   2.329  1.4530 -1.3518  0.3574
  280SOL     MW 1120   1.414   0.982   2.251  1.0990 -0.0279  0.3356
  281SOL     OW 1121   1.392   1.072   2.771 -0.1948  0.1998 -0.1478
  281SOL    HW1 1122   1.464   1.131   2.773  0.0852 -1.6600  1.8340
  281SOL    HW2 1123   1.334   1.089   2.844  1.5731  1.6178 -0.0034
  281SOL     MW 1124   1.394   1.082   2.781  0.0754  0.1415  0.1327
  282SOL     OW 1125   1.071   1.327   1.616 -0.3973 -0.1926 -0.1136
  282SOL    HW1 1126   1.044   1.407   1.581  2.2541 -0.6318 -2.0078
  282SOL    HW2 1127   0.995   1.279   1.642 -0.2434 -0.4293  0.4034
  282SOL     MW 1128   1.058   1.331   1.615 -0.0272 -0.2818 -0.2953
  283SOL     OW 1129   0.812   1.317   2.997 -0.7409 -0.8182 -0.2609
  283SOL    HW1 1130   0.909   1.316   3.019  0.5397 -0.4294 -3.2408
  283SOL    HW2 1131   0.790   1.411   3.001  1.4971  0.7137 -1.4252
  283SOL     MW 1132   0.822   1.329   3.001 -0.2767 -0.5648 -0.8077
  284SOL     OW 1133   0.372   0.690   2.355  0.5366  0.3864  0.0105
  284SOL    HW1 1134   0.456   0.743   2.333  1.0619  0.4330  4.0039
  284SOL    HW2 1135   0.351   0.646   2.273  0.7256  0.9795 -0.0713
  284SOL     MW 1136   0.380   0.691   2.341  0.6309  0.4708  0.5266
  285SOL     OW 1137   0.877   0.932   2.795  0.5133 -0.0788 -0.0521
  285SOL    HW1 1138   0.933   0.950   2.716 -2.5718  0.0568 -0.3958
  285SOL    HW2 1139   0.816   0.870   2.757 -0.6329 -1.6305 -2.1285
  285SOL     MW 1140   0.876   0.927   2.780 -0.0450 -0.2657 -0.3714
  286SOL     OW 1141   1.050   1.458   2.736 -0.0530  1.2024  0.1410
  286SOL    HW1 1142   1.097   1.377   2.732 -0.9247  2.1623  0.7060
  286SOL    HW2 1143   1.096   1.524   2.690 -0.9077 -1.6456  0.0448
  286SOL     MW 1144   1.063   1.456   2.729 -0.2807  0.9532  0.2029
  287SOL     OW 1145   1.092   0.969   0.328  0.0095 -0.0643  0.3072
  287SOL    HW1 1146   1.049   0.980   0.411  1.6941 -1.0685 -1.2229
  287SOL    HW2 1147   1.033   0.999   0.257 -0.2214  2.2515 -0.4077
  287SOL     MW 1148   1.078   0.975   0.330  0.2013  0.1088  0.0110
  288SOL     OW 1149   1.496   0.726   2.092 -0.1290  0.2194  0.2593
  288SOL    HW1 1150   1.418   0.746   2.145  3.7269  0.8651 -1.8973
  288SOL    HW2 1151   1.543   0.804   2.090  0.5774 -1.1859 -0.7547
  288SOL     MW 1152   1.492   0.739   2.099  0.4729  0.1192 -0.1590
  289SOL     OW 1153   1.018   1.030   2.580  0.0795  0.0406 -0.4029
  289SOL    HW1 1154   1.058   0.963   2.528  0.1806 -0.2575 -1.6018
  289SOL    HW2 1155   0.949   1.050   2.523  4.0486  0.5284  0.9726
  289SOL     MW 1156   1.014   1.023   2.566  0.6165  0.0656 -0.3796
  290SOL     OW 1157   0.695   0.653   1.471  0.1611  0.0925 -0.4914
  290SOL    HW1 1158   0.731   0.598   1.404 -1.0238  0.4477 -0.1808
  290SOL    HW2 1159   0.763   0.642   1.543 -2.4227  1.2039 -0.6251
  290SOL     MW 1160   0.709   0.644   1.472 -0.3361  0.2860 -0.4681
  291SOL     OW 1161   0.184   0.345   0.215 -0.7422  0.1286 -0.0225
  291SOL    HW1 1162   0.268   0.307   0.203 -1.6565 -1.2238 -1.1926
  291SOL    HW2 1163   0.137   0.283   0.270  0.9283 -2.1506 -0.9296
  291SOL     MW 1164   0.189   0.332   0.221 -0.6424 -0.3506 -0.2966
  292SOL     OW 1165   1.022   0.574   0.082  0.1201  0.8445  0.1756
  292SOL    HW1 1166   1.085   0.626   0.127 -0.7470  1.1508 -0.2824
  292SOL    HW2 1167   1.047   0.479   0.095 -2.1426 -1.7092 -0.1789
  292SOL     MW 1168   1.034   0.569   0.089 -0.2929  0.5479  0.0684
  293SOL     OW 1169   0.113   0.115   2.516 -0.7898  0.0332 -0.3274
  293SOL    HW1 1170   0.108   0.055   2.442 -2.7891 -2.0789  0.7897
  293SOL    HW2 1171   0.020   0.122   2.544  1.9854  1.1795 -0.8355
  293SOL     MW 1172   0.100   0.108   2.510 -0.6874 -0.0942 -0.2470
  294SOL     OW 1173   1.253   0.440   2.295 -0.0475 -0.0394 -0.0028
  294SOL    HW1 1174   1.317   0.502   2.336 -0.2442  0.9965  0.4829
  294SOL    HW2 1175   1.260   0.353   2.329 -0.1401 -0.3147  0.5011
  294SOL     MW 1176   1.263   0.437   2.305 -0.0857  0.0610  0.1278
  295SOL     OW 1177   0.878   0.663   2.479  0.7115 -0.1288 -0.0757
  295SOL    HW1 1178   0.844   0.622   2.398  0.0527  1.1979 -1.3626
  295SOL    HW2 1179   0.803   0.682   2.536  0.2836 -0.3521 -0.7532
  295SOL     MW 1180   0.864   0.660   2.476  0.5681  0.0168 -0.3349
  296SOL     OW 1181   1.376   0.363   2.046 -0.0562  0.4560 -0.4031
  296SOL    HW1 1182   1.374   0.270   2.044  0.6784  2.5058 -2.3134
  296SOL    HW2 1183   1.344   0.393   2.129  0.4020  0.6906 -0.4805
  296SOL     MW 1184   1.371   0.354   2.056  0.1012  0.7574 -0.6654
  297SOL     OW 1185   1.370   0.378   1.522 -0.2329 -0.2710  0.5046
  297SOL    HW1 1186   1.402   0.463   1.550  0.4465 -1.2275 -1.5564
  297SOL    HW2 1187   1.382   0.319   1.598 -3.0410  2.6499  0.8013
  297SOL     MW 1188   1.376   0.381   1.536 -0.5137 -0.0118  0.2718
  298SOL     OW 1189   1.686   0.934   2.136 -0.5306  0.1101 -0.1908
  298SOL    HW1 1190   1.692   0.957   2.038  1.1928  0.3054 -0.4525
  298SOL    HW2 1191   1.738   0.851   2.140  0.2670 -1.8518 -1.4453
  298SOL     MW 1192   1.694   0.926   2.123 -0.1980 -0.1230 -0.3909
  299SOL     OW 1193   0.612   1.149   0.049  0.4442 -0.5519  0.6500
  299SOL    HW1 1194   0.566   1.130  -0.041 -2.3115  1.2056 -0.9888
  299SOL    HW2 1195   0.686   1.196   0.011  0.6082 -0.5180  1.2200
  299SOL     MW 1196   0.616   1.152   0.032  0.1023 -0.3156  0.5090
  300SOL     OW 1197   1.177   1.219   2.672  0.5767  0.1774 -0.0645
  300SOL    HW1 1198   1.108   1.155   2.666  2.6917  0.8225  0.8325
  300SOL    HW2 1199   1.254   1.168   2.691  0.7168  1.9580  0.9172
  300SOL     MW 1200   1.178   1.204   2.674  0.8742  0.4974  0.1834
  301SOL     OW 1201   1.456   1.032   0.675 -0.6163  0.4924 -0.1961
  301SOL    HW1 1202   1.480   1.062   0.760 -0.8182  1.9211 -0.1114
  301SOL    HW2 1203   1.384   0.971   0.682 -2.0360 -1.4095 -1.0808
  301SOL     MW 1204   1.450   1.028   0.687 -0.8302  0.4299 -0.3017
  302SOL     OW 1205   0.235   1.578   2.059  0.0801 -0.0342  0.6832
  302SOL    HW1 1206   0.242   1.485   2.068 -0.4909 -1.0656  0.8485
  302SOL    HW2 1207   0.143   1.598   2.039 -1.3561  1.1895  0.2880
  302SOL     MW 1208   0.224   1.568   2.058 -0.1847 -0.0088  0.6529
  303SOL     OW 1209   0.304   1.795   2.690  0.1769  0.5753  0.0810
  303SOL    HW1 1210   0.238   1.798   2.622 -0.2451 -2.5198 -0.4831
  303SOL    HW2 1211   0.261   1.836   2.771  1.4782  1.8735  1.5387
  303SOL     MW 1212   0.289   1.801   2.692  0.2929  0.3382  0.1989
  304SOL     OW 1213   0.543   2.115   2.450  0.5314  0.6570 -0.1889
  304SOL    HW1 1214   0.584   2.195   2.422 -1.2913 -1.5087 -0.6133
  304SOL    HW2 1215   0.603   2.050   2.409 -0.9787 -0.3053 -2.0334
  304SOL     MW 1216   0.556   2.117   2.441  0.0917  0.2443 -0.4882
  305SOL     OW 1217   1.124   0.621   0.545 -0.3810  0.1074 -0.8158
  305SOL    HW1 1218   1.034   0.586   0.526  0.3383 -1.2438 -1.2187
  305SOL    HW2 1219   1.186   0.541   0.555  2.3296 -3.6049  2.7328
  305SOL     MW 1220   1.121   0.606   0.544  0.0715 -0.5607 -0.4008
  306SOL     OW 1221   1.138   1.533   0.305 -0.2081 -0.4615  0.3071
  306SOL    HW1 1222   1.160   1.439   0.330 -0.6993  1.3806 -0.1356
  306SOL    HW2 1223   1.204   1.565   0.237 -0.5382 -0.9063 -0.7591
  306SOL     MW 1224   1.150   1.525   0.299 -0.3165 -0.2772  0.1080
  307SOL     OW 1225   1.442   0.557   1.864 -0.6474  0.1154  0.3429
  307SOL    HW1 1226   1.424   0.491   1.933 -0.9658  0.7242  0.4354
  307SOL    HW2 1227   1.444   0.637   1.921  1.7633 -1.9914 -0.7144
  307SOL     MW 1228   1.440   0.559   1.881 -0.3714 -0.0822  0.2156
  308SOL     OW 1229   2.268   0.583   2.723 -0.1523  0.0843 -0.1762
  308SOL    HW1 1230   2.348   0.598   2.769 -1.6818  2.2380 -1.6428
  308SOL    HW2 1231   2.226   0.669   2.713  0.4804 -0.1746 -0.2564
  308SOL     MW 1232   2.273   0.596   2.727 -0.2706  0.3343 -0.3803
  309SOL     OW 1233   0.551   0.523   0.295 -0.0071  0.4038 -0.0666
  309SOL    HW1 1234   0.642   0.552   0.278  0.8434 -3.2295 -0.5081
  309SOL    HW2 1235   0.550   0.430   0.272  3.9175  0.2098  1.4656
  309SOL     MW 1236   0.563   0.515   0.290  0.6229 -0.1012  0.0773
  310SOL     OW 1237   0.402   0.533   1.823  0.5529  0.1855 -0.2173
  310SOL    HW1 1238   0.422   0.514   1.729 -3.4852  0.8549 -1.6728
  310SOL    HW2 1239   0.407   0.629   1.831 -1.9032  0.2734  0.8904
  310SOL     MW 1240   0.405   0.543   1.811 -0.3040  0.2854 -0.2632
  311SOL     OW 1241   1.995   0.716   1.904 -0.1826  0.0818 -0.1414
  311SOL    HW1 1242   1.921   0.690   1.967  0.5086 -0.6054  0.7485
  311SOL    HW2 1243   2.070   0.664   1.932  1.1023 -4.9919 -1.0444
  311SOL     MW 1244   1.995   0.705   1.916  0.0782 -0.6783 -0.1431
  312SOL     OW 1245   1.761   2.444   0.153  0.5548 -0.6629  0.0538
  312SOL    HW1 1246   1.775   2.425   0.245  0.5944 -0.2101  1.6453
  312SOL    HW2 1247   1.693   2.520   0.152 -0.8808 -0.8041  1.5709
  312SOL     MW 1248   1.754   2.451   0.165  0.3706 -0.6218  0.4640
  313SOL     OW 1249   0.069   1.145   3.071 -0.5759 -0.0834 -0.2633
  313SOL    HW1 1250   0.035   1.192   3.149 -0.3263  0.3736 -1.7570
  313SOL    HW2 1251   0.128   1.204   3.024  0.9758  1.2729 -1.8939
  313SOL     MW 1252   0.072   1.159   3.075 -0.3382  0.1558 -0.6755
  314SOL     OW 1253   2.226   2.875   3.070 -0.0425  0.3338 -0.0620
  314SOL    HW1 1254   2.140   2.902   3.025  1.8567  1.0989 -0.9619
  314SOL    HW2 1255   2.263   2.947   3.104 -0.2658 -2.6073  2.2086
  314SOL     MW 1256   2.219   2.888   3.068  0.1786  0.0467  0.1189
  315SOL     OW 1257   1.522   1.870   3.022  0.2957 -0.3782 -0.0377
  315SOL    HW1 1258   1.466   1.932   3.066  0.3523  0.8250  2.5038
  315SOL    HW2 1259   1.564   1.922   2.957 -1.4394 -0.8392 -1.6713
  315SOL     MW 1260   1.520   1.885   3.019  0.0743 -0.2803  0.0821
  316SOL     OW 1261   1.211   0.693   2.708 -0.1652 -0.0047 -0.5541
  316SOL    HW1 1262   1.296   0.705   2.737  0.9642 -2.5667  1.8755
  316SOL    HW2 1263   1.169   0.633   2.769  1.0537  0.1844 -0.9280
  316SOL     MW 1264   1.216   0.686   2.720  0.1446 -0.3178 -0.2829
  317SOL     OW 1265   0.661   1.642   2.557 -0.4144  0.6336 -0.4332
  317SOL    HW1 1266   0.721   1.570   2.583  1.0504 -0.6207 -1.2069
  317SOL    HW2 1267   0.631   1.609   2.477 -2.3164 -2.6372 -0.0231
  317SOL     MW 1268   0.665   1.628   2.550 -0.4721  0.0366 -0.4812
  318SOL     OW 1269   1.359   0.393   2.859  0.0892  0.0865 -0.1736
  318SOL    HW1 1270   1.286   0.449   2.852  1.2982  0.6416 -1.6073
  318SOL    HW2 1271   1.435   0.442   2.840 -0.6743 -0.7475  0.0910
  318SOL     MW 1272   1.359   0.407   2.855  0.1480  0.0497 -0.3278
  319SOL     OW 1273   0.833   0.489   2.871 -0.1207 -0.4777 -0.1457
  319SOL    HW1 1274   0.781   0.430   2.821  3.1185  0.8282 -0.6441
  319SOL    HW2 1275   0.776   0.497   2.946 -1.5166  0.2643 -0.2374
  319SOL     MW 1276   0.819   0.482   2.875  0.1225 -0.2075 -0.2236
  320SOL     OW 1277   1.008   1.289   2.020 -0.1300 -0.3701  0.6093
  320SOL    HW1 1278   1.068   1.215   2.038 -0.2365 -2.4998 -0.1301
  320SOL    HW2 1279   1.069   1.350   1.979  1.2801 -0.3718  1.2244
  320SOL     MW 1280   1.024   1.288   2.017  0.0420 -0.6513  0.5929
  321SOL     OW 1281   1.011   0.947   3.022  0.2816  0.1957 -0.5057
  321SOL    HW1 1282   0.972   0.958   2.932 -1.4588 -0.6192  0.8063
  321SOL    HW2 1283   1.089   0.891   3.021 -0.5844 -0.0203  2.2198
  321SOL     MW 1284   1.016   0.941   3.010 -0.0623  0.0597  0.0270
  322SOL     OW 1285   1.328   0.866   1.648 -0.3883  0.5421 -0.0624
  322SOL    HW1 1286   1.373   0.782   1.631 -0.4146  2.4321 -0.2927
  322SOL    HW2 1287   1.246   0.835   1.685  0.0656 -1.0981 -1.9138
  322SOL     MW 1288   1.323   0.851   1.651 -0.3319  0.5751 -0.3371
  323SOL     OW 1289   1.139   1.520   1.911 -0.4462 -0.0327  0.0376
  323SOL    HW1 1290   1.149   1.498   1.818  2.1995 -1.2448  1.3461
  323SOL    HW2 1291   1.097   1.607   1.913 -1.9988  1.1055 -3.1017
  323SOL     MW 1292   1.135   1.529   1.899 -0.3019 -0.0424 -0.2040
  324SOL     OW 1293   1.431   0.869   2.496 -0.0219 -0.7113 -0.6595
  324SOL    HW1 1294   1.357   0.867   2.560 -3.4631  0.1082  3.2934
  324SOL    HW2 1295   1.507   0.914   2.539 -3.6048 -0.2343  0.7807
  324SOL     MW 1296   1.431   0.875   2.511 -0.9487 -0.5402  0.0521
  325SOL     OW 1297   1.103   0.551   2.906 -0.2731 -0.2731 -0.1283
  325SOL    HW1 1298   1.112   0.578   2.998  3.9890 -0.0942  1.3115
  325SOL    HW2 1299   1.005   0.541   2.898 -2.2545  0.0400 -1.3885
  325SOL     MW 1300   1.091   0.553   2.917  0.0278 -0.2082 -0.1046
  326SOL     OW 1301   0.377   1.369   2.339 -0.0373 -0.5691  0.1293
  326SOL    HW1 1302   0.465   1.348   2.301  2.2615  1.4984 -0.8183
  326SOL    HW2 1303   0.377   1.464   2.342  0.7429  1.1152  1.3197
  326SOL     MW 1304   0.389   1.378   2.334  0.3690 -0.0741  0.1614
  327SOL     OW 1305   1.959   0.744   2.420  0.1451 -0.1011  0.0311
  327SOL    HW1 1306   1.932   0.715   2.509 -2.9333  0.8189  0.2045
  327SOL    HW2 1307   2.000   0.829   2.431 -1.3370 -0.6258  1.6972
  327SOL     MW 1308   1.961   0.751   2.433 -0.4567 -0.0489  0.2738
  328SOL     OW 1309   0.256   1.315   2.102  0.1481 -0.3807 -0.5517
  328SOL    HW1 1310   0.177   1.270   2.123  4.0546 -1.6157  2.7351
  328SOL    HW2 1311   0.284   1.336   2.191  0.2917 -0.4769  2.1265
  328SOL     MW 1312   0.249   1.312   2.117  0.6825 -0.5564  0.2353
  329SOL     OW 1313   0.025   0.154   1.345  0.1640 -0.1262 -0.2796
  329SOL    HW1 1314  -0.020   0.136   1.435 -1.7288 -0.6398 -4.0179
  329SOL    HW2 1315   0.108   0.202   1.365 -1.4062  0.1477  0.5933
  329SOL     MW 1316   0.030   0.158   1.359 -0.2929 -0.1578 -0.6576
  330SOL     OW 1317   0.343   0.066   1.968 -0.1397  0.5589 -0.1051
  330SOL    HW1 1318   0.438   0.053   1.974  0.6889  2.0603 -1.5350
  330SOL    HW2 1319   0.301  -0.005   2.019 -0.1194  0.1738 -0.3529
  330SOL     MW 1320   0.350   0.055   1.975 -0.0277  0.7062 -0.3265
  331SOL     OW 1321   0.812   1.207   2.414 -0.0041  0.0252  0.5776
  331SOL    HW1 1322   0.750   1.241   2.341 -1.0785 -1.7839  2.2777
  331SOL    HW2 1323   0.824   1.295   2.467  2.6660 -3.6889 -1.9544
  331SOL     MW 1324   0.805   1.223   2.411  0.2064 -0.7035  0.4678
  332SOL     OW 1325   1.365   1.627   2.947  0.4994 -0.1693  0.1538
  332SOL    HW1 1326   1.363   1.656   2.856 -0.0527 -1.2901  0.3641
  332SOL    HW2 1327   1.420   1.694   2.992 -1.0961  3.3962  0.4785
  332SOL     MW 1328   1.372   1.640   2.941  0.2161  0.1533  0.2244
  333SOL     OW 1329   1.718   1.362   2.922  0.1900  0.9509 -0.6340
  333SOL    HW1 1330   1.806   1.349   2.888 -0.4445 -0.1621 -2.8518
  333SOL    HW2 1331   1.700   1.301   2.999 -1.4583 -0.4040  0.4496
  333SOL     MW 1332   1.727   1.352   2.928 -0.1112  0.6253 -0.7837
  334SOL     OW 1333   1.326   3.048   2.612 -0.0840  0.1339 -0.2832
  334SOL    HW1 1334   1.254   3.039   2.668  1.4062  0.0144  1.0625
  334SOL    HW2 1335   1.390   3.101   2.663 -2.7639  0.3119  0.8078
  334SOL     MW 1336   1.325   3.054   2.626 -0.2409  0.1416  0.0383
  335SOL     OW 1337   1.261   0.789   3.043 -0.3184  0.5268  0.2738
  335SOL    HW1 1338   1.312   0.744   3.121  1.2831  2.0013 -2.3570
  335SOL    HW2 1339   1.327   0.784   2.972  2.1891 -0.1917  1.2411
  335SOL     MW 1340   1.276   0.783   3.044  0.2238  0.6265  0.0543
  336SOL     OW 1341   0.883   1.110   1.708 -0.7741  0.4166 -0.5244
  336SOL    HW1 1342   0.798   1.126   1.751 -1.8694  1.1528  0.6740
  336SOL    HW2 1343   0.945   1.062   1.766 -0.1490 -1.5923  3.6281
  336SOL     MW 1344   0.880   1.106   1.721 -0.8362  0.2486  0.1816
  337SOL     OW 1345   0.531   1.930   2.868 -0.0575 -0.5817  0.3964
  337SOL    HW1 1346   0.482   1.885   2.799 -1.6049  2.9287 -0.8251
  337SOL    HW2 1347   0.618   1.890   2.869  0.8523 -0.8905 -1.0681
  337SOL     MW 1348   0.536   1.919   2.859 -0.1416 -0.1593  0.0420
  338SOL     OW 1349   1.130   0.774   2.461  0.0145 -0.0036  0.0861
  338SOL    HW1 1350   1.035   0.753   2.462  2.6514  2.3770 -0.0935
  338SOL    HW2 1351   1.157   0.743   2.547  0.3770  1.0811 -1.2373
  338SOL     MW 1352   1.121   0.768   2.473  0.4102  0.4536 -0.1122
  339SOL     OW 1353   1.332   1.274   1.941 -0.7544 -0.4199  0.8040
  339SOL    HW1 1354   1.370   1.230   1.865  0.1904 -0.8964  0.6239
  339SOL    HW2 1355   1.282   1.203   1.981  0.2905  1.2924  1.6790
  339SOL     MW 1356   1.330   1.259   1.936 -0.4919 -0.2569  0.8957
  340SOL     OW 1357   1.332   1.548   0.104  0.4640 -0.1869  0.1269
  340SOL    HW1 1358   1.369   1.558   0.009  2.8642 -0.1128 -1.9184
  340SOL    HW2 1359   1.383   1.477   0.145 -0.1958  1.1575  2.6051
  340SOL     MW 1360   1.344   1.540   0.097  0.6936  0.0003  0.1840
  341SOL     OW 1361   0.084   1.397   2.839 -0.7486  0.0450  0.1516
  341SOL    HW1 1362   0.179   1.414   2.868  2.6831  3.2360  1.7336
  341SOL    HW2 1363   0.092   1.350   2.759 -2.0378  1.9299 -0.5052
  341SOL     MW 1364   0.098   1.393   2.832 -0.4659  0.7147  0.2737
  342SOL     OW 1365   1.380   0.344   0.026 -0.5386  0.3930  0.4810
  342SOL    HW1 1366   1.464   0.375   0.056  2.2923  1.0381  1.5524
  342SOL    HW2 1367   1.363   0.390  -0.057  0.0678 -0.1233  0.0727
  342SOL     MW 1368   1.389   0.354   0.019 -0.0851  0.4100  0.5685
  343SOL     OW 1369   0.245   0.299   2.103 -0.2110  0.5153 -0.6271
  343SOL    HW1 1370   0.272   0.212   2.074 -1.6976 -0.5981 -1.7169
  343SOL    HW2 1371   0.149   0.290   2.128 -1.7343 -1.6232 -2.4379
  343SOL     MW 1372   0.236   0.286   2.102 -0.6081  0.0862 -1.0098
  344SOL     OW 1373   1.674   2.053   0.188 -0.3442  0.3520  0.1720
  344SOL    HW1 1374   1.675   2.099   0.099  1.8824  1.8579 -3.0551
  344SOL    HW2 1375   1.593   2.054   0.220  2.0527  2.4114 -0.9715
  344SOL     MW 1376   1.664   2.059   0.180  0.2658  0.8224 -0.4047
  345SOL     OW 1377   0.619   1.568   2.281 -0.1980  0.0026 -0.3347
  345SOL    HW1 1378   0.579   1.642   2.232 -0.1125  2.8511  2.7603
  345SOL    HW2 1379   0.704   1.551   2.240 -1.9379  0.9229 -0.2581
  345SOL     MW 1380   0.625   1.576   2.269 -0.4163  0.4999  0.0837
  346SOL     OW 1381   1.667   1.200   0.034  0.1394  0.2456  0.1984
  346SOL    HW1 1382   1.729   1.238   0.096  1.0615 -3.0503 -1.1962
  346SOL    HW2 1383   1.635   1.124   0.072 -2.7679  2.2981  2.8765
  346SOL     MW 1384   1.671   1.195   0.047 -0.1225  0.0816  0.3677
  347SOL     OW 1385   1.244   0.727   2.197  0.3880  0.6185  0.0707
  347SOL    HW1 1386   1.232   0.638   2.222  3.6980  1.0804  0.5177
  347SOL    HW2 1387   1.213   0.772   2.276  0.3770 -0.6468 -1.5214
  347SOL     MW 1388   1.238   0.721   2.210  0.8233  0.5125 -0.0804
  348SOL     OW 1389   1.294   2.528   1.939  0.1033  0.1028  0.3385
  348SOL    HW1 1390   1.318   2.468   2.017 -0.3825 -0.1045  3.2648
  348SOL    HW2 1391   1.326   2.611   1.975 -1.9433 -0.5282 -3.8320
  348SOL     MW 1392   1.301   2.531   1.954 -0.2308 -0.0078  0.1743
  349SOL     OW 1393   1.443   0.128   2.783 -0.0753 -0.8722 -0.2451
  349SOL    HW1 1394   1.408   0.222   2.796  0.7495 -1.7070 -1.5003
  349SOL    HW2 1395   1.512   0.121   2.845 -1.5844  2.1259 -0.9544
  349SOL     MW 1396   1.447   0.140   2.793 -0.1656 -0.5868 -0.5043
  350SOL     OW 1397   1.879   0.604   2.654  0.3994 -0.0137  0.4999
  350SOL    HW1 1398   1.834   0.538   2.595 -0.8319  0.4616 -2.5010
  350SOL    HW2 1399   1.949   0.555   2.709  0.7649  1.5389 -0.1454
  350SOL     MW 1400   1.882   0.589   2.654  0.2852  0.2538  0.0188
  351SOL     OW 1401   0.129   1.141   1.544  0.6496 -1.0258  0.3293
  351SOL    HW1 1402   0.107   1.056   1.583 -0.2160 -1.7475 -1.0567
  351SOL    HW2 1403   0.155   1.193   1.620 -0.2209  1.2343 -1.0590
  351SOL     MW 1404   0.129   1.137   1.559  0.4205 -0.8229 -0.0367
  352SOL     OW 1405   0.754   1.791   2.828  0.7424  0.0393 -0.3329
  352SOL    HW1 1406   0.780   1.728   2.899 -1.0185  1.8934  2.0208
  352SOL    HW2 1407   0.743   1.746   2.743 -0.7007 -0.6382 -0.2323
  352SOL     MW 1408   0.756   1.777   2.826  0.3197  0.1946 -0.0091
  353SOL     OW 1409   3.086   2.565   2.679  0.1820 -0.2818  0.4395
  353SOL    HW1 1410   3.158   2.501   2.674 -1.4032 -2.7815  0.8550
  353SOL    HW2 1411   3.109   2.607   2.593  0.1484 -1.7616 -2.6676
  353SOL     MW 1412   3.098   2.562   2.667 -0.0316 -0.8069  0.0844
  354SOL     OW 1413   0.336   2.421   0.797  0.0884  0.4861  0.7323
  354SOL    HW1 1414   0.397   2.383   0.859  3.2389 -2.8324 -2.6577
  354SOL    HW2 1415   0.256   2.361   0.806 -0.7947  0.4023  0.0300
  354SOL     MW 1416   0.333   2.408   0.807  0.3876  0.0372  0.1924
  355SOL     OW 1417   0.110   2.264   0.370  0.3603  0.0072 -0.8304
  355SOL    HW1 1418   0.030   2.205   0.356 -1.6936 -0.3048  3.2583
  355SOL    HW2 1419   0.102   2.307   0.451  0.2181 -2.0907 -1.0134
  355SOL     MW 1420   0.099   2.262   0.379  0.0706 -0.3108 -0.3151
  356SOL     OW 1421   0.751   2.954   0.993 -0.0316 -0.2466  0.0896
  356SOL    HW1 1422   0.823   2.932   0.933  2.4184 -1.0421  0.8370
  356SOL    HW2 1423   0.677   2.901   0.961  0.9954  2.9678 -0.2754
  356SOL     MW 1424   0.751   2.944   0.981  0.4272  0.0726  0.1401
  357SOL     OW 1425   1.884   2.812   0.443 -0.0750  0.1419 -0.4169
  357SOL    HW1 1426   1.836   2.756   0.503 -0.6030  2.3905  0.3251
  357SOL    HW2 1427   1.960   2.756   0.424  1.0426 -0.4753  1.4980
  357SOL     MW 1428   1.888   2.797   0.449  0.0028  0.3571 -0.0663
  358SOL     OW 1429   0.390   0.112   1.036 -0.6048  0.1822 -0.8625
  358SOL    HW1 1430   0.483   0.147   1.043  0.8587  0.1968  1.0062
  358SOL    HW2 1431   0.345   0.157   0.965 -1.0505 -0.5737 -0.6898
  358SOL     MW 1432   0.396   0.123   1.028 -0.4705  0.0844 -0.5931
  359SOL     OW 1433   0.911   2.937   1.911 -0.2713  0.1226  0.2033
  359SOL    HW1 1434   0.880   2.850   1.947 -0.6746 -1.6539 -1.4996
  359SOL    HW2 1435   0.925   2.905   1.815  0.0491  0.9013 -1.1803
  359SOL     MW 1436   0.909   2.921   1.903 -0.2822 -0.0091 -0.2040
  360SOL     OW 1437   0.563   2.757   0.902 -0.0992 -0.0367 -0.1314
  360SOL    HW1 1438   0.583   2.741   0.812 -0.9292  1.3069  0.6668
  360SOL    HW2 1439   0.575   2.676   0.946  2.0366  0.8037  1.0364
  360SOL     MW 1440   0.567   2.744   0.896  0.0731  0.2515  0.1280
  361SOL     OW 1441   0.113   2.717   1.334 -0.5456  0.1279  0.0543
  361SOL    HW1 1442   0.049   2.747   1.392 -0.6957 -0.7679  1.8742
  361SOL    HW2 1443   0.192   2.764   1.358  1.7886 -0.5812  0.9664
  361SOL     MW 1444   0.115   2.727   1.345 -0.2574 -0.0838  0.4148
  362SOL     OW 1445   1.401   2.419   0.590  0.1954 -0.0531 -0.2657
  362SOL    HW1 1446   1.458   2.363   0.648  0.3149 -2.0384 -1.8721
  362SOL    HW2 1447   1.436   2.511   0.581  0.0216  2.0959 -0.1623
  362SOL     MW 1448   1.413   2.424   0.597  0.1882 -0.0315 -0.4640
  363SOL     OW 1449   0.332   3.105   0.645  0.3442 -0.3517  0.1018
  363SOL    HW1 1450   0.348   3.029   0.695  4.1368  0.3074 -0.0648
  363SOL    HW2 1451   0.264   3.078   0.585 -0.1684 -0.2423  2.3614
  363SOL     MW 1452   0.325   3.092   0.644  0.7770 -0.2503  0.3779
  364SOL     OW 1453   0.787   0.245   0.157  0.1777  0.6666  0.2824
  364SOL    HW1 1454   0.740   0.160   0.182 -1.4431 -1.8044 -0.5292
  364SOL    HW2 1455   0.721   0.296   0.108  1.6203 -0.1441  2.6410
  364SOL     MW 1456   0.772   0.240   0.153  0.1542  0.2336  0.4865
  365SOL     OW 1457   0.879   1.988   1.300  0.2872  0.2823  0.0978
  365SOL    HW1 1458   0.858   2.075   1.257  1.5401 -1.0716 -2.6219
  365SOL    HW2 1459   0.828   1.926   1.239  2.7439  0.9334  1.0590
  365SOL     MW 1460   0.869   1.991   1.286  0.7766  0.1896 -0.1342
  366SOL     OW 1461   2.871   2.650   0.967  0.2458 -0.5109  0.4536
  366SOL    HW1 1462   2.956   2.612   1.003 -0.0069  3.0812 -1.1100
  366SOL    HW2 1463   2.891   2.687   0.881  0.0024 -0.8311  1.1698
  366SOL     MW 1464   2.885   2.650   0.960  0.1803 -0.0792  0.3418
  367SOL     OW 1465   1.329   3.063   0.983 -0.1340  0.0300  0.0979
  367SOL    HW1 1466   1.405   3.098   1.021 -0.3267 -0.7166  0.2986
  367SOL    HW2 1467   1.360   3.059   0.894 -1.3457  0.6447  2.0554
  367SOL     MW 1468   1.343   3.067   0.977 -0.3193  0.0126  0.3826
  368SOL     OW 1469   1.734   0.366   0.593  0.8576  0.0933  0.1750
  368SOL    HW1 1470   1.804   0.315   0.544  2.3335 -1.1107 -2.7487
  368SOL    HW2 1471   1.744   0.453   0.565  0.2467 -2.4034 -1.8991
  368SOL     MW 1472   1.745   0.371   0.583  0.9717 -0.3950 -0.4844
  369SOL     OW 1473   0.170   2.448   1.764  0.4135  0.4459  0.3983
  369SOL    HW1 1474   0.267   2.444   1.756 -1.1993 -0.0281 -1.7320
  369SOL    HW2 1475   0.143   2.535   1.733 -1.7983  0.2827  2.0480
  369SOL     MW 1476   0.179   2.459   1.759 -0.0911  0.3619  0.3349
  370SOL     OW 1477   0.665   0.138   1.057 -0.0411 -0.1603 -0.1166
  370SOL    HW1 1478   0.708   0.130   0.970 -0.3341 -1.8652 -2.2561
  370SOL    HW2 1479   0.683   0.050   1.087  0.1346  0.6165 -0.5208
  370SOL     MW 1480   0.673   0.126   1.050 -0.0565 -0.2827 -0.4522
  371SOL     OW 1481   1.105   2.901   1.496  0.1463 -0.0365 -0.4804
  371SOL    HW1 1482   1.136   2.821   1.452  2.2171  0.5703  2.4485
  371SOL    HW2 1483   1.105   2.973   1.437  0.3134  0.9664  1.0106
  371SOL     MW 1484   1.109   2.900   1.482  0.4415  0.1759  0.1027
  372SOL     OW 1485   0.817   2.296   0.461  0.2234 -0.3913  0.3659
  372SOL    HW1 1486   0.779   2.222   0.512  0.8097 -0.4656 -0.5342
  372SOL    HW2 1487   0.853   2.268   0.375  0.7111  1.4552 -0.0328
  372SOL     MW 1488   0.817   2.282   0.456  0.3651 -0.1575  0.1945
  373SOL     OW 1489   2.790   2.971   1.405 -0.1944 -0.5464 -0.3905
  373SOL    HW1 1490   2.876   2.951   1.366  3.0022  1.5788  0.7083
  373SOL    HW2 1491   2.752   3.033   1.345  1.0058 -1.6216 -0.3108
  373SOL     MW 1492   2.796   2.977   1.392  0.3857 -0.4079 -0.2350
  374SOL     OW 1493   1.569   0.450   0.227 -0.5521 -0.0439 -0.6908
  374SOL    HW1 1494   1.662   0.426   0.214  0.1391  0.4613  0.3133
  374SOL    HW2 1495   1.542   0.409   0.307 -0.8439  0.2387  2.0606
  374SOL     MW 1496   1.577   0.442   0.236 -0.4994  0.0600 -0.1953
  375SOL     OW 1497   1.093   2.011   2.174 -0.0583 -0.0866  0.0053
  375SOL    HW1 1498   1.104   1.996   2.266 -1.6669  0.0903 -2.5111
  375SOL    HW2 1499   1.006   1.973   2.145  1.5832  0.1516 -1.5034
  375SOL     MW 1500   1.083   2.004   2.182 -0.0539 -0.0319 -0.5257
  376SOL     OW 1501   0.832   2.535   0.102 -1.1613  0.1414 -0.6892
  376SOL    HW1 1502   0.767   2.469   0.154 -0.2769 -2.4018  2.0332
  376SOL    HW2 1503   0.839   2.489   0.013 -0.2312 -0.7877 -2.7001
  376SOL     MW 1504   0.825   2.520   0.097 -0.9219 -0.3168 -0.5953
  377SOL     OW 1505   1.328   2.087   0.970 -0.4091  0.1412  0.2050
  377SOL    HW1 1506   1.253   2.067   0.914  1.2682  1.9470 -3.1438
  377SOL    HW2 1507   1.307   2.040   1.058 -1.9829 -0.3125  1.1977
  377SOL     MW 1508   1.315   2.078   0.974 -0.3954  0.3196 -0.1059
  378SOL     OW 1509   0.867   2.853   1.612 -0.8754  0.1741  0.3187
  378SOL    HW1 1510   0.871   2.759   1.622 -0.2915  0.7682 -0.3497
  378SOL    HW2 1511   0.952   2.889   1.585  1.6894  2.0200  3.0360
  378SOL     MW 1512   0.879   2.845   1.610 -0.4599  0.4961  0.5890
  379SOL     OW 1513   1.057   1.546   2.328 -0.4593 -0.3170  0.4136
  379SOL    HW1 1514   0.984   1.551   2.267 -1.2905 -0.5538 -0.4182
  379SOL    HW2 1515   1.124   1.564   2.261 -0.0417  2.0861  3.4769
  379SOL     MW 1516   1.056   1.549   2.311 -0.5138 -0.0312  0.7080
  380SOL     OW 1517   0.913   0.164   1.528  0.4198  0.5295  0.1204
  380SOL    HW1 1518   0.935   0.100   1.454  1.0027 -0.1103 -0.5853
  380SOL    HW2 1519   0.977   0.139   1.603  1.5211  1.5558  1.4832
  380SOL     MW 1520   0.924   0.153   1.528  0.6420  0.5805  0.2071
  381SOL     OW 1521   0.843   2.060   0.885 -0.5932 -0.4165  0.1105
  381SOL    HW1 1522   0.939   2.053   0.858 -1.7726  2.0438 -1.2320
  381SOL    HW2 1523   0.837   2.124   0.954  2.4413 -1.4756 -0.3191
  381SOL     MW 1524   0.855   2.068   0.891 -0.3484 -0.2316 -0.1233
  382SOL     OW 1525   0.840   0.110   0.605 -0.3120 -0.6836  1.2786
  382SOL    HW1 1526   0.840   0.154   0.692 -0.0694 -2.3448  1.1284
  382SOL    HW2 1527   0.826   0.012   0.620  0.5858 -3.8627 -1.3781
  382SOL     MW 1528   0.838   0.103   0.618 -0.1616 -1.3222  0.9083
  383SOL     OW 1529   0.669   0.025   0.259  0.0933  0.1196 -0.4687
  383SOL    HW1 1530   0.690  -0.052   0.210  0.5238  0.9365 -2.9034
  383SOL    HW2 1531   0.619  -0.006   0.331  0.3215  2.7979 -2.8785
  383SOL     MW 1532   0.665   0.011   0.262  0.1802  0.5807 -1.1079
  384SOL     OW 1533   0.803   2.947   0.626  0.0833 -0.3893  1.0242
  384SOL    HW1 1534   0.867   2.946   0.702 -1.3989  0.7741 -0.0542
  384SOL    HW2 1535   0.748   2.871   0.645 -0.2605 -0.7945 -1.1129
  384SOL     MW 1536   0.804   2.936   0.638 -0.1576 -0.2893  0.5999
  385SOL     OW 1537   1.385   2.044   1.568 -0.6654 -0.1255  0.3786
  385SOL    HW1 1538   1.471   2.065   1.614  2.7172  0.5025  1.6178
  385SOL    HW2 1539   1.360   1.965   1.622 -2.5235 -1.2317  1.6899
  385SOL     MW 1540   1.393   2.037   1.581 -0.4642 -0.1886  0.7151
  386SOL     OW 1541   1.475   0.400   0.870  0.7674  0.6895  0.5958
  386SOL    HW1 1542   1.425   0.450   0.937 -1.0084 -2.1263 -0.0197
  386SOL    HW2 1543   1.571   0.402   0.883  0.3208 -1.6123  1.7112
  386SOL     MW 1544   1.481   0.407   0.881  0.4742  0.0143  0.6618
  387SOL     OW 1545   0.829   2.271   1.572 -0.3609  0.4674 -0.1023
  387SOL    HW1 1546   0.923   2.288   1.534  0.3034  2.4262 -1.1703
  387SOL    HW2 1547   0.820   2.168   1.577 -0.3454  2.0518 -1.6721
  387SOL     MW 1548   0.840   2.259   1.567 -0.2712  0.9349 -0.4504
  388SOL     OW 1549   1.510   2.781   1.536  0.3705 -0.1899  0.7765
  388SOL    HW1 1550   1.467   2.827   1.467 -2.3580  1.2412  1.8254
  388SOL    HW2 1551   1.597   2.749   1.500  0.2073 -1.1323  0.3535
  388SOL     MW 1552   1.516   2.783   1.522 -0.0111 -0.1254  0.8591
  389SOL     OW 1553   0.409   0.113   3.055 -0.1823  0.5220 -0.4012
  389SOL    HW1 1554   0.475   0.045   3.026  1.6682 -1.2279 -0.3845
  389SOL    HW2 1555   0.403   0.179   2.982  1.0699  0.5600  0.6881
  389SOL     MW 1556   0.417   0.113   3.042  0.2271  0.2961 -0.2553
  390SOL     OW 1557   1.353   3.078   0.723 -0.3150  0.1952 -0.8883
  390SOL    HW1 1558   1.356   3.032   0.638 -0.6881 -1.5428  1.6165
  390SOL    HW2 1559   1.430   3.134   0.723 -2.3105 -4.3964  0.1998
  390SOL     MW 1560   1.364   3.079   0.712 -0.6275 -0.6399 -0.4142
  391SOL     OW 1561   0.315   2.161   1.509  0.3190  0.5129  0.2377
  391SOL    HW1 1562   0.320   2.149   1.602 -0.1878  2.1096 -1.7528
  391SOL    HW2 1563   0.245   2.233   1.501  1.0784  1.6851  2.9650
  391SOL     MW 1564   0.306   2.169   1.520  0.3523  0.8782  0.3349
  392SOL     OW 1565   1.957   2.088   0.304 -0.0832  0.0851 -0.6805
  392SOL    HW1 1566   1.995   2.178   0.310  0.1181 -0.9772 -1.6682
  392SOL    HW2 1567   1.866   2.093   0.268  1.0000  0.3575 -1.3614
  392SOL     MW 1568   1.950   2.101   0.300  0.0863 -0.0191 -0.9006
  393SOL     OW 1569   0.265   2.957   2.794 -0.0971 -0.0048  0.1282
  393SOL    HW1 1570   0.356   2.951   2.770 -2.1003  0.7047  1.1201
  393SOL    HW2 1571   0.249   3.053   2.795 -1.1415  0.2728 -2.5651
  393SOL     MW 1572   0.275   2.969   2.791 -0.4992  0.1255 -0.0962
  394SOL     OW 1573   0.953   1.771   1.624  0.2458 -0.1544  0.2946
  394SOL    HW1 1574   1.002   1.797   1.701 -1.2819  0.9715  3.1980
  394SOL    HW2 1575   0.902   1.849   1.606 -1.7157  0.2016  2.0519
  394SOL     MW 1576   0.953   1.785   1.632 -0.2145  0.0411  0.9095
  395SOL     OW 1577   0.956   2.948   2.707  0.2371  0.9617  0.2599
  395SOL    HW1 1578   1.008   3.027   2.741 -0.9781 -1.7498 -1.3954
  395SOL    HW2 1579   1.011   2.877   2.674  0.6501  0.1189 -0.7851
  395SOL     MW 1580   0.970   2.949   2.707  0.1312  0.4927 -0.0964
  396SOL     OW 1581   0.709   1.916   2.393  0.5814 -0.1683  0.4671
  396SOL    HW1 1582   0.783   1.896   2.454  0.6058 -2.2969  0.9222
  396SOL    HW2 1583   0.646   1.849   2.418  1.3041  1.0917  3.3671
  396SOL     MW 1584   0.711   1.904   2.405  0.6800 -0.2829  0.9097
  397SOL     OW 1585   1.050   2.304   1.415  0.2973  0.4213  0.1170
  397SOL    HW1 1586   1.092   2.339   1.337 -0.3451 -0.5352 -2.2976
  397SOL    HW2 1587   1.137   2.300   1.466  0.9344 -2.1137 -1.7517
  397SOL     MW 1588   1.067   2.308   1.411  0.2966 -0.0394 -0.4481
  398SOL     OW 1589   0.690   2.699   0.661  1.3440  0.0984  0.7298
  398SOL    HW1 1590   0.664   2.699   0.566  1.3920 -1.9121  2.2466
  398SOL    HW2 1591   0.750   2.624   0.675 -1.4946 -0.3381 -0.7964
  398SOL     MW 1592   0.695   2.689   0.650  0.9758 -0.2244  0.7286
  399SOL     OW 1593   0.315   2.073   0.383 -0.1907  1.0440 -0.4093
  399SOL    HW1 1594   0.239   2.128   0.404 -3.0224  2.0608 -0.3015
  399SOL    HW2 1595   0.349   2.119   0.307 -1.2876  0.9724  1.6279
  399SOL     MW 1596   0.309   2.087   0.376 -0.7091  1.1687 -0.1263
  400SOL     OW 1597   0.599   1.960   0.140 -0.0852  0.1516  0.2062
  400SOL    HW1 1598   0.556   2.046   0.172  2.4564  0.7836 -0.8774
  400SOL    HW2 1599   0.571   1.906   0.215 -1.9993 -1.1018  1.1063
  400SOL     MW 1600   0.590   1.964   0.154 -0.0024  0.0696  0.1820
  401SOL     OW 1601   0.838   2.011   0.010  0.1571  0.5634  0.0184
  401SOL    HW1 1602   0.904   1.946   0.030 -1.6336 -0.1901  2.6494
  401SOL    HW2 1603   0.757   1.975   0.055  1.6502 -2.3191  4.2438
  401SOL     MW 1604   0.836   1.998   0.019  0.1178  0.0836  0.9230
  402SOL     OW 1605   0.579   3.030   1.865 -0.1521  0.2090  0.5504
  402SOL    HW1 1606   0.663   2.986   1.872 -0.6482  0.1863 -4.2083
  402SOL    HW2 1607   0.593   3.085   1.782 -0.3605  0.0519 -0.7921
  402SOL     MW 1608   0.592   3.032   1.855 -0.2451  0.1853 -0.2546
  403SOL     OW 1609   0.136   0.498   0.438  0.2639  0.6101  0.3655
  403SOL    HW1 1610   0.213   0.540   0.476 -2.7745 -0.0053 -0.9211
  403SOL    HW2 1611   0.160   0.462   0.356 -2.1047 -1.9233  1.4433
  403SOL     MW 1612   0.149   0.499   0.432 -0.4495  0.1947  0.3379
  404SOL     OW 1613   0.984   2.982   0.834  0.7754 -0.0186 -0.0288
  404SOL    HW1 1614   1.064   2.937   0.801 -0.7065  1.9339 -0.0710
  404SOL    HW2 1615   1.007   3.078   0.822  2.4160  0.1604 -1.2421
  404SOL     MW 1616   0.998   2.988   0.828  0.7963  0.2626 -0.1944
  405SOL     OW 1617   0.514   2.516   1.490 -0.5691 -0.0992 -0.4201
  405SOL    HW1 1618   0.546   2.590   1.442  2.9448 -0.2986  2.5512
  405SOL    HW2 1619   0.546   2.441   1.444 -0.3892  1.3090  3.1227
  405SOL     MW 1620   0.523   2.516   1.477 -0.0817  0.0603  0.4394
  406SOL     OW 1621   0.423   2.318   1.070 -0.1260 -0.0218 -0.6826
  406SOL    HW1 1622   0.330   2.354   1.075 -2.6364 -1.1516  0.1881
  406SOL    HW2 1623   0.429   2.259   1.148 -0.8632  3.2468 -0.0195
  406SOL     MW 1624   0.412   2.315   1.081 -0.5545  0.2604 -0.4802
  407SOL     OW 1625   0.030   2.622   1.081 -0.8625 -0.1445 -1.0456
  407SOL    HW1 1626   0.079   2.661   1.151 -0.1010 -0.6463 -0.5181
  407SOL    HW2 1627   0.083   2.614   1.000 -0.4973 -2.3290 -0.6354
  407SOL     MW 1628   0.043   2.626   1.080 -0.7138 -0.4989 -0.9218
  408SOL     OW 1629   2.109   2.186   0.712  0.0185  0.6834  0.2232
  408SOL    HW1 1630   2.048   2.223   0.781 -0.0224 -1.3564  2.0530
  408SOL    HW2 1631   2.061   2.128   0.648 -3.2532  0.6832  0.2379
  408SOL     MW 1632   2.095   2.183   0.713 -0.4186  0.4142  0.4666
  409SOL     OW 1633   1.620   0.066   0.830  0.4557 -0.3078 -0.5861
  409SOL    HW1 1634   1.677   0.142   0.822 -0.1760  0.9627 -1.8615
  409SOL    HW2 1635   1.589   0.065   0.922  0.2831 -0.9969  2.6302
  409SOL     MW 1636   1.623   0.076   0.841  0.3496 -0.2311 -0.3300
  410SOL     OW 1637   1.092   2.448   1.186  0.4774  0.1280  0.1917
  410SOL    HW1 1638   1.037   2.482   1.119  1.4282 -1.7246 -0.5684
  410SOL    HW2 1639   1.168   2.412   1.143  0.3426  0.4654  0.8359
  410SOL     MW 1640   1.095   2.448   1.172  0.5850 -0.0719  0.1764
  411SOL     OW 1641   1.989   2.935   2.948  0.0841  0.6564 -0.0839
  411SOL    HW1 1642   1.976   2.902   2.856 -1.3887  1.6380 -0.1898
  411SOL    HW2 1643   1.944   3.018   2.966 -0.5978 -1.2479  0.9348
  411SOL     MW 1644   1.982   2.942   2.938 -0.2002  0.5347  0.0365
  412SOL     OW 1645   1.072   2.251   0.635  1.0990  0.4075  0.6674
  412SOL    HW1 1646   1.086   2.343   0.651  1.5236 -0.3144  0.4530
  412SOL    HW2 1647   1.002   2.254   0.566 -1.7545  0.7553 -0.4148
  412SOL     MW 1648   1.065   2.264   0.628  0.7785  0.3581  0.4964
  413SOL     OW 1649   0.601   2.675   0.054 -0.3644 -0.3905  0.8144
  413SOL    HW1 1650   0.674   2.618   0.078 -1.4460  0.9038 -1.6202
  413SOL    HW2 1651   0.594   2.689  -0.039  1.7117  2.2026  0.4947
  413SOL     MW 1652   0.610   2.669   0.045 -0.2332  0.1224  0.4510
  414SOL     OW 1653   2.066   3.005   1.092  0.2526  0.4509 -0.1114
  414SOL    HW1 1654   2.045   3.099   1.093  1.7447  0.6404 -1.2848
  414SOL    HW2 1655   2.097   3.000   1.001  1.3227  1.0576  1.8783
  414SOL     MW 1656   2.067   3.017   1.080  0.5906  0.5560 -0.0037
  415SOL     OW 1657   1.657   2.845   1.172  0.4861 -0.5126  0.4358
  415SOL    HW1 1658   1.728   2.887   1.227 -0.6530  1.2865  0.5860
  415SOL    HW2 1659   1.702   2.767   1.126 -0.8816 -0.6190 -1.1145
  415SOL     MW 1660   1.672   2.840   1.173  0.1554 -0.2893  0.2511
  416SOL     OW 1661   0.673   1.766   1.431  0.7458 -0.5089  0.1369
  416SOL    HW1 1662   0.588   1.803   1.392 -3.2074 -0.4042 -0.0918
  416SOL    HW2 1663   0.686   1.672   1.413  0.1988 -3.4684  3.1551
  416SOL     MW 1664   0.663   1.759   1.424  0.1520 -0.8856  0.5049
  417SOL     OW 1665   0.932   0.067   2.097  0.2896  0.4748  0.1669
  417SOL    HW1 1666   0.864   0.056   2.159  0.7598  2.8819 -0.2581
  417SOL    HW2 1667   0.897   0.016   2.027 -0.4526 -1.9874 -0.6184
  417SOL     MW 1668   0.918   0.059   2.096  0.2537  0.4676  0.0072
  418SOL     OW 1669   0.751   2.852   0.188 -0.2950  0.0081 -0.4330
  418SOL    HW1 1670   0.828   2.863   0.130 -0.5315 -1.4616 -0.2416
  418SOL    HW2 1671   0.700   2.797   0.134 -0.0101  2.7615  0.4349
  418SOL     MW 1672   0.755   2.846   0.173 -0.2886  0.1775 -0.2932
  419SOL     OW 1673   0.639   2.691   1.341 -0.1612 -0.0220 -0.3334
  419SOL    HW1 1674   0.649   2.774   1.389 -1.9410  2.7590 -2.7961
  419SOL    HW2 1675   0.720   2.650   1.365 -0.8939  1.6723 -2.5241
  419SOL     MW 1676   0.651   2.697   1.350 -0.4927  0.5684 -0.9474
  420SOL     OW 1677   0.822   2.235   1.147 -0.0993  0.1147  0.3404
  420SOL    HW1 1678   0.749   2.263   1.198  1.7979 -1.4725  0.2391
  420SOL    HW2 1679   0.865   2.311   1.114 -1.2201 -0.4424  0.0566
  420SOL     MW 1680   0.818   2.248   1.150  0.0031 -0.1682  0.2896
  421SOL     OW 1681   2.920   0.124   0.063 -0.0052 -0.2934 -0.6905
  421SOL    HW1 1682   2.835   0.088   0.039  0.4773 -0.6807  1.2508
  421SOL    HW2 1683   2.991   0.064   0.049 -2.9495  3.4662  2.9091
  421SOL     MW 1684   2.918   0.112   0.058 -0.3300  0.1515  0.0406
  422SOL     OW 1685   0.896   2.447   0.966 -0.3560  0.1277 -0.1095
  422SOL    HW1 1686   0.828   2.496   1.002 -0.2407  1.3435  0.7996
  422SOL    HW2 1687   0.888   2.461   0.872 -2.2555 -0.2820  0.9252
  422SOL     MW 1688   0.886   2.455   0.958 -0.5915  0.2341  0.1470
  423SOL     OW 1689   1.568   0.053   0.487  0.6279  0.4165 -0.2215
  423SOL    HW1 1690   1.584   0.024   0.398 -2.6596  0.4212 -1.6544
  423SOL    HW2 1691   1.552   0.145   0.483 -0.0824 -0.6122  0.9905
  423SOL     MW 1692   1.568   0.061   0.474  0.1004  0.2814 -0.2507
  424SOL     OW 1693   0.654   2.312   1.344  0.3394  0.0545  0.3689
  424SOL    HW1 1694   0.586   2.245   1.356 -0.9505  2.0334  1.7916
  424SOL    HW2 1695   0.725   2.295   1.410  0.4204  0.7751 -0.1533
  424SOL     MW 1696   0.655   2.301   1.354  0.1799  0.4106  0.4877
  425SOL     OW 1697   1.742   2.815   2.037  0.1599  0.1216 -0.2757
  425SOL    HW1 1698   1.733   2.800   1.939  0.4673 -2.0040 -0.5466
  425SOL    HW2 1699   1.783   2.732   2.065  0.4310 -2.4630 -1.4803
  425SOL     MW 1700   1.746   2.802   2.028  0.2363 -0.4999 -0.4703
  426SOL     OW 1701   0.830   1.753   1.945 -0.2872  0.4084 -0.0066
  426SOL    HW1 1702   0.759   1.775   1.882 -0.4772 -2.2299  0.8945
  426SOL    HW2 1703   0.786   1.784   2.020 -1.4149  2.0954 -0.1206
  426SOL     MW 1704   0.815   1.760   1.946 -0.4610  0.2829  0.0973
  427SOL     OW 1705   0.403   1.769   1.882  0.2455  0.1011 -0.2262
  427SOL    HW1 1706   0.449   1.710   1.830  0.6356  3.6384  0.4618
  427SOL    HW2 1707   0.344   1.714   1.937  0.3388 -0.6037  2.9618
  427SOL     MW 1708   0.401   1.754   1.883  0.3093  0.4748  0.2852
  428SOL     OW 1709   0.636   2.542   1.056 -0.1616 -0.3802 -0.9512
  428SOL    HW1 1710   0.591   2.461   1.079  1.9725 -0.1093  1.9962
  428SOL    HW2 1711   0.624   2.602   1.131 -2.1851  3.1707  0.2291
  428SOL     MW 1712   0.629   2.540   1.069 -0.1470  0.1240 -0.4066
  429SOL     OW 1713   1.249   2.816   1.061  0.5433  0.3411  0.1053
  429SOL    HW1 1714   1.167   2.815   1.110  2.8180 -0.1228  0.3342
  429SOL    HW2 1715   1.270   2.908   1.045  0.9904 -1.1681  3.0391
  429SOL     MW 1716   1.241   2.828   1.066  0.9024  0.0808  0.5226
  430SOL     OW 1717   1.198   2.814   0.787 -0.0380 -0.1985 -0.1372
  430SOL    HW1 1718   1.189   2.778   0.878  3.5795  0.0421  0.9596
  430SOL    HW2 1719   1.139   2.772   0.722 -0.6545  1.4162 -2.6741
  430SOL     MW 1720   1.189   2.804   0.790  0.3579  0.0463 -0.3272
  431SOL     OW 1721   0.357   1.885   1.126 -0.0015 -0.2183 -0.3592
  431SOL    HW1 1722   0.427   1.815   1.127  1.3607 -0.8299 -0.5423
  431SOL    HW2 1723   0.361   1.899   1.031  0.1045 -0.9438  1.7488
  431SOL     MW 1724   0.367   1.878   1.113  0.1922 -0.3947 -0.1052
  432SOL     OW 1725   0.025   0.008   1.124  0.1704 -0.3658 -0.1271
  432SOL    HW1 1726   0.018   0.074   1.203 -3.8208  1.9134  0.1603
  432SOL    HW2 1727  -0.049  -0.053   1.141  2.9272  4.1305  2.0656
  432SOL     MW 1728   0.014   0.009   1.136  0.0076  0.5281  0.2001
  433SOL     OW 1729   0.645   2.914   1.489  0.0620  0.3143  0.2075
  433SOL    HW1 1730   0.627   2.999   1.522 -0.6721 -1.2264  1.0705
  433SOL    HW2 1731   0.733   2.881   1.517 -0.1074  1.1023 -1.1268
  433SOL     MW 1732   0.654   2.921   1.497 -0.0572  0.2150  0.1453
  434SOL     OW 1733   1.485   2.803   1.784  0.0859  0.3309 -0.1976
  434SOL    HW1 1734   1.415   2.854   1.828 -0.2408  1.4682  1.1862
  434SOL    HW2 1735   1.461   2.809   1.690  1.8496 -0.0100 -2.0159
  434SOL     MW 1736   1.473   2.810   1.777  0.2755  0.4360 -0.2549
  435SOL     OW 1737   2.698   1.786   0.279  0.7362  0.1999  0.3709
  435SOL    HW1 1738   2.739   1.838   0.218  0.1940 -1.1460 -0.5863
  435SOL    HW2 1739   2.607   1.804   0.260  1.5943  1.3137 -0.1008
  435SOL     MW 1740   2.692   1.795   0.269  0.7779  0.1693  0.1824
  436SOL     OW 1741   1.373   2.758   0.361 -0.0008  0.6519 -0.1824
  436SOL    HW1 1742   1.430   2.715   0.432 -1.5116  1.8171 -2.2065
  436SOL    HW2 1743   1.364   2.851   0.373  1.4480  0.1540 -1.0058
  436SOL     MW 1744   1.379   2.765   0.372 -0.0090  0.7400 -0.5581
  437SOL     OW 1745   0.896   0.009   1.308 -0.5510  0.1546 -0.0649
  437SOL    HW1 1746   0.969   0.032   1.243  0.2768 -0.3039 -0.6607
  437SOL    HW2 1747   0.840  -0.057   1.259 -0.2281 -1.3920  3.2162
  437SOL     MW 1748   0.898   0.003   1.293 -0.3992 -0.1100  0.2894
  438SOL     OW 1749   0.851   2.695   2.011 -0.3794  0.0712  0.4631
  438SOL    HW1 1750   0.867   2.623   2.078  0.8050 -0.3826  3.0311
  438SOL    HW2 1751   0.792   2.653   1.954  1.0941 -1.1988  1.5764
  438SOL     MW 1752   0.845   2.680   2.012 -0.0287 -0.1563  0.9488
  439SOL     OW 1753   1.158   2.081   0.420  0.2642  0.5730 -0.5234
  439SOL    HW1 1754   1.143   2.096   0.514  1.4062 -1.7184 -1.3578
  439SOL    HW2 1755   1.170   2.168   0.381  0.5312 -1.2538  0.6249
  439SOL     MW 1756   1.158   2.095   0.427  0.4501  0.0296 -0.4820
  440SOL     OW 1757   1.816   2.747   3.031 -0.0703  0.1914  0.4214
  440SOL    HW1 1758   1.779   2.772   3.118  2.5184 -1.6585  1.5030
  440SOL    HW2 1759   1.879   2.809   3.008 -0.5925 -0.9932  0.5257
  440SOL     MW 1760   1.819   2.759   3.040  0.2023 -0.2090  0.5779
  441SOL     OW 1761   0.511   2.696   0.466 -0.3752 -0.3238  0.2129
  441SOL    HW1 1762   0.479   2.675   0.375  2.1289  0.2803  0.3682
  441SOL    HW2 1763   0.497   2.787   0.466  0.3028  1.3795 -1.9053
  441SOL     MW 1764   0.505   2.706   0.454  0.0446 -0.0194 -0.0461
  442SOL     OW 1765   0.034   2.419   0.631 -0.4321  0.8027 -0.2488
  442SOL    HW1 1766   0.050   2.502   0.596  0.5366 -0.9178  0.6282
  442SOL    HW2 1767  -0.061   2.417   0.642 -0.4806  0.4153 -1.4113
  442SOL     MW 1768   0.023   2.430   0.627 -0.3107  0.5245 -0.2865
  443SOL     OW 1769   1.477   1.781   1.941  0.0399 -0.4342 -0.3856
  443SOL    HW1 1770   1.423   1.808   1.869 -0.1545  1.9128  1.1832
  443SOL    HW2 1771   1.435   1.699   1.976 -0.2485 -1.8156 -0.1405
  443SOL     MW 1772   1.464   1.774   1.936 -0.0238 -0.3068 -0.1463
  444SOL     OW 1773   0.904   2.595   1.627 -0.9395 -0.2132  0.3356
  444SOL    HW1 1774   0.985   2.556   1.660  0.0809  2.7814  1.2847
  444SOL    HW2 1775   0.844   2.559   1.690  1.3151 -0.0815  0.1906
  444SOL     MW 1776   0.907   2.585   1.640 -0.5074  0.1993  0.4417
  445SOL     OW 1777   1.164   0.089   1.399  0.0380  0.0574  0.6953
  445SOL    HW1 1778   1.111   0.150   1.448 -0.1086  0.7915  0.5053
  445SOL    HW2 1779   1.217   0.152   1.351 -2.0924  1.2689  0.1532
  445SOL     MW 1780   1.164   0.105   1.399 -0.2624  0.3141  0.5987
  446SOL     OW 1781   2.683   2.817   1.055 -0.2304 -0.1607  0.4146
  446SOL    HW1 1782   2.628   2.844   0.985  1.4755 -4.4251 -1.2302
  446SOL    HW2 1783   2.754   2.766   1.013  0.6867 -0.6713 -1.1356
  446SOL     MW 1784   2.685   2.814   1.040  0.1157 -0.7907 -0.0070
  447SOL     OW 1785   0.075   1.972   1.565 -0.2016 -0.0514  0.4326
  447SOL    HW1 1786   0.091   1.900   1.634  1.8024 -1.2316  0.9613
  447SOL    HW2 1787   0.005   1.941   1.513 -0.1685  0.4806 -0.6902
  447SOL     MW 1788   0.068   1.958   1.567  0.0672 -0.1370  0.3542
  448SOL     OW 1789   1.694   2.360   1.669  0.1843  0.4208  0.3746
  448SOL    HW1 1790   1.644   2.282   1.692 -1.0068  2.7735 -1.7104
  448SOL    HW2 1791   1.638   2.438   1.684  0.6873  1.8165  0.0077
  448SOL     MW 1792   1.680   2.360   1.674  0.0935  0.9154  0.0511
  449SOL     OW 1793   0.935   2.905   0.391 -0.0859  0.1769 -0.6062
  449SOL    HW1 1794   0.879   2.848   0.337 -1.0990 -1.2395  0.6311
  449SOL    HW2 1795   0.868   2.955   0.445 -1.5080 -0.2500 -0.0884
  449SOL     MW 1796   0.919   2.904   0.391 -0.4072 -0.0663 -0.3746
  450SOL     OW 1797   1.192   2.478   0.761  0.0357 -0.6275 -0.6715
  450SOL    HW1 1798   1.211   2.422   0.834  1.1553  3.0010 -1.6253
  450SOL    HW2 1799   1.278   2.469   0.711 -1.6795 -0.7679 -1.1354
  450SOL     MW 1800   1.206   2.469   0.764 -0.0429 -0.1673 -0.8586
  451SOL     OW 1801   0.523   2.001   1.682 -0.0704  0.7819  0.0590
  451SOL    HW1 1802   0.588   2.066   1.658 -0.3401 -2.5447  0.2702
  451SOL    HW2 1803   0.474   1.968   1.599  1.9599 -1.0547  0.6152
  451SOL     MW 1804   0.525   2.006   1.668  0.1619  0.1007  0.1602
  452SOL     OW 1805   0.276   2.650   0.003  0.5171  0.1113 -0.1746
  452SOL    HW1 1806   0.341   2.717   0.007 -3.2668  0.7031  0.2349
  452SOL    HW2 1807   0.204   2.680  -0.048  1.2376 -2.5918  1.9901
  452SOL     MW 1808   0.275   2.663  -0.003  0.1129 -0.1673  0.1650
  453SOL     OW 1809   0.190   2.986   1.585  0.0621  0.0474 -0.0328
  453SOL    HW1 1810   0.226   2.945   1.665 -0.9229  1.1172  0.3838
  453SOL    HW2 1811   0.237   2.954   1.510 -0.0983  1.5523 -1.4056
  453SOL     MW 1812   0.201   2.976   1.586 -0.0890  0.3871 -0.1589
  454SOL     OW 1813   0.950   2.799   1.175 -0.0209  0.4323 -0.3030
  454SOL    HW1 1814   0.920   2.746   1.254 -2.2007  0.1771  2.3427
  454SOL    HW2 1815   0.871   2.818   1.124  0.3800  1.8356 -1.3075
  454SOL     MW 1816   0.936   2.794   1.179 -0.2556  0.5837 -0.0865
  455SOL     OW 1817   1.753   2.799   0.194  0.1542 -0.1081  0.3561
  455SOL    HW1 1818   1.815   2.796   0.263 -0.7412 -0.2186 -2.1744
  455SOL    HW2 1819   1.682   2.736   0.208  0.5323  0.7228  0.0949
  455SOL     MW 1820   1.751   2.791   0.205  0.0859 -0.0131 -0.0122
  456SOL     OW 1821   2.777   0.231   1.458  0.3568 -0.4024 -0.4094
  456SOL    HW1 1822   2.796   0.179   1.383  0.3777  2.0785 -0.2652
  456SOL    HW2 1823   2.778   0.323   1.428  0.7535  0.6492  0.8655
  456SOL     MW 1824   2.780   0.236   1.444  0.4119  0.0637 -0.2221
  457SOL     OW 1825   0.810   1.643   3.042  0.1582 -0.6142 -0.0149
  457SOL    HW1 1826   0.721   1.597   3.030 -0.7501  0.4719  0.0996
  457SOL    HW2 1827   0.801   1.682   3.132  2.3325  0.7391  0.1416
  457SOL     MW 1828   0.797   1.642   3.052  0.3252 -0.2923  0.0208
  458SOL     OW 1829   1.328   1.488   0.691 -0.4959  1.0676  0.0211
  458SOL    HW1 1830   1.251   1.543   0.689  2.2268 -1.3712 -1.9909
  458SOL    HW2 1831   1.300   1.416   0.630 -1.0636 -0.4670 -1.5989
  458SOL     MW 1832   1.314   1.486   0.683 -0.2116  0.5433 -0.4581
  459SOL     OW 1833   1.582   3.046   0.228  0.4842  0.0694 -0.1583
  459SOL    HW1 1834   1.606   2.954   0.220 -0.4072  1.7959  1.0809
  459SOL    HW2 1835   1.522   3.075   0.152  1.3426 -1.6382 -2.1728
  459SOL     MW 1836   1.577   3.038   0.217  0.4799  0.0719 -0.2606
  460SOL     OW 1837   1.779   2.230   0.644 -0.2552 -0.3683  0.4029
  460SOL    HW1 1838   1.691   2.206   0.668  2.7223  1.3866 -2.1616
  460SOL    HW2 1839   1.827   2.149   0.643 -0.8631  2.2846  0.7552
  460SOL     MW 1840   1.774   2.216   0.647  0.0574  0.2133  0.1110
  461SOL     OW 1841   0.440   2.447   0.544  0.7698 -0.3775 -0.2042
  461SOL    HW1 1842   0.476   2.533   0.518 -1.4624 -1.3085  0.9501
  461SOL    HW2 1843   0.402   2.459   0.628  1.4805 -0.6422  1.0714
  461SOL     MW 1844   0.439   2.460   0.551  0.5690 -0.5353  0.1164
  462SOL     OW 1845   0.312   0.236   1.272  0.7132  0.0441  0.1818
  462SOL    HW1 1846   0.337   0.195   1.186 -0.0882 -0.0114  0.2535
  462SOL    HW2 1847   0.384   0.229   1.330 -0.7978 -1.2629 -1.1177
  462SOL     MW 1848   0.325   0.229   1.268  0.4081 -0.1357  0.0198
  463SOL     OW 1849   1.112   0.102   0.721  0.2745  0.2350  0.2105
  463SOL    HW1 1850   1.199   0.072   0.696 -0.1796  0.1653 -1.6591
  463SOL    HW2 1851   1.052   0.092   0.651  1.3519 -0.2970 -0.1785
  463SOL     MW 1852   1.115   0.097   0.709  0.3567  0.1556 -0.0875
  464SOL     OW 1853   0.739   3.047   2.294 -0.4415 -0.6547  1.2360
  464SOL    HW1 1854   0.760   2.950   2.292 -1.0169  1.1214 -4.3066
  464SOL    HW2 1855   0.753   3.081   2.383  0.3412  0.0057 -3.5992
  464SOL     MW 1856   0.744   3.039   2.306 -0.4141 -0.3332 -0.1333
  465SOL     OW 1857   0.847   0.319   0.398  0.4387  0.1615 -0.7592
  465SOL    HW1 1858   0.813   0.240   0.441 -1.5484 -0.4986  0.3612
  465SOL    HW2 1859   0.834   0.312   0.305  0.8420  1.1870  0.2453
  465SOL     MW 1860   0.841   0.308   0.392  0.2297  0.2097 -0.4789
  466SOL     OW 1861   1.110   2.043   0.814  0.3445 -0.0330  0.7084
  466SOL    HW1 1862   1.102   1.985   0.734  0.0041 -0.4089 -3.2564
  466SOL    HW2 1863   1.087   2.134   0.774  0.6571 -1.7260 -1.8424
  466SOL     MW 1864   1.106   2.047   0.798  0.3408 -0.3060 -0.1513
  467SOL     OW 1865   1.274   2.349   1.015  0.8839 -0.6843  1.2657
  467SOL    HW1 1866   1.353   2.400   1.042 -1.4560 -0.2465  2.7874
  467SOL    HW2 1867   1.296   2.256   1.029  0.2431  0.0697  0.0928
  467SOL     MW 1868   1.287   2.344   1.021  0.4907 -0.5270  1.3117
  468SOL     OW 1869   0.433   2.669   1.945 -0.4828 -0.4254  0.7763
  468SOL    HW1 1870   0.419   2.579   1.905 -1.8936  0.3602  2.0339
  468SOL    HW2 1871   0.384   2.741   1.902 -2.4552  2.4233 -3.1532
  468SOL     MW 1872   0.425   2.666   1.934 -0.9292  0.0541  0.4237
  469SOL     OW 1873   0.337   2.141   1.776  0.5001  0.5033 -0.6405
  469SOL    HW1 1874   0.271   2.108   1.839  4.6880  1.5277  0.8759
  469SOL    HW2 1875   0.411   2.076   1.763  0.3662  2.1880 -0.0491
  469SOL     MW 1876   0.338   2.128   1.783  1.0350  0.8608 -0.3624
  470SOL     OW 1877   3.040   2.604   0.110  0.1417  0.1363  0.0826
  470SOL    HW1 1878   2.957   2.618   0.169 -1.3438 -1.0804  1.4648
  470SOL    HW2 1879   3.011   2.611   0.017 -1.4087 -1.4465  1.1625
  470SOL     MW 1880   3.025   2.607   0.106 -0.2588 -0.2331  0.4075
  471SOL     OW 1881   1.196   2.658   1.373  1.5368  0.5872 -0.0551
  471SOL    HW1 1882   1.133   2.596   1.329  2.0322  1.0227 -2.7467
  471SOL    HW2 1883   1.271   2.661   1.314 -0.6092 -0.4435 -1.6558
  471SOL     MW 1884   1.197   2.650   1.359  1.3190  0.5087 -0.6214
  472SOL     OW 1885   2.975   2.137   0.357  0.4044 -0.2070 -0.0954
  472SOL    HW1 1886   2.955   2.086   0.276 -1.6216  0.6713 -2.7518
  472SOL    HW2 1887   2.926   2.101   0.439 -1.0180 -1.0894  2.7165
  472SOL     MW 1888   2.966   2.126   0.357 -0.0506 -0.2076 -0.0749
  473SOL     OW 1889   0.868   2.572   1.345  0.1810  0.0948  0.4628
  473SOL    HW1 1890   0.893   2.485   1.316 -1.2829  1.3023 -2.3531
  473SOL    HW2 1891   0.895   2.571   1.442 -0.4037 -0.7153 -0.6664
  473SOL     MW 1892   0.875   2.560   1.354 -0.0893  0.1472 -0.0577
  474SOL     OW 1893   0.775   2.259   1.834  0.4683 -0.1986  0.1999
  474SOL    HW1 1894   0.868   2.261   1.862 -0.8515 -0.6163  0.5276
  474SOL    HW2 1895   0.787   2.266   1.740  1.9544 -1.0047 -0.7263
  474SOL     MW 1896   0.789   2.260   1.825  0.4902 -0.3601  0.1210
  475SOL     OW 1897   1.573   3.082   1.545 -0.2790 -0.0902  0.2024
  475SOL    HW1 1898   1.509   3.057   1.470 -1.7875 -0.1008 -1.8282
  475SOL    HW2 1899   1.587   2.996   1.587  2.5296  1.0708  2.7239
  475SOL     MW 1900   1.566   3.067   1.541 -0.1074  0.0616  0.2672
  476SOL     OW 1901   1.435   2.669   1.205 -0.2992 -0.1358  0.2261
  476SOL    HW1 1902   1.383   2.705   1.138  1.0050 -1.4683 -0.1885
  476SOL    HW2 1903   1.511   2.724   1.213 -3.1789 -0.4447 -0.6321
  476SOL     MW 1904   1.438   2.681   1.197 -0.5071 -0.3524  0.0582
  477SOL     OW 1905   0.877   2.501   0.671 -0.1495 -1.0203 -0.4797
  477SOL    HW1 1906   0.937   2.579   0.651 -2.2030  1.0377  0.3161
  477SOL    HW2 1907   0.859   2.452   0.593 -2.0585 -1.0523 -1.3211
  477SOL     MW 1908   0.882   2.505   0.658 -0.6723 -0.7530 -0.4857
  478SOL     OW 1909   0.195   2.660   0.843 -0.4565  0.4636 -0.1445
  478SOL    HW1 1910   0.246   2.738   0.829 -1.1017  1.7023 -1.4470
  478SOL    HW2 1911   0.254   2.581   0.834 -2.0049  0.2172  0.6053
  478SOL     MW 1912   0.209   2.660   0.840 -0.7460  0.5945 -0.2174
  479SOL     OW 1913   1.409   1.989   1.299  0.1420 -0.4039 -0.0489
  479SOL    HW1 1914   1.388   2.007   1.394 -1.7900 -0.2260 -1.3425
  479SOL    HW2 1915   1.446   1.898   1.290 -1.3524  0.3316  1.1989
  479SOL     MW 1916   1.411   1.980   1.311 -0.3101 -0.2834 -0.0549
  480SOL     OW 1917   1.919   2.445   1.347 -0.6348  0.1349  0.1494
  480SOL    HW1 1918   1.948   2.373   1.392 -1.1268  2.5624 -0.7214
  480SOL    HW2 1919   1.918   2.421   1.255 -2.3147 -0.5190 -0.5607
  480SOL     MW 1920   1.923   2.433   1.341 -0.9214  0.3689 -0.0592
  481SOL     OW 1921   1.076   0.063   1.112  0.0683  0.1692 -0.0046
  481SOL    HW1 1922   1.075   0.016   1.033 -0.3501 -0.0989  0.4962
  481SOL    HW2 1923   1.154   0.119   1.116  1.4167 -2.9631 -0.4116
  481SOL     MW 1924   1.086   0.064   1.102  0.1910 -0.2795  0.0078
  482SOL     OW 1925   1.075   3.096   0.242  0.4752 -0.0410  0.2454
  482SOL    HW1 1926   1.036   3.030   0.293  0.7772 -1.1534 -2.9520
  482SOL    HW2 1927   1.066   3.179   0.294  0.6560  1.3025 -1.3947
  482SOL     MW 1928   1.068   3.098   0.255  0.5389 -0.0105 -0.3928
  483SOL     OW 1929   0.495   3.018   0.449  0.6286  0.2717 -0.8133
  483SOL    HW1 1930   0.425   3.000   0.388 -1.0950 -0.3858  1.5762
  483SOL    HW2 1931   0.460   3.048   0.536 -1.4109 -0.9741 -0.1207
  483SOL     MW 1932   0.481   3.020   0.452  0.1321  0.0206 -0.4066
  484SOL     OW 1933   1.869   2.037   1.433  0.7936 -0.2333  0.0445
  484SOL    HW1 1934   1.941   2.106   1.430  0.9480  0.3600  1.8667
  484SOL    HW2 1935   1.831   2.033   1.522 -0.4238  0.5962  1.1464
  484SOL     MW 1936   1.874   2.045   1.445  0.6533 -0.0456  0.4303
  485SOL     OW 1937   0.632   2.418   0.270 -0.1089 -0.2625 -0.6371
  485SOL    HW1 1938   0.663   2.387   0.362 -0.0659  3.2763  0.8517
  485SOL    HW2 1939   0.555   2.475   0.290  1.3443  1.9410 -1.3390
  485SOL     MW 1940   0.626   2.421   0.285  0.0885  0.4952 -0.5333
  486SOL     OW 1941   0.150   2.384   1.486 -0.5474  0.6278 -0.3211
  486SOL    HW1 1942   0.195   2.447   1.432  0.3987 -0.6985 -0.3987
  486SOL    HW2 1943   0.169   2.401   1.579  2.8232 -0.0931  0.1348
  486SOL     MW 1944   0.158   2.395   1.491  0.0222  0.3577 -0.2712
  487SOL     OW 1945   1.153   1.740   1.057 -0.5980 -0.3072  0.3624
  487SOL    HW1 1946   1.164   1.816   1.103  0.3177 -2.3399 -3.5628
  487SOL    HW2 1947   1.246   1.708   1.038  1.1489 -0.7995  0.2089
  487SOL     MW 1948   1.167   1.746   1.060 -0.2467 -0.6403 -0.1758
  488SOL     OW 1949   1.633   1.867   0.507  0.4633  0.3102 -0.5621
  488SOL    HW1 1950   1.702   1.860   0.437 -1.9155  1.2529 -2.1137
  488SOL    HW2 1951   1.584   1.946   0.483  0.4183 -0.0017 -0.7169
  488SOL     MW 1952   1.636   1.877   0.495  0.1435  0.3934 -0.7872
  489SOL     OW 1953   0.783   0.818   0.589  0.2050 -0.1631  0.4058
  489SOL    HW1 1954   0.772   0.726   0.561 -3.0256  2.9178  1.0709
  489SOL    HW2 1955   0.777   0.806   0.683  0.1855  0.0132 -1.7722
  489SOL     MW 1956   0.780   0.805   0.598 -0.2238  0.2667  0.2062
  490SOL     OW 1957   1.442   2.089   0.457  0.4332  0.1059 -0.3495
  490SOL    HW1 1958   1.485   2.164   0.415  0.4748 -1.3316  1.4564
  490SOL    HW2 1959   1.348   2.092   0.436 -1.2736  0.3370 -0.6648
  490SOL     MW 1960   1.435   2.099   0.448  0.2135 -0.0533 -0.1528
  491SOL     OW 1961   1.325   3.032   0.431  0.0831 -0.0247  0.8593
  491SOL    HW1 1962   1.415   3.080   0.433  3.3272  0.3734 -4.1799
  491SOL    HW2 1963   1.274   3.091   0.374  0.3199 -0.5399 -1.4831
  491SOL     MW 1964   1.330   3.046   0.423  0.5424 -0.0402 -0.1146
  492SOL     OW 1965   1.483   2.197   0.733 -0.1823 -0.2723 -0.1434
  492SOL    HW1 1966   1.439   2.157   0.654  0.5167 -0.0254 -4.4011
  492SOL    HW2 1967   1.437   2.173   0.816 -1.0382  1.3489 -1.5886
  492SOL     MW 1968   1.471   2.188   0.733 -0.2030 -0.0258 -0.8958
  493SOL     OW 1969   0.283   2.981   0.266  0.4848 -0.1272 -0.3347
  493SOL    HW1 1970   0.232   3.007   0.345 -1.7913 -1.1896 -1.6529
  493SOL    HW2 1971   0.274   3.053   0.199 -1.6148 -0.1008  0.3677
  493SOL     MW 1972   0.275   2.994   0.268 -0.0925 -0.2639 -0.4160
  494SOL     OW 1973   0.464   2.434   1.756  0.0123  0.4010 -0.4032
  494SOL    HW1 1974   0.466   2.338   1.745 -1.9399  0.7998 -1.3605
  494SOL    HW2 1975   0.479   2.473   1.664  2.3998 -0.2280  2.2619
  494SOL     MW 1976   0.466   2.426   1.742  0.0697  0.3706 -0.1779
  495SOL     OW 1977   2.826   1.764   2.566 -0.1988 -0.0509  0.1771
  495SOL    HW1 1978   2.781   1.845   2.571 -1.1131  1.0027  0.8817
  495SOL    HW2 1979   2.804   1.710   2.637  2.5066  0.3527 -2.9701
  495SOL     MW 1980   2.817   1.768   2.576  0.0375  0.1414 -0.1452
  496SOL     OW 1981   2.887   2.334   2.644 -0.3561  0.1667 -0.0219
  496SOL    HW1 1982   2.940   2.282   2.705 -0.2146  2.2516 -2.3246
  496SOL    HW2 1983   2.931   2.421   2.651 -0.4751  0.4317  0.8667
  496SOL     MW 1984   2.900   2.339   2.653 -0.3531  0.4768 -0.2085
  497SOL     OW 1985   1.546   2.207   2.685  0.1013  0.2656  0.0396
  497SOL    HW1 1986   1.485   2.150   2.634  1.0281 -0.4800 -1.3957
  497SOL    HW2 1987   1.573   2.151   2.759 -0.1102  3.6801  0.0450
  497SOL     MW 1988   1.542   2.192   2.688  0.1957  0.6178 -0.1491
  498SOL     OW 1989   1.472   2.683   2.348 -0.5261 -0.5106 -0.1953
  498SOL    HW1 1990   1.454   2.587   2.347  2.0555 -1.1198  0.7292
  498SOL    HW2 1991   1.565   2.692   2.358 -2.6240  0.3095  1.8953
  498SOL     MW 1992   1.482   2.672   2.349 -0.4622 -0.4828  0.2025
  499SOL     OW 1993   0.971   0.164   3.082  0.2511 -0.4934 -0.2127
  499SOL    HW1 1994   0.918   0.186   3.158 -0.7726  0.5483  0.5878
  499SOL    HW2 1995   1.029   0.093   3.102  2.6016  4.2922 -1.2695
  499SOL     MW 1996   0.972   0.158   3.095  0.4262  0.2755 -0.2465
  500SOL     OW 1997   1.009   2.512   2.780 -0.2127  0.6018 -0.1221
  500SOL    HW1 1998   1.078   2.507   2.851 -0.8947  1.4633  1.1594
  500SOL    HW2 1999   0.934   2.485   2.838 -0.0532 -0.5712  1.6018
  500SOL     MW 2000   1.008   2.508   2.797 -0.2816  0.5607  0.2744
  501SOL     OW 2001   1.762   2.189   3.052 -0.2511 -0.4426 -0.2457
  501SOL    HW1 2002   1.740   2.278   3.071  2.3705  0.6463  3.0267
  501SOL    HW2 2003   1.854   2.185   3.071  0.4993 -1.2745 -0.4257
  501SOL     MW 2004   1.771   2.200   3.057  0.1938 -0.4087  0.1623
  502SOL     OW 2005   0.123   2.806   2.973  0.2191 -0.2952 -1.1437
  502SOL    HW1 2006   0.052   2.752   2.940  1.0779 -0.6856 -0.2052
  502SOL    HW2 2007   0.178   2.839   2.905  1.7306 -0.4452  2.6110
  502SOL     MW 2008   0.121   2.803   2.959  0.5318 -0.3665 -0.5245
  503SOL     OW 2009   1.060   2.931   2.170  0.8247  0.2107  0.2872
  503SOL    HW1 2010   1.001   2.902   2.099 -2.5121  2.2251  1.5040
  503SOL    HW2 2011   1.040   3.028   2.175  1.6588  0.0653 -2.6839
  503SOL     MW 2012   1.050   2.940   2.161  0.4945  0.4573  0.0558
  504SOL     OW 2013   0.138   2.706   2.118 -0.0868  0.0035 -0.1847
  504SOL    HW1 2014   0.158   2.615   2.093 -1.2545  2.5511  0.1173
  504SOL    HW2 2015   0.043   2.708   2.097  2.6247 -2.7510 -0.9811
  504SOL     MW 2016   0.128   2.695   2.112  0.1169 -0.0238 -0.2499
  505SOL     OW 2017   1.718   2.701   2.699  0.0116 -0.3622  0.3771
  505SOL    HW1 2018   1.685   2.683   2.607  1.6519 -2.3151 -0.6117
  505SOL    HW2 2019   1.639   2.709   2.758 -3.1983  4.7913 -1.2745
  505SOL     MW 2020   1.703   2.700   2.694 -0.1955  0.0601  0.0287
  506SOL     OW 2021   1.649   3.000   2.873  0.3492  0.1503  0.1108
  506SOL    HW1 2022   1.672   2.944   2.946  1.7769  1.3724 -0.2728
  506SOL    HW2 2023   1.716   2.986   2.805  0.3012  0.4343 -0.3070
  506SOL     MW 2024   1.661   2.991   2.873  0.5312  0.3490  0.0050
  507SOL     OW 2025   0.785   2.865   2.921 -0.0533  0.4411  0.5512
  507SOL    HW1 2026   0.835   2.900   2.847  0.9763 -2.3729 -1.5070
  507SOL    HW2 2027   0.698   2.906   2.911  2.5683 -1.5154  0.3901
  507SOL     MW 2028   0.780   2.875   2.910  0.4284 -0.1883  0.2584
  508SOL     OW 2029   1.100   2.083   2.467 -0.1135 -0.2972 -0.5174
  508SOL    HW1 2030   1.165   2.094   2.534 -1.2508 -0.0673 -1.0194
  508SOL    HW2 2031   1.046   2.163   2.489  2.0515  0.9766  0.0312
  508SOL     MW 2032   1.102   2.095   2.478  0.0221 -0.0988 -0.5112
  509SOL     OW 2033   0.571   2.559   2.894 -0.2550  0.7659 -0.1080
  509SOL    HW1 2034   0.596   2.546   2.797 -1.8604 -2.2754 -1.1761
  509SOL    HW2 2035   0.494   2.503   2.918  1.5000 -2.2783 -0.3979
  509SOL     MW 2036   0.564   2.550   2.884 -0.2353 -0.0370 -0.2872
  510SOL     OW 2037   1.475   2.523   1.738  0.3126 -0.9111 -0.2529
  510SOL    HW1 2038   1.478   2.615   1.768 -1.4546 -0.4739 -0.2055
  510SOL    HW2 2039   1.401   2.484   1.791 -1.1273 -0.7710 -3.3312
  510SOL     MW 2040   1.466   2.530   1.749 -0.1105 -0.8349 -0.6528
  511SOL     OW 2041   0.411   2.603   2.491  0.1294  0.5380  0.1051
  511SOL    HW1 2042   0.502   2.588   2.517 -0.6817  2.3141 -1.2745
  511SOL    HW2 2043   0.423   2.622   2.392  1.7778 -1.5616  0.1073
  511SOL     MW 2044   0.425   2.604   2.481  0.2399  0.4953 -0.0766
  512SOL     OW 2045   1.001   1.945   2.809 -0.3057 -0.7962 -0.5141
  512SOL    HW1 2046   0.909   1.925   2.828 -0.2890 -2.1894 -0.6553
  512SOL    HW2 2047   1.045   1.865   2.839 -0.2107 -0.6702  0.1590
  512SOL     MW 2048   0.995   1.932   2.815 -0.2910 -0.9634 -0.4439
  513SOL     OW 2049   1.462   2.383   2.366  0.0960  0.4405 -0.1757
  513SOL    HW1 2050   1.553   2.389   2.391 -0.6369 -1.8409  0.1613
  513SOL    HW2 2051   1.444   2.291   2.379  2.6604 -0.3383 -0.0609
  513SOL     MW 2052   1.471   2.372   2.371  0.3377  0.0367 -0.1161
  514SOL     OW 2053   0.246   2.415   2.605 -0.4127 -0.6347  0.1440
  514SOL    HW1 2054   0.299   2.484   2.565  0.4178 -1.0593  1.5848
  514SOL    HW2 2055   0.250   2.422   2.698 -2.1244  1.0439  1.7027
  514SOL     MW 2056   0.253   2.425   2.612 -0.5290 -0.4692  0.5398
  515SOL     OW 2057   1.185   2.064   1.913  0.5564 -0.2637  0.1561
  515SOL    HW1 2058   1.150   2.154   1.917 -3.4235  0.6430  0.2642
  515SOL    HW2 2059   1.178   2.041   2.007  0.2455 -1.5672  2.9060
  515SOL     MW 2060   1.180   2.073   1.926 -0.0097 -0.3161  0.5332
  516SOL     OW 2061   1.440   2.486   3.057 -0.4459 -0.5579 -0.7902
  516SOL    HW1 2062   1.502   2.463   2.987 -0.8084 -0.0529  1.6009
  516SOL    HW2 2063   1.351   2.484   3.017  2.5198  0.8566 -1.3014
  516SOL     MW 2064   1.436   2.483   3.043 -0.1024 -0.3047 -0.5422
  517SOL     OW 2065   0.588   2.413   2.080  0.6613  0.1100 -0.2420
  517SOL    HW1 2066   0.555   2.502   2.081  1.4020 -3.8634  0.9133
  517SOL    HW2 2067   0.504   2.370   2.044 -2.6189  0.9648  1.1588
  517SOL     MW 2068   0.572   2.419   2.075  0.3262 -0.3015  0.0952
  518SOL     OW 2069   1.885   0.075   3.021  0.3072  0.0795  0.1573
  518SOL    HW1 2070   1.868   0.143   2.952  1.8513 -0.8420  0.6307
  518SOL    HW2 2071   1.829   0.091   3.102 -1.3003 -0.7162 -0.5093
  518SOL     MW 2072   1.875   0.086   3.023  0.2988 -0.1471  0.1318
  519SOL     OW 2073   0.719   2.537   1.815 -0.4622 -0.4376  0.4844
  519SOL    HW1 2074   0.744   2.438   1.813 -1.6802  2.2772  0.2796
  519SOL    HW2 2075   0.621   2.549   1.787  0.9651 -0.5223 -2.6046
  519SOL     MW 2076   0.709   2.526   1.811 -0.4346 -0.0906  0.0498
  520SOL     OW 2077   1.175   2.162   2.900 -0.0137  0.1968  0.0209
  520SOL    HW1 2078   1.109   2.095   2.885  0.4789  2.0643 -1.4915
  520SOL    HW2 2079   1.237   2.110   2.954 -2.5981  0.5133  0.7064
  520SOL     MW 2080   1.175   2.146   2.905 -0.2897  0.4850 -0.0882
  521SOL     OW 2081   1.756   1.995   2.228  0.9380 -0.5684  0.2946
  521SOL    HW1 2082   1.777   2.026   2.140 -1.0349  0.4934  0.9321
  521SOL    HW2 2083   1.753   1.900   2.221  0.6459  1.2496 -2.1912
  521SOL     MW 2084   1.758   1.987   2.216  0.6392 -0.1884  0.0507
  522SOL     OW 2085   2.886   2.609   2.238  0.0149 -0.3989 -0.0007
  522SOL    HW1 2086   2.949   2.537   2.268  0.1895 -0.3252  0.2845
  522SOL    HW2 2087   2.818   2.587   2.300  1.2146 -1.8275 -0.0815
  522SOL     MW 2088   2.885   2.597   2.250  0.1962 -0.5777  0.0263
  523SOL     OW 2089   0.834   1.513   2.103 -0.0961  0.2596 -0.4213
  523SOL    HW1 2090   0.831   1.579   2.032  0.3778 -1.0700 -0.9071
  523SOL    HW2 2091   0.880   1.437   2.060 -1.6171 -1.3328 -0.2214
  523SOL     MW 2092   0.840   1.511   2.088 -0.2343 -0.1260 -0.4590
  524SOL     OW 2093   0.823   2.440   2.961  0.5124 -0.6518  0.3528
  524SOL    HW1 2094   0.748   2.488   2.931 -1.8742 -1.5954 -0.1789
  524SOL    HW2 2095   0.797   2.356   2.927 -1.5364  1.2126 -0.7191
  524SOL     MW 2096   0.809   2.436   2.953 -0.0728 -0.5303  0.1412
  525SOL     OW 2097   0.340   2.283   2.019 -0.2343 -0.6446 -0.2640
  525SOL    HW1 2098   0.360   2.233   2.098 -0.8400  0.9401  3.0205
  525SOL    HW2 2099   0.350   2.222   1.948 -0.0862 -1.3969 -1.1899
  525SOL     MW 2100   0.344   2.268   2.020 -0.2946 -0.5348  0.0472
  526SOL     OW 2101   0.641   2.129   2.087  0.4223  0.0111 -0.4392
  526SOL    HW1 2102   0.646   2.192   2.014 -0.1883  1.2872 -0.5427
  526SOL    HW2 2103   0.642   2.182   2.168  0.7351 -1.8461 -0.0561
  526SOL     MW 2104   0.642   2.144   2.088  0.3830 -0.0656 -0.4023
  527SOL     OW 2105   1.409   1.981   2.159 -0.4718 -0.0826 -0.0162
  527SOL    HW1 2106   1.339   1.946   2.209  0.5920  0.2103 -2.8747
  527SOL    HW2 2107   1.432   1.909   2.099  0.2199  0.9800  0.0720
  527SOL     MW 2108   1.402   1.967   2.158 -0.2402  0.0963 -0.3817
  528SOL     OW 2109   0.597   3.050   2.931 -0.2030  0.8118 -0.0022
  528SOL    HW1 2110   0.680   3.094   2.903 -0.3494  0.2087 -1.8206
  528SOL    HW2 2111   0.552   3.026   2.847 -1.9146  2.2699  1.4095
  528SOL     MW 2112   0.602   3.053   2.916 -0.4481  0.9246 -0.0558
  529SOL     OW 2113   1.031   2.289   1.947  0.8423  0.3663 -0.2700
  529SOL    HW1 2114   1.001   2.349   2.015  2.0000  2.3627  0.7908
  529SOL    HW2 2115   1.065   2.348   1.879 -0.5891  0.2672  2.3060
  529SOL     MW 2116   1.032   2.305   1.947  0.8062  0.6166  0.2099
  530SOL     OW 2117   1.166   2.438   2.995  0.0009 -0.2808 -0.2094
  530SOL    HW1 2118   1.132   2.465   3.083 -0.1534  1.5390  0.9270
  530SOL    HW2 2119   1.150   2.346   2.975 -2.6449 -0.0847  1.0606
  530SOL     MW 2120   1.159   2.430   3.004 -0.3685 -0.0148  0.1081
  531SOL     OW 2121   0.958   1.885   2.553  0.4447  0.2530 -0.3594
  531SOL    HW1 2122   0.996   1.962   2.512 -0.6738  1.7950 -1.9844
  531SOL    HW2 2123   0.931   1.915   2.645 -2.5492  1.6700  2.9808
  531SOL     MW 2124   0.960   1.899   2.560 -0.0979  0.6434 -0.1331
  532SOL     OW 2125   1.779   0.216   2.785  0.6196  0.4060  0.6109
  532SOL    HW1 2126   1.751   0.144   2.724 -0.7057 -0.1068 -1.4362
  532SOL    HW2 2127   1.833   0.279   2.739  0.2017  0.1012  3.0372
  532SOL     MW 2128   1.782   0.215   2.771  0.3896  0.2981  0.6609
  533SOL     OW 2129   1.968   2.527   0.014  0.1446 -0.5718  0.1775
  533SOL    HW1 2130   1.899   2.476   0.062  0.8501 -1.5053  0.3086
  533SOL    HW2 2131   1.916   2.601  -0.018 -2.4201  0.5898  0.5186
  533SOL     MW 2132   1.952   2.530   0.016 -0.1007 -0.5417  0.2398
  534SOL     OW 2133   1.702   2.386   2.528 -0.0718  0.5429  0.3950
  534SOL    HW1 2134   1.644   2.323   2.574 -0.2477 -2.0765  1.5812
  534SOL    HW2 2135   1.791   2.391   2.570  0.4571 -0.0091  0.2514
  534SOL     MW 2136   1.706   2.378   2.540 -0.0253  0.1245  0.5326
  535SOL     OW 2137   1.886   2.355   1.876 -0.4842 -0.6662  0.0792
  535SOL    HW1 2138   1.840   2.365   1.792  1.1728 -0.5526  2.5847
  535SOL    HW2 2139   1.981   2.337   1.856 -0.5645  0.1775  3.2661
  535SOL     MW 2140   1.893   2.354   1.863 -0.2762 -0.5399  0.8302
  536SOL     OW 2141   0.490   1.883   2.110 -0.1085  0.1868  0.1361
  536SOL    HW1 2142   0.458   1.842   2.025 -1.7606 -1.5288 -2.3307
  536SOL    HW2 2143   0.528   1.966   2.085 -1.0328 -1.1336 -1.6081
  536SOL     MW 2144   0.491   1.889   2.096 -0.4484 -0.2138 -0.4195
  537SOL     OW 2145   1.047   0.302   2.767 -0.2394  0.1598  0.2146
  537SOL    HW1 2146   1.066   0.345   2.844 -1.7405  0.5005 -2.2162
  537SOL    HW2 2147   1.070   0.365   2.702  0.8738 -1.5833  1.2732
  537SOL     MW 2148   1.052   0.316   2.768 -0.2906 -0.0252  0.0336
  538SOL     OW 2149   1.427   0.072   0.034 -0.5463 -0.0787 -0.4521
  538SOL    HW1 2150   1.396   0.159   0.010  1.6681  0.7385 -0.7787
  538SOL    HW2 2151   1.354   0.010   0.028  1.5976  0.3442 -3.4845
  538SOL     MW 2152   1.413   0.075   0.030  0.0287  0.0849 -0.8953
  539SOL     OW 2153   0.735   2.860   2.602 -0.3117  0.1655 -0.2962
  539SOL    HW1 2154   0.815   2.906   2.631  0.4214 -1.7572  0.2137
  539SOL    HW2 2155   0.729   2.777   2.639 -2.1859 -1.2835  0.3412
  539SOL     MW 2156   0.744   2.855   2.610 -0.4623 -0.2794 -0.1448
  540SOL     OW 2157   0.301   2.444   2.875  0.1273  0.6796 -0.1765
  540SOL    HW1 2158   0.288   2.505   2.943  0.1703 -0.6462 -0.7884
  540SOL    HW2 2159   0.272   2.359   2.914 -2.6802  1.8395  0.2637
  540SOL     MW 2160   0.295   2.441   2.889 -0.2374  0.6577 -0.1991
  541SOL     OW 2161   0.270   2.941   2.107  0.3762  0.0968 -0.0484
  541SOL    HW1 2162   0.224   2.855   2.110 -0.7743 -0.0955  1.3882
  541SOL    HW2 2163   0.334   2.924   2.174 -0.7754  1.8856  1.3769
  541SOL     MW 2164   0.272   2.928   2.116  0.0724  0.3075  0.3292
  542SOL     OW 2165   0.959   2.254   2.630 -0.3832 -0.2233  0.6832
  542SOL    HW1 2166   0.906   2.204   2.693 -1.5978  0.2133  2.9778
  542SOL    HW2 2167   0.989   2.335   2.677 -0.2939 -0.5297  1.2582
  542SOL     MW 2168   0.956   2.258   2.644 -0.5317 -0.2061  1.0618
  543SOL     OW 2169   1.618   2.462   2.847  0.5748  0.1028  0.4734
  543SOL    HW1 2170   1.618   2.407   2.773 -0.1830 -1.5410 -0.0933
  543SOL    HW2 2171   1.670   2.539   2.821 -0.9689  0.9373  1.7624
  543SOL     MW 2172   1.625   2.465   2.834  0.2711 -0.0040  0.5687
  544SOL     OW 2173   0.657   0.314   2.720 -0.2178  0.2001  0.0879
  544SOL    HW1 2174   0.573   0.304   2.772 -3.0623 -1.0607  1.0926
  544SOL    HW2 2175   0.665   0.242   2.656 -3.3298  0.0586  1.2162
  544SOL     MW 2176   0.647   0.303   2.719 -1.0037  0.0151  0.3694
  545SOL     OW 2177   1.546   2.119   2.365  0.1391  0.1075  0.8649
  545SOL    HW1 2178   1.503   2.083   2.287  1.2966  1.8064  0.8050
  545SOL    HW2 2179   1.624   2.076   2.348 -0.0773 -1.2642  0.6445
  545SOL     MW 2180   1.551   2.109   2.352  0.2632  0.1507  0.8279
  546SOL     OW 2181   2.917   1.970   0.156 -0.0343 -0.0782  0.1548
  546SOL    HW1 2182   2.898   2.057   0.117  0.5745 -0.4997  0.7833
  546SOL    HW2 2183   3.001   1.950   0.116  1.3454  1.9266  0.0713
  546SOL     MW 2184   2.925   1.979   0.145  0.2280  0.1307  0.2267
  547SOL     OW 2185   0.194   0.058   0.092 -0.6506  0.2283  0.0524
  547SOL    HW1 2186   0.275   0.082   0.037  2.3925 -1.5475  1.2136
  547SOL    HW2 2187   0.127   0.026   0.037 -0.3179 -0.6802  1.7629
  547SOL     MW 2188   0.196   0.057   0.077 -0.2052 -0.1258  0.4313
  548SOL     OW 2189   0.372   2.574   0.257  0.0493  0.0039  0.3344
  548SOL    HW1 2190   0.356   2.587   0.162 -0.9369  0.6206 -0.4237
  548SOL    HW2 2191   0.284   2.552   0.292 -3.0227 -1.8790  0.4697
  548SOL     MW 2192   0.359   2.573   0.249 -0.4861 -0.1632  0.2522
  549SOL     OW 2193   0.840   1.928   2.148 -0.4745  0.1369  0.5254
  549SOL    HW1 2194   0.786   2.004   2.117 -1.2488  4.6852  3.4071
  549SOL    HW2 2195   0.814   1.927   2.241  0.3343 -0.8494  0.7905
  549SOL     MW 2196   0.829   1.938   2.156 -0.4699  0.6068  0.9406
  550SOL     OW 2197   1.795   1.633   2.533 -0.5642  0.5747 -0.1121
  550SOL    HW1 2198   1.812   1.647   2.443  1.5924  1.7295  0.4333
  550SOL    HW2 2199   1.794   1.725   2.563  1.3452  0.2197 -3.4865
  550SOL     MW 2200   1.797   1.647   2.525 -0.0277  0.6802 -0.4854
  551SOL     OW 2201   0.915   2.233   0.218  0.1382 -0.0825  0.4344
  551SOL    HW1 2202   1.012   2.253   0.218 -1.3610  2.3657  2.3321
  551SOL    HW2 2203   0.897   2.185   0.140 -2.3349 -1.4130 -0.1610
  551SOL     MW 2204   0.926   2.230   0.208 -0.3859  0.0650  0.6062
  552SOL     OW 2205   1.764   1.701   2.223  0.4618 -0.5905 -0.6957
  552SOL    HW1 2206   1.677   1.659   2.237 -3.5264  1.7231  1.7396
  552SOL    HW2 2207   1.819   1.665   2.155  3.2723 -0.3365  0.5916
  552SOL     MW 2208   1.760   1.691   2.216  0.3064 -0.2517 -0.2046
  553SOL     OW 2209   1.251   2.297   1.602  0.0018 -0.4961  0.8936
  553SOL    HW1 2210   1.306   2.221   1.612 -0.6100 -0.2433 -0.4108
  553SOL    HW2 2211   1.313   2.361   1.549 -0.2893 -0.9224  0.7234
  553SOL     MW 2212   1.267   2.295   1.596 -0.1173 -0.5190  0.6991
  554SOL     OW 2213   0.503   2.976   2.672  0.2147  0.0221 -0.1799
  554SOL    HW1 2214   0.486   3.037   2.604  0.2778 -0.9132 -1.0865
  554SOL    HW2 2215   0.593   2.941   2.651 -0.3902 -0.1178  0.5818
  554SOL     MW 2216   0.512   2.979   2.661  0.1432 -0.1198 -0.1990
  555SOL     OW 2217   0.652   2.534   2.642  0.2948  0.2029  0.1164
  555SOL    HW1 2218   0.627   2.441   2.631  0.7912 -3.4337 -0.1085
  555SOL    HW2 2219   0.734   2.536   2.591  1.0760  0.2648  0.0602
  555SOL     MW 2220   0.660   2.522   2.634  0.4634 -0.2688  0.0793
  556SOL     OW 2221   1.039   1.821   0.063 -0.2646 -0.1605  0.5094
  556SOL    HW1 2222   1.056   1.807  -0.030 -0.3235 -1.1221 -0.3926
  556SOL    HW2 2223   1.128   1.832   0.098 -1.0569 -4.2961 -1.2282
  556SOL     MW 2224   1.053   1.820   0.055 -0.3769 -0.8331  0.1611
  557SOL     OW 2225   1.037   2.702   0.591  0.1645 -0.4180 -0.5666
  557SOL    HW1 2226   1.098   2.665   0.528  3.6189 -0.9299 -0.1698
  557SOL    HW2 2227   0.990   2.760   0.537  0.3290  2.3955  1.0255
  557SOL     MW 2228   1.039   2.705   0.576  0.6420 -0.1143 -0.3041
  558SOL     OW 2229   0.202   2.223   3.001 -0.3961 -0.3945 -0.4341
  558SOL    HW1 2230   0.247   2.160   3.054 -2.1793 -1.6407 -0.0875
  558SOL    HW2 2231   0.145   2.267   3.072 -2.6834  1.3444  2.2020
  558SOL     MW 2232   0.201   2.221   3.018 -0.9331 -0.3295 -0.0405
  559SOL     OW 2233   1.054   2.280   2.246  0.3908 -0.5045 -0.1766
  559SOL    HW1 2234   1.136   2.310   2.214  1.2109 -2.8018 -0.1204
  559SOL    HW2 2235   1.058   2.191   2.213 -1.3649 -0.7658 -0.3278
  559SOL     MW 2236   1.066   2.272   2.237  0.2674 -0.8421 -0.1892
  560SOL     OW 2237   2.161   2.654   0.149 -0.4645 -0.3695  0.3125
  560SOL    HW1 2238   2.183   2.736   0.102  3.7904 -1.4084 -2.4214
  560SOL    HW2 2239   2.101   2.606   0.091 -0.9833  1.1115  0.8319
  560SOL     MW 2240   2.156   2.659   0.135  0.0284 -0.3112  0.0203
  561SOL     OW 2241   0.494   2.204   0.162  0.0973 -0.1009 -0.3214
  561SOL    HW1 2242   0.545   2.213   0.083 -0.8270 -0.9522 -1.4776
  561SOL    HW2 2243   0.516   2.278   0.220  0.8706  1.4656 -0.7699
  561SOL     MW 2244   0.503   2.215   0.160  0.0774 -0.0065 -0.5331
  562SOL     OW 2245   0.654   2.339   2.363 -0.4684  0.2868 -0.2025
  562SOL    HW1 2246   0.640   2.407   2.299  2.8231  2.5022 -0.1180
  562SOL    HW2 2247   0.736   2.385   2.398 -0.3622  1.4570 -2.6816
  562SOL     MW 2248   0.663   2.354   2.359 -0.0201  0.7335 -0.5184
  563SOL     OW 2249   1.262   0.369   0.574 -0.2359 -0.4564 -0.2041
  563SOL    HW1 2250   1.201   0.315   0.522 -1.8159 -2.5412  2.8762
  563SOL    HW2 2251   1.251   0.350   0.674  0.1529 -2.5508  2.3876
  563SOL     MW 2252   1.253   0.360   0.581 -0.3931 -1.0078  0.5443
  564SOL     OW 2253   0.987   2.741   2.355 -0.6675  0.1690  0.3611
  564SOL    HW1 2254   1.035   2.805   2.307  0.1487 -1.1760  1.3035
  564SOL    HW2 2255   1.028   2.739   2.449 -1.6158  1.3358 -2.7802
  564SOL     MW 2256   0.999   2.749   2.361 -0.6849  0.1455  0.0710
  565SOL     OW 2257   2.756   2.782   2.616 -0.0640 -0.8654  0.0160
  565SOL    HW1 2258   2.734   2.863   2.571  1.9495  1.0504  1.0404
  565SOL    HW2 2259   2.747   2.725   2.544  2.0101 -3.6507 -2.7704
  565SOL     MW 2260   2.752   2.785   2.601  0.4753 -0.9801 -0.2165
  566SOL     OW 2261   2.182   1.913   2.370 -0.1111 -0.4315 -0.5554
  566SOL    HW1 2262   2.164   1.888   2.277 -0.3347  1.0309  1.2257
  566SOL    HW2 2263   2.250   1.984   2.365 -1.8428 -2.3555 -0.7026
  566SOL     MW 2264   2.188   1.919   2.357 -0.3691 -0.4924 -0.3398
  567SOL     OW 2265   1.188   3.039   0.003  0.1302  0.7184 -0.1046
  567SOL    HW1 2266   1.168   3.044   0.097  0.6929  2.5399 -1.0082
  567SOL    HW2 2267   1.237   2.950  -0.015 -0.6748 -1.9523 -1.0317
  567SOL     MW 2268   1.192   3.028   0.013  0.0982  0.6064 -0.3461
  568SOL     OW 2269   1.645   2.037   2.863  0.2214 -0.2866  0.0023
  568SOL    HW1 2270   1.702   2.082   2.925  0.4675  0.6536  0.7669
  568SOL    HW2 2271   1.687   1.969   2.812 -0.7268  1.8800 -1.6836
  568SOL     MW 2272   1.658   2.034   2.864  0.1287  0.1233 -0.1192
  569SOL     OW 2273   0.132   2.246   2.416  0.0459  0.5108  0.2741
  569SOL    HW1 2274   0.052   2.283   2.385  1.4876 -2.9924  2.2767
  569SOL    HW2 2275   0.168   2.309   2.482  1.6942  0.2446 -1.4915
  569SOL     MW 2276   0.126   2.259   2.421  0.4536  0.0135  0.3054
  570SOL     OW 2277   1.509   0.320   0.455  0.0490  0.1686 -0.3422
  570SOL    HW1 2278   1.424   0.337   0.505  0.6734 -1.7766  2.3383
  570SOL    HW2 2279   1.587   0.343   0.519  1.6843  1.1635 -0.1077
  570SOL     MW 2280   1.508   0.325   0.470  0.3471  0.0432  0.0424
  571SOL     OW 2281   1.340   2.350   2.128 -0.4992 -0.8297 -0.4465
  571SOL    HW1 2282   1.393   2.363   2.209  0.2400 -0.7346  0.6102
  571SOL    HW2 2283   1.377   2.273   2.082  0.3519  0.6904  2.1152
  571SOL     MW 2284   1.352   2.341   2.133 -0.2894 -0.6166  0.0309
  572SOL     OW 2285   1.102   2.595   0.107  0.0792  0.0164  0.2897
  572SOL    HW1 2286   1.087   2.680   0.069 -0.2714 -4.8059  2.9155
  572SOL    HW2 2287   1.007   2.567   0.128 -2.0703  1.8285  2.2403
  572SOL     MW 2288   1.088   2.603   0.105 -0.2507 -0.3808  0.8935
  573SOL     OW 2289   1.202   2.308   0.293 -0.3514  0.0876  0.0629
  573SOL    HW1 2290   1.278   2.311   0.232  0.2510  3.1709 -1.5275
  573SOL    HW2 2291   1.184   2.395   0.333 -1.2312  0.2891 -0.1358
  573SOL     MW 2292   1.209   2.320   0.290 -0.3880  0.5210 -0.1732
  574SOL     OW 2293   1.177   2.581   0.373  0.3820 -0.1701  0.0141
  574SOL    HW1 2294   1.248   2.648   0.372 -2.1410  0.9164 -1.3569
  574SOL    HW2 2295   1.145   2.583   0.285 -2.5768  1.2572  0.3895
  574SOL     MW 2296   1.182   2.590   0.361 -0.3413  0.1615 -0.1172
  575SOL     OW 2297   0.005   2.212   1.690  1.1928 -0.0585  0.7624
  575SOL    HW1 2298   0.039   2.143   1.631 -0.1909 -0.2241 -0.5017
  575SOL    HW2 2299   0.082   2.229   1.742  0.6041 -2.5364  1.0911
  575SOL     MW 2300   0.019   2.205   1.689  0.9325 -0.4073  0.6390
  576SOL     OW 2301   2.910   1.854   1.914 -0.5035 -0.2147  0.1095
  576SOL    HW1 2302   2.939   1.934   1.868 -1.5234  2.1694  0.2857
  576SOL    HW2 2303   2.836   1.805   1.871  2.7746 -0.5985  0.0405
  576SOL     MW 2304   2.904   1.858   1.903 -0.2055  0.0492  0.1236
  577SOL     OW 2305   2.146   0.168   0.051 -0.2272  0.1750  0.4408
  577SOL    HW1 2306   2.068   0.156   0.001 -0.1159 -0.4761  0.6771
  577SOL    HW2 2307   2.124   0.109   0.127 -0.0183 -1.5973 -0.5811
  577SOL     MW 2308   2.132   0.159   0.055 -0.1849 -0.1447  0.3371
  578SOL     OW 2309   1.982   2.111   2.353 -0.1836 -0.2919 -0.0617
  578SOL    HW1 2310   1.894   2.066   2.342 -3.3230  0.4957  0.3161
  578SOL    HW2 2311   2.048   2.035   2.376  1.9970 -1.1845  1.3150
  578SOL     MW 2312   1.979   2.095   2.355 -0.3101 -0.3058  0.1698
  579SOL     OW 2313   0.870   2.468   2.450  0.2609 -0.2508 -0.5825
  579SOL    HW1 2314   0.913   2.394   2.487 -0.8523 -3.1538  2.3391
  579SOL    HW2 2315   0.925   2.506   2.385  0.9121 -1.0097 -0.1058
  579SOL     MW 2316   0.883   2.464   2.447  0.1999 -0.7339 -0.1341
  580SOL     OW 2317   0.998   2.806   3.094 -0.5070 -0.3369 -0.2368
  580SOL    HW1 2318   1.010   2.883   3.040 -1.7142  0.5547  2.0472
  580SOL    HW2 2319   0.921   2.773   3.034  1.8155 -0.7448 -1.1217
  580SOL     MW 2320   0.989   2.812   3.079 -0.3598 -0.2731 -0.0522
  581SOL     OW 2321   1.100   2.461   1.747  0.5454 -0.5003 -0.5590
  581SOL    HW1 2322   1.152   2.501   1.820 -0.0431 -2.0192  1.4535
  581SOL    HW2 2323   1.157   2.400   1.698 -0.7020 -2.2859 -0.2564
  581SOL     MW 2324   1.114   2.458   1.750  0.3032 -0.9363 -0.2535
  582SOL     OW 2325   3.096   2.936   2.647 -0.1603 -0.3488 -0.0096
  582SOL    HW1 2326   3.036   2.988   2.708 -0.4309  0.9822 -2.0439
  582SOL    HW2 2327   3.180   2.934   2.688 -0.4896 -2.0473  1.5072
  582SOL     MW 2328   3.099   2.943   2.661 -0.2395 -0.3973 -0.0779
  583SOL     OW 2329   1.954   2.393   2.674  0.4914 -0.2803 -0.1769
  583SOL    HW1 2330   2.030   2.409   2.617  0.3602 -2.4215 -1.5738
  583SOL    HW2 2331   1.942   2.294   2.676  0.1655 -2.3439  0.0632
  583SOL     MW 2332   1.962   2.382   2.667  0.4311 -0.8351 -0.3296
  584SOL     OW 2333   0.195   1.874   2.185  0.6735 -0.2493 -0.3001
  584SOL    HW1 2334   0.171   1.882   2.283 -3.2112 -1.1758 -0.8723
  584SOL    HW2 2335   0.286   1.884   2.168 -0.2629  2.3962  0.3194
  584SOL     MW 2336   0.204   1.876   2.195  0.0374 -0.0225 -0.2938
  585SOL     OW 2337   1.552   2.633   0.173  0.1693 -0.9901  0.4292
  585SOL    HW1 2338   1.510   2.575   0.103  0.1676 -0.1859 -1.0307
  585SOL    HW2 2339   1.477   2.655   0.233  2.8040 -0.9637  0.2131
  585SOL     MW 2340   1.536   2.628   0.171  0.5167 -0.8805  0.2081
  586SOL     OW 2341   1.340   2.770   2.586 -0.0184 -0.1710 -0.1492
  586SOL    HW1 2342   1.382   2.720   2.517 -1.8508  2.3828  2.1137
  586SOL    HW2 2343   1.341   2.867   2.560 -1.0573  0.0044  2.2057
  586SOL     MW 2344   1.346   2.776   2.573 -0.3972  0.1891  0.4601
  587SOL     OW 2345   1.273   1.506   2.154  0.3662  0.4545 -0.0279
  587SOL    HW1 2346   1.271   1.417   2.185 -0.8629 -0.7624 -2.2459
  587SOL    HW2 2347   1.234   1.507   2.070  1.2977  2.2156  1.4292
  587SOL     MW 2348   1.268   1.495   2.147  0.3270  0.5263 -0.1283
  588SOL     OW 2349   1.301   2.043   2.653 -0.0955  0.2792 -0.3808
  588SOL    HW1 2350   1.362   1.980   2.693 -1.1355 -0.3346  1.0595
  588SOL    HW2 2351   1.256   2.079   2.729 -2.3561 -0.5388 -2.6627
  588SOL     MW 2352   1.303   2.040   2.668 -0.5310  0.0903 -0.4918
  589SOL     OW 2353   1.347   2.050   0.040 -0.5385 -0.0572 -0.1741
  589SOL    HW1 2354   1.351   2.141   0.071 -3.5090 -0.8873 -1.1147
  589SOL    HW2 2355   1.312   1.995   0.111 -0.1366 -0.6031  1.4907
  589SOL     MW 2356   1.343   2.054   0.054 -0.8774 -0.2388 -0.0785
  590SOL     OW 2357   0.475   2.675   2.228 -0.0859  0.2180 -0.4632
  590SOL    HW1 2358   0.443   2.691   2.134  0.4329 -1.6469  1.0535
  590SOL    HW2 2359   0.569   2.710   2.233  1.4207  2.9844 -0.9928
  590SOL     MW 2360   0.483   2.682   2.217  0.1813  0.3370 -0.3329
  591SOL     OW 2361   2.204   0.682   0.166  0.0643 -0.2242  0.1510
  591SOL    HW1 2362   2.146   0.710   0.235  1.4083  0.0296 -3.6006
  591SOL    HW2 2363   2.185   0.726   0.085 -1.2387 -0.9408  1.4588
  591SOL     MW 2364   2.194   0.691   0.164  0.0698 -0.2853 -0.1715
  592SOL     OW 2365   1.633   2.915   0.723  0.2154  0.6123 -0.0850
  592SOL    HW1 2366   1.620   3.003   0.757  0.9774 -0.6875 -0.2174
  592SOL    HW2 2367   1.727   2.903   0.748  1.1697  0.4269 -0.5439
  592SOL     MW 2368   1.643   2.925   0.731  0.4418  0.4163 -0.1630
  593SOL     OW 2369   1.919   0.736   0.693 -0.9002 -0.6396 -0.6272
  593SOL    HW1 2370   1.857   0.741   0.624  2.3527  1.2587  0.2073
  593SOL    HW2 2371   1.957   0.646   0.691 -1.0549 -1.6407 -0.4457
  593SOL     MW 2372   1.916   0.724   0.684 -0.4914 -0.5212 -0.4932
  594SOL     OW 2373   2.839   1.088   1.372  0.1964  1.0069  0.4200
  594SOL    HW1 2374   2.930   1.119   1.347  2.9603  0.5812  0.8387
  594SOL    HW2 2375   2.782   1.127   1.301  0.3085  2.3511  2.2029
  594SOL     MW 2376   2.843   1.097   1.359  0.5759  1.1281  0.7105
  595SOL     OW 2377   0.550   0.937   0.850 -0.1514 -0.1685  0.2084
  595SOL    HW1 2378   0.523   1.006   0.783  0.6871 -0.0887 -0.2814
  595SOL    HW2 2379   0.614   0.989   0.909  0.1162 -2.4845  0.5129
  595SOL     MW 2380   0.555   0.953   0.849 -0.0055 -0.4635  0.1840
  596SOL     OW 2381   2.441   1.333   0.499 -0.3032 -0.4670 -0.0586
  596SOL    HW1 2382   2.433   1.404   0.437 -1.7977 -2.5491 -0.4947
  596SOL    HW2 2383   2.490   1.358   0.577 -2.4706 -3.0826  0.5723
  596SOL     MW 2384   2.446   1.346   0.501 -0.7863 -1.0868 -0.0329
  597SOL     OW 2385   2.240   0.674   1.649 -0.1439  0.1739  0.1382
  597SOL    HW1 2386   2.286   0.617   1.718  0.3704 -0.9330  2.8815
  597SOL    HW2 2387   2.172   0.619   1.612  3.8763  0.9357  3.1851
  597SOL     MW 2388   2.237   0.659   1.653  0.4544  0.1284  0.9022
  598SOL     OW 2389   2.577   0.999   2.862 -0.1747 -0.3666 -0.1783
  598SOL    HW1 2390   2.619   0.926   2.821  1.5646  0.1742 -1.7329
  598SOL    HW2 2391   2.654   1.038   2.905  0.8556  1.9054 -0.2342
  598SOL     MW 2392   2.593   0.995   2.863  0.1908  0.0045 -0.3908
  599SOL     OW 2393   3.001   0.528   2.222 -0.2980  0.2049 -0.2075
  599SOL    HW1 2394   3.050   0.583   2.291 -0.6778  0.9768  0.1512
  599SOL    HW2 2395   3.049   0.564   2.137  0.2126  3.4037 -2.7342
  599SOL     MW 2396   3.014   0.540   2.220 -0.2807  0.7288 -0.4936
  600SOL     OW 2397   1.833   1.683   0.825 -0.0357 -0.3024  0.3539
  600SOL    HW1 2398   1.867   1.728   0.906  0.4766 -1.2709  0.0851
  600SOL    HW2 2399   1.771   1.750   0.800  0.0135  0.0417  0.8985
  600SOL     MW 2400   1.829   1.698   0.832  0.0384 -0.3848  0.3903
  601SOL     OW 2401   2.540   0.771   0.846  0.1110  0.5808  0.1854
  601SOL    HW1 2402   2.557   0.754   0.944 -0.3809 -0.3486 -0.8722
  601SOL    HW2 2403   2.484   0.691   0.820  1.0678 -2.6669  1.0891
  601SOL     MW 2404   2.535   0.758   0.855  0.1723  0.0296  0.1651
  602SOL     OW 2405   2.230   1.957   0.763 -0.0102  0.4798  0.0346
  602SOL    HW1 2406   2.168   1.886   0.745 -3.2221 -0.8318  0.4897
  602SOL    HW2 2407   2.194   2.045   0.729 -0.5764 -1.3325 -0.8597
  602SOL     MW 2408   2.217   1.959   0.757 -0.5087  0.0677 -0.0233
  603SOL     OW 2409   3.031   1.336   1.984  0.0764 -0.1557 -0.0606
  603SOL    HW1 2410   2.997   1.384   2.060 -0.7413  1.3165  3.0048
  603SOL    HW2 2411   3.084   1.258   2.019  0.5996 -2.3148 -1.0864
  603SOL     MW 2412   3.034   1.332   1.999  0.0376 -0.2463  0.2085
  604SOL     OW 2413   2.022   1.384   0.361  0.1043 -0.4184  0.3963
  604SOL    HW1 2414   2.087   1.323   0.400  2.3985 -0.6421 -0.9141
  604SOL    HW2 2415   1.980   1.420   0.438  2.8081  4.0786 -0.4300
  604SOL     MW 2416   2.025   1.381   0.376  0.7638  0.1454  0.1144
  605SOL     OW 2417   2.436   1.439   0.785  0.1490  0.0198 -0.0035
  605SOL    HW1 2418   2.440   1.525   0.742  1.3726  1.6010  2.5395
  605SOL    HW2 2419   2.524   1.405   0.799 -1.5731 -1.5846  3.4111
  605SOL     MW 2420   2.448   1.446   0.781  0.0832  0.0168  0.7825
  606SOL     OW 2421   2.689   1.790   1.777 -0.1101  0.3556  0.0112
  606SOL    HW1 2422   2.623   1.833   1.723  0.6905  1.3715  0.1415
  606SOL    HW2 2423   2.660   1.707   1.802  0.9316  0.3729 -4.1182
  606SOL     MW 2424   2.677   1.785   1.773  0.1330  0.4919 -0.5165
  607SOL     OW 2425   2.393   1.021   3.083 -0.1733  0.5247 -0.0268
  607SOL    HW1 2426   2.457   0.995   3.009 -0.9903 -0.3286 -0.0745
  607SOL    HW2 2427   2.433   0.983   3.160  1.7528 -2.3880 -0.8378
  607SOL     MW 2428   2.407   1.012   3.084 -0.0270  0.0278 -0.1401
  608SOL     OW 2429   1.910   0.248   0.441 -0.1929 -0.3398 -0.4882
  608SOL    HW1 2430   1.895   0.281   0.349 -0.6113  0.0804  1.0853
  608SOL    HW2 2431   1.899   0.151   0.432  1.3463 -0.9297  0.9538
  608SOL     MW 2432   1.906   0.239   0.428 -0.0450 -0.3622 -0.0903
  609SOL     OW 2433   2.087   1.903   3.077 -0.1011  0.3973 -0.4119
  609SOL    HW1 2434   2.064   1.822   3.033  0.5428  0.5273  2.4949
  609SOL    HW2 2435   2.079   1.876   3.170 -0.6559 -0.3967 -1.4645
  609SOL     MW 2436   2.083   1.889   3.083 -0.0894  0.3097 -0.1672
  610SOL     OW 2437   1.786   0.970   1.251 -0.5624  0.1386  0.5668
  610SOL    HW1 2438   1.803   0.913   1.168  3.4846 -1.7632 -2.0914
  610SOL    HW2 2439   1.696   1.000   1.233  1.1652 -2.0065 -2.2487
  610SOL     MW 2440   1.777   0.967   1.238  0.1995 -0.3954 -0.1554
  611SOL     OW 2441   2.469   1.665   0.563 -0.2115 -0.0299 -0.7145
  611SOL    HW1 2442   2.457   1.645   0.472  0.2205  0.8705 -0.0335
  611SOL    HW2 2443   2.481   1.762   0.567 -1.5671  2.8231  2.2881
  611SOL     MW 2444   2.469   1.676   0.552 -0.3333  0.4653 -0.2284
  612SOL     OW 2445   2.898   2.845   0.389  0.0523 -0.1772 -0.4485
  612SOL    HW1 2446   2.913   2.864   0.479  1.1332 -1.3527 -2.8762
  612SOL    HW2 2447   2.987   2.829   0.347 -0.7340  0.5735 -0.1332
  612SOL     MW 2448   2.912   2.845   0.395  0.0912 -0.2332 -0.7272
  613SOL     OW 2449   1.448   1.136   0.931  0.3363 -0.5185 -0.1056
  613SOL    HW1 2450   1.434   1.232   0.942  1.0424  1.3798 -2.2641
  613SOL    HW2 2451   1.488   1.104   1.015  0.0761 -0.9214 -1.8197
  613SOL     MW 2452   1.451   1.145   0.944  0.3951 -0.3212 -0.6165
  614SOL     OW 2453   2.078   0.513   1.437  0.7078  0.6797  0.0292
  614SOL    HW1 2454   2.071   0.449   1.510 -0.4325  0.4149  1.2110
  614SOL    HW2 2455   1.984   0.540   1.409  0.8544  0.7021  0.0102
  614SOL     MW 2456   2.064   0.508   1.443  0.5766  0.6477  0.1826
  615SOL     OW 2457   2.408   0.743   0.344  0.2746  0.1702  0.2856
  615SOL    HW1 2458   2.503   0.707   0.339 -0.1224 -0.7258 -2.3174
  615SOL    HW2 2459   2.364   0.700   0.266  0.0625 -1.6679  0.1176
  615SOL     MW 2460   2.415   0.733   0.333  0.1942 -0.1905 -0.0800
  616SOL     OW 2461   2.569   0.382   1.650 -0.4417 -0.2780  0.4323
  616SOL    HW1 2462   2.527   0.305   1.620  1.2988  0.9826 -2.7154
  616SOL    HW2 2463   2.545   0.461   1.593  2.2898 -0.1080  0.1309
  616SOL     MW 2464   2.561   0.383   1.639  0.1483 -0.0893 -0.0227
  617SOL     OW 2465   2.803   0.570   1.800  0.2935  0.5274 -0.9670
  617SOL    HW1 2466   2.722   0.562   1.848 -0.3668 -1.2291  1.0164
  617SOL    HW2 2467   2.831   0.471   1.778 -1.1800 -0.1284 -0.9892
  617SOL     MW 2468   2.796   0.556   1.803  0.0120  0.2091 -0.7083
  618SOL     OW 2469   2.839   0.201   1.997  1.0310 -0.0227  0.2880
  618SOL    HW1 2470   2.803   0.280   2.037 -2.2261 -0.9581 -2.1907
  618SOL    HW2 2471   2.925   0.195   2.038  0.5775 -0.9755 -0.3987
  618SOL     MW 2472   2.846   0.211   2.008  0.5414 -0.2718 -0.1296
  619SOL     OW 2473   2.726   0.720   0.044  0.4577 -0.1070  0.0340
  619SOL    HW1 2474   2.754   0.809   0.037 -1.8830 -0.7753 -1.2385
  619SOL    HW2 2475   2.793   0.680   0.095 -0.3107  2.6453 -0.4147
  619SOL     MW 2476   2.738   0.726   0.050  0.0475  0.1680 -0.1931
  620SOL     OW 2477   2.226   1.006   0.894 -0.1971 -0.5913 -0.8547
  620SOL    HW1 2478   2.318   1.013   0.866 -1.2087  3.4597  1.5899
  620SOL    HW2 2479   2.171   1.001   0.815  2.9075 -1.9024 -3.0654
  620SOL     MW 2480   2.231   1.006   0.880  0.0791 -0.2298 -0.8238
  621SOL     OW 2481   1.504   2.175   1.995 -0.2474 -0.7007  0.6889
  621SOL    HW1 2482   1.489   2.088   2.027  1.0072 -0.3766 -0.3605
  621SOL    HW2 2483   1.598   2.188   2.008 -1.8016  2.8713 -0.4123
  621SOL     MW 2484   1.514   2.165   2.001 -0.2869 -0.1866  0.4051
  622SOL     OW 2485   2.638   0.287   0.188 -0.2187  0.3105 -0.2328
  622SOL    HW1 2486   2.720   0.332   0.167 -1.8732 -2.5123  0.4788
  622SOL    HW2 2487   2.663   0.193   0.194 -1.2450  2.0305  1.4034
  622SOL     MW 2488   2.652   0.280   0.186 -0.5724  0.1650  0.0770
  623SOL     OW 2489   2.345   2.776   0.814 -0.1579 -0.6828  0.6655
  623SOL    HW1 2490   2.392   2.859   0.800 -2.0106 -2.0380 -3.1414
  623SOL    HW2 2491   2.354   2.768   0.914  0.2258 -3.4969 -0.0362
  623SOL     MW 2492   2.352   2.786   0.825 -0.3517 -1.2329  0.0707
  624SOL     OW 2493   2.131   1.590   3.014  0.0601  0.3713 -0.1046
  624SOL    HW1 2494   2.067   1.517   3.008 -1.6659  0.0484  1.6412
  624SOL    HW2 2495   2.195   1.558   3.071  1.4209 -0.1439 -1.5864
  624SOL     MW 2496   2.131   1.576   3.021  0.0119  0.2607 -0.0698
  625SOL     OW 2497   2.135   1.943   1.037 -0.2161  0.0538 -0.0091
  625SOL    HW1 2498   2.176   1.865   1.075  1.1946  0.2287  0.4566
  625SOL    HW2 2499   2.166   1.951   0.945  3.2756 -0.5980 -0.6340
  625SOL     MW 2500   2.145   1.934   1.030  0.4307 -0.0091 -0.0301
  626SOL     OW 2501   0.120   1.847   2.471  0.6961  0.3642  0.0279
  626SOL    HW1 2502   0.057   1.772   2.466 -1.2499 -1.9002 -1.9685
  626SOL    HW2 2503   0.076   1.932   2.472 -2.4666  1.7991  1.1587
  626SOL     MW 2504   0.106   1.848   2.470  0.0220  0.2548 -0.0863
  627SOL     OW 2505   2.613   0.819   2.600  0.2054  0.6617 -0.1260
  627SOL    HW1 2506   2.540   0.878   2.627  0.3186  0.8833  1.3066
  627SOL    HW2 2507   2.571   0.764   2.534 -1.3565  1.1186 -1.1040
  627SOL     MW 2508   2.598   0.819   2.595  0.0143  0.7512 -0.0660
  628SOL     OW 2509   2.343   1.362   1.273  0.4911  0.0096 -0.2328
  628SOL    HW1 2510   2.305   1.297   1.217 -1.1607 -0.9939  2.3679
  628SOL    HW2 2511   2.387   1.418   1.212 -2.9441 -0.6039 -1.4887
  628SOL     MW 2512   2.344   1.361   1.258 -0.1801 -0.2038 -0.0554
  629SOL     OW 2513   1.843   0.593   1.300 -0.1237 -0.2150 -0.7533
  629SOL    HW1 2514   1.902   0.629   1.233 -0.2892 -2.3460 -2.4243
  629SOL    HW2 2515   1.752   0.604   1.265 -0.8690 -2.4579 -0.5596
  629SOL     MW 2516   1.839   0.599   1.287 -0.2439 -0.7921 -0.9482
  630SOL     OW 2517   2.375   1.959   3.059 -0.6501  0.1137  0.3282
  630SOL    HW1 2518   2.375   1.994   2.969  0.5557 -0.0025 -1.5766
  630SOL    HW2 2519   2.286   1.930   3.063  1.5446  1.0341 -1.0874
  630SOL     MW 2520   2.363   1.960   3.048 -0.2014  0.2198 -0.1099
  631SOL     OW 2521   2.096   1.886   1.477  0.1414  0.2594  0.1728
  631SOL    HW1 2522   2.076   1.803   1.521  1.8654  0.9247 -1.4283
  631SOL    HW2 2523   2.009   1.920   1.448 -1.2531  0.3617  0.5532
  631SOL     MW 2524   2.082   1.880   1.479  0.1849  0.3607  0.0117
  632SOL     OW 2525   0.390   1.893   1.494 -0.2119  0.2136 -0.2270
  632SOL    HW1 2526   0.309   1.937   1.486  0.1109 -0.0640 -3.2495
  632SOL    HW2 2527   0.358   1.797   1.502  0.3181 -2.9935  0.5762
  632SOL     MW 2528   0.375   1.886   1.494 -0.0994 -0.2462 -0.5198
  633SOL     OW 2529   2.623   0.583   0.363  0.3471  0.0581  0.0905
  633SOL    HW1 2530   2.700   0.562   0.415  0.2689 -2.0721  0.4491
  633SOL    HW2 2531   2.602   0.500   0.330  1.1557  1.5372 -1.4292
  633SOL     MW 2532   2.630   0.569   0.366  0.4435 -0.0278 -0.0627
  634SOL     OW 2533   2.723   0.001   0.634  0.7094  0.3842  0.1837
  634SOL    HW1 2534   2.746   0.092   0.621 -1.1241  2.0082 -0.2180
  634SOL    HW2 2535   2.680  -0.023   0.552  0.2565 -0.6447  0.8421
  634SOL     MW 2536   2.720   0.010   0.622  0.4077  0.4627  0.2176
  635SOL     OW 2537   2.655   0.069   1.824 -0.0540 -0.1717 -0.5391
  635SOL    HW1 2538   2.704   0.004   1.779 -0.2623  1.8703  2.2760
  635SOL    HW2 2539   2.715   0.105   1.890  1.5341 -2.6753 -2.2024
  635SOL     MW 2540   2.669   0.065   1.826  0.1280 -0.2326 -0.3871
  636SOL     OW 2541   2.694   1.632   0.743  0.2486 -0.0216 -0.2685
  636SOL    HW1 2542   2.645   1.639   0.660 -1.9420 -0.1398 -0.8627
  636SOL    HW2 2543   2.718   1.718   0.771  0.6121 -0.4210  1.1247
  636SOL     MW 2544   2.691   1.645   0.736  0.0075 -0.0899 -0.1631
  637SOL     OW 2545   2.953   1.432   0.710  0.3635  0.1631 -0.3595
  637SOL    HW1 2546   3.001   1.504   0.667  0.5222 -2.8789 -0.8622
  637SOL    HW2 2547   2.864   1.449   0.688  0.6215  0.8942  0.8392
  637SOL     MW 2548   2.948   1.444   0.701  0.4185 -0.1418 -0.2676
  638SOL     OW 2549   2.828   0.527   0.559  0.3337 -0.0694 -0.0534
  638SOL    HW1 2550   2.888   0.575   0.505 -1.8371 -0.3586 -0.6985
  638SOL    HW2 2551   2.835   0.564   0.649 -2.1731  0.0342  0.1175
  638SOL     MW 2552   2.837   0.538   0.564 -0.2835 -0.0939 -0.1160
  639SOL     OW 2553   1.829   3.087   0.512  0.0259  0.3792 -0.6668
  639SOL    HW1 2554   1.738   3.095   0.490  3.9657 -3.2710  0.9852
  639SOL    HW2 2555   1.841   2.993   0.505  1.5441  0.8613  0.4614
  639SOL     MW 2556   1.818   3.076   0.508  0.7460 -0.0388 -0.3000
  640SOL     OW 2557   0.297   1.445   0.124  0.3624 -0.3692 -0.4758
  640SOL    HW1 2558   0.297   1.424   0.028 -0.9600 -0.1960  0.6234
  640SOL    HW2 2559   0.329   1.363   0.162 -1.2896  2.7194  0.6541
  640SOL     MW 2560   0.301   1.431   0.116 -0.0300  0.0612 -0.1817
  641SOL     OW 2561   2.338   0.393   0.406  0.5770  0.3556  0.5405
  641SOL    HW1 2562   2.321   0.318   0.352  1.2678  2.8379 -0.0574
  641SOL    HW2 2563   2.408   0.359   0.466  2.4739 -0.8797  1.7349
  641SOL     MW 2564   2.345   0.379   0.407  0.9184  0.5201  0.6192
  642SOL     OW 2565   0.118   3.055   0.468 -0.4344  0.0407  0.1331
  642SOL    HW1 2566   0.103   3.152   0.449  1.0923 -0.8349 -2.6414
  642SOL    HW2 2567   0.040   3.029   0.516  2.5047  0.3871  2.6328
  642SOL     MW 2568   0.106   3.065   0.472  0.1548 -0.0291  0.0969
  643SOL     OW 2569   2.135   0.340   1.659  0.5125 -0.3487 -0.6991
  643SOL    HW1 2570   2.062   0.309   1.719 -1.7899 -0.2310 -0.6024
  643SOL    HW2 2571   2.140   0.272   1.591  0.5384  1.2413  0.2426
  643SOL     MW 2572   2.126   0.327   1.658  0.2121 -0.1234 -0.5621
  644SOL     OW 2573   2.696   1.900   0.938 -0.3591 -0.2047 -0.0504
  644SOL    HW1 2574   2.679   1.852   1.014 -0.7631  1.9143  0.3395
  644SOL    HW2 2575   2.623   1.958   0.922  1.4647 -1.4870  1.0293
  644SOL     MW 2576   2.684   1.902   0.946 -0.1718 -0.0943  0.1435
  645SOL     OW 2577   2.833   0.989   0.791  0.0284 -0.0428  0.0975
  645SOL    HW1 2578   2.912   0.932   0.788 -2.0034 -4.1379  1.9455
  645SOL    HW2 2579   2.791   0.960   0.872  0.6475  0.6060 -0.6807
  645SOL     MW 2580   2.837   0.978   0.801 -0.1580 -0.4975  0.2386
  646SOL     OW 2581   0.126   2.268   0.850 -0.1266  0.0297  0.4568
  646SOL    HW1 2582   0.144   2.172   0.845 -0.7199 -5.9714  1.5651
  646SOL    HW2 2583   0.075   2.301   0.773 -0.3933  0.6248 -1.6791
  646SOL     MW 2584   0.122   2.260   0.839 -0.2401 -0.6835  0.3212
  647SOL     OW 2585   2.801   0.457   3.021 -0.2261 -1.2092 -0.3654
  647SOL    HW1 2586   2.710   0.455   2.988  1.5419  0.6547 -1.2631
  647SOL    HW2 2587   2.785   0.534   3.076  0.2671 -0.4602 -1.6100
  647SOL     MW 2588   2.787   0.467   3.024  0.0723 -0.8644 -0.6481
  648SOL     OW 2589   2.107   0.632   1.119 -0.7215  0.3746 -0.4533
  648SOL    HW1 2590   2.180   0.579   1.161  0.0336 -1.3257 -1.2926
  648SOL    HW2 2591   2.151   0.687   1.058 -0.1634 -2.7250 -1.7088
  648SOL     MW 2592   2.122   0.632   1.116 -0.5483 -0.2587 -0.7297
  649SOL     OW 2593   2.397   2.664   1.304 -0.0189 -1.0206 -0.4487
  649SOL    HW1 2594   2.491   2.684   1.321 -0.5181 -3.2899  2.0345
  649SOL    HW2 2595   2.411   2.575   1.259 -0.6603  0.8087 -2.3563
  649SOL     MW 2596   2.411   2.655   1.300 -0.1694 -1.0786 -0.3727
  650SOL     OW 2597   2.751   0.266   0.523  0.7503  0.5581  0.3371
  650SOL    HW1 2598   2.805   0.345   0.544 -0.6983  1.0606 -1.4067
  650SOL    HW2 2599   2.755   0.258   0.429  2.4651 -0.0649  0.8621
  650SOL     MW 2600   2.759   0.276   0.513  0.7854  0.5422  0.1763
  651SOL     OW 2601   0.013   0.463   0.992  0.4335 -0.5883  0.0359
  651SOL    HW1 2602   0.062   0.522   0.929  2.1320  1.4445  1.2985
  651SOL    HW2 2603  -0.063   0.519   1.026 -0.9032  0.7419  0.0211
  651SOL     MW 2604   0.010   0.478   0.988  0.4812 -0.1446  0.2006
  652SOL     OW 2605   2.329   1.425   2.887  0.1522 -0.0609  0.0295
  652SOL    HW1 2606   2.413   1.454   2.846  0.9443 -2.7012  2.5127
  652SOL    HW2 2607   2.262   1.491   2.873  1.7356 -1.2970 -1.5212
  652SOL     MW 2608   2.331   1.437   2.879  0.4656 -0.5724  0.1525
  653SOL     OW 2609   1.842   0.380   0.199 -0.2311  0.2793 -0.4968
  653SOL    HW1 2610   1.826   0.297   0.151  0.6426  0.6268 -1.4905
  653SOL    HW2 2611   1.894   0.429   0.139  0.3269  0.6076  0.3987
  653SOL     MW 2612   1.847   0.376   0.185 -0.0422  0.3685 -0.5098
  654SOL     OW 2613   2.457   0.996   0.740  0.0171  0.1932  0.0780
  654SOL    HW1 2614   2.407   0.946   0.676  0.4575 -1.2181 -1.6912
  654SOL    HW2 2615   2.502   0.914   0.786  2.4369  0.7204 -2.4903
  654SOL     MW 2616   2.456   0.978   0.737  0.3945  0.0766 -0.4943
  655SOL     OW 2617   2.958   0.952   0.315  1.4172 -0.1432  0.6660
  655SOL    HW1 2618   2.922   1.011   0.376  1.2619 -0.8125  0.0116
  655SOL    HW2 2619   2.998   0.881   0.364  1.0404 -1.8705 -0.1758
  655SOL     MW 2620   2.958   0.950   0.329  1.3470 -0.4594  0.4686
  656SOL     OW 2621   1.723   2.676   1.442  0.0318 -0.0660  0.0337
  656SOL    HW1 2622   1.809   2.709   1.416  0.9809 -1.4104 -1.3983
  656SOL    HW2 2623   1.733   2.584   1.426 -1.2952  0.4573 -2.5502
  656SOL     MW 2624   1.736   2.668   1.436 -0.0180 -0.1743 -0.4962
  657SOL     OW 2625   0.091   1.778   1.124  0.0075  0.4437  0.2401
  657SOL    HW1 2626   0.175   1.820   1.138  3.1137 -2.0469  1.2266
  657SOL    HW2 2627   0.109   1.693   1.162  2.7215 -1.0933 -3.9574
  657SOL     MW 2628   0.104   1.772   1.131  0.7754 -0.0877 -0.1836
  658SOL     OW 2629   2.634   1.340   0.212 -0.6175  0.0593 -0.0773
  658SOL    HW1 2630   2.618   1.263   0.272  0.9830  0.0685  1.6472
  658SOL    HW2 2631   2.676   1.405   0.273 -1.5719 -2.6128 -0.8111
  658SOL     MW 2632   2.637   1.338   0.228 -0.5322 -0.2920  0.0534
  659SOL     OW 2633   2.124   1.417   1.025  0.6455  0.5504 -0.5934
  659SOL    HW1 2634   2.135   1.327   1.041 -0.3518 -0.7925 -1.0085
  659SOL    HW2 2635   2.148   1.462   1.101  0.2964  2.5668 -0.8416
  659SOL     MW 2636   2.129   1.411   1.037  0.4679  0.6393 -0.6809
  660SOL     OW 2637   2.069   1.610   1.586 -0.6494 -0.4849 -0.5366
  660SOL    HW1 2638   2.101   1.605   1.675  0.4601  1.4986 -2.2858
  660SOL    HW2 2639   2.009   1.531   1.599  0.6210  0.2160  1.8349
  660SOL     MW 2640   2.065   1.599   1.599 -0.3354 -0.1308 -0.4545
  661SOL     OW 2641   2.384   0.988   0.286  0.3427  0.3213 -0.0412
  661SOL    HW1 2642   2.472   1.031   0.317  1.6106  2.0360  0.5179
  661SOL    HW2 2643   2.391   0.891   0.315  2.1135  0.0153  1.5344
  661SOL     MW 2644   2.397   0.981   0.294  0.7436  0.5072  0.2404
  662SOL     OW 2645   2.508   2.991   0.784  0.6034  0.1507 -0.0642
  662SOL    HW1 2646   2.466   3.072   0.817 -2.4950  0.6367  0.1453
  662SOL    HW2 2647   2.594   3.018   0.749  1.5752  0.7667 -1.9972
  662SOL     MW 2648   2.514   3.005   0.784  0.3228  0.2961 -0.2916
  663SOL     OW 2649   2.736   1.544   0.402  0.1843  0.1487 -0.1193
  663SOL    HW1 2650   2.716   1.618   0.346  1.6083 -1.8439  0.9176
  663SOL    HW2 2651   2.834   1.557   0.422  2.8485 -0.1520  1.5187
  663SOL     MW 2652   2.746   1.555   0.397  0.7237 -0.1539  0.2337
  664SOL     OW 2653   2.532   1.499   1.569 -0.1650  0.1638  0.3279
  664SOL    HW1 2654   2.475   1.572   1.550 -1.0278 -0.4665 -0.1230
  664SOL    HW2 2655   2.472   1.430   1.595  0.4972  2.6558  5.4673
  664SOL     MW 2656   2.516   1.499   1.570 -0.1915  0.4094  0.9465
  665SOL     OW 2657   2.864   0.771   2.169 -0.6293  0.6028  0.3592
  665SOL    HW1 2658   2.908   0.784   2.084  0.0846 -0.6573  1.0665
  665SOL    HW2 2659   2.907   0.688   2.199  0.8926  0.0138  1.2477
  665SOL     MW 2660   2.876   0.762   2.162 -0.3343  0.3589  0.5697
  666SOL     OW 2661   2.815   2.962   1.682  0.5349  0.0524 -0.1941
  666SOL    HW1 2662   2.810   2.966   1.586 -0.4450  1.8499  1.2581
  666SOL    HW2 2663   2.774   2.875   1.716  0.4691 -1.9846  1.5667
  666SOL     MW 2664   2.809   2.951   1.674  0.3969  0.0208  0.2298
  667SOL     OW 2665   1.987   2.693   1.733 -0.1031 -0.0113 -0.4999
  667SOL    HW1 2666   2.010   2.682   1.829 -1.6102 -0.4205  0.9227
  667SOL    HW2 2667   2.059   2.736   1.691 -4.3093  0.7009  1.2395
  667SOL     MW 2668   2.000   2.697   1.740 -0.8569  0.0286 -0.0827
  668SOL     OW 2669   2.750   0.620   0.809 -0.5545 -0.1885  0.0572
  668SOL    HW1 2670   2.791   0.616   0.896  1.7583 -1.2524 -1.1088
  668SOL    HW2 2671   2.673   0.676   0.811 -1.0285 -0.1703 -0.7150
  668SOL     MW 2672   2.745   0.627   0.821 -0.3119 -0.3265 -0.1985
  669SOL     OW 2673   0.199   0.987   0.697  0.4188 -0.5320  0.7669
  669SOL    HW1 2674   0.184   0.970   0.794  0.5257 -1.2233  0.6052
  669SOL    HW2 2675   0.285   1.040   0.685 -1.6875  1.7464  0.4819
  669SOL     MW 2676   0.208   0.992   0.708  0.1550 -0.3226  0.7079
  670SOL     OW 2677   2.916   0.336   0.243  0.4602 -0.0209 -0.1792
  670SOL    HW1 2678   2.930   0.264   0.179 -0.4991  1.0285  1.7631
  670SOL    HW2 2679   2.955   0.420   0.207 -0.3190 -0.1029 -1.6200
  670SOL     MW 2680   2.923   0.338   0.230  0.2308  0.1068 -0.1130
  671SOL     OW 2681   2.068   3.027   1.514  0.1584  0.3060  0.6434
  671SOL    HW1 2682   2.010   2.986   1.451  1.5946 -0.4833  2.0114
  671SOL    HW2 2683   2.009   3.056   1.584 -1.5090 -1.1284  1.3499
  671SOL     MW 2684   2.053   3.026   1.515  0.1279  0.0126  0.9171
  672SOL     OW 2685   1.799   1.818   1.294 -0.0138  0.4208 -0.4036
  672SOL    HW1 2686   1.810   1.914   1.332  0.8402  0.3588  0.2173
  672SOL    HW2 2687   1.832   1.818   1.204  2.5390  0.2056 -0.1766
  672SOL     MW 2688   1.805   1.831   1.287  0.4357  0.3842 -0.2918
  673SOL     OW 2689   2.829   1.093   0.531 -0.1131  0.2713  0.1878
  673SOL    HW1 2690   2.813   1.038   0.604  1.8794 -1.4511  2.2734
  673SOL    HW2 2691   2.908   1.142   0.564  2.2103 -3.9743  0.5185
  673SOL     MW 2692   2.837   1.093   0.545  0.4563 -0.5161  0.5066
  674SOL     OW 2693   2.479   3.044   1.180  0.0181  0.1404 -0.5947
  674SOL    HW1 2694   2.442   3.094   1.105  0.0356 -1.3569 -1.5474
  674SOL    HW2 2695   2.454   2.958   1.152  2.9488 -0.9305 -2.2466
  674SOL     MW 2696   2.471   3.040   1.166  0.4070 -0.1985 -0.9383
  675SOL     OW 2697   3.015   0.841   1.033  0.5240 -0.2055 -0.0957
  675SOL    HW1 2698   3.027   0.875   1.124 -2.6182  0.8618  1.4357
  675SOL    HW2 2699   3.055   0.917   0.978 -0.0442  2.5920 -0.7644
  675SOL     MW 2700   3.022   0.856   1.038  0.0344  0.3044  0.0181
  676SOL     OW 2701   2.897   1.411   1.741  0.1794 -0.2591  0.3982
  676SOL    HW1 2702   2.873   1.331   1.697  0.0146 -4.3326  1.3947
  676SOL    HW2 2703   2.943   1.390   1.818  0.6869 -2.2616 -0.7256
  676SOL     MW 2704   2.900   1.398   1.745  0.2247 -1.0608  0.3814
  677SOL     OW 2705   2.497   0.722   1.878  0.1053  0.0073  0.1800
  677SOL    HW1 2706   2.467   0.640   1.840  1.1369 -0.9349 -1.2632
  677SOL    HW2 2707   2.412   0.776   1.895  0.7437  2.9209  2.4766
  677SOL     MW 2708   2.482   0.719   1.875  0.3257  0.2674  0.2926
  678SOL     OW 2709   2.389   1.565   0.322 -0.0175 -0.1614 -0.0265
  678SOL    HW1 2710   2.302   1.577   0.361  1.0441 -0.6824  0.1330
  678SOL    HW2 2711   2.377   1.516   0.236  0.4480 -0.3306 -0.5817
  678SOL     MW 2712   2.376   1.560   0.316  0.1840 -0.2525 -0.0787
  679SOL     OW 2713   2.273   0.472   1.248  0.2050 -0.0141  0.0897
  679SOL    HW1 2714   2.267   0.386   1.202  0.6663  0.2430 -1.1558
  679SOL    HW2 2715   2.212   0.469   1.320  1.4700  1.1530  0.8017
  679SOL     MW 2716   2.264   0.460   1.251  0.4328  0.1738  0.0193
  680SOL     OW 2717   2.416   0.174   1.491 -0.9615  0.4163  0.0519
  680SOL    HW1 2718   2.329   0.175   1.460  0.0649 -1.4177 -0.1398
  680SOL    HW2 2719   2.466   0.155   1.420 -0.2359 -0.7859  3.6515
  680SOL     MW 2720   2.411   0.171   1.477 -0.7303  0.0157  0.5016
  681SOL     OW 2721   0.248   0.587   1.459  0.0492  0.2195 -0.0148
  681SOL    HW1 2722   0.200   0.511   1.475  0.9285 -0.3737  0.8931
  681SOL    HW2 2723   0.271   0.579   1.363 -0.9696 -1.5387 -2.0082
  681SOL     MW 2724   0.245   0.576   1.448  0.0308 -0.0908 -0.1580
  682SOL     OW 2725   3.038   2.846   1.540  0.0303 -0.0604  0.3576
  682SOL    HW1 2726   3.100   2.917   1.534 -3.3707 -0.9554  2.9224
  682SOL    HW2 2727   2.981   2.889   1.597  2.0338  0.3230 -1.7874
  682SOL     MW 2728   3.038   2.861   1.546 -0.1541 -0.1279  0.4130
  683SOL     OW 2729   2.119   0.797   3.028  0.2885 -0.8287  0.1824
  683SOL    HW1 2730   2.031   0.761   3.036  1.0129  2.4570  1.0733
  683SOL    HW2 2731   2.088   0.885   3.067 -1.1345  1.1380  0.8534
  683SOL     MW 2732   2.104   0.804   3.034  0.1963 -0.1357  0.3885
  684SOL     OW 2733   2.058   1.773   0.689 -0.1344  0.2416 -0.3378
  684SOL    HW1 2734   2.083   1.704   0.623  0.2192  1.3084 -0.9315
  684SOL    HW2 2735   1.984   1.737   0.740 -1.3701  1.7361  1.8147
  684SOL     MW 2736   2.051   1.759   0.687 -0.2508  0.5795 -0.1322
  685SOL     OW 2737   2.619   1.747   1.165 -0.1831  0.2046 -0.5319
  685SOL    HW1 2738   2.688   1.722   1.224 -1.8989 -2.6342 -0.1730
  685SOL    HW2 2739   2.601   1.665   1.118  0.2589 -3.5355 -0.1176
  685SOL     MW 2740   2.626   1.733   1.166 -0.3511 -0.6634 -0.4299
  686SOL     OW 2741   2.843   0.653   1.531  0.8319 -0.2704 -0.1327
  686SOL    HW1 2742   2.825   0.620   1.622 -0.1686 -0.6386  2.3994
  686SOL    HW2 2743   2.939   0.674   1.531  0.1279  2.2138  1.8569
  686SOL     MW 2744   2.853   0.651   1.543  0.6070  0.0088  0.4639
  687SOL     OW 2745   2.178   0.225   1.117  0.4297  0.4253  0.9541
  687SOL    HW1 2746   2.222   0.165   1.059  1.7929 -0.8878 -0.6586
  687SOL    HW2 2747   2.118   0.258   1.054  0.6022  0.7720  2.1803
  687SOL     MW 2748   2.176   0.221   1.101  0.6323  0.2978  0.9031
  688SOL     OW 2749   2.470   0.581   1.502 -0.5172 -0.3956  0.0268
  688SOL    HW1 2750   2.422   0.545   1.430 -0.5185  0.5973  0.9398
  688SOL    HW2 2751   2.404   0.630   1.555 -1.2012  1.5902  0.3769
  688SOL     MW 2752   2.455   0.582   1.499 -0.6076 -0.0026  0.1934
  689SOL     OW 2753   2.494   0.757   3.016 -0.3914  0.0047 -0.3551
  689SOL    HW1 2754   2.423   0.801   3.061 -0.0961 -0.6137 -0.1144
  689SOL    HW2 2755   2.574   0.757   3.066 -1.5641  1.1462  2.0197
  689SOL     MW 2756   2.495   0.763   3.028 -0.5072  0.0737 -0.0100
  690SOL     OW 2757   2.038   0.970   1.837  0.4700  0.1087  0.0525
  690SOL    HW1 2758   2.021   0.877   1.857 -0.8371  0.2710  2.9553
  690SOL    HW2 2759   2.086   0.964   1.749 -0.1065 -0.5967  0.2710
  690SOL     MW 2760   2.042   0.957   1.828  0.2215  0.0370  0.4643
  691SOL     OW 2761   2.436   0.288   0.890  0.3171 -0.3328 -0.1453
  691SOL    HW1 2762   2.526   0.324   0.891 -1.9649  1.7107  1.2806
  691SOL    HW2 2763   2.390   0.365   0.880  0.3735 -2.0499  0.2265
  691SOL     MW 2764   2.441   0.303   0.889  0.0234 -0.2897  0.0919
  692SOL     OW 2765   2.762   1.643   1.381  0.3505  0.2385  0.1714
  692SOL    HW1 2766   2.710   1.644   1.465 -2.8451 -1.4301 -0.2842
  692SOL    HW2 2767   2.840   1.689   1.409  1.2730  2.6660 -2.0814
  692SOL     MW 2768   2.766   1.649   1.396  0.0506  0.3386 -0.1859
  693SOL     OW 2769   2.207   0.417   3.080 -0.4955 -0.1561 -0.2911
  693SOL    HW1 2770   2.186   0.328   3.106 -3.1760 -2.7580  0.2891
  693SOL    HW2 2771   2.200   0.474   3.157  2.6636 -1.0024  2.1099
  693SOL     MW 2772   2.203   0.413   3.093 -0.4323 -0.6111  0.1022
  694SOL     OW 2773   1.971   1.181   1.185 -0.0411 -0.2454 -0.2091
  694SOL    HW1 2774   2.067   1.167   1.166  0.4596 -0.2392  0.2244
  694SOL    HW2 2775   1.935   1.096   1.219  0.1099 -1.4038  1.1192
  694SOL     MW 2776   1.979   1.168   1.187  0.0449 -0.3974  0.0234
  695SOL     OW 2777   2.921   1.440   1.314 -0.0121 -0.2604  0.4791
  695SOL    HW1 2778   2.908   1.431   1.216  1.0019  3.2921 -1.6363
  695SOL    HW2 2779   2.858   1.509   1.338  1.2581 -1.2289 -3.0787
  695SOL     MW 2780   2.911   1.448   1.304  0.2893  0.0806 -0.2694
  696SOL     OW 2781   2.047   1.328   0.750  0.2731 -0.2908 -0.5076
  696SOL    HW1 2782   2.099   1.387   0.808  2.6324 -0.8365  0.6641
  696SOL    HW2 2783   1.974   1.287   0.798  1.0243 -0.1201  1.9040
  696SOL     MW 2784   2.044   1.330   0.764  0.6835 -0.3403 -0.0348
  697SOL     OW 2785   2.932   1.042   2.255  0.0698 -0.3289  0.5791
  697SOL    HW1 2786   2.850   1.093   2.232 -2.0222  1.1432  0.4428
  697SOL    HW2 2787   2.915   0.946   2.245  1.7704  1.5584 -1.8768
  697SOL     MW 2788   2.919   1.036   2.251  0.0182  0.1144  0.2370
  698SOL     OW 2789   2.496   0.360   3.061 -0.2714 -0.0503  0.0719
  698SOL    HW1 2790   2.402   0.375   3.084  3.0811 -4.0980 -0.4117
  698SOL    HW2 2791   2.535   0.338   3.145 -0.6559 -0.0847  1.2562
  698SOL     MW 2792   2.489   0.359   3.075  0.1202 -0.5889  0.1643
  699SOL     OW 2793   1.846   1.572   1.987 -0.1855  0.0549  0.0210
  699SOL    HW1 2794   1.820   1.486   2.028  0.4114  0.7928  1.0287
  699SOL    HW2 2795   1.936   1.560   1.957  0.5828 -1.5948 -1.2883
  699SOL     MW 2796   1.855   1.559   1.989 -0.0053 -0.0654 -0.0188
  700SOL     OW 2797   2.724   0.888   1.573  0.2984 -0.0520  0.3930
  700SOL    HW1 2798   2.785   0.965   1.574 -0.7270  0.8472 -3.2867
  700SOL    HW2 2799   2.779   0.816   1.545  1.4427  1.7356 -2.1356
  700SOL     MW 2800   2.740   0.889   1.569  0.3141  0.3025 -0.4261
  701SOL     OW 2801   1.632   1.058   2.566  0.2813  0.0290 -0.3080
  701SOL    HW1 2802   1.712   1.020   2.612 -0.1127 -1.5716 -0.3798
  701SOL    HW2 2803   1.599   1.135   2.616  1.4728 -1.9050 -2.6428
  701SOL     MW 2804   1.638   1.063   2.578  0.3865 -0.4373 -0.6256
  702SOL     OW 2805   2.079   0.497   0.702  0.1194  0.1462  0.3035
  702SOL    HW1 2806   2.086   0.401   0.673  0.8274  1.7709  2.6098
  702SOL    HW2 2807   2.151   0.549   0.659  1.1383 -2.6823 -0.7767
  702SOL     MW 2808   2.089   0.491   0.693  0.3472 -0.0127  0.4653
  703SOL     OW 2809   2.657   1.253   1.004 -0.2477 -0.3664  0.4395
  703SOL    HW1 2810   2.646   1.232   0.910 -1.7394  0.0038  0.7920
  703SOL    HW2 2811   2.674   1.162   1.036  0.3721  0.0443 -0.1685
  703SOL     MW 2812   2.658   1.238   0.996 -0.3628 -0.2634  0.4058
  704SOL     OW 2813   3.078   1.270   0.198  0.2993 -0.2636  0.5736
  704SOL    HW1 2814   3.003   1.208   0.185  1.5408 -2.7335  1.3684
  704SOL    HW2 2815   3.105   1.243   0.287  0.4404  2.2167  0.5470
  704SOL     MW 2816   3.071   1.258   0.208  0.4817 -0.2623  0.6750
  705SOL     OW 2817   2.051   1.620   1.305  0.1903  0.1045 -0.1180
  705SOL    HW1 2818   1.982   1.692   1.308 -1.1916  3.8656  2.4615
  705SOL    HW2 2819   2.079   1.614   1.398 -1.7844  1.2716  1.6028
  705SOL     MW 2820   2.046   1.629   1.317 -0.2526  0.7547  0.4494
  706SOL     OW 2821   3.056   1.192   0.639 -0.4713  0.4587 -0.1442
  706SOL    HW1 2822   3.137   1.196   0.591  2.3347  0.0864  0.2022
  706SOL    HW2 2823   3.039   1.286   0.657 -1.2194  1.4476 -0.5246
  706SOL     MW 2824   3.064   1.205   0.635 -0.1998  0.5400 -0.1487
  707SOL     OW 2825   2.333   0.043   0.938 -0.2230  0.0245 -0.0002
  707SOL    HW1 2826   2.350   0.135   0.904  1.2098  0.1648 -1.8858
  707SOL    HW2 2827   2.278  -0.000   0.879  1.8950 -0.0405  3.2665
  707SOL     MW 2828   2.328   0.050   0.925  0.2455  0.0344  0.1820
  708SOL     OW 2829   2.383   1.423   0.074  0.1034 -0.0274 -0.1876
  708SOL    HW1 2830   2.467   1.395   0.110 -0.7891  0.2122  0.0812
  708SOL    HW2 2831   2.401   1.420  -0.018 -1.1652  0.0797 -0.7538
  708SOL     MW 2832   2.397   1.419   0.067 -0.1817  0.0183 -0.2268
  709SOL     OW 2833   1.694   1.581   0.230 -0.4987  0.1878  0.0847
  709SOL    HW1 2834   1.670   1.597   0.138 -0.6640  1.2729 -0.0220
  709SOL    HW2 2835   1.610   1.572   0.280  0.3256  0.2107  0.0242
  709SOL     MW 2836   1.680   1.582   0.224 -0.4118  0.3340  0.0626
  710SOL     OW 2837   2.249   1.152   1.118 -0.1993 -0.5062  0.2617
  710SOL    HW1 2838   2.252   1.099   1.038  0.0996  1.8107 -1.5492
  710SOL    HW2 2839   2.293   1.098   1.187 -0.3358 -0.9096  2.7745
  710SOL     MW 2840   2.255   1.138   1.117 -0.1779 -0.2538  0.3543
  711SOL     OW 2841   2.398   0.094   1.758 -0.1037  0.6998 -0.3619
  711SOL    HW1 2842   2.491   0.095   1.791 -0.2577 -3.3119  0.8975
  711SOL    HW2 2843   2.402   0.130   1.671 -1.3529 -1.7197 -0.3642
  711SOL     MW 2844   2.411   0.099   1.751 -0.2888 -0.1488 -0.1960
  712SOL     OW 2845   1.885   0.625   3.078 -0.1149  0.2433 -0.3681
  712SOL    HW1 2846   1.829   0.661   3.013  0.6494 -0.8214 -0.1130
  712SOL    HW2 2847   1.848   0.672   3.160  0.5659  0.5356 -0.6440
  712SOL     MW 2848   1.872   0.636   3.080  0.0758  0.1414 -0.3709
  713SOL     OW 2849   2.598   0.693   1.109  0.0434  0.2413 -0.1761
  713SOL    HW1 2850   2.602   0.597   1.107 -1.2598  2.1678  0.3223
  713SOL    HW2 2851   2.555   0.727   1.187 -0.8732  0.2036  0.1479
  713SOL     MW 2852   2.593   0.685   1.119 -0.2495  0.4905 -0.0676
  714SOL     OW 2853   2.244   0.203   1.982  0.9328  0.0992 -0.0421
  714SOL    HW1 2854   2.289   0.148   2.046  1.1432 -1.4023 -1.3599
  714SOL    HW2 2855   2.286   0.166   1.905  0.9911  0.4113  0.2556
  714SOL     MW 2856   2.256   0.191   1.980  0.9683 -0.0577 -0.1767
  715SOL     OW 2857   1.828   1.975   1.707  0.0569  0.0426  0.1600
  715SOL    HW1 2858   1.921   1.999   1.736  0.3918 -0.6347  0.5954
  715SOL    HW2 2859   1.793   1.901   1.758 -0.8417 -0.5619  1.2690
  715SOL     MW 2860   1.836   1.969   1.718 -0.0175 -0.1265  0.3638
  716SOL     OW 2861   2.439   0.553   0.732 -0.1989  0.0160 -0.0399
  716SOL    HW1 2862   2.526   0.517   0.700  0.8734 -0.8273 -0.1634
  716SOL    HW2 2863   2.381   0.570   0.662 -0.0295 -2.6890  0.1688
  716SOL     MW 2864   2.443   0.551   0.719 -0.0350 -0.4522 -0.0286
  717SOL     OW 2865   2.779   1.677   2.830 -0.6176 -0.3271 -0.1666
  717SOL    HW1 2866   2.848   1.631   2.878  0.9341  0.2836  1.6210
  717SOL    HW2 2867   2.747   1.732   2.897  2.9328  0.4464 -3.1892
  717SOL     MW 2868   2.784   1.678   2.845  0.0556 -0.1445 -0.3296
  718SOL     OW 2869   2.634   1.303   1.331  0.1498  0.0486  0.5378
  718SOL    HW1 2870   2.595   1.339   1.406 -1.7046  0.2233  1.2361
  718SOL    HW2 2871   2.718   1.348   1.322 -0.3625 -0.2222  2.7407
  718SOL     MW 2872   2.640   1.314   1.340 -0.1625  0.0360  0.9206
  719SOL     OW 2873   2.177   1.225   0.523  0.1714 -0.1795  0.2477
  719SOL    HW1 2874   2.265   1.267   0.524 -3.6222  3.0923 -0.3848
  719SOL    HW2 2875   2.127   1.263   0.604 -2.2452 -1.1127 -1.1790
  719SOL     MW 2876   2.182   1.235   0.534 -0.6480  0.1290 -0.0240
  720SOL     OW 2877   2.833   1.260   0.031 -0.3273 -0.1404  0.0312
  720SOL    HW1 2878   2.820   1.163   0.027  0.0160 -2.3239  0.8316
  720SOL    HW2 2879   2.770   1.294   0.092 -0.7586  1.0303 -1.5735
  720SOL     MW 2880   2.823   1.251   0.039 -0.3389 -0.2741 -0.0749
  721SOL     OW 2881   2.555   0.816   1.365 -0.7422  0.1115 -0.4575
  721SOL    HW1 2882   2.534   0.726   1.395 -1.0039 -1.6873 -1.1678
  721SOL    HW2 2883   2.603   0.858   1.433  2.4579  0.4258  0.3759
  721SOL     MW 2884   2.559   0.810   1.378 -0.3545 -0.0844 -0.4412
  722SOL     OW 2885   2.592   1.136   0.382 -0.0358 -0.1306 -0.6208
  722SOL    HW1 2886   2.546   1.180   0.455  1.1645  0.1941 -1.9952
  722SOL    HW2 2887   2.671   1.096   0.421  0.3075  1.4424  0.5556
  722SOL     MW 2888   2.596   1.136   0.396  0.1679  0.1198 -0.6469
  723SOL     OW 2889   2.273   1.351   1.551 -0.4057  0.1342  0.1998
  723SOL    HW1 2890   2.283   1.346   1.456  1.5354 -0.1895  0.6080
  723SOL    HW2 2891   2.197   1.409   1.580  1.0567  2.6978 -0.3490
  723SOL     MW 2892   2.264   1.358   1.542  0.0434  0.4297  0.1813
  724SOL     OW 2893   2.453   0.239   0.601 -0.8080 -0.1243 -0.3168
  724SOL    HW1 2894   2.443   0.245   0.693 -0.2175  1.2846 -0.2515
  724SOL    HW2 2895   2.536   0.192   0.585 -0.1713 -1.9240 -1.3305
  724SOL     MW 2896   2.463   0.233   0.611 -0.6461 -0.1758 -0.4420
  725SOL     OW 2897   2.639   0.396   1.155 -0.2473 -0.3476 -0.0252
  725SOL    HW1 2898   2.704   0.430   1.213 -2.2007 -0.7491 -1.5523
  725SOL    HW2 2899   2.604   0.319   1.197  1.0475  0.8866 -2.2068
  725SOL     MW 2900   2.643   0.390   1.168 -0.3342 -0.2377 -0.5146
  726SOL     OW 2901   2.473   2.479   0.432 -0.3722 -0.3866 -0.1054
  726SOL    HW1 2902   2.474   2.577   0.430 -0.0236  0.3927  3.1897
  726SOL    HW2 2903   2.402   2.450   0.491  0.5432 -1.8363 -4.3708
  726SOL     MW 2904   2.464   2.488   0.440 -0.2055 -0.4751 -0.2334
  727SOL     OW 2905   2.864   0.327   1.734 -0.3221  0.3255  0.0458
  727SOL    HW1 2906   2.780   0.320   1.686 -0.3637 -1.9541 -0.4077
  727SOL    HW2 2907   2.846   0.290   1.822 -0.9566 -1.5402  3.3961
  727SOL     MW 2908   2.850   0.321   1.739 -0.4113 -0.2214  0.4280
  728SOL     OW 2909   2.800   1.208   2.869  0.2008  0.5682  0.6368
  728SOL    HW1 2910   2.807   1.267   2.791 -0.6614  1.6631 -1.5978
  728SOL    HW2 2911   2.815   1.262   2.946  1.3542  0.4580 -2.3120
  728SOL     MW 2912   2.803   1.223   2.869  0.2392  0.6981 -0.0471
  729SOL     OW 2913   2.549   1.494   1.060 -0.3291  0.1730 -0.1544
  729SOL    HW1 2914   2.575   1.402   1.076 -3.3168 -1.8302 -0.0730
  729SOL    HW2 2915   2.507   1.492   0.973 -1.1263  1.1692 -0.9772
  729SOL     MW 2916   2.547   1.482   1.050 -0.8285  0.0402 -0.2522
  730SOL     OW 2917   2.172   1.155   0.201 -0.4883  0.3784 -0.0604
  730SOL    HW1 2918   2.249   1.095   0.225  2.1683 -0.4935  1.5163
  730SOL    HW2 2919   2.208   1.238   0.173 -2.0266 -0.4296 -2.4131
  730SOL     MW 2920   2.187   1.158   0.201 -0.3408  0.1568 -0.1628
  731SOL     OW 2921   2.781   1.972   2.932  0.0291 -0.1669  0.2344
  731SOL    HW1 2922   2.725   2.007   2.860 -3.1322  0.7147 -1.5914
  731SOL    HW2 2923   2.866   1.973   2.892  0.6072  2.4015  1.1700
  731SOL     MW 2924   2.785   1.977   2.917 -0.3117  0.2883  0.1170
  732SOL     OW 2925   2.340   0.978   1.346  0.1945 -0.0931 -0.2694
  732SOL    HW1 2926   2.300   0.976   1.439  1.6523  3.6359 -0.1527
  732SOL    HW2 2927   2.416   0.919   1.358 -0.5509 -0.1441  2.4495
  732SOL     MW 2928   2.344   0.970   1.360  0.2885  0.3922  0.1047
  733SOL     OW 2929   2.397   2.683   2.980  0.0365 -0.2434 -0.3375
  733SOL    HW1 2930   2.332   2.751   3.002  0.2343  2.8575  0.9242
  733SOL    HW2 2931   2.356   2.598   2.975  2.9873  0.9701  0.3604
  733SOL     MW 2932   2.383   2.681   2.982  0.4519  0.3258 -0.0790
  734SOL     OW 2933   1.516   0.274   2.522  0.1320 -0.1556  0.4774
  734SOL    HW1 2934   1.494   0.225   2.599 -0.6798 -1.2939 -1.2319
  734SOL    HW2 2935   1.522   0.216   2.445 -0.7188 -1.1753 -0.1570
  734SOL     MW 2936   1.514   0.260   2.522 -0.0874 -0.4403  0.1682
  735SOL     OW 2937   3.026   0.864   2.680  0.3253  0.1091 -0.4948
  735SOL    HW1 2938   3.026   0.770   2.683 -2.0720  0.5530 -1.5351
  735SOL    HW2 2939   3.020   0.895   2.770  0.7743 -1.1853 -1.0319
  735SOL     MW 2940   3.025   0.855   2.693  0.0682 -0.0031 -0.7029
  736SOL     OW 2941   0.138   0.558   2.537 -0.0765  0.5376  0.4926
  736SOL    HW1 2942   0.133   0.647   2.487  0.1888  2.3734 -0.5795
  736SOL    HW2 2943   0.197   0.506   2.476  0.4291  0.2780  0.3998
  736SOL     MW 2944   0.145   0.563   2.522  0.0252  0.7456  0.3389
  737SOL     OW 2945   3.004   0.563   2.648 -0.0369  0.0565 -0.4898
  737SOL    HW1 2946   2.952   0.586   2.567 -0.5751  1.0611 -0.2831
  737SOL    HW2 2947   3.086   0.539   2.605 -0.5549  2.6234  1.9077
  737SOL     MW 2948   3.008   0.563   2.632 -0.1762  0.5277 -0.1462
  738SOL     OW 2949   0.117   0.406   1.864  0.5058 -0.0957  0.5812
  738SOL    HW1 2950   0.211   0.417   1.885 -0.4763  4.3590  0.1482
  738SOL    HW2 2951   0.127   0.393   1.766  0.4350 -3.1964  0.5064
  738SOL     MW 2952   0.131   0.406   1.854  0.3669  0.0829  0.5142
  739SOL     OW 2953   2.517   0.972   2.114  0.1163 -0.4754 -0.1240
  739SOL    HW1 2954   2.455   0.937   2.044 -5.3903 -0.1680 -2.9054
  739SOL    HW2 2955   2.596   0.980   2.060  0.0451 -0.6352 -1.6255
  739SOL     MW 2956   2.519   0.969   2.097 -0.6196 -0.4559 -0.6891
  740SOL     OW 2957   0.170   1.802   2.932  0.5268  0.5101 -0.0557
  740SOL    HW1 2958   0.137   1.711   2.961  0.2354  0.8665 -1.3120
  740SOL    HW2 2959   0.258   1.800   2.977  0.8393 -1.2311  0.1122
  740SOL     MW 2960   0.177   1.790   2.942  0.5296  0.3274 -0.1993
  741SOL     OW 2961   2.282   1.169   2.707  0.6779  0.1689 -0.0873
  741SOL    HW1 2962   2.217   1.229   2.672  1.3146  2.3927 -0.9578
  741SOL    HW2 2963   2.239   1.148   2.795  1.3004  2.1273 -0.5945
  741SOL     MW 2964   2.268   1.174   2.714  0.8441  0.7207 -0.2691
  742SOL     OW 2965   1.530   1.235   2.367 -0.1334  0.3246  0.6812
  742SOL    HW1 2966   1.454   1.245   2.319  0.1583  0.7889  2.0619
  742SOL    HW2 2967   1.512   1.165   2.428  0.5239 -0.3871  0.0776
  742SOL     MW 2968   1.518   1.227   2.369 -0.0082  0.2920  0.7838
  743SOL     OW 2969   2.563   1.227   2.683  0.1270 -0.3667  0.1200
  743SOL    HW1 2970   2.472   1.197   2.722 -1.3179  1.6719  2.9279
  743SOL    HW2 2971   2.624   1.177   2.740  0.7959  1.7165  3.2685
  743SOL     MW 2972   2.559   1.216   2.695  0.0246  0.1771  0.9059
  744SOL     OW 2973   2.704   0.891   1.934 -0.7600  0.6478  0.2090
  744SOL    HW1 2974   2.666   0.963   1.878 -2.4058  0.9940 -0.1651
  744SOL    HW2 2975   2.649   0.816   1.913 -1.3084  1.2822  2.1785
  744SOL     MW 2976   2.692   0.891   1.924 -1.0495  0.7772  0.4195
  745SOL     OW 2977   1.724   0.466   2.485  0.2708 -0.1772 -0.4275
  745SOL    HW1 2978   1.719   0.494   2.395  0.0667  0.5778  0.3365
  745SOL    HW2 2979   1.659   0.394   2.497 -0.3003 -1.7983  2.4750
  745SOL     MW 2980   1.715   0.460   2.475  0.1685 -0.2915  0.0562
  746SOL     OW 2981   1.602   1.525   1.664  0.3356  0.7424  0.3051
  746SOL    HW1 2982   1.649   1.599   1.712 -0.6354  0.4159  2.6982
  746SOL    HW2 2983   1.586   1.464   1.734  0.3978 -1.3863 -0.7253
  746SOL     MW 2984   1.606   1.526   1.679  0.2157  0.4184  0.4849
  747SOL     OW 2985   2.598   1.121   1.815 -0.3421 -0.3116 -0.0402
  747SOL    HW1 2986   2.509   1.133   1.791 -0.3393  0.2984  0.9587
  747SOL    HW2 2987   2.604   1.178   1.889 -0.2605 -2.3419 -2.4483
  747SOL     MW 2988   2.587   1.130   1.822 -0.3310 -0.4990 -0.2261
  748SOL     OW 2989   0.072   0.140   1.854 -0.1121  0.1331 -0.1918
  748SOL    HW1 2990   0.160   0.118   1.853 -1.6023  0.5046  0.2967
  748SOL    HW2 2991   0.068   0.217   1.908 -1.0510  0.7849 -2.4746
  748SOL     MW 2992   0.083   0.147   1.861 -0.4326  0.2681 -0.4285
  749SOL     OW 2993   2.576   0.589   2.799 -0.1709 -0.0467  0.0584
  749SOL    HW1 2994   2.600   0.659   2.737 -0.8622  1.1639 -0.9400
  749SOL    HW2 2995   2.547   0.632   2.882 -0.5677  0.5271 -1.6220
  749SOL     MW 2996   2.576   0.604   2.802 -0.3145  0.1887 -0.2950
  750SOL     OW 2997   2.055   0.003   1.948 -0.2379 -0.2321 -0.0365
  750SOL    HW1 2998   2.102   0.088   1.947 -0.3443  0.6413 -1.2315
  750SOL    HW2 2999   2.127  -0.064   1.936  2.3061 -1.0201 -3.4405
  750SOL     MW 3000   2.070   0.005   1.946  0.0837 -0.2208 -0.6433
  751SOL     OW 3001   0.279   0.364   2.394  0.1650 -0.3676 -0.6985
  751SOL    HW1 3002   0.248   0.288   2.447 -0.8689 -1.6549  2.5082
  751SOL    HW2 3003   0.308   0.326   2.310  2.4613  0.8552 -2.9180
  751SOL     MW 3004   0.279   0.349   2.390  0.3316 -0.3761 -0.5683
  752SOL     OW 3005   2.136   0.830   2.757  0.0569 -0.0384 -0.5736
  752SOL    HW1 3006   2.216   0.866   2.722  0.7644  1.7147 -2.0418
  752SOL    HW2 3007   2.147   0.811   2.852 -2.0564 -1.2958  0.1415
  752SOL     MW 3008   2.148   0.832   2.765 -0.1286  0.0270 -0.6729
  753SOL     OW 3009   2.791   0.116   2.426 -0.1861 -0.7443  0.4995
  753SOL    HW1 3010   2.765   0.025   2.412  0.6440 -0.9295 -0.3278
  753SOL    HW2 3011   2.765   0.168   2.348 -1.1564  0.8248  1.3529
  753SOL     MW 3012   2.784   0.111   2.414 -0.2046 -0.5617  0.5030
  754SOL     OW 3013   2.301   2.940   2.642  0.0472 -0.2888 -0.3999
  754SOL    HW1 3014   2.313   2.959   2.547  2.2934  1.6028 -0.4395
  754SOL    HW2 3015   2.380   2.898   2.672  0.4373  0.4662 -0.6477
  754SOL     MW 3016   2.313   2.937   2.633  0.3950  0.0604 -0.4378
  755SOL     OW 3017   2.746   1.533   2.413 -0.4827  0.6185  0.5578
  755SOL    HW1 3018   2.770   1.470   2.480  2.5643 -0.5588  0.2475
  755SOL    HW2 3019   2.793   1.615   2.425 -0.9777 -0.3630  2.1724
  755SOL     MW 3020   2.755   1.535   2.423 -0.1460  0.3337  0.7299
  756SOL     OW 3021   2.200   1.189   2.986 -0.0605 -0.5292 -0.1523
  756SOL    HW1 3022   2.251   1.264   2.949 -2.8584  2.5672 -1.1354
  756SOL    HW2 3023   2.265   1.146   3.046  1.4829  2.8573 -1.1818
  756SOL     MW 3024   2.215   1.193   2.989 -0.2260  0.3261 -0.4178
  757SOL     OW 3025   2.183   0.939   1.581 -0.3202  0.2471 -0.6286
  757SOL    HW1 3026   2.217   0.850   1.608 -1.5489  0.9853  0.0231
  757SOL    HW2 3027   2.098   0.917   1.532 -0.8112 -1.0098 -1.1898
  757SOL     MW 3028   2.176   0.924   1.578 -0.5471  0.1786 -0.6166
  758SOL     OW 3029   2.217   1.818   2.622 -0.2311 -0.7379 -0.1269
  758SOL    HW1 3030   2.207   1.869   2.539 -1.1017 -1.9233 -4.0212
  758SOL    HW2 3031   2.306   1.793   2.629  0.3517  0.3795 -1.8861
  758SOL     MW 3032   2.227   1.821   2.612 -0.2691 -0.7469 -0.8728
  759SOL     OW 3033   1.559   1.314   2.706  0.1897  0.0184 -0.1468
  759SOL    HW1 3034   1.517   1.398   2.682 -1.8785  1.1040  4.2002
  759SOL    HW2 3035   1.616   1.335   2.788 -0.6829 -0.8423  0.1178
  759SOL     MW 3036   1.561   1.328   2.714 -0.1983  0.0481  0.4616
  760SOL     OW 3037   2.635   1.959   2.693  1.5345 -0.1333  0.0366
  760SOL    HW1 3038   2.571   1.879   2.677 -0.0284  0.4131  0.9180
  760SOL    HW2 3039   2.653   1.995   2.608  1.5478 -0.8782  0.7203
  760SOL     MW 3040   2.629   1.953   2.679  1.3300 -0.1595  0.2431
  761SOL     OW 3041   2.229   0.390   2.531 -0.4757 -0.3803  0.5277
  761SOL    HW1 3042   2.198   0.313   2.574  1.1042  0.5049 -2.9978
  761SOL    HW2 3043   2.248   0.444   2.608  1.2317 -0.2840 -0.7186
  761SOL     MW 3044   2.227   0.387   2.547 -0.0420 -0.2508 -0.1019
  762SOL     OW 3045   3.083   0.256   2.158  0.1036  0.6015 -0.4639
  762SOL    HW1 3046   3.069   0.180   2.217 -0.6927 -1.0569 -0.1890
  762SOL    HW2 3047   3.073   0.334   2.210  2.2895 -0.3627  0.6070
  762SOL     MW 3048   3.080   0.256   2.172  0.2870  0.2555 -0.2864
  763SOL     OW 3049   2.377   1.036   2.322  0.3648 -0.1659  0.1535
  763SOL    HW1 3050   2.431   1.018   2.245  0.0383  0.0061 -0.4271
  763SOL    HW2 3051   2.434   1.100   2.368 -1.7152  0.6779  2.1815
  763SOL     MW 3052   2.392   1.042   2.318  0.0473 -0.0318  0.3445
  764SOL     OW 3053   0.432   0.282   2.862  0.4681 -0.0803  0.2963
  764SOL    HW1 3054   0.342   0.268   2.823  0.8858 -0.2252 -3.6304
  764SOL    HW2 3055   0.418   0.370   2.900  0.3657 -0.2243 -1.5542
  764SOL     MW 3056   0.418   0.292   2.862  0.5097 -0.1184 -0.4659
  765SOL     OW 3057   2.720   2.959   2.397  0.3813  0.3278  0.0604
  765SOL    HW1 3058   2.677   2.978   2.312 -0.5786  0.2084 -1.5628
  765SOL    HW2 3059   2.803   2.917   2.374 -0.7976 -2.2087 -0.6520
  765SOL     MW 3060   2.725   2.956   2.383  0.0991 -0.0226 -0.2478
  766SOL     OW 3061   1.922   2.983   2.156 -0.0607  0.4936 -0.0142
  766SOL    HW1 3062   1.958   3.038   2.082  2.1369  0.5662 -1.9565
  766SOL    HW2 3063   1.861   2.923   2.114 -0.7834 -0.9085 -2.7642
  766SOL     MW 3064   1.919   2.982   2.141  0.1339  0.3182 -0.6333
  767SOL     OW 3065   2.645   0.608   2.083  0.1884  0.3392 -0.2935
  767SOL    HW1 3066   2.716   0.668   2.109  0.5670 -2.3527  0.1016
  767SOL    HW2 3067   2.573   0.658   2.044  0.1591 -1.9510 -1.8158
  767SOL     MW 3068   2.645   0.622   2.081  0.2345 -0.3182 -0.4422
  768SOL     OW 3069   2.988   1.547   2.949 -0.3482 -0.1014 -0.2078
  768SOL    HW1 3070   3.007   1.547   3.046  3.3647  1.1099  2.1126
  768SOL    HW2 3071   3.051   1.494   2.909 -0.3949  1.3016  1.5841
  768SOL     MW 3072   2.999   1.540   2.957  0.1355  0.2435  0.3348
  769SOL     OW 3073   2.509   0.645   2.405  0.2809 -0.3486  0.9485
  769SOL    HW1 3074   2.454   0.566   2.383 -1.5337 -0.6764 -2.0298
  769SOL    HW2 3075   2.592   0.625   2.354  2.0767  1.7485  0.5691
  769SOL     MW 3076   2.513   0.632   2.396  0.2784 -0.1151  0.5055
  770SOL     OW 3077   3.067   1.619   2.523 -0.5187 -0.4823  0.0100
  770SOL    HW1 3078   2.989   1.650   2.576 -2.2079  0.7166  0.1059
  770SOL    HW2 3079   3.042   1.549   2.472  0.2345  2.5859  0.6823
  770SOL     MW 3080   3.053   1.614   2.523 -0.6422  0.0807  0.1113
  771SOL     OW 3081   3.076   0.609   1.981 -0.1220 -0.0357 -0.3458
  771SOL    HW1 3082   3.001   0.563   1.942  1.5745 -0.6159 -0.4575
  771SOL    HW2 3083   3.137   0.549   1.935  0.9712  2.7181  0.6419
  771SOL     MW 3084   3.074   0.595   1.970  0.2460  0.2511 -0.2302
  772SOL     OW 3085   0.045   0.013   2.280 -0.1986 -0.3752  0.0825
  772SOL    HW1 3086  -0.026  -0.047   2.301 -3.7434  1.0432 -2.7114
  772SOL    HW2 3087   0.089  -0.029   2.210  0.4945 -1.0850 -2.1008
  772SOL     MW 3088   0.041  -0.001   2.273 -0.5749 -0.2817 -0.5742
  773SOL     OW 3089   2.483   2.813   2.762  0.0629 -0.3199 -0.2349
  773SOL    HW1 3090   2.479   2.742   2.693  0.9694 -2.2185 -0.5410
  773SOL    HW2 3091   2.464   2.772   2.848  2.8329  0.5040 -1.6563
  773SOL     MW 3092   2.480   2.798   2.764  0.5480 -0.4617 -0.4629
  774SOL     OW 3093   2.291   1.146   1.733  0.5401  0.2870 -0.5243
  774SOL    HW1 3094   2.283   1.212   1.662 -0.6479 -1.3933 -0.5752
  774SOL    HW2 3095   2.257   1.069   1.683 -1.9873  2.0829 -0.8694
  774SOL     MW 3096   2.286   1.145   1.717  0.0499  0.3023 -0.5765
  775SOL     OW 3097   2.297   2.923   2.365  0.0453 -0.0010  0.0700
  775SOL    HW1 3098   2.311   2.995   2.305 -0.4055 -0.4025  0.7079
  775SOL    HW2 3099   2.349   2.857   2.329 -2.7477  2.0255  2.4180
  775SOL     MW 3100   2.306   2.924   2.352 -0.3827  0.2134  0.4640
  776SOL     OW 3101   0.019   1.534   0.102 -0.0801 -0.6338 -0.3056
  776SOL    HW1 3102   0.114   1.526   0.094  2.1383  0.3770 -0.9026
  776SOL    HW2 3103  -0.013   1.443   0.134  1.2415  2.5004  0.8870
  776SOL     MW 3104   0.027   1.521   0.106  0.3870 -0.0869 -0.2270
  777SOL     OW 3105   2.950   0.969   1.792  0.4552  0.8440 -0.1091
  777SOL    HW1 3106   2.925   1.050   1.759  0.7965 -3.0818  1.9524
  777SOL    HW2 3107   2.861   0.928   1.806  0.4189  0.8494 -1.2139
  777SOL     MW 3108   2.935   0.974   1.789  0.4954  0.3267  0.0171
  778SOL     OW 3109   2.901   0.357   2.785 -0.3383  0.2622  0.5147
  778SOL    HW1 3110   2.864   0.394   2.866  0.1430  0.0212  1.9424
  778SOL    HW2 3111   2.937   0.440   2.740  0.3325  3.1193 -0.6924
  778SOL     MW 3112   2.901   0.373   2.790 -0.1863  0.6074  0.5438
  779SOL     OW 3113   2.098   0.525   2.326 -0.0509 -0.2812  0.1079
  779SOL    HW1 3114   2.066   0.608   2.362 -0.3829  0.2989 -3.2651
  779SOL    HW2 3115   2.106   0.458   2.391 -0.9527 -1.2260 -2.8917
  779SOL     MW 3116   2.095   0.527   2.339 -0.2137 -0.3293 -0.7329
  780SOL     OW 3117   0.200   0.138   2.793  0.3173  0.4389  0.1653
  780SOL    HW1 3118   0.141   0.177   2.856 -0.1487  2.3480 -1.0885
  780SOL    HW2 3119   0.161   0.160   2.707 -0.8482 -2.4933  0.2818
  780SOL     MW 3120   0.187   0.146   2.790  0.1021  0.3039  0.0153
  781SOL     OW 3121   3.036   1.352   2.380  0.2616 -0.1641 -0.7237
  781SOL    HW1 3122   3.004   1.376   2.289  1.5775 -3.0201 -1.7259
  781SOL    HW2 3123   3.090   1.271   2.362  3.4964  0.2296  0.7064
  781SOL     MW 3124   3.039   1.344   2.365  0.8620 -0.4890 -0.6672
  782SOL     OW 3125   0.581   1.529   3.068 -0.3264 -0.6265  0.1646
  782SOL    HW1 3126   0.514   1.601   3.074 -0.5592  0.2137  0.0474
  782SOL    HW2 3127   0.589   1.489   3.156 -0.9976  2.2598 -2.3241
  782SOL     MW 3128   0.573   1.533   3.081 -0.4457 -0.1348 -0.1792
  783SOL     OW 3129   2.822   0.575   2.431  0.0089  0.4973  0.2529
  783SOL    HW1 3130   2.843   0.517   2.361  0.5073 -1.5580  1.0397
  783SOL    HW2 3131   2.776   0.506   2.489 -0.8095  0.8194  3.3869
  783SOL     MW 3132   2.819   0.558   2.429 -0.0333  0.2687  0.7702
  784SOL     OW 3133   0.208   0.921   2.877  0.4029  0.3033 -0.7017
  784SOL    HW1 3134   0.176   0.970   2.956 -2.1646 -0.6105  2.2521
  784SOL    HW2 3135   0.216   0.975   2.807 -0.0203 -1.3358  0.8900
  784SOL     MW 3136   0.205   0.935   2.878  0.0083 -0.0335 -0.1019
  785SOL     OW 3137   0.341   0.540   2.123 -0.2226 -0.2134  0.3055
  785SOL    HW1 3138   0.347   0.571   2.036  1.1947  2.1561  0.2744
  785SOL    HW2 3139   0.291   0.463   2.101 -0.2309 -0.2853 -2.1125
  785SOL     MW 3140   0.335   0.534   2.108 -0.0367  0.0898 -0.0176
  786SOL     OW 3141   2.032   0.467   2.834 -0.2617 -0.1565 -0.1908
  786SOL    HW1 3142   2.036   0.491   2.926  2.1014  0.4018 -1.7351
  786SOL    HW2 3143   2.127   0.499   2.810  0.5759  1.8763 -1.3721
  786SOL     MW 3144   2.045   0.474   2.843  0.1606  0.1854 -0.5504
  787SOL     OW 3145   2.451   0.155   2.915  0.7580  0.1122 -0.1450
  787SOL    HW1 3146   2.501   0.155   2.836  2.1039  0.8751 -0.6812
  787SOL    HW2 3147   2.466   0.243   2.958  1.7190 -0.8000  1.8682
  787SOL     MW 3148   2.459   0.167   2.910  1.0624  0.0925  0.0498
  788SOL     OW 3149   2.965   2.868   2.291  0.5015  0.6464 -0.0013
  788SOL    HW1 3150   2.929   2.787   2.248 -0.5477 -0.5203  0.9992
  788SOL    HW2 3151   3.041   2.841   2.346 -0.1324 -2.7715  2.2377
  788SOL     MW 3152   2.970   2.854   2.293  0.2795  0.0415  0.4261
  789SOL     OW 3153   0.057   0.288   3.033  0.4248 -0.4511  0.2874
  789SOL    HW1 3154  -0.034   0.285   3.053  1.2259  1.8088  0.3745
  789SOL    HW2 3155   0.103   0.257   3.109 -0.3894  3.4673 -1.3733
  789SOL     MW 3156   0.051   0.283   3.046  0.4231  0.3641  0.0798
  790SOL     OW 3157   0.025   1.032   2.442 -0.0535 -0.1714 -0.4437
  790SOL    HW1 3158  -0.005   0.978   2.519  1.2039 -0.1684  2.8885
  790SOL    HW2 3159  -0.054   1.047   2.394 -0.4339 -0.5631  1.0771
  790SOL     MW 3160   0.011   1.027   2.446  0.0622 -0.2227  0.1966
  791SOL     OW 3161   2.694   0.406   2.619  0.1308 -0.1236  0.7456
  791SOL    HW1 3162   2.644   0.465   2.679  0.9646 -1.3046 -0.3522
  791SOL    HW2 3163   2.774   0.396   2.671 -0.5544 -0.0309 -0.7415
  791SOL     MW 3164   2.698   0.412   2.634  0.1504 -0.2671  0.4046
  792SOL     OW 3165   2.416   0.277   2.376  0.5865 -0.5125 -0.2133
  792SOL    HW1 3166   2.339   0.324   2.421  0.8492 -0.0210 -2.8346
  792SOL    HW2 3167   2.465   0.238   2.446  1.3967 -1.7817 -3.7605
  792SOL     MW 3168   2.412   0.278   2.391  0.7280 -0.6151 -1.0272
  793SOL     OW 3169   1.749   1.006   1.889 -0.1609 -0.1154  0.2879
  793SOL    HW1 3170   1.722   1.048   1.806 -0.2219  0.3681 -2.6478
  793SOL    HW2 3171   1.851   1.012   1.892  1.3193  0.6667  2.6141
  793SOL     MW 3172   1.759   1.013   1.878  0.0264  0.0515  0.2075
  794SOL     OW 3173   1.430   2.294   0.150 -0.1992  0.3797  0.2259
  794SOL    HW1 3174   1.450   2.369   0.086 -0.1404  1.8450  3.4993
  794SOL    HW2 3175   1.492   2.302   0.227  0.1219 -0.3247  1.2139
  794SOL     MW 3176   1.441   2.305   0.152 -0.1491  0.4801  0.7881
  795SOL     OW 3177   2.354   0.942   2.585 -0.1845 -0.1310 -0.2719
  795SOL    HW1 3178   2.335   1.023   2.633 -1.1802 -1.1411  0.9137
  795SOL    HW2 3179   2.358   0.978   2.494 -0.2926  0.4324 -1.0072
  795SOL     MW 3180   2.352   0.957   2.579 -0.3302 -0.1899 -0.2125
  796SOL     OW 3181   0.306   0.653   2.790 -0.6047  0.1743 -0.6468
  796SOL    HW1 3182   0.286   0.747   2.788  0.5514 -0.4115  0.4305
  796SOL    HW2 3183   0.303   0.616   2.701 -1.9242 -0.1492 -0.5539
  796SOL     MW 3184   0.303   0.661   2.778 -0.6262  0.0543 -0.4924
  797SOL     OW 3185   2.578   0.172   2.603  0.1483 -0.1907  0.3194
  797SOL    HW1 3186   2.625   0.260   2.602  2.0629  2.9353 -1.7651
  797SOL    HW2 3187   2.619   0.129   2.526  1.7927 -0.7649  0.8754
  797SOL     MW 3188   2.590   0.178   2.593  0.6178  0.1460  0.1177
  798SOL     OW 3189   2.363   0.061   2.211 -0.7002  0.4885  0.6114
  798SOL    HW1 3190   2.368   0.135   2.275  0.1805  0.1983  0.4134
  798SOL    HW2 3191   2.452   0.023   2.205 -0.1357  1.1841  1.0451
  798SOL     MW 3192   2.375   0.066   2.219 -0.5095  0.5420  0.6425
  799SOL     OW 3193   2.534   2.895   0.199 -0.2771 -0.6454 -0.2128
  799SOL    HW1 3194   2.583   2.877   0.118 -0.6940  0.8333 -1.4637
  799SOL    HW2 3195   2.461   2.949   0.177  0.1138  0.3139  0.1347
  799SOL     MW 3196   2.531   2.899   0.185 -0.2805 -0.3237 -0.3320
  800SOL     OW 3197   1.920   3.093   1.718 -0.0730 -0.0677  0.0021
  800SOL    HW1 3198   1.840   3.041   1.730  0.3523 -1.5962 -2.5898
  800SOL    HW2 3199   1.968   3.092   1.802  2.2951  2.6389  0.2843
  800SOL     MW 3200   1.916   3.086   1.731  0.2956  0.0878 -0.3027
  801SOL     OW 3201   2.837   1.333   2.577  0.2050 -0.2748 -0.1626
  801SOL    HW1 3202   2.808   1.239   2.576 -1.2719  1.0499  0.3143
  801SOL    HW2 3203   2.917   1.335   2.519 -1.2574  0.7340 -3.0140
  801SOL     MW 3204   2.844   1.321   2.569 -0.1828  0.0331 -0.4759
  802SOL     OW 3205   2.551   1.503   2.753  0.3170  0.3072  0.0152
  802SOL    HW1 3206   2.585   1.423   2.708  1.7046  1.1589  0.0009
  802SOL    HW2 3207   2.638   1.541   2.788  2.8100  0.2335  0.4138
  802SOL     MW 3208   2.567   1.497   2.752  0.8290  0.4098  0.0659
  803SOL     OW 3209   2.236   1.317   1.953  0.0492  0.3155 -0.1056
  803SOL    HW1 3210   2.229   1.271   2.043 -1.3251  1.8903  2.7780
  803SOL    HW2 3211   2.225   1.255   1.879 -1.0935  3.2780 -0.1487
  803SOL     MW 3212   2.233   1.303   1.955 -0.2829  0.9141  0.2692
  804SOL     OW 3213   2.362   3.085   0.056  0.2303 -0.5207 -0.5628
  804SOL    HW1 3214   2.293   3.152   0.020 -2.1761 -0.8712  0.4934
  804SOL    HW2 3215   2.446   3.108   0.019 -0.6906 -0.6160  1.9935
  804SOL     MW 3216   2.364   3.097   0.046 -0.2087 -0.5795 -0.0862
  805SOL     OW 3217   2.826   1.044   2.616 -0.5637 -0.2016  0.5539
  805SOL    HW1 3218   2.773   0.987   2.559 -1.7635 -0.8177 -0.7793
  805SOL    HW2 3219   2.906   0.993   2.634  1.8040  0.3094  3.0854
  805SOL     MW 3220   2.829   1.030   2.611 -0.4096 -0.2154  0.7120
  806SOL     OW 3221   2.652   0.328   2.184  0.2249 -0.0915 -0.0574
  806SOL    HW1 3222   2.575   0.313   2.238 -1.5089  0.3540  2.4826
  806SOL    HW2 3223   2.642   0.414   2.152 -1.6449  0.0737  0.6231
  806SOL     MW 3224   2.641   0.337   2.187 -0.2505 -0.0110  0.3675
  807SOL     OW 3225   0.063   1.138   2.126  0.3311 -0.7870 -0.0061
  807SOL    HW1 3226   0.103   1.061   2.090 -0.9403 -1.2361  0.5239
  807SOL    HW2 3227  -0.015   1.112   2.173 -0.7299  0.8291 -0.4127
  807SOL     MW 3228   0.058   1.125   2.127  0.0234 -0.6330  0.0102
  808SOL     OW 3229   2.655   3.058   2.795 -0.2379 -0.0309 -0.5237
  808SOL    HW1 3230   2.601   2.979   2.789  1.0230 -0.3367 -1.0189
  808SOL    HW2 3231   2.625   3.113   2.727 -0.0665 -0.5626 -1.4099
  808SOL     MW 3232   2.644   3.055   2.785 -0.0489 -0.1414 -0.7060
  809SOL     OW 3233   2.527   1.229   2.413 -0.1010  0.0789 -0.3119
  809SOL    HW1 3234   2.566   1.216   2.494  0.8133 -0.2988  0.6227
  809SOL    HW2 3235   2.593   1.219   2.347  0.7072  1.4372 -1.5428
  809SOL     MW 3236   2.541   1.226   2.415  0.1262  0.2083 -0.3510
  810SOL     OW 3237   2.206   1.230   2.226  0.2416  0.5814  0.6815
  810SOL    HW1 3238   2.261   1.156   2.267  2.4260  1.1238  2.6051
  810SOL    HW2 3239   2.112   1.206   2.245  0.4230  0.2083  2.1160
  810SOL     MW 3240   2.201   1.217   2.234  0.5538  0.6037  1.1246
  811SOL     OW 3241   1.478   0.065   2.224  0.0486 -0.2720 -0.2380
  811SOL    HW1 3242   1.562   0.026   2.245  1.9849  1.6609  2.9331
  811SOL    HW2 3243   1.479   0.053   2.128  0.3221 -1.6609  2.4405
  811SOL     MW 3244   1.489   0.058   2.214  0.3402 -0.2002  0.5338
  812SOL     OW 3245   1.467   2.759   2.090  0.3859 -0.2779  0.3575
  812SOL    HW1 3246   1.557   2.773   2.064  0.0685  0.1376  2.3249
  812SOL    HW2 3247   1.475   2.720   2.177  0.7101 -1.1443  0.7585
  812SOL     MW 3248   1.480   2.756   2.098  0.3868 -0.3374  0.6700
  813SOL     OW 3249   1.844   0.686   2.140  0.2198  0.0948 -0.3414
  813SOL    HW1 3250   1.789   0.606   2.159 -2.6013 -1.0310  1.9803
  813SOL    HW2 3251   1.862   0.704   2.233  1.6854 -0.5040  1.3346
  813SOL     MW 3252   1.839   0.677   2.155  0.0409 -0.1327  0.1860
  814SOL     OW 3253   2.813   1.167   1.619 -0.1783 -0.2985 -0.2872
  814SOL    HW1 3254   2.725   1.171   1.648 -1.3759  1.3328 -0.1524
  814SOL    HW2 3255   2.815   1.142   1.526  0.7934 -0.7194 -0.3376
  814SOL     MW 3256   2.802   1.164   1.610 -0.2081 -0.1388 -0.2760
  815SOL     OW 3257   2.500   1.658   2.374 -0.3316  0.5695 -0.0268
  815SOL    HW1 3258   2.441   1.585   2.351  4.3325  1.7182 -0.0443
  815SOL    HW2 3259   2.581   1.606   2.376  0.4338 -2.6040 -0.1028
  815SOL     MW 3260   2.503   1.642   2.371  0.3848  0.3024 -0.0391
  816SOL     OW 3261   0.667   0.681   2.726  0.1013  0.7428  0.7257
  816SOL    HW1 3262   0.716   0.623   2.781  1.2612  0.7981 -0.1682
  816SOL    HW2 3263   0.624   0.624   2.651  1.3659  2.3093 -1.2698
  816SOL     MW 3264   0.668   0.666   2.723  0.4212  0.9568  0.3445
  817SOL     OW 3265   3.085   1.176   1.332  0.5090 -0.1499  0.0177
  817SOL    HW1 3266   3.141   1.171   1.408  0.0712  0.9692  0.0142
  817SOL    HW2 3267   3.060   1.265   1.335 -1.0181 -0.2679  3.8867
  817SOL     MW 3268   3.089   1.187   1.343  0.2498 -0.0178  0.5277
  818SOL     OW 3269   1.907   1.016   2.675  0.0822  0.4307 -0.2262
  818SOL    HW1 3270   1.949   1.056   2.598  2.0750  2.3096 -0.0137
  818SOL    HW2 3271   1.964   0.943   2.702 -1.1012 -1.7924  0.0957
  818SOL     MW 3272   1.920   1.011   2.668  0.1890  0.3853 -0.1557
  819SOL     OW 3273   1.951   0.204   2.324  0.4154 -0.6279 -0.1339
  819SOL    HW1 3274   2.022   0.152   2.301 -1.5213 -1.1664  2.2458
  819SOL    HW2 3275   1.953   0.214   2.423  0.2828 -1.2437  0.8212
  819SOL     MW 3276   1.961   0.198   2.334  0.1424 -0.7802  0.3061
  820SOL     OW 3277   2.481   1.750   2.627 -0.1652 -0.1160 -0.0652
  820SOL    HW1 3278   2.515   1.679   2.685  0.5434  1.1804 -0.0650
  820SOL    HW2 3279   2.478   1.707   2.542 -1.5350 -3.0459  2.1639
  820SOL     MW 3280   2.485   1.735   2.624 -0.2525 -0.3315  0.2289
  821SOL     OW 3281   2.530   1.338   2.000 -0.1727 -0.0890  0.2798
  821SOL    HW1 3282   2.569   1.407   1.948  0.4896 -1.7317  1.3423
  821SOL    HW2 3283   2.434   1.339   1.976 -2.3575  0.8194 -0.5240
  821SOL     MW 3284   2.522   1.347   1.990 -0.3736 -0.1859  0.3139
  822SOL     OW 3285   2.899   2.615   1.430  0.1670  0.0977  0.1622
  822SOL    HW1 3286   2.824   2.670   1.397  1.2224  2.3067  1.5745
  822SOL    HW2 3287   2.952   2.673   1.491  2.9040  0.3680 -2.7299
  822SOL     MW 3288   2.896   2.630   1.434  0.6674  0.4248 -0.0331
  823SOL     OW 3289   2.359   0.495   1.799  0.3472 -0.0083  0.6681
  823SOL    HW1 3290   2.405   0.425   1.749  1.1802  0.4415 -0.4110
  823SOL    HW2 3291   2.266   0.462   1.801 -3.0773  0.3314 -2.3275
  823SOL     MW 3292   2.353   0.482   1.792  0.0053  0.0959  0.1305
  824SOL     OW 3293   2.113   1.359   2.571 -0.0643  0.0868 -0.2628
  824SOL    HW1 3294   2.189   1.392   2.517 -1.1595 -1.5325  2.1678
  824SOL    HW2 3295   2.060   1.433   2.592 -0.0502 -0.7612 -0.7438
  824SOL     MW 3296   2.116   1.373   2.567 -0.2070 -0.2387 -0.0055
  825SOL     OW 3297   2.102   2.312   0.370 -0.2967  0.1954  0.1003
  825SOL    HW1 3298   2.155   2.334   0.298 -0.4975 -1.3750  2.0168
  825SOL    HW2 3299   2.167   2.320   0.440 -0.9933 -2.7008 -0.3205
  825SOL     MW 3300   2.118   2.316   0.370 -0.4151 -0.3939  0.2976
  826SOL     OW 3301   1.786   2.447   0.454  0.3663  0.0143  0.0544
  826SOL    HW1 3302   1.782   2.391   0.527 -0.5696  1.3882  0.1412
  826SOL    HW2 3303   1.878   2.469   0.455 -1.3106 -0.4179 -1.2199
  826SOL     MW 3304   1.798   2.442   0.463  0.0215  0.1386 -0.1023
  827SOL     OW 3305   1.909   2.249   0.890 -0.6864 -0.3197  0.0325
  827SOL    HW1 3306   1.862   2.251   0.807  1.2511  0.4587  0.0064
  827SOL    HW2 3307   1.865   2.176   0.938 -0.2303 -1.3282  0.9006
  827SOL     MW 3308   1.897   2.239   0.885 -0.3706 -0.3501  0.1436
  828SOL     OW 3309   0.067   2.667   0.510 -0.6336 -0.0021 -0.0263
  828SOL    HW1 3310   0.158   2.674   0.526  0.1304  1.1626  0.8406
  828SOL    HW2 3311   0.055   2.707   0.424  0.8726  0.1402  0.7232
  828SOL     MW 3312   0.077   2.673   0.501 -0.3340  0.1704  0.1869
  829SOL     OW 3313   2.960   2.880   1.158 -0.6687  0.0888 -0.3173
  829SOL    HW1 3314   2.869   2.882   1.114 -2.0712  0.9171 -1.9079
  829SOL    HW2 3315   2.995   2.795   1.140  0.7513 -0.7412 -1.1555
  829SOL     MW 3316   2.953   2.869   1.150 -0.6664  0.0886 -0.6377
  830SOL     OW 3317   2.526   2.841   1.997  0.1453  0.3842  0.3370
  830SOL    HW1 3318   2.451   2.878   1.940 -1.7118 -1.2175  0.5120
  830SOL    HW2 3319   2.585   2.802   1.930  1.9177  0.4581  0.9918
  830SOL     MW 3320   2.524   2.841   1.980  0.1341  0.1826  0.4465
  831SOL     OW 3321   2.451   2.417   1.200 -0.4362 -0.0218 -0.8015
  831SOL    HW1 3322   2.463   2.330   1.249  2.8926 -1.3532  2.7115
  831SOL    HW2 3323   2.543   2.422   1.162  1.9148  2.2323  2.6931
  831SOL     MW 3324   2.464   2.406   1.202  0.3132  0.0999  0.1231
  832SOL     OW 3325   2.405   2.136   1.906 -0.0541  0.3780 -0.4815
  832SOL    HW1 3326   2.435   2.231   1.906  1.0360  2.5266  0.5508
  832SOL    HW2 3327   2.460   2.102   1.840 -2.4071  0.3538 -0.3001
  832SOL     MW 3328   2.417   2.144   1.897 -0.2208  0.6583 -0.3213
  833SOL     OW 3329   1.618   2.501   0.811  0.0765 -0.2970  0.6032
  833SOL    HW1 3330   1.570   2.443   0.877  0.0225  1.2723  1.9288
  833SOL    HW2 3331   1.562   2.581   0.815 -0.4993 -2.1070  0.2098
  833SOL     MW 3332   1.604   2.504   0.820 -0.0066 -0.3288  0.7262
  834SOL     OW 3333   2.229   2.415   0.608  0.1043  0.0572  0.4443
  834SOL    HW1 3334   2.180   2.339   0.639  0.0458 -0.7378 -2.1774
  834SOL    HW2 3335   2.313   2.430   0.656 -3.0751 -1.2960 -0.6038
  834SOL     MW 3336   2.233   2.407   0.618 -0.3229 -0.2262 -0.0399
  835SOL     OW 3337   1.841   2.619   0.692  1.0318  0.2960  0.1835
  835SOL    HW1 3338   1.775   2.564   0.738 -3.6041 -0.5661  1.4272
  835SOL    HW2 3339   1.919   2.590   0.740 -0.7999  1.6903 -2.7794
  835SOL     MW 3340   1.843   2.608   0.704  0.1784  0.3662 -0.0434
  836SOL     OW 3341   2.077   2.052   1.798 -0.0241  0.5857  0.5683
  836SOL    HW1 3342   2.118   1.965   1.786 -2.6842 -0.7260 -1.6313
  836SOL    HW2 3343   2.134   2.107   1.848  0.0228 -1.6145  1.1225
  836SOL     MW 3344   2.090   2.048   1.803 -0.3689  0.1223  0.3512
  837SOL     OW 3345   2.074   0.199   0.668  0.0265 -0.5031 -0.4837
  837SOL    HW1 3346   2.001   0.211   0.608  1.0301 -0.2479  1.6510
  837SOL    HW2 3347   2.136   0.150   0.612  0.3430  0.3357  1.1050
  837SOL     MW 3348   2.072   0.194   0.653  0.2007 -0.3587  0.0076
  838SOL     OW 3349   2.953   2.053   0.929  0.1374  0.0793  0.4265
  838SOL    HW1 3350   2.877   1.994   0.943 -0.3558 -1.9296  2.8440
  838SOL    HW2 3351   2.994   2.053   1.016 -2.4239 -0.9016  0.7164
  838SOL     MW 3352   2.948   2.046   0.942 -0.2656 -0.3152  0.7837
  839SOL     OW 3353   1.517   2.454   1.070 -0.5794  0.3744  0.5996
  839SOL    HW1 3354   1.503   2.522   1.139  1.1679 -1.6992  0.0816
  839SOL    HW2 3355   1.560   2.381   1.103  2.3634 -0.2516 -0.0174
  839SOL     MW 3356   1.521   2.453   1.084  0.0394  0.0182  0.4499
  840SOL     OW 3357   2.369   2.096   2.325 -0.3602  0.1114  0.3349
  840SOL    HW1 3358   2.314   2.169   2.298  1.4381  1.7149 -2.7040
  840SOL    HW2 3359   2.413   2.123   2.407  1.2016 -1.9705 -1.2582
  840SOL     MW 3360   2.367   2.109   2.333  0.0831  0.0482 -0.2763
  841SOL     OW 3361   2.253   2.322   0.125 -0.4799  0.5647 -0.4211
  841SOL    HW1 3362   2.290   2.371   0.054  0.0587 -1.4663 -2.2701
  841SOL    HW2 3363   2.162   2.305   0.094 -0.6863  0.6108 -0.5750
  841SOL     MW 3364   2.246   2.327   0.111 -0.4361  0.3028 -0.6854
  842SOL     OW 3365   2.663   1.967   1.463  0.1154 -0.1381  0.4620
  842SOL    HW1 3366   2.619   1.886   1.428  2.1351 -2.3245  2.8257
  842SOL    HW2 3367   2.690   2.014   1.385  0.6650 -1.7924 -0.2112
  842SOL     MW 3368   2.661   1.962   1.448  0.4544 -0.6448  0.6850
  843SOL     OW 3369   2.683   2.749   1.812  0.3770  0.1533  0.5151
  843SOL    HW1 3370   2.755   2.706   1.852 -0.0631  0.0587 -1.0615
  843SOL    HW2 3371   2.631   2.687   1.749  0.7400  0.4527  0.8759
  843SOL     MW 3372   2.686   2.735   1.809  0.3668  0.1803  0.3547
  844SOL     OW 3373   2.700   2.364   1.114 -0.0462  0.3755  0.2523
  844SOL    HW1 3374   2.733   2.389   1.023 -0.6624  0.5144 -0.7480
  844SOL    HW2 3375   2.775   2.369   1.168 -0.2793 -1.4251 -1.6143
  844SOL     MW 3376   2.715   2.368   1.109 -0.1583  0.1562 -0.1260
  845SOL     OW 3377   2.808   2.609   0.274  0.0801 -0.0206 -0.1092
  845SOL    HW1 3378   2.813   2.527   0.333  1.5874  0.7404  3.9511
  845SOL    HW2 3379   2.828   2.687   0.329 -1.1123  1.0066  0.7418
  845SOL     MW 3380   2.812   2.608   0.289  0.1217  0.2153  0.5388
  846SOL     OW 3381   1.460   2.720   0.783 -0.0165  0.6265  0.1039
  846SOL    HW1 3382   1.511   2.801   0.772  0.0640  0.4685 -0.8067
  846SOL    HW2 3383   1.366   2.751   0.775  0.5634 -0.6519 -0.9208
  846SOL     MW 3384   1.454   2.735   0.781  0.0706  0.4370 -0.1514
  847SOL     OW 3385   2.432   1.829   0.238 -0.1922  0.4681 -0.0067
  847SOL    HW1 3386   2.406   1.741   0.255  1.2722 -1.2341  0.2159
  847SOL    HW2 3387   2.436   1.837   0.148 -1.7402 -3.6722  0.7022
  847SOL     MW 3388   2.429   1.818   0.228 -0.2033 -0.3028  0.1162
  848SOL     OW 3389   2.733   2.101   1.244  0.0122  0.0408  0.2074
  848SOL    HW1 3390   2.745   2.183   1.197 -0.5823  1.7554 -3.1470
  848SOL    HW2 3391   2.718   2.039   1.173  0.8057  1.3036  0.0167
  848SOL     MW 3392   2.732   2.104   1.228  0.0385  0.4336 -0.2604
  849SOL     OW 3393   1.884   2.846   0.854 -0.6046  0.0889 -0.4014
  849SOL    HW1 3394   1.833   2.798   0.916  0.9907 -0.0439  1.4364
  849SOL    HW2 3395   1.886   2.772   0.785 -1.6691 -0.4665 -0.0630
  849SOL     MW 3396   1.878   2.830   0.853 -0.5346 -0.0019 -0.1143
  850SOL     OW 3397   2.335   1.922   1.609 -0.0600 -0.0977 -0.0652
  850SOL    HW1 3398   2.248   1.908   1.565  0.6044 -0.2844  0.1415
  850SOL    HW2 3399   2.360   2.017   1.587 -0.7535  1.6269 -1.3914
  850SOL     MW 3400   2.327   1.933   1.601 -0.0638  0.1052 -0.2129
  851SOL     OW 3401   2.602   2.229   0.386  0.0814  0.2367  0.0162
  851SOL    HW1 3402   2.609   2.213   0.291  3.2082  1.8072  0.6419
  851SOL    HW2 3403   2.563   2.318   0.386 -1.2183  2.9775 -2.9912
  851SOL     MW 3404   2.598   2.238   0.374  0.3225  0.8056 -0.2980
  852SOL     OW 3405   2.335   2.045   0.369  0.1522 -0.0439  0.4076
  852SOL    HW1 3406   2.397   2.108   0.335 -0.8918  0.2972  2.3446
  852SOL    HW2 3407   2.357   1.956   0.325  0.2944 -0.7453 -0.1843
  852SOL     MW 3408   2.346   2.041   0.359  0.0332 -0.0914  0.5850
  853SOL     OW 3409   2.521   2.390   1.902 -0.4005 -0.3325  0.5948
  853SOL    HW1 3410   2.540   2.439   1.821  0.9940  0.3918 -0.4433
  853SOL    HW2 3411   2.608   2.382   1.944  0.4596 -2.0353 -0.8111
  853SOL     MW 3412   2.535   2.395   1.897 -0.1031 -0.4616  0.2724
  854SOL     OW 3413   2.878   2.273   0.751 -0.2248  0.2443 -0.2278
  854SOL    HW1 3414   2.787   2.243   0.722 -0.3660  1.2230  1.3959
  854SOL    HW2 3415   2.912   2.201   0.814  0.0765 -0.2178 -0.7895
  854SOL     MW 3416   2.871   2.260   0.756 -0.2037  0.3125 -0.0877
  855SOL     OW 3417   2.823   2.378   0.405 -0.5467  0.1227 -0.3709
  855SOL    HW1 3418   2.752   2.309   0.404  0.7605 -2.0733  0.4236
  855SOL    HW2 3419   2.902   2.323   0.386  1.8684  1.9831  3.3062
  855SOL     MW 3420   2.824   2.361   0.402 -0.0556  0.0784  0.2191
  856SOL     OW 3421   2.053   1.843   0.254 -0.1599  0.2880 -0.0748
  856SOL    HW1 3422   1.963   1.807   0.256  2.5129 -1.0156  0.0598
  856SOL    HW2 3423   2.031   1.933   0.281 -1.4523 -2.2057  2.8777
  856SOL     MW 3424   2.038   1.850   0.258  0.0223 -0.2130  0.3325
  857SOL     OW 3425   2.489   1.940   0.592 -0.3200  0.6843  0.1527
  857SOL    HW1 3426   2.440   1.972   0.517  1.0331  0.1793 -1.6856
  857SOL    HW2 3427   2.426   1.933   0.659  3.0968  1.0237  0.6186
  857SOL     MW 3428   2.474   1.944   0.591  0.3094  0.6625 -0.0284
  858SOL     OW 3429   2.966   2.686   1.902  0.2998 -0.1564  0.6975
  858SOL    HW1 3430   3.042   2.742   1.891  0.3064  0.7317 -2.3273
  858SOL    HW2 3431   2.974   2.626   1.825  2.4596 -1.1755 -0.2487
  858SOL     MW 3432   2.977   2.686   1.890  0.5857 -0.1737  0.1736
  859SOL     OW 3433   1.767   2.662   1.016  0.1927  0.2410  0.7835
  859SOL    HW1 3434   1.686   2.629   0.989  1.6899 -1.4842  3.2136
  859SOL    HW2 3435   1.819   2.582   1.040  2.0660 -2.6533 -0.6415
  859SOL     MW 3436   1.764   2.647   1.016  0.6374 -0.3685  0.9161
  860SOL     OW 3437   2.657   2.551   0.057 -0.2993 -0.3067 -0.0628
  860SOL    HW1 3438   2.700   2.584   0.140  1.9268 -0.0075 -2.1214
  860SOL    HW2 3439   2.659   2.613  -0.022  1.4949 -0.1426 -1.8126
  860SOL     MW 3440   2.663   2.564   0.058  0.2312 -0.2455 -0.5653
  861SOL     OW 3441   1.579   2.169   1.176 -0.4994  0.8781  0.0365
  861SOL    HW1 3442   1.607   2.209   1.265  3.4319  0.3912  0.3431
  861SOL    HW2 3443   1.513   2.106   1.212  0.6862  1.1271  1.2823
  861SOL     MW 3444   1.574   2.166   1.193  0.1757  0.8467  0.2414
  862SOL     OW 3445   2.474   1.764   1.466  0.6091  0.7419  0.1445
  862SOL    HW1 3446   2.418   1.830   1.521 -1.1201 -2.3593 -0.6596
  862SOL    HW2 3447   2.433   1.742   1.384  2.3638  2.3168 -2.0254
  862SOL     MW 3448   2.461   1.770   1.463  0.6124  0.5406 -0.2479
  863SOL     OW 3449   2.873   1.637   0.962  0.2266 -0.5261  0.6280
  863SOL    HW1 3450   2.861   1.726   0.994  0.7436 -0.3096 -0.7032
  863SOL    HW2 3451   2.812   1.618   0.889  1.7919 -1.5996 -0.2112
  863SOL     MW 3452   2.864   1.646   0.957  0.5013 -0.6392  0.3417
  864SOL     OW 3453   3.068   1.779   0.780 -0.4602  0.1578  0.4097
  864SOL    HW1 3454   3.038   1.723   0.851  1.9420  1.2929  0.2075
  864SOL    HW2 3455   2.997   1.811   0.723 -0.0071 -1.5457 -0.9154
  864SOL     MW 3456   3.055   1.776   0.782 -0.0835  0.0828  0.2082
  865SOL     OW 3457   2.502   2.165   0.117 -0.6055  0.0980 -0.3598
  865SOL    HW1 3458   2.468   2.089   0.073 -2.1137 -1.6330 -0.7049
  865SOL    HW2 3459   2.431   2.228   0.125 -2.6472  2.5700  2.0757
  865SOL     MW 3460   2.488   2.163   0.113 -1.0738  0.1958 -0.0840
  866SOL     OW 3461   2.722   2.334   1.521 -0.0207 -0.5283  0.2740
  866SOL    HW1 3462   2.713   2.250   1.564 -1.5184  1.7737 -1.6787
  866SOL    HW2 3463   2.763   2.327   1.435  0.1676 -1.5791 -3.3433
  866SOL     MW 3464   2.726   2.322   1.515 -0.1935 -0.3632 -0.4609
  867SOL     OW 3465   0.151   2.698   1.709 -0.6905  0.0049 -0.1882
  867SOL    HW1 3466   0.234   2.735   1.744  0.2363 -0.0961 -0.8374
  867SOL    HW2 3467   0.098   2.773   1.704  0.8395 -2.0377 -2.6255
  867SOL     MW 3468   0.155   2.713   1.713 -0.3663 -0.2780 -0.5955
  868SOL     OW 3469   2.745   2.612   0.566  0.1304 -0.7708 -0.0483
  868SOL    HW1 3470   2.739   2.528   0.531  0.3858  0.0113 -2.7675
  868SOL    HW2 3471   2.673   2.664   0.532  1.3557 -0.4330  0.0590
  868SOL     MW 3472   2.735   2.608   0.557  0.3258 -0.6230 -0.3929
  869SOL     OW 3473   1.958   2.466   1.049  0.3404  0.1798 -0.4321
  869SOL    HW1 3474   2.026   2.488   0.981  0.5330  5.0048 -0.0319
  869SOL    HW2 3475   1.919   2.385   1.011 -2.0911  2.0189  1.3395
  869SOL     MW 3476   1.961   2.458   1.035  0.0450  1.0591 -0.1456
  870SOL     OW 3477   2.171   0.016   0.461 -0.0235 -0.6289  0.1738
  870SOL    HW1 3478   2.237   0.060   0.407  2.0488  2.8699 -2.0131
  870SOL    HW2 3479   2.204  -0.070   0.493 -0.2553  0.9519  1.2448
  870SOL     MW 3480   2.184   0.011   0.458  0.2194  0.0413  0.0266
  871SOL     OW 3481   2.445   2.055   0.910  0.5838  0.2888  0.1929
  871SOL    HW1 3482   2.370   2.011   0.859 -0.8885 -2.4649  0.9439
  871SOL    HW2 3483   2.417   2.145   0.949  0.2616 -0.1568  1.1147
  871SOL     MW 3484   2.431   2.061   0.909  0.3470 -0.1333  0.4136
  872SOL     OW 3485   2.109   2.467   1.617  0.0187  0.0054  0.1157
  872SOL    HW1 3486   2.055   2.539   1.648  0.0298 -0.6051  0.1719
  872SOL    HW2 3487   2.071   2.426   1.543  0.1520  1.2043 -0.7254
  872SOL     MW 3488   2.097   2.471   1.612  0.0378  0.0830  0.0121
  873SOL     OW 3489   2.893   2.130   1.823 -0.4708 -0.3505  0.0321
  873SOL    HW1 3490   2.910   2.166   1.907 -1.1496 -2.3094  1.1844
  873SOL    HW2 3491   2.970   2.157   1.775  0.4516 -0.2802  1.1249
  873SOL     MW 3492   2.906   2.138   1.828 -0.4387 -0.5997  0.3283
  874SOL     OW 3493   2.342   1.420   2.375  0.2750 -0.1418 -0.0318
  874SOL    HW1 3494   2.283   1.362   2.319  1.8441  0.0662  1.6563
  874SOL    HW2 3495   2.399   1.354   2.412 -1.7957  1.5396 -2.5986
  874SOL     MW 3496   2.342   1.403   2.372  0.2088  0.1075 -0.1477
  875SOL     OW 3497   2.331   2.280   0.997 -0.2076  0.5432 -0.1360
  875SOL    HW1 3498   2.339   2.341   0.924  0.8102 -0.1644 -0.3403
  875SOL    HW2 3499   2.380   2.326   1.064  2.4734 -0.2751 -0.3022
  875SOL     MW 3500   2.338   2.294   0.996  0.2804  0.3419 -0.1849
  876SOL     OW 3501   0.032   2.206   1.286  0.5465 -0.3527 -0.1769
  876SOL    HW1 3502   0.100   2.247   1.233 -0.6139 -2.3119 -3.1096
  876SOL    HW2 3503   0.062   2.239   1.374  5.6993  2.1307  0.1419
  876SOL     MW 3504   0.045   2.216   1.290  1.0733 -0.2835 -0.5218
  877SOL     OW 3505   0.047   2.791   0.273  0.9579  0.2616 -0.1351
  877SOL    HW1 3506   0.126   2.843   0.251 -1.4105 -0.9411  0.7025
  877SOL    HW2 3507   0.038   2.728   0.201  1.5296  1.2310  1.8267
  877SOL     MW 3508   0.056   2.790   0.261  0.7209  0.2308  0.2343
  878SOL     OW 3509   2.253   1.733   1.139  0.0349  0.7781 -0.0787
  878SOL    HW1 3510   2.213   1.699   1.225 -0.6755  0.4079  1.6176
  878SOL    HW2 3511   2.341   1.693   1.155 -0.6331  0.4799 -0.6196
  878SOL     MW 3512   2.260   1.724   1.153 -0.1469  0.6899  0.0737
  879SOL     OW 3513   2.708   2.449   0.866 -0.0784 -0.0827  0.0260
  879SOL    HW1 3514   2.737   2.533   0.910 -3.4996  1.6991  0.9068
  879SOL    HW2 3515   2.786   2.411   0.823 -0.5038  1.6897  1.5475
  879SOL     MW 3516   2.722   2.455   0.866 -0.5859  0.3862  0.3430
  880SOL     OW 3517   2.623   2.197   0.704  0.2743 -0.0850  0.0815
  880SOL    HW1 3518   2.585   2.176   0.784  2.5660 -3.6506 -4.0266
  880SOL    HW2 3519   2.573   2.142   0.636 -0.2480 -0.9181 -0.4364
  880SOL     MW 3520   2.611   2.187   0.705  0.5078 -0.6654 -0.5289
  881SOL     OW 3521   2.957   2.704   0.694 -0.1719 -0.1769 -0.0646
  881SOL    HW1 3522   2.872   2.680   0.654 -1.7247  0.2323 -0.4924
  881SOL    HW2 3523   3.021   2.694   0.625  1.2082 -1.8526 -2.0413
  881SOL     MW 3524   2.954   2.699   0.680 -0.1947 -0.3440 -0.3818
  882SOL     OW 3525   2.251   2.896   1.909  0.5076 -0.0395 -0.2305
  882SOL    HW1 3526   2.243   2.873   1.818 -1.1268  0.9451  0.0148
  882SOL    HW2 3527   2.197   2.829   1.948 -1.4498 -1.1003 -0.5067
  882SOL     MW 3528   2.242   2.884   1.902  0.0337 -0.0496 -0.2346
  883SOL     OW 3529   2.434   2.174   1.329 -0.0456  0.2418  0.2073
  883SOL    HW1 3530   2.489   2.131   1.264 -3.5925 -0.3059 -0.8618
  883SOL    HW2 3531   2.342   2.167   1.297 -1.8678 -0.7858  2.2635
  883SOL     MW 3532   2.429   2.167   1.316 -0.7540  0.0340  0.3376
  884SOL     OW 3533   1.884   1.855   1.050  0.0953 -0.7863  0.2965
  884SOL    HW1 3534   1.826   1.939   1.031 -0.5197  0.4889 -2.2198
  884SOL    HW2 3535   1.977   1.889   1.044  0.2116 -0.5217 -1.4981
  884SOL     MW 3536   1.889   1.870   1.047  0.0295 -0.5831 -0.2723
  885SOL     OW 3537   2.915   2.448   1.721 -0.4774  0.4908 -0.0455
  885SOL    HW1 3538   2.997   2.399   1.700 -0.7696  0.6508  0.8522
  885SOL    HW2 3539   2.864   2.446   1.642  0.3097  0.3064  0.8777
  885SOL     MW 3540   2.919   2.441   1.708 -0.4121  0.4876  0.1947
  886SOL     OW 3541   2.893   2.384   1.295 -0.0438 -0.0807  0.4468
  886SOL    HW1 3542   2.975   2.334   1.304  1.4513 -0.1299  0.6974
  886SOL    HW2 3543   2.913   2.468   1.337  1.0754 -1.8057 -2.0192
  886SOL     MW 3544   2.906   2.388   1.302  0.3012 -0.3148  0.1545
  887SOL     OW 3545   2.337   2.616   1.553 -0.1639 -0.3280  0.0065
  887SOL    HW1 3546   2.350   2.644   1.460 -0.3816 -0.4970  0.5887
  887SOL    HW2 3547   2.260   2.562   1.562 -1.9542  0.9240  0.9991
  887SOL     MW 3548   2.328   2.612   1.542 -0.4288 -0.1851  0.2143
  888SOL     OW 3549   2.066   2.221   1.442 -0.2201  0.9646  0.7371
  888SOL    HW1 3550   2.106   2.227   1.357  2.7654 -0.8238  0.8708
  888SOL    HW2 3551   2.138   2.212   1.502 -2.9917 -0.6534 -0.3914
  888SOL     MW 3552   2.081   2.221   1.439 -0.1918  0.5151  0.6058
  889SOL     OW 3553   2.298   1.928   2.074  0.4219 -0.0083  0.0853
  889SOL    HW1 3554   2.380   1.910   2.116  0.4073  0.0088 -1.9463
  889SOL    HW2 3555   2.322   2.010   2.028  0.3715  1.0165  0.7497
  889SOL     MW 3556   2.312   1.937   2.074  0.4134  0.1292 -0.0951
  890SOL     OW 3557   0.049   2.345   0.116 -0.4101 -0.1127 -0.1019
  890SOL    HW1 3558   0.022   2.438   0.112  0.6957  0.0843 -1.7151
  890SOL    HW2 3559   0.065   2.332   0.209  1.8338  0.7678  1.0966
  890SOL     MW 3560   0.048   2.356   0.128  0.0319  0.0295 -0.1566
  891SOL     OW 3561   3.006   1.960   1.203 -0.0579  0.1489 -0.1909
  891SOL    HW1 3562   3.082   1.900   1.187 -0.2864 -0.7847  3.4165
  891SOL    HW2 3563   3.036   2.052   1.227 -1.2293 -1.6655  2.9270
  891SOL     MW 3564   3.020   1.964   1.204 -0.2426 -0.2136  0.6964
  892SOL     OW 3565   2.431   2.353   2.738  0.0417 -0.3847  0.1196
  892SOL    HW1 3566   2.414   2.269   2.791  1.2676 -0.4378  0.4423
  892SOL    HW2 3567   2.521   2.369   2.767 -1.0315  1.4225  2.3378
  892SOL     MW 3568   2.441   2.344   2.749  0.0619 -0.1532  0.4549
  893SOL     OW 3569   1.635   2.340   1.380 -0.0657  0.0280 -0.1910
  893SOL    HW1 3570   1.557   2.390   1.399 -1.8727  0.4105 -1.0905
  893SOL    HW2 3571   1.680   2.316   1.460  3.8574  1.2609 -2.1595
  893SOL     MW 3572   1.630   2.343   1.393  0.2135  0.2411 -0.5694
  894SOL     OW 3573   2.795   1.970   0.520  0.1929 -0.2628  0.4141
  894SOL    HW1 3574   2.736   1.982   0.593 -0.0668  0.1157  4.1873
  894SOL    HW2 3575   2.744   1.932   0.448 -0.6707  0.6501  0.1868
  894SOL     MW 3576   2.781   1.967   0.520  0.0447 -0.0924  0.8819
  895SOL     OW 3577   2.188   2.175   1.193  0.1305  0.2334 -0.1348
  895SOL    HW1 3578   2.224   2.205   1.107 -1.2347 -1.7832  0.9430
  895SOL    HW2 3579   2.149   2.087   1.168 -3.4420 -0.6529  0.7903
  895SOL     MW 3580   2.187   2.167   1.179 -0.5210 -0.1496  0.1295
  896SOL     OW 3581   2.347   2.800   1.084  0.4236  0.2869 -0.4308
  896SOL    HW1 3582   2.356   2.742   1.164 -1.0253 -0.0713 -0.4826
  896SOL    HW2 3583   2.252   2.825   1.080  0.7570  1.6795 -1.2981
  896SOL     MW 3584   2.336   2.796   1.094  0.2764  0.4234 -0.5520
  897SOL     OW 3585   0.015   3.058   3.021 -0.2911  0.1259 -0.5436
  897SOL    HW1 3586   0.058   2.973   2.998 -1.3010  1.3183 -0.2632
  897SOL    HW2 3587  -0.056   3.061   2.956  2.7352 -1.8545 -0.7553
  897SOL     MW 3588   0.011   3.047   3.009 -0.0250  0.0219 -0.5345
  898SOL     OW 3589   2.145   0.182   1.435 -0.1879 -0.2484  0.3427
  898SOL    HW1 3590   2.128   0.089   1.460 -0.6924 -0.1370 -1.3192
  898SOL    HW2 3591   2.127   0.178   1.340 -1.7266 -3.0817 -0.9713
  898SOL     MW 3592   2.141   0.170   1.426 -0.4575 -0.6075 -0.0500
  899SOL     OW 3593   3.003   2.951   0.623 -0.7212 -0.1940  0.5503
  899SOL    HW1 3594   2.993   2.864   0.664  0.8150 -0.8385 -1.6695
  899SOL    HW2 3595   2.938   3.013   0.652  1.8790 -2.7962 -0.0118
  899SOL     MW 3596   2.993   2.947   0.633 -0.1754 -0.6224  0.1833
  900SOL     OW 3597   0.164   2.376   1.129 -0.4789  0.2676 -0.3489
  900SOL    HW1 3598   0.108   2.453   1.149 -1.0692  1.9056 -1.7406
  900SOL    HW2 3599   0.133   2.353   1.038 -1.2646  0.5145 -1.5808
  900SOL     MW 3600   0.153   2.383   1.119 -0.6604  0.5163 -0.6951
  901SOL     OW 3601   1.749   2.865   1.769  0.3825  0.0460 -0.2084
  901SOL    HW1 3602   1.819   2.806   1.751  1.5603 -2.6570  1.5327
  901SOL    HW2 3603   1.664   2.811   1.756 -1.7766 -0.4419  1.2183
  901SOL     MW 3604   1.747   2.850   1.765  0.2530 -0.3750  0.2096
  902SOL     OW 3605   2.618   2.088   1.720  0.2592  0.2497 -0.2369
  902SOL    HW1 3606   2.659   2.046   1.643  1.7387 -0.9832 -1.7037
  902SOL    HW2 3607   2.689   2.104   1.783  1.2271 -0.9551  1.0160
  902SOL     MW 3608   2.632   2.084   1.718  0.5821 -0.0719 -0.2651
  903SOL     OW 3609   1.553   2.654   0.531  0.4069 -0.3612 -0.1133
  903SOL    HW1 3610   1.643   2.627   0.550  0.8331  2.1556  1.0917
  903SOL    HW2 3611   1.529   2.707   0.606  3.5655 -0.1574  2.6846
  903SOL     MW 3612   1.561   2.658   0.543  0.8799 -0.0022  0.4149
  904SOL     OW 3613   2.555   2.537   1.678  0.5123 -0.2836  0.1800
  904SOL    HW1 3614   2.476   2.566   1.631 -1.9085  1.2839  0.0848
  904SOL    HW2 3615   2.592   2.471   1.619  1.3095  1.2465 -0.0827
  904SOL     MW 3616   2.549   2.533   1.664  0.2981  0.1251  0.1328
  905SOL     OW 3617   2.333   2.513   2.079  0.0732  0.3036 -0.5308
  905SOL    HW1 3618   2.404   2.476   2.022  1.8147 -0.9189  1.1503
  905SOL    HW2 3619   2.304   2.452   2.148 -1.2728  1.2882 -0.0050
  905SOL     MW 3620   2.339   2.500   2.081  0.1254  0.2722 -0.2396
  906SOL     OW 3621   2.403   2.459   0.804  0.0267 -0.1446  0.7363
  906SOL    HW1 3622   2.496   2.448   0.820  0.5147 -0.0632  0.0427
  906SOL    HW2 3623   2.389   2.546   0.850  0.0783 -0.5990  1.2807
  906SOL     MW 3624   2.414   2.469   0.812  0.0979 -0.1938  0.7166
  907SOL     OW 3625   2.663   2.750   1.324  0.0944  0.6902 -0.1857
  907SOL    HW1 3626   2.713   2.823   1.351 -0.6587 -3.6090  1.6698
  907SOL    HW2 3627   2.653   2.767   1.229 -1.6048  1.1702 -4.5014
  907SOL     MW 3628   2.668   2.762   1.315 -0.2292  0.1863 -0.5103
  908SOL     OW 3629   2.674   2.302   3.074 -0.0222 -0.1267  0.0785
  908SOL    HW1 3630   2.606   2.251   3.101  0.8410 -0.2186 -1.8720
  908SOL    HW2 3631   2.667   2.388   3.122 -2.3930 -1.1356 -1.9334
  908SOL     MW 3632   2.664   2.306   3.084 -0.2211 -0.2720 -0.4443
  909SOL     OW 3633   1.714   0.099   1.308  0.0387 -0.0393  0.5847
  909SOL    HW1 3634   1.674   0.184   1.318 -2.0978 -2.1352 -1.0457
  909SOL    HW2 3635   1.703   0.064   1.399  1.3840 -0.3016 -1.3863
  909SOL     MW 3636   1.707   0.105   1.321 -0.0657 -0.3504  0.1095
  910SOL     OW 3637   2.143   1.639   0.459  0.2456  0.3336  0.2012
  910SOL    HW1 3638   2.058   1.599   0.459  2.1099 -1.4596  1.1078
  910SOL    HW2 3639   2.140   1.711   0.391 -0.6517 -0.4364  1.7432
  910SOL     MW 3640   2.131   1.643   0.450  0.3732 -0.0046  0.5243
  911SOL     OW 3641   2.366   2.195   1.591 -0.6917 -0.3717  0.4064
  911SOL    HW1 3642   2.418   2.189   1.666 -1.8839  0.5617  0.9304
  911SOL    HW2 3643   2.420   2.204   1.519 -0.3757 -1.3068  3.2089
  911SOL     MW 3644   2.380   2.195   1.591 -0.8073 -0.3719  0.8453
  912SOL     OW 3645   2.927   1.846   1.450 -0.1345  0.1022  0.1166
  912SOL    HW1 3646   2.932   1.895   1.361 -0.4144  0.6340 -0.5214
  912SOL    HW2 3647   2.859   1.894   1.501  0.5206  2.3409  1.9532
  912SOL     MW 3648   2.919   1.859   1.445 -0.0850  0.4677  0.2747
  913SOL     OW 3649   2.692   3.093   0.323  0.3010 -0.4381  0.4692
  913SOL    HW1 3650   2.769   3.044   0.340  0.1792  0.6379  1.6914
  913SOL    HW2 3651   2.635   3.031   0.280  0.6609  1.3716  1.4187
  913SOL     MW 3652   2.695   3.078   0.320  0.3324 -0.0574  0.7558
  914SOL     OW 3653   2.647   1.778   3.067 -0.0083  0.1015  0.4102
  914SOL    HW1 3654   2.695   1.862   3.048  0.0718 -1.5699 -3.1153
  914SOL    HW2 3655   2.562   1.780   3.030  1.4796  1.4235  2.2253
  914SOL     MW 3656   2.642   1.789   3.060  0.1986  0.0554  0.1846
  915SOL     OW 3657   1.812   0.107   0.173  0.2440 -0.4312  0.2943
  915SOL    HW1 3658   1.891   0.041   0.186 -0.1161 -1.0740 -2.0998
  915SOL    HW2 3659   1.728   0.059   0.187  2.4812 -2.4824  0.9809
  915SOL     MW 3660   1.811   0.092   0.177  0.4916 -0.7866  0.0690
  916SOL     OW 3661   1.785   2.101   1.982  0.1209 -0.7198 -0.4127
  916SOL    HW1 3662   1.832   2.182   1.959  0.3184 -1.4844 -0.7108
  916SOL    HW2 3663   1.792   2.041   1.908 -0.8327 -0.4100  1.6523
  916SOL     MW 3664   1.792   2.104   1.969  0.0211 -0.7798 -0.1795
  917SOL     OW 3665   2.507   2.197   2.530 -0.0622 -0.0200 -0.0652
  917SOL    HW1 3666   2.486   2.252   2.609 -2.6748  0.9583  2.3126
  917SOL    HW2 3667   2.561   2.249   2.474 -0.8791  3.2300 -1.3889
  917SOL     MW 3668   2.511   2.211   2.533 -0.5147  0.5379  0.0739
  918SOL     OW 3669   2.026   1.594   2.675  0.0876  0.0655  0.0588
  918SOL    HW1 3670   1.953   1.597   2.609 -1.5351 -1.6158  1.1680
  918SOL    HW2 3671   2.073   1.675   2.658 -0.1759 -2.3652  0.1473
  918SOL     MW 3672   2.022   1.605   2.664 -0.1613 -0.4770  0.2168
  919SOL     OW 3673   3.051   2.395   2.265 -0.3164 -0.0813 -1.0385
  919SOL    HW1 3674   2.988   2.335   2.236  2.5774 -1.1083  1.2299
  919SOL    HW2 3675   3.117   2.407   2.194  0.3824  2.2485 -2.6248
  919SOL     MW 3676   3.051   2.388   2.252  0.1576  0.0906 -0.9485
  920SOL     OW 3677   2.597   2.876   3.031  0.4228  0.0594  0.2586
  920SOL    HW1 3678   2.510   2.841   3.042  1.9767 -0.1909  0.2041
  920SOL    HW2 3679   2.645   2.810   2.983 -0.2470  0.6941 -2.7371
  920SOL     MW 3680   2.592   2.863   3.026  0.5394  0.1101 -0.1439
  921SOL     OW 3681   2.406   2.590   2.585 -0.1019  0.3027 -0.3827
  921SOL    HW1 3682   2.437   2.590   2.497 -1.6263  0.3246 -0.8910
  921SOL    HW2 3683   2.430   2.507   2.621 -1.0458  1.1960 -2.6964
  921SOL     MW 3684   2.413   2.579   2.578 -0.4276  0.4234 -0.7550
  922SOL     OW 3685   2.102   2.653   0.406  0.9062 -0.0725  0.1184
  922SOL    HW1 3686   2.136   2.648   0.316  1.2913 -0.6865 -2.5175
  922SOL    HW2 3687   2.122   2.576   0.451 -2.9350  4.3428  1.8249
  922SOL     MW 3688   2.109   2.642   0.400  0.4502  0.4290 -0.0042
  923SOL     OW 3689   2.214   2.837   1.644 -0.4441 -1.0577 -0.3459
  923SOL    HW1 3690   2.269   2.768   1.605 -0.6133 -0.6954  1.5246
  923SOL    HW2 3691   2.171   2.882   1.570  2.2501  0.2362  0.0428
  923SOL     MW 3692   2.216   2.834   1.629 -0.1110 -0.8391 -0.0478
  924SOL     OW 3693   1.073   2.725   2.600  0.4216  0.0700 -0.1941
  924SOL    HW1 3694   1.170   2.724   2.590 -0.2653 -2.4947  0.5987
  924SOL    HW2 3695   1.049   2.650   2.656  1.1990 -2.3124  0.4536
  924SOL     MW 3696   1.083   2.715   2.606  0.4335 -0.5827 -0.0041
  925SOL     OW 3697   2.962   0.150   2.636 -0.7581 -0.1770  0.3084
  925SOL    HW1 3698   2.905   0.149   2.556 -0.9037  0.7704 -3.2662
  925SOL    HW2 3699   2.955   0.237   2.680 -0.7601 -1.1766 -1.7300
  925SOL     MW 3700   2.953   0.162   2.632 -0.7776 -0.1839 -0.4322
  926SOL     OW 3701   2.789   2.411   1.958 -0.3161 -0.0216  0.3648
  926SOL    HW1 3702   2.822   2.490   2.001  1.7050  2.2715  1.7978
  926SOL    HW2 3703   2.837   2.414   1.874  0.5311 -0.1197  0.9562
  926SOL     MW 3704   2.800   2.422   1.952  0.0623  0.2680  0.6319
  927SOL     OW 3705   2.360   0.116   0.299  0.0121  0.0685 -0.0031
  927SOL    HW1 3706   2.445   0.117   0.340  0.7933  0.1171  1.0119
  927SOL    HW2 3707   2.374   0.077   0.210  3.1993 -1.0030  3.0383
  927SOL     MW 3708   2.373   0.111   0.292  0.5357 -0.0665  0.5321
  928SOL     OW 3709   2.175   2.338   1.857  0.1412  0.5269 -0.3253
  928SOL    HW1 3710   2.190   2.369   1.767  0.0129 -4.6622 -0.4488
  928SOL    HW2 3711   2.188   2.411   1.919 -0.4010  1.2536  0.9085
  928SOL     MW 3712   2.179   2.351   1.853  0.0528 -0.0619 -0.1788
  929SOL     OW 3713   2.710   2.358   2.418 -0.5998  0.0514 -0.0547
  929SOL    HW1 3714   2.749   2.316   2.339  0.7139  1.7923 -0.7796
  929SOL    HW2 3715   2.771   2.344   2.494  0.4757  2.5698  3.1544
  929SOL     MW 3716   2.724   2.351   2.417 -0.2845  0.6134  0.2731
  930SOL     OW 3717   2.047   2.826   2.690 -0.0445 -0.3856  0.4499
  930SOL    HW1 3718   2.062   2.741   2.728  1.0431 -0.6336  2.8189
  930SOL    HW2 3719   2.137   2.858   2.669  1.4246 -2.7310 -1.6514
  930SOL     MW 3720   2.061   2.819   2.692  0.2929 -0.7278  0.4852
  931SOL     OW 3721   0.031   2.759   2.467  0.1190 -0.2295  0.7171
  931SOL    HW1 3722   0.006   2.830   2.537 -1.1918  1.1599  1.5172
  931SOL    HW2 3723   0.124   2.782   2.451 -0.9545 -1.4712 -1.7210
  931SOL     MW 3724   0.040   2.771   2.474 -0.1956 -0.2100  0.5010
  932SOL     OW 3725   2.754   2.030   2.452  0.0237 -0.3360 -0.0280
  932SOL    HW1 3726   2.840   2.064   2.478 -0.5398 -3.2141  2.0097
  932SOL    HW2 3727   2.761   2.020   2.359  0.4336  0.2786  0.3647
  932SOL     MW 3728   2.766   2.033   2.443  0.0034 -0.6347  0.2927
  933SOL     OW 3729   2.087   2.784   2.232 -0.3741  0.6605  0.5761
  933SOL    HW1 3730   2.147   2.814   2.298  3.1416 -1.1639 -0.1660
  933SOL    HW2 3731   2.058   2.875   2.198  2.1026 -0.0977 -0.1229
  933SOL     MW 3732   2.091   2.800   2.236  0.4165  0.3197  0.3860
  934SOL     OW 3733   2.000   2.657   2.456 -0.4020 -0.1410  0.1320
  934SOL    HW1 3734   2.017   2.717   2.524  1.3711  0.8111  2.1093
  934SOL    HW2 3735   2.030   2.688   2.372  1.0533  0.3978  0.2117
  934SOL     MW 3736   2.006   2.669   2.454  0.0239  0.0557  0.4034
  935SOL     OW 3737   2.652   1.525   1.825  0.1905  0.5546 -0.0061
  935SOL    HW1 3738   2.744   1.498   1.814  1.1465  0.0338  1.0714
  935SOL    HW2 3739   2.617   1.509   1.737  1.1068 -0.2796  1.0539
  935SOL     MW 3740   2.660   1.519   1.812  0.4375  0.3758  0.2759
  936SOL     OW 3741   2.932   2.216   0.029  0.3696 -0.1636  0.3090
  936SOL    HW1 3742   2.987   2.283   0.075 -1.3274 -0.1016 -3.6867
  936SOL    HW2 3743   2.850   2.254   0.003 -2.1204 -0.0609 -1.6133
  936SOL     MW 3744   2.929   2.230   0.032 -0.1828 -0.1419 -0.4718
  937SOL     OW 3745   1.951   2.113   2.629  0.8089  0.0403  0.7622
  937SOL    HW1 3746   2.038   2.091   2.670  0.9360 -2.1901 -1.4718
  937SOL    HW2 3747   1.971   2.123   2.536  1.1067 -0.7050 -0.4880
  937SOL     MW 3748   1.965   2.112   2.622  0.8650 -0.3523  0.3025
  938SOL     OW 3749   2.218   1.826   1.834  0.0739  0.2404  0.3220
  938SOL    HW1 3750   2.275   1.862   1.773  0.2614 -2.0519 -1.0809
  938SOL    HW2 3751   2.249   1.840   1.923 -0.9728 -3.5423 -2.2489
  938SOL     MW 3752   2.229   1.833   1.838 -0.0395 -0.5612 -0.2023
  939SOL     OW 3753   2.764   1.982   2.123 -0.3241  0.3026 -0.9812
  939SOL    HW1 3754   2.801   1.925   2.055 -0.1539 -0.0310 -0.4652
  939SOL    HW2 3755   2.679   1.945   2.137 -0.5698  0.4646  0.9449
  939SOL     MW 3756   2.758   1.970   2.116 -0.3341  0.2800 -0.6590
  940SOL     OW 3757   2.210   0.088   2.774 -0.2017  0.2130  0.1329
  940SOL    HW1 3758   2.245  -0.004   2.758 -1.9315 -0.0255  0.9700
  940SOL    HW2 3759   2.279   0.111   2.835 -0.4693 -1.8344 -1.3483
  940SOL     MW 3760   2.224   0.079   2.780 -0.4653 -0.0886  0.0479
  941SOL     OW 3761   0.101   2.435   2.029 -0.5365 -0.5027 -0.4168
  941SOL    HW1 3762   0.173   2.362   2.024 -1.3011 -2.2072 -0.5234
  941SOL    HW2 3763   0.098   2.459   1.934  3.1013 -0.6008 -3.3635
  941SOL     MW 3764   0.110   2.428   2.016 -0.1574 -0.7405 -0.8196
  942SOL     OW 3765   2.793   2.258   2.194  0.2107 -0.5329 -0.4675
  942SOL    HW1 3766   2.762   2.296   2.110  2.0703 -0.4529  4.4896
  942SOL    HW2 3767   2.765   2.166   2.179 -0.3772  2.5201  0.7870
  942SOL     MW 3768   2.785   2.251   2.181  0.3785 -0.1195  0.3520
  943SOL     OW 3769   0.354   2.190   2.286  0.0691  0.4710 -0.1723
  943SOL    HW1 3770   0.269   2.195   2.330 -1.4523 -1.3462  1.7544
  943SOL    HW2 3771   0.410   2.151   2.354  0.6834  0.6256 -0.6893
  943SOL     MW 3772   0.350   2.185   2.301 -0.0506  0.2517  0.0137
  944SOL     OW 3773   2.125   2.679   1.975  0.0037 -0.0051  0.0700
  944SOL    HW1 3774   2.205   2.640   2.008  0.7297 -3.3382 -1.0046
  944SOL    HW2 3775   2.083   2.716   2.060 -0.3725  0.0290 -0.8860
  944SOL     MW 3776   2.130   2.679   1.990  0.0499 -0.4404 -0.1979
  945SOL     OW 3777   2.750   2.673   2.887 -0.0745  0.0768 -0.0778
  945SOL    HW1 3778   2.723   2.574   2.859 -0.1868 -0.1465 -0.4765
  945SOL    HW2 3779   2.738   2.724   2.803  1.2148 -0.9653 -0.1270
  945SOL     MW 3780   2.745   2.667   2.872  0.0808 -0.0901 -0.1369
  946SOL     OW 3781   2.466   2.708   2.225  0.5188 -0.2140 -0.7613
  946SOL    HW1 3782   2.489   2.753   2.149 -2.4093 -1.9057  4.1546
  946SOL    HW2 3783   2.413   2.632   2.188  0.4868  1.5560  0.0339
  946SOL     MW 3784   2.462   2.704   2.210  0.1283 -0.2037 -0.0078
  947SOL     OW 3785   2.031   3.038   0.198 -0.0160  0.7397  0.0366
  947SOL    HW1 3786   1.988   2.949   0.203 -2.9242 -1.2527  2.7074
  947SOL    HW2 3787   2.063   3.063   0.288 -2.1121 -1.3665  1.1096
  947SOL     MW 3788   2.030   3.030   0.211 -0.6763  0.1989  0.5306
  948SOL     OW 3789   1.823   3.031   2.623  0.0490 -0.1318  0.0034
  948SOL    HW1 3790   1.882   2.954   2.617  0.2210 -0.4931 -0.0014
  948SOL    HW2 3791   1.789   3.055   2.534  0.8245 -0.2058 -1.2782
  948SOL     MW 3792   1.826   3.024   2.610  0.1740 -0.1892 -0.1664
  949SOL     OW 3793   2.522   1.895   2.199  0.3489 -0.1440 -0.2883
  949SOL    HW1 3794   2.511   1.816   2.256  0.2004 -0.3849 -0.0626
  949SOL    HW2 3795   2.470   1.966   2.240 -1.0798 -0.2674 -0.9302
  949SOL     MW 3796   2.514   1.894   2.212  0.1408 -0.1920 -0.3432
  950SOL     OW 3797   2.271   2.442   2.950 -0.3544 -0.3935  0.2096
  950SOL    HW1 3798   2.319   2.403   2.880 -1.9281 -0.8948  0.2395
  950SOL    HW2 3799   2.198   2.493   2.911 -0.9632  3.2509  0.1736
  950SOL     MW 3800   2.268   2.443   2.936 -0.6424  0.0212  0.2088
  951SOL     OW 3801   3.034   2.227   2.858  0.3947 -0.0427 -0.1037
  951SOL    HW1 3802   3.004   2.239   2.944  1.9475  0.2063 -1.7776
  951SOL    HW2 3803   3.097   2.153   2.866 -0.6986 -0.9926  0.6418
  951SOL     MW 3804   3.039   2.219   2.870  0.4553 -0.1352 -0.2262
  952SOL     OW 3805   3.071   1.726   2.116  0.2184 -0.5246 -0.0874
  952SOL    HW1 3806   3.031   1.773   2.038 -2.0266  0.0874 -0.2139
  952SOL    HW2 3807   3.145   1.780   2.148  0.4529 -0.7931 -1.4579
  952SOL     MW 3808   3.075   1.739   2.110 -0.0469 -0.4793 -0.2849
  953SOL     OW 3809   1.894   1.767   2.852 -0.3270 -0.1183 -0.6430
  953SOL    HW1 3810   1.841   1.732   2.929 -0.5331 -0.2028 -1.0799
  953SOL    HW2 3811   1.931   1.691   2.806 -1.4048 -1.0721  0.2308
  953SOL     MW 3812   1.892   1.752   2.856 -0.4964 -0.2553 -0.5853
  954SOL     OW 3813   2.408   2.085   2.824  0.0162 -0.2256 -0.7194
  954SOL    HW1 3814   2.325   2.063   2.780  0.5516 -0.9873 -0.8038
  954SOL    HW2 3815   2.485   2.075   2.761  1.4320 -0.3798 -0.3895
  954SOL     MW 3816   2.407   2.081   2.810  0.2737 -0.3464 -0.6870
  955SOL     OW 3817   1.515   1.556   2.577 -0.7982 -0.3736 -0.3598
  955SOL    HW1 3818   1.476   1.547   2.498  1.3016  2.4546  3.5954
  955SOL    HW2 3819   1.605   1.584   2.548 -2.5396  2.0414 -1.8871
  955SOL     MW 3820   1.522   1.559   2.563 -0.7509  0.3182 -0.0395
  956SOL     OW 3821   2.683   2.402   2.815  0.1098 -0.1336  0.0507
  956SOL    HW1 3822   2.699   2.350   2.894  2.3312 -0.5917 -3.0050
  956SOL    HW2 3823   2.723   2.347   2.749 -1.9133 -1.1187  2.4772
  956SOL     MW 3824   2.690   2.388   2.817  0.1360 -0.3240 -0.0323
  957SOL     OW 3825   2.281   2.839   0.527  0.3399  0.1106 -0.2797
  957SOL    HW1 3826   2.209   2.778   0.494 -0.3085 -2.6482  1.4999
  957SOL    HW2 3827   2.297   2.815   0.614 -3.2884  0.7972 -2.2435
  957SOL     MW 3828   2.273   2.828   0.534 -0.2243 -0.1628 -0.3040
  958SOL     OW 3829   2.057   2.584   2.841 -0.2719  0.7309 -0.4160
  958SOL    HW1 3830   2.010   2.528   2.781 -0.5959  3.3736  2.3338
  958SOL    HW2 3831   2.012   2.570   2.926 -0.9740  0.1398 -0.9665
  958SOL     MW 3832   2.045   2.575   2.844 -0.4073  1.0016 -0.1258
  959SOL     OW 3833   2.533   2.760   0.432 -0.4547 -0.1179  0.4328
  959SOL    HW1 3834   2.539   2.807   0.343 -0.9331 -1.2291  1.0197
  959SOL    HW2 3835   2.448   2.785   0.464  0.1009  2.2641 -0.4832
  959SOL     MW 3836   2.523   2.770   0.424 -0.4445  0.0498  0.3894
  960SOL     OW 3837   1.883   2.376   2.320 -0.2122 -0.2243 -0.0338
  960SOL    HW1 3838   1.910   2.288   2.350 -1.5005 -2.2495  0.1957
  960SOL    HW2 3839   1.813   2.400   2.382 -1.2582 -2.0671  4.1595
  960SOL     MW 3840   1.877   2.368   2.332 -0.5202 -0.7347  0.5497
  961SOL     OW 3841   2.207   2.330   2.243 -0.4652 -0.4302  0.0015
  961SOL    HW1 3842   2.119   2.322   2.208  0.6731 -0.3721 -0.0254
  961SOL    HW2 3843   2.209   2.369   2.336  0.7567 -1.2010  1.2111
  961SOL     MW 3844   2.196   2.334   2.251 -0.1538 -0.5242  0.1575
  962SOL     OW 3845   2.155   2.034   2.764 -0.3176  0.1076 -0.0916
  962SOL    HW1 3846   2.096   2.016   2.832 -2.0195  2.4780 -2.7004
  962SOL    HW2 3847   2.168   1.940   2.736  2.7161  1.6688  2.9857
  962SOL     MW 3848   2.149   2.019   2.770 -0.1419  0.6264 -0.0298
  963SOL     OW 3849   1.841   2.535   2.093 -0.1725  0.1577 -0.1792
  963SOL    HW1 3850   1.849   2.477   2.172 -2.2709  0.6881  1.2140
  963SOL    HW2 3851   1.846   2.479   2.016  2.1479  1.0275  1.0196
  963SOL     MW 3852   1.843   2.520   2.094 -0.1432  0.3424  0.1628
  964SOL     OW 3853   1.773   1.889   2.628 -0.3579 -0.1359 -0.0200
  964SOL    HW1 3854   1.810   1.976   2.617 -1.1289 -3.2062  0.3729
  964SOL    HW2 3855   1.810   1.862   2.713  0.6419  1.0181  0.9982
  964SOL     MW 3856   1.783   1.897   2.638 -0.3277 -0.3887  0.1662
  965SOL     OW 3857   2.124   2.559   0.878 -0.5330 -0.3751 -0.1677
  965SOL    HW1 3858   2.153   2.519   0.797  0.3153  0.8896 -0.4791
  965SOL    HW2 3859   2.132   2.651   0.864  1.5532 -1.5280  1.1387
  965SOL     MW 3860   2.129   2.566   0.865 -0.1458 -0.3604 -0.0364
  966SOL     OW 3861   2.650   2.614   2.407 -0.2282  0.2277 -0.0894
  966SOL    HW1 3862   2.585   2.645   2.343 -0.6507 -2.1016  3.7010
  966SOL    HW2 3863   2.647   2.518   2.402  0.9137  0.7344 -2.0506
  966SOL     MW 3864   2.641   2.605   2.398 -0.1333 -0.0128  0.1519
  967SOL     OW 3865   2.654   0.041   0.009 -0.1308 -0.0482  0.1586
  967SOL    HW1 3866   2.644  -0.050  -0.023 -1.1063  3.3443  1.3558
  967SOL    HW2 3867   2.627   0.108  -0.059 -0.0840 -0.9487 -1.6375
  967SOL     MW 3868   2.649   0.038  -0.004 -0.2533  0.2806  0.0796
  968SOL     OW 3869   3.011   2.625   2.937 -0.0451 -0.7439  0.2946
  968SOL    HW1 3870   2.924   2.656   2.910 -0.5660  0.0473 -1.5363
  968SOL    HW2 3871   3.041   2.585   2.852 -3.9487 -1.7557 -3.3509
  968SOL     MW 3872   3.004   2.623   2.922 -0.6289 -0.7730 -0.4280
  969SOL     OW 3873   1.591   2.098   1.725  0.4436  0.2307  0.1550
  969SOL    HW1 3874   1.680   2.065   1.730 -0.3985  2.1056  0.6670
  969SOL    HW2 3875   1.555   2.111   1.814  1.3160  0.6326 -2.2620
  969SOL     MW 3876   1.598   2.096   1.737  0.4476  0.5311 -0.0964
  970SOL     OW 3877   1.743   1.770   1.860 -0.1473 -0.7304 -0.1063
  970SOL    HW1 3878   1.788   1.700   1.911  1.0293 -0.1783  2.0373
  970SOL    HW2 3879   1.660   1.766   1.904  1.4410 -0.8977 -0.8625
  970SOL     MW 3880   1.738   1.760   1.873  0.2175 -0.6796  0.0768
  971SOL     OW 3881   1.774   0.001   2.360  0.2351 -0.2107 -0.1766
  971SOL    HW1 3882   1.800  -0.056   2.283  1.8758  0.4897 -1.2775
  971SOL    HW2 3883   1.831   0.075   2.346 -0.2075 -1.4979  3.9245
  971SOL     MW 3884   1.785   0.003   2.348  0.3932 -0.2881  0.2192
  972SOL     OW 3885   0.289   2.844   2.428 -0.3633  0.8496  0.4648
  972SOL    HW1 3886   0.345   2.777   2.462 -0.3455  2.2595 -1.6088
  972SOL    HW2 3887   0.331   2.931   2.446 -0.6573 -0.7888  0.6574
  972SOL     MW 3888   0.302   2.847   2.435 -0.3997  0.8195  0.2166
  973SOL     OW 3889   2.622   3.037   2.154 -0.0194  0.8251 -0.1650
  973SOL    HW1 3890   2.603   2.965   2.086 -0.9481  1.1518  0.8744
  973SOL    HW2 3891   2.663   3.102   2.098  1.5033 -1.8627  0.5377
  973SOL     MW 3892   2.625   3.036   2.138  0.0589  0.5136  0.0648
  974SOL     OW 3893   2.008   0.146   2.609 -0.0258  0.3651  0.0152
  974SOL    HW1 3894   2.085   0.130   2.669 -1.8575  0.9885 -0.5011
  974SOL    HW2 3895   1.949   0.077   2.642  0.3218 -1.0029 -1.1104
  974SOL     MW 3896   2.010   0.135   2.621 -0.2217  0.2668 -0.2014
  975SOL     OW 3897   2.162   2.442   2.496 -0.4515 -0.4388 -0.2464
  975SOL    HW1 3898   2.224   2.506   2.526  1.9813  0.1213 -0.3438
  975SOL    HW2 3899   2.094   2.505   2.473 -0.4028 -0.7663 -1.0386
  975SOL     MW 3900   2.161   2.459   2.497 -0.1241 -0.4081 -0.3637
  976SOL     OW 3901   0.159   0.352   1.603 -0.0133 -0.1499  0.0830
  976SOL    HW1 3902   0.219   0.279   1.625 -0.1273  1.2528  2.2839
  976SOL    HW2 3903   0.066   0.322   1.592 -1.1244  2.1757 -1.0752
  976SOL     MW 3904   0.155   0.338   1.604 -0.1749  0.3420  0.2206
  977SOL     OW 3905   1.748   2.743   2.395 -0.3662  0.1428  0.3898
  977SOL    HW1 3906   1.827   2.694   2.428  2.1173 -2.5862 -1.5359
  977SOL    HW2 3907   1.758   2.834   2.428 -0.7238  1.1539 -0.5468
  977SOL     MW 3908   1.760   2.748   2.404 -0.0857 -0.0839  0.0121
   3.10000   3.10000   3.10000
