977 TIP4P/2005f water molecules t=   0.40000 step= 400
 3908
    1SOL     OW    1   0.280   0.768   0.033 -0.1436 -0.0989 -0.2816
    1SOL    HW1    2   0.252   0.804  -0.055  1.2650  1.2092  1.1090
    1SOL    HW2    3   0.259   0.675   0.032  0.2685  0.6118 -2.4111
    1SOL     MW    4   0.273   0.760   0.021  0.0966  0.1675 -0.3791
    2SOL     OW    5   0.298   3.042   1.180  0.3402 -0.4065  0.0121
    2SOL    HW1    6   0.334   3.113   1.126 -2.5763 -0.2484  2.1890
    2SOL    HW2    7   0.204   3.069   1.196  0.1660  0.3872 -0.2630
    2SOL     MW    8   0.290   3.055   1.175 -0.0676 -0.2809  0.2630
    3SOL     OW    9   2.680   0.386   0.907 -0.3558  0.2399  0.5305
    3SOL    HW1   10   2.729   0.450   0.849 -2.2042  0.9624 -0.8847
    3SOL    HW2   11   2.660   0.425   0.985 -2.5419 -3.1169 -0.0688
    3SOL     MW   12   2.684   0.400   0.910 -0.8881 -0.1077  0.2647
    4SOL     OW   13   3.062   1.764   0.559  0.1018 -0.3700  0.6421
    4SOL    HW1   14   2.983   1.795   0.506 -2.9846 -0.5962 -3.1478
    4SOL    HW2   15   3.086   1.681   0.517 -0.7742 -1.4507 -0.7832
    4SOL     MW   16   3.054   1.757   0.546 -0.4210 -0.5424 -0.0460
    5SOL     OW   17   1.715   1.447   0.582  0.1812  0.5084  0.5769
    5SOL    HW1   18   1.752   1.374   0.633  1.3056 -2.8395 -0.6071
    5SOL    HW2   19   1.625   1.456   0.594  1.0310  1.7714 -1.0111
    5SOL     MW   20   1.708   1.439   0.590  0.4416  0.2333  0.2112
    6SOL     OW   21   0.881   1.408   0.643  0.3784  0.0281  0.7368
    6SOL    HW1   22   0.793   1.400   0.677 -1.7866  1.1741  0.5666
    6SOL    HW2   23   0.924   1.324   0.658 -0.2167  0.9363 -0.2735
    6SOL     MW   24   0.875   1.396   0.650  0.0143  0.2991  0.5810
    7SOL     OW   25   1.988   1.065   0.044 -0.0383  0.3383  0.0066
    7SOL    HW1   26   1.996   1.153   0.012 -2.5723  3.4401  2.2752
    7SOL    HW2   27   2.044   1.069   0.122  0.7349 -1.9428  1.5048
    7SOL     MW   28   1.997   1.077   0.050 -0.2706  0.4466  0.5036
    8SOL     OW   29   0.971   1.336   1.013 -0.1605 -0.0984 -0.1721
    8SOL    HW1   30   0.994   1.360   1.100 -2.4792  0.0885  0.6552
    8SOL    HW2   31   1.063   1.322   0.979 -1.0381  3.5375  1.4271
    8SOL     MW   32   0.986   1.337   1.020 -0.5822  0.4060  0.1480
    9SOL     OW   33   1.058   0.451   1.336  0.1933 -0.1276 -0.3059
    9SOL    HW1   34   0.988   0.403   1.292 -0.3316  0.5686 -0.1473
    9SOL    HW2   35   1.077   0.418   1.421  0.6841  2.1309 -0.1670
    9SOL     MW   36   1.051   0.440   1.341  0.1888  0.2622 -0.2667
   10SOL     OW   37   0.294   0.786   0.441 -0.6594  0.6840 -0.3414
   10SOL    HW1   38   0.386   0.829   0.408  0.5598 -1.4215 -0.8699
   10SOL    HW2   39   0.276   0.831   0.526  1.5887 -1.6490  2.7690
   10SOL     MW   40   0.304   0.798   0.448 -0.2019  0.0984 -0.0008
   11SOL     OW   41   0.804   1.087   1.613 -0.7801 -0.0266  0.1688
   11SOL    HW1   42   0.821   1.060   1.706 -1.3174 -1.3259  1.4982
   11SOL    HW2   43   0.779   1.010   1.553  0.3465 -0.0812  1.6878
   11SOL     MW   44   0.803   1.073   1.617 -0.7023 -0.2053  0.5446
   12SOL     OW   45   0.021   1.114   0.852  0.0727 -0.4356  0.4370
   12SOL    HW1   46   0.077   1.185   0.880 -1.7690 -2.9808 -0.2995
   12SOL    HW2   47  -0.054   1.169   0.831  3.0723  0.7153  2.3999
   12SOL     MW   48   0.018   1.130   0.853  0.2255 -0.6196  0.5988
   13SOL     OW   49   1.887   1.403   1.353  0.3999 -0.2154 -0.5880
   13SOL    HW1   50   1.894   1.362   1.267 -0.7095  0.1292  0.3752
   13SOL    HW2   51   1.861   1.488   1.334  0.7757  0.5039 -0.3885
   13SOL     MW   52   1.884   1.409   1.339  0.3031 -0.0750 -0.4346
   14SOL     OW   53   0.613   0.299   1.790  0.0474 -0.0254 -0.2661
   14SOL    HW1   54   0.590   0.226   1.731 -2.0128  0.3879  0.5800
   14SOL    HW2   55   0.693   0.278   1.841 -1.0983  0.6889  0.0375
   14SOL     MW   56   0.620   0.286   1.789 -0.3756  0.1234 -0.1144
   15SOL     OW   57   2.017   0.530   0.956 -0.0165 -0.5009  0.0076
   15SOL    HW1   58   2.020   0.506   1.050 -0.0346  1.0155 -1.1404
   15SOL    HW2   59   2.099   0.495   0.912 -1.1967 -2.1790 -0.8522
   15SOL     MW   60   2.028   0.522   0.963 -0.1746 -0.5223 -0.2573
   16SOL     OW   61   0.201   1.755   0.336  0.0386  0.0150  0.1842
   16SOL    HW1   62   0.296   1.737   0.328  0.4035  0.4248 -3.9242
   16SOL    HW2   63   0.199   1.856   0.360 -0.5241 -0.1606 -0.7828
   16SOL     MW   64   0.213   1.766   0.338  0.0125  0.0459 -0.4854
   17SOL     OW   65   1.030   0.818   1.509 -0.4767  0.3204  0.5474
   17SOL    HW1   66   1.063   0.837   1.600  0.5823 -2.4009 -0.8682
   17SOL    HW2   67   0.937   0.822   1.511  0.9986 -0.2659 -0.8046
   17SOL     MW   68   1.022   0.821   1.521 -0.1423 -0.1160  0.1823
   18SOL     OW   69   0.071   1.542   0.453  0.1002 -0.3048  0.2819
   18SOL    HW1   70   0.127   1.611   0.409 -1.0679 -1.6387  2.2717
   18SOL    HW2   71   0.053   1.474   0.384 -0.3947  0.4427 -0.2538
   18SOL     MW   72   0.076   1.543   0.438 -0.1192 -0.3822  0.4738
   19SOL     OW   73   0.099   1.356   1.023 -0.5660  0.3205 -1.0638
   19SOL    HW1   74   0.129   1.383   0.939 -1.3517  1.5345  1.0856
   19SOL    HW2   75   0.003   1.356   1.018  0.4200 -1.1815 -0.7641
   19SOL     MW   76   0.090   1.360   1.011 -0.5396  0.2825 -0.7407
   20SOL     OW   77   0.457   2.125   1.300 -0.1803  0.2192  0.2300
   20SOL    HW1   78   0.391   2.074   1.244 -1.7398 -1.7027  0.4732
   20SOL    HW2   79   0.403   2.169   1.370 -0.2415  2.8069  0.9285
   20SOL     MW   80   0.441   2.124   1.302 -0.3941  0.3070  0.3542
   21SOL     OW   81   0.537   0.888   0.348 -0.2193 -0.3898  0.1409
   21SOL    HW1   82   0.591   0.843   0.411 -0.9493  0.6330 -1.0319
   21SOL    HW2   83   0.560   0.842   0.265 -0.1594 -0.1133 -0.8714
   21SOL     MW   84   0.547   0.876   0.346 -0.3077 -0.2184 -0.1474
   22SOL     OW   85   1.531   0.575   1.117  0.3668 -0.4316 -0.4984
   22SOL    HW1   86   1.559   0.547   1.033  1.0973 -0.5634  3.2443
   22SOL    HW2   87   1.467   0.645   1.104 -2.3148  0.3806  0.1662
   22SOL     MW   88   1.526   0.580   1.105  0.1093 -0.3418  0.0831
   23SOL     OW   89   3.063   0.752   0.713  0.4796  0.0358 -0.2978
   23SOL    HW1   90   3.106   0.668   0.733  3.3262  2.7158  1.5650
   23SOL    HW2   91   3.127   0.818   0.732  1.5079 -1.6975 -0.8376
   23SOL     MW   92   3.077   0.750   0.718  0.9908  0.1607 -0.1233
   24SOL     OW   93   1.992   2.201   0.054 -0.3434  0.1985  0.8544
   24SOL    HW1   94   1.995   2.187   0.151 -0.6542  0.3073  0.9165
   24SOL    HW2   95   2.057   2.134   0.019  0.8661 -0.5379 -1.9208
   24SOL     MW   96   2.001   2.190   0.062 -0.2248  0.1157  0.4964
   25SOL     OW   97   0.300   1.413   0.508  0.5557 -0.0544  0.1638
   25SOL    HW1   98   0.206   1.449   0.498 -2.5047 -0.4027  1.6225
   25SOL    HW2   99   0.351   1.440   0.438 -0.6776  0.2732 -1.7227
   25SOL     MW  100   0.294   1.421   0.498 -0.0108 -0.0571  0.1074
   26SOL     OW  101   2.038   0.929   0.451  0.3569 -0.1359  0.3540
   26SOL    HW1  102   1.941   0.945   0.427 -3.8386 -2.0051  0.5333
   26SOL    HW2  103   2.085   0.968   0.376  0.0693 -0.6852  1.1795
   26SOL     MW  104   2.032   0.936   0.438 -0.2346 -0.4550  0.4866
   27SOL     OW  105   1.994   1.386   0.274  0.3709 -0.1235  0.2486
   27SOL    HW1  106   1.905   1.379   0.312 -1.0643  0.4893 -1.0871
   27SOL    HW2  107   2.053   1.435   0.336  2.0859  1.7815 -0.8950
   27SOL     MW  108   1.990   1.392   0.287  0.4078  0.2087 -0.0785
   28SOL     OW  109   0.376   1.032   1.917 -0.2379  0.5965  0.4697
   28SOL    HW1  110   0.358   1.009   2.011 -3.9116 -0.3301  0.1714
   28SOL    HW2  111   0.468   1.050   1.922  2.4602 -1.1703 -1.0827
   28SOL     MW  112   0.386   1.032   1.930 -0.3666  0.2412  0.2255
   29SOL     OW  113   0.242   1.412   0.808  0.0762 -0.2026 -0.5100
   29SOL    HW1  114   0.254   1.507   0.830 -0.5823 -1.1372  1.1377
   29SOL    HW2  115   0.275   1.400   0.715  2.9533  1.5450 -2.5350
   29SOL     MW  116   0.248   1.423   0.799  0.3689 -0.0954 -0.5598
   30SOL     OW  117   0.886   1.040   1.185 -0.4395 -0.0759  0.7907
   30SOL    HW1  118   0.795   1.054   1.225 -0.4312 -0.7680 -0.9763
   30SOL    HW2  119   0.946   1.070   1.252 -1.4387  1.5231  0.9815
   30SOL     MW  120   0.882   1.046   1.199 -0.5702  0.0437  0.5827
   31SOL     OW  121   0.423   0.284   0.230 -0.6739  0.1525 -0.0152
   31SOL    HW1  122   0.434   0.203   0.289 -1.1839  1.9209  0.9052
   31SOL    HW2  123   0.403   0.247   0.145 -0.9699  3.0689  3.8366
   31SOL     MW  124   0.422   0.268   0.227 -0.7802  0.7706  0.6145
   32SOL     OW  125   2.741   1.046   1.101  0.4428  0.2216  0.4528
   32SOL    HW1  126   2.689   0.962   1.110  1.6096 -1.8992  1.8730
   32SOL    HW2  127   2.837   1.025   1.100  0.4499 -0.8013 -0.2411
   32SOL     MW  128   2.747   1.032   1.102  0.5977 -0.1931  0.5486
   33SOL     OW  129   1.744   1.305   0.346 -0.0584  0.3172  0.6965
   33SOL    HW1  130   1.755   1.217   0.380  0.6916  0.0224  0.5476
   33SOL    HW2  131   1.727   1.353   0.425  2.8814  2.0060 -0.8009
   33SOL     MW  132   1.743   1.300   0.361  0.4284  0.5011  0.4793
   34SOL     OW  133   1.211   1.857   1.084 -0.6245  0.7015 -0.4686
   34SOL    HW1  134   1.131   1.902   1.091 -0.1169 -1.1477  1.0883
   34SOL    HW2  135   1.259   1.880   1.173  0.5735  1.4302  1.5626
   34SOL     MW  136   1.207   1.866   1.097 -0.3995  0.5537  0.0048
   35SOL     OW  137   0.327   0.109   1.806 -0.0488 -0.0339 -0.4843
   35SOL    HW1  138   0.374   0.094   1.885 -1.0043  2.1502  1.0684
   35SOL    HW2  139   0.339   0.025   1.751 -2.0881  0.8509  1.5333
   35SOL     MW  140   0.335   0.096   1.809 -0.4439  0.3710 -0.0133
   36SOL     OW  141   1.881   1.970   0.523  0.3424 -0.3540 -1.1076
   36SOL    HW1  142   1.867   1.927   0.435 -0.9969  0.3454 -2.5667
   36SOL    HW2  143   1.899   1.891   0.580  0.9073 -1.9059  0.4769
   36SOL     MW  144   1.881   1.953   0.519  0.2403 -0.4665 -1.0911
   37SOL     OW  145   1.729   2.065   0.979  0.3303 -0.0441  0.2850
   37SOL    HW1  146   1.688   1.997   0.931  1.3498  3.5361 -0.6811
   37SOL    HW2  147   1.677   2.094   1.062  0.7920  1.9138  3.6382
   37SOL     MW  148   1.717   2.060   0.984  0.5257  0.6866  0.5999
   38SOL     OW  149   2.837   0.936   0.185 -0.2719 -0.2118 -0.2956
   38SOL    HW1  150   2.885   0.946   0.264 -0.9840 -0.1822  1.2430
   38SOL    HW2  151   2.900   0.895   0.130 -0.6997  0.1457  1.2255
   38SOL     MW  152   2.851   0.932   0.188 -0.4223 -0.1607  0.1081
   39SOL     OW  153   1.471   0.658   0.805 -0.2110 -0.4619  0.1809
   39SOL    HW1  154   1.445   0.569   0.829 -0.1836 -1.5158 -3.7854
   39SOL    HW2  155   1.392   0.708   0.833 -0.9597 -1.7719 -1.1706
   39SOL     MW  156   1.457   0.653   0.812 -0.3062 -0.7738 -0.5207
   40SOL     OW  157   1.264   1.864   0.255 -0.3841  0.0653 -0.3335
   40SOL    HW1  158   1.296   1.778   0.278  0.2193  1.2112  0.8995
   40SOL    HW2  159   1.292   1.918   0.327  2.0139  0.1787 -1.6691
   40SOL     MW  160   1.272   1.860   0.268  0.0119  0.2314 -0.3470
   41SOL     OW  161   0.590   0.520   1.595  0.0341 -1.0132  0.2965
   41SOL    HW1  162   0.674   0.553   1.572  0.5885 -1.5116 -0.5963
   41SOL    HW2  163   0.603   0.442   1.646  0.0849  0.4845 -1.0872
   41SOL     MW  164   0.603   0.514   1.599  0.1140 -0.8813 -0.0039
   42SOL     OW  165   1.302   3.034   1.990  0.2533 -0.9700  0.4628
   42SOL    HW1  166   1.208   3.052   2.013 -1.3540 -2.3615  3.0005
   42SOL    HW2  167   1.326   2.947   2.011 -1.2715 -0.4552  0.2144
   42SOL     MW  168   1.293   3.025   1.996 -0.1600 -1.0857  0.7648
   43SOL     OW  169   1.593   0.203   1.666  0.0085 -0.2724  0.3824
   43SOL    HW1  170   1.675   0.151   1.668 -0.4109  0.0727  1.1111
   43SOL    HW2  171   1.516   0.138   1.668 -3.8587 -3.3066  1.3875
   43SOL     MW  172   1.594   0.188   1.667 -0.5571 -0.6272  0.6112
   44SOL     OW  173   1.308   0.735   1.076 -0.2021 -0.5803 -0.2366
   44SOL    HW1  174   1.319   0.821   1.043 -0.9326 -1.1786 -0.3163
   44SOL    HW2  175   1.299   0.748   1.170 -0.5733  0.5186 -0.2243
   44SOL     MW  176   1.308   0.748   1.084 -0.3475 -0.5143 -0.2455
   45SOL     OW  177   1.170   0.706   0.778  0.6116  0.3863 -0.1967
   45SOL    HW1  178   1.125   0.687   0.859  2.1360  1.8063  1.9662
   45SOL    HW2  179   1.144   0.637   0.706 -0.1212 -1.3589  0.9478
   45SOL     MW  180   1.160   0.694   0.779  0.7160  0.3434  0.2397
   46SOL     OW  181   0.555   1.150   0.540 -0.6200 -0.0154 -0.1251
   46SOL    HW1  182   0.545   1.170   0.450  0.4260  1.4869  1.2125
   46SOL    HW2  183   0.646   1.108   0.543  0.8419  0.3935 -0.2476
   46SOL     MW  184   0.565   1.147   0.529 -0.2891  0.2368  0.0352
   47SOL     OW  185   0.175   1.924   1.820  0.6023 -0.4274 -0.3317
   47SOL    HW1  186   0.234   1.862   1.767 -0.2409  1.4896  0.1740
   47SOL    HW2  187   0.170   1.897   1.912  0.2867  0.4475 -0.0787
   47SOL     MW  188   0.182   1.912   1.825  0.4494 -0.0590 -0.2316
   48SOL     OW  189   1.061   0.641   1.021 -0.1288 -0.3195  0.2802
   48SOL    HW1  190   0.970   0.675   1.025 -0.1674 -1.8331 -1.5272
   48SOL    HW2  191   1.128   0.698   1.072 -1.1043  2.2011  1.2376
   48SOL     MW  192   1.058   0.653   1.028 -0.2626 -0.1866  0.1681
   49SOL     OW  193   1.823   0.766   1.605 -0.8178  0.3677 -0.2884
   49SOL    HW1  194   1.766   0.738   1.673  0.3981  0.5027 -2.7183
   49SOL    HW2  195   1.879   0.692   1.607 -1.8134  2.2251  1.7785
   49SOL     MW  196   1.823   0.753   1.614 -0.7887  0.6306 -0.3363
   50SOL     OW  197   1.236   1.014   0.486 -0.6732  0.5679 -0.5276
   50SOL    HW1  198   1.244   1.062   0.574 -1.0590  2.4377 -1.4856
   50SOL    HW2  199   1.291   0.934   0.508  0.5842 -2.7856  1.3932
   50SOL     MW  200   1.244   1.010   0.500 -0.5582  0.3722 -0.4006
   51SOL     OW  201   0.334   2.861   0.989 -0.6502  0.4167  0.3732
   51SOL    HW1  202   0.427   2.850   0.999  0.5915  1.7171 -1.3870
   51SOL    HW2  203   0.312   2.912   1.070 -0.5738  0.6324 -2.2652
   51SOL     MW  204   0.344   2.866   1.001 -0.4763  0.6167 -0.2071
   52SOL     OW  205   0.807   1.770   0.397 -0.6800 -0.1803 -0.1349
   52SOL    HW1  206   0.782   1.850   0.438  1.6092 -1.0933  0.9409
   52SOL    HW2  207   0.813   1.783   0.300 -0.4511  0.5516 -0.4521
   52SOL     MW  208   0.805   1.782   0.389 -0.3478 -0.2042 -0.0348
   53SOL     OW  209   0.483   2.073   0.562  0.2851 -0.1050 -0.3233
   53SOL    HW1  210   0.391   2.071   0.520  3.8590  0.8233  0.1653
   53SOL    HW2  211   0.526   2.159   0.583  0.7632  2.2302  1.1017
   53SOL     MW  212   0.476   2.084   0.559  0.8197  0.3256 -0.0708
   54SOL     OW  213   2.189   0.820   0.880 -0.2274 -0.0565 -1.0631
   54SOL    HW1  214   2.220   0.734   0.857  1.4589  1.0533  0.4174
   54SOL    HW2  215   2.097   0.819   0.864  0.4096 -1.1570  3.6996
   54SOL     MW  216   2.181   0.808   0.875  0.0791 -0.0552 -0.2394
   55SOL     OW  217   0.560   1.492   1.569  0.3075  0.4942  0.1350
   55SOL    HW1  218   0.497   1.512   1.502  1.3600 -2.1954 -0.9409
   55SOL    HW2  219   0.632   1.434   1.534  2.2592  0.9096 -0.1406
   55SOL     MW  220   0.561   1.487   1.555  0.7039  0.1942 -0.0433
   56SOL     OW  221   0.589   0.774   0.085 -0.5485  0.4772  0.0074
   56SOL    HW1  222   0.633   0.838   0.033  1.2970  0.7854 -1.1291
   56SOL    HW2  223   0.499   0.790   0.068 -1.6598 -0.9605 -2.3122
   56SOL     MW  224   0.583   0.784   0.076 -0.4516  0.3282 -0.4486
   57SOL     OW  225   1.262   1.242   1.210  0.6510 -0.1570  0.8347
   57SOL    HW1  226   1.348   1.252   1.167  0.4403 -0.7334  0.2153
   57SOL    HW2  227   1.285   1.206   1.296 -2.0873 -1.4165 -2.3991
   57SOL     MW  228   1.276   1.239   1.216  0.2619 -0.3992  0.3263
   58SOL     OW  229   0.661   1.113   1.321 -0.8721  0.0086  0.2195
   58SOL    HW1  230   0.634   1.191   1.281  2.8912 -0.4243  0.5204
   58SOL    HW2  231   0.619   1.125   1.408  0.7231  1.0466  1.0261
   58SOL     MW  232   0.652   1.125   1.327 -0.1651  0.0884  0.3657
   59SOL     OW  233   1.581   1.629   0.320  0.3500  0.0414  0.0726
   59SOL    HW1  234   1.661   1.595   0.367  0.4002  0.1624  1.8123
   59SOL    HW2  235   1.539   1.690   0.379  2.1069 -2.1909  0.9925
   59SOL     MW  236   1.586   1.633   0.334  0.5884 -0.2371  0.4235
   60SOL     OW  237   3.074   0.200   1.669 -0.2468  1.1272  0.0812
   60SOL    HW1  238   2.982   0.224   1.667  0.4340 -0.4567 -1.3074
   60SOL    HW2  239   3.071   0.104   1.688 -1.2902  0.1895  3.9895
   60SOL     MW  240   3.062   0.190   1.671 -0.2947  0.7945  0.4137
   61SOL     OW  241   1.980   1.473   3.074  0.5823 -0.7883 -0.2789
   61SOL    HW1  242   1.966   1.460   3.167  0.5725  0.9684  0.6165
   61SOL    HW2  243   2.038   1.402   3.042  1.3169  2.0268  0.1887
   61SOL     MW  244   1.986   1.462   3.082  0.6779 -0.1851 -0.0991
   62SOL     OW  245   0.624   1.636   0.587  0.4237  0.4851  0.7197
   62SOL    HW1  246   0.699   1.607   0.518  3.1323  1.0404  0.7510
   62SOL    HW2  247   0.596   1.552   0.619 -0.0020  2.0619 -1.8401
   62SOL     MW  248   0.630   1.621   0.582  0.7249  0.7664  0.3861
   63SOL     OW  249   1.691   0.742   0.674 -0.1656  0.1753  0.4833
   63SOL    HW1  250   1.663   0.812   0.611 -0.2359  0.3388 -0.7853
   63SOL    HW2  251   1.616   0.722   0.731 -0.5194  0.5048  2.2803
   63SOL     MW  252   1.677   0.749   0.673 -0.2216  0.2404  0.5530
   64SOL     OW  253   0.259   1.684   0.870  0.3325  0.3208 -1.2786
   64SOL    HW1  254   0.321   1.716   0.795  1.5720 -2.4231 -0.9104
   64SOL    HW2  255   0.179   1.725   0.841 -0.7698 -1.7115 -1.9884
   64SOL     MW  256   0.256   1.694   0.856  0.3506 -0.3094 -1.3237
   65SOL     OW  257   1.559   2.303   0.325  0.3557  0.5989  0.0938
   65SOL    HW1  258   1.632   2.241   0.304  0.5185 -0.2061 -3.4479
   65SOL    HW2  259   1.596   2.346   0.410 -0.8566 -1.8086  1.2525
   65SOL     MW  260   1.574   2.301   0.334  0.2172  0.1750 -0.2206
   66SOL     OW  261   0.335   0.524   0.516  0.5980 -0.3529 -0.4136
   66SOL    HW1  262   0.401   0.501   0.450 -0.9756  1.5854  0.6316
   66SOL    HW2  263   0.303   0.610   0.477  0.8499  1.5936  0.0763
   66SOL     MW  264   0.339   0.532   0.502  0.4236  0.1597 -0.2110
   67SOL     OW  265   1.526   0.118   2.034 -0.3690 -0.1670 -0.0154
   67SOL    HW1  266   1.583   0.152   1.967 -1.3955 -1.0570  0.0859
   67SOL    HW2  267   1.494   0.040   2.005  1.8286  0.5762  0.9500
   67SOL     MW  268   1.529   0.112   2.021 -0.2145 -0.1864  0.1253
   68SOL     OW  269   0.626   0.061   2.939  0.0075 -0.0264  0.1894
   68SOL    HW1  270   0.601   0.109   2.861  1.0600  0.0608 -0.0622
   68SOL    HW2  271   0.649   0.127   3.006 -0.5154  1.1460  2.4141
   68SOL     MW  272   0.625   0.076   2.937  0.0773  0.1398  0.4498
   69SOL     OW  273   1.021   0.216   1.951  0.4183  0.4638  0.0222
   69SOL    HW1  274   1.114   0.236   1.962  0.3490 -1.8192 -0.4166
   69SOL    HW2  275   1.001   0.130   1.995 -0.8275  3.8196  2.7687
   69SOL     MW  276   1.031   0.208   1.958  0.2448  0.6053  0.3267
   70SOL     OW  277   0.567   1.840   1.121 -0.0002 -0.4627 -0.1458
   70SOL    HW1  278   0.581   1.744   1.131  0.9614 -0.9078  2.2227
   70SOL    HW2  279   0.640   1.876   1.068 -0.2046  1.6641 -5.6806
   70SOL     MW  280   0.579   1.832   1.115  0.0997 -0.2408 -0.5636
   71SOL     OW  281   1.758   0.650   1.270  0.0544 -0.6014  0.6651
   71SOL    HW1  282   1.732   0.704   1.346  2.4502 -0.4412  0.9361
   71SOL    HW2  283   1.681   0.615   1.220 -2.7096 -0.0659  0.4107
   71SOL     MW  284   1.745   0.653   1.273  0.0058 -0.5096  0.6673
   72SOL     OW  285   0.833   1.775   0.968 -0.1665 -0.1282 -0.1297
   72SOL    HW1  286   0.815   1.831   0.887 -2.2430 -0.9117  1.0349
   72SOL    HW2  287   0.805   1.685   0.949 -2.1035  1.8891  1.1834
   72SOL     MW  288   0.827   1.771   0.955 -0.6960  0.0346  0.1972
   73SOL     OW  289   1.239   0.685   1.366 -0.1421  0.6400 -0.1607
   73SOL    HW1  290   1.204   0.601   1.337  0.2230  0.5541  1.2487
   73SOL    HW2  291   1.162   0.723   1.409  0.7633  1.3596  0.1745
   73SOL     MW  292   1.224   0.679   1.368  0.0255  0.7236  0.0695
   74SOL     OW  293   2.833   0.172   0.993  0.8935 -0.1604  0.3171
   74SOL    HW1  294   2.889   0.128   0.927  1.5943  0.5482  0.4548
   74SOL    HW2  295   2.787   0.245   0.945 -0.6749  0.2173  1.7146
   74SOL     MW  296   2.834   0.176   0.978  0.7790 -0.0171  0.5196
   75SOL     OW  297   1.591   1.341   0.113  0.2428  0.2089  0.4105
   75SOL    HW1  298   1.633   1.309   0.193 -0.7741  0.3801 -1.4492
   75SOL    HW2  299   1.612   1.269   0.051 -1.5174 -0.9028  2.4782
   75SOL     MW  300   1.599   1.327   0.115 -0.1236  0.0848  0.4379
   76SOL     OW  301   2.959   0.659   0.479  0.2871  0.0723  0.3065
   76SOL    HW1  302   2.994   0.704   0.558 -1.5884  0.0943 -0.1881
   76SOL    HW2  303   3.025   0.589   0.473  0.1086 -1.8289 -0.3726
   76SOL     MW  304   2.972   0.656   0.489  0.0161 -0.1756  0.1516
   77SOL     OW  305   0.862   0.463   0.463  0.1596  0.3367 -0.4735
   77SOL    HW1  306   0.777   0.493   0.429 -0.5651 -1.2661 -1.4485
   77SOL    HW2  307   0.836   0.373   0.497  2.2585  1.2168  0.3616
   77SOL     MW  308   0.847   0.455   0.463  0.3409  0.2414 -0.4919
   78SOL     OW  309   0.767   0.786   1.197 -0.0892  0.5448  0.1375
   78SOL    HW1  310   0.680   0.816   1.197  1.6136  3.6180 -0.2154
   78SOL    HW2  311   0.822   0.866   1.183 -0.1480 -0.2468  1.7716
   78SOL     MW  312   0.763   0.801   1.195  0.1277  0.8458  0.3065
   79SOL     OW  313   1.941   1.714   0.618  0.0199  0.0084 -0.2561
   79SOL    HW1  314   1.899   1.629   0.612 -0.0275  2.7152  2.0643
   79SOL    HW2  315   1.947   1.732   0.715 -0.2925  3.1093  1.0116
   79SOL     MW  316   1.937   1.705   0.630 -0.0276  0.7746  0.2173
   80SOL     OW  317   0.172   1.020   0.349  0.4314 -0.3969  0.6175
   80SOL    HW1  318   0.076   0.996   0.332 -1.0176  0.1804 -2.1896
   80SOL    HW2  319   0.206   0.939   0.384 -2.3023 -1.3643  1.3492
   80SOL     MW  320   0.164   1.006   0.351 -0.1205 -0.4484  0.3437
   81SOL     OW  321   1.895   1.897   0.254  0.3688  0.1279  0.8952
   81SOL    HW1  322   1.848   1.835   0.195  1.1519  2.0029 -0.0463
   81SOL    HW2  323   1.853   1.985   0.233 -0.9703 -0.3666  0.0801
   81SOL     MW  324   1.883   1.900   0.243  0.2954  0.3101  0.6634
   82SOL     OW  325   0.819   1.038   0.550  0.3708 -0.0014 -0.3399
   82SOL    HW1  326   0.872   1.035   0.471  1.5972  3.0183 -1.5301
   82SOL    HW2  327   0.826   0.944   0.573 -1.7933  2.1621 -1.5580
   82SOL     MW  328   0.827   1.025   0.542  0.2471  0.6825 -0.6576
   83SOL     OW  329   0.157   0.618   1.347  0.0949  0.2847 -0.5243
   83SOL    HW1  330   0.125   0.709   1.349  1.2662 -1.9138  0.4927
   83SOL    HW2  331   0.202   0.592   1.430  2.4703  1.2534  2.3810
   83SOL     MW  332   0.159   0.626   1.359  0.5629  0.1224 -0.0068
   84SOL     OW  333   0.092   0.258   0.964 -0.0665 -0.5821 -0.5993
   84SOL    HW1  334   0.004   0.282   0.932 -1.1661 -0.4197 -2.1090
   84SOL    HW2  335   0.081   0.179   1.021 -2.7404 -0.1514 -0.8420
   84SOL     MW  336   0.079   0.251   0.967 -0.5644 -0.5038 -0.8305
   85SOL     OW  337   0.436   0.442   0.771  0.2449 -0.0949  0.0889
   85SOL    HW1  338   0.444   0.483   0.688  2.2894  1.4277 -0.4290
   85SOL    HW2  339   0.369   0.380   0.770  1.1531 -0.5349  2.7265
   85SOL     MW  340   0.429   0.439   0.760  0.6345  0.0479  0.3685
   86SOL     OW  341   1.198   0.414   1.125  0.1712 -0.3776 -0.2631
   86SOL    HW1  342   1.165   0.483   1.072  1.2314  0.1987  1.6792
   86SOL    HW2  343   1.142   0.414   1.208  1.0577  1.7543  0.3194
   86SOL     MW  344   1.187   0.423   1.129  0.4280 -0.0202  0.0700
   87SOL     OW  345   1.207   1.501   1.228 -0.1707  0.1175 -0.4777
   87SOL    HW1  346   1.228   1.526   1.137  0.1193  1.6318  0.7830
   87SOL    HW2  347   1.232   1.409   1.233 -1.8247  1.7769 -1.2176
   87SOL     MW  348   1.213   1.492   1.217 -0.3507  0.5363 -0.4090
   88SOL     OW  349   1.282   1.004   1.006 -0.7650  0.1211  0.0072
   88SOL    HW1  350   1.379   1.015   1.014 -0.8842  1.8752  1.3215
   88SOL    HW2  351   1.246   1.044   1.084 -0.7549  0.5361 -1.9124
   88SOL     MW  352   1.290   1.011   1.017 -0.7794  0.4073 -0.0727
   89SOL     OW  353   1.732   0.654   0.353  0.0783  0.1412 -0.0252
   89SOL    HW1  354   1.788   0.577   0.353 -1.4896  1.2525 -1.9355
   89SOL    HW2  355   1.794   0.720   0.317  1.3710  0.7740  0.9579
   89SOL     MW  356   1.748   0.652   0.348  0.0420  0.3713 -0.1476
   90SOL     OW  357   0.678   1.207   2.794  0.4286 -0.5176 -0.1317
   90SOL    HW1  358   0.761   1.158   2.780 -0.2361 -1.6977 -5.6241
   90SOL    HW2  359   0.682   1.250   2.887  0.5902 -0.2781  1.6413
   90SOL     MW  360   0.689   1.206   2.804  0.3623 -0.6417 -0.6224
   91SOL     OW  361   2.125   0.672   0.567  0.8086  0.4740  0.3009
   91SOL    HW1  362   2.080   0.751   0.534 -0.3926 -2.2033  2.6829
   91SOL    HW2  363   2.107   0.602   0.502 -2.7665 -0.2232  1.0768
   91SOL     MW  364   2.117   0.673   0.554  0.1784  0.0288  0.7175
   92SOL     OW  365   1.572   0.862   0.445  0.8996 -0.0577  0.2204
   92SOL    HW1  366   1.492   0.829   0.494 -0.5088 -0.9269  2.3603
   92SOL    HW2  367   1.616   0.782   0.419 -0.5467  1.6128  0.4538
   92SOL     MW  368   1.567   0.847   0.448  0.5229  0.0480  0.5335
   93SOL     OW  369   1.054   0.315   0.340 -0.2528  0.4760  0.4268
   93SOL    HW1  370   0.989   0.382   0.362  1.0492  0.6203  1.7200
   93SOL    HW2  371   1.076   0.332   0.247  1.1269 -0.7056 -2.4262
   93SOL     MW  372   1.048   0.326   0.330  0.1010  0.3392  0.2210
   94SOL     OW  373   1.907   1.325   1.634  0.1276  0.6158 -0.5690
   94SOL    HW1  374   1.955   1.309   1.549  1.5724  2.0581 -2.7044
   94SOL    HW2  375   1.899   1.236   1.673 -0.2528 -2.8025  0.6098
   94SOL     MW  376   1.912   1.311   1.628  0.2681  0.3551 -0.6952
   95SOL     OW  377   0.775   1.511   0.946 -0.6709 -0.3670 -0.5159
   95SOL    HW1  378   0.854   1.458   0.957  2.2143 -0.1298 -2.8248
   95SOL    HW2  379   0.734   1.535   1.032  0.3828 -0.3605  0.0811
   95SOL     MW  380   0.780   1.507   0.959 -0.1512 -0.3349 -0.7418
   96SOL     OW  381   1.244   1.804   1.575 -0.0597  0.1599 -0.4922
   96SOL    HW1  382   1.142   1.807   1.580 -0.4474 -1.7890  1.1949
   96SOL    HW2  383   1.276   1.736   1.520  0.3215  0.9546  0.4430
   96SOL     MW  384   1.234   1.795   1.568 -0.0606  0.0076 -0.1462
   97SOL     OW  385   1.226   1.401   0.791 -0.2750 -0.4135 -0.6353
   97SOL    HW1  386   1.233   1.471   0.859  0.9229  0.8328  1.1495
   97SOL    HW2  387   1.154   1.423   0.740 -0.0302  0.4630 -0.2570
   97SOL     MW  388   1.217   1.413   0.793 -0.0846 -0.1334 -0.3499
   98SOL     OW  389   1.504   1.331   1.107 -0.6957 -0.1164 -0.4627
   98SOL    HW1  390   1.518   1.410   1.161  0.1124 -1.2028 -0.0739
   98SOL    HW2  391   1.533   1.358   1.019  0.5261 -1.1099  0.9202
   98SOL     MW  392   1.509   1.345   1.102 -0.4279 -0.3908 -0.2289
   99SOL     OW  393   1.516   0.345   1.280 -0.2865  0.7039  0.0658
   99SOL    HW1  394   1.514   0.419   1.215  1.3220  3.0414 -2.2901
   99SOL    HW2  395   1.507   0.378   1.368  1.6501  2.8313 -1.4948
   99SOL     MW  396   1.515   0.359   1.283  0.1813  1.2930 -0.4509
  100SOL     OW  397   1.030   1.074   1.428 -0.1183 -0.1902 -0.0305
  100SOL    HW1  398   0.957   1.089   1.486  0.6126  1.0321  0.8367
  100SOL    HW2  399   1.053   0.980   1.437 -1.6259  0.6445  2.5108
  100SOL     MW  400   1.023   1.064   1.437 -0.2208  0.0812  0.4192
  101SOL     OW  401   0.599   1.130   0.254 -0.5469 -0.4034 -0.3174
  101SOL    HW1  402   0.570   1.044   0.294 -1.4000  0.5217  0.2560
  101SOL    HW2  403   0.575   1.118   0.159 -0.8082 -0.1277 -0.3041
  101SOL     MW  404   0.592   1.117   0.247 -0.6939 -0.2449 -0.2400
  102SOL     OW  405   2.947   0.592   1.006  0.0555  0.0427  0.5125
  102SOL    HW1  406   3.009   0.667   0.987  1.4562  2.7824 -1.4253
  102SOL    HW2  407   2.985   0.544   1.077 -1.3205  0.1253 -2.4570
  102SOL     MW  408   2.960   0.596   1.013  0.0587  0.4150 -0.1350
  103SOL     OW  409   1.645   0.393   1.866  0.6666  0.3436  0.2156
  103SOL    HW1  410   1.625   0.344   1.780 -0.2974  1.0541  1.4276
  103SOL    HW2  411   1.713   0.348   1.911  0.1956  1.2174 -1.7799
  103SOL     MW  412   1.652   0.380   1.860  0.4773  0.5527  0.1122
  104SOL     OW  413   0.183   1.854   1.407 -0.2257 -0.5113  0.0232
  104SOL    HW1  414   0.249   1.783   1.427  2.6725 -0.4073  3.6585
  104SOL    HW2  415   0.122   1.816   1.340  1.5479  0.2866  1.7483
  104SOL     MW  416   0.184   1.840   1.401  0.3907 -0.3923  0.7305
  105SOL     OW  417   0.162   1.182   0.560 -0.3703  0.8650 -0.0978
  105SOL    HW1  418   0.167   1.120   0.488 -0.0314 -1.9047  0.6424
  105SOL    HW2  419   0.217   1.261   0.535 -0.0802  2.0381  2.5109
  105SOL     MW  420   0.170   1.185   0.547 -0.2873  0.6543  0.3440
  106SOL     OW  421   0.824   0.317   0.943 -0.4235  0.0017 -0.2186
  106SOL    HW1  422   0.769   0.388   0.906  0.2393 -0.9609  0.5168
  106SOL    HW2  423   0.909   0.312   0.896  0.1555 -1.1347  1.1841
  106SOL     MW  424   0.828   0.326   0.932 -0.2596 -0.2752  0.0635
  107SOL     OW  425   0.840   2.183   2.998  0.3513  0.2354 -0.2804
  107SOL    HW1  426   0.778   2.133   2.949  4.3958  0.3335 -1.7250
  107SOL    HW2  427   0.853   2.148   3.085 -3.0693  1.4968  0.1346
  107SOL     MW  428   0.834   2.172   3.003  0.4336  0.4147 -0.4163
  108SOL     OW  429   1.366   1.633   1.420 -0.0745  0.3745 -0.2745
  108SOL    HW1  430   1.314   1.566   1.377  4.0375 -2.9772  0.6733
  108SOL    HW2  431   1.398   1.585   1.494  0.0510 -0.2880  4.1743
  108SOL     MW  432   1.363   1.618   1.424  0.4846 -0.1551  0.4375
  109SOL     OW  433   1.953   0.774   0.176 -0.0263 -0.2142 -0.3093
  109SOL    HW1  434   1.979   0.692   0.129  1.3892  2.4161  0.0224
  109SOL    HW2  435   2.035   0.815   0.201 -1.2293 -2.1800  2.1534
  109SOL     MW  436   1.968   0.769   0.173  0.0018 -0.1265  0.0594
  110SOL     OW  437   0.443   1.807   0.715  0.5815  0.0798 -0.0213
  110SOL    HW1  438   0.513   1.746   0.677  2.1632 -1.2486 -1.0287
  110SOL    HW2  439   0.459   1.891   0.666 -0.8932  0.9955  4.4196
  110SOL     MW  440   0.454   1.810   0.704  0.5956  0.0253  0.4317
  111SOL     OW  441   0.725   0.833   1.504 -0.1221 -0.4546 -0.4754
  111SOL    HW1  442   0.729   0.786   1.422 -1.7469  1.0418  0.8101
  111SOL    HW2  443   0.642   0.804   1.541  0.0096  0.6453  2.1490
  111SOL     MW  444   0.715   0.823   1.498 -0.3191 -0.1121  0.0405
  112SOL     OW  445   1.345   1.071   1.738  0.2104  0.2523  0.4177
  112SOL    HW1  446   1.292   1.146   1.754  0.0149 -1.9258 -1.0296
  112SOL    HW2  447   1.290   0.997   1.725  0.4996  1.8390  0.7403
  112SOL     MW  448   1.331   1.071   1.738  0.2227  0.1743  0.2693
  113SOL     OW  449   1.365   0.018   1.717 -0.1011 -0.3801 -0.0341
  113SOL    HW1  450   1.335  -0.036   1.793  0.8444 -0.9754  0.6417
  113SOL    HW2  451   1.322  -0.022   1.642 -2.3113 -1.1576  2.1488
  113SOL     MW  452   1.356   0.006   1.717 -0.2680 -0.5612  0.3430
  114SOL     OW  453   0.505   2.819   1.866  0.1742 -0.2771  0.6225
  114SOL    HW1  454   0.478   2.866   1.948  1.0426 -0.4243  0.8055
  114SOL    HW2  455   0.460   2.869   1.800 -2.0882 -0.1888  1.5379
  114SOL     MW  456   0.495   2.832   1.868 -0.0097 -0.2849  0.7674
  115SOL     OW  457   0.456   0.845   1.132  0.0453  0.3290  0.0127
  115SOL    HW1  458   0.447   0.751   1.121  2.1183 -2.9104  0.8466
  115SOL    HW2  459   0.387   0.870   1.196  0.1769  0.3701 -0.7111
  115SOL     MW  460   0.446   0.836   1.139  0.3362 -0.0930  0.0272
  116SOL     OW  461   0.757   1.054   0.916  0.1479  0.4809  0.2145
  116SOL    HW1  462   0.819   1.104   0.864  2.0027  1.9523  1.7002
  116SOL    HW2  463   0.805   1.059   0.998  2.0321 -0.2119  1.2498
  116SOL     MW  464   0.771   1.061   0.920  0.6413  0.5836  0.5471
  117SOL     OW  465   1.224   1.123   0.760  0.2384  0.0824  0.6609
  117SOL    HW1  466   1.256   1.098   0.847 -0.1081  0.9421 -0.3871
  117SOL    HW2  467   1.210   1.222   0.765  1.2619 -1.0185 -0.0429
  117SOL     MW  468   1.226   1.133   0.772  0.3277  0.0506  0.4298
  118SOL     OW  469   3.052   2.989   1.719 -0.4829  0.0252  0.2109
  118SOL    HW1  470   3.103   3.013   1.798  0.1468  2.4211 -1.0642
  118SOL    HW2  471   2.967   3.025   1.741  1.3539 -2.7497 -1.3154
  118SOL     MW  472   3.048   2.997   1.732 -0.1575 -0.0248 -0.1587
  119SOL     OW  473   0.535   1.328   1.210  0.1267  0.0644  0.2757
  119SOL    HW1  474   0.531   1.341   1.118  0.0855  0.0857  1.9998
  119SOL    HW2  475   0.438   1.313   1.225 -1.6335  2.6530  3.7590
  119SOL     MW  476   0.522   1.328   1.200 -0.1110  0.4088  0.9628
  120SOL     OW  477   0.196   0.701   0.935 -0.1427  0.1954  0.3942
  120SOL    HW1  478   0.224   0.625   0.987 -0.4465  0.2103 -0.4146
  120SOL    HW2  479   0.273   0.751   0.920 -1.1818 -2.4975 -0.2140
  120SOL     MW  480   0.210   0.697   0.940 -0.3199 -0.1579  0.2072
  121SOL     OW  481   1.834   1.064   1.714  0.1511  0.4844  0.2315
  121SOL    HW1  482   1.737   1.059   1.739 -0.4395 -1.1134 -0.4005
  121SOL    HW2  483   1.847   0.977   1.687  1.0255  1.0188  1.8218
  121SOL     MW  484   1.823   1.052   1.714  0.1885  0.3441  0.3579
  122SOL     OW  485   0.116   0.505   0.756 -0.0526  0.0500 -0.1255
  122SOL    HW1  486   0.188   0.463   0.709  0.3667 -0.3317 -0.8421
  122SOL    HW2  487   0.156   0.556   0.825 -0.2066 -0.3235 -0.9991
  122SOL     MW  488   0.131   0.506   0.759 -0.0176 -0.0496 -0.3353
  123SOL     OW  489   1.794   1.044   0.444  0.0603  0.5390 -0.6878
  123SOL    HW1  490   1.716   0.991   0.461 -1.8032  5.2457  1.4768
  123SOL    HW2  491   1.847   1.048   0.531  1.5715  1.8446 -0.1765
  123SOL     MW  492   1.791   1.038   0.458  0.0138  1.3322 -0.3348
  124SOL     OW  493   0.671   0.510   0.863  0.4286  0.4251  0.3061
  124SOL    HW1  494   0.582   0.471   0.834 -1.8747  0.1059  0.3064
  124SOL    HW2  495   0.671   0.601   0.839 -1.9034 -0.1263 -0.9435
  124SOL     MW  496   0.659   0.517   0.856 -0.1830  0.3102  0.1413
  125SOL     OW  497   0.689   1.704   1.670 -0.1809 -0.3973  0.1139
  125SOL    HW1  498   0.633   1.618   1.651  1.7582 -0.6077  1.5662
  125SOL    HW2  499   0.639   1.780   1.635 -2.0763 -1.7396 -0.0307
  125SOL     MW  500   0.675   1.702   1.663 -0.1751 -0.6022  0.2865
  126SOL     OW  501   2.115   1.599   1.953  0.3551 -0.0989 -0.3292
  126SOL    HW1  502   2.184   1.668   1.928  1.4496 -0.9319 -0.1110
  126SOL    HW2  503   2.161   1.514   1.975  2.3242 -2.1702  0.1688
  126SOL     MW  504   2.130   1.597   1.952  0.7593 -0.4821 -0.2347
  127SOL     OW  505   0.620   0.748   1.855 -0.0888  0.4349 -0.2832
  127SOL    HW1  506   0.682   0.688   1.896  1.4492 -2.5617  0.5367
  127SOL    HW2  507   0.641   0.829   1.903 -1.2686 -1.6855 -1.3656
  127SOL     MW  508   0.631   0.751   1.867 -0.0416 -0.2402 -0.3178
  128SOL     OW  509   1.818   0.756   2.899  0.2458  0.6733 -0.2673
  128SOL    HW1  510   1.839   0.733   2.809  0.7171  0.2149  0.5263
  128SOL    HW2  511   1.799   0.850   2.887 -0.6164 -1.1553 -1.9247
  128SOL     MW  512   1.818   0.765   2.886  0.1943  0.3715 -0.3812
  129SOL     OW  513   1.486   0.980   0.194  0.3183 -0.7816 -0.3265
  129SOL    HW1  514   1.449   0.906   0.156  1.1202  0.8573  1.4002
  129SOL    HW2  515   1.514   0.946   0.278  1.0918 -1.1682 -2.2491
  129SOL     MW  516   1.485   0.966   0.201  0.5262 -0.6164 -0.3523
  130SOL     OW  517   0.744   1.453   0.408  0.2712 -0.3683  0.2161
  130SOL    HW1  518   0.779   1.403   0.486 -0.4907  0.1247  1.4339
  130SOL    HW2  519   0.818   1.485   0.361  1.3771  0.1212 -0.4262
  130SOL     MW  520   0.758   1.450   0.412  0.3166 -0.2387  0.2920
  131SOL     OW  521   3.060   0.804   0.069 -0.4022  0.4607 -0.4226
  131SOL    HW1  522   3.060   0.890   0.010 -0.4436  2.6604 -0.0433
  131SOL    HW2  523   3.155   0.804   0.107  2.1979 -0.8428 -1.1180
  131SOL     MW  524   3.072   0.815   0.067 -0.0646  0.5789 -0.4643
  132SOL     OW  525   2.772   0.147   1.269  0.1636 -0.4670 -0.0399
  132SOL    HW1  526   2.798   0.167   1.179 -0.6958  1.1313  0.6099
  132SOL    HW2  527   2.676   0.142   1.263  1.7108  0.2544 -0.8496
  132SOL     MW  528   2.763   0.149   1.256  0.2544 -0.1609 -0.0610
  133SOL     OW  529   1.111   0.159   1.692 -0.3251 -0.6156 -0.0673
  133SOL    HW1  530   1.183   0.104   1.722 -1.5719 -0.9195  1.2399
  133SOL    HW2  531   1.065   0.186   1.769 -1.1891  1.0471 -0.6263
  133SOL     MW  532   1.114   0.155   1.706 -0.6036 -0.4363  0.0315
  134SOL     OW  533   1.374   2.519   1.404 -0.1260 -0.0647  0.4270
  134SOL    HW1  534   1.307   2.590   1.398  1.6344  0.3381  0.4520
  134SOL    HW2  535   1.433   2.518   1.484  0.3570 -0.3934  2.3838
  134SOL     MW  536   1.373   2.528   1.413  0.1700 -0.0549  0.6885
  135SOL     OW  537   3.026   0.998   2.954 -0.4745 -0.1200 -0.6305
  135SOL    HW1  538   3.082   1.077   2.934  0.6664  1.5171  2.5871
  135SOL    HW2  539   2.935   1.019   2.942  4.3397 -0.5871  0.0431
  135SOL     MW  540   3.022   1.011   2.950  0.3112  0.0343 -0.1171
  136SOL     OW  541   0.275   2.007   0.875 -0.5964  0.1290  0.1962
  136SOL    HW1  542   0.195   1.964   0.895 -0.4170 -0.6500  0.1304
  136SOL    HW2  543   0.343   1.946   0.840  0.2893 -2.3715 -1.5106
  136SOL     MW  544   0.274   1.994   0.873 -0.4559 -0.3037 -0.0377
  137SOL     OW  545   0.757   1.999   0.514 -0.2593  0.1323 -0.4595
  137SOL    HW1  546   0.773   1.981   0.604  0.8892 -0.8351  0.8853
  137SOL    HW2  547   0.660   2.007   0.508 -0.5370  0.4825  1.0005
  137SOL     MW  548   0.747   1.998   0.525 -0.1444  0.0509 -0.0894
  138SOL     OW  549   0.517   0.564   1.104 -0.3891  0.1535  0.4724
  138SOL    HW1  550   0.434   0.520   1.084 -3.5310  1.6115 -0.7082
  138SOL    HW2  551   0.583   0.549   1.030  0.5074  0.0806  0.2046
  138SOL     MW  552   0.515   0.556   1.092 -0.6853  0.3363  0.2813
  139SOL     OW  553   2.712   0.471   1.391 -0.3117  0.2035 -0.3101
  139SOL    HW1  554   2.799   0.445   1.428 -1.2848  1.1253  2.6735
  139SOL    HW2  555   2.717   0.565   1.396 -0.0502 -1.5804  2.4762
  139SOL     MW  556   2.724   0.480   1.397 -0.4056  0.0897  0.4512
  140SOL     OW  557   0.845   0.383   2.089 -0.4067 -0.1087  0.2194
  140SOL    HW1  558   0.898   0.331   2.030  0.4580  1.2851  0.2151
  140SOL    HW2  559   0.877   0.368   2.179  0.9806  1.3858 -1.2533
  140SOL     MW  560   0.856   0.374   2.093 -0.1095  0.2724  0.0245
  141SOL     OW  561   1.025   0.590   1.732  0.1888 -0.4851  0.0837
  141SOL    HW1  562   1.086   0.533   1.678  1.0484  0.5459  0.5966
  141SOL    HW2  563   1.071   0.679   1.732  0.9460  0.8640  1.1030
  141SOL     MW  564   1.039   0.594   1.725  0.4021 -0.1710  0.2859
  142SOL     OW  565   0.955   1.147   0.746 -0.0961 -0.5406  0.0493
  142SOL    HW1  566   0.916   1.118   0.652  2.0339  1.6456 -4.5642
  142SOL    HW2  567   1.051   1.114   0.751 -1.9396 -1.7681  1.3278
  142SOL     MW  568   0.963   1.139   0.734 -0.0583 -0.4141 -0.3908
  143SOL     OW  569   1.819   0.863   1.100 -0.5736 -0.4306  0.2412
  143SOL    HW1  570   1.861   0.836   1.021 -1.5926  0.1574  0.0869
  143SOL    HW2  571   1.801   0.785   1.149 -0.4243 -1.3957  0.5929
  143SOL     MW  572   1.822   0.849   1.096 -0.6884 -0.4803  0.2672
  144SOL     OW  573   0.209   1.155   1.525  0.3821 -0.0899 -0.2922
  144SOL    HW1  574   0.293   1.134   1.488  1.1254  0.7583  2.7738
  144SOL    HW2  575   0.228   1.180   1.616 -2.4641 -1.0028 -1.4575
  144SOL     MW  576   0.223   1.156   1.532  0.1046 -0.0984 -0.0414
  145SOL     OW  577   0.268   0.466   1.058  0.4978  0.2739 -0.8562
  145SOL    HW1  578   0.303   0.447   1.150 -0.3004  0.5525 -0.4027
  145SOL    HW2  579   0.233   0.381   1.018  1.1539  5.3065 -1.2015
  145SOL     MW  580   0.268   0.452   1.065  0.4790  0.9746 -0.8419
  146SOL     OW  581   0.897   1.931   1.410  0.4842  0.5412  0.2560
  146SOL    HW1  582   0.921   1.919   1.313  1.3679  3.2964 -0.0933
  146SOL    HW2  583   0.803   1.918   1.433 -3.8341  0.5085  1.1604
  146SOL     MW  584   0.888   1.928   1.400  0.0310  0.9004  0.3292
  147SOL     OW  585   0.395   0.437   2.896 -0.0932  0.9514  0.0342
  147SOL    HW1  586   0.331   0.460   2.960  1.5668 -1.2975 -1.0422
  147SOL    HW2  587   0.371   0.474   2.812  0.3095  0.2206  1.6899
  147SOL     MW  588   0.383   0.445   2.893  0.1790  0.5583  0.1107
  148SOL     OW  589   0.043   0.899   1.348  0.5921 -0.7460  0.0332
  148SOL    HW1  590   0.141   0.926   1.329  2.3462 -0.5880  1.8056
  148SOL    HW2  591   0.025   0.922   1.444 -0.5665 -1.1594 -1.3247
  148SOL     MW  592   0.054   0.906   1.358  0.6706 -0.7797  0.0879
  149SOL     OW  593   1.407   1.180   1.461 -0.2438  0.3474  0.2490
  149SOL    HW1  594   1.380   1.191   1.550  0.2067 -3.7207 -2.1714
  149SOL    HW2  595   1.501   1.215   1.460  1.7018 -0.9895 -1.5458
  149SOL     MW  596   1.415   1.186   1.472  0.0723 -0.3657 -0.3072
  150SOL     OW  597   1.814   1.287   0.798 -0.0422  0.4336  0.1355
  150SOL    HW1  598   1.849   1.202   0.780 -1.1398  2.2002  0.4053
  150SOL    HW2  599   1.894   1.332   0.832  0.4269 -0.9114  1.0161
  150SOL     MW  600   1.829   1.282   0.800 -0.1251  0.4892  0.2873
  151SOL     OW  601   1.645   1.831   0.859 -0.3820 -0.1371 -0.2177
  151SOL    HW1  602   1.575   1.856   0.799  0.3750 -1.6297  1.1005
  151SOL    HW2  603   1.601   1.762   0.914  2.2663  1.1719 -1.5216
  151SOL     MW  604   1.630   1.825   0.858  0.0673 -0.1613 -0.2158
  152SOL     OW  605   0.783   1.339   1.516 -0.2514 -0.0587 -0.2005
  152SOL    HW1  606   0.790   1.245   1.550  0.5526  2.0935 -1.5777
  152SOL    HW2  607   0.866   1.352   1.467 -0.7408  0.7685 -3.4550
  152SOL     MW  608   0.795   1.328   1.514 -0.2099  0.3344 -0.8116
  153SOL     OW  609   2.638   1.242   0.703 -0.2350  1.0351 -0.2331
  153SOL    HW1  610   2.716   1.201   0.668 -1.3133 -0.6740  3.6294
  153SOL    HW2  611   2.563   1.178   0.714 -2.9147 -0.6790 -0.4743
  153SOL     MW  612   2.639   1.228   0.700 -0.7308  0.5834  0.2447
  154SOL     OW  613   0.328   1.764   1.685  0.0056  0.2372 -0.1045
  154SOL    HW1  614   0.358   1.736   1.603 -0.4094 -1.4901  3.3479
  154SOL    HW2  615   0.325   1.693   1.748 -0.6958 -2.3758 -2.4740
  154SOL     MW  616   0.332   1.751   1.682 -0.1417 -0.3354  0.0383
  155SOL     OW  617   1.106   0.675   0.300  0.4972 -0.1779 -0.1059
  155SOL    HW1  618   1.117   0.631   0.384 -0.4850  0.7399  1.5560
  155SOL    HW2  619   1.068   0.757   0.333  0.0680 -1.1297  1.2695
  155SOL     MW  620   1.103   0.680   0.315  0.3110 -0.1824  0.2948
  156SOL     OW  621   1.486   3.012   1.043  0.3368 -0.4721  0.3143
  156SOL    HW1  622   1.514   3.087   1.088 -5.0458  0.2464 -0.6622
  156SOL    HW2  623   1.480   2.939   1.105 -0.0620 -0.2515 -2.3360
  156SOL     MW  624   1.489   3.012   1.057 -0.4260 -0.3482 -0.1642
  157SOL     OW  625   1.334   1.211   0.159 -0.6047  0.5173 -0.2393
  157SOL    HW1  626   1.371   1.121   0.163  0.5221 -0.9785 -2.2451
  157SOL    HW2  627   1.415   1.260   0.130 -2.3651  2.0742  2.6694
  157SOL     MW  628   1.350   1.206   0.155 -0.6883  0.5253 -0.1202
  158SOL     OW  629   0.434   1.659   2.252  0.4445 -0.4534 -0.4777
  158SOL    HW1  630   0.427   1.711   2.172  0.7806  0.0198 -0.6547
  158SOL    HW2  631   0.339   1.643   2.265  0.7458  3.6031  0.8757
  158SOL     MW  632   0.420   1.664   2.243  0.5286  0.1442 -0.3225
  159SOL     OW  633   1.319   1.690   0.459  0.5021  0.3148  0.2871
  159SOL    HW1  634   1.309   1.596   0.447  0.6763  2.4398  0.6989
  159SOL    HW2  635   1.221   1.715   0.468 -1.4243  2.9847  0.7773
  159SOL     MW  636   1.305   1.681   0.459  0.2709  0.9475  0.4061
  160SOL     OW  637   0.486   1.099   1.546  0.6370 -0.2736 -0.3637
  160SOL    HW1  638   0.483   1.023   1.600  1.9596  1.3860  0.8383
  160SOL    HW2  639   0.487   1.157   1.621  2.3072 -0.3631 -1.5822
  160SOL     MW  640   0.486   1.097   1.563  1.0319 -0.0664 -0.3659
  161SOL     OW  641   0.546   2.127   2.676 -0.3223  0.1531 -0.1737
  161SOL    HW1  642   0.453   2.132   2.691  1.3268 -0.4155 -0.5686
  161SOL    HW2  643   0.563   2.117   2.585  1.8108  1.2915  3.9741
  161SOL     MW  644   0.536   2.127   2.666  0.1767  0.2283  0.3214
  162SOL     OW  645   0.991   1.688   1.763 -0.2774  0.8997 -0.5475
  162SOL    HW1  646   0.995   1.781   1.764  0.5755 -3.6995 -0.7003
  162SOL    HW2  647   0.914   1.663   1.806  1.5361  2.2085 -0.4627
  162SOL     MW  648   0.981   1.697   1.769  0.0744  0.4656 -0.5565
  163SOL     OW  649   2.125   0.184   0.976  0.0987 -0.5038  0.5288
  163SOL    HW1  650   2.108   0.223   0.892 -1.5190 -1.7334 -3.0925
  163SOL    HW2  651   2.049   0.129   0.997  0.5812  1.1411  1.8986
  163SOL     MW  652   2.113   0.182   0.967 -0.0511 -0.4490  0.2317
  164SOL     OW  653   0.249   0.228   0.741  0.3488 -0.1754 -0.8336
  164SOL    HW1  654   0.178   0.242   0.804 -0.8775 -2.4419  0.4583
  164SOL    HW2  655   0.261   0.134   0.746  3.1034 -0.5800  0.5092
  164SOL     MW  656   0.241   0.217   0.750  0.5505 -0.5278 -0.4860
  165SOL     OW  657   1.367   1.235   0.424 -0.3484 -0.0399 -0.2962
  165SOL    HW1  658   1.320   1.153   0.430  2.1837 -1.7003  0.9213
  165SOL    HW2  659   1.401   1.231   0.334  2.2168 -1.2717 -1.0145
  165SOL     MW  660   1.365   1.224   0.413  0.3241 -0.4215 -0.2303
  166SOL     OW  661   0.487   1.040   0.948  0.2735  0.1210 -0.4980
  166SOL    HW1  662   0.463   0.987   1.025 -1.2270 -2.2422  0.4723
  166SOL    HW2  663   0.581   1.048   0.947 -0.7818  0.8518  4.1169
  166SOL     MW  664   0.496   1.034   0.958 -0.0637 -0.0944  0.2389
  167SOL     OW  665   0.891   1.151   0.267  0.0452  0.3355  0.2503
  167SOL    HW1  666   0.797   1.153   0.272 -1.8497 -1.5813  1.7844
  167SOL    HW2  667   0.930   1.177   0.175  0.2754 -0.4371 -0.2116
  167SOL     MW  668   0.884   1.155   0.256 -0.1744 -0.0194  0.3918
  168SOL     OW  669   1.691   1.736   2.876  0.4420 -0.2149  0.2376
  168SOL    HW1  670   1.645   1.775   2.947 -0.1668 -1.4122 -1.2357
  168SOL    HW2  671   1.724   1.654   2.904 -2.8298  3.2843  1.4406
  168SOL     MW  672   1.690   1.730   2.889 -0.0700  0.0888  0.2019
  169SOL     OW  673   0.321   0.953   1.346 -0.3789  0.1541  0.1877
  169SOL    HW1  674   0.384   0.938   1.414  0.7599 -0.4402  0.3827
  169SOL    HW2  675   0.366   1.026   1.302 -1.3316 -1.4226 -1.0586
  169SOL     MW  676   0.335   0.960   1.349 -0.3543 -0.1324  0.0490
  170SOL     OW  677   1.074   1.477   1.459 -0.0100  0.1451  0.5509
  170SOL    HW1  678   0.998   1.543   1.481 -0.8009  1.6832 -2.1100
  170SOL    HW2  679   1.104   1.494   1.371  0.0719 -3.0269 -3.0205
  170SOL     MW  680   1.068   1.488   1.450 -0.1036 -0.0704 -0.2714
  171SOL     OW  681   0.598   1.381   0.701 -0.2431 -0.2405 -0.1904
  171SOL    HW1  682   0.573   1.359   0.792  0.7710 -1.1117 -2.8189
  171SOL    HW2  683   0.573   1.302   0.653  2.2064 -2.0187 -0.3692
  171SOL     MW  684   0.591   1.368   0.707  0.2139 -0.5901 -0.5608
  172SOL     OW  685   0.857   0.318   1.217 -0.1741 -0.2999  0.6515
  172SOL    HW1  686   0.844   0.334   1.118  1.4211  1.9450 -2.2687
  172SOL    HW2  687   0.770   0.338   1.262 -0.2683  0.2434  2.2576
  172SOL     MW  688   0.844   0.322   1.210  0.0240  0.0680  0.4781
  173SOL     OW  689   0.478   1.724   0.352  0.3480 -0.7259 -0.2734
  173SOL    HW1  690   0.457   1.626   0.334 -2.3198  0.2380 -0.8694
  173SOL    HW2  691   0.516   1.726   0.444 -2.5808  1.3598  1.4937
  173SOL     MW  692   0.480   1.711   0.362 -0.3904 -0.3235 -0.1189
  174SOL     OW  693   2.004   0.935   1.464  0.2424 -0.0723 -0.6595
  174SOL    HW1  694   1.936   0.871   1.489 -3.5398 -0.1595 -0.3645
  174SOL    HW2  695   1.957   0.984   1.396 -0.3157 -2.4920  2.7114
  174SOL     MW  696   1.989   0.933   1.458 -0.3303 -0.4031 -0.1758
  175SOL     OW  697   0.472   1.458   0.323 -0.2858  0.4020  0.1105
  175SOL    HW1  698   0.444   1.444   0.229 -1.9358  0.6734 -1.0281
  175SOL    HW2  699   0.564   1.458   0.332 -0.1775  1.2236 -1.3148
  175SOL     MW  700   0.480   1.456   0.312 -0.4892  0.5462 -0.2278
  176SOL     OW  701   0.262   1.252   1.212 -0.3227  0.1451  0.2671
  176SOL    HW1  702   0.194   1.272   1.145  1.2993 -0.1150  2.2564
  176SOL    HW2  703   0.232   1.273   1.299 -1.6806 -0.9687  4.2687
  176SOL     MW  704   0.249   1.257   1.215 -0.2879 -0.0362  1.0575
  177SOL     OW  705   0.629   0.387   1.328 -0.1597 -1.0524  0.4220
  177SOL    HW1  706   0.595   0.467   1.276 -1.4678 -3.8995 -0.8085
  177SOL    HW2  707   0.639   0.412   1.425 -0.4347  0.4409  0.2150
  177SOL     MW  708   0.626   0.401   1.334 -0.3685 -1.2310  0.2323
  178SOL     OW  709   3.066   0.420   2.905 -0.0742  0.2017 -0.3994
  178SOL    HW1  710   3.014   0.447   2.987 -1.2150 -3.0597  1.0701
  178SOL    HW2  711   2.993   0.411   2.848  0.6289  1.1427  0.8548
  178SOL     MW  712   3.049   0.423   2.908 -0.1319 -0.1045 -0.0401
  179SOL     OW  713   1.652   1.299   1.484 -0.5677 -0.1503  0.1405
  179SOL    HW1  714   1.633   1.359   1.554  1.5021 -1.0178  4.0077
  179SOL    HW2  715   1.742   1.312   1.463 -1.6026  0.1302 -3.1854
  179SOL     MW  716   1.661   1.308   1.490 -0.4311 -0.2278  0.2119
  180SOL     OW  717   2.986   0.202   0.446 -0.3231 -1.0343 -0.1209
  180SOL    HW1  718   2.960   0.230   0.354 -1.2992 -0.3912 -1.8558
  180SOL    HW2  719   3.058   0.271   0.462  1.2706  1.0709 -1.2568
  180SOL     MW  720   2.992   0.215   0.436 -0.2416 -0.6717 -0.4997
  181SOL     OW  721   1.115   1.462   3.046  0.3839 -0.0091 -0.5072
  181SOL    HW1  722   1.183   1.462   3.114 -0.6279 -2.6756  0.6171
  181SOL    HW2  723   1.155   1.414   2.975  1.3684  3.1136 -2.3617
  181SOL     MW  724   1.129   1.455   3.046  0.3803  0.0511 -0.6036
  182SOL     OW  725   0.457   0.833   1.648  0.4418  0.6435  0.2643
  182SOL    HW1  726   0.367   0.809   1.683  0.1672  0.5733  1.2337
  182SOL    HW2  727   0.511   0.808   1.723  0.6290  0.5361  0.0828
  182SOL     MW  728   0.452   0.826   1.662  0.4303  0.6201  0.3683
  183SOL     OW  729   1.583   1.513   1.286 -0.9601  0.0383 -0.0593
  183SOL    HW1  730   1.505   1.562   1.323 -1.6354  0.1279 -0.7573
  183SOL    HW2  731   1.607   1.449   1.352 -3.7463  0.6329  2.9987
  183SOL     MW  732   1.576   1.511   1.300 -1.4168  0.1286  0.2521
  184SOL     OW  733   0.856   0.644   1.983 -0.2856  0.2880 -0.9048
  184SOL    HW1  734   0.926   0.635   1.924 -1.5880  3.0444  1.5140
  184SOL    HW2  735   0.833   0.556   2.014  2.4209  3.5834 -1.5220
  184SOL     MW  736   0.862   0.631   1.979 -0.1003  1.0865 -0.6671
  185SOL     OW  737   1.102   0.941   1.975  0.7938  0.5981 -0.3503
  185SOL    HW1  738   1.109   0.873   2.038  0.0932  1.4029  0.7117
  185SOL    HW2  739   1.161   1.010   2.006 -1.5846 -0.7231  0.0102
  185SOL     MW  740   1.111   0.941   1.988  0.3875  0.5299 -0.1626
  186SOL     OW  741   0.394   1.681   1.400 -0.0908 -0.2038 -0.1255
  186SOL    HW1  742   0.461   1.745   1.370  0.3517  0.5473 -0.1591
  186SOL    HW2  743   0.362   1.632   1.326  0.8240 -0.3968 -1.0087
  186SOL     MW  744   0.398   1.683   1.386  0.0883 -0.1302 -0.2465
  187SOL     OW  745   1.500   0.704   1.443 -0.3346  0.3844 -0.1296
  187SOL    HW1  746   1.484   0.720   1.538 -0.5789 -0.3699  1.0451
  187SOL    HW2  747   1.410   0.681   1.407 -0.2145 -0.6932  0.8032
  187SOL     MW  748   1.486   0.703   1.451 -0.3510  0.1427  0.1485
  188SOL     OW  749   1.925   1.048   0.706  0.3554 -0.1634  0.2167
  188SOL    HW1  750   1.910   0.974   0.762  1.7925 -1.6648 -0.3955
  188SOL    HW2  751   2.021   1.061   0.700 -2.3936  0.4542 -3.5385
  188SOL     MW  752   1.936   1.040   0.713  0.1823 -0.2800 -0.3595
  189SOL     OW  753   0.673   0.776   0.794  0.1399 -0.0070 -0.0901
  189SOL    HW1  754   0.593   0.803   0.762  0.6206 -0.3663 -0.2457
  189SOL    HW2  755   0.703   0.863   0.827 -0.0387 -0.1967 -0.9915
  189SOL     MW  756   0.666   0.791   0.794  0.1798 -0.0795 -0.2295
  190SOL     OW  757   1.864   0.270   1.977 -0.2175 -0.4620  0.1713
  190SOL    HW1  758   1.892   0.180   1.964  0.4173 -2.7357  1.4076
  190SOL    HW2  759   1.923   0.322   1.918 -3.3069  0.1345  0.9684
  190SOL     MW  760   1.875   0.265   1.968 -0.5414 -0.6833  0.4396
  191SOL     OW  761   1.603   0.946   1.333 -1.0034  0.1574 -0.4012
  191SOL    HW1  762   1.557   0.994   1.397 -0.6651  1.4705 -1.4481
  191SOL    HW2  763   1.577   0.859   1.364 -2.2491  1.3315 -0.2500
  191SOL     MW  764   1.593   0.941   1.345 -1.1231  0.4855 -0.5194
  192SOL     OW  765   0.735   1.978   2.819 -0.5143 -0.2517 -0.2919
  192SOL    HW1  766   0.684   2.035   2.756  1.8244 -0.6801 -0.5265
  192SOL    HW2  767   0.664   1.921   2.851 -1.6069 -0.4299 -1.5424
  192SOL     MW  768   0.719   1.978   2.815 -0.3499 -0.3318 -0.4879
  193SOL     OW  769   1.010   1.612   0.744 -1.1672  0.3357 -0.2817
  193SOL    HW1  770   0.940   1.632   0.810  0.8925  1.8655 -1.6315
  193SOL    HW2  771   0.969   1.542   0.688 -0.5669 -0.7523 -2.2669
  193SOL     MW  772   0.995   1.605   0.746 -0.8162  0.3940 -0.7217
  194SOL     OW  773   0.474   1.342   0.947  0.1098 -0.6951 -0.3675
  194SOL    HW1  774   0.475   1.243   0.934 -2.3951 -2.2759  0.4954
  194SOL    HW2  775   0.398   1.373   0.897 -2.5957 -1.0988 -2.4389
  194SOL     MW  776   0.464   1.333   0.938 -0.5776 -0.9570 -0.5269
  195SOL     OW  777   1.280   1.138   2.993  0.1039 -0.2598 -0.0343
  195SOL    HW1  778   1.294   1.180   3.078 -0.0045  1.2587  1.7568
  195SOL    HW2  779   1.204   1.081   3.012 -1.1930  0.7423  0.3137
  195SOL     MW  780   1.272   1.136   3.007 -0.0815  0.0728  0.2480
  196SOL     OW  781   2.188   1.101   0.667 -0.3008 -0.2995 -0.3772
  196SOL    HW1  782   2.180   1.057   0.583  0.1515 -1.3174  1.3052
  196SOL    HW2  783   2.196   1.196   0.661  3.4898 -2.6044  0.4472
  196SOL     MW  784   2.188   1.108   0.655  0.2590 -0.7379 -0.0464
  197SOL     OW  785   0.592   1.243   1.996 -0.1159  0.2405 -0.1826
  197SOL    HW1  786   0.640   1.154   1.986  0.8222  0.1452  0.9076
  197SOL    HW2  787   0.575   1.267   1.910  0.0371 -1.0264  2.6008
  197SOL     MW  788   0.596   1.234   1.983  0.0281  0.0607  0.3285
  198SOL     OW  789   2.931   1.414   1.007 -0.6489  0.3291 -0.6579
  198SOL    HW1  790   2.919   1.509   0.988 -0.3725  3.3184  0.6104
  198SOL    HW2  791   2.838   1.375   1.024 -0.7515  0.0577  2.6488
  198SOL     MW  792   2.917   1.422   1.007 -0.6260  0.6877 -0.0543
  199SOL     OW  793   0.499   1.287   1.742 -0.6850  0.0647  0.4730
  199SOL    HW1  794   0.407   1.284   1.756  2.1095 -1.7035  1.9687
  199SOL    HW2  795   0.518   1.372   1.703  1.1726  3.0136  1.6060
  199SOL     MW  796   0.490   1.298   1.739 -0.0712  0.2205  0.8198
  200SOL     OW  797   1.899   0.012   1.376  0.4321  0.4511 -0.4009
  200SOL    HW1  798   1.931   0.014   1.284  1.8510  2.0784  2.6129
  200SOL    HW2  799   1.803   0.033   1.382 -1.5181 -2.8450 -2.2375
  200SOL     MW  800   1.890   0.015   1.364  0.3620  0.2310 -0.2456
  201SOL     OW  801   1.091   0.306   0.824  0.4779 -0.3365 -0.2214
  201SOL    HW1  802   1.084   0.216   0.850 -0.0766  3.9372 -0.4674
  201SOL    HW2  803   1.130   0.296   0.735 -4.7759  1.9575  0.8949
  201SOL     MW  804   1.095   0.293   0.816 -0.2884  0.5301 -0.1066
  202SOL     OW  805   1.546   1.652   1.034 -0.1236  0.2882 -0.4253
  202SOL    HW1  806   1.593   1.588   0.977  0.0556  2.3220  1.0758
  202SOL    HW2  807   1.578   1.631   1.120  0.6117  0.1412 -0.2177
  202SOL     MW  808   1.556   1.641   1.038 -0.0029  0.5371 -0.1999
  203SOL     OW  809   0.001   0.462   1.187  0.0381  0.5749 -0.0390
  203SOL    HW1  810   0.066   0.428   1.124 -0.1179  0.3494 -2.9024
  203SOL    HW2  811   0.058   0.512   1.247 -2.2803  1.9672 -1.7625
  203SOL     MW  812   0.017   0.464   1.186 -0.2884  0.7288 -0.6442
  204SOL     OW  813   1.065   1.754   0.516 -0.0489 -0.4320  0.3134
  204SOL    HW1  814   1.027   1.718   0.597  2.1047  0.2675  0.3413
  204SOL    HW2  815   0.989   1.739   0.457 -0.1040 -0.4702  0.3314
  204SOL     MW  816   1.050   1.747   0.519  0.2280 -0.3448  0.3195
  205SOL     OW  817   1.393   0.096   1.346 -0.3715  0.0684  0.1390
  205SOL    HW1  818   1.355   0.093   1.260  1.6739 -0.2521  2.2761
  205SOL    HW2  819   1.453   0.169   1.349  1.2708  0.2903 -1.6476
  205SOL     MW  820   1.396   0.105   1.335  0.1150  0.0554  0.1852
  206SOL     OW  821   0.453   3.065   1.408 -0.7135  0.0335  0.3077
  206SOL    HW1  822   0.401   3.055   1.329  2.5843  3.0242  1.7733
  206SOL    HW2  823   0.517   2.997   1.412  0.4144  1.3191  1.1908
  206SOL     MW  824   0.455   3.055   1.398 -0.1295  0.5977  0.6176
  207SOL     OW  825   0.962   1.544   0.249 -0.2048 -1.0193 -0.0565
  207SOL    HW1  826   0.988   1.631   0.211 -0.5656  0.3054  0.0556
  207SOL    HW2  827   1.047   1.502   0.289 -0.6002 -0.1078  0.3541
  207SOL     MW  828   0.977   1.550   0.249 -0.3046 -0.7243  0.0124
  208SOL     OW  829   0.684   1.567   1.209  0.2095  0.1626  0.4798
  208SOL    HW1  830   0.725   1.583   1.289 -1.3430  0.0659  0.6586
  208SOL    HW2  831   0.641   1.480   1.209 -1.6873  0.4789  0.7810
  208SOL     MW  832   0.684   1.557   1.219 -0.2456  0.1916  0.5431
  209SOL     OW  833   1.519   0.547   2.815  0.7936  0.0594  0.1226
  209SOL    HW1  834   1.538   0.594   2.896 -0.5519  1.7354 -2.4631
  209SOL    HW2  835   1.572   0.471   2.822 -1.7658  2.4373  3.2218
  209SOL     MW  836   1.529   0.544   2.827  0.2784  0.5943  0.1903
  210SOL     OW  837   1.595   1.432   0.875  0.2459  0.7808 -0.0411
  210SOL    HW1  838   1.677   1.384   0.856 -0.0397  1.4472 -1.9191
  210SOL    HW2  839   1.552   1.423   0.793  0.0394 -1.4667 -1.1415
  210SOL     MW  840   1.600   1.425   0.862  0.1810  0.5722 -0.4341
  211SOL     OW  841   1.723   0.478   0.933  0.2359 -0.0999 -0.1356
  211SOL    HW1  842   1.710   0.477   0.840  1.3384 -0.5978  1.6535
  211SOL    HW2  843   1.808   0.496   0.956 -1.6437 -0.9771 -1.0465
  211SOL     MW  844   1.733   0.480   0.924  0.1334 -0.2813 -0.0197
  212SOL     OW  845   0.250   1.111   0.085  0.0556  0.2006 -0.2006
  212SOL    HW1  846   0.232   1.051   0.159 -2.7296  0.7685  1.5871
  212SOL    HW2  847   0.346   1.102   0.064  0.3556 -3.4838  0.2859
  212SOL     MW  848   0.260   1.102   0.092 -0.2723 -0.2106  0.0995
  213SOL     OW  849   0.437   1.680   3.078 -0.2909  0.3907 -0.1674
  213SOL    HW1  850   0.482   1.737   3.140  0.7017 -0.3367 -1.0477
  213SOL    HW2  851   0.476   1.708   2.995 -0.1181  2.6203 -2.1462
  213SOL     MW  852   0.448   1.691   3.075 -0.1371  0.5889 -0.5446
  214SOL     OW  853   0.648   0.240   2.259  0.4791 -0.1653 -0.1937
  214SOL    HW1  854   0.596   0.305   2.216 -3.3498  0.2150  0.8945
  214SOL    HW2  855   0.736   0.221   2.217  0.0816  0.5231 -1.0024
  214SOL     MW  856   0.653   0.246   2.248 -0.0785 -0.0243 -0.1569
  215SOL     OW  857   0.476   0.741   2.606  0.1882 -0.2681  0.1376
  215SOL    HW1  858   0.496   0.715   2.514  1.9270  2.4822  1.4469
  215SOL    HW2  859   0.403   0.682   2.637 -0.4540  0.5574  0.5504
  215SOL     MW  860   0.469   0.730   2.598  0.3329  0.2037  0.3648
  216SOL     OW  861   3.083   3.039   2.718  0.4705 -0.3010 -0.8403
  216SOL    HW1  862   3.015   3.003   2.776 -1.3838 -3.2084 -1.1450
  216SOL    HW2  863   3.035   3.121   2.725 -0.2028 -1.0901  1.6750
  216SOL     MW  864   3.068   3.045   2.727  0.1370 -0.7887 -0.5486
  217SOL     OW  865   0.958   1.229   0.022 -0.3020  0.5881  0.5502
  217SOL    HW1  866   1.012   1.156  -0.014 -0.5565  0.6168  0.1589
  217SOL    HW2  867   0.980   1.320  -0.021  1.2998 -0.6427 -1.2738
  217SOL     MW  868   0.968   1.231   0.011 -0.1243  0.4295  0.2579
  218SOL     OW  869   0.919   1.297   2.530  0.4648 -0.0577  0.7979
  218SOL    HW1  870   0.945   1.218   2.579  1.7508 -2.0814  2.0077
  218SOL    HW2  871   0.967   1.356   2.589 -1.8218 -0.2607  0.3380
  218SOL     MW  872   0.929   1.295   2.544  0.3328 -0.3515  0.8969
  219SOL     OW  873   1.037   0.448   2.514  0.1323 -0.1624  0.3581
  219SOL    HW1  874   1.107   0.501   2.472  1.8510 -0.9209 -0.0941
  219SOL    HW2  875   0.986   0.509   2.560  0.5684  1.1648 -1.1958
  219SOL     MW  876   1.040   0.463   2.514  0.4166 -0.0874  0.0934
  220SOL     OW  877   1.747   0.475   2.193 -0.0872 -0.4801 -0.5893
  220SOL    HW1  878   1.671   0.502   2.140 -0.8561 -2.8130 -2.0426
  220SOL    HW2  879   1.764   0.391   2.151 -0.4951  2.5589 -0.4945
  220SOL     MW  880   1.739   0.467   2.181 -0.2424 -0.3870 -0.7685
  221SOL     OW  881   0.400   1.355   2.894 -0.0945 -0.7731  0.0442
  221SOL    HW1  882   0.418   1.272   2.850  1.1576 -2.8940 -0.4207
  221SOL    HW2  883   0.401   1.409   2.811 -0.1309  0.6736 -1.9003
  221SOL     MW  884   0.402   1.351   2.877  0.0659 -0.8620 -0.2737
  222SOL     OW  885   0.315   0.963   2.640  0.0448 -0.6679 -0.1030
  222SOL    HW1  886   0.251   0.958   2.568  1.8659  0.2955  2.5007
  222SOL    HW2  887   0.370   0.887   2.624 -1.9178  1.4404 -0.5125
  222SOL     MW  888   0.314   0.952   2.628  0.0262 -0.2626  0.1865
  223SOL     OW  889   3.090   1.998   2.603 -0.4856  0.1338 -0.2187
  223SOL    HW1  890   3.171   1.942   2.643  2.8938 -1.2353  0.7584
  223SOL    HW2  891   3.121   2.028   2.517  0.3138 -0.5808  3.1137
  223SOL     MW  892   3.105   1.994   2.597  0.0658 -0.1411  0.3499
  224SOL     OW  893   1.459   0.829   2.595 -0.1121  0.2083 -0.6312
  224SOL    HW1  894   1.458   0.825   2.692 -0.1708  0.4299  1.9064
  224SOL    HW2  895   1.494   0.915   2.565  0.3942  1.6059 -2.1371
  224SOL     MW  896   1.463   0.840   2.604 -0.0530  0.4219 -0.4951
  225SOL     OW  897   2.959   1.487   2.252  0.7239  0.1112  0.0361
  225SOL    HW1  898   2.980   1.571   2.207 -0.6936  0.4285  1.2475
  225SOL    HW2  899   2.898   1.508   2.324  1.9579 -1.7545 -0.7319
  225SOL     MW  900   2.954   1.501   2.256  0.6997 -0.0931  0.0946
  226SOL     OW  901   0.387   1.443   2.635  0.0426 -0.4421 -0.0721
  226SOL    HW1  902   0.479   1.425   2.644 -1.6900  3.6788 -0.1014
  226SOL    HW2  903   0.398   1.528   2.594  1.8015 -0.5919 -0.8081
  226SOL     MW  904   0.401   1.452   2.631  0.0461  0.0819 -0.1731
  227SOL     OW  905   0.457   1.089   2.822 -0.2314 -0.3525  0.1856
  227SOL    HW1  906   0.545   1.113   2.803 -2.6053 -0.3545  1.6098
  227SOL    HW2  907   0.417   1.052   2.737 -0.8920  0.1407 -2.7452
  227SOL     MW  908   0.463   1.087   2.808 -0.6318 -0.2877 -0.0132
  228SOL     OW  909   0.688   0.996   2.008  0.0195 -0.3760  0.6454
  228SOL    HW1  910   0.779   1.023   2.000 -1.4232 -1.8386  0.8836
  228SOL    HW2  911   0.667   0.975   2.104  0.6482 -0.3582 -1.3518
  228SOL     MW  912   0.697   0.997   2.020 -0.0879 -0.5667  0.4133
  229SOL     OW  913   0.199   0.515   3.093 -0.3205  0.6740  0.1432
  229SOL    HW1  914   0.134   0.501   3.023 -0.5146  3.5762  1.3569
  229SOL    HW2  915   0.152   0.481   3.169  2.2040  1.3462 -2.3137
  229SOL     MW  916   0.184   0.509   3.094 -0.0130  1.1456 -0.0208
  230SOL     OW  917   1.775   1.377   2.058  0.0446  0.0294 -0.4636
  230SOL    HW1  918   1.743   1.370   2.152  0.2090 -1.4267  0.8276
  230SOL    HW2  919   1.822   1.297   2.055 -1.0593  1.4024  2.2286
  230SOL     MW  920   1.777   1.366   2.070 -0.0794  0.0184  0.0620
  231SOL     OW  921   2.753   1.300   2.163 -0.1517  0.1365  0.8491
  231SOL    HW1  922   2.823   1.368   2.161 -1.6162  2.5376  1.5637
  231SOL    HW2  923   2.689   1.344   2.109  1.4036  0.2886  2.4027
  231SOL     MW  924   2.754   1.315   2.156 -0.1397  0.4734  1.1484
  232SOL     OW  925   2.290   0.875   2.120  0.0014 -0.3149 -0.1231
  232SOL    HW1  926   2.228   0.931   2.074 -1.6445 -1.7172 -0.4674
  232SOL    HW2  927   2.238   0.859   2.203 -2.1733  1.9077 -0.4203
  232SOL     MW  928   2.275   0.881   2.125 -0.5027 -0.2066 -0.2077
  233SOL     OW  929   2.050   0.541   1.939  0.3036  0.3911 -0.2434
  233SOL    HW1  930   2.084   0.589   1.858  0.5472 -4.5752  0.1989
  233SOL    HW2  931   2.128   0.528   1.996  0.4595 -2.5165 -1.0031
  233SOL     MW  932   2.065   0.546   1.936  0.3563 -0.6478 -0.2853
  234SOL     OW  933   0.264   0.990   2.322 -0.0659  0.5262 -0.0748
  234SOL    HW1  934   0.191   1.052   2.297 -0.7684  1.5398  1.7193
  234SOL    HW2  935   0.340   1.036   2.355 -1.8747 -0.4215  0.9389
  234SOL     MW  936   0.265   1.004   2.323 -0.3973  0.5349  0.2957
  235SOL     OW  937   1.051   3.050   2.772  0.1722 -0.1231 -0.6984
  235SOL    HW1  938   1.042   2.982   2.838  3.4479  1.9687  0.0990
  235SOL    HW2  939   1.020   3.134   2.815  0.4111 -0.9253 -0.5724
  235SOL     MW  940   1.046   3.052   2.786  0.6359  0.0470 -0.5765
  236SOL     OW  941   2.933   0.528   0.032  0.0985  0.6610 -0.0092
  236SOL    HW1  942   2.836   0.532   0.011 -2.9040 -1.0474  0.9738
  236SOL    HW2  943   2.953   0.621   0.047  0.6975  0.0430 -0.9310
  236SOL     MW  944   2.922   0.541   0.031 -0.2187  0.3541 -0.0011
  237SOL     OW  945   1.753   0.895   2.169  0.1776  0.9059 -0.6326
  237SOL    HW1  946   1.778   0.971   2.113  0.6977  1.4628 -1.3185
  237SOL    HW2  947   1.797   0.922   2.248 -1.0504 -1.9619  0.2764
  237SOL     MW  948   1.762   0.908   2.172  0.0842  0.6010 -0.6031
  238SOL     OW  949   1.070   1.739   2.956 -0.2680  0.1088  0.0437
  238SOL    HW1  950   1.041   1.648   2.971  0.2945 -1.0305  1.8733
  238SOL    HW2  951   1.166   1.737   2.939 -0.3348  0.6063 -1.2617
  238SOL     MW  952   1.079   1.727   2.956 -0.2026  0.0242  0.1129
  239SOL     OW  953   1.158   1.421   2.320  0.6514  0.3615  0.1900
  239SOL    HW1  954   1.143   1.443   2.415  1.4972  0.5597  0.4227
  239SOL    HW2  955   1.153   1.328   2.306 -3.0076  2.8930 -1.6860
  239SOL     MW  956   1.155   1.412   2.331  0.2802  0.7216 -0.0268
  240SOL     OW  957   0.628   0.876   2.258 -0.3500 -0.0316 -0.2327
  240SOL    HW1  958   0.635   0.949   2.314 -4.0415  1.0649 -0.5652
  240SOL    HW2  959   0.713   0.832   2.240  1.2519 -1.7168 -0.1312
  240SOL     MW  960   0.640   0.880   2.263 -0.6257 -0.1093 -0.2632
  241SOL     OW  961   0.637   0.336   2.994  0.2484 -0.1240  0.5051
  241SOL    HW1  962   0.662   0.368   3.083 -3.1974  0.4604  1.6639
  241SOL    HW2  963   0.556   0.386   2.973  0.8761  1.5202  1.4285
  241SOL     MW  964   0.630   0.347   3.003 -0.1234  0.1700  0.7798
  242SOL     OW  965   1.497   1.764   2.314  0.0935  0.2125 -0.5986
  242SOL    HW1  966   1.456   1.837   2.358 -1.2079  0.5395  0.9498
  242SOL    HW2  967   1.430   1.716   2.269 -1.9333  0.9157  0.0750
  242SOL     MW  968   1.482   1.767   2.314 -0.3456  0.3484 -0.3054
  243SOL     OW  969   0.949   0.205   2.330 -0.3803 -0.1838 -0.1929
  243SOL    HW1  970   1.043   0.197   2.325  1.2524  1.8207  2.6145
  243SOL    HW2  971   0.945   0.277   2.388  0.3916  3.0965 -0.8348
  243SOL     MW  972   0.961   0.213   2.337 -0.0630  0.5135  0.0928
  244SOL     OW  973   0.209   0.729   2.308  0.3174  0.0341 -0.2071
  244SOL    HW1  974   0.229   0.819   2.303 -3.2317 -2.3140  2.7087
  244SOL    HW2  975   0.292   0.692   2.344  0.9941  0.5628  0.8062
  244SOL     MW  976   0.223   0.736   2.312 -0.0616 -0.2059  0.3113
  245SOL     OW  977   1.216   0.233   2.343  0.5023  0.5886 -0.0865
  245SOL    HW1  978   1.228   0.136   2.356  0.4821  0.2932  0.0011
  245SOL    HW2  979   1.258   0.275   2.417 -0.3182  0.7604  1.7341
  245SOL     MW  980   1.223   0.226   2.355  0.3914  0.5723  0.1652
  246SOL     OW  981   1.262   1.164   2.097  0.4669  0.2368 -0.2327
  246SOL    HW1  982   1.203   1.120   2.165 -4.5228  0.8292  0.6173
  246SOL    HW2  983   1.345   1.167   2.149 -1.2886 -0.3097 -1.2456
  246SOL     MW  984   1.265   1.158   2.112 -0.4230  0.2428 -0.2542
  247SOL     OW  985   0.706   0.510   0.110 -0.1073 -0.4965  0.1445
  247SOL    HW1  986   0.669   0.588   0.068 -2.8840 -1.1575 -0.4826
  247SOL    HW2  987   0.802   0.510   0.085 -0.0403 -1.6005  0.1997
  247SOL     MW  988   0.714   0.520   0.101 -0.4648 -0.7294  0.0690
  248SOL     OW  989   0.434   1.185   2.490  0.0033 -0.1473  0.3223
  248SOL    HW1  990   0.429   1.237   2.412  3.8959  0.3197 -1.5225
  248SOL    HW2  991   0.382   1.236   2.557  0.0757 -0.0247  1.9885
  248SOL     MW  992   0.426   1.198   2.489  0.5264 -0.0695  0.2987
  249SOL     OW  993   0.189   1.850   2.708 -0.0508 -0.0137 -0.0942
  249SOL    HW1  994   0.152   1.763   2.672 -1.3715  0.0296 -0.6338
  249SOL    HW2  995   0.188   1.835   2.805 -1.6225 -3.1001 -0.1881
  249SOL     MW  996   0.184   1.836   2.716 -0.4324 -0.4152 -0.1778
  250SOL     OW  997   2.153   0.874   2.363 -0.0497 -0.2654  0.5061
  250SOL    HW1  998   2.216   0.799   2.377  0.3876 -5.7972  1.6929
  250SOL    HW2  999   2.191   0.948   2.414 -0.2785 -1.2684  1.1319
  250SOL     MW 1000   2.167   0.874   2.372 -0.0222 -1.1276  0.7453
  251SOL     OW 1001   0.207   0.793   2.012  0.4411 -0.2948  0.6731
  251SOL    HW1 1002   0.205   0.722   2.081 -1.1314 -1.5628  2.5961
  251SOL    HW2 1003   0.208   0.753   1.922  0.2154 -0.2669 -1.0636
  251SOL     MW 1004   0.207   0.779   2.010  0.2039 -0.4584  0.6977
  252SOL     OW 1005   1.703   1.003   2.831 -0.2259 -0.4698  0.4933
  252SOL    HW1 1006   1.709   1.034   2.924 -0.6298 -1.0959  0.7296
  252SOL    HW2 1007   1.753   1.068   2.784  0.8932  0.7247  0.5825
  252SOL     MW 1008   1.711   1.015   2.837 -0.1316 -0.3948  0.5362
  253SOL     OW 1009   1.161   1.729   2.529 -0.1217  0.0577  0.0008
  253SOL    HW1 1010   1.137   1.760   2.436 -0.8228  1.3885  0.2208
  253SOL    HW2 1011   1.087   1.766   2.581  2.1253 -1.1642 -1.2510
  253SOL     MW 1012   1.148   1.738   2.524  0.0823  0.0721 -0.1354
  254SOL     OW 1013   1.061   1.077   2.235 -0.0228  0.3416 -0.6554
  254SOL    HW1 1014   1.038   0.994   2.195  0.2438  1.5359 -0.1853
  254SOL    HW2 1015   0.978   1.118   2.246 -0.4814  0.8545 -1.7282
  254SOL     MW 1016   1.047   1.071   2.232 -0.0482  0.5668 -0.7349
  255SOL     OW 1017   0.828   2.434   2.210  0.6727  0.0049  0.0027
  255SOL    HW1 1018   0.740   2.403   2.223 -0.6150  1.6764 -3.3226
  255SOL    HW2 1019   0.867   2.418   2.297 -0.1281 -2.1568 -1.1581
  255SOL     MW 1020   0.821   2.428   2.223  0.3972 -0.0598 -0.5892
  256SOL     OW 1021   1.144   2.818   2.884  0.1768  0.0268 -0.2907
  256SOL    HW1 1022   1.165   2.727   2.877  0.9849 -0.4689 -1.4444
  256SOL    HW2 1023   1.233   2.847   2.841  1.4996 -1.8761 -3.5810
  256SOL     MW 1024   1.159   2.809   2.877  0.4579 -0.2897 -0.8770
  257SOL     OW 1025   0.142   1.883   0.097  0.7487  0.2321 -0.1743
  257SOL    HW1 1026   0.149   1.833   0.180 -2.1062  2.4946 -2.0244
  257SOL    HW2 1027   0.142   1.814   0.031  1.7966  2.4444 -0.2164
  257SOL     MW 1028   0.143   1.867   0.099  0.5103  0.8225 -0.4240
  258SOL     OW 1029   0.703   1.097   2.480  0.2473 -0.1303  0.5497
  258SOL    HW1 1030   0.719   1.153   2.406  3.4568 -0.9040 -1.9229
  258SOL    HW2 1031   0.606   1.105   2.512  0.7585 -1.2212  1.7458
  258SOL     MW 1032   0.693   1.105   2.474  0.7382 -0.3763  0.3813
  259SOL     OW 1033   0.707   0.500   2.391  0.0460 -0.0018 -0.3946
  259SOL    HW1 1034   0.618   0.539   2.368  0.7724  2.4471  0.4626
  259SOL    HW2 1035   0.694   0.406   2.391  3.8274 -0.1266  1.6575
  259SOL     MW 1036   0.693   0.493   2.388  0.6407  0.3048 -0.0108
  260SOL     OW 1037   0.592   0.125   1.600  0.3381 -0.0386 -0.5820
  260SOL    HW1 1038   0.545   0.085   1.525  2.3945  0.0575 -0.5046
  260SOL    HW2 1039   0.685   0.125   1.577  0.2377  1.1791 -0.9754
  260SOL     MW 1040   0.598   0.120   1.587  0.5962  0.1348 -0.6237
  261SOL     OW 1041   1.157   0.702   2.084  0.9086 -0.7393 -0.0192
  261SOL    HW1 1042   1.179   0.696   2.175 -0.1570 -1.2992 -0.3126
  261SOL    HW2 1043   1.229   0.668   2.029  0.9556 -2.2404 -2.1556
  261SOL     MW 1044   1.170   0.697   2.089  0.7742 -1.0112 -0.3398
  262SOL     OW 1045   1.144   0.322   0.081 -0.1718 -0.4044  0.4059
  262SOL    HW1 1046   1.236   0.302   0.069  1.5385  0.1539  0.7289
  262SOL    HW2 1047   1.097   0.239   0.076  1.2480  1.1547  1.2924
  262SOL     MW 1048   1.150   0.308   0.079  0.2412 -0.1250  0.5655
  263SOL     OW 1049   0.462   3.026   2.531  0.2770  0.0579 -0.5231
  263SOL    HW1 1050   0.395   3.094   2.529 -2.2455 -0.7715 -2.1069
  263SOL    HW2 1051   0.492   3.032   2.441  0.4402  1.6923 -1.2596
  263SOL     MW 1052   0.457   3.035   2.519 -0.0343  0.1641 -0.8293
  264SOL     OW 1053   1.538   1.337   1.922 -0.0375 -0.9255 -0.5037
  264SOL    HW1 1054   1.473   1.355   1.989 -0.7521 -1.3503  0.9624
  264SOL    HW2 1055   1.627   1.330   1.961 -0.3430 -0.8542 -1.6982
  264SOL     MW 1056   1.541   1.338   1.936 -0.1721 -0.9721 -0.4679
  265SOL     OW 1057   0.680   2.651   2.263 -0.5131 -0.0767  0.6618
  265SOL    HW1 1058   0.763   2.594   2.252  0.4098 -1.4825 -1.7100
  265SOL    HW2 1059   0.688   2.678   2.349 -0.4447  3.2153 -1.8620
  265SOL     MW 1060   0.692   2.647   2.273 -0.3823  0.1722  0.0159
  266SOL     OW 1061   0.886   0.797   2.208  0.5631 -0.0061  0.1068
  266SOL    HW1 1062   0.878   0.752   2.120 -1.4456  1.4824  1.3025
  266SOL    HW2 1063   0.927   0.739   2.266  0.0272 -2.1326 -2.8089
  266SOL     MW 1064   0.891   0.783   2.204  0.2274 -0.0903 -0.1201
  267SOL     OW 1065   1.384   1.755   2.689 -0.2212 -0.7250  0.0196
  267SOL    HW1 1066   1.466   1.716   2.651  3.3072 -1.5391 -0.8378
  267SOL    HW2 1067   1.306   1.747   2.630 -0.4557  1.6251 -3.1517
  267SOL     MW 1068   1.385   1.749   2.676  0.2134 -0.5223 -0.5120
  268SOL     OW 1069   0.223   0.761   1.748  0.1298 -0.5847  0.1383
  268SOL    HW1 1070   0.167   0.827   1.704  1.8975  2.8854  1.8435
  268SOL    HW2 1071   0.230   0.687   1.684  1.5542  0.5484  3.4210
  268SOL     MW 1072   0.216   0.760   1.734  0.5509  0.0226  0.7964
  269SOL     OW 1073   1.369   1.963   2.464 -0.6993 -0.5721 -0.3424
  269SOL    HW1 1074   1.421   1.933   2.542  3.1904  1.5545  1.0629
  269SOL    HW2 1075   1.288   1.997   2.508 -4.8998 -0.7660  3.0594
  269SOL     MW 1076   1.365   1.964   2.480 -0.7403 -0.3171  0.2919
  270SOL     OW 1077   1.171   0.398   1.592  0.2947 -0.3958  0.4004
  270SOL    HW1 1078   1.146   0.312   1.622  1.4188 -1.1291  1.0911
  270SOL    HW2 1079   1.264   0.403   1.585 -1.3784 -0.1857  0.2011
  270SOL     MW 1080   1.180   0.387   1.595  0.2222 -0.4649  0.4653
  271SOL     OW 1081   0.827   3.033   2.400  0.0558 -0.4886 -0.0798
  271SOL    HW1 1082   0.856   3.002   2.484 -0.8072  0.1140  1.7270
  271SOL    HW2 1083   0.865   3.119   2.381  0.6565  0.5596  0.9963
  271SOL     MW 1084   0.836   3.040   2.408  0.0212 -0.2708  0.3005
  272SOL     OW 1085   1.400   2.908   2.829 -0.0654 -0.5504 -0.5870
  272SOL    HW1 1086   1.370   2.988   2.782 -0.1590  3.1608 -1.6009
  272SOL    HW2 1087   1.434   2.937   2.915 -0.0167 -0.9115  1.6062
  272SOL     MW 1088   1.401   2.922   2.834 -0.0713 -0.1084 -0.4314
  273SOL     OW 1089   1.437   0.933   2.866  0.2448 -0.3688 -0.1171
  273SOL    HW1 1090   1.523   0.957   2.846  0.7878 -1.8759 -1.4164
  273SOL    HW2 1091   1.396   1.009   2.901 -1.0023 -1.0885 -0.1968
  273SOL     MW 1092   1.443   0.946   2.868  0.1519 -0.6626 -0.2990
  274SOL     OW 1093   1.354   0.749   0.199  0.3989 -0.0621  0.2870
  274SOL    HW1 1094   1.402   0.671   0.230  0.5541 -0.6723  2.9487
  274SOL    HW2 1095   1.263   0.738   0.226 -0.6853 -0.4290  2.2647
  274SOL     MW 1096   1.348   0.737   0.207  0.2763 -0.1910  0.8992
  275SOL     OW 1097   1.715   0.672   1.836 -0.8264 -0.9980 -0.0699
  275SOL    HW1 1098   1.785   0.718   1.893  0.1798 -1.2777 -0.9067
  275SOL    HW2 1099   1.695   0.589   1.875  1.5890 -0.4494  0.1779
  275SOL     MW 1100   1.722   0.667   1.849 -0.3749 -0.9625 -0.1476
  276SOL     OW 1101   0.243   1.220   1.803  0.1703  0.6736  0.0698
  276SOL    HW1 1102   0.292   1.153   1.854  2.5119  1.6249 -2.0482
  276SOL    HW2 1103   0.161   1.230   1.846 -0.9149 -0.0604  0.4741
  276SOL     MW 1104   0.239   1.213   1.816  0.3361  0.7023 -0.1563
  277SOL     OW 1105   1.940   1.348   2.617  0.2113 -0.3498 -0.1195
  277SOL    HW1 1106   2.033   1.380   2.624  1.1343 -0.7691 -2.8259
  277SOL    HW2 1107   1.938   1.264   2.655 -1.7003 -1.2948  1.2291
  277SOL     MW 1108   1.952   1.341   2.623  0.0809 -0.5298 -0.2987
  278SOL     OW 1109   1.447   0.731   1.741  0.5407  0.2164  0.1510
  278SOL    HW1 1110   1.408   0.664   1.798 -0.9471  1.5989 -0.2188
  278SOL    HW2 1111   1.537   0.748   1.768 -0.1892 -2.7726  2.2699
  278SOL     MW 1112   1.454   0.724   1.752  0.2481  0.0045  0.3818
  279SOL     OW 1113   0.543   3.098   2.223 -0.9185 -0.0748 -0.2962
  279SOL    HW1 1114   0.620   3.043   2.205  2.5846  1.4244  3.0951
  279SOL    HW2 1115   0.578   3.184   2.250  0.9479 -0.3060 -1.1152
  279SOL     MW 1116   0.558   3.102   2.225 -0.2100  0.0925  0.0432
  280SOL     OW 1117   1.493   1.146   2.218  0.3685 -0.1421  0.3931
  280SOL    HW1 1118   1.493   1.079   2.149 -1.4026 -1.0290  0.6529
  280SOL    HW2 1119   1.494   1.093   2.303  2.6682 -2.2463  2.5145
  280SOL     MW 1120   1.493   1.130   2.220  0.4383 -0.5367  0.7073
  281SOL     OW 1121   1.288   1.349   2.816  0.1362 -0.3893  0.0200
  281SOL    HW1 1122   1.374   1.394   2.831  0.2217 -1.6829  0.0345
  281SOL    HW2 1123   1.298   1.267   2.869  2.4832 -2.3823 -0.0857
  281SOL     MW 1124   1.301   1.344   2.825  0.4572 -0.8229  0.0080
  282SOL     OW 1125   1.136   1.298   1.688  0.0375 -0.0530  0.1814
  282SOL    HW1 1126   1.111   1.335   1.599 -1.0669 -1.1432  0.5658
  282SOL    HW2 1127   1.052   1.265   1.717  0.7308 -2.8349 -1.1391
  282SOL     MW 1128   1.122   1.298   1.680 -0.0168 -0.5639  0.0579
  283SOL     OW 1129   0.689   1.283   3.060 -0.4025  0.3651  1.2106
  283SOL    HW1 1130   0.768   1.261   3.105  1.8049  0.5831 -0.7544
  283SOL    HW2 1131   0.649   1.358   3.100  1.7711  0.8531 -2.4502
  283SOL     MW 1132   0.694   1.290   3.071  0.1755  0.4583  0.4683
  284SOL     OW 1133   0.480   0.656   2.355  0.4425  0.7695 -0.5127
  284SOL    HW1 1134   0.540   0.712   2.309 -0.3116 -1.4321  0.4024
  284SOL    HW2 1135   0.445   0.586   2.294  5.0570  0.4632 -0.2744
  284SOL     MW 1136   0.483   0.654   2.341  0.9518  0.4386 -0.3605
  285SOL     OW 1137   0.847   0.978   2.865 -1.2440 -0.3728 -0.9234
  285SOL    HW1 1138   0.901   0.985   2.787  1.9844  0.3908 -0.2717
  285SOL    HW2 1139   0.768   0.927   2.854  0.8509  2.0966  2.0441
  285SOL     MW 1140   0.844   0.972   2.853 -0.5417  0.0537 -0.4459
  286SOL     OW 1141   1.155   1.461   2.589 -0.4478  0.0364  0.2786
  286SOL    HW1 1142   1.211   1.463   2.662 -1.8479  3.1892 -1.4496
  286SOL    HW2 1143   1.163   1.552   2.550 -2.6755  0.0195 -0.5767
  286SOL     MW 1144   1.164   1.473   2.594 -0.9264  0.4501 -0.0622
  287SOL     OW 1145   1.025   0.926   0.343 -0.4157 -0.0095  0.0773
  287SOL    HW1 1146   1.096   0.974   0.390 -0.7125 -0.6836 -2.2290
  287SOL    HW2 1147   0.979   1.001   0.298  0.6867 -1.9535 -0.9775
  287SOL     MW 1148   1.028   0.942   0.343 -0.3095 -0.3549 -0.3662
  288SOL     OW 1149   1.545   0.636   2.097  0.2573 -0.5227 -0.0820
  288SOL    HW1 1150   1.543   0.652   2.197  0.7347 -1.0781 -1.2612
  288SOL    HW2 1151   1.520   0.726   2.068  0.1972 -0.1227 -2.4577
  288SOL     MW 1152   1.542   0.650   2.107  0.3124 -0.5432 -0.5510
  289SOL     OW 1153   0.950   1.033   2.623  0.2825 -0.8285 -0.0991
  289SOL    HW1 1154   1.014   0.968   2.611 -1.7291  2.6237 -1.9992
  289SOL    HW2 1155   0.889   1.007   2.554 -0.0460 -0.9872 -0.3781
  289SOL     MW 1156   0.951   1.021   2.612 -0.0263 -0.3940 -0.3866
  290SOL     OW 1157   0.850   0.569   1.500 -0.2129  0.2862  0.0378
  290SOL    HW1 1158   0.920   0.547   1.439  0.3218 -0.3300  0.4763
  290SOL    HW2 1159   0.907   0.574   1.574 -0.5449 -1.4817  0.0931
  290SOL     MW 1160   0.867   0.567   1.501 -0.1862 -0.0284  0.1029
  291SOL     OW 1161   0.148   0.324   0.223 -0.2447 -0.1365 -0.2522
  291SOL    HW1 1162   0.243   0.338   0.251 -0.3124  2.8453  0.4957
  291SOL    HW2 1163   0.151   0.250   0.157 -0.9095 -0.1654 -0.4037
  291SOL     MW 1164   0.161   0.316   0.218 -0.3413  0.2531 -0.1735
  292SOL     OW 1165   0.970   0.541   0.086  0.2655 -0.5769 -0.6153
  292SOL    HW1 1166   1.015   0.604   0.142  0.8921 -1.3810 -2.5056
  292SOL    HW2 1167   1.032   0.470   0.073  0.0807  0.5608 -2.6604
  292SOL     MW 1168   0.984   0.540   0.092  0.3238 -0.5329 -1.1345
  293SOL     OW 1169   0.227   0.090   2.483 -0.4886  0.1603 -0.3307
  293SOL    HW1 1170   0.159   0.023   2.480 -0.3013 -1.2372 -2.2506
  293SOL    HW2 1171   0.197   0.148   2.551 -0.1893  0.7821 -0.4045
  293SOL     MW 1172   0.214   0.089   2.492 -0.4244  0.0580 -0.5938
  294SOL     OW 1173   1.489   0.664   2.381  0.2589  0.3701 -0.2169
  294SOL    HW1 1174   1.477   0.727   2.463  2.5268  3.5921  2.8984
  294SOL    HW2 1175   1.501   0.573   2.417 -0.2849 -0.3021 -1.1078
  294SOL     MW 1176   1.489   0.661   2.396  0.4863  0.7065  0.0766
  295SOL     OW 1177   0.889   0.695   2.510  0.7824  0.6641 -0.2994
  295SOL    HW1 1178   0.846   0.635   2.455 -0.7004 -0.6956 -0.5016
  295SOL    HW2 1179   0.847   0.693   2.601 -1.1311 -1.8035 -0.4229
  295SOL     MW 1180   0.878   0.687   2.515  0.3343  0.1592 -0.3424
  296SOL     OW 1181   1.303   0.276   2.086 -0.8439 -0.3200 -0.1489
  296SOL    HW1 1182   1.390   0.220   2.066 -0.0843 -3.1234  1.5792
  296SOL    HW2 1183   1.285   0.265   2.184 -2.1957  0.4635  0.9481
  296SOL     MW 1184   1.312   0.267   2.096 -0.9220 -0.5865  0.2238
  297SOL     OW 1185   1.423   0.430   1.539  0.1338 -0.0227  0.1378
  297SOL    HW1 1186   1.467   0.514   1.541  1.6866 -1.7212  2.4421
  297SOL    HW2 1187   1.478   0.369   1.592  1.6929  0.1364 -0.8152
  297SOL     MW 1188   1.436   0.433   1.546  0.5444 -0.2258  0.3161
  298SOL     OW 1189   1.498   0.925   2.050  0.2324  0.5191  0.3600
  298SOL    HW1 1190   1.537   0.974   1.976  0.6788 -0.3320  1.1018
  298SOL    HW2 1191   1.574   0.918   2.114  0.8176 -3.1569  1.1763
  298SOL     MW 1192   1.513   0.931   2.049  0.3685 -0.0782  0.5656
  299SOL     OW 1193   0.504   1.084   3.100 -0.3710 -0.3113 -0.5820
  299SOL    HW1 1194   0.549   1.168   3.080  1.1336  3.1162  1.0122
  299SOL    HW2 1195   0.478   1.042   3.019  1.4898  0.2515  1.9191
  299SOL     MW 1196   0.506   1.090   3.087  0.0730  0.2152 -0.0416
  300SOL     OW 1197   1.266   1.156   2.509  0.0157  0.1496 -0.1728
  300SOL    HW1 1198   1.186   1.116   2.499 -1.2982  2.0069  1.7785
  300SOL    HW2 1199   1.252   1.205   2.588  0.0050 -0.7957 -2.0240
  300SOL     MW 1200   1.254   1.157   2.518 -0.1590  0.2699 -0.1596
  301SOL     OW 1201   1.356   0.784   0.577 -0.3631  0.7410 -0.1084
  301SOL    HW1 1202   1.409   0.731   0.638  1.9742  2.0002 -1.3090
  301SOL    HW2 1203   1.265   0.763   0.591  1.8547  0.5064 -0.4959
  301SOL     MW 1204   1.351   0.774   0.587  0.2379  0.8762 -0.3180
  302SOL     OW 1205   0.115   1.478   1.990 -0.1764  0.1619  0.0731
  302SOL    HW1 1206   0.098   1.423   2.065  1.3288 -0.7259  0.4386
  302SOL    HW2 1207   0.051   1.549   1.998 -3.4028 -3.2085 -1.4833
  302SOL     MW 1208   0.104   1.480   2.001 -0.4035 -0.3999 -0.0840
  303SOL     OW 1209   0.401   1.751   2.558 -0.1237 -0.4537  0.0930
  303SOL    HW1 1210   0.428   1.792   2.478  3.0136  0.9501  1.2615
  303SOL    HW2 1211   0.335   1.804   2.596  3.4360 -0.4874 -2.0827
  303SOL     MW 1212   0.396   1.763   2.552  0.7599 -0.2729 -0.0399
  304SOL     OW 1213   0.616   2.096   2.416  0.3411 -0.0798 -0.5137
  304SOL    HW1 1214   0.660   2.155   2.357 -0.2597  0.0675 -1.5047
  304SOL    HW2 1215   0.674   2.021   2.421  1.1819 -1.8258  3.4101
  304SOL     MW 1216   0.630   2.094   2.409  0.3727 -0.2907 -0.1268
  305SOL     OW 1217   1.110   0.539   0.542 -0.7999  0.4418  0.0261
  305SOL    HW1 1218   1.019   0.500   0.531 -2.9903 -3.0152  0.2597
  305SOL    HW2 1219   1.161   0.458   0.553  0.3986  1.0695  3.0774
  305SOL     MW 1220   1.104   0.523   0.542 -0.9308  0.0685  0.4595
  306SOL     OW 1221   1.204   1.466   0.336 -0.3866  0.1926 -0.0340
  306SOL    HW1 1222   1.230   1.379   0.370 -1.0329  0.6355  1.4044
  306SOL    HW2 1223   1.262   1.484   0.266 -0.3801  0.9265  5.0301
  306SOL     MW 1224   1.215   1.457   0.331 -0.4710  0.3479  0.8239
  307SOL     OW 1225   1.328   0.543   1.936  0.5269  0.0919 -0.0329
  307SOL    HW1 1226   1.318   0.468   1.990  3.6933  0.3709  1.0712
  307SOL    HW2 1227   1.414   0.568   1.974 -0.2395 -1.5837 -0.4425
  307SOL     MW 1228   1.338   0.536   1.948  0.8436 -0.0924  0.0587
  308SOL     OW 1229   2.112   0.636   2.653  0.8518 -0.0267 -0.0559
  308SOL    HW1 1230   2.196   0.617   2.697  3.4413 -1.0733  1.3731
  308SOL    HW2 1231   2.091   0.734   2.648 -2.3184  0.1887 -0.9538
  308SOL     MW 1232   2.120   0.647   2.658  0.7752 -0.1364  0.0142
  309SOL     OW 1233   0.604   0.477   0.417 -0.6704 -0.8232 -0.6815
  309SOL    HW1 1234   0.618   0.395   0.463  1.3584 -1.7748 -0.5295
  309SOL    HW2 1235   0.618   0.466   0.323  1.1962  1.5072  0.0740
  309SOL     MW 1236   0.608   0.464   0.411 -0.1564 -0.6413 -0.5617
  310SOL     OW 1237   0.455   0.514   1.932  0.0135  0.4370 -0.2743
  310SOL    HW1 1238   0.488   0.455   1.860  0.8128  0.8412  1.0090
  310SOL    HW2 1239   0.489   0.598   1.904 -1.2934  2.0134  1.5602
  310SOL     MW 1240   0.464   0.518   1.919 -0.0535  0.6983  0.1371
  311SOL     OW 1241   1.916   0.765   1.989  0.2198  0.3663  0.3976
  311SOL    HW1 1242   1.879   0.786   2.080 -1.5058 -2.6259  1.0956
  311SOL    HW2 1243   1.957   0.680   2.004 -2.1937 -0.4617 -0.9071
  311SOL     MW 1244   1.917   0.757   2.003 -0.3263 -0.1378  0.3176
  312SOL     OW 1245   1.766   2.514   0.027 -0.8717 -0.1066  0.0657
  312SOL    HW1 1246   1.818   2.533   0.105 -0.5116 -2.4257  1.4731
  312SOL    HW2 1247   1.674   2.522   0.058  0.3180 -2.7575 -3.1677
  312SOL     MW 1248   1.761   2.518   0.042 -0.6672 -0.7623 -0.1752
  313SOL     OW 1249   0.091   1.192   2.937  0.1597 -0.3504 -0.2675
  313SOL    HW1 1250   0.155   1.199   3.009  0.1898  0.0511  1.9296
  313SOL    HW2 1251   0.116   1.241   2.861  0.7466 -1.6100  1.8821
  313SOL     MW 1252   0.103   1.199   2.936  0.2411 -0.4636  0.3060
  314SOL     OW 1253   2.139   3.019   2.975  0.0124  0.3562 -0.1089
  314SOL    HW1 1254   2.078   3.059   2.915  0.2612 -3.0754  0.4284
  314SOL    HW2 1255   2.167   3.086   3.032 -0.4178 -0.7174 -0.3452
  314SOL     MW 1256   2.134   3.033   2.974 -0.0116 -0.2382 -0.0692
  315SOL     OW 1257   1.545   1.961   3.031 -0.4162 -0.1324  0.1421
  315SOL    HW1 1258   1.476   2.021   3.075  0.3484 -0.7508 -0.8763
  315SOL    HW2 1259   1.588   2.016   2.954  1.9986  3.3456 -1.2974
  315SOL     MW 1260   1.542   1.976   3.027  0.0033  0.2449 -0.1822
  316SOL     OW 1261   1.251   0.659   2.713 -0.0604  0.3672 -0.4409
  316SOL    HW1 1262   1.347   0.653   2.691  0.5078 -0.6801 -3.3117
  316SOL    HW2 1263   1.215   0.572   2.741 -1.1002 -1.9774  0.2024
  316SOL     MW 1264   1.259   0.647   2.714 -0.1226 -0.0803 -0.7348
  317SOL     OW 1265   0.667   1.424   2.635 -0.2403 -0.1220 -0.0432
  317SOL    HW1 1266   0.665   1.345   2.687  2.8042  2.0978 -0.8815
  317SOL    HW2 1267   0.735   1.398   2.568  2.4291 -1.0156 -3.8524
  317SOL     MW 1268   0.675   1.410   2.633  0.5136  0.0530 -0.6564
  318SOL     OW 1269   1.341   0.351   2.887  0.4140  0.3828  0.0939
  318SOL    HW1 1270   1.246   0.385   2.898 -2.4295 -0.9826  2.9418
  318SOL    HW2 1271   1.395   0.426   2.885  1.2693 -0.0913  0.9391
  318SOL     MW 1272   1.335   0.366   2.888  0.1517  0.1401  0.5812
  319SOL     OW 1273   0.800   0.439   2.828  0.0488  0.5096  0.1568
  319SOL    HW1 1274   0.772   0.376   2.762  0.9622 -0.2698  2.1362
  319SOL    HW2 1275   0.744   0.416   2.904 -0.4666 -0.1588  0.4490
  319SOL     MW 1276   0.789   0.428   2.830  0.1013  0.3186  0.4565
  320SOL     OW 1277   1.032   1.328   2.071  0.2437 -0.1956 -0.3396
  320SOL    HW1 1278   1.107   1.274   2.104 -0.5083  1.8707 -2.2203
  320SOL    HW2 1279   1.064   1.382   1.999 -0.3021 -0.7733  1.7268
  320SOL     MW 1280   1.046   1.328   2.066  0.0724  0.0008 -0.3151
  321SOL     OW 1281   1.069   0.949   3.035  0.2927  0.3136  0.7898
  321SOL    HW1 1282   0.989   0.948   2.980 -0.4136  0.3718 -0.1446
  321SOL    HW2 1283   1.106   0.862   3.036 -0.8328 -0.3341 -1.4114
  321SOL     MW 1284   1.063   0.938   3.028  0.0510  0.2358  0.3761
  322SOL     OW 1285   1.190   0.849   1.734 -0.6812  0.6117  0.0498
  322SOL    HW1 1286   1.275   0.804   1.742 -1.1697 -1.0182  3.3880
  322SOL    HW2 1287   1.170   0.877   1.825 -0.3987 -0.6112 -0.2421
  322SOL     MW 1288   1.198   0.847   1.747 -0.7084  0.2353  0.4517
  323SOL     OW 1289   1.166   1.513   1.879  0.4137 -0.2499 -0.4033
  323SOL    HW1 1290   1.184   1.458   1.806 -0.4446  2.3860  3.1178
  323SOL    HW2 1291   1.111   1.583   1.834 -0.5708  0.8483  0.2228
  323SOL     MW 1292   1.161   1.515   1.864  0.1705  0.2428  0.1439
  324SOL     OW 1293   1.527   1.071   2.485  0.2898 -0.1704  0.0619
  324SOL    HW1 1294   1.434   1.100   2.517  0.2797 -1.8324 -1.6283
  324SOL    HW2 1295   1.586   1.124   2.536 -1.0522 -1.3814 -3.7331
  324SOL     MW 1296   1.522   1.082   2.496  0.1114 -0.5494 -0.6618
  325SOL     OW 1297   1.094   0.497   2.892 -0.0012  0.0448  0.4283
  325SOL    HW1 1298   1.120   0.579   2.926 -0.2043  1.6500  0.0126
  325SOL    HW2 1299   1.000   0.484   2.907 -0.1667 -0.0269 -0.4700
  325SOL     MW 1300   1.085   0.506   2.899 -0.0498  0.2471  0.2550
  326SOL     OW 1301   0.437   1.333   2.219  0.1019  0.1544 -0.1437
  326SOL    HW1 1302   0.503   1.310   2.152  0.4872 -0.5863  1.2090
  326SOL    HW2 1303   0.441   1.429   2.229 -0.4033  0.8209  1.6139
  326SOL     MW 1304   0.446   1.343   2.211  0.0860  0.1446  0.2666
  327SOL     OW 1305   1.896   0.908   2.398 -0.2208  0.0646 -0.0592
  327SOL    HW1 1306   1.851   0.850   2.459 -1.9671  0.4024  2.8085
  327SOL    HW2 1307   1.989   0.896   2.384 -0.5930  0.7908 -2.3512
  327SOL     MW 1308   1.902   0.899   2.404 -0.5003  0.2050  0.0167
  328SOL     OW 1309   0.168   1.262   2.225  0.8822 -0.2922 -0.0217
  328SOL    HW1 1310   0.156   1.195   2.157  0.6689  2.2090  1.1702
  328SOL    HW2 1311   0.262   1.286   2.220  2.6190 -1.9156  0.7259
  328SOL     MW 1312   0.179   1.256   2.216  1.0832 -0.1764  0.2342
  329SOL     OW 1313   0.135   0.151   1.397 -0.0613 -0.3882  0.4987
  329SOL    HW1 1314   0.077   0.177   1.472 -3.2435 -0.4102  4.1359
  329SOL    HW2 1315   0.209   0.207   1.394 -1.2725 -2.7720 -0.4638
  329SOL     MW 1316   0.137   0.162   1.406 -0.6410 -0.7056  0.8516
  330SOL     OW 1317   0.380   2.974   2.047 -0.3500  0.3748  0.4168
  330SOL    HW1 1318   0.396   3.038   2.113  0.1380  1.6006 -3.0749
  330SOL    HW2 1319   0.310   2.923   2.085 -2.0228 -2.6121  1.6236
  330SOL     MW 1320   0.373   2.976   2.061 -0.5063  0.1424  0.1153
  331SOL     OW 1321   0.820   1.234   2.245 -0.3036 -0.1546  0.1736
  331SOL    HW1 1322   0.788   1.312   2.199  1.8308  0.9977 -5.2465
  331SOL    HW2 1323   0.869   1.270   2.318  0.3615  1.1848 -2.3635
  331SOL     MW 1324   0.822   1.249   2.249  0.0657  0.1741 -0.8763
  332SOL     OW 1325   1.354   1.764   2.971 -0.2264 -0.8182 -0.3948
  332SOL    HW1 1326   1.369   1.744   2.879  1.2454  0.5638 -0.3077
  332SOL    HW2 1327   1.420   1.834   2.989  0.5768  2.3419  0.3567
  332SOL     MW 1328   1.365   1.770   2.961  0.0738 -0.2189 -0.2842
  333SOL     OW 1329   1.723   1.463   2.994  0.2296 -0.2042 -0.0627
  333SOL    HW1 1330   1.813   1.486   3.023  2.3647 -1.9301  2.1975
  333SOL    HW2 1331   1.676   1.449   3.074 -1.2379  0.5971  0.1226
  333SOL     MW 1332   1.728   1.464   3.009  0.3177 -0.3262  0.2600
  334SOL     OW 1333   1.290   3.060   2.646  0.5706 -0.6449  0.0438
  334SOL    HW1 1334   1.206   3.054   2.695  1.9771  3.2744 -1.7777
  334SOL    HW2 1335   1.310   3.156   2.655  1.8121  1.4790  3.2051
  334SOL     MW 1336   1.282   3.072   2.654  0.9200  0.1524  0.2206
  335SOL     OW 1337   1.268   0.751   3.048 -0.2007  0.2256  0.6704
  335SOL    HW1 1338   1.300   0.722   3.135 -1.7394  0.8479  1.1318
  335SOL    HW2 1339   1.330   0.792   2.989  2.4357 -0.8712 -0.3263
  335SOL     MW 1340   1.281   0.753   3.052 -0.0559  0.1630  0.5997
  336SOL     OW 1341   0.921   1.104   1.908 -0.2463 -0.0014  0.0873
  336SOL    HW1 1342   0.946   1.168   1.973  0.9149  1.9704  1.1934
  336SOL    HW2 1343   0.990   1.035   1.918 -2.6383 -3.5626 -0.7360
  336SOL     MW 1344   0.933   1.104   1.918 -0.4087 -0.2111  0.1246
  337SOL     OW 1345   0.497   1.789   2.843 -0.3771  0.1629  0.1626
  337SOL    HW1 1346   0.426   1.769   2.781 -1.2624  0.8594 -2.5594
  337SOL    HW2 1347   0.565   1.727   2.815 -1.5399  1.3259  0.3873
  337SOL     MW 1348   0.497   1.778   2.831 -0.6473  0.4083 -0.1669
  338SOL     OW 1349   1.129   0.846   2.566 -0.1260  0.4383  0.4851
  338SOL    HW1 1350   1.068   0.786   2.526  3.3087  1.6643 -1.0140
  338SOL    HW2 1351   1.165   0.800   2.639  0.7212 -1.6592 -0.7705
  338SOL     MW 1352   1.126   0.832   2.570  0.4389  0.3233  0.1216
  339SOL     OW 1353   1.590   1.061   1.835  0.0276  0.1766 -0.2892
  339SOL    HW1 1354   1.503   1.055   1.787  1.3228  2.3014 -0.1015
  339SOL    HW2 1355   1.587   1.154   1.872  1.2422  1.2076  2.3067
  339SOL     MW 1356   1.578   1.073   1.833  0.3588  0.5930  0.0781
  340SOL     OW 1357   1.357   1.576   0.104  0.1047 -0.3016 -0.2654
  340SOL    HW1 1358   1.345   1.643   0.032 -1.1442 -0.7101 -0.5791
  340SOL    HW2 1359   1.454   1.571   0.113  1.4104 -1.3117 -0.9357
  340SOL     MW 1360   1.368   1.584   0.095  0.1122 -0.4888 -0.3952
  341SOL     OW 1361   0.139   1.316   2.681 -0.0717  0.4129 -0.4403
  341SOL    HW1 1362   0.217   1.358   2.645  0.3354  2.0693 -0.6635
  341SOL    HW2 1363   0.085   1.315   2.602 -0.7915 -0.8475 -0.8262
  341SOL     MW 1364   0.142   1.321   2.666 -0.1130  0.4651 -0.5207
  342SOL     OW 1365   1.419   0.325   0.070  0.1169 -0.0506 -0.2428
  342SOL    HW1 1366   1.470   0.390   0.121  0.4426 -1.5562  0.8259
  342SOL    HW2 1367   1.443   0.343  -0.023 -0.3551 -1.4388  0.8477
  342SOL     MW 1368   1.429   0.336   0.064  0.0976 -0.4324  0.0421
  343SOL     OW 1369   0.206   0.270   2.286  0.0739 -0.3051 -0.9948
  343SOL    HW1 1370   0.221   0.190   2.344  2.1624  2.0216  0.2529
  343SOL    HW2 1371   0.154   0.232   2.209 -0.2635  0.9512  0.2524
  343SOL     MW 1372   0.201   0.254   2.283  0.3049  0.1676 -0.6656
  344SOL     OW 1373   1.685   2.085   0.223 -0.3188 -0.2999  0.7087
  344SOL    HW1 1374   1.714   2.130   0.145 -0.7312  0.8581 -0.0159
  344SOL    HW2 1375   1.650   2.003   0.189  0.6516  2.4946  2.0065
  344SOL     MW 1376   1.684   2.080   0.208 -0.2452  0.2216  0.7843
  345SOL     OW 1377   0.679   1.602   2.362  0.4088 -0.2910  0.4944
  345SOL    HW1 1378   0.587   1.615   2.329  1.6559  0.3864  0.5997
  345SOL    HW2 1379   0.731   1.540   2.307 -0.2783 -0.5602  0.5755
  345SOL     MW 1380   0.674   1.595   2.350  0.4827 -0.2372  0.5190
  346SOL     OW 1381   1.683   1.082   0.008  0.4693  0.0775 -0.1499
  346SOL    HW1 1382   1.780   1.079   0.025  1.2711  0.7633 -1.1568
  346SOL    HW2 1383   1.635   1.041   0.077 -1.1403  2.8586  0.3796
  346SOL     MW 1384   1.690   1.076   0.019  0.3628  0.5349 -0.2129
  347SOL     OW 1385   1.191   0.672   2.360  0.1903  0.7304 -0.4001
  347SOL    HW1 1386   1.288   0.661   2.361 -1.1676  0.7676  0.2937
  347SOL    HW2 1387   1.184   0.730   2.439  0.6691 -0.3533  2.1275
  347SOL     MW 1388   1.203   0.678   2.371  0.0743  0.5923  0.0249
  348SOL     OW 1389   1.318   2.611   1.890 -0.1962  0.0020 -0.1305
  348SOL    HW1 1390   1.375   2.536   1.900 -0.9704  2.2137 -1.5155
  348SOL    HW2 1391   1.362   2.685   1.919 -0.0899 -1.5796  0.4086
  348SOL     MW 1392   1.331   2.611   1.895 -0.2843  0.0851 -0.2421
  349SOL     OW 1393   1.390   0.226   2.648  0.4195 -0.0114 -0.1978
  349SOL    HW1 1394   1.353   0.289   2.714 -0.9614  0.6190 -0.3549
  349SOL    HW2 1395   1.465   0.174   2.691  2.7309 -0.4289 -4.9519
  349SOL     MW 1396   1.395   0.227   2.663  0.5423  0.0167 -0.8458
  350SOL     OW 1397   1.855   0.681   2.640 -0.1505  0.1764  0.5500
  350SOL    HW1 1398   1.806   0.608   2.597 -0.0877  0.9455  0.3351
  350SOL    HW2 1399   1.946   0.653   2.654  1.6493  1.1420 -4.4857
  350SOL     MW 1400   1.861   0.668   2.636  0.0952  0.4053 -0.1428
  351SOL     OW 1401   0.072   0.935   1.618  0.5731  0.1548 -0.0595
  351SOL    HW1 1402  -0.002   0.964   1.667  0.2763  1.6037  0.9341
  351SOL    HW2 1403   0.124   1.016   1.608  2.1061  0.0877 -0.5868
  351SOL     MW 1404   0.069   0.950   1.623  0.7362  0.3371  0.0020
  352SOL     OW 1405   0.745   1.655   2.770  0.1439  0.5347 -0.3160
  352SOL    HW1 1406   0.793   1.611   2.836  1.0751  0.8885  1.2752
  352SOL    HW2 1407   0.709   1.589   2.710  2.8501  0.0079  1.1713
  352SOL     MW 1408   0.746   1.641   2.771  0.6238  0.5119  0.0901
  353SOL     OW 1409   2.992   2.408   2.716 -0.4629 -0.2817 -0.1960
  353SOL    HW1 1410   3.087   2.391   2.695  0.4555  0.5572 -1.9980
  353SOL    HW2 1411   2.966   2.481   2.660 -0.8820  1.3749  1.7297
  353SOL     MW 1412   3.001   2.415   2.706 -0.3970  0.0475 -0.1797
  354SOL     OW 1413   0.424   2.388   0.862  0.2034  0.1801 -0.1935
  354SOL    HW1 1414   0.435   2.365   0.952 -1.4952  0.2651 -0.3845
  354SOL    HW2 1415   0.352   2.328   0.839  1.4493 -0.3619 -1.1425
  354SOL     MW 1416   0.416   2.377   0.871  0.1437  0.1198 -0.3439
  355SOL     OW 1417   0.072   2.188   0.398  0.2318 -0.2369  0.4316
  355SOL    HW1 1418  -0.019   2.167   0.381  0.0307  1.0486 -0.2914
  355SOL    HW2 1419   0.059   2.242   0.474 -1.6879 -1.4864  0.8335
  355SOL     MW 1420   0.058   2.192   0.406 -0.0480 -0.2322  0.3892
  356SOL     OW 1421   0.860   2.954   1.017  0.0422 -0.1354  0.3046
  356SOL    HW1 1422   0.905   2.921   0.932  0.4554  0.0300 -1.8453
  356SOL    HW2 1423   0.777   2.911   1.028  0.8025  0.3389 -2.2403
  356SOL     MW 1424   0.855   2.944   1.007  0.1970 -0.0510 -0.3149
  357SOL     OW 1425   1.775   2.888   0.370 -0.4697 -0.1975  0.2055
  357SOL    HW1 1426   1.720   2.838   0.421  1.1312  0.7963 -2.3403
  357SOL    HW2 1427   1.844   2.823   0.342 -0.3914 -0.9150  0.6293
  357SOL     MW 1428   1.777   2.872   0.373 -0.2481 -0.1610 -0.0745
  358SOL     OW 1429   0.413   0.157   1.028  0.4143 -0.0279  0.7166
  358SOL    HW1 1430   0.507   0.156   1.019  2.0589 -0.4897 -2.5699
  358SOL    HW2 1431   0.388   0.146   0.936 -1.4679 -0.7155 -1.2116
  358SOL     MW 1432   0.422   0.155   1.015  0.3830 -0.1796  0.0286
  359SOL     OW 1433   0.982   2.849   1.824  0.0518  0.7242  0.3925
  359SOL    HW1 1434   0.939   2.776   1.855  0.8285  1.8891 -3.6095
  359SOL    HW2 1435   1.017   2.803   1.744 -0.0572  0.8424  0.9825
  359SOL     MW 1436   0.981   2.833   1.818  0.1399  0.8935 -0.0577
  360SOL     OW 1437   0.632   2.789   1.001  0.4221  0.0475  0.2584
  360SOL    HW1 1438   0.644   2.763   0.909  2.1515  2.4440 -2.3062
  360SOL    HW2 1439   0.605   2.704   1.040 -0.5879  2.5067  1.5648
  360SOL     MW 1440   0.630   2.775   0.994  0.5170  0.6882  0.0924
  361SOL     OW 1441   0.176   2.719   1.368  0.2093 -0.0415 -0.6670
  361SOL    HW1 1442   0.153   2.810   1.397 -1.1127  1.3702  3.5693
  361SOL    HW2 1443   0.272   2.715   1.361 -2.1579 -3.1240  2.3493
  361SOL     MW 1444   0.186   2.730   1.371 -0.2775 -0.2619  0.2899
  362SOL     OW 1445   1.502   2.425   0.601  0.0885 -0.1652  0.1041
  362SOL    HW1 1446   1.506   2.355   0.666 -2.2467 -2.6825 -0.9455
  362SOL    HW2 1447   1.484   2.498   0.659 -0.9745 -4.0055  0.9469
  362SOL     MW 1448   1.500   2.426   0.617 -0.3599 -1.0040  0.0768
  363SOL     OW 1449   0.242   3.051   0.746  0.3764 -0.0419  0.0799
  363SOL    HW1 1450   0.238   2.991   0.818 -0.4913  3.8574 -0.5584
  363SOL    HW2 1451   0.150   3.063   0.713 -0.6101  0.6054 -0.0990
  363SOL     MW 1452   0.230   3.045   0.751  0.1318  0.5580 -0.0279
  364SOL     OW 1453   0.684   0.175   0.193  0.4426 -0.1294  0.6084
  364SOL    HW1 1454   0.656   0.086   0.206  2.0975 -0.2072  0.2318
  364SOL    HW2 1455   0.606   0.225   0.214 -2.2591  2.2215  0.4066
  364SOL     MW 1456   0.670   0.170   0.197  0.3045  0.1705  0.5320
  365SOL     OW 1457   0.954   1.973   1.121  0.0536 -0.0754  0.0846
  365SOL    HW1 1458   0.914   2.056   1.088 -0.6567  1.5538  0.4783
  365SOL    HW2 1459   0.922   1.900   1.063  0.3270  2.4177  0.9459
  365SOL     MW 1460   0.945   1.974   1.109 -0.0040  0.4685  0.2502
  366SOL     OW 1461   2.861   2.652   1.000  0.0757 -0.7094  0.5512
  366SOL    HW1 1462   2.928   2.640   1.061 -1.4117  0.5028 -2.0415
  366SOL    HW2 1463   2.911   2.665   0.914 -1.8982 -0.5331  1.8825
  366SOL     MW 1464   2.876   2.652   0.997 -0.3810 -0.5262  0.3848
  367SOL     OW 1465   1.275   2.837   0.883 -0.2235 -0.5593 -0.1411
  367SOL    HW1 1466   1.193   2.880   0.901  2.4172 -2.2478  0.2439
  367SOL    HW2 1467   1.257   2.786   0.796 -1.0890  0.5871 -0.8362
  367SOL     MW 1468   1.262   2.836   0.874  0.0108 -0.6308 -0.1820
  368SOL     OW 1469   1.656   0.469   0.660 -0.0234  0.0267  0.2281
  368SOL    HW1 1470   1.729   0.411   0.646  2.4829  2.2638  0.3357
  368SOL    HW2 1471   1.694   0.556   0.641 -1.4007  1.4468 -1.3557
  368SOL     MW 1472   1.670   0.473   0.656  0.1256  0.5092  0.0334
  369SOL     OW 1473   0.114   2.469   1.737 -0.2100  0.1479 -0.3753
  369SOL    HW1 1474   0.210   2.463   1.742 -1.4986 -0.0640  0.8293
  369SOL    HW2 1475   0.086   2.555   1.762 -2.2377  1.2863  1.3911
  369SOL     MW 1476   0.123   2.480   1.741 -0.6475  0.2701  0.0167
  370SOL     OW 1477   0.684   0.097   0.972  0.5338 -0.7142  0.1294
  370SOL    HW1 1478   0.732   0.183   0.966 -0.1923 -1.0669 -1.8574
  370SOL    HW2 1479   0.753   0.046   1.017 -0.4439 -0.7108  0.6520
  370SOL     MW 1480   0.700   0.102   0.977  0.3090 -0.7603 -0.0638
  371SOL     OW 1481   1.312   2.966   1.485 -0.0245 -0.3990 -0.2438
  371SOL    HW1 1482   1.229   2.920   1.454  1.3922 -0.9084 -0.9719
  371SOL    HW2 1483   1.328   3.044   1.426 -1.1127 -0.3649  0.2940
  371SOL     MW 1484   1.303   2.970   1.473  0.0188 -0.4617 -0.2689
  372SOL     OW 1485   0.824   2.264   0.509  0.0971  0.1510  0.1988
  372SOL    HW1 1486   0.775   2.181   0.494  0.7345 -0.8209 -0.2531
  372SOL    HW2 1487   0.828   2.297   0.420  2.7813  0.8563  0.8191
  372SOL     MW 1488   0.818   2.257   0.495  0.5354  0.1158  0.2210
  373SOL     OW 1489   2.878   3.022   1.420 -0.1366  0.2377 -0.2730
  373SOL    HW1 1490   2.935   2.972   1.363 -1.4739  1.4994 -0.3436
  373SOL    HW2 1491   2.854   3.107   1.376  0.4155 -0.1312 -0.2389
  373SOL     MW 1492   2.882   3.027   1.407 -0.2402  0.3555 -0.2778
  374SOL     OW 1493   1.507   0.547   0.255 -0.1155  0.2410  0.0545
  374SOL    HW1 1494   1.586   0.594   0.295  4.0484  1.5604  1.0434
  374SOL    HW2 1495   1.470   0.523   0.345  3.1429  2.2749  0.2176
  374SOL     MW 1496   1.512   0.550   0.272  0.8638  0.6835  0.2065
  375SOL     OW 1497   1.150   2.111   2.303 -0.3008  0.1741  0.9430
  375SOL    HW1 1498   1.147   2.122   2.400  1.4026  1.0591 -2.1208
  375SOL    HW2 1499   1.161   2.015   2.292  0.2462  0.1894  1.7694
  375SOL     MW 1500   1.151   2.100   2.314 -0.0039  0.2929  0.6478
  376SOL     OW 1501   0.655   2.532   0.118  0.6733 -0.2607 -0.1469
  376SOL    HW1 1502   0.693   2.476   0.193 -0.5465 -3.6654 -0.0090
  376SOL    HW2 1503   0.621   2.480   0.047 -0.7271  3.3611  0.4054
  376SOL     MW 1504   0.656   2.518   0.119  0.3276 -0.2321 -0.0559
  377SOL     OW 1505   1.271   2.020   0.875  0.7855 -0.5859 -0.7868
  377SOL    HW1 1506   1.195   1.990   0.823  0.3342  0.4809 -0.2110
  377SOL    HW2 1507   1.283   1.944   0.937  1.1080 -0.6235 -1.5950
  377SOL     MW 1508   1.263   2.006   0.876  0.7685 -0.4501 -0.8175
  378SOL     OW 1509   1.005   2.787   1.559  0.2576 -0.6573 -0.1737
  378SOL    HW1 1510   0.945   2.705   1.568  0.2264 -0.5202  0.8303
  378SOL    HW2 1511   0.949   2.858   1.522 -1.9202  0.2437  1.6635
  378SOL     MW 1512   0.990   2.785   1.555 -0.0338 -0.5203  0.2012
  379SOL     OW 1513   1.087   1.821   2.275  0.4325 -0.4424 -0.1658
  379SOL    HW1 1514   0.992   1.799   2.264  0.5526 -3.2524 -0.4710
  379SOL    HW2 1515   1.128   1.758   2.213 -1.7687  0.6313 -0.0547
  379SOL     MW 1516   1.080   1.809   2.265  0.1579 -0.6715 -0.1914
  380SOL     OW 1517   0.872   0.177   1.520 -0.2297 -0.8870  0.5241
  380SOL    HW1 1518   0.910   0.115   1.457 -2.1874  1.8479 -0.7445
  380SOL    HW2 1519   0.938   0.169   1.590 -1.9668  0.2774 -1.8556
  380SOL     MW 1520   0.886   0.167   1.521 -0.7172 -0.3725  0.0427
  381SOL     OW 1521   0.789   1.988   0.788 -0.0534 -0.5063 -0.3622
  381SOL    HW1 1522   0.886   1.992   0.774 -0.8479 -1.0591  1.2774
  381SOL    HW2 1523   0.773   2.055   0.857 -0.7014 -2.5114 -1.1560
  381SOL     MW 1524   0.800   1.997   0.795 -0.2438 -0.8438 -0.2506
  382SOL     OW 1525   0.737   0.011   0.705 -0.2374  0.5003  0.0459
  382SOL    HW1 1526   0.702   0.031   0.794 -2.7373 -0.1272  0.4473
  382SOL    HW2 1527   0.676  -0.058   0.668 -1.1113 -0.9953 -0.7689
  382SOL     MW 1528   0.724   0.004   0.712 -0.6826  0.2202 -0.0087
  383SOL     OW 1529   0.467   0.053   0.385 -0.3564 -0.0565 -0.2313
  383SOL    HW1 1530   0.526  -0.002   0.345 -1.8715  0.8959  2.5986
  383SOL    HW2 1531   0.383   0.004   0.368 -1.8848 -0.8188  1.1496
  383SOL     MW 1532   0.463   0.039   0.378 -0.7579 -0.0314  0.3243
  384SOL     OW 1533   0.604   2.903   0.603  0.4044 -0.0102  1.0984
  384SOL    HW1 1534   0.642   2.825   0.641 -0.8654  1.9360 -2.9014
  384SOL    HW2 1535   0.509   2.887   0.612 -0.8027 -0.4678  1.3816
  384SOL     MW 1536   0.597   2.890   0.609  0.0776  0.1862  0.6080
  385SOL     OW 1537   1.314   2.064   1.561 -0.0890 -0.3988 -0.0796
  385SOL    HW1 1538   1.394   2.077   1.618  2.3155 -0.7103  0.7424
  385SOL    HW2 1539   1.279   1.972   1.577 -0.9737  0.2390  0.4714
  385SOL     MW 1540   1.320   2.054   1.570  0.1115 -0.3557  0.1016
  386SOL     OW 1541   1.365   0.392   0.855 -0.2647 -0.2215 -0.8193
  386SOL    HW1 1542   1.277   0.368   0.830  2.1164 -3.9526 -1.1617
  386SOL    HW2 1543   1.354   0.414   0.946 -0.3017 -1.2667 -2.4713
  386SOL     MW 1544   1.352   0.392   0.864  0.0445 -0.8517 -1.0825
  387SOL     OW 1545   0.827   2.176   1.483  0.0370 -0.1584 -0.0507
  387SOL    HW1 1546   0.889   2.238   1.450 -2.8294 -2.5308  0.1995
  387SOL    HW2 1547   0.860   2.091   1.445 -3.0771  0.7071  1.9625
  387SOL     MW 1548   0.839   2.173   1.473 -0.7521 -0.3572  0.2479
  388SOL     OW 1549   1.487   2.806   1.205 -0.1266 -0.0914  0.0947
  388SOL    HW1 1550   1.421   2.743   1.172 -1.3492  0.5543  1.7767
  388SOL    HW2 1551   1.571   2.781   1.167  1.2654 -1.7275 -0.1039
  388SOL     MW 1552   1.489   2.794   1.195 -0.1042 -0.2221  0.2904
  389SOL     OW 1553   0.369   0.167   3.102 -0.3423 -0.8238  0.0459
  389SOL    HW1 1554   0.423   0.136   3.030  0.7693  0.6114 -1.8653
  389SOL    HW2 1555   0.279   0.159   3.067 -2.6516 -1.0646 -3.6672
  389SOL     MW 1556   0.364   0.162   3.088 -0.5003 -0.6662 -0.6962
  390SOL     OW 1557   1.352   0.030   0.623 -0.2141 -0.5865  0.1075
  390SOL    HW1 1558   1.438   0.067   0.606  1.5653  0.8982 -1.3628
  390SOL    HW2 1559   1.345   0.010   0.719 -0.4625 -1.7976  0.3499
  390SOL     MW 1560   1.362   0.032   0.633 -0.0121 -0.5504 -0.0545
  391SOL     OW 1561   0.305   2.280   1.471  0.0098  0.2319  0.1331
  391SOL    HW1 1562   0.239   2.222   1.504  0.1831 -1.0415 -0.4595
  391SOL    HW2 1563   0.244   2.351   1.458  1.5358 -1.2647  1.1128
  391SOL     MW 1564   0.288   2.282   1.473  0.2340 -0.1336  0.1841
  392SOL     OW 1565   1.991   2.201   0.333  0.0250  0.3713 -0.0975
  392SOL    HW1 1566   1.921   2.254   0.377  1.0741  1.2110 -2.2194
  392SOL    HW2 1567   2.059   2.187   0.401 -0.4340  0.8206  0.3945
  392SOL     MW 1568   1.991   2.206   0.348  0.1029  0.5414 -0.3125
  393SOL     OW 1569   0.238   2.997   2.820 -0.3990 -0.3510 -0.5702
  393SOL    HW1 1570   0.298   3.075   2.805  0.9953  3.5832 -0.4971
  393SOL    HW2 1571   0.148   3.018   2.788 -1.8656 -1.5689 -0.6830
  393SOL     MW 1572   0.234   3.010   2.814 -0.4086  0.0074 -0.5754
  394SOL     OW 1573   0.840   1.644   1.438  0.4318  0.2645  0.5863
  394SOL    HW1 1574   0.795   1.648   1.524 -0.5422  2.7969 -0.9923
  394SOL    HW2 1575   0.874   1.733   1.418 -0.3279  0.3493  2.2097
  394SOL     MW 1576   0.838   1.656   1.446  0.2031  0.6098  0.5922
  395SOL     OW 1577   0.925   2.888   2.614 -0.1748  0.0678  0.1595
  395SOL    HW1 1578   0.966   2.954   2.669  0.8501  1.4469 -2.1882
  395SOL    HW2 1579   1.012   2.853   2.574 -0.2560  0.2176  1.1022
  395SOL     MW 1580   0.942   2.892   2.616 -0.0503  0.2695 -0.0259
  396SOL     OW 1581   0.792   1.848   2.404  0.3021 -0.0408 -0.1081
  396SOL    HW1 1582   0.835   1.824   2.485  2.4763  0.5373 -1.1541
  396SOL    HW2 1583   0.768   1.761   2.375  0.2061  0.2636 -1.0159
  396SOL     MW 1584   0.794   1.833   2.411  0.5763  0.0756 -0.3659
  397SOL     OW 1585   1.016   2.337   1.349 -0.0963  0.2826 -0.0697
  397SOL    HW1 1586   1.022   2.403   1.276  2.6522  0.9409  1.4866
  397SOL    HW2 1587   1.094   2.332   1.400  0.6826 -0.9350 -0.6656
  397SOL     MW 1588   1.027   2.345   1.346  0.3691  0.2088  0.0570
  398SOL     OW 1589   0.687   2.670   0.731 -0.3491  0.2718  0.4598
  398SOL    HW1 1590   0.612   2.631   0.680  2.2064 -0.3157  0.6701
  398SOL    HW2 1591   0.754   2.612   0.701 -0.7374 -1.7320 -2.2511
  398SOL     MW 1592   0.686   2.657   0.720 -0.0632 -0.0701  0.1299
  399SOL     OW 1593   0.271   2.003   0.398  0.0208 -0.0865  0.7841
  399SOL    HW1 1594   0.201   2.070   0.394 -0.1543  2.0429  0.4997
  399SOL    HW2 1595   0.353   2.031   0.345  1.4925 -0.8278  1.0299
  399SOL     MW 1596   0.273   2.016   0.391  0.1919  0.0966  0.7790
  400SOL     OW 1597   0.597   1.840   0.143 -0.5643 -0.0660  0.0808
  400SOL    HW1 1598   0.574   1.931   0.155  0.7493 -0.9370 -0.1660
  400SOL    HW2 1599   0.576   1.795   0.223  0.2341  1.2828  0.2802
  400SOL     MW 1600   0.591   1.846   0.155 -0.2857 -0.0030  0.0745
  401SOL     OW 1601   0.951   2.072   0.175 -0.5790 -0.8996  0.6254
  401SOL    HW1 1602   0.947   1.980   0.197 -0.3930  3.8980  1.8598
  401SOL    HW2 1603   1.033   2.099   0.219  1.7598  2.2975 -0.1694
  401SOL     MW 1604   0.961   2.064   0.184 -0.2459  0.1552  0.6834
  402SOL     OW 1605   0.711   2.916   1.711 -0.0605  0.6078 -0.5557
  402SOL    HW1 1606   0.642   2.891   1.772 -0.9721  1.1420  2.7709
  402SOL    HW2 1607   0.787   2.876   1.748 -1.0980  2.2385 -0.3771
  402SOL     MW 1608   0.712   2.908   1.724 -0.3177  0.8934 -0.0932
  403SOL     OW 1609   0.061   0.463   0.435  0.2407 -1.1068 -0.1034
  403SOL    HW1 1610   0.143   0.495   0.474 -1.8456 -1.4024  0.1519
  403SOL    HW2 1611   0.090   0.403   0.360 -0.6808  0.0517  1.0422
  403SOL     MW 1612   0.076   0.459   0.430 -0.1561 -0.9929  0.0815
  404SOL     OW 1613   1.009   2.891   0.801  0.3515 -0.0050 -0.0118
  404SOL    HW1 1614   1.046   2.820   0.741  1.4089 -0.4822 -1.7175
  404SOL    HW2 1615   1.032   2.976   0.759 -0.5269 -1.0109  0.5981
  404SOL     MW 1616   1.017   2.893   0.787  0.3751 -0.2007 -0.1564
  405SOL     OW 1617   0.486   2.476   1.555  0.0524  0.1411  0.0279
  405SOL    HW1 1618   0.481   2.552   1.488  2.7140 -3.4106 -0.4040
  405SOL    HW2 1619   0.445   2.411   1.504 -0.7235 -0.3760 -1.1855
  405SOL     MW 1620   0.480   2.478   1.539  0.3012 -0.3958 -0.1892
  406SOL     OW 1621   0.407   2.327   1.129 -0.4021 -0.7494 -0.1829
  406SOL    HW1 1622   0.309   2.316   1.121  0.7528 -2.1188 -0.7077
  406SOL    HW2 1623   0.426   2.262   1.195  5.6845  2.6224  0.1681
  406SOL     MW 1624   0.397   2.317   1.137  0.5534 -0.4852 -0.2058
  407SOL     OW 1625   0.043   2.716   1.111  0.3091  0.3091  0.3062
  407SOL    HW1 1626   0.096   2.717   1.191 -1.7632  1.9579 -0.2128
  407SOL    HW2 1627   0.107   2.680   1.037 -1.8639 -2.9797  2.4974
  407SOL     MW 1628   0.059   2.712   1.112 -0.2510  0.0927  0.5268
  408SOL     OW 1629   2.124   2.098   0.622 -0.7078 -0.6067  0.7272
  408SOL    HW1 1630   2.090   2.149   0.691 -0.2245 -1.7737 -3.5658
  408SOL    HW2 1631   2.044   2.053   0.583  1.0154 -0.0083  0.8531
  408SOL     MW 1632   2.109   2.099   0.626 -0.4167 -0.6817  0.1774
  409SOL     OW 1633   1.313   0.061   0.889  0.2338  0.0012 -0.3037
  409SOL    HW1 1634   1.351   0.147   0.880 -0.9017 -1.7346  2.1247
  409SOL    HW2 1635   1.373  -0.002   0.938 -1.7476 -1.4996 -1.2809
  409SOL     MW 1636   1.326   0.064   0.894 -0.1774 -0.4258 -0.1122
  410SOL     OW 1637   1.085   2.510   1.083  0.2488 -0.8400  0.5417
  410SOL    HW1 1638   1.010   2.481   1.023 -2.1858 -1.6289  1.9040
  410SOL    HW2 1639   1.138   2.429   1.076 -2.6977 -0.4066 -0.3113
  410SOL     MW 1640   1.082   2.496   1.074 -0.4612 -0.8869  0.6089
  411SOL     OW 1641   1.957   0.106   2.827 -0.3774 -0.4015  0.2180
  411SOL    HW1 1642   1.905   0.084   2.751 -0.9943  0.7678  0.1385
  411SOL    HW2 1643   1.898   0.098   2.909 -2.8039 -2.7532  1.4866
  411SOL     MW 1644   1.942   0.102   2.828 -0.7790 -0.5575  0.3749
  412SOL     OW 1645   1.104   2.198   0.578 -0.1331 -0.1505  0.4089
  412SOL    HW1 1646   1.137   2.277   0.621 -0.0253 -0.3994  1.6745
  412SOL    HW2 1647   1.009   2.209   0.583 -2.6333  1.3527 -2.3264
  412SOL     MW 1648   1.096   2.210   0.585 -0.4487  0.0150  0.2150
  413SOL     OW 1649   0.548   2.795   0.122 -0.1007  0.1346 -0.8356
  413SOL    HW1 1650   0.588   2.708   0.141 -0.0019 -1.5360 -0.7598
  413SOL    HW2 1651   0.550   2.794   0.028  4.2438  0.7560 -2.1082
  413SOL     MW 1652   0.554   2.783   0.112  0.4856 -0.0038 -0.9935
  414SOL     OW 1653   1.972   3.075   1.079  0.0883  0.0671 -0.1292
  414SOL    HW1 1654   1.913   3.057   1.002 -1.0944 -0.4731  0.6288
  414SOL    HW2 1655   2.040   3.010   1.069 -1.3952 -0.0335  0.5499
  414SOL     MW 1656   1.973   3.064   1.068 -0.2634 -0.0174  0.0604
  415SOL     OW 1657   1.723   2.666   1.061  0.1050 -0.1836  0.3339
  415SOL    HW1 1658   1.678   2.597   1.118 -3.5184  1.9369  2.6788
  415SOL    HW2 1659   1.815   2.663   1.083  1.8758 -0.2464  1.3260
  415SOL     MW 1660   1.729   2.656   1.071 -0.1394  0.0879  0.7742
  416SOL     OW 1661   0.607   1.918   1.392 -0.5050  0.0212  0.1006
  416SOL    HW1 1662   0.552   1.994   1.361 -3.1066 -0.1335  0.1889
  416SOL    HW2 1663   0.619   1.864   1.314  1.4367  0.0841  1.5164
  416SOL     MW 1664   0.601   1.921   1.378 -0.5921  0.0091  0.2991
  417SOL     OW 1665   1.015   3.040   2.016 -0.2629 -0.4462  0.3871
  417SOL    HW1 1666   0.943   3.011   2.071 -1.1408  1.6246 -1.4132
  417SOL    HW2 1667   0.997   2.979   1.946  1.4358  0.4609  0.6668
  417SOL     MW 1668   1.003   3.028   2.014 -0.1546 -0.0533  0.1865
  418SOL     OW 1669   0.708   2.995   0.215 -0.6990 -0.2951  0.4901
  418SOL    HW1 1670   0.780   2.968   0.158 -1.1015  1.5855 -1.7218
  418SOL    HW2 1671   0.645   2.923   0.201  1.0705  0.8399 -0.6202
  418SOL     MW 1672   0.709   2.982   0.206 -0.5186  0.1028  0.0517
  419SOL     OW 1673   0.451   2.689   1.372  0.0678 -0.3660  0.0800
  419SOL    HW1 1674   0.515   2.749   1.408  1.2172  0.6961 -1.2282
  419SOL    HW2 1675   0.486   2.652   1.291  1.4683 -1.0385  0.9211
  419SOL     MW 1676   0.464   2.692   1.366  0.4043 -0.3146  0.0184
  420SOL     OW 1677   0.808   2.196   1.000 -0.6849  0.0962 -0.1886
  420SOL    HW1 1678   0.784   2.223   1.088 -0.9357 -3.3036  0.8187
  420SOL    HW2 1679   0.845   2.278   0.965 -0.2343 -0.4259  1.4065
  420SOL     MW 1680   0.809   2.211   1.007 -0.6586 -0.4213  0.1548
  421SOL     OW 1681   2.941   0.064   0.027 -0.0753 -0.5253  0.4295
  421SOL    HW1 1682   2.918   0.026  -0.057 -0.8228 -2.5385 -0.4546
  421SOL    HW2 1683   2.956  -0.011   0.083 -0.5811  3.6746  0.7759
  421SOL     MW 1684   2.940   0.049   0.023 -0.2407 -0.2368  0.3585
  422SOL     OW 1685   0.891   2.431   0.916 -0.3460  0.0407  0.7197
  422SOL    HW1 1686   0.804   2.453   0.944 -0.8787 -2.1050  1.2072
  422SOL    HW2 1687   0.908   2.470   0.832 -0.9655 -0.4721  0.5382
  422SOL     MW 1688   0.882   2.439   0.909 -0.4980 -0.3101  0.7601
  423SOL     OW 1689   1.565   0.166   0.496 -0.4177 -0.0533  0.0825
  423SOL    HW1 1690   1.554   0.131   0.407  0.8456 -1.7695  1.9083
  423SOL    HW2 1691   1.520   0.250   0.500  0.3729 -0.4909 -0.1142
  423SOL     MW 1692   1.558   0.173   0.485 -0.1467 -0.3374  0.2974
  424SOL     OW 1693   0.703   2.249   1.243 -0.4020  0.5845 -0.1192
  424SOL    HW1 1694   0.610   2.212   1.234 -3.8997  2.4304  0.8495
  424SOL    HW2 1695   0.737   2.216   1.330  1.0695  1.0877 -2.5865
  424SOL     MW 1696   0.695   2.240   1.253 -0.6693  0.8944 -0.3169
  425SOL     OW 1697   1.757   2.843   1.971  0.0728 -0.2902 -0.7714
  425SOL    HW1 1698   1.777   2.869   1.883  0.1850 -0.1035  0.8433
  425SOL    HW2 1699   1.784   2.752   1.980 -2.9232 -1.5515 -0.4776
  425SOL     MW 1700   1.763   2.835   1.961 -0.3077 -0.4320 -0.5196
  426SOL     OW 1701   0.767   1.673   1.940  0.1130  0.7165  0.3380
  426SOL    HW1 1702   0.711   1.688   1.868 -1.8537  1.9208  1.0341
  426SOL    HW2 1703   0.763   1.752   1.994  0.2525  2.1070  0.8572
  426SOL     MW 1704   0.759   1.685   1.938 -0.1281  1.0588  0.4983
  427SOL     OW 1705   0.379   1.573   1.883 -0.7807 -0.4515  0.0118
  427SOL    HW1 1706   0.418   1.632   1.947  1.5521  2.9234  0.5350
  427SOL    HW2 1707   0.325   1.508   1.924  1.0022  0.2361  4.9538
  427SOL     MW 1708   0.377   1.572   1.897 -0.2377  0.0845  0.7329
  428SOL     OW 1709   0.558   2.567   1.153 -0.2277 -0.5394  0.3557
  428SOL    HW1 1710   0.634   2.542   1.203 -2.0398 -1.9419  3.0838
  428SOL    HW2 1711   0.506   2.483   1.141  0.5502 -2.9936 -2.4323
  428SOL     MW 1712   0.561   2.553   1.158 -0.3642 -1.0482  0.3478
  429SOL     OW 1713   1.324   2.641   1.058  0.3502 -0.1101  0.3907
  429SOL    HW1 1714   1.251   2.588   1.084  1.7489 -0.1809  3.0972
  429SOL    HW2 1715   1.287   2.724   1.016  0.8218  1.0206  1.1528
  429SOL     MW 1716   1.310   2.645   1.056  0.5970  0.0297  0.8484
  430SOL     OW 1717   1.160   2.695   0.659 -0.2749 -0.6513  0.0112
  430SOL    HW1 1718   1.165   2.601   0.667 -1.0494 -0.3265 -0.2291
  430SOL    HW2 1719   1.118   2.725   0.576  0.8080  1.6046  0.2980
  430SOL     MW 1720   1.155   2.686   0.649 -0.2342 -0.3108  0.0173
  431SOL     OW 1721   0.317   1.965   1.136  0.4988  0.0038 -0.5251
  431SOL    HW1 1722   0.399   1.922   1.147 -1.7231  1.9908 -2.2806
  431SOL    HW2 1723   0.305   1.959   1.040 -1.7176 -1.0333  0.1042
  431SOL     MW 1724   0.326   1.958   1.125 -0.0868  0.1291 -0.6737
  432SOL     OW 1725   0.040   0.063   1.155 -0.2489  0.9423  0.2431
  432SOL    HW1 1726   0.051   0.091   1.249 -0.0631 -2.4829 -1.6659
  432SOL    HW2 1727  -0.032  -0.002   1.171  1.3701 -2.7613  0.5994
  432SOL     MW 1728   0.032   0.058   1.169 -0.0108  0.0018  0.0383
  433SOL     OW 1729   0.627   2.867   1.450 -0.7633  0.3029 -0.4125
  433SOL    HW1 1730   0.664   2.881   1.543 -2.2236 -2.6785 -0.5191
  433SOL    HW2 1731   0.711   2.875   1.398  1.6067 -3.1755 -0.5195
  433SOL     MW 1732   0.643   2.870   1.456 -0.6433 -0.5494 -0.4407
  434SOL     OW 1733   1.549   2.822   1.537 -0.2279 -0.0375  0.7642
  434SOL    HW1 1734   1.470   2.877   1.533 -0.4187  2.3026 -2.4553
  434SOL    HW2 1735   1.535   2.773   1.452 -0.2028  0.0282  0.5679
  434SOL     MW 1736   1.537   2.823   1.525 -0.2498  0.2799  0.3136
  435SOL     OW 1737   2.874   1.791   0.228  0.2485 -0.0753  0.3929
  435SOL    HW1 1738   2.911   1.858   0.166  0.8102  0.3548 -0.2825
  435SOL    HW2 1739   2.858   1.705   0.173 -0.2207 -2.0943 -3.1858
  435SOL     MW 1740   2.877   1.788   0.212  0.2607 -0.2849 -0.1684
  436SOL     OW 1741   1.407   2.768   0.313 -0.1684  0.3272  0.0454
  436SOL    HW1 1742   1.460   2.768   0.394  1.4033 -0.8072  0.7537
  436SOL    HW2 1743   1.340   2.845   0.321 -1.5145  1.4721 -0.7647
  436SOL     MW 1744   1.405   2.778   0.325 -0.1386  0.3286  0.0319
  437SOL     OW 1745   0.887   2.937   1.347  0.1133 -0.2283  0.9863
  437SOL    HW1 1746   0.915   3.030   1.343 -1.3421  0.8537 -0.8880
  437SOL    HW2 1747   0.915   2.912   1.260  0.2222 -0.3997 -0.8533
  437SOL     MW 1748   0.894   2.946   1.335 -0.0644 -0.1081  0.4963
  438SOL     OW 1749   0.877   2.602   1.998  0.3828  0.3605 -0.1439
  438SOL    HW1 1750   0.850   2.553   2.072  3.6049  1.0605 -0.2121
  438SOL    HW2 1751   0.805   2.593   1.935  2.4574 -0.3059 -0.8277
  438SOL     MW 1752   0.864   2.595   1.999  1.0817  0.3649 -0.2431
  439SOL     OW 1753   1.173   2.170   0.327  0.3127 -0.3524 -0.0064
  439SOL    HW1 1754   1.129   2.196   0.415 -1.1068  0.5933  1.8159
  439SOL    HW2 1755   1.184   2.254   0.287 -0.9888  0.9202  1.5116
  439SOL     MW 1756   1.168   2.184   0.333 -0.0463 -0.0597  0.4343
  440SOL     OW 1757   1.615   2.973   3.015 -0.5113  0.0024  0.3286
  440SOL    HW1 1758   1.592   2.960   3.106 -1.6799  2.3237 -1.5162
  440SOL    HW2 1759   1.674   2.902   2.988  1.3962 -0.6762  0.1925
  440SOL     MW 1760   1.620   2.962   3.024 -0.4138  0.2191  0.0673
  441SOL     OW 1761   0.310   2.564   0.533  0.0255 -0.0456  0.2547
  441SOL    HW1 1762   0.313   2.526   0.438  0.6521  1.4541 -0.6997
  441SOL    HW2 1763   0.305   2.664   0.535 -0.6004  0.5655 -2.0683
  441SOL     MW 1764   0.310   2.572   0.521  0.0256  0.2329 -0.1777
  442SOL     OW 1765   0.009   2.313   0.615  0.2031 -0.4324 -0.3110
  442SOL    HW1 1766   0.005   2.404   0.590 -2.5538 -0.9674  0.5527
  442SOL    HW2 1767  -0.078   2.288   0.647  1.1619  2.1891  1.0985
  442SOL     MW 1768  -0.003   2.322   0.616 -0.0341 -0.1571 -0.0110
  443SOL     OW 1769   1.363   1.723   1.822  0.5002  0.3776  0.1895
  443SOL    HW1 1770   1.320   1.770   1.751  0.7506  4.8382 -1.4470
  443SOL    HW2 1771   1.314   1.643   1.846  2.1515 -0.0090 -0.4876
  443SOL     MW 1772   1.351   1.719   1.816  0.7511  0.9151 -0.1158
  444SOL     OW 1773   0.836   2.574   1.594  0.3376  0.2532 -0.2060
  444SOL    HW1 1774   0.892   2.505   1.626  2.3870 -0.9145 -0.4649
  444SOL    HW2 1775   0.757   2.576   1.650 -2.9960  0.6159  0.1274
  444SOL     MW 1776   0.833   2.565   1.606  0.1681  0.1470 -0.1962
  445SOL     OW 1777   0.987   0.086   1.275  0.3054 -0.0163 -0.5598
  445SOL    HW1 1778   0.932   0.164   1.266  0.2404 -1.4212 -1.7447
  445SOL    HW2 1779   1.072   0.105   1.224  1.2773  2.5482  2.1371
  445SOL     MW 1780   0.991   0.099   1.267  0.4251  0.1367 -0.3603
  446SOL     OW 1781   2.758   2.904   1.012 -0.3883 -0.6654  0.3593
  446SOL    HW1 1782   2.676   2.919   0.958 -0.8049 -0.5738 -1.1442
  446SOL    HW2 1783   2.782   2.809   0.991  0.4509 -0.5432  1.1803
  446SOL     MW 1784   2.750   2.893   1.002 -0.3325 -0.6372  0.2692
  447SOL     OW 1785   3.041   2.052   1.763 -0.0354 -0.0499 -0.6545
  447SOL    HW1 1786   3.130   2.002   1.771  0.3338  0.0571 -1.9385
  447SOL    HW2 1787   2.996   2.004   1.692 -0.1301 -1.9344  0.4133
  447SOL     MW 1788   3.047   2.039   1.754  0.0008 -0.2844 -0.6830
  448SOL     OW 1789   1.684   2.336   1.658 -0.1202 -0.1742  0.1663
  448SOL    HW1 1790   1.637   2.252   1.649 -0.7897  1.2391  1.1191
  448SOL    HW2 1791   1.626   2.420   1.651 -1.1352  1.9453  2.1554
  448SOL     MW 1792   1.670   2.336   1.656 -0.3424  0.2919  0.5545
  449SOL     OW 1793   0.825   2.923   0.458  0.1384  0.5615  0.0516
  449SOL    HW1 1794   0.803   2.956   0.370 -0.3344 -0.7181 -0.5247
  449SOL    HW2 1795   0.745   2.927   0.512  2.0726  2.5227 -0.3513
  449SOL     MW 1796   0.811   2.928   0.454  0.3312  0.6514 -0.0776
  450SOL     OW 1797   1.214   2.413   0.693 -0.0268  0.3502 -0.4490
  450SOL    HW1 1798   1.228   2.366   0.777  0.5645 -0.2288 -3.4041
  450SOL    HW2 1799   1.301   2.428   0.656  0.6386  0.8206  3.8975
  450SOL     MW 1800   1.227   2.409   0.699  0.1390  0.3358 -0.2654
  451SOL     OW 1801   0.603   2.008   1.662  0.2350  0.7089 -0.2883
  451SOL    HW1 1802   0.688   2.037   1.684 -2.0220 -1.2877 -1.7789
  451SOL    HW2 1803   0.599   1.979   1.569 -1.8678  0.7656 -0.7979
  451SOL     MW 1804   0.614   2.008   1.652 -0.3402  0.4529 -0.5522
  452SOL     OW 1805   0.280   2.750   0.152 -0.2492  0.1554 -0.4526
  452SOL    HW1 1806   0.372   2.762   0.148 -0.0654 -0.6175 -1.0469
  452SOL    HW2 1807   0.261   2.723   0.061 -0.1067  0.5009  2.4471
  452SOL     MW 1808   0.289   2.748   0.139 -0.2061  0.0990 -0.1484
  453SOL     OW 1809   0.380   2.995   1.668 -0.1089 -0.0725  0.2992
  453SOL    HW1 1810   0.451   3.051   1.631 -0.5262  1.9811 -0.0497
  453SOL    HW2 1811   0.348   2.976   1.584  2.4796  0.3396 -1.1093
  453SOL     MW 1812   0.385   3.000   1.652  0.1776  0.2528  0.0673
  454SOL     OW 1813   1.082   2.799   1.087 -0.6171  0.3665  0.0267
  454SOL    HW1 1814   1.061   2.704   1.074  0.3609  0.0265 -3.3833
  454SOL    HW2 1815   0.994   2.840   1.082 -2.8870  0.2361  0.6557
  454SOL     MW 1816   1.068   2.792   1.085 -0.7875  0.3044 -0.3402
  455SOL     OW 1817   1.552   2.947   0.188 -0.4569  0.1852  0.2303
  455SOL    HW1 1818   1.632   2.932   0.231  0.0828  2.0241 -0.9436
  455SOL    HW2 1819   1.494   2.878   0.226  0.8053 -0.8321 -0.3188
  455SOL     MW 1820   1.555   2.936   0.198 -0.2192  0.2936  0.0030
  456SOL     OW 1821   2.958   0.344   1.387 -0.3966  0.2158 -0.0544
  456SOL    HW1 1822   2.887   0.309   1.327 -1.5263  0.2296 -3.0064
  456SOL    HW2 1823   3.019   0.409   1.334 -1.0160  1.8081 -1.2789
  456SOL     MW 1824   2.957   0.348   1.372 -0.6273  0.4277 -0.6054
  457SOL     OW 1825   0.832   1.536   3.002  0.3665 -0.2457 -0.3038
  457SOL    HW1 1826   0.746   1.523   3.046 -1.5585  1.8260 -0.6142
  457SOL    HW2 1827   0.886   1.559   3.072 -1.2473  0.9070  3.0829
  457SOL     MW 1828   0.828   1.537   3.017 -0.1004  0.1797  0.1021
  458SOL     OW 1829   1.440   1.400   0.640  0.6653  0.1735  0.3570
  458SOL    HW1 1830   1.367   1.406   0.700  0.6195  0.3973  0.6351
  458SOL    HW2 1831   1.403   1.331   0.579  0.9001 -0.9192  2.0446
  458SOL     MW 1832   1.426   1.391   0.640  0.6902  0.0589  0.6163
  459SOL     OW 1833   1.559   0.138   0.226  0.2435  0.2631  0.2075
  459SOL    HW1 1834   1.539   0.055   0.182 -0.3234 -0.8893  1.6164
  459SOL    HW2 1835   1.521   0.219   0.185  0.8589 -0.2019 -0.0307
  459SOL     MW 1836   1.551   0.138   0.215  0.2499  0.0497  0.3620
  460SOL     OW 1837   1.682   2.158   0.600 -0.0418  0.4423  0.5959
  460SOL    HW1 1838   1.601   2.129   0.630  6.1060 -2.8810 -1.7183
  460SOL    HW2 1839   1.730   2.074   0.576 -1.8012  1.9230  0.0100
  460SOL     MW 1840   1.678   2.143   0.601  0.5372  0.1992  0.2133
  461SOL     OW 1841   0.527   2.393   0.589  0.4137  0.4313  0.0941
  461SOL    HW1 1842   0.434   2.401   0.571 -2.5884  3.6539 -0.6325
  461SOL    HW2 1843   0.536   2.408   0.680  0.7237  2.3468 -0.0630
  461SOL     MW 1844   0.516   2.396   0.599  0.0585  1.1092 -0.0225
  462SOL     OW 1845   0.351   0.321   1.278  0.3675 -0.6312 -0.0385
  462SOL    HW1 1846   0.379   0.264   1.213 -2.3324  0.6938  1.4307
  462SOL    HW2 1847   0.427   0.314   1.339  2.3522 -1.3392  1.3303
  462SOL     MW 1848   0.364   0.312   1.278  0.2732 -0.5498  0.3359
  463SOL     OW 1849   1.011   0.055   0.717  0.1595 -0.0509  0.3601
  463SOL    HW1 1850   1.039   0.067   0.623  3.1790 -1.5394  1.3513
  463SOL    HW2 1851   0.911   0.047   0.722 -0.4161  1.7414  1.2326
  463SOL     MW 1852   1.001   0.055   0.705  0.4820 -0.0109  0.6060
  464SOL     OW 1853   0.781   2.939   2.127 -0.0234  0.1497 -0.2124
  464SOL    HW1 1854   0.769   2.845   2.115 -1.5560 -1.8275  0.6163
  464SOL    HW2 1855   0.833   2.949   2.216 -0.6251  1.6539  2.1204
  464SOL     MW 1856   0.786   2.928   2.137 -0.3050  0.0873  0.2048
  465SOL     OW 1857   0.752   0.200   0.495 -0.1980 -0.0507  0.2906
  465SOL    HW1 1858   0.752   0.142   0.574  0.7833 -1.9030  1.7816
  465SOL    HW2 1859   0.720   0.157   0.416  1.0569  1.2168 -0.0568
  465SOL     MW 1860   0.748   0.187   0.495  0.0971 -0.1279  0.4415
  466SOL     OW 1861   1.063   1.958   0.700  0.1919  0.1995  0.5050
  466SOL    HW1 1862   1.076   1.902   0.622 -0.7475  0.3330 -0.0117
  466SOL    HW2 1863   1.097   2.044   0.670 -0.6291  1.0499 -0.5749
  466SOL     MW 1864   1.069   1.962   0.686 -0.0404  0.3293  0.2943
  467SOL     OW 1865   1.233   2.278   0.945 -0.6091 -0.3525  0.6713
  467SOL    HW1 1866   1.317   2.297   0.990 -0.2364 -0.9521 -1.1113
  467SOL    HW2 1867   1.228   2.180   0.931  0.6387  1.9297  1.0933
  467SOL     MW 1868   1.243   2.268   0.949 -0.3953 -0.1305  0.4918
  468SOL     OW 1869   0.323   2.621   1.978  0.1151  0.2169  0.2117
  468SOL    HW1 1870   0.308   2.540   1.929 -0.1591  0.6764  1.1078
  468SOL    HW2 1871   0.399   2.665   1.945 -0.0597 -2.3100  1.0320
  468SOL     MW 1872   0.331   2.616   1.967  0.0559 -0.0559  0.4382
  469SOL     OW 1873   0.385   2.088   1.836 -0.2921  0.3941  0.2256
  469SOL    HW1 1874   0.297   2.042   1.820  1.0795 -2.2219 -0.4458
  469SOL    HW2 1875   0.448   2.059   1.763  0.3395  1.6501  2.2761
  469SOL     MW 1876   0.382   2.078   1.824 -0.0278  0.2146  0.4076
  470SOL     OW 1877   3.048   2.527   0.139 -0.0849  0.4757  0.4454
  470SOL    HW1 1878   2.965   2.518   0.187  1.0383 -0.1151  0.7339
  470SOL    HW2 1879   3.024   2.553   0.047  2.6923 -3.7354 -0.7245
  470SOL     MW 1880   3.034   2.529   0.133  0.4297 -0.1578  0.3291
  471SOL     OW 1881   1.180   2.720   1.361  0.4631  0.4009  0.0203
  471SOL    HW1 1882   1.107   2.729   1.424 -0.6288  2.4636  0.2795
  471SOL    HW2 1883   1.142   2.760   1.281 -1.4465  0.3404 -2.0693
  471SOL     MW 1884   1.166   2.726   1.358  0.0671  0.6651 -0.2212
  472SOL     OW 1885   2.921   2.123   0.313  0.0116 -0.1012 -0.3380
  472SOL    HW1 1886   2.952   2.073   0.234  0.9010 -0.0096  2.3117
  472SOL    HW2 1887   2.897   2.058   0.376 -1.6896  2.1606 -1.9367
  472SOL     MW 1888   2.922   2.108   0.311 -0.0955  0.2093 -0.1993
  473SOL     OW 1889   0.804   2.545   1.285  0.0624 -0.0237  0.1539
  473SOL    HW1 1890   0.825   2.449   1.288 -0.9636 -1.0602  1.0427
  473SOL    HW2 1891   0.789   2.557   1.377 -1.8082 -2.8612 -0.0859
  473SOL     MW 1892   0.805   2.534   1.297 -0.3198 -0.5348  0.2395
  474SOL     OW 1893   0.832   2.212   1.779 -0.5176  0.0204 -0.6866
  474SOL    HW1 1894   0.928   2.214   1.807  3.0747  0.0618 -0.3144
  474SOL    HW2 1895   0.850   2.222   1.682 -0.9697  0.6940  1.2905
  474SOL     MW 1896   0.847   2.213   1.770 -0.1033  0.1147 -0.3767
  475SOL     OW 1897   1.624   3.077   1.413 -0.2633 -0.1918  0.2365
  475SOL    HW1 1898   1.543   3.114   1.378  2.4433 -0.9053 -1.6190
  475SOL    HW2 1899   1.602   2.993   1.447  0.8568  0.8365  0.6519
  475SOL     MW 1900   1.610   3.070   1.413  0.2416 -0.1502  0.0465
  476SOL     OW 1901   1.454   2.593   0.799  0.7200 -0.2226 -0.0844
  476SOL    HW1 1902   1.410   2.583   0.882 -1.6151 -1.9085 -0.2454
  476SOL    HW2 1903   1.514   2.672   0.811  1.2770  2.9909 -4.1629
  476SOL     MW 1904   1.456   2.602   0.812  0.4854 -0.0210 -0.6437
  477SOL     OW 1905   0.881   2.506   0.663  0.4270  0.1478  0.6775
  477SOL    HW1 1906   0.914   2.573   0.606 -3.1450 -2.6197 -2.7729
  477SOL    HW2 1907   0.852   2.427   0.607 -0.0113  0.7816 -2.1971
  477SOL     MW 1908   0.881   2.504   0.648 -0.1022 -0.1337 -0.1571
  478SOL     OW 1909   0.243   2.611   0.920  0.1711  0.3266 -0.5350
  478SOL    HW1 1910   0.281   2.700   0.915  0.9691  2.9906  0.9330
  478SOL    HW2 1911   0.317   2.547   0.902 -1.7615 -3.1243 -0.4171
  478SOL     MW 1912   0.258   2.614   0.917  0.0214  0.2227 -0.3257
  479SOL     OW 1913   1.384   1.945   1.321 -0.2600 -0.2546 -0.1499
  479SOL    HW1 1914   1.352   1.981   1.405 -0.8898  2.1928  1.3900
  479SOL    HW2 1915   1.458   1.888   1.344  1.0281  0.1873  0.9928
  479SOL     MW 1916   1.389   1.942   1.335 -0.1731  0.1266  0.2041
  480SOL     OW 1917   1.828   2.344   1.282  0.2942  0.1679  0.2011
  480SOL    HW1 1918   1.829   2.251   1.306  1.1620  1.6367  0.3075
  480SOL    HW2 1919   1.855   2.347   1.188  0.1297  1.3066 -2.8625
  480SOL     MW 1920   1.831   2.332   1.273  0.3870  0.5120 -0.1891
  481SOL     OW 1921   1.217   0.149   1.111 -0.2829 -0.3658 -0.3572
  481SOL    HW1 1922   1.252   0.119   1.027  1.7902 -0.0246 -1.9094
  481SOL    HW2 1923   1.215   0.248   1.110 -2.1369  0.0412 -2.2392
  481SOL     MW 1924   1.221   0.158   1.100 -0.2540 -0.2671 -0.8103
  482SOL     OW 1925   1.035   0.036   0.426 -0.2366  0.4594 -0.3798
  482SOL    HW1 1926   0.959  -0.020   0.436 -0.1358  0.4969  0.8649
  482SOL    HW2 1927   1.005   0.112   0.376  0.1053  1.2435  0.6943
  482SOL     MW 1928   1.021   0.039   0.421 -0.1782  0.5678 -0.0739
  483SOL     OW 1929   0.342   2.843   0.596  0.2975  0.1650 -0.2497
  483SOL    HW1 1930   0.311   2.860   0.501 -1.0296 -0.7429  1.2285
  483SOL    HW2 1931   0.297   2.912   0.641  2.7957 -0.9213  2.0095
  483SOL     MW 1932   0.332   2.854   0.590  0.4520 -0.0981  0.2434
  484SOL     OW 1933   1.659   1.869   1.421  0.0627 -0.1471  0.4912
  484SOL    HW1 1934   1.718   1.940   1.403  4.1077  0.8609  2.9691
  484SOL    HW2 1935   1.648   1.881   1.516 -0.4806  1.5410 -0.5380
  484SOL     MW 1936   1.665   1.880   1.431  0.5247  0.2086  0.6824
  485SOL     OW 1937   0.562   2.318   0.331  0.5237  0.1272  0.9292
  485SOL    HW1 1938   0.581   2.334   0.424 -1.6107 -2.0074  0.1954
  485SOL    HW2 1939   0.516   2.400   0.293 -0.4267 -2.0816 -2.2112
  485SOL     MW 1940   0.559   2.331   0.338  0.1167 -0.4459  0.4180
  486SOL     OW 1941   0.109   2.467   1.448  0.5095 -0.5401 -0.1983
  486SOL    HW1 1942   0.140   2.560   1.420 -2.6821  1.4886 -1.6928
  486SOL    HW2 1943   0.095   2.478   1.541  2.8580 -2.2549 -3.3026
  486SOL     MW 1944   0.111   2.481   1.456  0.3983 -0.4987 -0.8051
  487SOL     OW 1945   1.280   1.597   0.977  0.1671  0.0287 -0.5783
  487SOL    HW1 1946   1.239   1.685   0.988 -0.4746 -0.3102 -0.0603
  487SOL    HW2 1947   1.368   1.618   1.004  0.8596  0.6821 -0.0854
  487SOL     MW 1948   1.286   1.612   0.982  0.1738  0.0702 -0.4449
  488SOL     OW 1949   1.508   1.831   0.622  0.0131  0.3536 -0.4164
  488SOL    HW1 1950   1.498   1.908   0.570  2.3964  0.4250  0.9572
  488SOL    HW2 1951   1.425   1.778   0.605 -0.6679 -0.1509  1.6586
  488SOL     MW 1952   1.495   1.834   0.613  0.2377  0.2964  0.0386
  489SOL     OW 1953   0.704   0.764   0.531  0.2566  0.3081  0.3270
  489SOL    HW1 1954   0.683   0.678   0.504  0.0079  2.4118 -0.7554
  489SOL    HW2 1955   0.716   0.748   0.625  2.4699 -1.0827 -0.3845
  489SOL     MW 1956   0.703   0.751   0.540  0.5158  0.4021  0.0903
  490SOL     OW 1957   1.404   2.087   0.429 -0.3315 -0.0986  0.2838
  490SOL    HW1 1958   1.474   2.149   0.414  0.8752 -2.0062  0.3043
  490SOL    HW2 1959   1.322   2.127   0.389  0.7499  1.8803 -0.1722
  490SOL     MW 1960   1.402   2.101   0.421 -0.0296 -0.0892  0.2263
  491SOL     OW 1961   1.260   2.982   0.389  0.4166 -0.3239  0.5922
  491SOL    HW1 1962   1.294   3.015   0.474  0.9318  2.7606  1.1835
  491SOL    HW2 1963   1.169   3.011   0.389  3.1931 -3.3566  0.2077
  491SOL     MW 1964   1.252   2.990   0.400  0.8509 -0.3171  0.6195
  492SOL     OW 1965   1.438   2.140   0.699 -0.2447 -0.0447 -0.3825
  492SOL    HW1 1966   1.384   2.129   0.622 -0.2811  0.2101 -0.3960
  492SOL    HW2 1967   1.392   2.105   0.778 -0.4977 -0.3157  1.6876
  492SOL     MW 1968   1.425   2.134   0.699 -0.2829 -0.0468 -0.1112
  493SOL     OW 1969   0.192   2.986   0.356 -0.1660  0.1160  0.4778
  493SOL    HW1 1970   0.127   3.049   0.386 -0.2610  1.1495 -0.0937
  493SOL    HW2 1971   0.174   2.970   0.264 -0.3154 -2.0164  1.7299
  493SOL     MW 1972   0.181   2.992   0.348 -0.1983 -0.0290  0.5676
  494SOL     OW 1973   0.385   2.400   1.800  0.2847  0.0864  0.6379
  494SOL    HW1 1974   0.384   2.307   1.767  0.3912 -1.9026 -1.6252
  494SOL    HW2 1975   0.419   2.442   1.718 -0.8763  1.7528 -1.3352
  494SOL     MW 1976   0.389   2.393   1.785  0.1456  0.0439  0.0789
  495SOL     OW 1977   2.889   1.637   2.752  0.1947  0.2974  0.0310
  495SOL    HW1 1978   2.886   1.718   2.811 -1.5906  0.5203  1.0609
  495SOL    HW2 1979   2.869   1.564   2.810  0.8506  1.5494  2.1202
  495SOL     MW 1980   2.886   1.638   2.767  0.0457  0.4920  0.4425
  496SOL     OW 1981   2.760   2.271   2.728  0.0539 -0.0327 -0.0755
  496SOL    HW1 1982   2.766   2.177   2.753 -0.6110 -1.1981 -0.6482
  496SOL    HW2 1983   2.855   2.302   2.716  1.2592  2.4352  0.3373
  496SOL     MW 1984   2.773   2.263   2.730  0.1252  0.1391 -0.0966
  497SOL     OW 1985   1.501   2.340   2.544  0.1029  0.0922  0.1301
  497SOL    HW1 1986   1.504   2.292   2.452 -0.5477 -1.7954  0.8700
  497SOL    HW2 1987   1.459   2.276   2.604 -0.1400  0.3453 -1.0038
  497SOL     MW 1988   1.496   2.325   2.540 -0.0150 -0.1234  0.0782
  498SOL     OW 1989   1.468   2.784   2.298  0.8449  0.3088  0.1309
  498SOL    HW1 1990   1.498   2.700   2.262 -0.4138 -0.7591 -1.0020
  498SOL    HW2 1991   1.540   2.807   2.352 -1.5147  0.6183 -1.5219
  498SOL     MW 1992   1.482   2.776   2.301  0.3675  0.2087 -0.2367
  499SOL     OW 1993   0.951   0.130   0.095 -0.0782  0.4067 -0.0565
  499SOL    HW1 1994   0.882   0.188   0.139 -2.1572  0.1178  2.3873
  499SOL    HW2 1995   0.912   0.042   0.081  0.0379  0.7768  0.4311
  499SOL     MW 1996   0.937   0.126   0.099 -0.3372  0.4174  0.3302
  500SOL     OW 1997   1.037   2.509   2.752 -0.2972 -0.0032 -0.0772
  500SOL    HW1 1998   1.081   2.464   2.827  0.6610 -0.4832 -2.6484
  500SOL    HW2 1999   0.981   2.582   2.791  0.0568  1.0705  2.5673
  500SOL     MW 2000   1.036   2.513   2.767 -0.1241  0.0751 -0.0675
  501SOL     OW 2001   1.743   2.226   3.099  0.1047 -0.4622  0.6665
  501SOL    HW1 2002   1.727   2.318   3.123 -0.5961  0.8437 -0.3900
  501SOL    HW2 2003   1.841   2.215   3.099  0.7591  0.2300 -1.2864
  501SOL     MW 2004   1.754   2.236   3.102  0.0986 -0.1986  0.2694
  502SOL     OW 2005   0.249   2.696   2.985 -0.3266  0.0150  0.5400
  502SOL    HW1 2006   0.155   2.683   2.962 -1.0171 -0.2417 -0.4811
  502SOL    HW2 2007   0.277   2.774   2.938 -0.3915 -0.6729  1.3033
  502SOL     MW 2008   0.240   2.704   2.976 -0.4263 -0.1096  0.5060
  503SOL     OW 2009   1.145   2.592   2.117 -0.4339  0.1575  0.1195
  503SOL    HW1 2010   1.194   2.644   2.051 -0.8194 -0.0182  0.2706
  503SOL    HW2 2011   1.060   2.590   2.078  0.4930  1.9185  2.9698
  503SOL     MW 2012   1.140   2.599   2.103 -0.3625  0.3666  0.5155
  504SOL     OW 2013   0.067   2.637   2.150  0.5560 -0.7102 -0.5414
  504SOL    HW1 2014   0.143   2.619   2.099 -1.4316  0.8404 -1.1350
  504SOL    HW2 2015   0.031   2.546   2.171 -1.9480 -0.9546  1.6391
  504SOL     MW 2016   0.073   2.623   2.146 -0.0366 -0.5378 -0.3320
  505SOL     OW 2017   1.609   2.752   2.741  0.2906 -1.1425  0.4682
  505SOL    HW1 2018   1.623   2.756   2.648 -0.1510  0.6547 -2.0098
  505SOL    HW2 2019   1.534   2.815   2.760 -0.2990 -0.0032 -0.9654
  505SOL     MW 2020   1.601   2.761   2.731  0.1546 -0.7551 -0.0479
  506SOL     OW 2021   1.585   0.051   2.794 -0.0508 -0.2343  0.7816
  506SOL    HW1 2022   1.598  -0.012   2.872  0.3269  0.8349  1.6555
  506SOL    HW2 2023   1.655   0.022   2.742 -0.7067  1.2232  2.1014
  506SOL     MW 2024   1.596   0.039   2.797 -0.0875  0.0991  1.0710
  507SOL     OW 2025   0.864   2.715   2.847 -0.0183 -0.4918  0.7086
  507SOL    HW1 2026   0.893   2.766   2.771  1.0796 -1.0693  0.0507
  507SOL    HW2 2027   0.788   2.659   2.824 -2.4774  1.4185  0.1441
  507SOL     MW 2028   0.858   2.714   2.834 -0.1979 -0.3160  0.5473
  508SOL     OW 2029   1.161   2.092   2.596  0.0589 -0.6170 -0.1147
  508SOL    HW1 2030   1.244   2.105   2.639  1.0500  1.8839 -0.2938
  508SOL    HW2 2031   1.102   2.077   2.670 -1.0798  1.1755 -0.8397
  508SOL     MW 2032   1.164   2.091   2.611  0.0394 -0.0505 -0.2340
  509SOL     OW 2033   0.641   2.570   2.791  0.2357  0.0143 -0.0994
  509SOL    HW1 2034   0.618   2.509   2.721 -1.7293  2.1982  0.5979
  509SOL    HW2 2035   0.582   2.649   2.771 -3.0069 -1.1227 -1.6797
  509SOL     MW 2036   0.630   2.573   2.779 -0.4514  0.1524 -0.2159
  510SOL     OW 2037   1.532   2.563   1.634  0.4466  0.2776 -0.0400
  510SOL    HW1 2038   1.550   2.656   1.620 -0.5980  0.1022  4.6495
  510SOL    HW2 2039   1.459   2.559   1.698 -1.2959  0.0051  1.3020
  510SOL     MW 2040   1.525   2.575   1.641  0.0789  0.2185  0.7558
  511SOL     OW 2041   0.355   2.510   2.556 -0.0079 -0.0346 -0.2246
  511SOL    HW1 2042   0.414   2.451   2.598  0.2858  0.1484 -0.4883
  511SOL    HW2 2043   0.385   2.503   2.461 -0.7411 -1.1989 -0.1727
  511SOL     MW 2044   0.367   2.502   2.549 -0.0659 -0.1641 -0.2525
  512SOL     OW 2045   1.025   1.991   2.861 -0.4082  0.5009  0.0101
  512SOL    HW1 2046   0.933   2.017   2.858 -0.7493  3.7225  2.4040
  512SOL    HW2 2047   1.012   1.897   2.878 -0.1575 -0.1456 -2.3061
  512SOL     MW 2048   1.011   1.982   2.863 -0.4201  0.8406  0.0203
  513SOL     OW 2049   1.551   2.541   2.185  0.4437  0.3568 -0.5223
  513SOL    HW1 2050   1.624   2.562   2.132 -1.8637  0.0432  1.5412
  513SOL    HW2 2051   1.555   2.456   2.232  3.0213  2.0087 -1.1972
  513SOL     MW 2052   1.561   2.533   2.184  0.4793  0.5334 -0.3391
  514SOL     OW 2053   0.140   2.345   2.652 -0.0006 -0.1379 -0.3935
  514SOL    HW1 2054   0.203   2.410   2.614 -0.0850 -1.3788 -1.2422
  514SOL    HW2 2055   0.197   2.315   2.725 -0.2259  1.6487 -2.4585
  514SOL     MW 2056   0.156   2.349   2.657 -0.0414 -0.0659 -0.7779
  515SOL     OW 2057   1.088   1.931   1.811  0.0246 -1.1304 -0.1019
  515SOL    HW1 2058   1.088   2.031   1.816  0.3951  1.5779  1.6945
  515SOL    HW2 2059   1.135   1.907   1.891 -3.3099 -0.3679 -2.6703
  515SOL     MW 2060   1.094   1.941   1.822 -0.3665 -0.6725 -0.2038
  516SOL     OW 2061   1.322   2.603   2.935  0.6955 -0.1052 -0.1324
  516SOL    HW1 2062   1.341   2.591   2.839  2.3714  1.4633  0.1516
  516SOL    HW2 2063   1.246   2.557   2.955  0.9606  0.6011 -0.8692
  516SOL     MW 2064   1.315   2.596   2.925  0.9516  0.1949 -0.1922
  517SOL     OW 2065   0.559   2.372   2.294  0.3101  0.2981 -0.1875
  517SOL    HW1 2066   0.498   2.439   2.264  0.8216  0.5046  0.0361
  517SOL    HW2 2067   0.516   2.301   2.247 -1.9492 -1.2006  1.6418
  517SOL     MW 2068   0.545   2.372   2.283  0.0795  0.1276  0.0834
  518SOL     OW 2069   1.810   0.080   3.073  0.0479 -0.2800 -0.2269
  518SOL    HW1 2070   1.817   0.103   3.161 -0.6590 -1.1669  0.5978
  518SOL    HW2 2071   1.770  -0.004   3.078  0.1050 -0.2131 -1.3031
  518SOL     MW 2072   1.806   0.072   3.085 -0.0379 -0.3882 -0.2601
  519SOL     OW 2073   0.676   2.453   1.836  0.9264  0.6020 -0.9338
  519SOL    HW1 2074   0.737   2.383   1.821 -0.1959  2.8206 -1.8129
  519SOL    HW2 2075   0.592   2.410   1.822 -0.3323  0.4168 -3.4402
  519SOL     MW 2076   0.673   2.438   1.833  0.6122  0.8703 -1.3805
  520SOL     OW 2077   1.241   2.124   2.933  0.3106  0.2621  0.1370
  520SOL    HW1 2078   1.162   2.081   2.901  1.7014 -0.2862 -1.1276
  520SOL    HW2 2079   1.268   2.097   3.021 -1.2220  4.4320 -0.0732
  520SOL     MW 2080   1.234   2.115   2.941  0.2919  0.7399 -0.0576
  521SOL     OW 2081   1.798   2.057   2.246  0.3227  0.6146 -0.4980
  521SOL    HW1 2082   1.802   2.064   2.149  1.1796 -0.9296 -1.1374
  521SOL    HW2 2083   1.789   1.968   2.272  1.6192  1.1532 -0.3684
  521SOL     MW 2084   1.797   2.047   2.237  0.6068  0.4819 -0.5652
  522SOL     OW 2085   2.886   2.543   2.237  0.1750 -0.0125  0.1155
  522SOL    HW1 2086   2.953   2.475   2.271 -0.2575 -0.6084 -1.8510
  522SOL    HW2 2087   2.917   2.638   2.235  0.6714  1.1566 -0.8061
  522SOL     MW 2088   2.899   2.547   2.241  0.1834  0.0631 -0.2656
  523SOL     OW 2089   0.819   1.489   2.151 -0.2113  0.1202 -0.1234
  523SOL    HW1 2090   0.817   1.537   2.072  1.9640  0.6769  1.7256
  523SOL    HW2 2091   0.895   1.429   2.136  0.5338  1.3772 -0.8343
  523SOL     MW 2092   0.829   1.487   2.138  0.1740  0.3595  0.0267
  524SOL     OW 2093   0.627   2.376   2.994 -0.3292 -1.1195  0.0895
  524SOL    HW1 2094   0.652   2.443   2.933  0.9292  0.3436  0.8602
  524SOL    HW2 2095   0.705   2.333   3.017  1.5007  0.4057  1.6862
  524SOL     MW 2096   0.640   2.379   2.989  0.0783 -0.7252  0.4019
  525SOL     OW 2097   0.421   2.201   2.114  0.8477  0.0923  0.2741
  525SOL    HW1 2098   0.405   2.143   2.185  2.6884  2.3670 -1.4933
  525SOL    HW2 2099   0.471   2.156   2.047  2.8167  1.3338 -1.9899
  525SOL     MW 2100   0.425   2.188   2.115  1.3504  0.5562 -0.2578
  526SOL     OW 2101   0.690   2.128   2.016 -0.3648  0.6336 -0.2521
  526SOL    HW1 2102   0.743   2.172   1.942 -3.3779  1.1099  0.6566
  526SOL    HW2 2103   0.754   2.135   2.086  0.0418 -1.1503  2.3191
  526SOL     MW 2104   0.706   2.135   2.015 -0.7087  0.4610  0.2071
  527SOL     OW 2105   1.274   1.896   2.012 -0.0501 -0.1033  0.3222
  527SOL    HW1 2106   1.261   1.859   2.097  1.2756  1.2961 -0.8709
  527SOL    HW2 2107   1.318   1.830   1.957 -1.5633 -2.1799  0.8027
  527SOL     MW 2108   1.278   1.882   2.016 -0.0748 -0.1926  0.2282
  528SOL     OW 2109   0.628   2.894   2.967  0.2279 -0.2519 -0.2315
  528SOL    HW1 2110   0.624   2.993   2.961 -1.0813 -3.0932 -4.5547
  528SOL    HW2 2111   0.608   2.868   2.876 -1.3829 -0.2503  2.6111
  528SOL     MW 2112   0.625   2.904   2.954 -0.1574 -0.6265 -0.4268
  529SOL     OW 2113   1.108   2.208   1.808 -0.3724 -0.5452  1.1790
  529SOL    HW1 2114   1.134   2.246   1.893  1.2424 -0.3599 -1.4314
  529SOL    HW2 2115   1.160   2.264   1.749 -1.8884  2.4400 -1.0815
  529SOL     MW 2116   1.119   2.220   1.811 -0.3594 -0.1269  0.5363
  530SOL     OW 2117   1.138   2.389   2.962 -0.0530 -0.4156  0.6632
  530SOL    HW1 2118   1.074   2.396   3.034 -1.8372  0.7493  0.5091
  530SOL    HW2 2119   1.158   2.301   2.946  0.9177  0.2239  0.6319
  530SOL     MW 2120   1.132   2.379   2.970 -0.1604 -0.1775  0.6388
  531SOL     OW 2121   0.909   1.807   2.630  0.0959 -0.3887  0.0935
  531SOL    HW1 2122   0.880   1.882   2.685  1.2464 -0.4747 -1.0178
  531SOL    HW2 2123   0.863   1.732   2.664  1.9011  0.7785  2.3290
  531SOL     MW 2124   0.899   1.807   2.642  0.4859 -0.2460  0.2418
  532SOL     OW 2125   1.656   0.308   2.859 -0.0732 -0.6916 -0.0756
  532SOL    HW1 2126   1.633   0.219   2.843 -0.9170 -2.4556 -2.0651
  532SOL    HW2 2127   1.722   0.304   2.925  1.3365  0.6365 -2.7062
  532SOL     MW 2128   1.662   0.295   2.865  0.0015 -0.7491 -0.6852
  533SOL     OW 2129   1.790   2.732   2.943 -0.1723 -0.2080 -0.6214
  533SOL    HW1 2130   1.763   2.650   2.990  1.7729  1.2271 -1.2790
  533SOL    HW2 2131   1.737   2.724   2.859 -0.3672 -1.3147 -0.5684
  533SOL     MW 2132   1.780   2.720   2.938  0.0586 -0.1647 -0.7012
  534SOL     OW 2133   1.737   2.461   2.500 -0.5100 -0.1861 -0.4967
  534SOL    HW1 2134   1.662   2.409   2.524 -0.7404 -0.4886 -0.6300
  534SOL    HW2 2135   1.789   2.471   2.581  1.3021 -0.4612  0.7227
  534SOL     MW 2136   1.734   2.455   2.514 -0.3013 -0.2623 -0.3534
  535SOL     OW 2137   1.819   2.361   1.911 -0.1008 -0.0141 -0.0165
  535SOL    HW1 2138   1.737   2.367   1.859  0.7143  1.6538  3.1860
  535SOL    HW2 2139   1.890   2.409   1.862 -0.8786  2.1242 -0.3032
  535SOL     MW 2140   1.818   2.368   1.898 -0.0959  0.4881  0.3682
  536SOL     OW 2141   0.465   1.816   2.010 -0.0988 -0.4204 -0.1374
  536SOL    HW1 2142   0.435   1.888   1.957  2.6163  0.3830 -0.9653
  536SOL    HW2 2143   0.550   1.840   2.039 -2.0343  1.0789 -0.9515
  536SOL     MW 2144   0.472   1.828   2.006  0.0041 -0.1166 -0.3541
  537SOL     OW 2145   1.014   0.180   2.906  0.4978 -0.0103 -0.6078
  537SOL    HW1 2146   0.981   0.188   2.997 -0.0707  2.1186  2.8266
  537SOL    HW2 2147   1.003   0.266   2.863  2.6593 -0.5487  1.5303
  537SOL     MW 2148   1.008   0.192   2.913  0.7080  0.1995  0.1274
  538SOL     OW 2149   1.312   0.050   3.027 -0.0217  0.0661 -0.5303
  538SOL    HW1 2150   1.240   0.060   2.972 -0.8337  0.9596 -1.7542
  538SOL    HW2 2151   1.361   0.134   3.027  0.7068  1.7239 -0.5101
  538SOL     MW 2152   1.309   0.063   3.020 -0.0327  0.4027 -0.6891
  539SOL     OW 2153   0.720   2.701   2.524 -0.0924  0.4453 -0.2282
  539SOL    HW1 2154   0.798   2.752   2.543  1.9119 -2.7808  0.8877
  539SOL    HW2 2155   0.730   2.605   2.546  2.3750 -0.8301 -1.6118
  539SOL     MW 2156   0.732   2.695   2.529  0.4976 -0.1486 -0.2635
  540SOL     OW 2157   0.354   2.249   2.836 -0.5079  0.4272 -0.1581
  540SOL    HW1 2158   0.418   2.308   2.869  0.8965 -0.5913  1.6669
  540SOL    HW2 2159   0.326   2.196   2.913  0.4493  1.0222 -0.7928
  540SOL     MW 2160   0.359   2.250   2.850 -0.1963  0.3713 -0.0010
  541SOL     OW 2161   0.188   2.868   2.260 -0.0276 -0.0689 -0.7121
  541SOL    HW1 2162   0.166   2.777   2.239 -0.0832  0.2938  1.7854
  541SOL    HW2 2163   0.257   2.855   2.329  1.0556 -0.9440 -0.7809
  541SOL     MW 2164   0.195   2.855   2.267  0.1080 -0.1365 -0.3917
  542SOL     OW 2165   0.897   2.280   2.719  0.1949 -0.0218 -0.7313
  542SOL    HW1 2166   0.850   2.277   2.808 -0.4265  0.2935  1.2961
  542SOL    HW2 2167   0.946   2.365   2.727 -0.0465 -1.0120 -2.2289
  542SOL     MW 2168   0.897   2.291   2.732  0.0811 -0.1108 -0.6614
  543SOL     OW 2169   1.400   2.576   2.677 -0.1188 -0.6516  0.0632
  543SOL    HW1 2170   1.440   2.498   2.634  2.0751 -0.6266 -0.2027
  543SOL    HW2 2171   1.476   2.637   2.695  0.6112 -1.2936 -0.0538
  543SOL     MW 2172   1.415   2.574   2.674  0.2670 -0.7330  0.0127
  544SOL     OW 2173   0.686   0.144   2.646 -0.3967  0.8245  0.7997
  544SOL    HW1 2174   0.619   0.073   2.614 -2.9127 -0.5346  1.0848
  544SOL    HW2 2175   0.758   0.139   2.579  0.7686 -0.0542  1.2083
  544SOL     MW 2176   0.686   0.134   2.633 -0.5749  0.5292  0.8913
  545SOL     OW 2177   1.539   2.156   2.331 -0.0344 -0.4494  0.2591
  545SOL    HW1 2178   1.477   2.100   2.374 -2.5083  3.9580 -4.2180
  545SOL    HW2 2179   1.631   2.121   2.307  0.4471  0.8128 -1.3748
  545SOL     MW 2180   1.543   2.144   2.334 -0.2973  0.2987 -0.5472
  546SOL     OW 2181   2.992   1.979   0.099 -0.3651 -0.4185  0.1023
  546SOL    HW1 2182   2.965   2.032   0.021  1.0038  1.9020  0.9511
  546SOL    HW2 2183   3.084   1.944   0.090  4.8928 -0.6308 -1.3331
  546SOL     MW 2184   3.001   1.981   0.088  0.5092 -0.1404  0.0249
  547SOL     OW 2185   0.136   2.953   0.077  0.1208  1.0366  0.0279
  547SOL    HW1 2186   0.163   2.998  -0.000  0.3730  1.4912 -0.0913
  547SOL    HW2 2187   0.198   2.879   0.093 -0.7048 -1.1752  1.6442
  547SOL     MW 2188   0.148   2.949   0.069  0.0452  0.8048  0.2254
  548SOL     OW 2189   0.309   2.489   0.269 -0.4273 -0.5712 -0.0808
  548SOL    HW1 2190   0.328   2.580   0.244 -1.1960  2.1685  2.2691
  548SOL    HW2 2191   0.240   2.462   0.212  2.2111 -0.6895  1.1260
  548SOL     MW 2192   0.302   2.497   0.258 -0.1806 -0.2253  0.3885
  549SOL     OW 2193   0.702   1.884   2.102  0.5960 -0.0679 -0.1495
  549SOL    HW1 2194   0.715   1.964   2.056 -0.1489  1.9634 -0.3762
  549SOL    HW2 2195   0.741   1.906   2.184  1.0207 -1.7269  0.0702
  549SOL     MW 2196   0.709   1.898   2.107  0.5538 -0.0188 -0.1505
  550SOL     OW 2197   1.822   1.751   2.568 -0.2073  0.2694  0.2172
  550SOL    HW1 2198   1.841   1.764   2.477 -0.4645  1.0212 -0.0439
  550SOL    HW2 2199   1.838   1.836   2.601 -0.2917 -1.1693 -1.0858
  550SOL     MW 2200   1.827   1.764   2.560 -0.2524  0.1787  0.0109
  551SOL     OW 2201   0.871   2.333   0.223 -0.6628  0.7465 -0.6071
  551SOL    HW1 2202   0.950   2.379   0.201  0.4155 -0.0078 -0.2647
  551SOL    HW2 2203   0.895   2.242   0.224 -0.9722  1.2462 -2.2987
  551SOL     MW 2204   0.885   2.327   0.220 -0.5613  0.7129 -0.7851
  552SOL     OW 2205   1.797   1.774   2.296  0.6500  0.1043  0.3029
  552SOL    HW1 2206   1.710   1.746   2.285  3.1955  1.1943  2.2658
  552SOL    HW2 2207   1.842   1.711   2.227 -1.7488  1.6717  0.4468
  552SOL     MW 2208   1.792   1.762   2.285  0.6694  0.4549  0.5809
  553SOL     OW 2209   1.209   2.321   1.537  0.2810  0.0389  0.0575
  553SOL    HW1 2210   1.228   2.228   1.526 -2.0306 -1.4877  1.4088
  553SOL    HW2 2211   1.272   2.362   1.477  1.1589  0.1735 -0.4904
  553SOL     MW 2212   1.220   2.314   1.527  0.0918 -0.1448  0.1635
  554SOL     OW 2213   0.569   2.831   2.709  0.2676 -0.1343 -0.1728
  554SOL    HW1 2214   0.526   2.912   2.675  2.3847 -0.6460 -1.2145
  554SOL    HW2 2215   0.617   2.799   2.638 -1.1517  4.8479  1.0915
  554SOL     MW 2216   0.570   2.837   2.695  0.3596  0.4555 -0.1434
  555SOL     OW 2217   0.604   2.374   2.603  0.2925  0.2417  0.1716
  555SOL    HW1 2218   0.586   2.282   2.630 -0.2178 -0.0626 -0.6386
  555SOL    HW2 2219   0.681   2.377   2.549 -3.3074  1.6039 -0.7732
  555SOL     MW 2220   0.611   2.362   2.599 -0.2498  0.3813 -0.0599
  556SOL     OW 2221   1.031   1.793   0.135 -0.3632  0.5111 -0.3706
  556SOL    HW1 2222   1.029   1.777   0.039 -0.2474 -0.7816  1.0015
  556SOL    HW2 2223   1.116   1.828   0.155 -0.9300  2.8165 -0.5287
  556SOL     MW 2224   1.042   1.796   0.125 -0.4227  0.6447 -0.2105
  557SOL     OW 2225   0.958   2.698   0.453 -0.9780  0.0386 -0.6958
  557SOL    HW1 2226   1.025   2.698   0.381 -1.0308 -1.8554 -1.1139
  557SOL    HW2 2227   0.917   2.793   0.445 -1.9169  0.9717  0.7209
  557SOL     MW 2228   0.961   2.711   0.443 -1.1088 -0.0882 -0.5640
  558SOL     OW 2229   0.273   2.122   3.094 -0.1773  0.4174  0.3148
  558SOL    HW1 2230   0.228   2.041   3.121 -1.7483 -1.2345  2.1673
  558SOL    HW2 2231   0.216   2.181   3.138 -2.9620 -2.6879  1.6966
  558SOL     MW 2232   0.260   2.119   3.103 -0.7520 -0.2102  0.7415
  559SOL     OW 2233   1.176   2.306   2.048 -0.0493  0.0649 -0.0671
  559SOL    HW1 2234   1.174   2.390   2.100 -1.5205 -0.4631 -0.9167
  559SOL    HW2 2235   1.201   2.234   2.101  0.5374  0.7629 -1.3527
  559SOL     MW 2236   1.179   2.308   2.062 -0.1660  0.0873 -0.3488
  560SOL     OW 2237   1.978   2.820   0.023  0.3971 -1.3310  0.2744
  560SOL    HW1 2238   2.043   2.876  -0.023 -0.2640  0.0981  2.2133
  560SOL    HW2 2239   1.908   2.804  -0.042  0.4007  0.1693  1.5955
  560SOL     MW 2240   1.978   2.825   0.009  0.3103 -0.9445  0.7046
  561SOL     OW 2241   0.477   2.079   0.209  0.1352 -0.2718  0.3408
  561SOL    HW1 2242   0.416   2.080   0.130 -4.0008 -2.3058 -3.9914
  561SOL    HW2 2243   0.489   2.166   0.245 -1.8127 -1.1790 -1.6363
  561SOL     MW 2244   0.470   2.091   0.203 -0.6675 -0.6599 -0.4916
  562SOL     OW 2245   0.904   2.168   2.179  0.3986 -0.0296 -0.2862
  562SOL    HW1 2246   0.897   2.260   2.172 -1.3672 -0.4294  0.1779
  562SOL    HW2 2247   0.987   2.166   2.227 -0.4374  1.7870  0.7075
  562SOL     MW 2248   0.914   2.180   2.184  0.0553  0.1573 -0.0939
  563SOL     OW 2249   1.200   0.267   0.565 -0.4535 -0.6685 -0.2608
  563SOL    HW1 2250   1.139   0.255   0.489 -0.0100 -1.8054 -2.0860
  563SOL    HW2 2251   1.243   0.180   0.575 -0.5277 -3.4059 -0.5267
  563SOL     MW 2252   1.197   0.254   0.556 -0.4047 -1.1797 -0.5367
  564SOL     OW 2253   1.028   2.582   2.384  0.6491 -0.0232  0.2629
  564SOL    HW1 2254   1.065   2.607   2.301 -1.5238 -1.8875 -0.5937
  564SOL    HW2 2255   1.085   2.627   2.443 -0.6717 -0.6382  2.8217
  564SOL     MW 2256   1.040   2.591   2.381  0.1882 -0.3503  0.4875
  565SOL     OW 2257   2.925   2.645   2.583 -0.3295  0.3033 -0.3235
  565SOL    HW1 2258   2.974   2.720   2.555 -1.9749  1.9498 -0.5385
  565SOL    HW2 2259   2.856   2.658   2.518  3.4474 -1.3348  1.8375
  565SOL     MW 2260   2.922   2.657   2.571 -0.0483  0.3044 -0.0668
  566SOL     OW 2261   2.265   1.938   2.344  0.2746 -0.0254 -0.1327
  566SOL    HW1 2262   2.279   1.952   2.248 -0.5140  1.1522 -0.8408
  566SOL    HW2 2263   2.294   2.020   2.388  1.2233 -0.5142  0.0622
  566SOL     MW 2264   2.271   1.951   2.337  0.2957  0.0655 -0.2005
  567SOL     OW 2265   1.201   2.895   0.066 -0.0511 -0.6549  0.8860
  567SOL    HW1 2266   1.263   2.969   0.077 -1.6743 -1.6886  0.1646
  567SOL    HW2 2267   1.201   2.873  -0.028  0.1972 -0.9637 -1.2885
  567SOL     MW 2268   1.209   2.902   0.055 -0.2325 -0.8321  0.5039
  568SOL     OW 2269   1.648   2.125   2.861 -0.0390 -0.4322 -0.2198
  568SOL    HW1 2270   1.688   2.166   2.944  2.0088  2.1007 -1.2332
  568SOL    HW2 2271   1.719   2.099   2.807  0.1961  3.1980  2.7344
  568SOL     MW 2272   1.663   2.127   2.865  0.2622  0.3809  0.0363
  569SOL     OW 2273   0.146   2.190   2.427  1.3119  0.2306  0.3395
  569SOL    HW1 2274   0.110   2.268   2.382  1.5690 -0.5334  1.9825
  569SOL    HW2 2275   0.122   2.217   2.518  0.1364 -1.4101 -0.7380
  569SOL     MW 2276   0.138   2.204   2.433  1.1908 -0.0867  0.4141
  570SOL     OW 2277   1.428   0.430   0.498 -0.0060  0.1426  0.0051
  570SOL    HW1 2278   1.338   0.400   0.517  0.0968  0.2406 -0.9822
  570SOL    HW2 2279   1.477   0.458   0.572  4.3364 -3.8690  0.4849
  570SOL     MW 2280   1.423   0.430   0.511  0.5805 -0.3737 -0.0619
  571SOL     OW 2281   1.483   2.392   1.926  0.1908 -0.1800 -0.3841
  571SOL    HW1 2282   1.491   2.414   2.016  0.4613  0.1324 -2.1217
  571SOL    HW2 2283   1.495   2.298   1.919  0.7635  0.5845  0.2445
  571SOL     MW 2284   1.486   2.383   1.937  0.3021 -0.0379 -0.5304
  572SOL     OW 2285   0.927   2.618   3.080  0.1171  0.5534 -0.0494
  572SOL    HW1 2286   0.919   2.670   2.999 -0.5683  0.3345  0.8504
  572SOL    HW2 2287   0.844   2.608   3.121  0.0913 -1.9136  1.5403
  572SOL     MW 2288   0.915   2.623   3.075  0.0233  0.1991  0.2791
  573SOL     OW 2289   1.114   2.420   0.192  0.0150  0.0200 -0.2193
  573SOL    HW1 2290   1.209   2.398   0.179 -1.5906  0.7135 -0.6979
  573SOL    HW2 2291   1.122   2.513   0.211 -0.2801  3.6230 -0.9949
  573SOL     MW 2292   1.128   2.429   0.192 -0.2358  0.5869 -0.3848
  574SOL     OW 2293   1.139   2.679   0.258  0.0067  0.1948  0.2070
  574SOL    HW1 2294   1.233   2.689   0.271 -2.7171  1.7569 -0.8775
  574SOL    HW2 2295   1.127   2.738   0.179 -1.4056  0.7499  0.3068
  574SOL     MW 2296   1.150   2.688   0.250 -0.5390  0.4741  0.0770
  575SOL     OW 2297   3.053   2.295   1.846 -0.2050 -0.7611 -0.2297
  575SOL    HW1 2298   3.038   2.210   1.794  3.7365 -2.0761 -2.6451
  575SOL    HW2 2299   3.109   2.352   1.791 -1.1033  0.1359 -1.2576
  575SOL     MW 2300   3.058   2.291   1.832  0.1966 -0.8162 -0.6840
  576SOL     OW 2301   2.804   1.831   2.077  0.1843 -0.0512  0.2777
  576SOL    HW1 2302   2.811   1.911   2.026 -0.5530 -1.5783  1.8500
  576SOL    HW2 2303   2.713   1.801   2.058  0.8981 -3.4904  2.3737
  576SOL     MW 2304   2.793   1.837   2.067  0.1812 -0.7065  0.7617
  577SOL     OW 2305   2.102   0.265   0.079  0.1038  0.3199 -0.0280
  577SOL    HW1 2306   2.033   0.308   0.032 -1.7545  2.7300 -0.4620
  577SOL    HW2 2307   2.052   0.205   0.134  3.7653  0.3002 -2.6417
  577SOL     MW 2308   2.086   0.262   0.080  0.3417  0.6353 -0.4301
  578SOL     OW 2309   2.025   2.070   2.381 -0.1657 -0.4607 -0.2307
  578SOL    HW1 2310   1.960   2.071   2.311 -1.6306  1.0335  3.6184
  578SOL    HW2 2311   2.100   2.014   2.350  1.0632 -1.6438  0.3251
  578SOL     MW 2312   2.026   2.063   2.368 -0.1968 -0.4197  0.3505
  579SOL     OW 2313   0.841   2.414   2.482  0.3905 -0.1812 -0.4243
  579SOL    HW1 2314   0.868   2.363   2.560 -2.0326  1.8105  2.1568
  579SOL    HW2 2315   0.912   2.483   2.475 -0.3545 -1.6967  0.6668
  579SOL     MW 2316   0.854   2.417   2.492 -0.0275 -0.1184  0.0602
  580SOL     OW 2317   0.893   2.953   0.039  0.2642  0.5862 -0.3420
  580SOL    HW1 2318   0.964   2.884   0.036 -2.2475  0.2545  1.9706
  580SOL    HW2 2319   0.834   2.933  -0.030 -2.0543  2.1867  1.1323
  580SOL     MW 2320   0.894   2.941   0.029 -0.3731  0.7536  0.1577
  581SOL     OW 2321   1.071   2.515   1.710 -0.3477 -0.4157 -0.3939
  581SOL    HW1 2322   1.111   2.521   1.796 -1.6705 -0.0156 -0.5203
  581SOL    HW2 2323   1.135   2.480   1.651 -3.0605  2.4346 -1.6261
  581SOL     MW 2324   1.085   2.511   1.713 -0.8801  0.0132 -0.5732
  582SOL     OW 2325   0.004   2.833   2.529 -0.0823  0.1969 -0.4710
  582SOL    HW1 2326  -0.001   2.887   2.604 -0.3941 -0.2205 -0.9326
  582SOL    HW2 2327   0.095   2.793   2.523 -0.2891 -0.3966 -0.5531
  582SOL     MW 2328   0.015   2.835   2.538 -0.1507  0.0635 -0.5428
  583SOL     OW 2329   1.987   2.453   2.640 -0.2109 -0.0127 -0.0013
  583SOL    HW1 2330   2.074   2.502   2.640  2.3406 -0.8286  2.7273
  583SOL    HW2 2331   2.002   2.362   2.638  1.0409 -0.1900  0.5231
  583SOL     MW 2332   2.000   2.447   2.639  0.2909 -0.1438  0.4279
  584SOL     OW 2333   0.180   1.861   2.118 -0.2040  0.4217 -0.0602
  584SOL    HW1 2334   0.272   1.846   2.083  0.1208  0.1453  0.1012
  584SOL    HW2 2335   0.196   1.903   2.199 -0.5557 -2.2296  0.1859
  584SOL     MW 2336   0.195   1.864   2.124 -0.2076  0.0354 -0.0064
  585SOL     OW 2337   1.494   2.571   0.051 -0.0261  0.9315  0.4694
  585SOL    HW1 2338   1.440   2.574  -0.029  0.8468  0.1382 -1.6703
  585SOL    HW2 2339   1.443   2.615   0.118  1.7355 -2.6292 -0.5518
  585SOL     MW 2340   1.480   2.577   0.050  0.3215  0.3570  0.0524
  586SOL     OW 2341   1.238   2.991   2.382  0.1053 -0.2102  0.0281
  586SOL    HW1 2342   1.313   2.964   2.335 -0.6504 -1.8747  1.2281
  586SOL    HW2 2343   1.271   3.009   2.472  2.0673 -0.0607  2.8842
  586SOL     MW 2344   1.252   2.990   2.387  0.2644 -0.4101  0.5633
  587SOL     OW 2345   1.243   1.623   2.126  0.1372 -0.0230  0.2291
  587SOL    HW1 2346   1.209   1.560   2.192  1.1594 -0.7543  0.1709
  587SOL    HW2 2347   1.211   1.585   2.043 -2.7338 -1.9387 -2.0017
  587SOL     MW 2348   1.234   1.610   2.124 -0.1067 -0.3723 -0.0729
  588SOL     OW 2349   1.398   2.116   2.718 -0.2960  0.5359  0.0802
  588SOL    HW1 2350   1.484   2.103   2.755  0.2090 -0.8674 -0.2582
  588SOL    HW2 2351   1.333   2.125   2.795  0.0182  0.0108 -2.2908
  588SOL     MW 2352   1.401   2.115   2.733 -0.1879  0.2815 -0.2773
  589SOL     OW 2353   1.355   2.073   0.081 -0.3070  0.3752  0.4770
  589SOL    HW1 2354   1.370   2.159   0.125  0.7914  0.7980  0.2261
  589SOL    HW2 2355   1.307   2.012   0.139  1.9999 -1.9591 -0.1816
  589SOL     MW 2356   1.351   2.076   0.094  0.1423  0.1230  0.3570
  590SOL     OW 2357   0.409   2.599   2.251 -0.3517 -0.4142  0.1935
  590SOL    HW1 2358   0.361   2.595   2.169 -1.0669 -0.4619  1.0695
  590SOL    HW2 2359   0.501   2.621   2.233  1.0959 -3.4979  0.1765
  590SOL     MW 2360   0.415   2.602   2.238 -0.2551 -0.8273  0.3068
  591SOL     OW 2361   2.314   0.713   0.005  0.1169  0.3226  0.5428
  591SOL    HW1 2362   2.240   0.755  -0.038  0.7092  1.0859 -0.1279
  591SOL    HW2 2363   2.394   0.759  -0.028  2.6194 -1.7025  0.6319
  591SOL     MW 2364   2.315   0.725  -0.005  0.5253  0.1561  0.4660
  592SOL     OW 2365   1.853   3.014   0.837  0.4036  0.2002 -0.1309
  592SOL    HW1 2366   1.837   3.071   0.763 -2.3239  0.8503 -0.6731
  592SOL    HW2 2367   1.894   2.928   0.820 -1.1334  0.5095 -2.7926
  592SOL     MW 2368   1.856   3.010   0.825 -0.1591  0.3268 -0.5536
  593SOL     OW 2369   1.899   0.755   0.852 -0.1160 -0.3946 -0.4922
  593SOL    HW1 2370   1.820   0.746   0.791 -1.0700 -0.6838 -0.3278
  593SOL    HW2 2371   1.942   0.672   0.864 -0.6140 -0.4153 -0.7921
  593SOL     MW 2372   1.894   0.743   0.845 -0.3076 -0.4355 -0.5100
  594SOL     OW 2373   2.727   1.118   1.379  0.5393 -0.4201  0.1562
  594SOL    HW1 2374   2.813   1.159   1.397 -0.5472  2.2141 -1.2625
  594SOL    HW2 2375   2.750   1.096   1.292 -0.6338 -2.4629  0.2669
  594SOL     MW 2376   2.742   1.120   1.370  0.2412 -0.3420 -0.0164
  595SOL     OW 2377   0.448   0.953   0.688  0.1043  0.6349 -0.4844
  595SOL    HW1 2378   0.476   1.021   0.627 -0.3990 -0.8357 -0.7360
  595SOL    HW2 2379   0.460   0.986   0.780  0.6485 -2.1710 -1.9173
  595SOL     MW 2380   0.454   0.966   0.692  0.1097  0.0707 -0.7066
  596SOL     OW 2381   2.424   1.375   0.597 -0.2155  0.3475 -0.1653
  596SOL    HW1 2382   2.470   1.433   0.536  2.0875  0.8197 -1.1031
  596SOL    HW2 2383   2.497   1.336   0.650 -1.4489 -4.0143  0.5973
  596SOL     MW 2384   2.440   1.377   0.596 -0.0744 -0.1657 -0.1884
  597SOL     OW 2385   2.183   0.651   1.734  0.1353  0.0033  0.0446
  597SOL    HW1 2386   2.263   0.601   1.762 -1.2730  0.4413  3.2046
  597SOL    HW2 2387   2.147   0.625   1.646 -0.0690  1.7108  1.2693
  597SOL     MW 2388   2.189   0.641   1.726 -0.0775  0.2864  0.6231
  598SOL     OW 2389   2.605   1.018   2.848 -0.1555  0.1643  0.2973
  598SOL    HW1 2390   2.656   1.003   2.758 -2.1261  0.1093 -1.3249
  598SOL    HW2 2391   2.652   1.101   2.873  3.1459  2.0193 -0.7216
  598SOL     MW 2392   2.618   1.027   2.839  0.0201  0.4018 -0.0512
  599SOL     OW 2393   2.925   0.340   2.030 -0.2030 -0.0762  0.6489
  599SOL    HW1 2394   2.883   0.351   2.118  0.4693 -1.0385 -1.7768
  599SOL    HW2 2395   2.954   0.433   2.011 -0.0057  0.0251  2.2524
  599SOL     MW 2396   2.923   0.354   2.039 -0.0883 -0.1898  0.5404
  600SOL     OW 2397   1.897   1.721   0.880  0.0817 -0.2186  0.2520
  600SOL    HW1 2398   1.897   1.768   0.962 -1.3349  2.0264 -2.6202
  600SOL    HW2 2399   1.806   1.732   0.845  1.5340 -1.3043  1.5931
  600SOL     MW 2400   1.885   1.729   0.886  0.0864 -0.0656  0.0500
  601SOL     OW 2401   2.524   0.800   0.848 -0.0157 -0.0806 -0.1325
  601SOL    HW1 2402   2.490   0.816   0.937 -0.3086 -2.8306 -2.6477
  601SOL    HW2 2403   2.483   0.723   0.811  0.8953 -2.3042 -0.8734
  601SOL     MW 2404   2.514   0.792   0.855  0.0659 -0.7368 -0.5621
  602SOL     OW 2405   2.335   1.917   0.709  0.3195 -0.0224  0.0679
  602SOL    HW1 2406   2.282   1.859   0.766  1.3561  0.5360  2.2087
  602SOL    HW2 2407   2.282   1.998   0.692 -1.6924 -1.1979  1.5723
  602SOL     MW 2408   2.321   1.920   0.714  0.1908 -0.1038  0.5489
  603SOL     OW 2409   3.003   1.398   1.788  0.6170  0.0543 -0.0065
  603SOL    HW1 2410   3.079   1.416   1.835  0.1140  0.7981  1.2478
  603SOL    HW2 2411   3.007   1.304   1.765 -0.5397 -1.9731  1.1766
  603SOL     MW 2412   3.013   1.388   1.791  0.3980 -0.1151  0.3151
  604SOL     OW 2413   2.115   1.578   0.444  0.2238 -0.4935  0.0543
  604SOL    HW1 2414   2.130   1.514   0.514 -3.0930 -1.2498  2.1545
  604SOL    HW2 2415   2.072   1.651   0.489 -0.7598 -1.0498  0.7234
  604SOL     MW 2416   2.111   1.579   0.459 -0.3436 -0.6667  0.4197
  605SOL     OW 2417   2.685   1.563   0.846 -0.6348 -0.5165 -0.2314
  605SOL    HW1 2418   2.605   1.608   0.821  2.5430  1.5509 -2.4307
  605SOL    HW2 2419   2.663   1.501   0.910  1.4574  2.9451  1.4225
  605SOL     MW 2420   2.671   1.561   0.851  0.0605  0.2130 -0.3034
  606SOL     OW 2421   2.567   1.759   1.942 -0.4413 -0.0964 -1.2798
  606SOL    HW1 2422   2.474   1.779   1.918  0.1799  2.8704  0.8743
  606SOL    HW2 2423   2.591   1.683   1.888  0.6302 -0.2673  0.1740
  606SOL     MW 2424   2.558   1.752   1.932 -0.2180  0.2725 -0.8038
  607SOL     OW 2425   2.346   1.015   3.013 -0.1468  0.6174  0.1822
  607SOL    HW1 2426   2.411   1.019   2.942 -2.1514 -2.9662 -2.8778
  607SOL    HW2 2427   2.389   1.051   3.097  0.4506  0.5707 -2.1343
  607SOL     MW 2428   2.360   1.020   3.015 -0.3325  0.1384 -0.5272
  608SOL     OW 2429   1.881   0.319   0.576 -0.0956  0.4788  0.4784
  608SOL    HW1 2430   1.871   0.357   0.492 -1.2869  1.4908  0.7112
  608SOL    HW2 2431   1.864   0.224   0.550  2.6606 -0.5677 -1.1739
  608SOL     MW 2432   1.877   0.312   0.562  0.1108  0.4743  0.2911
  609SOL     OW 2433   2.171   1.952   3.048  0.4533 -0.0561  0.1721
  609SOL    HW1 2434   2.096   1.904   3.004 -0.6181  1.2166  1.7573
  609SOL    HW2 2435   2.162   1.939   3.141  0.3382  1.6196  0.1326
  609SOL     MW 2436   2.160   1.944   3.054  0.2967  0.3329  0.3761
  610SOL     OW 2437   1.873   1.066   1.267 -0.1180 -0.6093 -0.6895
  610SOL    HW1 2438   1.856   0.993   1.199 -0.9362  0.3592 -1.6606
  610SOL    HW2 2439   1.788   1.066   1.316 -0.5047  0.7779  1.2502
  610SOL     MW 2440   1.860   1.057   1.264 -0.2770 -0.2985 -0.5617
  611SOL     OW 2441   2.448   1.665   0.723  0.1848  0.0420  0.4636
  611SOL    HW1 2442   2.414   1.743   0.673  2.1067  2.5905  0.6462
  611SOL    HW2 2443   2.463   1.596   0.659 -1.2970  0.6687  3.7495
  611SOL     MW 2444   2.446   1.666   0.708  0.2428  0.4609  0.9212
  612SOL     OW 2445   2.786   2.837   0.461 -0.3465  0.0056 -0.5738
  612SOL    HW1 2446   2.820   2.879   0.543  1.3791 -0.3116 -0.9748
  612SOL    HW2 2447   2.868   2.806   0.423 -0.7701 -0.7121  0.9683
  612SOL     MW 2448   2.801   2.838   0.467 -0.1747 -0.1309 -0.4232
  613SOL     OW 2449   1.555   1.032   1.074  0.0482 -0.3251 -0.6804
  613SOL    HW1 2450   1.572   1.120   1.099 -1.6122 -2.4673 -0.4100
  613SOL    HW2 2451   1.575   0.982   1.154 -1.8568  1.1270 -1.0071
  613SOL     MW 2452   1.560   1.037   1.088 -0.4223 -0.4162 -0.6878
  614SOL     OW 2453   2.055   0.562   1.520 -0.3837 -0.2308 -0.1604
  614SOL    HW1 2454   2.046   0.475   1.566 -0.6061 -0.3354  3.5181
  614SOL    HW2 2455   2.031   0.558   1.427 -0.0612 -2.5793  0.1106
  614SOL     MW 2456   2.050   0.550   1.514 -0.3705 -0.5545  0.3607
  615SOL     OW 2457   2.238   0.839   0.229 -0.4819 -0.0394 -0.0541
  615SOL    HW1 2458   2.292   0.787   0.288 -0.3115  0.3077  2.6297
  615SOL    HW2 2459   2.248   0.791   0.150 -0.5189  0.4072  1.4360
  615SOL     MW 2460   2.247   0.826   0.226 -0.4643  0.0653  0.4966
  616SOL     OW 2461   2.567   0.395   1.615  1.0813 -1.0213 -0.3817
  616SOL    HW1 2462   2.508   0.338   1.569 -0.5322 -1.0685  1.5914
  616SOL    HW2 2463   2.617   0.419   1.535  0.1999 -1.1203 -0.8710
  616SOL     MW 2464   2.566   0.391   1.598  0.7521 -1.0406 -0.1859
  617SOL     OW 2465   2.830   0.582   1.734 -0.6616 -0.3685 -0.3471
  617SOL    HW1 2466   2.755   0.600   1.790 -0.8112  1.7174  2.1189
  617SOL    HW2 2467   2.837   0.489   1.734  0.1359 -0.2480  0.3599
  617SOL     MW 2468   2.821   0.572   1.741 -0.5761 -0.0774  0.0715
  618SOL     OW 2469   2.690   0.345   1.900  0.1459 -0.0805  0.2081
  618SOL    HW1 2470   2.679   0.437   1.922  1.1539 -0.0987  2.1027
  618SOL    HW2 2471   2.780   0.330   1.931 -0.3646  0.5199 -0.7662
  618SOL     MW 2472   2.700   0.355   1.907  0.2115 -0.0037  0.3295
  619SOL     OW 2473   2.594   0.761   0.161  0.4212 -0.2752 -0.0683
  619SOL    HW1 2474   2.665   0.819   0.182 -0.1554 -2.2250 -0.4372
  619SOL    HW2 2475   2.555   0.731   0.251  1.8135 -1.1754  1.1987
  619SOL     MW 2476   2.598   0.765   0.176  0.5288 -0.6512  0.0502
  620SOL     OW 2477   2.302   1.082   0.941  0.0731 -0.4578  0.8704
  620SOL    HW1 2478   2.363   1.036   0.885 -0.8217  1.4883  0.6606
  620SOL    HW2 2479   2.226   1.027   0.944 -0.4153  2.0202 -1.4411
  620SOL     MW 2480   2.300   1.069   0.934 -0.1094  0.1259  0.5377
  621SOL     OW 2481   1.484   2.104   1.998 -0.2303  0.1047 -0.0169
  621SOL    HW1 2482   1.431   2.027   2.011 -2.2439 -2.9507 -0.9168
  621SOL    HW2 2483   1.555   2.097   2.062 -0.4128 -3.0312 -0.6155
  621SOL     MW 2484   1.486   2.093   2.008 -0.5201 -0.7122 -0.2146
  622SOL     OW 2485   2.646   0.149   0.239  0.2001  0.2030  0.1036
  622SOL    HW1 2486   2.735   0.145   0.269  1.9548  3.2530  0.7225
  622SOL    HW2 2487   2.640   0.063   0.194 -1.1785  0.1893  2.8513
  622SOL     MW 2488   2.657   0.137   0.237  0.2497  0.6036  0.5478
  623SOL     OW 2489   2.347   2.703   0.895  0.0945 -0.8773  0.2634
  623SOL    HW1 2490   2.415   2.770   0.885  0.8203  0.9046  0.4167
  623SOL    HW2 2491   2.290   2.737   0.965 -2.5289 -0.2311  0.1542
  623SOL     MW 2492   2.348   2.716   0.903 -0.1559 -0.5569  0.2692
  624SOL     OW 2493   2.258   1.659   3.042 -0.1633  0.1968 -0.1254
  624SOL    HW1 2494   2.167   1.622   3.061 -1.9189  0.5100  0.2975
  624SOL    HW2 2495   2.237   1.752   3.041 -1.7749  1.0773 -1.4328
  624SOL     MW 2496   2.244   1.666   3.044 -0.6076  0.3543 -0.2421
  625SOL     OW 2497   2.129   1.962   1.075  0.2589  0.5171  0.4950
  625SOL    HW1 2498   2.196   1.924   1.134 -1.2704  1.1783 -0.5864
  625SOL    HW2 2499   2.156   1.930   0.987  0.8570 -1.8654  1.2784
  625SOL     MW 2500   2.141   1.953   1.071  0.1360  0.2900  0.4557
  626SOL     OW 2501   0.188   1.594   2.320 -0.0162  0.6809 -0.2424
  626SOL    HW1 2502   0.146   1.552   2.245 -2.1365 -1.4021 -2.1051
  626SOL    HW2 2503   0.140   1.566   2.397 -0.1669 -0.3983 -0.9036
  626SOL     MW 2504   0.176   1.585   2.320 -0.3158  0.2637 -0.5754
  627SOL     OW 2505   2.500   0.835   2.613  0.0798  0.0884  0.3205
  627SOL    HW1 2506   2.421   0.892   2.601  1.2405  0.1998 -1.1533
  627SOL    HW2 2507   2.488   0.757   2.557  4.3961 -1.3693 -0.0914
  627SOL     MW 2508   2.488   0.832   2.604  0.8024 -0.0893  0.0717
  628SOL     OW 2509   2.254   1.348   1.367 -0.0616 -0.3959 -0.1779
  628SOL    HW1 2510   2.225   1.286   1.307 -1.1439 -1.5373  0.1653
  628SOL    HW2 2511   2.348   1.333   1.376  0.9585 -0.5420 -0.0300
  628SOL     MW 2512   2.263   1.338   1.361 -0.0698 -0.5658 -0.1131
  629SOL     OW 2513   1.993   0.537   1.240 -0.1145 -0.5523  0.3776
  629SOL    HW1 2514   2.037   0.623   1.235 -0.2576  1.5590  3.2373
  629SOL    HW2 2515   1.900   0.559   1.255  0.2243  1.3750  2.4536
  629SOL     MW 2516   1.987   0.552   1.242 -0.0887 -0.0195  1.0288
  630SOL     OW 2517   2.502   1.828   3.005 -0.0338  0.6945 -0.3357
  630SOL    HW1 2518   2.467   1.915   2.978  1.4545  1.1979  0.4673
  630SOL    HW2 2519   2.427   1.765   3.008 -4.5105 -1.1701 -2.1864
  630SOL     MW 2520   2.487   1.831   3.001 -0.4281  0.5149 -0.4739
  631SOL     OW 2521   1.991   1.814   1.570  0.1341  0.1700  0.3109
  631SOL    HW1 2522   2.010   1.728   1.609 -1.3328 -0.4310  0.7083
  631SOL    HW2 2523   1.945   1.795   1.486  2.3784  1.6277 -2.3360
  631SOL     MW 2524   1.987   1.800   1.564  0.2367  0.2830  0.0141
  632SOL     OW 2525   0.103   2.088   1.519 -0.9027  0.1088 -0.0734
  632SOL    HW1 2526   0.047   2.068   1.595  1.3991  1.8795 -2.1940
  632SOL    HW2 2527   0.142   2.000   1.478  0.9406 -0.1514 -2.3688
  632SOL     MW 2528   0.101   2.074   1.524 -0.3558  0.3081 -0.6560
  633SOL     OW 2529   2.440   0.664   0.374  0.4227 -0.0485  0.4248
  633SOL    HW1 2530   2.515   0.640   0.432  2.0781  1.0936  1.1825
  633SOL    HW2 2531   2.399   0.576   0.373  2.4593  1.3428  0.4470
  633SOL     MW 2532   2.445   0.649   0.382  0.9098  0.2858  0.5277
  634SOL     OW 2533   2.638   0.015   0.681 -0.6251  0.0465  0.2866
  634SOL    HW1 2534   2.690   0.096   0.683  2.8460 -0.5441  1.0095
  634SOL    HW2 2535   2.620  -0.004   0.589  0.4475  0.9834  2.1085
  634SOL     MW 2536   2.643   0.023   0.669 -0.0256  0.0922  0.6224
  635SOL     OW 2537   2.587   0.088   1.810 -0.5690  0.4769  0.5222
  635SOL    HW1 2538   2.657   0.033   1.781 -0.8136  3.0716 -2.8815
  635SOL    HW2 2539   2.621   0.177   1.818  0.7710 -0.2065  1.1629
  635SOL     MW 2540   2.600   0.092   1.807 -0.4245  0.7291  0.1577
  636SOL     OW 2541   2.909   1.695   0.966  0.0019  0.5338  0.0837
  636SOL    HW1 2542   2.826   1.717   0.921 -0.4373 -0.9351  0.4360
  636SOL    HW2 2543   2.917   1.733   1.055  1.0533  2.5141 -0.4578
  636SOL     MW 2544   2.899   1.703   0.972  0.0827  0.6013  0.0587
  637SOL     OW 2545   2.880   1.506   0.676  0.4221  0.5208 -0.1999
  637SOL    HW1 2546   2.934   1.584   0.682  3.6375  1.4462  0.4146
  637SOL    HW2 2547   2.807   1.524   0.744  1.9836  0.0413  0.4593
  637SOL     MW 2548   2.877   1.518   0.685  1.0524  0.5796 -0.0318
  638SOL     OW 2549   2.681   0.620   0.507  0.2162 -0.4830 -0.1705
  638SOL    HW1 2550   2.771   0.618   0.473  3.2470 -0.0878  0.9836
  638SOL    HW2 2551   2.693   0.631   0.600 -1.2221 -0.1408 -0.9695
  638SOL     MW 2552   2.694   0.621   0.515  0.4263 -0.3857 -0.1237
  639SOL     OW 2553   1.813   0.042   0.504 -0.9340  0.2493 -0.3982
  639SOL    HW1 2554   1.730   0.083   0.507 -0.7319 -0.6423 -0.6942
  639SOL    HW2 2555   1.785  -0.048   0.488  2.0854 -0.9994  1.4346
  639SOL     MW 2556   1.798   0.036   0.502 -0.5089 -0.0331 -0.1954
  640SOL     OW 2557   0.338   1.378   0.059  0.2482  0.5898  0.2897
  640SOL    HW1 2558   0.364   1.363  -0.035 -0.5403 -2.4825 -0.5701
  640SOL    HW2 2559   0.306   1.294   0.088  0.9734  2.2770 -0.0317
  640SOL     MW 2560   0.337   1.365   0.051  0.2399  0.4071  0.1339
  641SOL     OW 2561   2.252   0.458   0.362 -0.5116 -0.0176 -0.4856
  641SOL    HW1 2562   2.250   0.440   0.267  0.8452 -0.0288  0.6158
  641SOL    HW2 2563   2.285   0.377   0.400 -0.6220 -0.9463  0.7726
  641SOL     MW 2564   2.256   0.445   0.355 -0.3471 -0.1416 -0.1743
  642SOL     OW 2565   0.031   3.080   0.572 -0.2554 -0.1813  0.0990
  642SOL    HW1 2566  -0.035   3.139   0.541 -0.1251 -0.5310 -0.8941
  642SOL    HW2 2567  -0.027   3.006   0.596  1.3666  0.1662  0.4580
  642SOL     MW 2568   0.015   3.078   0.571 -0.0242 -0.1816  0.0153
  643SOL     OW 2569   2.036   0.345   1.702  0.3328  0.0544  0.1267
  643SOL    HW1 2570   2.097   0.371   1.770  0.7309 -0.1892  0.2069
  643SOL    HW2 2571   2.055   0.268   1.653  0.0339  0.9700  0.5477
  643SOL     MW 2572   2.047   0.338   1.705  0.3459  0.1431  0.1928
  644SOL     OW 2573   2.707   1.908   1.055 -0.1254  0.3519  0.4503
  644SOL    HW1 2574   2.643   1.860   1.110  1.8639  1.7154  0.6444
  644SOL    HW2 2575   2.657   1.937   0.983  1.1448  2.4520 -0.1409
  644SOL     MW 2576   2.692   1.906   1.053  0.3046  0.8089  0.3979
  645SOL     OW 2577   2.833   0.893   0.654 -0.0717  0.1637 -0.2964
  645SOL    HW1 2578   2.898   0.871   0.720  0.6353 -1.0723  1.5756
  645SOL    HW2 2579   2.781   0.813   0.637 -2.0306 -0.0171  1.7103
  645SOL     MW 2580   2.835   0.879   0.660 -0.2369 -0.0233  0.2153
  646SOL     OW 2581   0.169   2.258   0.850 -0.3428  0.0964 -0.9007
  646SOL    HW1 2582   0.202   2.164   0.846  0.0060 -1.0192 -2.2304
  646SOL    HW2 2583   0.123   2.264   0.762  1.9522 -0.1612  0.2105
  646SOL     MW 2584   0.167   2.246   0.838  0.0060 -0.0848 -0.9295
  647SOL     OW 2585   2.680   0.499   2.980  0.0088 -0.3058 -0.0074
  647SOL    HW1 2586   2.621   0.437   3.032  1.0708 -0.3351  2.4403
  647SOL    HW2 2587   2.641   0.578   2.998  0.9040 -2.9174 -1.4834
  647SOL     MW 2588   2.667   0.501   2.989  0.2671 -0.6543  0.1208
  648SOL     OW 2589   2.186   0.723   1.169 -0.0301  0.2896 -0.2334
  648SOL    HW1 2590   2.167   0.748   1.082 -0.8576 -0.3519  0.2107
  648SOL    HW2 2591   2.228   0.799   1.212  1.0038 -2.0437  0.9208
  648SOL     MW 2592   2.189   0.737   1.163 -0.0029 -0.1029 -0.0225
  649SOL     OW 2593   2.404   2.737   1.262  0.1023  0.1124 -0.0054
  649SOL    HW1 2594   2.481   2.790   1.263 -1.3085  0.8506  0.5690
  649SOL    HW2 2595   2.414   2.671   1.194 -1.3412  1.8784 -0.8128
  649SOL     MW 2596   2.415   2.735   1.253 -0.2743  0.4428 -0.0361
  650SOL     OW 2597   2.815   0.219   0.672  0.0639 -0.3505  0.0939
  650SOL    HW1 2598   2.856   0.295   0.722  1.1715  1.2297 -1.9868
  650SOL    HW2 2599   2.878   0.204   0.603 -0.5069 -1.2475  0.8465
  650SOL     MW 2600   2.829   0.227   0.670  0.1347 -0.2604 -0.0813
  651SOL     OW 2601   2.972   0.384   0.830  0.1022  0.4033 -0.3608
  651SOL    HW1 2602   3.060   0.421   0.797 -0.9878  1.8091  0.0125
  651SOL    HW2 2603   2.946   0.446   0.898 -0.8326  0.2032 -2.3486
  651SOL     MW 2604   2.980   0.397   0.834 -0.1650  0.5624 -0.5738
  652SOL     OW 2605   2.401   1.447   2.977 -0.1522  0.9401  0.2474
  652SOL    HW1 2606   2.480   1.471   2.927 -1.0641  0.5601  3.0994
  652SOL    HW2 2607   2.351   1.534   2.978  0.1742  0.4771  0.1161
  652SOL     MW 2608   2.405   1.462   2.971 -0.2294  0.8289  0.6064
  653SOL     OW 2609   1.949   0.428   0.314 -0.2280  0.2112 -0.5973
  653SOL    HW1 2610   1.934   0.343   0.274 -1.8069 -1.8087  1.1147
  653SOL    HW2 2611   2.042   0.453   0.306  1.4531  1.1521  2.8674
  653SOL     MW 2612   1.959   0.420   0.308 -0.2145  0.0689  0.0857
  654SOL     OW 2613   2.476   1.037   0.729 -0.0053 -0.3158 -0.2981
  654SOL    HW1 2614   2.380   1.047   0.716 -0.3492  2.6479 -1.2097
  654SOL    HW2 2615   2.499   0.947   0.743 -1.4706 -0.8634 -0.0009
  654SOL     MW 2616   2.467   1.026   0.729 -0.2440  0.0030 -0.3792
  655SOL     OW 2617   2.991   0.920   0.406  0.3220  0.1999 -0.4362
  655SOL    HW1 2618   2.978   0.964   0.488 -1.2788  0.5976 -0.1127
  655SOL    HW2 2619   2.984   0.823   0.427  0.4184 -1.7090  2.7179
  655SOL     MW 2620   2.989   0.913   0.419  0.1235  0.0005  0.0226
  656SOL     OW 2621   1.951   2.692   1.211 -0.1010 -0.7583 -0.3499
  656SOL    HW1 2622   1.913   2.767   1.264 -1.8897 -1.7937  0.9012
  656SOL    HW2 2623   1.968   2.628   1.279 -0.6433  2.9501 -0.0528
  656SOL     MW 2624   1.949   2.693   1.227 -0.4085 -0.4056 -0.1456
  657SOL     OW 2625   0.219   1.543   1.243 -0.3235  0.7830  0.1984
  657SOL    HW1 2626   0.130   1.528   1.262  1.2128  1.5765  2.2691
  657SOL    HW2 2627   0.237   1.495   1.163 -0.4771 -2.8979  1.6528
  657SOL     MW 2628   0.209   1.535   1.235 -0.1411  0.4020  0.6635
  658SOL     OW 2629   2.706   1.376   0.244 -0.3534 -0.2763  0.0084
  658SOL    HW1 2630   2.644   1.318   0.291 -2.2870  0.6200 -1.7364
  658SOL    HW2 2631   2.750   1.441   0.302  0.1732  0.9332 -3.5381
  658SOL     MW 2632   2.704   1.377   0.258 -0.5390  0.0016 -0.6897
  659SOL     OW 2633   2.296   1.527   1.033  0.5219 -0.3636 -0.2358
  659SOL    HW1 2634   2.372   1.507   1.081 -4.6580  0.1829 -1.9581
  659SOL    HW2 2635   2.239   1.546   1.111  1.6352  2.5198 -0.2760
  659SOL     MW 2636   2.298   1.527   1.050 -0.0147  0.0889 -0.4684
  660SOL     OW 2637   2.080   1.563   1.697 -0.0282 -0.2513  0.2479
  660SOL    HW1 2638   2.095   1.553   1.797  0.3608  0.7745 -0.7465
  660SOL    HW2 2639   2.014   1.499   1.679 -1.0605 -0.0124 -1.0071
  660SOL     MW 2640   2.073   1.553   1.708 -0.1131 -0.0844 -0.0489
  661SOL     OW 2641   2.400   1.114   0.147 -0.3022 -0.3625 -0.1072
  661SOL    HW1 2642   2.462   1.162   0.196  1.2229  0.7374 -1.9264
  661SOL    HW2 2643   2.381   1.035   0.194  0.0619  0.8088  0.1929
  661SOL     MW 2644   2.405   1.110   0.159 -0.0529 -0.0628 -0.3076
  662SOL     OW 2645   2.537   2.949   0.883  0.0097 -0.4290  0.2939
  662SOL    HW1 2646   2.488   3.015   0.934  0.7645 -2.6538 -0.6102
  662SOL    HW2 2647   2.558   3.002   0.805 -0.8330  0.8118 -0.6648
  662SOL     MW 2648   2.533   2.965   0.879 -0.0019 -0.5588  0.0481
  663SOL     OW 2649   2.837   1.565   0.412  0.2827 -0.2453 -0.4265
  663SOL    HW1 2650   2.899   1.627   0.384  0.9911 -0.0752  0.6055
  663SOL    HW2 2651   2.850   1.549   0.503  0.9122 -0.8478 -3.8179
  663SOL     MW 2652   2.847   1.571   0.420  0.4592 -0.3024 -0.7378
  664SOL     OW 2653   2.477   1.576   1.558 -0.4079 -0.4723  0.7662
  664SOL    HW1 2654   2.472   1.667   1.569 -1.4968 -1.2597 -2.2663
  664SOL    HW2 2655   2.399   1.541   1.602 -0.1612 -1.3084  1.2131
  664SOL     MW 2656   2.466   1.583   1.565 -0.5190 -0.6865  0.4251
  665SOL     OW 2657   2.871   0.809   2.066 -0.2994  0.1281  0.5685
  665SOL    HW1 2658   2.843   0.848   1.986 -0.5291 -2.3556 -0.9566
  665SOL    HW2 2659   2.949   0.760   2.039  1.4754  0.5195 -1.2348
  665SOL     MW 2660   2.878   0.808   2.052 -0.0956 -0.1479  0.1294
  666SOL     OW 2661   2.785   3.052   1.686  0.5712  0.3193 -0.1908
  666SOL    HW1 2662   2.792   3.072   1.594  0.6772 -0.6108  0.1612
  666SOL    HW2 2663   2.752   2.963   1.697 -0.8181 -1.6125  2.6810
  666SOL     MW 2664   2.782   3.043   1.676  0.4019 -0.0583  0.2346
  667SOL     OW 2665   1.973   2.703   1.615  0.1053 -0.1012  0.3478
  667SOL    HW1 2666   1.969   2.622   1.670  1.2245 -0.2416  0.1041
  667SOL    HW2 2667   2.059   2.737   1.651 -0.8840 -0.9593 -2.4279
  667SOL     MW 2668   1.984   2.697   1.627  0.1225 -0.2329 -0.0506
  668SOL     OW 2669   2.742   0.625   0.779  0.1505  0.4247  0.1391
  668SOL    HW1 2670   2.824   0.632   0.824 -1.4603  3.1167  3.2553
  668SOL    HW2 2671   2.690   0.698   0.809  1.3404 -3.0468 -1.0827
  668SOL     MW 2672   2.746   0.635   0.789  0.0950  0.3219  0.3891
  669SOL     OW 2673   0.181   0.932   0.691 -0.0964 -0.0070 -0.7386
  669SOL    HW1 2674   0.137   1.010   0.734 -0.8135  0.0443  1.2361
  669SOL    HW2 2675   0.283   0.944   0.715 -0.1679 -1.0887 -1.1010
  669SOL     MW 2676   0.188   0.944   0.700 -0.2004 -0.1430 -0.5259
  670SOL     OW 2677   2.947   0.291   0.191 -0.0629  0.1006  0.0326
  670SOL    HW1 2678   2.937   0.218   0.122  0.6726 -1.6787  0.2492
  670SOL    HW2 2679   2.948   0.375   0.140  0.7649  0.8055 -0.6712
  670SOL     MW 2680   2.946   0.292   0.175  0.1434 -0.0412 -0.0317
  671SOL     OW 2681   2.158   3.063   1.594  0.1689 -0.4877 -0.5175
  671SOL    HW1 2682   2.150   3.117   1.520  0.5713 -0.3261  0.5505
  671SOL    HW2 2683   2.068   3.079   1.636 -3.8412 -1.5447 -2.0752
  671SOL     MW 2684   2.145   3.072   1.590 -0.3071 -0.6058 -0.5821
  672SOL     OW 2685   1.877   1.700   1.332  0.2585 -0.3394 -0.4111
  672SOL    HW1 2686   1.788   1.718   1.372 -2.5059  0.6745  1.6823
  672SOL    HW2 2687   1.868   1.764   1.257  1.0181 -2.6964  2.1705
  672SOL     MW 2688   1.864   1.711   1.327 -0.0060 -0.5166  0.2057
  673SOL     OW 2689   2.784   1.111   0.502  0.1990  0.1252  0.1755
  673SOL    HW1 2690   2.779   1.029   0.555  2.1488  0.1808  0.7864
  673SOL    HW2 2691   2.872   1.163   0.521  3.1951  0.4116 -1.2613
  673SOL     MW 2692   2.795   1.107   0.511  0.8516  0.1703  0.0666
  674SOL     OW 2693   2.494   0.082   1.244  0.2644 -0.1544 -0.6599
  674SOL    HW1 2694   2.434   0.074   1.170  2.6944  1.7267  0.8447
  674SOL    HW2 2695   2.533  -0.009   1.258  0.1414  1.9520 -0.7290
  674SOL     MW 2696   2.491   0.069   1.236  0.5688  0.3717 -0.4705
  675SOL     OW 2697   3.004   1.017   1.105  0.3516 -0.6627  0.0411
  675SOL    HW1 2698   3.057   0.984   1.175  1.6380  3.5250 -0.4534
  675SOL    HW2 2699   3.058   1.054   1.039 -1.0471 -3.2910 -2.4438
  675SOL     MW 2700   3.018   1.017   1.106  0.3368 -0.4570 -0.3520
  676SOL     OW 2701   2.817   1.510   1.605  0.7483  0.0901  0.5001
  676SOL    HW1 2702   2.795   1.414   1.590  0.1012 -2.4064  0.7917
  676SOL    HW2 2703   2.897   1.503   1.659  0.1434 -1.1675 -4.4098
  676SOL     MW 2704   2.825   1.497   1.610  0.5831 -0.4053 -0.1092
  677SOL     OW 2705   2.410   0.785   1.884  0.0832 -0.7251 -0.2608
  677SOL    HW1 2706   2.387   0.689   1.872 -0.9356 -1.6430  0.9933
  677SOL    HW2 2707   2.379   0.813   1.973 -0.7960  0.9956  2.6646
  677SOL     MW 2708   2.403   0.776   1.894 -0.1672 -0.6192  0.2906
  678SOL     OW 2709   2.536   1.595   0.456 -0.0263 -0.5296 -0.3487
  678SOL    HW1 2710   2.474   1.663   0.416 -2.5169 -0.2989  0.6113
  678SOL    HW2 2711   2.624   1.628   0.426  0.2321  5.6866  0.1043
  678SOL     MW 2712   2.539   1.608   0.447 -0.3208  0.3210 -0.1623
  679SOL     OW 2713   2.318   0.505   1.102 -0.6784  0.3044  0.2602
  679SOL    HW1 2714   2.277   0.434   1.157  2.1837  0.8110  4.0132
  679SOL    HW2 2715   2.265   0.584   1.124 -2.5193  1.0379 -2.1893
  679SOL     MW 2716   2.306   0.506   1.112 -0.5437  0.4680  0.4322
  680SOL     OW 2717   2.385   0.276   1.436  0.5010  0.3586 -0.1622
  680SOL    HW1 2718   2.349   0.212   1.503 -1.8149 -4.9152  0.1238
  680SOL    HW2 2719   2.403   0.210   1.368 -1.7494 -0.5330  0.9635
  680SOL     MW 2720   2.383   0.259   1.436 -0.1015 -0.4549  0.0241
  681SOL     OW 2721   0.305   0.556   1.584  0.3677  0.3669 -0.4155
  681SOL    HW1 2722   0.289   0.464   1.610 -1.1215  1.4820  1.6603
  681SOL    HW2 2723   0.395   0.571   1.568 -0.3821  4.1516  0.0550
  681SOL     MW 2724   0.314   0.546   1.585  0.0723  1.0134 -0.0795
  682SOL     OW 2725   0.133   2.982   1.486 -0.2708 -0.0926 -0.0369
  682SOL    HW1 2726   0.140   3.076   1.451  1.8048 -1.1378 -3.4610
  682SOL    HW2 2727   0.088   2.994   1.573 -0.1491 -0.7357 -0.2901
  682SOL     MW 2728   0.128   2.996   1.493  0.0191 -0.3154 -0.5221
  683SOL     OW 2729   2.074   0.811   3.019  0.2333 -0.1449  0.3141
  683SOL    HW1 2730   1.987   0.784   2.992  0.5468 -0.6258  0.5950
  683SOL    HW2 2731   2.056   0.888   3.067 -1.1944  1.6919 -0.7003
  683SOL     MW 2732   2.060   0.817   3.022  0.0863  0.0340  0.2173
  684SOL     OW 2733   2.170   1.760   0.876  0.1825 -0.3138  0.6494
  684SOL    HW1 2734   2.077   1.738   0.872  2.1098 -0.0491  2.3712
  684SOL    HW2 2735   2.212   1.698   0.932 -1.8932  0.5381 -1.8638
  684SOL     MW 2736   2.163   1.749   0.883  0.1629 -0.1664  0.5450
  685SOL     OW 2737   2.567   1.728   1.234  0.2817 -0.2148  0.4951
  685SOL    HW1 2738   2.615   1.725   1.315  0.2395  2.3850  1.7331
  685SOL    HW2 2739   2.577   1.639   1.197 -0.7715 -1.3426 -1.4269
  685SOL     MW 2740   2.574   1.715   1.240  0.1372 -0.0206  0.4049
  686SOL     OW 2741   2.889   0.713   1.473 -0.4173 -0.0647 -0.4886
  686SOL    HW1 2742   2.886   0.662   1.556  1.6813  1.8379  0.9552
  686SOL    HW2 2743   2.934   0.670   1.403  3.3618 -1.0857 -0.1935
  686SOL     MW 2744   2.895   0.700   1.475  0.3582  0.0516 -0.2592
  687SOL     OW 2745   2.161   0.307   1.213 -0.1450  0.0226  0.1600
  687SOL    HW1 2746   2.145   0.267   1.122 -1.1023 -1.7240 -0.6038
  687SOL    HW2 2747   2.091   0.371   1.222 -0.1044 -1.3354 -3.0963
  687SOL     MW 2748   2.150   0.310   1.202 -0.2660 -0.3870 -0.3704
  688SOL     OW 2749   2.393   0.578   1.460  0.2210  1.0334  0.0767
  688SOL    HW1 2750   2.426   0.505   1.512 -0.0030  0.4428 -2.4690
  688SOL    HW2 2751   2.303   0.550   1.441 -1.5014  0.1973  0.7055
  688SOL     MW 2752   2.386   0.565   1.464 -0.0358  0.8452 -0.1762
  689SOL     OW 2753   2.569   0.758   2.991 -0.6078 -0.3688 -0.4219
  689SOL    HW1 2754   2.576   0.839   2.942  1.9287  2.0155  2.5880
  689SOL    HW2 2755   2.583   0.765   3.088 -1.1120 -0.2339  1.8221
  689SOL     MW 2756   2.572   0.769   2.997 -0.3397 -0.0364  0.2713
  690SOL     OW 2757   2.102   0.973   1.938  0.0962  0.0268 -0.0450
  690SOL    HW1 2758   2.049   0.892   1.955  0.2832 -0.4759 -0.3901
  690SOL    HW2 2759   2.111   0.981   1.839  2.8743 -0.9255 -1.8958
  690SOL     MW 2760   2.096   0.963   1.927  0.4875 -0.1652 -0.3347
  691SOL     OW 2761   2.444   0.258   0.816  0.2133  0.2940 -0.0139
  691SOL    HW1 2762   2.523   0.292   0.855 -0.8883  0.4887 -1.5791
  691SOL    HW2 2763   2.369   0.317   0.842 -2.4479  2.1229  1.7977
  691SOL     MW 2764   2.444   0.271   0.824 -0.2831  0.5610  0.0186
  692SOL     OW 2765   2.809   1.706   1.417  0.0234 -0.1444  0.3900
  692SOL    HW1 2766   2.794   1.643   1.487 -0.3488  5.1202  1.1201
  692SOL    HW2 2767   2.835   1.782   1.453 -0.8272 -0.4247 -1.2785
  692SOL     MW 2768   2.810   1.708   1.431 -0.1379  0.5132  0.2661
  693SOL     OW 2769   2.309   0.459   0.101  0.6289  0.0512  0.4504
  693SOL    HW1 2770   2.236   0.429   0.063  2.3940 -0.8547  0.3322
  693SOL    HW2 2771   2.323   0.552   0.072 -0.9419 -0.3204 -0.1511
  693SOL     MW 2772   2.301   0.467   0.092  0.6545 -0.1173  0.3554
  694SOL     OW 2773   1.959   1.257   1.105 -0.0372  0.7387 -1.0405
  694SOL    HW1 2774   2.047   1.232   1.130  0.0555  0.1492  0.1239
  694SOL    HW2 2775   1.902   1.205   1.166 -1.5308  2.3541 -0.4902
  694SOL     MW 2776   1.963   1.247   1.117 -0.2220  0.8741 -0.8143
  695SOL     OW 2777   2.950   1.449   1.308  0.0367 -0.1686  0.0892
  695SOL    HW1 2778   2.926   1.435   1.213 -0.2297  1.8572 -1.0531
  695SOL    HW2 2779   2.904   1.533   1.326  1.4857  0.3214  2.0303
  695SOL     MW 2780   2.941   1.458   1.298  0.1927  0.1633  0.1946
  696SOL     OW 2781   2.101   1.392   0.916  0.3919 -0.0259 -0.0760
  696SOL    HW1 2782   2.169   1.415   0.976  1.1426  0.2443  1.5786
  696SOL    HW2 2783   2.031   1.352   0.975 -1.5844 -2.3684 -0.2169
  696SOL     MW 2784   2.101   1.389   0.932  0.2302 -0.2993  0.1237
  697SOL     OW 2785   2.886   1.040   2.231  0.1174  0.8930 -1.2306
  697SOL    HW1 2786   2.823   1.099   2.205  2.1668  1.7075  1.7144
  697SOL    HW2 2787   2.866   0.951   2.199  0.5153  1.5945 -0.4883
  697SOL     MW 2788   2.875   1.036   2.224  0.4403  1.0930 -0.7441
  698SOL     OW 2789   2.525   0.341   0.018 -0.1927 -0.5416 -0.0818
  698SOL    HW1 2790   2.454   0.380   0.059 -0.8007 -1.1246 -2.7110
  698SOL    HW2 2791   2.569   0.285   0.090  3.1412 -0.2893  1.0087
  698SOL     MW 2792   2.521   0.339   0.033  0.1669 -0.5853 -0.2848
  699SOL     OW 2793   1.860   1.636   2.067 -0.1617  0.1929 -0.0570
  699SOL    HW1 2794   1.830   1.543   2.071 -0.4589  2.0146 -0.9403
  699SOL    HW2 2795   1.955   1.631   2.042  0.2695  0.5425  1.4726
  699SOL     MW 2796   1.869   1.623   2.064 -0.1440  0.4794  0.0283
  700SOL     OW 2797   2.712   0.909   1.557 -0.1312  0.0428  0.0573
  700SOL    HW1 2798   2.703   0.965   1.480 -1.1468 -1.7124 -1.3449
  700SOL    HW2 2799   2.780   0.842   1.532 -1.5065  3.2105 -0.1705
  700SOL     MW 2800   2.720   0.908   1.543 -0.4467  0.2292 -0.1578
  701SOL     OW 2801   1.664   1.272   2.621 -0.2647 -0.2591 -0.3357
  701SOL    HW1 2802   1.747   1.322   2.610 -1.5062  0.9516 -0.2766
  701SOL    HW2 2803   1.601   1.327   2.664 -1.1600 -2.4989 -1.4522
  701SOL     MW 2804   1.666   1.286   2.625 -0.5466 -0.3949 -0.4752
  702SOL     OW 2805   2.233   0.424   0.830 -0.5757 -0.0869  0.2578
  702SOL    HW1 2806   2.196   0.353   0.773 -2.1195 -1.6393  0.2539
  702SOL    HW2 2807   2.273   0.493   0.771  0.6446  1.6608 -0.0977
  702SOL     MW 2808   2.233   0.424   0.814 -0.6184 -0.0612  0.2104
  703SOL     OW 2809   2.688   1.302   0.984  0.8276  0.6041 -0.0598
  703SOL    HW1 2810   2.681   1.282   0.892 -2.0855  0.8765 -0.1710
  703SOL    HW2 2811   2.690   1.211   1.023  2.3377 -2.4868  0.2950
  703SOL     MW 2812   2.687   1.287   0.977  0.6425  0.2322 -0.0276
  704SOL     OW 2813   0.014   1.330   0.272  0.0083  0.1735  0.3243
  704SOL    HW1 2814  -0.054   1.313   0.203 -2.3320  3.1356  0.6215
  704SOL    HW2 2815   0.047   1.241   0.301 -0.3062  1.8702  3.6307
  704SOL     MW 2816   0.010   1.316   0.267 -0.3420  0.7881  0.7998
  705SOL     OW 2817   2.130   1.623   1.258 -0.4291  0.3144 -0.1578
  705SOL    HW1 2818   2.038   1.664   1.280 -1.2311  2.8953  0.1981
  705SOL    HW2 2819   2.152   1.553   1.328  0.0780  0.4134 -0.1539
  705SOL     MW 2820   2.120   1.619   1.270 -0.4680  0.6680 -0.1103
  706SOL     OW 2821   2.999   1.241   0.596 -0.0773 -0.2459  0.2498
  706SOL    HW1 2822   3.090   1.230   0.576 -0.3876  1.1318 -2.1462
  706SOL    HW2 2823   2.979   1.334   0.613 -3.9079  0.6974  0.9857
  706SOL     MW 2824   3.008   1.252   0.596 -0.6236  0.0604  0.0307
  707SOL     OW 2825   2.375   0.063   0.992 -0.4373  0.0839 -0.2074
  707SOL    HW1 2826   2.404   0.132   0.931  0.0916 -0.7751  0.3752
  707SOL    HW2 2827   2.284   0.085   0.988  1.2737  0.4493 -1.7766
  707SOL     MW 2828   2.367   0.075   0.984 -0.1418  0.0188 -0.3375
  708SOL     OW 2829   2.533   1.579   0.101 -0.4136  0.1162  0.2348
  708SOL    HW1 2830   2.572   1.511   0.154  1.4070  1.0838  2.5683
  708SOL    HW2 2831   2.474   1.535   0.039  2.2581 -0.6846  2.9112
  708SOL     MW 2832   2.530   1.564   0.100  0.1791  0.1382  0.8958
  709SOL     OW 2833   1.675   1.770   0.092 -0.0978 -0.5617  0.3062
  709SOL    HW1 2834   1.610   1.821   0.049  2.1798 -2.2877  2.0952
  709SOL    HW2 2835   1.644   1.733   0.178 -0.9415 -0.8404  0.0002
  709SOL     MW 2836   1.662   1.772   0.097  0.0914 -0.8262  0.5019
  710SOL     OW 2837   2.186   1.143   1.186 -0.5719 -0.0361  0.1144
  710SOL    HW1 2838   2.229   1.136   1.095  1.3961  1.8400  0.8762
  710SOL    HW2 2839   2.242   1.077   1.237  1.7216 -0.5124  0.7621
  710SOL     MW 2840   2.199   1.133   1.181 -0.0096  0.1486  0.3004
  711SOL     OW 2841   2.330   0.141   1.705 -0.1804 -0.4124  0.5107
  711SOL    HW1 2842   2.414   0.102   1.726 -0.7168  2.9181  0.0332
  711SOL    HW2 2843   2.295   0.055   1.673  2.2838 -3.0821  1.0893
  711SOL     MW 2844   2.336   0.125   1.703  0.0739 -0.3252  0.5240
  712SOL     OW 2845   1.661   0.616   3.054  0.9122  0.3444  0.1377
  712SOL    HW1 2846   1.722   0.676   3.004  0.3447  1.8306  3.0539
  712SOL    HW2 2847   1.640   0.648   3.139 -0.8544 -1.4516  3.6213
  712SOL     MW 2848   1.667   0.628   3.058  0.6043  0.3035  0.9821
  713SOL     OW 2849   2.581   0.822   1.130 -0.2115 -0.3366 -0.4050
  713SOL    HW1 2850   2.600   0.725   1.130  0.4005 -1.7830  2.2902
  713SOL    HW2 2851   2.559   0.833   1.229  0.2278  1.9689 -1.7228
  713SOL     MW 2852   2.580   0.811   1.143 -0.0728 -0.2233 -0.2233
  714SOL     OW 2853   2.230   0.152   1.959 -0.3780  0.4950 -0.1869
  714SOL    HW1 2854   2.288   0.126   2.032  1.1797  1.1003 -1.9217
  714SOL    HW2 2855   2.269   0.149   1.869 -2.4858  0.7227 -2.2701
  714SOL     MW 2856   2.243   0.148   1.957 -0.4506  0.6049 -0.6907
  715SOL     OW 2857   1.736   1.918   1.718 -0.4765  0.5837 -0.1877
  715SOL    HW1 2858   1.832   1.895   1.700  0.2464 -2.3982  0.5647
  715SOL    HW2 2859   1.697   1.843   1.768 -3.3409 -0.3625 -0.2256
  715SOL     MW 2860   1.743   1.905   1.722 -0.7591  0.0654 -0.0935
  716SOL     OW 2861   2.395   0.619   0.700  0.2070 -0.4448  0.4394
  716SOL    HW1 2862   2.419   0.549   0.636  1.5387 -1.9330  3.1783
  716SOL    HW2 2863   2.341   0.674   0.645  0.0121 -2.2468 -0.9695
  716SOL     MW 2864   2.391   0.617   0.684  0.3570 -0.8789  0.6149
  717SOL     OW 2865   2.839   1.463   2.942  0.1557 -0.2171 -0.1551
  717SOL    HW1 2866   2.932   1.444   2.963  0.6572 -0.5253  0.1301
  717SOL    HW2 2867   2.808   1.533   3.011  1.6495  2.3088  2.1446
  717SOL     MW 2868   2.847   1.470   2.954  0.4190  0.0755  0.1860
  718SOL     OW 2869   2.535   1.322   1.395 -0.0820 -0.2848  0.0193
  718SOL    HW1 2870   2.562   1.395   1.448  0.2528  2.1956 -0.3162
  718SOL    HW2 2871   2.610   1.259   1.400  0.4676  3.1378 -2.0554
  718SOL     MW 2872   2.549   1.323   1.403  0.0347  0.4941 -0.2987
  719SOL     OW 2873   2.155   1.385   0.643 -0.1053  0.5757 -0.3428
  719SOL    HW1 2874   2.257   1.389   0.647  2.0091 -2.3569  1.8641
  719SOL    HW2 2875   2.140   1.394   0.741  2.0174  0.8565  0.5614
  719SOL     MW 2876   2.167   1.386   0.657  0.4537  0.2258  0.0677
  720SOL     OW 2877   2.891   1.214   0.133  0.0555 -0.5233 -0.3483
  720SOL    HW1 2878   2.863   1.127   0.157 -0.0293 -0.5360 -0.2809
  720SOL    HW2 2879   2.818   1.263   0.163  0.8055  0.3413  0.4606
  720SOL     MW 2880   2.878   1.209   0.140  0.1433 -0.4109 -0.2327
  721SOL     OW 2881   2.507   0.815   1.396  0.1203  0.0592 -0.7643
  721SOL    HW1 2882   2.477   0.723   1.422  1.8955  1.8080  4.8009
  721SOL    HW2 2883   2.573   0.831   1.466 -0.7121 -2.0533  0.1606
  721SOL     MW 2884   2.512   0.805   1.408  0.2447  0.0112  0.0920
  722SOL     OW 2885   2.553   1.200   0.374  0.1738  0.4131  0.1788
  722SOL    HW1 2886   2.530   1.235   0.455  1.5218 -2.0139  1.1503
  722SOL    HW2 2887   2.632   1.155   0.409 -3.0200 -0.3418  0.1290
  722SOL     MW 2888   2.560   1.199   0.389 -0.0697 -0.0067  0.3004
  723SOL     OW 2889   2.275   1.394   1.632 -0.3853  0.1791 -0.1052
  723SOL    HW1 2890   2.277   1.383   1.536 -1.0366  0.3450  0.3595
  723SOL    HW2 2891   2.206   1.459   1.645  1.5529  0.3163 -0.6627
  723SOL     MW 2892   2.266   1.401   1.621 -0.2155  0.2191 -0.1174
  724SOL     OW 2893   2.452   0.365   0.579  0.2368  0.2349  0.3213
  724SOL    HW1 2894   2.447   0.315   0.659  0.8100  0.5874  1.9994
  724SOL    HW2 2895   2.544   0.370   0.567 -0.0487 -3.1589 -2.1374
  724SOL     MW 2896   2.463   0.359   0.588  0.2748 -0.1664  0.2183
  725SOL     OW 2897   2.593   0.529   1.140 -0.2791 -0.0585 -0.4063
  725SOL    HW1 2898   2.625   0.470   1.213  1.9355 -2.4210  2.4757
  725SOL    HW2 2899   2.498   0.512   1.143  0.8471  0.3578  0.2633
  725SOL     MW 2900   2.585   0.519   1.150  0.1617 -0.3153  0.0623
  726SOL     OW 2901   2.578   2.428   0.494  0.3073  0.0700 -0.8695
  726SOL    HW1 2902   2.509   2.464   0.436  0.3530  3.1290  0.9445
  726SOL    HW2 2903   2.533   2.412   0.578 -2.9105  0.9543  2.6919
  726SOL     MW 2904   2.563   2.430   0.498 -0.1113  0.5903 -0.1603
  727SOL     OW 2905   2.808   0.272   1.636  0.8822  0.0899 -0.1603
  727SOL    HW1 2906   2.831   0.270   1.543  2.0607 -2.3755 -3.0862
  727SOL    HW2 2907   2.716   0.303   1.640  1.9567  0.0515  0.4038
  727SOL     MW 2908   2.799   0.276   1.624  1.1794 -0.2405 -0.4719
  728SOL     OW 2909   2.796   1.185   2.956  0.2433 -0.0178  0.0229
  728SOL    HW1 2910   2.836   1.273   2.934  0.0542  1.9901 -3.1410
  728SOL    HW2 2911   2.784   1.196   3.051  0.6657  5.2943  1.0313
  728SOL     MW 2912   2.799   1.198   2.965  0.2741  0.9480 -0.2615
  729SOL     OW 2913   2.526   1.464   1.170 -0.2466  0.3944  0.2216
  729SOL    HW1 2914   2.535   1.414   1.252 -3.2820  3.7193 -1.0372
  729SOL    HW2 2915   2.562   1.418   1.097  1.2104  1.3853  2.1218
  729SOL     MW 2916   2.532   1.452   1.171 -0.4548  0.9639  0.3062
  730SOL     OW 2917   2.140   1.129   0.289 -0.2129 -0.7139  0.4324
  730SOL    HW1 2918   2.215   1.154   0.230  1.6719  0.0378 -2.2124
  730SOL    HW2 2919   2.093   1.207   0.308 -0.1718 -0.8338  0.7063
  730SOL     MW 2920   2.144   1.142   0.283  0.0412 -0.6305  0.1196
  731SOL     OW 2921   2.817   1.860   2.909 -0.5463  0.0480 -0.4241
  731SOL    HW1 2922   2.729   1.867   2.874 -0.2829  1.8894  4.1305
  731SOL    HW2 2923   2.861   1.944   2.888 -1.4134  0.1220 -1.5197
  731SOL     MW 2924   2.811   1.872   2.901 -0.6259  0.3007  0.0323
  732SOL     OW 2925   2.284   0.925   1.309 -0.2098 -0.0446 -0.0291
  732SOL    HW1 2926   2.209   0.926   1.370  0.6209 -1.6885  0.8674
  732SOL    HW2 2927   2.354   0.907   1.372  2.0256  2.4907  3.6692
  732SOL     MW 2928   2.283   0.923   1.325  0.1947  0.0730  0.5771
  733SOL     OW 2929   2.348   2.838   3.050  0.6670  0.0758  0.3727
  733SOL    HW1 2930   2.274   2.900   3.045 -1.5123 -2.0138 -0.2748
  733SOL    HW2 2931   2.304   2.758   3.076  0.1398 -0.0358 -2.0713
  733SOL     MW 2932   2.332   2.835   3.053  0.3099 -0.2147 -0.0352
  734SOL     OW 2933   1.494   0.371   2.449 -0.1630 -0.2449  0.2762
  734SOL    HW1 2934   1.471   0.323   2.526  0.0563 -1.1567  1.6557
  734SOL    HW2 2935   1.512   0.298   2.390  0.0915  0.4052  2.2529
  734SOL     MW 2936   1.493   0.355   2.451 -0.1005 -0.2794  0.7190
  735SOL     OW 2937   3.081   0.948   2.641 -0.3101  0.8695 -0.4532
  735SOL    HW1 2938   3.038   0.866   2.621 -2.4343  2.4232 -0.5205
  735SOL    HW2 2939   3.071   0.955   2.736 -0.1433  1.3307  0.5421
  735SOL     MW 2940   3.074   0.938   2.651 -0.5684  1.1353 -0.3308
  736SOL     OW 2941   0.051   0.591   2.493 -0.0091  0.1426  0.3635
  736SOL    HW1 2942   0.092   0.630   2.413  2.0491  0.6375  1.1312
  736SOL    HW2 2943   0.024   0.499   2.472 -2.2374 -0.7520  0.8353
  736SOL     MW 2944   0.053   0.584   2.479 -0.0316  0.0899  0.5270
  737SOL     OW 2945   2.928   0.719   2.597  0.3662 -0.2682  0.5475
  737SOL    HW1 2946   2.859   0.683   2.544 -0.1069  0.3280  1.4331
  737SOL    HW2 2947   3.001   0.681   2.548 -0.1027  0.8724  0.7331
  737SOL     MW 2948   2.929   0.709   2.584  0.2419 -0.0390  0.6888
  738SOL     OW 2949   0.180   0.488   1.978  0.2337  0.7714 -0.1534
  738SOL    HW1 2950   0.268   0.478   1.948 -0.8448 -2.2054  0.4831
  738SOL    HW2 2951   0.174   0.405   2.024  0.2448  2.5637 -0.5708
  738SOL     MW 2952   0.191   0.475   1.980  0.0929  0.6151 -0.1245
  739SOL     OW 2953   2.537   0.961   2.153  0.1533 -0.3907  0.1474
  739SOL    HW1 2954   2.453   0.914   2.158  0.2450 -3.1561  0.4470
  739SOL    HW2 2955   2.554   1.004   2.068  2.8581 -2.4189  0.9096
  739SOL     MW 2956   2.528   0.961   2.142  0.5223 -1.0232  0.2875
  740SOL     OW 2957   0.171   1.723   2.979 -0.0427  0.9468  0.0462
  740SOL    HW1 2958   0.111   1.650   2.976  0.4053  1.7887 -1.0457
  740SOL    HW2 2959   0.247   1.681   3.016 -1.6884 -1.7716 -1.3223
  740SOL     MW 2960   0.173   1.708   2.984 -0.2007  0.6992 -0.2784
  741SOL     OW 2961   2.217   1.196   2.743 -0.6198 -0.1467  0.0511
  741SOL    HW1 2962   2.234   1.285   2.702  0.1756 -0.1058 -1.1618
  741SOL    HW2 2963   2.164   1.202   2.823 -0.2320 -1.7214 -0.1911
  741SOL     MW 2964   2.212   1.209   2.748 -0.4637 -0.3491 -0.1409
  742SOL     OW 2965   1.667   1.350   2.312 -0.4198 -0.0402 -0.4023
  742SOL    HW1 2966   1.606   1.273   2.297  2.2268 -3.3217 -0.6699
  742SOL    HW2 2967   1.702   1.333   2.402  1.1254  1.0992 -2.6210
  742SOL     MW 2968   1.663   1.338   2.322  0.1333 -0.3229 -0.7303
  743SOL     OW 2969   2.485   1.226   2.692  0.7937  0.4306 -0.1227
  743SOL    HW1 2970   2.407   1.235   2.753 -2.4551  1.2366  0.4040
  743SOL    HW2 2971   2.522   1.146   2.727  1.9970 -2.7848 -2.5755
  743SOL     MW 2972   2.480   1.217   2.705  0.5238  0.1127 -0.3769
  744SOL     OW 2973   2.771   0.907   1.841  0.4766  0.6636  0.1488
  744SOL    HW1 2974   2.704   0.974   1.839 -1.8480  0.7996 -0.7986
  744SOL    HW2 2975   2.747   0.839   1.780  1.6467 -1.0699  3.6441
  744SOL     MW 2976   2.759   0.907   1.833  0.3243  0.4528  0.4850
  745SOL     OW 2977   1.765   0.455   2.495  0.1148 -0.4743  0.0766
  745SOL    HW1 2978   1.802   0.479   2.410  0.2221 -3.5782 -0.9463
  745SOL    HW2 2979   1.675   0.430   2.485  1.4590  0.0412 -1.9230
  745SOL     MW 2980   1.758   0.455   2.482  0.3063 -0.8159 -0.3222
  746SOL     OW 2981   1.543   1.459   1.669 -0.4417 -0.4753  0.0488
  746SOL    HW1 2982   1.594   1.536   1.696 -1.5342 -0.5906 -0.3834
  746SOL    HW2 2983   1.543   1.414   1.752  1.1385 -0.0854 -2.6951
  746SOL     MW 2984   1.550   1.463   1.684 -0.3773 -0.4391 -0.3703
  747SOL     OW 2985   2.564   1.089   1.920 -0.3420 -0.3980  0.3013
  747SOL    HW1 2986   2.476   1.070   1.896 -1.6015  0.1979 -1.9029
  747SOL    HW2 2987   2.562   1.183   1.949 -0.3096 -0.6886  0.0687
  747SOL     MW 2988   2.552   1.099   1.921 -0.5039 -0.3577 -0.0202
  748SOL     OW 2989   0.092   3.077   1.909 -0.0997 -0.4627 -0.0729
  748SOL    HW1 2990   0.184   3.096   1.883  1.1059  2.0470  1.3663
  748SOL    HW2 2991   0.066   3.140   1.972  0.0797 -0.8462 -1.7504
  748SOL     MW 2992   0.101   3.088   1.914  0.0830 -0.1822 -0.1043
  749SOL     OW 2993   2.391   0.628   2.783 -0.0826 -0.2138 -0.2570
  749SOL    HW1 2994   2.429   0.691   2.716  0.9289  1.8987 -0.2117
  749SOL    HW2 2995   2.394   0.682   2.864  0.5011 -2.1206 -0.8032
  749SOL     MW 2996   2.397   0.643   2.785  0.1279 -0.1867 -0.3231
  750SOL     OW 2997   2.099   3.017   1.951 -0.4962  0.0256 -0.0689
  750SOL    HW1 2998   2.152   3.093   1.958 -2.2165  1.5481  1.5792
  750SOL    HW2 2999   2.165   2.944   1.968 -1.1374  1.2052 -0.1663
  750SOL     MW 3000   2.115   3.018   1.954 -0.8078  0.3821  0.1357
  751SOL     OW 3001   3.070   0.340   2.411  0.2327 -0.0630 -0.4231
  751SOL    HW1 3002   2.991   0.354   2.357 -0.9901  0.3921  0.2782
  751SOL    HW2 3003   3.141   0.306   2.360 -2.6611 -1.6631  0.9518
  751SOL     MW 3004   3.069   0.338   2.397 -0.3104 -0.2140 -0.1491
  752SOL     OW 3005   2.154   0.900   2.774  0.4858 -0.5236 -0.1203
  752SOL    HW1 3006   2.174   0.993   2.781  1.0345  0.4177  1.5094
  752SOL    HW2 3007   2.131   0.876   2.867 -1.1851  0.3161 -0.8917
  752SOL     MW 3008   2.154   0.909   2.787  0.3377 -0.2886 -0.0071
  753SOL     OW 3009   2.817   0.379   2.289 -0.1370  0.3028  0.2050
  753SOL    HW1 3010   2.762   0.301   2.299 -1.1612 -0.6166  0.4342
  753SOL    HW2 3011   2.771   0.453   2.320  0.2474 -0.6565 -2.0098
  753SOL     MW 3012   2.804   0.378   2.294 -0.2214  0.0549 -0.0570
  754SOL     OW 3013   2.306   2.955   2.646  0.0547 -0.0940  0.4102
  754SOL    HW1 3014   2.305   2.937   2.555  0.5314  1.9478  1.2826
  754SOL    HW2 3015   2.374   2.903   2.694  0.0323 -0.7430  0.5533
  754SOL     MW 3016   2.314   2.946   2.640  0.1147  0.0898  0.5442
  755SOL     OW 3017   2.790   1.595   2.469 -0.0243  0.1562  0.1754
  755SOL    HW1 3018   2.745   1.512   2.480  0.5289 -1.2370  1.5019
  755SOL    HW2 3019   2.832   1.616   2.555 -0.8203 -0.6251  2.5618
  755SOL     MW 3020   2.789   1.586   2.482 -0.0563 -0.1307  0.6653
  756SOL     OW 3021   2.163   1.259   2.995  0.3128 -0.2740 -0.0347
  756SOL    HW1 3022   2.240   1.323   3.022  0.6031 -1.3686  0.4003
  756SOL    HW2 3023   2.205   1.173   3.007  2.0972  1.7855 -2.1449
  756SOL     MW 3024   2.179   1.256   3.000  0.5865 -0.1467 -0.2557
  757SOL     OW 3025   2.169   0.962   1.673  0.1066  0.2100 -0.5093
  757SOL    HW1 3026   2.165   0.868   1.683 -0.7201  0.5250 -0.2243
  757SOL    HW2 3027   2.112   0.979   1.596 -0.5246  2.0819 -3.1255
  757SOL     MW 3028   2.161   0.952   1.664 -0.0858  0.4985 -0.8169
  758SOL     OW 3029   2.233   1.841   2.647 -0.3334 -0.0314  0.1224
  758SOL    HW1 3030   2.243   1.833   2.553  0.4098  0.1039 -2.0637
  758SOL    HW2 3031   2.320   1.816   2.685 -0.7849  1.9436  0.5779
  758SOL     MW 3032   2.246   1.837   2.639 -0.2949  0.2471 -0.1060
  759SOL     OW 3033   1.539   1.471   2.799 -0.5928 -0.2985 -0.0298
  759SOL    HW1 3034   1.583   1.529   2.732  0.3177 -1.0083 -0.1255
  759SOL    HW2 3035   1.599   1.482   2.874  0.3883  1.4890  2.1221
  759SOL     MW 3036   1.553   1.480   2.800 -0.3432 -0.1563  0.2415
  760SOL     OW 3037   2.612   1.961   2.722 -0.1952 -0.5368  0.4476
  760SOL    HW1 3038   2.572   1.874   2.728  0.7112 -1.0353  0.8599
  760SOL    HW2 3039   2.690   1.961   2.670 -1.2751  1.0538  0.4691
  760SOL     MW 3040   2.617   1.950   2.716 -0.2181 -0.3927  0.5048
  761SOL     OW 3041   2.208   0.461   2.473  0.0931  0.1736 -0.1785
  761SOL    HW1 3042   2.141   0.397   2.460 -0.1210  1.2373  0.5553
  761SOL    HW2 3043   2.168   0.532   2.522 -1.7869  0.0281 -0.0423
  761SOL     MW 3044   2.194   0.462   2.478 -0.1832  0.2947 -0.0637
  762SOL     OW 3045   0.032   0.170   2.101  0.3399 -0.1919  0.2539
  762SOL    HW1 3046  -0.014   0.128   2.175  0.4228 -1.1527  0.9766
  762SOL    HW2 3047  -0.039   0.229   2.068  1.3051 -0.4833 -0.5222
  762SOL     MW 3048   0.016   0.172   2.106  0.4782 -0.3571  0.2469
  763SOL     OW 3049   2.455   1.152   2.339  0.1041 -0.6178  0.2531
  763SOL    HW1 3050   2.509   1.102   2.281  0.3598 -0.0939 -1.8783
  763SOL    HW2 3051   2.513   1.212   2.383 -1.9035 -1.6784  1.2918
  763SOL     MW 3052   2.470   1.153   2.337 -0.1271 -0.6887  0.1089
  764SOL     OW 3053   0.398   0.174   2.796 -0.0055 -0.1052 -0.1271
  764SOL    HW1 3054   0.313   0.188   2.750 -0.4558 -0.5528 -3.7354
  764SOL    HW2 3055   0.406   0.257   2.845 -3.0136 -0.0892  3.9615
  764SOL     MW 3056   0.388   0.187   2.796 -0.4618 -0.1621 -0.0637
  765SOL     OW 3057   2.700   0.137   2.294  0.3231  0.5613 -0.0696
  765SOL    HW1 3058   2.678   0.100   2.208 -2.0035  0.7584 -0.5648
  765SOL    HW2 3059   2.745   0.058   2.330  0.0919  0.6616  2.3013
  765SOL     MW 3060   2.703   0.121   2.287 -0.0144  0.6006  0.1779
  766SOL     OW 3061   1.885   3.049   2.102 -0.5280 -0.2231  0.0834
  766SOL    HW1 3062   1.965   3.037   2.051  0.3854 -1.7589  1.4922
  766SOL    HW2 3063   1.826   2.986   2.056 -3.7231 -0.2750 -0.3372
  766SOL     MW 3064   1.888   3.039   2.089 -0.8291 -0.4326  0.2138
  767SOL     OW 3065   2.663   0.649   1.922  0.3726 -0.3858  0.0907
  767SOL    HW1 3066   2.717   0.707   1.979  1.1119  0.5648 -1.9744
  767SOL    HW2 3067   2.590   0.706   1.901  2.1445 -0.3353 -1.9729
  767SOL     MW 3068   2.661   0.664   1.927  0.7040 -0.2537 -0.4540
  768SOL     OW 3069   0.014   1.453   2.987  0.3843 -0.1385  0.2971
  768SOL    HW1 3070   0.053   1.495   3.063  0.8601 -2.1784 -1.6269
  768SOL    HW2 3071   0.050   1.361   2.980 -0.5856 -2.1623 -0.1926
  768SOL     MW 3072   0.024   1.447   2.996  0.3191 -0.6746 -0.0213
  769SOL     OW 3073   2.338   0.687   2.390 -0.3710  0.3791  0.9460
  769SOL    HW1 3074   2.312   0.598   2.416  3.3450 -2.0110  1.3973
  769SOL    HW2 3075   2.399   0.694   2.314  0.8990  0.8395  1.6786
  769SOL     MW 3076   2.343   0.676   2.384  0.2869  0.1245  1.1022
  770SOL     OW 3077   0.075   1.627   2.626  0.2898  0.2960  0.5587
  770SOL    HW1 3078  -0.008   1.631   2.668  0.2864  1.9230 -1.5117
  770SOL    HW2 3079   0.111   1.539   2.638 -0.3108 -1.4780  1.2216
  770SOL     MW 3080   0.069   1.616   2.633  0.2101  0.2766  0.3730
  771SOL     OW 3081   3.011   0.582   1.940 -0.4831 -0.3044 -0.0059
  771SOL    HW1 3082   2.957   0.607   1.860 -0.7880 -1.1460  0.6682
  771SOL    HW2 3083   3.095   0.561   1.906  1.3181 -3.5222  1.9130
  771SOL     MW 3084   3.015   0.582   1.925 -0.2857 -0.8400  0.3362
  772SOL     OW 3085   0.012   3.074   2.327 -0.0138  0.3941 -0.2793
  772SOL    HW1 3086  -0.084   3.057   2.351  0.0892 -1.0383  0.7139
  772SOL    HW2 3087   0.053   2.990   2.306 -2.6208 -0.3186 -1.4433
  772SOL     MW 3088   0.005   3.060   2.328 -0.3442  0.1111 -0.3018
  773SOL     OW 3089   2.487   2.836   2.823 -0.4075  0.3498  0.0639
  773SOL    HW1 3090   2.486   2.746   2.800  3.2642  0.5177  0.1139
  773SOL    HW2 3091   2.441   2.839   2.916  1.3952  0.3539  3.0368
  773SOL     MW 3092   2.481   2.824   2.832  0.3148  0.3725  0.4628
  774SOL     OW 3093   2.328   1.186   1.794 -0.2600  0.3574  1.1298
  774SOL    HW1 3094   2.325   1.252   1.722 -1.1791  0.4370 -1.0416
  774SOL    HW2 3095   2.312   1.099   1.750  4.2602  2.7465 -0.4334
  774SOL     MW 3096   2.326   1.183   1.779  0.2152  0.6831  0.6370
  775SOL     OW 3097   2.257   2.949   2.329  0.0067 -0.0691  0.2637
  775SOL    HW1 3098   2.281   3.033   2.287 -2.6120 -1.0158  0.1128
  775SOL    HW2 3099   2.334   2.894   2.326 -0.4493  0.3749 -1.9523
  775SOL     MW 3100   2.270   2.953   2.323 -0.3990 -0.1355 -0.0486
  776SOL     OW 3101   0.134   1.534   0.123 -0.2648  0.4999 -0.1625
  776SOL    HW1 3102   0.210   1.476   0.101 -0.7709 -1.6587 -0.5306
  776SOL    HW2 3103   0.074   1.481   0.182  0.4251 -2.2774 -1.6369
  776SOL     MW 3104   0.136   1.519   0.128 -0.2405 -0.1513 -0.4056
  777SOL     OW 3105   2.978   1.118   1.740  0.1308  0.1296 -0.0055
  777SOL    HW1 3106   2.942   1.170   1.664 -1.5123  1.4160 -1.4761
  777SOL    HW2 3107   2.923   1.047   1.762 -0.6385  0.2255 -1.1035
  777SOL     MW 3108   2.966   1.116   1.733 -0.1875  0.3120 -0.3444
  778SOL     OW 3109   2.845   0.434   2.768 -0.7665 -0.1491 -0.3160
  778SOL    HW1 3110   2.780   0.466   2.835  1.5908 -0.0256 -0.0043
  778SOL    HW2 3111   2.870   0.510   2.717 -2.2783 -1.2799 -1.1811
  778SOL     MW 3112   2.840   0.448   2.770 -0.6549 -0.2820 -0.3890
  779SOL     OW 3113   2.261   0.506   2.113 -0.5710  0.5396  0.4775
  779SOL    HW1 3114   2.184   0.536   2.159  0.5819  2.3612 -1.7450
  779SOL    HW2 3115   2.298   0.432   2.160  0.5646  3.6500 -0.9349
  779SOL     MW 3116   2.256   0.500   2.125 -0.2691  1.1903 -0.0021
  780SOL     OW 3117   0.127   0.252   2.679 -0.6899  0.5572 -0.3907
  780SOL    HW1 3118   0.034   0.249   2.668 -3.5341 -3.1973  1.2991
  780SOL    HW2 3119   0.151   0.346   2.681 -0.0052  3.2419  2.4822
  780SOL     MW 3120   0.118   0.264   2.678 -0.9748  0.4161  0.2113
  781SOL     OW 3121   3.041   1.312   2.481 -0.2887 -0.5924 -0.4039
  781SOL    HW1 3122   3.062   1.353   2.400  2.1474  0.1617  0.2829
  781SOL    HW2 3123   3.073   1.220   2.463  0.4119 -1.6222 -0.8004
  781SOL     MW 3124   3.048   1.305   2.468  0.1251 -0.6288 -0.3656
  782SOL     OW 3125   0.623   1.509   0.059 -0.9242  0.5207 -0.3485
  782SOL    HW1 3126   0.548   1.574   0.047  1.7642 -2.1209  0.0250
  782SOL    HW2 3127   0.667   1.540   0.140 -1.6703  1.9006 -0.5765
  782SOL     MW 3128   0.619   1.522   0.068 -0.6679  0.3542 -0.3293
  783SOL     OW 3129   2.679   0.609   2.403  0.4127  0.3508  0.4085
  783SOL    HW1 3130   2.618   0.638   2.330 -0.7501  2.8447 -0.2811
  783SOL    HW2 3131   2.621   0.581   2.479  0.3805  0.3398  1.9422
  783SOL     MW 3132   2.663   0.609   2.404  0.2550  0.6784  0.5199
  784SOL     OW 3133   0.196   0.849   2.891  0.0452 -0.2096  0.4562
  784SOL    HW1 3134   0.120   0.899   2.900 -0.3221  0.6202 -0.8438
  784SOL    HW2 3135   0.253   0.901   2.830  0.9787 -0.3505 -1.1691
  784SOL     MW 3136   0.194   0.862   2.884  0.1199 -0.1187  0.0703
  785SOL     OW 3137   0.464   0.421   2.197 -0.3088 -0.0289  0.3071
  785SOL    HW1 3138   0.458   0.437   2.100 -0.7740  2.0292  0.9211
  785SOL    HW2 3139   0.389   0.364   2.216 -0.2957  2.2706  0.8484
  785SOL     MW 3140   0.453   0.416   2.187 -0.3684  0.5460  0.4595
  786SOL     OW 3141   1.901   0.419   3.014 -0.1496  0.0268 -0.7860
  786SOL    HW1 3142   1.841   0.493   3.036  2.1145 -1.8408 -1.5417
  786SOL    HW2 3143   1.932   0.435   2.927  0.8196 -1.0263 -0.4976
  786SOL     MW 3144   1.897   0.431   3.006  0.2770 -0.3586 -0.8477
  787SOL     OW 3145   2.472   0.125   2.953 -0.0995 -0.2251  0.8286
  787SOL    HW1 3146   2.522   0.052   2.926 -1.4730 -3.4338 -0.0355
  787SOL    HW2 3147   2.526   0.186   3.003  0.4737 -0.6548  1.5215
  787SOL     MW 3148   2.486   0.123   2.956 -0.2051 -0.7052  0.8060
  788SOL     OW 3149   2.842   3.024   2.408  0.5399 -0.3399 -0.1630
  788SOL    HW1 3150   2.805   2.994   2.491 -1.0201  1.1393  0.1266
  788SOL    HW2 3151   2.850   2.944   2.352 -0.2457 -2.2521 -0.0107
  788SOL     MW 3152   2.838   3.010   2.412  0.2304 -0.3970 -0.1047
  789SOL     OW 3153   0.097   0.192   3.052  0.2120 -0.4965 -0.0077
  789SOL    HW1 3154   0.010   0.155   3.063 -0.6619  4.2601 -0.5279
  789SOL    HW2 3155   0.077   0.251   2.982  3.2454  1.9353 -1.8550
  789SOL     MW 3156   0.083   0.194   3.044  0.4970  0.4519 -0.3201
  790SOL     OW 3157   3.101   1.061   2.395  0.1711  0.3339  0.2677
  790SOL    HW1 3158   3.096   1.000   2.474 -1.7400  2.2782  1.6534
  790SOL    HW2 3159   3.025   1.039   2.336 -2.1011 -1.8288 -2.7430
  790SOL     MW 3160   3.090   1.050   2.397 -0.3808  0.3051  0.0533
  791SOL     OW 3161   2.535   0.477   2.598  0.0233 -0.1470 -0.3357
  791SOL    HW1 3162   2.488   0.498   2.682 -1.5039 -1.8987  4.8534
  791SOL    HW2 3163   2.544   0.379   2.597  1.5500 -0.2611  2.7680
  791SOL     MW 3164   2.530   0.467   2.609  0.0232 -0.3932  0.7584
  792SOL     OW 3165   2.358   0.215   2.434 -0.1130 -0.5622 -0.1926
  792SOL    HW1 3166   2.324   0.300   2.442  2.5535  0.0383  0.3734
  792SOL    HW2 3167   2.329   0.169   2.514  1.0852 -0.3608  0.2407
  792SOL     MW 3168   2.350   0.220   2.445  0.3969 -0.4564 -0.0608
  793SOL     OW 3169   1.872   1.092   2.000  0.6674  0.3099  0.0326
  793SOL    HW1 3170   1.860   1.084   1.903  1.6537  0.1968 -3.6326
  793SOL    HW2 3171   1.964   1.061   1.993  2.4686 -2.3927 -0.8051
  793SOL     MW 3172   1.882   1.087   1.987  1.0352 -0.0616 -0.5615
  794SOL     OW 3173   1.368   2.347   0.137  0.9660 -0.3913 -0.0941
  794SOL    HW1 3174   1.395   2.418   0.086 -1.3743  3.4727  0.1641
  794SOL    HW2 3175   1.436   2.346   0.208  0.5329  0.3797  2.1127
  794SOL     MW 3176   1.381   2.356   0.139  0.6001  0.2203  0.2311
  795SOL     OW 3177   2.317   1.027   2.513 -0.1361 -0.4685  0.0193
  795SOL    HW1 3178   2.315   1.096   2.577 -1.7589  0.4881 -0.1075
  795SOL    HW2 3179   2.384   1.054   2.446  0.6470 -1.0331 -1.8069
  795SOL     MW 3180   2.326   1.040   2.512 -0.2469 -0.4168 -0.2384
  796SOL     OW 3181   0.260   0.624   2.726  0.2643 -0.0896  1.1833
  796SOL    HW1 3182   0.246   0.704   2.773  0.9251  0.3228 -1.7555
  796SOL    HW2 3183   0.182   0.616   2.671 -1.4859 -0.5015  1.8726
  796SOL     MW 3184   0.248   0.633   2.725  0.1206 -0.0895  0.8865
  797SOL     OW 3185   2.585   0.158   2.565  0.3203 -0.0385 -0.2344
  797SOL    HW1 3186   2.483   0.149   2.579 -2.9160 -3.4486  1.6453
  797SOL    HW2 3187   2.599   0.172   2.471 -0.3441 -1.5954 -1.4515
  797SOL     MW 3188   2.574   0.159   2.555 -0.1944 -0.6939 -0.1470
  798SOL     OW 3189   2.363   0.098   2.194 -0.3970  0.5380  0.0402
  798SOL    HW1 3190   2.350   0.139   2.283 -0.1194  1.2246 -3.6929
  798SOL    HW2 3191   2.453   0.108   2.165 -0.2138  1.1685 -0.1968
  798SOL     MW 3192   2.373   0.105   2.202 -0.3362  0.7118 -0.4836
  799SOL     OW 3193   2.554   2.977   0.151 -0.1294 -0.1118 -0.2260
  799SOL    HW1 3194   2.470   2.997   0.109  1.5022 -0.9499  0.9269
  799SOL    HW2 3195   2.527   2.981   0.244 -2.1855 -0.3506  1.1534
  799SOL     MW 3196   2.539   2.980   0.158 -0.1854 -0.2539  0.1081
  800SOL     OW 3197   1.937   0.028   1.746  0.0058  1.1474  0.0581
  800SOL    HW1 3198   1.871  -0.034   1.715 -0.0083  0.3054  0.0126
  800SOL    HW2 3199   1.994  -0.025   1.801 -1.5826  3.2514 -0.5274
  800SOL     MW 3200   1.936   0.013   1.749 -0.2057  1.3139 -0.0252
  801SOL     OW 3201   2.792   1.217   2.588 -0.2451  0.0159 -0.0475
  801SOL    HW1 3202   2.789   1.124   2.600  0.3709  0.5608 -3.1681
  801SOL    HW2 3203   2.885   1.237   2.560  0.9050 -2.0393 -0.1782
  801SOL     MW 3204   2.804   1.207   2.586 -0.0121 -0.1834 -0.4765
  802SOL     OW 3205   2.592   1.470   2.785  0.0503 -0.2085  0.1478
  802SOL    HW1 3206   2.568   1.384   2.757  0.9247  0.2219  1.3851
  802SOL    HW2 3207   2.677   1.453   2.823 -2.5925 -0.5482 -4.5195
  802SOL     MW 3208   2.600   1.456   2.787 -0.1830 -0.1965 -0.3047
  803SOL     OW 3209   2.262   1.380   2.034 -0.7987  0.1436 -0.4029
  803SOL    HW1 3210   2.240   1.347   2.120 -2.4668  1.5157 -1.7121
  803SOL    HW2 3211   2.253   1.312   1.967 -1.8595 -1.7205 -0.3566
  803SOL     MW 3212   2.258   1.367   2.037 -1.1588  0.0787 -0.5695
  804SOL     OW 3213   2.290   0.055   0.048 -0.2209  0.3490 -0.4253
  804SOL    HW1 3214   2.242   0.137   0.059  0.3412  0.3139  0.3659
  804SOL    HW2 3215   2.361   0.073  -0.016 -1.2715  0.1640  2.0734
  804SOL     MW 3216   2.293   0.068   0.041 -0.2854  0.3199  0.0087
  805SOL     OW 3217   2.738   0.956   2.621  0.1279  0.2856 -0.5458
  805SOL    HW1 3218   2.661   0.909   2.591  2.2327 -0.1066 -1.1325
  805SOL    HW2 3219   2.808   0.886   2.623  1.4434  1.8132  0.2644
  805SOL     MW 3220   2.737   0.941   2.617  0.5792  0.4354 -0.5163
  806SOL     OW 3221   2.518   0.697   2.200 -0.4251  0.2028 -0.5024
  806SOL    HW1 3222   2.471   0.671   2.122 -2.8190  3.3342 -0.2465
  806SOL    HW2 3223   2.541   0.788   2.177  0.0316 -0.8097  0.8269
  806SOL     MW 3224   2.515   0.706   2.187 -0.6807  0.4824 -0.2933
  807SOL     OW 3225   0.081   1.079   2.048 -0.3803  0.3234 -0.3418
  807SOL    HW1 3226   0.111   0.991   2.030  1.9576 -1.4995  4.5337
  807SOL    HW2 3227  -0.006   1.064   2.087 -2.8021 -1.6811  0.6127
  807SOL     MW 3228   0.073   1.065   2.051 -0.3913 -0.1815  0.4274
  808SOL     OW 3229   2.634   3.073   2.782 -0.0203 -0.1016 -0.6357
  808SOL    HW1 3230   2.602   2.991   2.752 -0.1008 -0.1932 -0.0200
  808SOL    HW2 3231   2.621   3.133   2.710 -0.6980 -1.3502  1.6995
  808SOL     MW 3232   2.628   3.070   2.769 -0.1203 -0.2784 -0.2464
  809SOL     OW 3233   2.626   1.334   2.408 -0.1629  0.1244 -0.1988
  809SOL    HW1 3234   2.678   1.273   2.463  1.9230 -0.5082  1.0685
  809SOL    HW2 3235   2.652   1.307   2.316 -2.1705 -0.2953  1.1406
  809SOL     MW 3236   2.636   1.323   2.403 -0.1526 -0.0144  0.1451
  810SOL     OW 3237   2.236   1.321   2.308 -0.4280 -0.0605  0.0036
  810SOL    HW1 3238   2.302   1.251   2.318 -1.6933  2.0418  0.8908
  810SOL    HW2 3239   2.159   1.296   2.361  0.9633 -1.1951  1.9881
  810SOL     MW 3240   2.234   1.308   2.316 -0.4114  0.0672  0.3825
  811SOL     OW 3241   1.543   0.132   2.308 -0.3401 -0.1912 -0.0227
  811SOL    HW1 3242   1.628   0.115   2.344  0.0348 -0.6989 -0.5734
  811SOL    HW2 3243   1.554   0.123   2.213 -2.4906 -1.3946 -1.7213
  811SOL     MW 3244   1.555   0.128   2.300 -0.5744 -0.4170 -0.3195
  812SOL     OW 3245   1.477   2.819   2.008 -0.3505  0.0848 -0.4485
  812SOL    HW1 3246   1.570   2.844   2.000 -0.8117 -1.8295  0.7204
  812SOL    HW2 3247   1.466   2.799   2.103 -0.1070  0.0616 -0.0835
  812SOL     MW 3248   1.488   2.820   2.020 -0.3792 -0.1708 -0.2461
  813SOL     OW 3249   1.993   0.613   2.236  0.3557 -0.0473 -0.0585
  813SOL    HW1 3250   1.916   0.571   2.206 -1.4784 -1.0841 -1.0313
  813SOL    HW2 3251   1.968   0.700   2.260 -2.8869  2.0423  0.3113
  813SOL     MW 3252   1.979   0.619   2.235 -0.3141  0.0916 -0.1381
  814SOL     OW 3253   2.732   1.239   1.645 -0.0146  0.6718  0.0674
  814SOL    HW1 3254   2.701   1.231   1.733 -0.4894 -0.7681  2.5555
  814SOL    HW2 3255   2.700   1.161   1.605  0.2661  2.0183  0.4185
  814SOL     MW 3256   2.724   1.228   1.651 -0.0402  0.6595  0.4420
  815SOL     OW 3257   2.583   1.775   2.384  0.3335 -0.1923 -0.1723
  815SOL    HW1 3258   2.505   1.714   2.373 -3.2934 -1.6363 -0.0717
  815SOL    HW2 3259   2.666   1.727   2.398  2.0232 -1.1144  3.3135
  815SOL     MW 3260   2.584   1.761   2.385  0.0779 -0.5045  0.3009
  816SOL     OW 3261   0.730   0.712   2.731 -0.9671  0.4970 -0.2069
  816SOL    HW1 3262   0.724   0.618   2.750 -0.1410 -1.6065 -0.0272
  816SOL    HW2 3263   0.644   0.735   2.681  2.4497  1.2482  2.6213
  816SOL     MW 3264   0.718   0.702   2.727 -0.4073  0.3186  0.1900
  817SOL     OW 3265   2.983   1.219   1.470 -0.2587 -0.3812 -0.0627
  817SOL    HW1 3266   3.081   1.208   1.476  1.4888 -1.1583  0.4095
  817SOL    HW2 3267   2.964   1.311   1.440  0.4771 -0.5179 -0.0871
  817SOL     MW 3268   2.994   1.230   1.466  0.0689 -0.5017 -0.0036
  818SOL     OW 3269   1.924   1.073   2.645 -0.1831  0.8207  0.4464
  818SOL    HW1 3270   1.905   1.042   2.552 -0.6801  1.5398 -1.9016
  818SOL    HW2 3271   1.987   1.010   2.675 -0.8118  1.2522  1.7741
  818SOL     MW 3272   1.930   1.061   2.637 -0.3316  0.9725  0.3118
  819SOL     OW 3273   1.987   0.287   2.525  0.0134 -0.1878  0.3058
  819SOL    HW1 3274   1.898   0.333   2.521 -2.8830 -1.3628  0.1175
  819SOL    HW2 3275   2.027   0.296   2.615  3.7280  1.3223 -0.6627
  819SOL     MW 3276   1.980   0.294   2.536  0.1214 -0.1436  0.1532
  820SOL     OW 3277   2.484   1.715   2.687  1.1336  0.4442  0.4474
  820SOL    HW1 3278   2.499   1.625   2.720  0.5090  1.2186 -0.5775
  820SOL    HW2 3279   2.527   1.716   2.602  1.6680  1.6845  0.2465
  820SOL     MW 3280   2.492   1.703   2.681  1.1217  0.7100  0.2856
  821SOL     OW 3281   2.525   1.355   1.999  0.4656 -0.0796  0.2329
  821SOL    HW1 3282   2.550   1.411   1.922 -2.0339 -0.1939  2.5035
  821SOL    HW2 3283   2.430   1.358   2.017 -2.6782  3.2356 -1.4515
  821SOL     MW 3284   2.516   1.363   1.991 -0.2790  0.3427  0.3102
  822SOL     OW 3285   2.840   2.671   1.442 -0.5728 -0.0667 -0.4754
  822SOL    HW1 3286   2.876   2.643   1.528  0.1897 -0.9209  0.5696
  822SOL    HW2 3287   2.882   2.753   1.426 -0.7027  2.3637 -1.1256
  822SOL     MW 3288   2.850   2.678   1.451 -0.4894  0.1413 -0.4233
  823SOL     OW 3289   2.395   0.496   1.839 -0.0819 -0.1669  0.0310
  823SOL    HW1 3290   2.440   0.444   1.762  0.7666 -1.1479  0.9107
  823SOL    HW2 3291   2.410   0.433   1.911 -0.4705  0.1367 -2.6783
  823SOL     MW 3292   2.403   0.481   1.838 -0.0212 -0.2562 -0.2104
  824SOL     OW 3293   2.232   1.459   2.624 -0.7412  0.1071 -0.6772
  824SOL    HW1 3294   2.289   1.488   2.551  0.7579 -1.0118 -1.2540
  824SOL    HW2 3295   2.171   1.530   2.638 -0.9394  0.2829 -0.6293
  824SOL     MW 3296   2.231   1.472   2.616 -0.5696 -0.0173 -0.7470
  825SOL     OW 3297   1.911   2.549   0.264  0.5199 -1.0953  0.5243
  825SOL    HW1 3298   1.888   2.497   0.344  0.0471 -0.6000 -3.0945
  825SOL    HW2 3299   1.965   2.493   0.209  1.0350 -0.8390 -0.0687
  825SOL     MW 3300   1.915   2.534   0.268  0.5255 -0.9962 -0.0314
  826SOL     OW 3301   1.812   2.378   0.474 -0.4877  0.1277  0.6603
  826SOL    HW1 3302   1.766   2.307   0.520  0.8916 -1.6408  0.3049
  826SOL    HW2 3303   1.796   2.454   0.524  1.0635 -0.7224 -0.7000
  826SOL     MW 3304   1.804   2.379   0.487 -0.1010 -0.2178  0.4339
  827SOL     OW 3305   1.901   2.188   0.790  0.6170  0.2270 -0.2528
  827SOL    HW1 3306   1.821   2.215   0.746 -0.0305 -0.6772  1.3894
  827SOL    HW2 3307   1.854   2.141   0.859 -3.1145 -1.1120 -0.6718
  827SOL     MW 3308   1.884   2.185   0.793  0.0393 -0.0690 -0.0914
  828SOL     OW 3309   0.055   2.593   0.567  0.7834 -0.6510 -0.0901
  828SOL    HW1 3310   0.152   2.585   0.551 -0.3938 -2.3518 -1.1779
  828SOL    HW2 3311   0.028   2.652   0.499  0.2849 -1.3537  2.0457
  828SOL     MW 3312   0.064   2.600   0.556  0.5623 -0.9681  0.0482
  829SOL     OW 3313   2.990   2.924   1.196 -0.3431 -0.4723 -0.6638
  829SOL    HW1 3314   2.926   2.932   1.124  0.2595 -1.5645 -2.6556
  829SOL    HW2 3315   3.059   2.866   1.161 -0.0260  2.2274 -0.2715
  829SOL     MW 3316   2.990   2.917   1.182 -0.2218 -0.2602 -0.8748
  830SOL     OW 3317   2.578   2.828   2.023 -0.0420 -0.7384 -0.2353
  830SOL    HW1 3318   2.479   2.818   1.984  0.5189 -0.8092 -1.5116
  830SOL    HW2 3319   2.634   2.830   1.945 -0.1574  3.4570  1.0999
  830SOL     MW 3320   2.572   2.827   2.008  0.0168 -0.1942 -0.2275
  831SOL     OW 3321   2.352   2.470   1.175  0.4902  0.0856  0.5521
  831SOL    HW1 3322   2.311   2.419   1.242  0.6983  1.3762 -0.0788
  831SOL    HW2 3323   2.447   2.446   1.173 -0.3427 -0.1985  0.5231
  831SOL     MW 3324   2.359   2.460   1.184  0.4077  0.2184  0.4651
  832SOL     OW 3325   2.358   2.211   1.875 -0.0482  0.4527  0.2626
  832SOL    HW1 3326   2.396   2.293   1.914  1.6330  2.4710 -0.5779
  832SOL    HW2 3327   2.436   2.154   1.855  1.3217 -0.5217 -0.2028
  832SOL     MW 3328   2.373   2.214   1.878  0.3544  0.5904  0.0903
  833SOL     OW 3329   1.713   2.461   0.866 -0.5647  0.3312 -0.0163
  833SOL    HW1 3330   1.641   2.402   0.893 -0.4948  1.1709 -2.1414
  833SOL    HW2 3331   1.711   2.539   0.922 -1.1375 -4.3857 -2.4332
  833SOL     MW 3332   1.703   2.463   0.877 -0.6310 -0.1804 -0.6156
  834SOL     OW 3333   2.054   2.443   0.557  0.6251  0.1230 -0.2964
  834SOL    HW1 3334   1.975   2.400   0.537  3.0750  1.2506 -1.6813
  834SOL    HW2 3335   2.111   2.403   0.488  0.1757 -0.1904  0.2604
  834SOL     MW 3336   2.051   2.432   0.545  0.8890  0.2304 -0.4056
  835SOL     OW 3337   1.796   2.620   0.637  0.3009  0.3548  0.6008
  835SOL    HW1 3338   1.783   2.569   0.721  3.6665 -0.0232  2.0022
  835SOL    HW2 3339   1.861   2.679   0.679 -3.2257  0.0332 -1.5931
  835SOL     MW 3340   1.803   2.621   0.654  0.2797  0.2625  0.4962
  836SOL     OW 3341   1.944   2.199   1.600  0.4234  0.4318  0.4447
  836SOL    HW1 3342   2.024   2.251   1.624  1.3700 -0.0028  0.8764
  836SOL    HW2 3343   1.871   2.262   1.607  0.5119  0.5118 -1.9012
  836SOL     MW 3344   1.945   2.215   1.604  0.5599  0.3850  0.1921
  837SOL     OW 3345   2.137   0.216   0.670 -0.6310 -0.0176 -0.0290
  837SOL    HW1 3346   2.057   0.244   0.625 -0.6036 -2.3028 -1.6169
  837SOL    HW2 3347   2.167   0.137   0.620 -0.4782  0.3629 -1.9055
  837SOL     MW 3348   2.131   0.210   0.658 -0.6072 -0.2689 -0.4861
  838SOL     OW 3349   2.939   2.041   0.924  0.4302  0.0590 -0.2212
  838SOL    HW1 3350   2.879   1.979   0.964 -1.0328  1.4772  0.4857
  838SOL    HW2 3351   3.004   1.979   0.885 -1.4474 -0.6863 -1.7687
  838SOL     MW 3352   2.940   2.024   0.924 -0.0105  0.1478 -0.3321
  839SOL     OW 3353   1.496   2.319   1.020 -0.0035  0.5118 -0.1059
  839SOL    HW1 3354   1.514   2.401   1.070  0.2325  1.0878 -3.2630
  839SOL    HW2 3355   1.526   2.251   1.078 -2.6760  3.3042 -1.9755
  839SOL     MW 3356   1.503   2.321   1.035 -0.3250  0.9562 -0.7691
  840SOL     OW 3357   2.362   2.164   2.467  0.1817 -0.2143 -0.3401
  840SOL    HW1 3358   2.294   2.230   2.441 -0.7805 -1.0416  2.3581
  840SOL    HW2 3359   2.370   2.189   2.556  1.8613  0.9059 -2.7570
  840SOL     MW 3360   2.354   2.176   2.475  0.2764 -0.1757 -0.3030
  841SOL     OW 3361   2.136   2.434   0.122 -0.5213 -0.4618 -0.0772
  841SOL    HW1 3362   2.147   2.474   0.037 -0.4789  0.4014 -0.2335
  841SOL    HW2 3363   2.112   2.339   0.105  1.3838 -1.5157  1.0783
  841SOL     MW 3364   2.134   2.426   0.108 -0.2643 -0.4870  0.0546
  842SOL     OW 3365   2.619   2.080   1.543 -0.6872 -0.0656  0.2491
  842SOL    HW1 3366   2.576   1.994   1.553  0.4195 -0.1299 -2.8814
  842SOL    HW2 3367   2.588   2.103   1.455  0.6280 -1.0502  0.9826
  842SOL     MW 3368   2.609   2.071   1.533 -0.3676 -0.2040 -0.0671
  843SOL     OW 3369   2.704   2.790   1.764 -0.6274 -0.2877  0.3551
  843SOL    HW1 3370   2.784   2.730   1.735  0.8696 -0.1594 -2.0347
  843SOL    HW2 3371   2.636   2.770   1.707  0.9000 -0.3909 -0.7043
  843SOL     MW 3372   2.706   2.780   1.753 -0.2283 -0.2843 -0.1000
  844SOL     OW 3373   2.588   2.346   1.150 -0.3754 -0.3157 -0.3413
  844SOL    HW1 3374   2.625   2.380   1.069  0.2032  0.6976  1.7145
  844SOL    HW2 3375   2.651   2.377   1.219  1.2013  2.7022 -0.0512
  844SOL     MW 3376   2.601   2.355   1.149 -0.0910  0.2162 -0.0318
  845SOL     OW 3377   2.830   2.475   0.306 -0.2187 -0.8181  0.2637
  845SOL    HW1 3378   2.807   2.383   0.297  1.8080 -1.7801  0.3026
  845SOL    HW2 3379   2.807   2.506   0.394  0.9874 -0.7638 -2.3386
  845SOL     MW 3380   2.824   2.467   0.316  0.2078 -0.9379 -0.0745
  846SOL     OW 3381   1.526   2.853   0.810  0.1091  0.7499 -0.5108
  846SOL    HW1 3382   1.560   2.913   0.876  1.0766  0.9873 -0.4351
  846SOL    HW2 3383   1.437   2.847   0.838 -1.2308 -1.3987  0.9702
  846SOL     MW 3384   1.519   2.860   0.823  0.0600  0.4978 -0.3054
  847SOL     OW 3385   2.618   1.913   0.190 -0.2180  0.4726  0.0696
  847SOL    HW1 3386   2.705   1.882   0.174  1.8488  0.7562 -1.4319
  847SOL    HW2 3387   2.563   1.861   0.130 -0.3742 -1.5198 -3.0520
  847SOL     MW 3388   2.622   1.902   0.180  0.0341  0.2471 -0.5403
  848SOL     OW 3389   2.483   2.152   1.306 -0.0956 -0.0168  0.4140
  848SOL    HW1 3390   2.533   2.218   1.247  1.5314  1.2120 -2.9914
  848SOL    HW2 3391   2.500   2.063   1.272 -0.2997 -1.9800 -0.2075
  848SOL     MW 3392   2.492   2.149   1.294  0.0921 -0.1137 -0.1173
  849SOL     OW 3393   1.974   2.765   0.781 -0.3205  0.2884 -0.4472
  849SOL    HW1 3394   1.996   2.683   0.829  0.2773 -1.6061 -0.9210
  849SOL    HW2 3395   2.055   2.776   0.726  0.2979  2.6092 -4.1022
  849SOL     MW 3396   1.987   2.756   0.780 -0.1600  0.3446 -0.9919
  850SOL     OW 3397   2.186   1.962   1.687  0.4623 -0.1176  0.0666
  850SOL    HW1 3398   2.097   1.933   1.651  0.6544 -2.5238 -0.9329
  850SOL    HW2 3399   2.177   2.055   1.690 -2.5674 -0.0383  1.6144
  850SOL     MW 3400   2.173   1.971   1.683  0.0879 -0.4246  0.1390
  851SOL     OW 3401   2.239   2.369   0.374  0.4763  0.2558 -0.1351
  851SOL    HW1 3402   2.208   2.388   0.292  2.6075 -2.8134  3.7524
  851SOL    HW2 3403   2.301   2.442   0.379  0.6764 -0.8747  0.3846
  851SOL     MW 3404   2.243   2.381   0.364  0.7839 -0.2983  0.4464
  852SOL     OW 3405   2.276   2.165   0.163  0.3531  0.2472  0.3732
  852SOL    HW1 3406   2.297   2.219   0.240 -2.2603  2.4960  0.8680
  852SOL    HW2 3407   2.363   2.165   0.117 -1.5619  2.9956 -0.7287
  852SOL     MW 3408   2.290   2.172   0.167 -0.2444  0.9065  0.2931
  853SOL     OW 3409   2.457   2.437   1.981  0.2106 -0.3138  0.2326
  853SOL    HW1 3410   2.458   2.509   1.918 -1.5033 -0.7777  0.5778
  853SOL    HW2 3411   2.547   2.439   2.030 -0.5724  0.0507  0.7173
  853SOL     MW 3412   2.469   2.447   1.979 -0.1189 -0.3270  0.3421
  854SOL     OW 3413   2.870   2.253   0.761 -0.8055  0.3349  0.5935
  854SOL    HW1 3414   2.781   2.226   0.738 -0.3164  1.3117 -1.1126
  854SOL    HW2 3415   2.899   2.182   0.822 -0.8013 -1.0522 -0.8859
  854SOL     MW 3416   2.862   2.240   0.766 -0.7404  0.2807  0.1732
  855SOL     OW 3417   2.671   2.238   0.327 -0.1698 -0.0865  0.2561
  855SOL    HW1 3418   2.643   2.303   0.397 -1.4902  3.1951  1.8374
  855SOL    HW2 3419   2.759   2.202   0.344 -1.8995  0.8412  0.3732
  855SOL     MW 3420   2.679   2.242   0.339 -0.5722  0.4689  0.4802
  856SOL     OW 3421   2.172   1.929   0.233 -0.0753  0.7593 -0.1772
  856SOL    HW1 3422   2.078   1.934   0.248 -0.1247  2.1643  0.7935
  856SOL    HW2 3423   2.210   2.018   0.228  0.7471  1.7425  1.3625
  856SOL     MW 3424   2.164   1.941   0.234  0.0267  1.0744  0.1540
  857SOL     OW 3425   2.553   1.937   0.483  0.7747  0.7486 -0.1731
  857SOL    HW1 3426   2.576   1.932   0.396 -0.4779  1.9498 -0.9684
  857SOL    HW2 3427   2.459   1.902   0.493 -0.5493  1.4817  3.5363
  857SOL     MW 3428   2.544   1.932   0.473  0.4347  1.0038  0.2114
  858SOL     OW 3429   2.904   2.627   1.709  0.0787 -0.4838  0.0659
  858SOL    HW1 3430   2.973   2.680   1.756  0.1226  0.3518 -1.5885
  858SOL    HW2 3431   2.876   2.551   1.761 -1.1112  1.9643 -2.6012
  858SOL     MW 3432   2.910   2.624   1.722 -0.0725 -0.0506 -0.5043
  859SOL     OW 3433   2.105   2.492   0.842  0.5733  0.0623  0.2510
  859SOL    HW1 3434   2.062   2.433   0.779 -0.0948 -2.3992 -1.0441
  859SOL    HW2 3435   2.194   2.460   0.846 -1.2885  0.4879  1.3644
  859SOL     MW 3436   2.111   2.480   0.835  0.2395 -0.2063  0.2270
  860SOL     OW 3437   2.637   2.591   0.147 -0.4780 -0.3048 -0.0640
  860SOL    HW1 3438   2.700   2.555   0.219  1.9398  0.0660 -1.6066
  860SOL    HW2 3439   2.683   2.665   0.112  1.5963  0.4786  1.0866
  860SOL     MW 3440   2.651   2.596   0.152  0.1147 -0.1525 -0.1157
  861SOL     OW 3441   1.593   2.130   1.210 -0.5387  0.4324  0.2661
  861SOL    HW1 3442   1.679   2.106   1.258  2.7505  0.1617  1.7917
  861SOL    HW2 3443   1.523   2.072   1.246  0.2944 -0.1634  2.0424
  861SOL     MW 3444   1.595   2.119   1.221  0.0052  0.3181  0.7017
  862SOL     OW 3445   2.407   1.878   1.512  0.0410  0.9328 -0.6251
  862SOL    HW1 3446   2.342   1.921   1.572  0.0332 -1.3239  2.0618
  862SOL    HW2 3447   2.373   1.874   1.425  0.8619 -4.3412  1.9988
  862SOL     MW 3448   2.394   1.884   1.508  0.1483 -0.0608  0.0756
  863SOL     OW 3449   3.070   1.773   1.204  0.7695 -0.1397 -0.0519
  863SOL    HW1 3450   3.140   1.781   1.140 -1.6656 -0.8006 -0.1534
  863SOL    HW2 3451   3.047   1.854   1.240  0.1762 -4.2941 -0.6610
  863SOL     MW 3452   3.076   1.785   1.200  0.3699 -0.7750 -0.1457
  864SOL     OW 3453   0.031   1.834   0.812 -0.2365  0.0647 -0.2748
  864SOL    HW1 3454  -0.028   1.771   0.854  0.1289 -2.0169 -0.2567
  864SOL    HW2 3455   0.012   1.829   0.714 -0.4247  1.8998 -2.0790
  864SOL     MW 3456   0.021   1.825   0.805 -0.2131  0.0322 -0.5104
  865SOL     OW 3457   2.526   2.171   0.060  0.0357 -0.3611 -0.1338
  865SOL    HW1 3458   2.550   2.107   0.118 -3.0518  3.2811 -0.8528
  865SOL    HW2 3459   2.508   2.129  -0.025 -2.3240 -2.9547  0.7355
  865SOL     MW 3460   2.527   2.157   0.056 -0.6830 -0.2228 -0.1140
  866SOL     OW 3461   2.637   2.349   1.627 -0.1962 -0.1375  0.0326
  866SOL    HW1 3462   2.637   2.249   1.614 -2.7566 -1.9992  2.8148
  866SOL    HW2 3463   2.695   2.395   1.564 -0.5530  2.3152  1.0129
  866SOL     MW 3464   2.645   2.342   1.617 -0.5811 -0.0595  0.5290
  867SOL     OW 3465   0.022   2.755   1.816 -0.1621 -0.4359 -0.1593
  867SOL    HW1 3466   0.086   2.772   1.884  0.1038  0.8623  3.1282
  867SOL    HW2 3467  -0.008   2.841   1.785  3.4732  1.5514 -3.4864
  867SOL     MW 3468   0.026   2.768   1.821  0.3526 -0.0024 -0.1645
  868SOL     OW 3469   2.780   2.587   0.557 -0.5121 -0.2033  0.1384
  868SOL    HW1 3470   2.692   2.547   0.544 -0.8482 -1.5197 -0.0353
  868SOL    HW2 3471   2.786   2.674   0.509  0.7003  0.6198 -0.4500
  868SOL     MW 3472   2.769   2.593   0.549 -0.3965 -0.2684  0.0379
  869SOL     OW 3473   1.953   2.336   1.035  0.3805 -0.1681 -0.6517
  869SOL    HW1 3474   2.026   2.380   0.993  0.3665  0.7569  1.9286
  869SOL    HW2 3475   1.903   2.307   0.962  3.0183  2.5448  2.5375
  869SOL     MW 3476   1.956   2.338   1.020  0.7267  0.3119  0.1095
  870SOL     OW 3477   2.203   0.019   0.501 -0.1273  0.0647 -0.8703
  870SOL    HW1 3478   2.266   0.046   0.436 -3.2803 -1.7092  0.5584
  870SOL    HW2 3479   2.245  -0.057   0.540 -0.7361 -1.6147 -0.9259
  870SOL     MW 3480   2.217   0.012   0.497 -0.6236 -0.3909 -0.6891
  871SOL     OW 3481   2.475   1.989   0.928 -0.1856  0.6498  0.2514
  871SOL    HW1 3482   2.452   1.952   0.845  1.2080  2.1836  0.2380
  871SOL    HW2 3483   2.413   2.056   0.952  0.7265  0.0592 -0.5262
  871SOL     MW 3484   2.464   1.993   0.920  0.1186  0.7743  0.1470
  872SOL     OW 3485   2.025   2.523   1.412  0.5307  0.2016  0.7121
  872SOL    HW1 3486   2.022   2.556   1.497 -0.4690  0.6289  0.6511
  872SOL    HW2 3487   1.950   2.471   1.389  0.6165  1.1713  1.0180
  872SOL     MW 3488   2.015   2.520   1.420  0.4101  0.3859  0.7444
  873SOL     OW 3489   2.829   2.085   1.949  0.0042  0.6417  0.2827
  873SOL    HW1 3490   2.872   2.143   2.008  1.4817  1.7505  0.3557
  873SOL    HW2 3491   2.898   2.076   1.876  0.2841  0.6699  0.4680
  873SOL     MW 3492   2.844   2.091   1.947  0.2361  0.7917  0.3168
  874SOL     OW 3493   2.430   1.504   2.408 -0.4928  0.6448  0.7424
  874SOL    HW1 3494   2.373   1.446   2.349 -0.0801 -1.4274 -0.1351
  874SOL    HW2 3495   2.510   1.446   2.418  2.1746 -0.7480  0.1443
  874SOL     MW 3496   2.433   1.489   2.401 -0.0864  0.1876  0.5477
  875SOL     OW 3497   2.329   2.282   0.962  0.0748 -0.3480 -0.1584
  875SOL    HW1 3498   2.392   2.322   0.905 -0.5166  2.8044  1.7203
  875SOL    HW2 3499   2.317   2.350   1.030 -0.0322  0.4800  2.6646
  875SOL     MW 3500   2.336   2.296   0.964 -0.0174  0.1772  0.4619
  876SOL     OW 3501   3.031   2.329   1.279 -0.6285  0.5008 -0.0531
  876SOL    HW1 3502   3.101   2.343   1.204 -0.8557  0.1393  0.5610
  876SOL    HW2 3503   3.071   2.394   1.339 -1.1962 -1.6038  0.3563
  876SOL     MW 3504   3.046   2.339   1.277 -0.7334  0.1754  0.0819
  877SOL     OW 3505   3.029   2.729   0.347  0.3950  0.4836 -0.3563
  877SOL    HW1 3506   3.057   2.811   0.306  2.1103  0.0367 -0.4429
  877SOL    HW2 3507   3.063   2.657   0.295 -1.4216  0.7324 -1.9735
  877SOL     MW 3508   3.037   2.730   0.334  0.3816  0.4575 -0.5811
  878SOL     OW 3509   2.305   1.833   1.220  0.8001 -0.0882 -0.2532
  878SOL    HW1 3510   2.255   1.759   1.264 -0.8839  3.8284  0.5281
  878SOL    HW2 3511   2.393   1.796   1.210 -1.2036  0.0487 -2.4902
  878SOL     MW 3512   2.310   1.818   1.224  0.3135  0.4466 -0.4453
  879SOL     OW 3513   2.707   2.423   0.919 -0.9072  0.2104  0.3853
  879SOL    HW1 3514   2.769   2.494   0.930 -4.1729 -2.2676  0.3859
  879SOL    HW2 3515   2.757   2.353   0.871  1.1971 -2.8132  0.4444
  879SOL     MW 3516   2.722   2.423   0.914 -1.0604 -0.5155  0.3931
  880SOL     OW 3517   2.614   2.177   0.685 -0.1942  0.5955  0.0726
  880SOL    HW1 3518   2.571   2.132   0.753 -0.5523  1.0450  0.4985
  880SOL    HW2 3519   2.580   2.134   0.605  1.7914 -0.3357  2.2337
  880SOL     MW 3520   2.604   2.166   0.683  0.0205  0.5320  0.4139
  881SOL     OW 3521   2.963   2.697   0.746  0.2823  0.0596 -0.1954
  881SOL    HW1 3522   2.911   2.642   0.689  1.1164 -0.0220  0.0122
  881SOL    HW2 3523   3.055   2.699   0.713  0.4963  0.6841  1.2641
  881SOL     MW 3524   2.968   2.690   0.734  0.4205  0.1312  0.0246
  882SOL     OW 3525   2.322   2.818   1.957  0.0567 -0.6119  0.2131
  882SOL    HW1 3526   2.298   2.815   1.860 -2.4606  0.5941 -1.3484
  882SOL    HW2 3527   2.279   2.735   1.982 -0.0382 -1.6293 -0.2514
  882SOL     MW 3528   2.313   2.807   1.948 -0.2879 -0.5870 -0.0542
  883SOL     OW 3529   2.282   2.301   1.416  0.1555  0.7061  0.5590
  883SOL    HW1 3530   2.350   2.240   1.376  1.5013  1.4254 -2.8329
  883SOL    HW2 3531   2.198   2.256   1.395 -2.5391  0.1379 -0.5279
  883SOL     MW 3532   2.280   2.287   1.408 -0.0225  0.7260 -0.0320
  884SOL     OW 3533   1.878   1.883   1.129  0.4238  0.0820 -0.2689
  884SOL    HW1 3534   1.813   1.948   1.097 -0.6704 -0.6184 -1.6485
  884SOL    HW2 3535   1.965   1.908   1.097 -2.8976  1.3293  0.6425
  884SOL     MW 3536   1.881   1.895   1.121 -0.1588  0.1542 -0.3307
  885SOL     OW 3537   2.810   2.418   1.828  0.3473  0.0420 -0.4398
  885SOL    HW1 3538   2.887   2.367   1.829 -1.1756  0.9413 -3.2592
  885SOL    HW2 3539   2.741   2.377   1.770 -1.7540  1.6466 -2.8150
  885SOL     MW 3540   2.811   2.406   1.821 -0.1309  0.3724 -1.1252
  886SOL     OW 3541   2.773   2.445   1.340 -0.4028 -0.8572 -0.2698
  886SOL    HW1 3542   2.853   2.396   1.313 -0.2656 -1.7717  1.6944
  886SOL    HW2 3543   2.802   2.531   1.373  0.0515 -3.9111 -0.0926
  886SOL     MW 3544   2.788   2.450   1.341 -0.3247 -1.3808  0.0128
  887SOL     OW 3545   2.292   2.630   1.496 -0.0529  0.3270  0.1499
  887SOL    HW1 3546   2.333   2.669   1.413 -0.6450 -1.6208 -0.0169
  887SOL    HW2 3547   2.265   2.549   1.457  1.4213  0.3797  0.5334
  887SOL     MW 3548   2.294   2.625   1.480  0.0635  0.0770  0.1785
  888SOL     OW 3549   1.851   2.083   1.376  0.5616 -0.5458  0.7266
  888SOL    HW1 3550   1.941   2.087   1.334 -1.0645 -1.1037 -1.3661
  888SOL    HW2 3551   1.867   2.110   1.466  0.2431 -1.4103  2.0119
  888SOL     MW 3552   1.865   2.087   1.382  0.3050 -0.7335  0.6200
  889SOL     OW 3553   2.346   2.001   2.073 -0.1938 -0.2604 -0.1806
  889SOL    HW1 3554   2.427   2.004   2.126 -0.1445  2.6588  1.5242
  889SOL    HW2 3555   2.331   2.094   2.040 -1.2143  0.9667  1.5185
  889SOL     MW 3556   2.354   2.014   2.076 -0.3220  0.2866  0.2685
  890SOL     OW 3557   0.088   2.281   0.137  0.1412  0.3129  0.3622
  890SOL    HW1 3558   0.048   2.369   0.129 -1.2022  0.0701  2.2872
  890SOL    HW2 3559   0.082   2.257   0.232 -2.8782  0.2730 -1.8097
  890SOL     MW 3560   0.082   2.289   0.148 -0.4345  0.2756  0.3296
  891SOL     OW 3561   3.037   2.034   1.287 -0.1907 -0.3860  0.4546
  891SOL    HW1 3562   3.105   2.078   1.347 -0.1293 -0.5895  2.1872
  891SOL    HW2 3563   3.002   2.106   1.233 -0.0768  0.8669 -1.3517
  891SOL     MW 3564   3.041   2.049   1.288 -0.1676 -0.2475  0.4449
  892SOL     OW 3565   2.358   2.408   2.955  0.1014 -0.5565  0.0337
  892SOL    HW1 3566   2.366   2.329   3.013  1.1645 -1.6360 -1.2878
  892SOL    HW2 3567   2.442   2.406   2.903  1.4399  0.5943 -0.0050
  892SOL     MW 3568   2.370   2.397   2.956  0.4182 -0.5471 -0.1457
  893SOL     OW 3569   1.585   2.488   1.227  0.3501 -0.6821 -0.6696
  893SOL    HW1 3570   1.512   2.499   1.290 -1.6259  0.8790  1.0960
  893SOL    HW2 3571   1.633   2.434   1.287  1.2424  0.0876 -1.0062
  893SOL     MW 3572   1.582   2.482   1.243  0.2071 -0.3746 -0.4810
  894SOL     OW 3573   2.837   1.912   0.463 -0.2534 -0.5446 -0.3576
  894SOL    HW1 3574   2.748   1.915   0.488  2.9695  0.5620  2.6915
  894SOL    HW2 3575   2.839   1.870   0.368 -0.1999  1.7088 -1.7373
  894SOL     MW 3576   2.825   1.907   0.454  0.1789 -0.1013 -0.1373
  895SOL     OW 3577   2.082   2.169   1.260 -0.4338  0.2100  0.3769
  895SOL    HW1 3578   2.052   2.224   1.183  0.2862  0.0784 -0.2353
  895SOL    HW2 3579   2.098   2.092   1.206  0.2944  1.1145  0.4527
  895SOL     MW 3580   2.080   2.166   1.243 -0.2427  0.3120  0.3061
  896SOL     OW 3581   2.169   2.828   1.116  0.1450  0.2540  0.1365
  896SOL    HW1 3582   2.241   2.814   1.172 -0.9776  1.6284  0.1898
  896SOL    HW2 3583   2.100   2.760   1.144 -0.8608 -1.6696  0.3538
  896SOL     MW 3584   2.169   2.817   1.127 -0.1358  0.1816  0.1722
  897SOL     OW 3585   2.994   2.947   0.185  0.0306 -0.6324 -0.3351
  897SOL    HW1 3586   3.075   2.947   0.131 -0.8211 -3.1935 -0.0307
  897SOL    HW2 3587   2.955   2.858   0.170  0.1118 -3.7733  1.0340
  897SOL     MW 3588   3.000   2.935   0.176 -0.0711 -1.3847 -0.1143
  898SOL     OW 3589   2.073   0.195   1.448 -0.3628 -0.3877  0.1092
  898SOL    HW1 3590   2.003   0.127   1.428  2.2065 -1.3163 -0.0420
  898SOL    HW2 3591   2.115   0.230   1.367 -4.5036  2.7750 -1.5589
  898SOL     MW 3592   2.069   0.190   1.435 -0.5701 -0.0930 -0.1308
  899SOL     OW 3593   2.901   2.960   0.689  0.7839  0.6723 -0.2762
  899SOL    HW1 3594   2.913   2.873   0.730  1.0338  0.6658  0.8751
  899SOL    HW2 3595   2.821   3.001   0.721  2.7259  0.9114 -0.9333
  899SOL     MW 3596   2.892   2.954   0.699  1.0731  0.7030 -0.2110
  900SOL     OW 3597   0.141   2.360   1.099  0.4227  0.7707 -0.1157
  900SOL    HW1 3598   0.155   2.453   1.084 -0.3128  1.5108 -0.3739
  900SOL    HW2 3599   0.119   2.327   1.008  3.3494 -0.7497 -2.7748
  900SOL     MW 3600   0.140   2.368   1.085  0.7118  0.6677 -0.5006
  901SOL     OW 3601   1.783   2.900   1.702  0.0224 -0.2808 -0.5303
  901SOL    HW1 3602   1.848   2.834   1.672  1.3252  1.7151 -0.8463
  901SOL    HW2 3603   1.708   2.865   1.650  0.6131 -0.0917  2.0119
  901SOL     MW 3604   1.782   2.887   1.691  0.2723  0.0075 -0.2366
  902SOL     OW 3605   2.570   2.041   1.846 -0.1853  0.4345 -0.1408
  902SOL    HW1 3606   2.569   1.951   1.885  1.1671  2.4904  0.6666
  902SOL    HW2 3607   2.653   2.072   1.885 -1.8863 -2.0396 -0.8279
  902SOL     MW 3608   2.581   2.034   1.857 -0.2313  0.3794 -0.1249
  903SOL     OW 3609   1.567   2.773   0.528 -0.4460 -0.0575 -0.1670
  903SOL    HW1 3610   1.628   2.708   0.555 -0.8347 -0.3497  0.9525
  903SOL    HW2 3611   1.536   2.820   0.605  3.3049 -3.0428 -0.1204
  903SOL     MW 3612   1.571   2.771   0.542 -0.0024 -0.4900 -0.0132
  904SOL     OW 3613   2.486   2.557   1.736  0.1413 -0.5491 -0.0537
  904SOL    HW1 3614   2.417   2.588   1.673  0.2230  1.7147  0.3911
  904SOL    HW2 3615   2.539   2.493   1.691  1.0915  2.9974  1.5851
  904SOL     MW 3616   2.483   2.553   1.722  0.2775  0.2175  0.2212
  905SOL     OW 3617   2.315   2.536   2.190  0.2536 -0.6956  0.3806
  905SOL    HW1 3618   2.362   2.495   2.117 -0.5910  0.7473 -2.6174
  905SOL    HW2 3619   2.304   2.459   2.255  1.1394 -2.4235  1.1683
  905SOL     MW 3620   2.320   2.520   2.189  0.2590 -0.7332  0.0890
  906SOL     OW 3621   2.435   2.473   0.800 -0.7624  0.3028  1.3010
  906SOL    HW1 3622   2.531   2.474   0.813 -1.3426  0.0521  0.0975
  906SOL    HW2 3623   2.411   2.560   0.834 -0.0715 -1.2480  0.4204
  906SOL     MW 3624   2.445   2.485   0.806 -0.7478  0.0651  1.0260
  907SOL     OW 3625   2.627   2.948   1.260 -0.3796  0.4011  0.4688
  907SOL    HW1 3626   2.701   2.980   1.314  1.7785 -0.2537 -0.0377
  907SOL    HW2 3627   2.660   2.934   1.169  1.4116 -0.1768 -2.1418
  907SOL     MW 3628   2.641   2.950   1.255  0.1415  0.2385  0.0575
  908SOL     OW 3629   2.718   2.367  -0.004 -0.3138 -0.2373 -0.6847
  908SOL    HW1 3630   2.654   2.299   0.014  0.2225 -3.5988  0.9017
  908SOL    HW2 3631   2.691   2.430   0.056 -0.3155  1.0404  1.2116
  908SOL     MW 3632   2.706   2.366   0.006 -0.2433 -0.5122 -0.2252
  909SOL     OW 3633   1.583   0.165   1.074 -0.0724  0.0996  0.7992
  909SOL    HW1 3634   1.632   0.229   1.022 -1.1748  0.6657 -0.2784
  909SOL    HW2 3635   1.552   0.223   1.147 -0.3785  0.5301  0.2246
  909SOL     MW 3636   1.585   0.181   1.077 -0.2583  0.2311  0.5812
  910SOL     OW 3637   2.320   1.777   0.417  0.1433 -0.1539 -0.3062
  910SOL    HW1 3638   2.258   1.701   0.429  0.5104  0.4578  0.2063
  910SOL    HW2 3639   2.278   1.831   0.355  1.6808  1.1342  1.9830
  910SOL     MW 3640   2.307   1.774   0.411  0.3946  0.0967  0.0635
  911SOL     OW 3641   2.192   2.279   1.670  0.2485 -0.3803  0.2021
  911SOL    HW1 3642   2.266   2.245   1.730  1.3752 -1.4289  2.8787
  911SOL    HW2 3643   2.239   2.287   1.586  2.2589 -0.4827  0.1565
  911SOL     MW 3644   2.208   2.276   1.667  0.6624 -0.5322  0.5493
  912SOL     OW 3645   2.883   1.983   1.521  0.0038  0.4479  0.5462
  912SOL    HW1 3646   2.937   2.003   1.445 -2.5759  2.9058 -0.5288
  912SOL    HW2 3647   2.803   2.033   1.498 -1.0698  1.3759 -1.8798
  912SOL     MW 3648   2.879   1.992   1.508 -0.4782  0.8946  0.0843
  913SOL     OW 3649   2.517   2.957   0.412 -0.2780  0.2822  0.2108
  913SOL    HW1 3650   2.583   2.898   0.451  0.8744  0.0080  0.6526
  913SOL    HW2 3651   2.438   2.899   0.412 -0.7929  0.4421 -1.7804
  913SOL     MW 3652   2.515   2.941   0.417 -0.1939  0.2671  0.0064
  914SOL     OW 3653   2.777   1.654   0.014  0.2605 -0.1707 -0.7928
  914SOL    HW1 3654   2.784   1.727  -0.054 -3.9420  0.8499 -1.1455
  914SOL    HW2 3655   2.686   1.643   0.038 -0.1865  2.5654 -2.5918
  914SOL     MW 3656   2.766   1.662   0.008 -0.3530  0.3250 -1.0767
  915SOL     OW 3657   1.822   0.185   0.244 -0.1745  0.0729 -0.5780
  915SOL    HW1 3658   1.866   0.122   0.304  0.4004  0.9125  3.2691
  915SOL    HW2 3659   1.725   0.164   0.253 -0.3895 -1.8924  0.5353
  915SOL     MW 3660   1.815   0.174   0.253 -0.1270 -0.0756  0.0765
  916SOL     OW 3661   1.783   2.073   1.972 -0.2221 -0.4905  0.0993
  916SOL    HW1 3662   1.844   2.141   1.947 -1.9175  1.9176  0.6046
  916SOL    HW2 3663   1.768   2.021   1.889 -0.9735 -0.5787 -0.7019
  916SOL     MW 3664   1.789   2.075   1.957 -0.5449 -0.1844  0.0603
  917SOL     OW 3665   2.388   2.312   2.691  0.8677 -0.4777 -0.5717
  917SOL    HW1 3666   2.359   2.317   2.783  1.5962  1.6186 -0.0541
  917SOL    HW2 3667   2.349   2.388   2.646  0.5379  0.7050 -0.1827
  917SOL     MW 3668   2.379   2.323   2.697  0.9203 -0.0450 -0.4521
  918SOL     OW 3669   2.050   1.650   2.684 -0.1703 -0.5574  0.4539
  918SOL    HW1 3670   1.960   1.662   2.640 -0.0904  0.2682  0.8603
  918SOL    HW2 3671   2.116   1.731   2.671  0.0893 -0.7600  3.2482
  918SOL     MW 3672   2.047   1.662   2.676 -0.1255 -0.4752  0.8762
  919SOL     OW 3673   0.001   2.352   2.259 -0.0607 -0.5037 -0.7993
  919SOL    HW1 3674  -0.074   2.289   2.233  0.3142  1.1031  3.0530
  919SOL    HW2 3675   0.065   2.337   2.188 -0.5271 -0.1727 -2.4364
  919SOL     MW 3676  -0.000   2.342   2.246 -0.0728 -0.2480 -0.5071
  920SOL     OW 3677   2.771   2.843   0.010 -0.1803  0.0216 -0.5217
  920SOL    HW1 3678   2.701   2.901   0.039  1.9064 -0.5554  0.3561
  920SOL    HW2 3679   2.734   2.800  -0.066  1.7478 -1.0190  1.9883
  920SOL     MW 3680   2.757   2.845   0.004  0.3494 -0.1918 -0.0747
  921SOL     OW 3681   2.479   2.615   2.648 -0.6621 -0.2561 -0.4013
  921SOL    HW1 3682   2.550   2.629   2.581 -3.7975 -0.7078  0.1213
  921SOL    HW2 3683   2.514   2.545   2.701  0.8450 -1.6684  3.0138
  921SOL     MW 3684   2.493   2.608   2.646 -0.8769 -0.5020  0.1182
  922SOL     OW 3685   2.022   2.784   0.283 -0.1180  0.2985  0.2839
  922SOL    HW1 3686   1.999   2.806   0.185 -1.9778  0.4792 -1.7520
  922SOL    HW2 3687   1.993   2.687   0.282 -1.1061  1.5728 -1.9868
  922SOL     MW 3688   2.016   2.774   0.270 -0.4937  0.4905 -0.2843
  923SOL     OW 3689   2.232   2.806   1.691  0.2235 -0.4369  0.6420
  923SOL    HW1 3690   2.268   2.766   1.607  1.0260  1.1128  0.2407
  923SOL    HW2 3691   2.199   2.897   1.668 -0.9870 -1.1925  1.8030
  923SOL     MW 3692   2.233   2.813   1.677  0.1696 -0.3321  0.7422
  924SOL     OW 3693   1.180   2.753   2.551  0.1375 -0.7254  0.5082
  924SOL    HW1 3694   1.223   2.818   2.490 -1.4828 -1.6781  0.0270
  924SOL    HW2 3695   1.239   2.709   2.610 -1.8318 -0.4939 -1.1715
  924SOL     MW 3696   1.193   2.756   2.551 -0.3361 -0.8205  0.2231
  925SOL     OW 3697   2.949   0.208   2.618  0.4465  0.3982 -0.7353
  925SOL    HW1 3698   2.996   0.238   2.544  0.6055 -1.7407  0.3158
  925SOL    HW2 3699   2.892   0.280   2.640  1.2560 -3.9400  1.8566
  925SOL     MW 3700   2.948   0.222   2.611  0.5743 -0.4564 -0.2547
  926SOL     OW 3701   2.700   2.390   2.088 -0.1269 -0.3382  0.0446
  926SOL    HW1 3702   2.766   2.442   2.135 -0.8501 -0.8206  1.3707
  926SOL    HW2 3703   2.747   2.381   2.003 -0.3828  3.3992 -0.6825
  926SOL     MW 3704   2.715   2.396   2.083 -0.2561  0.0912  0.1237
  927SOL     OW 3705   2.360   0.127   0.309 -0.1323 -0.2828  0.1840
  927SOL    HW1 3706   2.459   0.133   0.323  1.6313  2.0230  2.7038
  927SOL    HW2 3707   2.345   0.093   0.216  2.6567 -1.3726  0.2580
  927SOL     MW 3708   2.371   0.123   0.298  0.4684 -0.1224  0.5262
  928SOL     OW 3709   2.023   2.501   1.797  1.2639  0.0585  0.2347
  928SOL    HW1 3710   2.100   2.458   1.761 -0.4142 -0.1740 -0.0556
  928SOL    HW2 3711   2.047   2.542   1.885  0.0510  1.1503  1.5381
  928SOL     MW 3712   2.036   2.501   1.804  0.8825  0.1719  0.3684
  929SOL     OW 3713   2.748   2.390   2.458 -0.2008 -0.0844 -0.1271
  929SOL    HW1 3714   2.770   2.312   2.407 -0.3278  3.2960 -1.9152
  929SOL    HW2 3715   2.726   2.354   2.545 -2.5511 -1.1948  2.8248
  929SOL     MW 3716   2.748   2.375   2.463 -0.5277  0.2151  0.0265
  930SOL     OW 3717   2.039   2.918   2.699  0.4711  0.2358  0.3924
  930SOL    HW1 3718   2.042   2.829   2.735 -1.6247  0.0619  0.7157
  930SOL    HW2 3719   2.132   2.940   2.702 -1.8040  0.1972 -1.5346
  930SOL     MW 3720   2.051   2.909   2.704 -0.1056  0.2078  0.1808
  931SOL     OW 3721   2.940   2.814   2.255 -0.4103  0.7598  0.5626
  931SOL    HW1 3722   3.038   2.816   2.256  1.3234  2.4410 -1.2922
  931SOL    HW2 3723   2.928   2.852   2.171  0.0187 -1.7372  1.0612
  931SOL     MW 3724   2.952   2.819   2.244 -0.1249  0.6521  0.3837
  932SOL     OW 3725   2.829   1.925   2.555  0.7650 -0.2297 -0.0689
  932SOL    HW1 3726   2.920   1.947   2.570  1.0680 -2.5183 -0.8041
  932SOL    HW2 3727   2.830   1.921   2.460  1.3193  2.1378 -3.4364
  932SOL     MW 3728   2.841   1.928   2.544  0.8781 -0.2193 -0.6102
  933SOL     OW 3729   2.049   2.816   2.208  0.1729  0.1692 -0.3371
  933SOL    HW1 3730   2.122   2.856   2.261 -0.5255  3.6215 -1.6030
  933SOL    HW2 3731   1.989   2.893   2.196  1.4134  1.2738 -0.4418
  933SOL     MW 3732   2.051   2.832   2.213  0.2444  0.7705 -0.5179
  934SOL     OW 3733   2.043   2.747   2.473 -0.2428  0.0902 -0.1728
  934SOL    HW1 3734   2.034   2.826   2.532  2.4246  1.9980  0.2355
  934SOL    HW2 3735   2.008   2.768   2.385  3.2717  0.3283  0.4703
  934SOL     MW 3736   2.037   2.761   2.469  0.5728  0.3734 -0.0341
  935SOL     OW 3737   2.620   1.539   1.800  0.4032 -0.3296 -0.5743
  935SOL    HW1 3738   2.697   1.519   1.750 -1.8965 -0.8193 -2.7642
  935SOL    HW2 3739   2.557   1.544   1.726  1.2090 -0.8501 -5.2618
  935SOL     MW 3740   2.622   1.537   1.784  0.2061 -0.4629 -1.4817
  936SOL     OW 3741   2.966   2.234   3.062  0.4026 -0.2721 -0.2241
  936SOL    HW1 3742   3.039   2.253   3.121 -0.8763  0.3937 -2.2297
  936SOL    HW2 3743   2.894   2.290   3.081  2.0148  0.4439  2.2028
  936SOL     MW 3744   2.966   2.244   3.072  0.4466 -0.0898 -0.1685
  937SOL     OW 3745   2.020   2.192   2.641  0.3390  0.4599  0.1456
  937SOL    HW1 3746   2.096   2.165   2.695 -1.4033  3.0836 -2.1321
  937SOL    HW2 3747   2.025   2.148   2.558 -0.2143 -1.4530  2.3347
  937SOL     MW 3748   2.031   2.183   2.637  0.0361  0.5537  0.1339
  938SOL     OW 3749   2.297   1.795   1.911 -0.2845  0.0300  0.1182
  938SOL    HW1 3750   2.254   1.842   1.832 -1.8968 -2.0106 -1.5609
  938SOL    HW2 3751   2.304   1.861   1.980 -1.1805 -3.4920  0.6013
  938SOL     MW 3752   2.292   1.810   1.909 -0.6155 -0.7039 -0.0396
  939SOL     OW 3753   2.829   1.975   2.290  0.1902  0.2467  0.3506
  939SOL    HW1 3754   2.822   1.910   2.218 -1.7052 -1.2481  1.3086
  939SOL    HW2 3755   2.734   1.999   2.294  0.3932 -0.9277  0.4836
  939SOL     MW 3756   2.816   1.970   2.281 -0.0331 -0.1055  0.4946
  940SOL     OW 3757   2.323   0.128   2.683 -0.0507  0.0392  0.3297
  940SOL    HW1 3758   2.328   0.027   2.674  0.2738 -1.3516 -3.5820
  940SOL    HW2 3759   2.362   0.159   2.762 -1.6811  2.0129 -2.2101
  940SOL     MW 3760   2.329   0.118   2.692 -0.2230  0.1161 -0.5215
  941SOL     OW 3761   0.195   2.327   2.052  0.6172  0.1259  0.2698
  941SOL    HW1 3762   0.283   2.288   2.048 -3.1145  1.6560  1.4673
  941SOL    HW2 3763   0.155   2.323   1.973  1.5906  2.0876  1.2776
  941SOL     MW 3764   0.202   2.321   2.041  0.2533  0.5866  0.5608
  942SOL     OW 3765   2.878   2.203   2.196  0.7040  0.3037 -0.0290
  942SOL    HW1 3766   2.794   2.258   2.175 -0.3020  3.1473  0.1711
  942SOL    HW2 3767   2.856   2.119   2.242  1.0676  2.8347  0.4604
  942SOL     MW 3768   2.864   2.199   2.199  0.6192  1.0128  0.0620
  943SOL     OW 3769   0.357   2.037   2.323  0.5566 -0.1757 -0.5549
  943SOL    HW1 3770   0.283   2.091   2.370  1.5631  2.0090  0.9697
  943SOL    HW2 3771   0.439   2.046   2.376  0.5667  2.6213 -1.3819
  943SOL     MW 3772   0.358   2.046   2.336  0.6907  0.4816 -0.4628
  944SOL     OW 3773   2.126   2.625   2.016 -0.2740  0.1935  0.1001
  944SOL    HW1 3774   2.186   2.569   2.070  0.3803 -2.3576 -0.9903
  944SOL    HW2 3775   2.090   2.694   2.076  1.4655  3.3794  0.3159
  944SOL     MW 3776   2.129   2.627   2.031  0.0418  0.2772 -0.0153
  945SOL     OW 3777   2.786   2.697   2.860  0.0108  0.4394 -0.5698
  945SOL    HW1 3778   2.724   2.631   2.847  1.5442  1.1709 -0.9665
  945SOL    HW2 3779   2.847   2.689   2.786  0.9377  2.5090 -1.8375
  945SOL     MW 3780   2.786   2.687   2.849  0.3354  0.8090 -0.7894
  946SOL     OW 3781   2.472   2.754   2.263 -0.8528 -0.0447 -0.4638
  946SOL    HW1 3782   2.515   2.777   2.180 -1.3596  2.1882  0.5856
  946SOL    HW2 3783   2.417   2.680   2.243  0.0724 -4.0764 -1.8409
  946SOL     MW 3784   2.470   2.748   2.249 -0.7976 -0.2820 -0.5071
  947SOL     OW 3785   2.030   3.090   0.265 -0.0775  0.7576 -0.2024
  947SOL    HW1 3786   1.991   3.006   0.258 -2.7182  0.2035 -2.7700
  947SOL    HW2 3787   2.100   3.081   0.343  2.4725 -2.7081  0.6872
  947SOL     MW 3788   2.034   3.078   0.274 -0.0895  0.2272 -0.4238
  948SOL     OW 3789   1.819   3.071   2.637 -0.0071  0.2467 -0.1466
  948SOL    HW1 3790   1.897   3.010   2.659  0.1846 -0.6601  1.3292
  948SOL    HW2 3791   1.809   3.095   2.542 -1.9507  2.1148 -1.0051
  948SOL     MW 3792   1.828   3.066   2.628 -0.2382  0.3735 -0.0651
  949SOL     OW 3793   2.563   2.045   2.302 -0.1606  0.4317 -0.0526
  949SOL    HW1 3794   2.557   1.957   2.345 -1.7782 -0.1628  2.4167
  949SOL    HW2 3795   2.497   2.091   2.353  1.2914 -2.8783  0.5731
  949SOL     MW 3796   2.553   2.039   2.315 -0.1824 -0.0834  0.3558
  950SOL     OW 3797   2.174   2.603   3.011 -0.4425 -0.2111 -0.3648
  950SOL    HW1 3798   2.243   2.537   2.993  1.5348 -1.3002  0.9494
  950SOL    HW2 3799   2.134   2.639   2.927 -0.8066 -0.3535  2.0722
  950SOL     MW 3800   2.178   2.599   2.998 -0.2297 -0.3736  0.1301
  951SOL     OW 3801   2.971   2.074   2.846  0.3390  0.3848  0.5592
  951SOL    HW1 3802   2.976   2.164   2.887 -0.5089  0.5186  3.0180
  951SOL    HW2 3803   3.037   2.077   2.772 -0.2534 -0.8570  0.6359
  951SOL     MW 3804   2.980   2.086   2.842  0.1490  0.2386  0.8937
  952SOL     OW 3805   3.053   1.686   2.044  0.5333  0.1823  0.4141
  952SOL    HW1 3806   2.959   1.703   2.051  0.3355  0.8858 -0.6586
  952SOL    HW2 3807   3.103   1.762   2.074  1.1126  2.8715 -0.2605
  952SOL     MW 3808   3.047   1.698   2.049  0.5836  0.6299  0.1835
  953SOL     OW 3809   1.991   1.809   2.895 -0.3814 -0.4899 -0.1725
  953SOL    HW1 3810   1.913   1.772   2.935 -0.9045 -2.9661  2.1083
  953SOL    HW2 3811   2.003   1.753   2.823  1.8444  0.9734 -0.5060
  953SOL     MW 3812   1.982   1.797   2.891 -0.1567 -0.6236  0.0844
  954SOL     OW 3813   2.458   2.113   2.912  0.7092 -0.1646  0.3999
  954SOL    HW1 3814   2.371   2.131   2.867 -0.8245 -0.1951 -2.6970
  954SOL    HW2 3815   2.512   2.067   2.845 -2.4471 -0.3357 -2.5528
  954SOL     MW 3816   2.454   2.110   2.897  0.0904 -0.1912 -0.3983
  955SOL     OW 3817   1.582   1.613   2.542 -0.5201  0.0055 -0.4701
  955SOL    HW1 3818   1.563   1.601   2.448 -0.4347  2.3402  2.0255
  955SOL    HW2 3819   1.667   1.659   2.562 -1.2956  2.4326 -3.6041
  955SOL     MW 3820   1.591   1.617   2.532 -0.6112  0.6338 -0.5543
  956SOL     OW 3821   2.610   2.471   2.845 -0.1808  0.1642  0.1673
  956SOL    HW1 3822   2.619   2.460   2.940  2.6734 -0.1901  1.2241
  956SOL    HW2 3823   2.666   2.397   2.817  0.8302 -0.0359 -0.5319
  956SOL     MW 3824   2.618   2.460   2.854  0.3292  0.0911  0.2145
  957SOL     OW 3825   2.293   2.795   0.394  0.2727  0.1277 -0.2571
  957SOL    HW1 3826   2.226   2.777   0.325  0.7305 -1.1684  1.4211
  957SOL    HW2 3827   2.258   2.747   0.475 -0.4478 -0.6225  1.1865
  957SOL     MW 3828   2.280   2.786   0.396  0.2381 -0.1423  0.1548
  958SOL     OW 3829   2.024   2.663   2.809 -0.0291 -0.2670 -0.1932
  958SOL    HW1 3830   1.994   2.587   2.751  1.6424 -0.6977  3.1433
  958SOL    HW2 3831   1.955   2.684   2.873  2.7410  1.0944 -3.4643
  958SOL     MW 3832   2.011   2.656   2.810  0.5569 -0.1442 -0.1846
  959SOL     OW 3833   2.426   2.554   0.308 -0.1141 -0.3268  0.0351
  959SOL    HW1 3834   2.486   2.575   0.234  1.3027 -0.5958 -1.7199
  959SOL    HW2 3835   2.390   2.645   0.339 -2.2179  1.6811  1.4810
  959SOL     MW 3836   2.429   2.569   0.302 -0.2047 -0.0973 -0.0057
  960SOL     OW 3837   1.914   2.368   2.310 -0.0573 -0.3158 -0.0848
  960SOL    HW1 3838   1.893   2.272   2.307 -1.2001 -0.3909  1.9133
  960SOL    HW2 3839   1.860   2.399   2.384 -2.3934 -0.7913 -1.0100
  960SOL     MW 3840   1.904   2.359   2.319 -0.5163 -0.3885  0.0568
  961SOL     OW 3841   2.195   2.354   2.353 -0.3871  0.3675  0.1531
  961SOL    HW1 3842   2.103   2.331   2.329 -2.9568 -4.0296 -0.8814
  961SOL    HW2 3843   2.185   2.429   2.415  2.5255  0.6272 -1.3596
  961SOL     MW 3844   2.181   2.361   2.358 -0.3419 -0.1784 -0.1829
  962SOL     OW 3845   2.205   2.081   2.779  0.5268 -0.7102  0.2981
  962SOL    HW1 3846   2.186   2.031   2.859  1.0259  1.7224  3.0781
  962SOL    HW2 3847   2.234   2.028   2.711  2.7033  0.4908  2.1783
  962SOL     MW 3848   2.206   2.067   2.781  0.8798 -0.2308  0.9130
  963SOL     OW 3849   1.791   2.579   2.061  0.4144 -0.3898 -0.5146
  963SOL    HW1 3850   1.849   2.580   2.141  2.9875 -1.1429  0.3509
  963SOL    HW2 3851   1.818   2.503   2.020  1.2360  2.5024 -3.5948
  963SOL     MW 3852   1.803   2.569   2.066  0.8623 -0.1076 -0.8068
  964SOL     OW 3853   1.851   1.986   2.718  0.3809 -0.2423  0.5727
  964SOL    HW1 3854   1.896   2.064   2.690  2.4976  1.9831  0.9533
  964SOL    HW2 3855   1.908   1.930   2.770 -1.5489  0.5193 -2.1627
  964SOL     MW 3856   1.864   1.989   2.721  0.4056  0.1518  0.2620
  965SOL     OW 3857   2.202   2.672   0.617 -0.1385  0.1964 -0.0689
  965SOL    HW1 3858   2.159   2.590   0.628  2.7099 -1.1169  0.3204
  965SOL    HW2 3859   2.248   2.694   0.699 -0.9728  0.1262  1.3785
  965SOL     MW 3860   2.202   2.664   0.629  0.1272  0.0139  0.1734
  966SOL     OW 3861   2.677   2.644   2.465  0.2044  0.0114 -0.4995
  966SOL    HW1 3862   2.635   2.679   2.384 -0.7471 -0.4979  0.2994
  966SOL    HW2 3863   2.693   2.550   2.437  0.2256  0.0027 -0.1976
  966SOL     MW 3864   2.674   2.636   2.450  0.0816 -0.0569 -0.3543
  967SOL     OW 3865   2.896   2.996   2.927 -0.2966  0.5215 -0.1651
  967SOL    HW1 3866   2.857   2.933   2.993  0.2846 -2.6364  1.1292
  967SOL    HW2 3867   2.817   3.018   2.874 -1.3431 -0.4632  0.9641
  967SOL     MW 3868   2.880   2.990   2.929 -0.3580 -0.0250  0.1546
  968SOL     OW 3869   3.003   2.588   2.990  0.4463  0.3507 -0.4070
  968SOL    HW1 3870   2.922   2.616   2.941 -0.0089 -0.7615 -0.9968
  968SOL    HW2 3871   3.026   2.534   2.917 -1.0334 -0.2537 -1.6492
  968SOL     MW 3872   2.995   2.585   2.974  0.1910  0.1242 -0.6487
  969SOL     OW 3873   1.536   2.093   1.733  0.1624 -0.2507 -0.2856
  969SOL    HW1 3874   1.600   2.028   1.716 -0.2099 -0.3529 -0.8283
  969SOL    HW2 3875   1.525   2.090   1.832  2.7667 -0.7630  3.0833
  969SOL     MW 3876   1.543   2.084   1.744  0.4569 -0.3318  0.0873
  970SOL     OW 3877   1.622   1.720   1.872 -0.0357 -0.1785 -0.1176
  970SOL    HW1 3878   1.661   1.696   1.957 -0.4107  1.8673  1.1515
  970SOL    HW2 3879   1.528   1.700   1.879  1.3831 -1.6563 -1.6108
  970SOL     MW 3880   1.614   1.714   1.884  0.1020 -0.1035 -0.1472
  971SOL     OW 3881   1.818   0.101   2.347 -0.3324 -0.8582  0.1322
  971SOL    HW1 3882   1.853   0.094   2.259 -1.0832 -0.3863 -5.9474
  971SOL    HW2 3883   1.884   0.154   2.402  1.5188 -0.3973  2.5854
  971SOL     MW 3884   1.832   0.107   2.343 -0.1872 -0.7351 -0.3463
  972SOL     OW 3885   0.279   2.788   2.515  0.2256  0.0982  0.4826
  972SOL    HW1 3886   0.322   2.703   2.528 -0.1356  1.0151  0.3718
  972SOL    HW2 3887   0.335   2.850   2.558 -0.6240  1.4198 -1.8364
  972SOL     MW 3888   0.292   2.785   2.523  0.0658  0.3936  0.1620
  973SOL     OW 3889   2.627   3.093   2.072  0.7053  0.5696  0.4581
  973SOL    HW1 3890   2.586   3.008   2.065 -0.4827  2.2364  2.1842
  973SOL    HW2 3891   2.634   3.125   1.984  0.8397 -1.6245  2.3056
  973SOL     MW 3892   2.622   3.086   2.060  0.5663  0.5000  0.9296
  974SOL     OW 3893   2.110   0.307   2.768 -0.1491 -0.6759  0.2337
  974SOL    HW1 3894   2.184   0.252   2.752 -1.9689 -0.6634  1.5954
  974SOL    HW2 3895   2.048   0.240   2.795  2.6107  0.1894  2.6276
  974SOL     MW 3896   2.112   0.291   2.769 -0.0251 -0.5601  0.7292
  975SOL     OW 3897   2.227   2.553   2.562 -0.5884 -0.4598 -0.2427
  975SOL    HW1 3898   2.305   2.589   2.598 -1.1788 -0.4187  1.2888
  975SOL    HW2 3899   2.177   2.624   2.521  1.4806 -1.0042 -2.6276
  975SOL     MW 3900   2.231   2.567   2.561 -0.3933 -0.5262 -0.3553
  976SOL     OW 3901   0.210   0.329   1.703 -0.3896  0.6346  0.1021
  976SOL    HW1 3902   0.254   0.248   1.752 -0.5008 -3.3778  0.6876
  976SOL    HW2 3903   0.126   0.301   1.674  2.0847 -0.1761 -0.5661
  976SOL     MW 3904   0.205   0.314   1.706 -0.0778 -0.0018  0.0912
  977SOL     OW 3905   1.709   2.751   2.481  0.1233 -0.1373 -0.3692
  977SOL    HW1 3906   1.715   2.655   2.471  0.0709  0.6155  0.7165
  977SOL    HW2 3907   1.800   2.770   2.499  0.3194  0.5992 -0.9518
  977SOL     MW 3908   1.722   2.741   2.482  0.1422  0.0592 -0.3028
   3.10000   3.10000   3.10000
