977 TIP4P/2005f water molecules t=   1.40000 step= 1400
 3908
    1SOL     OW    1   0.371   0.866   0.026 -0.4105  0.4318  0.1704
    1SOL    HW1    2   0.388   0.923  -0.052  0.1283 -1.9347 -1.3119
    1SOL    HW2    3   0.316   0.790   0.006  1.0080  0.0014  1.5766
    1SOL     MW    4   0.366   0.864   0.013 -0.1523  0.0627  0.1603
    2SOL     OW    5   0.333   3.046   1.138 -0.5019  0.7072 -0.1651
    2SOL    HW1    6   0.377   3.113   1.081  2.6966  0.4548  0.1603
    2SOL    HW2    7   0.239   3.066   1.132  0.4883 -1.7472 -0.1388
    2SOL     MW    8   0.326   3.057   1.129  0.0508  0.3501 -0.1187
    3SOL     OW    9   2.636   0.338   0.960  0.5668 -0.2377  0.1710
    3SOL    HW1   10   2.678   0.416   0.915  1.7099 -4.8660  2.9284
    3SOL    HW2   11   2.617   0.364   1.051  0.4550  3.1954  4.1938
    3SOL     MW   12   2.639   0.352   0.966  0.7029 -0.3954  1.0655
    4SOL     OW   13   3.063   1.738   0.579  0.4994  0.0536 -0.4528
    4SOL    HW1   14   2.992   1.760   0.523 -0.1828 -1.8489  0.9882
    4SOL    HW2   15   3.134   1.713   0.517 -1.1256  0.5998 -1.8926
    4SOL     MW   16   3.063   1.737   0.563  0.1950 -0.1253 -0.4527
    5SOL     OW   17   1.634   1.503   0.627  0.3425 -0.5869  0.4474
    5SOL    HW1   18   1.674   1.438   0.680 -0.9875  0.0266  2.4734
    5SOL    HW2   19   1.530   1.492   0.629 -4.1666 -0.3939 -2.8857
    5SOL     MW   20   1.625   1.493   0.634 -0.4279 -0.4805  0.2750
    6SOL     OW   21   0.787   1.390   0.589 -0.2286  0.3296  0.4265
    6SOL    HW1   22   0.695   1.407   0.559 -0.5656 -2.7215 -0.6016
    6SOL    HW2   23   0.796   1.315   0.649  0.9363  1.2276 -1.9955
    6SOL     MW   24   0.776   1.382   0.593 -0.1193  0.0455 -0.0287
    7SOL     OW   25   1.997   1.058   0.016 -0.2714  0.1968  0.1560
    7SOL    HW1   26   2.079   1.102  -0.001  4.5810 -1.3810 -0.7596
    7SOL    HW2   27   1.997   1.033   0.108 -1.3796 -0.3807  1.1506
    7SOL     MW   28   2.008   1.060   0.026  0.2226 -0.0875  0.1664
    8SOL     OW   29   0.779   1.525   1.176 -0.0755 -0.5852  0.1969
    8SOL    HW1   30   0.874   1.550   1.165  0.0735  0.8897 -4.4029
    8SOL    HW2   31   0.785   1.430   1.191 -0.7558  0.9430  0.1591
    8SOL     MW   32   0.793   1.515   1.177 -0.1456 -0.1890 -0.4150
    9SOL     OW   33   1.043   0.493   1.356 -0.1684 -0.8863  0.1630
    9SOL    HW1   34   0.979   0.426   1.325 -0.1986  0.9483 -1.3038
    9SOL    HW2   35   1.081   0.458   1.441  1.2193  1.0203  1.5588
    9SOL     MW   36   1.040   0.480   1.363  0.0107 -0.3927  0.1536
   10SOL     OW   37   0.250   0.803   0.521  0.3053  0.1060 -0.3284
   10SOL    HW1   38   0.321   0.867   0.505 -1.9827  2.3646 -0.4919
   10SOL    HW2   39   0.220   0.805   0.614  0.4470  2.4779 -0.6176
   10SOL     MW   40   0.255   0.812   0.531  0.0221  0.7169 -0.3881
   11SOL     OW   41   0.753   1.154   1.587  0.6748 -0.2546  0.1066
   11SOL    HW1   42   0.813   1.173   1.665  2.2541  2.8791  0.5372
   11SOL    HW2   43   0.772   1.071   1.548 -3.9641 -0.4971  0.5217
   11SOL     MW   44   0.764   1.145   1.592  0.2711  0.1269  0.2182
   12SOL     OW   45   3.038   1.138   0.862  0.1406 -0.3922  0.1107
   12SOL    HW1   46   3.094   1.198   0.908 -0.3123 -0.7542 -1.6160
   12SOL    HW2   47   2.996   1.186   0.792 -0.7931  2.1789 -2.0445
   12SOL     MW   48   3.040   1.152   0.859 -0.0424 -0.1008 -0.4015
   13SOL     OW   49   1.829   1.428   1.297 -0.3223 -0.1707 -0.2147
   13SOL    HW1   50   1.816   1.378   1.212 -1.0829 -2.2104 -2.1027
   13SOL    HW2   51   1.810   1.523   1.276 -1.3137 -0.1217 -1.2999
   13SOL     MW   52   1.824   1.434   1.283 -0.5535 -0.4333 -0.6070
   14SOL     OW   53   0.562   0.305   1.832  0.0213  0.1540 -0.1508
   14SOL    HW1   54   0.505   0.232   1.828 -0.1967 -0.9240  0.7105
   14SOL    HW2   55   0.579   0.345   1.749  2.9931  1.6438 -0.5946
   14SOL     MW   56   0.557   0.301   1.821  0.3847  0.2084 -0.0958
   15SOL     OW   57   1.990   0.334   1.060  0.2768  0.2098 -0.1787
   15SOL    HW1   58   1.989   0.402   1.128 -0.3733  1.0368  0.6223
   15SOL    HW2   59   2.039   0.362   0.980  1.3671  0.7047  0.9804
   15SOL     MW   60   1.996   0.346   1.058  0.3349  0.3842  0.0799
   16SOL     OW   61   0.242   1.825   0.293 -0.2139 -0.4787 -0.2190
   16SOL    HW1   62   0.340   1.825   0.276  0.3258  2.3446 -2.6215
   16SOL    HW2   63   0.228   1.917   0.317 -1.1502  0.2221 -0.9917
   16SOL     MW   64   0.253   1.838   0.294 -0.2662 -0.0137 -0.6379
   17SOL     OW   65   1.066   0.876   1.420  0.4239 -0.0681 -0.1629
   17SOL    HW1   66   1.092   0.868   1.517  1.8149 -0.0607 -0.3984
   17SOL    HW2   67   0.969   0.873   1.426  1.5523 -2.0042  0.5780
   17SOL     MW   68   1.057   0.874   1.434  0.7563 -0.3226 -0.0962
   18SOL     OW   69   0.141   1.581   0.359  0.3133 -0.3994  0.0704
   18SOL    HW1   70   0.186   1.668   0.353  1.4864  1.0880 -0.1065
   18SOL    HW2   71   0.118   1.566   0.265 -0.3772  2.6402 -2.7547
   18SOL     MW   72   0.144   1.590   0.346  0.3770  0.1979 -0.3257
   19SOL     OW   73   0.097   1.385   0.951 -0.6481  0.3969 -0.1926
   19SOL    HW1   74   0.130   1.397   0.864  0.7316  0.4761  1.0629
   19SOL    HW2   75   0.003   1.402   0.940  2.3612  1.1120 -0.2981
   19SOL     MW   76   0.089   1.389   0.938 -0.0690  0.5017 -0.0408
   20SOL     OW   77   0.420   2.176   1.197  0.3413  0.1532  0.3279
   20SOL    HW1   78   0.391   2.089   1.175 -0.3135 -1.2780  0.7749
   20SOL    HW2   79   0.406   2.176   1.293  0.1770 -0.9611 -0.1589
   20SOL     MW   80   0.415   2.165   1.207  0.2332 -0.1826  0.3226
   21SOL     OW   81   0.498   0.891   0.400  0.2958  0.2590  0.2333
   21SOL    HW1   82   0.556   0.860   0.467 -0.4988  0.0144 -1.2908
   21SOL    HW2   83   0.546   0.893   0.319  1.2485 -2.1912  2.2242
   21SOL     MW   84   0.512   0.887   0.398  0.3166 -0.0966  0.2949
   22SOL     OW   85   1.546   0.712   0.944  0.7365  0.1086  0.2515
   22SOL    HW1   86   1.515   0.662   0.871 -0.8637  0.7477 -0.6616
   22SOL    HW2   87   1.464   0.728   0.992  1.3870  1.2131 -2.5262
   22SOL     MW   88   1.531   0.708   0.941  0.6112  0.3386 -0.2355
   23SOL     OW   89   3.094   0.701   0.688  0.0013 -0.3428  0.4066
   23SOL    HW1   90   3.162   0.642   0.723  1.1128  1.6164 -1.9732
   23SOL    HW2   91   3.134   0.786   0.712  2.1646  0.4170 -1.8947
   23SOL     MW   92   3.108   0.704   0.696  0.4333  0.0160 -0.2110
   24SOL     OW   93   2.064   2.194   3.074  0.3785 -0.6032  0.1120
   24SOL    HW1   94   2.041   2.192   3.168 -0.9774 -0.8508 -0.1853
   24SOL    HW2   95   2.104   2.105   3.073  1.0054 -0.1965  0.0732
   24SOL     MW   96   2.066   2.182   3.086  0.2823 -0.5822  0.0676
   25SOL     OW   97   0.244   1.340   0.418 -0.4287  0.2083 -0.2331
   25SOL    HW1   98   0.201   1.428   0.399 -0.3018 -1.5304  0.7194
   25SOL    HW2   99   0.338   1.363   0.411  2.0623  0.4281 -2.2364
   25SOL     MW  100   0.251   1.354   0.414 -0.0833  0.0079 -0.3718
   26SOL     OW  101   2.053   1.026   0.273 -0.3768 -0.1991  0.0705
   26SOL    HW1  102   1.990   1.044   0.341  1.7495  0.5698  0.7065
   26SOL    HW2  103   2.122   1.081   0.291 -1.4927 -4.6442  0.4407
   26SOL     MW  104   2.054   1.035   0.285 -0.2435 -0.6841  0.2032
   27SOL     OW  105   1.891   1.409   0.215 -0.9527 -0.7815 -0.4994
   27SOL    HW1  106   1.831   1.486   0.212  0.0803  0.0666 -1.0431
   27SOL    HW2  107   1.950   1.429   0.291 -0.4066 -1.3329  0.8607
   27SOL     MW  108   1.891   1.421   0.225 -0.7443 -0.7423 -0.3917
   28SOL     OW  109   0.472   0.995   2.009  0.5784 -0.8743  0.1917
   28SOL    HW1  110   0.531   0.974   2.081 -2.0705  3.3747  0.5579
   28SOL    HW2  111   0.379   0.995   2.038  0.1026  0.7227  0.1315
   28SOL     MW  112   0.468   0.992   2.022  0.1661 -0.1030  0.2321
   29SOL     OW  113   0.253   1.407   0.701  0.0921 -0.6807 -0.1604
   29SOL    HW1  114   0.275   1.503   0.712  0.1665  1.2973 -0.5669
   29SOL    HW2  115   0.199   1.402   0.618  1.3185 -0.6417 -3.1179
   29SOL     MW  116   0.249   1.419   0.692  0.2638 -0.4146 -0.6042
   30SOL     OW  117   0.820   1.260   1.225 -0.4251 -0.4703 -0.1217
   30SOL    HW1  118   0.731   1.246   1.258 -2.4081  1.6931 -0.1636
   30SOL    HW2  119   0.874   1.206   1.284 -3.4001  0.3915 -2.3435
   30SOL     MW  120   0.816   1.251   1.237 -1.0793 -0.0712 -0.4204
   31SOL     OW  121   0.443   0.284   0.180  0.3680  0.7274 -0.5452
   31SOL    HW1  122   0.468   0.224   0.250  1.0073 -0.3200 -0.5156
   31SOL    HW2  123   0.487   0.245   0.103 -0.9724 -0.2782  0.3959
   31SOL     MW  124   0.452   0.271   0.179  0.2755  0.4565 -0.4171
   32SOL     OW  125   2.681   0.980   1.130  0.5076 -0.0938  0.2654
   32SOL    HW1  126   2.643   0.898   1.117 -0.2061 -1.4945 -0.5656
   32SOL    HW2  127   2.773   0.962   1.121 -1.0787 -0.8685  0.0391
   32SOL     MW  128   2.688   0.967   1.127  0.2042 -0.3809  0.1259
   33SOL     OW  129   1.623   1.324   0.382  0.2757 -0.1718  0.4465
   33SOL    HW1  130   1.700   1.273   0.386 -0.1968 -0.2328  1.1978
   33SOL    HW2  131   1.638   1.390   0.453  0.1326  0.0884  0.6050
   33SOL     MW  132   1.635   1.326   0.392  0.1945 -0.1455  0.5665
   34SOL     OW  133   1.240   1.947   1.124 -0.6643  0.2559 -0.1929
   34SOL    HW1  134   1.151   1.966   1.131 -1.6186 -1.8578 -0.4964
   34SOL    HW2  135   1.285   1.992   1.190 -0.4968 -0.2277  0.9957
   34SOL     MW  136   1.235   1.955   1.134 -0.7681 -0.0868 -0.0762
   35SOL     OW  137   0.333   0.131   1.814 -0.2738  0.4254  0.3813
   35SOL    HW1  138   0.352   0.077   1.892  0.1317 -0.6936 -0.8270
   35SOL    HW2  139   0.343   0.067   1.738 -0.2457  2.9753 -2.6504
   35SOL     MW  140   0.337   0.115   1.814 -0.2166  0.6142 -0.1781
   36SOL     OW  141   1.945   1.918   0.586 -0.1355  0.0927  0.2959
   36SOL    HW1  142   1.916   1.922   0.497 -1.5098  0.2816  0.6413
   36SOL    HW2  143   1.929   1.820   0.599 -1.4085 -1.2059 -0.5132
   36SOL     MW  144   1.939   1.906   0.576 -0.4848 -0.0537  0.2347
   37SOL     OW  145   1.810   1.999   1.004 -0.1777  0.2202  0.9208
   37SOL    HW1  146   1.762   1.951   0.937  6.2740 -0.6104 -1.1392
   37SOL    HW2  147   1.757   2.063   1.049  1.4844  0.3719  0.7826
   37SOL     MW  148   1.797   2.001   1.001  0.8928  0.1306  0.6308
   38SOL     OW  149   2.802   0.906   0.131  0.0352 -0.5579  0.0772
   38SOL    HW1  150   2.828   0.887   0.223  0.2408  1.3449 -1.9955
   38SOL    HW2  151   2.886   0.897   0.084 -0.0624 -2.5741  1.8956
   38SOL     MW  152   2.817   0.902   0.137  0.0495 -0.5728  0.0436
   39SOL     OW  153   1.456   0.546   0.753 -0.0382  0.3791  0.2328
   39SOL    HW1  154   1.405   0.469   0.781 -0.7803 -0.2072 -1.5853
   39SOL    HW2  155   1.390   0.610   0.727 -1.4195 -0.8502 -1.6730
   39SOL     MW  156   1.440   0.544   0.753 -0.3184  0.1395 -0.2585
   40SOL     OW  157   1.255   1.876   0.235  0.2962  0.0378  0.9019
   40SOL    HW1  158   1.316   1.802   0.249  0.0742  1.7238  1.5503
   40SOL    HW2  159   1.237   1.917   0.318 -0.9926 -0.5332  0.5873
   40SOL     MW  160   1.261   1.872   0.248  0.0969  0.1849  0.9459
   41SOL     OW  161   0.587   0.508   1.629  0.1321  0.5321 -0.3042
   41SOL    HW1  162   0.663   0.534   1.571  3.6502  1.5603 -0.6792
   41SOL    HW2  163   0.508   0.564   1.606  2.0155 -1.3823 -0.9000
   41SOL     MW  164   0.587   0.519   1.618  0.8448  0.4152 -0.4323
   42SOL     OW  165   1.283   3.003   1.942  0.0130 -0.0950 -0.0599
   42SOL    HW1  166   1.206   2.985   1.997 -1.4718 -1.0642  0.7536
   42SOL    HW2  167   1.340   2.935   1.977 -0.2646  0.4376  0.2750
   42SOL     MW  168   1.280   2.992   1.954 -0.2195 -0.1526  0.0916
   43SOL     OW  169   1.474   0.146   1.658  0.3848  0.2321  0.0681
   43SOL    HW1  170   1.531   0.102   1.598  1.9632 -0.5968  4.6970
   43SOL    HW2  171   1.393   0.095   1.658  2.9511 -0.6889  0.8996
   43SOL     MW  172   1.471   0.133   1.650  0.9317  0.0012  0.7885
   44SOL     OW  173   1.298   0.744   1.065 -0.1348 -0.8429  0.1571
   44SOL    HW1  174   1.267   0.833   1.070 -0.3462  0.9624  1.9426
   44SOL    HW2  175   1.295   0.727   1.161  0.4308  2.2471  2.1808
   44SOL     MW  176   1.293   0.754   1.078 -0.0881 -0.1970  0.6597
   45SOL     OW  177   1.271   0.757   0.772  0.4584  0.0285  0.2650
   45SOL    HW1  178   1.227   0.778   0.854 -0.5147 -0.7137  0.2914
   45SOL    HW2  179   1.186   0.739   0.713 -0.8079 -0.1870  0.9929
   45SOL     MW  180   1.254   0.757   0.775  0.1629 -0.0979  0.3645
   46SOL     OW  181   0.529   1.099   0.623 -0.5400  0.1323  0.8096
   46SOL    HW1  182   0.532   1.104   0.530  1.3136 -0.1687  0.7339
   46SOL    HW2  183   0.620   1.110   0.645 -1.9205  0.7433  1.2356
   46SOL     MW  184   0.541   1.101   0.614 -0.4776  0.1732  0.8558
   47SOL     OW  185   0.195   1.966   1.953 -0.3628  0.0996 -0.1474
   47SOL    HW1  186   0.156   1.893   1.904 -2.5331  2.5626  0.5031
   47SOL    HW2  187   0.156   1.948   2.041  2.1429  0.1737 -0.0156
   47SOL     MW  188   0.185   1.954   1.958 -0.3185  0.4343 -0.0442
   48SOL     OW  189   1.131   0.511   1.022  0.2067 -0.3207 -0.3477
   48SOL    HW1  190   1.054   0.531   1.071  3.7571  0.5275  1.1376
   48SOL    HW2  191   1.195   0.581   1.041  2.1686  1.3820 -0.0174
   48SOL     MW  192   1.129   0.523   1.031  0.9340  0.0159 -0.1082
   49SOL     OW  193   1.703   0.630   1.519 -0.3539 -0.3285 -0.0071
   49SOL    HW1  194   1.726   0.593   1.604  1.3054  0.0928 -0.7777
   49SOL    HW2  195   1.732   0.568   1.454  0.6798  0.6622  0.4919
   49SOL     MW  196   1.710   0.617   1.521  0.0014 -0.1422 -0.0429
   50SOL     OW  197   1.264   1.161   0.575  0.3000  0.5183 -0.0377
   50SOL    HW1  198   1.216   1.160   0.664 -0.7596  1.0570  1.1398
   50SOL    HW2  199   1.337   1.096   0.581 -0.0787  2.7270  3.9650
   50SOL     MW  200   1.267   1.153   0.587  0.1102  0.8808  0.6458
   51SOL     OW  201   0.333   2.922   0.894  0.4982 -0.8885 -0.0768
   51SOL    HW1  202   0.420   2.877   0.882 -1.4528  0.0762  1.8471
   51SOL    HW2  203   0.342   2.957   0.983  0.0565  0.1731  0.8240
   51SOL     MW  204   0.346   2.921   0.904  0.1825 -0.6211  0.2959
   52SOL     OW  205   0.800   1.814   0.470  0.3989  0.5018  0.0173
   52SOL    HW1  206   0.765   1.904   0.461  0.3332  0.8084  0.4937
   52SOL    HW2  207   0.795   1.780   0.380  0.9496  1.6448 -0.4714
   52SOL     MW  208   0.795   1.822   0.457  0.4629  0.6930  0.0157
   53SOL     OW  209   0.437   2.151   0.505  0.1277  0.0983 -0.4466
   53SOL    HW1  210   0.351   2.144   0.473  0.7592  0.8663  0.9852
   53SOL    HW2  211   0.446   2.240   0.546  0.5339  0.3016 -1.0743
   53SOL     MW  212   0.427   2.162   0.506  0.2646  0.2264 -0.3405
   54SOL     OW  213   2.072   0.925   0.773 -0.0729 -0.0464  0.1408
   54SOL    HW1  214   2.150   0.908   0.719 -0.3344 -0.1981  1.3000
   54SOL    HW2  215   2.031   0.839   0.798 -1.7811  0.6431 -1.9618
   54SOL     MW  216   2.077   0.911   0.769 -0.3328  0.0246  0.0164
   55SOL     OW  217   0.514   1.566   1.656 -0.7561 -0.3568 -0.0612
   55SOL    HW1  218   0.469   1.612   1.583  0.2563 -1.6149 -0.0762
   55SOL    HW2  219   0.561   1.509   1.596  2.0873  0.1444 -0.8079
   55SOL     MW  220   0.514   1.564   1.639 -0.2474 -0.4567 -0.1617
   56SOL     OW  221   0.619   0.872   0.153  0.5267 -0.0103  0.3467
   56SOL    HW1  222   0.617   0.959   0.118  0.3455  0.4683  0.8721
   56SOL    HW2  223   0.534   0.843   0.119 -0.7401  2.1641  0.5103
   56SOL     MW  224   0.607   0.880   0.144  0.3357  0.3397  0.4376
   57SOL     OW  225   1.192   1.220   1.171 -0.2288  0.2630 -0.0439
   57SOL    HW1  226   1.275   1.266   1.175  0.2964  0.7611 -2.8229
   57SOL    HW2  227   1.149   1.205   1.256 -1.2550 -0.8515  1.1302
   57SOL     MW  228   1.197   1.224   1.183 -0.2949  0.1817 -0.2556
   58SOL     OW  229   0.530   1.250   1.279  0.4572 -0.2914 -0.0729
   58SOL    HW1  230   0.487   1.329   1.247  3.4241  2.7299 -1.3501
   58SOL    HW2  231   0.526   1.259   1.374 -0.0709  4.1309 -1.0062
   58SOL     MW  232   0.524   1.262   1.288  0.7790  0.6907 -0.3646
   59SOL     OW  233   1.507   1.689   0.333 -0.5484 -0.5295 -0.1577
   59SOL    HW1  234   1.556   1.752   0.385  0.8770 -1.3783  0.1441
   59SOL    HW2  235   1.445   1.650   0.394  0.1257  2.5227  0.3679
   59SOL     MW  236   1.506   1.692   0.348 -0.2714 -0.2388 -0.0485
   60SOL     OW  237   3.076   0.173   1.707 -0.0335 -0.7992  0.0683
   60SOL    HW1  238   3.006   0.235   1.745 -4.9570 -1.2055  1.3205
   60SOL    HW2  239   3.114   0.136   1.785  2.7038 -0.1370  2.6743
   60SOL     MW  240   3.071   0.176   1.722 -0.3219 -0.7655  0.5773
   61SOL     OW  241   1.981   1.389   3.017  0.4679 -0.2490 -0.5346
   61SOL    HW1  242   1.954   1.398   3.117 -4.8808  0.1727 -0.4893
   61SOL    HW2  243   2.031   1.311   3.010 -2.2498  0.6999  0.0795
   61SOL     MW  244   1.984   1.380   3.030 -0.5964 -0.0682 -0.4476
   62SOL     OW  245   0.543   1.722   0.534 -0.3156  0.3609  0.3640
   62SOL    HW1  246   0.631   1.734   0.550 -1.5096 -1.3014 -0.2821
   62SOL    HW2  247   0.542   1.625   0.538  0.7163  0.1632  0.2484
   62SOL     MW  248   0.554   1.711   0.537 -0.3369  0.1155  0.2635
   63SOL     OW  249   1.721   0.641   0.668  0.5062 -0.0212 -0.4649
   63SOL    HW1  250   1.719   0.731   0.635  0.8205  0.4163  0.9877
   63SOL    HW2  251   1.629   0.627   0.697 -0.8915  0.4678 -1.4692
   63SOL     MW  252   1.709   0.651   0.668  0.3633  0.1011 -0.4058
   64SOL     OW  253   0.281   1.680   0.763 -0.5149 -0.2395  0.1169
   64SOL    HW1  254   0.316   1.751   0.711 -3.4251  0.1195 -0.0067
   64SOL    HW2  255   0.215   1.732   0.814 -0.7905 -0.0224 -0.9296
   64SOL     MW  256   0.277   1.696   0.763 -0.9353 -0.1635 -0.0375
   65SOL     OW  257   1.569   2.315   0.384 -0.1774 -0.4375 -0.6719
   65SOL    HW1  258   1.654   2.357   0.406 -0.1280 -1.0990  0.7431
   65SOL    HW2  259   1.506   2.347   0.453 -2.6670  1.6702 -0.5692
   65SOL     MW  260   1.572   2.325   0.396 -0.4994 -0.2467 -0.4716
   66SOL     OW  261   0.344   0.548   0.463  0.4473  0.7727  0.4328
   66SOL    HW1  262   0.416   0.555   0.399 -0.7684  0.5546 -0.1978
   66SOL    HW2  263   0.326   0.643   0.490 -1.3184  0.7626  0.0365
   66SOL     MW  264   0.351   0.562   0.458  0.0540  0.7426  0.2973
   67SOL     OW  265   1.470   0.131   1.985  0.4028 -0.4750 -0.3311
   67SOL    HW1  266   1.506   0.144   1.894 -0.2925 -2.8015 -1.0108
   67SOL    HW2  267   1.403   0.062   1.979 -0.6146 -1.6880 -0.2639
   67SOL     MW  268   1.466   0.123   1.972  0.1768 -0.9420 -0.4119
   68SOL     OW  269   0.782   0.020   2.959 -0.5692 -0.4959  0.3567
   68SOL    HW1  270   0.797   0.050   2.867  0.5358 -4.5414 -1.0649
   68SOL    HW2  271   0.846   0.059   3.024 -0.9709  2.3462  1.0041
   68SOL     MW  272   0.793   0.029   2.955 -0.4764 -0.6547  0.2546
   69SOL     OW  273   0.953   0.200   1.954 -0.0518 -0.4721  0.1815
   69SOL    HW1  274   1.049   0.203   1.980  1.0826 -0.4320 -1.0942
   69SOL    HW2  275   0.929   0.111   1.972 -1.7007  1.1691 -2.6713
   69SOL     MW  276   0.963   0.189   1.960 -0.1196 -0.2503 -0.3632
   70SOL     OW  277   0.481   1.704   1.085 -0.2316 -0.6170 -0.1096
   70SOL    HW1  278   0.548   1.768   1.118  1.3906  0.0978 -2.8756
   70SOL    HW2  279   0.531   1.660   1.014 -0.5727  0.8353 -1.3010
   70SOL     MW  280   0.497   1.707   1.080 -0.0626 -0.3310 -0.6317
   71SOL     OW  281   1.536   0.532   1.171 -0.8608  0.3075  0.2583
   71SOL    HW1  282   1.512   0.602   1.228  0.6382 -0.6876  1.6880
   71SOL    HW2  283   1.552   0.570   1.086  0.1417 -0.3238 -0.2825
   71SOL     MW  284   1.535   0.546   1.167 -0.5308  0.0929  0.3756
   72SOL     OW  285   0.780   1.870   0.998 -0.2737  0.1710  0.2160
   72SOL    HW1  286   0.744   1.922   0.928 -0.1161  0.1362  1.4073
   72SOL    HW2  287   0.782   1.781   0.961 -0.1967  0.9713  0.7876
   72SOL     MW  288   0.776   1.866   0.984 -0.2428  0.2720  0.4486
   73SOL     OW  289   1.231   0.680   1.321 -0.1555  0.0505  0.2443
   73SOL    HW1  290   1.189   0.600   1.322 -0.0746  1.3709  0.6509
   73SOL    HW2  291   1.152   0.737   1.335 -2.6957 -1.0483 -0.8873
   73SOL     MW  292   1.215   0.677   1.323 -0.4800  0.0797  0.1486
   74SOL     OW  293   2.872   0.250   1.070  0.3045 -0.0790 -0.5712
   74SOL    HW1  294   2.951   0.262   1.026 -0.4527 -3.7490 -0.5312
   74SOL    HW2  295   2.802   0.269   1.004 -2.5191  0.0539 -0.9643
   74SOL     MW  296   2.873   0.254   1.055 -0.1680 -0.5457 -0.6178
   75SOL     OW  297   1.583   1.325   0.116  0.0830 -0.3843  0.0523
   75SOL    HW1  298   1.649   1.252   0.095 -1.2502 -0.1469 -0.8980
   75SOL    HW2  299   1.603   1.354   0.210  1.2588 -0.4878 -0.5222
   75SOL     MW  300   1.594   1.319   0.126  0.0623 -0.3666 -0.1489
   76SOL     OW  301   2.970   0.595   0.459  0.0289  0.0502  0.1329
   76SOL    HW1  302   3.011   0.628   0.541  0.2256 -0.8240  0.8590
   76SOL    HW2  303   3.037   0.546   0.413  1.0873  0.0159  1.5422
   76SOL     MW  304   2.984   0.593   0.464  0.1945 -0.0697  0.4146
   77SOL     OW  305   0.895   0.540   0.433  0.5612  0.2560 -0.5478
   77SOL    HW1  306   0.865   0.557   0.344  2.9950  1.6689 -0.4138
   77SOL    HW2  307   0.904   0.443   0.432  0.0529  1.2568 -0.5445
   77SOL     MW  308   0.892   0.529   0.421  0.8152  0.5745 -0.5297
   78SOL     OW  309   0.769   0.861   1.151 -0.0700  0.4688 -0.3721
   78SOL    HW1  310   0.806   0.931   1.088 -1.6496  4.2798 -1.3568
   78SOL    HW2  311   0.672   0.881   1.146  1.5584 -0.0158 -0.3607
   78SOL     MW  312   0.761   0.873   1.142 -0.0636  0.9077 -0.5005
   79SOL     OW  313   1.903   1.651   0.637 -0.2279  0.2370  0.0424
   79SOL    HW1  314   1.812   1.637   0.619  0.2751  1.9333  2.8587
   79SOL    HW2  315   1.911   1.624   0.733 -1.3570  0.9700 -0.5495
   79SOL     MW  316   1.892   1.645   0.648 -0.3105  0.5576  0.3359
   80SOL     OW  317   0.085   0.953   0.367 -0.4237 -0.2100  0.2032
   80SOL    HW1  318   0.013   0.896   0.355  0.7529 -0.1989  1.3529
   80SOL    HW2  319   0.135   0.908   0.432  1.4442  0.9328  1.2247
   80SOL     MW  320   0.082   0.940   0.374 -0.0220 -0.0577  0.4897
   81SOL     OW  321   1.866   1.883   0.323  0.0389  0.5243  0.0054
   81SOL    HW1  322   1.843   1.795   0.291  0.4743 -2.9083 -1.5339
   81SOL    HW2  323   1.809   1.944   0.267  0.2048  0.1184 -0.4962
   81SOL     MW  324   1.856   1.879   0.312  0.1182  0.0179 -0.2639
   82SOL     OW  325   0.857   1.041   0.512  0.4088  0.3664  0.0698
   82SOL    HW1  326   0.849   1.056   0.416 -3.2101 -1.7541 -0.0348
   82SOL    HW2  327   0.844   0.946   0.537  1.8831 -1.7243  1.5925
   82SOL     MW  328   0.854   1.030   0.503  0.1258 -0.1892  0.2569
   83SOL     OW  329   0.041   0.741   1.503 -0.3116 -0.0656 -0.2773
   83SOL    HW1  330   0.060   0.766   1.414  1.4214 -0.3967 -0.3937
   83SOL    HW2  331   0.118   0.685   1.528  2.3578 -0.7710 -1.7143
   83SOL     MW  332   0.053   0.737   1.494  0.2693 -0.2023 -0.4822
   84SOL     OW  333   0.050   0.199   0.894  0.0567  0.1302 -0.2767
   84SOL    HW1  334   0.047   0.294   0.927 -2.2797  1.2380  2.9996
   84SOL    HW2  335   0.063   0.140   0.971  1.5645 -3.6658 -1.2610
   84SOL     MW  336   0.051   0.204   0.909 -0.0526 -0.2245  0.0257
   85SOL     OW  337   0.404   0.438   0.717 -0.3535 -0.1970 -0.4758
   85SOL    HW1  338   0.406   0.463   0.629  0.5698  0.6476  0.0884
   85SOL    HW2  339   0.371   0.346   0.720  0.2980 -0.5536 -1.4550
   85SOL     MW  340   0.400   0.430   0.706 -0.1457 -0.1326 -0.5306
   86SOL     OW  341   1.181   0.242   1.125 -0.0781 -0.0461  0.2294
   86SOL    HW1  342   1.144   0.324   1.087 -2.6156  1.3706  2.6678
   86SOL    HW2  343   1.271   0.252   1.123 -2.0180 -0.2956 -2.1348
   86SOL     MW  344   1.188   0.254   1.120 -0.6689  0.1079  0.2392
   87SOL     OW  345   1.074   1.484   1.208 -0.6500  0.3168  0.0073
   87SOL    HW1  346   1.121   1.558   1.168 -2.5261 -0.5977  1.8387
   87SOL    HW2  347   1.119   1.408   1.184  0.1143  0.2171  0.1307
   87SOL     MW  348   1.086   1.484   1.199 -0.7967  0.1830  0.2652
   88SOL     OW  349   1.225   1.019   0.994  0.4118  0.3973 -0.2036
   88SOL    HW1  350   1.321   1.033   0.983  0.0813  2.1757  1.0917
   88SOL    HW2  351   1.193   1.088   1.058 -3.3800  1.5808  0.3049
   88SOL     MW  352   1.233   1.030   1.001 -0.1321  0.7881  0.0344
   89SOL     OW  353   1.729   0.734   0.379 -0.2198  0.1219  0.4703
   89SOL    HW1  354   1.730   0.679   0.456 -0.1653  0.1520 -0.0188
   89SOL    HW2  355   1.816   0.725   0.344  1.2843 -1.6719 -0.3864
   89SOL     MW  356   1.741   0.726   0.385 -0.0142 -0.1108  0.2928
   90SOL     OW  357   0.833   1.167   2.890  0.4906 -0.2631 -0.1963
   90SOL    HW1  358   0.827   1.070   2.900 -1.2729  0.0185  2.4424
   90SOL    HW2  359   0.865   1.188   2.982  1.0140 -0.0890 -0.1517
   90SOL     MW  360   0.837   1.157   2.904  0.3269 -0.2029  0.1577
   91SOL     OW  361   2.183   0.653   0.472  0.4830  0.2903 -0.5119
   91SOL    HW1  362   2.269   0.684   0.431  0.2788 -0.2639 -1.3873
   91SOL    HW2  363   2.178   0.562   0.452 -0.2915 -0.6417 -0.1997
   91SOL     MW  364   2.193   0.645   0.464  0.3539  0.0942 -0.5862
   92SOL     OW  365   1.663   0.908   0.564 -0.4775  0.2554 -0.3358
   92SOL    HW1  366   1.569   0.917   0.594 -0.8268 -1.7408 -0.5587
   92SOL    HW2  367   1.657   0.871   0.473 -0.3602 -0.1588  1.1410
   92SOL     MW  368   1.650   0.905   0.556 -0.5081 -0.0626 -0.1703
   93SOL     OW  369   1.127   0.179   0.431 -0.0290  0.5936 -0.3942
   93SOL    HW1  370   1.039   0.210   0.446  1.2406  1.3590  0.0050
   93SOL    HW2  371   1.148   0.219   0.346  0.3141  2.8204  0.1418
   93SOL     MW  372   1.118   0.188   0.422  0.1838  0.9884 -0.2708
   94SOL     OW  373   1.854   1.356   1.596 -0.3846 -0.4614  0.2173
   94SOL    HW1  374   1.864   1.348   1.503 -0.2116  0.6778  2.8874
   94SOL    HW2  375   1.838   1.266   1.628  2.0596 -0.8030 -2.6398
   94SOL     MW  376   1.854   1.343   1.588 -0.0393 -0.3562  0.1926
   95SOL     OW  377   0.671   1.582   0.929 -0.9958 -0.5883 -0.1486
   95SOL    HW1  378   0.724   1.543   1.003 -0.6252  0.9230 -0.6854
   95SOL    HW2  379   0.626   1.515   0.877 -0.0494 -1.6730  0.8521
   95SOL     MW  380   0.672   1.568   0.932 -0.8220 -0.5320 -0.0874
   96SOL     OW  381   1.329   1.877   1.721 -0.1308 -0.0673 -0.2416
   96SOL    HW1  382   1.234   1.877   1.729  2.4946  2.0099  1.9465
   96SOL    HW2  383   1.358   1.793   1.694  0.2381  0.4430  0.5246
   96SOL     MW  384   1.321   1.866   1.718  0.2642  0.2741  0.1482
   97SOL     OW  385   1.118   1.460   0.847  0.1222 -0.0898  0.0733
   97SOL    HW1  386   1.147   1.526   0.909  1.4318 -0.7309  0.2102
   97SOL    HW2  387   1.055   1.504   0.794  1.1522  0.6778  2.6435
   97SOL     MW  388   1.113   1.475   0.848  0.4309 -0.0731  0.4305
   98SOL     OW  389   1.434   1.328   1.159 -0.4319  0.7759 -0.0840
   98SOL    HW1  390   1.472   1.370   1.234  1.3088 -0.1528  0.5734
   98SOL    HW2  391   1.447   1.392   1.085 -1.6689 -3.1847 -0.2316
   98SOL     MW  392   1.441   1.342   1.159 -0.3654  0.1308 -0.0168
   99SOL     OW  393   1.466   0.287   1.252 -0.0137  0.2531  0.2656
   99SOL    HW1  394   1.478   0.374   1.209  0.4331  0.0181  0.9495
   99SOL    HW2  395   1.478   0.305   1.344 -2.1610 -2.8190 -2.3246
   99SOL     MW  396   1.469   0.301   1.259 -0.2381 -0.1833  0.0141
  100SOL     OW  397   1.026   1.165   1.407 -0.5104  0.1123 -0.1739
  100SOL    HW1  398   1.067   1.193   1.489  0.9072  0.5864  0.1762
  100SOL    HW2  399   1.039   1.072   1.406 -0.5456 -0.2896 -0.8483
  100SOL     MW  400   1.033   1.157   1.417 -0.3280  0.1218 -0.2167
  101SOL     OW  401   0.518   1.199   0.361  0.8301 -0.5327 -0.0644
  101SOL    HW1  402   0.455   1.131   0.340  1.1217  0.8606  0.1751
  101SOL    HW2  403   0.589   1.156   0.306 -0.5268 -2.6716 -0.9155
  101SOL     MW  404   0.519   1.184   0.351  0.6895 -0.6311 -0.1451
  102SOL     OW  405   2.903   0.638   1.016 -0.2366 -0.2190  0.7995
  102SOL    HW1  406   2.908   0.732   1.007  0.8014  0.2636  0.0453
  102SOL    HW2  407   2.859   0.610   1.103  0.2917  0.2272 -1.8255
  102SOL     MW  408   2.897   0.647   1.026 -0.0299 -0.0965  0.3536
  103SOL     OW  409   1.830   0.234   1.846  0.1693 -0.4618 -0.8940
  103SOL    HW1  410   1.836   0.142   1.829  0.1210 -0.4317 -1.8958
  103SOL    HW2  411   1.840   0.249   1.938 -1.5541 -1.3350 -1.2458
  103SOL     MW  412   1.832   0.224   1.856 -0.0645 -0.5730 -1.0726
  104SOL     OW  413   0.094   1.516   1.582  0.1627  0.4530 -0.0917
  104SOL    HW1  414   0.147   1.473   1.641 -2.1881 -1.1424  0.0053
  104SOL    HW2  415   0.013   1.468   1.600  0.7067 -2.9177  1.3520
  104SOL     MW  416   0.090   1.504   1.592 -0.0757 -0.2023  0.1116
  105SOL     OW  417   0.001   1.219   0.421 -0.2242  0.4373 -0.0563
  105SOL    HW1  418   0.024   1.132   0.383  1.2481 -0.2010 -0.7452
  105SOL    HW2  419   0.086   1.251   0.436 -1.5840 -0.6092 -1.4010
  105SOL     MW  420   0.015   1.212   0.418 -0.2094  0.2150 -0.3246
  106SOL     OW  421   0.779   0.420   0.907 -0.4995 -0.1141 -0.2606
  106SOL    HW1  422   0.698   0.466   0.884 -1.0787  1.3021 -0.0814
  106SOL    HW2  423   0.834   0.424   0.830  0.0970  0.9931  2.0254
  106SOL     MW  424   0.776   0.427   0.893 -0.4972  0.2189  0.0647
  107SOL     OW  425   0.821   2.114   2.907  0.5865  0.2399 -0.1355
  107SOL    HW1  426   0.726   2.126   2.886  1.7031 -0.0406  1.8152
  107SOL    HW2  427   0.815   2.107   3.002  1.4660 -5.1890 -2.8410
  107SOL     MW  428   0.807   2.114   2.917  0.8499 -0.5134 -0.2351
  108SOL     OW  429   1.360   1.611   1.639  0.3579 -0.5829  0.1822
  108SOL    HW1  430   1.304   1.581   1.565 -0.5655  1.0959 -5.7198
  108SOL    HW2  431   1.445   1.572   1.638 -1.7256  1.2477  0.8538
  108SOL     MW  432   1.364   1.602   1.629 -0.0388 -0.1199 -0.5079
  109SOL     OW  433   2.006   0.739   0.244  0.4900 -0.6317 -0.2777
  109SOL    HW1  434   2.018   0.832   0.241  1.4659 -1.3627  1.4662
  109SOL    HW2  435   2.050   0.706   0.322 -0.8790  0.9392  1.2038
  109SOL     MW  436   2.013   0.747   0.254  0.4382 -0.5208  0.1478
  110SOL     OW  437   0.410   1.930   0.690  0.0976 -0.3336  0.8116
  110SOL    HW1  438   0.465   1.873   0.636 -0.2718  4.8892  0.3683
  110SOL    HW2  439   0.416   2.015   0.639 -2.5805  0.1716 -0.2869
  110SOL     MW  440   0.418   1.933   0.676 -0.3045  0.4221  0.6081
  111SOL     OW  441   0.782   0.893   1.442  0.1237  0.3947 -0.3399
  111SOL    HW1  442   0.764   0.893   1.347  1.7462 -0.1055  1.2134
  111SOL    HW2  443   0.780   0.797   1.459  0.7611 -0.8909 -1.7053
  111SOL     MW  444   0.779   0.880   1.432  0.4219  0.1590 -0.3151
  112SOL     OW  445   1.343   1.079   1.621  0.5618  0.2343  0.2727
  112SOL    HW1  446   1.290   1.156   1.619  0.8042  2.0515 -1.5098
  112SOL    HW2  447   1.280   1.009   1.643  0.9007 -2.3319 -1.4573
  112SOL     MW  448   1.328   1.080   1.624  0.6385  0.1355 -0.1907
  113SOL     OW  449   1.248   3.074   1.676 -0.2407 -0.2898 -0.5482
  113SOL    HW1  450   1.266   3.039   1.768  1.4080 -0.4417  1.6697
  113SOL    HW2  451   1.227   2.999   1.619 -2.8214 -0.8632  0.1985
  113SOL     MW  452   1.248   3.060   1.681 -0.3636 -0.3855 -0.1570
  114SOL     OW  453   0.261   2.865   1.869  0.2373  0.0002 -0.2967
  114SOL    HW1  454   0.309   2.911   1.943 -0.8802  0.2557  0.1673
  114SOL    HW2  455   0.182   2.910   1.862 -2.1765  0.7444  1.5935
  114SOL     MW  456   0.257   2.877   1.878 -0.2286  0.1321  0.0139
  115SOL     OW  457   0.450   0.806   1.142  0.0407 -0.2323  0.0569
  115SOL    HW1  458   0.478   0.714   1.166  2.5653 -1.2301 -3.1867
  115SOL    HW2  459   0.394   0.839   1.220 -2.9710  0.3101  0.9020
  115SOL     MW  460   0.447   0.798   1.155 -0.0236 -0.2924 -0.2596
  116SOL     OW  461   0.814   1.084   0.996 -0.0632  0.2540  0.4544
  116SOL    HW1  462   0.829   1.124   0.910  2.2782  1.8037  1.0581
  116SOL    HW2  463   0.850   1.143   1.057 -0.3867  0.3179  1.9650
  116SOL     MW  464   0.821   1.097   0.993  0.2030  0.4669  0.7334
  117SOL     OW  465   1.101   1.176   0.806  0.1278 -0.2971 -0.1169
  117SOL    HW1  466   1.147   1.128   0.874 -3.4846  1.3898 -0.0466
  117SOL    HW2  467   1.101   1.274   0.834  0.1253 -1.8316  0.9137
  117SOL     MW  468   1.107   1.182   0.819 -0.3491 -0.2770  0.0284
  118SOL     OW  469   3.039   2.979   1.694  0.1294  0.2401  0.2299
  118SOL    HW1  470   3.083   3.051   1.747 -0.7242  0.1515  1.3245
  118SOL    HW2  471   2.941   2.988   1.715 -1.0090 -0.2515 -2.6898
  118SOL     MW  472   3.032   2.990   1.704 -0.1334  0.1635 -0.0109
  119SOL     OW  473   0.411   1.491   1.265 -0.0578  0.7304 -0.1314
  119SOL    HW1  474   0.449   1.539   1.190 -2.0675 -4.1949 -2.2801
  119SOL    HW2  475   0.314   1.483   1.246 -1.9186 -0.7172  0.2938
  119SOL     MW  476   0.403   1.496   1.252 -0.5685 -0.1105 -0.3588
  120SOL     OW  477   0.196   0.767   1.027  0.5926  0.1221  0.2951
  120SOL    HW1  478   0.137   0.759   1.102 -2.1029 -0.2859 -2.7186
  120SOL    HW2  479   0.285   0.764   1.062 -1.2923  5.1692  0.1524
  120SOL     MW  480   0.200   0.765   1.041 -0.0118  0.7342 -0.1214
  121SOL     OW  481   1.766   1.122   1.670  0.2362  0.4683 -0.4200
  121SOL    HW1  482   1.683   1.143   1.624 -1.2356  5.9402 -1.5360
  121SOL    HW2  483   1.802   1.048   1.615 -2.1483  0.0618  0.2540
  121SOL     MW  484   1.760   1.115   1.657 -0.2726  1.1367 -0.4783
  122SOL     OW  485   0.181   0.569   0.820 -0.4565  0.0806 -0.5252
  122SOL    HW1  486   0.258   0.530   0.775 -0.3941 -0.0261  0.4836
  122SOL    HW2  487   0.215   0.634   0.878 -0.0754  0.4280 -0.7904
  122SOL     MW  488   0.196   0.573   0.821 -0.3980  0.1123 -0.4271
  123SOL     OW  489   1.836   1.094   0.473 -0.0209 -0.1551  0.2238
  123SOL    HW1  490   1.765   1.041   0.510  1.5621  0.0967 -0.3315
  123SOL    HW2  491   1.881   1.125   0.548 -3.1040  0.4414  2.8897
  123SOL     MW  492   1.833   1.091   0.487 -0.2188 -0.0432  0.5023
  124SOL     OW  493   0.515   0.572   0.928 -0.0364  0.2715  0.3127
  124SOL    HW1  494   0.478   0.519   0.858 -1.2953 -1.1471  0.1431
  124SOL    HW2  495   0.555   0.651   0.889 -1.8691  1.3353  2.4441
  124SOL     MW  496   0.516   0.575   0.914 -0.4443  0.2247  0.5715
  125SOL     OW  497   0.743   1.778   1.716  0.4493 -0.0445  0.0445
  125SOL    HW1  498   0.690   1.708   1.676 -2.9707  1.5358  2.5066
  125SOL    HW2  499   0.687   1.862   1.702 -0.5884  1.5920  2.9714
  125SOL     MW  500   0.729   1.780   1.709 -0.1388  0.3799  0.7555
  126SOL     OW  501   2.152   1.530   1.954  0.3110 -0.8289 -0.3666
  126SOL    HW1  502   2.211   1.609   1.939  1.8207 -1.6005 -0.2805
  126SOL    HW2  503   2.208   1.451   1.948 -0.6003 -0.8245  0.8605
  126SOL     MW  504   2.167   1.530   1.951  0.3900 -0.9301 -0.1933
  127SOL     OW  505   0.582   0.864   1.789  0.0683  0.2126 -0.3532
  127SOL    HW1  506   0.662   0.817   1.813 -0.1963 -0.2587  0.8074
  127SOL    HW2  507   0.583   0.934   1.860 -0.0244 -0.2722  0.6519
  127SOL     MW  508   0.592   0.867   1.802  0.0211  0.0864 -0.0674
  128SOL     OW  509   1.677   0.718   2.902  0.0356 -0.2370 -0.0344
  128SOL    HW1  510   1.716   0.697   2.812  1.3797  1.4770 -1.9815
  128SOL    HW2  511   1.679   0.815   2.900 -1.7249  0.1067 -1.1172
  128SOL     MW  512   1.683   0.728   2.890 -0.0193  0.0345 -0.4341
  129SOL     OW  513   1.618   0.939   0.160 -0.4122 -0.1562  0.5203
  129SOL    HW1  514   1.532   0.895   0.157 -2.2478 -0.8477  1.0196
  129SOL    HW2  515   1.673   0.902   0.232  0.8697 -0.2431  1.6882
  129SOL     MW  516   1.614   0.928   0.169 -0.4852 -0.2589  0.7403
  130SOL     OW  517   0.801   1.376   0.310 -0.4305  0.6216 -0.2455
  130SOL    HW1  518   0.805   1.378   0.411  0.5544  0.3854  0.9940
  130SOL    HW2  519   0.814   1.466   0.284 -0.4411 -1.0146 -0.4083
  130SOL     MW  520   0.803   1.388   0.320 -0.3020  0.3746 -0.1034
  131SOL     OW  521   3.050   0.817   3.098  0.0923 -0.1773  0.5353
  131SOL    HW1  522   3.032   0.875   3.012 -0.2127  1.9207  0.0231
  131SOL    HW2  523   3.128   0.849   3.138 -1.0436 -1.7065 -0.3381
  131SOL     MW  524   3.058   0.829   3.092 -0.0978 -0.1022  0.3525
  132SOL     OW  525   2.740   0.148   1.302  0.1049  0.4873  0.1087
  132SOL    HW1  526   2.782   0.197   1.233  1.3076 -0.4241 -0.3486
  132SOL    HW2  527   2.651   0.140   1.276 -0.7402  0.8235 -4.5737
  132SOL     MW  528   2.734   0.153   1.290  0.1521  0.4114 -0.5694
  133SOL     OW  529   1.061   0.179   1.689  0.0041  0.5848 -0.1459
  133SOL    HW1  530   1.136   0.116   1.696 -0.0741 -0.2237 -2.2437
  133SOL    HW2  531   1.034   0.200   1.781  4.1166  5.3641 -0.2960
  133SOL     MW  532   1.067   0.173   1.702  0.5364  1.1087 -0.4425
  134SOL     OW  533   1.415   2.450   1.426  0.3971 -0.3684  0.2051
  134SOL    HW1  534   1.348   2.514   1.401 -0.1795  2.9085  0.1487
  134SOL    HW2  535   1.455   2.494   1.500 -1.0863  0.8065 -1.4875
  134SOL     MW  536   1.411   2.464   1.432  0.1253  0.2190 -0.0257
  135SOL     OW  537   3.051   0.985   2.870  0.2060  0.3845  0.0415
  135SOL    HW1  538   3.107   1.050   2.912 -1.4225 -3.2987  2.0977
  135SOL    HW2  539   2.968   1.034   2.861 -0.5640 -1.8530  1.0128
  135SOL     MW  540   3.047   1.000   2.874 -0.1105 -0.3967  0.4410
  136SOL     OW  541   0.217   2.059   0.859  0.0906 -0.1788  0.4259
  136SOL    HW1  542   0.153   1.981   0.851  0.9019 -1.8031 -0.4720
  136SOL    HW2  543   0.297   2.040   0.822 -0.8479 -1.5457  1.2067
  136SOL     MW  544   0.219   2.046   0.853  0.0738 -0.5735  0.4105
  137SOL     OW  545   0.691   2.066   0.550 -0.1785 -0.0454 -0.5702
  137SOL    HW1  546   0.691   2.064   0.651 -2.3882  2.4609 -1.3756
  137SOL    HW2  547   0.602   2.098   0.528  1.0581  1.6290 -0.4205
  137SOL     MW  548   0.679   2.070   0.561 -0.3069  0.5062 -0.6567
  138SOL     OW  549   0.475   0.515   1.195 -0.8988 -0.4161  0.3605
  138SOL    HW1  550   0.387   0.500   1.218 -0.7380 -1.2331 -0.9384
  138SOL    HW2  551   0.476   0.481   1.102 -0.0773 -0.3959  0.4095
  138SOL     MW  552   0.463   0.509   1.186 -0.7692 -0.5213  0.1956
  139SOL     OW  553   2.833   0.559   1.273 -0.7651  0.7113  0.1324
  139SOL    HW1  554   2.873   0.486   1.322 -2.8043 -2.9760  1.3154
  139SOL    HW2  555   2.847   0.633   1.335 -0.1222  0.0183  2.0933
  139SOL     MW  556   2.840   0.559   1.288 -0.9493  0.1334  0.5472
  140SOL     OW  557   0.904   0.470   2.002 -0.7328 -0.0582 -0.2497
  140SOL    HW1  558   0.923   0.376   1.980 -1.3128  0.4341 -0.3208
  140SOL    HW2  559   0.904   0.470   2.101  0.6338  2.0738  0.4993
  140SOL     MW  560   0.907   0.458   2.012 -0.6290  0.2881 -0.1603
  141SOL     OW  561   0.984   0.642   1.680  0.1846  0.1354 -0.0827
  141SOL    HW1  562   1.028   0.558   1.672  0.2105  3.2543  0.2876
  141SOL    HW2  563   1.058   0.702   1.677  1.2203  2.5851 -1.9316
  141SOL     MW  564   0.999   0.639   1.678  0.3247  0.8701 -0.2778
  142SOL     OW  565   0.839   1.171   0.738  0.7219 -0.4325  0.1947
  142SOL    HW1  566   0.851   1.118   0.657 -0.8492  2.0718 -1.7265
  142SOL    HW2  567   0.929   1.180   0.760 -0.7656  2.1949  2.4928
  142SOL     MW  568   0.853   1.165   0.730  0.3184  0.2446  0.2445
  143SOL     OW  569   1.824   0.679   1.090 -0.0527  0.3762 -0.2019
  143SOL    HW1  570   1.883   0.673   1.015  1.7172 -1.2072  1.8834
  143SOL    HW2  571   1.734   0.664   1.059  0.4162 -0.4846  0.9507
  143SOL     MW  572   1.820   0.676   1.076  0.2427  0.0537  0.2253
  144SOL     OW  573   0.294   1.362   1.728 -0.3760  0.1510  0.1805
  144SOL    HW1  574   0.358   1.348   1.654  2.6699 -0.7266 -0.1699
  144SOL    HW2  575   0.355   1.349   1.809  2.0396 -1.5996 -0.7030
  144SOL     MW  576   0.311   1.358   1.729  0.3446 -0.1957  0.0177
  145SOL     OW  577   0.168   0.487   1.248 -0.1356 -0.3877  0.3592
  145SOL    HW1  578   0.208   0.398   1.242 -1.3605  1.2586  1.2306
  145SOL    HW2  579   0.091   0.461   1.191  1.1622 -2.1199  1.5194
  145SOL     MW  580   0.163   0.472   1.240 -0.1260 -0.3990  0.6273
  146SOL     OW  581   0.898   1.935   1.383  0.3345 -0.7832 -0.3962
  146SOL    HW1  582   0.917   1.955   1.293 -1.3780 -0.1448  1.0595
  146SOL    HW2  583   0.807   1.917   1.392  1.5981 -0.9942  0.8417
  146SOL     MW  584   0.888   1.935   1.372  0.2753 -0.7268 -0.0408
  147SOL     OW  585   0.424   0.520   2.950  0.3777 -0.0544 -0.0262
  147SOL    HW1  586   0.350   0.506   3.010 -0.7654 -2.0398  0.7703
  147SOL    HW2  587   0.381   0.586   2.897  0.5533  0.7682  1.8843
  147SOL     MW  588   0.408   0.527   2.951  0.2501 -0.2078  0.3310
  148SOL     OW  589   0.050   0.876   1.225 -0.3363  0.2816  0.2019
  148SOL    HW1  590   0.145   0.911   1.247  0.9122  3.7124  1.0176
  148SOL    HW2  591  -0.018   0.917   1.283 -1.3361  1.7037  2.4929
  148SOL     MW  592   0.054   0.886   1.236 -0.3035  0.9219  0.6118
  149SOL     OW  593   1.578   1.162   1.433  0.1145  0.2459  1.0787
  149SOL    HW1  594   1.492   1.149   1.472  0.7116 -1.0670 -0.8513
  149SOL    HW2  595   1.574   1.255   1.412  1.1537 -0.7691 -0.3927
  149SOL     MW  596   1.566   1.172   1.436  0.3304 -0.0613  0.6299
  150SOL     OW  597   1.709   1.376   0.857 -0.1015 -0.3822  0.2320
  150SOL    HW1  598   1.750   1.298   0.817 -1.5889  0.4256 -1.0994
  150SOL    HW2  599   1.777   1.445   0.860  2.6869  0.6819  1.6053
  150SOL     MW  600   1.723   1.375   0.852  0.0702 -0.1352  0.2375
  151SOL     OW  601   1.693   1.848   0.798  0.0781 -0.0702 -0.2948
  151SOL    HW1  602   1.655   1.851   0.713  0.2333 -1.3545  0.5641
  151SOL    HW2  603   1.625   1.825   0.858  1.0648  0.9424 -0.5065
  151SOL     MW  604   1.679   1.846   0.795  0.2288 -0.1061 -0.2094
  152SOL     OW  605   0.774   1.419   1.631  0.0439  0.0313 -0.4232
  152SOL    HW1  606   0.805   1.484   1.567  1.4972  2.1155  2.2111
  152SOL    HW2  607   0.774   1.328   1.587 -1.5889  0.2124 -1.0342
  152SOL     MW  608   0.778   1.416   1.617  0.0202  0.3302 -0.1563
  153SOL     OW  609   2.557   1.226   0.769 -0.2554 -0.0581 -0.0847
  153SOL    HW1  610   2.620   1.173   0.721 -0.8198 -0.2983  1.1463
  153SOL    HW2  611   2.478   1.165   0.785 -0.7068 -1.2806 -1.1335
  153SOL     MW  612   2.554   1.211   0.765 -0.3894 -0.2511 -0.0606
  154SOL     OW  613   0.123   1.756   1.724  0.1731  0.0291  0.2865
  154SOL    HW1  614   0.091   1.674   1.680 -1.2082  0.1267  1.0408
  154SOL    HW2  615   0.206   1.746   1.769  0.1540  1.4358  2.3206
  154SOL     MW  616   0.130   1.744   1.724 -0.0117  0.2275  0.6544
  155SOL     OW  617   1.181   0.753   0.320  0.3277  1.0203 -0.2380
  155SOL    HW1  618   1.156   0.726   0.412  0.4494 -0.6962  2.0964
  155SOL    HW2  619   1.205   0.847   0.330  0.0827  1.4416  0.9717
  155SOL     MW  620   1.181   0.762   0.333  0.3114  0.8494  0.2296
  156SOL     OW  621   1.563   3.047   1.105 -0.4197  0.1908  0.3874
  156SOL    HW1  622   1.636   3.095   1.152  0.2694  2.2697 -1.3633
  156SOL    HW2  623   1.603   2.969   1.066 -3.1564 -0.0631  0.9399
  156SOL     MW  624   1.578   3.043   1.106 -0.6899  0.4316  0.2293
  157SOL     OW  625   1.368   1.147   0.105 -0.0578  0.2868 -0.3119
  157SOL    HW1  626   1.368   1.107   0.196  1.9711  0.0845  0.9534
  157SOL    HW2  627   1.436   1.214   0.118 -0.0091  3.2053 -4.7797
  157SOL     MW  628   1.377   1.150   0.119  0.2163  0.6452 -0.7345
  158SOL     OW  629   0.437   1.660   2.316  0.5927  0.4281 -0.3110
  158SOL    HW1  630   0.440   1.709   2.235  2.5727  0.8666  0.0692
  158SOL    HW2  631   0.370   1.709   2.367  1.1752  2.5721 -1.3985
  158SOL     MW  632   0.429   1.673   2.312  0.9308  0.7689 -0.4043
  159SOL     OW  633   1.245   1.647   0.468  0.1539 -1.0259  0.1746
  159SOL    HW1  634   1.184   1.635   0.395 -0.1804  0.2569 -1.5233
  159SOL    HW2  635   1.211   1.720   0.516  0.5970  0.7644  1.5548
  159SOL     MW  636   1.232   1.655   0.465  0.1682 -0.6204  0.1327
  160SOL     OW  637   0.493   1.250   1.559  0.1881  0.5073 -0.2622
  160SOL    HW1  638   0.446   1.168   1.579  2.6871  0.3562 -2.0517
  160SOL    HW2  639   0.588   1.234   1.584  2.3035 -0.4669 -0.8038
  160SOL     MW  640   0.500   1.237   1.565  0.7969  0.3589 -0.5698
  161SOL     OW  641   0.460   2.179   2.569 -0.1329  0.2212  0.3345
  161SOL    HW1  642   0.369   2.221   2.554  0.5649  1.4317  0.1052
  161SOL    HW2  643   0.471   2.103   2.512  2.6448 -2.2807 -0.1757
  161SOL     MW  644   0.450   2.174   2.559  0.3257  0.0508  0.2369
  162SOL     OW  645   1.052   1.832   1.845 -0.5267 -0.2533  0.0097
  162SOL    HW1  646   1.045   1.926   1.868  2.1307 -0.4051 -1.7725
  162SOL    HW2  647   0.972   1.799   1.892 -0.4118  0.4984  2.4157
  162SOL     MW  648   1.040   1.840   1.854 -0.1609 -0.1741  0.0920
  163SOL     OW  649   2.052   3.052   0.904  0.0968  0.5600 -0.0576
  163SOL    HW1  650   2.053   3.117   0.836  2.4180  0.7122 -2.4614
  163SOL    HW2  651   2.047   2.966   0.854  2.1343 -2.3909  1.2916
  163SOL     MW  652   2.052   3.049   0.889  0.6719  0.1908 -0.1967
  164SOL     OW  653   0.295   0.202   0.800  0.3654 -1.0418 -0.3430
  164SOL    HW1  654   0.204   0.199   0.845 -2.5571  0.4991  0.3379
  164SOL    HW2  655   0.300   0.120   0.746  0.0050 -0.7334 -3.1307
  164SOL     MW  656   0.284   0.191   0.799 -0.0678 -0.7978 -0.6210
  165SOL     OW  657   1.208   1.324   0.339 -0.2636 -0.0168  0.1097
  165SOL    HW1  658   1.209   1.294   0.427 -1.2684 -0.7007 -2.2831
  165SOL    HW2  659   1.285   1.296   0.293 -0.3249 -0.3282  3.3427
  165SOL     MW  660   1.219   1.317   0.345 -0.4042 -0.1481  0.2206
  166SOL     OW  661   0.554   1.126   1.020 -0.1076 -0.4023  0.0512
  166SOL    HW1  662   0.568   1.145   1.118 -0.2250  1.6271 -0.3974
  166SOL    HW2  663   0.650   1.115   0.992  2.2988 -0.9894  0.7628
  166SOL     MW  664   0.568   1.127   1.029  0.1944 -0.2120  0.0859
  167SOL     OW  665   0.817   1.110   0.247 -0.1351 -0.1806  0.4347
  167SOL    HW1  666   0.823   1.213   0.250  0.2933 -0.4641 -1.6163
  167SOL    HW2  667   0.879   1.082   0.179 -1.1858  0.5702  0.5002
  167SOL     MW  668   0.826   1.120   0.238 -0.2172 -0.1189  0.1727
  168SOL     OW  669   1.738   1.648   3.029  0.0053  0.4000  0.2742
  168SOL    HW1  670   1.660   1.702   3.003 -1.6887  1.7830  2.7467
  168SOL    HW2  671   1.740   1.563   2.980  1.0881 -1.3944  1.4085
  168SOL     MW  672   1.728   1.644   3.019 -0.0754  0.3457  0.7501
  169SOL     OW  673   0.313   0.971   1.326 -0.6771 -0.2738  0.2142
  169SOL    HW1  674   0.329   0.970   1.420 -0.1535 -1.4722  1.3633
  169SOL    HW2  675   0.341   1.059   1.298  0.8235 -1.8528 -1.5094
  169SOL     MW  676   0.319   0.983   1.335 -0.4100 -0.6402  0.1384
  170SOL     OW  677   1.143   1.504   1.493  0.1160 -0.2005 -0.3206
  170SOL    HW1  678   1.101   1.580   1.518 -0.8693  0.6368  0.7058
  170SOL    HW2  679   1.116   1.490   1.404  1.7262 -1.5127  1.4639
  170SOL     MW  680   1.134   1.512   1.484  0.1985 -0.2631  0.0503
  171SOL     OW  681   0.534   1.418   0.529 -1.1328  0.0246 -0.0257
  171SOL    HW1  682   0.492   1.386   0.605 -0.3842  0.1705  2.8369
  171SOL    HW2  683   0.544   1.347   0.465  0.4973  2.3328 -1.8161
  171SOL     MW  684   0.530   1.405   0.530 -0.8190  0.3484  0.1158
  172SOL     OW  685   0.863   0.298   1.256 -0.2249 -0.0325 -0.1210
  172SOL    HW1  686   0.781   0.269   1.215  0.0741 -0.7290 -2.4474
  172SOL    HW2  687   0.880   0.231   1.319 -3.3469  1.2517 -2.2995
  172SOL     MW  688   0.854   0.285   1.259 -0.5974  0.0451 -0.7154
  173SOL     OW  689   0.512   1.813   0.258  0.7440  0.3114  0.2601
  173SOL    HW1  690   0.501   1.721   0.228 -0.0394  0.7056  1.4022
  173SOL    HW2  691   0.523   1.795   0.348 -2.1589  1.0306 -0.5709
  173SOL     MW  692   0.512   1.798   0.266  0.2577  0.4583  0.3012
  174SOL     OW  693   1.837   0.897   1.493  0.5982  0.1231 -0.0971
  174SOL    HW1  694   1.787   0.818   1.489  0.0386  0.4713  1.2728
  174SOL    HW2  695   1.816   0.934   1.407 -1.5893 -0.7919  0.3570
  174SOL     MW  696   1.828   0.891   1.481  0.2358  0.0483  0.1436
  175SOL     OW  697   0.514   1.518   0.205  0.5357 -0.0872 -0.7368
  175SOL    HW1  698   0.442   1.459   0.180 -0.2010 -4.0075  2.2503
  175SOL    HW2  699   0.592   1.460   0.214 -1.9570  0.7868  0.5866
  175SOL     MW  700   0.515   1.503   0.203  0.1096 -0.4891 -0.1681
  176SOL     OW  701   0.157   1.474   1.214 -0.4432 -0.6190 -0.1695
  176SOL    HW1  702   0.156   1.443   1.119  2.8526 -0.2886  0.2711
  176SOL    HW2  703   0.067   1.458   1.255  0.9951  0.7304  3.6733
  176SOL     MW  704   0.145   1.468   1.207  0.1814 -0.3974  0.3956
  177SOL     OW  705   0.560   0.318   1.430  0.0154 -0.0748  0.8489
  177SOL    HW1  706   0.571   0.373   1.354  1.5944 -0.7178  1.9748
  177SOL    HW2  707   0.553   0.376   1.506 -1.9626 -2.5199  0.5665
  177SOL     MW  708   0.560   0.333   1.430 -0.0373 -0.4822  0.9602
  178SOL     OW  709   3.096   0.520   2.989  0.1228 -0.1853  0.4611
  178SOL    HW1  710   3.046   0.519   3.079 -2.7927  2.8052  2.0159
  178SOL    HW2  711   3.025   0.495   2.923 -1.5043  0.8617  0.0108
  178SOL     MW  712   3.080   0.516   2.992 -0.4766  0.3474  0.6068
  179SOL     OW  713   1.582   1.442   1.379  0.2805 -0.2835 -0.2315
  179SOL    HW1  714   1.599   1.476   1.463  1.2846 -0.8245  0.3511
  179SOL    HW2  715   1.677   1.435   1.353  0.1838  1.6142  0.0191
  179SOL     MW  716   1.597   1.445   1.386  0.4003 -0.1045 -0.1216
  180SOL     OW  717   2.989   0.264   0.496 -0.1386  0.4543  0.5248
  180SOL    HW1  718   2.944   0.296   0.412  0.9867  2.8983 -3.0562
  180SOL    HW2  719   3.066   0.321   0.503 -0.2100 -1.7824  0.0268
  180SOL     MW  720   2.993   0.276   0.485  0.0004  0.4816 -0.0134
  181SOL     OW  721   1.147   1.332   3.075 -0.2744 -0.2833  0.4116
  181SOL    HW1  722   1.213   1.400   3.088 -0.6367 -0.2587 -1.0646
  181SOL    HW2  723   1.184   1.275   3.004 -0.0722 -1.9336 -0.8291
  181SOL     MW  724   1.161   1.333   3.067 -0.2955 -0.4978  0.0531
  182SOL     OW  725   0.375   1.004   1.608 -0.2371  0.1698  0.4042
  182SOL    HW1  726   0.286   0.994   1.640 -1.9630 -1.8643 -2.7009
  182SOL    HW2  727   0.421   0.944   1.671 -1.0315 -1.1221  1.7579
  182SOL     MW  728   0.370   0.995   1.621 -0.5696 -0.2690  0.1732
  183SOL     OW  729   1.535   1.705   1.260 -0.0184  0.1629  0.7660
  183SOL    HW1  730   1.633   1.704   1.277  0.3192  2.5653  2.4181
  183SOL    HW2  731   1.517   1.617   1.292 -1.1547 -1.8010 -0.4608
  183SOL     MW  732   1.546   1.693   1.266 -0.1238  0.2207  0.8221
  184SOL     OW  733   0.806   0.717   1.887 -0.6521 -0.3216  0.1146
  184SOL    HW1  734   0.867   0.705   1.812  1.7836 -1.0556 -1.0223
  184SOL    HW2  735   0.805   0.631   1.926 -0.6751  0.6694  0.5186
  184SOL     MW  736   0.814   0.704   1.882 -0.3338 -0.2877  0.0179
  185SOL     OW  737   1.108   0.945   1.890 -0.5436 -0.1701  0.2136
  185SOL    HW1  738   1.071   0.866   1.930 -0.3033  0.6538 -0.7592
  185SOL    HW2  739   1.138   1.002   1.957  0.9188 -1.9040 -1.9088
  185SOL     MW  740   1.107   0.942   1.904 -0.3189 -0.2902 -0.1948
  186SOL     OW  741   0.335   1.669   1.463 -0.4236 -0.7296  0.4232
  186SOL    HW1  742   0.355   1.616   1.384 -3.5656  1.2048  1.1571
  186SOL    HW2  743   0.247   1.625   1.491 -0.6101 -2.9817  2.9370
  186SOL     MW  744   0.326   1.656   1.456 -0.8628 -0.7715  0.8517
  187SOL     OW  745   1.503   0.745   1.360  0.6403  0.5080  0.0332
  187SOL    HW1  746   1.556   0.704   1.427  0.0170 -3.1351 -0.8725
  187SOL    HW2  747   1.415   0.709   1.374 -0.0744 -1.9305 -1.7645
  187SOL     MW  748   1.498   0.735   1.370  0.4637 -0.2944 -0.3235
  188SOL     OW  749   1.936   1.177   0.782  0.4395  0.2883  0.9183
  188SOL    HW1  750   1.922   1.155   0.871  0.1428  2.0061 -2.0381
  188SOL    HW2  751   1.981   1.098   0.744 -0.9887  0.7033 -0.2410
  188SOL     MW  752   1.940   1.164   0.788  0.2119  0.5697  0.3753
  189SOL     OW  753   0.685   0.767   0.839 -0.1776 -0.1701 -0.0285
  189SOL    HW1  754   0.607   0.834   0.831  1.4733  0.2966 -0.7982
  189SOL    HW2  755   0.717   0.764   0.932  1.6541 -0.1846  0.1968
  189SOL     MW  756   0.679   0.775   0.850  0.2819 -0.1104 -0.1003
  190SOL     OW  757   1.843   0.312   2.144  0.4699  0.5589 -0.0419
  190SOL    HW1  758   1.872   0.234   2.193 -0.5925  0.0611 -0.7422
  190SOL    HW2  759   1.928   0.357   2.123 -2.4755  1.3010  0.8041
  190SOL     MW  760   1.858   0.308   2.147 -0.0589  0.5912 -0.0227
  191SOL     OW  761   1.520   0.972   1.228 -0.1834  0.4692  0.2926
  191SOL    HW1  762   1.531   1.054   1.277 -1.6771 -0.4409 -0.3384
  191SOL    HW2  763   1.506   0.906   1.298 -0.4410 -1.2443 -1.0528
  191SOL     MW  764   1.520   0.974   1.244 -0.4145  0.1231  0.0319
  192SOL     OW  765   0.546   2.118   2.814 -0.5053  0.0498  0.3439
  192SOL    HW1  766   0.504   2.130   2.731 -3.1372 -3.1833  1.0575
  192SOL    HW2  767   0.576   2.027   2.814 -0.1560  1.6187  0.8535
  192SOL     MW  768   0.545   2.108   2.803 -0.8065 -0.1698  0.5053
  193SOL     OW  769   0.872   1.613   0.751 -0.2767  0.5818  0.6093
  193SOL    HW1  770   0.800   1.605   0.808  4.3364 -1.9070  1.1450
  193SOL    HW2  771   0.840   1.554   0.680 -2.0181 -0.5068 -3.0437
  193SOL     MW  772   0.858   1.604   0.749  0.1022  0.1098  0.1980
  194SOL     OW  773   0.515   1.347   0.828  0.2901 -0.4538 -0.8666
  194SOL    HW1  774   0.518   1.271   0.889  2.5838 -0.7925 -1.1248
  194SOL    HW2  775   0.416   1.351   0.815 -1.4676  0.9449  0.5510
  194SOL     MW  776   0.502   1.337   0.834  0.3608 -0.3139 -0.7136
  195SOL     OW  777   1.281   1.114   2.948  0.4446  0.0600 -0.4982
  195SOL    HW1  778   1.317   1.097   3.036  1.0414 -2.8221 -2.2780
  195SOL    HW2  779   1.222   1.041   2.939 -0.4428 -1.5200  0.0287
  195SOL     MW  780   1.278   1.102   2.959  0.4062 -0.5287 -0.6635
  196SOL     OW  781   2.230   0.971   0.521  0.5768  0.1650  0.1007
  196SOL    HW1  782   2.162   0.933   0.467  1.6250  2.9673  2.5757
  196SOL    HW2  783   2.222   1.070   0.518  1.7902  0.3907 -1.1975
  196SOL     MW  784   2.220   0.979   0.513  0.8752  0.5645  0.2560
  197SOL     OW  785   0.616   1.293   2.229  0.0684 -0.6700  0.5781
  197SOL    HW1  786   0.633   1.208   2.175  1.9764 -1.3382 -0.0210
  197SOL    HW2  787   0.673   1.364   2.201 -1.6987  1.0243 -0.6589
  197SOL     MW  788   0.626   1.291   2.218  0.0870 -0.5346  0.3358
  198SOL     OW  789   2.932   1.425   1.019  0.3952  0.7601 -0.0477
  198SOL    HW1  790   2.901   1.512   0.990 -0.9776 -0.8148 -1.8102
  198SOL    HW2  791   2.853   1.366   1.023 -1.7374 -1.6316  3.3447
  198SOL     MW  792   2.918   1.428   1.016 -0.0673  0.2367  0.1674
  199SOL     OW  793   0.746   1.351   1.926 -0.2212 -0.2960 -0.7474
  199SOL    HW1  794   0.654   1.335   1.928  0.5834 -0.9402  0.8928
  199SOL    HW2  795   0.765   1.377   1.838 -1.8899  0.4024 -1.8772
  199SOL     MW  796   0.736   1.352   1.914 -0.3352 -0.2888 -0.6801
  200SOL     OW  797   1.855   2.908   1.362  0.0520  0.0902  0.0842
  200SOL    HW1  798   1.898   2.941   1.286  0.3971 -1.9968 -3.1745
  200SOL    HW2  799   1.785   2.974   1.373  2.5845 -2.0724 -1.0539
  200SOL     MW  800   1.851   2.921   1.353  0.4317 -0.4705 -0.4959
  201SOL     OW  801   1.023   0.356   0.727  0.4194 -0.4682 -0.2488
  201SOL    HW1  802   1.030   0.264   0.698  3.1754  0.2105 -2.2362
  201SOL    HW2  803   1.088   0.351   0.796  3.4566 -0.2172  1.3785
  201SOL     MW  804   1.032   0.343   0.732  1.1838 -0.3456 -0.2963
  202SOL     OW  805   1.479   1.752   0.962 -0.4053  0.8043  0.0836
  202SOL    HW1  806   1.503   1.660   0.931 -0.6759  0.3376 -0.9896
  202SOL    HW2  807   1.491   1.745   1.052 -0.0466 -0.1231  0.6811
  202SOL     MW  808   1.484   1.739   0.970 -0.3936  0.6204  0.0209
  203SOL     OW  809   2.979   0.396   1.478 -0.0730 -0.2136 -0.5877
  203SOL    HW1  810   3.058   0.354   1.443  2.7020  1.8932  0.3640
  203SOL    HW2  811   3.018   0.460   1.539  4.0600 -1.6048  0.3894
  203SOL     MW  812   2.994   0.399   1.482  0.8385 -0.1192 -0.3332
  204SOL     OW  813   1.020   1.813   0.636  0.0179  0.2628 -0.0276
  204SOL    HW1  814   0.976   1.749   0.697 -0.2245 -2.5176  0.2427
  204SOL    HW2  815   0.949   1.829   0.575  2.1428  0.7078 -1.2702
  204SOL     MW  816   1.005   1.806   0.636  0.2662 -0.0453 -0.1559
  205SOL     OW  817   1.367   3.059   1.323  0.4532 -0.2198 -0.0624
  205SOL    HW1  818   1.390   3.061   1.228 -0.5291 -1.0608 -0.5844
  205SOL    HW2  819   1.294   3.119   1.338  1.8642  2.5648 -1.0020
  205SOL     MW  820   1.361   3.067   1.312  0.5098  0.0366 -0.2552
  206SOL     OW  821   0.477   3.074   1.369 -0.1626  0.0293 -0.9828
  206SOL    HW1  822   0.432   3.051   1.286  1.4698 -1.8174 -2.5189
  206SOL    HW2  823   0.545   3.006   1.384  0.2089 -0.9588  1.2570
  206SOL     MW  824   0.480   3.062   1.360  0.1018 -0.3447 -0.8899
  207SOL     OW  825   0.891   1.685   0.224 -0.1389  0.6918 -0.5655
  207SOL    HW1  826   0.914   1.766   0.187 -0.0981  0.9951 -0.3966
  207SOL    HW2  827   0.975   1.642   0.211 -2.0929  0.9159 -0.9813
  207SOL     MW  828   0.905   1.690   0.218 -0.3913  0.7614 -0.5980
  208SOL     OW  829   0.719   1.645   1.421  0.7210 -1.0034  0.4138
  208SOL    HW1  830   0.808   1.661   1.458 -1.0817 -0.3369 -1.3718
  208SOL    HW2  831   0.730   1.610   1.330 -0.5262  0.5670 -2.6730
  208SOL     MW  832   0.732   1.643   1.414  0.3186 -0.7083 -0.2291
  209SOL     OW  833   1.524   0.494   2.789  0.0319 -0.4676  0.4723
  209SOL    HW1  834   1.544   0.568   2.844 -0.2796  1.9413  1.4602
  209SOL    HW2  835   1.608   0.447   2.785  0.7344  0.1960  1.0106
  209SOL     MW  836   1.538   0.497   2.795  0.0835 -0.0622  0.6737
  210SOL     OW  837   1.481   1.499   0.934  0.0554  0.2366  0.0680
  210SOL    HW1  838   1.557   1.440   0.906 -0.6358 -1.2950 -0.7207
  210SOL    HW2  839   1.414   1.489   0.867 -1.2542  2.0992 -1.4283
  210SOL     MW  840   1.482   1.490   0.921 -0.2086  0.2803 -0.2335
  211SOL     OW  841   1.727   0.305   0.998 -0.1051  0.0598 -0.1492
  211SOL    HW1  842   1.721   0.321   0.905  0.8391  0.9412  0.2550
  211SOL    HW2  843   1.817   0.314   1.022 -0.7999  1.6256 -0.3787
  211SOL     MW  844   1.738   0.308   0.989 -0.0722  0.3827 -0.1262
  212SOL     OW  845   0.270   1.090   0.215 -0.2436  0.1818  0.2457
  212SOL    HW1  846   0.209   1.052   0.278  2.3467 -0.9651  0.7026
  212SOL    HW2  847   0.297   1.004   0.170  3.0508 -0.3091 -1.4053
  212SOL     MW  848   0.265   1.074   0.218  0.5328 -0.0343  0.0881
  213SOL     OW  849   0.466   1.768   3.001 -0.5511  0.7611  0.0371
  213SOL    HW1  850   0.485   1.850   3.044 -2.3805 -2.0854 -1.4666
  213SOL    HW2  851   0.499   1.783   2.913 -2.1694  0.4188  1.6129
  213SOL     MW  852   0.473   1.781   2.995 -1.0060  0.3404  0.0466
  214SOL     OW  853   0.616   0.326   2.136 -0.0591 -0.0373  0.0830
  214SOL    HW1  854   0.546   0.394   2.143 -5.4780 -1.0729  2.2536
  214SOL    HW2  855   0.617   0.308   2.042 -1.6195 -0.8127 -1.8964
  214SOL     MW  856   0.607   0.332   2.125 -0.9799 -0.2762  0.1082
  215SOL     OW  857   0.517   0.657   2.611 -0.0596 -0.4576 -1.1965
  215SOL    HW1  858   0.485   0.665   2.520 -2.1543  0.2713 -1.6988
  215SOL    HW2  859   0.449   0.625   2.667 -1.6098 -1.8640 -0.9389
  215SOL     MW  860   0.504   0.654   2.607 -0.5405 -0.5470 -1.2288
  216SOL     OW  861   2.991   3.051   2.706 -0.5315  0.2605 -0.1607
  216SOL    HW1  862   2.918   3.052   2.768  1.3468  0.5015  2.0284
  216SOL    HW2  863   3.013   3.143   2.692 -1.1501  2.9585 -2.2808
  216SOL     MW  864   2.984   3.063   2.713 -0.3653  0.6483 -0.1516
  217SOL     OW  865   1.060   1.086   0.099  0.2999 -0.3167 -0.0108
  217SOL    HW1  866   1.084   1.021   0.026  1.3281 -1.5555  0.4249
  217SOL    HW2  867   1.077   1.175   0.071 -1.6550 -1.3717  1.8598
  217SOL     MW  868   1.066   1.089   0.086  0.1776 -0.6194  0.2935
  218SOL     OW  869   0.850   1.361   2.698 -0.3744  0.1249 -0.3187
  218SOL    HW1  870   0.844   1.302   2.773  1.5903  1.5441  1.4869
  218SOL    HW2  871   0.942   1.365   2.670  1.5953  1.2996 -1.9295
  218SOL     MW  872   0.861   1.353   2.704  0.1447  0.4671 -0.2930
  219SOL     OW  873   1.082   0.355   2.620 -0.9709  0.7189  0.4239
  219SOL    HW1  874   1.149   0.430   2.628 -1.4039 -2.5411 -0.2578
  219SOL    HW2  875   1.005   0.409   2.605 -1.1732  0.8608 -0.4390
  219SOL     MW  876   1.081   0.372   2.619 -1.0547  0.3075  0.2201
  220SOL     OW  877   1.650   0.504   2.242 -0.0003  0.0052 -0.3196
  220SOL    HW1  878   1.576   0.523   2.177 -0.3378  0.2600 -1.5558
  220SOL    HW2  879   1.701   0.427   2.209 -1.2220 -1.7773 -0.7870
  220SOL     MW  880   1.647   0.497   2.229 -0.2060 -0.1964 -0.5443
  221SOL     OW  881   0.336   1.282   2.900 -0.3391  0.1610  0.0279
  221SOL    HW1  882   0.410   1.229   2.871  0.9512  0.1031  1.5756
  221SOL    HW2  883   0.365   1.365   2.861 -1.9023 -2.0974  0.4848
  221SOL     MW  884   0.350   1.286   2.891 -0.3751 -0.1446  0.2924
  222SOL     OW  885   0.511   0.902   2.673 -0.1377 -0.1692  0.5944
  222SOL    HW1  886   0.423   0.919   2.673  1.4458 -1.1230  1.2113
  222SOL    HW2  887   0.508   0.807   2.665  1.6903 -2.0735  2.5610
  222SOL     MW  888   0.499   0.892   2.672  0.3124 -0.5463  0.9353
  223SOL     OW  889   0.037   1.995   2.572 -0.5724 -0.4033  0.1414
  223SOL    HW1  890  -0.007   1.968   2.658 -2.0686  4.3911 -0.1504
  223SOL    HW2  891   0.067   2.083   2.589 -1.2867  2.4672 -0.6577
  223SOL     MW  892   0.035   2.003   2.586 -0.8641  0.6080 -0.0025
  224SOL     OW  893   1.463   0.731   2.489 -0.2362  0.1895  0.5671
  224SOL    HW1  894   1.461   0.729   2.587  0.2751  1.4815  0.7648
  224SOL    HW2  895   1.478   0.820   2.466 -1.1767 -1.1976  2.8862
  224SOL     MW  896   1.464   0.743   2.499 -0.2928  0.1770  0.8991
  225SOL     OW  897   2.945   1.440   2.282  0.0169 -0.3834  0.8308
  225SOL    HW1  898   2.972   1.512   2.222 -0.4929  1.9556  2.4451
  225SOL    HW2  899   2.880   1.486   2.335 -1.6198  0.5065  2.0530
  225SOL     MW  900   2.940   1.456   2.281 -0.2663  0.0427  1.2050
  226SOL     OW  901   0.381   1.507   2.738  0.2104 -0.6945  0.8943
  226SOL    HW1  902   0.477   1.509   2.728  1.1860 -0.5960 -0.2169
  226SOL    HW2  903   0.358   1.588   2.701 -1.1788  0.0120  1.0617
  226SOL     MW  904   0.391   1.518   2.731  0.1558 -0.5883  0.7698
  227SOL     OW  905   0.567   1.115   2.837  0.3283  0.2038  0.1877
  227SOL    HW1  906   0.658   1.125   2.816 -1.3367  0.3279 -1.2409
  227SOL    HW2  907   0.545   1.042   2.781  0.3178  1.0541  1.7983
  227SOL     MW  908   0.576   1.107   2.826  0.1072  0.3323  0.2117
  228SOL     OW  909   0.737   1.092   2.058  0.1989 -0.2785  0.2294
  228SOL    HW1  910   0.743   1.167   1.992  2.1351  0.7770 -0.9821
  228SOL    HW2  911   0.824   1.078   2.096  0.4795 -0.8829  0.9628
  228SOL     MW  912   0.750   1.100   2.055  0.4914 -0.2190  0.1663
  229SOL     OW  913   0.211   0.639   0.017  0.8282 -0.4645 -0.1510
  229SOL    HW1  914   0.136   0.618  -0.034  0.0437  0.5202  0.6812
  229SOL    HW2  915   0.203   0.570   0.087 -0.0817 -2.4141  1.3973
  229SOL     MW  916   0.200   0.627   0.020  0.6046 -0.5918  0.1631
  230SOL     OW  917   1.798   1.370   2.022 -0.0631  0.0579 -0.1283
  230SOL    HW1  918   1.773   1.307   2.100 -2.2494  0.6444 -1.5647
  230SOL    HW2  919   1.863   1.314   1.974  0.4436 -0.5759 -0.0101
  230SOL     MW  920   1.804   1.354   2.026 -0.2847  0.0517 -0.3023
  231SOL     OW  921   2.738   1.244   2.187 -0.3451  0.3869  0.4947
  231SOL    HW1  922   2.829   1.288   2.182  2.1227 -1.9433  0.3900
  231SOL    HW2  923   2.679   1.284   2.117  0.0702  0.4661  1.4227
  231SOL     MW  924   2.743   1.255   2.177  0.0353  0.0899  0.6033
  232SOL     OW  925   2.281   0.808   2.000 -0.0449 -0.7749  0.0559
  232SOL    HW1  926   2.208   0.835   1.945 -0.5288  2.9631 -0.5773
  232SOL    HW2  927   2.262   0.869   2.066 -0.7151 -1.2951  0.7922
  232SOL     MW  928   2.269   0.819   2.002 -0.1972 -0.3504  0.0695
  233SOL     OW  929   2.070   0.458   2.083  0.3489  0.5682  0.2595
  233SOL    HW1  930   2.131   0.396   2.048 -2.8373  1.0868  0.6009
  233SOL    HW2  931   2.127   0.529   2.124  1.1464 -1.6417 -0.0731
  233SOL     MW  932   2.085   0.459   2.084  0.0338  0.3450  0.2607
  234SOL     OW  933   0.262   1.040   2.647 -0.0269 -0.2588 -0.0205
  234SOL    HW1  934   0.177   1.029   2.605  0.9177 -0.2935 -0.6822
  234SOL    HW2  935   0.290   1.131   2.635 -0.0698  1.7521 -0.2916
  234SOL     MW  936   0.254   1.050   2.640  0.0921  0.0019 -0.1436
  235SOL     OW  937   1.030   3.036   2.804 -0.7166  0.1516 -0.6549
  235SOL    HW1  938   1.064   3.007   2.892  1.2789  1.0313  1.8083
  235SOL    HW2  939   1.042   3.133   2.806 -1.6589 -1.4534  2.3503
  235SOL     MW  940   1.036   3.045   2.816 -0.5776  0.0559  0.0666
  236SOL     OW  941   2.952   0.579   0.125 -0.1478 -0.4419 -0.3169
  236SOL    HW1  942   2.888   0.618   0.187  0.1222  0.6951  1.0798
  236SOL    HW2  943   2.986   0.660   0.082 -0.6783 -1.5079 -0.3902
  236SOL     MW  944   2.948   0.595   0.127 -0.1822 -0.4325 -0.1423
  237SOL     OW  945   1.948   1.085   2.197 -0.2867 -0.4609 -0.7839
  237SOL    HW1  946   1.901   1.075   2.118 -2.0411  0.6313  1.2348
  237SOL    HW2  947   2.013   1.008   2.207 -0.3952 -0.0668 -1.5865
  237SOL     MW  948   1.950   1.074   2.188 -0.5325 -0.2648 -0.6235
  238SOL     OW  949   1.103   1.789   2.960 -0.2557  0.0696  0.2185
  238SOL    HW1  950   1.056   1.707   2.938 -0.8192 -0.3489  1.5634
  238SOL    HW2  951   1.199   1.768   2.953  1.0399  0.5270 -2.9253
  238SOL     MW  952   1.110   1.776   2.956 -0.1591  0.0747 -0.0188
  239SOL     OW  953   1.198   1.337   2.293 -0.1839 -0.7457 -0.7189
  239SOL    HW1  954   1.120   1.391   2.276 -0.6578 -1.2581 -0.5816
  239SOL    HW2  955   1.184   1.268   2.366 -1.4296  0.4174  1.8718
  239SOL     MW  956   1.186   1.335   2.301 -0.4108 -0.6598 -0.3590
  240SOL     OW  957   0.608   0.907   2.248 -0.1125 -0.1509 -0.3323
  240SOL    HW1  958   0.635   0.952   2.338  0.6309 -1.1522  1.0270
  240SOL    HW2  959   0.686   0.906   2.191 -1.2285  0.8987 -1.0597
  240SOL     MW  960   0.622   0.913   2.252 -0.1617 -0.1445 -0.2489
  241SOL     OW  961   0.668   0.457   3.081  0.3971  0.5487 -0.5081
  241SOL    HW1  962   0.695   0.531   3.142 -0.6461  1.4491 -1.0107
  241SOL    HW2  963   0.580   0.474   3.048  3.4557  0.2686 -0.8022
  241SOL     MW  964   0.660   0.469   3.084  0.6630  0.6305 -0.6132
  242SOL     OW  965   1.504   1.726   2.258  0.3161 -0.1070  0.1988
  242SOL    HW1  966   1.450   1.800   2.293  1.0785 -2.0951  1.3502
  242SOL    HW2  967   1.456   1.655   2.217  1.6369  1.0284  1.7910
  242SOL     MW  968   1.491   1.726   2.257  0.5910 -0.2195  0.5608
  243SOL     OW  969   0.986   0.250   2.383 -0.1767  0.2344 -0.4894
  243SOL    HW1  970   1.051   0.188   2.337  1.0080  0.0831  0.2275
  243SOL    HW2  971   1.037   0.290   2.452  2.5416  0.4894 -0.6533
  243SOL     MW  972   1.001   0.247   2.386  0.3383  0.2481 -0.4164
  244SOL     OW  973   0.132   0.805   2.353 -0.0344  0.0757  0.1311
  244SOL    HW1  974   0.078   0.884   2.381  0.4946 -1.5277  2.4693
  244SOL    HW2  975   0.226   0.820   2.350 -1.2456 -0.3932  1.3162
  244SOL     MW  976   0.137   0.818   2.356 -0.1244 -0.1977  0.5960
  245SOL     OW  977   1.259   0.193   2.295  0.0385  0.4351 -0.0471
  245SOL    HW1  978   1.323   0.123   2.293 -5.0208 -2.8322  0.6047
  245SOL    HW2  979   1.275   0.242   2.372 -1.9616 -2.5273 -0.2007
  245SOL     MW  980   1.269   0.190   2.305 -0.8929 -0.3869  0.0186
  246SOL     OW  981   1.190   1.137   2.067  0.2158 -0.0269 -0.2737
  246SOL    HW1  982   1.126   1.136   2.144  1.2960  0.0727  0.0036
  246SOL    HW2  983   1.278   1.123   2.116  0.5678  0.1478  0.0467
  246SOL     MW  984   1.193   1.135   2.084  0.4048  0.0093 -0.1948
  247SOL     OW  985   0.770   0.645   0.171 -0.3319  0.1855 -0.3079
  247SOL    HW1  986   0.759   0.736   0.152  0.0246  0.6342 -1.7988
  247SOL    HW2  987   0.864   0.615   0.152 -1.0267 -1.4951  0.0223
  247SOL     MW  988   0.781   0.653   0.166 -0.3765  0.0229 -0.4610
  248SOL     OW  989   0.347   1.296   2.569  0.1525 -0.0867 -0.6717
  248SOL    HW1  990   0.311   1.317   2.481 -1.9714  0.9495  2.0506
  248SOL    HW2  991   0.356   1.379   2.609 -1.4496 -1.4327 -0.7574
  248SOL     MW  992   0.344   1.310   2.563 -0.3391 -0.1275 -0.3238
  249SOL     OW  993   3.059   1.908   2.816 -0.3320 -0.2506  0.7845
  249SOL    HW1  994   3.009   1.828   2.814 -2.8997  1.2984  0.1217
  249SOL    HW2  995   3.132   1.877   2.869 -3.3783 -2.2489  0.8631
  249SOL     MW  996   3.062   1.893   2.823 -1.0727 -0.3099  0.7074
  250SOL     OW  997   2.139   0.886   2.227  0.0292 -0.9871 -0.6631
  250SOL    HW1  998   2.177   0.797   2.245  1.0739  1.2602 -0.8107
  250SOL    HW2  999   2.208   0.937   2.274 -0.1917 -2.4051  2.2008
  250SOL     MW 1000   2.153   0.881   2.235  0.1379 -0.8777 -0.3047
  251SOL     OW 1001   0.173   0.913   2.010 -0.8022 -0.3258  0.2293
  251SOL    HW1 1002   0.112   0.847   2.031  0.2267  2.2313  0.8581
  251SOL    HW2 1003   0.178   0.917   1.916  1.9168  0.9961  1.6547
  251SOL     MW 1004   0.166   0.905   2.000 -0.3077  0.1860  0.5003
  252SOL     OW 1005   1.663   1.020   2.847 -0.0479 -0.2059 -1.0860
  252SOL    HW1 1006   1.660   1.047   2.940  1.1032  0.2420  0.1910
  252SOL    HW2 1007   1.739   1.060   2.811  0.9369  0.5340  0.3364
  252SOL     MW 1008   1.673   1.028   2.855  0.2339 -0.0492 -0.7299
  253SOL     OW 1009   1.119   1.705   2.431 -0.1921  0.2657 -0.1374
  253SOL    HW1 1010   1.134   1.687   2.327  3.9958  1.5777 -1.7264
  253SOL    HW2 1011   1.045   1.770   2.438 -0.0919 -0.9108 -1.2278
  253SOL     MW 1012   1.111   1.711   2.418  0.3736  0.2836 -0.4909
  254SOL     OW 1013   0.948   1.132   2.256  0.0038  0.1537 -0.1528
  254SOL    HW1 1014   0.954   1.041   2.281 -0.9759  2.3094 -2.3396
  254SOL    HW2 1015   0.920   1.177   2.333 -1.9851 -0.3786 -0.0892
  254SOL     MW 1016   0.945   1.126   2.269 -0.3879  0.3679 -0.4329
  255SOL     OW 1017   0.880   2.531   2.138  0.7557  0.7342  0.1279
  255SOL    HW1 1018   0.790   2.490   2.137 -3.1727 -2.2636  0.2641
  255SOL    HW2 1019   0.947   2.464   2.157 -1.4998  1.9402  0.5661
  255SOL     MW 1020   0.877   2.517   2.140 -0.0602  0.4978  0.2037
  256SOL     OW 1021   1.215   2.746   2.967 -0.4169 -0.1847  0.0909
  256SOL    HW1 1022   1.179   2.680   2.905 -1.8364  1.0234  1.2970
  256SOL    HW2 1023   1.305   2.771   2.938  2.5608 -2.3368  0.4807
  256SOL     MW 1024   1.222   2.740   2.955 -0.2113 -0.3093  0.3015
  257SOL     OW 1025   0.037   1.910   0.006 -0.0105 -0.0822  0.5189
  257SOL    HW1 1026   0.061   1.886   0.100 -0.4202 -0.1366  0.7138
  257SOL    HW2 1027   0.096   1.851  -0.038 -1.9238 -0.3000  0.3460
  257SOL     MW 1028   0.048   1.899   0.012 -0.3170 -0.1181  0.5218
  258SOL     OW 1029   0.706   0.994   2.493 -0.4361 -0.1041 -0.9519
  258SOL    HW1 1030   0.723   1.089   2.478  2.7459  1.0409 -4.5324
  258SOL    HW2 1031   0.629   1.000   2.549  1.9750  1.1213 -2.3219
  258SOL     MW 1032   0.698   1.008   2.499  0.3018  0.2087 -1.6051
  259SOL     OW 1033   0.823   0.488   2.272 -0.3789  0.4288  0.2903
  259SOL    HW1 1034   0.746   0.460   2.222 -1.3916  0.6476  0.7157
  259SOL    HW2 1035   0.863   0.405   2.303 -0.1229  1.4767  0.6689
  259SOL     MW 1036   0.818   0.473   2.270 -0.4787  0.5959  0.3964
  260SOL     OW 1037   0.650   0.116   1.606 -0.5218 -0.1201 -0.6781
  260SOL    HW1 1038   0.596   0.166   1.540  0.8454  0.9345 -0.2537
  260SOL    HW2 1039   0.733   0.095   1.562 -0.5855 -0.3084  0.0584
  260SOL     MW 1040   0.654   0.120   1.592 -0.3498 -0.0058 -0.5250
  261SOL     OW 1041   1.113   0.675   1.978  0.2224 -0.0541 -0.5875
  261SOL    HW1 1042   1.137   0.694   2.063 -2.2557 -0.4947 -0.7174
  261SOL    HW2 1043   1.072   0.582   1.978 -1.4427 -0.7345  0.2418
  261SOL     MW 1044   1.111   0.665   1.989 -0.3242 -0.2020 -0.4952
  262SOL     OW 1045   1.097   0.335   0.182  0.2669 -0.3649  0.3076
  262SOL    HW1 1046   1.193   0.320   0.158 -1.6619  0.4889  0.2330
  262SOL    HW2 1047   1.055   0.283   0.108 -0.0182 -0.5695  1.7189
  262SOL     MW 1048   1.104   0.326   0.169 -0.0252 -0.2792  0.4840
  263SOL     OW 1049   0.351   0.036   2.469  0.2703 -0.3351 -0.4177
  263SOL    HW1 1050   0.280   0.106   2.461 -1.1685  0.0755 -2.3550
  263SOL    HW2 1051   0.423   0.074   2.421  0.0813  1.8883  1.3432
  263SOL     MW 1052   0.351   0.051   2.462  0.0556  0.0125 -0.4410
  264SOL     OW 1053   1.550   1.351   1.913 -0.3134 -0.2649  0.9019
  264SOL    HW1 1054   1.535   1.256   1.899 -1.3594 -0.5606 -0.4765
  264SOL    HW2 1055   1.635   1.362   1.961  0.4587 -1.0211  3.0918
  264SOL     MW 1056   1.559   1.340   1.918 -0.3495 -0.4037  1.0089
  265SOL     OW 1057   0.748   2.770   2.307 -0.5858  0.1726 -0.0176
  265SOL    HW1 1058   0.794   2.691   2.274  0.0427 -0.0350 -0.7493
  265SOL    HW2 1059   0.745   2.777   2.405 -0.2219  0.1674  0.5763
  265SOL     MW 1060   0.753   2.760   2.315 -0.4549  0.1445 -0.0358
  266SOL     OW 1061   0.909   0.840   2.161 -0.5812  0.2078 -0.1687
  266SOL    HW1 1062   0.840   0.806   2.103  0.1774 -0.3189 -2.5643
  266SOL    HW2 1063   0.970   0.770   2.164  3.5394  1.3589 -0.6872
  266SOL     MW 1064   0.908   0.826   2.154  0.0626  0.2902 -0.5532
  267SOL     OW 1065   1.329   1.761   2.637 -0.1233 -0.2525  0.0581
  267SOL    HW1 1066   1.404   1.738   2.578 -2.1822  1.5292 -1.1159
  267SOL    HW2 1067   1.250   1.733   2.594 -0.2865 -2.3256 -0.1966
  267SOL     MW 1068   1.329   1.754   2.624 -0.4165 -0.2910 -0.1304
  268SOL     OW 1069   0.137   0.925   1.702 -0.1294  0.2518  1.0307
  268SOL    HW1 1070   0.103   1.019   1.704 -0.8640 -1.3883 -0.4434
  268SOL    HW2 1071   0.090   0.874   1.641  0.4688  0.3783 -1.4905
  268SOL     MW 1072   0.126   0.930   1.694 -0.1474  0.0521  0.5036
  269SOL     OW 1073   1.358   1.957   2.283 -0.1318  0.1089 -0.3517
  269SOL    HW1 1074   1.391   2.028   2.334 -1.2870  0.1800  2.7646
  269SOL    HW2 1075   1.285   1.930   2.332 -0.4527  0.3884 -1.3918
  269SOL     MW 1076   1.353   1.963   2.296 -0.3265  0.1552 -0.0778
  270SOL     OW 1077   1.131   0.406   1.583 -0.0806 -0.7701  0.0223
  270SOL    HW1 1078   1.105   0.317   1.628 -0.9043 -1.1955 -0.6183
  270SOL    HW2 1079   1.226   0.401   1.565 -1.2943 -0.9354 -2.2974
  270SOL     MW 1080   1.140   0.393   1.587 -0.3494 -0.8481 -0.3683
  271SOL     OW 1081   0.800   0.072   2.442  0.4008  0.0002 -0.4505
  271SOL    HW1 1082   0.856   0.007   2.484  3.0937  0.1031 -1.6911
  271SOL    HW2 1083   0.875   0.141   2.426  4.2698 -0.0215  2.0577
  271SOL     MW 1084   0.817   0.073   2.445  1.2666  0.0109 -0.2833
  272SOL     OW 1085   1.451   2.829   2.864 -0.0038 -0.0811 -0.3234
  272SOL    HW1 1086   1.420   2.840   2.776  0.5233 -1.2560  2.0370
  272SOL    HW2 1087   1.505   2.912   2.884  0.0548  1.5045 -3.4671
  272SOL     MW 1088   1.454   2.841   2.855  0.0734 -0.0269 -0.4268
  273SOL     OW 1089   1.424   0.890   2.755 -0.0444 -0.7797 -0.5070
  273SOL    HW1 1090   1.506   0.903   2.796 -0.0561 -0.4751  1.9886
  273SOL    HW2 1091   1.397   0.977   2.717 -3.7550 -2.2806 -0.4872
  273SOL     MW 1092   1.431   0.903   2.755 -0.5355 -0.9376 -0.1751
  274SOL     OW 1093   1.411   0.768   0.173  0.3108 -0.3989  0.5628
  274SOL    HW1 1094   1.445   0.682   0.202 -0.8501 -2.6238  0.9321
  274SOL    HW2 1095   1.325   0.781   0.215  2.1903  0.0693  0.4459
  274SOL     MW 1096   1.404   0.758   0.182  0.4056 -0.6307  0.5961
  275SOL     OW 1097   1.731   0.516   1.785  0.6496  0.0686  0.5875
  275SOL    HW1 1098   1.805   0.564   1.825  0.0865 -1.1582  0.5403
  275SOL    HW2 1099   1.747   0.425   1.790  1.3492 -0.3169 -1.3249
  275SOL     MW 1100   1.743   0.511   1.791  0.6676 -0.1441  0.3289
  276SOL     OW 1101   0.449   1.259   1.916  0.6882 -0.2426 -0.1686
  276SOL    HW1 1102   0.484   1.167   1.904  0.7501  1.6938 -0.3819
  276SOL    HW2 1103   0.380   1.250   1.987  0.3148  2.6098  0.4136
  276SOL     MW 1104   0.444   1.245   1.924  0.6471  0.3892 -0.1199
  277SOL     OW 1105   1.966   1.091   2.458 -0.3185 -0.5922 -0.0109
  277SOL    HW1 1106   2.018   1.168   2.472 -0.7975 -0.4504 -2.1425
  277SOL    HW2 1107   1.948   1.099   2.363 -0.7861 -0.1203  0.6987
  277SOL     MW 1108   1.970   1.102   2.447 -0.4434 -0.5112 -0.1985
  278SOL     OW 1109   1.371   0.677   1.756  0.2193  0.4653  0.1269
  278SOL    HW1 1110   1.325   0.603   1.799  0.6657 -1.3237  3.6181
  278SOL    HW2 1111   1.465   0.658   1.771  2.9974 -1.4057  0.7313
  278SOL     MW 1112   1.377   0.665   1.764  0.6447 -0.0176  0.6673
  279SOL     OW 1113   0.550   0.097   2.273 -0.4992  0.0191  0.4883
  279SOL    HW1 1114   0.635   0.057   2.265 -0.4793  0.8612  0.2129
  279SOL    HW2 1115   0.567   0.178   2.226  0.4341  0.8247  3.0928
  279SOL     MW 1116   0.564   0.103   2.266 -0.3734  0.2365  0.7956
  280SOL     OW 1117   1.453   1.097   2.152  0.4049  0.7148 -0.4988
  280SOL    HW1 1118   1.512   1.029   2.118 -0.3501  1.4085  1.7672
  280SOL    HW2 1119   1.459   1.064   2.246 -0.3326 -0.5700  1.6974
  280SOL     MW 1120   1.461   1.084   2.160  0.2080  0.6368  0.0900
  281SOL     OW 1121   1.397   1.154   2.698 -0.5543 -0.2603  0.2602
  281SOL    HW1 1122   1.475   1.202   2.711 -0.2757  1.1692 -2.7871
  281SOL    HW2 1123   1.349   1.154   2.782 -0.8172 -2.4978 -1.7333
  281SOL     MW 1124   1.401   1.160   2.711 -0.5522 -0.3669 -0.4049
  282SOL     OW 1125   1.162   1.277   1.624  0.4165  0.1671 -0.2073
  282SOL    HW1 1126   1.133   1.357   1.573  0.1240 -1.0876  1.2781
  282SOL    HW2 1127   1.096   1.268   1.691 -1.2703  0.0946 -1.9406
  282SOL     MW 1128   1.149   1.287   1.626  0.1553 -0.0080 -0.2400
  283SOL     OW 1129   0.865   1.306   0.012  0.5001  0.5776 -0.3116
  283SOL    HW1 1130   0.957   1.340   0.009  2.8922  0.7930  0.0250
  283SOL    HW2 1131   0.809   1.359  -0.038 -0.0380 -3.7088  0.0137
  283SOL     MW 1132   0.870   1.317   0.005  0.7448  0.0405 -0.2243
  284SOL     OW 1133   0.416   0.734   2.363  0.0792 -0.3266 -0.2843
  284SOL    HW1 1134   0.485   0.799   2.342  1.1676 -1.8714  2.5249
  284SOL    HW2 1135   0.440   0.657   2.309 -1.7448 -0.6098  0.1997
  284SOL     MW 1136   0.428   0.732   2.353 -0.0178 -0.5678  0.1502
  285SOL     OW 1137   0.881   0.879   2.812 -0.5524  0.2683  0.1903
  285SOL    HW1 1138   0.920   0.917   2.732 -1.0152 -0.7554  0.5177
  285SOL    HW2 1139   0.856   0.795   2.779 -0.6128 -0.4459 -0.4463
  285SOL     MW 1140   0.883   0.873   2.797 -0.6214  0.0390  0.1495
  286SOL     OW 1141   1.126   1.485   2.618 -0.1018 -0.1409  0.3147
  286SOL    HW1 1142   1.217   1.455   2.603 -1.1422 -2.0421  0.0859
  286SOL    HW2 1143   1.123   1.569   2.567  0.6508  1.6794 -2.9366
  286SOL     MW 1144   1.138   1.492   2.609 -0.1398 -0.1516 -0.1445
  287SOL     OW 1145   1.211   1.012   0.314 -0.5093 -0.6652  0.6300
  287SOL    HW1 1146   1.183   1.063   0.383  0.0742  0.5349 -1.5384
  287SOL    HW2 1147   1.167   1.057   0.241 -0.7787 -0.8034 -3.9901
  287SOL     MW 1148   1.202   1.024   0.313 -0.4679 -0.5251 -0.2657
  288SOL     OW 1149   1.460   0.597   2.070 -0.2850  0.0735  0.7795
  288SOL    HW1 1150   1.423   0.608   2.164  2.3638  0.5318 -1.6792
  288SOL    HW2 1151   1.508   0.674   2.071  1.6130 -1.7200  0.6789
  288SOL     MW 1152   1.461   0.609   2.082  0.3149 -0.1027  0.4419
  289SOL     OW 1153   0.984   1.008   2.589 -0.7044  0.5096 -0.1848
  289SOL    HW1 1154   1.011   0.913   2.567  0.3235 -0.6526 -0.2947
  289SOL    HW2 1155   0.892   1.000   2.576 -0.3203 -1.3738  0.9736
  289SOL     MW 1156   0.975   0.994   2.585 -0.5181  0.1077 -0.0464
  290SOL     OW 1157   0.801   0.600   1.490 -0.6409  0.1124 -0.0697
  290SOL    HW1 1158   0.848   0.531   1.443  0.4282  1.2538 -0.4628
  290SOL    HW2 1159   0.862   0.624   1.560  1.1693 -1.4850 -1.6825
  290SOL     MW 1160   0.815   0.594   1.493 -0.2610  0.0522 -0.3343
  291SOL     OW 1161   0.192   0.385   0.128 -0.7451 -0.0207  0.4846
  291SOL    HW1 1162   0.289   0.369   0.137  1.7139  0.2718 -0.2624
  291SOL    HW2 1163   0.154   0.299   0.125  2.8317 -0.4240 -0.9070
  291SOL     MW 1164   0.200   0.372   0.129  0.0512 -0.0353  0.2024
  292SOL     OW 1165   1.034   0.596   0.135  0.2698 -0.3339 -0.0105
  292SOL    HW1 1166   1.086   0.664   0.185 -0.8766  2.8092  1.5803
  292SOL    HW2 1167   1.073   0.513   0.163  0.4264  3.0767  0.3689
  292SOL     MW 1168   1.046   0.594   0.145  0.1392  0.5308  0.2494
  293SOL     OW 1169   0.123   0.180   2.504 -0.0735 -0.1254  0.2790
  293SOL    HW1 1170   0.067   0.122   2.446  0.2103  0.7237 -1.5405
  293SOL    HW2 1171   0.058   0.213   2.565 -1.0777  0.6981  1.4954
  293SOL     MW 1172   0.107   0.177   2.504 -0.1686  0.0953  0.1994
  294SOL     OW 1173   1.356   0.571   2.308 -0.3493 -0.8576 -0.4076
  294SOL    HW1 1174   1.384   0.637   2.378  1.0401 -3.0332  0.1062
  294SOL    HW2 1175   1.386   0.487   2.336 -2.6399 -0.2842 -2.5824
  294SOL     MW 1176   1.364   0.569   2.321 -0.4682 -1.0690 -0.6267
  295SOL     OW 1177   0.903   0.535   2.554 -0.5009 -0.2512 -0.4582
  295SOL    HW1 1178   0.844   0.520   2.481 -0.4918  0.3149  2.0156
  295SOL    HW2 1179   0.848   0.584   2.619  3.2887 -0.1982 -0.3047
  295SOL     MW 1180   0.888   0.540   2.553  0.0003 -0.1696 -0.1115
  296SOL     OW 1181   1.213   0.233   2.023  0.1270 -0.0029  0.1418
  296SOL    HW1 1182   1.305   0.208   1.997 -1.1859 -0.5368  1.1642
  296SOL    HW2 1183   1.212   0.221   2.117 -1.5485  0.1155 -0.5658
  296SOL     MW 1184   1.225   0.228   2.032 -0.2673 -0.0578  0.1834
  297SOL     OW 1185   1.400   0.374   1.536 -0.5929 -0.2629 -0.2817
  297SOL    HW1 1186   1.445   0.438   1.595 -0.3092  1.4566  0.7221
  297SOL    HW2 1187   1.401   0.301   1.597  2.2476  1.2893  0.6753
  297SOL     MW 1188   1.406   0.373   1.552 -0.1807  0.1688 -0.0230
  298SOL     OW 1189   1.611   0.863   2.076  0.0177  0.4853  0.0743
  298SOL    HW1 1190   1.665   0.919   2.019  1.2769  1.0026  0.4435
  298SOL    HW2 1191   1.669   0.827   2.142 -2.6109  2.5434  1.9142
  298SOL     MW 1192   1.626   0.866   2.078 -0.1630  0.8251  0.3657
  299SOL     OW 1193   0.585   1.128   0.023 -0.2544  0.0714  0.7830
  299SOL    HW1 1194   0.606   1.112  -0.077 -1.1560 -0.2770  1.2455
  299SOL    HW2 1195   0.660   1.176   0.057 -3.4546  1.3964  0.8445
  299SOL     MW 1196   0.598   1.132   0.014 -0.7956  0.2002  0.8521
  300SOL     OW 1197   1.197   1.133   2.480 -0.4533  0.0688  0.8219
  300SOL    HW1 1198   1.130   1.075   2.510  1.0709 -0.3477  0.5315
  300SOL    HW2 1199   1.239   1.167   2.558  0.1163  0.1292  0.4091
  300SOL     MW 1200   1.194   1.130   2.494 -0.1771  0.0218  0.7291
  301SOL     OW 1201   1.435   0.973   0.685 -0.2739  0.4112  0.4779
  301SOL    HW1 1202   1.461   1.000   0.772  0.2860  0.3753  0.1394
  301SOL    HW2 1203   1.377   0.903   0.706  0.5164  0.6746  1.0466
  301SOL     MW 1204   1.431   0.967   0.700 -0.0958  0.4412  0.5083
  302SOL     OW 1205   0.216   1.539   2.040  0.0007 -0.4492  0.2989
  302SOL    HW1 1206   0.231   1.445   2.032 -0.6395 -0.2449 -2.3441
  302SOL    HW2 1207   0.131   1.561   2.077 -0.7641 -1.5384 -0.4861
  302SOL     MW 1208   0.207   1.530   2.044 -0.1847 -0.5659 -0.1534
  303SOL     OW 1209   0.330   1.789   2.683 -0.8452  0.1917 -0.8229
  303SOL    HW1 1210   0.280   1.811   2.601 -1.2988  0.6860 -3.7647
  303SOL    HW2 1211   0.259   1.776   2.741 -0.9202 -0.9666 -1.0780
  303SOL     MW 1212   0.314   1.790   2.680 -0.9150  0.1041 -1.2447
  304SOL     OW 1213   0.489   2.052   2.338 -0.0963 -0.1954  0.0638
  304SOL    HW1 1214   0.551   2.127   2.312 -0.9984 -0.0488  1.3716
  304SOL    HW2 1215   0.529   1.964   2.312  0.6687 -0.5594  0.9107
  304SOL     MW 1216   0.503   2.050   2.331 -0.1144 -0.2241  0.3481
  305SOL     OW 1217   1.102   0.666   0.572 -0.2736  0.3988 -0.0463
  305SOL    HW1 1218   1.016   0.634   0.537 -2.1071 -1.4136  0.3971
  305SOL    HW2 1219   1.155   0.582   0.556 -0.4582 -0.5462 -1.1549
  305SOL     MW 1220   1.098   0.651   0.566 -0.5399  0.0350 -0.1340
  306SOL     OW 1221   1.139   1.553   0.212 -0.2298  0.0400 -0.4124
  306SOL    HW1 1222   1.144   1.468   0.267  0.8879 -1.9809  0.8207
  306SOL    HW2 1223   1.226   1.540   0.173 -1.5183  0.5513 -0.7823
  306SOL     MW 1224   1.151   1.540   0.214 -0.2523 -0.1592 -0.2985
  307SOL     OW 1225   1.331   0.442   1.890 -0.0578 -0.4607  0.0932
  307SOL    HW1 1226   1.274   0.397   1.953 -1.8308 -1.5001  1.1084
  307SOL    HW2 1227   1.385   0.498   1.949  1.1395 -0.6471  0.3593
  307SOL     MW 1228   1.330   0.443   1.906 -0.1338 -0.6224  0.2622
  308SOL     OW 1229   2.229   0.496   2.676 -0.1184 -0.1606  0.0898
  308SOL    HW1 1230   2.323   0.509   2.684 -2.3643  3.1748 -0.8763
  308SOL    HW2 1231   2.192   0.589   2.669 -2.6303 -2.7362 -0.6177
  308SOL     MW 1232   2.236   0.510   2.676 -0.7462 -0.0604 -0.1310
  309SOL     OW 1233   0.471   0.547   0.231  0.2628 -0.3018  0.0295
  309SOL    HW1 1234   0.535   0.584   0.170 -3.2599  0.8896 -1.6697
  309SOL    HW2 1235   0.462   0.456   0.208  1.6063  0.1988 -0.3605
  309SOL     MW 1236   0.479   0.540   0.220 -0.0247 -0.0786 -0.2462
  310SOL     OW 1237   0.487   0.617   1.916  0.3088  0.9682  0.4402
  310SOL    HW1 1238   0.524   0.542   1.878 -1.1562 -1.7764 -1.3303
  310SOL    HW2 1239   0.517   0.700   1.874 -0.3341  0.0258  0.0662
  310SOL     MW 1240   0.496   0.618   1.905  0.0307  0.4817  0.1572
  311SOL     OW 1241   1.934   0.654   1.922  0.3660 -0.0227  0.0149
  311SOL    HW1 1242   1.869   0.665   1.993 -0.1396  2.5606 -3.4364
  311SOL    HW2 1243   2.004   0.595   1.957  2.0088 -1.5647 -2.9375
  311SOL     MW 1244   1.935   0.648   1.936  0.5161  0.1147 -0.8300
  312SOL     OW 1245   1.803   2.462   0.170 -0.1252 -0.3792 -0.2393
  312SOL    HW1 1246   1.811   2.442   0.263 -0.0898 -0.5023  0.7317
  312SOL    HW2 1247   1.716   2.501   0.174  0.7328 -0.0173  0.8203
  312SOL     MW 1248   1.792   2.465   0.183 -0.0073 -0.3477  0.0286
  313SOL     OW 1249   0.116   1.137   3.030  0.6920  0.7275 -0.1979
  313SOL    HW1 1250   0.081   1.178   3.107  4.3043 -1.4059  1.0068
  313SOL    HW2 1251   0.195   1.180   3.011 -2.1454 -0.2799  2.3729
  313SOL     MW 1252   0.122   1.148   3.038  0.7943  0.3131  0.3002
  314SOL     OW 1253   2.174   2.962   3.024 -0.2542  0.4556  0.6181
  314SOL    HW1 1254   2.111   3.010   2.971  2.5992 -3.6225  2.4382
  314SOL    HW2 1255   2.221   3.029   3.068 -2.5565 -0.7927  1.4920
  314SOL     MW 1256   2.172   2.977   3.023 -0.1815 -0.2472  0.9735
  315SOL     OW 1257   1.546   1.826   2.976  0.0223  0.5696 -0.1281
  315SOL    HW1 1258   1.489   1.878   3.040  3.1181 -1.4742 -0.2740
  315SOL    HW2 1259   1.562   1.899   2.911 -1.0985 -0.1032  1.8976
  315SOL     MW 1260   1.540   1.842   2.976  0.2829  0.2112  0.1200
  316SOL     OW 1261   1.244   0.561   2.715  0.1404  0.1147  0.2541
  316SOL    HW1 1262   1.342   0.562   2.725  1.2076  0.4530 -0.7184
  316SOL    HW2 1263   1.204   0.562   2.801 -0.8103  0.0384 -0.8417
  316SOL     MW 1264   1.252   0.561   2.727  0.1558  0.1492 -0.0188
  317SOL     OW 1265   0.698   1.559   2.631  0.2567  0.1441 -0.2415
  317SOL    HW1 1266   0.770   1.500   2.656  1.9987  1.3821  0.4471
  317SOL    HW2 1267   0.700   1.566   2.536  0.9327  1.9732  2.0279
  317SOL     MW 1268   0.708   1.552   2.622  0.5757  0.5488  0.1488
  318SOL     OW 1269   1.356   0.356   2.959  0.1596  0.2900  0.1900
  318SOL    HW1 1270   1.270   0.399   2.950 -3.3530 -0.8429  1.2238
  318SOL    HW2 1271   1.410   0.403   2.896  1.0242 -1.4290  3.3249
  318SOL     MW 1272   1.352   0.368   2.949 -0.1898 -0.0863  0.7400
  319SOL     OW 1273   0.864   0.349   2.931 -0.1073  0.3007  0.4050
  319SOL    HW1 1274   0.811   0.307   2.865 -1.4700  2.4672 -1.1717
  319SOL    HW2 1275   0.793   0.395   2.989 -4.1762  0.0717 -2.5346
  319SOL     MW 1276   0.848   0.349   2.930 -0.8239  0.5563 -0.1909
  320SOL     OW 1277   1.078   1.380   2.001  0.0220  0.3796 -0.1059
  320SOL    HW1 1278   1.132   1.299   2.012  0.2909  0.1036 -0.8141
  320SOL    HW2 1279   1.128   1.458   1.970 -1.8490 -0.7305 -1.6550
  320SOL     MW 1280   1.092   1.380   1.998 -0.1894  0.1967 -0.4037
  321SOL     OW 1281   1.103   0.914   2.984  0.6595 -0.1103  0.2507
  321SOL    HW1 1282   1.024   0.886   2.928  0.7189 -0.8038  1.8911
  321SOL    HW2 1283   1.174   0.846   2.989  2.3106  1.6861  3.0124
  321SOL     MW 1284   1.102   0.902   2.978  0.8852  0.0352  0.8315
  322SOL     OW 1285   1.184   0.835   1.663  0.7298 -0.5586  0.0008
  322SOL    HW1 1286   1.265   0.782   1.683 -1.1988 -2.4933 -4.0569
  322SOL    HW2 1287   1.155   0.883   1.749 -0.5273  0.9112  0.8771
  322SOL     MW 1288   1.191   0.834   1.677  0.3094 -0.6199 -0.4190
  323SOL     OW 1289   1.237   1.619   1.898  0.0546  0.6394 -0.1503
  323SOL    HW1 1290   1.274   1.610   1.809 -0.3212 -0.8569 -0.7791
  323SOL    HW2 1291   1.211   1.710   1.898  0.8492 -1.3047  1.1506
  323SOL     MW 1292   1.239   1.630   1.886  0.1099  0.1854 -0.0616
  324SOL     OW 1293   1.500   1.009   2.413  0.3382 -0.1648 -0.0429
  324SOL    HW1 1294   1.414   1.048   2.431 -2.5571  0.0572 -0.4251
  324SOL    HW2 1295   1.574   1.057   2.448  2.1971 -1.0529  0.7585
  324SOL     MW 1296   1.498   1.020   2.420  0.2015 -0.2527  0.0124
  325SOL     OW 1297   1.100   0.489   2.964  0.1509  0.3157  0.1441
  325SOL    HW1 1298   1.092   0.533   3.051 -0.2565 -0.4024  2.3173
  325SOL    HW2 1299   1.011   0.454   2.952  1.7048  1.4151  1.3009
  325SOL     MW 1300   1.087   0.490   2.974  0.3022  0.3660  0.5835
  326SOL     OW 1301   0.344   1.379   2.282 -0.6240 -0.2256 -0.2669
  326SOL    HW1 1302   0.440   1.342   2.289  3.6136  0.3840 -1.0440
  326SOL    HW2 1303   0.355   1.476   2.277 -0.9277 -2.2446 -2.4371
  326SOL     MW 1304   0.358   1.387   2.283 -0.1049 -0.4116 -0.6557
  327SOL     OW 1305   1.924   0.779   2.458  0.1786  0.3579  0.0506
  327SOL    HW1 1306   1.887   0.758   2.548  1.3813  0.9521  0.6100
  327SOL    HW2 1307   1.930   0.871   2.464  0.7084 -1.9632 -0.3269
  327SOL     MW 1308   1.920   0.788   2.471  0.4072  0.1300  0.0746
  328SOL     OW 1309   0.223   1.266   2.069  0.6394  0.4589 -0.6206
  328SOL    HW1 1310   0.143   1.220   2.098  1.0895 -1.6175  0.5055
  328SOL    HW2 1311   0.276   1.282   2.151  0.3667  1.5131  1.3005
  328SOL     MW 1312   0.219   1.262   2.084  0.6628  0.3240 -0.2185
  329SOL     OW 1313   0.060   0.171   1.358  0.7101 -0.1025  0.0050
  329SOL    HW1 1314   0.043   0.122   1.437  0.0139  0.0779 -2.4729
  329SOL    HW2 1315   0.151   0.190   1.336 -0.3205  2.0381 -2.2232
  329SOL     MW 1316   0.070   0.167   1.365  0.4822  0.2037 -0.6159
  330SOL     OW 1317   0.393   3.076   2.037 -0.1129  0.4064  0.1126
  330SOL    HW1 1318   0.485   3.056   2.040 -1.4463 -1.3784 -0.8554
  330SOL    HW2 1319   0.363   3.044   2.121  2.4971  4.4611 -0.3463
  330SOL     MW 1320   0.401   3.069   2.049  0.0555  0.7059 -0.0757
  331SOL     OW 1321   0.773   1.235   2.446 -0.3023 -0.1584  0.6298
  331SOL    HW1 1322   0.733   1.272   2.367  2.1719  1.0847  0.8479
  331SOL    HW2 1323   0.779   1.300   2.519 -0.2859  1.0860  0.5717
  331SOL     MW 1324   0.768   1.249   2.445  0.0263  0.1698  0.6509
  332SOL     OW 1325   1.339   1.666   2.900 -0.4250  0.0255 -0.2163
  332SOL    HW1 1326   1.344   1.685   2.806  2.4881  0.7013  0.5378
  332SOL    HW2 1327   1.415   1.711   2.938  0.7161  0.4312 -1.4749
  332SOL     MW 1328   1.350   1.675   2.893  0.1099  0.1682 -0.2829
  333SOL     OW 1329   1.728   1.414   2.897 -0.2213 -0.0955  0.0160
  333SOL    HW1 1330   1.829   1.400   2.906  2.4335 -3.3249  0.5570
  333SOL    HW2 1331   1.694   1.375   2.982 -1.7552  0.4113  1.3171
  333SOL     MW 1332   1.737   1.407   2.910 -0.0734 -0.4547  0.2591
  334SOL     OW 1333   1.275   3.051   2.604 -0.2157 -0.4096  0.5112
  334SOL    HW1 1334   1.213   3.022   2.672  1.9702 -0.6254  0.5899
  334SOL    HW2 1335   1.325   3.126   2.653  2.6147  0.5996  1.1287
  334SOL     MW 1336   1.273   3.057   2.619  0.4462 -0.3049  0.6030
  335SOL     OW 1337   1.315   0.732   2.988 -0.4042  0.1797 -0.2215
  335SOL    HW1 1338   1.363   0.722   3.074 -0.5746 -0.2397  4.2235
  335SOL    HW2 1339   1.387   0.769   2.927  0.3694  0.1348 -2.1611
  335SOL     MW 1340   1.331   0.736   2.991 -0.3246  0.1185  0.1091
  336SOL     OW 1341   0.948   1.184   1.786 -0.0130  0.6080 -0.4534
  336SOL    HW1 1342   0.952   1.259   1.848 -1.4088 -3.0602 -1.2652
  336SOL    HW2 1343   0.948   1.107   1.843 -1.2136 -0.0960 -1.4676
  336SOL     MW 1344   0.948   1.184   1.802 -0.3555  0.0312 -0.6944
  337SOL     OW 1345   0.594   1.843   2.770  0.0129  0.2991  0.3441
  337SOL    HW1 1346   0.541   1.809   2.696  0.5852  2.0122  1.3510
  337SOL    HW2 1347   0.681   1.797   2.769 -2.1974 -0.8325  0.3734
  337SOL     MW 1348   0.598   1.833   2.760 -0.2032  0.3758  0.4808
  338SOL     OW 1349   1.083   0.734   2.566 -1.0786  0.1054  0.0324
  338SOL    HW1 1350   1.029   0.651   2.550  1.1714  0.5849 -2.3176
  338SOL    HW2 1351   1.160   0.708   2.607 -2.9995  1.5438 -1.4316
  338SOL     MW 1352   1.086   0.719   2.569 -1.0352  0.3584 -0.4708
  339SOL     OW 1353   1.481   1.089   1.865 -0.5875  0.8780  0.2568
  339SOL    HW1 1354   1.426   1.071   1.788  0.9306 -0.3979 -1.3532
  339SOL    HW2 1355   1.422   1.092   1.940 -0.4027 -0.9001  0.7498
  339SOL     MW 1356   1.466   1.087   1.865 -0.3628  0.4750  0.1095
  340SOL     OW 1357   1.371   1.493   0.030 -0.4255 -0.2139  0.4541
  340SOL    HW1 1358   1.371   1.523  -0.062 -0.9413 -1.6419 -0.3952
  340SOL    HW2 1359   1.451   1.450   0.043  0.3563  4.6502 -1.7619
  340SOL     MW 1360   1.382   1.491   0.020 -0.3904  0.2395  0.0496
  341SOL     OW 1361   0.047   1.353   2.746 -0.6439  0.3191  0.2968
  341SOL    HW1 1362   0.134   1.323   2.768 -0.4106 -1.2668 -2.0561
  341SOL    HW2 1363   0.032   1.331   2.658 -3.1868  1.6405  1.5916
  341SOL     MW 1364   0.057   1.346   2.737 -0.9486  0.2842  0.1572
  342SOL     OW 1365   1.375   0.353   0.122  0.0053 -0.4613 -0.8693
  342SOL    HW1 1366   1.446   0.402   0.173  3.4949  0.1652 -0.0928
  342SOL    HW2 1367   1.392   0.379   0.033  1.1416 -0.8245 -1.2199
  342SOL     MW 1368   1.386   0.363   0.117  0.6157 -0.4266 -0.8131
  343SOL     OW 1369   0.305   0.300   2.221  0.0123 -0.1643 -0.2236
  343SOL    HW1 1370   0.372   0.235   2.223 -1.9155  1.4416  2.2618
  343SOL    HW2 1371   0.222   0.257   2.190  0.3282 -1.2662 -1.5984
  343SOL     MW 1372   0.303   0.286   2.217 -0.2004 -0.0978 -0.0771
  344SOL     OW 1373   1.692   2.042   0.183  0.8860 -0.6196 -0.2135
  344SOL    HW1 1374   1.726   2.094   0.109  0.8672  1.0514  0.7086
  344SOL    HW2 1375   1.589   2.045   0.181 -0.6898  1.8363 -0.4843
  344SOL     MW 1376   1.683   2.049   0.173  0.6756 -0.0751 -0.1275
  345SOL     OW 1377   0.682   1.569   2.371 -0.2278 -0.0286  0.2389
  345SOL    HW1 1378   0.598   1.611   2.332 -2.3363  2.5049  2.4283
  345SOL    HW2 1379   0.738   1.543   2.297 -0.8865  2.8017  0.2641
  345SOL     MW 1380   0.679   1.571   2.356 -0.5929  0.6791  0.5311
  346SOL     OW 1381   1.726   1.127   0.006 -0.1344 -0.1200 -0.7447
  346SOL    HW1 1382   1.822   1.119   0.001 -2.4300  0.4911 -0.5484
  346SOL    HW2 1383   1.689   1.058   0.069  1.5957 -0.3602  1.6708
  346SOL     MW 1384   1.734   1.117   0.014 -0.2090 -0.0711 -0.4001
  347SOL     OW 1385   1.146   0.747   2.277 -0.1664  0.2760 -0.4719
  347SOL    HW1 1386   1.220   0.688   2.290  0.6774 -1.1078  1.8329
  347SOL    HW2 1387   1.127   0.772   2.363 -0.7136  1.6252  0.9753
  347SOL     MW 1388   1.154   0.743   2.290 -0.1273  0.2714  0.0232
  348SOL     OW 1389   1.342   2.550   1.914  0.4756 -0.0536  0.0838
  348SOL    HW1 1390   1.339   2.481   1.981  1.4522 -2.1265  0.9099
  348SOL    HW2 1391   1.361   2.634   1.963 -0.7291 -1.2837  2.1236
  348SOL     MW 1392   1.344   2.552   1.929  0.4455 -0.4894  0.4619
  349SOL     OW 1393   1.400   0.145   2.726  0.1975  0.1853  0.7312
  349SOL    HW1 1394   1.358   0.211   2.785 -0.4289 -0.4124 -0.3535
  349SOL    HW2 1395   1.465   0.101   2.786  0.4081  0.6243 -0.3335
  349SOL     MW 1396   1.403   0.148   2.742  0.1426  0.1644  0.4476
  350SOL     OW 1397   1.809   0.660   2.679  0.4807 -0.1812  0.0810
  350SOL    HW1 1398   1.765   0.599   2.607  0.1639  1.0671  0.5572
  350SOL    HW2 1399   1.892   0.621   2.697 -2.3834 -0.5949  2.3255
  350SOL     MW 1400   1.814   0.647   2.672  0.0610 -0.0711  0.4400
  351SOL     OW 1401   0.076   1.198   1.641 -0.0211 -0.0848  0.0513
  351SOL    HW1 1402  -0.003   1.193   1.695 -0.6341 -1.6987  1.1378
  351SOL    HW2 1403   0.144   1.258   1.686 -0.2371 -0.8360 -0.8622
  351SOL     MW 1404   0.074   1.205   1.654 -0.1305 -0.3968  0.0741
  352SOL     OW 1405   0.842   1.738   2.798  0.1633  0.6772  0.2107
  352SOL    HW1 1406   0.827   1.691   2.887 -1.1664  0.3521 -1.9551
  352SOL    HW2 1407   0.813   1.671   2.733 -0.4878  1.2567 -2.8040
  352SOL     MW 1408   0.836   1.723   2.801 -0.0980  0.7108 -0.4728
  353SOL     OW 1409   0.035   2.545   2.763  0.0359  0.2603 -0.6013
  353SOL    HW1 1410   0.119   2.530   2.715 -0.9716 -0.9351  0.4227
  353SOL    HW2 1411   0.023   2.640   2.767  0.7538  0.8808  1.2467
  353SOL     MW 1412   0.045   2.556   2.758 -0.0023  0.1845 -0.2224
  354SOL     OW 1413   0.309   2.450   0.820 -0.0627  0.3111  0.6748
  354SOL    HW1 1414   0.330   2.426   0.909 -2.1632  0.4934 -2.0693
  354SOL    HW2 1415   0.241   2.389   0.802  1.8216 -1.2646  0.1397
  354SOL     MW 1416   0.303   2.439   0.830 -0.0912  0.1273  0.2422
  355SOL     OW 1417   3.084   2.236   0.348 -0.0357 -0.2926 -0.8475
  355SOL    HW1 1418   2.986   2.212   0.334 -0.8012  0.2697 -0.1981
  355SOL    HW2 1419   3.092   2.296   0.426 -0.6628 -0.4545  1.4765
  355SOL     MW 1420   3.072   2.241   0.356 -0.2194 -0.2397 -0.4552
  356SOL     OW 1421   0.816   2.752   0.931 -0.3881  0.5929 -0.1598
  356SOL    HW1 1422   0.855   2.818   0.873 -0.2443  0.7305 -2.2932
  356SOL    HW2 1423   0.718   2.764   0.935 -0.5019 -0.3258  2.0110
  356SOL     MW 1424   0.808   2.762   0.924 -0.3841  0.4898 -0.1549
  357SOL     OW 1425   1.789   2.826   0.465 -0.0579 -0.3854  0.7959
  357SOL    HW1 1426   1.749   2.780   0.539 -2.2813 -0.4259  1.0492
  357SOL    HW2 1427   1.864   2.783   0.428  0.3649 -0.8725 -0.2967
  357SOL     MW 1428   1.794   2.815   0.470 -0.2955 -0.4550  0.6852
  358SOL     OW 1429   0.476   0.153   1.010 -0.5839  0.1957  0.2391
  358SOL    HW1 1430   0.573   0.141   0.989  1.3574 -2.2447  0.1026
  358SOL    HW2 1431   0.424   0.173   0.930 -0.9535  1.4341  0.5789
  358SOL     MW 1432   0.482   0.154   0.997 -0.3765  0.0371  0.2659
  359SOL     OW 1433   0.801   2.903   1.876 -0.4523  0.4790  0.0294
  359SOL    HW1 1434   0.802   2.814   1.913 -0.4964 -1.3283 -1.4315
  359SOL    HW2 1435   0.853   2.887   1.799 -0.7243 -1.4442 -0.0618
  359SOL     MW 1436   0.808   2.889   1.870 -0.4940 -0.0132 -0.1754
  360SOL     OW 1437   0.550   2.788   0.874 -0.2892 -0.3186  0.0021
  360SOL    HW1 1438   0.579   2.773   0.783 -0.6014 -1.5479  0.9917
  360SOL    HW2 1439   0.568   2.705   0.927 -1.3912 -1.0982  0.7702
  360SOL     MW 1440   0.556   2.775   0.869 -0.4758 -0.5837  0.2340
  361SOL     OW 1441   0.222   2.614   1.374 -0.3211 -0.3704  0.8128
  361SOL    HW1 1442   0.203   2.685   1.435  0.2118  1.9679 -0.8100
  361SOL    HW2 1443   0.318   2.614   1.359 -3.1655 -0.9779  0.6931
  361SOL     MW 1444   0.232   2.623   1.380 -0.6261 -0.1421  0.5829
  362SOL     OW 1445   1.437   2.368   0.617 -0.0473  0.0796 -0.2195
  362SOL    HW1 1446   1.449   2.292   0.676 -1.6587  2.6635 -0.2793
  362SOL    HW2 1447   1.492   2.447   0.645 -1.2859  0.3316 -2.0959
  362SOL     MW 1448   1.446   2.369   0.628 -0.4233  0.4538 -0.4750
  363SOL     OW 1449   0.308   3.071   0.671 -0.1020  0.8258 -0.1154
  363SOL    HW1 1450   0.311   3.021   0.752  0.0291  0.3607  0.0887
  363SOL    HW2 1451   0.217   3.075   0.637  0.9121 -1.3104 -2.2394
  363SOL     MW 1452   0.296   3.065   0.677  0.0491  0.4826 -0.3687
  364SOL     OW 1453   0.746   0.244   0.183  0.9819  0.1427 -0.3923
  364SOL    HW1 1454   0.672   0.181   0.196 -0.5004 -1.4882 -1.1665
  364SOL    HW2 1455   0.702   0.312   0.127 -0.5266  0.2696  0.6467
  364SOL     MW 1456   0.730   0.245   0.177  0.5873 -0.0557 -0.3573
  365SOL     OW 1457   0.963   2.028   1.127 -0.1243  0.2388 -0.8118
  365SOL    HW1 1458   0.916   2.110   1.119  2.7251 -1.3385  0.2054
  365SOL    HW2 1459   0.909   1.980   1.066  1.5711  2.1936  0.6523
  365SOL     MW 1460   0.950   2.032   1.118  0.4754  0.2886 -0.4844
  366SOL     OW 1461   2.931   2.640   0.935  0.4700  0.3780  0.2009
  366SOL    HW1 1462   3.013   2.608   0.977 -0.3642 -0.5314  0.0769
  366SOL    HW2 1463   2.962   2.676   0.847 -0.4904 -0.0177 -0.1794
  366SOL     MW 1464   2.946   2.640   0.929  0.2332  0.2058  0.1343
  367SOL     OW 1465   1.234   2.944   0.880 -0.1790  0.9620  0.4445
  367SOL    HW1 1466   1.255   3.018   0.825  0.0894 -3.1515 -1.2923
  367SOL    HW2 1467   1.229   2.873   0.818  0.8490 -1.5738  2.0940
  367SOL     MW 1468   1.236   2.944   0.865 -0.0080  0.0847  0.4330
  368SOL     OW 1469   1.700   0.365   0.733  0.6928  0.5401 -0.3421
  368SOL    HW1 1470   1.749   0.320   0.668  3.0025  2.6516  3.0171
  368SOL    HW2 1471   1.718   0.455   0.706 -1.0651  1.0897  2.5000
  368SOL     MW 1472   1.709   0.371   0.721  0.7656  0.8912  0.4761
  369SOL     OW 1473   0.115   2.422   1.765  0.0240 -0.4161  0.3786
  369SOL    HW1 1474   0.209   2.411   1.777 -1.2017  0.4675 -1.7852
  369SOL    HW2 1475   0.091   2.511   1.738  0.5092 -0.9951  0.7890
  369SOL     MW 1476   0.124   2.432   1.763 -0.0737 -0.3759  0.1472
  370SOL     OW 1477   0.739   0.147   0.948  0.0298 -0.1411  0.3108
  370SOL    HW1 1478   0.782   0.233   0.945  0.2758  1.2218  1.6901
  370SOL    HW2 1479   0.803   0.090   0.999  0.1919  2.1007 -1.3763
  370SOL     MW 1480   0.753   0.151   0.954  0.0837  0.3345  0.2702
  371SOL     OW 1481   1.296   2.852   1.506 -0.7598 -0.6995  0.5211
  371SOL    HW1 1482   1.241   2.782   1.469  0.3357 -1.9494 -1.6150
  371SOL    HW2 1483   1.315   2.909   1.426  2.1900  1.3451  1.0330
  371SOL     MW 1484   1.291   2.850   1.491 -0.2261 -0.5947  0.3068
  372SOL     OW 1485   0.809   2.296   0.488 -0.0632 -0.0557 -0.1582
  372SOL    HW1 1486   0.772   2.213   0.520  0.6991  1.2696  0.2756
  372SOL    HW2 1487   0.841   2.294   0.390  0.3786  0.4943  1.2108
  372SOL     MW 1488   0.808   2.285   0.480  0.0957  0.1917  0.0796
  373SOL     OW 1489   2.854   3.038   1.414  0.6295 -0.2201 -0.4890
  373SOL    HW1 1490   2.935   3.017   1.365  2.7597 -1.9594 -2.1057
  373SOL    HW2 1491   2.821   3.126   1.380 -2.5106  0.0989 -1.8987
  373SOL     MW 1492   2.861   3.047   1.403  0.4963 -0.4075 -0.8883
  374SOL     OW 1493   1.528   0.505   0.297  0.3103 -0.4830 -0.0816
  374SOL    HW1 1494   1.624   0.482   0.290  0.3990 -1.6896 -1.7532
  374SOL    HW2 1495   1.507   0.451   0.376  1.5266 -1.7499  2.2133
  374SOL     MW 1496   1.538   0.495   0.306  0.4825 -0.8093  0.0006
  375SOL     OW 1497   0.970   2.105   2.313 -0.5992  0.5440  0.4022
  375SOL    HW1 1498   1.032   2.079   2.373 -1.2747 -0.2755 -3.1444
  375SOL    HW2 1499   0.938   2.020   2.277  0.9171 -3.0507  2.4357
  375SOL     MW 1500   0.974   2.091   2.316 -0.4883 -0.0384  0.2026
  376SOL     OW 1501   0.698   2.489   0.074 -0.5016 -0.0504  0.1742
  376SOL    HW1 1502   0.618   2.444   0.112  1.4888  0.4621  0.8843
  376SOL    HW2 1503   0.734   2.435  -0.004  1.7010 -3.4137 -0.6898
  376SOL     MW 1504   0.692   2.476   0.069  0.0516 -0.4265  0.1539
  377SOL     OW 1505   1.263   2.086   0.882 -0.1569  0.5502  0.7821
  377SOL    HW1 1506   1.172   2.085   0.854  0.5942 -0.7450  1.4364
  377SOL    HW2 1507   1.261   2.028   0.964  0.6077 -1.5838  2.0165
  377SOL     MW 1508   1.251   2.078   0.889  0.0431  0.0978  1.0313
  378SOL     OW 1509   0.915   2.861   1.615  0.2051  0.4470 -0.1675
  378SOL    HW1 1510   0.929   2.764   1.599 -2.1701 -1.1643 -3.0226
  378SOL    HW2 1511   0.975   2.910   1.563  2.2150  0.2006 -2.4109
  378SOL     MW 1512   0.925   2.854   1.606  0.1569  0.2019 -0.8402
  379SOL     OW 1513   1.139   1.666   2.162 -0.3403 -0.1588  0.2614
  379SOL    HW1 1514   1.065   1.621   2.124  0.6690 -1.1511 -1.0582
  379SOL    HW2 1515   1.221   1.618   2.132  0.5670  1.2257 -0.8367
  379SOL     MW 1516   1.140   1.654   2.153 -0.0874 -0.1071 -0.0576
  380SOL     OW 1517   0.893   0.109   1.469  0.1230 -0.8546 -0.3380
  380SOL    HW1 1518   0.911   0.018   1.441  2.6601  1.3698  3.5510
  380SOL    HW2 1519   0.933   0.121   1.558 -0.6563 -0.1058 -3.2462
  380SOL     MW 1520   0.901   0.098   1.477  0.3549 -0.4623 -0.2086
  381SOL     OW 1521   0.720   2.083   0.837  0.0884  0.0894  0.3529
  381SOL    HW1 1522   0.812   2.065   0.816 -0.2055 -1.1128  1.3794
  381SOL    HW2 1523   0.728   2.130   0.920  1.6110  1.2579  2.8117
  381SOL     MW 1524   0.733   2.087   0.845  0.2505  0.0850  0.8128
  382SOL     OW 1525   0.715   0.142   0.618  0.5151  0.0391 -0.0177
  382SOL    HW1 1526   0.699   0.170   0.708  0.8389 -0.2034 -1.5804
  382SOL    HW2 1527   0.706   0.047   0.623  2.0181  0.0391 -1.1656
  382SOL     MW 1528   0.712   0.133   0.631  0.7561  0.0071 -0.3753
  383SOL     OW 1529   0.560   0.045   0.272  0.0794  0.2443  0.3188
  383SOL    HW1 1530   0.629  -0.015   0.242 -1.8407 -1.2921  0.9572
  383SOL    HW2 1531   0.503  -0.001   0.331 -1.8527 -1.5631 -2.4607
  383SOL     MW 1532   0.561   0.031   0.276 -0.4288 -0.1969  0.0363
  384SOL     OW 1533   0.749   2.979   0.593  0.0621  0.2493  0.4238
  384SOL    HW1 1534   0.817   2.945   0.655  1.1433 -1.1116  3.6593
  384SOL    HW2 1535   0.695   2.898   0.579  1.8729  2.6169  1.2958
  384SOL     MW 1536   0.751   2.964   0.599  0.4437  0.3821  0.9658
  385SOL     OW 1537   1.442   2.037   1.543  0.0971 -0.2928  0.4775
  385SOL    HW1 1538   1.510   2.083   1.593 -2.1149 -0.4361 -1.5026
  385SOL    HW2 1539   1.388   1.973   1.599  2.4327 -0.4887  0.9645
  385SOL     MW 1540   1.444   2.035   1.557  0.1134 -0.3376  0.2805
  386SOL     OW 1541   1.307   0.351   0.842  0.3357  0.0715 -0.3719
  386SOL    HW1 1542   1.270   0.397   0.920  0.2793 -1.0271 -0.5719
  386SOL    HW2 1543   1.338   0.266   0.880 -3.6357 -1.5042  1.3245
  386SOL     MW 1544   1.306   0.346   0.857 -0.1958 -0.2813 -0.1745
  387SOL     OW 1545   0.823   2.173   1.500 -0.3183 -0.4368 -0.3551
  387SOL    HW1 1546   0.904   2.218   1.475  1.7916  0.4554 -1.4117
  387SOL    HW2 1547   0.849   2.089   1.459  0.2668 -0.6478 -0.2978
  387SOL     MW 1548   0.837   2.168   1.491  0.0373 -0.3470 -0.4870
  388SOL     OW 1549   1.518   2.748   1.253  0.6738 -0.1887  0.2424
  388SOL    HW1 1550   1.448   2.818   1.264 -0.2598 -0.9330 -3.0867
  388SOL    HW2 1551   1.484   2.682   1.187 -0.9401 -4.1002  0.4660
  388SOL     MW 1552   1.504   2.749   1.246  0.3377 -0.8030 -0.1674
  389SOL     OW 1553   0.548   0.164   3.045  0.5383 -0.3462 -0.1527
  389SOL    HW1 1554   0.598   0.087   3.019  1.4260 -0.8849  3.4658
  389SOL    HW2 1555   0.519   0.211   2.959  3.1531  0.3621 -0.4243
  389SOL     MW 1556   0.551   0.160   3.030  1.0004 -0.3239  0.2889
  390SOL     OW 1557   1.316   0.029   0.714  0.0993  0.0217 -0.3505
  390SOL    HW1 1558   1.345   0.040   0.621 -0.0465  0.9471  0.4273
  390SOL    HW2 1559   1.391   0.044   0.773  1.8909  1.6375 -0.0067
  390SOL     MW 1560   1.330   0.033   0.709  0.3164  0.3570 -0.2025
  391SOL     OW 1561   0.395   2.179   1.507  0.2392 -0.1426  0.1541
  391SOL    HW1 1562   0.333   2.105   1.515  0.8368 -1.1501  0.3866
  391SOL    HW2 1563   0.351   2.260   1.527 -1.6121  0.4430  0.4062
  391SOL     MW 1564   0.381   2.180   1.510  0.0738 -0.1983  0.2181
  392SOL     OW 1565   2.086   2.230   0.315  0.2691 -0.2078 -0.3806
  392SOL    HW1 1566   2.175   2.203   0.336 -2.1010  2.3417  1.4141
  392SOL    HW2 1567   2.036   2.223   0.398 -0.5357 -0.7589  1.0879
  392SOL     MW 1568   2.091   2.225   0.328 -0.1498  0.0558  0.0500
  393SOL     OW 1569   0.299   2.911   2.810  0.4069  0.2011  0.1021
  393SOL    HW1 1570   0.374   2.902   2.749  0.3521  1.9336  0.7959
  393SOL    HW2 1571   0.291   3.003   2.822  1.4544  0.6222  2.4225
  393SOL     MW 1572   0.308   2.922   2.803  0.5379  0.4852  0.4998
  394SOL     OW 1573   0.949   1.698   1.524  0.5497 -0.5789 -0.2456
  394SOL    HW1 1574   0.928   1.735   1.607  4.0975 -2.1240 -0.4717
  394SOL    HW2 1575   0.967   1.774   1.470 -2.3912 -0.2458  3.3957
  394SOL     MW 1576   0.948   1.713   1.528  0.6298 -0.7388  0.2050
  395SOL     OW 1577   0.967   2.974   2.541  0.2537  0.1526 -0.0151
  395SOL    HW1 1578   0.978   3.006   2.632  0.8168  0.4146  0.1368
  395SOL    HW2 1579   1.034   2.905   2.547 -2.2296 -0.0847 -1.5098
  395SOL     MW 1580   0.978   2.969   2.554  0.0004  0.1558 -0.1922
  396SOL     OW 1581   0.701   1.827   2.425 -0.3545  0.3325  0.3293
  396SOL    HW1 1582   0.761   1.867   2.487  2.4745  1.4970 -0.5724
  396SOL    HW2 1583   0.726   1.734   2.438  1.6361 -0.4545  0.6709
  396SOL     MW 1584   0.713   1.820   2.435  0.2814  0.3823  0.2554
  397SOL     OW 1585   1.030   2.323   1.438 -0.3924 -0.2485 -0.0279
  397SOL    HW1 1586   1.051   2.340   1.343 -0.5331 -1.6697 -3.1040
  397SOL    HW2 1587   1.104   2.268   1.476 -1.1003 -0.0007  2.9284
  397SOL     MW 1588   1.042   2.318   1.431 -0.5044 -0.4033 -0.0437
  398SOL     OW 1589   0.631   2.739   0.612  0.0861  0.2860 -0.2798
  398SOL    HW1 1590   0.547   2.699   0.591 -0.9055 -2.0505  1.4007
  398SOL    HW2 1591   0.686   2.661   0.636 -0.7128 -1.2778  0.8112
  398SOL     MW 1592   0.627   2.723   0.612 -0.1502 -0.2286  0.0859
  399SOL     OW 1593   0.205   2.081   0.337  0.0436  0.0641  0.3292
  399SOL    HW1 1594   0.118   2.125   0.331  2.5753 -1.7847  1.6622
  399SOL    HW2 1595   0.257   2.097   0.256  1.7915 -0.1185 -0.4505
  399SOL     MW 1596   0.200   2.089   0.325  0.6082 -0.2039  0.4022
  400SOL     OW 1597   0.562   1.978   0.070  0.1570  0.3750  0.8091
  400SOL    HW1 1598   0.490   2.035   0.054 -3.5353 -0.9896  1.7845
  400SOL    HW2 1599   0.536   1.928   0.146  1.5343 -0.5617 -0.1245
  400SOL     MW 1600   0.549   1.979   0.078 -0.1484  0.0714  0.8146
  401SOL     OW 1601   0.812   2.095   0.079 -0.4059 -0.1107 -0.1250
  401SOL    HW1 1602   0.878   2.027   0.063  2.4386  1.7033  1.4269
  401SOL    HW2 1603   0.728   2.046   0.088  0.2438  0.1130  3.1385
  401SOL     MW 1604   0.810   2.080   0.078  0.0551  0.1581  0.5103
  402SOL     OW 1605   0.562   2.967   1.723 -0.1480  0.0313 -0.1193
  402SOL    HW1 1606   0.644   2.931   1.764 -1.8577 -0.0069 -0.8980
  402SOL    HW2 1607   0.592   3.053   1.695 -0.5208 -1.8339 -2.2426
  402SOL     MW 1608   0.577   2.974   1.725 -0.4228 -0.2199 -0.5022
  403SOL     OW 1609   0.103   0.444   0.384 -0.6569  0.6160 -0.8655
  403SOL    HW1 1610   0.183   0.472   0.426  2.2481 -0.4359 -1.0367
  403SOL    HW2 1611   0.121   0.446   0.290 -1.1572  2.3477  0.9824
  403SOL     MW 1612   0.116   0.448   0.377 -0.3397  0.7057 -0.6443
  404SOL     OW 1613   0.959   2.907   0.754  0.0992 -0.2916 -0.1362
  404SOL    HW1 1614   1.033   2.855   0.725  1.7994 -0.9905 -2.1474
  404SOL    HW2 1615   1.000   2.994   0.751  0.6831 -0.0696 -0.4953
  404SOL     MW 1616   0.974   2.912   0.750  0.4006 -0.3545 -0.4489
  405SOL     OW 1617   0.511   2.449   1.528  0.0635  0.1583  0.1983
  405SOL    HW1 1618   0.517   2.529   1.473 -0.9699 -0.8486 -1.5087
  405SOL    HW2 1619   0.562   2.392   1.474 -0.6109  1.9887  3.6106
  405SOL     MW 1620   0.518   2.452   1.514 -0.1618  0.2670  0.4233
  406SOL     OW 1621   0.327   2.409   1.097  0.1377  0.0397 -0.0521
  406SOL    HW1 1622   0.231   2.400   1.085 -1.3682 -0.2937 -1.0584
  406SOL    HW2 1623   0.364   2.327   1.136  0.8903 -0.0885  1.0647
  406SOL     MW 1624   0.319   2.397   1.100  0.0383 -0.0212 -0.0375
  407SOL     OW 1625   0.080   2.688   1.152 -0.0729 -0.2880 -0.1593
  407SOL    HW1 1626   0.137   2.667   1.230  1.7733  1.1991  3.0078
  407SOL    HW2 1627   0.125   2.672   1.068  1.1538  0.9766  2.3538
  407SOL     MW 1628   0.093   2.683   1.151  0.3326  0.0751  0.5902
  408SOL     OW 1629   2.133   2.092   0.666  0.3757  0.0420  0.0026
  408SOL    HW1 1630   2.076   2.125   0.742  4.6101  0.4659  2.3310
  408SOL    HW2 1631   2.069   2.028   0.628 -1.6509  4.1846  1.2778
  408SOL     MW 1632   2.117   2.088   0.671  0.6670  0.6445  0.4780
  409SOL     OW 1633   1.456   0.147   0.946  0.6788 -0.2866 -0.2516
  409SOL    HW1 1634   1.533   0.199   0.946  1.7081  0.2377 -2.3586
  409SOL    HW2 1635   1.478   0.074   1.004 -0.7110 -0.5804 -1.5687
  409SOL     MW 1636   1.469   0.145   0.953  0.6313 -0.2562 -0.7034
  410SOL     OW 1637   1.060   2.407   1.185 -0.4136  0.2916 -0.0097
  410SOL    HW1 1638   1.027   2.456   1.115  0.2275 -0.2888  0.8606
  410SOL    HW2 1639   1.130   2.357   1.134 -0.3182 -0.4862 -3.5705
  410SOL     MW 1640   1.065   2.406   1.169 -0.3164  0.1124 -0.3647
  411SOL     OW 1641   1.944   3.089   2.912  0.6587 -0.5882  0.2342
  411SOL    HW1 1642   1.890   3.066   2.837  2.6409 -1.6472 -0.6397
  411SOL    HW2 1643   1.895   3.156   2.958  1.6132 -0.4245 -1.0310
  411SOL     MW 1644   1.930   3.095   2.908  1.0462 -0.7063 -0.0480
  412SOL     OW 1645   1.034   2.224   0.622  0.6326  0.3071 -0.0082
  412SOL    HW1 1646   1.087   2.287   0.662 -0.3417 -1.3395  1.0418
  412SOL    HW2 1647   0.959   2.266   0.585  0.1853 -0.1089  1.0927
  412SOL     MW 1648   1.031   2.238   0.623  0.4450  0.0350  0.2756
  413SOL     OW 1649   0.572   2.715   0.039  0.0002 -0.0355  0.0125
  413SOL    HW1 1650   0.656   2.660   0.052  4.9047  0.2887  2.1577
  413SOL    HW2 1651   0.587   2.751  -0.045  0.5968 -2.3992  1.5539
  413SOL     MW 1652   0.585   2.713   0.030  0.7260 -0.3046  0.4989
  414SOL     OW 1653   2.038   2.995   1.184 -0.2509  0.4233  0.6332
  414SOL    HW1 1654   2.050   3.096   1.192  0.9267 -0.0415 -0.9398
  414SOL    HW2 1655   1.978   2.996   1.109 -0.5503 -3.7720  0.1562
  414SOL     MW 1656   2.032   3.009   1.175 -0.1350 -0.1916  0.3627
  415SOL     OW 1657   1.744   2.797   1.079 -0.6521 -0.0394  0.1115
  415SOL    HW1 1658   1.685   2.768   1.147  1.5236 -0.6541  1.6072
  415SOL    HW2 1659   1.825   2.792   1.127 -1.9126  2.5985 -1.1696
  415SOL     MW 1660   1.747   2.792   1.094 -0.5313  0.2276  0.1398
  416SOL     OW 1661   0.559   1.896   1.397 -0.3438 -1.1433  0.6556
  416SOL    HW1 1662   0.460   1.901   1.391 -0.5411 -1.1887  1.2610
  416SOL    HW2 1663   0.583   1.810   1.429  2.2975  3.1384 -1.0694
  416SOL     MW 1664   0.549   1.885   1.400 -0.0214 -0.5844  0.5079
  417SOL     OW 1665   0.982   3.004   2.039 -0.0670  0.5460 -0.1095
  417SOL    HW1 1666   0.940   3.008   2.120  0.4259  1.8077  0.5400
  417SOL    HW2 1667   0.917   2.966   1.974  2.1081  2.4576  0.6283
  417SOL     MW 1668   0.968   2.999   2.041  0.2850  0.9647  0.0735
  418SOL     OW 1669   0.704   2.930   0.154  0.5271  0.5297 -0.4063
  418SOL    HW1 1670   0.789   2.929   0.105  1.7000  1.0960  0.3566
  418SOL    HW2 1671   0.659   2.846   0.129  0.8385 -0.6079  1.9634
  418SOL     MW 1672   0.709   2.919   0.144  0.7229  0.4543  0.0070
  419SOL     OW 1673   0.508   2.652   1.353  0.2314  0.9568  0.6978
  419SOL    HW1 1674   0.545   2.736   1.381 -1.8022  1.6042  1.0908
  419SOL    HW2 1675   0.595   2.624   1.331 -0.3867  0.2982 -1.3877
  419SOL     MW 1676   0.524   2.660   1.354 -0.1185  0.9553  0.4745
  420SOL     OW 1677   0.797   2.222   1.067  0.0020  0.9198 -0.3418
  420SOL    HW1 1678   0.739   2.241   1.142 -1.6783 -0.0833 -1.3236
  420SOL    HW2 1679   0.803   2.312   1.028 -2.4621 -1.7190  0.1756
  420SOL     MW 1680   0.790   2.237   1.072 -0.5448  0.4393 -0.4031
  421SOL     OW 1681   2.971   0.176   3.075 -0.2969 -0.1873  0.1476
  421SOL    HW1 1682   2.913   0.146   3.007  1.0525 -0.2320  2.2595
  421SOL    HW2 1683   3.016   0.094   3.092 -0.3222 -1.2720 -0.8144
  421SOL     MW 1684   2.970   0.161   3.068 -0.1222 -0.3363  0.2993
  422SOL     OW 1685   0.808   2.468   0.947 -0.3634 -0.7949  0.7050
  422SOL    HW1 1686   0.819   2.560   0.945 -0.3415 -0.4602 -0.0401
  422SOL    HW2 1687   0.806   2.452   0.851  0.9656 -2.0940  0.3815
  422SOL     MW 1688   0.809   2.478   0.934 -0.1852 -0.9221  0.5640
  423SOL     OW 1689   1.503   0.056   0.471  0.3529  0.5615 -0.1573
  423SOL    HW1 1690   1.518   0.062   0.372 -3.0760 -1.7791 -2.2432
  423SOL    HW2 1691   1.500   0.150   0.505  1.7394 -1.2572  2.0463
  423SOL     MW 1692   1.505   0.069   0.462  0.0835  0.0128 -0.1418
  424SOL     OW 1693   0.661   2.293   1.301 -0.3073  0.1202  0.0159
  424SOL    HW1 1694   0.580   2.242   1.272 -1.2614 -0.9202  0.3462
  424SOL    HW2 1695   0.713   2.243   1.364 -1.0347  0.4070  0.0096
  424SOL     MW 1696   0.657   2.280   1.305 -0.5291  0.0208  0.0586
  425SOL     OW 1697   1.726   2.748   2.068 -0.1576  0.3375  0.1471
  425SOL    HW1 1698   1.734   2.743   1.973  0.8339  0.4111  0.8766
  425SOL    HW2 1699   1.758   2.656   2.096 -0.9022 -3.7878  1.3445
  425SOL     MW 1700   1.731   2.735   2.059 -0.1251 -0.1971  0.4013
  426SOL     OW 1701   0.838   1.723   1.981  0.0245  0.5956 -0.3282
  426SOL    HW1 1702   0.777   1.760   1.917  0.2186 -1.1452  1.3994
  426SOL    HW2 1703   0.841   1.783   2.065  0.8270  0.1753  4.5023
  426SOL     MW 1704   0.831   1.736   1.984  0.1560  0.3104  0.5370
  427SOL     OW 1705   0.349   1.684   1.852 -0.4246  0.2519  0.0814
  427SOL    HW1 1706   0.405   1.627   1.808  0.8153  1.9521 -1.3033
  427SOL    HW2 1707   0.306   1.640   1.927 -0.3321  0.2453 -1.4031
  427SOL     MW 1708   0.351   1.671   1.856 -0.2488  0.4753 -0.2972
  428SOL     OW 1709   0.580   2.584   1.065 -0.0927 -0.0994 -0.0259
  428SOL    HW1 1710   0.621   2.501   1.062 -2.2323 -1.8083  3.7453
  428SOL    HW2 1711   0.513   2.581   1.131  2.3310  3.7186 -2.6797
  428SOL     MW 1712   0.576   2.573   1.073 -0.0552  0.1789  0.1215
  429SOL     OW 1713   1.219   2.813   1.139 -0.4341 -0.5331  0.4993
  429SOL    HW1 1714   1.127   2.800   1.160 -0.4821  1.8252  0.0841
  429SOL    HW2 1715   1.233   2.881   1.076  0.5203 -1.8234 -0.8327
  429SOL     MW 1716   1.208   2.820   1.134 -0.3145 -0.3922  0.2688
  430SOL     OW 1717   1.153   2.719   0.690 -0.3355 -0.1682 -0.1899
  430SOL    HW1 1718   1.190   2.637   0.722  1.2601  3.2075 -0.2396
  430SOL    HW2 1719   1.098   2.702   0.607 -0.7145 -0.6962  2.5468
  430SOL     MW 1720   1.151   2.706   0.683 -0.1750  0.2075  0.1646
  431SOL     OW 1721   0.337   1.922   1.076 -0.5735  0.2302  0.6868
  431SOL    HW1 1722   0.389   1.845   1.054  0.8271  0.4351 -0.2609
  431SOL    HW2 1723   0.310   1.957   0.990  2.8795 -3.0790 -0.5181
  431SOL     MW 1724   0.341   1.916   1.062  0.0669 -0.1794  0.4028
  432SOL     OW 1725   0.050   0.020   1.109 -0.3013 -0.3574 -0.1971
  432SOL    HW1 1726   0.030   0.075   1.188  2.4617  0.7799 -0.3575
  432SOL    HW2 1727  -0.009  -0.052   1.114 -1.4058 -1.0728  0.6461
  432SOL     MW 1728   0.040   0.018   1.120 -0.0825 -0.3018 -0.1070
  433SOL     OW 1729   0.648   2.868   1.485  0.4778 -0.1493 -0.1113
  433SOL    HW1 1730   0.607   2.894   1.573 -1.1431  1.3512 -1.1559
  433SOL    HW2 1731   0.729   2.818   1.502 -1.5397  2.2785  0.6657
  433SOL     MW 1732   0.654   2.865   1.499 -0.0023  0.3690 -0.1466
  434SOL     OW 1733   1.535   2.811   1.589 -0.4817 -0.0906 -0.2662
  434SOL    HW1 1734   1.443   2.840   1.575  0.5495 -2.5230 -1.1081
  434SOL    HW2 1735   1.543   2.748   1.519  2.4985  0.7013 -0.9955
  434SOL     MW 1736   1.524   2.807   1.578  0.0476 -0.3070 -0.4735
  435SOL     OW 1737   2.737   1.765   0.203  0.2444  0.0351  0.7716
  435SOL    HW1 1738   2.808   1.818   0.166  1.4515  0.9356 -2.7087
  435SOL    HW2 1739   2.680   1.773   0.123 -3.7784  1.8693 -0.2908
  435SOL     MW 1740   2.739   1.773   0.187 -0.1271  0.3959  0.1722
  436SOL     OW 1741   1.401   2.680   0.369  0.7101  0.0462  0.0850
  436SOL    HW1 1742   1.440   2.660   0.454  0.2146 -1.1556 -0.4017
  436SOL    HW2 1743   1.383   2.780   0.370  0.0288  1.8186 -2.3397
  436SOL     MW 1744   1.404   2.691   0.381  0.5549  0.1215 -0.2992
  437SOL     OW 1745   0.970   2.954   1.357  0.9839 -0.0721 -0.5391
  437SOL    HW1 1746   1.013   3.010   1.292  2.5552 -1.2514 -0.3804
  437SOL    HW2 1747   0.941   2.870   1.317  0.7431 -0.8862  0.9995
  437SOL     MW 1748   0.972   2.950   1.343  1.1595 -0.3351 -0.3152
  438SOL     OW 1749   0.809   2.653   1.913  0.1030  0.7630 -0.2700
  438SOL    HW1 1750   0.833   2.601   1.989  1.3948  0.6611 -3.4001
  438SOL    HW2 1751   0.755   2.590   1.864  0.9460 -0.9601  1.0038
  438SOL     MW 1752   0.805   2.638   1.916  0.3847  0.5222 -0.5149
  439SOL     OW 1753   1.161   2.094   0.408 -0.3842  0.1253 -0.0491
  439SOL    HW1 1754   1.121   2.145   0.477 -1.4434  1.3477 -1.2225
  439SOL    HW2 1755   1.149   2.147   0.328 -0.0117  0.8171  2.4364
  439SOL     MW 1756   1.154   2.108   0.407 -0.4748  0.3778  0.1240
  440SOL     OW 1757   1.656   2.963   3.070  0.2283  0.1256 -0.4319
  440SOL    HW1 1758   1.636   2.933   3.158  1.0293 -2.3658 -1.8492
  440SOL    HW2 1759   1.750   2.980   3.071 -1.5346  1.3015 -2.5740
  440SOL     MW 1760   1.666   2.961   3.082  0.1014 -0.0480 -0.9015
  441SOL     OW 1761   0.365   2.667   0.521 -0.2515  0.1777  0.0532
  441SOL    HW1 1762   0.351   2.620   0.433 -2.3817  1.5689 -2.0202
  441SOL    HW2 1763   0.371   2.757   0.501 -0.9068 -1.0872 -0.2145
  441SOL     MW 1764   0.364   2.673   0.507 -0.6190  0.1944 -0.2557
  442SOL     OW 1765   3.079   2.346   0.578 -0.1433  0.3078  0.0928
  442SOL    HW1 1766   3.095   2.436   0.581  0.8359  0.5194  0.8933
  442SOL    HW2 1767   2.983   2.323   0.593 -0.1409  0.6965 -0.0703
  442SOL     MW 1768   3.068   2.355   0.580 -0.0138  0.3870  0.1769
  443SOL     OW 1769   1.515   1.740   1.981  0.0885 -0.0293 -0.5458
  443SOL    HW1 1770   1.446   1.678   1.974  2.8506 -0.3438 -2.3635
  443SOL    HW2 1771   1.527   1.779   2.069  2.9051  0.0895 -0.4085
  443SOL     MW 1772   1.508   1.737   1.992  0.8246 -0.0551 -0.7675
  444SOL     OW 1773   0.904   2.599   1.585  0.8663  0.3914 -0.3709
  444SOL    HW1 1774   0.987   2.558   1.617  0.3503  0.5824  1.0988
  444SOL    HW2 1775   0.835   2.580   1.648  2.1357 -1.1131  2.7105
  444SOL     MW 1776   0.906   2.591   1.598  0.9657  0.2181  0.2296
  445SOL     OW 1777   1.176   0.144   1.389  0.2352  0.6308  0.5762
  445SOL    HW1 1778   1.087   0.153   1.429  0.7858 -2.0433  0.4042
  445SOL    HW2 1779   1.164   0.196   1.308  2.8404  0.8664 -1.8089
  445SOL     MW 1780   1.163   0.152   1.383  0.6516  0.3091  0.2388
  446SOL     OW 1781   2.792   2.861   1.039 -0.0204  0.1665  0.1094
  446SOL    HW1 1782   2.730   2.905   0.972 -1.9941 -0.5330 -1.8005
  446SOL    HW2 1783   2.822   2.785   0.986 -0.6304  0.1953 -0.0176
  446SOL     MW 1784   2.788   2.857   1.023 -0.3613  0.0780 -0.1593
  447SOL     OW 1785   0.020   1.991   1.633  0.1255 -0.1662  0.2863
  447SOL    HW1 1786   0.054   1.915   1.687  2.7360 -2.4411  2.1664
  447SOL    HW2 1787  -0.041   1.940   1.570 -0.1804 -1.7078 -2.6269
  447SOL     MW 1788   0.016   1.974   1.632  0.4296 -0.6697  0.1500
  448SOL     OW 1789   1.767   2.414   1.690  0.3326  0.3448  0.3426
  448SOL    HW1 1790   1.720   2.336   1.667  1.6610 -2.1332 -0.5962
  448SOL    HW2 1791   1.693   2.479   1.700  0.2895  0.7872 -0.2691
  448SOL     MW 1792   1.751   2.413   1.688  0.5022  0.0762  0.1380
  449SOL     OW 1793   0.901   2.878   0.365  0.4290  0.2778  0.7222
  449SOL    HW1 1794   0.816   2.878   0.316  2.6160  1.2886 -0.8452
  449SOL    HW2 1795   0.873   2.932   0.442  1.2924 -1.5903 -0.8472
  449SOL     MW 1796   0.886   2.885   0.369  0.8315  0.1647  0.3083
  450SOL     OW 1797   1.209   2.461   0.736 -0.3857 -0.0349 -0.0681
  450SOL    HW1 1798   1.222   2.422   0.821  0.8856  0.4596 -0.0901
  450SOL    HW2 1799   1.284   2.430   0.683  2.3112  0.0157 -0.9122
  450SOL     MW 1800   1.221   2.452   0.740  0.1379  0.0370 -0.1824
  451SOL     OW 1801   0.599   2.025   1.675  0.6119  0.0930  0.2254
  451SOL    HW1 1802   0.655   2.100   1.703  2.8279  0.2998 -1.1209
  451SOL    HW2 1803   0.570   2.040   1.586  1.4223  0.5053  1.2262
  451SOL     MW 1804   0.603   2.037   1.667  1.0112  0.1747  0.1798
  452SOL     OW 1805   0.317   2.637   0.052  0.3389 -0.3898 -0.0261
  452SOL    HW1 1806   0.397   2.685   0.045 -2.4384 -1.4043  0.6707
  452SOL    HW2 1807   0.249   2.700   0.013 -0.2988  1.7778  1.2579
  452SOL     MW 1808   0.319   2.652   0.046 -0.1117 -0.2377  0.2352
  453SOL     OW 1809   0.326   3.055   1.608  0.2028 -0.0253  1.0011
  453SOL    HW1 1810   0.377   2.995   1.662 -0.1896 -1.4061  0.4933
  453SOL    HW2 1811   0.367   3.064   1.520  0.3562  2.8334 -2.2069
  453SOL     MW 1812   0.338   3.049   1.604  0.1713  0.1697  0.5108
  454SOL     OW 1813   0.959   2.724   1.172  0.0034 -0.0387  0.8448
  454SOL    HW1 1814   0.892   2.672   1.208  0.0389 -1.3502 -2.3808
  454SOL    HW2 1815   0.911   2.764   1.098 -1.8227  1.4931 -0.5109
  454SOL     MW 1816   0.944   2.722   1.167 -0.2329 -0.0097  0.2403
  455SOL     OW 1817   1.637   2.864   0.235  0.2270  0.3743  0.7306
  455SOL    HW1 1818   1.684   2.847   0.313  0.3863  3.2684 -1.6949
  455SOL    HW2 1819   1.611   2.777   0.206  1.1842  1.5332 -1.2110
  455SOL     MW 1820   1.640   2.850   0.241  0.3743  0.9090  0.1544
  456SOL     OW 1821   2.721   0.305   1.531 -0.7630 -0.1167 -0.1460
  456SOL    HW1 1822   2.724   0.254   1.445 -1.4941 -2.0236  0.7999
  456SOL    HW2 1823   2.816   0.341   1.527 -0.0355  0.5484 -0.1535
  456SOL     MW 1824   2.734   0.303   1.519 -0.7634 -0.2805 -0.0222
  457SOL     OW 1825   0.812   1.581   3.018 -0.3098 -0.2120  0.1634
  457SOL    HW1 1826   0.718   1.557   2.999  0.1206 -3.1559  0.7006
  457SOL    HW2 1827   0.807   1.619   3.104 -1.2889  4.1974 -0.6674
  457SOL     MW 1828   0.799   1.583   3.027 -0.3822 -0.0186  0.1247
  458SOL     OW 1829   1.367   1.457   0.644 -0.6618  0.2412  0.8108
  458SOL    HW1 1830   1.320   1.525   0.591  0.8082  2.2664  1.5008
  458SOL    HW2 1831   1.347   1.374   0.596 -1.3902  0.0014  0.7153
  458SOL     MW 1832   1.358   1.455   0.631 -0.5639  0.4767  0.8892
  459SOL     OW 1833   1.545   0.021   0.208  0.0807 -0.2402  0.0250
  459SOL    HW1 1834   1.563  -0.073   0.199  1.8969 -1.4611 -0.7179
  459SOL    HW2 1835   1.479   0.043   0.139  0.2966  0.2709  0.0544
  459SOL     MW 1836   1.539   0.012   0.198  0.3488 -0.3338 -0.0692
  460SOL     OW 1837   1.767   2.144   0.638  0.9089  0.1118  0.0412
  460SOL    HW1 1838   1.675   2.141   0.663  0.3311  1.3355 -0.2751
  460SOL    HW2 1839   1.801   2.054   0.624 -1.4037 -0.2736 -0.5689
  460SOL     MW 1840   1.759   2.132   0.639  0.5276  0.2224 -0.0811
  461SOL     OW 1841   0.455   2.395   0.594  0.0732  0.6486  0.8501
  461SOL    HW1 1842   0.430   2.489   0.572  1.4488  0.9256 -0.5805
  461SOL    HW2 1843   0.453   2.403   0.691  1.7796 -1.7152 -0.6307
  461SOL     MW 1844   0.452   2.408   0.604  0.4798  0.3732  0.4660
  462SOL     OW 1845   0.321   0.250   1.230 -0.2174 -0.1754  0.0409
  462SOL    HW1 1846   0.364   0.227   1.142 -0.1240 -0.8910  0.5222
  462SOL    HW2 1847   0.405   0.242   1.287 -0.2463  0.9540  1.1730
  462SOL     MW 1848   0.338   0.246   1.226 -0.2089 -0.1208  0.2538
  463SOL     OW 1849   1.003   0.081   0.671 -0.3338 -0.0049  0.2817
  463SOL    HW1 1850   1.053   0.059   0.593  1.8425 -1.9425  0.9195
  463SOL    HW2 1851   0.913   0.089   0.645  3.4619 -0.1177  0.7512
  463SOL     MW 1852   0.998   0.079   0.657  0.4542 -0.2754  0.4278
  464SOL     OW 1853   0.777   3.022   2.225  0.5388 -0.1100  0.6589
  464SOL    HW1 1854   0.769   2.928   2.244 -3.5354 -0.3677  1.5687
  464SOL    HW2 1855   0.790   3.066   2.311 -1.8981  2.9263  1.2059
  464SOL     MW 1856   0.778   3.016   2.239 -0.3202  0.2566  0.8511
  465SOL     OW 1857   0.881   0.265   0.429 -0.1573 -0.0295 -0.2077
  465SOL    HW1 1858   0.813   0.229   0.488  1.6431 -0.0946  0.5725
  465SOL    HW2 1859   0.842   0.274   0.340 -0.9778  3.4320 -2.8993
  465SOL     MW 1860   0.867   0.262   0.425 -0.0280  0.4186 -0.4599
  466SOL     OW 1861   0.993   2.024   0.803  0.6894  0.2399 -0.0253
  466SOL    HW1 1862   1.006   1.943   0.760  0.4191 -0.7763  0.3391
  466SOL    HW2 1863   1.017   2.098   0.742  0.8408 -0.0904 -2.1853
  466SOL     MW 1864   0.998   2.024   0.790  0.6737  0.0622 -0.2622
  467SOL     OW 1865   1.266   2.342   1.000 -0.1273 -0.0171  0.5640
  467SOL    HW1 1866   1.360   2.364   0.989  0.5935 -1.1201  2.3709
  467SOL    HW2 1867   1.253   2.245   0.974 -1.4475 -1.0369  1.4287
  467SOL     MW 1868   1.276   2.332   0.995 -0.2064 -0.2972  0.9165
  468SOL     OW 1869   0.489   2.661   1.922  0.2185 -0.2847 -0.1356
  468SOL    HW1 1870   0.471   2.582   1.877  0.4357  0.7223 -0.1731
  468SOL    HW2 1871   0.477   2.731   1.856  0.2485  1.6636 -0.4750
  468SOL     MW 1872   0.485   2.660   1.908  0.2511  0.1052 -0.1853
  469SOL     OW 1873   0.384   2.122   1.833 -0.3540 -0.2266  0.2558
  469SOL    HW1 1874   0.326   2.063   1.883 -0.0523  1.1146  3.3052
  469SOL    HW2 1875   0.453   2.065   1.790  1.1991 -2.7450 -0.0777
  469SOL     MW 1876   0.385   2.107   1.834 -0.1092 -0.3819  0.6142
  470SOL     OW 1877   3.070   2.574   0.161  0.7975 -0.0178  0.7604
  470SOL    HW1 1878   2.990   2.584   0.223  1.9257  2.3098  0.3051
  470SOL    HW2 1879   3.040   2.597   0.073 -1.1188 -0.6772 -0.6927
  470SOL     MW 1880   3.055   2.579   0.158  0.6936  0.2023  0.5086
  471SOL     OW 1881   1.186   2.616   1.401  0.6653 -0.4217  0.2437
  471SOL    HW1 1882   1.134   2.572   1.466 -0.8355 -1.2875 -3.5167
  471SOL    HW2 1883   1.150   2.591   1.317  2.2690 -2.0084  1.5403
  471SOL     MW 1884   1.174   2.607   1.398  0.6789 -0.7453 -0.0813
  472SOL     OW 1885   2.792   2.101   0.367 -0.4263 -0.1582  0.0827
  472SOL    HW1 1886   2.806   2.074   0.275 -1.0074 -0.0043 -3.0880
  472SOL    HW2 1887   2.769   2.018   0.417  2.2253 -1.6286  1.6198
  472SOL     MW 1888   2.791   2.086   0.362 -0.1531 -0.3319 -0.1328
  473SOL     OW 1889   0.778   2.555   1.323  0.4811 -0.2308  0.0641
  473SOL    HW1 1890   0.743   2.474   1.292 -2.7398  1.1954  1.8987
  473SOL    HW2 1891   0.823   2.533   1.404  2.5109  1.6689 -1.4539
  473SOL     MW 1892   0.779   2.542   1.330  0.3239  0.2080  0.1059
  474SOL     OW 1893   0.757   2.214   1.775 -1.1639  0.0660  0.4003
  474SOL    HW1 1894   0.831   2.239   1.836  1.0337  1.1839 -1.0024
  474SOL    HW2 1895   0.799   2.207   1.689 -0.2910 -1.8765 -1.2670
  474SOL     MW 1896   0.772   2.217   1.771 -0.7588 -0.0428 -0.0048
  475SOL     OW 1897   1.633   3.026   1.460 -0.1997  0.5913 -0.8097
  475SOL    HW1 1898   1.561   3.065   1.414 -3.1784  1.3480  0.9123
  475SOL    HW2 1899   1.595   2.943   1.498 -0.1624  0.5538  0.1069
  475SOL     MW 1900   1.618   3.020   1.459 -0.5878  0.6862 -0.4616
  476SOL     OW 1901   1.391   2.618   1.047  0.3816  0.3877 -0.0744
  476SOL    HW1 1902   1.325   2.682   1.080  0.1544  1.0646 -0.3444
  476SOL    HW2 1903   1.445   2.670   0.987  1.6642  1.5339 -2.4694
  476SOL     MW 1904   1.390   2.633   1.044  0.5208  0.6282 -0.4260
  477SOL     OW 1905   0.798   2.511   0.684 -0.7294  0.1601 -0.2908
  477SOL    HW1 1906   0.885   2.537   0.645  0.0914 -2.0498  1.9496
  477SOL    HW2 1907   0.776   2.442   0.619 -1.7434 -0.2652 -2.8001
  477SOL     MW 1908   0.806   2.506   0.670 -0.7549 -0.1876 -0.3263
  478SOL     OW 1909   0.174   2.690   0.905  0.3265 -0.2506 -0.6673
  478SOL    HW1 1910   0.232   2.770   0.903 -0.0165 -1.4907 -0.3974
  478SOL    HW2 1911   0.229   2.642   0.843 -0.1522 -1.3678  0.4402
  478SOL     MW 1912   0.189   2.694   0.897  0.2181 -0.5616 -0.4856
  479SOL     OW 1913   1.469   2.015   1.272  0.0165 -0.2392  0.2912
  479SOL    HW1 1914   1.464   2.035   1.369 -1.4410  0.6867  1.3291
  479SOL    HW2 1915   1.489   1.922   1.261  0.4849 -2.7837 -1.2508
  479SOL     MW 1916   1.471   2.005   1.283 -0.1140 -0.4528  0.2247
  480SOL     OW 1917   1.930   2.459   1.254  0.1443 -0.3431  0.0969
  480SOL    HW1 1918   1.864   2.395   1.275  0.2518  0.5305 -0.6917
  480SOL    HW2 1919   1.973   2.433   1.172 -2.0245  3.3935 -0.8676
  480SOL     MW 1920   1.927   2.447   1.246 -0.1277  0.2652 -0.1344
  481SOL     OW 1921   1.054   0.006   1.087 -0.0144  0.0824  0.2796
  481SOL    HW1 1922   1.089  -0.035   1.011 -1.6056 -0.7926  0.3800
  481SOL    HW2 1923   1.104   0.086   1.103  1.0567  0.6700  1.2917
  481SOL     MW 1924   1.065   0.011   1.079 -0.0830  0.0445  0.4264
  482SOL     OW 1925   1.079   3.054   0.254 -0.2364  0.3565 -0.5247
  482SOL    HW1 1926   1.033   2.983   0.302 -1.9454  0.0471  3.2222
  482SOL    HW2 1927   1.113   3.111   0.322 -0.0459 -1.2090 -0.6599
  482SOL     MW 1928   1.078   3.052   0.269 -0.4367  0.1091 -0.0482
  483SOL     OW 1929   0.388   2.944   0.448 -0.0877 -0.6144  0.3743
  483SOL    HW1 1930   0.316   2.966   0.387  0.3718 -3.3780 -1.6567
  483SOL    HW2 1931   0.367   2.991   0.530  1.6165  1.3511 -0.7872
  483SOL     MW 1932   0.376   2.953   0.451  0.1978 -0.7197 -0.0469
  484SOL     OW 1933   1.858   1.893   1.502  0.5385 -0.3977  0.0416
  484SOL    HW1 1934   1.844   1.979   1.451  2.0688 -0.7681 -1.3189
  484SOL    HW2 1935   1.840   1.921   1.593  1.3725 -0.3741 -0.1301
  484SOL     MW 1936   1.853   1.908   1.507  0.8504 -0.4435 -0.1605
  485SOL     OW 1937   0.500   2.348   0.183  0.3294 -0.0996 -0.1819
  485SOL    HW1 1938   0.537   2.287   0.254  4.3647 -1.3294  0.1475
  485SOL    HW2 1939   0.439   2.412   0.230 -0.6714  0.6295  0.9534
  485SOL     MW 1940   0.497   2.349   0.199  0.7298 -0.1656  0.0114
  486SOL     OW 1941   0.182   2.363   1.501 -0.0714  0.2242 -0.1554
  486SOL    HW1 1942   0.186   2.444   1.454  0.5069 -0.1636  1.9170
  486SOL    HW2 1943   0.172   2.380   1.595 -2.1822 -3.2163  1.3434
  486SOL     MW 1944   0.182   2.375   1.507 -0.2736 -0.2809  0.3158
  487SOL     OW 1945   1.208   1.675   1.042  0.0751  0.2672  0.5132
  487SOL    HW1 1946   1.222   1.757   1.098 -1.1799  0.1705  0.2984
  487SOL    HW2 1947   1.286   1.700   0.988 -0.3602  0.5342  0.6368
  487SOL     MW 1948   1.220   1.689   1.042 -0.1479  0.2897  0.5012
  488SOL     OW 1949   1.612   1.861   0.489 -0.2330  0.4371  0.0189
  488SOL    HW1 1950   1.688   1.876   0.440 -1.4918  0.3266  1.0216
  488SOL    HW2 1951   1.545   1.933   0.472 -2.6228  0.5710 -0.9130
  488SOL     MW 1952   1.613   1.873   0.480 -0.7144  0.4402  0.0282
  489SOL     OW 1953   0.756   0.780   0.564  0.0627 -0.0287 -0.2989
  489SOL    HW1 1954   0.790   0.690   0.551  0.0761  0.2955  0.0353
  489SOL    HW2 1955   0.705   0.772   0.648 -2.3743  0.5481  1.7222
  489SOL     MW 1956   0.754   0.767   0.573 -0.2571  0.0902  0.0118
  490SOL     OW 1957   1.449   2.078   0.469 -0.3011 -0.0458 -0.2851
  490SOL    HW1 1958   1.498   2.168   0.469  0.9062  1.1305 -0.1083
  490SOL    HW2 1959   1.363   2.086   0.434  0.5965  3.0189 -0.6179
  490SOL     MW 1960   1.444   2.091   0.464 -0.0234  0.5137 -0.3057
  491SOL     OW 1961   1.328   2.972   0.356 -0.6134  0.2807  0.1260
  491SOL    HW1 1962   1.376   3.049   0.396 -1.8331  1.6939  0.1111
  491SOL    HW2 1963   1.266   3.007   0.295  0.0464  2.0376  2.5546
  491SOL     MW 1964   1.326   2.987   0.353 -0.6873  0.6989  0.4444
  492SOL     OW 1965   1.489   2.148   0.738 -0.0743  0.4653 -0.1737
  492SOL    HW1 1966   1.468   2.101   0.654 -1.1475 -0.2052  2.4405
  492SOL    HW2 1967   1.419   2.111   0.800  0.7235 -0.9643  1.6205
  492SOL     MW 1968   1.477   2.137   0.735 -0.1107  0.1882  0.4080
  493SOL     OW 1969   0.188   3.014   0.278 -0.1941  0.4620  0.2697
  493SOL    HW1 1970   0.145   3.053   0.356 -1.0939  1.6941 -0.5249
  493SOL    HW2 1971   0.193   3.093   0.217 -0.7026  1.6555  1.5895
  493SOL     MW 1972   0.183   3.030   0.280 -0.3799  0.7821  0.3390
  494SOL     OW 1973   0.386   2.405   1.774 -0.2524  0.6951 -0.1976
  494SOL    HW1 1974   0.389   2.306   1.779  1.6959  1.7604 -2.0832
  494SOL    HW2 1975   0.428   2.416   1.689 -1.6329 -0.9075  1.6248
  494SOL     MW 1976   0.392   2.393   1.763 -0.1775  0.6242 -0.2059
  495SOL     OW 1977   2.935   1.639   2.647 -0.0272  0.0124  0.2773
  495SOL    HW1 1978   2.919   1.721   2.595 -2.1122 -0.4042  1.0679
  495SOL    HW2 1979   2.888   1.649   2.730  1.2709  1.0425 -1.6087
  495SOL     MW 1980   2.927   1.651   2.651 -0.1310  0.0933  0.1328
  496SOL     OW 1981   2.930   2.358   2.667 -0.0960  0.5837 -0.4138
  496SOL    HW1 1982   2.968   2.287   2.715  0.5699 -1.3957  2.2288
  496SOL    HW2 1983   3.000   2.423   2.648 -0.9847  1.3896 -0.6745
  496SOL     MW 1984   2.944   2.357   2.671 -0.1254  0.4289 -0.0995
  497SOL     OW 1985   1.574   2.270   2.665  0.8623 -0.7694 -0.2414
  497SOL    HW1 1986   1.540   2.250   2.577 -0.2050  1.0974 -0.1317
  497SOL    HW2 1987   1.550   2.197   2.723  2.1446 -0.2589  0.1743
  497SOL     MW 1988   1.566   2.258   2.661  0.8907 -0.4557 -0.1721
  498SOL     OW 1989   1.477   2.718   2.321 -0.5927 -0.2271  0.0729
  498SOL    HW1 1990   1.448   2.632   2.329  1.6716 -1.6255  1.4734
  498SOL    HW2 1991   1.553   2.720   2.385 -1.4798 -0.4366  2.0081
  498SOL     MW 1992   1.483   2.707   2.331 -0.4110 -0.4393  0.5130
  499SOL     OW 1993   0.966   0.144   0.061  0.2603  0.2836 -0.7416
  499SOL    HW1 1994   0.881   0.177   0.096  4.3834 -2.9702  0.6654
  499SOL    HW2 1995   0.993   0.070   0.110  0.9979  0.7605  0.7596
  499SOL     MW 1996   0.958   0.138   0.072  0.9016 -0.0828 -0.3579
  500SOL     OW 1997   1.085   2.559   2.826  0.2063 -0.2682  0.6186
  500SOL    HW1 1998   1.132   2.511   2.899 -1.7052 -0.8528 -0.9878
  500SOL    HW2 1999   1.001   2.588   2.858 -0.9616 -0.1294  0.7468
  500SOL     MW 2000   1.080   2.556   2.840 -0.2000 -0.3270  0.4236
  501SOL     OW 2001   1.781   2.181   3.061  0.6964 -0.0682  0.4503
  501SOL    HW1 2002   1.790   2.262   3.096  0.3318 -1.9230 -0.2163
  501SOL    HW2 2003   1.870   2.166   3.028 -1.2078  1.3226 -1.2086
  501SOL     MW 2004   1.794   2.190   3.062  0.3970 -0.1294  0.1435
  502SOL     OW 2005   0.149   2.813   3.038 -0.5105 -0.1329  0.3625
  502SOL    HW1 2006   0.073   2.759   3.009  0.7951 -1.9503  2.0650
  502SOL    HW2 2007   0.197   2.839   2.957  2.1642 -2.3765 -1.4431
  502SOL     MW 2008   0.145   2.809   3.024  0.0146 -0.6687  0.3489
  503SOL     OW 2009   1.137   2.778   2.134  0.2646  0.1971  0.1930
  503SOL    HW1 2010   1.086   2.696   2.115 -3.2097  0.4742 -0.7313
  503SOL    HW2 2011   1.099   2.841   2.075 -0.4869 -0.6280 -0.3497
  503SOL     MW 2012   1.125   2.775   2.124 -0.2930  0.1248 -0.0005
  504SOL     OW 2013   0.112   2.689   2.140  0.2517 -0.0986  0.4398
  504SOL    HW1 2014   0.133   2.596   2.126 -0.8084  1.2250 -1.4251
  504SOL    HW2 2015   0.025   2.701   2.098 -0.6332 -0.4501 -2.6591
  504SOL     MW 2016   0.103   2.678   2.132 -0.0049  0.0297 -0.2151
  505SOL     OW 2017   1.695   2.715   2.777 -0.3789  0.3463 -0.7909
  505SOL    HW1 2018   1.688   2.720   2.680 -2.1027 -0.4867 -3.4132
  505SOL    HW2 2019   1.617   2.770   2.796 -1.5113  0.1240  1.9509
  505SOL     MW 2020   1.684   2.723   2.766 -0.7558  0.2071 -0.7751
  506SOL     OW 2021   1.585   3.078   2.845  0.1466  0.2170  0.1908
  506SOL    HW1 2022   1.608   3.047   2.937 -3.0164 -0.9864  1.3893
  506SOL    HW2 2023   1.658   3.051   2.788 -1.3837 -0.9845 -0.7751
  506SOL     MW 2024   1.598   3.071   2.850 -0.4726 -0.1003  0.2215
  507SOL     OW 2025   0.878   2.785   2.862 -0.3654  0.3979  0.0235
  507SOL    HW1 2026   0.883   2.882   2.834 -0.0969  5.1974 -2.1974
  507SOL    HW2 2027   0.785   2.766   2.882  1.7752 -1.7873  2.2000
  507SOL     MW 2028   0.867   2.795   2.861 -0.0475  0.7428  0.0177
  508SOL     OW 2029   1.151   2.094   2.525  0.1364 -0.2816  0.0603
  508SOL    HW1 2030   1.227   2.067   2.579  0.0137 -0.6491 -1.7847
  508SOL    HW2 2031   1.114   2.178   2.564 -2.2027  1.2627  2.0556
  508SOL     MW 2032   1.156   2.101   2.537 -0.1884 -0.1263  0.0801
  509SOL     OW 2033   0.663   2.588   2.752 -0.7654 -0.0346  0.1716
  509SOL    HW1 2034   0.647   2.537   2.678 -1.1116 -1.7044  1.7734
  509SOL    HW2 2035   0.593   2.569   2.816 -2.9843  1.2820 -0.1709
  509SOL     MW 2036   0.652   2.579   2.750 -1.1038 -0.0812  0.3378
  510SOL     OW 2037   1.523   2.561   1.686 -0.0271 -0.0969  0.0884
  510SOL    HW1 2038   1.545   2.649   1.670  2.3086 -0.4221 -0.8948
  510SOL    HW2 2039   1.464   2.549   1.766 -0.2637 -0.9555  0.4247
  510SOL     MW 2040   1.518   2.571   1.695  0.2498 -0.2531  0.0031
  511SOL     OW 2041   0.437   2.645   2.431  0.9972  0.1294 -0.2839
  511SOL    HW1 2042   0.513   2.599   2.454  3.3648 -3.2941 -0.9892
  511SOL    HW2 2043   0.437   2.675   2.338 -1.4842 -1.2253 -3.3209
  511SOL     MW 2044   0.447   2.643   2.422  0.9822 -0.5010 -0.7777
  512SOL     OW 2045   1.061   2.008   2.815 -0.2857 -0.2543  0.0246
  512SOL    HW1 2046   0.981   2.056   2.847 -1.1155 -2.1755  0.3543
  512SOL    HW2 2047   1.057   1.922   2.862  0.2012 -1.9963 -0.7229
  512SOL     MW 2048   1.050   2.003   2.825 -0.3309 -0.7376 -0.0305
  513SOL     OW 2049   1.545   2.444   2.274  0.9768  0.4867  0.0914
  513SOL    HW1 2050   1.621   2.474   2.224 -2.7417  0.7023 -2.1269
  513SOL    HW2 2051   1.555   2.449   2.366 -0.3466  0.2713 -0.5771
  513SOL     MW 2052   1.557   2.449   2.280  0.3116  0.4868 -0.2895
  514SOL     OW 2053   0.275   2.515   2.631 -0.2936  0.6215  1.0614
  514SOL    HW1 2054   0.333   2.553   2.565 -0.0305  0.7912 -0.9935
  514SOL    HW2 2055   0.319   2.523   2.719  2.7713  1.0008  0.4536
  514SOL     MW 2056   0.289   2.521   2.634  0.1455  0.6939  0.7101
  515SOL     OW 2057   1.145   2.120   1.842 -0.4662  0.8089 -1.1405
  515SOL    HW1 2058   1.092   2.195   1.860  0.7093  1.2622 -1.4594
  515SOL    HW2 2059   1.198   2.100   1.921  0.2354 -0.3271 -0.2471
  515SOL     MW 2060   1.145   2.127   1.855 -0.2186  0.7188 -1.0647
  516SOL     OW 2061   1.476   2.447   3.055  0.6839 -0.3964 -1.1932
  516SOL    HW1 2062   1.530   2.445   2.977  1.2860 -1.9345 -3.2388
  516SOL    HW2 2063   1.378   2.446   3.043  0.6970 -1.1296  0.2999
  516SOL     MW 2064   1.470   2.446   3.043  0.7651 -0.6961 -1.2661
  517SOL     OW 2065   0.593   2.482   2.144  0.0816  0.0302  0.0092
  517SOL    HW1 2066   0.553   2.565   2.122 -0.4499 -0.7554  1.3787
  517SOL    HW2 2067   0.528   2.406   2.117 -1.3168  0.3507 -0.2930
  517SOL     MW 2068   0.579   2.483   2.137 -0.1730 -0.0312  0.1500
  518SOL     OW 2069   1.855   0.213   3.035  0.6161 -0.1302 -0.2589
  518SOL    HW1 2070   1.797   0.255   2.969 -0.3379 -1.5603 -1.0069
  518SOL    HW2 2071   1.810   0.230   3.119 -0.8191  0.7340  0.5439
  518SOL     MW 2072   1.842   0.221   3.037  0.3009 -0.2049 -0.2517
  519SOL     OW 2073   0.690   2.482   1.722 -0.9193  1.6984  0.1742
  519SOL    HW1 2074   0.732   2.393   1.749 -0.1870  1.4082 -0.5393
  519SOL    HW2 2075   0.635   2.470   1.647  3.6418  2.2531 -2.0218
  519SOL     MW 2076   0.688   2.469   1.715 -0.2209  1.7333 -0.2097
  520SOL     OW 2077   1.281   2.122   2.916  0.4819  0.0730 -0.1797
  520SOL    HW1 2078   1.189   2.083   2.893 -1.3199  0.4133  0.5796
  520SOL    HW2 2079   1.329   2.061   2.969 -1.0457  0.7115 -0.2506
  520SOL     MW 2080   1.275   2.109   2.920  0.0426  0.2022 -0.0889
  521SOL     OW 2081   1.704   2.050   2.271 -0.1854 -0.3664  0.7472
  521SOL    HW1 2082   1.726   2.112   2.198 -1.1429  0.2624 -1.0804
  521SOL    HW2 2083   1.729   1.961   2.240  2.4598  0.9353  0.6680
  521SOL     MW 2084   1.710   2.047   2.257  0.0373 -0.1117  0.4956
  522SOL     OW 2085   2.850   2.556   2.166  0.2988  0.0734 -0.2854
  522SOL    HW1 2086   2.930   2.516   2.199  0.7050 -1.3572 -1.2350
  522SOL    HW2 2087   2.802   2.572   2.241  3.4381  1.9921  1.0571
  522SOL     MW 2088   2.854   2.553   2.180  0.7666  0.1378 -0.2336
  523SOL     OW 2089   0.862   1.506   2.159  0.4124  0.2136  0.2409
  523SOL    HW1 2090   0.845   1.573   2.092 -1.0479  1.0658  1.3595
  523SOL    HW2 2091   0.904   1.435   2.105 -1.9002 -1.5345 -3.0367
  523SOL     MW 2092   0.865   1.506   2.143 -0.0854  0.0954 -0.0440
  524SOL     OW 2093   0.758   2.376   2.923  1.1826 -0.2181  0.2984
  524SOL    HW1 2094   0.741   2.438   2.849 -2.2751  0.9051  1.2770
  524SOL    HW2 2095   0.778   2.289   2.884  0.5232 -1.5229 -2.0540
  524SOL     MW 2096   0.759   2.373   2.908  0.6394 -0.2420  0.1171
  525SOL     OW 2097   0.414   2.267   2.081  0.0308 -0.2921  0.4158
  525SOL    HW1 2098   0.385   2.217   2.155 -0.7373  2.3480 -1.7121
  525SOL    HW2 2099   0.425   2.201   2.012  2.0542 -3.4803  1.3679
  525SOL     MW 2100   0.412   2.251   2.081  0.1964 -0.3644  0.2606
  526SOL     OW 2101   0.661   2.090   2.039  0.2243 -0.8508  0.0808
  526SOL    HW1 2102   0.677   2.114   1.946 -1.3437 -0.1838  0.8553
  526SOL    HW2 2103   0.679   2.168   2.091  2.1665  2.4921 -1.2143
  526SOL     MW 2104   0.665   2.103   2.034  0.2737 -0.3217  0.0121
  527SOL     OW 2105   1.366   2.006   2.024 -0.3781 -0.1839 -0.0747
  527SOL    HW1 2106   1.372   1.975   2.117  0.6809 -1.6440  0.2589
  527SOL    HW2 2107   1.406   1.947   1.964  0.3684  0.1006  0.3627
  527SOL     MW 2108   1.372   1.994   2.028 -0.1399 -0.3390  0.0270
  528SOL     OW 2109   0.635   2.874   2.928  0.3971  0.0969 -0.5989
  528SOL    HW1 2110   0.675   2.950   2.958 -1.1603  0.1858  1.1850
  528SOL    HW2 2111   0.571   2.891   2.861  2.5592 -1.3190  0.1672
  528SOL     MW 2112   0.632   2.886   2.923  0.4769 -0.0782 -0.2624
  529SOL     OW 2113   0.998   2.340   1.875 -0.7942  0.1536  0.0016
  529SOL    HW1 2114   1.015   2.352   1.970 -1.2234  0.8895  1.7225
  529SOL    HW2 2115   1.062   2.396   1.831  4.9234 -0.7602 -1.3271
  529SOL     MW 2116   1.009   2.349   1.882 -0.0964  0.1301  0.0533
  530SOL     OW 2117   1.205   2.422   3.027 -0.2060  0.4678 -0.1420
  530SOL    HW1 2118   1.136   2.452   3.095 -0.7488  2.9103 -2.4271
  530SOL    HW2 2119   1.182   2.329   3.006 -0.3192 -0.4974 -1.4537
  530SOL     MW 2120   1.193   2.414   3.033 -0.2925  0.6627 -0.6166
  531SOL     OW 2121   0.952   1.875   2.572  0.4099 -0.3410  0.0571
  531SOL    HW1 2122   1.024   1.931   2.562 -1.4081 -3.1609  0.0214
  531SOL    HW2 2123   0.943   1.870   2.671  2.1922 -0.3272 -2.9119
  531SOL     MW 2124   0.960   1.881   2.584  0.4052 -0.7112 -0.3393
  532SOL     OW 2125   1.735   0.324   2.794 -0.4222  0.3420  0.4139
  532SOL    HW1 2126   1.725   0.247   2.743  2.2609  1.1232 -1.1513
  532SOL    HW2 2127   1.818   0.364   2.774  1.5047  0.9192 -0.5169
  532SOL     MW 2128   1.744   0.319   2.784  0.1861  0.5212  0.0846
  533SOL     OW 2129   1.876   2.635   3.057 -0.2071  0.5730 -0.3499
  533SOL    HW1 2130   1.869   2.572   3.137 -0.9549  0.3269 -0.9656
  533SOL    HW2 2131   1.798   2.615   3.005  2.2595  0.1777 -0.6502
  533SOL     MW 2132   1.865   2.624   3.060  0.0197  0.4883 -0.4708
  534SOL     OW 2133   1.771   2.434   2.522 -0.0498 -0.2645  0.6174
  534SOL    HW1 2134   1.706   2.373   2.563 -1.8911 -0.8852 -0.1119
  534SOL    HW2 2135   1.848   2.434   2.583 -0.0448  1.8053 -0.4007
  534SOL     MW 2136   1.772   2.426   2.535 -0.2921 -0.0733  0.3868
  535SOL     OW 2137   1.908   2.388   1.902 -0.7075  0.5465  0.4771
  535SOL    HW1 2138   1.855   2.388   1.823 -0.1081 -0.9069 -0.9137
  535SOL    HW2 2139   1.994   2.396   1.858  0.1097  1.9146  1.6232
  535SOL     MW 2140   1.912   2.389   1.886 -0.5206  0.5353  0.4448
  536SOL     OW 2141   0.469   1.826   2.071  0.4819 -0.2415 -0.0708
  536SOL    HW1 2142   0.453   1.797   1.979 -0.6175  0.6833 -0.8344
  536SOL    HW2 2143   0.511   1.909   2.057 -1.0072 -1.1930 -0.3043
  536SOL     MW 2144   0.473   1.833   2.057  0.1404 -0.2450 -0.2024
  537SOL     OW 2145   1.095   0.194   2.845  0.0602 -0.7941 -0.5873
  537SOL    HW1 2146   1.030   0.233   2.903  0.0971  1.7072  1.1266
  537SOL    HW2 2147   1.102   0.262   2.777 -0.5228 -0.8608  0.0639
  537SOL     MW 2148   1.087   0.208   2.844 -0.0118 -0.4729 -0.2752
  538SOL     OW 2149   1.389   0.057   3.064  0.0351  0.4504  0.0498
  538SOL    HW1 2150   1.392   0.144   3.031  0.9377  1.1468 -1.7602
  538SOL    HW2 2151   1.311   0.018   3.028  1.0340  1.7569  1.5906
  538SOL     MW 2152   1.379   0.063   3.055  0.2860  0.7146  0.0143
  539SOL     OW 2153   0.768   2.785   2.577 -0.1379  0.7260  0.5193
  539SOL    HW1 2154   0.851   2.829   2.593  0.7601 -0.3044 -0.2901
  539SOL    HW2 2155   0.739   2.741   2.656 -2.3257  2.4140 -1.6292
  539SOL     MW 2156   0.775   2.785   2.590 -0.3081  0.8127  0.1290
  540SOL     OW 2157   0.374   2.531   2.908 -0.0797  0.2674 -0.4917
  540SOL    HW1 2158   0.363   2.578   2.992 -2.7745 -1.0931  0.1688
  540SOL    HW2 2159   0.328   2.451   2.931 -3.7931 -0.7646  0.2696
  540SOL     MW 2160   0.366   2.527   2.922 -0.9252 -0.0483 -0.3041
  541SOL     OW 2161   0.187   2.960   2.217 -0.3666  0.1679  0.2072
  541SOL    HW1 2162   0.154   2.873   2.189  1.4521  1.4159  3.2241
  541SOL    HW2 2163   0.229   2.936   2.300 -1.8311 -1.0111 -2.5065
  541SOL     MW 2164   0.188   2.945   2.224 -0.3199  0.1770  0.2472
  542SOL     OW 2165   1.080   2.318   2.683 -0.1486  0.0145  0.0793
  542SOL    HW1 2166   1.088   2.247   2.745  0.9352 -0.0369 -0.1463
  542SOL    HW2 2167   1.077   2.397   2.735  1.8670 -1.1080 -1.1639
  542SOL     MW 2168   1.080   2.319   2.698  0.2604 -0.1404 -0.1145
  543SOL     OW 2169   1.668   2.445   2.846 -0.1837 -0.4332  0.4914
  543SOL    HW1 2170   1.641   2.400   2.769 -0.1664 -1.2168  0.9105
  543SOL    HW2 2171   1.681   2.534   2.817 -0.0379  0.3156  2.0228
  543SOL     MW 2172   1.666   2.451   2.832 -0.1622 -0.4378  0.7487
  544SOL     OW 2173   0.714   0.193   2.708  0.1295 -0.7683 -0.1288
  544SOL    HW1 2174   0.623   0.204   2.700  2.4441 -1.6387  0.0967
  544SOL    HW2 2175   0.731   0.164   2.618  1.5959  0.7006 -0.6852
  544SOL     MW 2176   0.704   0.191   2.695  0.6284 -0.6893 -0.1725
  545SOL     OW 2177   1.482   2.172   2.400 -0.3553 -0.2693  0.5643
  545SOL    HW1 2178   1.490   2.256   2.349  0.2618 -0.0257 -1.3346
  545SOL    HW2 2179   1.573   2.128   2.377  0.9492  0.1352  0.3442
  545SOL     MW 2180   1.495   2.177   2.390 -0.1018 -0.1838  0.2847
  546SOL     OW 2181   2.881   2.000   0.091 -0.7700 -0.4628  0.1750
  546SOL    HW1 2182   2.863   2.087   0.063 -0.7417  0.3479 -0.1548
  546SOL    HW2 2183   2.956   1.968   0.041 -0.3360  0.5744  1.6277
  546SOL     MW 2184   2.889   2.007   0.081 -0.7090 -0.2190  0.3232
  547SOL     OW 2185   0.156   0.092   0.092 -0.2671  0.1543  0.4311
  547SOL    HW1 2186   0.198   0.138   0.017  1.8148 -0.4667 -3.2607
  547SOL    HW2 2187   0.095   0.029   0.053 -0.2162  0.1235  3.4071
  547SOL     MW 2188   0.154   0.090   0.077  0.0143  0.0683  0.3367
  548SOL     OW 2189   0.307   2.513   0.295  0.3401  0.2056  0.1641
  548SOL    HW1 2190   0.307   2.586   0.227 -2.6458  1.1257 -4.3414
  548SOL    HW2 2191   0.248   2.446   0.262 -0.7684 -1.8158 -1.1282
  548SOL     MW 2192   0.299   2.514   0.282 -0.2001  0.0603 -0.6009
  549SOL     OW 2193   0.825   1.896   2.193  0.5825  0.7750 -0.0501
  549SOL    HW1 2194   0.757   1.944   2.140  0.2798  3.3376  1.9426
  549SOL    HW2 2195   0.783   1.874   2.275  0.6825 -1.0530  0.9101
  549SOL     MW 2196   0.811   1.900   2.197  0.5558  0.8719  0.3395
  550SOL     OW 2197   1.807   1.711   2.536  0.1557  0.2148  0.1168
  550SOL    HW1 2198   1.814   1.727   2.444  2.4834  0.3660 -1.2487
  550SOL    HW2 2199   1.793   1.798   2.578 -0.1830 -0.3754  1.3467
  550SOL     MW 2200   1.806   1.725   2.529  0.4181  0.1569  0.0989
  551SOL     OW 2201   0.910   2.329   0.216 -0.2401 -0.2866  0.2892
  551SOL    HW1 2202   1.000   2.311   0.199 -2.4914 -1.2716  3.4513
  551SOL    HW2 2203   0.861   2.290   0.148  0.3970  1.8305  0.5769
  551SOL     MW 2204   0.916   2.321   0.205 -0.4531 -0.1373  0.7443
  552SOL     OW 2205   1.768   1.788   2.257 -0.0906  0.4140  0.1897
  552SOL    HW1 2206   1.680   1.742   2.252 -0.2784 -0.9177 -0.9542
  552SOL    HW2 2207   1.797   1.750   2.178  1.7091  3.2970 -0.8701
  552SOL     MW 2208   1.760   1.777   2.246  0.1221  0.6187 -0.1010
  553SOL     OW 2209   1.271   2.263   1.540 -0.0293 -0.6385 -0.1583
  553SOL    HW1 2210   1.323   2.182   1.543  2.1452  0.6048  0.0488
  553SOL    HW2 2211   1.337   2.317   1.495 -3.1409 -2.3486  1.2915
  553SOL     MW 2212   1.287   2.259   1.534 -0.1530 -0.7001  0.0603
  554SOL     OW 2213   0.532   2.940   2.650 -0.1285 -0.3961  0.2182
  554SOL    HW1 2214   0.504   3.013   2.598 -0.4219  1.1437  0.4149
  554SOL    HW2 2215   0.582   2.884   2.588  0.4670 -1.6327  1.8583
  554SOL     MW 2216   0.535   2.943   2.635 -0.0886 -0.3561  0.4606
  555SOL     OW 2217   0.635   2.431   2.508  0.4040  0.1166  0.2729
  555SOL    HW1 2218   0.607   2.341   2.520 -2.1902 -0.5928 -2.0639
  555SOL    HW2 2219   0.733   2.426   2.482  2.9591 -0.2752  1.5441
  555SOL     MW 2220   0.644   2.418   2.506  0.3988 -0.0287  0.1323
  556SOL     OW 2221   1.007   1.888   0.095  0.6060 -0.1284  0.1348
  556SOL    HW1 2222   1.041   1.847   0.010 -0.8773  2.5973 -1.1716
  556SOL    HW2 2223   1.081   1.899   0.148 -2.1094 -0.0580 -0.0181
  556SOL     MW 2224   1.021   1.884   0.090  0.0520  0.2405 -0.0577
  557SOL     OW 2225   0.974   2.635   0.493  0.5659  0.5181 -0.6207
  557SOL    HW1 2226   1.028   2.587   0.425 -0.2327  0.9576  2.0623
  557SOL    HW2 2227   0.909   2.689   0.450  1.1030  0.6605 -0.6669
  557SOL     MW 2228   0.973   2.636   0.478  0.5314  0.5949 -0.2728
  558SOL     OW 2229   0.202   2.300   2.980 -0.0812 -0.3697 -0.5375
  558SOL    HW1 2230   0.135   2.248   2.939  1.8527 -0.8726 -0.6193
  558SOL    HW2 2231   0.178   2.319   3.071  0.4978 -0.0650  3.4499
  558SOL     MW 2232   0.190   2.296   2.987  0.2503 -0.3959 -0.0222
  559SOL     OW 2233   1.053   2.325   2.144 -0.5951 -0.4445  0.7184
  559SOL    HW1 2234   1.147   2.346   2.146 -1.2072  1.4547  4.1485
  559SOL    HW2 2235   1.049   2.249   2.202  0.6518 -1.7512 -2.4241
  559SOL     MW 2236   1.065   2.318   2.152 -0.5113 -0.3664  0.7563
  560SOL     OW 2237   1.936   2.888   0.075 -0.3487 -0.4891  0.2238
  560SOL    HW1 2238   2.003   2.917   0.012  0.7063 -0.7579  2.3294
  560SOL    HW2 2239   1.898   2.806   0.039 -2.0874 -1.1766 -0.8978
  560SOL     MW 2240   1.940   2.881   0.062 -0.4389 -0.6153  0.3536
  561SOL     OW 2241   0.333   2.138   0.093  0.3003  0.2874  0.2867
  561SOL    HW1 2242   0.310   2.164   0.003  2.3363  0.1334  0.2570
  561SOL    HW2 2243   0.392   2.216   0.108 -0.8061  1.3529 -1.2707
  561SOL     MW 2244   0.338   2.152   0.083  0.4230  0.4077  0.0773
  562SOL     OW 2245   0.703   2.220   2.285  0.3878 -0.5394 -0.3259
  562SOL    HW1 2246   0.674   2.308   2.311 -1.0892  2.5576 -1.9101
  562SOL    HW2 2247   0.801   2.204   2.289  0.1769  1.0668  2.1684
  562SOL     MW 2248   0.712   2.229   2.289  0.1651  0.0811 -0.2058
  563SOL     OW 2249   1.238   0.429   0.559  0.2254  0.2464 -0.4157
  563SOL    HW1 2250   1.195   0.361   0.506 -1.5344  0.4507 -0.2268
  563SOL    HW2 2251   1.201   0.403   0.642 -3.3027 -0.9315 -0.4002
  563SOL     MW 2252   1.227   0.417   0.563 -0.4723  0.1180 -0.3888
  564SOL     OW 2253   1.143   2.631   2.382 -0.3718  0.4645  0.3092
  564SOL    HW1 2254   1.148   2.697   2.321 -1.3404 -4.0311  1.4691
  564SOL    HW2 2255   1.139   2.666   2.474 -0.9435  0.1152  1.1250
  564SOL     MW 2256   1.143   2.644   2.386 -0.5750 -0.1748  0.5699
  565SOL     OW 2257   2.733   2.748   2.609  0.1765  0.2548 -0.3127
  565SOL    HW1 2258   2.788   2.822   2.584 -0.4817  1.7430  0.6818
  565SOL    HW2 2259   2.726   2.699   2.529  0.1219  0.3156 -1.4232
  565SOL     MW 2260   2.740   2.751   2.595  0.0825  0.4592 -0.3280
  566SOL     OW 2261   2.129   1.874   2.424  0.5472  0.2754 -0.4765
  566SOL    HW1 2262   2.145   1.817   2.350 -0.6888 -0.1297 -0.0969
  566SOL    HW2 2263   2.197   1.944   2.421  1.1278  2.8696  0.4912
  566SOL     MW 2264   2.140   1.875   2.414  0.4607  0.5643 -0.2987
  567SOL     OW 2265   1.149   3.014   3.045  0.9330  0.1916  0.5654
  567SOL    HW1 2266   1.172   3.043   3.135 -1.0924  1.6196  1.9903
  567SOL    HW2 2267   1.175   2.919   3.038 -0.9654  2.3096  0.0170
  567SOL     MW 2268   1.155   3.006   3.056  0.4153  0.6595  0.6811
  568SOL     OW 2269   1.608   2.049   2.871 -0.7557 -0.2744 -1.3422
  568SOL    HW1 2270   1.639   2.110   2.935  1.3506 -1.0846 -0.0519
  568SOL    HW2 2271   1.694   2.015   2.833  1.4954 -1.5550 -0.2631
  568SOL     MW 2272   1.624   2.053   2.875 -0.1807 -0.5503 -1.0296
  569SOL     OW 2273   0.164   2.295   2.494 -0.2321  0.1017 -0.5280
  569SOL    HW1 2274   0.082   2.322   2.453  0.2625 -0.8541 -2.7349
  569SOL    HW2 2275   0.188   2.376   2.543 -4.5504  0.7341  0.4847
  569SOL     MW 2276   0.157   2.310   2.495 -0.7366  0.0590 -0.6855
  570SOL     OW 2277   1.506   0.347   0.517 -0.1311 -0.1693 -0.7365
  570SOL    HW1 2278   1.412   0.372   0.530 -3.1862  0.1672 -3.2031
  570SOL    HW2 2279   1.545   0.379   0.598 -0.3530 -0.9784  0.2322
  570SOL     MW 2280   1.499   0.354   0.529 -0.5635 -0.2316 -0.9342
  571SOL     OW 2281   1.337   2.365   2.107 -0.1934 -0.3599  0.4442
  571SOL    HW1 2282   1.382   2.405   2.184  0.3228  1.3236 -0.9844
  571SOL    HW2 2283   1.398   2.310   2.053 -1.9277 -2.6784 -0.5463
  571SOL     MW 2284   1.351   2.363   2.110 -0.3541 -0.4437  0.1250
  572SOL     OW 2285   0.987   2.565   0.084 -1.1402 -0.3428 -0.0978
  572SOL    HW1 2286   0.955   2.658   0.090 -0.8418 -1.4827  0.5019
  572SOL    HW2 2287   0.923   2.514   0.129  0.6427  1.0844 -0.8513
  572SOL     MW 2288   0.974   2.570   0.091 -0.8656 -0.3049 -0.1181
  573SOL     OW 2289   1.194   2.310   0.198 -0.1768 -0.2139  0.1993
  573SOL    HW1 2290   1.284   2.302   0.161  0.1691 -1.5733 -1.4574
  573SOL    HW2 2291   1.206   2.403   0.233 -0.8011 -1.8875  0.0129
  573SOL     MW 2292   1.208   2.321   0.198 -0.2135 -0.6141 -0.0439
  574SOL     OW 2293   1.142   2.542   0.307 -1.0326 -0.4045 -0.2552
  574SOL    HW1 2294   1.222   2.606   0.310  0.7398  1.1240  1.3034
  574SOL    HW2 2295   1.092   2.560   0.225 -1.1674  3.4828 -0.3789
  574SOL     MW 2296   1.146   2.553   0.297 -0.8165  0.3101 -0.0659
  575SOL     OW 2297   3.033   2.223   1.746 -0.2095  0.3010  0.3489
  575SOL    HW1 2298   3.075   2.137   1.724 -0.8300 -1.4793 -2.5379
  575SOL    HW2 2299   3.101   2.282   1.767 -0.9545  1.9887 -2.8523
  575SOL     MW 2300   3.047   2.219   1.746 -0.3896  0.2888 -0.4544
  576SOL     OW 2301   2.847   1.826   2.019  0.2711  0.2605  0.0048
  576SOL    HW1 2302   2.872   1.917   1.994 -0.6480  0.3024 -0.5777
  576SOL    HW2 2303   2.756   1.830   1.998  2.7701 -0.6099  2.4815
  576SOL     MW 2304   2.838   1.838   2.013  0.4796  0.1512  0.2547
  577SOL     OW 2305   2.080   0.227   0.109  0.0265 -0.0364 -0.2732
  577SOL    HW1 2306   2.025   0.239   0.033 -1.5987 -2.2136  1.4904
  577SOL    HW2 2307   2.051   0.154   0.166  1.8341  0.4421 -1.4140
  577SOL     MW 2308   2.069   0.219   0.107  0.0506 -0.2605 -0.1910
  578SOL     OW 2309   1.915   2.038   2.422 -0.3769  0.3608  0.4231
  578SOL    HW1 2310   1.830   2.027   2.369  1.5979 -0.8250  2.5307
  578SOL    HW2 2311   1.977   1.968   2.406 -0.2809  0.7539  1.2639
  578SOL     MW 2312   1.912   2.028   2.413 -0.1037  0.2562  0.8121
  579SOL     OW 2313   0.909   2.422   2.468 -0.8495 -0.3864  0.3900
  579SOL    HW1 2314   0.955   2.386   2.550 -0.4635  0.6557 -0.0941
  579SOL    HW2 2315   0.976   2.479   2.437  0.7192  3.9597  0.3195
  579SOL     MW 2316   0.924   2.425   2.475 -0.5916  0.3245  0.3168
  580SOL     OW 2317   0.942   2.846   0.027  0.0562  0.1079 -0.0175
  580SOL    HW1 2318   1.011   2.909   0.036 -0.1531 -0.4965  0.8797
  580SOL    HW2 2319   0.938   2.821  -0.065  0.0767 -0.7279 -1.3020
  580SOL     MW 2320   0.951   2.851   0.016  0.0312 -0.0821 -0.0686
  581SOL     OW 2321   1.145   2.502   1.680 -0.1585  0.0660 -0.0881
  581SOL    HW1 2322   1.204   2.536   1.743  0.6589  1.0059  0.5559
  581SOL    HW2 2323   1.200   2.428   1.640  1.7590  0.1877  2.6600
  581SOL     MW 2324   1.160   2.497   1.683  0.2023  0.2061  0.3595
  582SOL     OW 2325   0.047   2.807   2.745  0.1946  0.0324  0.5676
  582SOL    HW1 2326  -0.009   2.889   2.751  1.0189  1.2814  1.4633
  582SOL    HW2 2327   0.134   2.836   2.718  1.5753 -1.2050  1.5795
  582SOL     MW 2328   0.051   2.821   2.742  0.4856  0.0339  0.8193
  583SOL     OW 2329   2.004   2.436   2.690  0.2358 -0.1175 -0.5115
  583SOL    HW1 2330   2.077   2.453   2.627  0.9181 -1.1746  2.2086
  583SOL    HW2 2331   2.001   2.344   2.694  0.7967  2.7539  3.1623
  583SOL     MW 2332   2.013   2.426   2.682  0.3998  0.1218  0.3321
  584SOL     OW 2333   0.055   1.900   2.229  0.2530  0.1491 -0.0612
  584SOL    HW1 2334   0.101   1.832   2.286  0.1331 -2.0664  0.8741
  584SOL    HW2 2335   0.101   1.981   2.248 -2.1552  2.4183 -0.8453
  584SOL     MW 2336   0.067   1.902   2.239 -0.0806  0.1562 -0.0412
  585SOL     OW 2337   1.574   2.608   0.173  0.2803  0.8629 -0.4079
  585SOL    HW1 2338   1.528   2.570   0.101 -0.4077 -1.6623 -1.4889
  585SOL    HW2 2339   1.502   2.622   0.236 -2.5701  1.3790 -0.3226
  585SOL     MW 2340   1.559   2.605   0.172 -0.1865  0.5978 -0.5392
  586SOL     OW 2341   1.397   2.821   2.587 -0.0812 -0.0827 -0.1112
  586SOL    HW1 2342   1.417   2.793   2.497  0.7207  1.3218 -2.0796
  586SOL    HW2 2343   1.371   2.911   2.586 -5.0319 -0.3090  1.5586
  586SOL     MW 2344   1.396   2.829   2.575 -0.6286  0.0727 -0.1506
  587SOL     OW 2345   1.372   1.496   2.149 -0.1010 -0.5758 -0.0906
  587SOL    HW1 2346   1.333   1.426   2.200  1.5643 -2.5879  0.0919
  587SOL    HW2 2347   1.411   1.447   2.074 -0.4188 -1.2353 -0.2896
  587SOL     MW 2348   1.372   1.480   2.146  0.0768 -0.9283 -0.0928
  588SOL     OW 2349   1.369   2.027   2.670  0.3303 -0.1836 -0.6050
  588SOL    HW1 2350   1.376   1.933   2.674  0.7030 -0.9649 -1.6505
  588SOL    HW2 2351   1.342   2.055   2.760  1.1476  2.6351  0.3403
  588SOL     MW 2352   1.366   2.018   2.683  0.4873  0.0852 -0.6182
  589SOL     OW 2353   1.415   2.006   0.035  0.5968 -0.4133 -0.4032
  589SOL    HW1 2354   1.427   2.094   0.071  0.1257  0.3577 -1.2561
  589SOL    HW2 2355   1.352   1.963   0.096  1.4057  0.1149 -1.3890
  589SOL     MW 2356   1.408   2.012   0.048  0.6414 -0.2419 -0.6458
  590SOL     OW 2357   0.490   2.764   2.186 -0.1339 -0.2898 -0.0967
  590SOL    HW1 2358   0.481   2.750   2.089  1.9759 -0.9191  0.2961
  590SOL    HW2 2359   0.583   2.788   2.195  0.4457  0.8085 -2.4176
  590SOL     MW 2360   0.501   2.765   2.174  0.2209 -0.2279 -0.3511
  591SOL     OW 2361   2.259   0.685   0.035 -0.0128  0.3717  0.0960
  591SOL    HW1 2362   2.198   0.732  -0.018 -1.8155  2.4495  1.5689
  591SOL    HW2 2363   2.341   0.706  -0.015  3.1998  0.3001  2.2792
  591SOL     MW 2364   2.262   0.694   0.022  0.1732  0.6364  0.5784
  592SOL     OW 2365   1.737   2.932   0.754 -0.3177 -0.6167  0.7337
  592SOL    HW1 2366   1.770   2.991   0.688  0.9953  0.6436 -0.1951
  592SOL    HW2 2367   1.807   2.931   0.820  1.8831 -1.7412 -1.3571
  592SOL     MW 2368   1.750   2.939   0.754  0.1459 -0.5988  0.3353
  593SOL     OW 2369   1.963   0.689   0.829  0.0817  0.0865 -0.4123
  593SOL    HW1 2370   1.869   0.683   0.806 -1.1833 -0.2470  0.3076
  593SOL    HW2 2371   2.014   0.621   0.785  0.9287  0.2492 -1.0519
  593SOL     MW 2372   1.957   0.679   0.820  0.0265  0.0640 -0.4017
  594SOL     OW 2373   2.781   1.087   1.403 -0.1398 -0.7021 -0.2954
  594SOL    HW1 2374   2.872   1.093   1.397 -1.1071 -1.7272 -0.9076
  594SOL    HW2 2375   2.743   1.071   1.318 -0.2456  0.9809  1.2277
  594SOL     MW 2376   2.788   1.086   1.391 -0.2814 -0.6153 -0.1752
  595SOL     OW 2377   0.466   0.927   0.821 -0.0633 -0.3417 -0.0591
  595SOL    HW1 2378   0.476   1.009   0.767 -0.2018  0.2741  1.2668
  595SOL    HW2 2379   0.464   0.948   0.917 -1.7600  0.2681 -1.6855
  595SOL     MW 2380   0.467   0.941   0.827 -0.3055 -0.1800 -0.0987
  596SOL     OW 2381   2.471   1.326   0.512 -0.2579  0.2857 -0.0003
  596SOL    HW1 2382   2.534   1.390   0.487 -0.5284  1.0472  2.0303
  596SOL    HW2 2383   2.496   1.296   0.594  1.5515  2.3342 -0.3065
  596SOL     MW 2384   2.482   1.331   0.520 -0.0549  0.6564  0.2273
  597SOL     OW 2385   2.177   0.667   1.616  0.7436  0.2334  0.2888
  597SOL    HW1 2386   2.230   0.614   1.676  2.6584  0.0523  1.1612
  597SOL    HW2 2387   2.102   0.611   1.584 -3.2864 -1.6002 -0.6525
  597SOL     MW 2388   2.174   0.652   1.620  0.4645 -0.0324  0.2797
  598SOL     OW 2389   2.575   1.057   2.864 -0.0384 -0.0012  0.3792
  598SOL    HW1 2390   2.603   0.977   2.821  1.5661  0.4968 -2.9996
  598SOL    HW2 2391   2.649   1.118   2.856 -0.8804  1.4391  3.7234
  598SOL     MW 2392   2.589   1.055   2.857  0.0622  0.2545  0.3747
  599SOL     OW 2393   2.983   0.430   2.155 -0.2863  0.6213  0.1264
  599SOL    HW1 2394   3.023   0.440   2.240 -1.1551 -3.0156 -1.4985
  599SOL    HW2 2395   3.022   0.503   2.109  0.9529 -1.0664 -0.2154
  599SOL     MW 2396   2.994   0.441   2.160 -0.2374 -0.0813 -0.1331
  600SOL     OW 2397   1.852   1.622   0.898  0.2109 -0.1893 -0.0186
  600SOL    HW1 2398   1.927   1.661   0.944  0.8136 -0.5094 -1.7457
  600SOL    HW2 2399   1.808   1.696   0.860  1.2740  0.9220 -1.1496
  600SOL     MW 2400   1.856   1.637   0.899  0.4307 -0.0849 -0.3957
  601SOL     OW 2401   2.545   0.722   0.812  0.6615  0.1173  0.2455
  601SOL    HW1 2402   2.544   0.734   0.911 -0.9181  0.6622  1.5118
  601SOL    HW2 2403   2.471   0.669   0.780 -1.4615 -0.7134 -3.0656
  601SOL     MW 2404   2.535   0.717   0.821  0.1730  0.0796 -0.0243
  602SOL     OW 2405   2.310   1.925   0.768  0.0977 -0.2727  0.2661
  602SOL    HW1 2406   2.251   1.847   0.765 -1.9615 -0.6468  0.7509
  602SOL    HW2 2407   2.263   1.990   0.716  0.8838  1.0028 -1.5523
  602SOL     MW 2408   2.296   1.924   0.761 -0.0703 -0.1538  0.0901
  603SOL     OW 2409   2.976   1.366   1.981 -0.2996 -0.6235  0.2528
  603SOL    HW1 2410   3.063   1.400   2.001  1.4901  1.2451  2.0767
  603SOL    HW2 2411   2.993   1.277   1.996 -3.2668 -1.0257  1.1071
  603SOL     MW 2412   2.990   1.359   1.986 -0.4549 -0.4300  0.6061
  604SOL     OW 2413   2.029   1.464   0.443  0.2493 -0.1841 -0.3322
  604SOL    HW1 2414   2.067   1.385   0.495  1.4672 -0.3994  1.6946
  604SOL    HW2 2415   1.967   1.504   0.502 -2.7609  0.4552 -0.7489
  604SOL     MW 2416   2.026   1.459   0.457  0.0128 -0.1282 -0.1198
  605SOL     OW 2417   2.499   1.489   0.898 -0.6426  0.2672 -0.1123
  605SOL    HW1 2418   2.505   1.544   0.816  0.8301 -0.1004  2.3442
  605SOL    HW2 2419   2.521   1.399   0.866  2.5767 -1.7406  1.7456
  605SOL     MW 2420   2.503   1.485   0.883 -0.0236 -0.0462  0.4570
  606SOL     OW 2421   2.567   1.813   1.961  0.5192  0.1194 -0.8534
  606SOL    HW1 2422   2.473   1.818   1.951  0.3925  0.8108  0.1495
  606SOL    HW2 2423   2.598   1.730   1.921 -0.1575  0.9784  1.3098
  606SOL     MW 2424   2.558   1.803   1.954  0.4132  0.3240 -0.4357
  607SOL     OW 2425   2.375   0.987   3.032  0.2417  0.5496  0.0551
  607SOL    HW1 2426   2.445   1.026   2.984  2.1094  0.8657  0.4272
  607SOL    HW2 2427   2.404   0.985   3.125  3.9136 -2.9734 -0.2566
  607SOL     MW 2428   2.388   0.992   3.038  0.9726  0.1265  0.0630
  608SOL     OW 2429   1.846   0.258   0.534  0.3896  0.0517  0.1659
  608SOL    HW1 2430   1.824   0.308   0.458 -1.6511 -0.3397 -1.1935
  608SOL    HW2 2431   1.821   0.173   0.504 -2.0524 -0.6285 -1.6421
  608SOL     MW 2432   1.840   0.253   0.520 -0.2018 -0.0897 -0.2520
  609SOL     OW 2433   2.136   1.930   3.032  0.0006  0.3616  0.2989
  609SOL    HW1 2434   2.043   1.912   2.998 -0.4594  2.5184  1.0740
  609SOL    HW2 2435   2.128   1.896   3.126  0.0795 -0.8200  1.1068
  609SOL     MW 2436   2.123   1.923   3.040 -0.0496  0.4902  0.5078
  610SOL     OW 2437   1.790   0.946   1.226 -0.1497 -0.0862 -0.7422
  610SOL    HW1 2438   1.820   0.860   1.186 -0.7696 -0.8968  1.6222
  610SOL    HW2 2439   1.691   0.952   1.212  1.8289 -1.7469 -0.3845
  610SOL     MW 2440   1.781   0.935   1.219  0.0295 -0.4123 -0.3831
  611SOL     OW 2441   2.465   1.660   0.693 -0.7008  0.0653 -0.1468
  611SOL    HW1 2442   2.469   1.698   0.603  0.3885  0.2349 -0.2104
  611SOL    HW2 2443   2.368   1.660   0.711 -0.9244  2.7319  1.2140
  611SOL     MW 2444   2.453   1.665   0.683 -0.5866  0.4395  0.0243
  612SOL     OW 2445   2.866   2.950   0.358  0.9332 -0.0403 -0.7795
  612SOL    HW1 2446   2.878   2.975   0.454 -0.0819  0.4846  0.6019
  612SOL    HW2 2447   2.938   2.899   0.329 -0.8705 -0.6551 -0.0965
  612SOL     MW 2448   2.877   2.947   0.367  0.5613 -0.0521 -0.5071
  613SOL     OW 2449   1.497   1.048   0.950  0.5163  0.0894  0.2128
  613SOL    HW1 2450   1.508   1.129   0.999 -0.8598  1.0905  1.6011
  613SOL    HW2 2451   1.516   0.979   1.008  2.6757  1.2506  1.0259
  613SOL     MW 2452   1.501   1.049   0.964  0.6197  0.3747  0.5033
  614SOL     OW 2453   2.008   0.509   1.437  0.4645 -0.4421 -0.9540
  614SOL    HW1 2454   2.002   0.426   1.489 -1.1489  2.7135 -0.9962
  614SOL    HW2 2455   1.920   0.503   1.395 -0.1189  1.6560  0.2729
  614SOL     MW 2456   1.995   0.497   1.438  0.1747  0.2511 -0.7977
  615SOL     OW 2457   2.401   0.717   0.297 -0.0228 -0.2002  0.1398
  615SOL    HW1 2458   2.486   0.669   0.273  4.2530  0.6404 -0.9061
  615SOL    HW2 2459   2.350   0.721   0.212 -0.0857 -1.6071 -0.7411
  615SOL     MW 2460   2.405   0.711   0.283  0.5331 -0.2749 -0.1144
  616SOL     OW 2461   2.497   0.451   1.621 -0.1011 -0.1335 -0.5676
  616SOL    HW1 2462   2.584   0.408   1.603  1.2602  2.1407  3.2400
  616SOL    HW2 2463   2.475   0.508   1.550 -0.9030 -0.8178 -1.2655
  616SOL     MW 2464   2.506   0.453   1.610 -0.0273  0.0763 -0.1573
  617SOL     OW 2465   2.857   0.625   1.746  0.3757  0.0626  1.0299
  617SOL    HW1 2466   2.783   0.639   1.809 -0.9049 -0.1250  1.9153
  617SOL    HW2 2467   2.864   0.531   1.738  0.1415  0.5244 -2.7557
  617SOL     MW 2468   2.848   0.614   1.753  0.1758  0.0987  0.6472
  618SOL     OW 2469   2.725   0.353   2.021  0.1004 -0.7431 -0.0535
  618SOL    HW1 2470   2.688   0.443   1.993  2.1908 -2.6089 -1.9330
  618SOL    HW2 2471   2.813   0.373   2.058  0.6972 -0.7866  2.0418
  618SOL     MW 2472   2.732   0.367   2.022  0.4549 -0.9950 -0.0251
  619SOL     OW 2473   2.629   0.709   0.076  0.0452  0.1179  0.0974
  619SOL    HW1 2474   2.702   0.773   0.104 -0.2632  0.6406  2.3483
  619SOL    HW2 2475   2.637   0.633   0.132 -0.9069  0.4597 -1.3648
  619SOL     MW 2476   2.640   0.707   0.087 -0.1211  0.2320  0.2014
  620SOL     OW 2477   2.253   1.085   0.922  0.1267  0.0173  0.1366
  620SOL    HW1 2478   2.329   1.036   0.885 -3.3338 -3.0316 -0.9396
  620SOL    HW2 2479   2.183   1.027   0.890 -1.1002  0.0794 -1.5482
  620SOL     MW 2480   2.254   1.071   0.913 -0.4918 -0.3768 -0.2277
  621SOL     OW 2481   1.494   2.226   1.945 -0.3993 -0.2889 -0.3771
  621SOL    HW1 2482   1.441   2.154   1.972  1.9144  0.6876  1.1065
  621SOL    HW2 2483   1.579   2.198   1.984 -0.3865 -0.3792 -0.4613
  621SOL     MW 2484   1.498   2.213   1.954 -0.0923 -0.1719 -0.1925
  622SOL     OW 2485   2.625   0.251   0.290  0.6307  0.3757  0.1084
  622SOL    HW1 2486   2.719   0.282   0.287  0.7086 -0.8452  1.4734
  622SOL    HW2 2487   2.639   0.159   0.309 -3.0185  1.5366  2.0254
  622SOL     MW 2488   2.639   0.243   0.292  0.1595  0.3678  0.5414
  623SOL     OW 2489   2.427   2.735   0.881 -0.5167  0.4277  0.1184
  623SOL    HW1 2490   2.480   2.809   0.866 -1.3567 -2.5996  0.9088
  623SOL    HW2 2491   2.397   2.755   0.966  1.8417 -0.4624  2.5198
  623SOL     MW 2492   2.430   2.747   0.890 -0.3164 -0.0891  0.5395
  624SOL     OW 2493   2.144   1.605   3.046  0.4046 -0.2007 -0.0480
  624SOL    HW1 2494   2.086   1.530   3.035  2.8835  1.1445  1.2496
  624SOL    HW2 2495   2.108   1.669   2.979  1.3471  0.5621  0.4666
  624SOL     MW 2496   2.131   1.604   3.036  0.8560  0.0774  0.1911
  625SOL     OW 2497   2.251   1.900   1.080  0.1642 -0.2335 -0.8689
  625SOL    HW1 2498   2.300   1.842   1.144 -1.8145 -1.0856 -0.0843
  625SOL    HW2 2499   2.292   1.898   0.996 -0.2778 -0.0831  0.4815
  625SOL     MW 2500   2.263   1.892   1.077 -0.1552 -0.3261 -0.5872
  626SOL     OW 2501   0.191   1.812   2.443 -0.9407 -0.0118  0.2918
  626SOL    HW1 2502   0.143   1.734   2.471 -0.1394 -1.7566 -1.2774
  626SOL    HW2 2503   0.150   1.892   2.488 -0.0114  1.4733 -1.3285
  626SOL     MW 2504   0.179   1.812   2.453 -0.7124 -0.0461 -0.1290
  627SOL     OW 2505   2.536   0.801   2.561 -0.2883  0.2999 -0.3633
  627SOL    HW1 2506   2.457   0.850   2.582  0.3762  0.8570 -0.9144
  627SOL    HW2 2507   2.511   0.745   2.485  0.6931  2.7294 -0.2289
  627SOL     MW 2508   2.522   0.800   2.554 -0.0712  0.6940 -0.4183
  628SOL     OW 2509   2.228   1.365   1.345 -0.1734 -0.2328  0.1553
  628SOL    HW1 2510   2.184   1.293   1.300 -0.0585 -0.5739 -2.5840
  628SOL    HW2 2511   2.297   1.391   1.284  0.4643  2.0153 -1.1860
  628SOL     MW 2512   2.231   1.359   1.331 -0.0741  0.0188 -0.3831
  629SOL     OW 2513   1.779   0.477   1.295 -0.5362  0.3147  0.4063
  629SOL    HW1 2514   1.778   0.564   1.243  1.5341  2.6172 -0.5778
  629SOL    HW2 2515   1.686   0.454   1.284 -0.1316  1.1904 -0.4151
  629SOL     MW 2516   1.767   0.486   1.287 -0.2097  0.7341  0.1681
  630SOL     OW 2517   2.419   1.864   2.988 -0.3935 -0.0250  0.1518
  630SOL    HW1 2518   2.425   1.960   2.951  0.3519  2.6917  0.6710
  630SOL    HW2 2519   2.328   1.864   3.020  0.8003  2.2367 -0.0646
  630SOL     MW 2520   2.408   1.877   2.988 -0.1376  0.6318  0.1917
  631SOL     OW 2521   2.064   1.675   1.538 -0.0987  0.9518 -0.2567
  631SOL    HW1 2522   2.075   1.591   1.588  0.5306 -0.7836 -1.9189
  631SOL    HW2 2523   1.971   1.702   1.544  1.7069 -1.8093  2.4606
  631SOL     MW 2524   2.053   1.668   1.545  0.2226  0.3585 -0.1175
  632SOL     OW 2525   0.262   1.945   1.498  0.3934  0.2386  0.0653
  632SOL    HW1 2526   0.171   1.966   1.541 -0.0414 -0.4906 -0.2206
  632SOL    HW2 2527   0.292   1.854   1.520 -0.0773  0.7067 -0.3882
  632SOL     MW 2528   0.254   1.936   1.507  0.2739  0.2042 -0.0322
  633SOL     OW 2529   2.625   0.544   0.283  0.4441 -0.1325  0.1559
  633SOL    HW1 2530   2.669   0.552   0.369 -0.4463  3.9720 -0.9797
  633SOL    HW2 2531   2.597   0.447   0.279  0.0523  0.2937 -0.8636
  633SOL     MW 2532   2.627   0.532   0.294  0.2749  0.4653 -0.1284
  634SOL     OW 2533   2.685   3.051   0.614 -0.2760  0.0966  0.0994
  634SOL    HW1 2534   2.714   3.143   0.638 -2.5942 -0.9913 -1.8022
  634SOL    HW2 2535   2.643   3.062   0.526  2.6631 -1.2412 -1.7083
  634SOL     MW 2536   2.683   3.064   0.606 -0.1941 -0.2234 -0.3900
  635SOL     OW 2537   2.614   0.127   1.862  0.4830 -0.2546  0.5363
  635SOL    HW1 2538   2.674   0.100   1.792  2.3839  0.1722  0.4144
  635SOL    HW2 2539   2.647   0.219   1.880  1.7178  2.0117  0.0313
  635SOL     MW 2540   2.627   0.135   1.855  0.8967  0.1007  0.4536
  636SOL     OW 2541   2.769   1.601   0.871 -0.1824 -0.4617  0.3630
  636SOL    HW1 2542   2.692   1.553   0.895 -2.3533  0.0135 -4.5457
  636SOL    HW2 2543   2.741   1.693   0.889 -1.2883 -0.9509  1.2222
  636SOL     MW 2544   2.755   1.607   0.876 -0.6147 -0.4635 -0.1712
  637SOL     OW 2545   2.879   1.542   0.640 -0.3246 -0.3142  0.1728
  637SOL    HW1 2546   2.952   1.603   0.616  0.0785  2.2962  1.7329
  637SOL    HW2 2547   2.832   1.584   0.713  0.5955 -0.4792 -0.9004
  637SOL     MW 2548   2.882   1.556   0.646 -0.1500  0.0084  0.2370
  638SOL     OW 2549   2.727   0.506   0.526  0.8806  0.0466  0.0736
  638SOL    HW1 2550   2.816   0.537   0.502  1.4332 -2.4701 -0.1414
  638SOL    HW2 2551   2.732   0.531   0.622 -1.9663  2.0887 -1.0650
  638SOL     MW 2552   2.739   0.513   0.536  0.5779 -0.0160 -0.1050
  639SOL     OW 2553   1.754   3.093   0.527 -0.3088  0.1141 -0.3161
  639SOL    HW1 2554   1.661   3.130   0.515  0.3434 -2.1300  0.0793
  639SOL    HW2 2555   1.760   3.000   0.492  1.2159 -0.5779  0.3341
  639SOL     MW 2556   1.743   3.086   0.521 -0.0216 -0.2733 -0.1782
  640SOL     OW 2557   0.351   1.347   0.079  0.4490  0.3082  0.2287
  640SOL    HW1 2558   0.377   1.350  -0.016  0.0368 -1.5109  0.9031
  640SOL    HW2 2559   0.368   1.253   0.102  1.3824 -1.2718 -2.1831
  640SOL     MW 2560   0.357   1.335   0.070  0.5178 -0.1403 -0.0005
  641SOL     OW 2561   2.216   0.413   0.351 -0.2032 -0.3149 -0.5436
  641SOL    HW1 2562   2.254   0.433   0.263  1.6994 -3.0258 -2.1697
  641SOL    HW2 2563   2.262   0.336   0.375 -3.2971 -3.2428  0.5231
  641SOL     MW 2564   2.227   0.406   0.343 -0.3604 -1.0589 -0.6174
  642SOL     OW 2565   0.085   0.025   0.501  0.0088  0.1786  0.1712
  642SOL    HW1 2566   0.058   0.105   0.456  0.7135 -4.6789  0.0629
  642SOL    HW2 2567   0.009  -0.007   0.557 -1.0523 -1.7960  1.5145
  642SOL     MW 2568   0.072   0.031   0.502 -0.0382 -0.7228  0.3341
  643SOL     OW 2569   2.054   0.323   1.706  0.2666  0.0876 -0.1954
  643SOL    HW1 2570   1.973   0.297   1.747  1.2191 -1.3041 -2.6186
  643SOL    HW2 2571   2.083   0.255   1.641  1.9791 -0.0537  2.4741
  643SOL     MW 2572   2.047   0.311   1.703  0.6182 -0.1147 -0.1629
  644SOL     OW 2573   2.676   1.861   0.984  0.0944  0.7671  0.0928
  644SOL    HW1 2574   2.688   1.796   1.048 -1.6817  1.2191 -2.2745
  644SOL    HW2 2575   2.588   1.898   0.995 -0.8470  1.8901  1.8222
  644SOL     MW 2576   2.666   1.858   0.994 -0.2641  0.9749  0.0086
  645SOL     OW 2577   2.844   0.811   0.745 -0.3136  0.2647 -0.6505
  645SOL    HW1 2578   2.912   0.752   0.738 -1.5666  0.9416 -0.3633
  645SOL    HW2 2579   2.762   0.771   0.728  0.4137  1.0488  1.2672
  645SOL     MW 2580   2.842   0.798   0.742 -0.3830  0.4575 -0.3596
  646SOL     OW 2581   0.076   2.314   0.831  0.7539 -0.1808  0.1474
  646SOL    HW1 2582   0.104   2.225   0.848 -1.1360  0.3398  2.3235
  646SOL    HW2 2583   0.043   2.297   0.740 -2.0345  0.2549  0.1924
  646SOL     MW 2584   0.076   2.300   0.821  0.1366 -0.0546  0.4405
  647SOL     OW 2585   2.703   0.510   3.008 -0.1687  0.3182  0.4895
  647SOL    HW1 2586   2.643   0.450   3.050  0.4857 -0.2960 -0.3023
  647SOL    HW2 2587   2.695   0.590   3.061 -1.7397  0.9949 -0.3839
  647SOL     MW 2588   2.694   0.512   3.021 -0.2896  0.3265  0.2698
  648SOL     OW 2589   2.263   0.738   1.106  0.2227 -0.4514 -0.6682
  648SOL    HW1 2590   2.248   0.649   1.130  5.2600  0.5554 -0.9650
  648SOL    HW2 2591   2.224   0.784   1.178 -0.3737 -1.3937  1.0679
  648SOL     MW 2592   2.256   0.733   1.119  0.8087 -0.4429 -0.4783
  649SOL     OW 2593   2.425   2.732   1.270 -0.0102  0.2963 -0.6522
  649SOL    HW1 2594   2.511   2.773   1.278  1.2958 -0.4462  0.0070
  649SOL    HW2 2595   2.441   2.656   1.208  1.9450  0.9520 -3.3483
  649SOL     MW 2596   2.438   2.727   1.263  0.4201  0.2848 -0.9210
  650SOL     OW 2597   2.766   0.193   0.645 -0.1336 -0.0115  0.3641
  650SOL    HW1 2598   2.758   0.278   0.684  1.0605  0.5889 -0.4469
  650SOL    HW2 2599   2.847   0.201   0.589  0.4968 -0.9695  0.2404
  650SOL     MW 2600   2.775   0.205   0.643  0.1071 -0.0587  0.2408
  651SOL     OW 2601   3.098   0.455   0.997 -0.0507 -0.0021  0.1776
  651SOL    HW1 2602   3.170   0.509   0.956 -2.5477  1.1205 -0.5993
  651SOL    HW2 2603   3.033   0.521   1.021  0.7170  2.1287  0.4645
  651SOL     MW 2604   3.099   0.471   0.995 -0.2789  0.4272  0.1130
  652SOL     OW 2605   2.373   1.428   3.003 -0.8575 -0.6377 -0.2487
  652SOL    HW1 2606   2.419   1.462   2.928 -1.1871 -1.0082 -0.2278
  652SOL    HW2 2607   2.300   1.482   3.017  1.0933 -1.9606 -0.6108
  652SOL     MW 2608   2.369   1.440   2.995 -0.6436 -0.8612 -0.2937
  653SOL     OW 2609   1.788   0.427   0.312 -0.4730 -0.0621 -0.3188
  653SOL    HW1 2610   1.773   0.346   0.264 -0.5245 -1.2890 -1.8021
  653SOL    HW2 2611   1.875   0.459   0.295 -0.2941 -0.5027  3.0159
  653SOL     MW 2612   1.797   0.421   0.304 -0.4562 -0.2821 -0.0745
  654SOL     OW 2613   2.425   0.964   0.753 -0.1867 -0.4258 -0.0654
  654SOL    HW1 2614   2.385   0.964   0.661 -1.3428 -0.5387  0.4201
  654SOL    HW2 2615   2.482   0.879   0.754  1.1776  0.6817  1.1044
  654SOL     MW 2616   2.427   0.953   0.741 -0.1592 -0.2946  0.1530
  655SOL     OW 2617   2.894   0.885   0.390  0.5553  0.3139 -0.0619
  655SOL    HW1 2618   2.863   0.931   0.466 -2.6629  0.1274 -1.3305
  655SOL    HW2 2619   2.929   0.803   0.418  1.9405  1.8023  1.5225
  655SOL     MW 2620   2.895   0.880   0.404  0.3135  0.4857 -0.0202
  656SOL     OW 2621   1.774   2.652   1.376  0.0978  0.4997  0.1424
  656SOL    HW1 2622   1.798   2.746   1.375 -1.1532  1.3810 -1.2929
  656SOL    HW2 2623   1.837   2.605   1.324 -0.4614  0.3515  1.8825
  656SOL     MW 2624   1.785   2.658   1.369 -0.1410  0.5964  0.1826
  657SOL     OW 2625   0.122   1.767   1.171  0.4391  0.8910  0.6288
  657SOL    HW1 2626   0.203   1.813   1.167 -1.5047 -0.6189  0.1432
  657SOL    HW2 2627   0.141   1.677   1.199 -0.7819 -0.3865  1.0360
  657SOL     MW 2628   0.135   1.761   1.174  0.0215  0.5232  0.6184
  658SOL     OW 2629   2.698   1.331   0.247  0.9668 -0.1530  0.1472
  658SOL    HW1 2630   2.667   1.256   0.297  1.7875  3.0738 -1.3466
  658SOL    HW2 2631   2.719   1.400   0.311 -0.0562 -1.1872  2.1188
  658SOL     MW 2632   2.696   1.330   0.262  0.9401  0.1363  0.2102
  659SOL     OW 2633   2.193   1.549   0.996 -0.2210 -0.0501  0.0506
  659SOL    HW1 2634   2.285   1.535   1.004 -1.1163 -1.3649 -0.2150
  659SOL    HW2 2635   2.166   1.540   1.083 -2.2022 -3.4225  0.6853
  659SOL     MW 2636   2.202   1.546   1.009 -0.6006 -0.6685  0.0993
  660SOL     OW 2637   2.098   1.460   1.700 -0.1008 -0.4827 -0.2516
  660SOL    HW1 2638   2.104   1.501   1.789  1.1796  2.5256  1.5796
  660SOL    HW2 2639   2.012   1.415   1.690 -2.6649 -0.4714  0.5759
  660SOL     MW 2640   2.088   1.459   1.710 -0.2702 -0.0843  0.0992
  661SOL     OW 2641   2.448   0.972   0.210 -0.7832  0.4650  0.3982
  661SOL    HW1 2642   2.514   1.002   0.276  3.7393  1.8533 -0.5756
  661SOL    HW2 2643   2.423   0.886   0.247 -2.5084 -3.0282  2.5420
  661SOL     MW 2644   2.454   0.964   0.223 -0.4141  0.1872  0.5526
  662SOL     OW 2645   2.598   2.959   0.863 -0.2109 -0.1360  0.5748
  662SOL    HW1 2646   2.543   3.031   0.894  1.0891 -1.4699  0.1257
  662SOL    HW2 2647   2.617   2.985   0.768 -1.6356 -3.0836 -1.4260
  662SOL     MW 2648   2.593   2.972   0.854 -0.2273 -0.7009  0.2515
  663SOL     OW 2649   2.688   1.513   0.444 -0.1478  0.7176 -0.2040
  663SOL    HW1 2650   2.652   1.588   0.388 -0.6807  0.5368 -3.2909
  663SOL    HW2 2651   2.755   1.553   0.502  2.2531  1.4155  0.1770
  663SOL     MW 2652   2.692   1.528   0.445  0.0987  0.7858 -0.5610
  664SOL     OW 2653   2.543   1.525   1.621 -0.4151  0.7364 -0.3359
  664SOL    HW1 2654   2.533   1.610   1.587  0.5743 -0.4186 -0.1406
  664SOL    HW2 2655   2.464   1.482   1.616  0.9606  5.2207 -1.4954
  664SOL     MW 2656   2.531   1.530   1.616 -0.1030  1.1757 -0.4631
  665SOL     OW 2657   2.780   0.772   2.089  0.3289  0.0049 -0.1875
  665SOL    HW1 2658   2.763   0.829   2.009 -1.6560  0.1340  0.7556
  665SOL    HW2 2659   2.865   0.736   2.071  0.1810  1.1293 -4.2039
  665SOL     MW 2660   2.789   0.775   2.076  0.0475  0.1703 -0.5930
  666SOL     OW 2661   2.771   3.048   1.713 -0.0698 -0.4628 -0.2494
  666SOL    HW1 2662   2.778   3.038   1.618 -3.3658  3.1738 -0.4735
  666SOL    HW2 2663   2.738   2.964   1.742  1.2854 -0.1728  1.5893
  666SOL     MW 2664   2.768   3.036   1.704 -0.3259  0.0553 -0.0363
  667SOL     OW 2665   1.999   2.698   1.746  0.3438 -0.5193  0.6244
  667SOL    HW1 2666   2.018   2.655   1.830 -1.2584  2.2678  2.7988
  667SOL    HW2 2667   2.064   2.767   1.727  1.4144  0.0918 -0.2678
  667SOL     MW 2668   2.010   2.702   1.754  0.2736 -0.0709  0.7936
  668SOL     OW 2669   2.745   0.545   0.815  0.4067  0.7736  0.2048
  668SOL    HW1 2670   2.813   0.576   0.887  1.2214 -0.7739  1.9732
  668SOL    HW2 2671   2.677   0.615   0.833  0.3714 -0.3115 -3.0754
  668SOL     MW 2672   2.745   0.559   0.827  0.5095  0.4263  0.0053
  669SOL     OW 2673   0.166   0.885   0.784  0.6692  0.7853 -0.3383
  669SOL    HW1 2674   0.160   0.983   0.790  0.5274 -0.3605  1.6999
  669SOL    HW2 2675   0.179   0.871   0.878 -2.3644 -0.2639 -0.4774
  669SOL     MW 2676   0.167   0.896   0.797  0.2503  0.4957 -0.0878
  670SOL     OW 2677   2.903   0.324   0.248 -0.2831  0.0146 -0.4718
  670SOL    HW1 2678   2.921   0.274   0.166 -0.3334  0.9893  0.2781
  670SOL    HW2 2679   2.937   0.414   0.230  0.1248  1.3251 -0.1258
  670SOL     MW 2680   2.910   0.329   0.235 -0.2359  0.3161 -0.3272
  671SOL     OW 2681   2.005   3.017   1.566 -0.2768  0.0951  0.1659
  671SOL    HW1 2682   1.950   2.973   1.503  0.8833 -2.4691 -1.1416
  671SOL    HW2 2683   1.948   3.043   1.639  1.0546 -0.8497  1.0791
  671SOL     MW 2684   1.990   3.014   1.567  0.0520 -0.3679  0.1139
  672SOL     OW 2685   1.807   1.707   1.276 -0.4459  0.6620  0.0957
  672SOL    HW1 2686   1.801   1.784   1.326 -0.4767  0.8876 -2.7973
  672SOL    HW2 2687   1.874   1.735   1.212  0.3955  1.5777  0.4303
  672SOL     MW 2688   1.815   1.720   1.274 -0.3390  0.8126 -0.2418
  673SOL     OW 2689   2.746   1.054   0.630  0.3243 -0.3086  0.1711
  673SOL    HW1 2690   2.797   0.993   0.683  3.4263  0.1220  0.3092
  673SOL    HW2 2691   2.800   1.132   0.632 -0.0531 -4.2465  0.4021
  673SOL     MW 2692   2.760   1.056   0.637  0.6838 -0.7714  0.2198
  674SOL     OW 2693   2.458   3.085   1.274  0.0161  0.3206 -0.5348
  674SOL    HW1 2694   2.417   3.095   1.185 -2.5383 -0.9385  0.6985
  674SOL    HW2 2695   2.507   3.002   1.272 -0.4859 -1.5215 -0.0678
  674SOL     MW 2696   2.459   3.075   1.262 -0.3871 -0.0886 -0.3104
  675SOL     OW 2697   2.925   0.924   1.033  0.0942  0.5121  0.2672
  675SOL    HW1 2698   3.008   0.921   1.081 -2.3488  0.7034  0.4672
  675SOL    HW2 2699   2.952   0.968   0.947 -1.1716  1.0723  0.3692
  675SOL     MW 2700   2.939   0.930   1.028 -0.3951  0.6113  0.3071
  676SOL     OW 2701   2.954   1.422   1.694  0.0266  0.5022 -0.0477
  676SOL    HW1 2702   2.870   1.373   1.668 -0.2457 -1.3850 -3.5983
  676SOL    HW2 2703   2.936   1.428   1.782  0.2119  1.0821 -0.3702
  676SOL     MW 2704   2.941   1.416   1.702  0.0151  0.3297 -0.5587
  677SOL     OW 2705   2.365   0.544   2.038  0.5373  0.1571  0.5954
  677SOL    HW1 2706   2.342   0.494   1.953  0.9788  1.7812 -0.9964
  677SOL    HW2 2707   2.332   0.638   2.027  2.1399  0.7161 -2.3383
  677SOL     MW 2708   2.358   0.550   2.026  0.8070  0.4451 -0.0017
  678SOL     OW 2709   2.476   1.652   0.312 -0.0018 -0.1603 -0.1892
  678SOL    HW1 2710   2.391   1.679   0.351  0.0857  0.7036  0.7627
  678SOL    HW2 2711   2.477   1.561   0.279  3.5635 -1.8122 -0.1655
  678SOL     MW 2712   2.465   1.644   0.313  0.4801 -0.2643 -0.0605
  679SOL     OW 2713   2.224   0.461   1.279 -0.4077 -0.3342 -0.0343
  679SOL    HW1 2714   2.240   0.369   1.300  3.0696 -0.8710 -0.2788
  679SOL    HW2 2715   2.135   0.476   1.318 -2.4036 -2.0039 -3.4026
  679SOL     MW 2716   2.214   0.451   1.287 -0.2123 -0.6253 -0.5110
  680SOL     OW 2717   2.318   0.167   1.496 -0.3722  0.1473 -0.2319
  680SOL    HW1 2718   2.233   0.148   1.460  2.6662 -0.0214 -1.4904
  680SOL    HW2 2719   2.373   0.111   1.439  2.0595 -5.3848 -0.2333
  680SOL     MW 2720   2.314   0.157   1.484  0.3496 -0.6049 -0.3981
  681SOL     OW 2721   0.235   0.553   1.531 -0.1573 -0.2910 -1.0532
  681SOL    HW1 2722   0.215   0.473   1.587 -1.0502 -0.3407 -3.6919
  681SOL    HW2 2723   0.191   0.537   1.444 -1.8861  2.1809 -2.0103
  681SOL     MW 2724   0.227   0.541   1.527 -0.5032  0.0286 -1.5277
  682SOL     OW 2725   0.167   2.852   1.541 -0.5336  0.5534 -0.3465
  682SOL    HW1 2726   0.223   2.928   1.558  1.4086  0.0427  1.0464
  682SOL    HW2 2727   0.080   2.892   1.522  0.9060  2.1146 -0.8182
  682SOL     MW 2728   0.163   2.867   1.541 -0.0874  0.6920 -0.2250
  683SOL     OW 2729   2.100   0.829   2.981 -0.0130 -0.4967  0.1692
  683SOL    HW1 2730   2.032   0.776   3.019  0.5794 -0.7319 -0.5503
  683SOL    HW2 2731   2.082   0.910   3.030 -0.7928  1.8599 -0.2925
  683SOL     MW 2732   2.089   0.833   2.993 -0.0377 -0.2168  0.0133
  684SOL     OW 2733   2.188   1.698   0.689  0.0284  0.0009 -0.2154
  684SOL    HW1 2734   2.186   1.695   0.588 -0.2641 -1.0671 -0.2851
  684SOL    HW2 2735   2.172   1.613   0.728  1.9065 -0.6421  0.5105
  684SOL     MW 2736   2.185   1.687   0.681  0.2376 -0.2248 -0.1288
  685SOL     OW 2737   2.711   1.660   1.199 -0.0154 -0.1774 -0.0624
  685SOL    HW1 2738   2.796   1.696   1.224  3.3397 -2.2403  1.3963
  685SOL    HW2 2739   2.712   1.577   1.252 -0.0513 -1.5814 -0.2176
  685SOL     MW 2740   2.722   1.654   1.210  0.4225 -0.6349  0.1096
  686SOL     OW 2741   2.869   0.728   1.492  0.1381 -0.2071  0.3563
  686SOL    HW1 2742   2.841   0.688   1.580  0.6679 -0.1847  1.6221
  686SOL    HW2 2743   2.965   0.738   1.513  3.7058 -0.6006  1.7380
  686SOL     MW 2744   2.878   0.724   1.506  0.6787 -0.2560  0.7056
  687SOL     OW 2745   2.130   0.149   1.182  0.2340 -0.3530 -0.5230
  687SOL    HW1 2746   2.206   0.112   1.133 -1.8167 -1.3356 -1.1324
  687SOL    HW2 2747   2.085   0.216   1.119 -0.3662  0.0668 -0.3679
  687SOL     MW 2748   2.134   0.153   1.167 -0.1158 -0.4272 -0.5830
  688SOL     OW 2749   2.403   0.626   1.436 -0.0208 -0.1600  0.1442
  688SOL    HW1 2750   2.340   0.580   1.385  3.3116  0.1955  0.3768
  688SOL    HW2 2751   2.348   0.667   1.502 -0.2242 -0.6275 -1.0426
  688SOL     MW 2752   2.388   0.625   1.438  0.3920 -0.1748  0.0183
  689SOL     OW 2753   2.490   0.715   2.960  0.7044  0.1576  1.0044
  689SOL    HW1 2754   2.451   0.805   2.967 -2.1214 -1.2989 -2.0502
  689SOL    HW2 2755   2.526   0.701   3.046  0.8925  2.2628  0.2352
  689SOL     MW 2756   2.490   0.725   2.972  0.3563  0.2432  0.4999
  690SOL     OW 2757   2.059   0.896   1.853 -0.1944 -0.3993  0.5231
  690SOL    HW1 2758   2.010   0.816   1.862  2.7093 -0.9812  0.0554
  690SOL    HW2 2759   2.060   0.922   1.758 -0.7618 -0.7139  0.7275
  690SOL     MW 2760   2.053   0.889   1.842  0.1138 -0.5176  0.4884
  691SOL     OW 2761   2.415   0.226   0.835  0.0087  0.0586 -0.1013
  691SOL    HW1 2762   2.494   0.271   0.864 -0.6249 -2.1977 -1.5366
  691SOL    HW2 2763   2.346   0.286   0.853  0.6838 -2.0874  2.9844
  691SOL     MW 2764   2.416   0.240   0.841  0.0141 -0.5222  0.1164
  692SOL     OW 2765   2.911   1.606   1.466 -0.5594  0.2277 -0.8097
  692SOL    HW1 2766   2.920   1.559   1.551 -2.5790 -0.4769  1.1876
  692SOL    HW2 2767   2.879   1.694   1.485 -0.3099 -2.6554 -2.0515
  692SOL     MW 2768   2.908   1.611   1.480 -0.7930 -0.2457 -0.7100
  693SOL     OW 2769   2.309   0.434   0.117  0.7056  0.4274  0.4864
  693SOL    HW1 2770   2.241   0.370   0.100  0.6692 -0.4087  0.6230
  693SOL    HW2 2771   2.273   0.518   0.084  1.5764 -0.5787  0.2080
  693SOL     MW 2772   2.295   0.437   0.110  0.8157  0.1843  0.4677
  694SOL     OW 2773   1.913   1.127   1.057 -0.0992 -0.6940 -0.3091
  694SOL    HW1 2774   2.002   1.117   1.104 -0.9000  0.5383  0.4189
  694SOL    HW2 2775   1.862   1.067   1.109 -2.2272  0.6213  0.0832
  694SOL     MW 2776   1.918   1.118   1.070 -0.4856 -0.3579 -0.1613
  695SOL     OW 2777   2.999   1.414   1.267  0.4658 -0.8916 -0.3978
  695SOL    HW1 2778   2.976   1.426   1.173  0.9025 -0.4556 -1.4089
  695SOL    HW2 2779   2.970   1.499   1.317  1.9395  0.7256  0.5418
  695SOL     MW 2780   2.992   1.427   1.261  0.7178 -0.6207 -0.4072
  696SOL     OW 2781   2.098   1.420   0.783 -0.0229  0.6964 -0.1310
  696SOL    HW1 2782   2.127   1.458   0.867  0.1445  2.3299  1.9890
  696SOL    HW2 2783   2.046   1.340   0.817  2.2152 -2.1636  0.4712
  696SOL     MW 2784   2.095   1.415   0.799  0.2945  0.5345  0.2282
  697SOL     OW 2785   2.859   0.999   2.241 -0.1659 -0.6709  0.6000
  697SOL    HW1 2786   2.801   1.059   2.188 -0.6799  3.4878 -0.7643
  697SOL    HW2 2787   2.819   0.910   2.242 -1.4754 -1.3861  0.7357
  697SOL     MW 2788   2.846   0.995   2.234 -0.4065 -0.2165  0.4379
  698SOL     OW 2789   2.524   0.336   0.016  0.0558 -0.1768 -0.4782
  698SOL    HW1 2790   2.442   0.389   0.040  1.8793  0.6226  1.5464
  698SOL    HW2 2791   2.561   0.320   0.101 -0.8364 -1.2409  3.5225
  698SOL     MW 2792   2.518   0.341   0.030  0.1787 -0.2117  0.3167
  699SOL     OW 2793   1.884   1.619   2.074 -0.3950  0.0456  0.7915
  699SOL    HW1 2794   1.835   1.557   2.025  3.9083 -0.4382  2.3205
  699SOL    HW2 2795   1.978   1.592   2.071 -2.6754 -1.5138 -1.5989
  699SOL     MW 2796   1.890   1.607   2.067 -0.1281 -0.2240  0.6779
  700SOL     OW 2797   2.683   0.902   1.601 -0.4168 -0.1924 -0.1785
  700SOL    HW1 2798   2.679   0.973   1.535 -1.7671  2.6070 -0.4491
  700SOL    HW2 2799   2.762   0.851   1.574 -1.0723 -2.5012 -0.9899
  700SOL     MW 2800   2.693   0.905   1.589 -0.6815 -0.1276 -0.3213
  701SOL     OW 2801   1.703   1.170   2.483  0.2108 -0.1840  0.1592
  701SOL    HW1 2802   1.800   1.158   2.498  0.1358 -1.2940  3.9189
  701SOL    HW2 2803   1.662   1.247   2.530  1.2079 -1.0040  2.1278
  701SOL     MW 2804   1.710   1.179   2.491  0.3325 -0.4386  0.9150
  702SOL     OW 2805   2.152   0.422   0.834 -0.2112 -0.0233  0.2683
  702SOL    HW1 2806   2.127   0.362   0.766 -2.0479 -1.5035 -0.7218
  702SOL    HW2 2807   2.226   0.471   0.794 -1.2639 -1.1328  0.5653
  702SOL     MW 2808   2.159   0.421   0.820 -0.5924 -0.3649  0.1769
  703SOL     OW 2809   2.716   1.254   1.028  0.4230  0.3452 -0.5314
  703SOL    HW1 2810   2.682   1.232   0.939 -1.9552  0.9967 -0.4260
  703SOL    HW2 2811   2.725   1.165   1.069 -0.6237 -0.9842  0.0747
  703SOL     MW 2812   2.713   1.239   1.022 -0.0289  0.2557 -0.4375
  704SOL     OW 2813   3.038   1.266   0.126 -0.4663  0.3191 -0.0202
  704SOL    HW1 2814   2.955   1.229   0.096  0.8819  2.3886  0.7947
  704SOL    HW2 2815   3.033   1.265   0.223  1.3610  1.7187  2.1410
  704SOL     MW 2816   3.026   1.261   0.135 -0.0473  0.7768  0.3725
  705SOL     OW 2817   2.190   1.631   1.296  0.1727  0.2569 -0.8310
  705SOL    HW1 2818   2.126   1.672   1.359 -1.0442 -0.1616  1.0505
  705SOL    HW2 2819   2.186   1.544   1.327  1.5576  0.7079 -1.3167
  705SOL     MW 2820   2.181   1.625   1.308  0.1949  0.2612 -0.6468
  706SOL     OW 2821   2.934   1.265   0.643 -0.2703  0.0624 -0.2375
  706SOL    HW1 2822   2.993   1.268   0.572  1.0168  0.5512  1.9769
  706SOL    HW2 2823   2.907   1.361   0.641  2.7779 -1.7622 -2.3336
  706SOL     MW 2824   2.939   1.278   0.634  0.3017 -0.1138 -0.2219
  707SOL     OW 2825   2.332   0.038   1.034  0.2408  0.2731 -0.2319
  707SOL    HW1 2826   2.344   0.106   0.971 -1.1457  0.2683  3.3533
  707SOL    HW2 2827   2.254  -0.017   1.002  0.6897 -2.3150 -0.2907
  707SOL     MW 2828   2.323   0.039   1.022  0.1171 -0.0690  0.2334
  708SOL     OW 2829   2.430   1.404   0.194 -0.2661 -0.3291 -0.1740
  708SOL    HW1 2830   2.522   1.374   0.188  0.9611 -0.5035  3.3974
  708SOL    HW2 2831   2.406   1.434   0.102  1.4494  2.6147  0.5748
  708SOL     MW 2832   2.439   1.404   0.181  0.1221  0.0363  0.3960
  709SOL     OW 2833   1.761   1.642   0.227 -0.7513 -0.7188 -0.2480
  709SOL    HW1 2834   1.750   1.660   0.133  0.0175  1.7186 -1.2230
  709SOL    HW2 2835   1.672   1.639   0.251 -1.1623  0.0253 -0.3320
  709SOL     MW 2836   1.748   1.644   0.218 -0.7041 -0.2990 -0.3877
  710SOL     OW 2837   2.160   1.129   1.203 -0.3761  1.0424 -0.6288
  710SOL    HW1 2838   2.198   1.134   1.113 -2.5265  1.1222 -0.2261
  710SOL    HW2 2839   2.194   1.043   1.222  1.7128 -1.4003  0.4912
  710SOL     MW 2840   2.170   1.119   1.193 -0.3842  0.7306 -0.4279
  711SOL     OW 2841   2.334   0.084   1.759 -0.1611 -0.0463  0.3102
  711SOL    HW1 2842   2.429   0.090   1.794  0.4176  0.7205  0.1500
  711SOL    HW2 2843   2.340   0.119   1.670  1.3773  1.2518  1.8814
  711SOL     MW 2844   2.348   0.089   1.752  0.1182  0.2262  0.4964
  712SOL     OW 2845   1.944   0.633   3.072 -0.1603  0.1920 -0.2949
  712SOL    HW1 2846   1.854   0.627   3.039  1.5074  0.0702  0.7764
  712SOL    HW2 2847   1.942   0.650   3.168  0.8401 -0.4315  1.3348
  712SOL     MW 2848   1.932   0.634   3.080  0.1917  0.0936  0.0615
  713SOL     OW 2849   2.552   0.730   1.086 -0.2358 -0.5461  0.2233
  713SOL    HW1 2850   2.569   0.645   1.125 -0.2546  0.8198 -0.3456
  713SOL    HW2 2851   2.457   0.734   1.075 -2.2809 -0.0298 -2.3321
  713SOL     MW 2852   2.542   0.719   1.090 -0.5081 -0.2978 -0.1889
  714SOL     OW 2853   2.188   0.152   2.011  0.0073  0.2765  0.0343
  714SOL    HW1 2854   2.248   0.107   2.078  0.8318  2.8951  2.2210
  714SOL    HW2 2855   2.232   0.129   1.924  1.4045 -0.1800 -1.1203
  714SOL     MW 2856   2.202   0.143   2.008  0.3004  0.5618  0.1705
  715SOL     OW 2857   1.831   2.038   1.733  0.0620  0.4877 -0.1881
  715SOL    HW1 2858   1.914   2.084   1.715 -1.5803 -1.6538  0.6513
  715SOL    HW2 2859   1.837   1.965   1.799 -1.2302 -0.1947  1.5217
  715SOL     MW 2860   1.842   2.034   1.739 -0.3252  0.1152  0.1482
  716SOL     OW 2861   2.337   0.553   0.704 -0.4156 -0.4409 -0.5676
  716SOL    HW1 2862   2.376   0.495   0.642 -3.6079  0.9443 -0.7974
  716SOL    HW2 2863   2.291   0.605   0.639  1.4464 -0.0307 -2.8203
  716SOL     MW 2864   2.336   0.552   0.687 -0.5911 -0.2040 -0.8951
  717SOL     OW 2865   2.808   1.654   2.887  0.1721 -0.4087 -0.1255
  717SOL    HW1 2866   2.878   1.622   2.938 -1.7499  0.7299 -0.3705
  717SOL    HW2 2867   2.745   1.720   2.929 -0.9198  2.8151 -1.8939
  717SOL     MW 2868   2.809   1.658   2.899 -0.2255  0.1669 -0.3911
  718SOL     OW 2869   2.670   1.409   1.320 -0.5304 -0.1430 -0.5444
  718SOL    HW1 2870   2.665   1.405   1.414 -0.4457  1.8551 -1.4789
  718SOL    HW2 2871   2.741   1.352   1.286  1.3829 -0.5429  0.0065
  718SOL     MW 2872   2.679   1.401   1.328 -0.2668  0.0679 -0.5950
  719SOL     OW 2873   2.173   1.240   0.561 -0.0287 -0.6767  0.2168
  719SOL    HW1 2874   2.231   1.273   0.487 -1.0404 -0.0050  1.4312
  719SOL    HW2 2875   2.166   1.304   0.634  1.4929  1.0109  3.2192
  719SOL     MW 2876   2.180   1.253   0.561  0.0386 -0.3654  0.7732
  720SOL     OW 2877   2.804   1.178   0.042 -0.3312 -0.6874  0.0736
  720SOL    HW1 2878   2.786   1.091   0.077  0.5751  0.0768  1.9667
  720SOL    HW2 2879   2.755   1.233   0.107  1.7255 -0.2147  0.7459
  720SOL     MW 2880   2.795   1.174   0.055  0.0597 -0.5242  0.4121
  721SOL     OW 2881   2.487   0.885   1.422  0.4228 -0.1841  0.4242
  721SOL    HW1 2882   2.477   0.791   1.413  1.2471  0.3477  0.5729
  721SOL    HW2 2883   2.552   0.882   1.487 -0.5963  1.6461 -0.7707
  721SOL     MW 2884   2.494   0.872   1.430  0.3971  0.1276  0.2862
  722SOL     OW 2885   2.597   1.122   0.406 -0.1274 -0.2384 -1.2943
  722SOL    HW1 2886   2.536   1.184   0.436  0.3218 -0.7283  0.4862
  722SOL    HW2 2887   2.638   1.085   0.485  1.6417  0.7469 -0.2836
  722SOL     MW 2888   2.595   1.125   0.420  0.1653 -0.1730 -0.9260
  723SOL     OW 2889   2.328   1.354   1.598 -0.2442  0.1639  0.1414
  723SOL    HW1 2890   2.299   1.345   1.506  2.6618 -0.6594 -1.7398
  723SOL    HW2 2891   2.247   1.378   1.648  1.6897  3.9779  1.8180
  723SOL     MW 2892   2.314   1.356   1.592  0.3944  0.5585  0.1144
  724SOL     OW 2893   2.461   0.337   0.568  0.1955 -0.5745  0.4622
  724SOL    HW1 2894   2.420   0.262   0.611  0.9700  0.1362 -1.2878
  724SOL    HW2 2895   2.552   0.322   0.547 -1.1340  0.7268  0.1795
  724SOL     MW 2896   2.467   0.325   0.571  0.1223 -0.3090  0.1940
  725SOL     OW 2897   2.593   0.412   1.227  0.2534 -0.5514  0.1407
  725SOL    HW1 2898   2.679   0.450   1.247  1.0551 -0.6700 -0.5514
  725SOL    HW2 2899   2.539   0.457   1.290  0.5299  0.8433  0.0858
  725SOL     MW 2900   2.597   0.423   1.238  0.3957 -0.3831  0.0421
  726SOL     OW 2901   2.524   2.499   0.514 -0.1431  0.2313 -0.1852
  726SOL    HW1 2902   2.493   2.585   0.493 -2.0595 -0.1636  3.6414
  726SOL    HW2 2903   2.523   2.501   0.611  0.0486 -2.1256  0.9926
  726SOL     MW 2904   2.519   2.511   0.524 -0.3706 -0.1318  0.4751
  727SOL     OW 2905   2.864   0.340   1.782 -0.2140 -0.0857  0.0609
  727SOL    HW1 2906   2.819   0.301   1.709  0.1031 -0.4551  0.2260
  727SOL    HW2 2907   2.807   0.330   1.867 -0.5569  0.4665  0.1216
  727SOL     MW 2908   2.851   0.334   1.784 -0.2174 -0.0616  0.0907
  728SOL     OW 2909   2.836   1.143   2.874  0.0855 -0.0592 -0.3246
  728SOL    HW1 2910   2.824   1.217   2.809  0.2328 -0.8749  0.3465
  728SOL    HW2 2911   2.816   1.177   2.960 -0.5986  1.2859 -3.4354
  728SOL     MW 2912   2.832   1.157   2.877  0.0147  0.0106 -0.6465
  729SOL     OW 2913   2.454   1.468   1.151  0.6606 -0.0157  0.0468
  729SOL    HW1 2914   2.527   1.447   1.209 -1.4317  0.4443  2.3099
  729SOL    HW2 2915   2.486   1.450   1.062  2.3583  1.8330 -0.3184
  729SOL     MW 2916   2.468   1.463   1.147  0.6085  0.2889  0.2972
  730SOL     OW 2917   2.283   1.195   0.286 -0.3000 -0.0799  0.1644
  730SOL    HW1 2918   2.350   1.131   0.248  4.3715 -0.1850 -2.4380
  730SOL    HW2 2919   2.317   1.278   0.251  0.1245  2.0261  0.4687
  730SOL     MW 2920   2.297   1.197   0.276  0.3724  0.1841 -0.1388
  731SOL     OW 2921   2.797   2.064   2.889 -0.1805 -0.0225 -0.3970
  731SOL    HW1 2922   2.739   2.033   2.823 -1.5291  0.6157 -0.1421
  731SOL    HW2 2923   2.888   2.060   2.854  0.1223 -1.1017 -2.2751
  731SOL     MW 2924   2.801   2.060   2.875 -0.3185 -0.0807 -0.6111
  732SOL     OW 2925   2.231   0.899   1.341  0.2812  0.4435  0.1600
  732SOL    HW1 2926   2.192   0.913   1.426 -0.2581  2.3384 -1.3406
  732SOL    HW2 2927   2.328   0.905   1.368  3.2216 -2.3270  0.4037
  732SOL     MW 2928   2.239   0.901   1.356  0.5980  0.3280 -0.0059
  733SOL     OW 2929   2.421   2.821   3.011  0.7166 -0.0124  0.5714
  733SOL    HW1 2930   2.337   2.867   2.984 -0.2734 -1.3137 -0.1628
  733SOL    HW2 2931   2.393   2.729   3.030 -0.4084  0.7670  0.9482
  733SOL     MW 2932   2.406   2.815   3.010  0.4376 -0.0813  0.5243
  734SOL     OW 2933   1.492   0.305   2.522  0.3357 -0.0305  0.8512
  734SOL    HW1 2934   1.457   0.244   2.588 -1.8636 -0.8358  1.7500
  734SOL    HW2 2935   1.528   0.245   2.459  0.4751 -1.1298 -0.8016
  734SOL     MW 2936   1.492   0.289   2.523  0.0639 -0.2818  0.7517
  735SOL     OW 2937   2.930   0.897   2.610  0.6061  0.0052  0.4311
  735SOL    HW1 2938   2.925   0.802   2.614 -0.0338  0.5498 -1.5708
  735SOL    HW2 2939   2.960   0.937   2.692 -0.5289  2.2795 -1.0432
  735SOL     MW 2940   2.934   0.890   2.622  0.3719  0.3772 -0.0275
  736SOL     OW 2941   0.084   0.614   2.548  0.0232  0.5269  0.6857
  736SOL    HW1 2942   0.105   0.692   2.494  1.0205 -1.2636 -2.0861
  736SOL    HW2 2943   0.077   0.548   2.477 -0.7581  1.0305  2.6492
  736SOL     MW 2944   0.086   0.616   2.532  0.0517  0.3571  0.5790
  737SOL     OW 2945   2.923   0.610   2.659 -0.2237  0.5724 -0.1950
  737SOL    HW1 2946   2.884   0.581   2.575 -0.8528 -0.9527 -2.0723
  737SOL    HW2 2947   3.016   0.606   2.635  0.9109 -0.2106  3.8651
  737SOL     MW 2948   2.930   0.605   2.644 -0.1570  0.2679  0.0930
  738SOL     OW 2949   0.204   0.593   1.932  0.0159  0.3306 -0.2380
  738SOL    HW1 2950   0.295   0.604   1.908  0.6152  0.9283  0.1000
  738SOL    HW2 2951   0.174   0.519   1.876  1.1758 -1.2953  0.3386
  738SOL     MW 2952   0.212   0.584   1.921  0.2480  0.1949 -0.1173
  739SOL     OW 2953   2.486   1.010   2.068  0.1841  0.4051 -0.1550
  739SOL    HW1 2954   2.478   0.918   2.035  0.4090 -1.6678 -1.0091
  739SOL    HW2 2955   2.466   1.060   1.985  0.1742 -0.0998 -2.2489
  739SOL     MW 2956   2.482   1.004   2.053  0.2124  0.0650 -0.5439
  740SOL     OW 2957   0.180   1.751   2.913 -0.3260  0.8610 -0.0873
  740SOL    HW1 2958   0.143   1.666   2.927  0.2734  0.3157  1.9647
  740SOL    HW2 2959   0.273   1.742   2.938 -0.7865 -0.0844 -0.2174
  740SOL     MW 2960   0.188   1.738   2.918 -0.3077  0.6643  0.1663
  741SOL     OW 2961   2.181   1.224   2.688  0.3413 -0.5641  0.3833
  741SOL    HW1 2962   2.135   1.288   2.627 -2.2813 -1.9126  2.2399
  741SOL    HW2 2963   2.134   1.246   2.767 -0.8126  0.1533  0.1584
  741SOL     MW 2964   2.169   1.236   2.690 -0.1570 -0.6474  0.5986
  742SOL     OW 2965   1.666   1.245   2.218  0.6523  0.4375 -0.4926
  742SOL    HW1 2966   1.589   1.193   2.182 -0.4993 -0.1496 -0.2398
  742SOL    HW2 2967   1.692   1.214   2.306  0.9350 -2.0173 -0.5241
  742SOL     MW 2968   1.659   1.234   2.225  0.5377  0.0361 -0.4634
  743SOL     OW 2969   2.470   1.269   2.730  0.4300 -0.5275 -0.2134
  743SOL    HW1 2970   2.378   1.262   2.701  1.2182 -1.5518  3.0602
  743SOL    HW2 2971   2.509   1.188   2.761  4.0574 -2.3349  2.4819
  743SOL     MW 2972   2.463   1.257   2.730  1.0126 -0.9011  0.5741
  744SOL     OW 2973   2.751   0.933   1.869  0.7550 -0.1181 -0.3830
  744SOL    HW1 2974   2.701   1.013   1.876  2.3201 -2.0201 -1.0538
  744SOL    HW2 2975   2.728   0.896   1.783 -1.2130  0.0080  0.4048
  744SOL     MW 2976   2.741   0.939   1.858  0.7019 -0.3524 -0.3676
  745SOL     OW 2977   1.750   0.412   2.516  0.0392  0.4416  0.0396
  745SOL    HW1 2978   1.708   0.446   2.437  0.0854 -0.0183  0.4207
  745SOL    HW2 2979   1.677   0.363   2.554  0.3002 -1.0844 -2.6953
  745SOL     MW 2980   1.735   0.410   2.511  0.0797  0.1796 -0.2709
  746SOL     OW 2981   1.598   1.482   1.655  0.1681 -0.1154 -0.2590
  746SOL    HW1 2982   1.670   1.416   1.643  2.0266  0.2011 -1.9054
  746SOL    HW2 2983   1.557   1.458   1.736  0.6076  1.1142 -0.6638
  746SOL     MW 2984   1.602   1.470   1.664  0.4713  0.0886 -0.5296
  747SOL     OW 2985   2.586   1.134   1.804  0.1979  0.3211  0.3116
  747SOL    HW1 2986   2.517   1.140   1.737 -2.8792 -0.9538 -0.8505
  747SOL    HW2 2987   2.581   1.216   1.859  0.2427  1.5861  0.2881
  747SOL     MW 2988   2.576   1.146   1.803 -0.2022  0.3198  0.1551
  748SOL     OW 2989   0.093   0.018   1.887 -0.4091 -0.4547  0.2454
  748SOL    HW1 2990   0.178   0.040   1.848 -0.2400  0.6143  0.2513
  748SOL    HW2 2991   0.098   0.052   1.971 -0.2843 -3.5774 -1.1866
  748SOL     MW 2992   0.105   0.025   1.893 -0.3704 -0.7256  0.0573
  749SOL     OW 2993   2.503   0.588   2.719 -0.3385  1.0281  0.0435
  749SOL    HW1 2994   2.531   0.661   2.661  0.8198  2.1433  1.1023
  749SOL    HW2 2995   2.515   0.614   2.815  0.2034  0.0961  0.2819
  749SOL     MW 2996   2.508   0.601   2.724 -0.1141  1.0523  0.2146
  750SOL     OW 2997   2.044   3.027   1.967  0.2790  0.1543 -0.1822
  750SOL    HW1 2998   2.085   3.111   1.996  2.5843  1.1201 -0.1996
  750SOL    HW2 2999   2.119   2.961   1.965  1.0775 -2.2939  0.3651
  750SOL     MW 3000   2.059   3.029   1.971  0.6885 -0.0413 -0.1123
  751SOL     OW 3001   0.047   0.428   2.356  0.2721 -0.4458 -0.0033
  751SOL    HW1 3002   0.038   0.344   2.404 -0.7222 -2.3833 -0.7293
  751SOL    HW2 3003   0.115   0.416   2.297 -1.2216 -0.7843  0.0911
  751SOL     MW 3004   0.055   0.416   2.355 -0.0562 -0.7461 -0.0866
  752SOL     OW 3005   2.133   0.756   2.722 -0.0621 -0.4273  0.0295
  752SOL    HW1 3006   2.198   0.811   2.679  0.2519  0.0410 -0.3949
  752SOL    HW2 3007   2.140   0.770   2.817  0.6021  0.8622 -0.1456
  752SOL     MW 3008   2.142   0.765   2.729  0.0670 -0.1954 -0.0496
  753SOL     OW 3009   2.909   0.259   2.449 -0.0125 -0.6244  0.1833
  753SOL    HW1 3010   2.863   0.208   2.383  1.0271 -3.3697 -3.9950
  753SOL    HW2 3011   2.871   0.345   2.433 -0.0950 -3.5265  1.7173
  753SOL     MW 3012   2.898   0.264   2.438  0.1138 -1.3695 -0.1656
  754SOL     OW 3013   2.274   2.983   2.598  0.3335  0.1089 -0.1493
  754SOL    HW1 3014   2.283   2.970   2.506 -1.7207  0.9094 -1.2984
  754SOL    HW2 3015   2.347   2.940   2.653  1.5784  0.3564  3.7774
  754SOL     MW 3016   2.285   2.975   2.593  0.2268  0.2472  0.2172
  755SOL     OW 3017   2.726   1.525   2.474  0.2522 -0.2762 -0.5843
  755SOL    HW1 3018   2.723   1.437   2.509  3.0327 -1.1250  0.9219
  755SOL    HW2 3019   2.795   1.564   2.534 -0.5074 -1.0073 -0.9869
  755SOL     MW 3020   2.735   1.518   2.486  0.5189 -0.4846 -0.4387
  756SOL     OW 3021   2.208   1.188   3.003 -0.4500  0.2844 -0.3906
  756SOL    HW1 3022   2.274   1.256   2.979 -1.0785 -0.2455 -0.6327
  756SOL    HW2 3023   2.269   1.112   3.010 -0.4534 -0.7693  0.9779
  756SOL     MW 3024   2.225   1.187   3.001 -0.5334  0.0754 -0.2420
  757SOL     OW 3025   2.110   0.938   1.590 -0.6251 -0.6052  0.2187
  757SOL    HW1 3026   2.137   0.847   1.610 -1.4839 -0.3862  0.4842
  757SOL    HW2 3027   2.021   0.938   1.547  0.8512  0.2981  0.3112
  757SOL     MW 3028   2.102   0.926   1.587 -0.5436 -0.4572  0.2659
  758SOL     OW 3029   2.213   1.758   2.661  0.5402  1.1940 -0.2137
  758SOL    HW1 3030   2.200   1.761   2.568  3.1197  3.0461  1.0819
  758SOL    HW2 3031   2.313   1.743   2.656 -2.6448  0.2389  2.0919
  758SOL     MW 3032   2.224   1.756   2.648  0.4603  1.3123  0.2614
  759SOL     OW 3033   1.596   1.352   2.666 -0.7313 -0.1639 -0.0646
  759SOL    HW1 3034   1.575   1.443   2.638  0.6842  1.0620 -0.8304
  759SOL    HW2 3035   1.647   1.367   2.745 -0.9802  0.0917  0.4434
  759SOL     MW 3036   1.600   1.366   2.673 -0.5774  0.0316 -0.0986
  760SOL     OW 3037   2.606   1.986   2.709 -0.5427  0.4390 -0.1858
  760SOL    HW1 3038   2.560   1.905   2.696  0.2748 -0.5345 -0.8015
  760SOL    HW2 3039   2.583   2.046   2.635  1.9211  1.5821  0.2123
  760SOL     MW 3040   2.597   1.983   2.698 -0.1098  0.4614 -0.2145
  761SOL     OW 3041   2.189   0.359   2.436 -0.2706  0.3550  0.0477
  761SOL    HW1 3042   2.102   0.319   2.438  2.2656 -0.3749 -1.8022
  761SOL    HW2 3043   2.204   0.402   2.520 -1.6388  0.5869 -1.1229
  761SOL     MW 3044   2.180   0.360   2.447 -0.1165  0.2893 -0.3508
  762SOL     OW 3045   0.072   0.183   2.119  0.5302  0.4014  0.6641
  762SOL    HW1 3046   0.027   0.129   2.184  1.5437 -1.9679  3.7934
  762SOL    HW2 3047   0.018   0.260   2.124 -1.4199  1.8651  0.3108
  762SOL     MW 3048   0.059   0.186   2.128  0.4066  0.2819  1.0304
  763SOL     OW 3049   2.373   1.022   2.332 -0.4934 -0.6372  1.0368
  763SOL    HW1 3050   2.431   1.000   2.262 -1.2274  1.2354 -1.0395
  763SOL    HW2 3051   2.438   1.089   2.370 -0.5803 -0.1518 -0.0489
  763SOL     MW 3052   2.389   1.028   2.328 -0.6017 -0.3261  0.6196
  764SOL     OW 3053   0.444   0.250   2.792  0.3815 -0.5791  0.6924
  764SOL    HW1 3054   0.368   0.198   2.786  0.6047  0.2315 -2.5200
  764SOL    HW2 3055   0.423   0.325   2.842 -0.8309  0.7954 -1.4911
  764SOL     MW 3056   0.431   0.253   2.797  0.2510 -0.2908 -0.0195
  765SOL     OW 3057   2.765   0.045   2.328  0.2889 -0.1736  0.4572
  765SOL    HW1 3058   2.712   0.031   2.241  0.2186 -2.1500  0.6851
  765SOL    HW2 3059   2.794  -0.047   2.342 -0.3445  0.0895 -2.2252
  765SOL     MW 3060   2.762   0.031   2.319  0.1960 -0.3997  0.1333
  766SOL     OW 3061   1.854   2.984   2.143  0.2510  0.1041 -0.4176
  766SOL    HW1 3062   1.898   3.005   2.066  2.2539 -0.6510  0.5049
  766SOL    HW2 3063   1.794   2.910   2.121 -3.6910  0.7047  0.1644
  766SOL     MW 3064   1.852   2.977   2.130 -0.0049  0.0837 -0.2191
  767SOL     OW 3065   2.633   0.593   1.937 -0.5808 -0.5111  0.9131
  767SOL    HW1 3066   2.654   0.659   2.002  0.7175  0.9820 -0.5732
  767SOL    HW2 3067   2.538   0.574   1.935 -1.2719  0.6060  2.9237
  767SOL     MW 3068   2.623   0.599   1.946 -0.5007 -0.1667  0.9823
  768SOL     OW 3069   0.005   1.551   2.942 -0.3097 -0.3879 -0.5161
  768SOL    HW1 3070   0.029   1.528   3.031  0.6277 -0.9744  0.5509
  768SOL    HW2 3071   0.001   1.477   2.888  0.7236  0.9214  3.0185
  768SOL     MW 3072   0.008   1.538   2.947 -0.0497 -0.2926  0.0910
  769SOL     OW 3073   2.460   0.661   2.343  0.0464  0.7156  0.7035
  769SOL    HW1 3074   2.375   0.648   2.304 -0.6349 -1.3114 -2.1988
  769SOL    HW2 3075   2.505   0.592   2.297 -0.4361  3.0555  0.9625
  769SOL     MW 3076   2.455   0.650   2.331 -0.1072  0.7569  0.3548
  770SOL     OW 3077   0.091   1.598   2.615 -0.1245  0.4376 -0.0866
  770SOL    HW1 3078  -0.006   1.623   2.620  0.8474 -1.9302 -1.6935
  770SOL    HW2 3079   0.092   1.515   2.657 -1.6718  0.6912  0.5971
  770SOL     MW 3080   0.078   1.590   2.621 -0.2004  0.1587 -0.2084
  771SOL     OW 3081   3.051   0.652   1.999  0.3158  0.2637  0.6692
  771SOL    HW1 3082   3.004   0.663   1.922  1.8473  0.3871  0.8891
  771SOL    HW2 3083   3.146   0.635   1.978 -2.2159 -0.6879  1.0470
  771SOL     MW 3084   3.058   0.651   1.986  0.1838  0.1544  0.7481
  772SOL     OW 3085   3.090   0.022   2.338  0.2832 -0.0018 -0.3458
  772SOL    HW1 3086   3.010  -0.026   2.351  1.3302  0.0534  0.7242
  772SOL    HW2 3087   3.154  -0.034   2.294  0.5724  2.8380  0.5748
  772SOL     MW 3088   3.088   0.008   2.334  0.4595  0.3801 -0.0832
  773SOL     OW 3089   2.465   2.847   2.726 -0.4348 -0.2357 -0.5065
  773SOL    HW1 3090   2.459   2.763   2.683 -2.1329  0.9871  0.9053
  773SOL    HW2 3091   2.442   2.819   2.817  1.1566 -1.1635  0.1164
  773SOL     MW 3092   2.461   2.832   2.732 -0.4489 -0.1968 -0.2380
  774SOL     OW 3093   2.306   1.124   1.717 -0.3189 -0.8660  0.7332
  774SOL    HW1 3094   2.297   1.203   1.661 -0.0618 -0.1906 -1.5108
  774SOL    HW2 3095   2.246   1.067   1.682  0.1521  0.4745  2.4012
  774SOL     MW 3096   2.297   1.127   1.705 -0.2228 -0.6001  0.6572
  775SOL     OW 3097   2.269   2.893   2.318 -0.2777 -0.2694  0.4396
  775SOL    HW1 3098   2.289   2.961   2.253  2.0636 -1.1103 -0.2208
  775SOL    HW2 3099   2.330   2.821   2.291 -2.3117 -0.7805 -0.8586
  775SOL     MW 3100   2.279   2.893   2.306 -0.2371 -0.4478  0.1812
  776SOL     OW 3101   0.108   1.470   0.105  0.2012 -0.2927  0.0157
  776SOL    HW1 3102   0.188   1.427   0.077 -4.0883  1.9050  4.3912
  776SOL    HW2 3103   0.054   1.390   0.112 -0.6487  0.9103 -0.5267
  776SOL     MW 3104   0.112   1.453   0.102 -0.4769  0.1560  0.5215
  777SOL     OW 3105   2.942   1.113   1.773 -0.5233  0.9617 -0.1235
  777SOL    HW1 3106   2.879   1.150   1.713 -3.2479  0.8294  1.0233
  777SOL    HW2 3107   2.890   1.042   1.816  1.0199 -3.0411  0.5766
  777SOL     MW 3108   2.927   1.109   1.770 -0.6792  0.4161  0.1202
  778SOL     OW 3109   2.884   0.414   2.837 -0.4386  0.1398 -0.2478
  778SOL    HW1 3110   2.821   0.447   2.907  2.4197 -0.2766  0.0345
  778SOL    HW2 3111   2.893   0.489   2.770  1.1619  2.0886  0.1508
  778SOL     MW 3112   2.877   0.428   2.837  0.1497  0.3420 -0.1580
  779SOL     OW 3113   2.154   0.619   2.343 -0.0434 -0.0763 -0.2568
  779SOL    HW1 3114   2.066   0.634   2.357  6.7463  0.2083  3.2113
  779SOL    HW2 3115   2.174   0.534   2.378 -0.9188  1.1443  0.6415
  779SOL     MW 3116   2.145   0.610   2.349  0.7369  0.1223  0.3193
  780SOL     OW 3117   0.236   0.088   2.751 -0.1267  0.2942 -0.3494
  780SOL    HW1 3118   0.168   0.135   2.799 -1.0264 -0.2531 -2.3268
  780SOL    HW2 3119   0.208   0.087   2.662 -0.8979 -1.3965 -0.8112
  780SOL     MW 3120   0.223   0.094   2.745 -0.3472 -0.0011 -0.6713
  781SOL     OW 3121   3.048   1.286   2.494  0.3662 -0.0352  0.2216
  781SOL    HW1 3122   3.023   1.345   2.421  1.4573  3.3014  0.8986
  781SOL    HW2 3123   3.075   1.205   2.451 -0.8447 -1.4155 -0.5121
  781SOL     MW 3124   3.048   1.283   2.479  0.3504  0.2229  0.2142
  782SOL     OW 3125   0.550   1.504   3.048 -0.6242 -0.1020 -0.4642
  782SOL    HW1 3126   0.526   1.589   3.012 -1.7913 -0.1062 -2.9740
  782SOL    HW2 3127   0.527   1.510   3.137  0.5354 -0.0821 -0.9161
  782SOL     MW 3128   0.544   1.516   3.055 -0.6252 -0.1000 -0.8550
  783SOL     OW 3129   2.781   0.494   2.451 -0.0911  0.2460  0.1511
  783SOL    HW1 3130   2.730   0.485   2.369  2.2213  0.2581 -0.6550
  783SOL    HW2 3131   2.719   0.455   2.513  0.1234 -1.4488 -0.6171
  783SOL     MW 3132   2.766   0.488   2.448  0.2423  0.0240 -0.0566
  784SOL     OW 3133   0.288   0.937   2.879 -0.6961 -0.2449  0.2339
  784SOL    HW1 3134   0.264   0.998   2.947  1.0860  2.0100  2.5439
  784SOL    HW2 3135   0.273   0.991   2.793 -0.8407  2.3239 -0.0026
  784SOL     MW 3136   0.283   0.952   2.877 -0.4800  0.3916  0.5075
  785SOL     OW 3137   0.446   0.540   2.175  0.3904 -0.6672 -0.0932
  785SOL    HW1 3138   0.425   0.567   2.079 -1.3555 -2.2265  1.1922
  785SOL    HW2 3139   0.379   0.471   2.200 -0.8836 -0.1774 -1.2905
  785SOL     MW 3140   0.434   0.534   2.166 -0.0080 -0.8083 -0.0816
  786SOL     OW 3141   1.997   0.473   2.805 -0.0588  0.0668 -0.3636
  786SOL    HW1 3142   1.999   0.525   2.880 -2.3358  3.5674 -0.7454
  786SOL    HW2 3143   2.089   0.462   2.761  3.9157 -0.0756 -2.5319
  786SOL     MW 3144   2.010   0.478   2.809  0.1652  0.5099 -0.7001
  787SOL     OW 3145   2.437   0.130   2.953  0.2491 -0.1362  0.0220
  787SOL    HW1 3146   2.494   0.078   2.891 -1.1475 -3.4163 -0.3753
  787SOL    HW2 3147   2.488   0.206   2.988  1.4808  1.2823  0.6514
  787SOL     MW 3148   2.452   0.133   2.949  0.2274 -0.3818  0.0526
  788SOL     OW 3149   2.857   2.884   2.358  0.0410 -0.6830 -0.1860
  788SOL    HW1 3150   2.818   2.845   2.287  1.0675  0.8835  0.4492
  788SOL    HW2 3151   2.924   2.820   2.387 -3.1547  0.3170 -2.7781
  788SOL     MW 3152   2.861   2.871   2.353 -0.2452 -0.3444 -0.4442
  789SOL     OW 3153   0.096   0.272   2.947 -0.3815 -0.4723 -0.1280
  789SOL    HW1 3154   0.018   0.241   2.988  0.6399  1.9355 -2.1402
  789SOL    HW2 3155   0.099   0.368   2.947  1.5542 -2.7839  1.0361
  789SOL     MW 3156   0.086   0.280   2.953  0.0087 -0.4596 -0.2399
  790SOL     OW 3157   3.075   1.031   2.431  0.3518 -0.1040  0.1913
  790SOL    HW1 3158   3.036   0.977   2.511 -3.8558 -0.9718 -1.1243
  790SOL    HW2 3159   3.000   1.038   2.376  3.0151 -1.4610  1.1508
  790SOL     MW 3160   3.060   1.025   2.434  0.1481 -0.3975  0.1443
  791SOL     OW 3161   2.653   0.364   2.690  0.1106 -0.2197 -0.1424
  791SOL    HW1 3162   2.597   0.439   2.713  1.2766  1.0666 -0.1713
  791SOL    HW2 3163   2.725   0.384   2.750 -0.5617 -0.5983  0.0557
  791SOL     MW 3164   2.655   0.376   2.701  0.1758 -0.0999 -0.1201
  792SOL     OW 3165   2.425   0.227   2.359  0.5716 -0.4381  0.0134
  792SOL    HW1 3166   2.355   0.266   2.406  3.2618  1.9062 -0.2625
  792SOL    HW2 3167   2.470   0.180   2.435  1.2781  1.0345  4.7205
  792SOL     MW 3168   2.422   0.226   2.375  1.0197  0.0655  0.5980
  793SOL     OW 3169   1.805   1.054   1.944 -0.5625 -0.1788  0.5100
  793SOL    HW1 3170   1.752   1.075   1.862  2.2624 -2.9272 -0.6874
  793SOL    HW2 3171   1.879   1.006   1.914  1.0341 -1.1930  2.7077
  793SOL     MW 3172   1.808   1.050   1.929  0.0209 -0.6752  0.6420
  794SOL     OW 3173   1.478   2.260   0.133 -0.0386 -0.0246 -0.3276
  794SOL    HW1 3174   1.495   2.330   0.062 -1.9556  0.2115  0.1049
  794SOL    HW2 3175   1.528   2.290   0.213  1.2530  1.9812 -0.7696
  794SOL     MW 3176   1.487   2.273   0.134 -0.1211  0.2712 -0.3288
  795SOL     OW 3177   2.300   0.950   2.610 -0.4931  0.0918 -0.0309
  795SOL    HW1 3178   2.263   1.029   2.646  0.0093  1.6162  0.7444
  795SOL    HW2 3179   2.280   0.969   2.515  0.2375  1.8552 -0.5669
  795SOL     MW 3180   2.293   0.963   2.602 -0.3304  0.5256  0.0007
  796SOL     OW 3181   0.254   0.649   2.767  0.3679  0.1979 -0.4204
  796SOL    HW1 3182   0.262   0.743   2.790  0.0108  0.1729  1.9598
  796SOL    HW2 3183   0.189   0.631   2.695  0.6576  0.0269  0.7474
  796SOL     MW 3184   0.247   0.659   2.760  0.3590  0.1720  0.0477
  797SOL     OW 3185   2.602   0.130   2.540 -0.1565  0.0354  0.6359
  797SOL    HW1 3186   2.631   0.206   2.579  1.0339  1.0050 -0.7379
  797SOL    HW2 3187   2.674   0.103   2.481 -2.0263  0.3918  1.7626
  797SOL     MW 3188   2.615   0.137   2.537 -0.2461  0.2103  0.6033
  798SOL     OW 3189   2.353   0.016   2.186 -0.5156  0.2374  0.0707
  798SOL    HW1 3190   2.350   0.083   2.252  1.9700 -1.0543 -0.9048
  798SOL    HW2 3191   2.440   0.006   2.148  0.5955  0.4580  0.3537
  798SOL     MW 3192   2.364   0.023   2.190 -0.0410  0.0961 -0.0207
  799SOL     OW 3193   2.452   2.938   0.179 -0.0013  0.0200  0.3627
  799SOL    HW1 3194   2.485   2.912   0.094  0.9887  1.3791 -1.0478
  799SOL    HW2 3195   2.414   3.022   0.161 -1.0144  0.8777 -0.7641
  799SOL     MW 3196   2.452   2.945   0.166 -0.0044  0.3125  0.0279
  800SOL     OW 3197   1.852   3.065   1.795  0.0915 -0.5424 -0.3695
  800SOL    HW1 3198   1.810   2.978   1.801 -1.3941 -0.1299  0.9826
  800SOL    HW2 3199   1.929   3.051   1.855  0.9950  1.0460 -0.2775
  800SOL     MW 3200   1.857   3.052   1.804  0.0147 -0.2784 -0.1790
  801SOL     OW 3201   2.804   1.274   2.636  0.5063  0.4772 -0.4694
  801SOL    HW1 3202   2.759   1.194   2.601  1.2193  0.5019  1.6457
  801SOL    HW2 3203   2.892   1.283   2.589 -1.4809  0.4731  1.5086
  801SOL     MW 3204   2.810   1.264   2.625  0.3382  0.4799  0.0707
  802SOL     OW 3205   2.557   1.528   2.813  0.1911 -0.2939  0.3074
  802SOL    HW1 3206   2.548   1.441   2.767 -1.7603 -1.3739 -1.4114
  802SOL    HW2 3207   2.643   1.538   2.859 -1.8828 -0.0434 -2.7865
  802SOL     MW 3208   2.567   1.518   2.813 -0.3400 -0.4033 -0.3276
  803SOL     OW 3209   2.327   1.282   1.967  0.1650 -0.5018 -0.6810
  803SOL    HW1 3210   2.287   1.247   2.044  0.8180 -0.3227 -1.0742
  803SOL    HW2 3211   2.290   1.246   1.889 -0.5772  0.0254  0.3283
  803SOL     MW 3212   2.317   1.273   1.967  0.1532 -0.4086 -0.5997
  804SOL     OW 3213   2.292   0.081   0.059 -0.3748  0.2580 -0.4537
  804SOL    HW1 3214   2.214   0.140   0.058 -2.1676 -0.9742  2.2365
  804SOL    HW2 3215   2.338   0.112  -0.024 -0.0195  0.9806  1.2237
  804SOL     MW 3216   2.288   0.093   0.048 -0.5645  0.1908  0.1225
  805SOL     OW 3217   2.665   1.033   2.554 -0.4019 -0.6690  0.3350
  805SOL    HW1 3218   2.618   0.949   2.545  0.3330 -0.1624  0.0039
  805SOL    HW2 3219   2.752   0.988   2.551 -1.9770 -1.0114  3.0850
  805SOL     MW 3220   2.670   1.016   2.552 -0.5128 -0.6473  0.6541
  806SOL     OW 3221   2.583   0.435   2.257  0.5864  0.0082  0.4064
  806SOL    HW1 3222   2.528   0.361   2.299  3.1544 -1.2962  0.0411
  806SOL    HW2 3223   2.616   0.393   2.175  0.9345  1.8575  0.7079
  806SOL     MW 3224   2.580   0.420   2.251  0.9711  0.0801  0.3980
  807SOL     OW 3225   3.097   1.099   2.108 -0.1024 -0.4068  0.2235
  807SOL    HW1 3226   3.157   1.029   2.089  2.9396  1.4925  0.0122
  807SOL    HW2 3227   3.013   1.056   2.141  0.4240  0.4830 -2.2119
  807SOL     MW 3228   3.094   1.084   2.110  0.3684 -0.0388 -0.1257
  808SOL     OW 3229   2.602   3.074   2.778  0.9155  0.0396 -0.4502
  808SOL    HW1 3230   2.554   2.990   2.769  0.0568  3.4800 -0.8152
  808SOL    HW2 3231   2.591   3.111   2.694  0.1888 -0.7463 -1.3706
  808SOL     MW 3232   2.594   3.067   2.766  0.7063  0.3898 -0.6198
  809SOL     OW 3233   2.544   1.230   2.403  0.4102  0.4059  0.0939
  809SOL    HW1 3234   2.586   1.169   2.456 -3.1932 -0.0575 -2.4315
  809SOL    HW2 3235   2.593   1.219   2.319 -1.3032 -1.2353 -0.4931
  809SOL     MW 3236   2.556   1.220   2.399 -0.2913  0.1282 -0.3168
  810SOL     OW 3237   2.194   1.241   2.196 -0.3383 -0.6752  0.1715
  810SOL    HW1 3238   2.242   1.165   2.230 -1.6758 -0.5880 -0.4001
  810SOL    HW2 3239   2.102   1.217   2.199  3.2666 -0.3955  1.2788
  810SOL     MW 3240   2.188   1.228   2.201 -0.0392 -0.6268  0.2422
  811SOL     OW 3241   1.548   0.072   2.288  0.1146  0.3266 -0.1543
  811SOL    HW1 3242   1.623   0.019   2.331  5.3814 -3.1638 -0.9717
  811SOL    HW2 3243   1.568   0.077   2.191  0.5572 -1.0075  0.4331
  811SOL     MW 3244   1.561   0.066   2.281  0.8679 -0.3100 -0.1847
  812SOL     OW 3245   1.443   2.790   2.043 -0.5571  0.4123 -0.2800
  812SOL    HW1 3246   1.536   2.761   2.033  0.4053 -0.1154 -1.1227
  812SOL    HW2 3247   1.435   2.795   2.139  2.5525 -1.9419 -0.5511
  812SOL     MW 3248   1.454   2.787   2.055 -0.0198  0.0321 -0.4270
  813SOL     OW 3249   1.796   0.730   2.208  0.4250  0.6079 -0.3504
  813SOL    HW1 3250   1.748   0.642   2.228  1.4148  0.2628  3.3952
  813SOL    HW2 3251   1.858   0.740   2.281 -0.0041  0.5960 -0.9463
  813SOL     MW 3252   1.798   0.720   2.220  0.4989  0.5608  0.0652
  814SOL     OW 3253   2.751   1.260   1.620 -0.0792 -0.1881 -0.1587
  814SOL    HW1 3254   2.668   1.232   1.660 -0.2433  1.4816 -1.0579
  814SOL    HW2 3255   2.761   1.195   1.553  1.0983 -0.6192 -1.4790
  814SOL     MW 3256   2.741   1.247   1.617  0.0545 -0.0247 -0.4516
  815SOL     OW 3257   2.498   1.653   2.400 -0.2796  0.0084 -0.0975
  815SOL    HW1 3258   2.464   1.573   2.372 -2.3344  1.7975  0.9773
  815SOL    HW2 3259   2.586   1.621   2.431  0.7781  0.5060  1.7559
  815SOL     MW 3260   2.505   1.638   2.401 -0.4111  0.3101  0.2889
  816SOL     OW 3261   0.751   0.669   2.732 -0.1846  0.1304  0.0846
  816SOL    HW1 3262   0.746   0.606   2.806  1.3146 -2.2900  0.7689
  816SOL    HW2 3263   0.664   0.670   2.690  0.0392  2.7351 -2.3527
  816SOL     MW 3264   0.739   0.661   2.736  0.0427  0.1547 -0.1467
  817SOL     OW 3265   3.051   1.153   1.375 -0.1009  0.1522  0.3314
  817SOL    HW1 3266   3.109   1.166   1.450 -0.8015 -2.3169 -1.5258
  817SOL    HW2 3267   3.039   1.236   1.329  1.6757 -2.8692 -1.7259
  817SOL     MW 3268   3.057   1.165   1.379  0.0411 -0.5722 -0.1851
  818SOL     OW 3269   1.902   1.037   2.717 -0.3729 -0.0194 -0.0736
  818SOL    HW1 3270   1.940   1.051   2.630  0.5416  1.1366  0.4222
  818SOL    HW2 3271   1.892   0.948   2.730  2.0169  0.5849  0.5319
  818SOL     MW 3272   1.906   1.027   2.707  0.0631  0.2129  0.0717
  819SOL     OW 3273   1.929   0.215   2.435 -1.1158 -0.7708 -0.8992
  819SOL    HW1 3274   1.880   0.295   2.433 -0.0939 -2.2341  1.8184
  819SOL    HW2 3275   1.954   0.209   2.532 -0.6392  1.2708  0.0096
  819SOL     MW 3276   1.926   0.224   2.448 -0.9181 -0.6945 -0.4208
  820SOL     OW 3277   2.485   1.751   2.656 -0.0420 -0.4268 -0.2260
  820SOL    HW1 3278   2.519   1.686   2.718 -0.0257  2.3880  4.1987
  820SOL    HW2 3279   2.497   1.715   2.571 -0.6213  0.8495  2.4803
  820SOL     MW 3280   2.491   1.738   2.653 -0.1163  0.1130  0.7148
  821SOL     OW 3281   2.592   1.354   1.942 -0.1220  0.3224 -0.4895
  821SOL    HW1 3282   2.619   1.447   1.930 -1.5883 -0.0035  0.4995
  821SOL    HW2 3283   2.497   1.349   1.963 -0.1150 -3.1424 -1.6561
  821SOL     MW 3284   2.583   1.365   1.943 -0.3145 -0.1778 -0.5129
  822SOL     OW 3285   2.849   2.701   1.452  0.1026  0.3138 -0.2907
  822SOL    HW1 3286   2.811   2.718   1.536  0.7078  0.8191  2.2945
  822SOL    HW2 3287   2.794   2.738   1.382 -0.6177  1.6944 -0.6334
  822SOL     MW 3288   2.837   2.708   1.454  0.0874  0.5626  0.0052
  823SOL     OW 3289   2.273   0.458   1.793 -0.0984  0.0941 -0.8625
  823SOL    HW1 3290   2.345   0.446   1.721 -0.5660  0.2841 -3.8353
  823SOL    HW2 3291   2.186   0.425   1.754  1.2979 -0.7960 -1.3068
  823SOL     MW 3292   2.271   0.452   1.778  0.0241  0.0017 -1.3133
  824SOL     OW 3293   2.087   1.405   2.514 -0.3846  0.6230 -0.0868
  824SOL    HW1 3294   2.173   1.428   2.487  2.1513 -0.3964 -1.0509
  824SOL    HW2 3295   2.044   1.461   2.581 -1.9399  0.0068 -0.1441
  824SOL     MW 3296   2.092   1.415   2.519 -0.2552  0.4072 -0.2215
  825SOL     OW 3297   2.104   2.545   0.371  0.6476 -0.3064  0.5057
  825SOL    HW1 3298   2.040   2.476   0.365 -1.5941 -1.0053 -2.7283
  825SOL    HW2 3299   2.188   2.496   0.385  0.9319  2.0721 -0.1513
  825SOL     MW 3300   2.107   2.530   0.372  0.3893 -0.0848 -0.0077
  826SOL     OW 3301   1.822   2.389   0.467 -0.7341  0.1363  0.1788
  826SOL    HW1 3302   1.820   2.319   0.533 -1.9906 -1.2600 -2.4602
  826SOL    HW2 3303   1.830   2.459   0.530 -3.4187 -2.2814 -1.6601
  826SOL     MW 3304   1.823   2.389   0.484 -1.2541 -0.3669 -0.4120
  827SOL     OW 3305   1.955   2.191   0.855 -0.7225  0.5879  0.5545
  827SOL    HW1 3306   1.891   2.214   0.785  1.1875  4.1110  1.3338
  827SOL    HW2 3307   1.908   2.118   0.897  0.1739  2.4056 -0.3501
  827SOL     MW 3308   1.941   2.185   0.851 -0.3522  1.2925  0.5380
  828SOL     OW 3309   0.076   2.600   0.517  0.5628 -0.1629  0.2899
  828SOL    HW1 3310   0.170   2.603   0.511  2.3802 -1.5633 -0.7317
  828SOL    HW2 3311   0.047   2.665   0.456  1.8275 -1.0377  0.3562
  828SOL     MW 3312   0.085   2.609   0.508  0.9694 -0.4631  0.1639
  829SOL     OW 3313   3.002   2.904   1.211  0.0588 -0.4648  0.1244
  829SOL    HW1 3314   2.937   2.891   1.148 -0.5098 -0.8500 -0.8091
  829SOL    HW2 3315   3.070   2.834   1.196  0.5533 -0.6914 -1.3514
  829SOL     MW 3316   3.003   2.893   1.200  0.0490 -0.5455 -0.1935
  830SOL     OW 3317   2.528   2.831   2.030  0.5569 -0.7177 -0.1191
  830SOL    HW1 3318   2.433   2.857   2.030 -2.9255 -0.7361  0.2503
  830SOL    HW2 3319   2.552   2.814   1.940  0.4060 -1.3962  2.2485
  830SOL     MW 3320   2.518   2.832   2.018  0.0775 -0.8096  0.2420
  831SOL     OW 3321   2.448   2.435   1.217  0.4614  0.0011 -0.3863
  831SOL    HW1 3322   2.405   2.363   1.262  4.1672 -1.4949 -0.7419
  831SOL    HW2 3323   2.539   2.407   1.206  3.0243  0.1605  1.4127
  831SOL     MW 3324   2.454   2.422   1.222  1.2885 -0.1753 -0.1959
  832SOL     OW 3325   2.396   2.119   1.793  0.1065 -0.5193  0.1110
  832SOL    HW1 3326   2.413   2.211   1.828 -0.1612 -0.2664  2.2822
  832SOL    HW2 3327   2.486   2.096   1.773 -2.4323  0.3864  2.1643
  832SOL     MW 3328   2.410   2.128   1.795 -0.2638 -0.3664  0.6684
  833SOL     OW 3329   1.767   2.530   0.926  0.3714  0.4195 -0.1103
  833SOL    HW1 3330   1.691   2.474   0.927 -4.3526 -0.4959  0.1049
  833SOL    HW2 3331   1.760   2.618   0.974 -4.4080  2.4209  0.4764
  833SOL     MW 3332   1.756   2.535   0.933 -0.8825  0.5628 -0.0045
  834SOL     OW 3333   2.268   2.362   0.590  0.5656 -0.8564  0.1733
  834SOL    HW1 3334   2.278   2.289   0.646  0.5620  0.7659 -0.4485
  834SOL    HW2 3335   2.346   2.373   0.542 -0.9576  0.0888  4.3498
  834SOL     MW 3336   2.280   2.354   0.591  0.3642 -0.5176  0.6423
  835SOL     OW 3337   1.837   2.593   0.675  0.7777  0.3050 -0.0580
  835SOL    HW1 3338   1.808   2.571   0.766  2.5161 -1.2381  0.5106
  835SOL    HW2 3339   1.920   2.633   0.684  0.3658  0.1846  0.0697
  835SOL     MW 3340   1.844   2.595   0.689  0.9527  0.0855  0.0339
  836SOL     OW 3341   2.064   2.205   1.623 -0.0884 -0.1528  0.0373
  836SOL    HW1 3342   2.136   2.143   1.596  1.3999  0.7649 -1.6034
  836SOL    HW2 3343   2.111   2.288   1.641  0.2486 -1.6351  2.5393
  836SOL     MW 3344   2.079   2.208   1.622  0.1524 -0.2273  0.1510
  837SOL     OW 3345   2.063   0.173   0.700  0.2300  0.6318 -0.1541
  837SOL    HW1 3346   1.983   0.192   0.654  3.8491  2.2488  1.5786
  837SOL    HW2 3347   2.120   0.145   0.627 -1.0971 -1.7935  2.6100
  837SOL     MW 3348   2.060   0.171   0.685  0.5324  0.5252  0.4392
  838SOL     OW 3349   2.864   2.071   0.961 -0.2499  0.3990  0.0824
  838SOL    HW1 3350   2.797   2.006   0.953  1.7323  0.2367 -0.8473
  838SOL    HW2 3351   2.914   2.050   1.039 -0.9348  0.2804  2.1251
  838SOL     MW 3352   2.862   2.060   0.970 -0.0787  0.3620  0.2292
  839SOL     OW 3353   1.528   2.391   0.962  0.1017 -0.2094  0.5713
  839SOL    HW1 3354   1.511   2.448   1.032  0.1195  0.3114  0.3991
  839SOL    HW2 3355   1.566   2.316   1.003 -0.2202 -1.1001 -1.7965
  839SOL     MW 3356   1.531   2.389   0.977  0.0615 -0.2582  0.2361
  840SOL     OW 3357   2.273   2.125   2.436  0.3865  0.1014 -0.1298
  840SOL    HW1 3358   2.227   2.205   2.390 -2.0401  2.6873  0.0584
  840SOL    HW2 3359   2.345   2.171   2.477 -0.7538  2.3212  3.6050
  840SOL     MW 3360   2.276   2.142   2.435 -0.0841  0.7355  0.3878
  841SOL     OW 3361   2.276   2.422   0.059 -0.0322 -0.1875 -0.4686
  841SOL    HW1 3362   2.279   2.484  -0.010 -1.9378 -0.6460  1.5171
  841SOL    HW2 3363   2.200   2.368   0.044  0.2442 -1.3712 -0.4980
  841SOL     MW 3364   2.267   2.423   0.048 -0.2471 -0.4042 -0.2105
  842SOL     OW 3365   2.664   1.989   1.450  0.3531 -0.5448 -0.5545
  842SOL    HW1 3366   2.607   1.916   1.454  0.1647  0.2005 -0.9560
  842SOL    HW2 3367   2.628   2.034   1.379 -4.5138 -1.8599 -1.5381
  842SOL     MW 3368   2.652   1.985   1.441 -0.3139 -0.6199 -0.7373
  843SOL     OW 3369   2.648   2.772   1.784  0.7394 -0.3909 -0.1425
  843SOL    HW1 3370   2.733   2.735   1.811  1.2540 -0.2124  0.6831
  843SOL    HW2 3371   2.599   2.691   1.754  0.4256 -1.5415 -1.1456
  843SOL     MW 3372   2.653   2.756   1.784  0.7659 -0.5192 -0.1659
  844SOL     OW 3373   2.701   2.342   1.171  0.5450 -0.2275 -0.2127
  844SOL    HW1 3374   2.746   2.373   1.095  1.6495  0.8121  0.9311
  844SOL    HW2 3375   2.755   2.365   1.251 -3.6487 -0.6097 -1.3173
  844SOL     MW 3376   2.714   2.349   1.171  0.1374 -0.1407 -0.2075
  845SOL     OW 3377   2.848   2.597   0.338 -0.1680 -0.2285 -0.6566
  845SOL    HW1 3378   2.810   2.513   0.356 -1.1715  3.7718 -1.0484
  845SOL    HW2 3379   2.822   2.656   0.410 -3.4358  1.4499 -1.5555
  845SOL     MW 3380   2.839   2.594   0.350 -0.7315  0.5207 -0.8269
  846SOL     OW 3381   1.523   2.806   0.840  0.0512 -0.2869  0.1888
  846SOL    HW1 3382   1.607   2.848   0.812  0.8605  1.9399 -0.5387
  846SOL    HW2 3383   1.455   2.874   0.858  1.4022  0.1882  4.4150
  846SOL     MW 3384   1.525   2.820   0.838  0.3362  0.0696  0.6504
  847SOL     OW 3385   2.475   1.895   0.162  0.3412 -0.4736 -0.7069
  847SOL    HW1 3386   2.487   1.808   0.208  1.5263  1.1140 -2.3615
  847SOL    HW2 3387   2.481   1.863   0.071 -1.2682  0.6550 -0.2496
  847SOL     MW 3388   2.478   1.879   0.156  0.2852 -0.1153 -0.8649
  848SOL     OW 3389   2.544   2.112   1.184  0.1695  0.3148  0.7061
  848SOL    HW1 3390   2.617   2.176   1.176  0.2159  1.2875  0.7968
  848SOL    HW2 3391   2.512   2.094   1.095  1.6465 -0.8003  0.4059
  848SOL     MW 3392   2.550   2.118   1.171  0.3705  0.2960  0.6784
  849SOL     OW 3393   2.036   2.774   0.803 -0.6094 -0.8913 -0.0513
  849SOL    HW1 3394   2.011   2.718   0.875 -0.2005 -0.3092  2.2956
  849SOL    HW2 3395   2.130   2.760   0.781 -2.4071 -1.5890 -0.7111
  849SOL     MW 3396   2.045   2.765   0.809 -0.7926 -0.9066  0.1713
  850SOL     OW 3397   2.309   1.795   1.639  0.6845 -0.1113  0.5533
  850SOL    HW1 3398   2.243   1.743   1.597 -1.5306 -1.8674  0.3225
  850SOL    HW2 3399   2.277   1.888   1.621  1.4491 -0.3107 -2.0546
  850SOL     MW 3400   2.296   1.800   1.631  0.4931 -0.3693  0.1788
  851SOL     OW 3401   2.371   2.351   0.303  0.2112  0.0831  0.7980
  851SOL    HW1 3402   2.359   2.377   0.211 -1.3481 -0.8433  0.3023
  851SOL    HW2 3403   2.435   2.411   0.339 -1.8742 -0.7879  1.5468
  851SOL     MW 3404   2.378   2.363   0.296 -0.2697 -0.1540  0.8314
  852SOL     OW 3405   2.334   2.084   0.320 -0.3040  0.0748 -0.2811
  852SOL    HW1 3406   2.353   2.176   0.300  0.4495  0.0113  0.3659
  852SOL    HW2 3407   2.377   2.018   0.264 -1.6570  0.6050  0.5169
  852SOL     MW 3408   2.342   2.088   0.310 -0.3831  0.1364 -0.0904
  853SOL     OW 3409   2.463   2.355   1.899  0.0543  0.0591  0.6041
  853SOL    HW1 3410   2.463   2.413   1.825 -0.4314 -1.3169  2.7910
  853SOL    HW2 3411   2.546   2.359   1.946 -0.1793  0.1603 -2.4130
  853SOL     MW 3412   2.474   2.363   1.896 -0.0406 -0.1091  0.4945
  854SOL     OW 3413   2.853   2.233   0.729  0.2015  0.2417  0.0609
  854SOL    HW1 3414   2.765   2.197   0.707  0.4688 -1.8878  1.3036
  854SOL    HW2 3415   2.885   2.173   0.800  0.3119 -0.9353 -1.7318
  854SOL     MW 3416   2.845   2.220   0.735  0.2514 -0.1946 -0.0117
  855SOL     OW 3417   2.716   2.363   0.363  0.4903  0.1310  0.3013
  855SOL    HW1 3418   2.653   2.387   0.435  1.8346  0.8258  0.3657
  855SOL    HW2 3419   2.725   2.268   0.370  0.5782  1.0939  1.0115
  855SOL     MW 3420   2.709   2.354   0.373  0.6793  0.3497  0.4035
  856SOL     OW 3421   2.125   1.890   0.222 -0.8479 -0.3092 -1.0632
  856SOL    HW1 3422   2.034   1.880   0.255 -0.2424  1.4859  0.2878
  856SOL    HW2 3423   2.144   1.970   0.272 -1.0769 -2.2878  2.5487
  856SOL     MW 3424   2.116   1.899   0.233 -0.7982 -0.3334 -0.4084
  857SOL     OW 3425   2.483   1.954   0.541  0.6249 -0.2693  0.3957
  857SOL    HW1 3426   2.442   1.996   0.464 -1.3292  1.2851  0.3443
  857SOL    HW2 3427   2.417   1.917   0.600  0.4459  1.9444 -0.0439
  857SOL     MW 3428   2.469   1.955   0.539  0.3435  0.2279  0.3310
  858SOL     OW 3429   2.896   2.658   1.791 -0.4629 -0.1161  0.0374
  858SOL    HW1 3430   2.986   2.684   1.764 -1.7581  1.7769  1.9964
  858SOL    HW2 3431   2.894   2.559   1.796 -1.6098 -1.0464 -1.8378
  858SOL     MW 3432   2.908   2.648   1.788 -0.7851  0.0109  0.0485
  859SOL     OW 3433   1.997   2.684   1.071 -1.3223  1.1932  0.0644
  859SOL    HW1 3434   2.017   2.589   1.058 -3.4816 -0.4712 -2.0493
  859SOL    HW2 3435   2.085   2.723   1.094 -0.7715  1.8597  0.0304
  859SOL     MW 3436   2.012   2.677   1.072 -1.5345  1.0615 -0.2189
  860SOL     OW 3437   2.666   2.652   0.150 -0.4259  0.1429  0.4088
  860SOL    HW1 3438   2.737   2.632   0.225 -2.0573  1.1732  0.9126
  860SOL    HW2 3439   2.686   2.743   0.115 -0.6498  0.5342  3.0670
  860SOL     MW 3440   2.678   2.661   0.155 -0.6707  0.3304  0.8260
  861SOL     OW 3441   1.633   2.194   1.123  0.1784  0.7471  0.4119
  861SOL    HW1 3442   1.672   2.265   1.175  0.8686  1.7673  1.6835
  861SOL    HW2 3443   1.588   2.135   1.186 -0.4446 -2.1017 -1.6359
  861SOL     MW 3444   1.633   2.195   1.138  0.1872  0.5058  0.3095
  862SOL     OW 3445   2.514   1.772   1.479  0.1263 -0.1939 -0.2744
  862SOL    HW1 3446   2.453   1.801   1.545  2.5837 -0.4773  2.6305
  862SOL    HW2 3447   2.471   1.765   1.393  0.8063  0.4034 -0.0359
  862SOL     MW 3448   2.500   1.775   1.476  0.5403 -0.1525  0.1403
  863SOL     OW 3449   2.982   1.785   1.023  0.1253 -0.1005 -0.1918
  863SOL    HW1 3450   3.071   1.779   1.057 -1.5380 -0.4128 -1.0811
  863SOL    HW2 3451   2.940   1.841   1.083  1.4174  0.3479 -1.1340
  863SOL     MW 3452   2.988   1.791   1.035  0.0764 -0.0825 -0.4335
  864SOL     OW 3453   0.067   1.837   0.818 -0.0988  0.1683 -0.4473
  864SOL    HW1 3454  -0.006   1.801   0.864  2.2798  1.0863  1.0694
  864SOL    HW2 3455   0.046   1.812   0.731 -2.6607 -0.7511  2.3162
  864SOL     MW 3456   0.054   1.829   0.813 -0.1230  0.1682  0.1174
  865SOL     OW 3457   2.616   2.156   0.045  0.5933 -0.1990  0.4865
  865SOL    HW1 3458   2.596   2.082   0.105  0.8012  1.2078  1.9307
  865SOL    HW2 3459   2.549   2.136  -0.020  0.4649 -0.2795  0.2435
  865SOL     MW 3460   2.605   2.144   0.044  0.6038 -0.0240  0.6450
  866SOL     OW 3461   2.628   2.343   1.594 -0.3085  0.6578 -0.0598
  866SOL    HW1 3462   2.616   2.250   1.621 -0.8388 -0.4106 -0.8444
  866SOL    HW2 3463   2.684   2.342   1.518 -3.3504  0.6993  1.8096
  866SOL     MW 3464   2.634   2.331   1.588 -0.7798  0.5223  0.0833
  867SOL     OW 3465   0.079   2.695   1.751 -0.0233  0.1005  0.1091
  867SOL    HW1 3466   0.143   2.721   1.817 -1.8963  2.2153 -0.5814
  867SOL    HW2 3467   0.115   2.727   1.663  1.5459  0.5015  0.3446
  867SOL     MW 3468   0.092   2.702   1.748 -0.0634  0.4324  0.0491
  868SOL     OW 3469   2.746   2.690   0.578 -0.3216 -0.2967 -0.1925
  868SOL    HW1 3470   2.710   2.602   0.595 -0.1697  1.1265  0.6154
  868SOL    HW2 3471   2.683   2.741   0.528 -2.0984  1.2710 -0.1961
  868SOL     MW 3472   2.733   2.685   0.574 -0.5360  0.0979 -0.0864
  869SOL     OW 3473   2.102   2.403   1.012  0.0806  0.5082 -0.3195
  869SOL    HW1 3474   2.199   2.394   1.000  0.5977  1.1342  0.1020
  869SOL    HW2 3475   2.056   2.348   0.950  1.4119  0.9378 -0.1300
  869SOL     MW 3476   2.109   2.394   1.002  0.3245  0.6475 -0.2389
  870SOL     OW 3477   2.176   0.087   0.471  0.1071  0.2858 -0.1955
  870SOL    HW1 3478   2.237   0.129   0.400  2.2465  0.3126 -0.9726
  870SOL    HW2 3479   2.188  -0.009   0.470 -0.3730  2.4155 -0.1906
  870SOL     MW 3480   2.186   0.080   0.462  0.3261  0.5703 -0.2974
  871SOL     OW 3481   2.470   2.090   0.922  0.2530  0.4866 -1.0637
  871SOL    HW1 3482   2.411   2.026   0.881 -1.5778 -1.0947 -0.3343
  871SOL    HW2 3483   2.415   2.170   0.928  1.4174 -0.7186  1.7229
  871SOL     MW 3484   2.455   2.092   0.918  0.1650  0.1190 -0.5998
  872SOL     OW 3485   2.059   2.547   1.506  0.1630  0.4371 -0.2310
  872SOL    HW1 3486   2.011   2.619   1.542 -1.4888 -0.0890 -0.2385
  872SOL    HW2 3487   2.023   2.535   1.420 -1.1801  0.8513  3.4090
  872SOL     MW 3488   2.048   2.555   1.500 -0.2322  0.4223  0.2483
  873SOL     OW 3489   2.850   2.120   1.908  0.1341 -0.2306 -0.9787
  873SOL    HW1 3490   2.843   2.195   1.971  0.0668  3.5418 -0.9653
  873SOL    HW2 3491   2.927   2.138   1.853 -0.7378 -1.1149 -0.8378
  873SOL     MW 3492   2.859   2.132   1.909  0.0102  0.1505 -0.9583
  874SOL     OW 3493   2.340   1.430   2.359  0.0090 -0.0982 -0.6467
  874SOL    HW1 3494   2.282   1.386   2.296 -2.7477  3.8360 -0.0578
  874SOL    HW2 3495   2.400   1.364   2.398  0.1345 -2.0835 -1.8436
  874SOL     MW 3496   2.340   1.416   2.356 -0.3381  0.1590 -0.7269
  875SOL     OW 3497   2.364   2.331   0.974 -0.1425 -0.1311  0.1159
  875SOL    HW1 3498   2.423   2.391   0.928 -0.5911 -2.4573 -0.5533
  875SOL    HW2 3499   2.400   2.349   1.064  3.5639  0.2332 -0.5550
  875SOL     MW 3500   2.376   2.341   0.980  0.2874 -0.3899 -0.0609
  876SOL     OW 3501   3.066   2.249   1.300 -0.1465 -0.1625 -0.9219
  876SOL    HW1 3502   3.086   2.305   1.226 -1.7579 -1.4496 -4.9156
  876SOL    HW2 3503   3.123   2.274   1.370 -0.1690 -0.4096 -0.6691
  876SOL     MW 3504   3.077   2.259   1.299 -0.3621 -0.3649 -1.4155
  877SOL     OW 3505   0.007   2.814   0.321 -0.3021 -0.1907 -0.0186
  877SOL    HW1 3506   0.074   2.870   0.289 -1.1515 -1.5304  0.5259
  877SOL    HW2 3507   0.011   2.744   0.258  1.6096 -0.2072 -1.5064
  877SOL     MW 3508   0.016   2.812   0.309 -0.1619 -0.3696 -0.1431
  878SOL     OW 3509   2.419   1.743   1.229 -0.2714 -0.8994  0.4082
  878SOL    HW1 3510   2.335   1.698   1.255 -2.5218 -1.2597 -0.5809
  878SOL    HW2 3511   2.473   1.673   1.201 -0.9895  2.2182 -1.7612
  878SOL     MW 3512   2.415   1.728   1.228 -0.6631 -0.5356 -0.0085
  879SOL     OW 3513   2.776   2.424   0.913 -0.1267 -1.1478 -0.8905
  879SOL    HW1 3514   2.839   2.492   0.935 -1.9443  2.2370 -0.2599
  879SOL    HW2 3515   2.808   2.366   0.837  2.0367 -1.6585 -2.4707
  879SOL     MW 3516   2.788   2.425   0.906 -0.0811 -0.7686 -1.0158
  880SOL     OW 3517   2.575   2.197   0.652 -0.3300  0.1926 -0.2354
  880SOL    HW1 3518   2.542   2.182   0.745 -1.5122  0.3387  2.5073
  880SOL    HW2 3519   2.556   2.109   0.600 -2.5566 -3.8333 -2.8381
  880SOL     MW 3520   2.568   2.183   0.658 -0.7797 -0.3193 -0.2170
  881SOL     OW 3521   3.006   2.740   0.690 -0.2451  0.1748  0.2612
  881SOL    HW1 3522   2.914   2.730   0.677  0.7959 -0.1043  1.7010
  881SOL    HW2 3523   3.064   2.687   0.626  0.4119 -0.9095 -2.3801
  881SOL     MW 3524   3.002   2.732   0.680 -0.0211 -0.0051  0.1027
  882SOL     OW 3525   2.258   2.866   1.954 -0.0778  0.4439  0.5585
  882SOL    HW1 3526   2.269   2.879   1.857  1.9212 -0.5220 -1.1218
  882SOL    HW2 3527   2.195   2.790   1.962 -1.9594  0.8563  1.1573
  882SOL     MW 3528   2.251   2.858   1.942 -0.0623  0.3709  0.4158
  883SOL     OW 3529   2.365   2.204   1.354  0.0801 -0.0391  0.0256
  883SOL    HW1 3530   2.421   2.148   1.287  1.4010  1.6018  0.9379
  883SOL    HW2 3531   2.269   2.194   1.323 -0.3075  1.2082 -0.4405
  883SOL     MW 3532   2.359   2.195   1.341  0.2032  0.3419  0.0845
  884SOL     OW 3533   1.997   1.798   1.063  0.6384 -0.1064  0.3913
  884SOL    HW1 3534   1.946   1.872   1.032  0.3627 -0.8618  1.4003
  884SOL    HW2 3535   2.088   1.820   1.056  0.8217  0.4539  0.5887
  884SOL     MW 3536   2.002   1.811   1.058  0.6262 -0.1321  0.5504
  885SOL     OW 3537   2.825   2.401   1.775 -0.4129 -0.0402 -0.1869
  885SOL    HW1 3538   2.903   2.339   1.755 -0.4170 -0.3713 -1.0185
  885SOL    HW2 3539   2.761   2.367   1.712  0.5291  1.7962  0.0606
  885SOL     MW 3540   2.827   2.389   1.764 -0.2892  0.1584 -0.2640
  886SOL     OW 3541   2.851   2.418   1.392  0.3046 -0.4472 -0.0409
  886SOL    HW1 3542   2.916   2.354   1.372  0.3843 -2.3973 -0.3209
  886SOL    HW2 3543   2.883   2.507   1.391  1.1279 -1.0364  0.6273
  886SOL     MW 3544   2.864   2.421   1.389  0.4237 -0.7822  0.0103
  887SOL     OW 3545   2.295   2.688   1.508  0.3421  0.3152 -0.4894
  887SOL    HW1 3546   2.338   2.696   1.421 -0.7802  1.7730 -2.6757
  887SOL    HW2 3547   2.223   2.626   1.512  0.2005 -0.3168  0.4140
  887SOL     MW 3548   2.291   2.681   1.497  0.1753  0.4242 -0.6587
  888SOL     OW 3549   1.914   2.190   1.383 -0.0494  0.2757  0.0711
  888SOL    HW1 3550   1.987   2.200   1.318  0.1743  0.8864  0.0559
  888SOL    HW2 3551   1.956   2.215   1.469  1.3360  0.9407 -1.4615
  888SOL     MW 3552   1.930   2.194   1.386  0.1629  0.4440 -0.1331
  889SOL     OW 3553   2.347   1.993   2.042 -0.0756  0.5230 -0.3973
  889SOL    HW1 3554   2.431   1.987   2.091  1.1365  0.2091  1.1531
  889SOL    HW2 3555   2.370   2.039   1.960 -0.1299 -1.0067 -1.6157
  889SOL     MW 3556   2.361   1.998   2.038  0.0772  0.2798 -0.3535
  890SOL     OW 3557   0.129   2.351   0.162 -0.3154 -0.7107  0.2410
  890SOL    HW1 3558   0.103   2.446   0.143  0.3385 -0.0680 -1.4062
  890SOL    HW2 3559   0.071   2.323   0.236  0.2006  0.8672 -1.3129
  890SOL     MW 3560   0.118   2.360   0.169 -0.1610 -0.4177 -0.1814
  891SOL     OW 3561   3.013   1.981   1.229 -0.7091  0.1652 -0.1638
  891SOL    HW1 3562   3.100   1.944   1.216 -1.7766  2.6857  2.3833
  891SOL    HW2 3563   3.008   2.076   1.250  2.0088  0.9153  0.5240
  891SOL     MW 3564   3.023   1.989   1.230 -0.4913  0.5967  0.2630
  892SOL     OW 3565   2.465   2.367   2.776 -0.1831 -0.1230  0.4015
  892SOL    HW1 3566   2.444   2.310   2.847  4.4491  1.2449 -0.6694
  892SOL    HW2 3567   2.562   2.369   2.787 -2.3293 -0.8613  1.4263
  892SOL     MW 3568   2.475   2.360   2.787  0.1449 -0.0399  0.3954
  893SOL     OW 3569   1.645   2.418   1.300 -0.3440 -0.5936  0.8251
  893SOL    HW1 3570   1.560   2.416   1.350  0.1706 -1.2853 -0.2345
  893SOL    HW2 3571   1.691   2.501   1.317 -0.5366 -0.4793  1.3001
  893SOL     MW 3572   1.640   2.428   1.309 -0.3015 -0.6698  0.7480
  894SOL     OW 3573   2.731   1.840   0.458  0.2152 -0.4931 -0.5768
  894SOL    HW1 3574   2.644   1.852   0.493 -2.8940 -0.4798  1.4800
  894SOL    HW2 3575   2.726   1.804   0.374 -1.5174 -2.4209  0.3727
  894SOL     MW 3576   2.719   1.837   0.451 -0.4236 -0.7457 -0.1801
  895SOL     OW 3577   2.125   2.182   1.214  0.9104 -0.1295 -0.6992
  895SOL    HW1 3578   2.121   2.235   1.135 -2.7662 -1.0829 -1.6477
  895SOL    HW2 3579   2.136   2.088   1.194 -1.8983  0.5848 -0.9980
  895SOL     MW 3580   2.126   2.176   1.201  0.0547 -0.1611 -0.8637
  896SOL     OW 3581   2.240   2.843   1.098  0.1983 -0.3590 -0.2580
  896SOL    HW1 3582   2.292   2.809   1.175 -0.0999 -1.3617 -0.4028
  896SOL    HW2 3583   2.165   2.893   1.146  1.3452 -1.6223  0.4302
  896SOL     MW 3584   2.237   2.845   1.115  0.3103 -0.6579 -0.1863
  897SOL     OW 3585   3.088   3.032   3.055  0.3567 -0.3145 -0.0023
  897SOL    HW1 3586   3.133   2.945   3.047  3.5855 -0.0758  0.4459
  897SOL    HW2 3587   3.004   3.010   3.024 -0.0873  2.9845  2.6274
  897SOL     MW 3588   3.083   3.018   3.050  0.7241  0.1522  0.4038
  898SOL     OW 3589   2.028   0.174   1.447 -0.2249 -0.2112 -0.2384
  898SOL    HW1 3590   2.002   0.088   1.485 -0.0706 -0.2580  0.9132
  898SOL    HW2 3591   2.050   0.155   1.355  0.9717 -0.2179 -2.1099
  898SOL     MW 3592   2.027   0.160   1.440 -0.0467 -0.2182 -0.3334
  899SOL     OW 3593   2.977   3.006   0.608  0.0279  0.7694 -0.0461
  899SOL    HW1 3594   2.991   2.920   0.652  1.6824 -2.0160  0.4619
  899SOL    HW2 3595   2.895   3.042   0.646 -1.2635  0.2935  0.2894
  899SOL     MW 3596   2.968   3.000   0.619  0.0758  0.3391  0.0652
  900SOL     OW 3597   0.052   2.416   1.100  0.5395  0.0735  0.2767
  900SOL    HW1 3598   0.063   2.513   1.122  2.0532  0.6914 -1.2909
  900SOL    HW2 3599   0.052   2.394   1.005  1.5302 -2.0698  1.0970
  900SOL     MW 3600   0.053   2.426   1.091  0.8699 -0.1278  0.1781
  901SOL     OW 3601   1.749   2.787   1.781 -0.0870  0.2420 -0.1712
  901SOL    HW1 3602   1.826   2.741   1.757 -2.3111  3.2973  1.2710
  901SOL    HW2 3603   1.692   2.769   1.709  0.2556  0.7263  0.7226
  901SOL     MW 3604   1.752   2.779   1.769 -0.3352  0.7090  0.1370
  902SOL     OW 3605   2.649   2.098   1.717  0.2901 -0.0479 -0.8572
  902SOL    HW1 3606   2.663   2.047   1.631 -0.3093  3.7236 -1.8099
  902SOL    HW2 3607   2.724   2.086   1.777  0.7074  1.7368 -1.1042
  902SOL     MW 3608   2.660   2.090   1.714  0.2661  0.6851 -1.0155
  903SOL     OW 3609   1.562   2.614   0.639 -0.7681 -0.2468 -0.0807
  903SOL    HW1 3610   1.655   2.619   0.623 -0.6998  1.2763  1.2239
  903SOL    HW2 3611   1.524   2.666   0.709 -1.8830 -1.6527 -1.7739
  903SOL     MW 3612   1.570   2.622   0.646 -0.9062 -0.2313 -0.1320
  904SOL     OW 3613   2.475   2.551   1.705  0.5353 -0.6590  0.4370
  904SOL    HW1 3614   2.435   2.603   1.635  0.0768 -0.2690 -0.1661
  904SOL    HW2 3615   2.538   2.495   1.666 -2.4345  0.1205  0.3002
  904SOL     MW 3616   2.478   2.551   1.691  0.0829 -0.5047  0.3394
  905SOL     OW 3617   2.317   2.493   2.090 -0.0868 -0.4033  0.1467
  905SOL    HW1 3618   2.378   2.458   2.027  1.4101 -0.3467 -2.0727
  905SOL    HW2 3619   2.270   2.424   2.144 -0.6865  2.4223  0.3101
  905SOL     MW 3620   2.319   2.479   2.089  0.0316 -0.0230 -0.1246
  906SOL     OW 3621   2.526   2.500   0.825 -0.4953  0.4284 -0.3140
  906SOL    HW1 3622   2.612   2.485   0.864 -0.4588  4.3934  3.2978
  906SOL    HW2 3623   2.502   2.589   0.845  2.7388 -0.7226 -0.5969
  906SOL     MW 3624   2.534   2.510   0.833 -0.0638  0.7997  0.1252
  907SOL     OW 3625   2.652   2.876   1.276  0.1269 -0.1073 -0.6059
  907SOL    HW1 3626   2.692   2.931   1.346  1.0279 -0.9566  1.7748
  907SOL    HW2 3627   2.704   2.878   1.192  0.0291  1.3087  0.6832
  907SOL     MW 3628   2.664   2.884   1.274  0.2328 -0.0325 -0.1217
  908SOL     OW 3629   2.719   2.406  -0.002  0.2268  0.2603 -0.4894
  908SOL    HW1 3630   2.681   2.321   0.030 -1.7806  0.2767  0.1273
  908SOL    HW2 3631   2.675   2.468   0.058  1.4705  0.0791 -0.5789
  908SOL     MW 3632   2.708   2.403   0.010  0.1261  0.2386 -0.4198
  909SOL     OW 3633   1.764   0.093   1.194 -0.0655  0.3689  0.8717
  909SOL    HW1 3634   1.741   0.160   1.134  1.0359 -1.5943  0.8588
  909SOL    HW2 3635   1.750   0.119   1.280  0.6451  1.2447 -0.9158
  909SOL     MW 3636   1.759   0.105   1.198  0.1735  0.2254  0.6342
  910SOL     OW 3637   2.211   1.705   0.412 -0.1672 -0.4578  0.4634
  910SOL    HW1 3638   2.159   1.623   0.398 -1.1962  1.3584 -0.6357
  910SOL    HW2 3639   2.182   1.774   0.349  1.9535 -0.1473 -0.1375
  910SOL     MW 3640   2.201   1.703   0.402 -0.0232 -0.1772  0.2391
  911SOL     OW 3641   2.276   2.058   1.560  0.5554  0.1439 -0.2596
  911SOL    HW1 3642   2.307   2.098   1.642 -2.0595 -0.4482 -1.1394
  911SOL    HW2 3643   2.322   2.110   1.487  0.4127 -0.2800  0.8253
  911SOL     MW 3644   2.286   2.070   1.561  0.1915  0.0099 -0.2326
  912SOL     OW 3645   2.922   1.903   1.480 -0.7166 -0.3901 -0.7433
  912SOL    HW1 3646   2.951   1.915   1.383 -2.3738 -0.3467 -0.5914
  912SOL    HW2 3647   2.830   1.930   1.488  2.2254  1.2369 -0.1639
  912SOL     MW 3648   2.914   1.908   1.469 -0.5471 -0.1697 -0.6468
  913SOL     OW 3649   2.634   3.084   0.356  0.4188 -0.0913 -0.8370
  913SOL    HW1 3650   2.711   3.032   0.347  0.2217 -0.4107  0.8418
  913SOL    HW2 3651   2.567   3.025   0.312 -0.4850  0.5466 -1.0595
  913SOL     MW 3652   2.635   3.069   0.349  0.2735 -0.0492 -0.6449
  914SOL     OW 3653   2.686   1.852   3.038 -0.1102  0.6710  0.5412
  914SOL    HW1 3654   2.728   1.935   3.025 -0.5833  0.9372  1.5145
  914SOL    HW2 3655   2.594   1.862   3.015  2.1642 -0.9447 -1.0214
  914SOL     MW 3656   2.680   1.864   3.033  0.1275  0.4929  0.4634
  915SOL     OW 3657   1.772   0.163   0.218  0.5933 -0.3994 -0.5345
  915SOL    HW1 3658   1.842   0.097   0.252 -1.8146 -0.0943  0.7451
  915SOL    HW2 3659   1.690   0.111   0.202 -1.4220 -0.4578 -1.7537
  915SOL     MW 3660   1.770   0.147   0.221  0.0097 -0.3669 -0.5265
  916SOL     OW 3661   1.763   2.169   1.992 -0.5095  0.3496  0.4283
  916SOL    HW1 3662   1.808   2.241   1.947  0.0329 -0.2522 -0.5721
  916SOL    HW2 3663   1.796   2.087   1.956 -2.6722  0.8178  0.7717
  916SOL     MW 3664   1.774   2.167   1.981 -0.7233  0.3320  0.3416
  917SOL     OW 3665   2.505   2.204   2.544  0.1549 -0.0010 -0.0885
  917SOL    HW1 3666   2.483   2.257   2.620  0.4660 -0.3424  1.6141
  917SOL    HW2 3667   2.585   2.248   2.519  1.3771  1.7001 -0.3237
  917SOL     MW 3668   2.513   2.217   2.551  0.3572  0.1784  0.1051
  918SOL     OW 3669   2.004   1.603   2.691  0.5548 -0.0333 -0.3404
  918SOL    HW1 3670   1.932   1.626   2.628 -0.6569 -0.0454  1.1209
  918SOL    HW2 3671   2.079   1.659   2.675  0.0792 -1.0098 -0.3184
  918SOL     MW 3672   2.004   1.614   2.681  0.3322 -0.1637 -0.1447
  919SOL     OW 3673   3.051   2.415   2.295 -0.3779  0.1140 -0.6165
  919SOL    HW1 3674   2.998   2.341   2.264  1.4264  1.1989 -2.3328
  919SOL    HW2 3675   3.133   2.404   2.233  1.2154 -0.1952 -1.5590
  919SOL     MW 3676   3.055   2.404   2.282  0.0704  0.2163 -0.9673
  920SOL     OW 3677   2.691   2.861   3.066 -0.0833 -0.4044 -0.1553
  920SOL    HW1 3678   2.595   2.859   3.059 -1.7314  0.1326 -2.5498
  920SOL    HW2 3679   2.726   2.785   3.015 -0.9374 -1.7291 -4.9353
  920SOL     MW 3680   2.683   2.851   3.059 -0.4134 -0.5083 -1.1019
  921SOL     OW 3681   2.439   2.599   2.600 -0.6188 -0.2254  0.1443
  921SOL    HW1 3682   2.524   2.621   2.563 -0.5539  0.3158  1.6467
  921SOL    HW2 3683   2.463   2.532   2.659 -0.1545  0.2483 -0.0438
  921SOL     MW 3684   2.453   2.593   2.603 -0.5490 -0.0915  0.3177
  922SOL     OW 3685   2.025   2.799   0.328  0.4350 -0.2260  0.3709
  922SOL    HW1 3686   2.018   2.825   0.235 -2.0265 -1.2294  0.4581
  922SOL    HW2 3687   2.060   2.703   0.333  0.7685 -2.0889 -0.4408
  922SOL     MW 3688   2.029   2.789   0.317  0.1542 -0.6041  0.2753
  923SOL     OW 3689   2.208   2.877   1.695 -0.1670  0.0220 -0.4107
  923SOL    HW1 3690   2.258   2.829   1.629 -0.7130 -0.4933  1.1387
  923SOL    HW2 3691   2.170   2.945   1.643  0.1740 -1.7441 -2.2368
  923SOL     MW 3692   2.210   2.879   1.679 -0.1941 -0.2790 -0.4472
  924SOL     OW 3693   1.140   2.764   2.635 -0.3388  0.0726 -0.3335
  924SOL    HW1 3694   1.234   2.762   2.618 -0.9528 -2.5539  1.8554
  924SOL    HW2 3695   1.115   2.704   2.699  0.3397  1.2080  0.3446
  924SOL     MW 3696   1.149   2.755   2.641 -0.3303 -0.1241  0.0448
  925SOL     OW 3697   3.043   0.220   2.687 -0.3664  0.4105  0.2987
  925SOL    HW1 3698   2.969   0.229   2.618 -1.5543 -2.3088  0.5244
  925SOL    HW2 3699   3.021   0.275   2.759  1.0397 -1.2599 -1.7912
  925SOL     MW 3700   3.030   0.229   2.687 -0.3376 -0.1687  0.0528
  926SOL     OW 3701   2.702   2.375   2.027 -0.0882 -0.7963 -0.0505
  926SOL    HW1 3702   2.734   2.453   2.080  1.9879  1.5127  0.6872
  926SOL    HW2 3703   2.734   2.389   1.932 -1.3092 -1.2818 -2.7273
  926SOL     MW 3704   2.710   2.387   2.021  0.0246 -0.5557 -0.3063
  927SOL     OW 3705   2.354   0.192   0.302 -0.2840  0.2548 -0.1538
  927SOL    HW1 3706   2.448   0.204   0.309  0.7696 -4.0529 -0.8027
  927SOL    HW2 3707   2.336   0.161   0.205 -0.9638  1.5172 -1.0960
  927SOL     MW 3708   2.364   0.190   0.290 -0.2347 -0.1470 -0.3637
  928SOL     OW 3709   2.164   2.442   1.757  0.2666  0.2879 -0.2762
  928SOL    HW1 3710   2.133   2.500   1.688  2.1165 -0.2267  0.9053
  928SOL    HW2 3711   2.246   2.483   1.786  2.0043 -2.9731  2.9654
  928SOL     MW 3712   2.171   2.455   1.752  0.7400 -0.2102  0.3074
  929SOL     OW 3713   2.732   2.348   2.470  0.2001  0.3903  0.1546
  929SOL    HW1 3714   2.786   2.299   2.402 -1.1357  0.2740 -2.1432
  929SOL    HW2 3715   2.797   2.346   2.546 -0.6508 -1.5435  3.8114
  929SOL     MW 3716   2.748   2.341   2.471 -0.0884  0.1199  0.3339
  930SOL     OW 3717   2.010   2.831   2.622 -0.5002  0.0989 -0.4125
  930SOL    HW1 3718   2.026   2.771   2.707 -1.4622  0.5426  0.4500
  930SOL    HW2 3719   2.084   2.888   2.618 -0.1891 -0.3035 -1.2913
  930SOL     MW 3720   2.022   2.830   2.633 -0.5861  0.1043 -0.4146
  931SOL     OW 3721   3.064   2.751   2.479  0.7482  0.1388  0.0209
  931SOL    HW1 3722   3.095   2.762   2.570  3.0059 -1.7126  1.0323
  931SOL    HW2 3723   3.143   2.760   2.421 -2.8376  1.6670  0.3789
  931SOL     MW 3724   3.079   2.754   2.484  0.5730  0.0962  0.2016
  932SOL     OW 3725   2.907   1.852   2.488 -0.1547  0.2512 -0.2258
  932SOL    HW1 3726   2.986   1.904   2.503  1.3308 -2.6689  0.7701
  932SOL    HW2 3727   2.875   1.879   2.403 -1.4483  0.0885 -0.5105
  932SOL     MW 3728   2.913   1.863   2.478 -0.1294 -0.1555 -0.1320
  933SOL     OW 3729   2.034   2.791   2.207  0.1212 -0.8168  0.2742
  933SOL    HW1 3730   2.107   2.823   2.255 -2.6186 -3.4756 -1.0437
  933SOL    HW2 3731   1.980   2.867   2.194  1.8173  0.5355  0.9224
  933SOL     MW 3732   2.037   2.805   2.211 -0.0165 -0.9891  0.1859
  934SOL     OW 3733   1.990   2.644   2.422  0.0121 -0.1856 -0.2142
  934SOL    HW1 3734   2.006   2.724   2.480 -2.0444  5.1937 -0.8807
  934SOL    HW2 3735   1.986   2.691   2.339  0.1571 -3.0611 -0.0814
  934SOL     MW 3736   1.992   2.661   2.419 -0.2401  0.1447 -0.2846
  935SOL     OW 3737   2.674   1.592   1.843  0.1215 -0.5450 -0.3984
  935SOL    HW1 3738   2.767   1.570   1.850  1.2636 -0.1812 -3.0364
  935SOL    HW2 3739   2.628   1.550   1.775  0.5855  3.1905  2.5109
  935SOL     MW 3740   2.680   1.583   1.835  0.3334 -0.0041 -0.3626
  936SOL     OW 3741   2.990   2.281   0.006  0.0920  0.1622  0.2824
  936SOL    HW1 3742   3.064   2.290   0.059 -0.0830  0.8263 -0.8045
  936SOL    HW2 3743   2.935   2.354   0.036  0.2083  0.6529  0.6213
  936SOL     MW 3744   2.992   2.291   0.017  0.0843  0.3146  0.1837
  937SOL     OW 3745   2.017   2.163   2.675 -0.0400 -0.0853  0.6309
  937SOL    HW1 3746   2.095   2.108   2.702  2.8323 -2.7808  0.6990
  937SOL    HW2 3747   2.004   2.150   2.578 -1.0607 -1.3343  1.9511
  937SOL     MW 3748   2.026   2.154   2.666  0.2043 -0.6057  0.8141
  938SOL     OW 3749   2.275   1.770   1.908  0.0614 -0.2456 -0.5797
  938SOL    HW1 3750   2.286   1.786   1.814 -0.2895  0.8169  0.2754
  938SOL    HW2 3751   2.260   1.856   1.950 -0.6183 -1.4257 -1.6651
  938SOL     MW 3752   2.275   1.783   1.901 -0.0746 -0.2612 -0.6101
  939SOL     OW 3753   2.786   1.969   2.259 -0.1731 -0.1233  0.0340
  939SOL    HW1 3754   2.800   1.913   2.182  1.6767  3.1840  0.0765
  939SOL    HW2 3755   2.690   1.973   2.278  3.3319  1.5830 -1.6878
  939SOL     MW 3756   2.775   1.962   2.252  0.5335  0.5382 -0.1876
  940SOL     OW 3757   2.288   0.123   2.702 -0.1289 -0.3880 -0.5051
  940SOL    HW1 3758   2.294   0.030   2.666 -1.4460  1.9977 -1.7498
  940SOL    HW2 3759   2.319   0.117   2.792 -1.2905  0.7647 -0.8598
  940SOL     MW 3760   2.293   0.110   2.709 -0.4560  0.0788 -0.7161
  941SOL     OW 3761   0.145   2.425   2.067  0.1943 -0.1931 -0.0203
  941SOL    HW1 3762   0.227   2.383   2.070 -1.6990  0.6962 -4.4970
  941SOL    HW2 3763   0.114   2.420   1.974  1.0364 -0.3077  0.4913
  941SOL     MW 3764   0.152   2.419   2.055  0.0556 -0.0909 -0.5434
  942SOL     OW 3765   2.837   2.237   2.264  0.2393 -0.1026  0.2329
  942SOL    HW1 3766   2.788   2.264   2.187  1.8080 -0.1373 -1.2911
  942SOL    HW2 3767   2.817   2.139   2.295  0.9038 -0.5914  1.3415
  942SOL     MW 3768   2.828   2.228   2.258  0.5339 -0.1717  0.1781
  943SOL     OW 3769   0.229   2.122   2.286  0.0530 -0.3962  0.3408
  943SOL    HW1 3770   0.207   2.188   2.351 -1.2223 -0.2061 -0.4718
  943SOL    HW2 3771   0.324   2.094   2.313  0.7099 -1.8858  2.6081
  943SOL     MW 3772   0.238   2.127   2.298 -0.0286 -0.5676  0.5327
  944SOL     OW 3773   2.108   2.629   2.010 -0.1821  0.0750  0.2292
  944SOL    HW1 3774   2.180   2.578   2.051 -0.2446  1.9973 -1.6312
  944SOL    HW2 3775   2.070   2.679   2.083  0.5859  1.0267  3.5571
  944SOL     MW 3776   2.112   2.629   2.025 -0.0890  0.4542  0.4228
  945SOL     OW 3777   2.792   2.691   2.864 -0.0011  0.2404 -0.8047
  945SOL    HW1 3778   2.773   2.600   2.852  1.3744  3.2778  1.3908
  945SOL    HW2 3779   2.768   2.723   2.775  0.0927  0.8106 -2.6367
  945SOL     MW 3780   2.787   2.683   2.851  0.1928  0.7164 -0.7567
  946SOL     OW 3781   2.445   2.689   2.244 -0.1308 -0.2256 -0.8295
  946SOL    HW1 3782   2.470   2.731   2.169 -0.3017 -1.8969  4.4041
  946SOL    HW2 3783   2.389   2.615   2.224 -1.0004 -2.0589 -1.3576
  946SOL     MW 3784   2.441   2.685   2.231 -0.2681 -0.6880 -0.2086
  947SOL     OW 3785   1.979   3.105   0.269  0.3036  0.0297  0.1744
  947SOL    HW1 3786   1.963   3.022   0.225 -0.6419 -1.5658 -3.1849
  947SOL    HW2 3787   2.016   3.091   0.358  0.3171  1.3109 -1.3254
  947SOL     MW 3788   1.982   3.092   0.275  0.1806 -0.0118 -0.4667
  948SOL     OW 3789   1.785   3.005   2.698  0.6970 -0.1423  0.0059
  948SOL    HW1 3790   1.831   2.920   2.694 -0.6180 -4.1524 -0.0631
  948SOL    HW2 3791   1.792   3.028   2.608 -0.5803  0.0283  1.0282
  948SOL     MW 3792   1.792   2.997   2.686  0.3550 -0.6489  0.1317
  949SOL     OW 3793   2.533   1.954   2.331 -0.1350  0.4755 -0.3153
  949SOL    HW1 3794   2.500   1.864   2.333 -0.2811 -1.4203  1.6036
  949SOL    HW2 3795   2.458   2.009   2.353  0.9250  0.7435 -0.5248
  949SOL     MW 3796   2.519   1.950   2.334 -0.0144  0.2607 -0.0897
  950SOL     OW 3797   2.288   2.584   2.942 -0.1030  0.0097 -0.2123
  950SOL    HW1 3798   2.329   2.526   2.879 -0.0255  0.0732  2.1016
  950SOL    HW2 3799   2.202   2.626   2.905 -0.1682 -2.7490  1.8139
  950SOL     MW 3800   2.282   2.582   2.929 -0.1014 -0.3459  0.3604
  951SOL     OW 3801   3.071   2.190   2.841  0.0149  0.7566 -0.1829
  951SOL    HW1 3802   3.033   2.232   2.923  0.6994 -0.8811 -1.1210
  951SOL    HW2 3803   3.082   2.096   2.859  1.2570  1.0879  0.5861
  951SOL     MW 3804   3.067   2.183   2.854  0.2691  0.5842 -0.2052
  952SOL     OW 3805   3.067   1.648   2.100 -0.5071 -0.1414 -0.3196
  952SOL    HW1 3806   2.987   1.673   2.050  0.3319  2.4832 -0.2795
  952SOL    HW2 3807   3.088   1.738   2.121  0.9290  0.7262  2.1272
  952SOL     MW 3808   3.059   1.663   2.096 -0.2070  0.3193  0.0086
  953SOL     OW 3809   1.940   1.781   2.872  0.1664  0.1109 -0.6181
  953SOL    HW1 3810   1.876   1.746   2.931 -0.3279  4.2466 -1.1855
  953SOL    HW2 3811   1.952   1.708   2.809  1.2121  2.5611  3.5235
  953SOL     MW 3812   1.934   1.767   2.871  0.2392  0.9798 -0.1465
  954SOL     OW 3813   2.453   2.123   2.905  0.7505  0.0247  0.6236
  954SOL    HW1 3814   2.366   2.110   2.854 -4.4321  1.2101  0.8430
  954SOL    HW2 3815   2.523   2.093   2.842  4.0886  0.4639 -1.4800
  954SOL     MW 3816   2.451   2.118   2.890  0.5072  0.2390  0.3750
  955SOL     OW 3817   1.552   1.630   2.527 -0.1494 -0.1527  0.0237
  955SOL    HW1 3818   1.525   1.612   2.439  0.3232 -0.2997 -0.8199
  955SOL    HW2 3819   1.645   1.673   2.521  2.5144  0.7429 -1.4919
  955SOL     MW 3820   1.561   1.633   2.514  0.2644 -0.0539 -0.2876
  956SOL     OW 3821   2.719   2.438   2.826  0.1374  0.4168  0.5567
  956SOL    HW1 3822   2.720   2.428   2.922 -2.2382  3.6137 -3.7344
  956SOL    HW2 3823   2.795   2.395   2.789 -2.6076  1.2493 -1.3974
  956SOL     MW 3824   2.729   2.431   2.834 -0.5382  0.9484 -0.2673
  957SOL     OW 3825   2.233   2.922   0.454  0.8113  0.1949  0.0686
  957SOL    HW1 3826   2.154   2.903   0.401 -2.8445 -0.0089  1.0361
  957SOL    HW2 3827   2.200   2.885   0.535  0.6462 -0.7059 -1.8986
  957SOL     MW 3828   2.218   2.915   0.458  0.3072  0.0492 -0.0633
  958SOL     OW 3829   2.036   2.664   2.836 -0.3242  0.1554 -0.1890
  958SOL    HW1 3830   2.032   2.578   2.786  0.5109  1.7965  1.4336
  958SOL    HW2 3831   1.977   2.650   2.912  2.3699  0.5546 -0.2217
  958SOL     MW 3832   2.028   2.651   2.839  0.1414  0.4246  0.0207
  959SOL     OW 3833   2.507   2.791   0.423  0.3574  0.1665  0.6802
  959SOL    HW1 3834   2.514   2.799   0.326 -2.7715  0.9342 -1.8118
  959SOL    HW2 3835   2.438   2.853   0.441 -0.8756  1.4804 -0.2740
  959SOL     MW 3836   2.498   2.800   0.413 -0.2181  0.4412  0.2255
  960SOL     OW 3837   1.927   2.292   2.328  0.5747 -0.7308  0.3889
  960SOL    HW1 3838   1.929   2.199   2.354  0.6171  1.2200 -0.0103
  960SOL    HW2 3839   1.891   2.335   2.405  1.3971  0.4316  0.3663
  960SOL     MW 3840   1.923   2.286   2.342  0.6888 -0.3200  0.3333
  961SOL     OW 3841   2.190   2.330   2.274  0.8212 -0.2398 -0.0727
  961SOL    HW1 3842   2.095   2.329   2.255  1.8423  0.0773 -0.2061
  961SOL    HW2 3843   2.202   2.391   2.345 -2.1028 -0.4246  2.2011
  961SOL     MW 3844   2.179   2.338   2.281  0.5701 -0.2223  0.2097
  962SOL     OW 3845   2.242   2.011   2.757 -0.5672 -0.4923 -0.6720
  962SOL    HW1 3846   2.239   1.968   2.842  1.0562 -2.3645 -2.3859
  962SOL    HW2 3847   2.234   1.942   2.696  1.9107  0.8345  2.0894
  962SOL     MW 3848   2.240   1.997   2.760 -0.0261 -0.5643 -0.5338
  963SOL     OW 3849   1.788   2.480   2.135 -0.3933 -0.3939 -0.1862
  963SOL    HW1 3850   1.848   2.436   2.192  1.1244  1.5912 -1.5455
  963SOL    HW2 3851   1.826   2.456   2.049  1.3534  3.4421 -0.2239
  963SOL     MW 3852   1.801   2.471   2.131  0.0374  0.3742 -0.3705
  964SOL     OW 3853   1.825   1.971   2.734  0.5343  0.3174 -0.0085
  964SOL    HW1 3854   1.877   2.047   2.717  1.7857 -1.0715 -0.7807
  964SOL    HW2 3855   1.880   1.904   2.784 -2.3144  0.6174 -2.9453
  964SOL     MW 3856   1.839   1.972   2.738  0.3235  0.1737 -0.4979
  965SOL     OW 3857   2.258   2.722   0.654 -0.3493 -0.0311  0.6285
  965SOL    HW1 3858   2.246   2.628   0.639  0.9010  0.5073  0.7771
  965SOL    HW2 3859   2.327   2.720   0.719 -0.2342  0.4344 -0.9624
  965SOL     MW 3860   2.266   2.709   0.661 -0.1691  0.1014  0.4382
  966SOL     OW 3861   2.658   2.606   2.386  0.1448  0.0856 -0.0244
  966SOL    HW1 3862   2.577   2.634   2.339  0.1190  0.5590 -0.2179
  966SOL    HW2 3863   2.650   2.509   2.384 -0.6053 -2.1459  0.7123
  966SOL     MW 3864   2.646   2.597   2.380  0.0425 -0.1463  0.0473
  967SOL     OW 3865   2.818   3.069   2.931 -0.1288 -0.1457 -0.2860
  967SOL    HW1 3866   2.783   2.994   2.987 -0.0726  1.5270  0.3175
  967SOL    HW2 3867   2.749   3.091   2.868  0.5497  2.3880 -1.3560
  967SOL     MW 3868   2.804   3.062   2.930 -0.0319  0.4093 -0.3475
  968SOL     OW 3869   3.036   2.621   2.994  0.1445  0.0183 -0.0751
  968SOL    HW1 3870   2.952   2.637   2.951 -0.5023  4.1140 -0.0751
  968SOL    HW2 3871   3.079   2.566   2.922  2.5246  1.3481  0.6995
  968SOL     MW 3872   3.031   2.615   2.979  0.3732  0.7342  0.0271
  969SOL     OW 3873   1.609   2.191   1.681 -0.1674  0.4650  0.5192
  969SOL    HW1 3874   1.674   2.132   1.718 -0.0842 -0.7551 -1.4326
  969SOL    HW2 3875   1.547   2.200   1.757  0.4351 -1.4000 -0.4988
  969SOL     MW 3876   1.610   2.184   1.696 -0.0769  0.0580  0.1274
  970SOL     OW 3877   1.782   1.826   1.913 -0.0521 -0.0534  0.1198
  970SOL    HW1 3878   1.828   1.748   1.938 -0.1300  1.1867 -2.5905
  970SOL    HW2 3879   1.696   1.783   1.906  0.4391 -2.2712 -1.3600
  970SOL     MW 3880   1.776   1.810   1.916  0.0025 -0.1824 -0.4330
  971SOL     OW 3881   1.765   3.077   2.406 -0.0311 -0.1537  0.1362
  971SOL    HW1 3882   1.789   3.045   2.315  2.1498 -2.3267 -1.5033
  971SOL    HW2 3883   1.820   3.153   2.420 -3.8862  1.7315 -0.2011
  971SOL     MW 3884   1.775   3.083   2.396 -0.2520 -0.1917 -0.1246
  972SOL     OW 3885   0.263   2.877   2.477 -0.1350 -0.4616 -0.2809
  972SOL    HW1 3886   0.328   2.810   2.475 -1.4160 -0.2521  0.3883
  972SOL    HW2 3887   0.313   2.966   2.475  1.1618  2.5030 -1.0279
  972SOL     MW 3888   0.278   2.880   2.477 -0.1329 -0.0428 -0.2911
  973SOL     OW 3889   2.615   3.068   2.112  0.1695 -0.0128  0.0758
  973SOL    HW1 3890   2.585   2.978   2.076  0.8747 -0.5826 -0.3085
  973SOL    HW2 3891   2.629   3.121   2.036 -1.2084 -0.7294  1.7475
  973SOL     MW 3892   2.613   3.063   2.097  0.0808 -0.1825  0.2456
  974SOL     OW 3893   2.009   0.153   2.702 -0.8308 -0.3639 -0.5388
  974SOL    HW1 3894   2.106   0.173   2.703 -0.9782  1.0417 -1.1261
  974SOL    HW2 3895   2.000   0.097   2.780 -1.7182  0.2170  2.1607
  974SOL     MW 3896   2.020   0.148   2.713 -0.9673 -0.1018 -0.2601
  975SOL     OW 3897   2.203   2.477   2.494  0.2599 -0.0034  0.0974
  975SOL    HW1 3898   2.276   2.531   2.523 -0.3527 -0.6998 -0.1825
  975SOL    HW2 3899   2.128   2.540   2.472  0.2175  2.3165  0.3595
  975SOL     MW 3900   2.203   2.492   2.495  0.1735  0.2108  0.0950
  976SOL     OW 3901   0.154   0.386   1.744  0.2765 -0.7196  0.1010
  976SOL    HW1 3902   0.216   0.316   1.766 -2.0849  1.2379 -0.4505
  976SOL    HW2 3903   0.074   0.328   1.749 -1.9655 -3.4549 -3.0412
  976SOL     MW 3904   0.151   0.369   1.748 -0.3309 -0.8222 -0.3864
  977SOL     OW 3905   1.691   2.700   2.492  0.1188  0.2272 -0.3727
  977SOL    HW1 3906   1.747   2.620   2.481  0.6319 -0.5270  0.0740
  977SOL    HW2 3907   1.765   2.759   2.487 -1.8851  0.6776 -2.1116
  977SOL     MW 3908   1.708   2.698   2.490 -0.0779  0.1872 -0.5432
   3.10000   3.10000   3.10000
