977 TIP4P/2005f water molecules t=   0.22000 step= 220
 3908
    1SOL     OW    1   0.238   0.780   0.022  0.5961  0.0074 -0.6701
    1SOL    HW1    2   0.233   0.826  -0.059 -0.5479  0.6952 -0.2710
    1SOL    HW2    3   0.234   0.688  -0.010  1.2155 -1.9441 -0.8634
    1SOL     MW    4   0.237   0.774   0.007  0.5269 -0.1593 -0.6430
    2SOL     OW    5   0.363   3.026   1.145  0.0012  0.2192  0.3144
    2SOL    HW1    6   0.404   3.102   1.101 -1.6267 -1.6753 -0.1776
    2SOL    HW2    7   0.272   3.057   1.156 -1.2417 -1.0777 -1.2130
    2SOL     MW    8   0.357   3.040   1.141 -0.3775 -0.2019  0.0479
    3SOL     OW    9   2.681   0.394   0.901 -0.1452 -0.0600  0.5962
    3SOL    HW1   10   2.690   0.479   0.851  0.7952  2.3519 -2.9880
    3SOL    HW2   11   2.689   0.431   0.989 -0.1314 -2.3637  0.5470
    3SOL     MW   12   2.683   0.410   0.906 -0.0193 -0.0457  0.1168
    4SOL     OW   13   3.089   1.806   0.650 -0.5299  0.7910 -0.4399
    4SOL    HW1   14   3.018   1.836   0.595  3.1827 -0.9752 -0.6686
    4SOL    HW2   15   3.155   1.770   0.594 -2.2675 -0.4762  0.0298
    4SOL     MW   16   3.088   1.806   0.635 -0.2693  0.3908 -0.4081
    5SOL     OW   17   1.696   1.446   0.508  0.1816 -0.0354 -0.1860
    5SOL    HW1   18   1.759   1.422   0.581  0.7295 -1.2971  2.3858
    5SOL    HW2   19   1.606   1.424   0.549  0.8794 -1.7967  2.4662
    5SOL     MW   20   1.692   1.440   0.523  0.3460 -0.4342  0.5032
    6SOL     OW   21   0.842   1.366   0.601  0.6978  0.5457  0.3034
    6SOL    HW1   22   0.760   1.385   0.652 -0.6836  2.2960  0.5238
    6SOL    HW2   23   0.881   1.285   0.652  0.6335 -1.3042 -0.8984
    6SOL     MW   24   0.836   1.358   0.615  0.5071  0.5326  0.1739
    7SOL     OW   25   1.961   1.074   0.001 -0.0628  0.2234  0.0206
    7SOL    HW1   26   1.989   1.126  -0.071 -1.7867  0.3601  1.5105
    7SOL    HW2   27   2.005   1.101   0.085 -1.5879 -4.8136  3.0554
    7SOL     MW   28   1.971   1.084   0.003 -0.4915 -0.4231  0.6176
    8SOL     OW   29   0.995   1.282   1.062  0.2718  0.5327 -0.3584
    8SOL    HW1   30   1.096   1.287   1.076  0.1744 -0.2086  0.3684
    8SOL    HW2   31   0.971   1.191   1.082 -2.3541 -1.5466 -0.9801
    8SOL     MW   32   1.005   1.271   1.066 -0.0876  0.1606 -0.3446
    9SOL     OW   33   1.007   0.475   1.397  0.3189 -0.0617 -0.4834
    9SOL    HW1   34   0.927   0.425   1.374 -0.8523 -2.2503 -0.8054
    9SOL    HW2   35   1.041   0.440   1.476 -1.4149  0.7964 -1.0593
    9SOL     MW   36   1.001   0.464   1.404 -0.0644 -0.2372 -0.6019
   10SOL     OW   37   0.302   0.862   0.484 -0.0769 -0.3737 -0.3712
   10SOL    HW1   38   0.387   0.890   0.455 -0.8096 -2.0882  0.4157
   10SOL    HW2   39   0.260   0.904   0.560  0.8563  0.6625  0.5842
   10SOL     MW   40   0.307   0.871   0.490 -0.0505 -0.4632 -0.1414
   11SOL     OW   41   0.927   1.101   1.538 -0.3291  0.3062  0.4649
   11SOL    HW1   42   0.929   1.073   1.632 -0.5676 -1.7803  0.7777
   11SOL    HW2   43   0.868   1.028   1.499 -0.0393  0.2393 -1.1645
   11SOL     MW   44   0.920   1.088   1.545 -0.3223  0.0221  0.2912
   12SOL     OW   45   3.086   1.089   0.847  0.5070 -0.0288  0.1343
   12SOL    HW1   46   3.117   1.162   0.892 -0.3287  1.5339 -3.5076
   12SOL    HW2   47   3.047   1.123   0.764  2.2179  1.8774 -0.6656
   12SOL     MW   48   3.085   1.103   0.842  0.6225  0.4289 -0.4517
   13SOL     OW   49   1.928   1.445   1.432  0.3223 -0.2325 -0.1475
   13SOL    HW1   50   1.953   1.400   1.353  3.3113  0.2160 -0.4022
   13SOL    HW2   51   1.912   1.537   1.407 -1.2228  1.3996  0.8348
   13SOL     MW   52   1.929   1.451   1.419  0.5128  0.0421 -0.0515
   14SOL     OW   53   0.605   0.348   1.774  0.5722 -0.3058 -0.2736
   14SOL    HW1   54   0.594   0.272   1.718  0.6531 -0.0435 -0.4435
   14SOL    HW2   55   0.695   0.358   1.802 -0.4342  0.6532 -1.5387
   14SOL     MW   56   0.616   0.339   1.771  0.4501 -0.1447 -0.4629
   15SOL     OW   57   1.981   0.521   0.925 -0.0199  0.1261 -0.1635
   15SOL    HW1   58   1.992   0.528   1.023  0.7468  2.7574 -0.0449
   15SOL    HW2   59   2.066   0.489   0.888  0.9793 -0.0891  2.3648
   15SOL     MW   60   1.994   0.518   0.933  0.2131  0.4449  0.1857
   16SOL     OW   61   0.194   1.800   0.281  0.5014 -0.1043  0.7285
   16SOL    HW1   62   0.283   1.761   0.293 -1.7006  0.2089 -0.7369
   16SOL    HW2   63   0.207   1.891   0.292 -2.2932 -1.8680 -1.2852
   16SOL     MW   64   0.207   1.807   0.284 -0.1578 -0.2957  0.2695
   17SOL     OW   65   1.087   0.812   1.446 -0.1900 -0.0558 -0.0134
   17SOL    HW1   66   1.128   0.822   1.537  1.5689 -0.0950 -0.8379
   17SOL    HW2   67   1.005   0.768   1.463 -1.7045  0.5800 -0.2056
   17SOL     MW   68   1.081   0.808   1.460 -0.1578  0.0229 -0.1475
   18SOL     OW   69   0.017   1.552   0.406  0.2714 -0.2793  0.4919
   18SOL    HW1   70   0.070   1.597   0.337  2.1508  0.4346 -1.4876
   18SOL    HW2   71   0.012   1.459   0.369 -0.4894 -1.4403 -0.5714
   18SOL     MW   72   0.023   1.546   0.392  0.4190 -0.3383  0.0904
   19SOL     OW   73   0.126   1.272   1.026  0.6183  0.6016 -0.0913
   19SOL    HW1   74   0.150   1.336   0.955 -2.3704  0.5290 -0.1107
   19SOL    HW2   75   0.037   1.291   1.058  0.2232 -1.8354 -2.0384
   19SOL     MW   76   0.118   1.283   1.021  0.1719  0.2705 -0.3508
   20SOL     OW   77   0.452   2.165   1.287 -0.3232 -0.2997 -0.2825
   20SOL    HW1   78   0.404   2.108   1.227 -0.1327 -1.7838  1.8456
   20SOL    HW2   79   0.375   2.201   1.336  0.3308 -3.0453  1.0154
   20SOL     MW   80   0.436   2.162   1.285 -0.2118 -0.8578  0.1695
   21SOL     OW   81   0.557   0.900   0.359  0.0256 -0.0968  0.4231
   21SOL    HW1   82   0.609   0.832   0.406  0.9523  2.8858 -3.4834
   21SOL    HW2   83   0.533   0.857   0.282 -1.8645  1.0178  1.8213
   21SOL     MW   84   0.561   0.885   0.355 -0.1015  0.4438  0.0922
   22SOL     OW   85   1.569   0.581   1.123 -0.4040 -0.2078  0.6563
   22SOL    HW1   86   1.623   0.539   1.050 -0.0443 -2.9998  1.1904
   22SOL    HW2   87   1.500   0.635   1.077  0.1919  1.0077 -1.2951
   22SOL     MW   88   1.567   0.582   1.107 -0.2779 -0.4158  0.4693
   23SOL     OW   89   3.045   0.736   0.720 -0.4973  0.1922  0.1665
   23SOL    HW1   90   3.101   0.653   0.712  1.1988 -1.2722  0.4481
   23SOL    HW2   91   3.106   0.812   0.718 -1.2987 -3.2702  1.0852
   23SOL     MW   92   3.061   0.735   0.719 -0.3792 -0.4579  0.3248
   24SOL     OW   93   2.072   2.148   0.039 -0.4398  0.2137 -0.0601
   24SOL    HW1   94   2.028   2.140   0.124 -0.8182  3.0529  0.1831
   24SOL    HW2   95   2.112   2.068   0.014  1.1594 -0.7544 -0.3127
   24SOL     MW   96   2.072   2.137   0.047 -0.2787  0.4605 -0.0614
   25SOL     OW   97   0.203   1.436   0.573  0.8089  0.0144 -0.4858
   25SOL    HW1   98   0.135   1.497   0.538 -3.4858  1.4166 -0.0077
   25SOL    HW2   99   0.285   1.454   0.521 -0.4706  2.9784 -3.3056
   25SOL     MW  100   0.205   1.447   0.562  0.0735  0.5905 -0.7947
   26SOL     OW  101   2.035   0.967   0.385 -0.0526 -0.4101 -0.0415
   26SOL    HW1  102   1.940   0.989   0.398 -0.6041  0.6000  0.3103
   26SOL    HW2  103   2.077   1.044   0.331  1.1315 -1.7536 -0.0166
   26SOL     MW  104   2.028   0.980   0.380  0.0309 -0.4541  0.0082
   27SOL     OW  105   1.968   1.415   0.233  0.3219 -0.7169  0.3118
   27SOL    HW1  106   1.897   1.359   0.273  0.1809 -1.0789 -2.3799
   27SOL    HW2  107   2.010   1.456   0.307 -2.4143  1.0800  1.1999
   27SOL     MW  108   1.964   1.413   0.248 -0.0577 -0.5276  0.0739
   28SOL     OW  109   0.390   0.952   1.877  0.4656 -0.5339 -0.6207
   28SOL    HW1  110   0.307   0.910   1.906  0.9765  1.3363 -0.0118
   28SOL    HW2  111   0.414   0.893   1.806  1.9901  1.2489  0.1589
   28SOL     MW  112   0.382   0.939   1.872  0.7341 -0.0519 -0.4375
   29SOL     OW  113   0.233   1.462   0.850  0.6147 -0.1649 -0.4009
   29SOL    HW1  114   0.239   1.550   0.883 -1.5712 -0.7822  2.5145
   29SOL    HW2  115   0.216   1.472   0.754 -1.5166 -1.0314 -2.3910
   29SOL     MW  116   0.231   1.475   0.842  0.0451 -0.3606 -0.2788
   30SOL     OW  117   0.915   1.019   1.149 -0.5712 -0.2375 -0.1400
   30SOL    HW1  118   0.834   1.047   1.201 -2.2893 -3.9273  0.7922
   30SOL    HW2  119   0.991   1.027   1.212  0.9270 -0.3717 -1.0589
   30SOL     MW  120   0.915   1.024   1.164 -0.6002 -0.7420 -0.1383
   31SOL     OW  121   0.467   0.247   0.240 -0.1312 -0.0044  0.6268
   31SOL    HW1  122   0.489   0.156   0.277 -1.7117 -0.1572 -2.8207
   31SOL    HW2  123   0.442   0.227   0.143 -2.7295  0.9135 -1.0478
   31SOL     MW  124   0.467   0.232   0.232 -0.6826  0.0966 -0.0490
   32SOL     OW  125   2.696   1.045   1.129 -0.0421  0.2930  0.0968
   32SOL    HW1  126   2.663   0.956   1.121  0.6640 -1.0941  0.3229
   32SOL    HW2  127   2.791   1.040   1.113 -2.0045  0.9593  0.9353
   32SOL     MW  128   2.704   1.033   1.126 -0.2079  0.1979  0.2373
   33SOL     OW  129   1.766   1.260   0.337 -0.1183 -0.1234  0.0090
   33SOL    HW1  130   1.751   1.181   0.396 -1.2103 -0.3583 -0.6240
   33SOL    HW2  131   1.737   1.334   0.397 -2.3590  0.9635 -0.3661
   33SOL     MW  132   1.760   1.260   0.353 -0.5580 -0.0110 -0.1240
   34SOL     OW  133   1.265   1.864   1.111 -0.1198  0.1233  0.0339
   34SOL    HW1  134   1.175   1.896   1.139  0.2129 -1.6556  1.7507
   34SOL    HW2  135   1.321   1.887   1.188 -0.5731  1.0076  1.1457
   34SOL     MW  136   1.260   1.871   1.125 -0.1357  0.0052  0.4071
   35SOL     OW  137   0.363   0.038   1.853  0.4630  0.6766  0.1037
   35SOL    HW1  138   0.427   0.015   1.922 -1.2435 -0.3396  3.4035
   35SOL    HW2  139   0.384  -0.013   1.773 -1.9008  0.4039 -3.1631
   35SOL     MW  140   0.374   0.028   1.852 -0.0740  0.5066  0.1080
   36SOL     OW  141   1.895   1.915   0.514  0.4956  0.5473  0.5270
   36SOL    HW1  142   1.935   1.902   0.423  1.3220  1.1938  0.1851
   36SOL    HW2  143   1.857   1.826   0.532  1.0034  0.7687  1.1203
   36SOL     MW  144   1.895   1.901   0.504  0.6716  0.6618  0.5602
   37SOL     OW  145   1.760   1.993   0.936 -0.3912 -0.3180 -0.2791
   37SOL    HW1  146   1.708   1.917   0.907  0.8931  1.8714  1.1652
   37SOL    HW2  147   1.682   2.038   0.988 -1.8140  2.6258  0.5170
   37SOL     MW  148   1.743   1.989   0.939 -0.4095  0.3592  0.0165
   38SOL     OW  149   2.871   0.921   0.223  0.0110  0.4603 -0.1900
   38SOL    HW1  150   2.923   0.935   0.306 -2.6221 -0.1307 -0.0833
   38SOL    HW2  151   2.939   0.873   0.167  1.3417 -0.8222 -1.1593
   38SOL     MW  152   2.887   0.917   0.226 -0.1608  0.2131 -0.3038
   39SOL     OW  153   1.457   0.679   0.837  0.0990  0.4407  0.1234
   39SOL    HW1  154   1.399   0.599   0.831 -0.1405  1.4570 -0.3267
   39SOL    HW2  155   1.401   0.739   0.892 -1.0213 -0.3878  0.2560
   39SOL     MW  156   1.442   0.676   0.843 -0.0804  0.4655  0.0815
   40SOL     OW  157   1.295   1.876   0.274  0.0577 -0.1917  0.2411
   40SOL    HW1  158   1.296   1.794   0.320 -1.0607  0.3325  1.0294
   40SOL    HW2  159   1.327   1.939   0.340 -1.2326 -0.5016  0.0733
   40SOL     MW  160   1.299   1.874   0.289 -0.2601 -0.1634  0.3230
   41SOL     OW  161   0.596   0.538   1.563 -0.0326 -0.4660 -0.1219
   41SOL    HW1  162   0.671   0.590   1.569 -2.8804 -0.8056 -2.2609
   41SOL    HW2  163   0.608   0.464   1.626 -0.9533 -2.1491  3.0550
   41SOL     MW  164   0.608   0.535   1.572 -0.5298 -0.7329  0.0151
   42SOL     OW  165   1.343   3.080   1.932 -0.5955 -0.2771 -0.1639
   42SOL    HW1  166   1.247   3.061   1.956  0.9609  0.3503  1.3221
   42SOL    HW2  167   1.385   3.003   1.972 -2.9508  2.1618  0.2002
   42SOL     MW  168   1.336   3.068   1.940 -0.7009  0.1275  0.0802
   43SOL     OW  169   1.605   0.214   1.595  0.6067  0.7363  0.1484
   43SOL    HW1  170   1.675   0.154   1.557  1.7393 -1.1453 -0.1862
   43SOL    HW2  171   1.532   0.148   1.624  1.0214 -0.0522  1.1558
   43SOL     MW  172   1.605   0.197   1.594  0.8108  0.3840  0.2372
   44SOL     OW  173   1.314   0.756   1.072  0.2623  0.1519  0.1780
   44SOL    HW1  174   1.328   0.853   1.065  0.5528  0.2447 -0.6776
   44SOL    HW2  175   1.313   0.742   1.165  1.9040  1.4802  0.8171
   44SOL     MW  176   1.316   0.767   1.084  0.5173  0.3394  0.1494
   45SOL     OW  177   1.069   0.756   0.808  0.3307 -0.3604 -0.1652
   45SOL    HW1  178   1.033   0.709   0.881  0.6674 -1.0002  0.4470
   45SOL    HW2  179   1.139   0.709   0.769  4.1588 -2.0652 -1.3428
   45SOL     MW  180   1.074   0.743   0.812  0.8802 -0.6698 -0.2398
   46SOL     OW  181   0.603   1.107   0.600  0.1423 -0.2934  0.1137
   46SOL    HW1  182   0.600   1.154   0.514 -0.0459  1.1453 -2.6808
   46SOL    HW2  183   0.679   1.048   0.595  0.1893  2.4559 -0.4153
   46SOL     MW  184   0.613   1.105   0.588  0.1237  0.2592 -0.3248
   47SOL     OW  185   0.123   1.928   1.833  0.2150  0.2969 -0.3821
   47SOL    HW1  186   0.194   1.874   1.810 -1.2315  1.5101  0.7508
   47SOL    HW2  187   0.123   1.913   1.928  0.7593  0.7239  0.8292
   47SOL     MW  188   0.133   1.919   1.842  0.0960  0.5133 -0.0728
   48SOL     OW  189   1.032   0.656   1.060 -0.9649  0.3336  0.1794
   48SOL    HW1  190   0.973   0.684   1.133 -1.7713  1.2419 -0.9077
   48SOL    HW2  191   1.115   0.713   1.062 -1.1301  0.9701  0.0662
   48SOL     MW  192   1.035   0.667   1.070 -1.0931  0.5374  0.0210
   49SOL     OW  193   1.853   0.767   1.595  0.3846 -0.3133  0.0791
   49SOL    HW1  194   1.773   0.731   1.648 -0.4335  0.2996  0.3022
   49SOL    HW2  195   1.906   0.685   1.580 -0.2641 -0.6641  2.9505
   49SOL     MW  196   1.850   0.752   1.600  0.1911 -0.2787  0.4874
   50SOL     OW  197   1.308   0.993   0.576 -0.1995 -0.5431 -0.5578
   50SOL    HW1  198   1.264   1.032   0.653 -1.9685  1.6729 -0.6530
   50SOL    HW2  199   1.311   0.897   0.594 -0.2587  3.1731 -0.3127
   50SOL     MW  200   1.303   0.986   0.588 -0.4407  0.2396 -0.5380
   51SOL     OW  201   0.308   2.864   0.906  0.1702 -0.2641 -0.0888
   51SOL    HW1  202   0.397   2.815   0.904 -0.7860  0.8805 -1.7959
   51SOL    HW2  203   0.301   2.892   0.999  2.6829 -1.2640  0.7906
   51SOL     MW  204   0.319   2.861   0.918  0.3756 -0.2450 -0.1980
   52SOL     OW  205   0.831   1.861   0.399 -0.1046 -0.2550 -0.2077
   52SOL    HW1  206   0.774   1.900   0.463  0.1754 -0.1045 -0.7402
   52SOL    HW2  207   0.794   1.872   0.310 -1.8192 -3.0738 -1.5941
   52SOL     MW  208   0.818   1.868   0.395 -0.2939 -0.6071 -0.4608
   53SOL     OW  209   0.375   2.041   0.601  0.6615 -0.3058 -0.1459
   53SOL    HW1  210   0.324   2.039   0.524  1.6902 -2.0240  1.3328
   53SOL    HW2  211   0.385   2.132   0.625  1.8591  4.3817  0.6629
   53SOL     MW  212   0.369   2.053   0.594  0.9553  0.0860  0.1559
   54SOL     OW  213   2.208   0.834   0.852  0.1016 -0.3345 -0.1386
   54SOL    HW1  214   2.238   0.794   0.767  0.6394  0.6843 -1.4129
   54SOL    HW2  215   2.114   0.837   0.844  0.0905  0.6880 -0.7730
   54SOL     MW  216   2.200   0.829   0.840  0.1711 -0.0652 -0.3905
   55SOL     OW  217   0.507   1.447   1.544  0.1291  0.0960  0.5997
   55SOL    HW1  218   0.497   1.469   1.451  0.2982 -0.2801  1.2396
   55SOL    HW2  219   0.583   1.389   1.536  0.5510 -1.7383  0.4493
   55SOL     MW  220   0.516   1.442   1.531  0.2071 -0.1956  0.6643
   56SOL     OW  221   0.519   0.766   0.104  0.7909 -0.7281 -0.4377
   56SOL    HW1  222   0.540   0.841   0.049  1.5817  2.6024  1.1746
   56SOL    HW2  223   0.428   0.748   0.089  3.1274 -0.7429  0.5216
   56SOL     MW  224   0.510   0.774   0.095  1.2035 -0.2906 -0.0984
   57SOL     OW  225   1.252   1.203   1.153  0.2435 -0.0865  0.7905
   57SOL    HW1  226   1.345   1.229   1.165  0.5194  0.2435  2.4894
   57SOL    HW2  227   1.222   1.142   1.229 -1.0876 -0.4286  1.2224
   57SOL     MW  228   1.260   1.199   1.165  0.1043 -0.0881  1.0717
   58SOL     OW  229   0.701   1.092   1.278 -0.0521  0.1247  0.3573
   58SOL    HW1  230   0.640   1.164   1.252  0.3493 -1.5500  0.9135
   58SOL    HW2  231   0.695   1.088   1.373  2.0501 -0.6718  0.6177
   58SOL     MW  232   0.692   1.101   1.287  0.2782 -0.2013  0.4650
   59SOL     OW  233   1.531   1.605   0.270 -0.3537  0.4616  0.0497
   59SOL    HW1  234   1.576   1.539   0.320 -1.5800  2.3227 -1.1827
   59SOL    HW2  235   1.464   1.627   0.336  0.4414 -1.8205  1.5434
   59SOL     MW  236   1.528   1.600   0.286 -0.4106  0.4060  0.0842
   60SOL     OW  237   3.085   0.165   1.663 -0.4154  0.2921 -0.9300
   60SOL    HW1  238   2.990   0.191   1.677 -0.4074 -1.4972 -2.5426
   60SOL    HW2  239   3.095   0.077   1.694 -0.9101  0.9010  0.7274
   60SOL     MW  240   3.074   0.157   1.669 -0.4796  0.1364 -0.9241
   61SOL     OW  241   2.005   1.484   3.068  0.1174  0.7653  0.0661
   61SOL    HW1  242   2.017   1.462   3.159  0.6100 -1.2978  0.5878
   61SOL    HW2  243   2.032   1.408   3.013  0.1249  1.4019  2.6197
   61SOL     MW  244   2.010   1.471   3.072  0.1834  0.5771  0.4718
   62SOL     OW  245   0.611   1.645   0.553  0.0494 -0.2791  0.5651
   62SOL    HW1  246   0.672   1.623   0.490 -2.0366 -1.7413  2.2454
   62SOL    HW2  247   0.603   1.570   0.613  1.0446  1.4454 -0.0616
   62SOL     MW  248   0.618   1.632   0.552 -0.0945 -0.2445  0.7041
   63SOL     OW  249   1.702   0.726   0.727 -0.1869 -0.5207 -0.7696
   63SOL    HW1  250   1.664   0.734   0.641 -1.7809 -0.4203 -0.3968
   63SOL    HW2  251   1.641   0.734   0.799  1.8332 -0.5956  1.6837
   63SOL     MW  252   1.689   0.728   0.725 -0.1307 -0.5173 -0.3967
   64SOL     OW  253   0.276   1.689   0.998 -0.3489  0.7200 -0.7047
   64SOL    HW1  254   0.356   1.738   0.979 -2.6673 -1.3452  2.3778
   64SOL    HW2  255   0.197   1.742   0.977 -0.8352  1.2899  2.2921
   64SOL     MW  256   0.276   1.702   0.993 -0.7190  0.5227  0.0974
   65SOL     OW  257   1.499   2.220   0.330  0.3558  0.4378  0.0701
   65SOL    HW1  258   1.559   2.182   0.266  0.6061  1.3067 -1.3403
   65SOL    HW2  259   1.542   2.280   0.397 -3.7512  0.0833  0.3285
   65SOL     MW  260   1.513   2.222   0.330 -0.1530  0.5057 -0.0819
   66SOL     OW  261   0.308   0.603   0.527  0.1829  0.1300 -0.2560
   66SOL    HW1  262   0.372   0.554   0.485 -0.7438  2.1401  2.0562
   66SOL    HW2  263   0.321   0.694   0.500  2.3768 -1.4791 -0.5747
   66SOL     MW  264   0.318   0.609   0.518  0.3501  0.1829  0.0070
   67SOL     OW  265   1.520   0.189   2.034 -0.1749  0.0506  0.5411
   67SOL    HW1  266   1.553   0.244   1.959  1.5665  2.6505 -0.0714
   67SOL    HW2  267   1.483   0.110   1.993  0.5666 -2.2769 -1.5178
   67SOL     MW  268   1.519   0.186   2.019  0.1527  0.0866  0.1886
   68SOL     OW  269   0.661   0.081   2.990 -0.5057 -0.4226 -0.0850
   68SOL    HW1  270   0.617   0.075   2.904  1.0040 -1.2783  0.3466
   68SOL    HW2  271   0.693   0.176   3.000 -0.7812  0.5259 -1.3898
   68SOL     MW  272   0.659   0.093   2.980 -0.3429 -0.4104 -0.2002
   69SOL     OW  273   1.063   0.187   1.967  1.1760 -0.1466  0.2460
   69SOL    HW1  274   1.149   0.227   1.987  2.5795  0.3340  1.7568
   69SOL    HW2  275   1.086   0.093   1.953 -2.2373  0.3579  1.3990
   69SOL     MW  276   1.077   0.180   1.968  0.9109 -0.0167  0.5975
   70SOL     OW  277   0.569   1.808   1.137 -0.0695  0.7463 -0.1428
   70SOL    HW1  278   0.596   1.726   1.179  0.2418 -1.3667 -1.9446
   70SOL    HW2  279   0.646   1.833   1.078  0.2184  1.3750  3.3286
   70SOL     MW  280   0.583   1.801   1.135  0.0096  0.5505  0.0775
   71SOL     OW  281   1.772   0.704   1.256 -0.3726 -0.0563 -0.5037
   71SOL    HW1  282   1.749   0.696   1.348 -1.4431 -0.8010  0.0337
   71SOL    HW2  283   1.695   0.669   1.210 -2.1530  0.2413 -2.7406
   71SOL     MW  284   1.759   0.698   1.262 -0.7488 -0.1153 -0.7280
   72SOL     OW  285   0.815   1.823   0.997  0.1560 -0.0602 -0.1907
   72SOL    HW1  286   0.818   1.889   0.930  1.1551  1.2529  0.1543
   72SOL    HW2  287   0.856   1.741   0.967  0.7284 -1.3267 -0.8651
   72SOL     MW  288   0.821   1.821   0.984  0.3634 -0.0541 -0.2342
   73SOL     OW  289   1.286   0.677   1.335 -0.3343 -0.1311  0.6060
   73SOL    HW1  290   1.247   0.590   1.338  0.4140 -0.2923  2.1118
   73SOL    HW2  291   1.220   0.730   1.383  0.2948  0.2974 -1.1876
   73SOL     MW  292   1.272   0.673   1.342 -0.1526 -0.0958  0.5680
   74SOL     OW  293   2.755   0.108   1.003 -0.1702  0.1259  0.0907
   74SOL    HW1  294   2.775   0.016   0.990 -0.7667  1.1384  1.3622
   74SOL    HW2  295   2.780   0.156   0.925  1.5088  0.9922 -1.1112
   74SOL     MW  296   2.761   0.102   0.991 -0.0274  0.3738  0.0999
   75SOL     OW  297   1.659   1.286   0.088 -0.5417  0.3363 -0.2265
   75SOL    HW1  298   1.700   1.283   0.177 -0.5586  0.2615  0.5092
   75SOL    HW2  299   1.665   1.195   0.063 -1.4354 -1.6676 -0.0274
   75SOL     MW  300   1.665   1.274   0.096 -0.6618  0.0621 -0.1031
   76SOL     OW  301   2.933   0.659   0.491 -0.3141  0.4786 -0.1184
   76SOL    HW1  302   2.961   0.668   0.581 -0.8840 -2.8005  0.5546
   76SOL    HW2  303   3.007   0.612   0.444  1.9180  0.7366  1.4540
   76SOL     MW  304   2.946   0.654   0.496 -0.0948  0.0800  0.1778
   77SOL     OW  305   0.895   0.414   0.526 -0.1155 -0.1405  0.1106
   77SOL    HW1  306   0.843   0.485   0.564 -1.0860 -1.6030 -1.7898
   77SOL    HW2  307   0.818   0.353   0.509  0.3814 -1.2007 -0.0944
   77SOL     MW  308   0.878   0.415   0.529 -0.1780 -0.4733 -0.1672
   78SOL     OW  309   0.834   0.763   1.209  0.2814  0.2033 -0.3809
   78SOL    HW1  310   0.740   0.751   1.187 -1.7122  0.2637 -1.5176
   78SOL    HW2  311   0.849   0.857   1.202  0.2342 -0.3273 -1.2407
   78SOL     MW  312   0.824   0.774   1.205  0.0121  0.1412 -0.6443
   79SOL     OW  313   1.838   1.665   0.600 -0.0405 -0.5874  0.1445
   79SOL    HW1  314   1.774   1.611   0.558  0.9325 -1.2505 -0.5029
   79SOL    HW2  315   1.835   1.662   0.693 -0.8975 -0.2372 -1.6337
   79SOL     MW  316   1.829   1.657   0.606 -0.0252 -0.6287 -0.1755
   80SOL     OW  317   0.152   0.991   0.278  0.2495 -0.0934  0.5367
   80SOL    HW1  318   0.065   0.946   0.301 -0.1334 -1.7873 -0.2464
   80SOL    HW2  319   0.220   0.951   0.334 -1.5230 -0.2518  0.5318
   80SOL     MW  320   0.150   0.980   0.288 -0.0349 -0.3378  0.4327
   81SOL     OW  321   1.944   1.884   0.253 -0.7605  0.3133 -0.1991
   81SOL    HW1  322   1.889   1.832   0.189  0.2244 -1.7228 -2.8741
   81SOL    HW2  323   1.914   1.974   0.243  1.4940 -2.0544 -3.1379
   81SOL     MW  324   1.933   1.889   0.243 -0.3331 -0.2677 -0.9398
   82SOL     OW  325   0.810   0.938   0.558 -0.0365  0.9025  0.0439
   82SOL    HW1  326   0.900   0.939   0.527 -1.0647  0.7435  0.9704
   82SOL    HW2  327   0.781   0.855   0.534 -2.7826  1.2747  1.9116
   82SOL     MW  328   0.818   0.927   0.551 -0.5345  0.9306  0.4126
   83SOL     OW  329   0.076   0.635   1.385 -0.6220 -0.0328  0.5237
   83SOL    HW1  330   0.114   0.699   1.321  3.3925  0.2200 -1.3249
   83SOL    HW2  331   0.156   0.594   1.416 -0.2077  2.5171 -2.1723
   83SOL     MW  332   0.091   0.638   1.380 -0.0377  0.3370 -0.0760
   84SOL     OW  333   0.045   0.310   1.063  0.3750  0.0533 -0.0966
   84SOL    HW1  334  -0.015   0.311   0.986 -0.9063  2.0310  0.7016
   84SOL    HW2  335   0.051   0.219   1.090  1.5191 -1.0823  0.5334
   84SOL     MW  336   0.038   0.298   1.056  0.3569  0.1644  0.0918
   85SOL     OW  337   0.407   0.422   0.737 -0.2703  0.1236  0.2856
   85SOL    HW1  338   0.365   0.484   0.666  0.7759 -0.8108 -0.2673
   85SOL    HW2  339   0.350   0.345   0.741  0.7948 -0.7199  0.5790
   85SOL     MW  340   0.394   0.420   0.728  0.0082 -0.1109  0.2514
   86SOL     OW  341   1.169   0.435   1.143  0.8289 -0.1266 -0.3480
   86SOL    HW1  342   1.115   0.506   1.098 -3.3620  0.9035 -1.5545
   86SOL    HW2  343   1.122   0.407   1.220  0.1777  1.6475  1.4179
   86SOL     MW  344   1.156   0.441   1.147  0.1900  0.2434 -0.2742
   87SOL     OW  345   1.243   1.458   1.308 -0.6259  0.0807 -0.4918
   87SOL    HW1  346   1.269   1.507   1.231 -0.8751 -1.7779 -1.8178
   87SOL    HW2  347   1.242   1.368   1.280 -2.6979  1.1838  0.9941
   87SOL     MW  348   1.246   1.453   1.294 -0.9321 -0.0190 -0.4707
   88SOL     OW  349   1.379   1.016   1.017  0.1165 -0.1211  0.1038
   88SOL    HW1  350   1.471   1.005   1.044 -0.3464  3.1013 -3.0522
   88SOL    HW2  351   1.339   1.082   1.076 -1.7996 -0.5482  0.0069
   88SOL     MW  352   1.386   1.024   1.028 -0.1973  0.2477 -0.3254
   89SOL     OW  353   1.772   0.574   0.275 -0.3075  0.0110  0.4484
   89SOL    HW1  354   1.833   0.505   0.310 -1.2607  1.1042  0.4057
   89SOL    HW2  355   1.843   0.628   0.233  1.2973 -0.2378 -1.4310
   89SOL     MW  356   1.790   0.572   0.274 -0.2215  0.1224  0.1948
   90SOL     OW  357   0.690   1.231   2.811 -0.7922 -0.5618 -0.1097
   90SOL    HW1  358   0.741   1.169   2.767 -1.1006  1.4088 -2.3100
   90SOL    HW2  359   0.703   1.229   2.903 -0.3009 -2.0111 -2.4509
   90SOL     MW  360   0.698   1.223   2.818 -0.7681 -0.4930 -0.7089
   91SOL     OW  361   2.050   0.720   0.487  0.3651  0.0132  0.0047
   91SOL    HW1  362   2.054   0.797   0.430 -4.0027 -1.3944  0.0917
   91SOL    HW2  363   1.963   0.688   0.477  3.6329 -1.9017 -0.9108
   91SOL     MW  364   2.039   0.726   0.478  0.2200 -0.4251 -0.1046
   92SOL     OW  365   1.634   0.787   0.457 -0.5615  0.5219  0.1602
   92SOL    HW1  366   1.542   0.778   0.487 -2.4694  2.3600  0.8811
   92SOL    HW2  367   1.656   0.715   0.392 -0.1747  0.1442  0.9574
   92SOL     MW  368   1.625   0.776   0.452 -0.7622  0.7146  0.3605
   93SOL     OW  369   1.044   0.240   0.336  0.2542  0.2737 -0.6745
   93SOL    HW1  370   1.001   0.313   0.379  2.0195 -0.4742  0.2364
   93SOL    HW2  371   1.056   0.271   0.246  2.1289 -0.4508  1.1668
   93SOL     MW  372   1.040   0.254   0.330  0.7344  0.0794 -0.3114
   94SOL     OW  373   1.945   1.262   1.659 -0.3170  0.5295 -0.6935
   94SOL    HW1  374   1.905   1.306   1.584 -1.0754  0.8231  1.6686
   94SOL    HW2  375   1.881   1.188   1.678  2.4239 -0.7459 -1.8876
   94SOL     MW  376   1.931   1.258   1.651 -0.0554  0.4000 -0.5394
   95SOL     OW  377   0.908   1.548   0.987 -0.6794 -0.3968 -0.6040
   95SOL    HW1  378   0.952   1.473   1.016  1.0418  0.8571  1.8844
   95SOL    HW2  379   0.812   1.523   0.999 -0.4192 -0.6740  1.1883
   95SOL     MW  380   0.901   1.535   0.992 -0.4180 -0.2679 -0.0392
   96SOL     OW  381   1.272   1.789   1.609  0.2748 -0.0680 -1.3514
   96SOL    HW1  382   1.178   1.784   1.633 -1.9357 -1.9015  2.1378
   96SOL    HW2  383   1.298   1.707   1.562 -3.6870  0.1559  0.9154
   96SOL     MW  384   1.263   1.777   1.606 -0.5396 -0.2804 -0.5920
   97SOL     OW  385   1.266   1.452   0.836 -0.3900 -0.0756  0.4840
   97SOL    HW1  386   1.292   1.501   0.914 -1.4942 -0.8448 -2.6162
   97SOL    HW2  387   1.179   1.482   0.809 -0.2590  0.7746  1.0565
   97SOL     MW  388   1.258   1.462   0.843 -0.5184 -0.0649  0.1505
   98SOL     OW  389   1.511   1.302   1.180 -0.5748  0.3100  0.3260
   98SOL    HW1  390   1.541   1.379   1.227 -1.1384  0.5312  1.6058
   98SOL    HW2  391   1.548   1.308   1.090 -0.0017 -1.0888  0.0236
   98SOL     MW  392   1.520   1.313   1.174 -0.5736  0.1546  0.4550
   99SOL     OW  393   1.529   0.301   1.260 -0.5446  0.1961  0.8320
   99SOL    HW1  394   1.507   0.384   1.221  1.7314 -2.6162  2.9656
   99SOL    HW2  395   1.521   0.322   1.348  1.8027 -3.1875  0.8688
   99SOL     MW  396   1.525   0.314   1.266  0.0654 -0.6214  1.1183
  100SOL     OW  397   1.113   1.054   1.338 -0.1522  0.4161 -0.2478
  100SOL    HW1  398   1.074   1.113   1.404 -0.8188  1.0048 -1.7685
  100SOL    HW2  399   1.112   0.964   1.382  1.5542  1.1994 -0.9431
  100SOL     MW  400   1.108   1.050   1.352 -0.0150  0.5971 -0.5402
  101SOL     OW  401   0.610   1.179   0.327 -0.1456  0.0719 -0.0534
  101SOL    HW1  402   0.599   1.080   0.331  0.1254 -0.2861  0.0823
  101SOL    HW2  403   0.626   1.204   0.237 -2.3109 -0.4730 -0.8768
  101SOL     MW  404   0.611   1.169   0.316 -0.3956 -0.0472 -0.1442
  102SOL     OW  405   2.956   0.581   0.976 -0.1051  0.1519  0.6712
  102SOL    HW1  406   3.033   0.625   0.952  1.1619  0.2902  1.0361
  102SOL    HW2  407   2.975   0.552   1.069  0.4884 -0.8404 -1.8774
  102SOL     MW  408   2.969   0.583   0.985  0.1404  0.0392  0.3830
  103SOL     OW  409   1.607   0.371   1.812 -0.4386 -0.2010  0.3874
  103SOL    HW1  410   1.616   0.327   1.723 -1.2726 -2.7720 -2.6506
  103SOL    HW2  411   1.697   0.349   1.839 -2.1605 -1.5952  0.8936
  103SOL     MW  412   1.620   0.362   1.804 -0.7758 -0.7242  0.0533
  104SOL     OW  413   0.113   1.827   1.462  0.3915 -0.0346 -0.9873
  104SOL    HW1  414   0.194   1.777   1.438  0.2711 -0.2155 -0.8572
  104SOL    HW2  415   0.067   1.793   1.547 -3.9381 -1.0553 -0.1279
  104SOL     MW  416   0.117   1.816   1.470 -0.1957 -0.1931 -0.8567
  105SOL     OW  417   0.148   1.157   0.503 -0.0026 -0.5282  0.4448
  105SOL    HW1  418   0.187   1.108   0.427 -0.9072 -2.9038 -0.4333
  105SOL    HW2  419   0.195   1.236   0.528  0.3388 -2.0439  1.4676
  105SOL     MW  420   0.160   1.161   0.496 -0.0769 -1.0417  0.4639
  106SOL     OW  421   0.856   0.312   0.940 -0.7228 -0.3985  0.0939
  106SOL    HW1  422   0.813   0.387   0.904 -1.6844 -1.5950  1.1867
  106SOL    HW2  423   0.952   0.329   0.916  2.2377  0.9292  0.9735
  106SOL     MW  424   0.863   0.324   0.932 -0.4591 -0.3812  0.3542
  107SOL     OW  425   0.794   2.225   3.053  0.0064 -0.2350 -0.0739
  107SOL    HW1  426   0.770   2.139   3.023  0.4421  0.8616 -1.3861
  107SOL    HW2  427   0.887   2.205   3.071  0.2807  1.3846 -2.3713
  107SOL     MW  428   0.803   2.211   3.052  0.1001  0.1234 -0.5501
  108SOL     OW  429   1.406   1.590   1.510 -0.0603  0.5468 -0.6238
  108SOL    HW1  430   1.360   1.530   1.446  1.7881 -1.1832 -1.9455
  108SOL    HW2  431   1.433   1.532   1.581 -0.5603 -1.5143  2.5749
  108SOL     MW  432   1.404   1.575   1.511  0.1176  0.0466 -0.3762
  109SOL     OW  433   1.950   0.730   0.164  0.1786  0.2205  1.3157
  109SOL    HW1  434   1.939   0.757   0.074  1.4436  0.4153 -2.1684
  109SOL    HW2  435   2.028   0.776   0.191 -2.0361  2.0541  2.4688
  109SOL     MW  436   1.959   0.740   0.156  0.0533  0.4881  1.0082
  110SOL     OW  437   0.393   1.788   0.716 -0.0570  0.3249 -0.3216
  110SOL    HW1  438   0.462   1.743   0.672  0.2398 -0.3521  0.9472
  110SOL    HW2  439   0.373   1.864   0.665  0.0527 -2.1431 -0.7000
  110SOL     MW  440   0.399   1.792   0.703 -0.0034 -0.0901 -0.2041
  111SOL     OW  441   0.720   0.916   1.507  0.3022 -0.5356 -0.2554
  111SOL    HW1  442   0.771   0.833   1.515  1.3824  1.1237 -1.9861
  111SOL    HW2  443   0.633   0.884   1.517  0.3534  0.3225 -0.3789
  111SOL     MW  444   0.715   0.901   1.509  0.4515 -0.2034 -0.5000
  112SOL     OW  445   1.297   1.107   1.617  0.2773 -0.0808  0.1813
  112SOL    HW1  446   1.212   1.164   1.631 -0.9093  0.2330 -0.0219
  112SOL    HW2  447   1.285   1.021   1.658  0.8069 -3.1272 -0.2495
  112SOL     MW  448   1.284   1.103   1.624  0.1906 -0.4413  0.0976
  113SOL     OW  449   1.380   0.087   1.692 -0.4782 -0.1574  0.1642
  113SOL    HW1  450   1.367   0.048   1.779 -0.5163 -0.9138 -2.6065
  113SOL    HW2  451   1.351   0.022   1.631  1.4650  3.3118  2.2139
  113SOL     MW  452   1.374   0.073   1.695 -0.2268  0.2005  0.0691
  114SOL     OW  453   0.444   2.815   1.861 -0.2759 -0.1541 -0.1612
  114SOL    HW1  454   0.423   2.859   1.944 -0.9164 -0.1760  0.5577
  114SOL    HW2  455   0.428   2.880   1.796  1.1076  0.0895  0.2653
  114SOL     MW  456   0.439   2.830   1.863 -0.1778 -0.1248 -0.0101
  115SOL     OW  457   0.427   0.849   1.091  0.6024 -0.2053  0.4388
  115SOL    HW1  458   0.470   0.765   1.081  0.5189  1.1973  1.6220
  115SOL    HW2  459   0.383   0.854   1.176 -1.2568  0.9285 -0.4191
  115SOL     MW  460   0.427   0.838   1.101  0.3461  0.1293  0.4817
  116SOL     OW  461   0.800   1.005   0.899 -0.5883  0.1728  0.5577
  116SOL    HW1  462   0.844   1.071   0.841 -1.4126  0.1785  0.1907
  116SOL    HW2  463   0.859   1.005   0.972 -0.0892 -1.5831  0.9412
  116SOL     MW  464   0.814   1.014   0.901 -0.6312 -0.0581  0.5599
  117SOL     OW  465   1.201   1.114   0.791 -0.0824  0.1266 -0.3140
  117SOL    HW1  466   1.234   1.083   0.879 -3.5377  1.3129 -2.7364
  117SOL    HW2  467   1.204   1.208   0.805 -0.5986 -2.1579 -1.1036
  117SOL     MW  468   1.205   1.122   0.804 -0.6064 -0.0183 -0.7378
  118SOL     OW  469   3.085   2.967   1.715  0.1160 -0.4938 -0.4852
  118SOL    HW1  470   3.114   3.013   1.800  1.1720  0.1340 -1.3873
  118SOL    HW2  471   2.987   2.951   1.712  0.4233  0.5564  0.3588
  118SOL     MW  472   3.075   2.971   1.726  0.2959 -0.2724 -0.4929
  119SOL     OW  473   0.532   1.304   1.220  0.1770  0.0261 -0.5594
  119SOL    HW1  474   0.507   1.324   1.126  2.3409  1.2754  0.7815
  119SOL    HW2  475   0.446   1.279   1.251  2.4296  0.7643 -0.0433
  119SOL     MW  476   0.517   1.304   1.212  0.7597  0.2884 -0.3144
  120SOL     OW  477   0.206   0.638   0.939  0.2446  0.8472 -0.2078
  120SOL    HW1  478   0.233   0.565   0.997  2.9884 -1.9222 -0.8296
  120SOL    HW2  479   0.243   0.710   0.983 -0.1448  1.1630 -1.1642
  120SOL     MW  480   0.214   0.638   0.953  0.5553  0.5234 -0.4160
  121SOL     OW  481   1.766   1.046   1.725 -0.1536 -0.6183 -0.4262
  121SOL    HW1  482   1.706   1.012   1.657 -0.1927  2.3274  1.6824
  121SOL    HW2  483   1.814   0.960   1.733  0.8653  0.8538 -2.2639
  121SOL     MW  484   1.764   1.030   1.717 -0.0244 -0.0354 -0.3905
  122SOL     OW  485   0.095   0.521   0.710  0.1650 -0.0204  0.2822
  122SOL    HW1  486   0.167   0.517   0.650 -0.1682  0.8239 -0.3701
  122SOL    HW2  487   0.134   0.560   0.791 -0.4354 -1.3331  1.8497
  122SOL     MW  488   0.109   0.526   0.713  0.0419 -0.0822  0.4030
  123SOL     OW  489   1.791   1.017   0.468  0.7639 -0.1339 -0.2130
  123SOL    HW1  490   1.734   0.940   0.469  1.7352  0.1032 -3.3447
  123SOL    HW2  491   1.829   1.034   0.555 -2.0196  0.1393  3.0741
  123SOL     MW  492   1.789   1.009   0.480  0.5248 -0.0666 -0.1925
  124SOL     OW  493   0.664   0.503   0.816  0.2123 -0.0554  0.0476
  124SOL    HW1  494   0.578   0.468   0.790  1.7336  0.0489 -1.8184
  124SOL    HW2  495   0.664   0.600   0.806 -0.6168 -1.4532 -0.7952
  124SOL     MW  496   0.652   0.511   0.811  0.3036 -0.2261 -0.3098
  125SOL     OW  497   0.692   1.677   1.665  0.4796 -0.4765 -0.1819
  125SOL    HW1  498   0.620   1.615   1.632  3.3701  1.8756 -1.6762
  125SOL    HW2  499   0.654   1.763   1.666  0.7208 -0.1497  1.4690
  125SOL     MW  500   0.678   1.680   1.661  0.8928 -0.1230 -0.1612
  126SOL     OW  501   2.120   1.611   1.990  0.3958  0.0521 -0.8464
  126SOL    HW1  502   2.169   1.695   1.976  1.4320  0.4140 -1.0672
  126SOL    HW2  503   2.189   1.551   2.020 -0.5069  2.1410 -2.2300
  126SOL     MW  504   2.136   1.614   1.992  0.4134  0.3754 -1.0581
  127SOL     OW  505   0.605   0.734   1.900 -0.1736  0.0320 -0.1469
  127SOL    HW1  506   0.679   0.689   1.936  1.2644  0.4836  1.9013
  127SOL    HW2  507   0.598   0.820   1.947 -0.9043  2.0965  1.8662
  127SOL     MW  508   0.614   0.739   1.911 -0.0803  0.3640  0.3889
  128SOL     OW  509   1.749   0.752   2.869 -0.1014 -0.2843  0.3369
  128SOL    HW1  510   1.778   0.711   2.789  1.1049  0.8686  1.4136
  128SOL    HW2  511   1.707   0.832   2.831  2.6499 -0.5591 -1.9690
  128SOL     MW  512   1.747   0.757   2.853  0.4208 -0.1685  0.1747
  129SOL     OW  513   1.483   0.950   0.204 -0.3094  0.5887 -0.2963
  129SOL    HW1  514   1.431   0.869   0.182  0.8332 -0.5399 -0.9529
  129SOL    HW2  515   1.531   0.952   0.286 -2.9678  0.1855  0.4246
  129SOL     MW  516   1.483   0.939   0.212 -0.5094  0.3866 -0.2878
  130SOL     OW  517   0.756   1.502   0.363  0.0888 -0.1394 -0.3663
  130SOL    HW1  518   0.797   1.450   0.428  2.1082 -1.6411 -1.3706
  130SOL    HW2  519   0.830   1.542   0.305 -0.7643  0.2028 -1.2463
  130SOL     MW  520   0.771   1.500   0.364  0.2427 -0.2924 -0.6149
  131SOL     OW  521   3.046   0.801   0.059 -0.7048 -0.3283  0.1270
  131SOL    HW1  522   3.031   0.836  -0.036 -0.0954 -1.4718 -2.1522
  131SOL    HW2  523   3.141   0.810   0.068  2.2172  0.3583  1.3979
  131SOL     MW  524   3.057   0.807   0.048 -0.2388 -0.3886 -0.0060
  132SOL     OW  525   2.698   0.170   1.266  0.4338  0.1057  0.2338
  132SOL    HW1  526   2.716   0.159   1.170  1.6028  1.7674 -0.4060
  132SOL    HW2  527   2.611   0.126   1.277 -0.5660  0.4577 -1.1597
  132SOL     MW  528   2.689   0.162   1.255  0.4561  0.3714 -0.0345
  133SOL     OW  529   1.111   0.222   1.710  0.0988  0.1514 -0.5007
  133SOL    HW1  530   1.183   0.161   1.704 -1.0985 -0.2316 -1.9216
  133SOL    HW2  531   1.082   0.206   1.803  4.3516 -0.3423  1.8094
  133SOL     MW  532   1.117   0.212   1.722  0.5019  0.0358 -0.3834
  134SOL     OW  533   1.358   2.500   1.417 -0.5582 -0.1421 -0.0346
  134SOL    HW1  534   1.305   2.573   1.413  1.5028 -0.4974  2.9528
  134SOL    HW2  535   1.421   2.521   1.488 -2.0428 -1.0907 -2.8484
  134SOL     MW  536   1.359   2.512   1.426 -0.4821 -0.3142 -0.0117
  135SOL     OW  537   3.052   0.978   2.937 -0.3224 -0.4193  0.6680
  135SOL    HW1  538   3.132   1.040   2.946 -0.1910  2.6020 -0.8660
  135SOL    HW2  539   2.983   1.052   2.949 -0.2499  0.6248  1.8578
  135SOL     MW  540   3.054   0.996   2.940 -0.2955  0.1171  0.6226
  136SOL     OW  541   0.262   2.015   0.889 -0.6822 -0.3681 -0.1140
  136SOL    HW1  542   0.172   1.982   0.888  2.4110 -2.1570 -2.6522
  136SOL    HW2  543   0.303   1.964   0.817 -1.6280 -5.5323 -1.8172
  136SOL     MW  544   0.256   2.004   0.879 -0.3989 -1.2855 -0.6736
  137SOL     OW  545   0.656   2.011   0.577  0.1925 -0.6083 -0.3876
  137SOL    HW1  546   0.696   2.012   0.663 -1.2286  1.5010 -0.8261
  137SOL    HW2  547   0.557   2.010   0.588 -1.7967 -1.8433  3.6582
  137SOL     MW  548   0.648   2.011   0.590 -0.2574 -0.4930  0.0884
  138SOL     OW  549   0.554   0.603   1.057 -0.3192 -0.2079 -0.4764
  138SOL    HW1  550   0.490   0.535   1.085 -1.0416  2.9080 -0.0771
  138SOL    HW2  551   0.591   0.568   0.979  0.7096  2.9433  0.9910
  138SOL     MW  552   0.550   0.589   1.051 -0.2787  0.6190 -0.2301
  139SOL     OW  553   2.765   0.526   1.411  0.2253 -0.6410 -0.2494
  139SOL    HW1  554   2.814   0.445   1.423 -0.6623 -2.0870  1.8030
  139SOL    HW2  555   2.831   0.599   1.445 -1.5828  0.9178 -0.1045
  139SOL     MW  556   2.780   0.525   1.417 -0.1303 -0.6261  0.0405
  140SOL     OW  557   0.866   0.308   2.120 -0.2158  0.0283  0.1145
  140SOL    HW1  558   0.908   0.240   2.063 -1.9360  0.1860 -1.4278
  140SOL    HW2  559   0.919   0.308   2.206  4.2723  1.8440  3.9547
  140SOL     MW  560   0.879   0.299   2.124  0.1494  0.2887  0.4177
  141SOL     OW  561   1.014   0.619   1.767  0.0692 -0.6194 -0.0590
  141SOL    HW1  562   1.076   0.562   1.715  0.6718  1.1901  1.4822
  141SOL    HW2  563   1.072   0.696   1.773  1.1831 -3.0670 -1.6242
  141SOL     MW  564   1.030   0.622   1.761  0.2957 -0.7036 -0.0621
  142SOL     OW  565   0.929   1.150   0.718 -0.0702  0.0599  0.0284
  142SOL    HW1  566   0.906   1.076   0.668  1.5277  1.0069  1.2475
  142SOL    HW2  567   1.018   1.125   0.754 -2.6212 -1.4683  1.1581
  142SOL     MW  568   0.938   1.137   0.716 -0.1959 -0.0168  0.3383
  143SOL     OW  569   1.879   0.923   1.128 -0.1848  0.1882 -0.3846
  143SOL    HW1  570   1.909   0.906   1.040 -1.3551 -0.0878 -0.0963
  143SOL    HW2  571   1.852   0.838   1.165 -0.0725 -0.8038 -0.1486
  143SOL     MW  572   1.879   0.910   1.121 -0.3244  0.0209 -0.3155
  144SOL     OW  573   0.145   1.165   1.559 -0.4739  0.2339 -0.2240
  144SOL    HW1  574   0.216   1.117   1.514  0.7535 -0.3315  1.6996
  144SOL    HW2  575   0.165   1.155   1.653 -0.7711 -0.0188  0.1920
  144SOL     MW  576   0.157   1.157   1.565 -0.3512  0.1260  0.0847
  145SOL     OW  577   0.269   0.457   1.150  0.2495 -0.0708 -0.0143
  145SOL    HW1  578   0.325   0.398   1.195  0.0479  1.2452 -0.2914
  145SOL    HW2  579   0.196   0.406   1.119 -1.1589 -0.4022 -3.1613
  145SOL     MW  580   0.266   0.442   1.152  0.0371  0.0591 -0.4661
  146SOL     OW  581   0.880   1.902   1.386  0.2891 -0.2792  0.4793
  146SOL    HW1  582   0.911   1.944   1.295  0.0470 -0.0674  0.8929
  146SOL    HW2  583   0.789   1.928   1.399  1.7474  0.2259  1.2652
  146SOL     MW  584   0.872   1.911   1.375  0.4496 -0.1846  0.6376
  147SOL     OW  585   0.406   0.431   2.855  0.3793  0.2615  0.1524
  147SOL    HW1  586   0.338   0.432   2.916  3.5047  0.9330 -0.1520
  147SOL    HW2  587   0.376   0.485   2.786 -1.5434  0.3837  1.9499
  147SOL     MW  588   0.393   0.438   2.854  0.5380  0.3662  0.3494
  148SOL     OW  589   0.026   0.917   1.288  0.1413  0.5893  0.1811
  148SOL    HW1  590   0.105   0.970   1.295  1.2767 -1.9097  0.1824
  148SOL    HW2  591   0.006   0.892   1.374  0.6410 -0.9439  0.8954
  148SOL     MW  592   0.034   0.921   1.300  0.3570  0.0573  0.2755
  149SOL     OW  593   1.439   1.109   1.374 -0.8208  0.6225 -0.5066
  149SOL    HW1  594   1.377   1.133   1.450  0.9034  1.5317  0.7270
  149SOL    HW2  595   1.482   1.193   1.361  2.9323 -0.7587  1.0663
  149SOL     MW  596   1.436   1.124   1.382 -0.0981  0.5602 -0.1363
  150SOL     OW  597   1.825   1.351   0.733  0.0444 -0.0649 -0.0107
  150SOL    HW1  598   1.858   1.259   0.727 -0.9422 -1.3999  0.5594
  150SOL    HW2  599   1.880   1.397   0.794  0.5464 -1.6183  2.1927
  150SOL     MW  600   1.837   1.345   0.740 -0.0195 -0.4460  0.3553
  151SOL     OW  601   1.606   1.783   0.820  0.0697  0.0052  0.6785
  151SOL    HW1  602   1.554   1.801   0.744  0.3525 -0.4287 -1.1466
  151SOL    HW2  603   1.539   1.734   0.863 -0.6212  0.0880 -2.2613
  151SOL     MW  604   1.590   1.779   0.816  0.0159 -0.0411  0.0498
  152SOL     OW  605   0.758   1.324   1.540  0.1377  0.0279  0.2371
  152SOL    HW1  606   0.801   1.241   1.537 -1.8699  1.7698  1.4134
  152SOL    HW2  607   0.836   1.375   1.526  3.5324  0.2406 -0.4264
  152SOL     MW  608   0.774   1.320   1.538  0.3207  0.2858  0.3048
  153SOL     OW  609   2.664   1.220   0.703 -0.1297  0.0984 -0.7094
  153SOL    HW1  610   2.726   1.192   0.636 -2.0116  2.4990  0.0574
  153SOL    HW2  611   2.606   1.147   0.713  3.3826  2.5041  0.1262
  153SOL     MW  612   2.664   1.207   0.695  0.0854  0.7325 -0.4980
  154SOL     OW  613   0.320   1.769   1.718  0.1782  0.0973 -0.3402
  154SOL    HW1  614   0.304   1.745   1.624 -1.7839 -0.6089  2.5888
  154SOL    HW2  615   0.350   1.689   1.764  0.7312 -0.0156 -0.6489
  154SOL     MW  616   0.322   1.755   1.712 -0.0078 -0.0108  0.0055
  155SOL     OW  617   1.100   0.744   0.243  0.0221 -0.4473 -0.0072
  155SOL    HW1  618   1.118   0.684   0.319 -0.0948  0.2770  2.3860
  155SOL    HW2  619   1.086   0.832   0.283  0.3231 -0.2474  0.3673
  155SOL     MW  620   1.100   0.747   0.258  0.0464 -0.3254  0.3580
  156SOL     OW  621   1.553   3.087   1.020 -0.8225  0.0526  0.3398
  156SOL    HW1  622   1.593   3.172   1.051  1.0442  1.8866 -0.5115
  156SOL    HW2  623   1.556   3.023   1.093  0.1519  2.1884  1.9971
  156SOL     MW  624   1.559   3.090   1.034 -0.4476  0.5763  0.4461
  157SOL     OW  625   1.408   1.192   0.124 -0.2529  0.3478  0.0250
  157SOL    HW1  626   1.435   1.098   0.147  2.5369 -1.7221  1.3694
  157SOL    HW2  627   1.494   1.238   0.129  0.6762 -0.2241  0.5391
  157SOL     MW  628   1.423   1.186   0.128  0.2378 -0.0008  0.2702
  158SOL     OW  629   0.407   1.654   2.303 -0.2881  0.0171 -0.3842
  158SOL    HW1  630   0.379   1.688   2.219  0.8492  0.0203 -0.6845
  158SOL    HW2  631   0.320   1.616   2.337  1.4784 -3.5727  1.4877
  158SOL     MW  632   0.391   1.654   2.296  0.0950 -0.4561 -0.1768
  159SOL     OW  633   1.291   1.662   0.434  0.4179 -0.1969  0.0155
  159SOL    HW1  634   1.257   1.586   0.399  1.2318  2.4155 -1.7029
  159SOL    HW2  635   1.209   1.706   0.465  0.0377  0.1655  2.8376
  159SOL     MW  636   1.276   1.658   0.434  0.4751  0.1956  0.1611
  160SOL     OW  637   0.429   1.065   1.562  0.4824  0.3757 -0.2798
  160SOL    HW1  638   0.449   0.977   1.601  1.0915  0.8126 -1.6563
  160SOL    HW2  639   0.476   1.133   1.613  0.0820  0.9629 -0.9147
  160SOL     MW  640   0.438   1.062   1.574  0.5099  0.5108 -0.5452
  161SOL     OW  641   0.595   2.115   2.702  0.1352  0.0449 -0.0602
  161SOL    HW1  642   0.533   2.153   2.764  1.1956  0.8839  0.0738
  161SOL    HW2  643   0.539   2.069   2.632  1.6142 -0.4325 -0.6077
  161SOL     MW  644   0.580   2.114   2.701  0.4703  0.0926 -0.1147
  162SOL     OW  645   1.031   1.720   1.832  0.2813  0.3884 -0.0996
  162SOL    HW1  646   1.029   1.815   1.867  3.3571 -2.4271  1.5904
  162SOL    HW2  647   0.949   1.671   1.847 -2.1724 -1.4882 -1.7166
  162SOL     MW  648   1.020   1.726   1.839  0.3634 -0.2306 -0.0900
  163SOL     OW  649   2.145   0.135   0.986 -0.4556  0.2891 -0.3631
  163SOL    HW1  650   2.142   0.151   0.889 -1.9120  0.5613  1.2431
  163SOL    HW2  651   2.082   0.068   1.008  0.5564 -0.5340  1.9647
  163SOL     MW  652   2.136   0.128   0.976 -0.5142  0.2164  0.1560
  164SOL     OW  653   0.281   0.193   0.830 -0.6453  0.1510 -0.5007
  164SOL    HW1  654   0.194   0.205   0.874  1.8727  2.1322  0.7631
  164SOL    HW2  655   0.266   0.117   0.773 -3.3846 -0.8674  0.4722
  164SOL     MW  656   0.267   0.185   0.828 -0.6745  0.2781 -0.2056
  165SOL     OW  657   1.375   1.216   0.424 -0.1296  0.4440 -0.1757
  165SOL    HW1  658   1.367   1.137   0.478  1.6287  1.2848 -0.4937
  165SOL    HW2  659   1.348   1.190   0.334 -0.9344  0.2114  1.7592
  165SOL     MW  660   1.371   1.202   0.419 -0.0038  0.5243  0.0377
  166SOL     OW  661   0.529   1.092   0.965 -0.1622  0.0113 -0.2295
  166SOL    HW1  662   0.490   1.023   1.025  3.5699 -2.2933 -0.2820
  166SOL    HW2  663   0.626   1.083   0.973 -2.1151 -0.8110 -0.7634
  166SOL     MW  664   0.536   1.082   0.974  0.0726 -0.4013 -0.3069
  167SOL     OW  665   0.928   1.155   0.285 -0.1780 -0.1978 -0.9241
  167SOL    HW1  666   0.843   1.196   0.315 -2.0667  0.5069  1.4090
  167SOL    HW2  667   0.937   1.175   0.193  0.4883 -2.0194  0.2686
  167SOL     MW  668   0.918   1.163   0.277 -0.3393 -0.3451 -0.4589
  168SOL     OW  669   1.686   1.763   2.891  0.6442  0.1258 -0.3555
  168SOL    HW1  670   1.656   1.834   2.954 -1.5261 -1.3348 -1.0830
  168SOL    HW2  671   1.637   1.688   2.928  0.1666 -2.4486  0.5395
  168SOL     MW  672   1.676   1.762   2.904  0.2949 -0.4066 -0.3334
  169SOL     OW  673   0.325   0.936   1.319 -0.0159 -0.7866  0.1871
  169SOL    HW1  674   0.354   0.940   1.407 -1.7979 -1.3677 -1.7235
  169SOL    HW2  675   0.345   1.027   1.294  0.5362  1.4593 -1.8643
  169SOL     MW  676   0.332   0.948   1.327 -0.1782 -0.5669 -0.3357
  170SOL     OW  677   1.016   1.463   1.500  0.1056 -0.0498 -0.2948
  170SOL    HW1  678   0.954   1.539   1.498 -0.1754  1.5657  0.8484
  170SOL    HW2  679   1.076   1.478   1.427  0.5630 -1.9969  2.9082
  170SOL     MW  680   1.016   1.475   1.490  0.1289 -0.0936  0.2786
  171SOL     OW  681   0.599   1.398   0.716  0.0102 -0.0395 -0.1199
  171SOL    HW1  682   0.557   1.407   0.803 -0.8762 -0.5252  1.6549
  171SOL    HW2  683   0.573   1.311   0.691 -1.7539  2.0721  1.7798
  171SOL     MW  684   0.590   1.388   0.724 -0.3395  0.1750  0.3649
  172SOL     OW  685   0.834   0.333   1.219  0.0510 -0.2827 -0.0528
  172SOL    HW1  686   0.847   0.335   1.125 -0.4272 -1.9563 -1.2897
  172SOL    HW2  687   0.746   0.362   1.236  3.1195 -0.0375 -0.5564
  172SOL     MW  688   0.824   0.337   1.209  0.3928 -0.4712 -0.2824
  173SOL     OW  689   0.447   1.684   0.333  0.1734 -0.0800 -0.5074
  173SOL    HW1  690   0.430   1.593   0.326  0.8097 -0.1250 -0.7687
  173SOL    HW2  691   0.504   1.695   0.410  0.6869 -0.7521 -0.4297
  173SOL     MW  692   0.452   1.673   0.342  0.3251 -0.1746 -0.5317
  174SOL     OW  693   2.035   0.979   1.527  0.1125 -0.3684  0.2635
  174SOL    HW1  694   1.985   0.900   1.555 -1.3934 -0.2348  1.8555
  174SOL    HW2  695   1.971   1.023   1.461 -1.0289  1.3103  0.0875
  174SOL     MW  696   2.020   0.974   1.522 -0.2368 -0.1293  0.4503
  175SOL     OW  697   0.413   1.371   0.364  0.2857  0.7523  0.1816
  175SOL    HW1  698   0.392   1.371   0.270  0.0884 -0.1971 -1.7932
  175SOL    HW2  699   0.487   1.304   0.372  2.3655 -0.4360 -1.1892
  175SOL     MW  700   0.420   1.363   0.352  0.5341  0.4703 -0.2598
  176SOL     OW  701   0.286   1.219   1.263  0.3796  0.2817  0.2972
  176SOL    HW1  702   0.233   1.235   1.185  1.9332  1.9320 -1.9832
  176SOL    HW2  703   0.253   1.275   1.323  1.5744 -1.4364 -2.4682
  176SOL     MW  704   0.274   1.228   1.261  0.7422  0.2728 -0.3685
  177SOL     OW  705   0.599   0.454   1.311  0.1202  0.4334  0.7202
  177SOL    HW1  706   0.626   0.522   1.257 -0.4241 -0.4019  2.3867
  177SOL    HW2  707   0.593   0.482   1.403  0.9832 -0.7500  0.8891
  177SOL     MW  708   0.602   0.467   1.316  0.1623  0.1671  0.9624
  178SOL     OW  709   3.102   0.448   2.972  0.1098 -0.1934 -0.3163
  178SOL    HW1  710   3.044   0.458   3.050  2.2940  0.8802 -2.1324
  178SOL    HW2  711   3.039   0.462   2.898 -0.9837  3.4524 -1.0468
  178SOL     MW  712   3.086   0.451   2.973  0.2537  0.4293 -0.6523
  179SOL     OW  713   1.632   1.327   1.474 -0.4086  0.0033  0.4975
  179SOL    HW1  714   1.645   1.367   1.559 -1.2987  1.9878  2.7997
  179SOL    HW2  715   1.717   1.289   1.447 -0.3083  0.0177  0.2858
  179SOL     MW  716   1.645   1.327   1.482 -0.5128  0.2671  0.7733
  180SOL     OW  717   3.024   0.270   0.481  0.1698 -0.5222  0.1514
  180SOL    HW1  718   2.965   0.274   0.396 -0.2337  2.1616  0.0467
  180SOL    HW2  719   3.085   0.347   0.473  2.1251  0.7024  0.0737
  180SOL     MW  720   3.024   0.280   0.469  0.3745 -0.0065  0.1273
  181SOL     OW  721   1.131   1.405   3.093 -0.1205  0.5023  0.2361
  181SOL    HW1  722   1.179   1.476   3.137 -1.5908  0.3972  1.1680
  181SOL    HW2  723   1.180   1.406   3.006  0.1768 -0.2583 -1.2883
  181SOL     MW  724   1.144   1.414   3.087 -0.2752  0.3881  0.1579
  182SOL     OW  725   0.473   0.803   1.666 -0.5130 -0.2643  0.1613
  182SOL    HW1  726   0.391   0.757   1.667  1.9987  0.4917  2.1403
  182SOL    HW2  727   0.520   0.766   1.745  1.5355  1.3239  2.1473
  182SOL     MW  728   0.468   0.792   1.676  0.0887  0.0450  0.6845
  183SOL     OW  729   1.605   1.546   1.296  0.6150  0.0060 -0.1432
  183SOL    HW1  730   1.544   1.606   1.335 -2.0509  0.4872 -0.2256
  183SOL    HW2  731   1.630   1.484   1.370 -1.9070 -0.4708  1.9974
  183SOL     MW  732   1.600   1.546   1.311 -0.0695  0.0065  0.1284
  184SOL     OW  733   0.808   0.550   1.994  0.2368  1.0044 -0.3404
  184SOL    HW1  734   0.882   0.558   1.934  2.8182  0.3088 -0.8968
  184SOL    HW2  735   0.826   0.471   2.055  3.6679 -1.0605  2.9568
  184SOL     MW  736   0.820   0.541   1.994  1.0301  0.6401  0.0212
  185SOL     OW  737   1.118   0.940   1.960 -0.4273  0.7534 -0.5320
  185SOL    HW1  738   1.109   0.860   2.018  0.4817  1.7187 -2.2840
  185SOL    HW2  739   1.163   1.010   2.019  0.3984  1.4025  2.0241
  185SOL     MW  740   1.123   0.939   1.975 -0.1985  0.9664 -0.4259
  186SOL     OW  741   0.342   1.717   1.421  0.3075 -0.1849 -0.0137
  186SOL    HW1  742   0.418   1.762   1.392 -1.0300 -1.9316 -1.0513
  186SOL    HW2  743   0.320   1.660   1.348  1.6326  1.0340 -1.1035
  186SOL     MW  744   0.349   1.715   1.407  0.3059 -0.2545 -0.2944
  187SOL     OW  745   1.538   0.663   1.489 -0.7391 -0.1143 -0.0418
  187SOL    HW1  746   1.504   0.669   1.577 -0.1182  0.8785 -0.4049
  187SOL    HW2  747   1.462   0.672   1.431 -2.0114 -0.4596  0.1440
  187SOL     MW  748   1.523   0.665   1.493 -0.8250 -0.0289 -0.0652
  188SOL     OW  749   1.920   1.098   0.714  0.2207  0.1063  0.1970
  188SOL    HW1  750   1.926   1.045   0.790 -2.8961 -1.9473 -0.3407
  188SOL    HW2  751   2.006   1.097   0.669 -1.7907 -3.0830  0.1874
  188SOL     MW  752   1.932   1.091   0.718 -0.4559 -0.5854  0.1248
  189SOL     OW  753   0.635   0.784   0.792  0.5874  0.4369  0.7201
  189SOL    HW1  754   0.560   0.844   0.811  0.6318  0.1935  0.1143
  189SOL    HW2  755   0.717   0.810   0.829  0.2608 -4.5630 -1.7480
  189SOL     MW  756   0.636   0.795   0.800  0.5501 -0.2549  0.3146
  190SOL     OW  757   1.846   0.388   1.969  0.5993 -0.2198  0.3917
  190SOL    HW1  758   1.900   0.306   1.973  0.9896 -0.2976 -0.5024
  190SOL    HW2  759   1.917   0.454   1.949 -0.7058  1.0949 -2.2433
  190SOL     MW  760   1.862   0.386   1.967  0.4786 -0.0566 -0.0739
  191SOL     OW  761   1.624   0.952   1.531  0.2603 -0.5580 -0.0623
  191SOL    HW1  762   1.544   0.996   1.495 -2.0696 -0.9004  0.5394
  191SOL    HW2  763   1.589   0.866   1.552  0.0276  0.0621 -0.0181
  191SOL     MW  764   1.609   0.946   1.529 -0.0778 -0.5213  0.0229
  192SOL     OW  765   0.733   1.977   2.922  0.2336 -0.7667  0.2564
  192SOL    HW1  766   0.686   1.996   2.840 -0.7955 -0.8102  0.2170
  192SOL    HW2  767   0.725   1.882   2.931 -1.3932 -0.4390  1.8115
  192SOL     MW  768   0.726   1.967   2.912 -0.1168 -0.7292  0.4564
  193SOL     OW  769   1.032   1.547   0.747  0.7861  0.0378  0.3762
  193SOL    HW1  770   0.994   1.542   0.841 -1.4050  1.1051 -0.2352
  193SOL    HW2  771   0.984   1.479   0.697 -0.0664 -0.5627  0.5421
  193SOL     MW  772   1.021   1.537   0.753  0.3846  0.0994  0.3174
  194SOL     OW  773   0.472   1.357   0.951 -0.5646 -0.4509 -0.0169
  194SOL    HW1  774   0.480   1.262   0.939 -1.4695  1.4459  0.7940
  194SOL    HW2  775   0.383   1.381   0.920  0.3199 -3.8314 -2.4802
  194SOL     MW  776   0.461   1.348   0.945 -0.5673 -0.6467 -0.2349
  195SOL     OW  777   1.305   1.146   2.934  0.1338  0.2478  0.2190
  195SOL    HW1  778   1.361   1.152   3.013  0.6926 -0.5160  1.9668
  195SOL    HW2  779   1.226   1.091   2.958 -0.2673 -1.7233  2.0447
  195SOL     MW  780   1.302   1.140   2.948  0.1546 -0.1130  0.6905
  196SOL     OW  781   2.194   1.056   0.611 -0.5101  0.0952 -0.1893
  196SOL    HW1  782   2.159   1.030   0.529 -2.2766  0.9631  1.8407
  196SOL    HW2  783   2.202   1.153   0.620  1.9937  0.1326 -0.8572
  196SOL     MW  784   2.190   1.065   0.601 -0.4129  0.2146 -0.0096
  197SOL     OW  785   0.570   1.215   2.003 -0.1530  0.2313 -0.1887
  197SOL    HW1  786   0.584   1.123   1.999  0.6894  2.5197 -0.0380
  197SOL    HW2  787   0.572   1.256   1.915  0.5373  0.8889  1.4455
  197SOL     MW  788   0.572   1.208   1.991  0.0492  0.6200  0.0468
  198SOL     OW  789   2.929   1.371   1.081 -0.7103 -0.4454 -0.5734
  198SOL    HW1  790   2.942   1.457   1.036 -0.1643  1.0493 -2.3633
  198SOL    HW2  791   2.833   1.353   1.063  1.4274  0.3962 -0.1152
  198SOL     MW  792   2.918   1.380   1.073 -0.3562 -0.1371 -0.7491
  199SOL     OW  793   0.482   1.268   1.744  0.0059  0.1690 -0.2557
  199SOL    HW1  794   0.392   1.243   1.773 -0.9777 -3.2689 -0.3770
  199SOL    HW2  795   0.483   1.334   1.676  1.3485  3.1085 -1.1630
  199SOL     MW  796   0.470   1.273   1.739  0.0532  0.1033 -0.3914
  200SOL     OW  797   1.927   3.041   1.300 -0.0420  0.3819  0.3703
  200SOL    HW1  798   1.926   3.047   1.203 -0.9725  0.3140 -0.4911
  200SOL    HW2  799   1.834   3.066   1.324 -0.0897  4.0578  0.1344
  200SOL     MW  800   1.914   3.045   1.291 -0.1711  0.8579  0.2255
  201SOL     OW  801   1.125   0.328   0.802  0.5350  0.0554  0.2525
  201SOL    HW1  802   1.120   0.248   0.844 -1.1144 -0.3272  2.4248
  201SOL    HW2  803   1.132   0.317   0.706  2.7462  1.2475  0.8140
  201SOL     MW  804   1.126   0.316   0.795  0.6091  0.1622  0.6132
  202SOL     OW  805   1.587   1.585   1.024 -0.0323  0.3636 -0.0554
  202SOL    HW1  806   1.615   1.509   0.974  1.2722  0.8892  0.2665
  202SOL    HW2  807   1.606   1.565   1.119 -0.7278 -1.5685 -0.1374
  202SOL     MW  808   1.593   1.572   1.030  0.0481  0.1780 -0.0237
  203SOL     OW  809   3.020   0.493   1.211  0.1812 -0.6411 -0.3454
  203SOL    HW1  810   3.068   0.418   1.176 -1.4264  0.6946 -1.1728
  203SOL    HW2  811   3.082   0.533   1.263 -0.9451  0.6568  2.5032
  203SOL     MW  812   3.035   0.488   1.213 -0.1795 -0.2936 -0.0787
  204SOL     OW  813   1.045   1.773   0.525  0.1618  0.0221 -0.5388
  204SOL    HW1  814   1.007   1.707   0.589  2.0029  1.0721  1.6423
  204SOL    HW2  815   0.965   1.812   0.485 -0.3979  1.6256  1.9919
  204SOL     MW  816   1.030   1.770   0.528  0.3309  0.3722  0.0829
  205SOL     OW  817   1.389   0.044   1.310  0.1651  0.7729  0.2978
  205SOL    HW1  818   1.334   0.008   1.244 -0.3435  0.5550 -0.0896
  205SOL    HW2  819   1.433   0.124   1.282 -0.4956  1.5018  0.7016
  205SOL     MW  820   1.388   0.050   1.298  0.0108  0.8403  0.3000
  206SOL     OW  821   0.536   3.096   1.370  0.2640 -0.4062  0.1954
  206SOL    HW1  822   0.468   3.066   1.309  0.1943  1.5630  0.1190
  206SOL    HW2  823   0.583   3.015   1.399 -1.1196  1.8987  0.0098
  206SOL     MW  824   0.533   3.081   1.366  0.0723  0.1577  0.1608
  207SOL     OW  825   0.968   1.553   0.211 -0.0347 -0.4669  0.0050
  207SOL    HW1  826   1.004   1.644   0.216 -4.1618  1.7504 -1.8868
  207SOL    HW2  827   1.031   1.499   0.255 -1.9941 -1.0711  3.2419
  207SOL     MW  828   0.981   1.558   0.218 -0.8377 -0.2541  0.1824
  208SOL     OW  829   0.642   1.574   1.249  0.1909  0.0396 -0.1937
  208SOL    HW1  830   0.717   1.587   1.301 -0.5055  1.6019 -0.9101
  208SOL    HW2  831   0.633   1.476   1.233 -1.1825 -3.5422 -0.7006
  208SOL     MW  832   0.651   1.563   1.254 -0.0822 -0.2268 -0.3551
  209SOL     OW  833   1.485   0.485   2.812  0.5360 -0.4683 -0.0951
  209SOL    HW1  834   1.514   0.549   2.749 -0.6969  0.9653  2.2199
  209SOL    HW2  835   1.568   0.428   2.825  1.6367 -1.3549 -2.0117
  209SOL     MW  836   1.500   0.486   2.805  0.5186 -0.3961 -0.0426
  210SOL     OW  837   1.595   1.317   0.910 -0.4645  0.3740 -0.3980
  210SOL    HW1  838   1.676   1.321   0.865 -0.5341  0.2015  1.3323
  210SOL    HW2  839   1.530   1.319   0.841 -1.9648  1.3306 -0.5845
  210SOL     MW  840   1.597   1.318   0.895 -0.6716  0.4775 -0.1943
  211SOL     OW  841   1.722   0.467   0.933 -0.2298 -0.2960 -0.8452
  211SOL    HW1  842   1.691   0.449   0.840 -0.4436  0.0880  0.8113
  211SOL    HW2  843   1.823   0.485   0.931  1.6475 -1.2321  1.7158
  211SOL     MW  844   1.731   0.467   0.921 -0.0103 -0.3689 -0.2887
  212SOL     OW  845   0.270   1.114   0.037 -0.1378 -0.5228 -0.1386
  212SOL    HW1  846   0.239   1.060   0.115  0.1512 -1.5379 -1.1588
  212SOL    HW2  847   0.338   1.055  -0.003  0.8404  1.7260  3.9917
  212SOL     MW  848   0.275   1.099   0.042  0.0294 -0.3600  0.2717
  213SOL     OW  849   0.525   1.691   3.091 -0.5933  0.1856  0.4053
  213SOL    HW1  850   0.572   1.749   3.157  2.9228 -0.1854 -0.1554
  213SOL    HW2  851   0.550   1.713   3.002  1.8117 -0.7911 -0.5361
  213SOL     MW  852   0.534   1.702   3.088  0.1880  0.0078  0.2071
  214SOL     OW  853   0.624   0.236   2.257 -0.0779 -0.1222  0.0678
  214SOL    HW1  854   0.554   0.293   2.230 -0.8381  0.0176 -0.0751
  214SOL    HW2  855   0.702   0.250   2.208  2.4102  0.1443  1.1582
  214SOL     MW  856   0.625   0.245   2.247  0.1501 -0.0686  0.1928
  215SOL     OW  857   0.501   0.714   2.648  0.2348  0.1854  0.1663
  215SOL    HW1  858   0.546   0.717   2.565 -0.6695  3.0903  1.2507
  215SOL    HW2  859   0.416   0.665   2.631  1.3259  1.4451 -0.4023
  215SOL     MW  860   0.495   0.708   2.635  0.2595  0.7349  0.2343
  216SOL     OW  861   0.008   3.094   2.777  0.3999 -0.1071  0.3488
  216SOL    HW1  862  -0.073   3.058   2.827  1.3004 -1.2140 -0.0007
  216SOL    HW2  863  -0.025   3.178   2.741  0.3309  0.9866 -1.2110
  216SOL     MW  864  -0.007   3.101   2.779  0.5096 -0.1089  0.0968
  217SOL     OW  865   0.975   1.184   0.014 -0.0739  0.1068 -0.3426
  217SOL    HW1  866   1.034   1.106  -0.021  1.9290  1.8609 -1.1499
  217SOL    HW2  867   1.039   1.264   0.028  1.7551  0.1176  0.4491
  217SOL     MW  868   0.991   1.184   0.011  0.4317  0.3397 -0.3447
  218SOL     OW  869   0.915   1.380   2.483  0.5432  0.9032  0.2931
  218SOL    HW1  870   0.914   1.290   2.525  0.2531 -0.8580 -0.7509
  218SOL    HW2  871   0.998   1.416   2.523 -2.0500  3.3928 -4.3965
  218SOL     MW  872   0.926   1.373   2.494  0.1627  0.9993 -0.4634
  219SOL     OW  873   0.993   0.416   2.537 -0.0845  0.1745 -0.2660
  219SOL    HW1  874   1.062   0.480   2.531 -2.3029 -0.1339 -0.5051
  219SOL    HW2  875   0.955   0.427   2.625 -1.6487  1.2477 -1.2729
  219SOL     MW  876   0.997   0.426   2.548 -0.5835  0.2754 -0.4304
  220SOL     OW  877   1.766   0.540   2.173  0.3990  0.0039 -0.4881
  220SOL    HW1  878   1.686   0.584   2.161  0.7134 -0.0257  1.8824
  220SOL    HW2  879   1.778   0.490   2.095 -2.0096  0.0859  2.3226
  220SOL     MW  880   1.757   0.539   2.162  0.1227  0.0108  0.1955
  221SOL     OW  881   0.405   1.438   2.920  0.0146 -0.1383 -0.1504
  221SOL    HW1  882   0.415   1.346   2.891  0.2806 -0.0291  4.3166
  221SOL    HW2  883   0.398   1.492   2.835 -0.0558  2.2436 -0.2854
  221SOL     MW  884   0.405   1.433   2.905  0.0404  0.1904  0.4212
  222SOL     OW  885   0.368   0.947   2.669 -0.5318  0.5726 -0.0308
  222SOL    HW1  886   0.318   0.954   2.587 -0.9849  1.4601 -3.5167
  222SOL    HW2  887   0.428   0.875   2.657  0.0259 -0.1671 -1.5482
  222SOL     MW  888   0.369   0.939   2.656 -0.5180  0.5921 -0.6909
  223SOL     OW  889   3.071   2.004   2.663  0.4448 -0.6195 -0.5491
  223SOL    HW1  890   3.143   1.937   2.681  0.4774 -0.7885  0.4516
  223SOL    HW2  891   3.107   2.091   2.637 -0.4458  3.0702 -2.4187
  223SOL     MW  892   3.085   2.007   2.662  0.3316 -0.1550 -0.6637
  224SOL     OW  893   1.536   0.831   2.596 -0.5273  0.2819 -0.6484
  224SOL    HW1  894   1.498   0.845   2.680  0.6083  2.4105 -1.7338
  224SOL    HW2  895   1.534   0.918   2.555 -0.0523 -2.2664 -0.3552
  224SOL     MW  896   1.531   0.845   2.602 -0.3148  0.2265 -0.7529
  225SOL     OW  897   2.932   1.473   2.250 -0.5923  0.3596 -0.3269
  225SOL    HW1  898   2.982   1.521   2.183 -1.0019  0.6965 -2.3548
  225SOL    HW2  899   2.877   1.539   2.302 -2.3527  1.9526  1.0088
  225SOL     MW  900   2.931   1.488   2.248 -0.8786  0.6142 -0.4182
  226SOL     OW  901   0.414   1.515   2.644 -0.5914 -0.0744 -0.5176
  226SOL    HW1  902   0.500   1.485   2.619  2.1227 -1.1109 -0.4934
  226SOL    HW2  903   0.405   1.597   2.598 -0.9576 -0.7538  0.8701
  226SOL     MW  904   0.424   1.522   2.634 -0.2816 -0.3008 -0.3313
  227SOL     OW  905   0.418   1.154   2.837  0.5172 -0.6361 -0.1685
  227SOL    HW1  906   0.508   1.148   2.799 -1.1764 -1.1471  0.3792
  227SOL    HW2  907   0.361   1.106   2.783  2.6643 -0.9630 -0.9097
  227SOL     MW  908   0.422   1.147   2.825  0.5770 -0.7466 -0.1940
  228SOL     OW  909   0.679   0.977   2.007  0.1315 -0.0419 -0.4643
  228SOL    HW1  910   0.770   0.998   1.977  1.6144  0.2983 -0.2349
  228SOL    HW2  911   0.696   0.917   2.086  0.4411  2.1811  0.3114
  228SOL     MW  912   0.693   0.972   2.014  0.3680  0.2963 -0.3317
  229SOL     OW  913   0.242   0.476   3.061 -0.1914  0.1651  0.2481
  229SOL    HW1  914   0.156   0.468   3.026  1.6852 -0.1110  1.3501
  229SOL    HW2  915   0.237   0.428   3.144 -0.8652  0.4588  0.4493
  229SOL     MW  916   0.230   0.469   3.068 -0.0327  0.1674  0.4201
  230SOL     OW  917   1.767   1.350   2.113 -0.0383 -0.2870 -0.2318
  230SOL    HW1  918   1.720   1.345   2.198  1.3332  1.0345  1.7492
  230SOL    HW2  919   1.765   1.258   2.077  0.1104  0.3936  2.9120
  230SOL     MW  920   1.761   1.337   2.119  0.1623 -0.0229  0.4444
  231SOL     OW  921   2.816   1.228   2.191 -0.1266  0.2166 -0.5197
  231SOL    HW1  922   2.863   1.314   2.192  2.1438  1.7930 -0.7244
  231SOL    HW2  923   2.745   1.261   2.135 -2.5584 -3.0687 -2.2755
  231SOL     MW  924   2.813   1.244   2.184 -0.1479 -0.0088 -0.7783
  232SOL     OW  925   2.288   0.962   2.101 -0.4842 -0.5305 -0.1756
  232SOL    HW1  926   2.197   0.983   2.064  0.7805 -0.3954  1.4186
  232SOL    HW2  927   2.270   0.960   2.190 -0.6382  0.8254 -1.2666
  232SOL     MW  928   2.273   0.964   2.108 -0.3377 -0.3338 -0.1092
  233SOL     OW  929   2.056   0.549   1.940  0.2878 -0.1301  0.1440
  233SOL    HW1  930   2.107   0.568   1.859 -0.0960  0.2708 -0.7889
  233SOL    HW2  931   2.127   0.528   2.007 -0.7821 -1.3906  0.8386
  233SOL     MW  932   2.072   0.549   1.938  0.0960 -0.2435  0.1125
  234SOL     OW  933   0.229   0.957   2.427  0.8211  0.2874 -0.6015
  234SOL    HW1  934   0.135   0.968   2.457 -1.1414  0.3540 -0.5313
  234SOL    HW2  935   0.253   1.046   2.406  0.4068 -1.2159 -3.6891
  234SOL     MW  936   0.220   0.970   2.428  0.5075  0.0979 -0.9996
  235SOL     OW  937   0.984   3.039   2.795 -0.5756  1.0003  0.0494
  235SOL    HW1  938   1.055   2.996   2.843  0.1149 -1.2734 -0.3489
  235SOL    HW2  939   0.973   3.124   2.839 -0.1128  0.5107  2.7109
  235SOL     MW  940   0.992   3.045   2.807 -0.4235  0.6357  0.3480
  236SOL     OW  941   2.938   0.497   0.085 -0.0023  0.2516  0.1845
  236SOL    HW1  942   2.858   0.515   0.032  1.0411 -2.0247 -1.5320
  236SOL    HW2  943   2.972   0.595   0.098  0.1136 -0.7277 -0.9205
  236SOL     MW  944   2.932   0.512   0.080  0.1507 -0.1779 -0.1878
  237SOL     OW  945   1.744   0.882   2.172  0.2045 -0.4370  0.1114
  237SOL    HW1  946   1.772   0.970   2.139 -0.4383  0.8073 -2.9775
  237SOL    HW2  947   1.789   0.871   2.261 -0.1563  0.1625 -0.8942
  237SOL     MW  948   1.754   0.892   2.180  0.0721 -0.1937 -0.4288
  238SOL     OW  949   1.102   1.759   2.974 -0.3434 -0.1785  0.0034
  238SOL    HW1  950   1.053   1.676   2.964  2.4537 -0.9047  0.3405
  238SOL    HW2  951   1.198   1.742   2.971  2.5449 -0.7118 -1.5992
  238SOL     MW  952   1.108   1.746   2.972  0.4067 -0.3447 -0.1636
  239SOL     OW  953   1.231   1.387   2.316 -0.7362  0.1488 -0.0870
  239SOL    HW1  954   1.251   1.414   2.408  1.3583 -4.8670  0.0946
  239SOL    HW2  955   1.153   1.338   2.324  1.2515 -0.4498  1.3961
  239SOL     MW  956   1.223   1.384   2.329 -0.1976 -0.5919  0.1327
  240SOL     OW  957   0.648   0.835   2.228 -0.1792 -0.0498  0.0197
  240SOL    HW1  958   0.646   0.907   2.292 -0.4495 -1.0510  1.5073
  240SOL    HW2  959   0.726   0.784   2.243 -1.0191 -0.6423  0.1511
  240SOL     MW  960   0.658   0.837   2.239 -0.3257 -0.2601  0.2333
  241SOL     OW  961   0.647   0.385   2.960 -0.5345  0.0629 -0.8962
  241SOL    HW1  962   0.663   0.421   3.048 -2.2028 -1.0826  0.3391
  241SOL    HW2  963   0.558   0.417   2.940  2.0285  4.0926  0.9911
  241SOL     MW  964   0.637   0.394   2.969 -0.4165  0.4434 -0.4842
  242SOL     OW  965   1.423   1.669   2.364  0.0059 -0.2656 -0.1907
  242SOL    HW1  966   1.435   1.758   2.383 -0.8123 -0.4915 -0.3556
  242SOL    HW2  967   1.342   1.664   2.316  0.0540  3.0915 -0.0989
  242SOL     MW  968   1.414   1.680   2.360 -0.0957  0.1475 -0.2003
  243SOL     OW  969   1.020   0.225   2.357 -0.7685 -0.5611 -0.2590
  243SOL    HW1  970   1.109   0.188   2.344  0.8848  2.5133  0.0641
  243SOL    HW2  971   1.022   0.282   2.431 -1.2244  0.9406 -0.7900
  243SOL     MW  972   1.032   0.227   2.365 -0.6105  0.0427 -0.2864
  244SOL     OW  973   0.214   0.728   2.270 -0.3780 -0.6020  0.2147
  244SOL    HW1  974   0.233   0.811   2.322 -0.9064 -0.4005  0.3804
  244SOL    HW2  975   0.292   0.677   2.297 -1.5931  3.7531 -2.2866
  244SOL     MW  976   0.227   0.732   2.281 -0.6081 -0.0008 -0.0934
  245SOL     OW  977   1.304   0.136   2.277 -1.2827  0.2770 -0.2469
  245SOL    HW1  978   1.319   0.043   2.294 -0.2449 -0.4627 -2.8447
  245SOL    HW2  979   1.386   0.172   2.313 -2.9577  0.9999  2.3177
  245SOL     MW  980   1.317   0.129   2.284 -1.3668  0.2748 -0.2513
  246SOL     OW  981   1.177   1.139   2.150 -0.6686  0.1126  0.1317
  246SOL    HW1  982   1.127   1.091   2.219 -0.6962  1.2335 -0.9173
  246SOL    HW2  983   1.258   1.165   2.197  1.1985  1.9717  2.9046
  246SOL     MW  984   1.181   1.136   2.165 -0.4259  0.5058  0.3591
  247SOL     OW  985   0.654   0.529   0.145 -0.0080  0.3858  0.0370
  247SOL    HW1  986   0.624   0.616   0.128  0.3882 -0.6848  0.5378
  247SOL    HW2  987   0.748   0.535   0.133 -1.1093  0.6899 -2.0549
  247SOL     MW  988   0.663   0.541   0.141 -0.1010  0.2847 -0.1729
  248SOL     OW  989   0.407   1.212   2.411  0.7138  0.0671  0.6284
  248SOL    HW1  990   0.405   1.260   2.325  2.2614 -0.7362 -2.3478
  248SOL    HW2  991   0.443   1.275   2.465 -2.8528 -0.9505  0.0053
  248SOL     MW  992   0.412   1.227   2.407  0.4474 -0.1732  0.1535
  249SOL     OW  993   0.163   1.801   2.714  0.3473  0.1708 -0.0693
  249SOL    HW1  994   0.086   1.756   2.684  1.1374 -1.2712 -1.1120
  249SOL    HW2  995   0.179   1.771   2.802 -0.7233 -0.5418 -0.0605
  249SOL     MW  996   0.155   1.791   2.722  0.3103 -0.1135 -0.2057
  250SOL     OW  997   2.174   0.918   2.357  0.0863 -0.9788  0.3620
  250SOL    HW1  998   2.246   0.857   2.349 -2.5520  1.4589  1.7123
  250SOL    HW2  999   2.204   0.986   2.423 -0.1789  0.1701 -1.5830
  250SOL     MW 1000   2.188   0.919   2.365 -0.2968 -0.5056  0.2835
  251SOL     OW 1001   0.171   0.836   2.012  0.4627 -0.4230 -0.6038
  251SOL    HW1 1002   0.209   0.807   2.092  2.7819  0.8458 -2.5520
  251SOL    HW2 1003   0.112   0.766   1.976  0.4467  1.5753  0.6161
  251SOL     MW 1004   0.168   0.823   2.018  0.7666  0.0081 -0.6999
  252SOL     OW 1005   1.689   1.025   2.838 -0.3992 -0.1336  0.6568
  252SOL    HW1 1006   1.684   1.055   2.931 -1.8254  0.6940  0.8153
  252SOL    HW2 1007   1.705   1.105   2.785  2.4533 -2.6642 -0.6779
  252SOL     MW 1008   1.690   1.040   2.843 -0.2110 -0.3583  0.5016
  253SOL     OW 1009   1.148   1.730   2.543  0.0809 -0.2632  0.1652
  253SOL    HW1 1010   1.125   1.775   2.462 -0.2407  0.2521  1.7235
  253SOL    HW2 1011   1.065   1.736   2.598  0.9695  0.8224 -0.4341
  253SOL     MW 1012   1.134   1.737   2.540  0.1557 -0.0520  0.2917
  254SOL     OW 1013   0.989   1.048   2.332  0.3615 -0.1350  0.6756
  254SOL    HW1 1014   0.971   0.956   2.311  0.4126  0.6744  2.1323
  254SOL    HW2 1015   0.916   1.094   2.293  2.9322 -2.7412 -1.9822
  254SOL     MW 1016   0.977   1.042   2.324  0.7074 -0.3721  0.5171
  255SOL     OW 1017   0.769   2.393   2.250  0.4652  0.4900 -0.3121
  255SOL    HW1 1018   0.689   2.340   2.238 -1.3878  0.6696 -1.1060
  255SOL    HW2 1019   0.785   2.408   2.342  2.4421  1.6156 -1.8115
  255SOL     MW 1020   0.760   2.388   2.260  0.4816  0.6622 -0.6147
  256SOL     OW 1021   1.188   2.868   2.924 -0.5653 -0.3926 -0.1376
  256SOL    HW1 1022   1.206   2.770   2.907  0.3755 -1.7518 -1.3602
  256SOL    HW2 1023   1.268   2.902   2.882  2.7394 -1.7578  1.9465
  256SOL     MW 1024   1.201   2.860   2.916 -0.0052 -0.7521 -0.0240
  257SOL     OW 1025   0.097   1.853   0.034  0.3299  0.3204  0.3221
  257SOL    HW1 1026   0.126   1.837   0.128 -2.6977 -0.4861 -1.8374
  257SOL    HW2 1027   0.144   1.779  -0.007  0.7326  0.6041  1.9565
  257SOL     MW 1028   0.107   1.841   0.041 -0.0164  0.2515  0.2528
  258SOL     OW 1029   0.644   1.049   2.429  0.3962  0.2781  0.7881
  258SOL    HW1 1030   0.690   1.093   2.355  2.2799 -1.8866  1.8460
  258SOL    HW2 1031   0.577   1.107   2.447  0.5807  0.9462  1.8427
  258SOL     MW 1032   0.641   1.063   2.422  0.6691  0.0806  1.0669
  259SOL     OW 1033   0.615   0.437   2.482  0.4696  1.2078 -0.3120
  259SOL    HW1 1034   0.545   0.488   2.436  2.6752  1.0956  1.8538
  259SOL    HW2 1035   0.638   0.365   2.422  0.7211 -1.1703 -2.0842
  259SOL     MW 1036   0.609   0.434   2.468  0.7938  0.8792 -0.2601
  260SOL     OW 1037   0.624   0.146   1.573  0.5322 -0.3274 -0.1615
  260SOL    HW1 1038   0.585   0.139   1.486 -0.3869  1.5877  1.4332
  260SOL    HW2 1039   0.723   0.166   1.569  1.4098  2.3632 -1.4181
  260SOL     MW 1040   0.632   0.148   1.561  0.5267  0.2802 -0.1169
  261SOL     OW 1041   1.093   0.701   2.105  0.1447 -0.6863  0.3130
  261SOL    HW1 1042   1.102   0.666   2.193  1.4844  0.1138  0.2766
  261SOL    HW2 1043   1.164   0.655   2.063 -2.1721  0.2434  1.2353
  261SOL     MW 1044   1.104   0.690   2.111  0.0158 -0.4581  0.4299
  262SOL     OW 1045   1.118   0.357   0.079  0.0976 -0.4439 -0.3326
  262SOL    HW1 1046   1.212   0.358   0.098  0.1002  1.3542 -1.8148
  262SOL    HW2 1047   1.105   0.316  -0.009 -0.7263 -0.1303  1.4827
  262SOL     MW 1048   1.129   0.352   0.070 -0.0108 -0.1653 -0.2887
  263SOL     OW 1049   0.443   3.011   2.520  0.9203 -0.0063  0.1097
  263SOL    HW1 1050   0.366   3.064   2.507 -1.8611  1.0112 -0.3313
  263SOL    HW2 1051   0.491   3.036   2.437  0.3031 -0.1348 -2.9301
  263SOL     MW 1052   0.439   3.021   2.508  0.4719  0.1110 -0.3496
  264SOL     OW 1053   1.544   1.366   1.950  0.3830  0.1156 -0.4859
  264SOL    HW1 1054   1.487   1.327   2.020  1.3873  1.3298  1.8023
  264SOL    HW2 1055   1.628   1.387   1.997 -0.3346 -1.6294  0.1174
  264SOL     MW 1056   1.548   1.364   1.965  0.4208  0.0455 -0.1044
  265SOL     OW 1057   0.684   2.754   2.229 -0.3818  0.1396  0.3457
  265SOL    HW1 1058   0.729   2.674   2.186  0.4103 -2.0780  0.4206
  265SOL    HW2 1059   0.708   2.752   2.321 -2.4640 -0.1296 -0.3565
  265SOL     MW 1060   0.693   2.743   2.235 -0.5520 -0.1885  0.2629
  266SOL     OW 1061   0.888   0.762   2.280 -0.2793  0.3245 -0.4556
  266SOL    HW1 1062   0.926   0.712   2.200  1.5790 -2.4916 -1.4919
  266SOL    HW2 1063   0.881   0.708   2.362 -0.5648  0.1730  2.3546
  266SOL     MW 1064   0.892   0.748   2.280 -0.0718 -0.0670 -0.2216
  267SOL     OW 1065   1.373   1.832   2.684 -0.5129 -0.1836  0.1751
  267SOL    HW1 1066   1.452   1.780   2.667  2.4769 -2.0285 -1.4500
  267SOL    HW2 1067   1.300   1.794   2.641  1.3875 -0.0907 -0.3034
  267SOL     MW 1068   1.374   1.820   2.676  0.1323 -0.4147 -0.1025
  268SOL     OW 1069   0.204   0.760   1.686 -0.2965  0.3926  0.3173
  268SOL    HW1 1070   0.128   0.796   1.641  1.5116  0.7241  3.6583
  268SOL    HW2 1071   0.203   0.658   1.665  3.6245  0.8805  0.3257
  268SOL     MW 1072   0.194   0.751   1.677  0.4594  0.5007  0.7592
  269SOL     OW 1073   1.435   1.955   2.439  0.6064 -0.1153  0.3437
  269SOL    HW1 1074   1.433   1.920   2.532  0.0968  2.1188 -2.9162
  269SOL    HW2 1075   1.363   2.022   2.439 -0.2427  2.2195 -2.5655
  269SOL     MW 1076   1.425   1.959   2.451  0.4271  0.4875 -0.4703
  270SOL     OW 1077   1.182   0.455   1.618  0.0309 -0.0158  0.1035
  270SOL    HW1 1078   1.165   0.365   1.657  1.6520 -0.6564 -0.0749
  270SOL    HW2 1079   1.262   0.442   1.567 -2.0025  1.2474  3.0720
  270SOL     MW 1080   1.190   0.442   1.617 -0.0235  0.0663  0.4716
  271SOL     OW 1081   0.862   3.084   2.408  0.1716  0.0547 -0.2765
  271SOL    HW1 1082   0.895   3.026   2.481 -1.2610 -0.9768  0.8679
  271SOL    HW2 1083   0.933   3.143   2.387  1.8682 -1.0597 -3.7910
  271SOL     MW 1084   0.875   3.084   2.415  0.2064 -0.2285 -0.5892
  272SOL     OW 1085   1.385   3.007   2.811  0.2437  0.0861  0.6059
  272SOL    HW1 1086   1.320   3.030   2.747  0.1685 -0.4674  0.0623
  272SOL    HW2 1087   1.368   3.063   2.898 -1.0433  0.1969  0.4515
  272SOL     MW 1088   1.375   3.018   2.814  0.0640  0.0277  0.5138
  273SOL     OW 1089   1.440   0.922   2.867  0.4202  0.0721  0.6266
  273SOL    HW1 1090   1.528   0.965   2.870 -1.2758  0.8394  1.6911
  273SOL    HW2 1091   1.387   1.002   2.880  0.3121  0.1465  0.0372
  273SOL     MW 1092   1.444   0.938   2.869  0.1822  0.1831  0.6893
  274SOL     OW 1093   1.351   0.729   0.120  0.1086  0.2927  0.3882
  274SOL    HW1 1094   1.381   0.644   0.155 -0.4776 -1.5321  0.9253
  274SOL    HW2 1095   1.262   0.744   0.172  1.1490  1.7735  3.7644
  274SOL     MW 1096   1.344   0.719   0.132  0.1685  0.2473  0.9045
  275SOL     OW 1097   1.694   0.656   1.807  0.4550  0.7285  0.0543
  275SOL    HW1 1098   1.778   0.683   1.847 -1.5776 -0.2567 -0.0434
  275SOL    HW2 1099   1.674   0.565   1.832 -0.9897  2.4847  3.4228
  275SOL     MW 1100   1.702   0.648   1.816 -0.0038  0.8302  0.4858
  276SOL     OW 1101   0.226   1.158   1.823  0.7125  0.3331 -0.3385
  276SOL    HW1 1102   0.286   1.082   1.823  4.0179 -0.3259  0.5867
  276SOL    HW2 1103   0.172   1.149   1.905  0.8849  1.1407 -0.0335
  276SOL     MW 1104   0.227   1.147   1.834  1.1713  0.3527 -0.1762
  277SOL     OW 1105   1.955   1.374   2.684  0.0195  0.1160 -0.8337
  277SOL    HW1 1106   1.981   1.461   2.677 -1.7989 -1.7936  0.2118
  277SOL    HW2 1107   2.025   1.317   2.667 -0.7042 -1.5025  2.8707
  277SOL     MW 1108   1.968   1.378   2.681 -0.3159 -0.3495 -0.2070
  278SOL     OW 1109   1.421   0.677   1.745 -0.1579 -0.5180 -0.6275
  278SOL    HW1 1110   1.383   0.620   1.816  0.7290 -1.0773  0.5173
  278SOL    HW2 1111   1.510   0.708   1.775  1.4468  2.9796 -0.2321
  278SOL     MW 1112   1.428   0.673   1.758  0.1708 -0.1303 -0.4243
  279SOL     OW 1113   0.587   3.065   2.265 -0.2787 -0.2821  0.3641
  279SOL    HW1 1114   0.668   3.068   2.215  0.2972  3.5928 -0.2108
  279SOL    HW2 1115   0.569   3.158   2.267  2.9939 -0.1163  2.6598
  279SOL     MW 1116   0.595   3.077   2.259  0.2291  0.2510  0.5912
  280SOL     OW 1117   1.456   1.171   2.223  0.9363 -0.0830  0.0614
  280SOL    HW1 1118   1.455   1.093   2.163 -1.5078 -2.8014  0.7786
  280SOL    HW2 1119   1.464   1.146   2.317  0.1917  0.4244  2.1694
  280SOL     MW 1120   1.457   1.157   2.227  0.5156 -0.3748  0.4342
  281SOL     OW 1121   1.282   1.427   2.837 -0.6054  0.4189 -0.2045
  281SOL    HW1 1122   1.379   1.436   2.840 -0.2389 -3.8615 -0.0978
  281SOL    HW2 1123   1.278   1.335   2.855 -2.1796  2.8279  1.5447
  281SOL     MW 1124   1.294   1.416   2.840 -0.7648  0.1720  0.0403
  282SOL     OW 1125   1.087   1.289   1.688  0.2999  0.0858 -0.1040
  282SOL    HW1 1126   1.059   1.357   1.622  0.6798  4.0885  1.8363
  282SOL    HW2 1127   1.010   1.261   1.739 -2.6692  1.4604 -5.0748
  282SOL     MW 1128   1.074   1.294   1.686 -0.0417  0.7953 -0.5038
  283SOL     OW 1129   0.712   1.230   3.082  0.1435 -0.2629  0.0959
  283SOL    HW1 1130   0.806   1.210   3.095 -0.2327  1.3002 -1.7491
  283SOL    HW2 1131   0.713   1.317   3.126 -1.8764 -1.3788  0.8975
  283SOL     MW 1132   0.724   1.239   3.090 -0.1727 -0.2039 -0.0418
  284SOL     OW 1133   0.451   0.606   2.328  0.3034 -0.1815  0.1084
  284SOL    HW1 1134   0.510   0.669   2.277  1.6061  0.3388  1.3717
  284SOL    HW2 1135   0.447   0.522   2.277  1.0107  0.3443 -0.2312
  284SOL     MW 1136   0.458   0.603   2.315  0.5686 -0.0435  0.2303
  285SOL     OW 1137   0.919   0.912   2.791 -0.3237  0.3086  0.8444
  285SOL    HW1 1138   0.932   0.980   2.718 -0.1047 -2.1761 -0.4957
  285SOL    HW2 1139   0.860   0.842   2.772 -1.7964 -0.4794 -0.1107
  285SOL     MW 1140   0.913   0.912   2.779 -0.4891 -0.1232  0.5416
  286SOL     OW 1141   1.157   1.455   2.579 -0.1108 -0.0732 -0.0925
  286SOL    HW1 1142   1.209   1.451   2.663  1.8455  0.5389 -0.0769
  286SOL    HW2 1143   1.155   1.549   2.575 -1.0129 -0.1316  1.7818
  286SOL     MW 1144   1.164   1.467   2.590  0.0283 -0.0001  0.1568
  287SOL     OW 1145   1.072   0.962   0.419 -0.5093  0.3998  0.1094
  287SOL    HW1 1146   1.145   0.988   0.475  2.7799 -1.7851 -1.1181
  287SOL    HW2 1147   1.046   1.043   0.382  1.1573  1.0598  2.9466
  287SOL     MW 1148   1.078   0.976   0.421  0.1446  0.1986  0.3218
  288SOL     OW 1149   1.510   0.666   2.164  0.1750 -0.0655  0.0505
  288SOL    HW1 1150   1.479   0.658   2.255  2.6302  0.2876 -0.5858
  288SOL    HW2 1151   1.492   0.754   2.142 -0.7867 -1.3815 -0.4381
  288SOL     MW 1152   1.503   0.677   2.173  0.3720 -0.1926 -0.0979
  289SOL     OW 1153   0.881   1.105   2.598  0.8376 -0.5155 -0.7293
  289SOL    HW1 1154   0.931   1.081   2.518  3.1604 -0.5206  0.9835
  289SOL    HW2 1155   0.788   1.085   2.575 -2.0170 -1.9937  2.2269
  289SOL     MW 1156   0.875   1.099   2.584  0.7674 -0.7112 -0.1133
  290SOL     OW 1157   0.864   0.687   1.528 -0.2924 -0.5881 -0.2049
  290SOL    HW1 1158   0.905   0.622   1.470  0.9441 -0.6768  0.2759
  290SOL    HW2 1159   0.908   0.664   1.609  1.1461 -1.7938  0.9269
  290SOL     MW 1160   0.875   0.675   1.531  0.0606 -0.7589  0.0079
  291SOL     OW 1161   0.210   0.356   0.203 -0.1467 -0.4066  0.2482
  291SOL    HW1 1162   0.291   0.316   0.230  0.1045  1.0918 -1.4019
  291SOL    HW2 1163   0.145   0.293   0.169  1.5309 -0.6825  0.5445
  291SOL     MW 1164   0.212   0.343   0.202  0.1078 -0.2453  0.0696
  292SOL     OW 1165   0.934   0.576   0.077  0.2280 -0.0431  0.2170
  292SOL    HW1 1166   0.982   0.644   0.127 -1.6940  0.6350  1.4922
  292SOL    HW2 1167   0.992   0.497   0.084  1.5467  1.5729 -0.2282
  292SOL     MW 1168   0.948   0.574   0.084  0.1484  0.2596  0.3265
  293SOL     OW 1169   0.240   0.090   2.487 -0.0200 -0.1157  0.2333
  293SOL    HW1 1170   0.179   0.036   2.439  0.1888 -0.1435  0.3775
  293SOL    HW2 1171   0.197   0.120   2.571  1.7719 -0.8482  1.6632
  293SOL     MW 1172   0.226   0.087   2.492  0.2440 -0.2160  0.4410
  294SOL     OW 1173   1.448   0.629   2.427  0.4205  0.0135 -0.0741
  294SOL    HW1 1174   1.492   0.689   2.495  0.6317 -1.0703  3.2373
  294SOL    HW2 1175   1.477   0.540   2.458  5.2571  0.1780 -0.8893
  294SOL     MW 1176   1.457   0.625   2.440  1.0865 -0.1078  0.2553
  295SOL     OW 1177   0.804   0.659   2.510  0.1556 -0.0301  1.0159
  295SOL    HW1 1178   0.773   0.569   2.483  1.6341  1.9045 -2.1672
  295SOL    HW2 1179   0.769   0.665   2.596 -0.3858  1.9501 -1.1981
  295SOL     MW 1180   0.795   0.648   2.518  0.2792  0.4864  0.3038
  296SOL     OW 1181   1.282   0.308   2.053  0.0774  0.1804  0.0456
  296SOL    HW1 1182   1.371   0.295   2.029 -3.1114  1.7483 -2.3941
  296SOL    HW2 1183   1.273   0.294   2.145  2.1297  0.5293  0.8327
  296SOL     MW 1184   1.292   0.304   2.062 -0.0725  0.4333 -0.1725
  297SOL     OW 1185   1.417   0.417   1.494 -0.1432  0.0849 -0.2401
  297SOL    HW1 1186   1.458   0.503   1.500 -0.9307 -1.2124 -2.1351
  297SOL    HW2 1187   1.478   0.355   1.532 -1.0683  2.2435 -0.2257
  297SOL     MW 1188   1.430   0.420   1.499 -0.3691  0.1986 -0.4882
  298SOL     OW 1189   1.502   0.923   2.065  0.6117 -0.3558  0.1541
  298SOL    HW1 1190   1.505   0.961   1.979  0.2781  0.8272  0.4374
  298SOL    HW2 1191   1.589   0.922   2.102 -1.3892 -2.9362  0.9292
  298SOL     MW 1192   1.514   0.928   2.058  0.3037 -0.5402  0.2937
  299SOL     OW 1193   0.514   1.029   3.052  0.0588  0.5342  0.5303
  299SOL    HW1 1194   0.583   1.086   3.072  1.5010 -1.9954  0.6771
  299SOL    HW2 1195   0.464   1.077   2.980 -2.0924 -0.6217 -0.1024
  299SOL     MW 1196   0.516   1.043   3.045 -0.0347  0.0479  0.4662
  300SOL     OW 1197   1.226   1.120   2.511  0.3171 -0.0482 -0.2986
  300SOL    HW1 1198   1.158   1.073   2.472  0.9534 -0.2934 -0.7713
  300SOL    HW2 1199   1.198   1.130   2.597  2.4845  2.6845 -0.9617
  300SOL     MW 1200   1.213   1.115   2.517  0.6870  0.2800 -0.4485
  301SOL     OW 1201   1.389   0.729   0.592 -0.1638 -0.3795  0.0775
  301SOL    HW1 1202   1.434   0.703   0.676  1.2276 -1.5222  0.3677
  301SOL    HW2 1203   1.323   0.666   0.563 -2.0212 -2.2224 -0.7908
  301SOL     MW 1204   1.386   0.717   0.600 -0.2253 -0.7734  0.0012
  302SOL     OW 1205   0.153   1.440   1.927  0.2472 -0.0715 -0.2489
  302SOL    HW1 1206   0.168   1.392   2.008 -0.7623  1.1406 -0.0770
  302SOL    HW2 1207   0.086   1.499   1.967  1.2335 -0.2254 -2.8157
  302SOL     MW 1208   0.146   1.442   1.943  0.2441  0.0681 -0.5649
  303SOL     OW 1209   0.413   1.777   2.587 -0.3797 -0.2802 -0.2622
  303SOL    HW1 1210   0.411   1.841   2.517 -1.5551 -1.3869 -0.1461
  303SOL    HW2 1211   0.325   1.782   2.620 -0.9822 -0.3849 -2.0056
  303SOL     MW 1212   0.401   1.786   2.582 -0.6142 -0.4401 -0.4769
  304SOL     OW 1213   0.479   2.063   2.430 -0.2213  0.5751 -0.3338
  304SOL    HW1 1214   0.487   2.156   2.407  1.7400 -0.1267 -0.0177
  304SOL    HW2 1215   0.550   2.006   2.394  0.4870 -3.4369  3.0934
  304SOL     MW 1216   0.489   2.067   2.422  0.1309 -0.0468  0.1601
  305SOL     OW 1217   1.177   0.561   0.494 -0.1207 -0.0376  0.5689
  305SOL    HW1 1218   1.098   0.526   0.521 -0.3053 -0.5746 -1.5027
  305SOL    HW2 1219   1.218   0.476   0.481  0.6049 -1.1595 -0.6605
  305SOL     MW 1220   1.172   0.545   0.496 -0.0494 -0.2564  0.1333
  306SOL     OW 1221   1.238   1.418   0.297  0.0803  0.4883  0.2374
  306SOL    HW1 1222   1.290   1.359   0.356 -0.3434  1.5121  1.5005
  306SOL    HW2 1223   1.277   1.421   0.216  2.0147 -2.7572  1.0444
  306SOL     MW 1224   1.250   1.411   0.294  0.2796  0.1952  0.5106
  307SOL     OW 1225   1.307   0.564   1.984  0.0293 -0.6945 -0.5809
  307SOL    HW1 1226   1.291   0.472   2.017  2.1100 -1.4086 -0.9450
  307SOL    HW2 1227   1.370   0.598   2.042 -2.0260 -3.2444  0.1436
  307SOL     MW 1228   1.313   0.557   1.996  0.0327 -1.1251 -0.5334
  308SOL     OW 1229   2.136   0.606   2.729 -0.8335  0.3032 -0.8118
  308SOL    HW1 1230   2.113   0.509   2.739  0.1096 -0.4228  1.5505
  308SOL    HW2 1231   2.229   0.625   2.761  0.3882 -1.0201  4.9646
  308SOL     MW 1232   2.145   0.596   2.734 -0.5479  0.0328  0.2620
  309SOL     OW 1233   0.572   0.490   0.402 -0.0697 -0.1722  0.2174
  309SOL    HW1 1234   0.604   0.402   0.420  0.8368 -0.5099 -1.2017
  309SOL    HW2 1235   0.593   0.504   0.306 -1.4559 -2.3614 -1.9075
  309SOL     MW 1236   0.579   0.480   0.391 -0.1330 -0.5056 -0.2502
  310SOL     OW 1237   0.423   0.516   1.913 -0.3889  0.5759  0.1546
  310SOL    HW1 1238   0.477   0.456   1.861 -0.5974 -0.8109 -1.3293
  310SOL    HW2 1239   0.471   0.601   1.907  2.8713 -0.2883  1.3414
  310SOL     MW 1240   0.437   0.519   1.905  0.0138  0.2789  0.1154
  311SOL     OW 1241   1.918   0.779   1.959  0.1255 -0.7489  0.5779
  311SOL    HW1 1242   1.864   0.768   2.036  2.1526  1.9245  1.5804
  311SOL    HW2 1243   1.989   0.716   1.969 -2.5243  1.3693 -1.4938
  311SOL     MW 1244   1.920   0.769   1.971  0.0433 -0.1167  0.4368
  312SOL     OW 1245   1.737   2.563   3.090  0.7719 -0.4789  0.2162
  312SOL    HW1 1246   1.783   2.599   3.167 -1.6061  2.0333  1.2737
  312SOL    HW2 1247   1.642   2.563   3.108 -1.8329 -1.6003  1.0939
  312SOL     MW 1248   1.730   2.567   3.102  0.1144 -0.2954  0.4716
  313SOL     OW 1249   0.082   1.216   2.941 -0.3744  0.4569  0.6821
  313SOL    HW1 1250   0.147   1.201   3.011  0.2081  3.0753  1.2857
  313SOL    HW2 1251   0.123   1.237   2.851  3.1012 -2.2730  0.4435
  313SOL     MW 1252   0.096   1.217   2.938  0.1610  0.4422  0.7303
  314SOL     OW 1253   2.147   3.054   2.975  0.1683  0.0406 -0.0711
  314SOL    HW1 1254   2.087   3.122   2.922  0.7429 -0.8180 -1.3044
  314SOL    HW2 1255   2.199   3.109   3.033 -0.5488 -1.0837  0.2211
  314SOL     MW 1256   2.146   3.070   2.976  0.1495 -0.2210 -0.1953
  315SOL     OW 1257   1.572   1.978   3.032 -0.1118 -0.3746 -0.0301
  315SOL    HW1 1258   1.499   2.013   3.080 -1.0169  0.6607  0.9299
  315SOL    HW2 1259   1.567   2.014   2.941 -0.0466 -0.6289 -1.4576
  315SOL     MW 1260   1.562   1.987   3.026 -0.2226 -0.2716 -0.0918
  316SOL     OW 1261   1.239   0.678   2.681 -0.0315 -0.2252 -0.2094
  316SOL    HW1 1262   1.286   0.597   2.676  1.3414  0.3615  0.2277
  316SOL    HW2 1263   1.248   0.700   2.778  0.5350  0.6480 -2.4605
  316SOL     MW 1264   1.247   0.670   2.693  0.2244 -0.0326 -0.4488
  317SOL     OW 1265   0.661   1.377   2.571 -0.2869  0.3572 -0.3515
  317SOL    HW1 1266   0.679   1.332   2.654 -2.7127  1.0951 -1.9693
  317SOL    HW2 1267   0.751   1.395   2.535 -2.5690 -1.0005  0.1924
  317SOL     MW 1268   0.675   1.374   2.577 -0.9080  0.2754 -0.4932
  318SOL     OW 1269   1.270   0.349   2.919 -0.0623 -0.3212 -0.4880
  318SOL    HW1 1270   1.187   0.403   2.902  0.8726 -1.9314  0.6268
  318SOL    HW2 1271   1.336   0.400   2.871 -0.7881 -1.3175 -0.4827
  318SOL     MW 1272   1.268   0.362   2.910 -0.0347 -0.6651 -0.3402
  319SOL     OW 1273   0.812   0.411   2.741  0.2693  0.0553  0.1765
  319SOL    HW1 1274   0.778   0.339   2.680  1.3083 -1.1803 -0.4361
  319SOL    HW2 1275   0.760   0.388   2.819  0.5506 -2.9093 -0.2028
  319SOL     MW 1276   0.800   0.398   2.743  0.4435 -0.4989  0.0456
  320SOL     OW 1277   1.011   1.323   2.023  0.0788  0.0267  0.0321
  320SOL    HW1 1278   1.073   1.261   2.068 -0.1323 -2.9495  0.2690
  320SOL    HW2 1279   1.062   1.397   1.988 -1.4297  1.8274 -1.5665
  320SOL     MW 1280   1.025   1.324   2.025 -0.1481 -0.1284 -0.1475
  321SOL     OW 1281   1.115   0.973   2.986 -0.3079 -0.2267  0.2811
  321SOL    HW1 1282   1.024   0.960   2.948  0.1914 -2.7525  1.8775
  321SOL    HW2 1283   1.163   0.887   2.965 -1.0655 -0.3598  0.9215
  321SOL     MW 1284   1.109   0.960   2.978 -0.3420 -0.5775  0.5762
  322SOL     OW 1285   1.214   0.851   1.699 -0.1126 -0.7790 -0.2053
  322SOL    HW1 1286   1.277   0.782   1.713  0.4243 -0.6976  0.6185
  322SOL    HW2 1287   1.198   0.880   1.787  0.0700 -1.9933 -0.1742
  322SOL     MW 1288   1.220   0.845   1.713 -0.0177 -0.9285 -0.0925
  323SOL     OW 1289   1.188   1.501   1.892 -0.4622  0.1409 -0.2604
  323SOL    HW1 1290   1.184   1.438   1.827  2.2055  0.8139  0.1486
  323SOL    HW2 1291   1.132   1.574   1.859  0.3235 -1.0607  0.8060
  323SOL     MW 1292   1.180   1.502   1.879 -0.0066  0.0711 -0.0658
  324SOL     OW 1293   1.491   1.085   2.498 -0.1631 -0.4675 -0.0720
  324SOL    HW1 1294   1.392   1.120   2.507 -2.1556  0.8814  2.1492
  324SOL    HW2 1295   1.533   1.157   2.543 -1.0567  0.8620 -1.4788
  324SOL     MW 1296   1.483   1.099   2.505 -0.5439 -0.1141  0.0355
  325SOL     OW 1297   1.025   0.482   2.925  0.8513 -0.0189  0.1894
  325SOL    HW1 1298   1.000   0.539   2.998 -0.4125  0.7355 -4.6291
  325SOL    HW2 1299   0.972   0.513   2.852 -0.7779 -0.2377  0.0811
  325SOL     MW 1300   1.015   0.494   2.925  0.4696  0.0517 -0.4607
  326SOL     OW 1301   0.389   1.399   2.176 -0.2640  0.0643  0.0889
  326SOL    HW1 1302   0.453   1.352   2.128  0.4954  3.0100  0.7496
  326SOL    HW2 1303   0.418   1.487   2.203  0.2244  0.9765  2.7455
  326SOL     MW 1304   0.402   1.405   2.173 -0.0994  0.5733  0.5266
  327SOL     OW 1305   1.903   0.812   2.422 -0.1009  0.1806 -0.2347
  327SOL    HW1 1306   1.888   0.767   2.509  2.5213  0.4357  2.1854
  327SOL    HW2 1307   1.991   0.846   2.428  1.0335 -1.9953 -2.1071
  327SOL     MW 1308   1.913   0.810   2.434  0.3948 -0.0729 -0.1624
  328SOL     OW 1309   0.114   1.344   2.175  0.2658 -0.0762  0.1319
  328SOL    HW1 1310   0.094   1.254   2.149 -2.5572  0.3388  0.3264
  328SOL    HW2 1311   0.203   1.351   2.205 -0.8819 -1.6977  0.2900
  328SOL     MW 1312   0.123   1.333   2.175 -0.2581 -0.2354  0.1784
  329SOL     OW 1313   0.131   0.180   1.385 -0.7275  0.0425  0.3373
  329SOL    HW1 1314   0.074   0.204   1.459  2.2417  0.6340 -1.8171
  329SOL    HW2 1315   0.220   0.184   1.420  0.5762 -1.2094  1.3455
  329SOL     MW 1316   0.136   0.184   1.399 -0.1638 -0.0446  0.1861
  330SOL     OW 1317   0.402   2.958   2.094  0.2455  0.0345 -0.2561
  330SOL    HW1 1318   0.466   2.978   2.164 -3.6133  1.3499 -0.6290
  330SOL    HW2 1319   0.321   2.941   2.149 -2.8178 -0.1779 -0.3594
  330SOL     MW 1320   0.400   2.958   2.110 -0.6678  0.1800 -0.3189
  331SOL     OW 1321   0.780   1.201   2.256  0.9380  0.1991  0.3668
  331SOL    HW1 1322   0.726   1.215   2.182  0.5293 -2.9462 -1.3669
  331SOL    HW2 1323   0.804   1.290   2.278  2.5138 -0.8239  1.4817
  331SOL     MW 1324   0.776   1.215   2.249  1.0920 -0.3509  0.2851
  332SOL     OW 1325   1.419   1.736   2.954  0.6037  0.2412  0.6499
  332SOL    HW1 1326   1.387   1.775   2.871  0.7007 -0.3001 -1.2039
  332SOL    HW2 1327   1.458   1.805   3.006 -0.5072  0.9640 -0.9153
  332SOL     MW 1328   1.420   1.750   2.950  0.4699  0.2651  0.1988
  333SOL     OW 1329   1.738   1.492   3.011 -0.1492  0.1548  0.2247
  333SOL    HW1 1330   1.834   1.494   3.030 -0.0034 -1.2446 -1.8803
  333SOL    HW2 1331   1.698   1.423   3.065 -0.5254 -1.0084  0.4021
  333SOL     MW 1332   1.745   1.483   3.021 -0.1796 -0.1833 -0.0296
  334SOL     OW 1333   1.197   3.085   2.615  0.4171  0.5839  0.4154
  334SOL    HW1 1334   1.119   3.109   2.670  3.4060 -1.6170 -0.5156
  334SOL    HW2 1335   1.246   3.167   2.608 -1.3918  1.3098  0.7038
  334SOL     MW 1336   1.193   3.099   2.621  0.5728  0.3893  0.3306
  335SOL     OW 1337   1.268   0.738   2.942  0.0542  0.1584  0.2931
  335SOL    HW1 1338   1.284   0.734   3.034  0.5281  0.8765  1.4490
  335SOL    HW2 1339   1.347   0.781   2.917 -0.8749  0.5457  1.4901
  335SOL     MW 1340   1.280   0.743   2.951 -0.0058  0.3042  0.6036
  336SOL     OW 1341   0.910   1.083   1.850 -0.4754  0.6524  0.1901
  336SOL    HW1 1342   0.915   1.158   1.905 -0.3151 -1.7044  0.8454
  336SOL    HW2 1343   0.969   1.023   1.895  2.6956 -1.2433  1.9260
  336SOL     MW 1344   0.918   1.085   1.863 -0.0358  0.0914  0.5056
  337SOL     OW 1345   0.578   1.750   2.829 -0.4760  0.3229  0.4822
  337SOL    HW1 1346   0.514   1.775   2.764 -1.5996 -0.9818 -1.8442
  337SOL    HW2 1347   0.630   1.671   2.787  2.7135  1.0731 -1.3122
  337SOL     MW 1348   0.576   1.743   2.815 -0.2034  0.2497 -0.0615
  338SOL     OW 1349   1.052   0.813   2.539 -0.2529  0.8211 -0.5394
  338SOL    HW1 1350   0.965   0.775   2.556 -1.9295  1.1762  0.1522
  338SOL    HW2 1351   1.121   0.763   2.589  4.1715 -0.4509 -0.6411
  338SOL     MW 1352   1.050   0.802   2.548  0.1096  0.7001 -0.4616
  339SOL     OW 1353   1.488   1.117   1.829  0.7462  0.5923 -0.0622
  339SOL    HW1 1354   1.411   1.134   1.775  0.0245  1.0729  0.1055
  339SOL    HW2 1355   1.509   1.206   1.860  0.9756 -1.6069 -0.7533
  339SOL     MW 1356   1.480   1.131   1.826  0.6812  0.3655 -0.1312
  340SOL     OW 1357   1.321   1.585   0.064  0.0292  0.4011 -0.1064
  340SOL    HW1 1358   1.358   1.609  -0.020 -3.1609 -1.5646  0.3004
  340SOL    HW2 1359   1.405   1.575   0.117  1.0659 -0.2466  1.0078
  340SOL     MW 1360   1.337   1.587   0.060 -0.2549  0.0562  0.0943
  341SOL     OW 1361   0.163   1.314   2.681  0.2560  0.7418 -0.1649
  341SOL    HW1 1362   0.244   1.367   2.686  0.0838  4.1022  0.7737
  341SOL    HW2 1363   0.137   1.316   2.590  0.4165  1.7481 -1.9041
  341SOL     MW 1364   0.170   1.321   2.669  0.2545  1.3180 -0.2705
  342SOL     OW 1365   1.418   0.292   0.093 -0.2228 -0.1341 -0.1973
  342SOL    HW1 1366   1.427   0.370   0.155  1.2491  1.9964  2.2121
  342SOL    HW2 1367   1.462   0.334   0.021 -0.2918  1.7181  1.9543
  342SOL     MW 1368   1.425   0.308   0.092 -0.0377  0.3914  0.4045
  343SOL     OW 1369   0.187   0.291   2.320 -0.2224  0.3525  0.6604
  343SOL    HW1 1370   0.238   0.226   2.367  1.3531 -1.1459 -1.0312
  343SOL    HW2 1371   0.140   0.250   2.242  0.1936  1.7355 -0.0438
  343SOL     MW 1372   0.187   0.277   2.316  0.0404  0.3373  0.3443
  344SOL     OW 1373   1.714   2.162   0.124  0.3845  0.1213  0.4225
  344SOL    HW1 1374   1.741   2.232   0.061 -0.1576  0.7369  3.1128
  344SOL    HW2 1375   1.701   2.084   0.063  1.6945 -2.4739 -1.7790
  344SOL     MW 1376   1.716   2.161   0.108  0.4858 -0.1399  0.4870
  345SOL     OW 1377   0.666   1.620   2.354  0.2606  0.2305 -0.1835
  345SOL    HW1 1378   0.572   1.635   2.340 -0.7505  0.7638  1.3806
  345SOL    HW2 1379   0.696   1.567   2.275  0.6030 -0.8054  0.9741
  345SOL     MW 1380   0.657   1.615   2.342  0.1723  0.1641  0.1756
  346SOL     OW 1381   1.679   1.045   0.002  0.4298 -0.0541  0.0445
  346SOL    HW1 1382   1.771   1.045   0.019  0.1068  2.5753 -0.3736
  346SOL    HW2 1383   1.634   0.961   0.024 -0.7335 -1.0349  0.6397
  346SOL     MW 1384   1.685   1.034   0.007  0.2337  0.1634  0.0678
  347SOL     OW 1385   1.183   0.632   2.365 -0.0041 -0.4624  0.3838
  347SOL    HW1 1386   1.279   0.634   2.401  0.7063 -1.6523  0.4919
  347SOL    HW2 1387   1.134   0.699   2.415  2.5407 -0.7056 -1.4728
  347SOL     MW 1388   1.189   0.641   2.376  0.4254 -0.6515  0.1531
  348SOL     OW 1389   1.366   2.645   1.859  0.3179 -0.3798 -0.0635
  348SOL    HW1 1390   1.400   2.573   1.925 -0.4232 -1.9569 -1.0382
  348SOL    HW2 1391   1.375   2.725   1.916  0.5007  0.0723  0.3227
  348SOL     MW 1392   1.372   2.646   1.875  0.2443 -0.5282 -0.1412
  349SOL     OW 1393   1.360   0.192   2.687  0.0588  0.3332 -0.0235
  349SOL    HW1 1394   1.339   0.219   2.778 -1.2119 -2.8999  0.6082
  349SOL    HW2 1395   1.452   0.154   2.696  1.8479  1.8012 -0.1653
  349SOL     MW 1396   1.369   0.191   2.700  0.1272  0.1003  0.0412
  350SOL     OW 1397   1.857   0.667   2.646 -0.1978  0.3151  0.0177
  350SOL    HW1 1398   1.826   0.589   2.598 -0.1912 -0.2961 -1.6928
  350SOL    HW2 1399   1.953   0.652   2.658  1.4511  1.5525 -0.0239
  350SOL     MW 1400   1.866   0.655   2.641  0.0206  0.3977 -0.2135
  351SOL     OW 1401   0.003   0.943   1.567 -0.5584 -0.8703 -0.0121
  351SOL    HW1 1402  -0.055   0.970   1.637 -0.6255  0.5423  0.0812
  351SOL    HW2 1403   0.048   1.027   1.554 -0.7483  0.4320  0.6047
  351SOL     MW 1404   0.001   0.958   1.574 -0.5923 -0.5121  0.0816
  352SOL     OW 1405   0.776   1.594   2.751 -0.3147  0.2368  0.1354
  352SOL    HW1 1406   0.810   1.560   2.841 -2.4041  0.2961  5.3241
  352SOL    HW2 1407   0.762   1.516   2.694  1.7075  0.6263  1.6802
  352SOL     MW 1408   0.779   1.579   2.755 -0.3235  0.2960  1.0238
  353SOL     OW 1409   3.054   2.421   2.754  0.0459 -0.5038 -0.2352
  353SOL    HW1 1410   3.129   2.405   2.701 -1.0281 -1.5967  0.0124
  353SOL    HW2 1411   3.024   2.513   2.740  0.3069  0.0366  1.3288
  353SOL     MW 1412   3.060   2.431   2.745 -0.0614 -0.5767  0.0038
  354SOL     OW 1413   0.399   2.422   0.880  0.4582 -0.3659  0.1906
  354SOL    HW1 1414   0.429   2.413   0.976  2.1286  1.6842 -1.3872
  354SOL    HW2 1415   0.326   2.358   0.871 -1.2041 -1.6111 -1.3156
  354SOL     MW 1416   0.393   2.412   0.892  0.4593 -0.2597 -0.2163
  355SOL     OW 1417   0.078   2.253   0.361  0.3574  0.1932  0.3798
  355SOL    HW1 1418  -0.004   2.202   0.376 -2.5109  0.3550 -1.0778
  355SOL    HW2 1419   0.092   2.300   0.444 -0.8499  1.7140 -1.6375
  355SOL     MW 1420   0.069   2.253   0.374 -0.1803  0.4152 -0.0787
  356SOL     OW 1421   0.766   2.966   0.989  0.6660  0.6760  0.2846
  356SOL    HW1 1422   0.844   2.938   0.937  1.7649 -0.1571 -1.2591
  356SOL    HW2 1423   0.700   2.893   0.977  2.0342  0.8982 -1.2355
  356SOL     MW 1424   0.768   2.953   0.981  0.9915  0.5954 -0.1197
  357SOL     OW 1425   1.808   2.963   0.364  0.5635 -0.2956 -0.2859
  357SOL    HW1 1426   1.754   2.899   0.406  1.3965 -1.7089  0.9691
  357SOL    HW2 1427   1.874   2.901   0.332 -0.2205  1.4681 -1.2856
  357SOL     MW 1428   1.810   2.946   0.365  0.5700 -0.2493 -0.2522
  358SOL     OW 1429   0.456   0.172   1.067 -0.4837  0.2693  0.2425
  358SOL    HW1 1430   0.544   0.146   1.016  1.4633  0.4437 -0.3382
  358SOL    HW2 1431   0.404   0.206   0.996  1.0102  1.5544 -0.3358
  358SOL     MW 1432   0.461   0.173   1.051 -0.0297  0.4619  0.0896
  359SOL     OW 1433   0.931   2.771   1.894  0.9312  0.1346 -0.3702
  359SOL    HW1 1434   0.878   2.697   1.918  3.9549  1.2034 -3.1450
  359SOL    HW2 1435   0.985   2.739   1.825 -0.4638  0.3413  0.3178
  359SOL     MW 1436   0.931   2.757   1.888  1.1461  0.3029 -0.6456
  360SOL     OW 1437   0.567   2.771   0.904  0.5564  0.2081  0.1816
  360SOL    HW1 1438   0.566   2.699   0.842  0.0702  0.3856 -0.9510
  360SOL    HW2 1439   0.557   2.718   0.989  0.6509  0.2254  0.2643
  360SOL     MW 1440   0.565   2.755   0.907  0.5047  0.2338  0.0431
  361SOL     OW 1441   0.186   2.766   1.381 -0.4390  0.4810 -0.1186
  361SOL    HW1 1442   0.174   2.857   1.389  3.6085 -2.4402 -1.9746
  361SOL    HW2 1443   0.280   2.750   1.398 -0.9750  0.4344  2.3735
  361SOL     MW 1444   0.197   2.776   1.384  0.0243  0.0894 -0.0347
  362SOL     OW 1445   1.496   2.398   0.592 -0.3584 -0.0088 -0.0622
  362SOL    HW1 1446   1.497   2.328   0.660  0.6274 -2.2683 -0.6675
  362SOL    HW2 1447   1.489   2.486   0.634  0.5437 -1.1055  0.6448
  362SOL     MW 1448   1.495   2.401   0.607 -0.1093 -0.4517 -0.0488
  363SOL     OW 1449   0.221   3.019   0.718 -0.4527 -0.5526  0.4510
  363SOL    HW1 1450   0.233   2.952   0.781 -2.6532  2.0651 -1.6976
  363SOL    HW2 1451   0.134   3.013   0.682  2.2460 -1.7651 -2.0201
  363SOL     MW 1452   0.211   3.010   0.722 -0.3869 -0.3672 -0.1585
  364SOL     OW 1453   0.742   0.189   0.200 -0.1478  0.3026 -0.4796
  364SOL    HW1 1454   0.738   0.095   0.199 -1.6926  0.1124 -2.8529
  364SOL    HW2 1455   0.645   0.220   0.189  0.1888  2.7177  1.2036
  364SOL     MW 1456   0.729   0.181   0.198 -0.3072  0.5961 -0.5707
  365SOL     OW 1457   0.997   1.978   1.165 -0.4731  0.0758 -0.5581
  365SOL    HW1 1458   0.992   2.060   1.123 -0.5061 -1.8921  0.6705
  365SOL    HW2 1459   0.934   1.928   1.119  0.7371 -0.2542 -2.6907
  365SOL     MW 1460   0.988   1.982   1.153 -0.3178 -0.2274 -0.6774
  366SOL     OW 1461   2.857   2.657   1.020 -0.0224  0.6152  0.3892
  366SOL    HW1 1462   2.941   2.664   1.077  2.2712 -0.7045  0.4736
  366SOL    HW2 1463   2.891   2.680   0.931  0.0380  2.2914 -0.1388
  366SOL     MW 1464   2.873   2.661   1.016  0.2882  0.6622  0.3306
  367SOL     OW 1465   1.273   2.914   0.881  0.1957 -0.6715  0.4528
  367SOL    HW1 1466   1.219   2.999   0.887 -1.2937  2.0887 -0.6479
  367SOL    HW2 1467   1.221   2.855   0.820  0.2874 -2.8768 -0.5266
  367SOL     MW 1468   1.259   2.918   0.874  0.0113 -0.5983  0.1784
  368SOL     OW 1469   1.688   0.442   0.654 -0.2678  0.1548  0.0212
  368SOL    HW1 1470   1.775   0.402   0.638  0.3812 -0.2627  0.9405
  368SOL    HW2 1471   1.706   0.527   0.689  1.5151  1.8471  3.1572
  368SOL     MW 1472   1.702   0.448   0.657  0.0530  0.3230  0.5563
  369SOL     OW 1473   0.148   2.479   1.748 -0.2896  0.1205  0.1652
  369SOL    HW1 1474   0.227   2.421   1.763 -0.1414 -0.0316  0.0848
  369SOL    HW2 1475   0.148   2.541   1.813 -0.3516 -0.3857 -1.8182
  369SOL     MW 1476   0.158   2.480   1.759 -0.2782  0.0337 -0.1071
  370SOL     OW 1477   0.661   0.113   0.909 -0.2350  0.2287  1.2459
  370SOL    HW1 1478   0.728   0.186   0.926 -0.7402  2.2056 -0.8217
  370SOL    HW2 1479   0.712   0.029   0.933  0.4715 -0.3895  0.3204
  370SOL     MW 1480   0.677   0.112   0.915 -0.2085  0.4080  0.8510
  371SOL     OW 1481   1.339   2.975   1.514  0.1452  0.1240  0.7400
  371SOL    HW1 1482   1.271   2.916   1.474 -3.4311  1.4250 -0.1597
  371SOL    HW2 1483   1.364   3.028   1.440 -2.4048 -2.4359  0.0722
  371SOL     MW 1484   1.333   2.974   1.499 -0.6631 -0.0421  0.5331
  372SOL     OW 1485   0.794   2.273   0.495  0.3604  0.0174  0.5249
  372SOL    HW1 1486   0.728   2.204   0.488 -0.4042 -1.6463 -2.8112
  372SOL    HW2 1487   0.809   2.281   0.402 -2.5123 -0.9408 -0.1245
  372SOL     MW 1488   0.787   2.265   0.482 -0.1195 -0.3285 -0.0009
  373SOL     OW 1489   2.808   2.991   1.411  0.6022  0.6385 -0.0043
  373SOL    HW1 1490   2.877   2.968   1.347 -0.5524 -2.0271  0.9001
  373SOL    HW2 1491   2.789   3.081   1.382 -0.2493 -0.2880 -2.7234
  373SOL     MW 1492   2.814   3.000   1.399  0.3375  0.1646 -0.2437
  374SOL     OW 1493   1.483   0.506   0.234  0.3390  0.2949  0.1541
  374SOL    HW1 1494   1.564   0.513   0.188 -2.5043  1.6070 -0.8171
  374SOL    HW2 1495   1.509   0.460   0.314  0.8007 -3.1555  0.0210
  374SOL     MW 1496   1.497   0.501   0.238  0.0248  0.0128  0.0084
  375SOL     OW 1497   1.122   2.096   2.249  0.3078 -0.0982  0.2779
  375SOL    HW1 1498   1.147   2.112   2.344 -0.0525  2.5514  1.2496
  375SOL    HW2 1499   1.085   2.001   2.241  0.3911  0.3037  0.2232
  375SOL     MW 1500   1.120   2.086   2.261  0.2712  0.3044  0.3989
  376SOL     OW 1501   0.692   2.545   0.132  0.3073  0.2119 -0.0636
  376SOL    HW1 1502   0.734   2.464   0.172 -0.2610 -2.6190  0.3426
  376SOL    HW2 1503   0.618   2.508   0.082 -0.3320  1.2516 -1.5008
  376SOL     MW 1504   0.688   2.529   0.131  0.1479 -0.0244 -0.1996
  377SOL     OW 1505   1.247   2.070   0.942 -0.9121 -0.1282  0.5099
  377SOL    HW1 1506   1.209   2.025   0.866  1.7039 -0.1607 -0.9632
  377SOL    HW2 1507   1.249   1.996   1.004  0.7128 -0.9326 -4.6428
  377SOL     MW 1508   1.242   2.054   0.940 -0.3525 -0.2386 -0.3643
  378SOL     OW 1509   0.974   2.819   1.487 -0.0210 -0.3417 -0.2203
  378SOL    HW1 1510   0.925   2.749   1.535  1.5690 -0.4277  2.5165
  378SOL    HW2 1511   0.917   2.850   1.413 -1.8554  1.2738 -0.1956
  378SOL     MW 1512   0.960   2.814   1.483 -0.0533 -0.1399  0.1441
  379SOL     OW 1513   1.045   1.852   2.320  0.1976 -0.1140 -0.0610
  379SOL    HW1 1514   0.954   1.856   2.352 -1.7322  1.4815 -1.7561
  379SOL    HW2 1515   1.043   1.772   2.272  1.5829 -1.7505 -0.4035
  379SOL     MW 1516   1.033   1.842   2.318  0.1257 -0.1194 -0.3298
  380SOL     OW 1517   0.884   0.223   1.556 -0.8830 -0.4242  0.1512
  380SOL    HW1 1518   0.923   0.189   1.470 -0.5888 -0.9197 -3.2530
  380SOL    HW2 1519   0.950   0.203   1.621 -0.3226 -0.0221  0.9835
  380SOL     MW 1520   0.898   0.216   1.553 -0.7702 -0.4365 -0.1882
  381SOL     OW 1521   0.845   2.030   0.809 -0.3768 -0.2817 -0.4966
  381SOL    HW1 1522   0.936   2.012   0.777 -1.6229 -1.6086  1.3333
  381SOL    HW2 1523   0.855   2.103   0.874 -0.6276  1.1411  0.1826
  381SOL     MW 1524   0.859   2.037   0.813 -0.5743 -0.2691 -0.1656
  382SOL     OW 1525   0.682   0.036   0.636  0.0782  0.2414  0.1900
  382SOL    HW1 1526   0.679   0.082   0.719  1.1219 -2.7140  1.4524
  382SOL    HW2 1527   0.640  -0.050   0.653 -0.1973  1.9454 -0.3619
  382SOL     MW 1528   0.676   0.030   0.649  0.1796  0.0763  0.2838
  383SOL     OW 1529   0.491   0.012   0.347  0.4119  0.3352 -0.2021
  383SOL    HW1 1530   0.485   0.037   0.443  0.2105  0.0563  1.9950
  383SOL    HW2 1531   0.396   0.001   0.324  4.4305  0.8559 -0.5498
  383SOL     MW 1532   0.477   0.014   0.357  0.9155  0.3671  0.0419
  384SOL     OW 1533   0.610   2.859   0.582 -0.6637  0.2967 -0.1348
  384SOL    HW1 1534   0.625   2.780   0.637 -1.0624  0.4999  0.7838
  384SOL    HW2 1535   0.512   2.856   0.566  2.3063 -0.6964 -1.7780
  384SOL     MW 1536   0.599   2.848   0.587 -0.3244  0.1925 -0.2304
  385SOL     OW 1537   1.316   2.057   1.562  0.7204  0.3352  0.5728
  385SOL    HW1 1538   1.391   2.090   1.614  0.6376  3.4107 -0.1365
  385SOL    HW2 1539   1.290   1.970   1.597  0.7282 -0.4626 -2.3775
  385SOL     MW 1540   1.323   2.050   1.574  0.7105  0.6357  0.0899
  386SOL     OW 1541   1.356   0.443   0.896  0.1771 -0.0566 -0.1205
  386SOL    HW1 1542   1.267   0.418   0.861 -0.9809 -3.5275 -1.8146
  386SOL    HW2 1543   1.339   0.449   0.990  0.3057 -0.2802  0.0753
  386SOL     MW 1544   1.342   0.440   0.904  0.0413 -0.5441 -0.3182
  387SOL     OW 1545   0.903   2.172   1.472 -0.0129 -0.4348 -0.3008
  387SOL    HW1 1546   0.959   2.235   1.424 -2.3717 -2.7099 -0.2780
  387SOL    HW2 1547   0.924   2.083   1.432  0.6341 -3.5563 -0.3118
  387SOL     MW 1548   0.913   2.169   1.461 -0.2388 -1.1468 -0.2993
  388SOL     OW 1549   1.568   2.859   1.192 -0.4100 -0.2189 -0.5418
  388SOL    HW1 1550   1.491   2.813   1.171  0.4051 -0.5510 -0.3004
  388SOL    HW2 1551   1.635   2.829   1.130 -0.0156 -0.2537 -1.1210
  388SOL     MW 1552   1.567   2.849   1.181 -0.2504 -0.2673 -0.5864
  389SOL     OW 1553   0.420   0.149   3.092 -0.4828  0.5156 -0.2870
  389SOL    HW1 1554   0.504   0.100   3.077 -0.3404 -1.6672 -1.4704
  389SOL    HW2 1555   0.355   0.094   3.121  0.0452  0.8913 -0.1032
  389SOL     MW 1556   0.423   0.136   3.094 -0.3944  0.2771 -0.4189
  390SOL     OW 1557   1.384   0.061   0.645  0.1172  0.2181 -0.5814
  390SOL    HW1 1558   1.470   0.079   0.609  0.1617 -2.3485  0.0116
  390SOL    HW2 1559   1.391   0.076   0.741 -1.8008  2.1783  0.6870
  390SOL     MW 1560   1.396   0.065   0.653 -0.1300  0.1381 -0.3358
  391SOL     OW 1561   0.269   2.316   1.425 -0.4645 -0.1663  0.3947
  391SOL    HW1 1562   0.235   2.244   1.486  0.8794 -2.3337 -0.1173
  391SOL    HW2 1563   0.201   2.385   1.437  1.5228  0.5902 -0.3270
  391SOL     MW 1564   0.256   2.316   1.435 -0.0250 -0.3524  0.2319
  392SOL     OW 1565   1.978   2.183   0.302 -0.1744 -0.5086  0.1576
  392SOL    HW1 1566   1.896   2.226   0.339 -1.2153 -0.5004  3.5558
  392SOL    HW2 1567   2.035   2.151   0.377  0.3468 -0.8392  0.3664
  392SOL     MW 1568   1.975   2.184   0.317 -0.2430 -0.5511  0.6335
  393SOL     OW 1569   0.206   3.026   2.939 -0.1409  0.3507 -0.6486
  393SOL    HW1 1570   0.284   3.070   2.910 -1.9968 -1.2400  1.8737
  393SOL    HW2 1571   0.138   3.048   2.875 -0.1026 -0.2424 -1.1333
  393SOL     MW 1572   0.208   3.035   2.927 -0.3807  0.0626 -0.3798
  394SOL     OW 1573   0.844   1.650   1.435  0.0382  0.2102  0.0852
  394SOL    HW1 1574   0.779   1.663   1.506 -1.6670 -0.1377  0.6318
  394SOL    HW2 1575   0.879   1.732   1.417  0.4076 -4.3510 -1.7766
  394SOL     MW 1576   0.840   1.663   1.442 -0.1380 -0.4375 -0.0883
  395SOL     OW 1577   0.940   2.871   2.596 -0.1786  0.5159 -0.5091
  395SOL    HW1 1578   0.982   2.937   2.653  0.6901  2.3457  0.5296
  395SOL    HW2 1579   1.024   2.829   2.557 -0.8699 -1.2809 -1.2428
  395SOL     MW 1580   0.957   2.874   2.598 -0.1552  0.5203 -0.4688
  396SOL     OW 1581   0.759   1.861   2.367  0.1648  0.1034  0.2847
  396SOL    HW1 1582   0.798   1.873   2.454  0.0817  0.1244 -0.2923
  396SOL    HW2 1583   0.731   1.765   2.372 -1.1819 -0.3802  0.8872
  396SOL     MW 1584   0.760   1.850   2.379 -0.0238  0.0424  0.2881
  397SOL     OW 1585   1.023   2.354   1.308 -0.5084  0.1041  0.1959
  397SOL    HW1 1586   1.051   2.395   1.220  2.4685  1.1235  0.6539
  397SOL    HW2 1587   1.093   2.365   1.375  1.1559 -0.6693  2.0861
  397SOL     MW 1588   1.036   2.361   1.305  0.1040  0.1365  0.5057
  398SOL     OW 1589   0.574   2.599   0.683  0.5149  0.1903  0.4926
  398SOL    HW1 1590   0.499   2.571   0.623 -0.2118 -3.8065 -2.4840
  398SOL    HW2 1591   0.647   2.556   0.645 -1.0863 -0.7525 -0.5296
  398SOL     MW 1592   0.574   2.590   0.670  0.2077 -0.4614 -0.0350
  399SOL     OW 1593   0.276   2.061   0.345  0.2730  0.4578  0.1870
  399SOL    HW1 1594   0.220   2.133   0.337  1.2858 -2.7175 -0.3464
  399SOL    HW2 1595   0.340   2.069   0.276 -0.6447 -1.3022  2.2859
  399SOL     MW 1596   0.277   2.072   0.335  0.2856 -0.1933  0.3936
  400SOL     OW 1597   0.626   1.844   0.193  0.0875  0.2922 -0.4395
  400SOL    HW1 1598   0.569   1.917   0.165 -1.1291 -0.4326  1.2738
  400SOL    HW2 1599   0.572   1.778   0.243  0.7085 -0.3276  0.8322
  400SOL     MW 1600   0.611   1.845   0.196  0.0089  0.1148 -0.0456
  401SOL     OW 1601   1.033   2.102   0.051 -0.0440 -0.1471 -0.2667
  401SOL    HW1 1602   1.023   2.010   0.058 -0.3320 -1.5776 -2.2033
  401SOL    HW2 1603   1.067   2.115   0.145 -0.8921 -1.2443  1.0642
  401SOL     MW 1604   1.036   2.092   0.064 -0.1939 -0.4806 -0.3466
  402SOL     OW 1605   0.694   2.805   1.718  0.1185  1.0786 -0.5077
  402SOL    HW1 1606   0.611   2.807   1.773  0.5821  1.9186  2.6743
  402SOL    HW2 1607   0.767   2.820   1.779 -0.3211 -0.1360 -1.8520
  402SOL     MW 1608   0.693   2.807   1.733  0.1217  1.0291 -0.2652
  403SOL     OW 1609   0.061   0.559   0.353 -0.6620 -0.0765  0.6373
  403SOL    HW1 1610   0.143   0.573   0.398  1.6184 -1.5343 -0.4086
  403SOL    HW2 1611   0.087   0.524   0.265  0.2310 -1.5277 -2.5526
  403SOL     MW 1612   0.075   0.556   0.348 -0.2433 -0.4603  0.0784
  404SOL     OW 1613   0.980   2.893   0.845 -0.2198 -0.2568 -0.3535
  404SOL    HW1 1614   1.026   2.813   0.811  1.2742  0.8690 -1.2289
  404SOL    HW2 1615   1.002   2.964   0.782  0.1106  0.0265  1.9266
  404SOL     MW 1616   0.989   2.892   0.832  0.0209 -0.0709 -0.1682
  405SOL     OW 1617   0.462   2.458   1.555  0.1520 -0.0804 -0.0160
  405SOL    HW1 1618   0.462   2.532   1.502  0.7924  0.8137  1.7411
  405SOL    HW2 1619   0.402   2.397   1.498  0.7889  2.7024 -1.5256
  405SOL     MW 1620   0.454   2.460   1.541  0.3205  0.4047  0.0167
  406SOL     OW 1621   0.418   2.411   1.156 -0.2672 -0.3834 -0.2742
  406SOL    HW1 1622   0.324   2.426   1.162  0.8143 -0.3494 -2.9322
  406SOL    HW2 1623   0.435   2.323   1.200  2.2684 -1.7674  2.3542
  406SOL     MW 1624   0.408   2.401   1.162  0.2101 -0.5615 -0.2781
  407SOL     OW 1625   0.005   2.679   1.171  0.4171 -0.1164 -0.0024
  407SOL    HW1 1626   0.046   2.675   1.257 -2.7625 -0.8417 -3.7782
  407SOL    HW2 1627   0.074   2.672   1.108 -2.8160  1.6547 -0.5994
  407SOL     MW 1628   0.020   2.678   1.174 -0.4290  0.0216 -0.5793
  408SOL     OW 1629   2.112   2.108   0.545  0.3110  0.8815 -0.0016
  408SOL    HW1 1630   2.120   2.194   0.592  0.1932  0.0493 -0.4428
  408SOL    HW2 1631   2.034   2.069   0.594 -2.4920 -0.7074  3.9730
  408SOL     MW 1632   2.102   2.114   0.558 -0.0743  0.5620  0.4646
  409SOL     OW 1633   1.379   0.154   0.883  0.2068 -0.5877 -0.2459
  409SOL    HW1 1634   1.413   0.244   0.880 -0.2348 -3.1174  0.2450
  409SOL    HW2 1635   1.447   0.094   0.919  0.0727 -1.3917  0.1443
  409SOL     MW 1636   1.393   0.158   0.887  0.1309 -1.0275 -0.1296
  410SOL     OW 1637   1.077   2.494   1.079  0.2652  0.2338 -0.1772
  410SOL    HW1 1638   1.018   2.478   1.005  2.3876 -2.1241  2.8531
  410SOL    HW2 1639   1.157   2.448   1.044 -2.5271 -4.4880  1.5250
  410SOL     MW 1640   1.080   2.486   1.065  0.1768 -0.7003  0.4472
  411SOL     OW 1641   1.954   0.103   2.866 -0.0556  0.3171 -1.0840
  411SOL    HW1 1642   1.912   0.070   2.785 -1.5913 -0.7787  0.2498
  411SOL    HW2 1643   1.881   0.126   2.926 -0.7284  1.5993 -1.3991
  411SOL     MW 1644   1.939   0.102   2.863 -0.3470  0.3417 -0.9496
  412SOL     OW 1645   1.059   2.211   0.558  0.6416  0.3710 -0.0274
  412SOL    HW1 1646   1.091   2.303   0.575  1.7328 -0.5053  0.0166
  412SOL    HW2 1647   0.964   2.224   0.542  0.6589 -2.9870 -0.4792
  412SOL     MW 1648   1.051   2.225   0.558  0.7879 -0.1877 -0.0812
  413SOL     OW 1649   0.548   2.786   0.162 -0.0686  0.0962  0.6864
  413SOL    HW1 1650   0.615   2.712   0.168  2.9760 -0.3654  0.0586
  413SOL    HW2 1651   0.560   2.813   0.067  1.2990 -0.2165  1.3291
  413SOL     MW 1652   0.559   2.780   0.150  0.5135 -0.0059  0.6883
  414SOL     OW 1653   2.003   3.024   1.034 -0.2794 -0.0045 -0.0928
  414SOL    HW1 1654   1.950   2.986   0.963  2.3389 -1.4324  3.2870
  414SOL    HW2 1655   2.082   2.974   1.026 -1.7910 -3.5363 -0.5947
  414SOL     MW 1656   2.006   3.013   1.024 -0.1334 -0.6589  0.2869
  415SOL     OW 1657   1.757   2.692   1.070  0.0952 -0.0483 -0.0699
  415SOL    HW1 1658   1.720   2.640   1.139 -1.1832  0.5962  0.1715
  415SOL    HW2 1659   1.834   2.732   1.112 -1.3519  0.1967  0.1555
  415SOL     MW 1660   1.762   2.691   1.085 -0.2644  0.0691 -0.0083
  416SOL     OW 1661   0.606   1.939   1.372  0.0966 -0.2006 -0.4582
  416SOL    HW1 1662   0.569   2.026   1.355 -0.5795  0.4912 -0.4208
  416SOL    HW2 1663   0.606   1.894   1.284  0.5518 -1.7655 -0.2932
  416SOL     MW 1664   0.601   1.944   1.358  0.0674 -0.3158 -0.4315
  417SOL     OW 1665   1.087   3.008   1.963 -0.4133  0.4203 -0.2311
  417SOL    HW1 1666   1.023   3.001   2.034 -0.5221  3.2389  1.6501
  417SOL    HW2 1667   1.050   2.937   1.909 -1.3990 -0.9133  0.9537
  417SOL     MW 1668   1.074   2.998   1.965 -0.5577  0.6162  0.1735
  418SOL     OW 1669   0.737   3.003   0.191  0.0060 -0.1668  0.1437
  418SOL    HW1 1670   0.800   2.959   0.133 -0.1756 -0.5837  1.0169
  418SOL    HW2 1671   0.656   2.949   0.204 -0.1933 -0.2695 -1.0407
  418SOL     MW 1672   0.734   2.990   0.185 -0.0442 -0.2354  0.1026
  419SOL     OW 1673   0.444   2.691   1.401 -0.3633  0.1858 -0.0801
  419SOL    HW1 1674   0.521   2.754   1.413 -0.0382  0.7193 -0.4299
  419SOL    HW2 1675   0.458   2.647   1.316  1.0868 -1.0943 -0.6717
  419SOL     MW 1676   0.456   2.694   1.391 -0.1290  0.0873 -0.2043
  420SOL     OW 1677   0.912   2.225   1.009  0.3420 -0.1916  0.2439
  420SOL    HW1 1678   0.856   2.230   1.086 -1.2324  1.1184  0.5865
  420SOL    HW2 1679   0.893   2.313   0.976 -2.1402 -1.0729  2.3907
  420SOL     MW 1680   0.902   2.237   1.015 -0.1933 -0.1350  0.5724
  421SOL     OW 1681   2.938   0.118   0.044 -0.4243 -0.0311 -0.0341
  421SOL    HW1 1682   2.895   0.084  -0.039  0.1597  1.9192  1.2299
  421SOL    HW2 1683   2.958   0.041   0.097  2.3132 -0.8739 -4.0320
  421SOL     MW 1684   2.935   0.103   0.040  0.0139  0.1150 -0.3948
  422SOL     OW 1685   0.875   2.465   0.883 -0.0214 -0.2126 -0.3975
  422SOL    HW1 1686   0.792   2.503   0.910 -0.6736 -0.0102 -0.6418
  422SOL    HW2 1687   0.884   2.476   0.783  0.2377  1.3890  1.6243
  422SOL     MW 1688   0.865   2.471   0.873 -0.0733  0.0255 -0.1630
  423SOL     OW 1689   1.609   0.127   0.503 -0.3276  0.4577 -0.1314
  423SOL    HW1 1690   1.594   0.100   0.413  0.3838  0.6953  0.1521
  423SOL    HW2 1691   1.597   0.221   0.495 -1.3645 -1.2745  2.5008
  423SOL     MW 1692   1.606   0.136   0.490 -0.3706  0.2605  0.2533
  424SOL     OW 1693   0.738   2.190   1.227  0.0927  0.3216  0.7255
  424SOL    HW1 1694   0.649   2.212   1.252 -1.8550  0.6673 -1.2588
  424SOL    HW2 1695   0.792   2.188   1.305  1.3585 -2.2183 -2.4985
  424SOL     MW 1696   0.733   2.193   1.241  0.0027  0.0321  0.0383
  425SOL     OW 1697   1.736   2.827   2.042 -0.2938  0.6756 -0.1592
  425SOL    HW1 1698   1.737   2.812   1.945 -0.7814  0.3698 -1.1915
  425SOL    HW2 1699   1.741   2.739   2.081  0.6758  2.3514 -0.5004
  425SOL     MW 1700   1.737   2.814   2.034 -0.2302  0.8563 -0.3404
  426SOL     OW 1701   0.741   1.587   1.913 -0.4340  0.6645 -0.1743
  426SOL    HW1 1702   0.721   1.582   1.824  0.3718 -2.3625 -0.4737
  426SOL    HW2 1703   0.717   1.681   1.927 -0.0338  1.4398 -1.7230
  426SOL     MW 1704   0.736   1.599   1.903 -0.2749  0.3674 -0.4182
  427SOL     OW 1705   0.381   1.546   1.847 -0.3024  0.1919  0.2306
  427SOL    HW1 1706   0.418   1.456   1.830 -1.6904  1.0492 -0.0014
  427SOL    HW2 1707   0.297   1.512   1.878 -0.5253 -0.9889 -0.2816
  427SOL     MW 1708   0.375   1.530   1.849 -0.5149  0.1492  0.1324
  428SOL     OW 1709   0.587   2.627   1.169  0.1833  0.2932 -0.0078
  428SOL    HW1 1710   0.671   2.599   1.217  3.4161  1.3807 -0.7478
  428SOL    HW2 1711   0.540   2.540   1.174  0.8962 -0.3468 -2.2654
  428SOL     MW 1712   0.592   2.612   1.176  0.7039  0.3522 -0.4033
  429SOL     OW 1713   1.331   2.708   1.044 -0.4469 -0.0632 -0.1131
  429SOL    HW1 1714   1.252   2.685   1.087 -0.1832  0.3988  1.7275
  429SOL    HW2 1715   1.317   2.786   0.991  1.1154 -0.5289  1.5943
  429SOL     MW 1716   1.319   2.715   1.042 -0.2060 -0.0637  0.3551
  430SOL     OW 1717   1.163   2.747   0.703  0.3963 -0.0458  0.1302
  430SOL    HW1 1718   1.213   2.667   0.701 -0.5153 -0.4424  0.4313
  430SOL    HW2 1719   1.116   2.758   0.619 -0.7631 -0.8252  0.6104
  430SOL     MW 1720   1.163   2.738   0.692  0.1231 -0.2009  0.2333
  431SOL     OW 1721   0.359   1.988   1.122 -0.1641 -0.8075  0.1958
  431SOL    HW1 1722   0.408   1.911   1.136 -1.5785  1.6505  2.4711
  431SOL    HW2 1723   0.335   1.991   1.026 -0.8691  0.1696 -1.3487
  431SOL     MW 1724   0.362   1.978   1.111 -0.4437 -0.3543  0.2922
  432SOL     OW 1725   0.112   0.023   1.142 -0.5901 -0.2931  0.0673
  432SOL    HW1 1726   0.124   0.075   1.217  0.1909 -1.9414 -0.7668
  432SOL    HW2 1727   0.052  -0.045   1.157  2.3248 -0.6258 -0.5760
  432SOL     MW 1728   0.106   0.021   1.154 -0.1025 -0.5545 -0.1276
  433SOL     OW 1729   0.649   2.874   1.459  0.5620  0.0561  0.3928
  433SOL    HW1 1730   0.665   2.847   1.548 -2.0326 -0.5823 -1.3579
  433SOL    HW2 1731   0.731   2.915   1.422 -1.2617  0.8453  1.1934
  433SOL     MW 1732   0.662   2.875   1.466 -0.0210  0.0760  0.2675
  434SOL     OW 1733   1.560   2.819   1.497 -0.4449 -0.4720 -0.0763
  434SOL    HW1 1734   1.476   2.865   1.496  2.2242 -0.3919 -1.2515
  434SOL    HW2 1735   1.579   2.814   1.406  0.0686  1.1671 -0.0186
  434SOL     MW 1736   1.552   2.824   1.485 -0.0250 -0.2452 -0.2238
  435SOL     OW 1737   2.846   1.805   0.234  0.3896  0.1493 -0.3230
  435SOL    HW1 1738   2.900   1.866   0.184  0.6002  0.1583 -0.9937
  435SOL    HW2 1739   2.807   1.751   0.168 -0.3866 -0.2335  3.0272
  435SOL     MW 1740   2.848   1.806   0.219  0.3150  0.1000  0.0305
  436SOL     OW 1741   1.448   2.788   0.312  0.1478 -0.1486  0.0831
  436SOL    HW1 1742   1.501   2.752   0.388 -1.0689 -0.6922  0.5883
  436SOL    HW2 1743   1.405   2.867   0.347  0.5173  0.5091 -2.0520
  436SOL     MW 1744   1.450   2.794   0.326  0.0360 -0.1335 -0.1320
  437SOL     OW 1745   0.847   2.953   1.262  0.3352 -0.0939  0.4866
  437SOL    HW1 1746   0.879   3.043   1.279  4.1432  1.5355 -0.5113
  437SOL    HW2 1747   0.800   2.961   1.177  1.8335 -0.6151 -0.2330
  437SOL     MW 1748   0.845   2.966   1.253  1.0353  0.0523  0.2600
  438SOL     OW 1749   0.838   2.521   2.029 -0.0043  0.2334 -0.2812
  438SOL    HW1 1750   0.827   2.494   2.123  1.4997 -0.1474 -3.6144
  438SOL    HW2 1751   0.758   2.484   1.989  2.0065  0.2968 -0.9852
  438SOL     MW 1752   0.826   2.512   2.036  0.4594  0.1915 -0.8138
  439SOL     OW 1753   1.147   2.164   0.291  0.0694  0.3655 -0.0448
  439SOL    HW1 1754   1.087   2.157   0.371  0.8815 -1.5707 -0.1466
  439SOL    HW2 1755   1.136   2.259   0.263 -1.3276  0.3560  1.0402
  439SOL     MW 1756   1.138   2.176   0.298 -0.0077  0.1087  0.0849
  440SOL     OW 1757   1.625   3.047   2.981  0.4955 -0.2948  0.1109
  440SOL    HW1 1758   1.605   3.011   3.065 -1.5710 -2.3901 -2.4526
  440SOL    HW2 1759   1.659   2.965   2.942 -0.6696 -0.7302 -0.0938
  440SOL     MW 1760   1.627   3.032   2.987  0.0691 -0.6287 -0.2543
  441SOL     OW 1761   0.324   2.577   0.536  0.2086 -0.7659 -0.3609
  441SOL    HW1 1762   0.301   2.550   0.448 -2.3803  0.7031  2.6630
  441SOL    HW2 1763   0.360   2.667   0.533  1.7010 -0.8464  0.4279
  441SOL     MW 1764   0.326   2.585   0.524  0.0639 -0.5827  0.1421
  442SOL     OW 1765   0.012   2.334   0.638  0.4084  0.0155 -0.6445
  442SOL    HW1 1766  -0.006   2.429   0.644  2.1731 -2.1058  0.5127
  442SOL    HW2 1767  -0.068   2.279   0.642  0.2037  1.1938  0.4415
  442SOL     MW 1768  -0.001   2.339   0.639  0.6142 -0.1089 -0.3485
  443SOL     OW 1769   1.413   1.735   1.845  0.1595 -0.2741 -0.5701
  443SOL    HW1 1770   1.378   1.767   1.764 -0.8610  2.1175  4.2409
  443SOL    HW2 1771   1.382   1.647   1.851  0.0315 -3.0049  2.7246
  443SOL     MW 1772   1.405   1.727   1.835  0.0080 -0.3189  0.4993
  444SOL     OW 1773   0.857   2.573   1.591 -0.6323 -0.1574 -0.3353
  444SOL    HW1 1774   0.957   2.560   1.617  2.9396 -0.1137  0.6749
  444SOL    HW2 1775   0.803   2.610   1.660  1.7684 -0.9269  0.1162
  444SOL     MW 1776   0.863   2.576   1.604  0.1557 -0.2531 -0.1424
  445SOL     OW 1777   0.957   0.110   1.316 -0.4297  0.3940  0.2105
  445SOL    HW1 1778   0.903   0.172   1.271  0.2079 -2.1896  0.4558
  445SOL    HW2 1779   1.043   0.136   1.284 -1.9342 -1.1105  0.2938
  445SOL     MW 1780   0.961   0.122   1.306 -0.5441 -0.1454  0.2539
  446SOL     OW 1781   2.735   2.904   1.043  0.5201  0.2990 -0.4231
  446SOL    HW1 1782   2.674   2.920   0.972 -1.2659 -1.1241  0.3137
  446SOL    HW2 1783   2.758   2.808   1.038 -0.7384  1.8565  0.0067
  446SOL     MW 1784   2.730   2.893   1.033  0.1184  0.3168 -0.2692
  447SOL     OW 1785   3.019   2.047   1.692  0.5187  0.5375  0.5200
  447SOL    HW1 1786   3.094   2.004   1.735  0.0226 -2.1788 -2.1969
  447SOL    HW2 1787   2.987   1.980   1.634 -2.1810 -0.6694 -0.9359
  447SOL     MW 1788   3.024   2.033   1.690  0.0971  0.0199 -0.0305
  448SOL     OW 1789   1.660   2.365   1.662 -0.4402  0.2024 -0.4906
  448SOL    HW1 1790   1.621   2.279   1.690  0.8266 -0.0326  2.3493
  448SOL    HW2 1791   1.589   2.430   1.653  2.0823 -2.1274 -1.3342
  448SOL     MW 1792   1.646   2.363   1.665  0.0597 -0.1360 -0.2272
  449SOL     OW 1793   0.824   2.865   0.410 -0.0243  0.1376 -0.1074
  449SOL    HW1 1794   0.797   2.925   0.343 -0.8909 -1.9017 -0.8767
  449SOL    HW2 1795   0.752   2.864   0.473 -1.1079  1.2093  1.0209
  449SOL     MW 1796   0.811   2.873   0.410 -0.2816  0.0100 -0.0600
  450SOL     OW 1797   1.220   2.432   0.646  0.3086 -0.0475 -0.7304
  450SOL    HW1 1798   1.220   2.411   0.741 -1.4125 -0.7336  2.6174
  450SOL    HW2 1799   1.304   2.410   0.608 -1.0164 -1.1157 -0.7408
  450SOL     MW 1800   1.231   2.427   0.654 -0.0933 -0.2790 -0.2901
  451SOL     OW 1801   0.616   1.959   1.664 -0.3005 -0.0336  0.2758
  451SOL    HW1 1802   0.711   1.982   1.688  2.0322  0.4791  0.3466
  451SOL    HW2 1803   0.606   1.962   1.568  0.4214  0.3128  0.0685
  451SOL     MW 1804   0.627   1.963   1.654  0.1025  0.0797  0.2578
  452SOL     OW 1805   0.260   2.686   0.068 -0.1874  0.0307  0.5703
  452SOL    HW1 1806   0.347   2.715   0.093  1.6961  0.0783 -0.0311
  452SOL    HW2 1807   0.252   2.703  -0.028  0.4573  0.1505  0.4239
  452SOL     MW 1808   0.271   2.692   0.059  0.1462  0.0528  0.4716
  453SOL     OW 1809   0.411   2.999   1.629 -0.2030 -0.2086  0.0579
  453SOL    HW1 1810   0.470   3.055   1.574  2.8584  0.2888 -2.0036
  453SOL    HW2 1811   0.357   2.961   1.560 -2.4503 -2.5016  0.4397
  453SOL     MW 1812   0.412   3.001   1.613 -0.0956 -0.4455 -0.1637
  454SOL     OW 1813   1.059   2.750   1.175 -0.5090  0.2351 -0.3992
  454SOL    HW1 1814   1.024   2.656   1.167 -0.9444  0.3395  0.3421
  454SOL    HW2 1815   0.985   2.808   1.186  0.3952  2.6243 -0.1665
  454SOL     MW 1816   1.044   2.745   1.175 -0.4472  0.5641 -0.2707
  455SOL     OW 1817   1.612   2.952   0.145 -0.3976  0.3868  0.6222
  455SOL    HW1 1818   1.696   2.950   0.182 -0.2207  0.4664 -1.0877
  455SOL    HW2 1819   1.565   2.877   0.190 -3.4131 -0.9161 -1.6941
  455SOL     MW 1820   1.617   2.942   0.156 -0.7721  0.2254  0.0910
  456SOL     OW 1821   2.902   0.313   1.388  0.4170  0.2095  0.2035
  456SOL    HW1 1822   2.836   0.254   1.341 -1.4367 -3.1410 -1.8244
  456SOL    HW2 1823   2.934   0.377   1.323  1.0393  2.4064  1.4085
  456SOL     MW 1824   2.898   0.314   1.373  0.2545  0.0573  0.0949
  457SOL     OW 1825   0.928   1.555   2.990 -0.4983  0.1002  0.2637
  457SOL    HW1 1826   0.859   1.542   3.054  1.2261 -0.6654 -1.5015
  457SOL    HW2 1827   0.993   1.494   3.026 -3.4684  0.2889 -0.6477
  457SOL     MW 1828   0.927   1.545   3.003 -0.6627  0.0241 -0.0895
  458SOL     OW 1829   1.461   1.393   0.601  0.0145  0.4576  0.0590
  458SOL    HW1 1830   1.384   1.408   0.655 -0.6313 -2.7770 -3.6469
  458SOL    HW2 1831   1.436   1.328   0.534 -0.5560 -2.1173  0.0826
  458SOL     MW 1832   1.448   1.386   0.599 -0.1460 -0.3089 -0.4268
  459SOL     OW 1833   1.577   0.100   0.233 -0.0449 -0.3827 -0.3471
  459SOL    HW1 1834   1.564   0.009   0.195  0.7007 -1.0578 -1.8743
  459SOL    HW2 1835   1.527   0.162   0.186  2.0217 -0.5606  0.6448
  459SOL     MW 1836   1.569   0.096   0.222  0.3261 -0.4953 -0.4177
  460SOL     OW 1837   1.742   2.137   0.604 -0.1184  0.8117  0.3011
  460SOL    HW1 1838   1.662   2.120   0.657  4.2070 -1.1881 -0.9983
  460SOL    HW2 1839   1.797   2.053   0.579 -1.2027  1.0199 -0.1482
  460SOL     MW 1840   1.739   2.124   0.608  0.3092  0.5753  0.0704
  461SOL     OW 1841   0.398   2.322   0.626  0.5652  0.2924 -0.1701
  461SOL    HW1 1842   0.319   2.379   0.605  0.5476  2.8011 -2.8438
  461SOL    HW2 1843   0.433   2.354   0.707 -0.6151 -0.1162 -1.0449
  461SOL     MW 1844   0.392   2.334   0.634  0.4071  0.5695 -0.6383
  462SOL     OW 1845   0.404   0.266   1.321 -0.0037  0.2151 -0.6761
  462SOL    HW1 1846   0.423   0.213   1.241  2.6180  0.6924 -2.9450
  462SOL    HW2 1847   0.488   0.321   1.334  1.3742  2.3925 -0.5162
  462SOL     MW 1848   0.417   0.267   1.312  0.5240  0.5653 -0.9543
  463SOL     OW 1849   0.976   0.024   0.696  0.6337  0.6046  0.0770
  463SOL    HW1 1850   1.020   0.002   0.611  0.6986  0.2580  2.6783
  463SOL    HW2 1851   0.885   0.035   0.678  1.5471  0.2029  1.4118
  463SOL     MW 1852   0.970   0.022   0.682  0.7628  0.5059  0.5963
  464SOL     OW 1853   0.848   2.984   2.152 -0.0590 -0.1300 -0.0653
  464SOL    HW1 1854   0.805   2.899   2.171  2.0458 -1.4257  0.6916
  464SOL    HW2 1855   0.859   2.997   2.245 -0.1889 -0.8947 -2.0786
  464SOL     MW 1856   0.844   2.974   2.167  0.2016 -0.4019 -0.2311
  465SOL     OW 1857   0.676   0.248   0.453  0.4421 -0.6978  0.1490
  465SOL    HW1 1858   0.691   0.175   0.512 -0.3171  0.1127 -0.9759
  465SOL    HW2 1859   0.695   0.223   0.358  0.6215 -0.9377 -0.2031
  465SOL     MW 1860   0.681   0.235   0.448  0.3656 -0.6225 -0.0459
  466SOL     OW 1861   1.090   1.988   0.733 -0.1928 -0.3572 -0.2947
  466SOL    HW1 1862   1.087   1.908   0.681 -0.8402  1.1482  0.6898
  466SOL    HW2 1863   1.096   2.059   0.662  1.4780  0.1777 -0.9869
  466SOL     MW 1864   1.091   1.987   0.717 -0.0577 -0.0880 -0.2561
  467SOL     OW 1865   1.271   2.361   0.936  0.3606 -0.6322  0.6007
  467SOL    HW1 1866   1.358   2.366   0.968  1.6774 -1.1519  1.6809
  467SOL    HW2 1867   1.227   2.283   0.983  1.0493 -0.5024  2.2925
  467SOL     MW 1868   1.276   2.352   0.946  0.6252 -0.6836  0.9665
  468SOL     OW 1869   0.320   2.589   2.008 -0.2721 -0.1169  0.0255
  468SOL    HW1 1870   0.320   2.504   1.965  0.4129 -0.1571  0.1286
  468SOL    HW2 1871   0.398   2.635   1.971  2.7307 -0.4892  0.5265
  468SOL     MW 1872   0.330   2.584   1.997  0.2145 -0.1713  0.1052
  469SOL     OW 1873   0.400   2.060   1.806 -0.2281  0.3237  0.7550
  469SOL    HW1 1874   0.330   2.033   1.743  1.4863 -2.2303  1.4480
  469SOL    HW2 1875   0.481   2.023   1.760  2.1188  2.2928 -0.6064
  469SOL     MW 1876   0.402   2.052   1.791  0.3078  0.2465  0.6668
  470SOL     OW 1877   0.011   2.551   0.190  0.3613 -0.2170 -0.0670
  470SOL    HW1 1878  -0.075   2.520   0.222 -0.3478 -0.0872  0.5952
  470SOL    HW2 1879  -0.014   2.585   0.105 -0.3498  0.8246 -0.7459
  470SOL     MW 1880  -0.003   2.551   0.183  0.1739 -0.0624 -0.0692
  471SOL     OW 1881   1.217   2.745   1.405 -0.6080 -0.8966 -0.2888
  471SOL    HW1 1882   1.133   2.759   1.449 -1.6818 -0.9835 -1.4498
  471SOL    HW2 1883   1.187   2.749   1.319 -2.1160  2.0262  1.7414
  471SOL     MW 1884   1.202   2.748   1.400 -0.9487 -0.5224 -0.1741
  472SOL     OW 1885   2.946   2.126   0.382 -0.5754  0.3439 -0.0093
  472SOL    HW1 1886   2.938   2.062   0.300 -0.8767 -1.7720  1.1349
  472SOL    HW2 1887   2.946   2.070   0.459  0.3803  0.1909 -0.9400
  472SOL     MW 1888   2.945   2.110   0.381 -0.4891  0.0445  0.0189
  473SOL     OW 1889   0.789   2.515   1.310 -0.1397  0.0819 -0.0797
  473SOL    HW1 1890   0.833   2.430   1.294  0.0074 -1.8522 -0.0164
  473SOL    HW2 1891   0.790   2.531   1.407  2.2733  0.8150 -0.7892
  473SOL     MW 1892   0.795   2.506   1.321  0.1981 -0.0765 -0.1649
  474SOL     OW 1893   0.841   2.178   1.746  0.0837  0.5691  1.1298
  474SOL    HW1 1894   0.903   2.234   1.783  0.5936 -1.5014  0.5963
  474SOL    HW2 1895   0.857   2.193   1.657  3.6463 -0.4438  1.2214
  474SOL     MW 1896   0.851   2.187   1.739  0.6210  0.1622  1.0715
  475SOL     OW 1897   1.692   3.089   1.433 -0.5859 -0.1678  0.3107
  475SOL    HW1 1898   1.613   3.122   1.392 -0.5184  2.5960 -0.3001
  475SOL    HW2 1899   1.670   3.009   1.479  3.8290 -0.5453  0.6723
  475SOL     MW 1900   1.679   3.083   1.433  0.0055  0.1471  0.2778
  476SOL     OW 1901   1.468   2.620   0.797  0.0972  0.1103 -0.0837
  476SOL    HW1 1902   1.414   2.637   0.873  0.8855 -0.2101  3.0719
  476SOL    HW2 1903   1.515   2.702   0.782  1.6492 -3.0540 -3.1328
  476SOL     MW 1904   1.467   2.633   0.805  0.4060 -0.3495 -0.0697
  477SOL     OW 1905   0.857   2.529   0.580  0.0828  0.3699 -0.2191
  477SOL    HW1 1906   0.950   2.559   0.541  1.6887 -0.5456  1.3705
  477SOL    HW2 1907   0.843   2.440   0.542  1.9665 -2.6343 -1.3948
  477SOL     MW 1908   0.867   2.521   0.570  0.5433 -0.1473 -0.1645
  478SOL     OW 1909   0.223   2.620   1.003  0.2531 -0.7192  0.0755
  478SOL    HW1 1910   0.238   2.710   0.966  1.7159 -0.1174 -0.4183
  478SOL    HW2 1911   0.290   2.580   0.948  0.1934 -0.6124 -1.7366
  478SOL     MW 1912   0.234   2.627   0.991  0.4382 -0.6257 -0.2287
  479SOL     OW 1913   1.443   1.916   1.328 -0.2275  0.2943  0.0662
  479SOL    HW1 1914   1.394   1.962   1.400  0.5427 -0.6029 -2.2430
  479SOL    HW2 1915   1.516   1.870   1.369 -1.3021  0.3130  1.0185
  479SOL     MW 1916   1.446   1.916   1.343 -0.2676  0.1784 -0.1128
  480SOL     OW 1917   1.800   2.373   1.316 -0.3103 -0.5878 -0.3415
  480SOL    HW1 1918   1.783   2.289   1.347 -1.6498  0.9729 -1.6758
  480SOL    HW2 1919   1.843   2.362   1.227 -0.9444  3.2199 -1.7189
  480SOL     MW 1920   1.803   2.360   1.308 -0.5707  0.1205 -0.6993
  481SOL     OW 1921   1.177   0.148   1.072 -0.3037 -0.0451  0.6685
  481SOL    HW1 1922   1.247   0.135   1.003  1.5634  0.9698  1.9867
  481SOL    HW2 1923   1.189   0.242   1.091  0.5209  0.5460 -1.8521
  481SOL     MW 1924   1.188   0.158   1.065  0.0514  0.1668  0.5099
  482SOL     OW 1925   1.057   3.057   0.445 -0.0538  0.6967 -0.1115
  482SOL    HW1 1926   0.971   3.013   0.428  0.9745 -2.3281 -0.6359
  482SOL    HW2 1927   1.042   3.149   0.421 -0.3241  0.1840 -1.7239
  482SOL     MW 1928   1.043   3.063   0.439  0.0462  0.2300 -0.3934
  483SOL     OW 1929   0.337   2.861   0.530 -0.5661 -0.3132  0.7127
  483SOL    HW1 1930   0.341   2.905   0.449  0.1768  0.5121  1.8322
  483SOL    HW2 1931   0.311   2.934   0.593  2.2391  1.0347  1.0956
  483SOL     MW 1932   0.334   2.877   0.527 -0.0980 -0.0265  0.9110
  484SOL     OW 1933   1.672   1.848   1.466 -0.3774  0.2058  0.4276
  484SOL    HW1 1934   1.716   1.915   1.409 -0.1228 -0.4147 -1.1609
  484SOL    HW2 1935   1.688   1.884   1.554  1.4426  0.0348 -0.6437
  484SOL     MW 1936   1.680   1.862   1.470 -0.1037  0.1014  0.0767
  485SOL     OW 1937   0.540   2.313   0.300  0.3347  0.1586 -0.3730
  485SOL    HW1 1938   0.615   2.339   0.353  0.1856 -3.3750  1.1708
  485SOL    HW2 1939   0.458   2.340   0.337  2.2625 -2.5304 -2.3206
  485SOL     MW 1940   0.539   2.320   0.312  0.5694 -0.6624 -0.4263
  486SOL     OW 1941   0.096   2.537   1.486  0.0842  0.1372 -0.1632
  486SOL    HW1 1942   0.108   2.628   1.467 -2.4112 -0.8688 -0.9501
  486SOL    HW2 1943   0.112   2.540   1.581  1.5817 -0.2160  1.1504
  486SOL     MW 1944   0.100   2.550   1.496 -0.0475 -0.0422 -0.0937
  487SOL     OW 1945   1.323   1.578   1.086 -0.4619  0.2059 -0.9827
  487SOL    HW1 1946   1.280   1.659   1.055 -0.3050  2.1589 -2.9620
  487SOL    HW2 1947   1.413   1.572   1.056 -2.1034  2.5438 -1.1561
  487SOL     MW 1948   1.329   1.588   1.078 -0.6578  0.7721 -1.2668
  488SOL     OW 1949   1.454   1.811   0.602  0.2907 -0.2559  0.3074
  488SOL    HW1 1950   1.463   1.889   0.545  1.2645  0.8551 -0.0556
  488SOL    HW2 1951   1.391   1.753   0.555  2.5680 -1.2483  1.2687
  488SOL     MW 1952   1.447   1.814   0.588  0.7196 -0.2403  0.3863
  489SOL     OW 1953   0.683   0.696   0.514  0.0982  0.6956  0.1701
  489SOL    HW1 1954   0.647   0.613   0.472  2.1654 -0.2296 -0.2153
  489SOL    HW2 1955   0.646   0.701   0.603  0.5084  1.8014  1.2597
  489SOL     MW 1956   0.673   0.685   0.520  0.4251  0.7194  0.2630
  490SOL     OW 1957   1.347   2.060   0.469  0.4647 -0.0284 -0.1297
  490SOL    HW1 1958   1.421   2.110   0.427  0.8498  0.5938 -0.6425
  490SOL    HW2 1959   1.270   2.107   0.437  0.6922  0.3440 -1.3496
  490SOL     MW 1960   1.347   2.073   0.459  0.5455  0.1028 -0.3583
  491SOL     OW 1961   1.320   3.006   0.394 -0.7280  0.1739 -0.3627
  491SOL    HW1 1962   1.344   3.043   0.478  1.1086 -0.4981  0.4752
  491SOL    HW2 1963   1.228   3.015   0.392 -1.7806 -2.7782  0.2523
  491SOL     MW 1964   1.311   3.012   0.405 -0.6245 -0.3043 -0.1710
  492SOL     OW 1965   1.471   2.147   0.724 -0.1965  0.3178 -0.2014
  492SOL    HW1 1966   1.429   2.115   0.646  0.2705 -0.2016  0.3876
  492SOL    HW2 1967   1.413   2.132   0.794 -0.9098  1.4605 -0.1114
  492SOL     MW 1968   1.458   2.141   0.723 -0.2290  0.4000 -0.1118
  493SOL     OW 1969   0.200   3.056   0.325 -0.0939 -0.1987 -0.1237
  493SOL    HW1 1970   0.131   3.073   0.394 -0.1772 -1.2769  3.1862
  493SOL    HW2 1971   0.158   3.018   0.247 -1.7816 -1.8254  1.2659
  493SOL     MW 1972   0.186   3.053   0.324 -0.3276 -0.5556  0.4964
  494SOL     OW 1973   0.383   2.371   1.799 -0.0015  0.2910 -0.4576
  494SOL    HW1 1974   0.387   2.269   1.793  0.0243 -0.6642 -0.7588
  494SOL    HW2 1975   0.425   2.400   1.713  1.0847  1.7587  1.3946
  494SOL     MW 1976   0.389   2.361   1.787  0.1452  0.3586 -0.2529
  495SOL     OW 1977   2.855   1.608   2.683  0.5233  0.4314 -0.0200
  495SOL    HW1 1978   2.829   1.674   2.746  0.9646  0.4826  0.2399
  495SOL    HW2 1979   2.821   1.525   2.723  0.2906  1.2974  0.6303
  495SOL     MW 1980   2.847   1.605   2.697  0.5508  0.5524  0.1001
  496SOL     OW 1981   2.818   2.281   2.702 -0.4481 -0.1539  0.3692
  496SOL    HW1 1982   2.830   2.189   2.731 -0.8346  1.7280 -0.7561
  496SOL    HW2 1983   2.899   2.323   2.735 -2.0111 -1.7694 -1.2054
  496SOL     MW 1984   2.830   2.274   2.710 -0.7053 -0.1188  0.0129
  497SOL     OW 1985   1.513   2.405   2.591  0.1507 -0.6725 -0.0882
  497SOL    HW1 1986   1.532   2.356   2.510  0.0957 -3.2233 -0.5780
  497SOL    HW2 1987   1.477   2.336   2.650  1.6630 -3.0996 -0.5777
  497SOL     MW 1988   1.511   2.390   2.588  0.3430 -1.3293 -0.2174
  498SOL     OW 1989   1.435   2.757   2.317 -0.0290  0.1475 -0.0885
  498SOL    HW1 1990   1.418   2.664   2.292 -3.0101  0.1180 -0.2802
  498SOL    HW2 1991   1.516   2.747   2.373  1.6057 -0.1583 -0.2522
  498SOL     MW 1992   1.443   2.743   2.321 -0.2067  0.1033 -0.1354
  499SOL     OW 1993   0.997   0.076   0.077 -0.0486  0.1259 -0.1474
  499SOL    HW1 1994   0.947   0.127   0.144  0.7947  3.0890  1.0028
  499SOL    HW2 1995   0.972  -0.020   0.070  0.0488 -0.8675 -1.7774
  499SOL     MW 1996   0.987   0.070   0.085  0.0755  0.3858 -0.2107
  500SOL     OW 1997   1.071   2.510   2.734  0.1448 -0.3235  0.3128
  500SOL    HW1 1998   1.098   2.471   2.815  0.9329  2.5314  1.7232
  500SOL    HW2 1999   1.024   2.585   2.764  1.7722 -0.3318 -0.1458
  500SOL     MW 2000   1.068   2.515   2.748  0.4635  0.0521  0.4383
  501SOL     OW 2001   1.827   2.281   2.990 -0.4151 -0.4490  0.6878
  501SOL    HW1 2002   1.844   2.368   3.028  0.3443 -1.3729  2.6769
  501SOL    HW2 2003   1.912   2.234   2.996 -0.4664 -0.3483  1.9344
  501SOL     MW 2004   1.840   2.286   2.996 -0.3217 -0.5576  1.1147
  502SOL     OW 2005   0.293   2.740   2.872 -0.6138 -0.2281  0.7044
  502SOL    HW1 2006   0.368   2.750   2.812 -0.2580 -1.3949  1.1081
  502SOL    HW2 2007   0.265   2.822   2.898  1.3382 -2.3125  1.1588
  502SOL     MW 2008   0.299   2.752   2.868 -0.3093 -0.6570  0.8176
  503SOL     OW 2009   1.139   2.524   2.060 -0.2423  0.5190  0.5198
  503SOL    HW1 2010   1.181   2.562   1.981 -3.6471  0.5350 -0.9873
  503SOL    HW2 2011   1.048   2.520   2.028  4.6900 -0.8535 -3.5805
  503SOL     MW 2012   1.132   2.529   2.046 -0.0408  0.3400 -0.2201
  504SOL     OW 2013   0.083   2.669   2.184  0.7489 -0.1803 -0.6546
  504SOL    HW1 2014   0.122   2.613   2.120  0.7852 -0.0233 -1.0808
  504SOL    HW2 2015   0.035   2.613   2.244 -0.0586 -2.6117  1.6783
  504SOL     MW 2016   0.082   2.654   2.183  0.6471 -0.4804 -0.4030
  505SOL     OW 2017   1.570   2.818   2.740  0.1684 -0.5641 -0.3488
  505SOL    HW1 2018   1.624   2.854   2.661  1.3610  2.5222  0.1836
  505SOL    HW2 2019   1.507   2.889   2.765 -0.9021  0.4529  0.1530
  505SOL     MW 2020   1.569   2.832   2.733  0.1845 -0.0227 -0.2124
  506SOL     OW 2021   1.607   0.093   2.750 -0.0451 -0.7046  0.0872
  506SOL    HW1 2022   1.593   0.033   2.823  2.3287  1.1713 -3.3367
  506SOL    HW2 2023   1.690   0.067   2.723 -0.0787  4.5452  0.9327
  506SOL     MW 2024   1.616   0.082   2.756  0.2637  0.2355 -0.2530
  507SOL     OW 2025   0.864   2.699   2.836  0.3495  0.2927  0.1244
  507SOL    HW1 2026   0.867   2.787   2.797  1.2027  0.8880  1.2474
  507SOL    HW2 2027   0.781   2.656   2.819 -0.9005 -0.5754 -0.9603
  507SOL     MW 2028   0.853   2.705   2.828  0.2971  0.2567  0.1295
  508SOL     OW 2029   1.205   2.120   2.528 -0.5547  0.1012  0.2947
  508SOL    HW1 2030   1.255   2.171   2.599 -0.5928  0.9929  0.1351
  508SOL    HW2 2031   1.121   2.096   2.560 -0.6740 -0.9047  0.0563
  508SOL     MW 2032   1.201   2.123   2.542 -0.5755  0.0861  0.2422
  509SOL     OW 2033   0.606   2.534   2.841  0.3107  0.2227 -0.2762
  509SOL    HW1 2034   0.604   2.479   2.756  2.0289  2.1190 -2.2970
  509SOL    HW2 2035   0.542   2.607   2.830  0.8515 -1.6666  0.0044
  509SOL     MW 2036   0.597   2.536   2.828  0.6087  0.2236 -0.5058
  510SOL     OW 2037   1.491   2.585   1.635 -0.1128 -0.1280  0.0851
  510SOL    HW1 2038   1.518   2.673   1.607  0.1261 -0.1352 -0.2795
  510SOL    HW2 2039   1.458   2.589   1.729 -1.4635  0.9046  0.0569
  510SOL     MW 2040   1.490   2.597   1.644 -0.2595  0.0073  0.0332
  511SOL     OW 2041   0.344   2.515   2.469 -0.0499 -0.0107 -0.5595
  511SOL    HW1 2042   0.419   2.475   2.516  0.4960 -0.2400  1.1327
  511SOL    HW2 2043   0.381   2.516   2.380  0.5029 -1.0035  1.1687
  511SOL     MW 2044   0.358   2.510   2.464  0.0951 -0.1720 -0.1082
  512SOL     OW 2045   1.008   1.957   2.817  0.6628 -0.4024 -0.5378
  512SOL    HW1 2046   0.918   1.970   2.843 -0.2706  0.1118 -1.1334
  512SOL    HW2 2047   1.035   1.886   2.882 -0.7822  2.3645 -1.1598
  512SOL     MW 2048   1.000   1.949   2.829  0.3490  0.0305 -0.6985
  513SOL     OW 2049   1.509   2.495   2.285  0.0519  0.0823  0.1051
  513SOL    HW1 2050   1.602   2.527   2.279 -0.2225 -0.6802  1.4309
  513SOL    HW2 2051   1.509   2.395   2.281  1.8350  0.2853  1.5448
  513SOL     MW 2052   1.521   2.486   2.283  0.2510  0.0084  0.4700
  514SOL     OW 2053   0.216   2.350   2.681 -0.9330 -0.4063 -0.3316
  514SOL    HW1 2054   0.272   2.416   2.645 -0.2380 -1.2330 -0.4314
  514SOL    HW2 2055   0.271   2.307   2.742 -1.0699 -0.6635  0.6261
  514SOL     MW 2056   0.230   2.353   2.684 -0.8594 -0.5493 -0.2184
  515SOL     OW 2057   1.082   1.985   1.857 -0.0594 -0.7475 -0.3453
  515SOL    HW1 2058   1.067   2.077   1.838 -2.9376  3.8809  1.9913
  515SOL    HW2 2059   1.165   1.983   1.911  1.0997  1.6616  0.1551
  515SOL     MW 2060   1.091   1.997   1.861 -0.2862  0.1811  0.0290
  516SOL     OW 2061   1.299   2.596   2.914 -0.2014 -0.8210 -0.3855
  516SOL    HW1 2062   1.328   2.593   2.820 -1.4332 -1.2873 -0.5740
  516SOL    HW2 2063   1.249   2.511   2.931 -0.5771  0.7993  0.7618
  516SOL     MW 2064   1.296   2.584   2.904 -0.4135 -0.6687 -0.2590
  517SOL     OW 2065   0.519   2.280   2.251  0.1125  0.6841 -0.6601
  517SOL    HW1 2066   0.506   2.369   2.222 -0.7025  2.0626 -0.3406
  517SOL    HW2 2067   0.498   2.226   2.177  0.7702  0.1498  2.2879
  517SOL     MW 2068   0.515   2.285   2.237  0.0917  0.7955 -0.2290
  518SOL     OW 2069   1.772   0.175   3.047  0.4358 -0.0076  0.4886
  518SOL    HW1 2070   1.839   0.186   3.118  2.4129  0.8678  0.2150
  518SOL    HW2 2071   1.715   0.098   3.062  1.1340 -0.0100 -4.4490
  518SOL     MW 2072   1.773   0.166   3.058  0.7888  0.1076 -0.1990
  519SOL     OW 2073   0.619   2.364   1.981  0.3379  0.6507  0.0450
  519SOL    HW1 2074   0.649   2.270   1.983 -1.3678 -0.9740 -1.3526
  519SOL    HW2 2075   0.534   2.364   1.940  0.2699  2.7195 -0.1251
  519SOL     MW 2076   0.612   2.351   1.976  0.1039  0.7093 -0.1619
  520SOL     OW 2077   1.194   2.137   2.903  0.2631 -0.5474  0.5975
  520SOL    HW1 2078   1.123   2.075   2.889  2.5242 -1.0763 -1.9121
  520SOL    HW2 2079   1.235   2.105   2.986  0.7391 -0.7818  2.0972
  520SOL     MW 2080   1.190   2.124   2.912  0.6243 -0.6481  0.4642
  521SOL     OW 2081   1.750   2.029   2.224  0.2109 -0.3076  0.7723
  521SOL    HW1 2082   1.785   2.017   2.133 -0.5821 -1.7044 -0.1139
  521SOL    HW2 2083   1.740   1.945   2.259 -1.7662  1.9167 -1.1983
  521SOL     MW 2084   1.753   2.016   2.216 -0.1546 -0.1985  0.3954
  522SOL     OW 2085   2.812   2.570   2.209 -0.1167 -0.0752  0.6274
  522SOL    HW1 2086   2.884   2.528   2.259 -1.0263 -1.0376  0.3667
  522SOL    HW2 2087   2.829   2.666   2.180 -0.7136 -0.1317  0.2522
  522SOL     MW 2088   2.824   2.577   2.212 -0.3154 -0.2096  0.5435
  523SOL     OW 2089   0.800   1.470   2.157 -0.0621  0.3683  0.1037
  523SOL    HW1 2090   0.766   1.528   2.085  0.9834  0.5033 -0.5413
  523SOL    HW2 2091   0.864   1.408   2.112  2.3851  1.1262  0.3065
  523SOL     MW 2092   0.804   1.469   2.142  0.3987  0.4861  0.0454
  524SOL     OW 2093   0.559   2.373   3.053  0.1487 -0.3298 -0.5705
  524SOL    HW1 2094   0.581   2.426   2.967  0.6879  1.1217 -3.1351
  524SOL    HW2 2095   0.647   2.333   3.070 -2.0275  0.2323 -0.2181
  524SOL     MW 2096   0.573   2.375   3.044 -0.0673 -0.0641 -0.8624
  525SOL     OW 2097   0.314   2.160   2.097  0.3086 -0.3344 -0.2174
  525SOL    HW1 2098   0.280   2.085   2.153  1.7119 -0.1378 -0.9645
  525SOL    HW2 2099   0.336   2.117   2.013  1.3310  0.3475 -0.6886
  525SOL     MW 2100   0.312   2.145   2.093  0.6286 -0.2185 -0.3781
  526SOL     OW 2101   0.740   2.101   1.990  0.2838 -0.6977  0.2843
  526SOL    HW1 2102   0.785   2.122   1.914 -0.2044  1.1117 -3.7416
  526SOL    HW2 2103   0.793   2.122   2.071  0.9365 -0.6941  1.0639
  526SOL     MW 2104   0.753   2.106   1.991  0.3055 -0.4585 -0.1440
  527SOL     OW 2105   1.276   1.916   2.029  0.1556 -0.1682 -0.6027
  527SOL    HW1 2106   1.250   1.863   2.101 -0.2098  0.4421  1.1936
  527SOL    HW2 2107   1.343   1.862   1.987  0.3266 -0.8384  0.6316
  527SOL     MW 2108   1.281   1.902   2.033  0.1300 -0.1761 -0.2028
  528SOL     OW 2109   0.587   2.899   3.011  0.4470  0.4262  0.2942
  528SOL    HW1 2110   0.615   2.994   3.001 -1.1936  1.1471 -3.1769
  528SOL    HW2 2111   0.575   2.871   2.918 -1.6089 -0.3234  0.1820
  528SOL     MW 2112   0.589   2.908   2.997 -0.0407  0.4224 -0.1785
  529SOL     OW 2113   1.102   2.275   1.795 -0.1017 -0.2650  0.0139
  529SOL    HW1 2114   1.150   2.265   1.881  0.6270 -0.1879  0.9771
  529SOL    HW2 2115   1.163   2.238   1.728 -1.5343  1.5951 -1.8846
  529SOL     MW 2116   1.116   2.269   1.798 -0.1946 -0.0094 -0.1095
  530SOL     OW 2117   1.111   2.403   2.963 -0.2988  0.1777 -0.0464
  530SOL    HW1 2118   1.042   2.447   3.026  1.2137  1.4228  2.6829
  530SOL    HW2 2119   1.092   2.308   2.957  0.4969  1.9728  2.3591
  530SOL     MW 2120   1.099   2.396   2.971  0.0057  0.5788  0.6311
  531SOL     OW 2121   0.901   1.809   2.615  0.1123  0.4970  0.1601
  531SOL    HW1 2122   0.940   1.861   2.680  1.6642  0.5846  1.2118
  531SOL    HW2 2123   0.849   1.749   2.666  2.8017  0.3840 -0.2076
  531SOL     MW 2124   0.899   1.808   2.630  0.6719  0.4937  0.2503
  532SOL     OW 2125   1.720   0.347   2.831 -0.8596 -0.2407  0.5649
  532SOL    HW1 2126   1.687   0.271   2.780  1.0953  0.5921  0.8205
  532SOL    HW2 2127   1.739   0.301   2.912 -0.5530  1.4595  0.3146
  532SOL     MW 2128   1.718   0.331   2.835 -0.5613  0.0935  0.5656
  533SOL     OW 2129   1.776   2.802   2.952  0.1823 -0.3049  0.4720
  533SOL    HW1 2130   1.744   2.732   3.011  1.1568 -0.9652  3.4938
  533SOL    HW2 2131   1.722   2.791   2.873 -1.0099  2.0451 -1.1724
  533SOL     MW 2132   1.764   2.791   2.949  0.1536 -0.0820  0.6537
  534SOL     OW 2133   1.762   2.506   2.491 -0.4177 -0.3940 -0.0958
  534SOL    HW1 2134   1.672   2.475   2.519  3.0010  0.3190  0.0758
  534SOL    HW2 2135   1.822   2.503   2.569  3.2673 -0.9390 -0.4158
  534SOL     MW 2136   1.758   2.502   2.505  0.5196 -0.3718 -0.1154
  535SOL     OW 2137   1.795   2.392   1.927 -0.0396 -0.0352 -0.1255
  535SOL    HW1 2138   1.737   2.402   1.855  2.3603  1.0894  1.8195
  535SOL    HW2 2139   1.872   2.448   1.908  2.0315 -0.7419  1.7584
  535SOL     MW 2140   1.797   2.400   1.915  0.5503  0.0199  0.3797
  536SOL     OW 2141   0.410   1.877   2.029 -1.0138  0.1828  0.5762
  536SOL    HW1 2142   0.402   1.920   1.943  1.4804 -0.9979  0.9312
  536SOL    HW2 2143   0.507   1.856   2.035  2.0302 -3.0558 -2.7971
  536SOL     MW 2144   0.421   1.880   2.019 -0.2831 -0.4003  0.1779
  537SOL     OW 2145   0.986   0.178   2.931 -0.3719 -0.5282 -0.3358
  537SOL    HW1 2146   0.972   0.151   3.023 -0.8948  1.5151 -0.6917
  537SOL    HW2 2147   0.978   0.269   2.934 -1.8643 -1.0826  1.4098
  537SOL     MW 2148   0.983   0.186   2.944 -0.6378 -0.3318 -0.1525
  538SOL     OW 2149   1.281   0.055   3.012  0.3999 -0.0416  0.4992
  538SOL    HW1 2150   1.189   0.078   2.989  0.4413  0.6013  0.0264
  538SOL    HW2 2151   1.311   0.126   3.060  1.2409  0.0240  0.2178
  538SOL     MW 2152   1.273   0.067   3.015  0.5163  0.0519  0.3997
  539SOL     OW 2153   0.727   2.727   2.518  0.2245 -0.1795  0.0453
  539SOL    HW1 2154   0.802   2.789   2.519  1.7190 -0.7500  0.2490
  539SOL    HW2 2155   0.761   2.638   2.530 -0.0316  1.0747 -1.6323
  539SOL     MW 2156   0.741   2.723   2.520  0.3879 -0.0893 -0.1492
  540SOL     OW 2157   0.410   2.209   2.886  0.0001  0.2544  0.4646
  540SOL    HW1 2158   0.467   2.266   2.952  0.5711  0.6385 -0.0556
  540SOL    HW2 2159   0.361   2.151   2.946 -1.1113  0.3558  1.6116
  540SOL     MW 2160   0.411   2.209   2.903 -0.0712  0.3184  0.5473
  541SOL     OW 2161   0.191   2.891   2.266 -0.0586 -0.3680 -0.7328
  541SOL    HW1 2162   0.169   2.801   2.238  3.1346  0.1715 -0.9828
  541SOL    HW2 2163   0.228   2.871   2.358 -0.3362 -0.5862 -0.0594
  541SOL     MW 2164   0.193   2.877   2.275  0.3261 -0.3256 -0.6770
  542SOL     OW 2165   0.860   2.326   2.761  0.3834 -0.4009  0.4392
  542SOL    HW1 2166   0.846   2.280   2.844  2.7823 -3.4161  3.8055
  542SOL    HW2 2167   0.936   2.379   2.775 -0.6094  0.7066  0.3775
  542SOL     MW 2168   0.868   2.327   2.774  0.5689 -0.6526  0.8752
  543SOL     OW 2169   1.353   2.640   2.629 -0.3373  0.3502  0.8536
  543SOL    HW1 2170   1.396   2.556   2.622 -1.0594 -0.2596 -1.3709
  543SOL    HW2 2171   1.432   2.696   2.638  1.1787  0.4261  2.1284
  543SOL     MW 2172   1.369   2.636   2.629 -0.2325  0.2797  0.7283
  544SOL     OW 2173   0.706   0.101   2.627 -0.1659 -0.4100 -0.8723
  544SOL    HW1 2174   0.624   0.046   2.634  0.0784 -0.6350  0.8153
  544SOL    HW2 2175   0.752   0.056   2.558  0.7420  0.9348  2.9214
  544SOL     MW 2176   0.701   0.087   2.619 -0.0139 -0.2622 -0.1491
  545SOL     OW 2177   1.568   2.220   2.350  0.2774  0.4663 -0.8359
  545SOL    HW1 2178   1.548   2.140   2.407  0.2105  0.4947 -0.3849
  545SOL    HW2 2179   1.613   2.183   2.271 -1.1119  1.2458  1.6392
  545SOL     MW 2180   1.571   2.205   2.347  0.0853  0.5729 -0.4498
  546SOL     OW 2181   2.994   2.015   0.128 -0.5050 -0.0044 -0.1057
  546SOL    HW1 2182   3.002   2.086   0.060  0.1225  0.0121 -1.7368
  546SOL    HW2 2183   3.062   1.954   0.096 -0.5178 -2.3448 -3.0891
  546SOL     MW 2184   3.004   2.016   0.115 -0.4239 -0.3110 -0.7145
  547SOL     OW 2185   0.137   2.927   0.088 -0.1486  0.2733 -0.9561
  547SOL    HW1 2186   0.151   2.969   0.002 -1.1057  0.8844 -1.2871
  547SOL    HW2 2187   0.190   2.844   0.087  0.6380  0.4537  2.8995
  547SOL     MW 2188   0.146   2.921   0.077 -0.1711  0.3777 -0.4910
  548SOL     OW 2189   0.248   2.512   0.296  0.1941 -0.4017  0.0061
  548SOL    HW1 2190   0.277   2.549   0.214 -1.9446 -0.6685  0.9498
  548SOL    HW2 2191   0.149   2.500   0.281 -0.0838  0.8147 -0.1992
  548SOL     MW 2192   0.239   2.516   0.283 -0.1248 -0.2764  0.1035
  549SOL     OW 2193   0.692   1.830   2.050  0.3901  0.1995  0.1160
  549SOL    HW1 2194   0.717   1.921   2.007  3.7638  3.1743 -1.5469
  549SOL    HW2 2195   0.711   1.846   2.143 -0.5242 -2.5519 -0.2744
  549SOL     MW 2196   0.698   1.844   2.056  0.7146  0.2290 -0.1549
  550SOL     OW 2197   1.846   1.731   2.506  0.8716 -0.0326  0.4101
  550SOL    HW1 2198   1.805   1.729   2.421  0.0492 -0.8668 -2.0934
  550SOL    HW2 2199   1.823   1.824   2.536 -0.8601  1.3592  0.7255
  550SOL     MW 2200   1.837   1.743   2.499  0.5346  0.0410  0.1214
  551SOL     OW 2201   0.859   2.293   0.231 -0.3706 -0.2802  0.3756
  551SOL    HW1 2202   0.940   2.341   0.211  1.2021  0.1693  1.9601
  551SOL    HW2 2203   0.846   2.232   0.157  0.9299 -0.1576  0.1846
  551SOL     MW 2204   0.868   2.291   0.218  0.0085 -0.2047  0.5595
  552SOL     OW 2205   1.709   1.739   2.264  0.5487  0.3345  0.4579
  552SOL    HW1 2206   1.618   1.707   2.263  0.6571  2.0107  1.6209
  552SOL    HW2 2207   1.748   1.689   2.190  0.0223 -2.1841 -2.7243
  552SOL     MW 2208   1.702   1.728   2.254  0.4935  0.2234  0.1914
  553SOL     OW 2209   1.208   2.298   1.523  0.5308  0.5383 -0.1178
  553SOL    HW1 2210   1.244   2.206   1.529  1.6411  0.7217 -2.0678
  553SOL    HW2 2211   1.280   2.354   1.491  1.6725 -1.2781 -1.3066
  553SOL     MW 2212   1.222   2.293   1.519  0.8279  0.3229 -0.5319
  554SOL     OW 2213   0.550   2.807   2.689 -0.3003 -0.0387 -0.2537
  554SOL    HW1 2214   0.534   2.893   2.655  0.6321 -0.6029  1.0900
  554SOL    HW2 2215   0.614   2.769   2.620  1.2003  3.5797  0.9169
  554SOL     MW 2216   0.556   2.813   2.675  0.0207  0.3643  0.0780
  555SOL     OW 2217   0.573   2.391   2.604 -0.1848 -0.4901  0.3733
  555SOL    HW1 2218   0.589   2.299   2.598 -1.9317 -2.5416 -1.9438
  555SOL    HW2 2219   0.649   2.431   2.553  1.7693  3.3748  0.0613
  555SOL     MW 2220   0.585   2.384   2.596 -0.1574 -0.2509  0.0264
  556SOL     OW 2221   1.058   1.822   0.140 -0.0175 -0.5136  0.2423
  556SOL    HW1 2222   1.086   1.786   0.055 -0.2188  0.9062  0.1329
  556SOL    HW2 2223   1.139   1.851   0.188 -2.5286 -0.2672 -0.3522
  556SOL     MW 2224   1.072   1.821   0.136 -0.3754 -0.2938  0.1494
  557SOL     OW 2225   1.052   2.701   0.453  0.1825 -0.0474  0.2573
  557SOL    HW1 2226   1.095   2.681   0.367 -0.5067 -1.9248  1.5552
  557SOL    HW2 2227   0.972   2.749   0.429  0.0014  0.8578 -2.5125
  557SOL     MW 2228   1.047   2.705   0.438  0.0676 -0.1757  0.0631
  558SOL     OW 2229   0.257   2.098   3.076 -0.1933 -0.6661 -0.1762
  558SOL    HW1 2230   0.195   2.034   3.078  1.2416  2.2804  0.4546
  558SOL    HW2 2231   0.207   2.172   3.100 -0.2907 -2.2433  1.7246
  558SOL     MW 2232   0.242   2.099   3.080 -0.0169 -0.4854  0.1578
  559SOL     OW 2233   1.214   2.264   2.057 -0.3931  0.3936 -0.2958
  559SOL    HW1 2234   1.186   2.353   2.084 -0.9582 -0.2844 -1.0993
  559SOL    HW2 2235   1.198   2.204   2.132 -1.2940 -1.8081  1.5260
  559SOL     MW 2236   1.208   2.268   2.070 -0.5865  0.0137 -0.1614
  560SOL     OW 2237   1.947   2.989   0.038 -0.3394  0.0620 -0.2839
  560SOL    HW1 2238   2.026   3.007  -0.014 -0.4961 -1.8562 -0.2200
  560SOL    HW2 2239   1.884   2.947  -0.022 -0.6771 -0.4309  0.8657
  560SOL     MW 2240   1.949   2.986   0.023 -0.4046 -0.2561 -0.1238
  561SOL     OW 2241   0.470   2.082   0.152  0.3550  0.5564  0.4885
  561SOL    HW1 2242   0.414   2.114   0.077 -1.1032  1.3880 -2.2862
  561SOL    HW2 2243   0.500   2.155   0.205 -0.1100 -3.5922 -2.1448
  561SOL     MW 2244   0.467   2.095   0.149  0.1012  0.1188 -0.2250
  562SOL     OW 2245   0.856   2.142   2.226  0.2688 -0.4564  0.2796
  562SOL    HW1 2246   0.842   2.241   2.238 -0.5935  1.4119  1.8717
  562SOL    HW2 2247   0.953   2.139   2.227 -0.6490  0.3003 -0.1703
  562SOL     MW 2248   0.867   2.155   2.228  0.0340 -0.1101  0.4303
  563SOL     OW 2249   1.264   0.283   0.514 -0.1410 -0.3262  0.4990
  563SOL    HW1 2250   1.207   0.267   0.438 -1.5037  2.8968  1.5034
  563SOL    HW2 2251   1.297   0.198   0.552 -1.9066  0.4603  3.0193
  563SOL     MW 2252   1.261   0.270   0.509 -0.5538  0.2028  0.9641
  564SOL     OW 2253   0.995   2.595   2.317  0.1287  0.1622 -0.1066
  564SOL    HW1 2254   1.059   2.575   2.252  0.3258  3.0500  1.4178
  564SOL    HW2 2255   1.053   2.635   2.386  1.1091 -0.0786 -0.5950
  564SOL     MW 2256   1.011   2.597   2.317  0.2841  0.5115  0.0301
  565SOL     OW 2257   2.937   2.663   2.711  0.0707 -0.1384 -0.0725
  565SOL    HW1 2258   2.988   2.739   2.679 -3.5443  3.1752 -0.8488
  565SOL    HW2 2259   2.872   2.641   2.636 -1.3011  1.1081 -2.1088
  565SOL     MW 2260   2.935   2.670   2.697 -0.5873  0.4633 -0.4436
  566SOL     OW 2261   2.183   2.016   2.355 -0.1305 -0.7793 -0.4298
  566SOL    HW1 2262   2.207   2.010   2.260 -0.0931  0.0544 -1.2737
  566SOL    HW2 2263   2.247   2.072   2.400  1.1870 -1.8134  1.1159
  566SOL     MW 2264   2.195   2.022   2.348  0.0483 -0.8057 -0.3372
  567SOL     OW 2265   1.184   2.920   0.084  0.1613  0.5038 -0.2761
  567SOL    HW1 2266   1.235   3.002   0.086 -1.0791  0.5412  1.8187
  567SOL    HW2 2267   1.196   2.899  -0.008  0.7696  1.4560 -0.8733
  567SOL     MW 2268   1.192   2.928   0.072  0.0779  0.6343 -0.0785
  568SOL     OW 2269   1.621   2.138   2.804  0.2252  0.1567  0.1655
  568SOL    HW1 2270   1.681   2.187   2.861 -0.1978  1.6591  2.0731
  568SOL    HW2 2271   1.675   2.115   2.723  0.0673  1.8922  1.1474
  568SOL     MW 2272   1.636   2.142   2.801  0.1486  0.5839  0.5468
  569SOL     OW 2273   0.104   2.202   2.462  0.5342  0.3042  0.1807
  569SOL    HW1 2274   0.057   2.271   2.404  0.5115  0.4063 -0.4212
  569SOL    HW2 2275   0.175   2.247   2.508 -1.0324 -0.1329  0.1826
  569SOL     MW 2276   0.108   2.217   2.460  0.3245  0.2600  0.1015
  570SOL     OW 2277   1.525   0.376   0.456 -0.4356  0.8412  0.0641
  570SOL    HW1 2278   1.435   0.357   0.486  1.5290  2.4519  1.0847
  570SOL    HW2 2279   1.560   0.429   0.522  0.6159 -0.4294 -0.6020
  570SOL     MW 2280   1.517   0.380   0.469 -0.0376  0.8860  0.1108
  571SOL     OW 2281   1.462   2.432   2.005  0.2065 -0.2818 -0.2234
  571SOL    HW1 2282   1.503   2.458   2.085  0.8893 -1.6255 -1.3035
  571SOL    HW2 2283   1.414   2.348   2.013 -0.1185 -0.6068 -2.7006
  571SOL     MW 2284   1.461   2.424   2.017  0.2537 -0.5019 -0.6927
  572SOL     OW 2285   0.909   2.546   3.062 -0.5516  0.4101 -0.0856
  572SOL    HW1 2286   0.874   2.610   2.995 -0.0634  1.3264 -1.2085
  572SOL    HW2 2287   0.846   2.539   3.133 -1.2764  1.8002  1.3318
  572SOL     MW 2288   0.896   2.553   3.063 -0.5828  0.7144 -0.0468
  573SOL     OW 2289   1.114   2.405   0.173 -0.0999 -0.1411  0.2428
  573SOL    HW1 2290   1.189   2.356   0.137  0.9286 -2.5782 -0.3585
  573SOL    HW2 2291   1.145   2.493   0.169  1.0526 -3.1580 -2.7775
  573SOL     MW 2292   1.128   2.410   0.168  0.1879 -0.8607 -0.2350
  574SOL     OW 2293   1.231   2.666   0.208 -1.1670  0.3156 -0.4005
  574SOL    HW1 2294   1.294   2.712   0.265 -0.2145 -0.0662  0.4276
  574SOL    HW2 2295   1.189   2.738   0.168  2.3223 -0.3154  0.9416
  574SOL     MW 2296   1.234   2.681   0.211 -0.5810  0.1820 -0.1142
  575SOL     OW 2297   3.040   2.290   1.818  0.0618 -0.1190  0.2735
  575SOL    HW1 2298   3.018   2.229   1.739  0.3661  0.1032 -0.8831
  575SOL    HW2 2299   3.111   2.354   1.788  1.0040  0.7409 -0.8204
  575SOL     MW 2300   3.047   2.290   1.804  0.2263  0.0238 -0.0234
  576SOL     OW 2301   2.817   1.814   2.035 -0.1192 -0.1505 -0.0171
  576SOL    HW1 2302   2.809   1.898   1.989  0.0368 -1.4019 -3.1158
  576SOL    HW2 2303   2.727   1.778   2.029  0.1223 -0.6684 -2.8267
  576SOL     MW 2304   2.804   1.821   2.028 -0.0668 -0.3839 -0.7966
  577SOL     OW 2305   2.059   0.269   0.049 -0.0713 -0.6445  0.2343
  577SOL    HW1 2306   1.996   0.338   0.035 -0.7667 -1.2292 -3.8376
  577SOL    HW2 2307   2.010   0.219   0.107  0.6239  0.2171 -1.3228
  577SOL     MW 2308   2.044   0.272   0.055 -0.0714 -0.6080 -0.5084
  578SOL     OW 2309   1.980   2.179   2.340  0.8874 -0.5734 -0.5395
  578SOL    HW1 2310   1.916   2.122   2.287  1.0242  1.2910  1.3995
  578SOL    HW2 2311   2.059   2.116   2.345  1.0539  0.0096 -1.1300
  578SOL     MW 2312   1.982   2.163   2.334  0.9274 -0.2505 -0.3616
  579SOL     OW 2313   0.831   2.455   2.516 -0.1187 -0.3531  0.0096
  579SOL    HW1 2314   0.855   2.387   2.588  0.1497 -0.2634 -0.7620
  579SOL    HW2 2315   0.914   2.482   2.481  0.1573 -1.6434  0.2517
  579SOL     MW 2316   0.845   2.449   2.521 -0.0469 -0.5115 -0.0603
  580SOL     OW 2317   0.899   2.861   0.013  0.2299  0.5802  0.3949
  580SOL    HW1 2318   0.993   2.855   0.000  1.6993 -1.0212 -0.1206
  580SOL    HW2 2319   0.852   2.870  -0.073  0.0596  0.2614  2.9427
  580SOL     MW 2320   0.905   2.861  -0.000  0.4013  0.3269  0.6630
  581SOL     OW 2321   1.107   2.547   1.731 -0.0189 -0.4780  0.3383
  581SOL    HW1 2322   1.194   2.584   1.750 -0.1970 -0.8789 -0.5691
  581SOL    HW2 2323   1.105   2.460   1.770  0.5320  1.7308  1.5037
  581SOL     MW 2324   1.118   2.541   1.739  0.0303 -0.2395  0.3724
  582SOL     OW 2325  -0.001   2.861   2.623  0.3248 -0.7184 -0.2217
  582SOL    HW1 2326  -0.005   2.954   2.665 -1.5007  0.8394  1.1785
  582SOL    HW2 2327   0.088   2.835   2.605 -0.2291 -1.3290 -1.6698
  582SOL     MW 2328   0.010   2.870   2.626  0.0109 -0.5934 -0.2280
  583SOL     OW 2329   1.944   2.490   2.686  0.1378 -0.1713  0.2229
  583SOL    HW1 2330   1.985   2.548   2.613 -0.5525 -0.5844 -0.8021
  583SOL    HW2 2331   1.965   2.401   2.659 -1.5257 -0.1149 -1.3774
  583SOL     MW 2332   1.952   2.486   2.673 -0.1728 -0.2184 -0.1235
  584SOL     OW 2333   0.163   1.844   2.110  0.1910  0.0784  0.4409
  584SOL    HW1 2334   0.261   1.844   2.093  0.6690  1.0224  0.3996
  584SOL    HW2 2335   0.158   1.864   2.203  2.0960  0.7657  0.0172
  584SOL     MW 2336   0.175   1.847   2.120  0.5054  0.2937  0.3795
  585SOL     OW 2337   1.450   2.596   0.043  0.2214 -0.3500  0.0599
  585SOL    HW1 2338   1.405   2.602  -0.047 -0.6793  0.0319  1.0800
  585SOL    HW2 2339   1.371   2.590   0.107 -2.2641  1.7581 -0.3344
  585SOL     MW 2340   1.434   2.596   0.039 -0.2254 -0.0215  0.1424
  586SOL     OW 2341   1.313   2.984   2.373 -0.0799 -0.0631 -0.0823
  586SOL    HW1 2342   1.371   2.907   2.378  0.0889  0.8266 -0.8061
  586SOL    HW2 2343   1.263   2.996   2.456 -0.2134  2.6470  2.0763
  586SOL     MW 2344   1.314   2.976   2.385 -0.0753  0.4118  0.1070
  587SOL     OW 2345   1.185   1.632   2.200  0.0677 -0.0841  0.2043
  587SOL    HW1 2346   1.204   1.547   2.248  0.6664 -0.9555 -1.8588
  587SOL    HW2 2347   1.207   1.609   2.116 -0.3600  1.2768  0.3406
  587SOL     MW 2348   1.190   1.618   2.195  0.0903 -0.0195 -0.0499
  588SOL     OW 2349   1.381   2.208   2.713  0.1382 -0.8741 -0.0190
  588SOL    HW1 2350   1.459   2.183   2.750 -1.1651 -0.0834 -0.8579
  588SOL    HW2 2351   1.325   2.185   2.790 -1.6656 -0.7400 -1.2832
  588SOL     MW 2352   1.384   2.202   2.728 -0.2717 -0.7521 -0.2965
  589SOL     OW 2353   1.334   2.047   0.046 -0.1284  0.3042  0.1907
  589SOL    HW1 2354   1.356   2.135   0.073  1.3459 -0.1781 -0.1495
  589SOL    HW2 2355   1.292   2.000   0.123 -0.9798 -2.0725 -0.5195
  589SOL     MW 2356   1.331   2.053   0.060 -0.0462 -0.0731  0.0521
  590SOL     OW 2357   0.461   2.575   2.235 -0.6665  0.4092  0.1217
  590SOL    HW1 2358   0.401   2.598   2.164  0.3137 -0.6893 -1.2780
  590SOL    HW2 2359   0.522   2.645   2.246  1.0624 -1.7052 -1.2136
  590SOL     MW 2360   0.461   2.587   2.227 -0.3091 -0.0147 -0.2392
  591SOL     OW 2361   2.229   0.686   3.030  0.4618  0.9400  0.0502
  591SOL    HW1 2362   2.139   0.708   3.014  1.8409  0.2643  0.5095
  591SOL    HW2 2363   2.282   0.704   2.954  0.5165 -1.2022 -1.0420
  591SOL     MW 2364   2.224   0.691   3.018  0.6510  0.5682 -0.0333
  592SOL     OW 2365   1.843   2.919   0.849  0.1318  0.6942  0.3660
  592SOL    HW1 2366   1.844   2.990   0.777  4.3664  2.1147  0.9025
  592SOL    HW2 2367   1.894   2.835   0.823 -0.3795  0.1672 -2.9279
  592SOL     MW 2368   1.850   2.917   0.836  0.6230  0.8121  0.0022
  593SOL     OW 2369   1.940   0.809   0.861  0.2707 -0.3536 -0.5953
  593SOL    HW1 2370   1.879   0.799   0.790 -2.5270 -0.6918 -1.5220
  593SOL    HW2 2371   1.957   0.718   0.887  1.4225  0.2293  1.9187
  593SOL     MW 2372   1.934   0.796   0.855  0.0535 -0.3213 -0.3859
  594SOL     OW 2373   2.720   1.136   1.374 -0.1071  0.4952 -0.2708
  594SOL    HW1 2374   2.820   1.152   1.373  2.7430 -3.9167 -3.4298
  594SOL    HW2 2375   2.696   1.114   1.282 -1.7843  1.4196  0.1828
  594SOL     MW 2376   2.730   1.135   1.362  0.0477  0.0351 -0.6277
  595SOL     OW 2377   0.412   0.973   0.755 -0.0629 -0.0455 -0.0490
  595SOL    HW1 2378   0.470   1.037   0.705  0.9065  1.3617 -0.9872
  595SOL    HW2 2379   0.443   1.008   0.835  1.3969  1.1155 -1.0291
  595SOL     MW 2380   0.423   0.986   0.759  0.2576  0.2934 -0.3021
  596SOL     OW 2381   2.456   1.349   0.590 -0.0490  0.2907  0.4229
  596SOL    HW1 2382   2.473   1.431   0.538  2.2906  0.8034 -2.9247
  596SOL    HW2 2383   2.540   1.318   0.627  0.4926  0.9661 -0.5516
  596SOL     MW 2384   2.469   1.355   0.588  0.3311  0.4475 -0.1474
  597SOL     OW 2385   2.203   0.652   1.707 -0.6915 -0.5290 -0.1988
  597SOL    HW1 2386   2.259   0.577   1.727 -2.4797  2.2868 -0.3835
  597SOL    HW2 2387   2.160   0.639   1.619 -1.2681  1.8533 -0.9185
  597SOL     MW 2388   2.205   0.640   1.698 -1.0035  0.1568 -0.3182
  598SOL     OW 2389   2.616   1.000   2.872  0.3307 -0.3469  0.0046
  598SOL    HW1 2390   2.675   0.973   2.810 -2.3219  0.9069 -0.8329
  598SOL    HW2 2391   2.678   1.022   2.939  1.8305  1.8663 -0.0451
  598SOL     MW 2392   2.632   0.999   2.872  0.1786  0.1105 -0.1125
  599SOL     OW 2393   2.913   0.364   2.021 -0.5734  0.2028 -0.4347
  599SOL    HW1 2394   2.897   0.340   2.114  3.4444  2.5365 -0.2683
  599SOL    HW2 2395   2.954   0.451   2.017 -0.5253  1.0072 -2.0439
  599SOL     MW 2396   2.916   0.372   2.032 -0.0369  0.6169 -0.6250
  600SOL     OW 2397   1.869   1.684   0.864 -0.1088  0.5366  0.1775
  600SOL    HW1 2398   1.873   1.690   0.962 -3.0842 -0.2010  1.5686
  600SOL    HW2 2399   1.782   1.720   0.844  2.3324 -1.3407 -1.0248
  600SOL     MW 2400   1.858   1.689   0.874 -0.1793  0.1916  0.2024
  601SOL     OW 2401   2.503   0.798   0.879  0.6047  0.2197 -0.2748
  601SOL    HW1 2402   2.536   0.816   0.968  0.2715 -1.2061  0.4650
  601SOL    HW2 2403   2.430   0.852   0.874  0.2387 -2.2898  0.5099
  601SOL     MW 2404   2.498   0.807   0.890  0.5125 -0.2995 -0.0736
  602SOL     OW 2405   2.281   1.944   0.691  0.1564 -0.1658 -0.2673
  602SOL    HW1 2406   2.220   1.870   0.714  0.0111  0.3514  0.1067
  602SOL    HW2 2407   2.229   2.009   0.642 -0.9420 -0.7601  2.0342
  602SOL     MW 2408   2.266   1.943   0.688 -0.0077 -0.1760  0.0857
  603SOL     OW 2409   2.998   1.402   1.844  0.2958 -0.2537  0.1210
  603SOL    HW1 2410   3.089   1.413   1.859  0.8258 -0.3752 -0.9780
  603SOL    HW2 2411   2.994   1.308   1.807  0.3296  0.0652 -1.4433
  603SOL     MW 2412   3.009   1.391   1.841  0.3702 -0.2277 -0.2304
  604SOL     OW 2413   2.064   1.556   0.505  0.0806 -0.2015 -0.4471
  604SOL    HW1 2414   2.105   1.504   0.578  1.7516  0.0398  1.7528
  604SOL    HW2 2415   1.993   1.609   0.544  2.1096  4.3795  0.4525
  604SOL     MW 2416   2.060   1.556   0.520  0.5687  0.4348 -0.0381
  605SOL     OW 2417   2.664   1.558   0.853 -0.2689  0.5341  0.5113
  605SOL    HW1 2418   2.593   1.612   0.818  2.9789 -1.1414  2.5868
  605SOL    HW2 2419   2.632   1.507   0.931  3.0483  0.0420  2.4948
  605SOL     MW 2420   2.650   1.558   0.858  0.5973  0.2481  1.0468
  606SOL     OW 2421   2.538   1.786   1.989 -0.2313 -0.7165  0.6261
  606SOL    HW1 2422   2.444   1.803   1.996  1.7746 -1.0302  1.6661
  606SOL    HW2 2423   2.544   1.718   1.914  2.9359  0.1030 -0.5455
  606SOL     MW 2424   2.527   1.779   1.980  0.4513 -0.6497  0.6087
  607SOL     OW 2425   2.333   1.034   2.991 -0.1263 -0.0157  0.3347
  607SOL    HW1 2426   2.408   1.005   2.941  0.4463  0.5463  1.7327
  607SOL    HW2 2427   2.362   1.065   3.080 -2.8871  0.1794  4.5319
  607SOL     MW 2428   2.347   1.034   2.996 -0.4150  0.0842  1.0729
  608SOL     OW 2429   1.909   0.255   0.607 -0.1338  0.2376 -0.4659
  608SOL    HW1 2430   1.945   0.276   0.519  0.9329  1.2679 -1.5296
  608SOL    HW2 2431   1.851   0.179   0.597 -2.1423 -1.0813 -0.5828
  608SOL     MW 2432   1.906   0.248   0.594 -0.2581  0.1995 -0.6217
  609SOL     OW 2433   2.148   1.903   3.014  0.2315 -0.5967  0.2151
  609SOL    HW1 2434   2.054   1.879   3.010 -0.8199  0.5587  1.2642
  609SOL    HW2 2435   2.180   1.879   3.100 -0.1280  0.4367 -0.0743
  609SOL     MW 2436   2.140   1.897   3.025  0.0454 -0.3079  0.3153
  610SOL     OW 2437   1.838   1.100   1.358  0.4194  0.1554 -0.0711
  610SOL    HW1 2438   1.841   1.034   1.288  0.3435 -1.1343  0.5602
  610SOL    HW2 2439   1.771   1.067   1.423  0.6289  0.4250 -1.8986
  610SOL     MW 2440   1.830   1.087   1.357  0.4371  0.0208 -0.2289
  611SOL     OW 2441   2.460   1.706   0.724 -0.4075 -0.5207 -0.1745
  611SOL    HW1 2442   2.422   1.790   0.729 -1.2306  0.7872 -1.5968
  611SOL    HW2 2443   2.477   1.684   0.638 -1.2310 -2.2151  1.9829
  611SOL     MW 2444   2.457   1.714   0.713 -0.6247 -0.5717 -0.0775
  612SOL     OW 2445   2.784   2.809   0.446  0.2006  0.0089  0.3019
  612SOL    HW1 2446   2.815   2.872   0.520  0.2966 -1.9941  2.5767
  612SOL    HW2 2447   2.859   2.805   0.385  0.1421  2.3763 -0.2247
  612SOL     MW 2448   2.798   2.817   0.447  0.2055  0.0570  0.5325
  613SOL     OW 2449   1.630   1.001   1.107 -0.0578 -0.0838  0.3532
  613SOL    HW1 2450   1.625   1.068   1.170 -2.3444  1.4438 -3.1841
  613SOL    HW2 2451   1.726   0.982   1.099  0.8083  0.9925  2.2490
  613SOL     MW 2452   1.642   1.007   1.115 -0.2452  0.2597  0.1366
  614SOL     OW 2453   2.005   0.551   1.513  0.5528  0.1516 -0.5294
  614SOL    HW1 2454   1.983   0.464   1.551  4.3600 -0.9281 -1.0192
  614SOL    HW2 2455   2.060   0.541   1.433  0.5288 -0.8851  0.0073
  614SOL     MW 2456   2.010   0.538   1.508  1.0520 -0.1276 -0.5232
  615SOL     OW 2457   2.227   0.826   0.199  0.3169 -0.3028  0.0049
  615SOL    HW1 2458   2.288   0.778   0.255 -2.7313  0.4269 -0.2841
  615SOL    HW2 2459   2.225   0.780   0.116  1.7125  0.4497 -0.0446
  615SOL     MW 2460   2.235   0.813   0.195  0.0989 -0.1072 -0.0398
  616SOL     OW 2461   2.593   0.422   1.607 -0.6559  0.2715 -0.6226
  616SOL    HW1 2462   2.540   0.374   1.544  1.3558  2.3279 -1.5563
  616SOL    HW2 2463   2.647   0.480   1.547 -0.4189  2.3272 -0.4113
  616SOL     MW 2464   2.593   0.424   1.590 -0.3592  0.8141 -0.7179
  617SOL     OW 2465   2.913   0.567   1.747 -0.2494 -0.6477  0.2184
  617SOL    HW1 2466   2.825   0.604   1.783 -1.1783  1.0530  0.1478
  617SOL    HW2 2467   2.913   0.469   1.735 -0.0834 -2.2557  1.6678
  617SOL     MW 2468   2.901   0.559   1.750 -0.3501 -0.6355  0.4003
  618SOL     OW 2469   2.639   0.367   1.946  0.2602 -0.0130 -0.3412
  618SOL    HW1 2470   2.631   0.459   1.930 -1.7323  0.1536  2.5521
  618SOL    HW2 2471   2.734   0.362   1.958  0.7134  1.1484 -1.4075
  618SOL     MW 2472   2.651   0.378   1.945  0.0571  0.1622 -0.1001
  619SOL     OW 2473   2.603   0.896   0.144  0.2162 -0.2509  0.2078
  619SOL    HW1 2474   2.689   0.922   0.173  1.2502  1.0328 -0.0186
  619SOL    HW2 2475   2.568   0.845   0.220 -0.5958 -0.2883  0.9576
  619SOL     MW 2476   2.610   0.893   0.158  0.2455 -0.0864  0.2768
  620SOL     OW 2477   2.286   1.083   0.921 -0.0382 -0.1232  0.2465
  620SOL    HW1 2478   2.357   1.108   0.861 -1.1510  1.0176 -1.0580
  620SOL    HW2 2479   2.246   1.009   0.880  0.2562 -1.1154 -0.3182
  620SOL     MW 2480   2.290   1.076   0.908 -0.1461 -0.1036 -0.0001
  621SOL     OW 2481   1.490   2.126   1.987 -0.2655 -0.2261 -0.0450
  621SOL    HW1 2482   1.399   2.101   2.002 -0.0173 -0.7000 -3.8476
  621SOL    HW2 2483   1.542   2.058   2.022 -0.5507  2.4489  1.7515
  621SOL     MW 2484   1.485   2.113   1.994 -0.2704  0.0643 -0.3097
  622SOL     OW 2485   2.628   0.167   0.167 -0.1866 -0.5058  0.6499
  622SOL    HW1 2486   2.706   0.213   0.208 -1.4972  1.0845 -1.5583
  622SOL    HW2 2487   2.643   0.069   0.146 -0.3809 -2.1240 -1.9433
  622SOL     MW 2488   2.640   0.160   0.169 -0.3852 -0.5095  0.0164
  623SOL     OW 2489   2.380   2.788   0.845 -0.4549  0.2205 -0.0342
  623SOL    HW1 2490   2.436   2.865   0.843  1.4827 -2.7852  0.7779
  623SOL    HW2 2491   2.311   2.817   0.903  1.2479  2.2067 -1.3036
  623SOL     MW 2492   2.378   2.802   0.853  0.0254  0.0860 -0.0945
  624SOL     OW 2493   2.233   1.651   2.998  0.1233  0.0516  0.5508
  624SOL    HW1 2494   2.155   1.605   3.021  1.6011  0.9215 -0.7318
  624SOL    HW2 2495   2.213   1.743   2.989  0.9477  0.0170  2.6703
  624SOL     MW 2496   2.220   1.657   3.000  0.4271  0.1618  0.6612
  625SOL     OW 2497   2.195   1.897   1.067 -0.4935 -0.4300 -0.0289
  625SOL    HW1 2498   2.255   1.887   1.141 -0.4508 -1.4834  2.4713
  625SOL    HW2 2499   2.229   1.849   0.990  1.7919  1.4068 -0.1280
  625SOL     MW 2500   2.207   1.890   1.067 -0.1863 -0.3267  0.2879
  626SOL     OW 2501   0.147   1.546   2.387  0.2434 -0.3776  0.1435
  626SOL    HW1 2502   0.068   1.526   2.339 -0.0013 -0.1491 -0.4242
  626SOL    HW2 2503   0.104   1.589   2.468 -1.4699  3.3470 -2.2539
  626SOL     MW 2504   0.131   1.549   2.392 -0.0150  0.1440 -0.2477
  627SOL     OW 2505   2.437   0.855   2.548  0.4242  0.2407  0.1535
  627SOL    HW1 2506   2.375   0.931   2.559  0.8634 -1.5931  1.6670
  627SOL    HW2 2507   2.404   0.800   2.471  0.9873 -2.3286  1.3560
  627SOL     MW 2508   2.424   0.858   2.539  0.5565 -0.3402  0.5119
  628SOL     OW 2509   2.313   1.366   1.377 -0.5538 -0.1694  0.1470
  628SOL    HW1 2510   2.279   1.306   1.308  0.6607  3.5292 -0.5870
  628SOL    HW2 2511   2.405   1.376   1.359  0.1128 -0.5118 -0.5882
  628SOL     MW 2512   2.321   1.359   1.366 -0.3056  0.2734 -0.0469
  629SOL     OW 2513   2.004   0.557   1.182 -0.0272 -0.2104  0.1468
  629SOL    HW1 2514   2.068   0.627   1.185 -1.1271 -1.6076  0.0994
  629SOL    HW2 2515   1.918   0.600   1.208  1.8365  1.4375 -1.4572
  629SOL     MW 2516   2.001   0.572   1.185  0.0735 -0.1774 -0.0711
  630SOL     OW 2517   2.509   1.789   3.075  0.1687 -0.4899 -0.4865
  630SOL    HW1 2518   2.445   1.845   3.038  0.6621  1.1015 -1.0046
  630SOL    HW2 2519   2.464   1.709   3.116  0.0683 -1.3366  1.3827
  630SOL     MW 2520   2.495   1.786   3.075  0.2206 -0.3916 -0.3082
  631SOL     OW 2521   1.962   1.785   1.611  0.2024 -0.0733  0.3727
  631SOL    HW1 2522   1.978   1.687   1.639  1.8203 -0.1723 -1.2704
  631SOL    HW2 2523   1.930   1.768   1.522 -0.6830 -0.1458 -3.5083
  631SOL     MW 2524   1.960   1.770   1.603  0.2990 -0.0959 -0.3562
  632SOL     OW 2525   0.211   2.084   1.577 -0.3390  0.4645  0.0883
  632SOL    HW1 2526   0.124   2.087   1.624  0.1474  2.0732  0.1700
  632SOL    HW2 2527   0.205   2.004   1.532 -2.7354  0.7299 -0.1424
  632SOL     MW 2528   0.199   2.074   1.577 -0.5910  0.7118  0.0686
  633SOL     OW 2529   2.416   0.680   0.366 -0.0408 -0.1397 -0.4225
  633SOL    HW1 2530   2.490   0.672   0.423  0.7826 -1.2190 -0.8385
  633SOL    HW2 2531   2.373   0.593   0.351 -0.7804 -2.2507  2.3152
  633SOL     MW 2532   2.420   0.667   0.372 -0.0298 -0.5606 -0.1161
  634SOL     OW 2533   2.644   3.090   0.622  0.1786 -0.1496  0.0722
  634SOL    HW1 2534   2.681   3.182   0.614  1.5622 -1.2810 -1.2917
  634SOL    HW2 2535   2.613   3.068   0.536  0.6952  2.1623  0.7126
  634SOL     MW 2536   2.644   3.099   0.610  0.4293  0.0061 -0.0232
  635SOL     OW 2537   2.619   0.119   1.809  0.5575  0.1453 -0.2043
  635SOL    HW1 2538   2.703   0.101   1.768  0.6410  2.1911  0.1326
  635SOL    HW2 2539   2.630   0.209   1.834  0.7889 -0.1219 -0.9451
  635SOL     MW 2540   2.632   0.129   1.807  0.5991  0.3800 -0.2576
  636SOL     OW 2541   2.913   1.634   0.981 -0.0616 -0.0289 -0.4999
  636SOL    HW1 2542   2.867   1.684   0.914  2.2653  0.4110 -0.5333
  636SOL    HW2 2543   2.931   1.694   1.051  1.9735  1.5792 -0.4269
  636SOL     MW 2544   2.909   1.648   0.981  0.5139  0.2413 -0.4947
  637SOL     OW 2545   2.906   1.498   0.719 -0.0651 -0.0583  0.3197
  637SOL    HW1 2546   2.953   1.567   0.768  0.0312 -0.9655 -2.9029
  637SOL    HW2 2547   2.828   1.491   0.770  1.6002  0.2829  0.6898
  637SOL     MW 2548   2.902   1.506   0.732  0.1673 -0.1330 -0.0566
  638SOL     OW 2549   2.649   0.678   0.521 -0.0058 -0.3341 -0.2581
  638SOL    HW1 2550   2.744   0.659   0.502 -0.3076  1.3563 -0.1766
  638SOL    HW2 2551   2.613   0.615   0.583  2.1876 -1.9171 -1.2509
  638SOL     MW 2552   2.657   0.667   0.527  0.2438 -0.3199 -0.3783
  639SOL     OW 2553   1.799   3.088   0.644 -0.0996  0.1243 -0.1187
  639SOL    HW1 2554   1.711   3.131   0.624 -1.4583  0.8705 -0.7464
  639SOL    HW2 2555   1.824   3.074   0.550  0.2186  1.1189  0.5017
  639SOL     MW 2556   1.791   3.092   0.629 -0.2369  0.3540 -0.1197
  640SOL     OW 2557   0.381   1.349   0.087 -0.0182  0.1988 -0.0410
  640SOL    HW1 2558   0.389   1.383  -0.004 -0.6189  1.9652 -0.6043
  640SOL    HW2 2559   0.352   1.253   0.080  0.2227 -1.4821 -1.6317
  640SOL     MW 2560   0.378   1.341   0.074 -0.0657  0.2101 -0.3252
  641SOL     OW 2561   2.283   0.451   0.371 -0.6667  0.3336 -0.5733
  641SOL    HW1 2562   2.308   0.424   0.285  0.5529 -1.2284  0.1248
  641SOL    HW2 2563   2.344   0.406   0.437 -0.3784  1.4928  0.5114
  641SOL     MW 2564   2.295   0.442   0.369 -0.4677  0.2804 -0.3381
  642SOL     OW 2565   0.034   0.029   0.520  0.2359  0.0854  0.6212
  642SOL    HW1 2566   0.001   0.119   0.527 -0.3361  0.0991 -0.7657
  642SOL    HW2 2567  -0.041  -0.024   0.541 -1.9828  0.8916 -0.3612
  642SOL     MW 2568   0.020   0.034   0.524 -0.1323  0.1936  0.3086
  643SOL     OW 2569   2.014   0.305   1.664 -0.5024  0.3163  0.4780
  643SOL    HW1 2570   2.095   0.317   1.713  0.7775  0.6592 -1.2207
  643SOL    HW2 2571   2.055   0.266   1.585  2.5392  1.5407  0.1161
  643SOL     MW 2572   2.030   0.301   1.660  0.0678  0.5231  0.2061
  644SOL     OW 2573   2.712   1.849   0.972 -0.4407 -0.6122  0.4445
  644SOL    HW1 2574   2.672   1.841   1.057  0.5862  2.5422 -0.0213
  644SOL    HW2 2575   2.648   1.839   0.908  0.6164  0.3682  1.1265
  644SOL     MW 2576   2.698   1.847   0.975 -0.1657 -0.0667  0.4730
  645SOL     OW 2577   2.779   0.903   0.640  0.4835 -0.0106  0.3584
  645SOL    HW1 2578   2.817   0.856   0.717  1.1276 -1.9986  0.3434
  645SOL    HW2 2579   2.723   0.837   0.600 -0.0526  1.2895 -0.7204
  645SOL     MW 2580   2.777   0.888   0.645  0.4978 -0.1013  0.2141
  646SOL     OW 2581   0.176   2.265   0.871  0.2295 -0.1793  0.0336
  646SOL    HW1 2582   0.205   2.176   0.871 -1.5306  0.0096 -1.6824
  646SOL    HW2 2583   0.111   2.274   0.799  1.9298 -3.7615  1.3919
  646SOL     MW 2584   0.172   2.254   0.861  0.2216 -0.6270 -0.0136
  647SOL     OW 2585   2.743   0.535   2.978 -0.5031 -0.0254  0.1566
  647SOL    HW1 2586   2.682   0.474   3.012 -3.1281  1.1786  0.3967
  647SOL    HW2 2587   2.694   0.613   2.982  1.7454 -2.3664 -2.8094
  647SOL     MW 2588   2.729   0.537   2.983 -0.5528 -0.1755 -0.2031
  648SOL     OW 2589   2.214   0.722   1.155  0.0032 -0.5154  1.3036
  648SOL    HW1 2590   2.241   0.742   1.061 -0.0293 -0.2622 -0.4250
  648SOL    HW2 2591   2.189   0.806   1.192 -0.7703 -0.9020  0.3077
  648SOL     MW 2592   2.215   0.736   1.148 -0.1032 -0.5330  0.9441
  649SOL     OW 2593   2.365   2.702   1.221  0.2453  0.0889  0.7221
  649SOL    HW1 2594   2.449   2.748   1.233 -0.6049 -0.0623  1.1189
  649SOL    HW2 2595   2.391   2.613   1.190 -1.0616  1.6679  0.6629
  649SOL     MW 2596   2.380   2.696   1.219 -0.0393  0.2773  0.7666
  650SOL     OW 2597   2.757   0.228   0.608  0.4395 -0.1008  0.1634
  650SOL    HW1 2598   2.777   0.261   0.698  2.4630 -1.5282  2.3761
  650SOL    HW2 2599   2.840   0.230   0.562  0.1142  1.6342 -1.4141
  650SOL     MW 2600   2.771   0.232   0.614  0.6636 -0.0602  0.2472
  651SOL     OW 2601   2.964   0.319   0.846 -0.3708  0.4412 -0.1834
  651SOL    HW1 2602   3.024   0.341   0.780 -1.8548 -1.3442 -0.7819
  651SOL    HW2 2603   2.926   0.405   0.876  0.6572  2.0869  0.1597
  651SOL     MW 2604   2.967   0.333   0.841 -0.4309  0.4228 -0.2171
  652SOL     OW 2605   2.364   1.417   2.932 -0.3883  0.3120 -0.0568
  652SOL    HW1 2606   2.432   1.446   2.868  0.1252  2.0583 -3.4420
  652SOL    HW2 2607   2.333   1.499   2.969  1.4292 -0.2023  0.0439
  652SOL     MW 2608   2.369   1.432   2.929 -0.0807  0.4745 -0.4902
  653SOL     OW 2609   1.965   0.398   0.370 -0.0942  0.7344 -0.0174
  653SOL    HW1 2610   1.976   0.314   0.333  0.4305  1.5964 -2.4674
  653SOL    HW2 2611   2.045   0.443   0.377 -1.9361  0.0132  2.2019
  653SOL     MW 2612   1.977   0.393   0.366 -0.2680  0.7530 -0.0479
  654SOL     OW 2613   2.463   1.017   0.712  0.0025  0.1592 -0.2776
  654SOL    HW1 2614   2.386   1.016   0.652  1.8293 -0.0384 -1.6399
  654SOL    HW2 2615   2.493   0.924   0.726  1.5081  1.1309  1.5825
  654SOL     MW 2616   2.457   1.005   0.706  0.4422  0.2613 -0.2120
  655SOL     OW 2617   3.039   0.909   0.436 -0.2193 -0.0872  0.0490
  655SOL    HW1 2618   3.061   0.977   0.500 -2.7820 -0.2098  1.2704
  655SOL    HW2 2619   3.002   0.836   0.489 -1.4269  1.3568 -1.4119
  655SOL     MW 2620   3.037   0.908   0.451 -0.7168  0.0872  0.0174
  656SOL     OW 2621   1.961   2.789   1.219 -0.9083 -0.1316  0.1207
  656SOL    HW1 2622   1.975   2.877   1.254  2.6794  1.1968  1.5632
  656SOL    HW2 2623   1.992   2.735   1.285  0.2252 -1.4329 -0.2004
  656SOL     MW 2624   1.967   2.793   1.233 -0.2854 -0.1280  0.2687
  657SOL     OW 2625   0.233   1.535   1.226  0.4290 -0.7815  0.1822
  657SOL    HW1 2626   0.146   1.497   1.223 -0.5933 -0.4086 -2.3124
  657SOL    HW2 2627   0.251   1.565   1.139 -1.7003 -1.8521  0.8961
  657SOL     MW 2628   0.224   1.534   1.214  0.0132 -0.8735 -0.0528
  658SOL     OW 2629   2.701   1.392   0.257  0.1711  0.1168 -0.1450
  658SOL    HW1 2630   2.637   1.341   0.307 -0.8211  1.2205  0.0737
  658SOL    HW2 2631   2.748   1.449   0.317  0.8426 -1.6997 -2.1664
  658SOL     MW 2632   2.699   1.393   0.271  0.1288  0.0228 -0.3829
  659SOL     OW 2633   2.224   1.554   1.039  0.1080  0.0596 -0.2856
  659SOL    HW1 2634   2.316   1.512   1.048  2.8936 -0.4317 -0.1534
  659SOL    HW2 2635   2.217   1.586   1.133 -0.5889 -1.1055 -2.9446
  659SOL     MW 2636   2.235   1.553   1.053  0.3836 -0.1590 -0.6190
  660SOL     OW 2637   2.022   1.544   1.713  0.3991  0.1696  0.0290
  660SOL    HW1 2638   2.021   1.574   1.802 -1.3789 -0.8451 -2.1585
  660SOL    HW2 2639   1.959   1.474   1.714  2.6193  3.9713  1.4064
  660SOL     MW 2640   2.014   1.539   1.725  0.4575  0.5373 -0.0779
  661SOL     OW 2641   2.354   1.127   0.157  0.9866  0.5008  0.2872
  661SOL    HW1 2642   2.419   1.153   0.223 -0.2424  0.6159 -2.1215
  661SOL    HW2 2643   2.334   1.036   0.181 -0.5998 -1.6346  0.5117
  661SOL     MW 2644   2.360   1.118   0.169  0.6151  0.2342 -0.0010
  662SOL     OW 2645   2.533   3.019   0.868  0.2825 -0.4773  0.2593
  662SOL    HW1 2646   2.497   3.099   0.917 -2.4014  0.2052  0.7998
  662SOL    HW2 2647   2.567   3.052   0.784  0.2480  1.5627  1.4219
  662SOL     MW 2648   2.533   3.034   0.863 -0.0762 -0.1181  0.4840
  663SOL     OW 2649   2.805   1.558   0.437  0.4448  0.3137 -0.1962
  663SOL    HW1 2650   2.889   1.588   0.396 -2.6309  2.1304  1.7702
  663SOL    HW2 2651   2.823   1.530   0.528  0.8078 -0.3213  0.2657
  663SOL     MW 2652   2.819   1.558   0.444  0.0869  0.4696  0.1242
  664SOL     OW 2653   2.479   1.578   1.563  0.4296  0.3206 -0.6241
  664SOL    HW1 2654   2.453   1.670   1.559 -0.9302  0.8488  0.0805
  664SOL    HW2 2655   2.403   1.534   1.597 -2.5604  1.2803 -0.4122
  664SOL     MW 2656   2.466   1.584   1.567 -0.1443  0.5169 -0.5032
  665SOL     OW 2657   2.877   0.794   2.035 -0.5022  0.0627  0.0422
  665SOL    HW1 2658   2.885   0.866   1.973 -1.9926  1.2686 -0.8763
  665SOL    HW2 2659   2.957   0.746   2.017  0.6059  1.8710  1.3247
  665SOL     MW 2660   2.889   0.798   2.025 -0.5527  0.4604  0.0903
  666SOL     OW 2661   2.813   2.990   1.685 -0.6395  0.4851 -0.0262
  666SOL    HW1 2662   2.815   3.005   1.591 -1.5389 -2.4292 -0.5792
  666SOL    HW2 2663   2.752   2.917   1.697  1.2360  2.0509 -0.7319
  666SOL     MW 2664   2.805   2.982   1.674 -0.5107  0.3072 -0.1923
  667SOL     OW 2665   1.934   2.695   1.634  0.2835 -0.1582 -0.9304
  667SOL    HW1 2666   1.940   2.620   1.692  1.5817  1.1327 -0.8808
  667SOL    HW2 2667   2.019   2.741   1.647 -0.8213 -1.1191 -1.6021
  667SOL     MW 2668   1.946   2.691   1.643  0.3090 -0.1146 -1.0125
  668SOL     OW 2669   2.738   0.634   0.802  0.2549  0.3535  0.1410
  668SOL    HW1 2670   2.822   0.626   0.852  1.3941 -3.8800  0.5925
  668SOL    HW2 2671   2.675   0.696   0.846  0.7320 -2.9827  0.3175
  668SOL     MW 2672   2.740   0.641   0.815  0.4681 -0.6453  0.2238
  669SOL     OW 2673   0.152   0.924   0.722 -0.2937  0.3566  0.0914
  669SOL    HW1 2674   0.095   0.983   0.778  0.2196 -0.1406  0.1465
  669SOL    HW2 2675   0.237   0.918   0.764  2.5881 -1.3379  2.0740
  669SOL     MW 2676   0.156   0.931   0.735  0.1542  0.0675  0.3602
  670SOL     OW 2677   2.892   0.278   0.249  0.8221 -0.3026 -0.3876
  670SOL    HW1 2678   2.915   0.219   0.176 -0.0316 -0.9674 -0.6664
  670SOL    HW2 2679   2.913   0.365   0.208  0.8887  0.9923 -2.0864
  670SOL     MW 2680   2.898   0.281   0.234  0.7183 -0.2195 -0.6485
  671SOL     OW 2681   2.165   0.007   1.614 -0.4158 -0.1527  0.3463
  671SOL    HW1 2682   2.136   0.034   1.527  0.0514  0.3840 -0.3582
  671SOL    HW2 2683   2.080  -0.021   1.654 -1.6650 -3.9891 -3.3834
  671SOL     MW 2684   2.150   0.007   1.608 -0.5190 -0.5881 -0.2387
  672SOL     OW 2685   1.885   1.709   1.361 -0.2613  0.0068 -0.1207
  672SOL    HW1 2686   1.808   1.742   1.399  1.9904 -3.2267 -2.7671
  672SOL    HW2 2687   1.895   1.764   1.280 -1.6804  1.2237 -0.8148
  672SOL     MW 2688   1.876   1.721   1.356 -0.1514 -0.2593 -0.5614
  673SOL     OW 2689   2.793   1.109   0.471 -0.1964 -0.1621 -0.2394
  673SOL    HW1 2690   2.793   1.023   0.523  1.8684 -1.1694 -2.6133
  673SOL    HW2 2691   2.864   1.159   0.523  0.2030 -0.9581 -0.2262
  673SOL     MW 2692   2.802   1.105   0.484  0.1287 -0.4001 -0.5508
  674SOL     OW 2693   2.466   0.013   1.284  1.1156  0.2596 -0.1439
  674SOL    HW1 2694   2.451   0.057   1.199  1.3273 -1.1814  1.3525
  674SOL    HW2 2695   2.478  -0.077   1.270  0.0051  0.3293  1.2597
  674SOL     MW 2696   2.466   0.007   1.271  0.9970  0.0787  0.2387
  675SOL     OW 2697   2.962   1.056   1.095  0.1078  0.4592 -0.3700
  675SOL    HW1 2698   3.015   1.018   1.169  0.1900  2.6157  3.9251
  675SOL    HW2 2699   3.023   1.059   1.018  1.8267 -1.5984  1.3773
  675SOL     MW 2700   2.977   1.051   1.095  0.3454  0.4722  0.4272
  676SOL     OW 2701   2.823   1.490   1.639 -0.4582 -0.7078 -0.4961
  676SOL    HW1 2702   2.783   1.408   1.627 -2.0086  3.2667  1.5835
  676SOL    HW2 2703   2.883   1.482   1.711 -3.4601  3.6840  2.9680
  676SOL     MW 2704   2.826   1.479   1.647 -1.0588  0.3960  0.2353
  677SOL     OW 2705   2.483   0.842   1.860 -0.0352 -0.3160  0.1452
  677SOL    HW1 2706   2.430   0.826   1.785 -0.7899  1.0470  2.1791
  677SOL    HW2 2707   2.411   0.837   1.933 -1.0178 -2.0091  1.9483
  677SOL     MW 2708   2.466   0.839   1.860 -0.2644 -0.3595  0.6514
  678SOL     OW 2709   2.491   1.582   0.456 -0.6577  0.1968 -0.1636
  678SOL    HW1 2710   2.431   1.648   0.420 -0.8126  0.9460 -0.3274
  678SOL    HW2 2711   2.572   1.604   0.405  0.5595 -1.2594 -1.3966
  678SOL     MW 2712   2.494   1.594   0.445 -0.5175  0.1035 -0.3479
  679SOL     OW 2713   2.409   0.505   1.171  0.0116  0.0793 -0.3673
  679SOL    HW1 2714   2.351   0.430   1.184  2.5787 -0.5309  0.9643
  679SOL    HW2 2715   2.351   0.577   1.140  0.3579  1.3240  0.3414
  679SOL     MW 2716   2.394   0.505   1.169  0.3960  0.1630 -0.0981
  680SOL     OW 2717   2.407   0.261   1.462 -0.0128  0.3428 -0.0782
  680SOL    HW1 2718   2.385   0.247   1.555 -0.3290 -0.6723 -2.6595
  680SOL    HW2 2719   2.421   0.171   1.428  1.1913 -1.7835  0.7288
  680SOL     MW 2720   2.406   0.247   1.470  0.1044 -0.0717 -0.3123
  681SOL     OW 2721   0.287   0.494   1.565  0.3169 -0.0476 -0.0137
  681SOL    HW1 2722   0.295   0.413   1.620  0.6794  1.7364  0.0337
  681SOL    HW2 2723   0.378   0.520   1.555  0.9134  2.3818 -0.0278
  681SOL     MW 2724   0.300   0.487   1.571  0.4435  0.5083 -0.0093
  682SOL     OW 2725   0.101   3.002   1.473  0.0218  0.3029 -0.1387
  682SOL    HW1 2726   0.086   3.086   1.445  3.7783 -2.5955  0.7072
  682SOL    HW2 2727   0.048   2.989   1.554 -0.6200 -4.2864 -0.4398
  682SOL     MW 2728   0.092   3.011   1.480  0.4328 -0.6850 -0.0668
  683SOL     OW 2729   1.978   0.813   3.003  0.5520  0.0377  0.1203
  683SOL    HW1 2730   1.908   0.793   2.939 -1.0112  0.5620 -1.0916
  683SOL    HW2 2731   1.973   0.907   3.026  0.4787  2.1095  0.5008
  683SOL     MW 2732   1.968   0.823   2.998  0.3361  0.3802  0.0106
  684SOL     OW 2733   2.140   1.743   0.798  0.7687 -0.0242  0.5960
  684SOL    HW1 2734   2.045   1.734   0.818 -1.1458  0.6848  0.0133
  684SOL    HW2 2735   2.189   1.675   0.841  1.7684 -0.6742 -0.1682
  684SOL     MW 2736   2.134   1.733   0.806  0.6480 -0.0164  0.4183
  685SOL     OW 2737   2.593   1.748   1.198 -0.8849  0.1553  0.1208
  685SOL    HW1 2738   2.649   1.713   1.265 -2.2893  1.4750  0.4614
  685SOL    HW2 2739   2.575   1.676   1.144 -0.5720 -1.2236  2.0453
  685SOL     MW 2740   2.598   1.734   1.200 -1.0289  0.1475  0.4196
  686SOL     OW 2741   2.946   0.700   1.524  0.6305 -0.0491 -1.0799
  686SOL    HW1 2742   2.944   0.663   1.612  0.6112  1.7684 -0.9598
  686SOL    HW2 2743   3.031   0.677   1.489  0.6138 -0.5897 -0.4244
  686SOL     MW 2744   2.957   0.692   1.531  0.6257  0.1194 -0.9776
  687SOL     OW 2745   2.159   0.330   1.179 -0.1242 -0.4435 -0.0874
  687SOL    HW1 2746   2.142   0.273   1.104 -2.5509 -1.0734 -0.0264
  687SOL    HW2 2747   2.110   0.410   1.168 -0.3584  0.8920 -0.0376
  687SOL     MW 2748   2.150   0.333   1.168 -0.4753 -0.3504 -0.0728
  688SOL     OW 2749   2.349   0.556   1.427 -0.3214  0.6704 -0.7443
  688SOL    HW1 2750   2.330   0.473   1.471  0.8702 -2.2365 -1.2453
  688SOL    HW2 2751   2.371   0.528   1.338  4.0241  3.0386 -1.3001
  688SOL     MW 2752   2.349   0.541   1.421  0.4092  0.5994 -0.8837
  689SOL     OW 2753   2.548   0.758   2.989  0.2866  0.1773 -0.0401
  689SOL    HW1 2754   2.590   0.833   2.952 -0.6295 -0.0131  1.9794
  689SOL    HW2 2755   2.536   0.789   3.084 -1.2764  0.0130  1.1023
  689SOL     MW 2756   2.552   0.772   2.997 -0.0405  0.1305  0.3770
  690SOL     OW 2757   2.030   1.012   1.991  0.3104  0.3768 -0.1001
  690SOL    HW1 2758   2.002   0.915   1.998  0.0105 -0.4915  1.1340
  690SOL    HW2 2759   2.049   1.010   1.896  0.5944 -1.4031 -2.1304
  690SOL     MW 2760   2.029   0.999   1.980  0.3083  0.0274 -0.2052
  691SOL     OW 2761   2.444   0.307   0.831 -0.0409 -0.7357 -0.3417
  691SOL    HW1 2762   2.531   0.344   0.857  0.1427 -3.2258  0.9804
  691SOL    HW2 2763   2.377   0.379   0.826 -2.4148 -1.5992 -1.1016
  691SOL     MW 2764   2.447   0.321   0.834 -0.3299 -1.1782 -0.2675
  692SOL     OW 2765   2.762   1.658   1.421 -0.2624  0.4921 -0.6022
  692SOL    HW1 2766   2.783   1.605   1.499  3.0860 -1.8612 -1.3358
  692SOL    HW2 2767   2.794   1.753   1.441  0.3221 -1.6955 -0.0608
  692SOL     MW 2768   2.769   1.664   1.434  0.2565 -0.1070 -0.6275
  693SOL     OW 2769   2.288   0.425   0.082 -0.1309 -0.7022  0.6104
  693SOL    HW1 2770   2.217   0.356   0.075  0.2201 -2.3683  0.5667
  693SOL    HW2 2771   2.269   0.508   0.029  0.1177 -1.8135  0.4177
  693SOL     MW 2772   2.276   0.427   0.074 -0.0518 -1.0687  0.5792
  694SOL     OW 2773   1.988   1.299   1.210  0.2812 -0.4478 -0.0664
  694SOL    HW1 2774   2.074   1.264   1.198 -0.3487  1.0563 -2.1428
  694SOL    HW2 2775   1.940   1.240   1.266 -0.6055  0.9445 -1.4955
  694SOL     MW 2776   1.993   1.286   1.216  0.0811 -0.0657 -0.5289
  695SOL     OW 2777   3.000   1.492   1.316 -0.4918 -0.1438  0.2632
  695SOL    HW1 2778   2.967   1.454   1.237 -1.5926 -0.4885  0.4500
  695SOL    HW2 2779   2.921   1.543   1.346 -0.2393  1.6996  1.9903
  695SOL     MW 2780   2.985   1.494   1.309 -0.6038  0.0539  0.5157
  696SOL     OW 2781   2.018   1.399   0.923  0.3005  0.1861 -0.0761
  696SOL    HW1 2782   2.070   1.477   0.954  1.6411  2.3912 -4.7519
  696SOL    HW2 2783   2.012   1.349   1.005  0.5081  0.3108  0.2037
  696SOL     MW 2784   2.024   1.403   0.938  0.5048  0.4935 -0.6561
  697SOL     OW 2785   2.880   0.922   2.283 -0.0841  0.0929  0.5041
  697SOL    HW1 2786   2.822   1.002   2.270  1.7819  0.0162 -1.8219
  697SOL    HW2 2787   2.863   0.863   2.213  1.2605 -0.4647  1.9690
  697SOL     MW 2788   2.870   0.925   2.272  0.3395  0.0092  0.3905
  698SOL     OW 2789   2.544   0.390   3.089 -0.1036  0.2344  0.4722
  698SOL    HW1 2790   2.455   0.398   3.129  1.1494  0.6585 -2.0240
  698SOL    HW2 2791   2.584   0.316   3.136  1.7929 -0.3153 -1.7954
  698SOL     MW 2792   2.538   0.381   3.101  0.3120  0.2178 -0.1564
  699SOL     OW 2793   1.842   1.607   2.053 -0.4144 -0.5703 -0.0164
  699SOL    HW1 2794   1.841   1.517   2.090 -0.7359  0.3499 -2.5533
  699SOL    HW2 2795   1.930   1.618   2.014 -1.2527  0.5661 -0.7869
  699SOL     MW 2796   1.853   1.596   2.053 -0.5674 -0.2989 -0.4528
  700SOL     OW 2797   2.727   0.877   1.502 -0.3111  0.6376 -0.3079
  700SOL    HW1 2798   2.712   0.955   1.444  1.8695 -0.3234  0.7949
  700SOL    HW2 2799   2.815   0.836   1.488 -2.3374 -2.8908  1.0254
  700SOL     MW 2800   2.737   0.882   1.493 -0.2908  0.0452  0.0135
  701SOL     OW 2801   1.681   1.275   2.623  0.3818  0.3641  0.1831
  701SOL    HW1 2802   1.778   1.275   2.638 -0.4003 -0.3052  0.5290
  701SOL    HW2 2803   1.643   1.344   2.683 -0.0243  0.8794  0.1777
  701SOL     MW 2804   1.689   1.284   2.633  0.2250  0.3438  0.2280
  702SOL     OW 2805   2.211   0.471   0.804  0.2131 -0.6495  0.0212
  702SOL    HW1 2806   2.175   0.387   0.778  1.2801  2.5207  3.1376
  702SOL    HW2 2807   2.219   0.527   0.726 -0.5187  2.1856  2.2655
  702SOL     MW 2808   2.207   0.467   0.790  0.2573  0.1429  0.7285
  703SOL     OW 2809   2.658   1.279   0.991  0.1587  0.0342  0.4475
  703SOL    HW1 2810   2.663   1.244   0.899 -0.0930 -3.1828  0.2746
  703SOL    HW2 2811   2.659   1.201   1.047  1.1084 -2.3803  0.5953
  703SOL     MW 2812   2.659   1.264   0.986  0.2508 -0.7088  0.4442
  704SOL     OW 2813   0.044   1.272   0.275  0.1375 -0.4199 -0.3499
  704SOL    HW1 2814  -0.039   1.243   0.244 -0.2514  3.3458  1.8589
  704SOL    HW2 2815   0.092   1.193   0.269 -1.9213 -0.6810  2.1266
  704SOL     MW 2816   0.039   1.257   0.270 -0.1854  0.0425  0.2683
  705SOL     OW 2817   2.174   1.596   1.303 -0.5351  0.0889  0.2038
  705SOL    HW1 2818   2.088   1.597   1.339 -1.2212  1.5705  0.5249
  705SOL    HW2 2819   2.219   1.511   1.328  0.8828  3.1834 -0.4379
  705SOL     MW 2820   2.169   1.585   1.311 -0.4386  0.6926  0.1615
  706SOL     OW 2821   3.001   1.245   0.572  0.3358  0.3835 -0.0850
  706SOL    HW1 2822   3.092   1.231   0.540  0.2874  0.7530 -1.7083
  706SOL    HW2 2823   2.977   1.323   0.625 -2.3026 -1.0003 -2.6073
  706SOL     MW 2824   3.010   1.254   0.575 -0.0187  0.2496 -0.6320
  707SOL     OW 2825   2.425   0.112   1.022 -0.5138 -0.0498 -0.1965
  707SOL    HW1 2826   2.442   0.184   0.961 -0.8431  0.2851  2.9129
  707SOL    HW2 2827   2.331   0.113   1.021  0.1623 -1.1408  2.4763
  707SOL     MW 2828   2.415   0.122   1.014 -0.4680 -0.1496  0.5664
  708SOL     OW 2829   2.543   1.533   0.066  0.1529 -0.0761 -0.1283
  708SOL    HW1 2830   2.566   1.485   0.145  0.7085 -1.0446 -0.7461
  708SOL    HW2 2831   2.503   1.469   0.006  1.0390  1.4149  0.8401
  708SOL     MW 2832   2.541   1.518   0.068  0.3431 -0.0071 -0.0821
  709SOL     OW 2833   1.738   1.746   0.121 -0.5071  0.4315 -0.2670
  709SOL    HW1 2834   1.762   1.679   0.065 -0.5786  2.1672  0.0760
  709SOL    HW2 2835   1.663   1.709   0.177  0.3675 -2.7524 -1.0272
  709SOL     MW 2836   1.731   1.733   0.121 -0.4011  0.2404 -0.3220
  710SOL     OW 2837   2.234   1.179   1.175 -0.1801 -0.3659  0.2304
  710SOL    HW1 2838   2.265   1.149   1.088 -2.1611 -2.0927  3.7033
  710SOL    HW2 2839   2.267   1.101   1.232  1.1268 -1.0119 -0.8854
  710SOL     MW 2840   2.243   1.165   1.171 -0.2691 -0.6790  0.5414
  711SOL     OW 2841   2.339   0.205   1.729 -0.3278  0.5697  0.1894
  711SOL    HW1 2842   2.422   0.173   1.776 -2.4701 -1.0576  0.3686
  711SOL    HW2 2843   2.291   0.126   1.695  3.3537 -1.2398 -0.0388
  711SOL     MW 2844   2.344   0.190   1.731 -0.1247  0.1163  0.1830
  712SOL     OW 2845   1.617   0.601   3.085  0.7325 -0.1174 -0.5944
  712SOL    HW1 2846   1.672   0.625   3.009 -0.9337 -1.5683 -0.8485
  712SOL    HW2 2847   1.523   0.617   3.063 -1.6052  1.9211 -1.8099
  712SOL     MW 2848   1.612   0.606   3.072  0.2042 -0.0399 -0.7883
  713SOL     OW 2849   2.587   0.779   1.147 -0.1471  0.2760  0.2788
  713SOL    HW1 2850   2.623   0.685   1.144  1.7703  1.3082  3.0500
  713SOL    HW2 2851   2.558   0.793   1.236 -1.6218 -2.2667 -0.0919
  713SOL     MW 2852   2.588   0.769   1.158 -0.0887  0.0767  0.5955
  714SOL     OW 2853   2.270   0.165   1.999 -0.1454  0.0185 -0.2296
  714SOL    HW1 2854   2.345   0.181   2.054  0.1965 -1.6198 -2.0852
  714SOL    HW2 2855   2.289   0.190   1.907  1.9391 -1.2755  2.1642
  714SOL     MW 2856   2.283   0.170   1.994  0.1748 -0.3684 -0.1586
  715SOL     OW 2857   1.768   1.929   1.711 -0.6232 -0.4474 -0.5539
  715SOL    HW1 2858   1.856   1.901   1.691 -0.1499  0.2336 -0.1857
  715SOL    HW2 2859   1.738   1.861   1.777  0.6737 -1.0532  1.3753
  715SOL     MW 2860   1.776   1.916   1.717 -0.3896 -0.4375 -0.2508
  716SOL     OW 2861   2.284   0.723   0.618  0.4917 -0.0543  1.1429
  716SOL    HW1 2862   2.338   0.708   0.537  2.5892  0.1627 -0.1545
  716SOL    HW2 2863   2.196   0.728   0.571  0.6223 -1.1851  2.1695
  716SOL     MW 2864   2.280   0.722   0.601  0.7857 -0.1749  1.1072
  717SOL     OW 2865   2.840   1.439   2.931 -0.5520  0.1588 -0.3746
  717SOL    HW1 2866   2.926   1.466   2.887  1.5950  1.3640  1.6520
  717SOL    HW2 2867   2.851   1.494   3.008 -0.4775 -2.4092  1.7489
  717SOL     MW 2868   2.853   1.450   2.935 -0.2589 -0.0210  0.1729
  718SOL     OW 2869   2.608   1.437   1.328  0.1437 -0.9812  0.4165
  718SOL    HW1 2870   2.596   1.506   1.392  0.4745 -0.4243  2.4671
  718SOL    HW2 2871   2.628   1.357   1.383 -1.0931 -1.5493  1.4145
  718SOL     MW 2872   2.609   1.435   1.344  0.0242 -0.9827  0.8187
  719SOL     OW 2873   2.162   1.307   0.670  0.5120  0.4335 -0.3753
  719SOL    HW1 2874   2.246   1.352   0.648 -1.1715  4.2342  0.3676
  719SOL    HW2 2875   2.150   1.312   0.766  2.7023  0.5848 -0.6592
  719SOL     MW 2876   2.172   1.314   0.680  0.5789  0.9549 -0.3147
  720SOL     OW 2877   2.893   1.193   0.166 -0.0469  0.2834 -0.2205
  720SOL    HW1 2878   2.873   1.114   0.213 -1.7915  0.2951 -1.4349
  720SOL    HW2 2879   2.809   1.247   0.181  0.3507 -0.5329  1.6342
  720SOL     MW 2880   2.879   1.189   0.174 -0.2246  0.1773 -0.1360
  721SOL     OW 2881   2.496   0.796   1.408 -0.4641 -0.0061 -0.2630
  721SOL    HW1 2882   2.475   0.710   1.438  2.6749  1.5995  0.7000
  721SOL    HW2 2883   2.582   0.799   1.446 -1.4402  0.1326  1.0889
  721SOL     MW 2884   2.504   0.785   1.417 -0.1788  0.2240  0.0424
  722SOL     OW 2885   2.541   1.180   0.355  0.0583 -0.0583 -0.3228
  722SOL    HW1 2886   2.501   1.222   0.431  0.0124 -2.7624  0.9053
  722SOL    HW2 2887   2.626   1.133   0.376  0.2032 -0.7562 -0.4279
  722SOL     MW 2888   2.547   1.179   0.368  0.0714 -0.5072 -0.1746
  723SOL     OW 2889   2.273   1.417   1.684  0.1221  0.5228  0.1420
  723SOL    HW1 2890   2.266   1.379   1.593 -1.3807 -0.6863 -1.2278
  723SOL    HW2 2891   2.187   1.460   1.695  1.2283  0.9470 -2.2129
  723SOL     MW 2892   2.261   1.418   1.674  0.0698  0.4192 -0.3495
  724SOL     OW 2893   2.515   0.372   0.574 -0.5034  0.1545  0.0586
  724SOL    HW1 2894   2.487   0.341   0.665  1.8488  2.4798  1.2508
  724SOL    HW2 2895   2.607   0.339   0.563  0.1340 -0.6527 -3.3912
  724SOL     MW 2896   2.524   0.363   0.585 -0.1090  0.3548 -0.2393
  725SOL     OW 2897   2.690   0.530   1.149  0.0157  0.1700  0.5036
  725SOL    HW1 2898   2.736   0.531   1.231 -3.6034 -1.0249  2.4582
  725SOL    HW2 2899   2.601   0.501   1.188 -2.8780 -1.4667  0.0727
  725SOL     MW 2900   2.685   0.527   1.165 -0.8436 -0.2036  0.7047
  726SOL     OW 2901   2.563   2.381   0.526  0.3840  0.2832 -0.4882
  726SOL    HW1 2902   2.483   2.428   0.487 -3.2118  0.1757  1.4094
  726SOL    HW2 2903   2.552   2.392   0.624 -2.2037 -1.4452 -0.0284
  726SOL     MW 2904   2.551   2.389   0.534 -0.4319  0.0409 -0.1772
  727SOL     OW 2905   2.848   0.308   1.658 -0.3067  0.0964 -0.2918
  727SOL    HW1 2906   2.879   0.309   1.562 -3.3948 -0.8604 -1.3086
  727SOL    HW2 2907   2.760   0.343   1.647  0.6320 -1.9918  0.1517
  727SOL     MW 2908   2.841   0.313   1.644 -0.5903 -0.3054 -0.3674
  728SOL     OW 2909   2.848   1.152   2.991 -0.0094 -0.4679  0.3859
  728SOL    HW1 2910   2.828   1.238   2.949 -2.4263  1.6002  1.7376
  728SOL    HW2 2911   2.876   1.178   3.083 -1.1729 -2.4508 -1.4561
  728SOL     MW 2912   2.849   1.167   2.998 -0.4818 -0.4567  0.3212
  729SOL     OW 2913   2.481   1.471   1.098  0.3263  0.0877  1.1077
  729SOL    HW1 2914   2.529   1.474   1.179 -3.3863  1.8057 -1.1802
  729SOL    HW2 2915   2.521   1.399   1.057  0.7035  1.5352 -0.4160
  729SOL     MW 2916   2.493   1.462   1.103 -0.1137  0.5054  0.6048
  730SOL     OW 2917   2.098   1.182   0.224 -0.3866  0.1160  0.3994
  730SOL    HW1 2918   2.179   1.192   0.175  0.6505 -0.4248 -1.3331
  730SOL    HW2 2919   2.074   1.278   0.240  0.1216  1.0899  0.6384
  730SOL     MW 2920   2.105   1.196   0.220 -0.1827  0.1732  0.2023
  731SOL     OW 2921   2.770   1.782   2.878  0.3517  0.5986 -0.2205
  731SOL    HW1 2922   2.699   1.829   2.835  1.6843  1.0929 -1.1055
  731SOL    HW2 2923   2.817   1.862   2.900 -0.5839 -0.7468  0.8434
  731SOL     MW 2924   2.767   1.799   2.875  0.4041  0.4863 -0.1969
  732SOL     OW 2925   2.238   0.940   1.332  0.5446  0.3940 -0.3341
  732SOL    HW1 2926   2.181   0.954   1.409  2.1382 -0.8059  4.6234
  732SOL    HW2 2927   2.309   0.887   1.358  1.9281 -1.9207 -0.8408
  732SOL     MW 2928   2.240   0.935   1.346  0.9374 -0.0697  0.2532
  733SOL     OW 2929   2.372   2.877   3.015  0.3655  0.3948  0.4701
  733SOL    HW1 2930   2.302   2.931   2.975 -0.4832  0.6996 -0.2240
  733SOL    HW2 2931   2.325   2.796   3.047 -1.4850 -0.6640  2.0764
  733SOL     MW 2932   2.356   2.874   3.014  0.0094  0.2953  0.5904
  734SOL     OW 2933   1.494   0.345   2.485 -0.4453  0.0433 -0.2565
  734SOL    HW1 2934   1.433   0.286   2.529  0.5237 -0.2928 -1.7236
  734SOL    HW2 2935   1.556   0.291   2.422  0.9645 -0.0364 -3.8165
  734SOL     MW 2936   1.494   0.330   2.482 -0.1315 -0.0115 -0.9198
  735SOL     OW 2937   3.017   0.883   2.699  0.5492 -0.1152 -0.9797
  735SOL    HW1 2938   2.951   0.821   2.688  0.9722 -0.9380 -0.6574
  735SOL    HW2 2939   3.004   0.924   2.786 -0.3674 -2.3094 -0.7957
  735SOL     MW 2940   3.007   0.880   2.709  0.4840 -0.5133 -0.9129
  736SOL     OW 2941   0.058   0.608   2.472 -0.3179 -0.0563 -0.0121
  736SOL    HW1 2942   0.116   0.645   2.403  0.1291  0.1692 -0.0392
  736SOL    HW2 2943   0.048   0.512   2.457  0.4274 -2.7813 -1.6707
  736SOL     MW 2944   0.064   0.600   2.461 -0.1606 -0.3861 -0.2345
  737SOL     OW 2945   2.871   0.655   2.537  0.1208  1.0908  0.0295
  737SOL    HW1 2946   2.821   0.596   2.481 -0.1656  3.1974 -0.8733
  737SOL    HW2 2947   2.953   0.661   2.488 -1.1948 -0.1383  0.1799
  737SOL     MW 2948   2.875   0.648   2.523 -0.0906  1.2066 -0.0698
  738SOL     OW 2949   0.161   0.430   1.929  0.4162 -0.6011  0.0544
  738SOL    HW1 2950   0.245   0.463   1.920  1.8550 -2.3329 -2.7527
  738SOL    HW2 2951   0.169   0.370   1.856  0.8617  2.1024 -0.7639
  738SOL     MW 2952   0.173   0.427   1.918  0.6648 -0.4729 -0.4239
  739SOL     OW 2953   2.565   0.992   2.159  0.1017 -0.4657 -0.9473
  739SOL    HW1 2954   2.471   0.984   2.138  1.2478 -1.4094 -1.3090
  739SOL    HW2 2955   2.612   1.028   2.083  3.2042 -0.4404 -0.0908
  739SOL     MW 2956   2.559   0.996   2.146  0.6622 -0.5869 -0.8820
  740SOL     OW 2957   0.240   1.681   2.967 -0.0859 -0.4497 -0.3932
  740SOL    HW1 2958   0.229   1.589   2.947 -0.3092  0.9683  1.3170
  740SOL    HW2 2959   0.329   1.684   2.997  0.0522 -0.5247 -0.9046
  740SOL     MW 2960   0.250   1.670   2.968 -0.0971 -0.2725 -0.2350
  741SOL     OW 2961   2.207   1.241   2.733 -0.1362 -0.1086  0.7279
  741SOL    HW1 2962   2.219   1.337   2.719 -1.2038  0.0198 -0.5652
  741SOL    HW2 2963   2.176   1.236   2.827  0.6938 -1.3906 -0.0581
  741SOL     MW 2964   2.204   1.253   2.743 -0.1676 -0.2608  0.4536
  742SOL     OW 2965   1.629   1.360   2.354  0.7986  0.0842  0.0881
  742SOL    HW1 2966   1.546   1.327   2.317 -0.1303 -0.4767 -0.0804
  742SOL    HW2 2967   1.640   1.324   2.439 -0.8931 -3.7613 -0.3232
  742SOL     MW 2968   1.620   1.351   2.360  0.4528 -0.4972  0.0116
  743SOL     OW 2969   2.517   1.228   2.704  0.5402 -0.1676 -0.0248
  743SOL    HW1 2970   2.425   1.202   2.679 -2.3023  0.1003 -1.9936
  743SOL    HW2 2971   2.553   1.155   2.752 -2.6623  0.0988 -0.4226
  743SOL     MW 2972   2.510   1.215   2.707 -0.2574 -0.0971 -0.3371
  744SOL     OW 2973   2.781   0.922   1.786  0.0474  0.1572 -0.0828
  744SOL    HW1 2974   2.694   0.965   1.790  0.4839  0.1470 -0.9915
  744SOL    HW2 2975   2.786   0.894   1.695  1.5326 -1.6207  1.3013
  744SOL     MW 2976   2.770   0.924   1.775  0.3010 -0.0788 -0.0201
  745SOL     OW 2977   1.733   0.497   2.467 -0.3386  0.2693  0.8671
  745SOL    HW1 2978   1.747   0.490   2.368 -1.0388 -2.9117 -0.1250
  745SOL    HW2 2979   1.667   0.429   2.494  0.7783 -2.8608 -2.2495
  745SOL     MW 2980   1.726   0.487   2.458 -0.2836 -0.5634  0.3250
  746SOL     OW 2981   1.569   1.483   1.711  0.3010  0.4538 -0.2390
  746SOL    HW1 2982   1.635   1.549   1.740  1.2753 -0.4284  1.0524
  746SOL    HW2 2983   1.544   1.449   1.803  0.5119  0.7635  1.4861
  746SOL     MW 2984   1.574   1.487   1.727  0.4574  0.3782  0.1590
  747SOL     OW 2985   2.590   1.125   1.886  0.5406 -0.1809 -0.0821
  747SOL    HW1 2986   2.499   1.120   1.860 -2.0735  1.8076  1.4478
  747SOL    HW2 2987   2.588   1.217   1.917 -1.8015  1.0326  0.9767
  747SOL     MW 2988   2.578   1.137   1.887 -0.1133  0.2416  0.2594
  748SOL     OW 2989   0.111   0.009   1.944 -0.3571  0.1054  0.4942
  748SOL    HW1 2990   0.204   0.021   1.903  0.2962 -1.2320  0.5089
  748SOL    HW2 2991   0.095   0.075   2.015  1.8917  0.8604  2.2454
  748SOL     MW 2992   0.121   0.019   1.948  0.0258  0.0286  0.7272
  749SOL     OW 2993   2.417   0.655   2.763  0.1707  0.0187 -0.0673
  749SOL    HW1 2994   2.408   0.727   2.697 -1.6367  1.0441  1.0861
  749SOL    HW2 2995   2.476   0.700   2.832 -2.6278 -0.7691 -1.1860
  749SOL     MW 2996   2.424   0.671   2.764 -0.4370  0.0501 -0.0628
  750SOL     OW 2997   2.136   3.034   1.980  0.6019  0.4589  0.4835
  750SOL    HW1 2998   2.181   3.120   1.998 -1.0506 -0.9516 -1.2504
  750SOL    HW2 2999   2.201   2.981   1.945 -1.7350  2.8557  1.0555
  750SOL     MW 3000   2.150   3.038   1.978  0.0755  0.5891  0.3302
  751SOL     OW 3001   3.069   0.340   2.465  0.2929 -0.2226 -0.3454
  751SOL    HW1 3002   3.002   0.335   2.390 -3.5317 -1.0186 -1.0858
  751SOL    HW2 3003   3.144   0.296   2.431 -1.1893  1.8274 -2.4602
  751SOL     MW 3004   3.070   0.333   2.451 -0.4073 -0.0571 -0.7221
  752SOL     OW 3005   2.133   0.919   2.777  0.2974 -0.0398 -0.4173
  752SOL    HW1 3006   2.193   0.967   2.832 -1.4825  0.4398 -0.2193
  752SOL    HW2 3007   2.098   0.859   2.841  0.5611  0.1266  0.2127
  752SOL     MW 3008   2.136   0.918   2.793  0.0974  0.0454 -0.3080
  753SOL     OW 3009   2.881   0.303   2.276  0.3558  0.5906 -0.4325
  753SOL    HW1 3010   2.826   0.219   2.277 -0.9793 -1.3073 -1.0651
  753SOL    HW2 3011   2.818   0.375   2.300  1.0323  0.6257  0.4719
  753SOL     MW 3012   2.865   0.301   2.279  0.2689  0.3448 -0.3967
  754SOL     OW 3013   2.246   3.001   2.602  0.5613  0.0571 -0.0939
  754SOL    HW1 3014   2.265   2.981   2.509  0.2962  0.4656 -0.9809
  754SOL    HW2 3015   2.317   2.958   2.656  0.7707 -0.9297 -0.7523
  754SOL     MW 3016   2.258   2.992   2.597  0.5540 -0.0192 -0.2978
  755SOL     OW 3017   2.781   1.616   2.409 -0.3562  0.2479  0.3871
  755SOL    HW1 3018   2.761   1.525   2.443 -0.9910  1.1190 -1.0223
  755SOL    HW2 3019   2.827   1.656   2.481  2.7339 -0.3184  1.1466
  755SOL     MW 3020   2.784   1.609   2.423 -0.0323  0.2881  0.3013
  756SOL     OW 3021   2.172   1.243   3.012  0.0652 -0.2097  0.6472
  756SOL    HW1 3022   2.232   1.310   2.978 -1.5189 -1.5670  0.3286
  756SOL    HW2 3023   2.233   1.170   3.008 -0.5921 -2.4396 -2.6434
  756SOL     MW 3024   2.188   1.242   3.007 -0.2305 -0.6830  0.1710
  757SOL     OW 3025   2.171   0.938   1.755 -0.3471  0.3963 -0.1293
  757SOL    HW1 3026   2.195   0.842   1.740  0.4384  0.1983 -1.3461
  757SOL    HW2 3027   2.147   0.972   1.666 -0.1210 -1.9324  0.1433
  757SOL     MW 3028   2.171   0.930   1.741 -0.2136  0.0629 -0.2539
  758SOL     OW 3029   2.250   1.858   2.617  0.3865 -0.0232  0.2257
  758SOL    HW1 3030   2.257   1.863   2.524  0.9162 -1.0758  2.7171
  758SOL    HW2 3031   2.331   1.817   2.656  3.3220 -0.0356 -1.4246
  758SOL     MW 3032   2.261   1.853   2.610  0.8437 -0.1637  0.3367
  759SOL     OW 3033   1.563   1.454   2.807 -0.3837 -0.4761 -0.1507
  759SOL    HW1 3034   1.580   1.515   2.729 -0.7892 -0.0678 -0.0120
  759SOL    HW2 3035   1.634   1.477   2.858 -2.7783 -0.2089 -1.5969
  759SOL     MW 3036   1.575   1.465   2.803 -0.7531 -0.3869 -0.3232
  760SOL     OW 3037   2.591   1.911   2.727  0.0255 -0.2993 -0.2550
  760SOL    HW1 3038   2.550   1.825   2.706 -1.8325 -0.0591  0.4082
  760SOL    HW2 3039   2.649   1.928   2.656  1.0015 -0.4124 -1.3018
  760SOL     MW 3040   2.593   1.902   2.715 -0.0908 -0.2825 -0.3056
  761SOL     OW 3041   2.244   0.470   2.437 -0.7526  0.6661  0.1754
  761SOL    HW1 3042   2.170   0.416   2.417  0.1685 -1.7902  2.8550
  761SOL    HW2 3043   2.244   0.484   2.532 -1.5832 -2.0671  0.3384
  761SOL     MW 3044   2.234   0.465   2.447 -0.7406 -0.0186  0.5505
  762SOL     OW 3045   0.025   0.182   2.124 -0.1901 -0.1295 -0.1739
  762SOL    HW1 3046  -0.012   0.116   2.182  1.8499  1.2787  1.5419
  762SOL    HW2 3047  -0.051   0.223   2.084 -0.3217 -1.0868 -1.4357
  762SOL     MW 3048   0.010   0.179   2.127  0.0617 -0.0700 -0.1140
  763SOL     OW 3049   2.464   1.197   2.357  0.3531 -0.1080 -0.3405
  763SOL    HW1 3050   2.516   1.120   2.330 -1.2800  2.5175  1.5682
  763SOL    HW2 3051   2.528   1.243   2.409  0.2107  0.2482  0.6341
  763SOL     MW 3052   2.480   1.193   2.360  0.1189  0.2854  0.0400
  764SOL     OW 3053   0.389   0.092   2.833  0.2037 -0.0114  0.8043
  764SOL    HW1 3054   0.315   0.139   2.782 -0.8638 -0.1487 -2.0715
  764SOL    HW2 3055   0.400   0.149   2.909  0.9361  2.9047 -3.6280
  764SOL     MW 3056   0.381   0.106   2.836  0.1595  0.3552 -0.1599
  765SOL     OW 3057   2.729   0.062   2.295 -0.7042  0.2352 -0.2746
  765SOL    HW1 3058   2.713   0.025   2.204 -0.6158 -0.2931 -0.9301
  765SOL    HW2 3059   2.773  -0.006   2.348  2.1751  0.7858  1.2283
  765SOL     MW 3060   2.733   0.048   2.290 -0.3126  0.2381 -0.1628
  766SOL     OW 3061   1.931   3.018   2.158  0.1723  0.6218  0.1298
  766SOL    HW1 3062   2.010   3.024   2.097  3.2343  1.9872 -0.4897
  766SOL    HW2 3063   1.870   2.978   2.097  3.3111 -0.2967  1.4057
  766SOL     MW 3064   1.933   3.014   2.142  0.9905  0.6808  0.2164
  767SOL     OW 3065   2.681   0.644   1.881 -0.0340 -0.2328  0.2923
  767SOL    HW1 3066   2.728   0.720   1.907 -0.5581 -1.0887  2.0171
  767SOL    HW2 3067   2.600   0.687   1.849 -0.4071  1.1432  0.8210
  767SOL     MW 3068   2.676   0.660   1.880 -0.1524 -0.1642  0.5896
  768SOL     OW 3069   0.012   1.490   2.958 -0.6223  0.2885 -0.1103
  768SOL    HW1 3070   0.032   1.509   3.055  0.8367 -0.0830  1.7802
  768SOL    HW2 3071   0.034   1.400   2.949 -1.7162  0.7589 -0.4387
  768SOL     MW 3072   0.017   1.481   2.970 -0.5741  0.3015  0.0958
  769SOL     OW 3073   2.362   0.713   2.306 -0.3878 -0.0376  0.1238
  769SOL    HW1 3074   2.346   0.633   2.349 -0.4298  0.9281 -0.8789
  769SOL    HW2 3075   2.448   0.713   2.274 -0.6750  0.9832 -0.9022
  769SOL     MW 3076   2.372   0.702   2.308 -0.4312  0.2245 -0.1439
  770SOL     OW 3077   0.007   1.558   2.641  0.5480 -0.2423 -0.2766
  770SOL    HW1 3078  -0.089   1.577   2.644  0.0275  0.1019  1.4586
  770SOL    HW2 3079   0.032   1.474   2.680  1.1755 -2.6064 -0.9321
  770SOL     MW 3080  -0.002   1.549   2.646  0.5621 -0.5088 -0.1341
  771SOL     OW 3081   3.063   0.601   1.957  0.0982 -0.0737 -0.0411
  771SOL    HW1 3082   3.017   0.564   1.883 -3.3436 -0.0539  0.6642
  771SOL    HW2 3083   3.136   0.540   1.961  2.2951  0.1789 -0.4254
  771SOL     MW 3084   3.067   0.588   1.948 -0.0661 -0.0378  0.0012
  772SOL     OW 3085   0.015   3.093   2.341 -0.6004 -0.3295  0.3546
  772SOL    HW1 3086  -0.080   3.085   2.366  0.6808  0.6162 -1.3324
  772SOL    HW2 3087   0.050   3.003   2.322 -4.3127 -0.5753 -0.8405
  772SOL     MW 3088   0.007   3.080   2.341 -0.9211 -0.2372 -0.0257
  773SOL     OW 3089   2.477   2.927   2.745  0.0339  0.0579  0.0569
  773SOL    HW1 3090   2.532   2.851   2.717  0.2170 -0.3634 -0.1920
  773SOL    HW2 3091   2.448   2.895   2.831 -0.5170 -1.9509  1.6205
  773SOL     MW 3092   2.480   2.913   2.753 -0.0146 -0.2627  0.2304
  774SOL     OW 3093   2.367   1.160   1.721 -0.2853 -0.2558 -0.1732
  774SOL    HW1 3094   2.328   1.250   1.713 -1.7887 -0.5778  1.4085
  774SOL    HW2 3095   2.286   1.104   1.742 -1.8525 -0.6548 -0.3081
  774SOL     MW 3096   2.351   1.164   1.723 -0.6904 -0.3509  0.0177
  775SOL     OW 3097   2.310   2.881   2.357 -0.7277  0.0406 -0.2197
  775SOL    HW1 3098   2.329   2.969   2.319 -1.2269 -1.1854  1.6356
  775SOL    HW2 3099   2.393   2.841   2.333 -0.5004 -1.2764  0.2216
  775SOL     MW 3100   2.323   2.887   2.349 -0.7636 -0.2950  0.0833
  776SOL     OW 3101   0.131   1.478   0.132 -0.2164  0.3063  0.3224
  776SOL    HW1 3102   0.216   1.432   0.123  0.9653  1.1725 -0.7990
  776SOL    HW2 3103   0.074   1.406   0.159  1.8864 -1.8785  0.9436
  776SOL     MW 3104   0.135   1.462   0.134  0.2170  0.1323  0.2564
  777SOL     OW 3105   2.939   1.138   1.746 -0.2066 -0.0935  0.3247
  777SOL    HW1 3106   2.880   1.188   1.680  1.8259  0.4211  1.9098
  777SOL    HW2 3107   2.879   1.080   1.786  0.1599  2.1450  3.8173
  777SOL     MW 3108   2.923   1.137   1.742  0.1099  0.2697  0.9947
  778SOL     OW 3109   2.924   0.505   2.764 -0.2407 -0.2157 -0.5718
  778SOL    HW1 3110   2.850   0.515   2.823 -2.3922 -3.9935 -1.1763
  778SOL    HW2 3111   2.908   0.557   2.683  0.3870  3.1510  0.1364
  778SOL     MW 3112   2.912   0.513   2.761 -0.4418 -0.2700 -0.5581
  779SOL     OW 3113   2.247   0.432   2.124  0.1407 -0.7619 -0.1016
  779SOL    HW1 3114   2.184   0.470   2.189  0.8493 -2.6446 -1.2813
  779SOL    HW2 3115   2.236   0.343   2.101 -0.0069  0.1749 -0.8966
  779SOL     MW 3116   2.238   0.425   2.129  0.2147 -0.8867 -0.3622
  780SOL     OW 3117   0.180   0.247   2.709 -0.7478 -0.3950  0.1665
  780SOL    HW1 3118   0.106   0.298   2.697  0.0678 -0.7952 -3.1269
  780SOL    HW2 3119   0.254   0.303   2.716 -2.4415  0.7386 -3.3902
  780SOL     MW 3120   0.180   0.261   2.708 -0.8637 -0.2983 -0.7373
  781SOL     OW 3121   3.086   1.281   2.450 -0.4916  0.8002  0.2258
  781SOL    HW1 3122   3.109   1.310   2.363 -1.7218 -0.9526  0.9901
  781SOL    HW2 3123   3.075   1.186   2.435  0.7763 -0.7916  0.7421
  781SOL     MW 3124   3.088   1.272   2.436 -0.4866  0.3589  0.3948
  782SOL     OW 3125   0.690   1.485   0.066  0.3243  0.3612  0.6225
  782SOL    HW1 3126   0.624   1.550   0.041 -3.0554 -0.4363  0.1800
  782SOL    HW2 3127   0.701   1.514   0.156  0.9758  1.8509  0.2670
  782SOL     MW 3128   0.683   1.498   0.074 -0.0356  0.4525  0.5172
  783SOL     OW 3129   2.714   0.488   2.382 -0.6610  0.1434  0.2766
  783SOL    HW1 3130   2.683   0.553   2.321  0.9412 -1.9082 -0.2273
  783SOL    HW2 3131   2.649   0.486   2.455  2.9450 -0.3469  1.4296
  783SOL     MW 3132   2.702   0.497   2.384  0.0262 -0.1920  0.3622
  784SOL     OW 3133   0.207   0.827   2.853  0.3222 -0.5512  0.7943
  784SOL    HW1 3134   0.122   0.853   2.825  2.6631 -1.0535  1.0872
  784SOL    HW2 3135   0.264   0.881   2.802 -2.7505  1.4078  1.0844
  784SOL     MW 3136   0.204   0.838   2.843  0.2256 -0.3590  0.8713
  785SOL     OW 3137   0.389   0.401   2.178 -0.0051 -0.0625  0.4917
  785SOL    HW1 3138   0.394   0.417   2.083  1.3671 -1.8490 -1.3295
  785SOL    HW2 3139   0.313   0.342   2.190  0.2114 -0.7371 -0.4287
  785SOL     MW 3140   0.379   0.395   2.167  0.2045 -0.3872  0.1299
  786SOL     OW 3141   1.864   0.471   0.028  0.1761 -0.9819  0.1791
  786SOL    HW1 3142   1.775   0.501   0.060 -0.8678  0.8862 -0.2492
  786SOL    HW2 3143   1.862   0.487  -0.070 -0.0123 -0.4060 -1.3171
  786SOL     MW 3144   1.852   0.477   0.019  0.0135 -0.6595 -0.0748
  787SOL     OW 3145   2.429   0.191   2.906  0.4001 -0.4835  0.1314
  787SOL    HW1 3146   2.509   0.142   2.889  1.8899 -1.1546  0.1193
  787SOL    HW2 3147   2.453   0.281   2.930  1.4611  1.3466  0.4616
  787SOL     MW 3148   2.443   0.197   2.907  0.7366 -0.3306  0.1734
  788SOL     OW 3149   2.878   2.988   2.436 -0.4400  0.9478 -0.0049
  788SOL    HW1 3150   2.905   2.950   2.519  1.8695  0.5332 -1.6092
  788SOL    HW2 3151   2.876   2.925   2.363  0.5643  0.0684 -1.2122
  788SOL     MW 3152   2.881   2.975   2.437 -0.0028  0.7770 -0.3758
  789SOL     OW 3153   0.116   0.174   0.027 -0.0250 -0.6172 -0.4656
  789SOL    HW1 3154   0.029   0.130   0.033  1.1682  2.2119  1.4913
  789SOL    HW2 3155   0.117   0.204  -0.063  1.0974  2.4310 -0.2877
  789SOL     MW 3156   0.104   0.172   0.016  0.2805  0.1582 -0.1839
  790SOL     OW 3157   3.055   1.003   2.471  0.4098  0.3575 -0.1306
  790SOL    HW1 3158   3.036   0.962   2.555 -2.1287 -0.6155 -4.0268
  790SOL    HW2 3159   2.981   0.967   2.412 -1.1931  1.8663  1.7010
  790SOL     MW 3160   3.043   0.993   2.474 -0.1366  0.4282 -0.4030
  791SOL     OW 3161   2.545   0.441   2.600  0.2677  0.0032 -0.2794
  791SOL    HW1 3162   2.493   0.505   2.662  1.1752 -0.3317  1.6526
  791SOL    HW2 3163   2.580   0.361   2.646 -2.0987 -1.2772  1.3271
  791SOL     MW 3164   2.543   0.439   2.614  0.0752 -0.2099  0.1875
  792SOL     OW 3165   2.441   0.200   2.472 -0.5794 -0.3596  0.0145
  792SOL    HW1 3166   2.415   0.287   2.436  0.9742  2.9512 -0.3009
  792SOL    HW2 3167   2.384   0.180   2.553 -0.9503  0.8843  2.3934
  792SOL     MW 3168   2.430   0.209   2.478 -0.4234  0.2414  0.2868
  793SOL     OW 3169   1.777   1.103   1.990  0.0300  0.2618  0.3595
  793SOL    HW1 3170   1.743   1.074   1.900 -0.8711 -0.2990 -1.6506
  793SOL    HW2 3171   1.862   1.053   1.993 -1.1041 -0.0473 -0.9565
  793SOL     MW 3172   1.784   1.093   1.979 -0.2385  0.1470 -0.0794
  794SOL     OW 3173   1.370   2.320   0.107  0.3949  0.4268 -0.2587
  794SOL    HW1 3174   1.417   2.392   0.065 -3.5431 -4.3226 -0.4230
  794SOL    HW2 3175   1.406   2.301   0.194  0.2208 -1.8007  2.2115
  794SOL     MW 3176   1.381   2.327   0.113 -0.1477 -0.4937  0.0455
  795SOL     OW 3177   2.295   1.079   2.533  0.4234 -0.2730 -0.1231
  795SOL    HW1 3178   2.258   1.130   2.607  0.7902 -1.2329  0.7280
  795SOL    HW2 3179   2.344   1.131   2.470  0.4918 -1.8541  2.2126
  795SOL     MW 3180   2.296   1.093   2.534  0.4808 -0.6082  0.2974
  796SOL     OW 3181   0.250   0.604   2.687 -0.0494  0.2430  0.6902
  796SOL    HW1 3182   0.226   0.676   2.751 -0.0496  2.6516  0.5908
  796SOL    HW2 3183   0.190   0.613   2.609  1.8813  1.8664 -0.1228
  796SOL     MW 3184   0.239   0.615   2.685  0.2053  0.7750  0.5698
  797SOL     OW 3185   2.678   0.208   2.613 -0.7027  0.0343 -0.3694
  797SOL    HW1 3186   2.593   0.193   2.558 -5.1973 -1.0332  1.0882
  797SOL    HW2 3187   2.753   0.219   2.553  0.7890 -0.8591  0.2937
  797SOL     MW 3188   2.677   0.207   2.598 -1.0989 -0.2245 -0.0896
  798SOL     OW 3189   2.377   0.019   2.260 -0.8056  0.6482 -0.3923
  798SOL    HW1 3190   2.401   0.076   2.338  1.4855  1.2849 -0.5374
  798SOL    HW2 3191   2.461  -0.005   2.214 -0.7568 -0.8180  0.2856
  798SOL     MW 3192   2.391   0.023   2.264 -0.4969  0.5387 -0.3220
  799SOL     OW 3193   2.570   2.993   0.106 -0.0987 -0.6785  0.1830
  799SOL    HW1 3194   2.505   2.965   0.046 -0.7351 -0.0094  1.1336
  799SOL    HW2 3195   2.535   2.989   0.196 -0.1734 -2.3732 -1.4564
  799SOL     MW 3196   2.557   2.989   0.110 -0.1925 -0.8139  0.0921
  800SOL     OW 3197   1.937   3.035   1.756  0.1287  0.7249 -0.4501
  800SOL    HW1 3198   1.864   2.971   1.757 -0.9927  0.6821 -0.2714
  800SOL    HW2 3199   1.980   3.033   1.844 -1.0505  0.5511  4.5383
  800SOL     MW 3200   1.933   3.026   1.768 -0.1748  0.6963  0.2316
  801SOL     OW 3201   2.856   1.225   2.609 -0.4337  0.1550 -0.0445
  801SOL    HW1 3202   2.876   1.135   2.575  0.2965 -0.3818 -0.3175
  801SOL    HW2 3203   2.930   1.271   2.571 -1.3519 -1.3458 -0.7315
  801SOL     MW 3204   2.868   1.219   2.599 -0.4585 -0.1139 -0.1712
  802SOL     OW 3205   2.593   1.480   2.792  0.0125  0.7342 -0.1542
  802SOL    HW1 3206   2.579   1.389   2.757 -1.4927 -1.9069  0.4720
  802SOL    HW2 3207   2.663   1.465   2.867  5.0692  0.9948 -0.1969
  802SOL     MW 3208   2.600   1.466   2.797  0.4811  0.4201 -0.0772
  803SOL     OW 3209   2.304   1.390   2.010 -0.4319 -0.2496 -0.1915
  803SOL    HW1 3210   2.269   1.349   2.088  1.6575 -0.9340 -1.0637
  803SOL    HW2 3211   2.259   1.349   1.936 -1.3971  0.5133  0.9439
  803SOL     MW 3212   2.293   1.380   2.011 -0.2836 -0.2392 -0.1567
  804SOL     OW 3213   2.287   0.105   0.036  0.5495 -0.0592  0.1300
  804SOL    HW1 3214   2.205   0.163   0.035 -0.4060  1.2506 -1.9893
  804SOL    HW2 3215   2.346   0.147  -0.036 -1.6470 -2.0070  0.1453
  804SOL     MW 3216   2.284   0.118   0.026  0.1336 -0.1434 -0.1476
  805SOL     OW 3217   2.691   0.857   2.644 -0.3158  0.0614 -0.2605
  805SOL    HW1 3218   2.602   0.868   2.609  0.4129  1.1556 -0.3829
  805SOL    HW2 3219   2.725   0.792   2.580 -0.9587  0.2372  1.6817
  805SOL     MW 3220   2.684   0.850   2.631 -0.3045  0.2290 -0.0204
  806SOL     OW 3221   2.639   0.723   2.241 -1.0173 -0.2334  0.0721
  806SOL    HW1 3222   2.621   0.714   2.148 -0.8473  0.5426  0.4131
  806SOL    HW2 3223   2.622   0.817   2.249  0.4079 -1.1236  1.3433
  806SOL     MW 3224   2.634   0.734   2.229 -0.8069 -0.2485  0.2848
  807SOL     OW 3225   0.052   1.090   2.041  0.1297  0.5475  0.5349
  807SOL    HW1 3226   0.068   0.991   2.038 -0.7590 -1.4423  1.1555
  807SOL    HW2 3227  -0.045   1.100   2.062  1.4218 -0.2594  1.0143
  807SOL     MW 3228   0.041   1.078   2.043  0.1830  0.1785  0.6801
  808SOL     OW 3229   2.658   0.045   2.826  0.5825 -0.4009 -0.3844
  808SOL    HW1 3230   2.592  -0.023   2.791 -1.8605  1.2689  3.3634
  808SOL    HW2 3231   2.689   0.104   2.746 -0.5242  0.9241  1.9831
  808SOL     MW 3232   2.653   0.044   2.810  0.1142 -0.0057  0.4225
  809SOL     OW 3233   2.698   1.347   2.441  0.2469 -0.0309 -0.1705
  809SOL    HW1 3234   2.730   1.302   2.517 -0.5554 -0.3676 -0.9614
  809SOL    HW2 3235   2.756   1.310   2.372 -0.2459 -1.9590  1.8110
  809SOL     MW 3236   2.710   1.337   2.442  0.0760 -0.3297 -0.0134
  810SOL     OW 3237   2.221   1.337   2.264 -0.0862  0.3328  0.6644
  810SOL    HW1 3238   2.278   1.282   2.318 -0.0143 -0.8012  0.3343
  810SOL    HW2 3239   2.135   1.336   2.306  0.2373  0.9049  0.5560
  810SOL     MW 3240   2.217   1.330   2.276 -0.0340  0.2586  0.6066
  811SOL     OW 3241   1.598   0.171   2.315 -0.0558 -0.0402 -0.0307
  811SOL    HW1 3242   1.688   0.143   2.329  1.4699  0.7373 -2.0878
  811SOL    HW2 3243   1.583   0.174   2.219  0.7515 -0.1370  2.3470
  811SOL     MW 3244   1.608   0.167   2.304  0.2520  0.0496  0.0116
  812SOL     OW 3245   1.469   2.857   2.075  0.0328  0.0285  0.0232
  812SOL    HW1 3246   1.564   2.861   2.068 -0.5741  2.7085  0.4719
  812SOL    HW2 3247   1.451   2.829   2.164 -0.4462  0.9314 -0.7350
  812SOL     MW 3248   1.479   2.854   2.085 -0.1105  0.5013 -0.0176
  813SOL     OW 3249   2.006   0.626   2.237 -0.0998 -0.2246 -0.1066
  813SOL    HW1 3250   1.921   0.605   2.211  2.2223 -0.1634  1.0665
  813SOL    HW2 3251   1.996   0.666   2.327 -0.0369 -0.7560 -1.4250
  813SOL     MW 3252   1.994   0.629   2.246  0.2149 -0.2866 -0.1258
  814SOL     OW 3253   2.690   1.229   1.633 -0.2534 -0.5697  0.0680
  814SOL    HW1 3254   2.647   1.203   1.713  0.8346 -1.2508  0.6829
  814SOL    HW2 3255   2.657   1.166   1.565  1.6680 -1.6052 -1.2876
  814SOL     MW 3256   2.680   1.218   1.635  0.1437 -0.7962 -0.0298
  815SOL     OW 3257   2.512   1.755   2.414  0.4003  0.0651 -0.2107
  815SOL    HW1 3258   2.468   1.668   2.382  1.0633 -2.3985 -1.5937
  815SOL    HW2 3259   2.604   1.728   2.399  0.4248 -0.2148  0.1513
  815SOL     MW 3260   2.518   1.740   2.408  0.4910 -0.2969 -0.3454
  816SOL     OW 3261   0.741   0.675   2.773  0.0909  0.4611 -0.8898
  816SOL    HW1 3262   0.757   0.571   2.770  3.2549  1.0979 -0.9744
  816SOL    HW2 3263   0.649   0.711   2.756  1.5092  0.8957 -1.9335
  816SOL     MW 3264   0.731   0.666   2.771  0.6955  0.6025 -1.0387
  817SOL     OW 3265   2.992   1.255   1.449 -0.4059 -0.2780  0.1165
  817SOL    HW1 3266   3.071   1.256   1.512  1.5388 -1.9946  0.4623
  817SOL    HW2 3267   2.994   1.343   1.402 -0.6974  1.6913 -0.8540
  817SOL     MW 3268   3.003   1.267   1.451 -0.1878 -0.2447  0.0341
  818SOL     OW 3269   1.913   1.058   2.634 -0.3940  0.2190 -0.3883
  818SOL    HW1 3270   1.901   0.973   2.584 -1.2104 -0.0837  0.7100
  818SOL    HW2 3271   1.992   1.058   2.679  0.6183  3.2564  0.1012
  818SOL     MW 3272   1.922   1.047   2.633 -0.3682  0.5798 -0.1788
  819SOL     OW 3273   1.964   0.345   2.471  0.0917 -0.3828  0.4433
  819SOL    HW1 3274   1.884   0.405   2.467 -0.2049 -2.1235 -1.5370
  819SOL    HW2 3275   1.996   0.328   2.558 -2.0555 -2.5321 -0.8074
  819SOL     MW 3276   1.958   0.351   2.482 -0.2308 -0.8961  0.0170
  820SOL     OW 3277   2.475   1.686   2.676  0.0267  0.4840 -0.0448
  820SOL    HW1 3278   2.535   1.622   2.719 -0.8121  0.6050 -0.4282
  820SOL    HW2 3279   2.503   1.701   2.584  0.1336  2.1906  2.4954
  820SOL     MW 3280   2.487   1.679   2.669 -0.0699  0.7251  0.2397
  821SOL     OW 3281   2.580   1.383   1.991 -0.2272 -0.3059  0.1485
  821SOL    HW1 3282   2.609   1.462   1.942  0.3571  0.6355 -1.2610
  821SOL    HW2 3283   2.483   1.381   1.987  2.4904  1.2249 -1.9033
  821SOL     MW 3284   2.571   1.393   1.984  0.2085  0.0203 -0.3082
  822SOL     OW 3285   2.923   2.741   1.485 -0.3572 -0.3572 -0.0592
  822SOL    HW1 3286   2.935   2.729   1.578  0.8585  1.6636 -3.8135
  822SOL    HW2 3287   2.882   2.829   1.476  0.3961  1.1364 -0.4729
  822SOL     MW 3288   2.919   2.751   1.496 -0.0974  0.1065 -0.6091
  823SOL     OW 3289   2.360   0.477   1.862  0.1709  0.2358  0.2522
  823SOL    HW1 3290   2.448   0.431   1.844  0.4535  1.1997 -0.4488
  823SOL    HW2 3291   2.346   0.459   1.953 -1.2420 -1.1440 -2.2329
  823SOL     MW 3292   2.370   0.469   1.872  0.0217  0.1809 -0.1682
  824SOL     OW 3293   2.265   1.489   2.647 -0.4632 -0.5289  0.9598
  824SOL    HW1 3294   2.336   1.550   2.628 -1.2257  0.6890  0.5127
  824SOL    HW2 3295   2.183   1.543   2.662 -0.9720 -1.6983  0.8762
  824SOL     MW 3296   2.263   1.504   2.647 -0.6309 -0.5225  0.8898
  825SOL     OW 3297   1.857   2.604   0.237  0.3904 -0.6859  0.1243
  825SOL    HW1 3298   1.835   2.546   0.304 -3.3649  2.9846 -0.5524
  825SOL    HW2 3299   1.930   2.562   0.191 -1.1632 -0.1615 -0.9755
  825SOL     MW 3300   1.864   2.591   0.240 -0.3100 -0.1324 -0.1101
  826SOL     OW 3301   1.812   2.371   0.457 -0.4314 -0.0848 -0.1706
  826SOL    HW1 3302   1.800   2.281   0.493 -0.3496 -0.1390 -3.3515
  826SOL    HW2 3303   1.802   2.429   0.537 -0.7410  0.4429 -0.6087
  826SOL     MW 3304   1.809   2.367   0.472 -0.4615 -0.0224 -0.6481
  827SOL     OW 3305   1.914   2.227   0.792 -0.6638 -0.0324  0.0154
  827SOL    HW1 3306   1.856   2.231   0.716 -1.7017 -1.3534  1.0724
  827SOL    HW2 3307   1.877   2.158   0.857 -2.9171 -1.4375  0.1547
  827SOL     MW 3308   1.901   2.219   0.791 -1.0980 -0.3921  0.1732
  828SOL     OW 3309   0.033   2.638   0.586 -0.0367 -0.1876 -0.3215
  828SOL    HW1 3310   0.130   2.624   0.580  0.5879  0.7378  1.3279
  828SOL    HW2 3311   0.005   2.670   0.500  1.0460 -2.0716 -1.1368
  828SOL     MW 3312   0.042   2.641   0.574  0.1886 -0.3141 -0.2114
  829SOL     OW 3313   2.976   2.927   1.174 -0.2911 -0.0433  0.2801
  829SOL    HW1 3314   2.895   2.914   1.115  0.6359 -0.8714 -0.1490
  829SOL    HW2 3315   3.015   2.844   1.190  0.1828 -1.0967  0.8135
  829SOL     MW 3316   2.971   2.914   1.168 -0.1063 -0.2916  0.2939
  830SOL     OW 3317   2.545   2.840   2.013  0.2564 -0.2556 -0.0789
  830SOL    HW1 3318   2.458   2.804   1.983 -0.0177  2.2113  1.2597
  830SOL    HW2 3319   2.606   2.823   1.940 -2.3469 -0.9750  2.3033
  830SOL     MW 3320   2.541   2.833   2.000 -0.1233 -0.0250  0.4120
  831SOL     OW 3321   2.385   2.429   1.162 -0.4705  0.1842 -0.0685
  831SOL    HW1 3322   2.345   2.389   1.243 -0.1803 -0.5281  0.6491
  831SOL    HW2 3323   2.478   2.417   1.169 -3.1075  0.6104 -0.6514
  831SOL     MW 3324   2.392   2.422   1.174 -0.7801  0.1465 -0.0507
  832SOL     OW 3325   2.344   2.192   1.842  0.1835  0.1175  0.3702
  832SOL    HW1 3326   2.366   2.283   1.859 -1.6121  2.2114  2.8637
  832SOL    HW2 3327   2.415   2.152   1.799  1.0900  0.0120  0.8587
  832SOL     MW 3328   2.356   2.198   1.838  0.0662  0.3798  0.7636
  833SOL     OW 3329   1.740   2.493   0.871 -0.5515 -0.2043  0.3773
  833SOL    HW1 3330   1.648   2.505   0.862  1.5485 -1.0138  2.8480
  833SOL    HW2 3331   1.766   2.571   0.916  0.3679 -4.5705 -4.2940
  833SOL     MW 3332   1.732   2.505   0.875 -0.1531 -0.8872  0.0870
  834SOL     OW 3333   2.097   2.416   0.575 -0.3425 -0.1795  0.3235
  834SOL    HW1 3334   2.016   2.434   0.535 -0.5866 -1.3457  1.7794
  834SOL    HW2 3335   2.149   2.390   0.497 -0.3178 -1.9226 -1.6240
  834SOL     MW 3336   2.093   2.415   0.559 -0.3715 -0.5633  0.2586
  835SOL     OW 3337   1.794   2.575   0.625  0.0857  0.4625  0.2504
  835SOL    HW1 3338   1.759   2.531   0.710 -2.1803  1.4522  4.8648
  835SOL    HW2 3339   1.865   2.613   0.673  0.9380 -1.0503  1.9870
  835SOL     MW 3340   1.799   2.575   0.642 -0.1008  0.3935  1.0884
  836SOL     OW 3341   1.878   2.204   1.576  0.2955 -0.3630  0.2692
  836SOL    HW1 3342   1.964   2.222   1.620  1.4843 -2.2473 -0.5329
  836SOL    HW2 3343   1.816   2.266   1.611  1.2507 -0.3917  0.5149
  836SOL     MW 3344   1.881   2.215   1.587  0.5784 -0.6154  0.1958
  837SOL     OW 3345   2.137   0.200   0.728  0.1758  0.0771 -0.5016
  837SOL    HW1 3346   2.049   0.209   0.686  2.0693 -0.8531  0.8701
  837SOL    HW2 3347   2.208   0.166   0.676 -2.4241  2.1171  0.2626
  837SOL     MW 3348   2.135   0.197   0.715  0.0826  0.2235 -0.2198
  838SOL     OW 3349   2.921   2.030   0.927  0.4797 -0.1749  0.0757
  838SOL    HW1 3350   2.851   1.967   0.942  0.9916 -1.2918  1.7413
  838SOL    HW2 3351   3.000   1.972   0.919  0.6350 -1.3541 -1.6300
  838SOL     MW 3352   2.922   2.014   0.928  0.5677 -0.4779  0.0704
  839SOL     OW 3353   1.534   2.336   1.039  0.2811 -0.0531  0.0013
  839SOL    HW1 3354   1.558   2.399   1.102  0.9980 -1.7181 -0.2383
  839SOL    HW2 3355   1.550   2.245   1.073  0.7448 -2.2575 -1.5457
  839SOL     MW 3356   1.540   2.332   1.052  0.4369 -0.5636 -0.2344
  840SOL     OW 3357   2.360   2.204   2.443  0.0567 -0.0167 -0.2452
  840SOL    HW1 3358   2.319   2.271   2.393  2.7468  2.8435  1.3510
  840SOL    HW2 3359   2.348   2.245   2.535 -0.4221 -1.4579  2.7148
  840SOL     MW 3360   2.353   2.218   2.449  0.3485  0.1705  0.3559
  841SOL     OW 3361   2.062   2.447   0.128  0.1690 -0.2410  0.2213
  841SOL    HW1 3362   2.134   2.499   0.087  0.2638  2.1208  0.2066
  841SOL    HW2 3363   2.087   2.359   0.103 -3.3311 -2.4054 -0.1794
  841SOL     MW 3364   2.075   2.442   0.119 -0.2803 -0.2149  0.1665
  842SOL     OW 3365   2.678   2.080   1.546  0.3461  0.1051  0.0120
  842SOL    HW1 3366   2.635   2.050   1.629 -1.7895 -1.3186 -3.3489
  842SOL    HW2 3367   2.605   2.075   1.485 -0.6266  0.0587 -0.7096
  842SOL     MW 3368   2.663   2.075   1.549 -0.0640 -0.0888 -0.5266
  843SOL     OW 3369   2.671   2.763   1.786  0.2012 -0.3720  0.2921
  843SOL    HW1 3370   2.753   2.732   1.750 -0.1751 -1.4460 -0.3111
  843SOL    HW2 3371   2.600   2.700   1.753 -2.3227 -0.4732 -2.6255
  843SOL     MW 3372   2.673   2.751   1.777 -0.1814 -0.5270 -0.1724
  844SOL     OW 3373   2.665   2.376   1.169 -0.2769  0.0208 -0.5824
  844SOL    HW1 3374   2.713   2.388   1.085  0.3281  2.0215 -1.7740
  844SOL    HW2 3375   2.695   2.450   1.228 -0.7804  4.2673 -2.8998
  844SOL     MW 3376   2.676   2.388   1.166 -0.2635  0.8451 -1.0454
  845SOL     OW 3377   2.854   2.483   0.303 -0.1463  0.7690 -0.0045
  845SOL    HW1 3378   2.818   2.390   0.296  1.4569 -2.4330 -2.6435
  845SOL    HW2 3379   2.860   2.506   0.396 -2.3264 -0.7091 -2.6451
  845SOL     MW 3380   2.850   2.474   0.315 -0.2224  0.1515 -0.7011
  846SOL     OW 3381   1.578   2.875   0.782  0.4529 -0.4447  0.3593
  846SOL    HW1 3382   1.669   2.861   0.816 -0.4632 -0.0078  1.0893
  846SOL    HW2 3383   1.539   2.924   0.858  1.9296 -0.2990  2.1300
  846SOL     MW 3384   1.585   2.879   0.796  0.5269 -0.3678  0.6892
  847SOL     OW 3385   2.634   1.956   0.187 -0.0700 -0.3160  0.4264
  847SOL    HW1 3386   2.716   1.909   0.216  1.6479  1.1442 -0.1958
  847SOL    HW2 3387   2.596   1.911   0.118  0.4193  2.7425  0.1434
  847SOL     MW 3388   2.640   1.944   0.182  0.2212  0.2802  0.3070
  848SOL     OW 3389   2.537   2.128   1.304 -0.2084 -0.3133 -0.2727
  848SOL    HW1 3390   2.604   2.173   1.252 -0.6478 -1.7707 -0.8600
  848SOL    HW2 3391   2.533   2.049   1.251 -0.6601  1.6536  1.1813
  848SOL     MW 3392   2.546   2.123   1.290 -0.3260 -0.2461 -0.1584
  849SOL     OW 3393   1.973   2.680   0.792 -0.2823  0.4448 -0.1464
  849SOL    HW1 3394   2.013   2.611   0.844 -3.0521 -1.4982  1.2455
  849SOL    HW2 3395   2.040   2.697   0.725 -2.8368 -0.2383 -1.5731
  849SOL     MW 3396   1.987   2.673   0.790 -0.9847  0.0983 -0.1510
  850SOL     OW 3397   2.172   1.960   1.678 -0.1882  0.1687  0.0362
  850SOL    HW1 3398   2.092   1.911   1.652 -0.8857 -0.7250 -0.3402
  850SOL    HW2 3399   2.152   2.057   1.667 -0.6020 -0.3898 -1.4108
  850SOL     MW 3400   2.159   1.966   1.674 -0.3348 -0.0229 -0.2044
  851SOL     OW 3401   2.226   2.371   0.319  0.3295  0.4265  0.2097
  851SOL    HW1 3402   2.149   2.397   0.266 -0.0853 -2.1668  1.9322
  851SOL    HW2 3403   2.284   2.446   0.313  0.3983  0.8937 -1.6142
  851SOL     MW 3404   2.223   2.384   0.311  0.2838  0.1460  0.1963
  852SOL     OW 3405   2.321   2.116   0.269 -0.4153  0.0400 -0.9030
  852SOL    HW1 3406   2.280   2.192   0.308 -0.3390  1.0578  0.3936
  852SOL    HW2 3407   2.378   2.158   0.202  0.1998 -0.5835 -1.0300
  852SOL     MW 3408   2.323   2.131   0.265 -0.3240  0.0920 -0.7487
  853SOL     OW 3409   2.430   2.448   1.911 -0.3491  0.1065  0.5155
  853SOL    HW1 3410   2.452   2.478   1.820 -1.2942  1.5163 -1.3326
  853SOL    HW2 3411   2.508   2.444   1.967 -0.0968 -1.2450  0.4120
  853SOL     MW 3412   2.443   2.451   1.907 -0.4405  0.1142  0.2580
  854SOL     OW 3413   2.861   2.217   0.745 -0.3637  0.2073  0.0389
  854SOL    HW1 3414   2.793   2.170   0.698  0.9327 -1.6348 -1.2190
  854SOL    HW2 3415   2.886   2.149   0.812  0.7094 -2.1360 -0.6434
  854SOL     MW 3416   2.855   2.202   0.748 -0.0510 -0.3449 -0.2171
  855SOL     OW 3417   2.720   2.244   0.305 -0.4105 -0.3531 -0.2683
  855SOL    HW1 3418   2.642   2.254   0.369 -3.3794 -0.1973 -2.9186
  855SOL    HW2 3419   2.784   2.187   0.348 -1.0097  1.2208  1.4825
  855SOL     MW 3420   2.718   2.238   0.319 -0.8813 -0.1248 -0.3870
  856SOL     OW 3421   2.197   1.880   0.178  0.4398 -0.1609 -0.3007
  856SOL    HW1 3422   2.111   1.885   0.225  0.2471 -0.7994  0.1352
  856SOL    HW2 3423   2.252   1.948   0.227 -0.0106  0.1001  0.1495
  856SOL     MW 3424   2.193   1.889   0.191  0.3549 -0.2107 -0.1838
  857SOL     OW 3425   2.493   1.905   0.452  0.1473 -0.2413 -0.1363
  857SOL    HW1 3426   2.505   1.929   0.362  1.8155  0.6877  2.8094
  857SOL    HW2 3427   2.400   1.883   0.468  3.0203  1.7362 -0.3355
  857SOL     MW 3428   2.482   1.905   0.442  0.7464  0.1422  0.2261
  858SOL     OW 3429   2.928   2.669   1.758 -0.4957  0.2645 -0.4719
  858SOL    HW1 3430   3.002   2.691   1.814 -1.4171 -1.3277 -1.5064
  858SOL    HW2 3431   2.884   2.593   1.807 -0.2906 -0.8976  0.9158
  858SOL     MW 3432   2.932   2.662   1.771 -0.5902 -0.0989 -0.4253
  859SOL     OW 3433   2.091   2.462   0.909  0.6731  0.3308 -0.2144
  859SOL    HW1 3434   2.039   2.401   0.851  1.6621 -0.2716  0.6871
  859SOL    HW2 3435   2.173   2.418   0.902 -0.5287 -0.7373  2.8016
  859SOL     MW 3436   2.095   2.448   0.901  0.6450  0.1104  0.3025
  860SOL     OW 3437   2.639   2.631   0.182 -0.1677  0.0017  0.0400
  860SOL    HW1 3438   2.704   2.585   0.229 -2.1041  0.8475 -0.2721
  860SOL    HW2 3439   2.680   2.712   0.146 -0.6124  2.4255 -1.4830
  860SOL     MW 3440   2.653   2.636   0.184 -0.4819  0.4331 -0.2021
  861SOL     OW 3441   1.579   2.087   1.159 -0.3383  0.4328  0.2763
  861SOL    HW1 3442   1.638   2.099   1.239 -3.4836 -0.4915  0.5357
  861SOL    HW2 3443   1.516   2.022   1.190 -0.5138  1.2485  0.1620
  861SOL     MW 3444   1.578   2.080   1.173 -0.7765  0.4184  0.2955
  862SOL     OW 3445   2.404   1.856   1.557 -0.2086 -0.5181 -0.3737
  862SOL    HW1 3446   2.321   1.897   1.587  0.8719 -0.1566  0.9154
  862SOL    HW2 3447   2.390   1.835   1.466  1.4510 -1.3251  1.2384
  862SOL     MW 3448   2.391   1.859   1.549  0.1529 -0.5769  0.0091
  863SOL     OW 3449   3.072   1.820   1.165  0.2718 -0.0063 -0.9905
  863SOL    HW1 3450   3.087   1.784   1.253  0.3998  1.0130  0.1190
  863SOL    HW2 3451   3.039   1.912   1.188 -0.5839  0.0509  1.4834
  863SOL     MW 3452   3.070   1.828   1.180  0.1758  0.1357 -0.5177
  864SOL     OW 3453   0.033   1.865   0.916  0.3625 -0.0337 -0.0184
  864SOL    HW1 3454  -0.014   1.820   0.983  0.7055 -0.9707 -0.5041
  864SOL    HW2 3455  -0.007   1.830   0.836 -1.1608  2.5845  0.6722
  864SOL     MW 3456   0.021   1.854   0.914  0.2068  0.1881  0.0086
  865SOL     OW 3457   2.503   2.178   0.072  0.6575 -0.2171  0.3521
  865SOL    HW1 3458   2.559   2.114   0.133 -0.0222 -0.2475  0.4332
  865SOL    HW2 3459   2.485   2.126  -0.011 -2.4640  0.9739  2.3919
  865SOL     MW 3460   2.508   2.163   0.069  0.1560 -0.0640  0.6320
  866SOL     OW 3461   2.713   2.344   1.589 -0.2936  0.6248 -0.0067
  866SOL    HW1 3462   2.707   2.248   1.569  1.0699  0.8341  2.6271
  866SOL    HW2 3463   2.757   2.380   1.515 -0.7945 -0.2173  1.6668
  866SOL     MW 3464   2.718   2.336   1.577 -0.1798  0.5413  0.5616
  867SOL     OW 3465   0.078   2.719   1.863  0.0595  0.5444  0.2271
  867SOL    HW1 3466   0.145   2.734   1.930 -0.3929  0.4925 -1.5445
  867SOL    HW2 3467   0.075   2.804   1.821 -1.4924 -1.5627  0.6397
  867SOL     MW 3468   0.087   2.732   1.866 -0.2050  0.2595  0.0478
  868SOL     OW 3469   2.800   2.538   0.573  0.3274  0.4635 -0.1754
  868SOL    HW1 3470   2.729   2.475   0.571 -0.6377  1.7866 -1.0814
  868SOL    HW2 3471   2.756   2.615   0.540 -1.9988 -1.5585  0.0303
  868SOL     MW 3472   2.785   2.540   0.569 -0.1069  0.3713 -0.2678
  869SOL     OW 3473   1.892   2.342   1.066 -0.0019 -0.4642 -0.3898
  869SOL    HW1 3474   1.969   2.383   1.023  1.8023  0.2907  2.2229
  869SOL    HW2 3475   1.818   2.346   1.006 -3.3081  0.7963 -0.5779
  869SOL     MW 3476   1.892   2.348   1.053 -0.2000 -0.1983 -0.0699
  870SOL     OW 3477   2.282   0.048   0.537 -0.6257 -0.5633  0.1701
  870SOL    HW1 3478   2.330   0.085   0.458  0.4847  2.3167  0.4950
  870SOL    HW2 3479   2.320  -0.036   0.560 -1.4133 -1.9230  0.6049
  870SOL     MW 3480   2.293   0.042   0.530 -0.5831 -0.3627  0.2703
  871SOL     OW 3481   2.452   2.089   0.851  0.1547 -0.7154  0.8642
  871SOL    HW1 3482   2.386   2.051   0.789  2.7669  1.7843 -1.2827
  871SOL    HW2 3483   2.407   2.168   0.893  0.1351 -0.9112 -0.0145
  871SOL     MW 3484   2.438   2.094   0.849  0.4967 -0.4114  0.4650
  872SOL     OW 3485   2.028   2.586   1.380 -0.1511 -0.0818  0.4016
  872SOL    HW1 3486   1.988   2.611   1.464 -1.3755  0.9655 -1.6736
  872SOL    HW2 3487   1.963   2.523   1.343  0.6379 -0.0331 -2.9285
  872SOL     MW 3488   2.014   2.581   1.386 -0.2085  0.0628 -0.3115
  873SOL     OW 3489   2.825   2.058   1.905 -0.1184  0.6608  0.4867
  873SOL    HW1 3490   2.853   2.118   1.978 -0.0763 -0.1172 -2.2959
  873SOL    HW2 3491   2.889   2.077   1.837 -0.7376  0.5272  0.9889
  873SOL     MW 3492   2.837   2.069   1.906 -0.1945  0.5405  0.1858
  874SOL     OW 3493   2.448   1.516   2.322 -0.3869  0.0577  0.6381
  874SOL    HW1 3494   2.386   1.465   2.271  2.8783  0.6499  1.8676
  874SOL    HW2 3495   2.517   1.453   2.333 -0.3017 -0.7119 -0.5036
  874SOL     MW 3496   2.449   1.501   2.317  0.0551  0.0343  0.6496
  875SOL     OW 3497   2.337   2.312   0.931 -0.4777 -0.3642 -0.4665
  875SOL    HW1 3498   2.390   2.386   0.888  1.9903  1.1132 -1.6893
  875SOL    HW2 3499   2.332   2.333   1.025 -0.1127 -1.5134 -1.3630
  875SOL     MW 3500   2.343   2.325   0.938 -0.1039 -0.3209 -0.7461
  876SOL     OW 3501   3.049   2.342   1.330 -0.0971 -0.3921 -0.1704
  876SOL    HW1 3502   3.125   2.359   1.267  1.3375  1.4580 -3.4783
  876SOL    HW2 3503   3.062   2.408   1.391 -0.2881 -1.9678  0.0286
  876SOL     MW 3504   3.060   2.353   1.330  0.0670 -0.3559 -0.5806
  877SOL     OW 3505   3.055   2.766   0.347 -0.1950 -0.4194 -0.8422
  877SOL    HW1 3506   3.038   2.845   0.299 -3.8112 -2.1773 -1.0501
  877SOL    HW2 3507   3.076   2.698   0.281 -2.3395 -1.6999  0.1298
  877SOL     MW 3508   3.056   2.768   0.332 -0.9550 -0.8203 -0.7414
  878SOL     OW 3509   2.349   1.832   1.293 -0.5219 -0.4550 -0.3422
  878SOL    HW1 3510   2.292   1.756   1.295 -0.1598 -1.2995 -1.0339
  878SOL    HW2 3511   2.443   1.809   1.277  1.5330  0.3103 -2.0843
  878SOL     MW 3512   2.354   1.819   1.291 -0.2030 -0.4655 -0.6633
  879SOL     OW 3513   2.775   2.413   0.923  0.4722  0.1350 -0.4300
  879SOL    HW1 3514   2.827   2.480   0.957 -2.4711 -0.2671 -0.4252
  879SOL    HW2 3515   2.827   2.343   0.882 -0.1043  0.6981  1.1972
  879SOL     MW 3516   2.789   2.412   0.922  0.0078  0.1562 -0.2147
  880SOL     OW 3517   2.672   2.018   0.664  0.4638  0.3655  0.0657
  880SOL    HW1 3518   2.612   2.034   0.738 -3.2049 -0.1333  1.0762
  880SOL    HW2 3519   2.611   1.996   0.592 -0.0540  0.4083 -1.4428
  880SOL     MW 3520   2.656   2.017   0.664 -0.0886  0.3054 -0.0000
  881SOL     OW 3521   2.943   2.693   0.769 -0.1912 -0.0362  0.3528
  881SOL    HW1 3522   2.892   2.640   0.703 -1.8413 -1.8322 -2.0185
  881SOL    HW2 3523   3.028   2.700   0.727 -1.1197  0.8971  1.8296
  881SOL     MW 3524   2.947   2.687   0.755 -0.5314 -0.1500  0.2348
  882SOL     OW 3525   2.321   2.774   1.874  0.4982 -0.3550  0.3548
  882SOL    HW1 3526   2.276   2.790   1.792  1.1794  0.0691  1.7651
  882SOL    HW2 3527   2.250   2.729   1.919  1.8641 -1.1701 -0.2969
  882SOL     MW 3528   2.306   2.770   1.869  0.7683 -0.4066  0.4549
  883SOL     OW 3529   2.264   2.234   1.355 -0.2574  0.4327 -0.0983
  883SOL    HW1 3530   2.345   2.188   1.346 -2.5913 -1.2604  1.2225
  883SOL    HW2 3531   2.199   2.185   1.295 -1.0281 -0.3600  0.3087
  883SOL     MW 3532   2.266   2.221   1.346 -0.6670  0.1047  0.1297
  884SOL     OW 3533   1.926   1.847   1.124 -0.1140  0.4461  0.1279
  884SOL    HW1 3534   1.867   1.897   1.067  2.9822  0.8998 -1.7205
  884SOL    HW2 3535   2.016   1.873   1.110  0.8279  0.7073 -1.4570
  884SOL     MW 3536   1.930   1.857   1.114  0.4188  0.5404 -0.3251
  885SOL     OW 3537   2.806   2.409   1.851 -0.5641 -0.3289  0.2530
  885SOL    HW1 3538   2.894   2.368   1.855  0.7975  0.0707  0.3965
  885SOL    HW2 3539   2.770   2.360   1.775 -5.0290  1.8262  0.0596
  885SOL     MW 3540   2.813   2.397   1.842 -0.9736  0.0081  0.2464
  886SOL     OW 3541   2.819   2.533   1.348 -0.1478 -0.1737  0.6013
  886SOL    HW1 3542   2.897   2.504   1.302 -0.0962 -1.2871  0.0343
  886SOL    HW2 3543   2.842   2.602   1.414 -1.3528  3.4915 -0.3887
  886SOL     MW 3544   2.832   2.538   1.350 -0.3000  0.1630  0.3959
  887SOL     OW 3545   2.293   2.616   1.467  0.0119  0.1728  0.1460
  887SOL    HW1 3546   2.319   2.639   1.380  1.4019 -0.6394  1.0861
  887SOL    HW2 3547   2.205   2.584   1.446  2.8031 -2.4272 -1.9703
  887SOL     MW 3548   2.285   2.615   1.453  0.5636 -0.2774 -0.0092
  888SOL     OW 3549   1.797   2.073   1.342 -0.1904  0.1347 -0.6335
  888SOL    HW1 3550   1.873   2.066   1.283 -1.5848 -0.3128 -0.3505
  888SOL    HW2 3551   1.834   2.093   1.430  1.5002 -0.1777 -0.0129
  888SOL     MW 3552   1.812   2.075   1.346 -0.1513  0.0344 -0.5143
  889SOL     OW 3553   2.323   2.062   2.102  0.2421 -0.5961 -0.2623
  889SOL    HW1 3554   2.407   2.063   2.145  0.3569  0.7245  0.6812
  889SOL    HW2 3555   2.323   2.123   2.027  1.8366 -1.7894  0.1876
  889SOL     MW 3556   2.334   2.070   2.098  0.4676 -0.5793 -0.0785
  890SOL     OW 3557   0.113   2.293   0.095  0.4909  0.1708  0.2321
  890SOL    HW1 3558   0.097   2.390   0.090 -1.8526  0.7748  2.0753
  890SOL    HW2 3559   0.092   2.277   0.188  1.7055  0.3102  1.7916
  890SOL     MW 3560   0.108   2.304   0.107  0.3419  0.2689  0.6811
  891SOL     OW 3561   3.051   2.050   1.330 -0.0087 -0.1240  0.0305
  891SOL    HW1 3562   3.147   2.024   1.331  1.5131  1.0915 -1.2198
  891SOL    HW2 3563   3.050   2.140   1.309  0.5604 -1.7444  1.8799
  891SOL     MW 3564   3.064   2.058   1.327  0.2672 -0.1774  0.1095
  892SOL     OW 3565   2.340   2.384   2.977  0.1390  0.3714  0.1736
  892SOL    HW1 3566   2.343   2.308   3.030  1.5943  1.4670  1.0653
  892SOL    HW2 3567   2.417   2.368   2.922  0.1577 -1.7066 -0.3390
  892SOL     MW 3568   2.350   2.372   2.977  0.3335  0.2417  0.2236
  893SOL     OW 3569   1.605   2.527   1.228 -0.1498  0.0989 -0.1162
  893SOL    HW1 3570   1.530   2.555   1.280 -1.1335  0.5818 -0.0563
  893SOL    HW2 3571   1.672   2.481   1.277 -0.2230  3.0103 -1.7823
  893SOL     MW 3572   1.604   2.525   1.241 -0.2893  0.5468 -0.3282
  894SOL     OW 3573   2.864   1.898   0.520 -0.4995  0.2680  0.0938
  894SOL    HW1 3574   2.786   1.930   0.582 -3.4011  1.3112  0.5395
  894SOL    HW2 3575   2.825   1.841   0.456 -0.9177 -3.6147 -1.9683
  894SOL     MW 3576   2.849   1.894   0.520 -0.9375 -0.1066 -0.1195
  895SOL     OW 3577   2.078   2.123   1.186  0.2759  0.4472 -0.1737
  895SOL    HW1 3578   2.040   2.173   1.114  0.3478  0.6980 -0.9421
  895SOL    HW2 3579   2.127   2.055   1.141 -1.2343 -1.1940  1.6349
  895SOL     MW 3580   2.079   2.121   1.170  0.0861  0.2638 -0.0365
  896SOL     OW 3581   2.196   2.823   1.052  0.1268  0.5708  0.0396
  896SOL    HW1 3582   2.263   2.794   1.118 -1.7340  1.7820  1.9216
  896SOL    HW2 3583   2.110   2.798   1.095  0.6467 -0.1362 -0.6303
  896SOL     MW 3584   2.194   2.816   1.067 -0.0501  0.6374  0.1995
  897SOL     OW 3585   2.973   2.946   0.148 -0.4543  0.0267 -0.0091
  897SOL    HW1 3586   3.061   2.924   0.110  1.9312 -0.8942  0.7652
  897SOL    HW2 3587   2.900   2.921   0.094 -0.6969 -0.4989  3.9801
  897SOL     MW 3588   2.975   2.940   0.136 -0.1715 -0.1642  0.6194
  898SOL     OW 3589   2.079   0.178   1.410  0.1389  0.4072  0.0631
  898SOL    HW1 3590   2.045   0.089   1.388  1.0681 -0.1178  2.1469
  898SOL    HW2 3591   2.096   0.228   1.328 -3.1139 -0.1368 -0.8512
  898SOL     MW 3592   2.076   0.173   1.396 -0.1677  0.2662  0.2174
  899SOL     OW 3593   2.886   2.955   0.640 -0.1373  0.1371  0.5678
  899SOL    HW1 3594   2.911   2.888   0.705  1.6090  1.3763  2.5208
  899SOL    HW2 3595   2.806   3.006   0.666 -0.9802 -0.1062 -1.0303
  899SOL     MW 3596   2.878   2.953   0.652 -0.0181  0.2685  0.6146
  900SOL     OW 3597   0.121   2.372   1.127 -0.1287  0.1453 -0.1095
  900SOL    HW1 3598   0.102   2.463   1.100 -2.2477 -0.2592  0.5715
  900SOL    HW2 3599   0.132   2.322   1.045  1.7812  0.3002  0.5733
  900SOL     MW 3600   0.120   2.378   1.112 -0.1563  0.1124  0.0705
  901SOL     OW 3601   1.736   2.799   1.766  0.0096 -0.0931 -0.5069
  901SOL    HW1 3602   1.802   2.751   1.712  0.7722  1.1407 -0.8021
  901SOL    HW2 3603   1.673   2.813   1.694 -4.5283 -0.6528 -1.5583
  901SOL     MW 3604   1.736   2.795   1.749 -0.4885 -0.0041 -0.6845
  902SOL     OW 3605   2.575   2.025   1.796 -0.0036 -0.6105  0.3522
  902SOL    HW1 3606   2.564   1.931   1.824  1.0995 -1.6029 -0.4173
  902SOL    HW2 3607   2.651   2.050   1.850  1.5687  0.1146  0.1652
  902SOL     MW 3608   2.583   2.016   1.807  0.3494 -0.6457  0.2260
  903SOL     OW 3609   1.654   2.776   0.514 -0.2260 -0.0548 -0.1119
  903SOL    HW1 3610   1.696   2.686   0.544  1.1465  0.7847 -0.7070
  903SOL    HW2 3611   1.622   2.828   0.593 -1.6224  0.2836  2.3255
  903SOL     MW 3612   1.655   2.771   0.529 -0.2292  0.1006  0.1312
  904SOL     OW 3613   2.500   2.520   1.665  0.1907  0.2594  0.0068
  904SOL    HW1 3614   2.432   2.578   1.626  2.6798 -0.6840 -0.0096
  904SOL    HW2 3615   2.524   2.452   1.603 -1.3451 -0.0068 -0.5912
  904SOL     MW 3616   2.494   2.519   1.652  0.3165  0.0998 -0.0743
  905SOL     OW 3617   2.344   2.589   2.132 -0.3628  0.2602  0.1199
  905SOL    HW1 3618   2.356   2.532   2.058 -0.2675 -0.3648  0.6931
  905SOL    HW2 3619   2.313   2.531   2.205  0.5558  1.5319  2.4357
  905SOL     MW 3620   2.341   2.574   2.132 -0.2290  0.3455  0.5011
  906SOL     OW 3621   2.509   2.506   0.824 -0.1350 -0.7899 -0.0676
  906SOL    HW1 3622   2.604   2.492   0.840  1.6241 -0.3279  2.4201
  906SOL    HW2 3623   2.494   2.600   0.849 -0.9249 -0.4095 -0.6479
  906SOL     MW 3624   2.520   2.517   0.829 -0.0071 -0.6787  0.1840
  907SOL     OW 3625   2.595   2.858   1.264  0.1889  0.3442 -0.1203
  907SOL    HW1 3626   2.650   2.901   1.329  1.6902  1.0128 -1.1943
  907SOL    HW2 3627   2.644   2.868   1.181  0.2036  0.5632  0.7763
  907SOL     MW 3628   2.609   2.865   1.262  0.3889  0.4613 -0.1437
  908SOL     OW 3629   2.699   2.389   0.023  0.5201  0.4483  0.3440
  908SOL    HW1 3630   2.649   2.313   0.055 -1.3400 -1.2278  0.7141
  908SOL    HW2 3631   2.658   2.458   0.077 -0.4886 -3.9372 -1.0180
  908SOL     MW 3632   2.687   2.388   0.035  0.1416 -0.3515  0.2131
  909SOL     OW 3633   1.632   0.230   1.020 -0.4484 -0.2932 -0.5860
  909SOL    HW1 3634   1.693   0.295   0.988 -0.8318 -0.8461  1.4839
  909SOL    HW2 3635   1.606   0.271   1.106  0.5555  0.4929 -1.1847
  909SOL     MW 3636   1.637   0.244   1.027 -0.3665 -0.2625 -0.3919
  910SOL     OW 3637   2.265   1.726   0.391  0.7404  0.4117 -0.1180
  910SOL    HW1 3638   2.198   1.673   0.429  4.7177 -0.5976  0.5540
  910SOL    HW2 3639   2.235   1.768   0.308 -1.9428  1.4478  1.8665
  910SOL     MW 3640   2.252   1.725   0.385  0.9112  0.4153  0.2325
  911SOL     OW 3641   2.162   2.230   1.631 -0.2752  1.0338  0.2890
  911SOL    HW1 3642   2.231   2.227   1.695  0.3777  1.3565 -2.4068
  911SOL    HW2 3643   2.205   2.219   1.549  1.3444 -0.6245  1.0135
  911SOL     MW 3644   2.177   2.228   1.628  0.0246  0.8576  0.0289
  912SOL     OW 3645   2.878   1.894   1.487  0.3584 -0.2807 -0.0672
  912SOL    HW1 3646   2.931   1.944   1.419  1.9164  0.6199 -1.0720
  912SOL    HW2 3647   2.801   1.949   1.497 -1.2562  0.9973 -0.4966
  912SOL     MW 3648   2.875   1.908   1.479  0.3509  0.0067 -0.2564
  913SOL     OW 3649   2.550   2.954   0.378 -0.5968  0.0926  0.3362
  913SOL    HW1 3650   2.613   2.881   0.385  3.0556  0.6657 -0.3410
  913SOL    HW2 3651   2.460   2.918   0.381 -0.9575 -0.2699 -2.8909
  913SOL     MW 3652   2.546   2.940   0.379 -0.1625  0.1204 -0.1789
  914SOL     OW 3653   2.792   1.624   0.018 -0.5292 -0.1302  0.4462
  914SOL    HW1 3654   2.764   1.683  -0.049  1.3019 -0.1972  4.5796
  914SOL    HW2 3655   2.713   1.588   0.047  1.3995  2.4744 -2.8878
  914SOL     MW 3656   2.778   1.627   0.013 -0.0332  0.2046  0.5517
  915SOL     OW 3657   1.856   0.167   0.214 -0.3837 -0.1998 -0.0961
  915SOL    HW1 3658   1.916   0.115   0.270 -1.9241 -1.4525  1.2853
  915SOL    HW2 3659   1.768   0.132   0.222  1.4962 -1.2204 -0.6635
  915SOL     MW 3660   1.852   0.156   0.223 -0.3389 -0.4998  0.0113
  916SOL     OW 3661   1.823   2.101   1.948  0.1820 -0.2933  0.5137
  916SOL    HW1 3662   1.806   2.198   1.932  1.7642  1.6057 -1.9596
  916SOL    HW2 3663   1.811   2.054   1.866 -0.6606 -1.3977 -0.0387
  916SOL     MW 3664   1.819   2.108   1.935  0.2796 -0.1885  0.1145
  917SOL     OW 3665   2.283   2.322   2.690  0.1676  0.1759  0.4844
  917SOL    HW1 3666   2.262   2.336   2.782 -0.6893 -0.7669  1.9136
  917SOL    HW2 3667   2.268   2.410   2.650 -1.1015 -0.1833 -1.4198
  917SOL     MW 3668   2.278   2.335   2.697 -0.1129  0.0042  0.4217
  918SOL     OW 3669   2.058   1.648   2.662  0.7204  0.4290  0.4006
  918SOL    HW1 3670   2.001   1.672   2.588  0.7432 -0.8492 -1.1135
  918SOL    HW2 3671   2.111   1.726   2.668 -0.5148  0.0836  0.2959
  918SOL     MW 3672   2.058   1.662   2.653  0.5604  0.2148  0.1870
  919SOL     OW 3673   3.059   2.400   2.267 -0.3524 -0.0429  0.2515
  919SOL    HW1 3674   3.002   2.337   2.239  1.4278  3.7951  1.8883
  919SOL    HW2 3675   3.129   2.387   2.207  2.2029 -0.6670 -0.4447
  919SOL     MW 3676   3.061   2.390   2.255  0.2196  0.3812  0.3756
  920SOL     OW 3677   2.761   2.849   0.011  0.2313  0.1407 -0.1721
  920SOL    HW1 3678   2.677   2.897   0.033 -2.1190 -0.2914  1.8252
  920SOL    HW2 3679   2.744   2.771  -0.048  0.6801 -2.2017  1.5140
  920SOL     MW 3680   2.748   2.845   0.006 -0.0196 -0.2254  0.3139
  921SOL     OW 3681   2.526   2.640   2.704  0.1449 -0.9351 -0.2195
  921SOL    HW1 3682   2.592   2.609   2.646  1.0383 -1.4747 -1.2789
  921SOL    HW2 3683   2.516   2.563   2.765 -1.8141  3.7134 -0.4205
  921SOL     MW 3684   2.533   2.626   2.705  0.0043 -0.3929 -0.3858
  922SOL     OW 3685   2.027   2.835   0.267 -0.0012 -0.5783 -0.0881
  922SOL    HW1 3686   1.993   2.854   0.174 -0.6565 -0.5184  2.0755
  922SOL    HW2 3687   1.986   2.745   0.286 -1.7896 -1.8979 -0.3598
  922SOL     MW 3688   2.017   2.825   0.257 -0.3236 -0.7445  0.1615
  923SOL     OW 3689   2.187   2.812   1.624  0.4316  0.3034  0.1063
  923SOL    HW1 3690   2.231   2.755   1.560 -0.5414  0.0432 -0.1269
  923SOL    HW2 3691   2.185   2.902   1.586  2.0319 -1.4500  0.3736
  923SOL     MW 3692   2.193   2.816   1.610  0.5144  0.0377  0.1108
  924SOL     OW 3693   1.150   2.762   2.485  0.2398  0.1753  0.3138
  924SOL    HW1 3694   1.202   2.807   2.415  0.4511  0.7314 -0.8532
  924SOL    HW2 3695   1.212   2.728   2.549  2.2967 -1.0430 -2.0799
  924SOL     MW 3696   1.165   2.764   2.484  0.5391  0.0880 -0.1560
  925SOL     OW 3697   2.980   0.218   2.686 -0.5879 -0.2187  0.0159
  925SOL    HW1 3698   3.014   0.257   2.603 -2.0042 -2.5833  1.8303
  925SOL    HW2 3699   2.919   0.281   2.717  0.4656 -3.1950 -1.8965
  925SOL     MW 3700   2.977   0.231   2.679 -0.6358 -0.9234  0.0030
  926SOL     OW 3701   2.652   2.388   2.083  0.0067  0.0548  0.3762
  926SOL    HW1 3702   2.695   2.454   2.135  1.2762  0.0888  1.1908
  926SOL    HW2 3703   2.723   2.380   2.013  0.8746  1.7681 -1.3729
  926SOL     MW 3704   2.667   2.395   2.080  0.2887  0.2854  0.2529
  927SOL     OW 3705   2.376   0.165   0.295 -0.5571  0.0194 -0.2984
  927SOL    HW1 3706   2.473   0.184   0.289  0.1514 -1.2635 -1.4215
  927SOL    HW2 3707   2.347   0.142   0.211  1.7583 -0.1343  2.4570
  927SOL     MW 3708   2.385   0.164   0.283 -0.1581 -0.1702 -0.0830
  928SOL     OW 3709   2.013   2.510   1.815 -0.4968  0.2367 -0.4948
  928SOL    HW1 3710   2.063   2.453   1.763 -2.1640 -1.6551 -0.5735
  928SOL    HW2 3711   2.060   2.540   1.892  1.8667 -2.4058 -0.3168
  928SOL     MW 3712   2.026   2.506   1.818 -0.4049 -0.3616 -0.4817
  929SOL     OW 3713   2.752   2.347   2.439  0.4023 -0.0010 -0.2507
  929SOL    HW1 3714   2.720   2.265   2.410 -0.2606  1.6304  0.7204
  929SOL    HW2 3715   2.785   2.328   2.529 -0.1017  3.4658 -2.5320
  929SOL     MW 3716   2.752   2.334   2.447  0.2483  0.6717 -0.4236
  930SOL     OW 3717   2.005   2.874   2.642  0.0900 -0.2633  0.1617
  930SOL    HW1 3718   2.039   2.824   2.715  4.3282 -0.7172 -2.4650
  930SOL    HW2 3719   2.087   2.920   2.611 -1.6868  1.4153 -0.7229
  930SOL     MW 3720   2.020   2.873   2.647  0.4148 -0.1018 -0.3016
  931SOL     OW 3721   2.933   2.834   2.176 -0.0474  0.4066  0.6313
  931SOL    HW1 3722   3.028   2.825   2.182 -0.8744 -1.1064  0.1958
  931SOL    HW2 3723   2.920   2.876   2.092 -1.3100 -2.7972 -2.4055
  931SOL     MW 3724   2.944   2.838   2.166 -0.3231 -0.2158  0.1732
  932SOL     OW 3725   2.822   1.919   2.535  0.1460  0.0545  0.5346
  932SOL    HW1 3726   2.906   1.932   2.573  0.8202 -1.4294 -1.0638
  932SOL    HW2 3727   2.836   1.954   2.449  0.8092 -0.4905  3.4304
  932SOL     MW 3728   2.835   1.925   2.529  0.3225 -0.2132  0.7058
  933SOL     OW 3729   2.073   2.804   2.242 -0.0504  0.4082 -0.6954
  933SOL    HW1 3730   2.149   2.832   2.290 -4.2527  1.1586 -0.6868
  933SOL    HW2 3731   2.017   2.878   2.227  3.1132 -0.2554  2.3901
  933SOL     MW 3732   2.076   2.818   2.246 -0.1875  0.4197 -0.2872
  934SOL     OW 3733   1.984   2.674   2.474  0.0305  0.2500 -0.1797
  934SOL    HW1 3734   1.983   2.750   2.529  1.0551 -1.3432  3.5135
  934SOL    HW2 3735   1.997   2.689   2.380  2.8035  1.8039 -2.0424
  934SOL     MW 3736   1.985   2.686   2.469  0.5316  0.2448  0.0618
  935SOL     OW 3737   2.633   1.602   1.793 -0.5224  0.2072 -0.1866
  935SOL    HW1 3738   2.723   1.573   1.765 -0.1841 -0.5860  1.8338
  935SOL    HW2 3739   2.584   1.589   1.718  3.5847  0.8186  2.3083
  935SOL     MW 3740   2.639   1.597   1.779  0.0641  0.1832  0.4091
  936SOL     OW 3741   2.960   2.239   3.068 -0.0090  0.1714 -1.0049
  936SOL    HW1 3742   3.029   2.307   3.092 -1.0764  0.5718  1.0476
  936SOL    HW2 3743   2.883   2.282   3.106  0.3605  0.5401  1.2125
  936SOL     MW 3744   2.959   2.254   3.076 -0.1011  0.2728 -0.4415
  937SOL     OW 3745   1.984   2.210   2.619 -0.0118 -0.8796  0.7903
  937SOL    HW1 3746   2.064   2.157   2.642 -0.2171 -1.1585 -0.9382
  937SOL    HW2 3747   1.987   2.204   2.522  2.3976  0.8738 -0.4991
  937SOL     MW 3748   1.995   2.202   2.609  0.2790 -0.6850  0.3921
  938SOL     OW 3749   2.255   1.844   1.926  0.2073  0.3018 -0.0167
  938SOL    HW1 3750   2.242   1.888   1.843 -0.7678  0.4807  0.0855
  938SOL    HW2 3751   2.242   1.918   1.982 -1.7352 -3.3050 -1.0814
  938SOL     MW 3752   2.252   1.860   1.922 -0.1776 -0.1505 -0.1437
  939SOL     OW 3753   2.809   1.997   2.270  0.1239 -0.2327 -0.3630
  939SOL    HW1 3754   2.824   1.917   2.223 -0.1374  1.4825  1.0312
  939SOL    HW2 3755   2.710   2.009   2.278 -2.2092 -0.5982  0.4674
  939SOL     MW 3756   2.798   1.988   2.265 -0.2184 -0.0546 -0.0695
  940SOL     OW 3757   2.279   0.160   2.686 -0.0566 -0.9472 -0.3839
  940SOL    HW1 3758   2.254   0.070   2.663 -0.0130  1.5517  0.5635
  940SOL    HW2 3759   2.333   0.156   2.770 -0.6779 -0.0511  1.7550
  940SOL     MW 3760   2.283   0.147   2.694 -0.1328 -0.4992  0.0233
  941SOL     OW 3761   0.151   2.372   2.076  0.9962  0.1669  0.1138
  941SOL    HW1 3762   0.218   2.311   2.096  0.9077 -1.8017  0.5563
  941SOL    HW2 3763   0.110   2.339   2.001  0.0519  2.2129 -2.4195
  941SOL     MW 3764   0.155   2.360   2.069  0.8599  0.1771 -0.1620
  942SOL     OW 3765   2.875   2.214   2.154  0.0493 -0.4615  0.7594
  942SOL    HW1 3766   2.801   2.270   2.154  3.6876  2.1349  2.4658
  942SOL    HW2 3767   2.856   2.133   2.208  0.8528 -0.8912 -1.4618
  942SOL     MW 3768   2.863   2.211   2.161  0.6354 -0.1757  0.6915
  943SOL     OW 3769   0.236   2.014   2.327  0.4080 -0.5984 -0.3343
  943SOL    HW1 3770   0.175   2.087   2.360 -0.6943  3.6482 -0.7996
  943SOL    HW2 3771   0.317   2.026   2.379  1.9123 -0.4414 -0.8518
  943SOL     MW 3772   0.238   2.025   2.339  0.4611 -0.0174 -0.4639
  944SOL     OW 3773   2.123   2.664   2.019 -0.0838  0.5290  0.2040
  944SOL    HW1 3774   2.198   2.628   2.068  1.1427 -1.4457 -0.5264
  944SOL    HW2 3775   2.080   2.720   2.083 -1.0552 -1.9766 -0.7486
  944SOL     MW 3776   2.127   2.667   2.034 -0.0501 -0.0622 -0.0180
  945SOL     OW 3777   2.757   2.651   2.937  0.0580  1.0111 -0.4515
  945SOL    HW1 3778   2.703   2.584   2.893 -0.4179  1.2667 -3.0012
  945SOL    HW2 3779   2.825   2.682   2.876 -0.7915  0.6748  1.3724
  945SOL     MW 3780   2.759   2.646   2.923 -0.1169  1.0004 -0.5473
  946SOL     OW 3781   2.555   2.717   2.289  0.2067  0.2357  0.2363
  946SOL    HW1 3782   2.577   2.758   2.206  0.4341  1.8568 -1.3353
  946SOL    HW2 3783   2.496   2.651   2.266 -0.6185  1.0694 -3.5051
  946SOL     MW 3784   2.550   2.713   2.275  0.1278  0.5596 -0.4647
  947SOL     OW 3785   2.051   0.054   0.374 -0.5240 -0.3025 -0.8684
  947SOL    HW1 3786   2.061  -0.040   0.346  2.6918  0.7663  0.9350
  947SOL    HW2 3787   2.120   0.064   0.436  1.0190  0.1781  3.4020
  947SOL     MW 3788   2.062   0.043   0.378  0.1039 -0.0981 -0.0670
  948SOL     OW 3789   1.847   3.093   2.651 -0.0561  0.4507  0.2259
  948SOL    HW1 3790   1.902   3.013   2.638 -0.7946 -0.5748 -1.8865
  948SOL    HW2 3791   1.840   3.123   2.563 -0.2878  1.3910  1.6403
  948SOL     MW 3792   1.853   3.086   2.638 -0.1841  0.4395  0.1338
  949SOL     OW 3793   2.537   2.048   2.299  0.3203 -0.6915  0.4387
  949SOL    HW1 3794   2.513   1.953   2.317  0.0857 -0.0832  0.8597
  949SOL    HW2 3795   2.476   2.092   2.354 -0.2556 -0.8238 -0.5361
  949SOL     MW 3796   2.526   2.041   2.308  0.2134 -0.6287  0.3657
  950SOL     OW 3797   2.232   2.629   3.052 -0.5525 -0.0580 -0.2165
  950SOL    HW1 3798   2.288   2.561   3.017 -1.2940  1.1519 -2.4681
  950SOL    HW2 3799   2.167   2.638   2.980 -1.8452  0.9155  1.0965
  950SOL     MW 3800   2.231   2.621   3.038 -0.8209  0.2301 -0.3404
  951SOL     OW 3801   2.888   2.053   2.863  0.2138  0.0384  0.0457
  951SOL    HW1 3802   2.922   2.121   2.916 -3.9128 -0.5705  0.3346
  951SOL    HW2 3803   2.969   2.028   2.808  1.5285 -0.4929  0.6767
  951SOL     MW 3804   2.903   2.058   2.863 -0.1572 -0.1120  0.1671
  952SOL     OW 3805   3.090   1.635   2.088  0.1084 -0.0871  0.3970
  952SOL    HW1 3806   3.011   1.675   2.049  2.0800 -1.4888 -0.2470
  952SOL    HW2 3807   3.150   1.709   2.112  0.8417 -0.9101  0.3265
  952SOL     MW 3808   3.087   1.650   2.086  0.4653 -0.3806  0.3028
  953SOL     OW 3809   1.926   1.831   2.813 -0.1139 -0.6416  0.4867
  953SOL    HW1 3810   1.844   1.796   2.860 -1.0238  0.1093 -0.2566
  953SOL    HW2 3811   1.940   1.746   2.765  0.3220 -1.9385  1.1885
  953SOL     MW 3812   1.917   1.815   2.813 -0.1764 -0.7137  0.4812
  954SOL     OW 3813   2.420   2.038   2.908 -0.5286  0.8529  0.0965
  954SOL    HW1 3814   2.343   2.054   2.851  0.1275 -2.4928 -1.9591
  954SOL    HW2 3815   2.493   2.000   2.845  1.0957  0.5737 -1.0912
  954SOL     MW 3816   2.420   2.035   2.892 -0.2277  0.3746 -0.3314
  955SOL     OW 3817   1.578   1.626   2.597 -0.0247  0.0649  0.0801
  955SOL    HW1 3818   1.524   1.608   2.520  0.8655 -1.3430  1.2565
  955SOL    HW2 3819   1.651   1.673   2.571 -1.1370  2.5184  0.7626
  955SOL     MW 3820   1.581   1.630   2.584 -0.0540  0.2029  0.3254
  956SOL     OW 3821   2.620   2.426   2.862  0.0175 -0.2921  0.0363
  956SOL    HW1 3822   2.651   2.418   2.956 -1.2585  1.3938 -2.4386
  956SOL    HW2 3823   2.682   2.368   2.818  1.3221  1.2804  1.0356
  956SOL     MW 3824   2.632   2.417   2.868  0.0213  0.1378 -0.1584
  957SOL     OW 3825   2.293   2.820   0.399  0.3355 -0.3951  0.3818
  957SOL    HW1 3826   2.213   2.830   0.355 -0.8953 -0.6685  2.6539
  957SOL    HW2 3827   2.264   2.815   0.494  4.0276  1.8840 -0.6532
  957SOL     MW 3828   2.279   2.820   0.406  0.6602 -0.1305  0.5450
  958SOL     OW 3829   2.027   2.708   2.853 -0.4149  0.0609 -0.1311
  958SOL    HW1 3830   1.998   2.627   2.807 -0.1346 -0.5579 -2.7420
  958SOL    HW2 3831   1.948   2.735   2.893 -0.7691 -1.8033 -2.1984
  958SOL     MW 3832   2.013   2.701   2.852 -0.4247 -0.2667 -0.7484
  959SOL     OW 3833   2.410   2.577   0.355 -0.1659 -0.4253 -0.3517
  959SOL    HW1 3834   2.471   2.600   0.284 -0.4754 -2.8612 -0.1113
  959SOL    HW2 3835   2.367   2.659   0.375 -0.1078 -1.9457  0.3537
  959SOL     MW 3836   2.412   2.591   0.348 -0.1991 -0.9473 -0.2269
  960SOL     OW 3837   1.958   2.447   2.301 -0.3420 -0.7645  0.4988
  960SOL    HW1 3838   1.979   2.356   2.306  0.3007  1.3232 -2.5633
  960SOL    HW2 3839   1.885   2.455   2.355  1.8044  0.2432  0.1581
  960SOL     MW 3840   1.951   2.436   2.309  0.0260 -0.3561  0.0498
  961SOL     OW 3841   2.238   2.421   2.316  0.0216 -0.9830  0.1647
  961SOL    HW1 3842   2.144   2.449   2.311  1.1386 -1.8494 -0.8367
  961SOL    HW2 3843   2.287   2.471   2.381 -1.0337 -1.0257 -2.9984
  961SOL     MW 3844   2.232   2.431   2.324  0.0297 -1.1029 -0.3848
  962SOL     OW 3845   2.180   2.055   2.786 -0.1398  0.7280  0.1668
  962SOL    HW1 3846   2.166   2.008   2.872 -1.8842 -0.0305  1.4615
  962SOL    HW2 3847   2.201   1.982   2.717  0.5823 -1.9919 -1.1133
  962SOL     MW 3848   2.181   2.039   2.788 -0.2747  0.2690  0.1687
  963SOL     OW 3849   1.738   2.529   2.164  0.2079  0.1163 -0.1018
  963SOL    HW1 3850   1.816   2.515   2.212 -2.9324 -1.0540 -0.5535
  963SOL    HW2 3851   1.741   2.483   2.081 -1.1454  0.5215  1.0130
  963SOL     MW 3852   1.749   2.521   2.159 -0.3849  0.0153 -0.0143
  964SOL     OW 3853   1.807   1.991   2.636 -0.0368 -0.1884  0.3729
  964SOL    HW1 3854   1.865   2.069   2.646 -0.4416  1.0577 -0.8538
  964SOL    HW2 3855   1.829   1.929   2.708  0.2092 -1.0063 -2.2974
  964SOL     MW 3856   1.817   1.993   2.647 -0.0578 -0.1319 -0.1413
  965SOL     OW 3857   2.180   2.696   0.630  0.1424  0.5050  0.0266
  965SOL    HW1 3858   2.155   2.604   0.609 -2.7392  0.1114 -1.4025
  965SOL    HW2 3859   2.230   2.700   0.714 -0.8053  0.0736  2.3869
  965SOL     MW 3860   2.184   2.684   0.639 -0.3628  0.3961  0.1495
  966SOL     OW 3861   2.726   2.612   2.518 -0.4514  0.3629 -0.3747
  966SOL    HW1 3862   2.685   2.658   2.443 -0.5968 -0.0667 -1.9064
  966SOL    HW2 3863   2.734   2.525   2.478  0.0562  1.8951 -0.6745
  966SOL     MW 3864   2.721   2.607   2.503 -0.4036  0.5084 -0.6164
  967SOL     OW 3865   2.876   3.027   2.910  0.4362 -0.1963 -0.4088
  967SOL    HW1 3866   2.844   2.952   2.962 -0.8571 -0.0008 -1.1611
  967SOL    HW2 3867   2.786   3.061   2.883  0.1890  2.1899  2.9547
  967SOL     MW 3868   2.860   3.021   2.913  0.2330  0.1443 -0.0643
  968SOL     OW 3869   3.007   2.540   3.002  0.3721 -0.1317  0.1969
  968SOL    HW1 3870   2.905   2.544   2.988  1.0569  1.4985  0.7175
  968SOL    HW2 3871   3.036   2.493   2.926 -2.1402  1.9814  1.5070
  968SOL     MW 3872   2.997   2.534   2.991  0.1309  0.3622  0.4384
  969SOL     OW 3873   1.552   2.119   1.715 -0.5565 -0.7264 -0.4032
  969SOL    HW1 3874   1.622   2.048   1.723 -2.4700  0.2238 -0.5132
  969SOL    HW2 3875   1.525   2.121   1.808 -0.8292 -3.0990  1.3534
  969SOL     MW 3876   1.557   2.110   1.729 -0.8449 -0.9141 -0.1859
  970SOL     OW 3877   1.680   1.705   1.850 -0.5509  0.1387  0.0869
  970SOL    HW1 3878   1.723   1.668   1.926  0.5542  1.7025  0.8091
  970SOL    HW2 3879   1.587   1.703   1.867 -0.4002  0.3385  1.9257
  970SOL     MW 3880   1.674   1.700   1.862 -0.3852  0.3714  0.4248
  971SOL     OW 3881   1.855   0.107   2.380 -0.1437 -0.0013 -0.4880
  971SOL    HW1 3882   1.899   0.088   2.296  0.0928  1.1821  1.5387
  971SOL    HW2 3883   1.886   0.203   2.401  1.4268  1.6662  3.1584
  971SOL     MW 3884   1.865   0.117   2.372  0.0947  0.3748  0.2605
  972SOL     OW 3885   0.250   2.812   2.531  0.5150  0.2258  0.7991
  972SOL    HW1 3886   0.284   2.726   2.531  0.3375 -0.4519 -0.5000
  972SOL    HW2 3887   0.326   2.871   2.544  1.8087 -1.3618 -0.6022
  972SOL     MW 3888   0.265   2.808   2.533  0.6623 -0.0731  0.4428
  973SOL     OW 3889   2.612   3.093   2.059  0.2103 -0.1218 -0.1930
  973SOL    HW1 3890   2.582   3.002   2.053 -0.0605  2.6860  1.7859
  973SOL    HW2 3891   2.626   3.121   1.971 -1.4912 -0.7913  0.3669
  973SOL     MW 3892   2.610   3.085   2.047 -0.0499  0.1603  0.1419
  974SOL     OW 3893   2.068   0.338   2.723  0.1752  0.4978  0.2096
  974SOL    HW1 3894   2.148   0.286   2.717  0.1052  2.3163 -2.0932
  974SOL    HW2 3895   2.003   0.281   2.771  1.5254  0.6287  1.0134
  974SOL     MW 3896   2.070   0.323   2.728  0.3441  0.7550  0.0118
  975SOL     OW 3897   2.295   2.597   2.552 -0.2405  0.3052  0.1272
  975SOL    HW1 3898   2.362   2.623   2.614 -2.8789  1.1592 -0.7673
  975SOL    HW2 3899   2.231   2.666   2.536 -0.3625  0.0448  0.1627
  975SOL     MW 3900   2.296   2.610   2.558 -0.6047  0.3835  0.0139
  976SOL     OW 3901   0.254   0.246   1.723 -0.1546  0.1633  0.9253
  976SOL    HW1 3902   0.293   0.168   1.758 -2.3699  1.0605 -2.7232
  976SOL    HW2 3903   0.162   0.218   1.706 -1.4881 -1.4763 -1.8954
  976SOL     MW 3904   0.247   0.232   1.726 -0.6228  0.0653  0.0717
  977SOL     OW 3905   1.674   2.766   2.470 -0.1864 -0.2513 -0.2232
  977SOL    HW1 3906   1.719   2.676   2.482  1.5742 -0.0106  1.0107
  977SOL    HW2 3907   1.745   2.800   2.414 -0.5249  2.6080 -0.2574
  977SOL     MW 3908   1.689   2.759   2.464  0.0013  0.1577 -0.0649
   3.10000   3.10000   3.10000
