977 TIP4P/2005f water molecules t=   1.89000 step= 1890
 3908
    1SOL     OW    1   0.439   0.773   0.146  0.9987 -0.0910  0.5608
    1SOL    HW1    2   0.443   0.748   0.053  0.2907 -0.9603  0.9920
    1SOL    HW2    3   0.437   0.688   0.185  1.6994  2.2542  2.8894
    1SOL     MW    4   0.439   0.759   0.139  0.9977  0.1037  0.9250
    2SOL     OW    5   0.271   2.997   1.113 -0.1445  0.0206  0.5336
    2SOL    HW1    6   0.323   3.081   1.100  0.8942  0.1193 -0.1777
    2SOL    HW2    7   0.183   3.034   1.111  1.8720  0.6277  1.1978
    2SOL     MW    8   0.266   3.013   1.111  0.2586  0.1138  0.5274
    3SOL     OW    9   2.705   0.338   0.920 -0.2050  0.4277 -0.8301
    3SOL    HW1   10   2.747   0.410   0.888 -2.0225  1.1444 -0.0247
    3SOL    HW2   11   2.687   0.362   1.009 -0.9579 -0.4502  2.9056
    3SOL     MW   12   2.708   0.350   0.928 -0.5442  0.4065 -0.2309
    4SOL     OW   13   2.940   1.736   0.533 -0.5229  0.7462  0.0162
    4SOL    HW1   14   2.919   1.829   0.515  0.4043 -0.2365  0.6118
    4SOL    HW2   15   3.004   1.694   0.468 -0.2321 -1.9027 -0.2287
    4SOL     MW   16   2.945   1.743   0.522 -0.3622  0.2670  0.0625
    5SOL     OW   17   1.620   1.463   0.623  0.0564  0.2179  0.0586
    5SOL    HW1   18   1.655   1.450   0.711  2.0044 -1.3468 -0.7843
    5SOL    HW2   19   1.526   1.496   0.624 -3.4064 -0.7897  1.1385
    5SOL     MW   20   1.612   1.466   0.634 -0.1434 -0.1215  0.0899
    6SOL     OW   21   0.769   1.425   0.608 -0.1530  0.1724  0.1034
    6SOL    HW1   22   0.672   1.416   0.608 -0.7038 -0.4041  0.0691
    6SOL    HW2   23   0.795   1.336   0.629  1.0043  0.8765  0.3651
    6SOL     MW   24   0.760   1.412   0.611 -0.0730  0.1892  0.1334
    7SOL     OW   25   2.002   1.014   0.021  0.5520 -0.8020 -0.2692
    7SOL    HW1   26   2.066   1.084   0.047  1.2940  3.0430  1.5169
    7SOL    HW2   27   1.946   1.000   0.103  0.5366 -0.0443 -1.1707
    7SOL     MW   28   2.003   1.021   0.035  0.6478 -0.1948 -0.1525
    8SOL     OW   29   0.843   1.381   0.982  0.2134 -0.0986 -0.1876
    8SOL    HW1   30   0.895   1.445   1.023 -0.9993 -0.5027  2.4040
    8SOL    HW2   31   0.832   1.325   1.062  2.3722  1.2819 -0.1435
    8SOL     MW   32   0.848   1.382   0.998  0.3382  0.0303  0.1602
    9SOL     OW   33   0.874   0.542   1.283 -0.3429 -0.1396 -0.2419
    9SOL    HW1   34   0.833   0.458   1.264  1.9991  0.0598 -0.5268
    9SOL    HW2   35   0.938   0.511   1.348 -0.9256  2.1407  2.6511
    9SOL     MW   36   0.877   0.527   1.289 -0.1108  0.1876  0.1022
   10SOL     OW   37   0.319   0.821   0.513  0.0593  0.8680  0.1266
   10SOL    HW1   38   0.415   0.846   0.509  1.5270  1.6449 -0.8538
   10SOL    HW2   39   0.287   0.884   0.574 -0.5224 -0.8894 -2.1262
   10SOL     MW   40   0.328   0.832   0.520  0.1762  0.7387 -0.3000
   11SOL     OW   41   0.744   1.104   1.483  0.1049 -0.5304 -0.6608
   11SOL    HW1   42   0.789   1.119   1.568 -0.3970 -0.3857  0.6802
   11SOL    HW2   43   0.770   1.017   1.452 -1.1624 -0.4857  1.7407
   11SOL     MW   44   0.753   1.095   1.490 -0.1285 -0.5054 -0.1670
   12SOL     OW   45  -0.000   1.079   0.911 -0.5770 -0.5458  0.2789
   12SOL    HW1   46   0.039   1.143   0.975 -0.0038  0.9263  0.7158
   12SOL    HW2   47   0.010   1.127   0.824 -1.4695 -2.1162 -1.2662
   12SOL     MW   48   0.006   1.094   0.908 -0.6192 -0.5588  0.1327
   13SOL     OW   49   1.840   1.425   1.296  0.2029  0.3640 -0.2132
   13SOL    HW1   50   1.889   1.357   1.244 -1.8443 -1.5948 -0.3322
   13SOL    HW2   51   1.903   1.498   1.303 -0.1289 -0.2065 -2.6683
   13SOL     MW   52   1.855   1.426   1.290 -0.1110  0.0303 -0.5529
   14SOL     OW   53   0.591   0.261   1.849  0.0551 -0.1421  0.6022
   14SOL    HW1   54   0.640   0.198   1.800 -0.4797  0.1798 -0.9086
   14SOL    HW2   55   0.525   0.297   1.790 -3.9530 -0.9599  0.8919
   14SOL     MW   56   0.588   0.257   1.835 -0.5443 -0.2076  0.4411
   15SOL     OW   57   2.036   0.402   0.953 -0.8769 -0.3648  0.4948
   15SOL    HW1   58   2.050   0.486   0.998  1.4677  0.5537 -1.4821
   15SOL    HW2   59   2.065   0.416   0.857  0.6953  1.5416 -1.0759
   15SOL     MW   60   2.042   0.415   0.946 -0.3601  0.0079  0.0267
   16SOL     OW   61   0.215   1.841   0.262  0.1518  0.0817 -0.0759
   16SOL    HW1   62   0.299   1.785   0.253  0.8681 -2.0286  1.4924
   16SOL    HW2   63   0.251   1.919   0.305  1.1039 -0.2487 -0.6477
   16SOL     MW   64   0.231   1.844   0.266  0.3719 -0.2403  0.0556
   17SOL     OW   65   1.131   0.874   1.396  0.5251 -0.4545 -0.4315
   17SOL    HW1   66   1.155   0.837   1.481 -1.6648 -0.4064 -1.0397
   17SOL    HW2   67   1.031   0.875   1.385 -1.3686 -0.2716  1.9552
   17SOL     MW   68   1.121   0.869   1.406 -0.0137 -0.4240 -0.1969
   18SOL     OW   69   0.012   1.627   0.352 -0.6416  0.0489 -0.5500
   18SOL    HW1   70   0.091   1.684   0.347  0.0398 -2.5667  1.2520
   18SOL    HW2   71  -0.007   1.596   0.264  1.3454 -1.0355  0.4624
   18SOL     MW   72   0.020   1.631   0.340 -0.2895 -0.4393 -0.1787
   19SOL     OW   73   0.075   1.385   0.957  0.3789  0.2088 -0.2359
   19SOL    HW1   74   0.085   1.407   0.862 -0.4557  0.1876 -0.3696
   19SOL    HW2   75  -0.015   1.374   0.971  0.7553 -0.3283 -0.2950
   19SOL     MW   76   0.065   1.387   0.946  0.3185  0.1352 -0.2613
   20SOL     OW   77   0.441   2.116   1.268  0.2561  0.3551 -0.1397
   20SOL    HW1   78   0.404   2.029   1.242 -4.6228 -0.6222 -0.0978
   20SOL    HW2   79   0.395   2.139   1.345 -0.6650 -1.3484 -1.0769
   20SOL     MW   80   0.430   2.107   1.274 -0.5092  0.0014 -0.2579
   21SOL     OW   81   0.565   0.925   0.450 -0.0669  0.1009  0.3033
   21SOL    HW1   82   0.636   0.894   0.502 -2.4990  0.3577 -2.0430
   21SOL    HW2   83   0.605   0.937   0.360  1.3764 -1.0344  2.3769
   21SOL     MW   84   0.579   0.922   0.445 -0.1973 -0.0150  0.2673
   22SOL     OW   85   1.543   0.752   0.957  0.0290  0.8900 -0.2980
   22SOL    HW1   86   1.548   0.724   0.864 -0.4506 -2.0016 -0.1331
   22SOL    HW2   87   1.472   0.811   0.962  0.4583  0.1552 -0.7788
   22SOL     MW   88   1.535   0.756   0.946  0.0223  0.4116 -0.3397
   23SOL     OW   89  -0.004   0.805   0.685  0.1298 -0.0428 -0.4866
   23SOL    HW1   90   0.053   0.745   0.744  0.1252 -2.2305 -0.6449
   23SOL    HW2   91   0.061   0.878   0.665  0.1595  3.6148 -0.3599
   23SOL     MW   92   0.012   0.807   0.690  0.1331  0.1511 -0.4908
   24SOL     OW   93   2.029   2.168   0.070 -0.9450  0.5396 -0.2675
   24SOL    HW1   94   1.990   2.151   0.159  0.5457 -1.1566 -3.3897
   24SOL    HW2   95   2.037   2.077   0.043  3.3093 -0.3064 -0.4457
   24SOL     MW   96   2.025   2.154   0.078 -0.1870  0.2042 -0.7030
   25SOL     OW   97   0.226   1.450   0.383  0.1324 -0.1700 -0.0193
   25SOL    HW1   98   0.154   1.504   0.403 -2.3873  2.8355  1.5065
   25SOL    HW2   99   0.245   1.478   0.301  0.3552  0.3622  1.6655
   25SOL     MW  100   0.219   1.461   0.375 -0.1707  0.2967  0.4043
   26SOL     OW  101   1.946   1.026   0.325 -0.4114 -0.3818  0.4767
   26SOL    HW1  102   1.894   1.061   0.401 -0.8154 -0.9118  0.3218
   26SOL    HW2  103   2.013   1.089   0.297 -0.7335  1.8033 -1.7500
   26SOL     MW  104   1.948   1.039   0.332 -0.5072 -0.1634  0.1624
   27SOL     OW  105   1.845   1.381   0.152 -0.3983 -0.2692  0.2666
   27SOL    HW1  106   1.792   1.459   0.180 -1.7292 -0.6034  2.2424
   27SOL    HW2  107   1.904   1.372   0.227 -0.2120  0.3547 -0.2033
   27SOL     MW  108   1.846   1.390   0.166 -0.5494 -0.2310  0.4653
   28SOL     OW  109   0.440   0.924   2.087 -0.0327 -0.2870  0.4671
   28SOL    HW1  110   0.487   0.899   2.168  0.2650 -0.6348 -0.3567
   28SOL    HW2  111   0.360   0.882   2.095  2.0992 -1.3868 -2.9757
   28SOL     MW  112   0.436   0.915   2.099  0.2879 -0.4780 -0.0958
   29SOL     OW  113   0.171   1.429   0.685 -0.2166  0.3633 -0.1166
   29SOL    HW1  114   0.176   1.517   0.650  0.6188 -1.2882 -1.0397
   29SOL    HW2  115   0.173   1.366   0.613  2.7946 -0.2936  0.8934
   29SOL     MW  116   0.172   1.432   0.671  0.2909  0.0588 -0.1052
   30SOL     OW  117   0.702   1.275   1.229  0.8380  0.3282  0.1079
   30SOL    HW1  118   0.610   1.265   1.268 -1.1534  1.0336 -3.7585
   30SOL    HW2  119   0.749   1.208   1.279 -0.4194 -1.3598  1.2335
   30SOL     MW  120   0.696   1.265   1.241  0.4093  0.1985 -0.2537
   31SOL     OW  121   0.485   0.255   0.180 -0.4422 -0.2103 -0.5157
   31SOL    HW1  122   0.523   0.184   0.230 -0.2869 -2.0860  0.5768
   31SOL    HW2  123   0.460   0.210   0.096 -2.3895  0.9871  1.6639
   31SOL     MW  124   0.486   0.240   0.175 -0.6786 -0.2998 -0.0840
   32SOL     OW  125   2.745   0.999   1.085 -0.6479  0.0883 -0.3644
   32SOL    HW1  126   2.671   0.945   1.128 -0.5192  0.5979  1.0356
   32SOL    HW2  127   2.833   0.952   1.084  2.0411 -2.5603 -2.3096
   32SOL     MW  128   2.746   0.986   1.091 -0.2761 -0.1940 -0.4363
   33SOL     OW  129   1.629   1.254   0.399  0.0444  1.1110 -0.5514
   33SOL    HW1  130   1.717   1.237   0.435  0.2137 -0.3897  2.6476
   33SOL    HW2  131   1.593   1.312   0.467 -1.5574  1.0511 -1.1451
   33SOL     MW  132   1.636   1.260   0.413 -0.1446  0.9051 -0.2077
   34SOL     OW  133   1.140   1.997   1.180  0.1263  0.2159 -0.3298
   34SOL    HW1  134   1.071   2.019   1.241 -1.2132 -0.6932 -1.7193
   34SOL    HW2  135   1.223   1.997   1.220  1.1908  1.3883  3.2006
   34SOL     MW  136   1.142   2.000   1.193  0.0900  0.2506 -0.0473
   35SOL     OW  137   0.334   0.147   1.667  0.4650 -0.4101 -0.2243
   35SOL    HW1  138   0.381   0.108   1.741 -1.3913  0.8654  1.5510
   35SOL    HW2  139   0.300   0.079   1.613  3.2141 -0.4794 -1.5139
   35SOL     MW  140   0.336   0.133   1.669  0.5828 -0.2510 -0.1603
   36SOL     OW  141   1.955   2.013   0.564 -0.2291  0.2616  0.6871
   36SOL    HW1  142   1.954   2.018   0.468  1.1116 -0.4828 -1.6440
   36SOL    HW2  143   1.964   1.929   0.606  1.1326  3.0571  0.2127
   36SOL     MW  144   1.956   2.002   0.557  0.1275  0.5322  0.3169
   37SOL     OW  145   1.725   2.064   0.963 -0.4386 -0.3154 -0.1928
   37SOL    HW1  146   1.664   2.002   0.919  2.5641 -0.9122  2.3443
   37SOL    HW2  147   1.687   2.079   1.053  2.2861  0.2639 -1.9403
   37SOL     MW  148   1.712   2.058   0.969  0.3170 -0.3177 -0.0886
   38SOL     OW  149   2.842   0.970   0.051  0.7973 -0.2228  0.6691
   38SOL    HW1  150   2.883   0.947   0.135  2.1227  2.4045 -1.1691
   38SOL    HW2  151   2.922   0.961  -0.008 -1.7017 -0.8221 -2.2483
   38SOL     MW  152   2.858   0.965   0.055  0.6424  0.0448  0.0416
   39SOL     OW  153   1.529   0.623   0.711 -0.7232 -0.8395 -0.4632
   39SOL    HW1  154   1.508   0.534   0.721 -1.7254  1.0121 -0.7244
   39SOL    HW2  155   1.445   0.667   0.712  2.2335 -0.7825 -2.2453
   39SOL     MW  156   1.515   0.618   0.712 -0.4653 -0.5877 -0.7328
   40SOL     OW  157   1.279   1.882   0.236  0.0305  0.1367 -0.3392
   40SOL    HW1  158   1.314   1.793   0.240  0.9537 -0.6092  0.1242
   40SOL    HW2  159   1.235   1.888   0.318 -1.2068 -0.2943 -0.7308
   40SOL     MW  160   1.278   1.871   0.247 -0.0109 -0.0186 -0.3297
   41SOL     OW  161   0.489   0.497   1.582 -1.0387 -0.3300 -0.4928
   41SOL    HW1  162   0.567   0.557   1.565 -1.9775  2.3255  0.3744
   41SOL    HW2  163   0.410   0.545   1.547 -1.3970  2.4508  2.7035
   41SOL     MW  164   0.489   0.511   1.575 -1.2099  0.3873  0.0434
   42SOL     OW  165   1.248   2.902   1.983  0.3673 -0.3770  0.0656
   42SOL    HW1  166   1.193   2.912   2.062  1.9313  0.7544 -2.8899
   42SOL    HW2  167   1.330   2.844   2.014  1.1730 -1.5438  0.1460
   42SOL     MW  168   1.251   2.895   1.997  0.6799 -0.3817 -0.3137
   43SOL     OW  169   1.386   0.128   1.688  0.2993  0.0915 -0.3237
   43SOL    HW1  170   1.461   0.072   1.698 -1.5439 -0.3342  0.6666
   43SOL    HW2  171   1.302   0.082   1.678 -0.3073 -0.2357  2.5492
   43SOL     MW  172   1.385   0.114   1.688 -0.0239 -0.0079  0.1860
   44SOL     OW  173   1.201   0.841   0.939 -0.0524  0.1657 -0.4505
   44SOL    HW1  174   1.173   0.929   0.963  0.2138  0.4976  0.6041
   44SOL    HW2  175   1.132   0.788   0.977 -0.5122  1.7799  0.6960
   44SOL     MW  176   1.188   0.846   0.947 -0.0780  0.4225 -0.1601
   45SOL     OW  177   1.314   0.775   0.703  0.3232  0.1105  0.5770
   45SOL    HW1  178   1.282   0.792   0.794 -0.6641 -3.8770  2.3334
   45SOL    HW2  179   1.244   0.719   0.655 -0.4026 -2.6911 -1.8480
   45SOL     MW  180   1.301   0.770   0.709  0.0972 -0.7852  0.4888
   46SOL     OW  181   0.431   1.118   0.679  0.4985 -0.0404  0.4812
   46SOL    HW1  182   0.464   1.152   0.596 -0.2147 -1.6281 -2.3158
   46SOL    HW2  183   0.416   1.198   0.738  0.7276  0.6927 -0.2316
   46SOL     MW  184   0.434   1.133   0.676  0.4347 -0.1532  0.0182
   47SOL     OW  185   0.147   2.008   1.930  0.7457  1.1661 -0.5046
   47SOL    HW1  186   0.121   1.922   1.896  0.5072 -1.7481 -1.8463
   47SOL    HW2  187   0.181   1.986   2.019  1.2672 -0.0298 -2.2647
   47SOL     MW  188   0.148   1.994   1.937  0.7830  0.6238 -0.9139
   48SOL     OW  189   1.286   0.491   1.060 -0.0299  0.3663 -0.3374
   48SOL    HW1  190   1.250   0.453   0.980 -1.0105 -0.4430  1.0449
   48SOL    HW2  191   1.225   0.554   1.096  1.6446  0.0044 -0.0212
   48SOL     MW  192   1.273   0.495   1.054  0.0617  0.2118 -0.1133
   49SOL     OW  193   1.716   0.708   1.531  0.5816  0.0139 -0.4170
   49SOL    HW1  194   1.766   0.665   1.605  0.7966 -1.3643  0.0299
   49SOL    HW2  195   1.761   0.677   1.450  3.8228 -2.5340  0.6763
   49SOL     MW  196   1.728   0.698   1.530  1.0376 -0.5041 -0.2138
   50SOL     OW  197   1.296   1.233   0.603 -0.8844  0.9593 -0.9435
   50SOL    HW1  198   1.211   1.212   0.650  4.1084 -0.0300 -0.9108
   50SOL    HW2  199   1.351   1.153   0.604 -0.3402 -0.4797  0.6049
   50SOL     MW  200   1.292   1.220   0.610 -0.1538  0.6389 -0.7349
   51SOL     OW  201   0.343   2.917   0.854 -0.3451 -0.1302  0.0258
   51SOL    HW1  202   0.425   2.865   0.856  0.9652 -0.6344  1.0027
   51SOL    HW2  203   0.313   2.922   0.946 -0.2914  3.5238  0.5389
   51SOL     MW  204   0.350   2.911   0.866 -0.1652  0.2854  0.2224
   52SOL     OW  205   0.811   1.851   0.460 -0.1938  0.1438 -0.5874
   52SOL    HW1  206   0.787   1.941   0.480 -0.1359 -0.4575  0.9997
   52SOL    HW2  207   0.831   1.833   0.366  0.9698 -0.5244 -0.8685
   52SOL     MW  208   0.811   1.860   0.450 -0.0326 -0.0237 -0.4151
   53SOL     OW  209   0.478   2.153   0.599  0.1335  0.1523  0.6679
   53SOL    HW1  210   0.411   2.113   0.540 -0.2521 -0.2936  0.5024
   53SOL    HW2  211   0.468   2.248   0.581  0.4358 -0.7485  1.8687
   53SOL     MW  212   0.467   2.160   0.589  0.1225 -0.0254  0.8045
   54SOL     OW  213   2.041   0.980   0.692 -0.0087 -0.4365 -0.5115
   54SOL    HW1  214   2.108   0.952   0.634  0.0544 -0.0550  0.6417
   54SOL    HW2  215   1.990   0.898   0.699 -2.4508  0.0346 -0.4347
   54SOL     MW  216   2.043   0.966   0.686 -0.3226 -0.3240 -0.3492
   55SOL     OW  217   0.432   1.534   1.720  0.0192 -0.1073 -0.3452
   55SOL    HW1  218   0.381   1.576   1.644 -1.4684  0.9938 -1.5101
   55SOL    HW2  219   0.517   1.509   1.682  2.4867  1.5000 -0.2836
   55SOL     MW  220   0.436   1.536   1.705  0.1485  0.2501 -0.4908
   56SOL     OW  221   0.654   0.899   0.192 -0.0942 -0.3381  0.0694
   56SOL    HW1  222   0.643   0.977   0.134 -0.4524 -0.0609  1.3336
   56SOL    HW2  223   0.574   0.846   0.192  0.4179  1.0105  1.5952
   56SOL     MW  224   0.642   0.902   0.184 -0.0739 -0.1236  0.4375
   57SOL     OW  225   1.100   1.337   1.191  0.0544  0.2027  0.0237
   57SOL    HW1  226   1.197   1.359   1.193 -1.8018 -0.5487  1.5118
   57SOL    HW2  227   1.079   1.286   1.272 -0.0123  3.1884  2.0539
   57SOL     MW  228   1.110   1.333   1.202 -0.1993  0.4975  0.4879
   58SOL     OW  229   0.447   1.252   1.294 -0.5364  0.0129  0.4684
   58SOL    HW1  230   0.433   1.348   1.316  0.4841  0.1559 -1.0597
   58SOL    HW2  231   0.455   1.202   1.373  1.7209 -0.9133 -3.7460
   58SOL     MW  232   0.446   1.258   1.307 -0.1039 -0.0904 -0.2893
   59SOL     OW  233   1.486   1.665   0.386 -0.2801 -0.0113  0.3712
   59SOL    HW1  234   1.537   1.727   0.426 -2.7650 -2.6031 -2.1814
   59SOL    HW2  235   1.403   1.663   0.435  2.2474 -0.5975  0.2901
   59SOL     MW  236   1.482   1.673   0.398 -0.2745 -0.4306  0.0237
   60SOL     OW  237   3.058   0.161   1.616 -0.4465 -0.4493  0.0944
   60SOL    HW1  238   2.978   0.216   1.633 -1.1629 -1.3517 -1.5038
   60SOL    HW2  239   3.079   0.127   1.699 -0.2511  3.9811 -3.1007
   60SOL     MW  240   3.050   0.163   1.629 -0.5152  0.0162 -0.5380
   61SOL     OW  241   1.985   1.360   2.992 -0.5455  0.2428  0.0618
   61SOL    HW1  242   1.979   1.364   3.092  0.3413  1.5906 -0.9464
   61SOL    HW2  243   2.052   1.298   2.977 -0.6212  2.2584  0.6266
   61SOL     MW  244   1.993   1.352   3.003 -0.4385  0.6866  0.0033
   62SOL     OW  245   0.547   1.781   0.568 -0.5233  0.5472 -0.6459
   62SOL    HW1  246   0.637   1.807   0.547  1.8736  1.4953 -1.1316
   62SOL    HW2  247   0.549   1.687   0.560 -0.3230  0.6285  1.0743
   62SOL     MW  248   0.559   1.772   0.564 -0.1806  0.6830 -0.4830
   63SOL     OW  249   1.714   0.665   0.509 -0.0141  0.1798 -0.3673
   63SOL    HW1  250   1.715   0.750   0.467  0.4539  1.2138  0.3716
   63SOL    HW2  251   1.640   0.664   0.571 -1.7559 -1.8248 -0.3784
   63SOL     MW  252   1.704   0.676   0.511 -0.1822  0.0518 -0.2713
   64SOL     OW  253   0.194   1.710   0.637 -0.1396 -0.0979 -0.3279
   64SOL    HW1  254   0.263   1.774   0.649 -0.7061 -1.3081  0.3069
   64SOL    HW2  255   0.123   1.732   0.700 -2.9510  0.0671  1.4604
   64SOL     MW  256   0.194   1.721   0.647 -0.5853 -0.2358 -0.0082
   65SOL     OW  257   1.536   2.320   0.378  1.0830 -0.0117 -0.7673
   65SOL    HW1  258   1.620   2.366   0.388  0.6381  0.2309 -0.4534
   65SOL    HW2  259   1.474   2.363   0.439 -1.5828 -0.6892  0.5581
   65SOL     MW  260   1.539   2.332   0.387  0.6726 -0.0691 -0.5510
   66SOL     OW  261   0.395   0.566   0.530  0.4633  0.4170 -0.5165
   66SOL    HW1  262   0.457   0.552   0.456  0.4290 -0.2234  1.9418
   66SOL    HW2  263   0.362   0.656   0.519  2.8153  1.4030  1.2943
   66SOL     MW  264   0.398   0.576   0.519  0.7691  0.4626  0.0467
   67SOL     OW  265   1.339   0.073   1.996  0.2348  0.5105 -0.3764
   67SOL    HW1  266   1.364   0.112   1.916 -0.5304 -0.3197  0.3991
   67SOL    HW2  267   1.294  -0.009   1.974 -0.5860  1.9748 -0.4004
   67SOL     MW  268   1.336   0.067   1.983  0.0255  0.5941 -0.2772
   68SOL     OW  269   0.797   0.102   2.844  0.3080 -0.1274 -0.8283
   68SOL    HW1  270   0.770   0.187   2.803 -1.1990 -0.7261 -0.6827
   68SOL    HW2  271   0.872   0.127   2.893 -2.2199  0.1484 -0.7964
   68SOL     MW  272   0.804   0.117   2.845 -0.2244 -0.1700 -0.8049
   69SOL     OW  273   1.085   0.275   1.954 -0.1179  0.2108 -0.1401
   69SOL    HW1  274   1.159   0.327   1.982 -1.0751 -2.9990  0.8403
   69SOL    HW2  275   1.072   0.221   2.037  0.0251  0.1323 -1.3273
   69SOL     MW  276   1.093   0.274   1.969 -0.2253 -0.2230 -0.1674
   70SOL     OW  277   0.532   1.693   1.133 -0.0307 -0.1115 -0.4091
   70SOL    HW1  278   0.604   1.759   1.141  2.1392 -1.2949  4.9966
   70SOL    HW2  279   0.531   1.651   1.045 -2.8718 -2.0130 -2.1797
   70SOL     MW  280   0.542   1.696   1.122 -0.1193 -0.5185  0.0705
   71SOL     OW  281   1.583   0.615   1.209 -0.0277  0.3664  0.3671
   71SOL    HW1  282   1.526   0.640   1.274  2.5702  1.1122 -2.9226
   71SOL    HW2  283   1.556   0.660   1.125  1.6960 -0.3093  1.7518
   71SOL     MW  284   1.572   0.624   1.207  0.5425  0.3756  0.1158
   72SOL     OW  285   0.793   1.848   1.077  0.0477  0.0630  0.6783
   72SOL    HW1  286   0.803   1.922   1.017  1.1597 -2.0547  1.2840
   72SOL    HW2  287   0.876   1.804   1.084 -0.3488  0.1853  0.0257
   72SOL     MW  288   0.805   1.852   1.070  0.1421 -0.2003  0.6721
   73SOL     OW  289   1.071   0.658   1.129  0.0684 -0.3497 -0.4864
   73SOL    HW1  290   1.006   0.600   1.175  0.9781 -2.0511  0.5082
   73SOL    HW2  291   1.097   0.727   1.187  1.7380  0.9893  3.8736
   73SOL     MW  292   1.066   0.660   1.143  0.4088 -0.3975  0.2201
   74SOL     OW  293   2.828   0.093   0.983 -0.1786 -0.1559  0.0964
   74SOL    HW1  294   2.909   0.120   0.937 -0.3086  0.8301  0.7427
   74SOL    HW2  295   2.772   0.166   0.955 -0.2730  0.3201 -1.2439
   74SOL     MW  296   2.831   0.106   0.973 -0.2082  0.0370  0.0048
   75SOL     OW  297   1.467   1.313   0.170 -0.1070  0.1378  0.3417
   75SOL    HW1  298   1.525   1.250   0.123 -0.2499 -0.1592 -0.4282
   75SOL    HW2  299   1.505   1.321   0.254 -1.7156 -0.9377  1.2652
   75SOL     MW  300   1.480   1.306   0.175 -0.3381 -0.0433  0.3619
   76SOL     OW  301   3.042   0.688   0.424  0.0112  0.0711  1.1957
   76SOL    HW1  302   3.070   0.725   0.511 -2.5812 -0.5829  1.3764
   76SOL    HW2  303   3.105   0.618   0.419 -0.8686 -1.2267  1.5473
   76SOL     MW  304   3.054   0.684   0.435 -0.4469 -0.1864  1.2659
   77SOL     OW  305   0.848   0.601   0.435 -0.4190  0.0370 -0.1202
   77SOL    HW1  306   0.836   0.622   0.339  1.5047  1.4729  0.0069
   77SOL    HW2  307   0.853   0.502   0.443  0.7227 -0.0897  4.1180
   77SOL     MW  308   0.847   0.591   0.424 -0.0145  0.2098  0.4558
   78SOL     OW  309   0.802   0.873   1.094 -0.2594 -0.2061  0.2201
   78SOL    HW1  310   0.804   0.958   1.056 -0.0626  0.5859  0.8342
   78SOL    HW2  311   0.712   0.880   1.133  1.1633 -1.3473  2.6366
   78SOL     MW  312   0.791   0.885   1.094 -0.0457 -0.2522  0.6200
   79SOL     OW  313   1.884   1.505   0.557  0.6005 -0.1695  0.1586
   79SOL    HW1  314   1.793   1.497   0.582  2.9128 -2.3624  1.7182
   79SOL    HW2  315   1.939   1.461   0.627  2.9029  0.1767  0.0801
   79SOL     MW  316   1.879   1.498   0.570  1.2094 -0.4132  0.3540
   80SOL     OW  317   0.226   0.979   0.296 -0.0591 -0.0499  0.0963
   80SOL    HW1  318   0.184   0.930   0.227  0.4497 -0.1338  2.1971
   80SOL    HW2  319   0.256   0.911   0.361 -0.3422 -0.1717  0.5508
   80SOL     MW  320   0.224   0.964   0.295 -0.0293 -0.0771  0.4335
   81SOL     OW  321   1.806   1.824   0.296 -0.3588  0.1236 -1.0279
   81SOL    HW1  322   1.785   1.737   0.274  1.0364 -0.2721 -1.2397
   81SOL    HW2  323   1.759   1.881   0.238 -0.9729  1.6257 -1.4387
   81SOL     MW  324   1.797   1.820   0.285 -0.2557  0.2695 -1.1101
   82SOL     OW  325   0.964   1.032   0.559 -0.1270 -0.1474  0.2080
   82SOL    HW1  326   0.900   1.080   0.498 -1.9076  1.4188  0.7016
   82SOL    HW2  327   0.921   0.954   0.592 -1.1284  0.0672 -1.1212
   82SOL     MW  328   0.950   1.028   0.555 -0.4940  0.0875  0.0977
   83SOL     OW  329   0.001   0.718   1.524  0.1040 -0.5512 -0.2182
   83SOL    HW1  330  -0.013   0.779   1.451 -0.2615 -0.3612  0.3930
   83SOL    HW2  331   0.081   0.662   1.504  2.6667  0.6630 -2.6025
   83SOL     MW  332   0.009   0.719   1.512  0.3939 -0.3659 -0.4521
   84SOL     OW  333   3.078   0.183   0.919  0.7976  0.5658  0.2755
   84SOL    HW1  334   3.093   0.280   0.946 -1.1769  0.3739 -0.3778
   84SOL    HW2  335   3.099   0.135   0.998 -1.8139 -0.0906  0.0566
   84SOL     MW  336   3.082   0.190   0.933  0.1925  0.4539  0.1604
   85SOL     OW  337   0.363   0.473   0.789  0.0860 -0.3046 -0.1477
   85SOL    HW1  338   0.388   0.505   0.699 -1.6643  0.5120 -1.6536
   85SOL    HW2  339   0.338   0.380   0.776  2.0665 -1.4037  0.9762
   85SOL     MW  340   0.363   0.465   0.775  0.1163 -0.3419 -0.1981
   86SOL     OW  341   1.288   0.276   1.204  0.4159 -0.0007 -0.0478
   86SOL    HW1  342   1.272   0.356   1.156 -2.3752 -0.1514 -0.3828
   86SOL    HW2  343   1.380   0.287   1.235  1.5903 -0.5524  0.4661
   86SOL     MW  344   1.298   0.288   1.202  0.2026 -0.0934 -0.0242
   87SOL     OW  345   0.992   1.580   1.190 -0.7399  0.4950 -0.0151
   87SOL    HW1  346   1.053   1.644   1.150  0.6730 -0.2373  1.2583
   87SOL    HW2  347   1.039   1.499   1.180  1.7282  0.4075 -0.7617
   87SOL     MW  348   1.006   1.578   1.184 -0.2278  0.3868  0.0544
   88SOL     OW  349   1.157   1.131   1.021  0.2274  0.1200 -0.2064
   88SOL    HW1  350   1.249   1.135   1.003 -1.1420 -1.6493  2.8371
   88SOL    HW2  351   1.142   1.209   1.073 -0.3050 -0.4281  1.5342
   88SOL     MW  352   1.167   1.142   1.026 -0.0235 -0.1858  0.4248
   89SOL     OW  353   1.788   0.734   0.215 -0.2036  0.2211 -0.1528
   89SOL    HW1  354   1.742   0.673   0.275  0.0969  0.7216 -1.3902
   89SOL    HW2  355   1.872   0.756   0.262  1.3547 -0.6756  1.8609
   89SOL     MW  356   1.793   0.729   0.229  0.0416  0.1688 -0.0503
   90SOL     OW  357   0.790   1.176   2.758  0.4831 -0.0991 -0.2300
   90SOL    HW1  358   0.834   1.096   2.785  0.5552  2.1040 -3.3987
   90SOL    HW2  359   0.821   1.237   2.822 -3.3531  1.1376 -0.2182
   90SOL     MW  360   0.800   1.173   2.770 -0.0135  0.3548 -0.6465
   91SOL     OW  361   2.275   0.611   0.540  0.5166  0.3705 -0.1480
   91SOL    HW1  362   2.308   0.675   0.477 -1.2789 -1.9544 -1.4035
   91SOL    HW2  363   2.278   0.528   0.487 -0.4133 -0.8362 -1.9279
   91SOL     MW  364   2.280   0.609   0.524  0.1570 -0.0954 -0.5485
   92SOL     OW  365   1.643   0.947   0.482 -0.0120 -0.3732  0.0235
   92SOL    HW1  366   1.579   0.968   0.556 -0.3362  2.0351  1.0577
   92SOL    HW2  367   1.608   0.986   0.406 -1.8767 -3.1246  1.6747
   92SOL     MW  368   1.630   0.955   0.482 -0.3008 -0.4184  0.3778
   93SOL     OW  369   1.118   0.225   0.406  0.1577 -0.1805  0.1448
   93SOL    HW1  370   1.034   0.262   0.434 -0.7339 -0.4287  1.2968
   93SOL    HW2  371   1.144   0.268   0.322  0.0923 -0.4624 -0.1883
   93SOL     MW  372   1.110   0.235   0.399  0.0314 -0.2504  0.2529
   94SOL     OW  373   1.910   1.380   1.589 -0.3029 -0.2997  0.0107
   94SOL    HW1  374   1.892   1.375   1.495 -0.6221  2.2579 -0.9343
   94SOL    HW2  375   1.893   1.298   1.627  1.7555 -1.3447  1.7174
   94SOL     MW  376   1.905   1.369   1.581 -0.0734 -0.1001  0.1112
   95SOL     OW  377   0.601   1.514   0.932  0.2732 -0.4094 -0.0486
   95SOL    HW1  378   0.671   1.458   0.959 -0.8321  0.3570  0.1616
   95SOL    HW2  379   0.530   1.452   0.896 -1.0591 -1.1633  0.5118
   95SOL     MW  380   0.601   1.498   0.931 -0.0484 -0.4078  0.0531
   96SOL     OW  381   1.331   1.817   1.695 -0.4084 -0.4424 -0.1535
   96SOL    HW1  382   1.268   1.816   1.766  1.1586 -1.1923 -0.2977
   96SOL    HW2  383   1.331   1.722   1.671 -0.2338 -2.0739 -1.0934
   96SOL     MW  384   1.323   1.804   1.701 -0.1786 -0.7566 -0.2965
   97SOL     OW  385   1.089   1.565   0.838 -0.1528  0.1282  0.3671
   97SOL    HW1  386   1.110   1.634   0.904  1.3880  1.2679 -1.5533
   97SOL    HW2  387   1.003   1.587   0.803  1.6849 -1.8440 -1.0133
   97SOL     MW  388   1.081   1.577   0.842  0.2930  0.0184 -0.0684
   98SOL     OW  389   1.354   1.393   1.199 -0.0427  0.0381 -0.3217
   98SOL    HW1  390   1.425   1.415   1.265 -1.4367  0.0697  2.0845
   98SOL    HW2  391   1.401   1.390   1.117 -0.6558  1.8966  0.6586
   98SOL     MW  392   1.369   1.395   1.197 -0.3075  0.2875  0.1251
   99SOL     OW  393   1.538   0.334   1.318 -0.4943 -0.0362 -0.0687
   99SOL    HW1  394   1.558   0.426   1.287  0.8015  1.5706  0.8796
   99SOL    HW2  395   1.487   0.341   1.404  2.0962 -0.2502  0.7834
   99SOL     MW  396   1.534   0.347   1.325  0.0185  0.1476  0.1688
  100SOL     OW  397   1.086   1.162   1.397 -0.2332 -0.2834  0.2977
  100SOL    HW1  398   1.078   1.188   1.490  2.5039  2.1600 -0.4916
  100SOL    HW2  399   1.111   1.073   1.397 -0.2684 -1.4208  1.1770
  100SOL     MW  400   1.088   1.154   1.409  0.1233 -0.1111  0.3096
  101SOL     OW  401   0.525   1.260   0.468 -0.0832 -0.0045  0.4303
  101SOL    HW1  402   0.477   1.238   0.381  1.2220  0.8361 -1.0773
  101SOL    HW2  403   0.614   1.222   0.465  2.7184  1.0303 -3.5473
  101SOL     MW  404   0.530   1.252   0.456  0.4586  0.2429 -0.2934
  102SOL     OW  405   2.879   0.591   1.072  0.1565 -0.0050 -0.2405
  102SOL    HW1  406   2.906   0.684   1.054 -1.4732 -3.0852 -0.3379
  102SOL    HW2  407   2.882   0.561   1.163  0.6957 -1.0729  2.8454
  102SOL     MW  408   2.883   0.599   1.081  0.0126 -0.5523  0.1538
  103SOL     OW  409   1.898   0.271   1.763  0.3321 -0.3464  0.3503
  103SOL    HW1  410   1.894   0.181   1.726  1.8624  1.9510 -1.4979
  103SOL    HW2  411   1.887   0.258   1.861  0.8797 -3.0705 -1.5049
  103SOL     MW  412   1.896   0.257   1.771  0.6063 -0.4027 -0.1383
  104SOL     OW  413   0.044   1.528   1.676 -0.0507  0.2738 -0.0260
  104SOL    HW1  414   0.098   1.464   1.722 -2.0485  0.4805 -1.1138
  104SOL    HW2  415  -0.053   1.509   1.697  0.5556 -0.2407  1.3618
  104SOL     MW  416   0.038   1.517   1.685 -0.2343  0.2332  0.0136
  105SOL     OW  417   0.100   1.208   0.434  0.3222  0.2468 -0.4774
  105SOL    HW1  418   0.143   1.135   0.389  2.2574  1.4789 -1.5018
  105SOL    HW2  419   0.160   1.280   0.415  2.4323  0.2835 -0.2850
  105SOL     MW  420   0.114   1.208   0.426  0.8559  0.4142 -0.5872
  106SOL     OW  421   0.843   0.237   0.857  1.0088 -0.4416 -0.0845
  106SOL    HW1  422   0.817   0.324   0.823 -0.2562  1.3411  0.0221
  106SOL    HW2  423   0.920   0.260   0.911 -2.2798 -0.0789  4.0486
  106SOL     MW  424   0.849   0.251   0.860  0.4080 -0.1585  0.4749
  107SOL     OW  425   0.799   2.192   2.872 -0.1712 -0.0677  0.0935
  107SOL    HW1  426   0.703   2.216   2.866 -1.2078  0.9358 -0.3878
  107SOL    HW2  427   0.809   2.141   2.949 -0.7507 -2.3568 -1.2969
  107SOL     MW  428   0.788   2.188   2.881 -0.3844 -0.2373 -0.1535
  108SOL     OW  429   1.312   1.558   1.630  0.3295  0.4802  0.4792
  108SOL    HW1  430   1.253   1.517   1.559  2.6427  0.7558 -2.5324
  108SOL    HW2  431   1.398   1.511   1.616 -2.7452  1.1201 -0.8817
  108SOL     MW  432   1.316   1.547   1.618  0.2290  0.6010 -0.0977
  109SOL     OW  433   2.036   0.751   0.377 -0.5484  0.0280  0.3827
  109SOL    HW1  434   2.022   0.842   0.368  1.4757 -1.7758  2.4697
  109SOL    HW2  435   2.076   0.734   0.464  1.0003  0.6283 -0.5461
  109SOL     MW  436   2.040   0.760   0.387 -0.0770 -0.1308  0.5355
  110SOL     OW  437   0.397   1.890   0.790 -0.0341  0.0556 -0.4580
  110SOL    HW1  438   0.454   1.854   0.720  0.3440 -0.3609  0.2656
  110SOL    HW2  439   0.400   1.987   0.768 -0.6102  0.0897  0.8847
  110SOL     MW  440   0.405   1.898   0.777 -0.0602  0.0051 -0.1854
  111SOL     OW  441   0.862   0.884   1.365 -0.0926  0.1069  0.1582
  111SOL    HW1  442   0.827   0.872   1.273 -0.6338 -1.7727 -0.4473
  111SOL    HW2  443   0.810   0.820   1.407  0.6988 -0.1792 -2.3981
  111SOL     MW  444   0.850   0.874   1.359 -0.0596 -0.1788 -0.2589
  112SOL     OW  445   1.341   1.162   1.672 -0.0856  0.1110 -0.6601
  112SOL    HW1  446   1.250   1.188   1.667  0.5427 -1.7963  0.9319
  112SOL    HW2  447   1.335   1.066   1.671 -1.4579 -1.2150 -0.9218
  112SOL     MW  448   1.328   1.153   1.671 -0.1838 -0.3156 -0.4846
  113SOL     OW  449   1.223   2.989   1.733  0.0336  0.5016 -0.2133
  113SOL    HW1  450   1.191   2.935   1.805 -0.1236  0.0741 -0.0747
  113SOL    HW2  451   1.197   2.946   1.650  0.7786  1.9417 -2.7445
  113SOL     MW  452   1.216   2.976   1.732  0.1111  0.6352 -0.5290
  114SOL     OW  453   0.338   2.895   1.819  0.0152  0.3904  1.0016
  114SOL    HW1  454   0.411   2.954   1.823 -1.8393 -0.9588  4.5181
  114SOL    HW2  455   0.290   2.925   1.899  2.3637  2.2237 -0.0828
  114SOL     MW  456   0.341   2.907   1.830  0.0803  0.4543  1.3225
  115SOL     OW  457   0.538   0.878   1.174 -0.8744 -0.4458  0.0229
  115SOL    HW1  458   0.534   0.788   1.148 -1.2150  0.7385  0.4315
  115SOL    HW2  459   0.457   0.883   1.230 -1.5263 -1.2093 -0.1635
  115SOL     MW  460   0.527   0.867   1.178 -1.0054 -0.3903  0.0523
  116SOL     OW  461   0.702   1.120   0.998  0.3394  0.2374 -0.1989
  116SOL    HW1  462   0.762   1.148   0.924 -0.9202 -2.4274 -2.2938
  116SOL    HW2  463   0.685   1.200   1.048 -0.8184 -1.3359 -0.5633
  116SOL     MW  464   0.708   1.134   0.995  0.0205 -0.3218 -0.5234
  117SOL     OW  465   1.077   1.278   0.777 -0.6625 -0.5919  0.2558
  117SOL    HW1  466   1.104   1.217   0.846  2.1912 -2.7824  0.7292
  117SOL    HW2  467   1.065   1.367   0.815  0.6821 -1.5140  1.2143
  117SOL     MW  468   1.079   1.281   0.791 -0.1085 -1.0026  0.4448
  118SOL     OW  469   3.102   2.967   1.831  0.0998 -0.2941  0.2083
  118SOL    HW1  470   3.118   3.062   1.839 -1.2939 -2.8134  0.8585
  118SOL    HW2  471   3.013   2.967   1.808  1.1599  1.8344  2.6160
  118SOL     MW  472   3.092   2.980   1.829  0.0558 -0.3456  0.6117
  119SOL     OW  473   0.389   1.502   1.303 -0.4687 -0.0512  0.5347
  119SOL    HW1  474   0.427   1.565   1.239  1.5282 -0.0950 -0.5966
  119SOL    HW2  475   0.298   1.483   1.275  0.5048 -0.9517 -2.2111
  119SOL     MW  476   0.382   1.508   1.291 -0.0768 -0.1758  0.0232
  120SOL     OW  477   0.298   0.880   0.965 -0.0508  0.0406 -0.2560
  120SOL    HW1  478   0.294   0.938   1.038  1.8752 -0.5354  0.2975
  120SOL    HW2  479   0.384   0.880   0.920  0.4059 -0.3708  0.2238
  120SOL     MW  480   0.309   0.888   0.969  0.2636 -0.0897 -0.1197
  121SOL     OW  481   1.766   1.117   1.606  0.0524  0.4765  0.1181
  121SOL    HW1  482   1.673   1.108   1.582 -0.5106  0.1122  1.9013
  121SOL    HW2  483   1.812   1.031   1.584  2.3459 -0.4428  0.9477
  121SOL     MW  484   1.760   1.104   1.600  0.2807  0.3071  0.4629
  122SOL     OW  485   0.145   0.658   0.856 -0.1654 -0.6404 -0.4912
  122SOL    HW1  486   0.210   0.582   0.839 -0.7566 -1.0163  1.2774
  122SOL    HW2  487   0.203   0.724   0.902 -0.8665 -4.6052  2.1022
  122SOL     MW  488   0.161   0.657   0.860 -0.3359 -1.2131  0.0843
  123SOL     OW  489   1.852   1.130   0.557  0.2392  0.1931  0.2283
  123SOL    HW1  490   1.781   1.062   0.556  1.0384  0.8867  0.9021
  123SOL    HW2  491   1.930   1.090   0.601 -0.4860 -0.3725  2.6536
  123SOL     MW  492   1.853   1.116   0.563  0.2490  0.2100  0.6372
  124SOL     OW  493   0.666   0.463   0.818  0.0986  0.4545 -0.5594
  124SOL    HW1  494   0.572   0.470   0.795  1.1741  0.1979 -0.1875
  124SOL    HW2  495   0.693   0.553   0.811  0.5114 -0.5461  1.7720
  124SOL     MW  496   0.657   0.476   0.814  0.2950  0.2886 -0.2027
  125SOL     OW  497   0.652   1.755   1.710 -0.4351  1.0284 -0.0041
  125SOL    HW1  498   0.648   1.728   1.612 -2.4308 -0.5356 -0.2318
  125SOL    HW2  499   0.613   1.845   1.718 -1.2317  0.0496 -0.9993
  125SOL     MW  500   0.646   1.763   1.698 -0.8035  0.6929 -0.1654
  126SOL     OW  501   2.123   1.548   1.862  0.0136 -0.3468 -0.0177
  126SOL    HW1  502   2.187   1.618   1.859  1.0181  0.1396 -1.0376
  126SOL    HW2  503   2.163   1.465   1.891 -1.3103 -0.7526  0.6361
  126SOL     MW  504   2.137   1.547   1.866 -0.0286 -0.3362 -0.0660
  127SOL     OW  505   0.525   0.769   1.834  0.5890  0.0440 -0.2223
  127SOL    HW1  506   0.617   0.780   1.823 -2.0332 -1.4310  1.2879
  127SOL    HW2  507   0.504   0.820   1.913  0.4254  1.6601  2.1730
  127SOL     MW  508   0.535   0.777   1.843  0.2214  0.0626  0.2930
  128SOL     OW  509   1.735   0.763   2.860 -0.3012 -0.7416 -0.0213
  128SOL    HW1  510   1.786   0.761   2.779 -1.4520  0.0813  0.4524
  128SOL    HW2  511   1.726   0.861   2.875 -0.2022 -0.0082 -0.6230
  128SOL     MW  512   1.740   0.776   2.851 -0.4400 -0.5362 -0.0382
  129SOL     OW  513   1.617   0.951   0.156  0.6435  0.1307 -0.1463
  129SOL    HW1  514   1.541   0.927   0.104 -1.7988  0.4601  1.0519
  129SOL    HW2  515   1.668   0.872   0.159 -2.3471  0.0645  1.8696
  129SOL     MW  516   1.613   0.937   0.150 -0.0733  0.1654  0.2778
  130SOL     OW  517   0.859   1.463   0.329 -0.2091  0.1135  0.3609
  130SOL    HW1  518   0.821   1.465   0.418 -4.1179  1.8993  1.8050
  130SOL    HW2  519   0.950   1.450   0.337 -2.0162  0.3163 -0.1376
  130SOL     MW  520   0.866   1.462   0.342 -0.9633  0.3759  0.4856
  131SOL     OW  521   0.063   0.828   0.059  0.1347  0.3657 -0.1845
  131SOL    HW1  522   0.056   0.839  -0.040 -2.8056 -2.2914 -2.1829
  131SOL    HW2  523   0.126   0.748   0.062  0.7897  1.6194  0.4533
  131SOL     MW  524   0.071   0.819   0.046 -0.1668  0.1805 -0.3640
  132SOL     OW  525   2.728   0.069   1.228 -0.3972 -0.3809  0.4311
  132SOL    HW1  526   2.779   0.078   1.148 -0.8964 -1.9781 -0.3728
  132SOL    HW2  527   2.660   0.010   1.205 -0.2824  1.5239 -0.8378
  132SOL     MW  528   2.726   0.062   1.214 -0.4479 -0.3403  0.1576
  133SOL     OW  529   1.088   0.113   1.739  0.4579 -0.0224 -0.1701
  133SOL    HW1  530   1.147   0.042   1.768  0.2972 -0.5457  0.2772
  133SOL    HW2  531   1.066   0.168   1.818 -0.2921 -2.1706 -0.1487
  133SOL     MW  532   1.093   0.111   1.753  0.3377 -0.3749 -0.1083
  134SOL     OW  533   1.410   2.472   1.460 -0.3776 -0.6937  0.2866
  134SOL    HW1  534   1.353   2.538   1.424  0.0974  1.0188 -0.7946
  134SOL    HW2  535   1.435   2.494   1.559  0.6171 -0.0228  1.0202
  134SOL     MW  536   1.406   2.484   1.468 -0.1837 -0.3792  0.2407
  135SOL     OW  537   2.990   1.002   2.920 -0.3829  0.0205  0.2368
  135SOL    HW1  538   3.051   1.059   2.958  0.1792  0.2772  1.7923
  135SOL    HW2  539   2.916   1.064   2.894 -2.1373  0.0805 -1.8684
  135SOL     MW  540   2.988   1.018   2.921 -0.5402  0.0623  0.1643
  136SOL     OW  541   0.146   2.002   0.854 -0.3169 -0.2898 -0.2791
  136SOL    HW1  542   0.061   1.957   0.836 -0.2047  3.5244  0.2256
  136SOL    HW2  543   0.209   1.929   0.859  1.6312 -0.0994  0.9998
  136SOL     MW  544   0.143   1.987   0.852 -0.0451  0.2386 -0.0437
  137SOL     OW  545   0.745   2.076   0.617 -0.3367  0.2513  0.3905
  137SOL    HW1  546   0.773   2.080   0.708  1.5141  0.6602 -1.7523
  137SOL    HW2  547   0.647   2.091   0.623  0.1395  1.0727  1.2435
  137SOL     MW  548   0.736   2.079   0.630 -0.0296  0.4136  0.2203
  138SOL     OW  549   0.522   0.625   1.062  0.0669  0.6541 -0.0454
  138SOL    HW1  550   0.438   0.576   1.057  0.2116 -0.7313 -0.5427
  138SOL    HW2  551   0.594   0.576   1.013  2.8323 -0.2643 -0.9108
  138SOL     MW  552   0.521   0.612   1.055  0.4508  0.3501 -0.2252
  139SOL     OW  553   2.858   0.483   1.322 -0.2232 -0.0225 -0.1205
  139SOL    HW1  554   2.951   0.460   1.340 -0.6788  1.0814 -0.9386
  139SOL    HW2  555   2.836   0.546   1.392  0.5383 -1.0070 -1.4345
  139SOL     MW  556   2.868   0.488   1.334 -0.1828 -0.0067 -0.4018
  140SOL     OW  557   0.909   0.466   1.948 -0.0777  0.0422  0.0540
  140SOL    HW1  558   0.968   0.391   1.951  1.0638  0.1374  0.2488
  140SOL    HW2  559   0.865   0.477   2.037 -2.6474 -0.3003 -0.2525
  140SOL     MW  560   0.911   0.457   1.960 -0.2661  0.0096  0.0393
  141SOL     OW  561   1.127   0.682   1.723  0.5903  0.3518 -0.1346
  141SOL    HW1  562   1.135   0.607   1.661 -0.5095  0.7960  0.8717
  141SOL    HW2  563   1.173   0.646   1.802 -0.6354  0.8346 -0.5047
  141SOL     MW  564   1.134   0.667   1.725  0.2835  0.4741 -0.0507
  142SOL     OW  565   0.832   1.171   0.768 -0.1441  0.1065 -0.5382
  142SOL    HW1  566   0.852   1.108   0.702 -0.5405  1.2673  0.4666
  142SOL    HW2  567   0.923   1.219   0.774  1.7101  0.1131  0.3763
  142SOL     MW  568   0.847   1.169   0.760  0.0483  0.2605 -0.2849
  143SOL     OW  569   1.826   0.747   1.041 -0.3027  0.8520 -0.3210
  143SOL    HW1  570   1.870   0.746   0.958 -0.3906  0.1838 -2.4618
  143SOL    HW2  571   1.742   0.698   1.026  0.7857 -0.5279  3.3939
  143SOL     MW  572   1.821   0.741   1.028 -0.1707  0.5818 -0.1133
  144SOL     OW  573   0.234   1.337   1.759 -0.2266  0.5949 -0.0880
  144SOL    HW1  574   0.301   1.398   1.732 -0.8645 -0.6555  2.7537
  144SOL    HW2  575   0.276   1.272   1.820  3.6699 -1.3660 -0.4731
  144SOL     MW  576   0.249   1.337   1.763  0.2033  0.1712  0.2361
  145SOL     OW  577   0.228   0.490   1.181 -0.0874 -0.2266  0.0285
  145SOL    HW1  578   0.250   0.398   1.174  0.1255  2.4089  1.6709
  145SOL    HW2  579   0.151   0.491   1.117 -1.3162  1.6580 -0.0381
  145SOL     MW  580   0.221   0.478   1.172 -0.2214  0.3698  0.2364
  146SOL     OW  581   0.802   2.009   1.549  0.2463  0.5830 -0.1122
  146SOL    HW1  582   0.824   1.993   1.460  0.9987  1.0791  0.7945
  146SOL    HW2  583   0.752   1.931   1.570  0.8014  1.0188 -0.7368
  146SOL     MW  584   0.798   1.997   1.540  0.4188  0.7059 -0.0750
  147SOL     OW  585   0.431   0.518   3.003 -0.6940 -0.2363 -0.1176
  147SOL    HW1  586   0.340   0.522   3.041 -1.8659  2.6757  0.7722
  147SOL    HW2  587   0.417   0.562   2.914  3.1977  0.4382 -1.3298
  147SOL     MW  588   0.417   0.525   2.996 -0.3351  0.2369 -0.1602
  148SOL     OW  589   0.023   0.888   1.304  0.3245  0.3602 -0.6044
  148SOL    HW1  590   0.112   0.910   1.327  1.5420 -0.7855 -0.5985
  148SOL    HW2  591  -0.023   0.976   1.303 -0.3433  1.3374 -0.5016
  148SOL     MW  592   0.029   0.903   1.307  0.3970  0.3380 -0.5900
  149SOL     OW  593   1.511   1.219   1.455 -0.1719 -0.2350  0.3108
  149SOL    HW1  594   1.448   1.209   1.536 -1.6904 -0.9161  2.6818
  149SOL    HW2  595   1.544   1.309   1.450 -1.0425  1.0739  0.9269
  149SOL     MW  596   1.507   1.229   1.465 -0.4871 -0.1522  0.7049
  150SOL     OW  597   1.702   1.453   0.882 -0.3799 -0.3432  0.0991
  150SOL    HW1  598   1.757   1.377   0.901  2.7390  0.9194  0.8014
  150SOL    HW2  599   1.767   1.521   0.905  1.2749 -0.6547  0.5356
  150SOL     MW  600   1.718   1.452   0.888  0.2499 -0.2177  0.2494
  151SOL     OW  601   1.596   1.842   0.810  0.2897 -0.2456  0.0730
  151SOL    HW1  602   1.597   1.819   0.715  1.2410 -0.2674  0.2530
  151SOL    HW2  603   1.530   1.776   0.846  0.8782 -1.7093 -2.4712
  151SOL     MW  604   1.587   1.830   0.802  0.4928 -0.4416 -0.2389
  152SOL     OW  605   0.650   1.421   1.599 -0.3840 -0.4371  0.7477
  152SOL    HW1  606   0.713   1.465   1.546 -3.5382  0.1439 -1.0215
  152SOL    HW2  607   0.590   1.377   1.543  2.8796  1.3417 -1.1080
  152SOL     MW  608   0.650   1.421   1.585 -0.3695 -0.1257  0.2694
  153SOL     OW  609   2.622   1.222   0.738 -0.0611  0.3787 -0.0241
  153SOL    HW1  610   2.707   1.187   0.720  1.0202  0.2777 -0.4152
  153SOL    HW2  611   2.562   1.157   0.759  3.1701  1.6048  1.0563
  153SOL     MW  612   2.625   1.209   0.738  0.5078  0.5272  0.0668
  154SOL     OW  613   0.110   1.784   1.770 -0.1482 -0.0806  0.3679
  154SOL    HW1  614   0.080   1.694   1.723 -0.3316 -0.9073 -2.0509
  154SOL    HW2  615   0.207   1.764   1.789  2.3398  1.8546 -1.2217
  154SOL     MW  616   0.119   1.770   1.766  0.1559  0.0656 -0.1609
  155SOL     OW  617   1.166   0.700   0.289  0.4491 -0.4306 -0.0712
  155SOL    HW1  618   1.175   0.677   0.378 -0.9457  3.2037 -2.9376
  155SOL    HW2  619   1.127   0.791   0.289  0.9298  3.0354 -0.8079
  155SOL     MW  620   1.162   0.709   0.300  0.3285  0.5062 -0.5466
  156SOL     OW  621   1.566   3.095   1.101 -0.6349 -0.5030  0.0501
  156SOL    HW1  622   1.611   3.155   1.163  1.9201  1.0715  4.1427
  156SOL    HW2  623   1.606   3.006   1.121  0.9704  1.6578 -2.1393
  156SOL     MW  624   1.578   3.091   1.112 -0.0860 -0.0102  0.3012
  157SOL     OW  625   1.262   1.131   0.165  0.0295 -0.7795  0.2636
  157SOL    HW1  626   1.289   1.044   0.181  1.4244  2.1502  0.3932
  157SOL    HW2  627   1.340   1.186   0.168  2.6351 -0.0461 -2.8205
  157SOL     MW  628   1.276   1.127   0.167  0.5573 -0.2962 -0.1262
  158SOL     OW  629   0.332   1.635   2.342 -0.4138 -0.4546  0.6050
  158SOL    HW1  630   0.270   1.671   2.277 -0.2530 -0.9731 -0.0583
  158SOL    HW2  631   0.361   1.717   2.377 -0.9521 -0.6869  0.1933
  158SOL     MW  632   0.327   1.650   2.338 -0.4636 -0.5536  0.4632
  159SOL     OW  633   1.220   1.716   0.480  0.4863 -0.1117 -0.2766
  159SOL    HW1  634   1.174   1.658   0.416  1.6000 -0.6674 -0.8514
  159SOL    HW2  635   1.157   1.749   0.543 -1.4850  0.6228  0.2349
  159SOL     MW  636   1.206   1.712   0.480  0.3731 -0.0881 -0.2850
  160SOL     OW  637   0.471   1.158   1.557 -0.3730  0.0982  0.5389
  160SOL    HW1  638   0.419   1.078   1.586  1.9598  1.7095  3.4425
  160SOL    HW2  639   0.560   1.136   1.571  1.0786 -1.8334  1.0923
  160SOL     MW  640   0.476   1.144   1.563  0.1263  0.0560  0.9950
  161SOL     OW  641   0.482   2.292   2.650  0.2836 -0.5708  0.1554
  161SOL    HW1  642   0.393   2.316   2.605 -0.4185  0.6312 -1.2919
  161SOL    HW2  643   0.503   2.211   2.608 -4.7343 -2.6574 -0.4406
  161SOL     MW  644   0.473   2.285   2.638 -0.4711 -0.6875 -0.1142
  162SOL     OW  645   1.090   1.816   1.852 -0.6408  0.0289  0.5805
  162SOL    HW1  646   1.105   1.914   1.847  1.9174  0.4980  0.0034
  162SOL    HW2  647   0.994   1.807   1.884 -2.7900  1.6959 -0.0380
  162SOL     MW  648   1.079   1.828   1.856 -0.5868  0.3108  0.4228
  163SOL     OW  649   2.107   3.036   0.799 -0.7400  0.1875 -0.0019
  163SOL    HW1  650   2.083   3.101   0.732  0.8094  0.0249 -1.1090
  163SOL    HW2  651   2.042   2.961   0.794 -1.3318 -0.4549 -1.3455
  163SOL     MW  652   2.095   3.035   0.790 -0.6136  0.0813 -0.3253
  164SOL     OW  653   0.213   0.205   0.779 -0.1180 -0.1231 -0.0793
  164SOL    HW1  654   0.122   0.183   0.819  0.0642 -0.5397 -1.6135
  164SOL    HW2  655   0.247   0.136   0.720  1.2141 -1.1877 -0.2088
  164SOL     MW  656   0.205   0.193   0.776  0.0818 -0.3185 -0.2988
  165SOL     OW  657   1.151   1.286   0.392  0.0373 -0.3247  0.1760
  165SOL    HW1  658   1.227   1.264   0.446  2.5375 -2.0139  2.3514
  165SOL    HW2  659   1.154   1.207   0.334 -0.8457  0.6466  1.4313
  165SOL     MW  660   1.161   1.272   0.391  0.2507 -0.4194  0.6287
  166SOL     OW  661   0.329   1.189   1.048 -0.3657  0.1201 -0.0998
  166SOL    HW1  662   0.334   1.209   1.141  0.0851  0.7113  0.4327
  166SOL    HW2  663   0.392   1.116   1.028  0.0342 -1.5494  0.2885
  166SOL     MW  664   0.338   1.182   1.058 -0.2534 -0.0222  0.0217
  167SOL     OW  665   0.796   1.148   0.396 -0.3583 -0.0823 -0.3681
  167SOL    HW1  666   0.833   1.231   0.373  1.4014 -3.9243  1.1825
  167SOL    HW2  667   0.820   1.100   0.318 -0.2246  1.3741 -1.2096
  167SOL     MW  668   0.804   1.153   0.383 -0.1085 -0.3971 -0.2746
  168SOL     OW  669   1.683   1.647   3.056  0.1405  0.1952  0.1754
  168SOL    HW1  670   1.629   1.728   3.050  0.3862  0.6037  0.8124
  168SOL    HW2  671   1.641   1.575   3.011 -1.3432  1.5108 -1.0839
  168SOL     MW  672   1.670   1.648   3.049 -0.0228  0.4227  0.0933
  169SOL     OW  673   0.303   0.901   1.345 -0.1273 -0.5491 -0.1376
  169SOL    HW1  674   0.283   0.826   1.406 -1.0107 -3.5843  0.4778
  169SOL    HW2  675   0.308   0.989   1.392  1.8823  1.1081 -1.1886
  169SOL     MW  676   0.301   0.903   1.360  0.0213 -0.7309 -0.1951
  170SOL     OW  677   1.094   1.561   1.451 -0.3685  0.0071 -0.1175
  170SOL    HW1  678   1.045   1.626   1.503  0.1008 -2.2842  0.5638
  170SOL    HW2  679   1.075   1.564   1.354 -1.8524 -3.9564  0.1028
  170SOL     MW  680   1.085   1.570   1.445 -0.5024 -0.8181  0.0014
  171SOL     OW  681   0.488   1.512   0.498 -0.1552  0.0297 -0.6484
  171SOL    HW1  682   0.393   1.513   0.497 -1.9809  2.0792  4.6438
  171SOL    HW2  683   0.516   1.416   0.493 -1.1617  2.0775  2.7154
  171SOL     MW  684   0.479   1.500   0.497 -0.5289  0.5703  0.4936
  172SOL     OW  685   0.780   0.290   1.306  0.3604 -0.2483  0.7721
  172SOL    HW1  686   0.741   0.232   1.237 -0.5178 -1.6216  0.1497
  172SOL    HW2  687   0.835   0.224   1.337 -2.0132 -1.0345 -1.2011
  172SOL     MW  688   0.782   0.273   1.301 -0.0686 -0.5332  0.4297
  173SOL     OW  689   0.496   1.742   0.290 -0.2509 -0.5293 -0.3933
  173SOL    HW1  690   0.522   1.654   0.262 -3.0021  1.5686  0.0465
  173SOL    HW2  691   0.526   1.759   0.382  3.0408  0.5946 -0.8946
  173SOL     MW  692   0.503   1.733   0.298 -0.1796 -0.1042 -0.4014
  174SOL     OW  693   1.930   0.920   1.492  0.1608  0.8535 -0.5216
  174SOL    HW1  694   1.879   0.851   1.530 -0.1139 -0.2680  0.4371
  174SOL    HW2  695   1.897   0.927   1.397 -0.5770 -1.5505 -2.3296
  174SOL     MW  696   1.919   0.912   1.484  0.0272  0.3883 -0.6337
  175SOL     OW  697   0.607   1.493   0.254  0.3177  0.2525  0.5420
  175SOL    HW1  698   0.569   1.509   0.344  0.5496  3.9823  0.6849
  175SOL    HW2  699   0.698   1.458   0.259  0.0438  1.7036  0.8393
  175SOL     MW  700   0.614   1.491   0.266  0.3122  0.9361  0.6000
  176SOL     OW  701   0.101   1.511   1.205  0.6853  0.1803 -0.5997
  176SOL    HW1  702   0.116   1.484   1.112  1.1558  2.4807  0.1805
  176SOL    HW2  703   0.010   1.484   1.221 -1.3084 -1.5148 -1.6973
  176SOL     MW  704   0.091   1.504   1.195  0.4843  0.2602 -0.6415
  177SOL     OW  705   0.549   0.282   1.440  0.6702  0.1268  0.2015
  177SOL    HW1  706   0.629   0.301   1.390  1.4586  1.0125  1.8634
  177SOL    HW2  707   0.538   0.360   1.494 -0.0362 -0.4890  1.3767
  177SOL     MW  708   0.558   0.295   1.441  0.6810  0.1624  0.5758
  178SOL     OW  709   3.094   0.643   2.918 -0.3229  0.5899 -0.3414
  178SOL    HW1  710   3.018   0.589   2.886 -1.1966 -2.1152 -3.4269
  178SOL    HW2  711   3.161   0.616   2.852  2.4845  0.4953 -4.2107
  178SOL     MW  712   3.093   0.632   2.905 -0.0678  0.2205 -1.2590
  179SOL     OW  713   1.590   1.475   1.379  0.7247 -0.1534  0.3393
  179SOL    HW1  714   1.595   1.501   1.470 -0.9810 -0.4550 -0.8112
  179SOL    HW2  715   1.683   1.453   1.361  0.1836 -0.4605 -1.3289
  179SOL     MW  716   1.603   1.476   1.388  0.4282 -0.2337 -0.0326
  180SOL     OW  717   0.048   0.232   0.435 -0.1930 -0.1792 -0.1318
  180SOL    HW1  718  -0.033   0.245   0.388  1.5600  0.0150 -0.0155
  180SOL    HW2  719   0.060   0.325   0.467 -2.1712  0.1154  1.0514
  180SOL     MW  720   0.039   0.246   0.433 -0.2227 -0.1147  0.0396
  181SOL     OW  721   1.066   1.317   0.035 -0.6974 -0.0122 -0.3203
  181SOL    HW1  722   1.129   1.370   0.089  0.0820  2.9362  0.3202
  181SOL    HW2  723   1.116   1.300  -0.049 -1.5433 -2.8488 -3.4653
  181SOL     MW  724   1.081   1.322   0.031 -0.7062  0.0026 -0.6508
  182SOL     OW  725   0.357   0.923   1.642  0.0678  0.9737  0.6510
  182SOL    HW1  726   0.274   0.929   1.687  0.6982 -2.6855  1.0634
  182SOL    HW2  727   0.408   0.865   1.703  0.2843  1.5924  2.7676
  182SOL     MW  728   0.353   0.916   1.656  0.1796  0.5725  0.9846
  183SOL     OW  729   1.537   1.737   1.260 -0.4729 -0.3266 -0.4883
  183SOL    HW1  730   1.627   1.754   1.279 -0.6022  0.1002 -2.7325
  183SOL    HW2  731   1.518   1.651   1.303 -1.4308  4.5027  1.1671
  183SOL     MW  732   1.546   1.728   1.268 -0.6164  0.3669 -0.5660
  184SOL     OW  733   0.848   0.638   1.690  0.1686  0.1529 -0.1010
  184SOL    HW1  734   0.937   0.665   1.717 -2.0068  0.0039 -2.1809
  184SOL    HW2  735   0.824   0.568   1.750  1.8733 -0.0065 -1.0693
  184SOL     MW  736   0.857   0.632   1.701  0.1065  0.1122 -0.5032
  185SOL     OW  737   1.072   0.955   1.862  0.3648 -0.4686 -0.2102
  185SOL    HW1  738   1.051   0.873   1.910  0.3812  0.8835 -1.5585
  185SOL    HW2  739   1.104   1.015   1.931 -1.3213  4.2517  0.6929
  185SOL     MW  740   1.073   0.952   1.878  0.1445  0.3326 -0.2690
  186SOL     OW  741   0.297   1.641   1.519  0.4990  0.2735 -0.2844
  186SOL    HW1  742   0.316   1.600   1.435  2.4248 -0.3873  0.0779
  186SOL    HW2  743   0.205   1.625   1.535  1.6816 -0.2196  0.4736
  186SOL     MW  744   0.288   1.634   1.510  0.9091  0.1213 -0.1366
  187SOL     OW  745   1.405   0.851   1.362 -0.2368  0.4217  0.0138
  187SOL    HW1  746   1.396   0.852   1.454  1.6655  0.2822 -0.9846
  187SOL    HW2  747   1.311   0.850   1.347 -0.2029 -0.3367  1.4576
  187SOL     MW  748   1.392   0.851   1.372  0.0187  0.3032  0.0725
  188SOL     OW  749   1.872   1.218   0.918  0.1388  0.1020 -0.2507
  188SOL    HW1  750   1.918   1.216   1.003  1.1639 -1.2365 -1.2294
  188SOL    HW2  751   1.844   1.130   0.905  1.5505  1.2581 -0.6178
  188SOL     MW  752   1.874   1.206   0.927  0.4603  0.0779 -0.4283
  189SOL     OW  753   0.730   0.733   0.854  0.0804  0.6832 -0.0064
  189SOL    HW1  754   0.665   0.799   0.841  0.2539  1.8520 -2.2175
  189SOL    HW2  755   0.766   0.763   0.938 -1.6442 -0.2556 -1.1296
  189SOL     MW  756   0.726   0.745   0.863 -0.1243  0.7136 -0.4464
  190SOL     OW  757   1.882   0.298   2.035 -0.2914  0.4869  0.2883
  190SOL    HW1  758   1.890   0.250   2.118 -1.3533 -1.0891 -1.8256
  190SOL    HW2  759   1.957   0.363   2.033  0.5985  0.7099 -1.7414
  190SOL     MW  760   1.893   0.300   2.046 -0.3141  0.3084 -0.2584
  191SOL     OW  761   1.502   1.057   1.218 -0.1464  0.1749 -0.4743
  191SOL    HW1  762   1.488   1.129   1.282 -0.6723  3.7431  0.0421
  191SOL    HW2  763   1.458   0.983   1.257 -1.3063 -0.7788  0.5403
  191SOL     MW  764   1.495   1.057   1.231 -0.3688  0.5199 -0.2723
  192SOL     OW  765   0.525   2.202   2.944  0.4167  0.0293 -0.3167
  192SOL    HW1  766   0.470   2.235   2.871  0.0497  0.1887  0.8203
  192SOL    HW2  767   0.525   2.106   2.923  1.4431  2.0753 -1.9469
  192SOL     MW  768   0.518   2.193   2.931  0.5037  0.3203 -0.3818
  193SOL     OW  769   0.820   1.679   0.779 -0.1901  0.1046  0.0686
  193SOL    HW1  770   0.796   1.680   0.870  1.6421  0.8306 -4.2816
  193SOL    HW2  771   0.789   1.592   0.756 -2.7706 -2.5845 -0.0119
  193SOL     MW  772   0.812   1.668   0.788 -0.2888 -0.1544 -0.5159
  194SOL     OW  773   0.398   1.341   0.841  0.2521  0.2815  0.0945
  194SOL    HW1  774   0.368   1.290   0.911  1.7985  3.4791 -2.2491
  194SOL    HW2  775   0.322   1.389   0.815  2.8137 -0.0389 -0.7678
  194SOL     MW  776   0.384   1.341   0.847  0.7941  0.6611 -0.3285
  195SOL     OW  777   1.229   1.120   2.968 -0.2572 -0.0254  0.1079
  195SOL    HW1  778   1.258   1.125   3.060  2.3745  2.0820  1.6519
  195SOL    HW2  779   1.147   1.063   2.988 -2.7498  2.6688  0.7639
  195SOL     MW  780   1.222   1.113   2.983 -0.2389  0.6081  0.3981
  196SOL     OW  781   2.251   0.973   0.518  0.1780 -0.2459 -0.0044
  196SOL    HW1  782   2.288   0.962   0.426  0.6233  1.5917 -0.3038
  196SOL    HW2  783   2.219   1.061   0.519 -0.1527 -0.1038 -3.9816
  196SOL     MW  784   2.252   0.983   0.506  0.1931  0.0153 -0.5687
  197SOL     OW  785   0.617   1.292   2.188  0.4338 -0.8713  0.4313
  197SOL    HW1  786   0.647   1.219   2.130 -0.9141 -0.4742 -0.9956
  197SOL    HW2  787   0.661   1.370   2.145 -0.7172 -0.2393 -0.4026
  197SOL     MW  788   0.626   1.293   2.175  0.1041 -0.7355  0.1330
  198SOL     OW  789   2.918   1.367   1.043  0.0587  0.0427  0.7172
  198SOL    HW1  790   2.902   1.454   1.003 -0.8208 -0.4216 -0.3525
  198SOL    HW2  791   2.838   1.316   1.012 -2.5260 -0.8425 -2.9028
  198SOL     MW  792   2.905   1.372   1.033 -0.3984 -0.1354  0.0984
  199SOL     OW  793   0.648   1.210   1.832 -0.2372 -0.1540 -0.3522
  199SOL    HW1  794   0.556   1.190   1.844  2.5408 -1.7469  0.2750
  199SOL    HW2  795   0.650   1.280   1.764 -1.7108 -2.6168  1.8673
  199SOL     MW  796   0.636   1.217   1.825 -0.0651 -0.6891  0.0234
  200SOL     OW  797   1.866   2.959   1.301  0.1946 -0.1962  0.1863
  200SOL    HW1  798   1.923   2.966   1.219  1.5625 -0.1674 -1.2464
  200SOL    HW2  799   1.818   3.042   1.293  0.8124 -0.2671 -1.4578
  200SOL     MW  800   1.867   2.971   1.289  0.4566 -0.2017 -0.2196
  201SOL     OW  801   1.194   0.302   0.861  0.4243  0.4130  0.1737
  201SOL    HW1  802   1.173   0.220   0.822  2.0400  2.6632  0.1953
  201SOL    HW2  803   1.292   0.302   0.856  0.4055 -1.4693  1.5671
  201SOL     MW  804   1.204   0.292   0.856  0.6350  0.4615  0.3604
  202SOL     OW  805   1.428   1.674   1.009 -0.8652 -0.7400 -0.0978
  202SOL    HW1  806   1.437   1.581   1.023  0.2867  1.4102 -0.9274
  202SOL    HW2  807   1.484   1.713   1.085  0.1064  0.7628  2.4513
  202SOL     MW  808   1.437   1.667   1.021 -0.5850 -0.2580  0.1290
  203SOL     OW  809   0.007   0.412   1.345 -0.0049 -0.2800 -0.3388
  203SOL    HW1  810   0.011   0.321   1.372 -2.2672  0.7277  1.8664
  203SOL    HW2  811   0.085   0.420   1.291 -0.2057  0.8318  1.3312
  203SOL     MW  812   0.018   0.401   1.342 -0.3299 -0.0004  0.1725
  204SOL     OW  813   1.015   1.831   0.653  0.4301 -0.4540 -0.1275
  204SOL    HW1  814   0.958   1.765   0.693  2.7949 -0.9584  1.0554
  204SOL    HW2  815   0.963   1.860   0.577  0.0052 -0.3918 -0.0447
  204SOL     MW  816   1.001   1.826   0.649  0.6861 -0.5123  0.0395
  205SOL     OW  817   1.388   2.993   1.358  0.0094 -0.1030  0.9026
  205SOL    HW1  818   1.420   3.051   1.287  0.3273 -1.3518 -0.0643
  205SOL    HW2  819   1.303   3.033   1.375  0.5648 -1.6475 -0.1316
  205SOL     MW  820   1.381   3.006   1.351  0.1247 -0.4716  0.6386
  206SOL     OW  821   0.352   2.869   1.380 -0.3639 -0.2363  0.1428
  206SOL    HW1  822   0.343   2.912   1.296  0.8864  0.9589  0.3736
  206SOL    HW2  823   0.448   2.858   1.390  0.2518  0.2698 -0.4027
  206SOL     MW  824   0.363   2.873   1.370 -0.1177 -0.0118  0.1013
  207SOL     OW  825   0.857   1.719   0.219 -0.0405 -0.1923  0.1349
  207SOL    HW1  826   0.935   1.769   0.194 -2.1111  0.6416 -1.1859
  207SOL    HW2  827   0.886   1.634   0.260  0.4307 -2.0655 -1.5003
  207SOL     MW  828   0.871   1.714   0.221 -0.2516 -0.3294 -0.2551
  208SOL     OW  829   0.777   1.496   1.376 -0.2136 -0.2405 -0.0386
  208SOL    HW1  830   0.855   1.504   1.330 -1.8574 -2.1967 -0.2689
  208SOL    HW2  831   0.728   1.427   1.323  0.5349  3.0426  1.1773
  208SOL     MW  832   0.781   1.488   1.363 -0.3317 -0.0654  0.0915
  209SOL     OW  833   1.620   0.499   2.819  0.1202  0.3601 -0.1416
  209SOL    HW1  834   1.670   0.586   2.816  1.3372  0.0805 -2.0011
  209SOL    HW2  835   1.681   0.433   2.845 -0.3380  1.7929  3.0616
  209SOL     MW  836   1.634   0.502   2.822  0.2203  0.5122  0.0357
  210SOL     OW  837   1.441   1.404   0.955  0.2756 -0.2229 -0.2762
  210SOL    HW1  838   1.534   1.430   0.948 -2.1428 -0.9928  1.6406
  210SOL    HW2  839   1.407   1.436   0.867  0.9021 -0.6433 -0.8879
  210SOL     MW  840   1.449   1.412   0.942  0.0391 -0.3799 -0.1040
  211SOL     OW  841   1.748   0.432   0.870 -0.1529 -1.1349 -0.6412
  211SOL    HW1  842   1.747   0.399   0.781  1.3446 -2.9067 -1.2059
  211SOL    HW2  843   1.832   0.439   0.904  1.1561 -1.0695  1.1473
  211SOL     MW  844   1.759   0.429   0.863  0.2174 -1.3600 -0.4797
  212SOL     OW  845   0.406   1.224   0.238 -0.4395  0.0980  0.6479
  212SOL    HW1  846   0.359   1.141   0.229  2.8846 -1.0947 -3.0301
  212SOL    HW2  847   0.483   1.212   0.168  2.8289 -1.7456 -1.7931
  212SOL     MW  848   0.410   1.212   0.228  0.4303 -0.3026 -0.1595
  213SOL     OW  849   0.423   1.803   3.072 -0.0173  0.2880  0.3384
  213SOL    HW1  850   0.476   1.859   3.127 -0.2374  1.1463  0.8216
  213SOL    HW2  851   0.457   1.847   2.991  1.2550  0.5093  1.7544
  213SOL     MW  852   0.435   1.816   3.069  0.1215  0.4304  0.5890
  214SOL     OW  853   0.568   0.359   2.122  0.0858 -0.0303 -0.1998
  214SOL    HW1  854   0.523   0.441   2.108  0.9150 -2.0603  0.3760
  214SOL    HW2  855   0.571   0.334   2.025  1.4224 -2.3571  2.0278
  214SOL     MW  856   0.562   0.367   2.107  0.3716 -0.6052  0.1701
  215SOL     OW  857   0.545   0.562   2.498  0.5495  0.9882  0.3773
  215SOL    HW1  858   0.475   0.598   2.448  2.2989  1.8685 -0.0724
  215SOL    HW2  859   0.540   0.474   2.455  3.8008 -0.2407 -0.1545
  215SOL     MW  860   0.535   0.555   2.486  1.2093  0.9422  0.2478
  216SOL     OW  861   2.916   3.087   2.854  0.0314  0.0175 -0.2790
  216SOL    HW1  862   2.820   3.062   2.847  1.8841 -4.1176  1.3185
  216SOL    HW2  863   2.936   3.123   2.773 -2.1122 -1.4837 -1.7973
  216SOL     MW  864   2.906   3.088   2.843 -0.0070 -0.7261 -0.2686
  217SOL     OW  865   0.937   1.097   0.142 -0.5819  0.0562 -0.1183
  217SOL    HW1  866   0.937   1.029   0.075 -0.1737  2.5242  0.4737
  217SOL    HW2  867   0.992   1.165   0.097  0.8472  0.8247 -1.8862
  217SOL     MW  868   0.944   1.097   0.128 -0.3395  0.4832 -0.2734
  218SOL     OW  869   0.811   1.411   2.609  0.1849 -0.0685  0.2779
  218SOL    HW1  870   0.796   1.333   2.662  1.2709  1.4541  0.6520
  218SOL    HW2  871   0.905   1.429   2.633  1.8006 -0.8450  1.4351
  218SOL     MW  872   0.821   1.403   2.620  0.5413  0.0299  0.4799
  219SOL     OW  873   1.071   0.455   2.543  0.4721 -0.0560 -0.5079
  219SOL    HW1  874   1.151   0.489   2.524  0.9967 -3.8069 -2.0831
  219SOL    HW2  875   1.010   0.529   2.540  0.4149 -0.9148 -0.3302
  219SOL     MW  876   1.073   0.469   2.540  0.5338 -0.6642 -0.6923
  220SOL     OW  877   1.673   0.502   2.210  0.0318  0.1191 -0.5076
  220SOL    HW1  878   1.587   0.543   2.190  1.3788  2.4025 -0.1524
  220SOL    HW2  879   1.679   0.422   2.154 -0.7978  0.7191 -0.8616
  220SOL     MW  880   1.663   0.497   2.200  0.1001  0.4996 -0.5074
  221SOL     OW  881   0.344   1.366   2.932 -0.2799 -0.0426 -0.1229
  221SOL    HW1  882   0.387   1.278   2.907 -2.5769 -1.0312 -2.7677
  221SOL    HW2  883   0.420   1.423   2.931 -1.6904 -2.8711 -0.3454
  221SOL     MW  884   0.360   1.362   2.929 -0.7690 -0.5462 -0.5012
  222SOL     OW  885   0.518   0.908   2.732  0.0008 -0.0953 -0.1593
  222SOL    HW1  886   0.446   0.935   2.676 -0.4685  2.0691  1.3496
  222SOL    HW2  887   0.532   0.814   2.716 -1.1861  1.0531 -1.1599
  222SOL     MW  888   0.511   0.899   2.722 -0.2177  0.3418 -0.0922
  223SOL     OW  889   3.052   2.050   2.528  0.4557  0.9206  0.1780
  223SOL    HW1  890   3.041   2.048   2.622 -3.0574 -4.2789  1.1107
  223SOL    HW2  891   3.116   2.118   2.511  0.2898  0.9036  4.5642
  223SOL     MW  892   3.059   2.059   2.538 -0.0297  0.2324  0.8797
  224SOL     OW  893   1.450   0.616   2.412 -0.3413 -0.9177 -0.1824
  224SOL    HW1  894   1.530   0.571   2.441 -3.0675 -0.3353  0.5860
  224SOL    HW2  895   1.461   0.700   2.455  0.2205 -0.9950  0.8707
  224SOL     MW  896   1.462   0.621   2.421 -0.6269 -0.8511  0.0579
  225SOL     OW  897   2.917   1.507   2.188 -0.3682  0.0656  0.1415
  225SOL    HW1  898   2.970   1.585   2.165 -2.3305 -0.2630  1.8692
  225SOL    HW2  899   2.858   1.526   2.260 -0.5311  0.8109  0.6016
  225SOL     MW  900   2.916   1.520   2.194 -0.6486  0.1206  0.4302
  226SOL     OW  901   0.453   1.571   2.704 -0.0919  0.5170  0.6377
  226SOL    HW1  902   0.537   1.585   2.657  1.1958 -2.0894  0.0574
  226SOL    HW2  903   0.398   1.647   2.688 -2.4999 -2.2455 -1.0002
  226SOL     MW  904   0.457   1.583   2.696 -0.2397 -0.1913  0.3450
  227SOL     OW  905   0.511   1.144   2.889 -0.2523 -0.0509 -0.2449
  227SOL    HW1  906   0.589   1.160   2.841 -2.0812  0.6528 -0.2883
  227SOL    HW2  907   0.481   1.056   2.855 -1.4051 -2.5751 -2.0486
  227SOL     MW  908   0.517   1.134   2.878 -0.6457 -0.2911 -0.4886
  228SOL     OW  909   0.792   1.104   2.017  0.3741  0.2071  0.3410
  228SOL    HW1  910   0.745   1.141   1.946 -0.9987 -1.3577  2.9231
  228SOL    HW2  911   0.864   1.166   2.030  0.8143 -0.8880 -0.0728
  228SOL     MW  912   0.795   1.117   2.009  0.2510 -0.1438  0.6270
  229SOL     OW  913   0.176   0.579   0.030 -0.3860  0.3240  0.0342
  229SOL    HW1  914   0.102   0.586  -0.036 -0.5210  2.1717 -0.3952
  229SOL    HW2  915   0.158   0.493   0.074  1.6558  1.7433  0.7669
  229SOL     MW  916   0.164   0.569   0.027 -0.1344  0.7550  0.0742
  230SOL     OW  917   1.766   1.356   2.159 -0.4812  0.8964  0.5387
  230SOL    HW1  918   1.699   1.361   2.230  4.1341  1.6759  2.3139
  230SOL    HW2  919   1.819   1.273   2.155  0.3862  0.5320  0.2941
  230SOL     MW  920   1.764   1.346   2.168  0.2422  0.9512  0.7407
  231SOL     OW  921   2.708   1.255   2.221 -0.0557 -0.8416 -0.0478
  231SOL    HW1  922   2.746   1.341   2.203 -2.9057  0.1404 -0.6219
  231SOL    HW2  923   2.639   1.254   2.147  0.3564  1.1983 -3.0845
  231SOL     MW  924   2.704   1.266   2.208 -0.3773 -0.4429 -0.5242
  232SOL     OW  925   2.261   0.886   1.993 -0.1020 -0.0255  0.5356
  232SOL    HW1  926   2.194   0.949   1.975  0.7368 -0.9013  1.5019
  232SOL    HW2  927   2.231   0.834   2.074 -1.4971  3.0012  1.3354
  232SOL     MW  928   2.248   0.887   2.002 -0.1754  0.2583  0.7686
  233SOL     OW  929   2.098   0.446   2.055  0.2815  0.0497 -0.2690
  233SOL    HW1  930   2.160   0.378   2.059 -4.3870  3.1016  0.8451
  233SOL    HW2  931   2.071   0.458   2.142  0.4198  0.0520 -1.4537
  233SOL     MW  932   2.103   0.438   2.067 -0.3162  0.4527 -0.2783
  234SOL     OW  933   0.264   1.060   2.623  0.2241 -0.1032 -0.0198
  234SOL    HW1  934   0.181   1.049   2.572 -0.8426  1.7408 -0.9123
  234SOL    HW2  935   0.290   1.147   2.613 -1.0794 -0.0495 -2.3609
  234SOL     MW  936   0.257   1.070   2.615 -0.0886  0.1472 -0.4465
  235SOL     OW  937   1.113   0.032   2.819 -0.6700 -0.1262 -0.0352
  235SOL    HW1  938   1.129   0.040   2.911 -2.0126 -0.5613 -1.7703
  235SOL    HW2  939   1.097   0.125   2.797  0.6257  1.0934 -0.7281
  235SOL     MW  940   1.113   0.045   2.828 -0.6762 -0.0227 -0.3556
  236SOL     OW  941   2.956   0.622   0.170 -0.3855  0.3997 -0.5927
  236SOL    HW1  942   2.960   0.673   0.249 -0.9109  1.4502 -3.8600
  236SOL    HW2  943   3.025   0.654   0.115  1.9405 -0.2601 -0.8080
  236SOL     MW  944   2.966   0.633   0.173 -0.1480  0.4512 -1.0522
  237SOL     OW  945   1.909   1.127   2.122  0.7085 -0.2979  0.4010
  237SOL    HW1  946   1.828   1.068   2.157 -1.8077 -1.0855 -2.2844
  237SOL    HW2  947   1.894   1.131   2.027  0.9966  2.1003 -1.2659
  237SOL     MW  948   1.896   1.120   2.114  0.4145 -0.0854 -0.1732
  238SOL     OW  949   1.099   1.711   2.901 -0.0438 -0.2077  0.1698
  238SOL    HW1  950   1.047   1.645   2.859  1.7784 -1.5720 -3.2869
  238SOL    HW2  951   1.192   1.684   2.888 -0.0817 -0.3621  2.0885
  238SOL     MW  952   1.105   1.699   2.894  0.1916 -0.4081 -0.0331
  239SOL     OW  953   1.171   1.276   2.370  0.1714 -0.4595  0.2958
  239SOL    HW1  954   1.107   1.349   2.373  1.0644  2.1007  0.2217
  239SOL    HW2  955   1.172   1.225   2.452 -2.0004  0.9061  1.0257
  239SOL     MW  956   1.163   1.279   2.381  0.0027  0.0585  0.3823
  240SOL     OW  957   0.579   0.838   2.301  0.2257  0.1168 -0.1857
  240SOL    HW1  958   0.592   0.879   2.385  1.7847 -0.5044 -1.4909
  240SOL    HW2  959   0.667   0.838   2.276  1.7374  0.3477  0.4649
  240SOL     MW  960   0.592   0.843   2.309  0.6308  0.0653 -0.2721
  241SOL     OW  961   0.671   0.456   3.087 -0.2461 -0.0882 -0.4266
  241SOL    HW1  962   0.697   0.539   3.132 -1.3098  2.3385 -0.8466
  241SOL    HW2  963   0.586   0.477   3.043  1.0076  2.1568  2.9090
  241SOL     MW  964   0.663   0.470   3.087 -0.2211  0.5282 -0.0419
  242SOL     OW  965   1.518   1.613   2.289  0.3143 -0.1708 -0.1175
  242SOL    HW1  966   1.470   1.684   2.334  1.8695  1.0616 -0.1128
  242SOL    HW2  967   1.451   1.577   2.236 -1.0326  1.7615  0.6616
  242SOL     MW  968   1.503   1.618   2.288  0.3418  0.2468 -0.0141
  243SOL     OW  969   0.960   0.218   2.426  0.1936 -0.6093  0.7543
  243SOL    HW1  970   1.042   0.174   2.410 -1.0019 -1.0650  0.1984
  243SOL    HW2  971   0.986   0.298   2.475 -1.3257 -2.9041  0.1694
  243SOL     MW  972   0.975   0.223   2.430 -0.1646 -0.9722  0.6038
  244SOL     OW  973   0.119   0.796   2.386 -0.6768  0.1304 -0.0740
  244SOL    HW1  974   0.109   0.890   2.412  0.3926  3.0234 -0.8536
  244SOL    HW2  975   0.208   0.779   2.357  2.7009  0.7228  0.4807
  244SOL     MW  976   0.130   0.806   2.386 -0.0900  0.5902 -0.1037
  245SOL     OW  977   1.264   0.097   2.395 -0.6422 -0.1926  0.2636
  245SOL    HW1  978   1.329   0.082   2.329 -2.8148 -0.6185  1.7187
  245SOL    HW2  979   1.298   0.053   2.468  0.2074  2.3979 -2.4024
  245SOL     MW  980   1.277   0.089   2.396 -0.8167  0.0930  0.1039
  246SOL     OW  981   1.183   1.073   2.086 -0.1366 -0.3185 -0.0792
  246SOL    HW1  982   1.109   1.077   2.145 -1.2967 -1.0087 -0.1838
  246SOL    HW2  983   1.249   1.047   2.154 -0.3488 -1.4329  0.9760
  246SOL     MW  984   1.182   1.070   2.102 -0.3176 -0.5566  0.0463
  247SOL     OW  985   0.784   0.650   0.182 -0.1933  0.1659 -0.3994
  247SOL    HW1  986   0.764   0.746   0.170  0.2459  1.5012 -0.9056
  247SOL    HW2  987   0.858   0.622   0.132  1.8713  0.1054 -1.5901
  247SOL     MW  988   0.791   0.659   0.174  0.1370  0.3341 -0.6233
  248SOL     OW  989   0.351   1.326   2.632  0.2120 -0.5385  0.0944
  248SOL    HW1  990   0.353   1.335   2.538 -0.0862 -0.5803 -0.4804
  248SOL    HW2  991   0.377   1.411   2.664 -1.7246 -0.5521 -1.6653
  248SOL     MW  992   0.355   1.338   2.624 -0.0829 -0.5458 -0.2136
  249SOL     OW  993   3.023   1.901   2.804 -0.1633 -0.4936  0.0138
  249SOL    HW1  994   2.985   1.818   2.771  1.6367 -0.9784  0.4521
  249SOL    HW2  995   3.116   1.885   2.820 -0.1341 -2.4440  0.8086
  249SOL     MW  996   3.030   1.888   2.802  0.0781 -0.8149  0.1765
  250SOL     OW  997   2.270   0.701   2.198  0.0093 -0.4769  0.5655
  250SOL    HW1  998   2.202   0.656   2.237  0.1535 -0.1426 -2.4014
  250SOL    HW2  999   2.352   0.685   2.257 -0.0671  2.0799 -1.0330
  250SOL     MW 1000   2.272   0.693   2.211  0.0182 -0.0954 -0.0369
  251SOL     OW 1001   0.165   0.878   2.000 -0.1460  0.2026 -0.5730
  251SOL    HW1 1002   0.112   0.800   2.019 -4.1149 -1.5979  1.2810
  251SOL    HW2 1003   0.165   0.884   1.904 -2.9420  2.8243 -1.7377
  251SOL     MW 1004   0.158   0.869   1.990 -1.0386  0.3110 -0.4821
  252SOL     OW 1005   1.708   1.022   2.890  0.1743 -0.0814  0.2970
  252SOL    HW1 1006   1.718   1.091   2.951 -0.4761  0.7315 -0.9570
  252SOL    HW2 1007   1.775   1.046   2.828  4.5772  2.4380  1.3440
  252SOL     MW 1008   1.718   1.034   2.890  0.6694  0.3583  0.2697
  253SOL     OW 1009   1.139   1.669   2.547  0.1393  0.1662  0.4449
  253SOL    HW1 1010   1.132   1.637   2.453  0.3842 -2.4513 -2.9518
  253SOL    HW2 1011   1.064   1.727   2.545  0.2247 -1.5410  1.1218
  253SOL     MW 1012   1.128   1.672   2.534  0.1829 -0.4044  0.0860
  254SOL     OW 1013   0.980   1.046   2.279 -0.2140 -0.0139  0.4548
  254SOL    HW1 1014   0.925   0.971   2.249 -3.0784 -1.3834  0.7203
  254SOL    HW2 1015   0.922   1.103   2.328  1.3822 -1.3964  0.0678
  254SOL     MW 1016   0.965   1.043   2.282 -0.3814 -0.3770  0.4388
  255SOL     OW 1017   0.868   2.465   2.151  0.3310 -1.0578  0.8973
  255SOL    HW1 1018   0.776   2.439   2.143 -2.4086  0.2141 -1.2599
  255SOL    HW2 1019   0.924   2.401   2.204  0.9478 -0.0621 -0.5946
  255SOL     MW 1020   0.863   2.453   2.157  0.0509 -0.7586  0.4158
  256SOL     OW 1021   1.340   2.818   3.061 -0.7458  0.9254  0.1642
  256SOL    HW1 1022   1.299   2.736   3.082  1.1410 -0.0863  0.7402
  256SOL    HW2 1023   1.391   2.792   2.982 -2.7263 -0.9865  0.5812
  256SOL     MW 1024   1.341   2.804   3.053 -0.7581  0.5397  0.2952
  257SOL     OW 1025   0.060   1.979   0.036  0.4158  0.0142 -0.3246
  257SOL    HW1 1026   0.112   1.942   0.110  1.0905 -1.9187  0.7006
  257SOL    HW2 1027   0.069   1.926  -0.041 -1.5453  1.8263 -1.0188
  257SOL     MW 1028   0.068   1.967   0.036  0.2461 -0.0017 -0.2809
  258SOL     OW 1029   0.700   0.984   2.535  0.1131 -0.3283  0.2663
  258SOL    HW1 1030   0.712   1.080   2.509 -0.0252  0.6189 -0.8085
  258SOL    HW2 1031   0.672   0.962   2.627  1.1906  1.2251 -0.1208
  258SOL     MW 1032   0.698   0.993   2.543  0.2370  0.0016  0.0734
  259SOL     OW 1033   0.809   0.416   2.261  0.0899  0.0910  0.0290
  259SOL    HW1 1034   0.731   0.385   2.218  1.2124  1.3473 -0.1017
  259SOL    HW2 1035   0.856   0.335   2.280 -2.3521  1.7174  0.6872
  259SOL     MW 1036   0.805   0.401   2.258 -0.0842  0.4713  0.0986
  260SOL     OW 1037   0.668   0.075   1.610  0.7587  0.0030  0.0186
  260SOL    HW1 1038   0.592   0.110   1.567  2.0301  2.8087 -1.7621
  260SOL    HW2 1039   0.746   0.119   1.572 -3.1380  1.3847 -0.2904
  260SOL     MW 1040   0.668   0.085   1.599  0.4123  0.5555 -0.2572
  261SOL     OW 1041   1.015   0.744   2.019 -0.3528 -0.3092  0.1533
  261SOL    HW1 1042   1.098   0.741   2.072  1.5000 -0.7440 -3.7900
  261SOL    HW2 1043   0.996   0.651   1.983  0.1201 -2.2142 -1.4122
  261SOL     MW 1044   1.024   0.731   2.021 -0.0459 -0.6179 -0.5735
  262SOL     OW 1045   1.105   0.322   0.142 -0.2031  0.3370 -0.3179
  262SOL    HW1 1046   1.175   0.352   0.080  1.0820  0.7450  1.3367
  262SOL    HW2 1047   1.055   0.256   0.093 -1.2067 -0.5295 -0.9914
  262SOL     MW 1048   1.108   0.317   0.127 -0.1660  0.2765 -0.1884
  263SOL     OW 1049   0.384   0.007   2.482 -0.7875  0.2513 -0.1177
  263SOL    HW1 1050   0.296   0.041   2.503 -1.5880  0.9877  1.6119
  263SOL    HW2 1051   0.420   0.051   2.409  1.1758  1.6913 -0.3933
  263SOL     MW 1052   0.377   0.017   2.475 -0.6341  0.5384  0.0741
  264SOL     OW 1053   1.537   1.463   1.935 -0.0907  0.0340  0.3591
  264SOL    HW1 1054   1.463   1.396   1.925 -0.8618  1.1201  3.1670
  264SOL    HW2 1055   1.607   1.404   1.955 -2.6534 -3.5800  6.4285
  264SOL     MW 1056   1.537   1.447   1.936 -0.5306 -0.2996  1.5303
  265SOL     OW 1057   0.707   2.771   2.337  0.2926 -0.0953 -0.1756
  265SOL    HW1 1058   0.796   2.751   2.303 -1.0586 -1.9936 -1.8224
  265SOL    HW2 1059   0.723   2.785   2.434 -0.5393  2.1288  1.1485
  265SOL     MW 1060   0.721   2.770   2.346  0.0046 -0.0523 -0.2181
  266SOL     OW 1061   0.801   0.849   2.141 -0.5010  0.1408 -0.3995
  266SOL    HW1 1062   0.793   0.931   2.097 -2.0929 -1.4294 -1.2012
  266SOL    HW2 1063   0.884   0.811   2.098 -0.0964  0.8010  0.8591
  266SOL     MW 1064   0.811   0.855   2.129 -0.6577  0.0208 -0.3392
  267SOL     OW 1065   1.382   1.740   2.693 -0.0083 -0.4499  0.4215
  267SOL    HW1 1066   1.450   1.683   2.663  0.9501 -0.6055  0.1965
  267SOL    HW2 1067   1.295   1.698   2.666 -1.8763 -0.4050 -1.3786
  267SOL     MW 1068   1.380   1.727   2.686 -0.1283 -0.4645  0.1543
  268SOL     OW 1069   0.084   0.907   1.715 -0.1929 -0.1978 -0.5936
  268SOL    HW1 1070   0.011   0.946   1.759  1.5540  0.3107  0.9904
  268SOL    HW2 1071   0.040   0.846   1.648 -1.9923 -2.4140 -1.5872
  268SOL     MW 1072   0.069   0.904   1.712 -0.1998 -0.4231 -0.5157
  269SOL     OW 1073   1.356   1.828   2.406 -0.4316 -0.4287 -0.1945
  269SOL    HW1 1074   1.414   1.862   2.475 -3.0325 -1.4710  1.8956
  269SOL    HW2 1075   1.290   1.770   2.452 -1.4024  0.4799  2.9341
  269SOL     MW 1076   1.355   1.825   2.421 -0.9029 -0.4463  0.4941
  270SOL     OW 1077   1.093   0.467   1.532  0.4205  0.4711  0.3077
  270SOL    HW1 1078   1.063   0.385   1.569 -1.3901  1.0503 -1.1502
  270SOL    HW2 1079   1.175   0.449   1.497 -4.2664 -1.6257  0.5565
  270SOL     MW 1080   1.100   0.454   1.532 -0.4368  0.2709  0.1482
  271SOL     OW 1081   0.745   0.091   2.567 -0.8428  0.4450  0.7013
  271SOL    HW1 1082   0.754   0.049   2.652  1.5554  0.2980  0.0573
  271SOL    HW2 1083   0.827   0.108   2.527 -2.7147 -1.1975 -1.4406
  271SOL     MW 1084   0.757   0.087   2.573 -0.7734  0.2089  0.3337
  272SOL     OW 1085   1.465   2.791   2.830  0.9037  0.5668  0.3377
  272SOL    HW1 1086   1.432   2.772   2.747 -0.7234  2.4008  1.8013
  272SOL    HW2 1087   1.521   2.873   2.822  0.8021 -1.4931  1.3769
  272SOL     MW 1088   1.468   2.800   2.818  0.6756  0.5370  0.6679
  273SOL     OW 1089   1.454   0.799   2.809 -0.3210 -0.1969  0.2073
  273SOL    HW1 1090   1.537   0.756   2.832  0.7469 -0.7302  1.2189
  273SOL    HW2 1091   1.478   0.891   2.791  2.5386 -1.0459 -0.7101
  273SOL     MW 1092   1.468   0.805   2.809  0.1972 -0.3793  0.2197
  274SOL     OW 1093   1.399   0.647   0.126 -0.2111  0.4204  0.4691
  274SOL    HW1 1094   1.456   0.586   0.177 -0.7735 -0.2517  0.5010
  274SOL    HW2 1095   1.328   0.673   0.192  1.1908 -1.0090  0.1565
  274SOL     MW 1096   1.397   0.642   0.141 -0.1004  0.1431  0.4320
  275SOL     OW 1097   1.866   0.554   1.704  0.3521 -0.0432  0.1882
  275SOL    HW1 1098   1.923   0.591   1.768  1.3221  1.1182 -0.5288
  275SOL    HW2 1099   1.853   0.468   1.738  3.1875  0.9286  0.8784
  275SOL     MW 1100   1.872   0.547   1.717  0.8542  0.2383  0.1846
  276SOL     OW 1101   0.415   1.168   1.943  0.6980  0.1093  0.2747
  276SOL    HW1 1102   0.418   1.085   1.991  0.6489  1.2176 -0.6679
  276SOL    HW2 1103   0.372   1.230   2.005 -0.4504  1.6939  1.0099
  276SOL     MW 1104   0.409   1.165   1.958  0.5400  0.4646  0.2473
  277SOL     OW 1105   1.962   1.141   2.455  0.6336  0.2272 -0.1385
  277SOL    HW1 1106   2.004   1.219   2.492  1.6965  0.8965 -0.8452
  277SOL    HW2 1107   1.952   1.157   2.361 -4.7557  1.6312 -2.2219
  277SOL     MW 1108   1.966   1.154   2.447  0.0627  0.5008 -0.5066
  278SOL     OW 1109   1.456   0.619   1.605 -0.6445 -0.1427  0.4999
  278SOL    HW1 1110   1.473   0.598   1.693 -0.7087  0.0838 -0.7800
  278SOL    HW2 1111   1.540   0.647   1.566  0.9146 -2.4286  0.8076
  278SOL     MW 1112   1.469   0.620   1.612 -0.4473 -0.4144  0.3717
  279SOL     OW 1113   0.502   0.088   2.205 -0.2687 -0.3192 -0.4003
  279SOL    HW1 1114   0.597   0.057   2.213  0.4777 -1.1347  2.7605
  279SOL    HW2 1115   0.522   0.184   2.208  1.4138 -0.8053 -2.6900
  279SOL     MW 1116   0.517   0.097   2.206  0.0518 -0.4909 -0.2853
  280SOL     OW 1117   1.381   0.990   2.233  0.1828 -0.1845 -0.0691
  280SOL    HW1 1118   1.472   0.980   2.211  0.8220  0.6066  0.8749
  280SOL    HW2 1119   1.356   0.956   2.318  0.1456  0.0303  0.8489
  280SOL     MW 1120   1.390   0.984   2.241  0.2622 -0.0518  0.1766
  281SOL     OW 1121   1.394   1.070   2.773  0.0606 -0.0599  0.2276
  281SOL    HW1 1122   1.433   1.157   2.769 -0.8518 -0.5036 -1.2586
  281SOL    HW2 1123   1.341   1.080   2.853 -0.3576 -2.0599  0.3553
  281SOL     MW 1124   1.392   1.083   2.783 -0.1149 -0.3823  0.0484
  282SOL     OW 1125   1.082   1.324   1.627 -0.4801  0.3597 -0.5244
  282SOL    HW1 1126   1.070   1.387   1.561 -2.0568 -0.7760  2.5914
  282SOL    HW2 1127   0.998   1.300   1.659 -0.0645  0.1438 -1.2130
  282SOL     MW 1128   1.069   1.330   1.622 -0.6333  0.1814 -0.2041
  283SOL     OW 1129   0.823   1.335   3.010  0.2448 -0.4915 -0.4647
  283SOL    HW1 1130   0.904   1.358   3.062 -0.4491 -1.2376  3.0982
  283SOL    HW2 1131   0.777   1.418   3.011 -2.2722 -0.4431 -0.3384
  283SOL     MW 1132   0.827   1.349   3.017 -0.1788 -0.5835  0.0221
  284SOL     OW 1133   0.352   0.681   2.347  0.2359  0.1617  0.4474
  284SOL    HW1 1134   0.425   0.750   2.341  1.5613 -1.9940 -1.2401
  284SOL    HW2 1135   0.355   0.640   2.260  2.1958 -0.3257  1.2616
  284SOL     MW 1136   0.362   0.684   2.335  0.6694 -0.1870  0.3322
  285SOL     OW 1137   0.866   0.930   2.796  0.3624  0.6057 -0.3437
  285SOL    HW1 1138   0.919   0.955   2.719  0.5070  1.1746  1.6413
  285SOL    HW2 1139   0.806   0.865   2.776  0.7447  0.9328  0.8411
  285SOL     MW 1140   0.865   0.925   2.783  0.4319  0.7239  0.0746
  286SOL     OW 1141   1.063   1.442   2.736 -0.2562 -0.1174  0.0190
  286SOL    HW1 1142   1.093   1.353   2.727 -1.1223 -1.0498 -0.6162
  286SOL    HW2 1143   1.101   1.477   2.655 -2.1534  1.2027  1.9158
  286SOL     MW 1144   1.072   1.435   2.724 -0.6208 -0.0662  0.1854
  287SOL     OW 1145   1.090   0.962   0.324 -0.0003  0.3510  0.2190
  287SOL    HW1 1146   1.069   0.989   0.415  1.3620  1.3893 -2.2376
  287SOL    HW2 1147   1.055   1.029   0.267 -1.2996  0.5322 -0.5516
  287SOL     MW 1148   1.082   0.974   0.329  0.0080  0.5119 -0.2068
  288SOL     OW 1149   1.494   0.717   2.089 -0.0210  0.7271  0.0834
  288SOL    HW1 1150   1.407   0.721   2.125  3.8736 -1.6413 -0.8481
  288SOL    HW2 1151   1.545   0.788   2.123 -2.4710 -1.7905 -0.3144
  288SOL     MW 1152   1.489   0.727   2.098  0.1696  0.0825 -0.0920
  289SOL     OW 1153   1.006   1.015   2.584  0.2648  0.8597  0.0408
  289SOL    HW1 1154   1.057   0.955   2.539  0.2958  1.7607  0.2252
  289SOL    HW2 1155   0.928   1.038   2.532  3.1138 -0.2597  1.4443
  289SOL     MW 1156   1.002   1.010   2.572  0.6448  0.8309  0.2503
  290SOL     OW 1157   0.692   0.646   1.479  0.1855  0.0896  0.0539
  290SOL    HW1 1158   0.739   0.606   1.407  1.5320  1.6511  1.9217
  290SOL    HW2 1159   0.748   0.647   1.558 -1.6537 -0.3902 -2.1509
  290SOL     MW 1160   0.706   0.641   1.480  0.1205  0.2323  0.0094
  291SOL     OW 1161   0.209   0.347   0.213 -0.6259 -0.2896  0.0118
  291SOL    HW1 1162   0.294   0.313   0.214 -2.2631  1.2491  1.3344
  291SOL    HW2 1163   0.159   0.284   0.263 -3.1164  2.3015  1.4346
  291SOL     MW 1164   0.213   0.334   0.220 -1.1705  0.2553  0.3740
  292SOL     OW 1165   1.026   0.567   0.077  0.0066 -0.1185 -0.1811
  292SOL    HW1 1166   1.074   0.605   0.150 -1.6577 -1.1316  0.3689
  292SOL    HW2 1167   1.034   0.468   0.099  1.5372 -1.0019  2.3119
  292SOL     MW 1168   1.034   0.559   0.090 -0.0111 -0.3687  0.2204
  293SOL     OW 1169   0.136   0.124   2.525 -0.7870 -0.5198 -0.0665
  293SOL    HW1 1170   0.097   0.107   2.440 -1.3901  1.3450 -0.3253
  293SOL    HW2 1171   0.054   0.131   2.580  2.0168 -3.0867 -0.6155
  293SOL     MW 1172   0.120   0.122   2.521 -0.4967 -0.6124 -0.1731
  294SOL     OW 1173   1.257   0.437   2.295 -0.6339  0.0611 -0.0804
  294SOL    HW1 1174   1.330   0.483   2.342  2.1857  0.7389  0.1505
  294SOL    HW2 1175   1.267   0.354   2.336  1.3251  0.0280 -2.4738
  294SOL     MW 1176   1.268   0.432   2.307 -0.0034  0.1461 -0.3657
  295SOL     OW 1177   0.861   0.661   2.481  0.4168  0.2442 -0.0474
  295SOL    HW1 1178   0.811   0.608   2.420  0.7633 -0.7161 -0.9402
  295SOL    HW2 1179   0.798   0.696   2.544  0.4285  0.4471  0.1493
  295SOL     MW 1180   0.846   0.658   2.481  0.4641  0.1443 -0.1392
  296SOL     OW 1181   1.372   0.347   2.060  0.2871  0.2705 -0.4405
  296SOL    HW1 1182   1.396   0.257   2.082 -1.3438  1.8135  0.2251
  296SOL    HW2 1183   1.339   0.383   2.140  0.6279 -0.7220 -0.8395
  296SOL     MW 1184   1.371   0.340   2.073  0.1169  0.3431 -0.4054
  297SOL     OW 1185   1.372   0.377   1.514  0.0974  0.2787  0.0392
  297SOL    HW1 1186   1.403   0.458   1.550  0.6650  0.7514 -0.0853
  297SOL    HW2 1187   1.374   0.306   1.583  3.7375 -1.1949 -2.2092
  297SOL     MW 1188   1.376   0.378   1.528  0.6525  0.1467 -0.2739
  298SOL     OW 1189   1.696   0.930   2.142 -0.3002  0.1973 -0.2011
  298SOL    HW1 1190   1.701   0.954   2.045  0.8230  1.5731  1.0453
  298SOL    HW2 1191   1.744   0.845   2.151 -0.8703 -2.0724  0.4003
  298SOL     MW 1192   1.703   0.922   2.130 -0.2272  0.0794  0.0427
  299SOL     OW 1193   0.604   1.162   0.034  0.2781 -0.4518  0.3004
  299SOL    HW1 1194   0.548   1.171  -0.053 -0.5950 -1.6191 -2.1706
  299SOL    HW2 1195   0.690   1.205   0.019 -0.7593  0.0753 -0.6995
  299SOL     MW 1196   0.608   1.169   0.020  0.0260 -0.5362 -0.1576
  300SOL     OW 1197   1.165   1.212   2.666  0.1561  0.5220  0.5927
  300SOL    HW1 1198   1.109   1.138   2.652  0.3873  1.2727 -2.3951
  300SOL    HW2 1199   1.234   1.178   2.721 -0.1677 -1.7117 -2.3470
  300SOL     MW 1200   1.167   1.198   2.671  0.1439  0.3264 -0.1893
  301SOL     OW 1201   1.472   1.019   0.681 -0.3666  0.5071 -0.3534
  301SOL    HW1 1202   1.454   1.055   0.766  1.6714 -0.4685 -0.0495
  301SOL    HW2 1203   1.440   0.931   0.690 -0.6009 -0.6808  0.6853
  301SOL     MW 1204   1.465   1.012   0.694 -0.1286  0.2217 -0.1763
  302SOL     OW 1205   0.235   1.590   2.036  0.0823 -0.5615  0.5919
  302SOL    HW1 1206   0.238   1.497   2.058  1.2113 -2.6170  1.4067
  302SOL    HW2 1207   0.147   1.617   2.054 -0.7735 -2.3376  1.1678
  302SOL     MW 1208   0.224   1.582   2.041  0.1183 -1.0671  0.7754
  303SOL     OW 1209   0.293   1.790   2.685  0.6601  0.1277  0.3711
  303SOL    HW1 1210   0.236   1.824   2.617  0.0527 -1.1495  0.9468
  303SOL    HW2 1211   0.233   1.740   2.744 -2.5502 -0.3496 -0.4297
  303SOL     MW 1212   0.278   1.788   2.684  0.1564 -0.1038  0.3414
  304SOL     OW 1213   0.532   2.103   2.464  0.2796  0.5766 -0.6384
  304SOL    HW1 1214   0.587   2.175   2.439  0.7181 -0.8437 -2.2196
  304SOL    HW2 1215   0.578   2.020   2.439  1.8634 -0.4302  1.7427
  304SOL     MW 1216   0.546   2.102   2.457  0.5464  0.2564 -0.5329
  305SOL     OW 1217   1.132   0.626   0.560 -0.2998 -0.0320 -0.4150
  305SOL    HW1 1218   1.034   0.621   0.548 -1.9151 -0.3172  0.6589
  305SOL    HW2 1219   1.167   0.528   0.570  1.3999 -3.7414 -0.2523
  305SOL     MW 1220   1.124   0.612   0.560 -0.2887 -0.5590 -0.2518
  306SOL     OW 1221   1.140   1.541   0.296  0.3542  0.0598  0.3509
  306SOL    HW1 1222   1.164   1.460   0.342 -2.2805  0.7968 -1.6939
  306SOL    HW2 1223   1.211   1.542   0.226 -0.6257 -1.4813 -0.3199
  306SOL     MW 1224   1.152   1.531   0.293 -0.1227 -0.0463 -0.0074
  307SOL     OW 1225   1.454   0.558   1.869 -0.2975  0.0838 -0.3254
  307SOL    HW1 1226   1.438   0.469   1.898  0.0233  0.1675 -0.7366
  307SOL    HW2 1227   1.506   0.607   1.936 -2.0112  0.1428 -0.4916
  307SOL     MW 1228   1.458   0.553   1.882 -0.4813  0.1027 -0.4016
  308SOL     OW 1229   2.275   0.578   2.730 -0.2435  0.2703 -0.3212
  308SOL    HW1 1230   2.365   0.586   2.766 -1.2601 -2.0674 -0.6584
  308SOL    HW2 1231   2.222   0.654   2.759 -1.3353 -1.4530  0.2947
  308SOL     MW 1232   2.280   0.589   2.739 -0.5217 -0.2655 -0.2844
  309SOL     OW 1233   0.545   0.516   0.294  0.4708 -0.1471  0.0533
  309SOL    HW1 1234   0.635   0.541   0.267  0.1116  3.4901  1.1427
  309SOL    HW2 1235   0.520   0.437   0.244 -3.7918  1.8790  0.8733
  309SOL     MW 1236   0.554   0.509   0.284 -0.1390  0.6001  0.3052
  310SOL     OW 1237   0.390   0.529   1.844  0.1333  0.1213 -0.8249
  310SOL    HW1 1238   0.396   0.515   1.750  2.4940 -1.7086 -0.5839
  310SOL    HW2 1239   0.445   0.610   1.840  1.3367  0.5571 -2.0410
  310SOL     MW 1240   0.398   0.538   1.831  0.6036 -0.0626 -0.9535
  311SOL     OW 1241   1.995   0.712   1.910  0.0174 -0.0299 -0.0973
  311SOL    HW1 1242   1.941   0.712   1.997 -2.7360  2.5882 -0.3460
  311SOL    HW2 1243   2.080   0.704   1.939 -0.4156  2.8667 -1.2509
  311SOL     MW 1244   1.999   0.711   1.925 -0.4030  0.6977 -0.2823
  312SOL     OW 1245   1.744   2.460   0.152  0.5924 -0.5272  0.0245
  312SOL    HW1 1246   1.760   2.450   0.243  0.4788 -1.8683 -0.7979
  312SOL    HW2 1247   1.660   2.517   0.146 -0.2246  2.4685 -1.4287
  312SOL     MW 1248   1.735   2.466   0.163  0.4696 -0.3089 -0.2757
  313SOL     OW 1249   0.089   1.144   3.075 -0.7873  0.0575  0.1373
  313SOL    HW1 1250   0.047   1.173   3.158  0.3623  0.0254  0.6379
  313SOL    HW2 1251   0.109   1.227   3.042  0.4466 -0.8574  1.2352
  313SOL     MW 1252   0.086   1.159   3.082 -0.4728 -0.0674  0.3482
  314SOL     OW 1253   2.219   2.870   3.072  0.2839  0.0444 -0.2413
  314SOL    HW1 1254   2.142   2.898   3.016  0.2910 -0.9402  0.7048
  314SOL    HW2 1255   2.263   2.942   3.097  0.3623 -0.6563 -1.9850
  314SOL     MW 1256   2.215   2.883   3.068  0.2952 -0.1780 -0.3466
  315SOL     OW 1257   1.514   1.871   3.027  0.3952  0.2653 -0.2358
  315SOL    HW1 1258   1.456   1.935   3.068 -3.2606 -0.4450  0.6133
  315SOL    HW2 1259   1.553   1.923   2.956  0.3819  3.8826 -0.2723
  315SOL     MW 1260   1.511   1.886   3.023 -0.0889  0.6489 -0.1286
  316SOL     OW 1261   1.217   0.700   2.714 -0.2639 -0.5803  0.0751
  316SOL    HW1 1262   1.294   0.737   2.747 -0.0417  2.0474 -1.3459
  316SOL    HW2 1263   1.173   0.672   2.796 -2.4449  0.0847 -0.6949
  316SOL     MW 1264   1.222   0.702   2.729 -0.5224 -0.1459 -0.2140
  317SOL     OW 1265   0.678   1.625   2.569 -0.6118  0.4564 -0.3966
  317SOL    HW1 1266   0.731   1.542   2.589 -0.6093 -1.3552  1.7058
  317SOL    HW2 1267   0.657   1.618   2.482 -0.2245  2.2947 -0.0898
  317SOL     MW 1268   0.682   1.613   2.560 -0.5604  0.4599 -0.0788
  318SOL     OW 1269   1.357   0.397   2.863  0.0415 -0.1134 -0.0083
  318SOL    HW1 1270   1.289   0.461   2.861  0.0804 -3.2832 -0.6782
  318SOL    HW2 1271   1.429   0.439   2.824 -1.9191 -1.3695  0.0695
  318SOL     MW 1272   1.358   0.411   2.857 -0.2121 -0.6974 -0.0864
  319SOL     OW 1273   0.829   0.503   2.868  0.0299 -0.3372  0.2027
  319SOL    HW1 1274   0.816   0.432   2.803 -1.4424  0.3185  2.2689
  319SOL    HW2 1275   0.777   0.483   2.945  2.2346 -1.8175  2.3977
  319SOL     MW 1276   0.821   0.491   2.870  0.1266 -0.4460  0.7649
  320SOL     OW 1277   1.011   1.303   2.003 -0.0716 -0.4008  0.3784
  320SOL    HW1 1278   1.076   1.277   2.065  1.5420 -1.6155  0.2727
  320SOL    HW2 1279   1.054   1.363   1.942  0.6259 -1.3987 -0.1781
  320SOL     MW 1280   1.025   1.307   2.003  0.2334 -0.6927  0.2910
  321SOL     OW 1281   1.014   0.941   3.035 -0.0949  0.3322 -0.5901
  321SOL    HW1 1282   0.949   0.907   2.970 -1.0155  0.6566  1.6522
  321SOL    HW2 1283   1.082   0.873   3.044 -2.0549  0.1738 -1.3109
  321SOL     MW 1284   1.014   0.928   3.028 -0.4749  0.3541 -0.3893
  322SOL     OW 1285   1.340   0.859   1.649 -0.4079 -0.2228  0.0491
  322SOL    HW1 1286   1.380   0.771   1.637 -1.8086  0.6560 -0.5201
  322SOL    HW2 1287   1.267   0.837   1.707  0.7315  0.6555  0.7945
  322SOL     MW 1288   1.336   0.844   1.655 -0.4424  0.0091  0.0724
  323SOL     OW 1289   1.147   1.523   1.907 -0.3207 -0.3772  0.3563
  323SOL    HW1 1290   1.186   1.512   1.819 -3.2859  0.8992 -1.4340
  323SOL    HW2 1291   1.147   1.616   1.921  0.7855  0.1870  2.1192
  323SOL     MW 1292   1.152   1.533   1.897 -0.5660 -0.1343  0.3527
  324SOL     OW 1293   1.439   0.886   2.505 -0.1244 -0.3760  0.0361
  324SOL    HW1 1294   1.397   0.903   2.580 -1.0578 -2.0880 -1.4912
  324SOL    HW2 1295   1.514   0.953   2.510 -0.7296 -2.5050 -1.7233
  324SOL     MW 1296   1.443   0.897   2.515 -0.3274 -0.8828 -0.3976
  325SOL     OW 1297   1.104   0.549   2.913  0.5407  0.2609 -0.1632
  325SOL    HW1 1298   1.090   0.561   3.008 -4.7235  3.3887 -0.7678
  325SOL    HW2 1299   1.014   0.551   2.878 -1.0378  0.0608 -0.3224
  325SOL     MW 1300   1.091   0.551   2.921 -0.3621  0.6472 -0.2640
  326SOL     OW 1301   0.380   1.366   2.342 -0.2620  0.2960 -0.4620
  326SOL    HW1 1302   0.469   1.365   2.305  1.5504 -0.6943 -1.3342
  326SOL    HW2 1303   0.350   1.460   2.356 -1.0555  2.1463  1.1178
  326SOL     MW 1304   0.388   1.378   2.339 -0.1276  0.4095 -0.3687
  327SOL     OW 1305   1.959   0.746   2.415 -0.0259 -0.0410  0.2414
  327SOL    HW1 1306   1.921   0.716   2.498  1.4239 -0.2982  1.4764
  327SOL    HW2 1307   2.003   0.829   2.437  0.9907  0.8532 -1.5693
  327SOL     MW 1308   1.960   0.753   2.429  0.2995  0.0431  0.1655
  328SOL     OW 1309   0.255   1.332   2.110 -0.4761 -0.6576 -0.1411
  328SOL    HW1 1310   0.186   1.270   2.119  0.8968  0.5067 -3.8002
  328SOL    HW2 1311   0.308   1.345   2.195  1.6623  1.1399  2.4877
  328SOL     MW 1312   0.253   1.326   2.122 -0.0128 -0.2668 -0.2770
  329SOL     OW 1313   0.030   0.152   1.362 -0.4239  0.6269 -0.4072
  329SOL    HW1 1314   0.012   0.127   1.454  2.2265  2.9955 -3.2652
  329SOL    HW2 1315   0.126   0.136   1.350 -1.0141 -0.3695  0.2209
  329SOL     MW 1316   0.040   0.146   1.372 -0.1521  0.8080 -0.7014
  330SOL     OW 1317   0.338   0.060   1.966  0.2490 -0.0194  0.1515
  330SOL    HW1 1318   0.432   0.064   1.979  0.2342 -2.0281  1.0053
  330SOL    HW2 1319   0.315  -0.015   2.023  0.5915 -0.4504  0.2021
  330SOL     MW 1320   0.347   0.050   1.975  0.2923 -0.3413  0.2708
  331SOL     OW 1321   0.802   1.224   2.400  0.5406 -0.3470  0.5172
  331SOL    HW1 1322   0.728   1.246   2.336  2.2804 -0.6684 -0.0139
  331SOL    HW2 1323   0.824   1.295   2.466 -1.8251 -5.1445 -1.8899
  331SOL     MW 1324   0.795   1.236   2.400  0.4580 -1.0224  0.1295
  332SOL     OW 1325   1.355   1.635   2.945  0.1144 -0.4920  0.0798
  332SOL    HW1 1326   1.371   1.644   2.852 -2.6915  1.3169 -0.2759
  332SOL    HW2 1327   1.406   1.709   2.980  4.1598 -1.6500  0.3153
  332SOL     MW 1328   1.364   1.646   2.937  0.2780 -0.4061  0.0639
  333SOL     OW 1329   1.711   1.347   2.929  0.4933  0.1238 -0.0612
  333SOL    HW1 1330   1.796   1.359   2.971 -1.2581  1.6092  1.6923
  333SOL    HW2 1331   1.668   1.283   2.991  0.0875 -1.5894  1.8612
  333SOL     MW 1332   1.717   1.340   2.943  0.2087  0.0938  0.4238
  334SOL     OW 1333   1.326   3.046   2.623 -0.1197 -0.0432 -0.2710
  334SOL    HW1 1334   1.245   3.073   2.662  1.1688 -1.9433 -2.8740
  334SOL    HW2 1335   1.385   3.113   2.664  1.8559 -1.1353 -2.5350
  334SOL     MW 1336   1.323   3.059   2.634  0.3109 -0.4380 -0.9132
  335SOL     OW 1337   1.263   0.775   3.035  0.3927  0.1454  0.5005
  335SOL    HW1 1338   1.321   0.722   3.100 -3.6351  2.1789 -0.2126
  335SOL    HW2 1339   1.317   0.806   2.964 -2.5072 -0.7500 -0.5463
  335SOL     MW 1340   1.278   0.772   3.034 -0.5213  0.2956  0.2683
  336SOL     OW 1341   0.913   1.105   1.711 -0.8401  0.1546 -0.0079
  336SOL    HW1 1342   0.842   1.126   1.771 -4.1662 -0.0395 -1.9421
  336SOL    HW2 1343   0.962   1.035   1.763  1.2390 -3.1988  0.5099
  336SOL     MW 1344   0.910   1.099   1.726 -1.0047 -0.3134 -0.1948
  337SOL     OW 1345   0.526   1.945   2.855  0.3733 -0.2221  0.5619
  337SOL    HW1 1346   0.460   1.927   2.787  1.5834 -4.4521  0.4166
  337SOL    HW2 1347   0.602   1.892   2.830  2.5971 -0.2523  1.2855
  337SOL     MW 1348   0.527   1.935   2.843  0.8264 -0.7842  0.6382
  338SOL     OW 1349   1.122   0.774   2.463  0.2179 -0.1193 -0.0529
  338SOL    HW1 1350   1.027   0.748   2.462  2.5025  0.1735 -0.0209
  338SOL    HW2 1351   1.154   0.746   2.548 -0.5671 -1.2490 -1.4357
  338SOL     MW 1352   1.114   0.767   2.474  0.4158 -0.2297 -0.2311
  339SOL     OW 1353   1.346   1.277   1.916 -0.0769  0.1667  0.7784
  339SOL    HW1 1354   1.344   1.253   1.824  0.0247  0.8850  0.4149
  339SOL    HW2 1355   1.315   1.199   1.966 -2.3084 -0.4725 -0.7286
  339SOL     MW 1356   1.341   1.264   1.911 -0.3580  0.1772  0.5316
  340SOL     OW 1357   1.317   1.548   0.105  0.6889  0.1424  0.3992
  340SOL    HW1 1358   1.310   1.569   0.006 -2.1527  0.1576 -3.0763
  340SOL    HW2 1359   1.381   1.475   0.108 -1.6811 -0.8562 -2.3412
  340SOL     MW 1360   1.324   1.541   0.092  0.0013  0.0127 -0.4210
  341SOL     OW 1361   0.100   1.388   2.832 -0.6460  0.4071  0.3256
  341SOL    HW1 1362   0.200   1.387   2.856  2.8666 -1.2428 -0.9887
  341SOL    HW2 1363   0.105   1.356   2.741  0.9379 -1.2768  0.9963
  341SOL     MW 1364   0.114   1.384   2.823  0.0264 -0.0328  0.2407
  342SOL     OW 1365   1.386   0.329   0.021 -0.2828  0.5589 -0.1296
  342SOL    HW1 1366   1.429   0.398   0.063  1.5027 -1.7604 -0.3841
  342SOL    HW2 1367   1.395   0.353  -0.074  2.0716 -0.5943 -1.5435
  342SOL     MW 1368   1.393   0.341   0.014  0.2634  0.1007 -0.3497
  343SOL     OW 1369   0.254   0.281   2.131 -0.1902  0.6233 -1.1013
  343SOL    HW1 1370   0.302   0.213   2.084  1.2000  0.6531  0.5804
  343SOL    HW2 1371   0.160   0.264   2.104 -1.8497 -0.1903  0.5761
  343SOL     MW 1372   0.248   0.270   2.121 -0.2257  0.5199 -0.6581
  344SOL     OW 1373   1.680   2.040   0.193 -0.3692  0.1613  0.0975
  344SOL    HW1 1374   1.697   2.089   0.112 -1.9958  2.1600 -3.8628
  344SOL    HW2 1375   1.587   2.022   0.182  3.9287 -0.0001  1.9229
  344SOL     MW 1376   1.670   2.044   0.181 -0.0167  0.4037 -0.1842
  345SOL     OW 1377   0.633   1.574   2.289 -0.5175 -0.2955 -0.3740
  345SOL    HW1 1378   0.549   1.566   2.245 -0.3987 -0.1491 -2.8445
  345SOL    HW2 1379   0.706   1.560   2.223  0.5008 -2.8883  2.1132
  345SOL     MW 1380   0.631   1.571   2.275 -0.3674 -0.6183 -0.3718
  346SOL     OW 1381   1.664   1.185   0.033  0.0935  0.7039 -0.1443
  346SOL    HW1 1382   1.743   1.231   0.056 -1.3977  3.7442 -2.7762
  346SOL    HW2 1383   1.663   1.109   0.087 -0.2238 -1.9739  0.0819
  346SOL     MW 1384   1.674   1.181   0.043 -0.1451  0.7517 -0.4617
  347SOL     OW 1385   1.220   0.703   2.196  0.7436  0.9300  0.1903
  347SOL    HW1 1386   1.218   0.613   2.226 -0.1948  2.6330 -0.8631
  347SOL    HW2 1387   1.211   0.761   2.273  2.2941  0.1343 -0.5976
  347SOL     MW 1388   1.219   0.699   2.210  0.8243  1.0497 -0.0526
  348SOL     OW 1389   1.292   2.538   1.936  0.2015 -0.5609 -0.3170
  348SOL    HW1 1390   1.278   2.461   1.998 -0.8069 -1.5782  0.7886
  348SOL    HW2 1391   1.344   2.605   1.992 -1.2768 -1.4539  1.9726
  348SOL     MW 1392   1.297   2.537   1.952 -0.1266 -0.8129  0.1309
  349SOL     OW 1393   1.453   0.153   2.786 -0.4987 -0.5026  0.3394
  349SOL    HW1 1394   1.404   0.230   2.827  0.2318 -0.3648  0.5603
  349SOL    HW2 1395   1.474   0.088   2.855  2.2088 -0.1257 -2.9939
  349SOL     MW 1396   1.449   0.154   2.800 -0.0451 -0.4347 -0.0713
  350SOL     OW 1397   1.876   0.611   2.651  0.2838 -0.3781  0.0564
  350SOL    HW1 1398   1.816   0.558   2.595 -1.2436 -0.8914  0.6966
  350SOL    HW2 1399   1.923   0.541   2.709 -2.9173 -1.5249 -0.6442
  350SOL     MW 1400   1.874   0.595   2.651 -0.3401 -0.5971  0.0485
  351SOL     OW 1401   0.117   1.166   1.552  0.0857 -0.7596 -0.6526
  351SOL    HW1 1402   0.118   1.097   1.618  1.3792 -0.9412 -0.4091
  351SOL    HW2 1403   0.166   1.240   1.593  1.1934 -2.5820  1.3495
  351SOL     MW 1404   0.124   1.167   1.566  0.4025 -1.0240 -0.3563
  352SOL     OW 1405   0.745   1.795   2.825  0.0323 -0.0624  0.5354
  352SOL    HW1 1406   0.768   1.745   2.904  0.3808 -2.6670 -1.8335
  352SOL    HW2 1407   0.729   1.726   2.759  0.5800 -0.5270 -0.7551
  352SOL     MW 1408   0.746   1.779   2.827  0.1505 -0.4673  0.0526
  353SOL     OW 1409   3.087   2.570   2.666 -0.3144 -0.3089  0.5293
  353SOL    HW1 1410   3.166   2.534   2.622  2.4827  1.3402  0.6959
  353SOL    HW2 1411   3.060   2.646   2.614  1.7625  2.7667  0.0758
  353SOL     MW 1412   3.094   2.576   2.653  0.3287  0.3145  0.4915
  354SOL     OW 1413   0.340   2.416   0.789 -0.3154 -0.0295 -0.1159
  354SOL    HW1 1414   0.377   2.408   0.874 -3.6496  0.9467 -0.2710
  354SOL    HW2 1415   0.263   2.351   0.796 -0.3152  0.5458  0.2823
  354SOL     MW 1416   0.335   2.406   0.801 -0.7553  0.1752 -0.0839
  355SOL     OW 1417   0.106   2.267   0.395 -0.1493  0.0536 -0.5981
  355SOL    HW1 1418   0.019   2.214   0.401  0.9620 -3.2092 -2.1677
  355SOL    HW2 1419   0.095   2.320   0.473  0.7587  0.9586 -3.9124
  355SOL     MW 1420   0.093   2.267   0.406  0.1171 -0.2575 -1.2425
  356SOL     OW 1421   0.742   2.957   0.997  0.1578 -0.2039 -0.3384
  356SOL    HW1 1422   0.822   2.982   0.950  0.1246 -0.0463 -2.3962
  356SOL    HW2 1423   0.694   2.886   0.946  2.7561 -1.7149  1.7007
  356SOL     MW 1424   0.747   2.951   0.984  0.4962 -0.3825 -0.3409
  357SOL     OW 1425   1.876   2.803   0.454  0.5878  0.2502 -0.5771
  357SOL    HW1 1426   1.832   2.760   0.528  1.2220 -1.6415 -1.4788
  357SOL    HW2 1427   1.961   2.762   0.444  1.5575  0.6548  0.5244
  357SOL     MW 1428   1.882   2.792   0.463  0.7994  0.0540 -0.5508
  358SOL     OW 1429   0.405   0.119   1.054 -0.5060 -0.3212 -0.3242
  358SOL    HW1 1430   0.505   0.123   1.051  0.6198 -2.6061 -2.4330
  358SOL    HW2 1431   0.374   0.131   0.964 -0.7359 -0.1505  0.6026
  358SOL     MW 1432   0.414   0.121   1.042 -0.3878 -0.6002 -0.4801
  359SOL     OW 1433   0.916   2.936   1.905 -0.0870 -0.0888  0.4887
  359SOL    HW1 1434   0.888   2.843   1.932  0.8366  0.0401  3.2116
  359SOL    HW2 1435   0.902   2.943   1.806  0.4766 -0.9981 -3.4548
  359SOL     MW 1436   0.911   2.924   1.895  0.1092 -0.1917  0.3277
  360SOL     OW 1437   0.566   2.758   0.901 -0.2490 -0.0252 -0.1114
  360SOL    HW1 1438   0.607   2.727   0.823  1.0665  0.1780  1.4881
  360SOL    HW2 1439   0.598   2.706   0.970 -1.5382 -0.6323 -1.1080
  360SOL     MW 1440   0.576   2.747   0.900 -0.2455 -0.0785 -0.0318
  361SOL     OW 1441   0.127   2.713   1.332 -0.5935 -0.0080 -0.2679
  361SOL    HW1 1442   0.065   2.745   1.390  0.6655 -0.0816 -2.0396
  361SOL    HW2 1443   0.208   2.755   1.353 -0.4923  2.8012  0.5029
  361SOL     MW 1444   0.129   2.723   1.342 -0.4140  0.3529 -0.4000
  362SOL     OW 1445   1.397   2.424   0.595 -0.0792 -0.1774 -0.1302
  362SOL    HW1 1446   1.453   2.360   0.646  0.1946  1.0959  1.6414
  362SOL    HW2 1447   1.458   2.500   0.594  2.8730  0.4319 -0.1465
  362SOL     MW 1448   1.413   2.425   0.602  0.3464  0.0710  0.1014
  363SOL     OW 1449   0.313   0.007   0.642  0.6908  0.0017 -0.2773
  363SOL    HW1 1450   0.326  -0.058   0.709 -1.7232  1.8188  2.2825
  363SOL    HW2 1451   0.235  -0.006   0.586  0.7516  0.9531 -0.1796
  363SOL     MW 1452   0.304  -0.003   0.644  0.3803  0.3670  0.0733
  364SOL     OW 1453   0.775   0.233   0.145  0.6787  0.4682  0.2146
  364SOL    HW1 1454   0.732   0.150   0.181 -0.8179 -0.9694  2.6850
  364SOL    HW2 1455   0.704   0.298   0.114  1.9935 -1.4671 -2.9904
  364SOL     MW 1456   0.760   0.230   0.145  0.6547  0.0232  0.1177
  365SOL     OW 1457   0.873   1.991   1.289 -0.0646 -0.7818  0.3541
  365SOL    HW1 1458   0.887   2.075   1.243 -0.2420  0.4920  2.2177
  365SOL    HW2 1459   0.840   1.928   1.219 -1.7544  2.5223  0.8413
  365SOL     MW 1460   0.870   1.994   1.274 -0.3109 -0.1778  0.6643
  366SOL     OW 1461   2.874   2.656   0.946 -0.3214  0.0319  0.5340
  366SOL    HW1 1462   2.949   2.631   1.011 -1.5645 -1.4094  2.3388
  366SOL    HW2 1463   2.924   2.676   0.866 -1.1125 -0.5469  1.3911
  366SOL     MW 1464   2.890   2.656   0.944 -0.5898 -0.2346  0.8852
  367SOL     OW 1465   1.319   3.058   0.987  0.7379  0.4469 -0.5897
  367SOL    HW1 1466   1.399   3.061   1.031  1.4422 -1.2517 -0.1662
  367SOL    HW2 1467   1.324   3.079   0.896  0.9370  0.5599 -0.5063
  367SOL     MW 1468   1.330   3.061   0.981  0.8571  0.2377 -0.5228
  368SOL     OW 1469   1.714   0.379   0.596  0.3510 -0.3758 -0.1089
  368SOL    HW1 1470   1.778   0.332   0.537 -0.2742 -2.8735 -2.8135
  368SOL    HW2 1471   1.715   0.469   0.565  0.3953 -2.8974  2.2623
  368SOL     MW 1472   1.722   0.385   0.584  0.2743 -1.0380 -0.1529
  369SOL     OW 1473   0.161   2.429   1.750  0.3780  0.7654 -0.0755
  369SOL    HW1 1474   0.251   2.392   1.772 -0.1729  0.8706  3.6608
  369SOL    HW2 1475   0.177   2.523   1.748  0.9170  1.3022  1.2832
  369SOL     MW 1476   0.175   2.437   1.752  0.3765  0.8501  0.5967
  370SOL     OW 1477   0.673   0.138   1.065 -0.6010  0.1246 -0.0591
  370SOL    HW1 1478   0.714   0.199   1.004  2.0530  0.0169 -1.5722
  370SOL    HW2 1479   0.693   0.047   1.036 -2.4227  0.1710  0.8782
  370SOL     MW 1480   0.681   0.134   1.053 -0.4912  0.1165 -0.1350
  371SOL     OW 1481   1.109   2.903   1.493 -0.5812 -0.2859  0.5834
  371SOL    HW1 1482   1.130   2.816   1.457 -0.2481  1.9572 -1.3140
  371SOL    HW2 1483   1.082   2.948   1.415  1.4804  0.5404  1.9558
  371SOL     MW 1484   1.108   2.897   1.478 -0.2652  0.1191  0.5141
  372SOL     OW 1485   0.811   2.305   0.459 -0.0061 -0.2116 -0.1137
  372SOL    HW1 1486   0.779   2.220   0.492  0.8139  0.4605  0.6464
  372SOL    HW2 1487   0.855   2.277   0.378 -1.4642 -1.3943 -0.5052
  372SOL     MW 1488   0.813   2.290   0.453 -0.0903 -0.2789 -0.0651
  373SOL     OW 1489   2.793   2.980   1.415 -0.1558 -0.1171 -0.1849
  373SOL    HW1 1490   2.866   2.928   1.386 -0.0725 -1.0612 -2.9498
  373SOL    HW2 1491   2.783   3.046   1.351 -0.5153  1.8290  1.8150
  373SOL     MW 1492   2.802   2.982   1.402 -0.1923  0.0151 -0.2858
  374SOL     OW 1493   1.586   0.454   0.237 -0.5025 -0.1739 -0.3104
  374SOL    HW1 1494   1.681   0.432   0.233  0.8722  0.4368 -0.1996
  374SOL    HW2 1495   1.554   0.410   0.314 -0.7346 -1.1494  1.7748
  374SOL     MW 1496   1.595   0.445   0.246 -0.3518 -0.2220 -0.0207
  375SOL     OW 1497   1.101   2.016   2.186 -0.4092 -0.6268 -0.5694
  375SOL    HW1 1498   1.109   2.040   2.280 -0.3658  1.0067 -3.2685
  375SOL    HW2 1499   1.010   1.981   2.181 -0.3858  2.1626 -0.0765
  375SOL     MW 1500   1.090   2.014   2.197 -0.4004 -0.0433 -0.8604
  376SOL     OW 1501   0.854   2.532   0.126 -0.0293  0.3364 -0.9837
  376SOL    HW1 1502   0.818   2.470   0.200 -1.8718 -0.8021  0.9460
  376SOL    HW2 1503   0.826   2.487   0.041 -2.1931 -1.5426 -0.6954
  376SOL     MW 1504   0.846   2.518   0.125 -0.5579 -0.0617 -0.6910
  377SOL     OW 1505   1.342   2.083   0.963 -0.4595  0.0578  0.1381
  377SOL    HW1 1506   1.266   2.047   0.921 -0.8158  0.5322  2.5361
  377SOL    HW2 1507   1.330   2.061   1.055 -0.1700 -2.3497  2.8478
  377SOL     MW 1508   1.330   2.075   0.969 -0.4683 -0.1973  0.8120
  378SOL     OW 1509   0.882   2.852   1.614 -0.2464 -0.2393 -0.4232
  378SOL    HW1 1510   0.907   2.759   1.613  1.7271 -1.0938  1.6242
  378SOL    HW2 1511   0.963   2.886   1.568  0.9927 -0.1197 -5.6979
  378SOL     MW 1512   0.896   2.844   1.608  0.1775 -0.3362 -0.8490
  379SOL     OW 1513   1.071   1.553   2.310 -0.0555 -0.0288  0.2952
  379SOL    HW1 1514   0.985   1.536   2.276 -0.2806 -1.2117  2.3007
  379SOL    HW2 1515   1.145   1.551   2.243 -2.3468 -0.5966 -1.7781
  379SOL     MW 1516   1.069   1.550   2.297 -0.3875 -0.2598  0.2863
  380SOL     OW 1517   0.912   0.148   1.529 -0.4401  0.3978 -0.4274
  380SOL    HW1 1518   0.907   0.064   1.476 -1.0027 -0.5561  1.3348
  380SOL    HW2 1519   0.974   0.130   1.606  0.6309  0.7988 -0.6254
  380SOL     MW 1520   0.920   0.135   1.532 -0.3730  0.3249 -0.2210
  381SOL     OW 1521   0.853   2.065   0.890  0.1343  0.1223 -0.3294
  381SOL    HW1 1522   0.947   2.080   0.859  0.3638 -2.7402  2.8856
  381SOL    HW2 1523   0.830   2.138   0.947 -1.4436 -1.1016 -2.5284
  381SOL     MW 1524   0.862   2.076   0.894 -0.0436 -0.4169 -0.1954
  382SOL     OW 1525   0.854   0.137   0.576 -0.3422 -0.3247  0.0935
  382SOL    HW1 1526   0.852   0.162   0.672 -0.5850  2.5383 -0.8286
  382SOL    HW2 1527   0.791   0.063   0.567 -2.8107 -1.5251  3.1841
  382SOL     MW 1528   0.845   0.130   0.587 -0.7000 -0.1053  0.3796
  383SOL     OW 1529   0.660   0.012   0.281  0.2040  0.3509 -0.6425
  383SOL    HW1 1530   0.692  -0.071   0.253 -0.9893  0.2622  0.9390
  383SOL    HW2 1531   0.611  -0.008   0.357  3.7403  0.8731 -2.2159
  383SOL     MW 1532   0.658  -0.001   0.287  0.5131  0.4081 -0.6414
  384SOL     OW 1533   0.800   2.954   0.612  0.1647 -0.0246  0.3103
  384SOL    HW1 1534   0.850   2.960   0.699  2.6505 -1.8915 -3.1210
  384SOL    HW2 1535   0.746   2.876   0.616  1.6262 -0.1925  0.3333
  384SOL     MW 1536   0.799   2.945   0.624  0.6855 -0.2930 -0.1394
  385SOL     OW 1537   1.396   2.048   1.552 -0.0218 -0.0565  0.2271
  385SOL    HW1 1538   1.460   2.077   1.628  0.6090 -0.3047  2.8269
  385SOL    HW2 1539   1.349   1.968   1.588  0.0578 -1.9412  1.3101
  385SOL     MW 1540   1.398   2.041   1.567  0.0719 -0.3379  0.7130
  386SOL     OW 1541   1.461   0.388   0.854  0.1525  0.3881  0.3537
  386SOL    HW1 1542   1.434   0.418   0.940  2.5226 -0.0455  0.1120
  386SOL    HW2 1543   1.552   0.378   0.875 -0.6589  0.9838  1.6264
  386SOL     MW 1544   1.469   0.390   0.868  0.3581  0.4095  0.4897
  387SOL     OW 1545   0.832   2.258   1.573  0.1301 -0.5444  0.1906
  387SOL    HW1 1546   0.910   2.283   1.512 -0.7388  0.2026 -1.8617
  387SOL    HW2 1547   0.828   2.164   1.563  0.1469  3.5515 -0.8133
  387SOL     MW 1548   0.842   2.249   1.564  0.0177  0.0946 -0.2126
  388SOL     OW 1549   1.493   2.792   1.507  0.7794 -0.2600  0.7242
  388SOL    HW1 1550   1.450   2.847   1.445  1.3980 -2.9028 -0.0508
  388SOL    HW2 1551   1.556   2.737   1.457  0.5409 -0.5015  0.6864
  388SOL     MW 1552   1.495   2.792   1.492  0.8296 -0.6406  0.6169
  389SOL     OW 1553   0.424   0.099   3.054 -1.0439  0.7443  0.2973
  389SOL    HW1 1554   0.479   0.023   3.025 -0.2736 -1.5309  0.1930
  389SOL    HW2 1555   0.447   0.162   2.983  0.4451 -1.4241  1.1197
  389SOL     MW 1556   0.434   0.097   3.041 -0.7458  0.1580  0.3921
  390SOL     OW 1557   1.370   3.085   0.724 -0.2957 -0.2706  0.6612
  390SOL    HW1 1558   1.378   3.029   0.644 -0.0570  1.0987 -0.4296
  390SOL    HW2 1559   1.454   3.135   0.721 -3.7838 -1.4848 -1.3994
  390SOL     MW 1560   1.382   3.084   0.713 -0.7244 -0.2501  0.2454
  391SOL     OW 1561   0.307   2.148   1.505  0.1893  0.1390  0.4223
  391SOL    HW1 1562   0.312   2.154   1.599 -0.8405  0.5005 -2.4939
  391SOL    HW2 1563   0.268   2.237   1.476 -0.4201 -0.5619 -3.9046
  391SOL     MW 1564   0.302   2.160   1.513 -0.0270  0.0942 -0.5334
  392SOL     OW 1565   1.957   2.094   0.326  0.0615 -0.4220 -0.4245
  392SOL    HW1 1566   2.008   2.173   0.349 -0.6276 -1.7050  1.5236
  392SOL    HW2 1567   1.862   2.119   0.325 -0.5875 -0.9362 -1.5204
  392SOL     MW 1568   1.951   2.107   0.329 -0.1151 -0.6591 -0.3121
  393SOL     OW 1569   0.258   2.956   2.791  0.6608  0.0030  0.0793
  393SOL    HW1 1570   0.343   2.942   2.753 -1.5043  1.4887 -2.0485
  393SOL    HW2 1571   0.257   3.046   2.822  1.4270  0.3668  0.7211
  393SOL     MW 1572   0.269   2.966   2.790  0.4762  0.2470 -0.1168
  394SOL     OW 1573   0.956   1.770   1.603 -0.3955  0.1930  0.9740
  394SOL    HW1 1574   0.986   1.781   1.691 -0.1445  0.3518  0.8383
  394SOL    HW2 1575   0.933   1.855   1.573  0.0522 -0.0960 -0.9785
  394SOL     MW 1576   0.957   1.783   1.611 -0.3033  0.1758  0.6985
  395SOL     OW 1577   0.955   2.936   2.711  0.0063  0.1219 -0.2293
  395SOL    HW1 1578   1.026   2.995   2.736 -2.7977 -1.6106 -1.8307
  395SOL    HW2 1579   1.004   2.857   2.675  0.3489 -1.9513 -1.7059
  395SOL     MW 1580   0.971   2.933   2.709 -0.3184 -0.3802 -0.6354
  396SOL     OW 1581   0.702   1.913   2.377 -0.0542  0.3941  0.5060
  396SOL    HW1 1582   0.772   1.895   2.443  0.0656  2.3453  2.0570
  396SOL    HW2 1583   0.673   1.830   2.338 -1.7182  0.8888  1.4422
  396SOL     MW 1584   0.707   1.900   2.381 -0.2579  0.7168  0.8342
  397SOL     OW 1585   1.042   2.296   1.415  0.4020  0.0811  0.3443
  397SOL    HW1 1586   1.057   2.324   1.326 -0.1127  2.8245  0.0069
  397SOL    HW2 1587   1.125   2.282   1.475  0.2855  0.6948  0.4133
  397SOL     MW 1588   1.055   2.298   1.411  0.3187  0.5240  0.3089
  398SOL     OW 1589   0.669   2.703   0.657  0.2455 -0.4157 -0.5144
  398SOL    HW1 1590   0.598   2.690   0.589 -0.9114 -1.2415  2.2926
  398SOL    HW2 1591   0.727   2.628   0.646  1.1531  2.4086 -0.7378
  398SOL     MW 1592   0.667   2.691   0.647  0.2126 -0.1520 -0.1735
  399SOL     OW 1593   0.325   2.050   0.393 -0.2264  0.3307 -0.2650
  399SOL    HW1 1594   0.261   2.118   0.394 -0.6748  2.1993  0.5986
  399SOL    HW2 1595   0.383   2.069   0.315 -1.8475 -0.7641 -1.9585
  399SOL     MW 1596   0.324   2.061   0.383 -0.4994  0.4328 -0.3745
  400SOL     OW 1597   0.601   1.951   0.135  0.0307  0.5484  0.1211
  400SOL    HW1 1598   0.573   2.048   0.159 -2.0046 -0.2373  0.5628
  400SOL    HW2 1599   0.570   1.880   0.193  0.1338 -1.2096  0.9997
  400SOL     MW 1600   0.593   1.955   0.146 -0.2242  0.2128  0.2953
  401SOL     OW 1601   0.836   2.007  -0.004  0.1929 -0.3414  0.6583
  401SOL    HW1 1602   0.904   1.943   0.019 -0.1448  0.2563 -0.4487
  401SOL    HW2 1603   0.760   1.995   0.058 -3.3960  3.3017 -1.0620
  401SOL     MW 1604   0.835   1.997   0.007 -0.3252  0.2182  0.2853
  402SOL     OW 1605   0.589   3.024   1.853 -0.3105  0.0489  0.4740
  402SOL    HW1 1606   0.654   3.010   1.923 -1.8547 -0.0451  1.3247
  402SOL    HW2 1607   0.636   3.046   1.770 -0.5100  3.6487 -1.3989
  402SOL     MW 1608   0.603   3.025   1.851 -0.5406  0.5114  0.3391
  403SOL     OW 1609   0.141   0.491   0.432 -0.1744 -0.0263  0.0760
  403SOL    HW1 1610   0.231   0.512   0.465 -1.5906 -2.0314 -0.9148
  403SOL    HW2 1611   0.158   0.448   0.352  0.1837  2.1781  0.2689
  403SOL     MW 1612   0.155   0.488   0.426 -0.3140 -0.0000 -0.0293
  404SOL     OW 1613   0.964   2.979   0.831  0.7168 -0.0132  0.2590
  404SOL    HW1 1614   1.034   2.912   0.822 -1.4350  1.0894  0.6442
  404SOL    HW2 1615   1.006   3.061   0.794 -0.6251  1.4680 -0.9601
  404SOL     MW 1616   0.978   2.981   0.825  0.2559  0.3277  0.1490
  405SOL     OW 1617   0.520   2.503   1.501  0.0038  0.6747 -0.5220
  405SOL    HW1 1618   0.561   2.574   1.459 -1.8962 -0.8129 -1.7614
  405SOL    HW2 1619   0.556   2.436   1.445  0.0154  3.7461  1.0226
  405SOL     MW 1620   0.530   2.504   1.488 -0.2453  0.8837 -0.4818
  406SOL     OW 1621   0.438   2.326   1.085 -0.7060 -0.6776 -0.1721
  406SOL    HW1 1622   0.350   2.339   1.130 -1.5386  1.5642  0.9714
  406SOL    HW2 1623   0.469   2.238   1.117 -0.2427 -0.8310 -2.0535
  406SOL     MW 1624   0.430   2.316   1.095 -0.7547 -0.4021 -0.2695
  407SOL     OW 1625   0.050   2.627   1.105 -0.4415 -0.2683 -0.5395
  407SOL    HW1 1626   0.089   2.651   1.193 -0.0795  1.0248  1.2418
  407SOL    HW2 1627   0.113   2.667   1.045 -1.2068  1.3560 -0.7829
  407SOL     MW 1628   0.063   2.636   1.109 -0.4947  0.1166 -0.3366
  408SOL     OW 1629   2.117   2.180   0.704 -0.3485  0.1008  0.2342
  408SOL    HW1 1630   2.059   2.198   0.785  0.1763 -0.7799  1.4151
  408SOL    HW2 1631   2.048   2.132   0.651  0.3983 -1.3636 -1.7890
  408SOL     MW 1632   2.100   2.176   0.708 -0.1807 -0.2086  0.1231
  409SOL     OW 1633   1.606   0.078   0.844  0.2584 -0.3610 -0.5741
  409SOL    HW1 1634   1.672   0.143   0.836  0.9150 -0.8344  0.6090
  409SOL    HW2 1635   1.607   0.047   0.934  0.6112  0.1311  1.6587
  409SOL     MW 1636   1.615   0.083   0.855  0.3916 -0.3585 -0.1234
  410SOL     OW 1637   1.080   2.449   1.181  0.3042  0.0349  0.0324
  410SOL    HW1 1638   1.009   2.463   1.119  0.4765  2.2258  2.2808
  410SOL    HW2 1639   1.141   2.416   1.117 -0.5464 -1.7946 -0.1136
  410SOL     MW 1640   1.078   2.447   1.165  0.2147  0.0826  0.3098
  411SOL     OW 1641   1.990   2.918   2.946 -0.3691  0.2968  0.4444
  411SOL    HW1 1642   2.019   2.919   2.851  1.2815 -1.7863 -0.4478
  411SOL    HW2 1643   1.965   3.009   2.962  0.9915 -0.8412 -0.2543
  411SOL     MW 1644   1.991   2.930   2.936  0.0282 -0.1282  0.2345
  412SOL     OW 1645   1.040   2.243   0.615  1.1841  0.1141  0.7173
  412SOL    HW1 1646   1.087   2.310   0.664 -0.2436  0.1807 -0.8620
  412SOL    HW2 1647   0.965   2.279   0.571 -0.0496  0.1901 -1.2617
  412SOL     MW 1648   1.036   2.257   0.616  0.8329  0.1329  0.2478
  413SOL     OW 1649   0.612   2.681   0.030 -0.1966 -0.0558  0.6556
  413SOL    HW1 1650   0.678   2.628   0.077 -0.6860  1.3977  0.0681
  413SOL    HW2 1651   0.610   2.629  -0.049 -2.6499 -1.0777  1.5435
  413SOL     MW 1652   0.620   2.667   0.026 -0.5849  0.0012  0.6952
  414SOL     OW 1653   2.055   2.993   1.094  0.6630  0.3322 -0.3719
  414SOL    HW1 1654   2.074   3.086   1.110 -3.0842  2.0272  2.2601
  414SOL    HW2 1655   2.032   2.978   0.999 -0.1267 -1.0720  0.4043
  414SOL     MW 1656   2.054   3.003   1.084  0.0644  0.3706  0.0778
  415SOL     OW 1657   1.647   2.854   1.164  0.0176 -0.0413  0.3363
  415SOL    HW1 1658   1.726   2.863   1.221  0.6389  0.2349 -1.7537
  415SOL    HW2 1659   1.679   2.792   1.094  2.4631  0.9121  1.5648
  415SOL     MW 1660   1.661   2.847   1.162  0.4222  0.1209  0.2226
  416SOL     OW 1661   0.654   1.784   1.428  0.8621 -0.5307  0.2586
  416SOL    HW1 1662   0.568   1.803   1.397 -1.2052  1.4040 -3.1157
  416SOL    HW2 1663   0.680   1.709   1.380 -0.1928 -0.5321 -0.6968
  416SOL     MW 1664   0.646   1.776   1.418  0.4502 -0.2756 -0.3127
  417SOL     OW 1665   0.920   0.057   2.093  0.1553  0.3789  0.4118
  417SOL    HW1 1666   0.851   0.038   2.153  0.6168 -1.6474 -0.3833
  417SOL    HW2 1667   0.927  -0.009   2.029  1.6971  1.3548 -0.3765
  417SOL     MW 1668   0.912   0.046   2.092  0.4196  0.2403  0.2029
  418SOL     OW 1669   0.766   2.860   0.196 -0.7515 -0.5342 -0.1822
  418SOL    HW1 1670   0.831   2.831   0.129  0.4936  1.6466 -1.4537
  418SOL    HW2 1671   0.683   2.827   0.173  2.5222 -1.9310  0.1116
  418SOL     MW 1672   0.764   2.851   0.184 -0.1553 -0.4308 -0.3112
  419SOL     OW 1673   0.637   2.693   1.340  0.0534 -0.1601  0.2215
  419SOL    HW1 1674   0.641   2.783   1.378  3.4301  1.0161  4.0354
  419SOL    HW2 1675   0.723   2.654   1.332 -1.2744 -0.7469  1.2945
  419SOL     MW 1676   0.649   2.699   1.344  0.3237 -0.0824  0.8663
  420SOL     OW 1677   0.825   2.229   1.135 -0.2948  0.3069  0.6339
  420SOL    HW1 1678   0.775   2.280   1.196  0.8022 -0.0404 -2.4338
  420SOL    HW2 1679   0.869   2.291   1.079 -0.0937 -1.3123  0.8912
  420SOL     MW 1680   0.824   2.244   1.136 -0.1235  0.0475  0.2631
  421SOL     OW 1681   2.927   0.127   0.074 -0.0596 -0.1790 -0.3071
  421SOL    HW1 1682   2.844   0.092   0.050  0.4641  0.4795  0.8927
  421SOL    HW2 1683   2.978   0.055   0.033 -3.0975  2.6171  0.5315
  421SOL     MW 1684   2.923   0.113   0.066 -0.3913  0.2768 -0.0381
  422SOL     OW 1685   0.903   2.446   0.969 -0.1977  0.1285 -0.1422
  422SOL    HW1 1686   0.814   2.464   0.965  1.1847 -1.7915  0.6412
  422SOL    HW2 1687   0.941   2.469   0.883  0.2322 -1.2150 -0.5349
  422SOL     MW 1688   0.897   2.452   0.957  0.0414 -0.3021 -0.0907
  423SOL     OW 1689   1.549   0.044   0.489  0.9539  0.4069  0.1255
  423SOL    HW1 1690   1.566   0.002   0.404 -4.3286 -1.9246 -1.5876
  423SOL    HW2 1691   1.527   0.134   0.473  0.2477 -0.8226 -0.7414
  423SOL     MW 1692   1.549   0.050   0.476  0.1637 -0.0629 -0.2149
  424SOL     OW 1693   0.644   2.308   1.339  0.2868  0.2713  0.0923
  424SOL    HW1 1694   0.583   2.241   1.305  2.9288 -2.3205 -0.5304
  424SOL    HW2 1695   0.677   2.268   1.419  0.0967  0.3135 -0.3043
  424SOL     MW 1696   0.640   2.294   1.345  0.6103 -0.0651 -0.0421
  425SOL     OW 1697   1.736   2.811   2.051  0.2420  0.2140 -0.2498
  425SOL    HW1 1698   1.748   2.845   1.956  1.6945  2.8715  0.1704
  425SOL    HW2 1699   1.750   2.716   2.051 -0.8048 -1.0519 -0.8438
  425SOL     MW 1700   1.739   2.803   2.038  0.2955  0.3976 -0.2728
  426SOL     OW 1701   0.835   1.730   1.941 -0.4969  1.0024  0.2782
  426SOL    HW1 1702   0.767   1.734   1.870  1.3667  0.8101 -0.8747
  426SOL    HW2 1703   0.846   1.807   1.993  4.4227  1.1889 -0.5263
  426SOL     MW 1704   0.827   1.740   1.939  0.3981  1.0017  0.0199
  427SOL     OW 1705   0.385   1.755   1.883  0.8738  0.6154 -0.1703
  427SOL    HW1 1706   0.434   1.701   1.824 -1.0723  0.8901  3.9410
  427SOL    HW2 1707   0.355   1.690   1.948  1.0758 -1.6362  0.3266
  427SOL     MW 1708   0.388   1.739   1.883  0.6437  0.3546  0.4377
  428SOL     OW 1709   0.639   2.544   1.081  0.0552  0.2172 -0.7160
  428SOL    HW1 1710   0.565   2.481   1.071 -0.6507  0.4009 -1.5283
  428SOL    HW2 1711   0.650   2.550   1.171  0.6043 -1.1770 -0.1369
  428SOL     MW 1712   0.631   2.537   1.092  0.0345  0.0575 -0.7467
  429SOL     OW 1713   1.225   2.807   1.063  0.7770  0.3686 -0.2620
  429SOL    HW1 1714   1.135   2.823   1.095  2.3309  1.1544 -0.5535
  429SOL    HW2 1715   1.261   2.893   1.049  0.5547 -0.7600 -1.3802
  429SOL     MW 1716   1.218   2.821   1.065  0.9527  0.3234 -0.4480
  430SOL     OW 1717   1.193   2.818   0.793  0.1525  0.1576 -0.2637
  430SOL    HW1 1718   1.203   2.766   0.874 -0.9392 -1.1558 -1.2630
  430SOL    HW2 1719   1.147   2.759   0.733  1.1971 -2.8986  0.3011
  430SOL     MW 1720   1.189   2.803   0.796  0.1463 -0.4189 -0.3210
  431SOL     OW 1721   0.348   1.899   1.127  0.6325 -0.3826  0.1833
  431SOL    HW1 1722   0.419   1.832   1.140  0.5606 -2.6454  0.1730
  431SOL    HW2 1723   0.354   1.935   1.035 -1.0319 -1.1376 -1.1189
  431SOL     MW 1724   0.358   1.895   1.117  0.4034 -0.7808  0.0101
  432SOL     OW 1725   0.021   0.006   1.124 -0.2247 -0.1066 -0.0254
  432SOL    HW1 1726  -0.027   0.052   1.198  1.6734  0.0659  3.0473
  432SOL    HW2 1727  -0.031  -0.073   1.110  5.5498  2.9886 -2.4087
  432SOL     MW 1728   0.008   0.002   1.132  0.7876  0.3245  0.0656
  433SOL     OW 1729   0.641   2.915   1.490  0.0916 -0.2780 -0.3262
  433SOL    HW1 1730   0.650   3.009   1.493 -0.0860 -1.6990 -0.2483
  433SOL    HW2 1731   0.719   2.904   1.548 -0.1029  0.5758  1.6264
  433SOL     MW 1732   0.653   2.926   1.498  0.0425 -0.3528 -0.0583
  434SOL     OW 1733   1.478   2.795   1.794  0.3438 -0.3376  0.1959
  434SOL    HW1 1734   1.402   2.827   1.841 -1.1852  1.6795 -1.0245
  434SOL    HW2 1735   1.464   2.805   1.697 -1.1845 -0.3891 -0.1571
  434SOL     MW 1736   1.466   2.800   1.788 -0.0596 -0.0782 -0.0117
  435SOL     OW 1737   2.686   1.786   0.278  0.1089 -0.1632 -0.4041
  435SOL    HW1 1738   2.739   1.800   0.203 -0.8281  1.7911  3.7006
  435SOL    HW2 1739   2.595   1.808   0.259 -2.1339 -0.6435 -0.0642
  435SOL     MW 1740   2.681   1.791   0.265 -0.3107  0.0313  0.1824
  436SOL     OW 1741   1.374   2.747   0.360  0.3168 -0.1336  0.6124
  436SOL    HW1 1742   1.437   2.724   0.428  0.5025  2.2283 -3.4662
  436SOL    HW2 1743   1.354   2.836   0.380 -1.8725 -2.4773  1.0959
  436SOL     MW 1744   1.380   2.756   0.372  0.0524 -0.1312  0.1381
  437SOL     OW 1745   0.905   3.097   1.306 -0.1415  0.9388  0.2906
  437SOL    HW1 1746   0.983   3.125   1.251  1.2788 -0.7309  0.6934
  437SOL    HW2 1747   0.869   3.026   1.250 -0.3783 -0.3412 -3.4087
  437SOL     MW 1748   0.910   3.091   1.291  0.0146  0.5497 -0.1444
  438SOL     OW 1749   0.855   2.690   1.996 -0.3382  0.2515  0.3023
  438SOL    HW1 1750   0.885   2.626   2.063  1.7741 -2.5695  1.0334
  438SOL    HW2 1751   0.818   2.639   1.926  1.5661  2.5675  0.8856
  438SOL     MW 1752   0.854   2.675   1.996  0.1918  0.1848  0.4757
  439SOL     OW 1753   1.155   2.068   0.439  0.0047  0.3978 -0.5655
  439SOL    HW1 1754   1.116   2.131   0.503  0.6148  0.6424 -0.2229
  439SOL    HW2 1755   1.174   2.131   0.369 -1.8387 -0.2480  0.8555
  439SOL     MW 1756   1.153   2.085   0.438 -0.1580  0.3449 -0.3328
  440SOL     OW 1757   1.810   2.743   3.020  0.4971 -0.0546  0.1120
  440SOL    HW1 1758   1.817   2.765   3.116 -1.6075  0.9504  0.9514
  440SOL    HW2 1759   1.876   2.802   2.987  0.2329  2.8752 -0.0030
  440SOL     MW 1760   1.820   2.754   3.028  0.1845  0.4646  0.2076
  441SOL     OW 1761   0.507   2.711   0.444  0.6325 -0.5897  0.8722
  441SOL    HW1 1762   0.472   2.675   0.357 -1.1774 -0.2176  1.6334
  441SOL    HW2 1763   0.501   2.802   0.441 -1.1687 -2.4002  4.1276
  441SOL     MW 1764   0.502   2.718   0.432  0.1560 -0.7795  1.4021
  442SOL     OW 1765   0.039   2.396   0.630  0.1273  0.9851  0.1680
  442SOL    HW1 1766   0.036   2.484   0.604 -0.0077 -2.3680  1.2434
  442SOL    HW2 1767  -0.051   2.369   0.649  0.2807  1.7820  1.3098
  442SOL     MW 1768   0.026   2.404   0.629  0.1297  0.6478  0.4605
  443SOL     OW 1769   1.471   1.794   1.951 -0.0213 -0.1110 -0.2915
  443SOL    HW1 1770   1.433   1.802   1.865  1.6293 -1.6079 -0.0403
  443SOL    HW2 1771   1.498   1.704   1.960 -0.9260 -1.9722  1.9645
  443SOL     MW 1772   1.469   1.783   1.941  0.0771 -0.5540  0.0393
  444SOL     OW 1773   0.919   2.592   1.608 -0.2537  0.1568  0.8352
  444SOL    HW1 1774   0.994   2.563   1.662  0.3332 -1.0159  1.6917
  444SOL    HW2 1775   0.840   2.568   1.651 -0.1612  2.7604 -0.6387
  444SOL     MW 1776   0.919   2.585   1.621 -0.1641  0.3456  0.7538
  445SOL     OW 1777   1.177   0.086   1.382 -0.6661  0.2545  0.5034
  445SOL    HW1 1778   1.129   0.127   1.452 -0.5987  0.6978  0.6503
  445SOL    HW2 1779   1.199   0.150   1.315 -1.0243 -1.8070 -0.9520
  445SOL     MW 1780   1.174   0.100   1.382 -0.7045  0.0410  0.3308
  446SOL     OW 1781   2.685   2.830   1.056 -0.1080 -0.4480 -0.4579
  446SOL    HW1 1782   2.660   2.907   1.002 -0.8666 -0.3940  2.0408
  446SOL    HW2 1783   2.719   2.763   0.996 -0.3762 -2.6904 -0.1631
  446SOL     MW 1784   2.686   2.831   1.041 -0.2435 -0.7367 -0.0893
  447SOL     OW 1785   0.073   1.969   1.557  0.2216  0.3917 -0.1051
  447SOL    HW1 1786   0.092   1.898   1.625 -1.1119 -1.9673  0.8824
  447SOL    HW2 1787   0.001   1.934   1.511  2.9912  0.3261  0.1415
  447SOL     MW 1788   0.066   1.955   1.560  0.4111  0.0718  0.0577
  448SOL     OW 1789   1.688   2.341   1.665  0.1459  0.6104 -0.0839
  448SOL    HW1 1790   1.663   2.250   1.675  2.7739  1.9622  1.0000
  448SOL    HW2 1791   1.612   2.384   1.702 -1.4643  0.1770 -0.2377
  448SOL     MW 1792   1.675   2.334   1.671  0.2802  0.7316  0.0388
  449SOL     OW 1793   0.945   2.899   0.401 -0.2642  0.3324 -0.3406
  449SOL    HW1 1794   0.875   2.885   0.335 -1.7147  1.1231 -0.4137
  449SOL    HW2 1795   0.894   2.927   0.484 -0.2319 -2.8501  2.0842
  449SOL     MW 1796   0.929   2.900   0.403 -0.4513  0.0168 -0.0303
  450SOL     OW 1797   1.188   2.492   0.778  0.5799 -0.7076  0.2827
  450SOL    HW1 1798   1.226   2.466   0.860 -2.1397  0.2944 -1.7111
  450SOL    HW2 1799   1.249   2.462   0.705 -0.5214 -1.3893 -0.3672
  450SOL     MW 1800   1.201   2.484   0.779  0.0757 -0.6653 -0.0661
  451SOL     OW 1801   0.535   1.999   1.687 -0.5720 -0.2491 -0.2631
  451SOL    HW1 1802   0.582   2.062   1.628 -1.3727  1.0932 -0.2905
  451SOL    HW2 1803   0.485   1.947   1.623  3.1632 -1.2436 -0.6565
  451SOL     MW 1804   0.535   2.000   1.671 -0.1848 -0.2032 -0.3186
  452SOL     OW 1805   0.280   2.638   0.007 -0.6791  0.6298 -0.1701
  452SOL    HW1 1806   0.371   2.669  -0.007 -1.4684 -0.1709  1.8945
  452SOL    HW2 1807   0.239   2.717  -0.019  0.5448  0.6411  1.1902
  452SOL     MW 1808   0.287   2.653   0.001 -0.6217  0.5257  0.2818
  453SOL     OW 1809   0.196   2.983   1.582 -0.3952  0.1012  0.1001
  453SOL    HW1 1810   0.220   2.964   1.674  0.7979 -0.9628 -0.1567
  453SOL    HW2 1811   0.259   2.931   1.535 -0.5720 -0.2059  1.2363
  453SOL     MW 1812   0.208   2.973   1.588 -0.2611 -0.0797  0.2161
  454SOL     OW 1813   0.956   2.787   1.181 -0.2629  0.4923 -0.1080
  454SOL    HW1 1814   0.940   2.699   1.216  0.2639 -2.3620  0.6743
  454SOL    HW2 1815   0.875   2.812   1.137 -1.2886 -0.0402 -0.0293
  454SOL     MW 1816   0.943   2.779   1.180 -0.3287  0.0454  0.0056
  455SOL     OW 1817   1.754   2.811   0.189  0.0934 -0.6670  0.3653
  455SOL    HW1 1818   1.758   2.819   0.286 -2.1689 -0.0713 -1.5692
  455SOL    HW2 1819   1.674   2.762   0.176 -0.3471  0.6987 -0.3374
  455SOL     MW 1820   1.744   2.805   0.200 -0.2632 -0.4082  0.0173
  456SOL     OW 1821   2.766   0.243   1.466  0.3185 -0.4576 -0.2037
  456SOL    HW1 1822   2.744   0.174   1.401  0.9531 -0.9333  1.5647
  456SOL    HW2 1823   2.822   0.305   1.421 -1.3619  0.7012 -1.6703
  456SOL     MW 1824   2.771   0.242   1.452  0.1805 -0.3675 -0.1639
  457SOL     OW 1825   0.813   1.657   3.047 -0.4009 -0.4865 -0.4502
  457SOL    HW1 1826   0.725   1.627   3.077 -0.0537  0.8660 -1.3237
  457SOL    HW2 1827   0.852   1.680   3.132 -1.7569  0.5896  1.2683
  457SOL     MW 1828   0.807   1.656   3.062 -0.5340 -0.1661 -0.3387
  458SOL     OW 1829   1.348   1.470   0.703 -1.0522  0.4650 -0.7702
  458SOL    HW1 1830   1.258   1.499   0.736  0.8162  0.2598 -0.6156
  458SOL    HW2 1831   1.341   1.380   0.663  0.5514 -0.7817 -1.5102
  458SOL     MW 1832   1.335   1.462   0.702 -0.5941  0.2734 -0.8474
  459SOL     OW 1833   1.577   3.047   0.236 -0.0665 -0.2208 -0.2927
  459SOL    HW1 1834   1.616   2.972   0.185 -1.1708 -0.0834 -0.8561
  459SOL    HW2 1835   1.515   3.090   0.168  0.1329  1.7617  1.4367
  459SOL     MW 1836   1.574   3.043   0.220 -0.1859  0.0589 -0.1388
  460SOL     OW 1837   1.778   2.235   0.638  0.1040 -0.3455  0.2173
  460SOL    HW1 1838   1.691   2.217   0.676  3.2843 -0.6803 -0.5178
  460SOL    HW2 1839   1.816   2.155   0.608 -1.7064  2.1554 -0.3911
  460SOL     MW 1840   1.772   2.222   0.639  0.2847 -0.0597  0.0400
  461SOL     OW 1841   0.420   2.453   0.541  0.5169  0.1192  0.2634
  461SOL    HW1 1842   0.446   2.548   0.546  2.4552 -0.5359  0.1852
  461SOL    HW2 1843   0.399   2.430   0.629 -0.3731 -1.2927  0.7232
  461SOL     MW 1844   0.421   2.463   0.553  0.6552 -0.1536  0.3137
  462SOL     OW 1845   0.294   0.238   1.273  0.6014 -0.0679 -0.1170
  462SOL    HW1 1846   0.336   0.198   1.194  0.1724 -1.0230  0.1703
  462SOL    HW2 1847   0.370   0.267   1.323 -1.5842 -1.4062 -1.1413
  462SOL     MW 1848   0.310   0.237   1.269  0.2564 -0.3705 -0.2142
  463SOL     OW 1849   1.101   0.097   0.721  0.3404  0.4177 -0.2452
  463SOL    HW1 1850   1.173   0.036   0.714 -0.5026 -0.3688  2.4613
  463SOL    HW2 1851   1.062   0.101   0.636  0.0923  0.8982  2.1250
  463SOL     MW 1852   1.105   0.090   0.709  0.1964  0.3774  0.4246
  464SOL     OW 1853   0.754   3.065   2.275  0.0726 -0.6292  0.4833
  464SOL    HW1 1854   0.716   2.976   2.284 -0.2626  2.2337  2.0613
  464SOL    HW2 1855   0.745   3.090   2.371 -2.8191 -1.2310 -2.6623
  464SOL     MW 1856   0.748   3.056   2.289 -0.3532 -0.3308  0.2765
  465SOL     OW 1857   0.837   0.320   0.417  0.1793 -0.6558 -0.2250
  465SOL    HW1 1858   0.834   0.244   0.483 -1.8405 -2.1067  0.3569
  465SOL    HW2 1859   0.808   0.279   0.337  0.7557 -1.0262  1.7595
  465SOL     MW 1860   0.833   0.305   0.415 -0.0111 -0.8961  0.1136
  466SOL     OW 1861   1.103   2.046   0.803 -0.0419  0.1421  0.1133
  466SOL    HW1 1862   1.079   1.955   0.778 -0.5676 -2.6998  1.6973
  466SOL    HW2 1863   1.092   2.105   0.721  1.4155  2.4669  2.1172
  466SOL     MW 1864   1.098   2.042   0.789  0.0810  0.0739  0.5867
  467SOL     OW 1865   1.256   2.364   0.981  0.1985 -0.0716  0.7488
  467SOL    HW1 1866   1.348   2.386   1.003  0.4192  0.5043 -2.3771
  467SOL    HW2 1867   1.265   2.272   0.952  0.3142  0.3645  2.0351
  467SOL     MW 1868   1.269   2.354   0.980  0.2429  0.0619  0.5061
  468SOL     OW 1869   0.455   2.668   1.931 -0.9159  0.0276  0.4433
  468SOL    HW1 1870   0.444   2.611   1.849  0.6888 -1.4397 -1.3668
  468SOL    HW2 1871   0.442   2.753   1.893 -0.7069  3.7444  1.2287
  468SOL     MW 1872   0.452   2.672   1.915 -0.6766  0.3244  0.3081
  469SOL     OW 1873   0.320   2.139   1.791  0.0955 -0.5383 -0.2413
  469SOL    HW1 1874   0.278   2.080   1.852  1.2307  1.1733  1.3511
  469SOL    HW2 1875   0.395   2.083   1.775 -0.5618 -0.5787  0.9900
  469SOL     MW 1876   0.324   2.124   1.797  0.1586 -0.3178  0.1313
  470SOL     OW 1877   3.038   2.599   0.105  0.1978  0.3099  0.1421
  470SOL    HW1 1878   2.945   2.582   0.138 -2.2862  0.1682 -0.5213
  470SOL    HW2 1879   3.036   2.592   0.008  0.3464  0.9510  1.1361
  470SOL     MW 1880   3.026   2.596   0.097 -0.1103  0.3758  0.1857
  471SOL     OW 1881   1.157   2.644   1.376  0.9493  0.3729 -0.1440
  471SOL    HW1 1882   1.118   2.574   1.321  0.0033 -1.7671  1.5284
  471SOL    HW2 1883   1.199   2.702   1.313  2.8046  0.1370  1.8511
  471SOL     MW 1884   1.158   2.642   1.361  1.0693  0.0594  0.3399
  472SOL     OW 1885   2.966   2.142   0.360  0.6640  0.4267 -0.1957
  472SOL    HW1 1886   2.941   2.091   0.279  0.5487 -4.0041 -0.2732
  472SOL    HW2 1887   2.902   2.091   0.421 -2.8449 -0.8241  1.8266
  472SOL     MW 1888   2.954   2.128   0.357  0.1858 -0.3229  0.0609
  473SOL     OW 1889   0.878   2.561   1.345 -0.3710  0.5267 -0.1932
  473SOL    HW1 1890   0.903   2.468   1.340  0.3456  0.6465  1.5990
  473SOL    HW2 1891   0.902   2.580   1.441 -2.1609 -0.9052 -1.1289
  473SOL     MW 1892   0.885   2.551   1.357 -0.5126  0.3536 -0.0802
  474SOL     OW 1893   0.761   2.270   1.834  0.5859 -0.2472 -0.1375
  474SOL    HW1 1894   0.841   2.254   1.888 -1.0899 -1.9060 -0.0388
  474SOL    HW2 1895   0.787   2.265   1.743  1.0804 -0.0850 -1.4541
  474SOL     MW 1896   0.775   2.267   1.829  0.4300 -0.4447 -0.2982
  475SOL     OW 1897   1.583   3.082   1.534 -0.1154  0.1580  0.3228
  475SOL    HW1 1898   1.493   3.063   1.496 -1.6300 -0.5898 -0.4133
  475SOL    HW2 1899   1.612   2.998   1.571 -5.0018 -1.4141  2.0315
  475SOL     MW 1900   1.575   3.068   1.534 -0.9600 -0.1481  0.4511
  476SOL     OW 1901   1.440   2.677   1.202  0.1179 -0.1079  0.0576
  476SOL    HW1 1902   1.378   2.728   1.160  0.6119  0.0394  1.7377
  476SOL    HW2 1903   1.518   2.733   1.207 -0.7756 -3.0835  0.5310
  476SOL     MW 1904   1.442   2.691   1.197  0.0652 -0.4810  0.3417
  477SOL     OW 1905   0.879   2.521   0.690  0.1314 -0.3240 -0.6472
  477SOL    HW1 1906   0.937   2.592   0.651  2.2935 -1.9138 -1.8422
  477SOL    HW2 1907   0.868   2.468   0.617  0.6098  0.5471  1.0482
  477SOL     MW 1908   0.885   2.524   0.675  0.4798 -0.4189 -0.5812
  478SOL     OW 1909   0.208   2.648   0.853 -0.4447  0.1670 -0.4173
  478SOL    HW1 1910   0.269   2.719   0.852 -0.4496 -1.2629  0.6789
  478SOL    HW2 1911   0.255   2.569   0.813  1.6187  1.9341 -1.4719
  478SOL     MW 1912   0.222   2.647   0.847 -0.1731  0.2115 -0.4118
  479SOL     OW 1913   1.406   1.994   1.295  0.0891  0.0594  0.6161
  479SOL    HW1 1914   1.407   2.019   1.391  2.8659 -0.3316 -0.7662
  479SOL    HW2 1915   1.447   1.906   1.301  0.0945  0.7020 -1.1623
  479SOL     MW 1916   1.412   1.986   1.308  0.4562  0.0926  0.1991
  480SOL     OW 1917   1.945   2.441   1.349 -0.9148 -0.2830 -0.0272
  480SOL    HW1 1918   1.937   2.347   1.335 -0.1520  2.7406  0.0740
  480SOL    HW2 1919   1.951   2.469   1.260  1.1382 -1.1173 -0.1671
  480SOL     MW 1920   1.944   2.433   1.335 -0.5433  0.0058 -0.0323
  481SOL     OW 1921   1.075   0.067   1.101 -0.3291 -0.4012  0.5791
  481SOL    HW1 1922   1.152   0.014   1.083 -2.4830  0.1395 -0.9008
  481SOL    HW2 1923   1.119   0.147   1.132  1.2522 -1.2579  0.9496
  481SOL     MW 1924   1.091   0.071   1.102 -0.4046 -0.4429  0.4327
  482SOL     OW 1925   1.056   3.094   0.250  0.6000 -0.0249 -0.6981
  482SOL    HW1 1926   1.016   3.029   0.302  2.0831  2.1661  0.5274
  482SOL    HW2 1927   1.066   3.174   0.305  1.8009 -0.9702  2.4907
  482SOL     MW 1928   1.052   3.096   0.264  0.9541  0.1395 -0.1157
  483SOL     OW 1929   0.487   3.004   0.462  0.1966  0.7153 -0.2158
  483SOL    HW1 1930   0.423   2.995   0.392  1.7398 -0.8611 -1.9180
  483SOL    HW2 1931   0.422   3.034   0.531 -0.3895  1.6411  1.3204
  483SOL     MW 1932   0.470   3.007   0.462  0.3229  0.6294 -0.2377
  484SOL     OW 1933   1.847   2.041   1.431  0.5350  0.1306 -0.2014
  484SOL    HW1 1934   1.910   2.118   1.437  1.5650  0.4672 -0.9543
  484SOL    HW2 1935   1.834   2.025   1.527  1.9328 -2.9999  0.3046
  484SOL     MW 1936   1.853   2.049   1.445  0.8553 -0.2380 -0.2340
  485SOL     OW 1937   0.631   2.420   0.287  0.0357  0.1264 -0.7435
  485SOL    HW1 1938   0.699   2.403   0.361  0.2487 -1.6775 -0.3905
  485SOL    HW2 1939   0.557   2.469   0.331 -1.7761 -1.5711  1.2318
  485SOL     MW 1940   0.630   2.424   0.303 -0.1753 -0.3356 -0.4363
  486SOL     OW 1941   0.163   2.372   1.487 -0.2511  0.1103  0.4079
  486SOL    HW1 1942   0.179   2.460   1.456  0.1203 -0.5876  0.6619
  486SOL    HW2 1943   0.150   2.392   1.579 -3.7424 -0.5431  0.2247
  486SOL     MW 1944   0.163   2.386   1.495 -0.6628 -0.0680  0.4172
  487SOL     OW 1945   1.168   1.760   1.054 -0.4778 -0.4048  0.2196
  487SOL    HW1 1946   1.168   1.849   1.068 -0.9215 -3.8674 -0.2423
  487SOL    HW2 1947   1.263   1.735   1.037  0.8794 -1.7946 -0.7522
  487SOL     MW 1948   1.181   1.768   1.054 -0.3573 -1.0450  0.0304
  488SOL     OW 1949   1.618   1.859   0.528  0.4694  0.3507 -0.7223
  488SOL    HW1 1950   1.695   1.852   0.467  2.2715 -1.6923  0.3033
  488SOL    HW2 1951   1.560   1.930   0.500  0.6388  0.0544 -1.3288
  488SOL     MW 1952   1.621   1.867   0.516  0.7295  0.0420 -0.6670
  489SOL     OW 1953   0.779   0.818   0.585 -0.3345 -0.1882  0.0295
  489SOL    HW1 1954   0.791   0.755   0.508  5.5729  0.8405  1.9082
  489SOL    HW2 1955   0.765   0.764   0.662  1.7221  1.5354 -0.8822
  489SOL     MW 1956   0.779   0.802   0.585  0.7163  0.1749  0.1571
  490SOL     OW 1957   1.436   2.082   0.467  0.2013  0.5078 -0.5334
  490SOL    HW1 1958   1.463   2.167   0.424 -0.8997  0.3599  0.1393
  490SOL    HW2 1959   1.342   2.076   0.458 -0.6898  0.3634 -1.1787
  490SOL     MW 1960   1.427   2.093   0.460 -0.0615  0.4692 -0.5298
  491SOL     OW 1961   1.319   3.029   0.418  0.2806  0.1755  0.0978
  491SOL    HW1 1962   1.402   3.086   0.416  3.7430  1.7318  1.1557
  491SOL    HW2 1963   1.249   3.083   0.385  0.0931  1.3237  1.3260
  491SOL     MW 1964   1.320   3.043   0.413  0.7127  0.5323  0.3994
  492SOL     OW 1965   1.491   2.202   0.748 -0.3206  0.1066 -0.3451
  492SOL    HW1 1966   1.470   2.145   0.678 -3.7152 -1.0467 -0.4811
  492SOL    HW2 1967   1.467   2.142   0.823  0.3207 -1.0191 -0.9440
  492SOL     MW 1968   1.485   2.186   0.749 -0.6839 -0.1941 -0.4420
  493SOL     OW 1969   0.278   2.977   0.279  0.0734  0.6257 -0.0767
  493SOL    HW1 1970   0.215   3.007   0.348 -1.2568 -2.1405 -0.8596
  493SOL    HW2 1971   0.249   3.039   0.207  0.1097 -2.7722 -2.8705
  493SOL     MW 1972   0.266   2.989   0.279 -0.0973 -0.1876 -0.5486
  494SOL     OW 1973   0.454   2.430   1.761  0.4455 -0.0568 -0.3804
  494SOL    HW1 1974   0.502   2.354   1.795 -0.9874 -1.3160 -1.1174
  494SOL    HW2 1975   0.487   2.445   1.669 -2.4558 -0.5485  2.1441
  494SOL     MW 1976   0.465   2.422   1.753 -0.1264 -0.2878 -0.1446
  495SOL     OW 1977   2.825   1.755   2.567 -0.0429  0.4667  0.3362
  495SOL    HW1 1978   2.850   1.834   2.531 -1.4535 -0.7861  0.5921
  495SOL    HW2 1979   2.804   1.785   2.651  0.9877 -0.7462 -2.0483
  495SOL     MW 1980   2.826   1.769   2.573 -0.0931  0.1414  0.0554
  496SOL     OW 1981   2.901   2.330   2.648 -0.5745 -0.1681  0.1038
  496SOL    HW1 1982   2.940   2.273   2.714 -1.4113  1.3929 -1.5828
  496SOL    HW2 1983   2.973   2.388   2.622 -0.6680  1.1215 -0.7344
  496SOL     MW 1984   2.915   2.330   2.653 -0.6973  0.2080 -0.2293
  497SOL     OW 1985   1.542   2.207   2.678  0.3217 -0.3179  0.4537
  497SOL    HW1 1986   1.454   2.172   2.660 -1.0823 -0.8596  0.6584
  497SOL    HW2 1987   1.585   2.142   2.734 -0.9327 -0.9815 -2.4547
  497SOL     MW 1988   1.536   2.194   2.683 -0.0290 -0.4769  0.0970
  498SOL     OW 1989   1.488   2.693   2.354 -0.1999 -0.1981 -0.1427
  498SOL    HW1 1990   1.469   2.599   2.348 -2.8796 -0.0555 -1.0765
  498SOL    HW2 1991   1.581   2.701   2.367 -1.7852 -1.1086 -0.6580
  498SOL     MW 1992   1.498   2.681   2.355 -0.7626 -0.2994 -0.3339
  499SOL     OW 1993   0.967   0.160   3.077  0.5309  0.3742  0.4892
  499SOL    HW1 1994   0.894   0.200   3.128 -2.0143  0.9656  0.9166
  499SOL    HW2 1995   0.980   0.086   3.139 -2.7173  0.2856 -0.6709
  499SOL     MW 1996   0.959   0.155   3.092 -0.2335  0.4406  0.3925
  500SOL     OW 1997   1.019   2.494   2.773 -0.3932  0.5817  0.4625
  500SOL    HW1 1998   1.090   2.472   2.839  0.5258 -0.6737 -0.2358
  500SOL    HW2 1999   0.935   2.506   2.823 -1.8933  0.2563  0.6983
  500SOL     MW 2000   1.017   2.493   2.789 -0.4699  0.3732  0.4015
  501SOL     OW 2001   1.760   2.202   3.055  0.3618 -0.4772 -0.1304
  501SOL    HW1 2002   1.739   2.287   3.025 -0.8950 -1.2839 -0.9253
  501SOL    HW2 2003   1.840   2.214   3.101 -1.5108  0.7568  2.8395
  501SOL     MW 2004   1.768   2.215   3.057 -0.0511 -0.4208  0.1566
  502SOL     OW 2005   0.105   2.826   2.991  0.5611 -0.5383 -0.5188
  502SOL    HW1 2006   0.046   2.759   2.962  0.4326 -0.0435 -1.2079
  502SOL    HW2 2007   0.154   2.851   2.917 -2.4194 -2.4979 -0.6829
  502SOL     MW 2008   0.104   2.821   2.977  0.1509 -0.7316 -0.6313
  503SOL     OW 2009   1.046   2.924   2.162  0.0870  0.1740  0.2625
  503SOL    HW1 2010   1.018   2.873   2.085  4.3841 -0.6637 -0.6810
  503SOL    HW2 2011   1.007   3.016   2.158 -0.3737  1.4456  2.6327
  503SOL     MW 2012   1.037   2.930   2.151  0.5932  0.2313  0.4507
  504SOL     OW 2013   0.130   2.705   2.117  0.5894 -0.4244 -0.1508
  504SOL    HW1 2014   0.131   2.610   2.089  1.9516  2.0502  1.0816
  504SOL    HW2 2015   0.066   2.724   2.191 -1.5705  3.0376 -1.5172
  504SOL     MW 2016   0.122   2.695   2.123  0.4842  0.3589 -0.1685
  505SOL     OW 2017   1.718   2.708   2.690 -0.0031 -0.4553  0.2283
  505SOL    HW1 2018   1.665   2.709   2.612 -0.9043  1.8272 -1.8137
  505SOL    HW2 2019   1.663   2.731   2.764  0.8566  0.7104  1.9248
  505SOL     MW 2020   1.704   2.711   2.690 -0.0086 -0.0003  0.1827
  506SOL     OW 2021   1.643   3.001   2.870  0.1469 -0.0791  0.2639
  506SOL    HW1 2022   1.692   2.950   2.935 -2.2171 -0.7626  0.8558
  506SOL    HW2 2023   1.688   2.992   2.786 -0.3402 -1.1838  0.3337
  506SOL     MW 2024   1.655   2.993   2.867 -0.2293 -0.3150  0.3512
  507SOL     OW 2025   0.790   2.846   2.907 -0.7640  0.9897  0.2423
  507SOL    HW1 2026   0.837   2.881   2.834  0.1952  2.5045  1.4853
  507SOL    HW2 2027   0.720   2.912   2.924  2.6269 -0.7086  2.2209
  507SOL     MW 2028   0.787   2.859   2.900 -0.1900  0.9655  0.6673
  508SOL     OW 2029   1.110   2.083   2.475 -0.3461  0.4853  0.0050
  508SOL    HW1 2030   1.189   2.057   2.519 -2.1829  0.1396 -0.1980
  508SOL    HW2 2031   1.066   2.159   2.521 -3.0516 -0.4961 -0.3889
  508SOL     MW 2032   1.115   2.089   2.487 -0.9454  0.3102 -0.0737
  509SOL     OW 2033   0.572   2.542   2.904  0.4238  0.3925 -0.3158
  509SOL    HW1 2034   0.617   2.581   2.820  2.8184  1.2519 -0.6202
  509SOL    HW2 2035   0.484   2.511   2.869 -2.6040  1.6714  1.2960
  509SOL     MW 2036   0.567   2.543   2.888  0.3403  0.6746 -0.1433
  510SOL     OW 2037   1.477   2.542   1.740 -0.4032 -0.1184  0.3890
  510SOL    HW1 2038   1.492   2.637   1.747  0.0599  0.1806 -1.4488
  510SOL    HW2 2039   1.400   2.532   1.803  1.7164  1.4202  1.9721
  510SOL     MW 2040   1.469   2.553   1.749 -0.0624  0.1240  0.3554
  511SOL     OW 2041   0.413   2.592   2.487 -0.1455  0.1556  0.0203
  511SOL    HW1 2042   0.498   2.587   2.536 -1.7082  0.1300  1.5740
  511SOL    HW2 2043   0.427   2.597   2.389 -3.2930  0.9770  1.5207
  511SOL     MW 2044   0.426   2.592   2.480 -0.7670  0.2606  0.4233
  512SOL     OW 2045   1.008   1.963   2.829 -0.2294 -0.1772 -0.6243
  512SOL    HW1 2046   0.918   1.959   2.864 -0.0634 -1.3172 -0.1183
  512SOL    HW2 2047   1.050   1.885   2.867  0.5696 -1.1504 -2.5552
  512SOL     MW 2048   1.001   1.952   2.838 -0.1021 -0.4560 -0.8123
  513SOL     OW 2049   1.460   2.382   2.376  0.0809 -0.2233 -0.4276
  513SOL    HW1 2050   1.540   2.406   2.426 -0.1237  1.4640 -3.1506
  513SOL    HW2 2051   1.480   2.288   2.363 -4.2413 -0.8916  0.0592
  513SOL     MW 2052   1.473   2.373   2.381 -0.5164 -0.0889 -0.7227
  514SOL     OW 2053   0.250   2.429   2.605  0.3388 -0.3646 -0.2459
  514SOL    HW1 2054   0.315   2.489   2.564 -1.0963  0.7733 -2.0857
  514SOL    HW2 2055   0.261   2.450   2.697  0.0670  1.6038  1.6437
  514SOL     MW 2056   0.260   2.440   2.612  0.1136  0.0453 -0.2393
  515SOL     OW 2057   1.179   2.068   1.912  0.2311 -0.0453 -0.1792
  515SOL    HW1 2058   1.114   2.130   1.891  1.3230  1.7715 -0.8593
  515SOL    HW2 2059   1.168   2.051   2.004 -1.1956  1.3243  2.2475
  515SOL     MW 2060   1.169   2.074   1.922  0.1869  0.3751  0.0512
  516SOL     OW 2061   1.446   2.499   3.072  0.1930 -0.5417 -0.2637
  516SOL    HW1 2062   1.495   2.519   2.993 -3.3682  0.4529  0.8492
  516SOL    HW2 2063   1.353   2.491   3.043  2.1028 -0.0722  2.7871
  516SOL     MW 2064   1.440   2.501   3.058 -0.0249 -0.3485  0.2856
  517SOL     OW 2065   0.573   2.421   2.089  0.2816 -0.1709 -0.4712
  517SOL    HW1 2066   0.543   2.518   2.092  0.1610 -0.4155 -1.4895
  517SOL    HW2 2067   0.491   2.364   2.079 -0.3277 -3.1321  0.3377
  517SOL     MW 2068   0.559   2.426   2.088  0.1853 -0.5939 -0.4989
  518SOL     OW 2069   1.885   0.080   3.006 -0.0879 -0.0524  0.5346
  518SOL    HW1 2070   1.805   0.102   2.951 -1.7709  0.3355  2.0148
  518SOL    HW2 2071   1.848   0.083   3.096  0.1915 -0.2939  0.4049
  518SOL     MW 2072   1.869   0.083   3.010 -0.2731 -0.0331  0.7128
  519SOL     OW 2073   0.733   2.545   1.804 -0.2478 -0.3125  0.1754
  519SOL    HW1 2074   0.757   2.449   1.833 -0.0822  2.7674  1.5607
  519SOL    HW2 2075   0.635   2.526   1.812 -3.7981 -0.6259  1.7510
  519SOL     MW 2076   0.723   2.530   1.809 -0.6944  0.0525  0.5661
  520SOL     OW 2077   1.186   2.151   2.904 -0.7905  0.2597 -0.3342
  520SOL    HW1 2078   1.115   2.097   2.867  1.3474 -0.9097  0.2185
  520SOL    HW2 2079   1.217   2.122   2.992  2.4318  1.2099 -0.4546
  520SOL     MW 2080   1.181   2.140   2.910 -0.0833  0.2308 -0.2772
  521SOL     OW 2081   1.743   2.002   2.228 -0.2190 -0.1107 -0.1091
  521SOL    HW1 2082   1.736   2.033   2.139  0.8543 -0.4741  0.6877
  521SOL    HW2 2083   1.744   1.905   2.228 -0.1351  0.5936  0.9642
  521SOL     MW 2084   1.742   1.993   2.216 -0.0663 -0.0657  0.1377
  522SOL     OW 2085   2.878   2.616   2.236  0.3587  0.0295  0.1742
  522SOL    HW1 2086   2.959   2.565   2.263  1.8295 -1.5407 -0.4101
  522SOL    HW2 2087   2.808   2.631   2.298  1.4457  1.7826 -0.2023
  522SOL     MW 2088   2.880   2.611   2.248  0.6961  0.0536  0.0474
  523SOL     OW 2089   0.838   1.506   2.117 -0.2339  0.3736 -0.5598
  523SOL    HW1 2090   0.838   1.581   2.054 -1.0850 -0.4353 -0.8790
  523SOL    HW2 2091   0.899   1.438   2.080  1.3958  0.1789  0.0506
  523SOL     MW 2092   0.846   1.507   2.104 -0.1311  0.2412 -0.5214
  524SOL     OW 2093   0.812   2.457   2.951  0.1198 -0.5292  0.0406
  524SOL    HW1 2094   0.718   2.468   2.941 -1.4585  1.9635  0.2290
  524SOL    HW2 2095   0.841   2.370   2.933  1.8659  0.3729  1.2729
  524SOL     MW 2096   0.803   2.447   2.947  0.1420 -0.0813  0.2280
  525SOL     OW 2097   0.348   2.299   2.022  0.0950 -0.3064 -0.3849
  525SOL    HW1 2098   0.331   2.265   2.112 -1.0563 -1.6138  0.3644
  525SOL    HW2 2099   0.336   2.234   1.954 -1.7416 -1.4207  0.7759
  525SOL     MW 2100   0.344   2.286   2.025 -0.2992 -0.6259 -0.1329
  526SOL     OW 2101   0.632   2.125   2.097  0.1081 -0.0071 -0.1231
  526SOL    HW1 2102   0.673   2.168   2.023  1.9068  0.8311  0.7066
  526SOL    HW2 2103   0.604   2.204   2.147  0.5649  1.7342  0.2122
  526SOL     MW 2104   0.633   2.141   2.094  0.4057  0.3333  0.0306
  527SOL     OW 2105   1.416   1.975   2.159 -0.1024  0.3917  0.3184
  527SOL    HW1 2106   1.369   1.918   2.221  0.5902  3.0439 -0.3559
  527SOL    HW2 2107   1.435   1.919   2.081  0.7521 -0.6946  1.2613
  527SOL     MW 2108   1.412   1.960   2.157  0.1017  0.5983  0.3538
  528SOL     OW 2109   0.595   3.032   2.931  0.1536  0.2969 -0.2325
  528SOL    HW1 2110   0.653   3.105   2.904  0.4957  0.3467  1.5370
  528SOL    HW2 2111   0.555   2.999   2.849  2.5124  0.4897 -0.4884
  528SOL     MW 2112   0.598   3.037   2.917  0.5100  0.3289 -0.0328
  529SOL     OW 2113   1.001   2.286   1.944  1.2999  0.1517  0.0258
  529SOL    HW1 2114   0.991   2.319   2.031 -2.5555 -0.7201  0.0011
  529SOL    HW2 2115   1.035   2.356   1.892 -0.2007 -2.0963 -0.1978
  529SOL     MW 2116   1.004   2.300   1.949  0.5932 -0.2599 -0.0070
  530SOL     OW 2117   1.183   2.437   2.989 -0.9499  0.1093  0.3096
  530SOL    HW1 2118   1.139   2.487   3.059 -0.8574  0.1102  2.1219
  530SOL    HW2 2119   1.156   2.346   2.995  1.6528 -0.1486 -0.6917
  530SOL     MW 2120   1.173   2.432   2.999 -0.5943  0.0754  0.4166
  531SOL     OW 2121   0.947   1.869   2.559  0.0755  0.4069 -0.4726
  531SOL    HW1 2122   0.989   1.943   2.512  2.4998  1.2913 -1.3901
  531SOL    HW2 2123   0.963   1.908   2.652  3.7782 -0.7889  4.9366
  531SOL     MW 2124   0.954   1.884   2.565  0.8839  0.3658  0.1200
  532SOL     OW 2125   1.762   0.208   2.771  0.5884  0.4112  0.4632
  532SOL    HW1 2126   1.734   0.123   2.749  1.5367 -0.9615 -0.5038
  532SOL    HW2 2127   1.835   0.219   2.708 -1.2629  1.9723 -1.7530
  532SOL     MW 2128   1.768   0.198   2.760  0.4693  0.4360  0.0432
  533SOL     OW 2129   1.966   2.549   0.001  0.1133 -0.9006  0.4188
  533SOL    HW1 2130   1.904   2.491   0.052 -0.1313 -0.3863  1.5554
  533SOL    HW2 2131   1.900   2.616  -0.034 -0.7928  2.7262  1.2785
  533SOL     MW 2132   1.949   2.550   0.003 -0.0386 -0.3542  0.6822
  534SOL     OW 2133   1.702   2.375   2.515 -0.0736  0.3506  0.3686
  534SOL    HW1 2134   1.673   2.294   2.557 -1.3546 -1.3779  0.2859
  534SOL    HW2 2135   1.770   2.408   2.580  1.3220  0.5290  1.4555
  534SOL     MW 2136   1.707   2.368   2.529 -0.0585  0.1461  0.5011
  535SOL     OW 2137   1.893   2.370   1.868 -0.0269 -0.4334  0.0963
  535SOL    HW1 2138   1.842   2.370   1.785  1.3748 -0.2611  2.7080
  535SOL    HW2 2139   1.986   2.352   1.842 -0.3729  0.5666 -1.6657
  535SOL     MW 2140   1.898   2.368   1.854  0.1124 -0.2788  0.2084
  536SOL     OW 2141   0.493   1.880   2.116  0.0073  0.2130 -0.2445
  536SOL    HW1 2142   0.487   1.860   2.021  0.8798 -0.0569 -4.1985
  536SOL    HW2 2143   0.526   1.971   2.122 -0.4678 -0.8343  1.2655
  536SOL     MW 2144   0.497   1.889   2.105  0.0597  0.0392 -0.5670
  537SOL     OW 2145   1.056   0.294   2.766 -0.2445  0.4894 -0.0408
  537SOL    HW1 2146   1.084   0.361   2.829 -0.8642 -2.2572 -0.8985
  537SOL    HW2 2147   1.067   0.334   2.682 -1.6112  0.1474  1.3182
  537SOL     MW 2148   1.061   0.308   2.763 -0.5066  0.0819  0.0253
  538SOL     OW 2149   1.433   0.066   0.051 -0.1090  0.0319 -0.6109
  538SOL    HW1 2150   1.434   0.162   0.054 -0.6748  0.3883 -1.0443
  538SOL    HW2 2151   1.344   0.056   0.019  1.3433  0.8725  1.9018
  538SOL     MW 2152   1.422   0.078   0.048  0.0079  0.1898 -0.3366
  539SOL     OW 2153   0.730   2.849   2.595  0.5814  0.5126  0.7442
  539SOL    HW1 2154   0.809   2.899   2.624  0.0513  2.7125 -0.3551
  539SOL    HW2 2155   0.726   2.787   2.662  2.0654  1.5598 -2.3128
  539SOL     MW 2156   0.740   2.848   2.608  0.7072  0.9410  0.1958
  540SOL     OW 2157   0.306   2.435   2.882 -0.2947 -0.2447  0.0789
  540SOL    HW1 2158   0.263   2.505   2.931  0.0418 -1.6863 -1.4173
  540SOL    HW2 2159   0.259   2.354   2.911  0.3208 -0.9149 -1.6980
  540SOL     MW 2160   0.294   2.434   2.892 -0.1691 -0.5233 -0.3529
  541SOL     OW 2161   0.260   2.936   2.111  0.3761  0.0262 -0.3602
  541SOL    HW1 2162   0.208   2.853   2.105 -1.1999 -0.2727  2.8450
  541SOL    HW2 2163   0.324   2.927   2.181  0.3560 -0.1252 -1.3896
  541SOL     MW 2164   0.262   2.924   2.119  0.1655 -0.0332 -0.0732
  542SOL     OW 2165   0.969   2.269   2.611 -0.3204 -0.6662  0.3555
  542SOL    HW1 2166   0.911   2.224   2.669  0.0985 -1.9950 -0.2940
  542SOL    HW2 2167   1.001   2.344   2.670  0.7769  0.6422  0.0730
  542SOL     MW 2168   0.965   2.273   2.627 -0.1203 -0.6689  0.2325
  543SOL     OW 2169   1.606   2.460   2.833  0.2271  0.3306  0.4179
  543SOL    HW1 2170   1.561   2.391   2.793  4.1869  1.3161 -0.3262
  543SOL    HW2 2171   1.690   2.463   2.788  1.0131  0.0950  1.1293
  543SOL     MW 2172   1.611   2.451   2.821  0.8533  0.4295  0.4136
  544SOL     OW 2173   0.673   0.312   2.719 -0.5555 -0.1064 -0.0722
  544SOL    HW1 2174   0.578   0.315   2.739 -3.1164  0.8230  1.0329
  544SOL    HW2 2175   0.678   0.250   2.644  2.0577  0.4170  0.5145
  544SOL     MW 2176   0.661   0.304   2.712 -0.5486  0.0853  0.1510
  545SOL     OW 2177   1.533   2.114   2.343  0.7300 -0.2277  0.3423
  545SOL    HW1 2178   1.474   2.064   2.284  1.2485 -0.3674  0.5310
  545SOL    HW2 2179   1.618   2.097   2.317 -0.4880  2.6516 -0.3038
  545SOL     MW 2180   1.537   2.105   2.332  0.6377  0.1338  0.2819
  546SOL     OW 2181   2.911   1.969   0.148  0.3688  0.1550  0.2702
  546SOL    HW1 2182   2.903   2.050   0.093  0.0172 -0.0996  0.0943
  546SOL    HW2 2183   3.002   1.954   0.128 -0.3902 -2.0749  0.3176
  546SOL     MW 2184   2.922   1.978   0.138  0.2222 -0.1728  0.2532
  547SOL     OW 2185   0.197   0.060   0.091  0.0097  0.0965 -0.1315
  547SOL    HW1 2186   0.286   0.059   0.044  0.5877 -2.5662 -0.4484
  547SOL    HW2 2187   0.135   0.025   0.032  1.9880 -3.3819 -0.1292
  547SOL     MW 2188   0.201   0.055   0.077  0.3470 -0.7138 -0.1730
  548SOL     OW 2189   0.375   2.574   0.252  0.1151 -0.0186  0.0519
  548SOL    HW1 2190   0.332   2.595   0.168  1.9447  0.3747 -2.2560
  548SOL    HW2 2191   0.317   2.524   0.302 -1.8542  3.1134 -0.3994
  548SOL     MW 2192   0.362   2.570   0.248  0.0967  0.4465 -0.3121
  549SOL     OW 2193   0.845   1.924   2.135  0.2211 -0.0619  0.7141
  549SOL    HW1 2194   0.801   1.997   2.096 -0.1438 -1.4560 -5.4395
  549SOL    HW2 2195   0.799   1.916   2.220 -2.0700 -0.0453 -0.1417
  549SOL     MW 2196   0.833   1.933   2.141 -0.1294 -0.2436 -0.2107
  550SOL     OW 2197   1.800   1.621   2.531  0.1114  0.2492  0.0143
  550SOL    HW1 2198   1.812   1.623   2.439 -1.9624 -1.1942  2.2308
  550SOL    HW2 2199   1.782   1.714   2.553 -1.6360 -2.6993  3.5304
  550SOL     MW 2200   1.799   1.634   2.521 -0.3927 -0.3303  0.7707
  551SOL     OW 2201   0.918   2.231   0.201 -0.3342  0.2198  0.4684
  551SOL    HW1 2202   1.017   2.249   0.199  2.3019 -2.8784 -0.3890
  551SOL    HW2 2203   0.905   2.156   0.149  1.2823  2.6049  1.1422
  551SOL     MW 2204   0.929   2.223   0.194  0.2269  0.1257  0.4442
  552SOL     OW 2205   1.760   1.718   2.241  0.3265 -0.5850 -0.3844
  552SOL    HW1 2206   1.667   1.696   2.239 -1.8969 -3.0041 -2.7169
  552SOL    HW2 2207   1.787   1.682   2.160 -4.2418  0.6428 -0.8996
  552SOL     MW 2208   1.751   1.711   2.230 -0.5696 -0.7422 -0.7601
  553SOL     OW 2209   1.247   2.305   1.584  0.6026  0.1359  0.2151
  553SOL    HW1 2210   1.273   2.215   1.569 -1.6851  1.5709  0.7925
  553SOL    HW2 2211   1.311   2.364   1.539 -1.2911 -2.1478  1.4525
  553SOL     MW 2212   1.259   2.301   1.576  0.0509  0.0239  0.4545
  554SOL     OW 2213   0.505   2.977   2.680 -0.1012  0.0423 -0.1396
  554SOL    HW1 2214   0.475   3.032   2.609 -1.6987 -0.2451  0.2637
  554SOL    HW2 2215   0.582   2.925   2.647 -0.8672 -0.3930 -1.5528
  554SOL     MW 2216   0.512   2.978   2.666 -0.4130 -0.0531 -0.2728
  555SOL     OW 2217   0.643   2.528   2.628  0.3914  0.4771  0.5551
  555SOL    HW1 2218   0.604   2.445   2.656 -0.9337 -2.1017  0.8778
  555SOL    HW2 2219   0.728   2.509   2.584  1.5162 -0.3382  0.1596
  555SOL     MW 2220   0.649   2.515   2.626  0.3649  0.0293  0.5455
  556SOL     OW 2221   1.054   1.834   0.048 -0.4232 -0.5843  0.3750
  556SOL    HW1 2222   1.070   1.770  -0.020  1.1701  0.2924 -0.5894
  556SOL    HW2 2223   1.135   1.870   0.090 -1.7356  2.5794  0.0803
  556SOL     MW 2224   1.067   1.830   0.045 -0.3861 -0.0512  0.2088
  557SOL     OW 2225   1.035   2.715   0.592 -0.1883 -0.1573  0.8108
  557SOL    HW1 2226   1.084   2.664   0.527 -2.0074 -0.1921 -3.4290
  557SOL    HW2 2227   1.003   2.786   0.541 -1.3447 -4.6548 -0.0538
  557SOL     MW 2228   1.037   2.717   0.577 -0.5809 -0.7553  0.1373
  558SOL     OW 2229   0.218   2.228   3.014 -0.1072 -0.0311 -0.7019
  558SOL    HW1 2230   0.301   2.204   3.053 -1.4456 -0.4524  0.4921
  558SOL    HW2 2231   0.155   2.253   3.089 -3.3948  1.7706  1.7111
  558SOL     MW 2232   0.220   2.228   3.029 -0.7176  0.1510 -0.2260
  559SOL     OW 2233   1.053   2.293   2.253 -0.0690 -0.4710 -0.1070
  559SOL    HW1 2234   1.131   2.343   2.240 -3.0816 -0.1886 -1.7989
  559SOL    HW2 2235   1.069   2.206   2.222  0.7502  0.6179 -0.0938
  559SOL     MW 2236   1.066   2.288   2.247 -0.3584 -0.2900 -0.3285
  560SOL     OW 2237   2.171   2.667   0.144 -0.1426 -0.4024  0.0005
  560SOL    HW1 2238   2.206   2.724   0.078 -1.6731  1.7724 -0.4843
  560SOL    HW2 2239   2.098   2.618   0.102  0.8133 -2.4521  1.6612
  560SOL     MW 2240   2.166   2.668   0.130 -0.2184 -0.3859  0.1556
  561SOL     OW 2241   0.487   2.205   0.173  0.1404 -0.0433 -0.3229
  561SOL    HW1 2242   0.485   2.224   0.080  3.2735  0.1600  0.1242
  561SOL    HW2 2243   0.543   2.279   0.203 -0.4457  0.2741  2.0724
  561SOL     MW 2244   0.494   2.217   0.165  0.4765  0.0254  0.0522
  562SOL     OW 2245   0.660   2.324   2.365 -0.0829  0.9119  0.1498
  562SOL    HW1 2246   0.586   2.365   2.328  0.5753 -3.6605 -0.0171
  562SOL    HW2 2247   0.736   2.382   2.381  1.8839 -0.3797 -0.5167
  562SOL     MW 2248   0.660   2.337   2.362  0.2634  0.1382  0.0399
  563SOL     OW 2249   1.268   0.395   0.573  0.1110 -0.8797 -0.2836
  563SOL    HW1 2250   1.228   0.317   0.527  1.6527 -0.7628 -1.6421
  563SOL    HW2 2251   1.251   0.370   0.669 -3.3466  1.0094  3.8940
  563SOL     MW 2252   1.260   0.381   0.580 -0.1418 -0.6150  0.0883
  564SOL     OW 2253   1.000   2.725   2.340  0.0737  1.0819  0.8298
  564SOL    HW1 2254   1.022   2.800   2.289 -1.1364 -1.1295  0.9912
  564SOL    HW2 2255   1.029   2.735   2.431 -1.7518 -1.3374 -3.3978
  564SOL     MW 2256   1.007   2.736   2.345 -0.3268  0.4709  0.2933
  565SOL     OW 2257   2.752   2.803   2.620  0.3718 -0.3911 -0.0617
  565SOL    HW1 2258   2.738   2.875   2.557 -2.7236 -1.5749 -1.3702
  565SOL    HW2 2259   2.727   2.730   2.576 -1.9149  1.4817 -0.7894
  565SOL     MW 2260   2.747   2.803   2.606 -0.3383 -0.3002 -0.3304
  566SOL     OW 2261   2.184   1.931   2.378  0.2382 -0.0057 -0.2148
  566SOL    HW1 2262   2.192   1.859   2.309 -0.6945 -2.4145 -0.2194
  566SOL    HW2 2263   2.257   1.987   2.357 -1.1803 -3.0843  1.7908
  566SOL     MW 2264   2.194   1.929   2.366 -0.0720 -0.7297  0.0492
  567SOL     OW 2265   1.171   3.045   0.005  0.5204 -0.4268  0.2225
  567SOL    HW1 2266   1.134   3.050   0.093 -0.5622 -3.0859 -1.2859
  567SOL    HW2 2267   1.233   2.968   0.011 -1.5405 -1.7702 -0.5510
  567SOL     MW 2268   1.175   3.035   0.017  0.1056 -0.9549 -0.0786
  568SOL     OW 2269   1.646   2.035   2.862 -0.5496  0.0553  0.1121
  568SOL    HW1 2270   1.693   2.096   2.918  1.2301  1.9963 -0.3064
  568SOL    HW2 2271   1.713   2.007   2.797  0.5564 -0.7918  1.6826
  568SOL     MW 2272   1.661   2.040   2.861 -0.1689  0.1996  0.2641
  569SOL     OW 2273   0.126   2.242   2.418 -0.2774 -0.0577 -0.5227
  569SOL    HW1 2274   0.054   2.287   2.377  2.9539  0.5184 -0.7364
  569SOL    HW2 2275   0.166   2.309   2.477 -0.2665 -0.4936  0.6539
  569SOL     MW 2276   0.122   2.257   2.420  0.1504 -0.0392 -0.3957
  570SOL     OW 2277   1.499   0.310   0.457  0.5206  0.3589  0.1929
  570SOL    HW1 2278   1.424   0.337   0.518 -0.6921  1.3184 -1.1502
  570SOL    HW2 2279   1.583   0.335   0.511 -0.0869  0.4243 -1.0769
  570SOL     MW 2280   1.500   0.317   0.472  0.2804  0.4942 -0.1518
  571SOL     OW 2281   1.349   2.362   2.133 -0.0591 -0.2401 -0.1105
  571SOL    HW1 2282   1.379   2.382   2.223  0.0508  1.1242  0.8115
  571SOL    HW2 2283   1.434   2.346   2.088 -2.4378 -2.1543 -0.9364
  571SOL     MW 2284   1.364   2.362   2.139 -0.3585 -0.3127 -0.0978
  572SOL     OW 2285   1.107   2.595   0.104 -0.4094  0.2034 -0.1582
  572SOL    HW1 2286   1.075   2.672   0.071  2.6723 -2.9691  0.6275
  572SOL    HW2 2287   1.013   2.561   0.132 -0.1472  0.8377  1.6959
  572SOL     MW 2288   1.090   2.601   0.103  0.0318 -0.1315  0.1901
  573SOL     OW 2289   1.206   2.303   0.292 -0.1772  0.2066  0.1804
  573SOL    HW1 2290   1.280   2.312   0.228  1.8205 -1.7294 -0.2525
  573SOL    HW2 2291   1.203   2.395   0.323  0.9645  0.9627  1.3270
  573SOL     MW 2292   1.216   2.316   0.288  0.2370  0.0509  0.2746
  574SOL     OW 2293   1.165   2.577   0.374  0.6685  0.2219 -0.2282
  574SOL    HW1 2294   1.242   2.636   0.372 -0.4304  1.2370  1.1888
  574SOL    HW2 2295   1.124   2.601   0.295  0.3991  0.9437 -0.3642
  574SOL     MW 2296   1.170   2.588   0.363  0.4879  0.4510 -0.0592
  575SOL     OW 2297   3.083   2.219   1.660  0.2991 -0.1347  1.0742
  575SOL    HW1 2298   3.117   2.132   1.633  1.2079 -0.9030  2.8811
  575SOL    HW2 2299   3.158   2.271   1.693  0.0361 -0.1605  1.3864
  575SOL     MW 2300   3.097   2.215   1.661  0.3843 -0.2395  1.3538
  576SOL     OW 2301   2.922   1.859   1.916 -0.3099 -0.3543 -0.2504
  576SOL    HW1 2302   2.941   1.941   1.877  1.9201 -1.2996 -1.4344
  576SOL    HW2 2303   2.854   1.838   1.848 -1.7857  1.0481  1.4162
  576SOL     MW 2304   2.915   1.867   1.902 -0.2104 -0.2940 -0.1867
  577SOL     OW 2305   2.146   0.162   0.038  0.1660  0.2568  0.2978
  577SOL    HW1 2306   2.103   0.137  -0.042 -0.1673  0.1637  2.6078
  577SOL    HW2 2307   2.106   0.111   0.111 -0.0684  0.5613  3.6840
  577SOL     MW 2308   2.135   0.152   0.037  0.0911  0.2847  1.0493
  578SOL     OW 2309   1.985   2.118   2.354 -0.1186 -0.2551  0.6181
  578SOL    HW1 2310   1.921   2.086   2.287 -0.1079  0.8585 -2.6166
  578SOL    HW2 2311   2.066   2.054   2.347  1.9486 -0.3934 -2.2056
  578SOL     MW 2312   1.987   2.105   2.344  0.1555 -0.1264 -0.1812
  579SOL     OW 2313   0.863   2.486   2.470  0.2183 -0.9050 -0.4987
  579SOL    HW1 2314   0.918   2.417   2.489  2.5888  1.3369 -2.0651
  579SOL    HW2 2315   0.906   2.546   2.411 -1.7417 -2.3075 -1.4072
  579SOL     MW 2316   0.876   2.485   2.465  0.2725 -0.7943 -0.8252
  580SOL     OW 2317   1.000   2.824   3.095  0.2005 -0.6885  0.2397
  580SOL    HW1 2318   1.089   2.854   3.073 -0.1434 -1.0582 -3.2896
  580SOL    HW2 2319   0.931   2.834   3.016 -0.7729 -0.4596  0.7425
  580SOL     MW 2320   1.002   2.829   3.081  0.0267 -0.7070 -0.1596
  581SOL     OW 2321   1.094   2.471   1.766 -0.2290 -0.2106 -0.6782
  581SOL    HW1 2322   1.165   2.507   1.823  0.2924  2.6980 -1.7204
  581SOL    HW2 2323   1.144   2.412   1.710  2.0930  1.1400 -0.5110
  581SOL     MW 2324   1.110   2.468   1.766  0.1462  0.3514 -0.7937
  582SOL     OW 2325   0.002   2.954   2.655 -0.0892 -0.5932 -0.4404
  582SOL    HW1 2326  -0.059   2.946   2.733 -0.3906  0.6203  2.4873
  582SOL    HW2 2327   0.081   2.991   2.688 -2.0588  0.1081 -1.5140
  582SOL     MW 2328   0.004   2.958   2.670 -0.3889 -0.3405 -0.1958
  583SOL     OW 2329   1.940   2.399   2.676  0.5945  0.1761  0.2663
  583SOL    HW1 2330   1.995   2.417   2.599  1.5465  0.4889  0.0954
  583SOL    HW2 2331   1.931   2.302   2.665 -0.0933 -2.1806  0.6798
  583SOL     MW 2332   1.946   2.389   2.664  0.6294 -0.0935  0.2983
  584SOL     OW 2333   0.186   1.883   2.191  0.0180 -0.2933 -0.2506
  584SOL    HW1 2334   0.180   1.897   2.289  3.9503  0.4888  1.7357
  584SOL    HW2 2335   0.278   1.867   2.185 -2.8819 -2.0640  0.0611
  584SOL     MW 2336   0.197   1.883   2.203  0.1542 -0.4238  0.0526
  585SOL     OW 2337   1.536   2.656   0.163  0.4319 -0.8701  0.3432
  585SOL    HW1 2338   1.490   2.619   0.084 -0.1387 -0.1150  0.5767
  585SOL    HW2 2339   1.468   2.697   0.223  1.9057 -0.4912 -2.0601
  585SOL     MW 2340   1.521   2.657   0.160  0.5511 -0.7205  0.0569
  586SOL     OW 2341   1.347   2.771   2.584 -0.1697 -0.2262 -0.1139
  586SOL    HW1 2342   1.391   2.762   2.499 -1.3497 -1.4038  3.4446
  586SOL    HW2 2343   1.340   2.870   2.593  0.9165  0.4169 -1.9550
  586SOL     MW 2344   1.352   2.783   2.574 -0.1821 -0.2967  0.1127
  587SOL     OW 2345   1.268   1.488   2.156 -0.4273  0.6897 -0.0613
  587SOL    HW1 2346   1.301   1.403   2.178  0.2008  1.4672  2.0882
  587SOL    HW2 2347   1.249   1.485   2.065 -0.1565  1.1730  1.5097
  587SOL     MW 2348   1.270   1.476   2.147 -0.3087  0.8560  0.4296
  588SOL     OW 2349   1.311   2.037   2.668 -0.5648  0.3455 -0.7352
  588SOL    HW1 2350   1.329   1.948   2.700  2.2983 -0.3914  0.1470
  588SOL    HW2 2351   1.269   2.085   2.742  2.5613 -0.3272  0.3595
  588SOL     MW 2352   1.308   2.032   2.682  0.2254  0.1595 -0.4744
  589SOL     OW 2353   1.362   2.055   0.034 -0.1815  0.5463  0.3210
  589SOL    HW1 2354   1.396   2.143   0.064  3.1579 -2.2590  1.1496
  589SOL    HW2 2355   1.340   2.008   0.117 -1.1494 -3.4406  1.0060
  589SOL     MW 2356   1.363   2.060   0.049  0.1314 -0.3499  0.5207
  590SOL     OW 2357   0.475   2.664   2.235 -0.2039  0.4042  0.0139
  590SOL    HW1 2358   0.474   2.679   2.132  0.3223  0.4798 -1.1524
  590SOL    HW2 2359   0.549   2.719   2.275  0.5238  0.7948  1.4527
  590SOL     MW 2360   0.485   2.673   2.227 -0.0385  0.4657  0.0498
  591SOL     OW 2361   2.199   0.687   0.163  0.0437  0.1456  0.1481
  591SOL    HW1 2362   2.128   0.710   0.222  2.6507 -2.0583 -0.3906
  591SOL    HW2 2363   2.181   0.742   0.090  0.7694 -1.7422  0.5162
  591SOL     MW 2364   2.188   0.697   0.161  0.4834 -0.3943  0.1256
  592SOL     OW 2365   1.632   2.902   0.731 -0.3787  0.3035 -0.4344
  592SOL    HW1 2366   1.600   2.992   0.740  1.2220 -0.2035 -1.0219
  592SOL    HW2 2367   1.712   2.895   0.785  1.8294 -0.5102 -0.7305
  592SOL     MW 2368   1.639   2.913   0.739  0.1238  0.1293 -0.5510
  593SOL     OW 2369   1.935   0.742   0.709 -0.2345  0.3657 -0.8078
  593SOL    HW1 2370   1.867   0.698   0.656  0.5004  0.6236  1.9557
  593SOL    HW2 2371   1.988   0.667   0.734 -0.2065 -0.2705  0.2420
  593SOL     MW 2372   1.933   0.727   0.705 -0.1338  0.3158 -0.3047
  594SOL     OW 2373   2.827   1.057   1.355  0.3573  0.7237  0.6667
  594SOL    HW1 2374   2.910   1.112   1.341  1.4729  2.6810 -1.2242
  594SOL    HW2 2375   2.762   1.082   1.284 -0.8587  2.0682 -1.7358
  594SOL     MW 2376   2.829   1.067   1.344  0.3441  1.1593  0.1002
  595SOL     OW 2377   0.548   0.946   0.848  0.1867 -0.1948  0.0206
  595SOL    HW1 2378   0.517   1.004   0.774 -0.1485 -1.0658 -0.2464
  595SOL    HW2 2379   0.602   1.008   0.908 -1.6075  1.0117 -1.1403
  595SOL     MW 2380   0.551   0.962   0.846 -0.0943 -0.1505 -0.1678
  596SOL     OW 2381   2.451   1.350   0.497 -0.1093 -0.4491  0.2197
  596SOL    HW1 2382   2.456   1.429   0.447 -0.5472 -1.4345  2.9520
  596SOL    HW2 2383   2.480   1.389   0.579 -0.2368  0.8813 -1.1029
  596SOL     MW 2384   2.455   1.365   0.501 -0.1839 -0.4036  0.4057
  597SOL     OW 2385   2.234   0.671   1.625  0.2468  0.1810  0.9474
  597SOL    HW1 2386   2.254   0.602   1.696  1.0539 -0.1596  2.1601
  597SOL    HW2 2387   2.168   0.626   1.564  1.1762  3.6634  3.0437
  597SOL     MW 2388   2.228   0.656   1.626  0.4759  0.5955  1.3840
  598SOL     OW 2389   2.581   1.011   2.872 -0.1560 -0.4940 -0.3799
  598SOL    HW1 2390   2.577   0.916   2.878  0.1244 -0.3905 -2.1959
  598SOL    HW2 2391   2.668   1.040   2.850  0.8414  0.7482  1.2019
  598SOL     MW 2392   2.592   1.002   2.870  0.0126 -0.3165 -0.4108
  599SOL     OW 2393   3.012   0.516   2.234 -0.6197  0.4460 -0.4730
  599SOL    HW1 2394   3.086   0.553   2.291  1.3324  1.7825  2.3262
  599SOL    HW2 2395   3.031   0.532   2.132  0.2302  1.0654 -0.5821
  599SOL     MW 2396   3.024   0.523   2.228 -0.2500  0.7040 -0.1181
  600SOL     OW 2397   1.833   1.691   0.822  0.0747 -0.0902 -0.2530
  600SOL    HW1 2398   1.866   1.749   0.894 -0.7724 -0.9222  0.8270
  600SOL    HW2 2399   1.749   1.723   0.796  0.3463 -2.1565 -0.3367
  600SOL     MW 2400   1.827   1.703   0.828 -0.0012 -0.4726 -0.1216
  601SOL     OW 2401   2.536   0.764   0.854  0.0074  0.0051 -0.2034
  601SOL    HW1 2402   2.549   0.745   0.950  0.5869  1.4363 -1.9089
  601SOL    HW2 2403   2.507   0.681   0.806  0.7199  0.2564 -2.9043
  601SOL     MW 2404   2.534   0.751   0.860  0.1779  0.2271 -0.7848
  602SOL     OW 2405   2.245   1.947   0.767 -0.3577  0.7885 -0.2170
  602SOL    HW1 2406   2.177   1.877   0.748 -0.9352 -2.6639 -1.4688
  602SOL    HW2 2407   2.204   2.033   0.734 -0.4925 -0.4612  4.1179
  602SOL     MW 2408   2.230   1.949   0.760 -0.4517  0.1681  0.1898
  603SOL     OW 2409   3.022   1.346   1.977  0.6536 -0.5126  0.1581
  603SOL    HW1 2410   2.986   1.407   2.039 -1.0851  0.7600  1.1620
  603SOL    HW2 2411   3.058   1.272   2.034  0.6258 -2.4346  2.7414
  603SOL     MW 2412   3.022   1.345   1.993  0.4205 -0.5983  0.6314
  604SOL     OW 2413   2.019   1.384   0.344 -0.0846  0.1396  0.1844
  604SOL    HW1 2414   2.068   1.326   0.403 -0.0008  1.4118  2.0216
  604SOL    HW2 2415   1.958   1.431   0.400  0.0617 -2.0454  1.3176
  604SOL     MW 2416   2.018   1.383   0.359 -0.0543  0.0191  0.5763
  605SOL     OW 2417   2.436   1.446   0.785  0.0850 -0.2070 -0.1208
  605SOL    HW1 2418   2.413   1.500   0.710 -2.4042 -1.3962 -0.1064
  605SOL    HW2 2419   2.499   1.379   0.757  1.2940  1.3810 -1.9075
  605SOL     MW 2420   2.441   1.445   0.772 -0.0839 -0.1544 -0.3546
  606SOL     OW 2421   2.688   1.779   1.781  0.0969  0.3067 -0.1564
  606SOL    HW1 2422   2.599   1.797   1.758 -0.0128  0.3127 -3.1782
  606SOL    HW2 2423   2.691   1.688   1.788 -0.6544  2.4576  3.1324
  606SOL     MW 2424   2.677   1.770   1.779 -0.0167  0.5913 -0.1212
  607SOL     OW 2425   2.397   1.003   3.086 -0.1499  0.6428  0.2610
  607SOL    HW1 2426   2.464   1.032   3.015  0.5010 -2.2712 -0.7620
  607SOL    HW2 2427   2.407   1.048   3.166  0.4748 -1.0107 -0.8883
  607SOL     MW 2428   2.407   1.013   3.087  0.0184  0.0402 -0.0256
  608SOL     OW 2429   1.916   0.254   0.454  0.0959 -0.1266 -0.5644
  608SOL    HW1 2430   1.904   0.309   0.370 -1.3014 -1.2049  0.1663
  608SOL    HW2 2431   1.887   0.161   0.443 -1.3194  0.0900 -0.9257
  608SOL     MW 2432   1.911   0.249   0.441 -0.2752 -0.2403 -0.5156
  609SOL     OW 2433   2.097   1.891   3.086 -0.6596  0.1613 -0.1052
  609SOL    HW1 2434   2.052   1.831   3.024  2.5851  0.7414 -1.0880
  609SOL    HW2 2435   2.075   1.862   3.175 -0.0938  1.0851 -0.3111
  609SOL     MW 2436   2.088   1.879   3.090 -0.1568  0.3597 -0.2621
  610SOL     OW 2437   1.796   0.974   1.234 -0.2657  0.0320  0.7201
  610SOL    HW1 2438   1.789   0.899   1.170 -2.5915 -2.5176 -2.0946
  610SOL    HW2 2439   1.705   1.015   1.252  0.3583  0.9334  1.7646
  610SOL     MW 2440   1.783   0.969   1.228 -0.4902 -0.1855  0.4865
  611SOL     OW 2441   2.478   1.657   0.580 -0.2125  0.3382 -0.3479
  611SOL    HW1 2442   2.456   1.637   0.488 -0.2639 -0.7406  0.7402
  611SOL    HW2 2443   2.490   1.753   0.583 -0.3159  3.4726 -3.3687
  611SOL     MW 2444   2.477   1.667   0.568 -0.2329  0.6094 -0.6029
  612SOL     OW 2445   2.894   2.854   0.401  0.4621 -0.4071 -0.0805
  612SOL    HW1 2446   2.942   2.892   0.474 -2.9673 -1.4629 -0.8239
  612SOL    HW2 2447   2.971   2.837   0.342 -0.3321  0.3574 -0.2849
  612SOL     MW 2448   2.910   2.857   0.403 -0.0952 -0.4455 -0.2055
  613SOL     OW 2449   1.438   1.139   0.946  0.1738  0.3643 -0.7049
  613SOL    HW1 2450   1.451   1.233   0.942  3.1784  0.3895  0.4039
  613SOL    HW2 2451   1.466   1.116   1.040  0.6527  1.8716 -0.8799
  613SOL     MW 2452   1.444   1.148   0.958  0.6334  0.5665 -0.5817
  614SOL     OW 2453   2.065   0.493   1.439  0.1046  0.6544 -0.0903
  614SOL    HW1 2454   2.055   0.458   1.526  1.0242 -0.9207 -0.6751
  614SOL    HW2 2455   1.971   0.509   1.402 -0.5252 -0.1636 -1.5224
  614SOL     MW 2456   2.051   0.491   1.445  0.1428  0.3386 -0.3564
  615SOL     OW 2457   2.406   0.731   0.336  0.3428  0.3331  0.1853
  615SOL    HW1 2458   2.483   0.670   0.327 -0.0263  1.8884  2.6987
  615SOL    HW2 2459   2.331   0.709   0.277 -1.8112  1.6437  2.2318
  615SOL     MW 2460   2.406   0.720   0.327  0.0099  0.7112  0.7870
  616SOL     OW 2461   2.576   0.384   1.647 -0.2020 -0.0373 -0.0263
  616SOL    HW1 2462   2.578   0.313   1.584 -1.2166  1.2106  1.5234
  616SOL    HW2 2463   2.574   0.460   1.585 -1.2119 -1.6229 -1.6080
  616SOL     MW 2464   2.576   0.385   1.631 -0.4691 -0.0818 -0.0305
  617SOL     OW 2465   2.803   0.566   1.828 -0.2691 -0.2850 -0.7410
  617SOL    HW1 2466   2.712   0.558   1.845  1.9661  1.3053 -1.1324
  617SOL    HW2 2467   2.834   0.475   1.796 -0.0671  1.9250 -0.7126
  617SOL     MW 2468   2.795   0.553   1.826  0.0524  0.2164 -0.7889
  618SOL     OW 2469   2.817   0.210   1.993  0.4082 -0.2605 -0.1987
  618SOL    HW1 2470   2.751   0.229   2.063  3.8028 -1.6263  2.2306
  618SOL    HW2 2471   2.906   0.207   2.033 -0.2497 -2.1401  0.1945
  618SOL     MW 2472   2.820   0.212   2.008  0.7693 -0.6887  0.1737
  619SOL     OW 2473   2.727   0.727   0.051 -0.0438 -0.3517 -0.3662
  619SOL    HW1 2474   2.755   0.816   0.051 -0.8535 -0.9279  0.7625
  619SOL    HW2 2475   2.761   0.695   0.132 -0.7361 -0.0445 -2.6829
  619SOL     MW 2476   2.735   0.734   0.062 -0.2420 -0.3872 -0.5229
  620SOL     OW 2477   2.229   1.013   0.912  0.1464 -0.0238 -0.4135
  620SOL    HW1 2478   2.298   1.021   0.844 -1.7070 -1.4252 -0.7350
  620SOL    HW2 2479   2.148   1.019   0.863 -1.7071  2.0896  3.0603
  620SOL     MW 2480   2.228   1.015   0.897 -0.3427  0.0701  0.0024
  621SOL     OW 2481   1.515   2.187   1.975 -0.1512 -0.3542  0.5181
  621SOL    HW1 2482   1.451   2.138   2.022  1.3588  1.5123  0.5712
  621SOL    HW2 2483   1.602   2.155   2.002 -2.5504 -1.6538  0.8777
  621SOL     MW 2484   1.518   2.176   1.985 -0.2685 -0.2794  0.5726
  622SOL     OW 2485   2.648   0.280   0.192 -0.1331  0.2935 -0.2383
  622SOL    HW1 2486   2.737   0.301   0.227 -3.3607  0.8138 -0.2150
  622SOL    HW2 2487   2.650   0.181   0.181  0.9780  0.3593 -0.6551
  622SOL     MW 2488   2.660   0.269   0.196 -0.4123  0.3708 -0.2902
  623SOL     OW 2489   2.345   2.789   0.801  0.3978  0.1725  0.1910
  623SOL    HW1 2490   2.408   2.855   0.777 -0.3927  0.0679  3.3145
  623SOL    HW2 2491   2.339   2.797   0.902  1.1557  2.3074 -0.6445
  623SOL     MW 2492   2.352   2.799   0.811  0.3935  0.4404  0.4929
  624SOL     OW 2493   2.134   1.582   3.016 -0.0844  0.2786  0.1084
  624SOL    HW1 2494   2.063   1.519   2.997 -1.3440 -0.8414 -0.1433
  624SOL    HW2 2495   2.148   1.580   3.109  1.5288 -2.2256 -3.2633
  624SOL     MW 2496   2.127   1.573   3.026 -0.0377 -0.1996 -0.3696
  625SOL     OW 2497   2.139   1.946   1.038 -0.2834 -0.0424  0.0971
  625SOL    HW1 2498   2.187   1.874   1.082  0.4308 -0.3735 -0.1144
  625SOL    HW2 2499   2.168   1.936   0.947 -2.9262  0.9274 -2.3026
  625SOL     MW 2500   2.150   1.935   1.032 -0.5378  0.0419 -0.2474
  626SOL     OW 2501   0.117   1.845   2.469 -0.2583 -0.1466 -0.0783
  626SOL    HW1 2502   0.077   1.750   2.478  0.7976 -3.5187  1.9067
  626SOL    HW2 2503   0.043   1.899   2.499 -1.9722  2.8791  0.3316
  626SOL     MW 2504   0.102   1.840   2.474 -0.3451 -0.1923  0.2377
  627SOL     OW 2505   2.603   0.798   2.609  0.3500  0.7050 -0.3720
  627SOL    HW1 2506   2.514   0.838   2.593 -0.0700  1.9834 -1.1135
  627SOL    HW2 2507   2.629   0.760   2.527 -0.7015 -2.3449  0.6123
  627SOL     MW 2508   2.595   0.798   2.596  0.1558  0.4713 -0.3400
  628SOL     OW 2509   2.334   1.374   1.273 -0.0875 -0.4459 -0.1520
  628SOL    HW1 2510   2.298   1.303   1.221  3.3989 -0.9384 -0.7906
  628SOL    HW2 2511   2.420   1.342   1.301 -0.1914  1.9564  0.3083
  628SOL     MW 2512   2.340   1.360   1.270  0.3588 -0.1939 -0.1755
  629SOL     OW 2513   1.848   0.605   1.320 -0.1159 -0.4992 -0.2867
  629SOL    HW1 2514   1.904   0.649   1.255 -0.1719  0.8607  0.4153
  629SOL    HW2 2515   1.771   0.586   1.265 -0.0962  1.4592 -2.0320
  629SOL     MW 2516   1.845   0.608   1.304 -0.1207 -0.0613 -0.4243
  630SOL     OW 2517   2.389   1.947   3.063 -0.7172  0.3615 -0.2400
  630SOL    HW1 2518   2.417   2.010   2.992  1.1041  1.6167 -1.7215
  630SOL    HW2 2519   2.294   1.937   3.065  1.0403  0.6855 -0.6483
  630SOL     MW 2520   2.380   1.954   3.054 -0.2450  0.5699 -0.4893
  631SOL     OW 2521   2.094   1.871   1.476 -0.0494  0.3690 -0.0317
  631SOL    HW1 2522   2.060   1.806   1.540 -0.3746  1.0525 -0.8336
  631SOL    HW2 2523   2.026   1.936   1.467 -0.2914  0.7091 -1.0264
  631SOL     MW 2524   2.081   1.871   1.483 -0.1242  0.5041 -0.2687
  632SOL     OW 2525   0.388   1.888   1.488  0.1481  0.4107  0.4355
  632SOL    HW1 2526   0.333   1.963   1.473 -0.8864 -2.1646  1.9154
  632SOL    HW2 2527   0.330   1.805   1.498 -1.2405 -2.0061  0.9021
  632SOL     MW 2528   0.373   1.887   1.487 -0.1716 -0.2480  0.6923
  633SOL     OW 2529   2.617   0.576   0.363  0.0989  0.2954 -0.1149
  633SOL    HW1 2530   2.687   0.580   0.424 -1.4319  2.1152  0.8280
  633SOL    HW2 2531   2.580   0.488   0.357  0.2492  2.1622  0.2991
  633SOL     MW 2532   2.621   0.565   0.370 -0.0832  0.7818  0.0641
  634SOL     OW 2533   2.708   3.088   0.624  0.2225  0.4004  0.5402
  634SOL    HW1 2534   2.723   3.179   0.615  3.1720 -0.9180  0.9311
  634SOL    HW2 2535   2.681   3.064   0.536  0.1532  1.5040 -0.3149
  634SOL     MW 2536   2.706   3.097   0.611  0.6025  0.3720  0.4790
  635SOL     OW 2537   2.662   0.069   1.840  0.1208  0.3260 -0.4913
  635SOL    HW1 2538   2.717   0.019   1.779 -4.7962  1.1561  0.1226
  635SOL    HW2 2539   2.719   0.127   1.891 -2.1815 -0.1919 -0.2558
  635SOL     MW 2540   2.677   0.070   1.839 -0.8317  0.3672 -0.3792
  636SOL     OW 2541   2.692   1.637   0.750  0.1807 -0.1586 -0.0108
  636SOL    HW1 2542   2.618   1.611   0.699  1.2474  0.5592 -3.1286
  636SOL    HW2 2543   2.671   1.729   0.754 -0.8061 -1.6115 -0.9992
  636SOL     MW 2544   2.680   1.646   0.744  0.1912 -0.2556 -0.5526
  637SOL     OW 2545   2.941   1.435   0.714  0.4339 -0.2993 -0.1182
  637SOL    HW1 2546   2.983   1.521   0.735 -0.2112  1.6649 -1.3331
  637SOL    HW2 2547   2.847   1.454   0.714  1.2774 -0.3302 -1.3530
  637SOL     MW 2548   2.934   1.449   0.716  0.4601 -0.0442 -0.4414
  638SOL     OW 2549   2.827   0.532   0.556  0.2862 -0.2297 -0.0716
  638SOL    HW1 2550   2.905   0.582   0.538 -1.3624 -0.2291  3.4298
  638SOL    HW2 2551   2.802   0.574   0.639  0.1592  0.6206 -0.4363
  638SOL     MW 2552   2.834   0.544   0.565  0.0520 -0.1174  0.3422
  639SOL     OW 2553   1.823   3.083   0.526 -0.1878 -0.0180 -0.3363
  639SOL    HW1 2554   1.742   3.086   0.577  3.7070  2.0826 -1.2012
  639SOL    HW2 2555   1.838   2.999   0.482 -2.4356 -0.1149 -0.9738
  639SOL     MW 2556   1.815   3.072   0.527  0.0295  0.2464 -0.5345
  640SOL     OW 2557   0.289   1.443   0.126  0.1881 -0.4052  0.4166
  640SOL    HW1 2558   0.338   1.472   0.048 -0.8476  1.2984 -1.4061
  640SOL    HW2 2559   0.331   1.360   0.153  2.1632  2.8393 -1.8497
  640SOL     MW 2560   0.301   1.436   0.120  0.3121  0.2477 -0.1229
  641SOL     OW 2561   2.321   0.374   0.389  0.5919  0.7733  0.0362
  641SOL    HW1 2562   2.317   0.304   0.320 -1.9523 -0.7263  2.1807
  641SOL    HW2 2563   2.353   0.325   0.466  0.2100  1.2807  3.4803
  641SOL     MW 2564   2.325   0.358   0.390  0.2058  0.6424  0.7736
  642SOL     OW 2565   0.123   3.065   0.470  0.1876 -0.3035 -0.1410
  642SOL    HW1 2566   0.070   3.148   0.455 -1.8785 -1.7128  1.1971
  642SOL    HW2 2567   0.070   3.012   0.529  1.1117 -2.1758 -4.4527
  642SOL     MW 2568   0.109   3.069   0.476  0.0369 -0.7365 -0.5334
  643SOL     OW 2569   2.129   0.349   1.673  0.0550 -0.4560 -0.1530
  643SOL    HW1 2570   2.036   0.326   1.701 -1.3261  0.8576 -0.2283
  643SOL    HW2 2571   2.150   0.288   1.599 -0.7069  1.1083  0.0599
  643SOL     MW 2572   2.120   0.338   1.667 -0.2278 -0.0763 -0.1348
  644SOL     OW 2573   2.702   1.907   0.944 -0.2151 -0.1486 -0.1258
  644SOL    HW1 2574   2.659   1.863   1.012  1.5692 -2.5108 -2.1691
  644SOL    HW2 2575   2.626   1.959   0.912  1.6238 -0.9890 -1.3747
  644SOL     MW 2576   2.687   1.908   0.948  0.2629 -0.5712 -0.5602
  645SOL     OW 2577   2.828   0.991   0.781  0.2300 -0.0470  0.5246
  645SOL    HW1 2578   2.922   0.974   0.781  1.3628  0.3069 -2.4613
  645SOL    HW2 2579   2.794   0.994   0.872 -0.5629 -1.9101  1.0751
  645SOL     MW 2580   2.836   0.989   0.793  0.2748 -0.2461  0.2033
  646SOL     OW 2581   0.126   2.275   0.849  0.3112  0.1754 -0.2122
  646SOL    HW1 2582   0.105   2.176   0.843 -1.1823 -4.9729 -0.9632
  646SOL    HW2 2583   0.092   2.309   0.763 -0.5733  0.7213 -1.6014
  646SOL     MW 2584   0.119   2.267   0.837 -0.0026 -0.4318 -0.4946
  647SOL     OW 2585   2.798   0.484   3.026  0.0476 -0.6178  0.0152
  647SOL    HW1 2586   2.713   0.455   3.066 -1.2335 -1.2941 -1.2700
  647SOL    HW2 2587   2.809   0.579   3.035  1.1092 -0.4801  1.3901
  647SOL     MW 2588   2.788   0.493   3.033  0.0187 -0.6889  0.0270
  648SOL     OW 2589   2.118   0.631   1.121 -0.0797 -0.0752  0.2318
  648SOL    HW1 2590   2.195   0.577   1.155  0.0868 -1.7131  0.0240
  648SOL    HW2 2591   2.135   0.719   1.154 -0.7317  0.1458 -2.7805
  648SOL     MW 2592   2.131   0.635   1.130 -0.1438 -0.2621 -0.1930
  649SOL     OW 2593   2.409   2.686   1.314 -0.6139 -0.4197 -0.2815
  649SOL    HW1 2594   2.498   2.719   1.338 -2.1536  2.5619  0.5757
  649SOL    HW2 2595   2.416   2.602   1.262  0.6289 -0.2397  1.3993
  649SOL     MW 2596   2.422   2.679   1.310 -0.6530 -0.0025  0.0534
  650SOL     OW 2597   2.729   0.249   0.516  0.7771  0.2828 -0.0391
  650SOL    HW1 2598   2.767   0.340   0.526 -0.9321  0.5559  3.5620
  650SOL    HW2 2599   2.723   0.232   0.422 -0.2347  2.1509  0.2499
  650SOL     MW 2600   2.733   0.259   0.505  0.4181  0.5653  0.4741
  651SOL     OW 2601   3.102   0.464   0.997  0.3656  0.2618 -0.2282
  651SOL    HW1 2602   3.139   0.545   0.960 -0.5104  0.2458 -1.6224
  651SOL    HW2 2603   3.010   0.497   1.021 -1.5815 -1.1673 -0.9397
  651SOL     MW 2604   3.095   0.479   0.995 -0.0069  0.0712 -0.5060
  652SOL     OW 2605   2.321   1.430   2.894  0.4620 -0.1357 -0.5392
  652SOL    HW1 2606   2.385   1.475   2.836 -2.9332 -0.0023 -2.3457
  652SOL    HW2 2607   2.265   1.503   2.924  1.2939 -1.0014 -1.8174
  652SOL     MW 2608   2.322   1.445   2.890  0.1238 -0.2324 -0.9462
  653SOL     OW 2609   1.847   0.375   0.213 -0.2049  0.1507 -0.5074
  653SOL    HW1 2610   1.830   0.278   0.201  2.1513  0.2003  0.5725
  653SOL    HW2 2611   1.864   0.413   0.127  0.6433 -1.5013  0.5562
  653SOL     MW 2612   1.847   0.367   0.200  0.2179 -0.0607 -0.2246
  654SOL     OW 2613   2.450   0.998   0.736  0.5761 -0.4023  0.4198
  654SOL    HW1 2614   2.416   0.996   0.650 -1.7810 -1.4741  1.4436
  654SOL    HW2 2615   2.494   0.910   0.759 -1.6782  0.2407 -0.8821
  654SOL     MW 2616   2.451   0.986   0.728 -0.0323 -0.4588  0.3831
  655SOL     OW 2617   2.922   0.959   0.307  0.8435 -0.1771 -0.0513
  655SOL    HW1 2618   2.873   0.985   0.382  2.2836  0.7793 -0.9344
  655SOL    HW2 2619   2.975   0.888   0.338  0.0379  0.2774  1.3466
  655SOL     MW 2620   2.923   0.953   0.321  0.9272  0.0091  0.0166
  656SOL     OW 2621   1.736   2.670   1.440 -0.6477  0.3572  0.0313
  656SOL    HW1 2622   1.799   2.738   1.428 -0.4563 -0.2921  0.2640
  656SOL    HW2 2623   1.780   2.587   1.426 -1.5673  0.2729  2.6629
  656SOL     MW 2624   1.750   2.668   1.437 -0.7438  0.2604  0.4092
  657SOL     OW 2625   0.086   1.778   1.118  0.1541 -0.2403  0.1555
  657SOL    HW1 2626   0.174   1.810   1.118 -0.5175  2.0538 -0.2352
  657SOL    HW2 2627   0.080   1.685   1.132 -1.2016  0.9229  2.4661
  657SOL     MW 2628   0.097   1.770   1.120 -0.1134  0.2158  0.4088
  658SOL     OW 2629   2.651   1.346   0.214 -0.2937 -0.1000  0.1604
  658SOL    HW1 2630   2.651   1.269   0.270 -2.7037 -1.0004 -0.6060
  658SOL    HW2 2631   2.680   1.421   0.271 -1.7980 -0.8585 -2.4906
  658SOL     MW 2632   2.655   1.345   0.229 -0.8102 -0.3189 -0.2905
  659SOL     OW 2633   2.106   1.397   1.043  0.4475  0.5282 -0.2625
  659SOL    HW1 2634   2.180   1.343   1.040 -1.3426  1.9420 -0.9070
  659SOL    HW2 2635   2.125   1.470   1.099  2.3716 -2.4195 -0.7018
  659SOL     MW 2636   2.118   1.400   1.050  0.4652  0.3258 -0.4055
  660SOL     OW 2637   2.081   1.615   1.603 -0.0440 -0.0165 -0.3112
  660SOL    HW1 2638   2.116   1.606   1.692 -1.3896 -0.7845 -1.0620
  660SOL    HW2 2639   2.007   1.550   1.587 -1.4009  0.5426 -1.9409
  660SOL     MW 2640   2.076   1.606   1.613 -0.4006 -0.0440 -0.6252
  661SOL     OW 2641   2.378   0.993   0.273 -0.2516 -0.6696  0.5401
  661SOL    HW1 2642   2.453   1.042   0.322 -0.3571  0.3904  1.0563
  661SOL    HW2 2643   2.405   0.898   0.283 -0.6201  1.0765 -0.7180
  661SOL     MW 2644   2.391   0.987   0.281 -0.3142 -0.2993  0.4422
  662SOL     OW 2645   2.506   2.990   0.786 -0.5005 -0.5386 -0.1477
  662SOL    HW1 2646   2.454   3.039   0.848  1.8594  2.5127  1.4631
  662SOL    HW2 2647   2.551   3.056   0.735  1.6159  0.6476  0.8749
  662SOL     MW 2648   2.505   3.005   0.787  0.0901  0.0205  0.1997
  663SOL     OW 2649   2.726   1.539   0.396  0.1824  0.1863  0.0820
  663SOL    HW1 2650   2.702   1.626   0.364 -0.1902 -1.6245  1.8537
  663SOL    HW2 2651   2.797   1.560   0.451  4.2184  1.0161 -1.0023
  663SOL     MW 2652   2.732   1.554   0.399  0.6657  0.0569  0.1727
  664SOL     OW 2653   2.533   1.489   1.555 -0.0161  0.2686  0.5983
  664SOL    HW1 2654   2.530   1.581   1.536  2.0703  0.3687  2.0703
  664SOL    HW2 2655   2.439   1.467   1.557  0.6037 -0.4412 -4.6782
  664SOL     MW 2656   2.520   1.498   1.553  0.3409  0.1882  0.0964
  665SOL     OW 2657   2.878   0.758   2.157 -0.1321  0.1501  0.4163
  665SOL    HW1 2658   2.864   0.794   2.069  0.4604  1.3912  0.6514
  665SOL    HW2 2659   2.951   0.695   2.160 -0.5463 -2.0303  1.6634
  665SOL     MW 2660   2.886   0.754   2.146 -0.1086  0.0262  0.6119
  666SOL     OW 2661   2.805   2.962   1.687  0.4828 -0.1875 -0.3943
  666SOL    HW1 2662   2.783   2.981   1.594 -0.9171  0.4174  1.2421
  666SOL    HW2 2663   2.743   2.887   1.712 -3.4454  0.1461  0.5999
  666SOL     MW 2664   2.794   2.955   1.678 -0.2202 -0.0637 -0.0472
  667SOL     OW 2665   2.000   2.696   1.738 -0.4087 -0.0341 -0.1344
  667SOL    HW1 2666   2.026   2.682   1.830  1.0561 -0.1099  0.9104
  667SOL    HW2 2667   2.063   2.764   1.718 -1.5202 -3.6938  0.9599
  667SOL     MW 2668   2.012   2.703   1.747 -0.3621 -0.5269  0.1479
  668SOL     OW 2669   2.769   0.617   0.815 -0.6249  0.1808 -0.2694
  668SOL    HW1 2670   2.822   0.622   0.894 -2.5123  2.7695  0.7366
  668SOL    HW2 2671   2.710   0.689   0.827 -0.1387  0.8218 -1.1013
  668SOL     MW 2672   2.768   0.627   0.827 -0.8098  0.6069 -0.2465
  669SOL     OW 2673   0.194   1.003   0.681  0.3326 -0.6392  0.2011
  669SOL    HW1 2674   0.166   1.016   0.775 -0.6895  1.1121  1.6690
  669SOL    HW2 2675   0.267   1.073   0.671 -1.0367 -0.2109  0.9822
  669SOL     MW 2676   0.200   1.014   0.692  0.0170 -0.3517  0.4979
  670SOL     OW 2677   2.909   0.336   0.250  0.1300 -0.2747 -0.3381
  670SOL    HW1 2678   2.925   0.271   0.182 -0.7654  1.5756  1.4338
  670SOL    HW2 2679   2.917   0.423   0.202  2.3661  1.1492 -1.1504
  670SOL     MW 2680   2.912   0.339   0.235  0.3069  0.1573 -0.2115
  671SOL     OW 2681   2.061   3.021   1.483  0.3387 -0.0372  0.8183
  671SOL    HW1 2682   1.993   2.989   1.421 -0.0287  1.8024  2.0273
  671SOL    HW2 2683   2.015   3.037   1.566  0.8406 -0.3610  2.9356
  671SOL     MW 2684   2.046   3.019   1.486  0.3565  0.1628  1.2572
  672SOL     OW 2685   1.795   1.798   1.300 -0.1124  0.7478 -0.1437
  672SOL    HW1 2686   1.808   1.880   1.362  1.1487  0.9488  0.1083
  672SOL    HW2 2687   1.832   1.833   1.220  1.3476  0.8186  0.6777
  672SOL     MW 2688   1.801   1.813   1.298  0.2466  0.7837 -0.0021
  673SOL     OW 2689   2.825   1.091   0.523  0.0475  0.1401  0.1435
  673SOL    HW1 2690   2.820   1.025   0.588  0.9798 -0.8187  0.6124
  673SOL    HW2 2691   2.917   1.121   0.530  0.2276  1.3004 -0.2754
  673SOL     MW 2692   2.836   1.086   0.533  0.1942  0.1667  0.1501
  674SOL     OW 2693   2.470   3.046   1.195  0.5014 -0.3940 -0.3671
  674SOL    HW1 2694   2.432   3.081   1.114  0.5329  2.1266 -0.2227
  674SOL    HW2 2695   2.436   2.960   1.201 -2.0079  2.6098  0.2503
  674SOL     MW 2696   2.460   3.039   1.185  0.1745  0.3349 -0.2666
  675SOL     OW 2697   2.998   0.840   1.046  0.4866 -0.2293 -0.6039
  675SOL    HW1 2698   3.061   0.832   1.118  2.8434  1.7354 -1.3153
  675SOL    HW2 2699   3.030   0.924   1.002  1.0414  2.0439 -0.3869
  675SOL     MW 2700   3.011   0.850   1.050  0.8708  0.3299 -0.6691
  676SOL     OW 2701   2.893   1.428   1.734  0.2586 -0.5577  0.1897
  676SOL    HW1 2702   2.875   1.352   1.679 -2.1480 -0.8722 -3.5621
  676SOL    HW2 2703   2.937   1.388   1.807  0.2759  1.7867  0.7879
  676SOL     MW 2704   2.896   1.413   1.736 -0.0567 -0.2899 -0.2264
  677SOL     OW 2705   2.485   0.719   1.874  0.8334  0.0999  0.0044
  677SOL    HW1 2706   2.436   0.642   1.846 -0.4583  0.7333  1.6354
  677SOL    HW2 2707   2.413   0.785   1.884 -4.2772 -0.8624 -1.9629
  677SOL     MW 2708   2.469   0.717   1.871 -0.0113  0.0565 -0.0400
  678SOL     OW 2709   2.379   1.566   0.324  0.4620  0.2248 -0.1096
  678SOL    HW1 2710   2.288   1.582   0.350  1.2953 -2.8538  1.4282
  678SOL    HW2 2711   2.375   1.514   0.240 -0.1175 -0.1745 -1.0670
  678SOL     MW 2712   2.366   1.561   0.317  0.4955 -0.2341 -0.0330
  679SOL     OW 2713   2.273   0.460   1.259  0.0016  0.7035 -0.5052
  679SOL    HW1 2714   2.241   0.398   1.193 -1.0984  0.0529 -1.1434
  679SOL    HW2 2715   2.208   0.465   1.328 -1.5972  1.1526 -2.4292
  679SOL     MW 2716   2.260   0.453   1.259 -0.3544  0.6769 -0.8433
  680SOL     OW 2717   2.440   0.168   1.487 -0.7865  0.1112  0.0912
  680SOL    HW1 2718   2.352   0.184   1.470  1.1785 -0.4771 -0.4023
  680SOL    HW2 2719   2.477   0.122   1.409 -1.2474  3.8942  1.1001
  680SOL     MW 2720   2.434   0.164   1.475 -0.5881  0.5327  0.1592
  681SOL     OW 2721   0.238   0.584   1.453  0.5037  0.1836  0.3038
  681SOL    HW1 2722   0.209   0.512   1.504  0.4897 -0.6559  0.6830
  681SOL    HW2 2723   0.224   0.553   1.361  0.7506  0.7294 -2.6896
  681SOL     MW 2724   0.232   0.570   1.448  0.5345  0.1449 -0.0411
  682SOL     OW 2725   3.042   2.853   1.533 -0.3395  0.1763  0.3183
  682SOL    HW1 2726   3.124   2.893   1.557 -0.6020 -4.1051 -2.3063
  682SOL    HW2 2727   2.967   2.895   1.568  1.9959 -3.3065 -0.3618
  682SOL     MW 2728   3.043   2.864   1.541 -0.0660 -0.8482 -0.1177
  683SOL     OW 2729   2.118   0.795   3.022 -0.3010  0.5901  0.1361
  683SOL    HW1 2730   2.061   0.715   3.018  2.9378 -0.0596 -0.8475
  683SOL    HW2 2731   2.076   0.876   3.063 -0.6283  2.5298 -0.9816
  683SOL     MW 2732   2.105   0.795   3.027  0.0831  0.7603 -0.1411
  684SOL     OW 2733   2.061   1.763   0.689 -0.0054  0.4248  0.4311
  684SOL    HW1 2734   2.080   1.708   0.608 -0.2373 -0.6674  1.1865
  684SOL    HW2 2735   1.977   1.726   0.722 -1.0044 -2.2449 -1.7596
  684SOL     MW 2736   2.052   1.751   0.683 -0.1678 -0.0716  0.2418
  685SOL     OW 2737   2.629   1.748   1.170 -0.1209 -0.0404  0.2759
  685SOL    HW1 2738   2.636   1.730   1.264  1.0620  2.0523  0.2679
  685SOL    HW2 2739   2.592   1.668   1.137 -2.4726 -0.9781 -2.0176
  685SOL     MW 2740   2.625   1.735   1.178 -0.2751  0.1120 -0.0278
  686SOL     OW 2741   2.824   0.649   1.534  0.4356  0.4060 -0.4337
  686SOL    HW1 2742   2.807   0.617   1.623  0.6530 -0.1181  1.8568
  686SOL    HW2 2743   2.915   0.686   1.539  1.2314 -0.5960 -1.7384
  686SOL     MW 2744   2.834   0.649   1.547  0.5693  0.2046 -0.3036
  687SOL     OW 2745   2.162   0.211   1.093  0.5269  0.5838  0.6314
  687SOL    HW1 2746   2.206   0.148   1.042 -1.5102 -1.4234 -0.3767
  687SOL    HW2 2747   2.120   0.283   1.044  1.6695  0.1968 -0.8423
  687SOL     MW 2748   2.162   0.212   1.080  0.4089  0.2679  0.3039
  688SOL     OW 2749   2.477   0.592   1.492  0.0313 -0.3595  0.3744
  688SOL    HW1 2750   2.439   0.550   1.413  0.2929 -0.6666  1.5857
  688SOL    HW2 2751   2.398   0.621   1.539 -0.5564  0.7784  1.1124
  688SOL     MW 2752   2.462   0.590   1.488 -0.0117 -0.2499  0.6316
  689SOL     OW 2753   2.499   0.747   3.015 -0.0800  0.5715  0.2128
  689SOL    HW1 2754   2.459   0.831   3.043 -0.2498 -0.2700 -0.0120
  689SOL    HW2 2755   2.571   0.742   3.079  1.9789 -2.4240  0.7587
  689SOL     MW 2756   2.503   0.758   3.027  0.1692  0.0653  0.2551
  690SOL     OW 2757   2.021   0.971   1.833  0.3655 -0.1949  0.3120
  690SOL    HW1 2758   2.027   0.877   1.853  2.2296 -0.4819 -2.6964
  690SOL    HW2 2759   2.093   0.991   1.767  1.3564  0.0692 -2.1257
  690SOL     MW 2760   2.031   0.962   1.827  0.7422 -0.1979 -0.4066
  691SOL     OW 2761   2.427   0.301   0.886  0.0970 -0.1727  0.3865
  691SOL    HW1 2762   2.516   0.292   0.920  0.7597 -2.6923 -1.0549
  691SOL    HW2 2763   2.415   0.387   0.851  0.4489 -3.0770  1.5547
  691SOL     MW 2764   2.437   0.311   0.886  0.2308 -0.8883  0.3505
  692SOL     OW 2765   2.757   1.637   1.383  0.2417 -0.1393 -0.4865
  692SOL    HW1 2766   2.691   1.620   1.448 -0.3837  3.7642  2.2897
  692SOL    HW2 2767   2.819   1.701   1.418 -2.0319  1.2147  1.3284
  692SOL     MW 2768   2.757   1.644   1.397 -0.1408  0.5544  0.1192
  693SOL     OW 2769   2.227   0.434   3.086 -0.5481 -0.6784 -0.1831
  693SOL    HW1 2770   2.192   0.353   3.116  0.4100 -3.8956  0.7536
  693SOL    HW2 2771   2.197   0.501   3.145 -2.7771  0.2873 -2.3794
  693SOL     MW 2772   2.218   0.433   3.098 -0.7158 -0.9755 -0.3493
  694SOL     OW 2773   1.968   1.189   1.186  0.4189 -0.0358 -0.0261
  694SOL    HW1 2774   2.062   1.161   1.201  1.4447 -1.4155  1.1213
  694SOL    HW2 2775   1.915   1.106   1.198 -1.1131 -1.0694 -1.5082
  694SOL     MW 2776   1.974   1.175   1.190  0.3521 -0.3542 -0.0703
  695SOL     OW 2777   2.925   1.438   1.305 -0.4468  0.5170  0.6373
  695SOL    HW1 2778   2.921   1.431   1.206  0.8742 -1.8587 -0.5935
  695SOL    HW2 2779   2.879   1.519   1.326  0.0372 -2.4895  0.5349
  695SOL     MW 2780   2.918   1.448   1.295 -0.2087 -0.1931  0.4614
  696SOL     OW 2781   2.043   1.348   0.752 -0.2382 -0.9320  0.0665
  696SOL    HW1 2782   2.078   1.379   0.836  0.4204  1.1023  1.2581
  696SOL    HW2 2783   1.985   1.281   0.791  0.7599 -2.4584 -0.2766
  696SOL     MW 2784   2.040   1.343   0.768 -0.0196 -0.8650  0.1785
  697SOL     OW 2785   2.929   1.046   2.239  0.4369 -0.2208  0.5392
  697SOL    HW1 2786   2.857   1.108   2.245 -1.0795  1.5570 -1.4249
  697SOL    HW2 2787   2.879   0.960   2.230 -1.3408  0.5867  1.2236
  697SOL     MW 2788   2.913   1.043   2.239  0.0023  0.1203  0.3703
  698SOL     OW 2789   2.503   0.376   3.064 -0.6688 -0.6016 -0.0540
  698SOL    HW1 2790   2.423   0.437   3.065  2.9452  0.3703 -0.4391
  698SOL    HW2 2791   2.525   0.351   3.150 -0.2140 -1.6696 -1.2696
  698SOL     MW 2792   2.495   0.380   3.075 -0.1320 -0.6143 -0.2652
  699SOL     OW 2793   1.858   1.569   1.990 -0.3150  0.0619 -0.1461
  699SOL    HW1 2794   1.829   1.500   2.055 -3.1716 -0.3978 -0.9968
  699SOL    HW2 2795   1.941   1.543   1.952  0.4204  0.0910  0.2557
  699SOL     MW 2796   1.865   1.557   1.993 -0.5949  0.0051 -0.2053
  700SOL     OW 2797   2.712   0.894   1.577  0.1569 -0.2330 -0.5991
  700SOL    HW1 2798   2.797   0.936   1.588  2.2858  1.2013  1.6302
  700SOL    HW2 2799   2.738   0.805   1.552  0.2273 -0.7858 -1.1219
  700SOL     MW 2800   2.727   0.888   1.575  0.4470 -0.1167 -0.3739
  701SOL     OW 2801   1.627   1.064   2.582 -0.3130 -0.3392 -0.3597
  701SOL    HW1 2802   1.712   1.031   2.617  2.0753  0.8512  0.1405
  701SOL    HW2 2803   1.609   1.141   2.646  0.8886 -1.4325 -2.4527
  701SOL     MW 2804   1.636   1.070   2.595  0.1607 -0.3264 -0.5698
  702SOL     OW 2805   2.074   0.494   0.691  0.1447  0.0093  0.2531
  702SOL    HW1 2806   2.076   0.392   0.676 -0.1803  1.3602 -0.6052
  702SOL    HW2 2807   2.156   0.525   0.644  0.1960  2.6111  1.8731
  702SOL     MW 2808   2.085   0.485   0.683  0.1085  0.5308  0.3536
  703SOL     OW 2809   2.677   1.257   0.993 -0.9246 -0.0751  0.1538
  703SOL    HW1 2810   2.637   1.259   0.905 -1.4432  0.2663 -0.0732
  703SOL    HW2 2811   2.690   1.164   1.027 -0.7359 -0.2857  0.5139
  703SOL     MW 2812   2.673   1.245   0.986 -0.9681 -0.0578  0.1714
  704SOL     OW 2813   3.065   1.280   0.178  0.6729 -0.4581  0.7148
  704SOL    HW1 2814   2.977   1.294   0.132 -1.4874  0.3320  2.9482
  704SOL    HW2 2815   3.060   1.222   0.255  1.3688 -1.6595 -1.1183
  704SOL     MW 2816   3.053   1.274   0.182  0.4797 -0.5124  0.7676
  705SOL     OW 2817   2.051   1.611   1.302  0.3054  0.2646  0.2298
  705SOL    HW1 2818   1.990   1.685   1.289 -4.4249  0.1016 -2.0553
  705SOL    HW2 2819   2.091   1.626   1.389  0.6246 -1.7963  1.1083
  705SOL     MW 2820   2.048   1.623   1.312 -0.2766 -0.0288  0.0442
  706SOL     OW 2821   3.062   1.180   0.653  0.0484  0.1771 -0.5605
  706SOL    HW1 2822   3.116   1.178   0.570 -1.1629  0.7268 -4.5711
  706SOL    HW2 2823   3.035   1.271   0.674  2.5234  1.8724  0.4156
  706SOL     MW 2824   3.065   1.192   0.644  0.2152  0.4733 -0.9609
  707SOL     OW 2825   2.331   0.047   0.940 -0.1454 -0.5090 -0.3578
  707SOL    HW1 2826   2.362   0.134   0.901  2.4479  0.6275  0.2222
  707SOL    HW2 2827   2.258   0.019   0.888  2.1493  3.4230  0.7369
  707SOL     MW 2828   2.326   0.055   0.928  0.4995  0.1598 -0.1368
  708SOL     OW 2829   2.388   1.424   0.085 -0.2022  0.0292 -0.4454
  708SOL    HW1 2830   2.478   1.393   0.092 -1.3230 -0.5767 -0.6875
  708SOL    HW2 2831   2.364   1.429  -0.005  1.5793 -1.1235  0.2357
  708SOL     MW 2832   2.397   1.420   0.074 -0.1150 -0.2028 -0.3875
  709SOL     OW 2833   1.698   1.578   0.228  0.1989 -0.6055  0.1588
  709SOL    HW1 2834   1.694   1.603   0.134  1.6117 -1.4852 -0.8810
  709SOL    HW2 2835   1.613   1.609   0.269  0.1750  1.7129 -0.8445
  709SOL     MW 2836   1.686   1.586   0.221  0.3821 -0.4157 -0.1107
  710SOL     OW 2837   2.252   1.166   1.122 -0.3002 -0.2059 -0.7527
  710SOL    HW1 2838   2.265   1.121   1.037  0.9614 -2.1099 -0.0272
  710SOL    HW2 2839   2.272   1.098   1.188  1.2886 -1.6275 -0.4433
  710SOL     MW 2840   2.256   1.151   1.120  0.0759 -0.6447 -0.6162
  711SOL     OW 2841   2.395   0.088   1.769  0.3598  0.3621 -0.4441
  711SOL    HW1 2842   2.484   0.066   1.804  0.3674 -2.2600 -2.3067
  711SOL    HW2 2843   2.387   0.069   1.675  0.4954 -1.1282  0.5655
  711SOL     MW 2844   2.406   0.082   1.761  0.3787 -0.1805 -0.5567
  712SOL     OW 2845   1.886   0.621   3.086 -0.1573  0.2521 -0.2260
  712SOL    HW1 2846   1.836   0.656   3.015  0.0237 -1.1003  2.1822
  712SOL    HW2 2847   1.861   0.669   3.171  0.2190 -0.3164  0.0374
  712SOL     MW 2848   1.876   0.632   3.088 -0.0837 -0.0013  0.1265
  713SOL     OW 2849   2.591   0.684   1.112  0.2156  0.1462 -0.2288
  713SOL    HW1 2850   2.621   0.592   1.132  0.1994  0.5751 -0.4743
  713SOL    HW2 2851   2.615   0.726   1.194  1.1356  1.1070 -0.5809
  713SOL     MW 2852   2.598   0.678   1.125  0.3348  0.3295 -0.3077
  714SOL     OW 2853   2.223   0.201   1.986  0.2690 -0.1418 -0.3067
  714SOL    HW1 2854   2.269   0.159   2.057 -1.0274  1.5008  1.2719
  714SOL    HW2 2855   2.268   0.184   1.903  0.4410 -0.9373 -0.1601
  714SOL     MW 2856   2.235   0.194   1.984  0.1206 -0.0300 -0.0790
  715SOL     OW 2857   1.833   1.980   1.699 -0.3947 -0.0705  0.4407
  715SOL    HW1 2858   1.926   2.003   1.730 -0.5847  0.3344 -0.4266
  715SOL    HW2 2859   1.812   1.905   1.759  0.7567 -3.3279  0.0080
  715SOL     MW 2860   1.842   1.973   1.711 -0.2678 -0.4469  0.2692
  716SOL     OW 2861   2.442   0.547   0.735 -0.3005  0.6454  0.0496
  716SOL    HW1 2862   2.514   0.519   0.680  2.2736 -0.0849 -1.3565
  716SOL    HW2 2863   2.379   0.566   0.667 -0.7995  0.0452 -1.0430
  716SOL     MW 2864   2.443   0.546   0.718 -0.0267  0.4699 -0.2801
  717SOL     OW 2865   2.787   1.682   2.838 -0.3833  0.0585 -0.1591
  717SOL    HW1 2866   2.867   1.634   2.867  2.5989 -1.3450 -0.7848
  717SOL    HW2 2867   2.739   1.703   2.916  2.0492  0.8314 -2.7319
  717SOL     MW 2868   2.791   1.679   2.852  0.3311 -0.0247 -0.5811
  718SOL     OW 2869   2.635   1.306   1.314 -0.1205 -0.2769  0.5575
  718SOL    HW1 2870   2.637   1.336   1.401 -1.9073  0.1703 -2.6594
  718SOL    HW2 2871   2.726   1.325   1.287  0.9398  1.0927  0.4999
  718SOL     MW 2872   2.648   1.313   1.322 -0.2164 -0.0372  0.1255
  719SOL     OW 2873   2.184   1.232   0.520 -0.3394 -0.5029  0.0120
  719SOL    HW1 2874   2.264   1.287   0.518 -0.0156 -3.8029 -0.0336
  719SOL    HW2 2875   2.142   1.263   0.608  1.2958  1.2256  0.4192
  719SOL     MW 2876   2.189   1.243   0.531 -0.0809 -0.7102  0.0598
  720SOL     OW 2877   2.840   1.261   0.037 -0.1413  0.3355 -0.2696
  720SOL    HW1 2878   2.846   1.168   0.065  0.4044 -1.7767 -0.0371
  720SOL    HW2 2879   2.763   1.292   0.082  0.2168 -0.3453 -0.3213
  720SOL     MW 2880   2.830   1.253   0.046 -0.0221 -0.0330 -0.2458
  721SOL     OW 2881   2.570   0.811   1.370 -0.5746  0.0642  0.1364
  721SOL    HW1 2882   2.540   0.739   1.429  0.5847 -0.6166  3.0843
  721SOL    HW2 2883   2.640   0.850   1.420  3.4911  0.5619  0.5648
  721SOL     MW 2884   2.575   0.807   1.384  0.1148  0.0401  0.5818
  722SOL     OW 2885   2.588   1.132   0.399  0.2695  0.0090 -0.3390
  722SOL    HW1 2886   2.543   1.215   0.423  0.6777 -1.5589 -0.9474
  722SOL    HW2 2887   2.673   1.129   0.448  0.7489 -0.4111 -1.2314
  722SOL     MW 2888   2.593   1.142   0.409  0.3866 -0.2533 -0.5370
  723SOL     OW 2889   2.283   1.346   1.545 -0.0067  0.2537  0.1985
  723SOL    HW1 2890   2.283   1.333   1.451 -1.5341  0.2615  0.6013
  723SOL    HW2 2891   2.189   1.363   1.557 -3.1033 -0.7421  0.6725
  723SOL     MW 2892   2.271   1.347   1.534 -0.6168  0.1233  0.3142
  724SOL     OW 2893   2.476   0.244   0.611 -0.6131 -0.4351 -0.2986
  724SOL    HW1 2894   2.464   0.255   0.704 -2.1258 -1.3032 -1.3929
  724SOL    HW2 2895   2.569   0.259   0.592  0.6890  0.8215  1.4957
  724SOL     MW 2896   2.487   0.247   0.621 -0.6409 -0.3839 -0.2063
  725SOL     OW 2897   2.647   0.408   1.168 -0.0770 -0.3022 -0.5208
  725SOL    HW1 2898   2.723   0.421   1.216 -1.5685 -1.3031 -2.7243
  725SOL    HW2 2899   2.600   0.338   1.219 -0.1856 -1.8766 -0.8273
  725SOL     MW 2900   2.651   0.401   1.181 -0.2881 -0.6420 -0.8520
  726SOL     OW 2901   2.481   2.483   0.437 -0.2828 -0.1552 -0.2174
  726SOL    HW1 2902   2.526   2.545   0.381 -1.4250  2.0278  0.4128
  726SOL    HW2 2903   2.446   2.544   0.509 -2.1165  0.6568  2.0303
  726SOL     MW 2904   2.482   2.499   0.439 -0.6755  0.2399  0.1623
  727SOL     OW 2905   2.870   0.318   1.729 -0.1116  0.4430  0.2071
  727SOL    HW1 2906   2.807   0.292   1.661 -0.1902  1.0804  0.4082
  727SOL    HW2 2907   2.850   0.270   1.805  1.3565 -2.4058  0.4910
  727SOL     MW 2908   2.859   0.308   1.730  0.0717  0.1513  0.2711
  728SOL     OW 2909   2.796   1.193   2.859  0.0268  0.5811  0.2295
  728SOL    HW1 2910   2.827   1.257   2.799  1.0197  0.7093 -0.3229
  728SOL    HW2 2911   2.806   1.231   2.947 -2.1504 -0.4144 -1.3340
  728SOL     MW 2912   2.801   1.206   2.863 -0.1295  0.4667 -0.0497
  729SOL     OW 2913   2.556   1.499   1.066 -0.0448 -0.4174 -0.0269
  729SOL    HW1 2914   2.603   1.417   1.050  2.7047  0.2599 -0.9351
  729SOL    HW2 2915   2.487   1.495   1.000 -0.7892 -1.5818 -0.9420
  729SOL     MW 2916   2.553   1.487   1.055  0.2197 -0.4817 -0.2674
  730SOL     OW 2917   2.181   1.146   0.200 -0.0088  0.1908 -0.0088
  730SOL    HW1 2918   2.253   1.082   0.233  1.2527 -1.2295  1.1792
  730SOL    HW2 2919   2.220   1.233   0.212  0.0101  0.5905  0.2748
  730SOL     MW 2920   2.195   1.149   0.206  0.1602  0.0562  0.1854
  731SOL     OW 2921   2.785   1.979   2.925  0.2832  0.0890  0.2988
  731SOL    HW1 2922   2.733   1.973   2.847 -1.9343 -1.1943 -1.2545
  731SOL    HW2 2923   2.872   1.944   2.909 -2.5554 -4.7197  0.9629
  731SOL     MW 2924   2.789   1.973   2.913 -0.3839 -0.7148  0.1814
  732SOL     OW 2925   2.331   0.980   1.347  0.3954  0.0734  0.1534
  732SOL    HW1 2926   2.276   0.957   1.428 -1.8788 -3.3172 -0.0147
  732SOL    HW2 2927   2.419   0.941   1.363  0.4380 -0.7607 -1.1328
  732SOL     MW 2928   2.336   0.972   1.360  0.1009 -0.4840 -0.0385
  733SOL     OW 2929   2.390   2.686   2.988  0.1585 -0.1916 -0.4625
  733SOL    HW1 2930   2.327   2.736   3.038 -2.4801 -2.0759  2.5216
  733SOL    HW2 2931   2.356   2.598   2.986  0.2952  2.2976  1.5326
  733SOL     MW 2932   2.377   2.681   2.994 -0.1716 -0.1118  0.1944
  734SOL     OW 2933   1.516   0.282   2.508 -0.0579 -0.2240  0.4831
  734SOL    HW1 2934   1.496   0.262   2.600  0.2866  0.2253 -0.0136
  734SOL    HW2 2935   1.503   0.201   2.462  0.9266 -0.1628 -2.0468
  734SOL     MW 2936   1.512   0.268   2.514  0.1174 -0.1566  0.0838
  735SOL     OW 2937   3.019   0.866   2.693  0.1341 -0.2984 -0.2856
  735SOL    HW1 2938   3.016   0.771   2.703  2.6736  1.0502 -0.1328
  735SOL    HW2 2939   3.037   0.903   2.781 -1.4677  0.5270 -0.6149
  735SOL     MW 2940   3.021   0.858   2.706  0.2578 -0.0115 -0.3089
  736SOL     OW 2941   0.140   0.548   2.524  0.2259 -0.3725  0.3735
  736SOL    HW1 2942   0.148   0.634   2.471 -0.7055  1.7473 -1.5291
  736SOL    HW2 2943   0.207   0.484   2.484 -0.5041  0.0974 -1.0573
  736SOL     MW 2944   0.150   0.551   2.512  0.0067 -0.0308 -0.0663
  737SOL     OW 2945   3.003   0.563   2.656  0.3103 -0.2444 -0.0173
  737SOL    HW1 2946   2.929   0.567   2.590  0.1542 -0.7381 -0.4387
  737SOL    HW2 2947   3.087   0.571   2.614 -2.4844  0.7782  0.3924
  737SOL     MW 2948   3.004   0.564   2.642 -0.0790 -0.1746 -0.0188
  738SOL     OW 2949   0.106   0.414   1.854  0.2941  0.0734  0.1709
  738SOL    HW1 2950   0.188   0.397   1.905  1.0485 -4.4268 -0.2716
  738SOL    HW2 2951   0.120   0.413   1.757  0.2543  1.0316 -0.3894
  738SOL     MW 2952   0.119   0.412   1.848  0.3884 -0.3939  0.0386
  739SOL     OW 2953   2.526   0.985   2.112 -0.2229 -0.0151  0.4793
  739SOL    HW1 2954   2.446   0.966   2.066 -1.9665 -3.7598 -2.9984
  739SOL    HW2 2955   2.590   0.916   2.098  2.3006  1.6248 -0.9610
  739SOL     MW 2956   2.524   0.973   2.104 -0.1200 -0.2928 -0.1696
  740SOL     OW 2957   0.155   1.787   2.938  0.7117  0.6240 -0.4358
  740SOL    HW1 2958   0.110   1.702   2.968 -0.4278 -2.2949  0.5415
  740SOL    HW2 2959   0.237   1.802   2.992  0.4101  1.9722  0.8225
  740SOL     MW 2960   0.160   1.778   2.949  0.5216  0.4168 -0.1409
  741SOL     OW 2961   2.258   1.160   2.714  0.9101  0.0545 -0.3083
  741SOL    HW1 2962   2.219   1.228   2.662 -1.2293  0.1512  1.3954
  741SOL    HW2 2963   2.232   1.176   2.811 -0.6327 -1.6308  0.2492
  741SOL     MW 2964   2.250   1.171   2.720  0.4243 -0.1551 -0.0099
  742SOL     OW 2965   1.530   1.231   2.343 -0.1865  0.2062  0.7755
  742SOL    HW1 2966   1.473   1.161   2.311  0.4738  3.4712 -1.1391
  742SOL    HW2 2967   1.596   1.192   2.400 -2.0750 -2.4581  1.4088
  742SOL     MW 2968   1.531   1.216   2.347 -0.3485  0.2855  0.6064
  743SOL     OW 2969   2.557   1.234   2.677  0.8847  0.0393 -0.1965
  743SOL    HW1 2970   2.455   1.220   2.691 -1.7362 -2.1717  0.3760
  743SOL    HW2 2971   2.589   1.164   2.733  0.4254 -2.9011 -1.4373
  743SOL     MW 2972   2.548   1.223   2.686  0.4783 -0.6404 -0.2847
  744SOL     OW 2973   2.730   0.876   1.920 -0.4071  0.2122  0.1126
  744SOL    HW1 2974   2.685   0.964   1.919 -0.7161  1.4684 -1.6824
  744SOL    HW2 2975   2.664   0.818   1.881  0.0219  1.1089  1.4620
  744SOL     MW 2976   2.715   0.880   1.915 -0.3913  0.4962  0.0538
  745SOL     OW 2977   1.708   0.467   2.487  0.8800  0.1979  0.1446
  745SOL    HW1 2978   1.709   0.459   2.392 -0.4076 -0.0423  1.0513
  745SOL    HW2 2979   1.651   0.392   2.512 -1.0493 -1.3395 -2.0266
  745SOL     MW 2980   1.701   0.456   2.478  0.4556 -0.0367 -0.0222
  746SOL     OW 2981   1.590   1.506   1.659  0.2855  0.3546  0.3043
  746SOL    HW1 2982   1.666   1.561   1.639  1.1364  3.7084 -1.4523
  746SOL    HW2 2983   1.590   1.498   1.753  0.8881  0.4053 -0.1184
  746SOL     MW 2984   1.600   1.512   1.669  0.4773  0.8038  0.0167
  747SOL     OW 2985   2.606   1.134   1.819 -0.4971 -0.2253  0.0868
  747SOL    HW1 2986   2.533   1.093   1.778  1.3503  1.3928  0.5484
  747SOL    HW2 2987   2.577   1.213   1.866  1.7719 -0.9324 -2.0897
  747SOL     MW 2988   2.593   1.139   1.820  0.0460 -0.1051 -0.1395
  748SOL     OW 2989   0.079   0.123   1.869  0.0417  0.4343 -0.4889
  748SOL    HW1 2990   0.172   0.114   1.883 -3.0966  0.5616 -3.1005
  748SOL    HW2 2991   0.065   0.214   1.847  0.0586  0.5555  3.0304
  748SOL     MW 2992   0.090   0.134   1.868 -0.3702  0.4671 -0.3692
  749SOL     OW 2993   2.578   0.592   2.795  0.0712 -0.2417  0.4013
  749SOL    HW1 2994   2.587   0.672   2.744  1.7975 -0.2367 -0.2885
  749SOL    HW2 2995   2.557   0.629   2.885  0.1215 -0.7281  0.8739
  749SOL     MW 2996   2.577   0.607   2.800  0.3056 -0.3052  0.3726
  750SOL     OW 2997   2.058   0.002   1.958 -0.0918  0.6245 -0.4072
  750SOL    HW1 2998   2.117   0.082   1.959  1.2459  0.3737  0.6366
  750SOL    HW2 2999   2.125  -0.070   1.933  0.5299 -2.4277 -0.0272
  750SOL     MW 3000   2.075   0.003   1.955  0.1668  0.1887 -0.2193
  751SOL     OW 3001   0.277   0.363   2.408  0.1152  0.7645 -0.0668
  751SOL    HW1 3002   0.218   0.310   2.457 -1.7100 -1.0172 -2.0620
  751SOL    HW2 3003   0.257   0.342   2.319 -0.3774 -1.1755  0.1018
  751SOL     MW 3004   0.267   0.353   2.403 -0.1906  0.2735 -0.3078
  752SOL     OW 3005   2.139   0.831   2.762 -0.2444 -0.3933  0.2284
  752SOL    HW1 3006   2.214   0.880   2.736 -1.2953  1.1677  0.5369
  752SOL    HW2 3007   2.137   0.829   2.861  1.2299  3.2504  0.4325
  752SOL     MW 3008   2.149   0.837   2.772 -0.1885  0.2934  0.2960
  753SOL     OW 3009   2.791   0.134   2.410  0.0016 -0.2793  0.4325
  753SOL    HW1 3010   2.777   0.040   2.397  0.9625 -0.7656  1.2459
  753SOL    HW2 3011   2.797   0.174   2.324  0.8450 -1.7568 -1.4287
  753SOL     MW 3012   2.790   0.127   2.397  0.2396 -0.5384  0.2942
  754SOL     OW 3013   2.283   2.957   2.648  0.7750 -0.3208 -0.0176
  754SOL    HW1 3014   2.298   2.926   2.558 -1.2268 -3.0030 -0.4324
  754SOL    HW2 3015   2.349   2.916   2.703  0.0870 -0.6504  2.0982
  754SOL     MW 3016   2.293   2.947   2.644  0.4201 -0.7182  0.2069
  755SOL     OW 3017   2.754   1.529   2.395 -0.0285 -0.0960  0.1837
  755SOL    HW1 3018   2.764   1.445   2.440 -0.4838 -1.5462  0.2420
  755SOL    HW2 3019   2.758   1.585   2.475  2.1011  2.6074 -1.1212
  755SOL     MW 3020   2.755   1.525   2.412  0.1924  0.0693  0.0192
  756SOL     OW 3021   2.205   1.200   2.988 -0.2603 -0.2061  0.3166
  756SOL    HW1 3022   2.263   1.275   2.964  1.8238 -1.2231 -0.7335
  756SOL    HW2 3023   2.259   1.121   3.013 -2.3698 -1.5746 -1.6970
  756SOL     MW 3024   2.220   1.200   2.988 -0.2637 -0.5208 -0.0876
  757SOL     OW 3025   2.195   0.929   1.600 -0.1447 -0.1508 -0.5350
  757SOL    HW1 3026   2.201   0.836   1.627 -1.1164  2.3607  0.0351
  757SOL    HW2 3027   2.105   0.944   1.558 -0.3902  2.6506 -0.3258
  757SOL     MW 3028   2.184   0.919   1.598 -0.3053  0.5502 -0.4322
  758SOL     OW 3029   2.221   1.825   2.631 -0.1442  0.4851  0.0452
  758SOL    HW1 3030   2.197   1.833   2.538 -1.5428 -2.1778 -2.6600
  758SOL    HW2 3031   2.312   1.803   2.629  0.5422 -0.8831  3.0501
  758SOL     MW 3032   2.230   1.823   2.618 -0.2381 -0.0468  0.0847
  759SOL     OW 3033   1.551   1.301   2.706  0.2127  0.9343  0.1095
  759SOL    HW1 3034   1.562   1.378   2.651  2.4517 -1.4405 -2.5510
  759SOL    HW2 3035   1.616   1.316   2.782 -0.5476  0.3176 -0.0870
  759SOL     MW 3036   1.561   1.313   2.709  0.4078  0.5396 -0.2674
  760SOL     OW 3037   2.594   1.974   2.694  0.9893 -0.6123 -0.5258
  760SOL    HW1 3038   2.557   1.886   2.659  1.7718  0.9984 -0.5570
  760SOL    HW2 3039   2.609   2.025   2.616  1.6407 -2.6278  1.2639
  760SOL     MW 3040   2.591   1.969   2.679  1.1785 -0.6657 -0.2938
  761SOL     OW 3041   2.225   0.402   2.534  0.7631 -0.8397 -0.5283
  761SOL    HW1 3042   2.154   0.346   2.574  1.8889  1.0262  0.8081
  761SOL    HW2 3043   2.257   0.470   2.595 -2.1969  0.5539 -1.3407
  761SOL     MW 3044   2.220   0.403   2.547  0.5211 -0.4096 -0.4592
  762SOL     OW 3045   3.075   0.247   2.165  0.3926  0.3981 -0.0327
  762SOL    HW1 3046   3.087   0.163   2.215  1.4652  0.3002  3.1601
  762SOL    HW2 3047   3.026   0.314   2.212 -1.5698 -1.7245 -1.7066
  762SOL     MW 3048   3.070   0.245   2.178  0.2752  0.1051  0.1677
  763SOL     OW 3049   2.358   1.035   2.324  0.6410 -0.0181 -0.1145
  763SOL    HW1 3050   2.423   1.001   2.259  1.2041  0.8606 -0.6973
  763SOL    HW2 3051   2.409   1.104   2.374  2.3015  2.2521 -3.5410
  763SOL     MW 3052   2.374   1.040   2.322  0.9344  0.3974 -0.6435
  764SOL     OW 3053   0.413   0.288   2.855  0.6714  0.0271  0.2904
  764SOL    HW1 3054   0.332   0.244   2.822 -0.9338 -0.2646  1.0994
  764SOL    HW2 3055   0.390   0.374   2.896  0.7095 -1.8610  2.4715
  764SOL     MW 3056   0.400   0.294   2.856  0.4646 -0.2605  0.6849
  765SOL     OW 3057   2.718   2.959   2.398 -0.1832 -0.1841 -0.0303
  765SOL    HW1 3058   2.664   2.973   2.319 -0.5951 -1.4519 -1.9102
  765SOL    HW2 3059   2.792   2.909   2.365  0.7263 -0.5228  1.5118
  765SOL     MW 3060   2.720   2.954   2.383 -0.1175 -0.3960 -0.0749
  766SOL     OW 3061   1.916   2.971   2.162  0.3597  0.2517 -0.2921
  766SOL    HW1 3062   1.975   3.010   2.093  1.6391  2.6957 -0.5484
  766SOL    HW2 3063   1.849   2.913   2.115 -1.9949  0.0596 -1.2052
  766SOL     MW 3064   1.915   2.968   2.147  0.2178  0.5488 -0.4464
  767SOL     OW 3065   2.641   0.601   2.101  0.2863  0.1972 -0.7228
  767SOL    HW1 3066   2.710   0.669   2.112 -2.6857  1.8523 -1.7935
  767SOL    HW2 3067   2.580   0.644   2.039 -0.4036  1.3326  1.2127
  767SOL     MW 3068   2.642   0.616   2.094 -0.1968  0.5654 -0.6087
  768SOL     OW 3069   2.995   1.548   2.945 -0.3270 -0.0508  0.1094
  768SOL    HW1 3070   3.023   1.547   3.034 -2.2509 -1.3594  2.8165
  768SOL    HW2 3071   3.064   1.501   2.904 -1.0867  1.3478  0.4552
  768SOL     MW 3072   3.008   1.542   2.951 -0.6811 -0.0389  0.5122
  769SOL     OW 3073   2.499   0.651   2.376  0.2137  0.0959  0.9332
  769SOL    HW1 3074   2.496   0.597   2.452 -1.2334 -3.4640  0.7074
  769SOL    HW2 3075   2.572   0.622   2.319  3.0438 -1.7954  1.4663
  769SOL     MW 3076   2.508   0.640   2.378  0.3962 -0.6233  0.9737
  770SOL     OW 3077   3.081   1.625   2.522 -0.2515 -0.1765 -0.0697
  770SOL    HW1 3078   2.990   1.641   2.502 -2.8972  1.1880  1.6474
  770SOL    HW2 3079   3.093   1.530   2.506 -1.3592  3.0502 -0.7370
  770SOL     MW 3080   3.071   1.615   2.518 -0.7467  0.4292  0.0688
  771SOL     OW 3081   3.073   0.605   1.985  0.4155 -0.1972  0.0287
  771SOL    HW1 3082   3.017   0.652   1.919 -1.1277 -0.4675  0.1972
  771SOL    HW2 3083   3.125   0.532   1.948 -2.0759 -0.0362 -1.2273
  771SOL     MW 3084   3.072   0.602   1.972 -0.1168 -0.2116 -0.1148
  772SOL     OW 3085   0.054   0.014   2.282 -0.5107  0.1040 -0.4103
  772SOL    HW1 3086  -0.000  -0.057   2.311  2.0489  0.5752  3.3963
  772SOL    HW2 3087   0.123  -0.026   2.238 -1.1026  0.9729  0.5489
  772SOL     MW 3088   0.056  -0.000   2.280 -0.2511  0.2808  0.2185
  773SOL     OW 3089   2.484   2.815   2.768  0.0545  0.0909  0.0726
  773SOL    HW1 3090   2.493   2.750   2.700  0.2363 -1.5486 -0.6932
  773SOL    HW2 3091   2.446   2.755   2.834 -0.1586  1.0879 -0.7031
  773SOL     MW 3092   2.480   2.798   2.768  0.0503  0.0061 -0.1308
  774SOL     OW 3093   2.286   1.140   1.746 -0.1831  0.3648 -0.3945
  774SOL    HW1 3094   2.296   1.214   1.686 -0.2988 -0.0828  0.9998
  774SOL    HW2 3095   2.264   1.060   1.695  0.6125 -0.9644  1.3127
  774SOL     MW 3096   2.284   1.139   1.731 -0.0934  0.1304  0.0147
  775SOL     OW 3097   2.301   2.916   2.354 -0.0091  0.1433  0.3264
  775SOL    HW1 3098   2.321   3.001   2.315 -1.5389 -0.3107  0.4896
  775SOL    HW2 3099   2.358   2.851   2.320 -1.9682  3.5082  0.6520
  775SOL     MW 3100   2.311   2.919   2.344 -0.4695  0.5274  0.3909
  776SOL     OW 3101   0.018   1.537   0.105 -0.1299  0.1395  0.1686
  776SOL    HW1 3102   0.110   1.528   0.107 -0.4104 -0.4018  2.8629
  776SOL    HW2 3103  -0.004   1.446   0.142  0.7557  2.6875 -1.6479
  776SOL     MW 3104   0.027   1.524   0.110 -0.0501  0.4042  0.2844
  777SOL     OW 3105   2.929   0.956   1.789  0.3028  0.2549  0.1241
  777SOL    HW1 3106   2.894   1.034   1.749  1.4067 -3.5913  1.5321
  777SOL    HW2 3107   2.861   0.921   1.853  2.1113  0.4900  2.5650
  777SOL     MW 3108   2.915   0.961   1.792  0.6871 -0.2216  0.6319
  778SOL     OW 3109   2.902   0.353   2.780  0.0733  0.0782 -0.1089
  778SOL    HW1 3110   2.883   0.388   2.866  1.9319  0.1104  0.2311
  778SOL    HW2 3111   2.944   0.430   2.725  0.9333 -0.3530 -1.6594
  778SOL     MW 3112   2.905   0.367   2.784  0.4320  0.0255 -0.2686
  779SOL     OW 3113   2.101   0.529   2.328  0.0424 -0.1146  0.0025
  779SOL    HW1 3114   2.039   0.588   2.365  1.2297 -1.3080  0.9587
  779SOL    HW2 3115   2.145   0.505   2.409 -3.1818  2.7830  0.3307
  779SOL     MW 3116   2.099   0.534   2.343 -0.2263  0.1103  0.1719
  780SOL     OW 3117   0.193   0.131   2.799  0.0370  0.3029 -0.4446
  780SOL    HW1 3118   0.124   0.145   2.862  1.8492 -2.8990 -0.0355
  780SOL    HW2 3119   0.169   0.143   2.706 -0.4567  1.3760 -1.2327
  780SOL     MW 3120   0.180   0.134   2.795  0.2110  0.0220 -0.4946
  781SOL     OW 3121   3.027   1.363   2.403  0.3618 -0.6016 -0.6755
  781SOL    HW1 3122   3.001   1.438   2.344 -1.8472  0.7197  1.2082
  781SOL    HW2 3123   3.043   1.285   2.352 -0.9671 -1.9318 -3.1092
  781SOL     MW 3124   3.025   1.363   2.389 -0.1050 -0.6028 -0.7480
  782SOL     OW 3125   0.573   1.535   3.070  0.7655 -0.2640 -0.1010
  782SOL    HW1 3126   0.538   1.625   3.059  0.8482  0.9439  0.9435
  782SOL    HW2 3127   0.579   1.527   3.170  0.5151 -1.7477 -3.1372
  782SOL     MW 3128   0.569   1.546   3.082  0.7434 -0.3004 -0.3638
  783SOL     OW 3129   2.820   0.562   2.426  0.2332  0.3798  0.1306
  783SOL    HW1 3130   2.878   0.544   2.352 -2.4254 -0.3996 -0.9861
  783SOL    HW2 3131   2.771   0.483   2.461 -1.9742 -1.9321 -0.6912
  783SOL     MW 3132   2.821   0.549   2.421 -0.4088 -0.0281 -0.1252
  784SOL     OW 3133   0.200   0.913   2.885 -0.0280  0.3959 -0.3122
  784SOL    HW1 3134   0.200   0.967   2.959  1.4260  1.3804  0.4498
  784SOL    HW2 3135   0.203   0.974   2.816  1.5829 -2.5919  2.8452
  784SOL     MW 3136   0.200   0.928   2.886  0.3764  0.1316  0.2049
  785SOL     OW 3137   0.351   0.545   2.109 -0.3789  0.1628  0.5542
  785SOL    HW1 3138   0.346   0.562   2.017 -1.1334 -2.0927 -0.1889
  785SOL    HW2 3139   0.311   0.463   2.135 -0.4799 -1.5831  1.2307
  785SOL     MW 3140   0.345   0.537   2.100 -0.4918 -0.3651  0.5454
  786SOL     OW 3141   2.033   0.471   2.842  0.0159 -0.0872 -0.2059
  786SOL    HW1 3142   2.008   0.451   2.934 -1.0102  0.9158 -0.1389
  786SOL    HW2 3143   2.130   0.490   2.833  3.3565  0.5072 -0.2759
  786SOL     MW 3144   2.042   0.471   2.853  0.3213  0.1236 -0.2063
  787SOL     OW 3145   2.426   0.145   2.915  0.5033  0.1575 -0.2421
  787SOL    HW1 3146   2.474   0.158   2.836 -1.0148  0.0938  0.9298
  787SOL    HW2 3147   2.440   0.228   2.963  1.9439  0.6297 -0.7190
  787SOL     MW 3148   2.434   0.158   2.911  0.4931  0.2114 -0.1504
  788SOL     OW 3149   2.952   2.863   2.286  0.5697 -0.2437 -0.0268
  788SOL    HW1 3150   2.906   2.785   2.242 -3.4918  0.0530  1.5596
  788SOL    HW2 3151   3.000   2.815   2.356  0.5563  1.5055  2.8054
  788SOL     MW 3152   2.952   2.847   2.289  0.0320  0.0263  0.5562
  789SOL     OW 3153   0.047   0.291   3.030  0.2186  0.0969  0.3328
  789SOL    HW1 3154  -0.042   0.259   3.031  1.7418  0.5714 -1.5527
  789SOL    HW2 3155   0.086   0.237   3.101 -0.7777 -0.1310 -1.8923
  789SOL     MW 3156   0.041   0.279   3.039  0.2882  0.1294 -0.2096
  790SOL     OW 3157   0.022   1.043   2.460  0.1569 -0.2834 -0.9273
  790SOL    HW1 3158  -0.028   1.003   2.530 -1.0685 -2.8272 -0.2989
  790SOL    HW2 3159  -0.035   1.041   2.386  0.9519 -0.9921  0.7805
  790SOL     MW 3160   0.008   1.038   2.460  0.1001 -0.7125 -0.6191
  791SOL     OW 3161   2.688   0.414   2.608  0.4843 -0.1488  0.0001
  791SOL    HW1 3162   2.645   0.486   2.663  0.0994 -1.7796 -0.9759
  791SOL    HW2 3163   2.769   0.392   2.657 -1.4097  0.7298  0.5371
  791SOL     MW 3164   2.693   0.421   2.621  0.1836 -0.2480 -0.0579
  792SOL     OW 3165   2.412   0.283   2.384 -0.5122  0.2065  0.0945
  792SOL    HW1 3166   2.341   0.322   2.436  2.0351 -1.4881 -0.2941
  792SOL    HW2 3167   2.463   0.242   2.456 -2.8488  3.8904  0.7586
  792SOL     MW 3168   2.409   0.283   2.401 -0.4844  0.4689  0.1309
  793SOL     OW 3169   1.756   1.010   1.877 -0.2919 -0.0442  0.4839
  793SOL    HW1 3170   1.726   1.060   1.806 -1.4695 -0.8649  0.8991
  793SOL    HW2 3171   1.845   0.980   1.837  0.8080 -1.8454 -3.0085
  793SOL     MW 3172   1.764   1.013   1.863 -0.3021 -0.3902  0.0779
  794SOL     OW 3173   1.432   2.279   0.126 -0.1476  0.2107  0.8127
  794SOL    HW1 3174   1.441   2.360   0.068 -1.7310 -2.4955 -1.1382
  794SOL    HW2 3175   1.484   2.301   0.209  0.6849  2.9099  0.4445
  794SOL     MW 3176   1.440   2.293   0.129 -0.2467  0.2098  0.5067
  795SOL     OW 3177   2.363   0.943   2.593 -0.2158  0.2239  0.0447
  795SOL    HW1 3178   2.321   1.021   2.630 -0.9008  0.7537 -1.8047
  795SOL    HW2 3179   2.354   0.945   2.495 -0.5593 -0.4978 -1.5446
  795SOL     MW 3180   2.356   0.953   2.585 -0.3515  0.1985 -0.4090
  796SOL     OW 3181   0.321   0.653   2.802 -0.3498 -0.3306  0.0342
  796SOL    HW1 3182   0.293   0.740   2.834  0.6312  0.2399 -1.9225
  796SOL    HW2 3183   0.295   0.656   2.710  1.4410 -1.0058 -1.4246
  796SOL     MW 3184   0.314   0.665   2.794  0.0159 -0.3444 -0.4165
  797SOL     OW 3185   2.566   0.167   2.595  0.2722  0.0789  0.2386
  797SOL    HW1 3186   2.579   0.263   2.617  0.1745  3.2830  1.8499
  797SOL    HW2 3187   2.642   0.147   2.536  0.7684 -1.6771 -0.8872
  797SOL     MW 3188   2.578   0.177   2.590  0.3248  0.2699  0.3027
  798SOL     OW 3189   2.379   0.049   2.194 -0.3627  0.3327  0.4710
  798SOL    HW1 3190   2.407   0.108   2.266 -0.5499  0.4922  0.2098
  798SOL    HW2 3191   2.458  -0.004   2.173 -1.1528 -0.3573 -0.0914
  798SOL     MW 3192   2.393   0.050   2.201 -0.4916  0.2627  0.3624
  799SOL     OW 3193   2.540   2.915   0.203 -0.1468 -0.4729  0.0439
  799SOL    HW1 3194   2.574   2.889   0.117  2.3576 -2.0869  1.4665
  799SOL    HW2 3195   2.458   2.955   0.178  0.7888 -1.5018 -0.1445
  799SOL     MW 3196   2.534   2.917   0.188  0.3071 -0.8216  0.2067
  800SOL     OW 3197   1.914   3.094   1.719  0.1418  0.1542 -0.1708
  800SOL    HW1 3198   1.854   3.020   1.740 -1.4625  1.6681  2.6993
  800SOL    HW2 3199   1.958   3.115   1.802  0.7966 -3.1375  1.5865
  800SOL     MW 3200   1.912   3.087   1.733  0.0166 -0.0803  0.4398
  801SOL     OW 3201   2.834   1.332   2.590 -0.1484  0.2678 -0.4689
  801SOL    HW1 3202   2.832   1.232   2.591  1.3926  0.2303 -1.0005
  801SOL    HW2 3203   2.906   1.345   2.523  1.3422  0.0583  0.3202
  801SOL     MW 3204   2.843   1.321   2.582  0.2516  0.2352 -0.4350
  802SOL     OW 3205   2.544   1.500   2.747  0.1122 -0.2065  0.2545
  802SOL    HW1 3206   2.545   1.401   2.744 -3.1647  0.5505  1.5022
  802SOL    HW2 3207   2.629   1.536   2.776  2.6092  0.9157  1.9424
  802SOL     MW 3208   2.555   1.492   2.750  0.0093  0.0415  0.6418
  803SOL     OW 3209   2.244   1.300   1.954 -0.4931  0.4074 -0.4661
  803SOL    HW1 3210   2.216   1.255   2.038  0.5841 -2.2959  0.3059
  803SOL    HW2 3211   2.262   1.222   1.901 -0.0049  1.0645  3.7458
  803SOL     MW 3212   2.243   1.284   1.958 -0.2866  0.1375  0.1915
  804SOL     OW 3213   2.362   0.001   0.062  0.1143 -0.2372  0.1686
  804SOL    HW1 3214   2.295   0.070   0.029  1.0060  0.8195 -1.8950
  804SOL    HW2 3215   2.436   0.028   0.007 -1.6305 -1.1831  0.6151
  804SOL     MW 3216   2.363   0.014   0.051  0.0018 -0.2226 -0.0448
  805SOL     OW 3217   2.837   1.047   2.589 -0.0815  0.2060  0.7263
  805SOL    HW1 3218   2.750   1.013   2.599  0.0471 -1.8313  1.1002
  805SOL    HW2 3219   2.895   0.988   2.637 -0.5433 -1.7021  2.7685
  805SOL     MW 3220   2.833   1.035   2.597 -0.1255 -0.3146  1.0451
  806SOL     OW 3221   2.652   0.334   2.183 -0.1079 -0.0663  0.0641
  806SOL    HW1 3222   2.568   0.330   2.219 -0.0264 -2.1812 -1.0984
  806SOL    HW2 3223   2.657   0.420   2.151  0.8086 -0.7121 -0.4761
  806SOL     MW 3224   2.641   0.345   2.184  0.0238 -0.4306 -0.1606
  807SOL     OW 3225   0.047   1.150   2.125  0.4919 -0.1443  0.2616
  807SOL    HW1 3226   0.099   1.087   2.077  0.9111  1.9258 -0.1827
  807SOL    HW2 3227  -0.028   1.096   2.146  1.7155 -1.0276 -0.9200
  807SOL     MW 3228   0.044   1.134   2.122  0.7087  0.0123  0.0471
  808SOL     OW 3229   2.654   3.061   2.808  0.3659  0.0666 -0.3724
  808SOL    HW1 3230   2.605   2.979   2.811  0.3864  0.7427  0.5593
  808SOL    HW2 3231   2.631   3.104   2.728  0.3399 -0.8893  1.7885
  808SOL     MW 3232   2.645   3.056   2.798  0.3652  0.0297  0.0356
  809SOL     OW 3233   2.531   1.229   2.422 -0.1079 -0.4440 -0.2643
  809SOL    HW1 3234   2.553   1.233   2.517 -0.3898  1.4901  3.3371
  809SOL    HW2 3235   2.606   1.243   2.366  1.7337  1.9952 -0.0558
  809SOL     MW 3236   2.544   1.231   2.427  0.0979  0.1330  0.2384
  810SOL     OW 3237   2.192   1.214   2.201  0.6273  0.6972  0.8341
  810SOL    HW1 3238   2.251   1.149   2.251  0.0218 -1.7932  0.0923
  810SOL    HW2 3239   2.105   1.167   2.194 -0.8597  1.0647  2.2962
  810SOL     MW 3240   2.188   1.199   2.206  0.3512  0.4171  0.9291
  811SOL     OW 3241   1.477   0.073   2.230  0.2683 -0.2511 -0.0898
  811SOL    HW1 3242   1.552   0.017   2.223 -2.0290 -0.9767 -2.7859
  811SOL    HW2 3243   1.406   0.058   2.158  1.2640  1.5556 -0.3081
  811SOL     MW 3244   1.477   0.063   2.220  0.0966 -0.1085 -0.4743
  812SOL     OW 3245   1.458   2.762   2.080  0.4805 -0.0501  0.0303
  812SOL    HW1 3246   1.549   2.781   2.056 -0.9048 -0.6181 -0.1414
  812SOL    HW2 3247   1.457   2.759   2.175 -0.8241  1.8526  0.1713
  812SOL     MW 3248   1.470   2.764   2.089  0.1256  0.1260  0.0263
  813SOL     OW 3249   1.848   0.702   2.148 -0.2241 -0.9361 -0.3034
  813SOL    HW1 3250   1.780   0.630   2.164 -2.7878 -2.3171 -1.5831
  813SOL    HW2 3251   1.906   0.710   2.223  0.4754  0.3303  0.1831
  813SOL     MW 3252   1.846   0.693   2.160 -0.4701 -0.9512 -0.4080
  814SOL     OW 3253   2.820   1.175   1.634 -0.1633 -0.0505 -0.5096
  814SOL    HW1 3254   2.740   1.162   1.678 -0.4392 -2.3286 -1.5443
  814SOL    HW2 3255   2.810   1.142   1.545 -0.3087  0.9051 -1.6212
  814SOL     MW 3256   2.808   1.169   1.628 -0.2189 -0.2250 -0.7928
  815SOL     OW 3257   2.502   1.645   2.371 -0.2945 -0.0444  0.1374
  815SOL    HW1 3258   2.432   1.579   2.374  0.5154  4.2161  1.3670
  815SOL    HW2 3259   2.586   1.603   2.368  2.8552  1.8112  1.2760
  815SOL     MW 3260   2.504   1.631   2.371  0.2279  0.7625  0.4499
  816SOL     OW 3261   0.670   0.665   2.718 -0.2671  0.2944  0.2243
  816SOL    HW1 3262   0.718   0.597   2.763 -1.3339  0.4188 -1.3905
  816SOL    HW2 3263   0.634   0.621   2.634  0.4556  0.5265  1.0125
  816SOL     MW 3264   0.671   0.650   2.713 -0.3125  0.3414  0.1153
  817SOL     OW 3265   3.069   1.179   1.317  0.5561  0.2510  0.6560
  817SOL    HW1 3266   3.110   1.184   1.403  0.7048 -0.5237  2.6290
  817SOL    HW2 3267   3.076   1.265   1.280  0.3498 -2.9084 -0.3393
  817SOL     MW 3268   3.075   1.191   1.324  0.5485 -0.2680  0.7850
  818SOL     OW 3269   1.907   0.998   2.681 -0.1358  0.4119 -0.1388
  818SOL    HW1 3270   1.927   1.063   2.611 -0.2893  1.1602 -1.0996
  818SOL    HW2 3271   1.990   0.958   2.707  2.2249  2.7777 -0.4490
  818SOL     MW 3272   1.921   1.002   2.675  0.1554  0.8228 -0.3065
  819SOL     OW 3273   1.941   0.220   2.322  0.3644 -0.4255 -0.0892
  819SOL    HW1 3274   2.031   0.214   2.285 -1.9526 -2.0544  0.0549
  819SOL    HW2 3275   1.960   0.225   2.417 -0.3479 -0.7014  2.4509
  819SOL     MW 3276   1.955   0.220   2.329 -0.0353 -0.6768  0.2649
  820SOL     OW 3277   2.481   1.742   2.626  0.2624  0.5213  0.1372
  820SOL    HW1 3278   2.499   1.651   2.664 -2.5270 -0.3639 -1.2397
  820SOL    HW2 3279   2.494   1.732   2.534  1.0681  4.0541  0.8471
  820SOL     MW 3280   2.485   1.729   2.619  0.0007  0.8706  0.0492
  821SOL     OW 3281   2.539   1.335   1.990 -0.0110  0.3510  0.1792
  821SOL    HW1 3282   2.577   1.404   1.935 -1.8757 -0.3122  0.4470
  821SOL    HW2 3283   2.445   1.348   1.989 -2.1689 -0.7465  0.6814
  821SOL     MW 3284   2.531   1.346   1.983 -0.5418  0.1187  0.2808
  822SOL     OW 3285   2.888   2.613   1.429  0.5163 -0.2601 -0.1864
  822SOL    HW1 3286   2.802   2.646   1.390 -0.5101 -2.1892 -1.3149
  822SOL    HW2 3287   2.933   2.691   1.469 -1.6767  1.7341  3.6326
  822SOL     MW 3288   2.882   2.628   1.429  0.0915 -0.2515  0.1686
  823SOL     OW 3289   2.356   0.488   1.791 -0.3352  0.5644 -0.2490
  823SOL    HW1 3290   2.433   0.446   1.744  1.1817 -1.2208  1.6174
  823SOL    HW2 3291   2.305   0.416   1.822 -0.5092 -0.3405  3.1102
  823SOL     MW 3292   2.360   0.473   1.789 -0.1580  0.2095  0.4404
  824SOL     OW 3293   2.122   1.356   2.570 -0.5848  0.4171  0.1125
  824SOL    HW1 3294   2.194   1.389   2.506 -1.3734  0.3702  0.5453
  824SOL    HW2 3295   2.106   1.429   2.626  2.0746 -2.3863  0.9679
  824SOL     MW 3296   2.129   1.370   2.569 -0.3380  0.0411  0.2825
  825SOL     OW 3297   2.113   2.318   0.364 -0.3270 -0.3718 -0.0014
  825SOL    HW1 3298   2.171   2.297   0.295 -1.3579  1.6002  1.9948
  825SOL    HW2 3299   2.166   2.348   0.441  0.4284 -0.2571  0.2085
  825SOL     MW 3300   2.128   2.319   0.365 -0.3634 -0.0965  0.2896
  826SOL     OW 3301   1.781   2.438   0.452  0.0714  0.3964  0.2866
  826SOL    HW1 3302   1.791   2.371   0.516  1.3232 -0.0399 -0.9107
  826SOL    HW2 3303   1.858   2.499   0.458  2.2020 -0.6423 -0.1041
  826SOL     MW 3304   1.793   2.437   0.462  0.5176  0.2018  0.0771
  827SOL     OW 3305   1.922   2.254   0.882 -0.2443  0.0940  0.3129
  827SOL    HW1 3306   1.872   2.276   0.804 -2.2819 -0.5706  3.3497
  827SOL    HW2 3307   1.865   2.183   0.913  0.2087 -1.0797 -0.4593
  827SOL     MW 3308   1.908   2.247   0.876 -0.4534 -0.1486  0.6117
  828SOL     OW 3309   0.084   2.661   0.515 -0.4190  0.4748 -0.4048
  828SOL    HW1 3310   0.169   2.686   0.539 -1.4686 -2.2004 -0.7080
  828SOL    HW2 3311   0.068   2.702   0.432 -0.9748 -0.4830 -0.7088
  828SOL     MW 3312   0.093   2.670   0.507 -0.6308 -0.0045 -0.4849
  829SOL     OW 3313   2.975   2.879   1.172 -0.0132  0.2188 -0.2737
  829SOL    HW1 3314   2.895   2.871   1.117 -4.0944 -0.5122 -0.9280
  829SOL    HW2 3315   3.028   2.805   1.152 -2.9650 -0.3006 -0.9703
  829SOL     MW 3316   2.972   2.868   1.162 -0.9411  0.0538 -0.4519
  830SOL     OW 3317   2.515   2.835   1.991  0.8871 -0.0746  0.0855
  830SOL    HW1 3318   2.419   2.846   1.963 -0.8604  3.1839 -0.6286
  830SOL    HW2 3319   2.563   2.809   1.912 -0.1159  1.2023 -1.6110
  830SOL     MW 3320   2.509   2.833   1.977  0.5242  0.5238 -0.2325
  831SOL     OW 3321   2.455   2.419   1.215 -0.1248 -0.2220 -0.6125
  831SOL    HW1 3322   2.434   2.354   1.287  0.3798 -1.0956  3.0185
  831SOL    HW2 3323   2.552   2.408   1.191  0.1804 -1.5820 -1.0791
  831SOL     MW 3324   2.465   2.409   1.221 -0.0179 -0.5167 -0.1950
  832SOL     OW 3325   2.410   2.116   1.919 -0.1331  0.4126 -0.6019
  832SOL    HW1 3326   2.402   2.210   1.907  1.6420  3.5032  0.1327
  832SOL    HW2 3327   2.496   2.093   1.882 -0.6552  1.2718  1.9349
  832SOL     MW 3328   2.420   2.125   1.912  0.0322  0.9337 -0.1703
  833SOL     OW 3329   1.615   2.506   0.793 -0.0558  0.3835  0.2892
  833SOL    HW1 3330   1.611   2.464   0.884  0.8993 -0.7266  1.7660
  833SOL    HW2 3331   1.541   2.568   0.791  0.9411 -1.2764 -2.6185
  833SOL     MW 3332   1.605   2.509   0.804  0.2018  0.0180  0.1004
  834SOL     OW 3333   2.225   2.415   0.601  0.4737  0.2105  0.2185
  834SOL    HW1 3334   2.199   2.327   0.624  1.6565 -0.7200 -0.7221
  834SOL    HW2 3335   2.300   2.409   0.658 -3.7745  0.6342  0.1339
  834SOL     MW 3336   2.232   2.403   0.612  0.0692  0.1436  0.0832
  835SOL     OW 3337   1.831   2.613   0.691  0.0982  0.0453 -0.1592
  835SOL    HW1 3338   1.740   2.584   0.719 -1.9660 -1.6463  2.5602
  835SOL    HW2 3339   1.898   2.548   0.734 -0.0670 -0.0516  2.7133
  835SOL     MW 3340   1.828   2.601   0.701 -0.1959 -0.1907  0.5786
  836SOL     OW 3341   2.075   2.046   1.782  0.0781 -0.1470  0.5237
  836SOL    HW1 3342   2.126   1.977   1.824  3.0592  1.7766  1.7794
  836SOL    HW2 3343   2.135   2.119   1.785 -0.9298 -1.3566  0.2339
  836SOL     MW 3344   2.090   2.046   1.788  0.3384 -0.0528  0.6511
  837SOL     OW 3345   2.074   0.210   0.670 -0.2536 -0.2504  0.1779
  837SOL    HW1 3346   2.005   0.219   0.602  2.4237 -0.3104  1.1691
  837SOL    HW2 3347   2.142   0.172   0.611 -1.3885 -1.0080 -0.3218
  837SOL     MW 3348   2.074   0.206   0.653 -0.0501 -0.3583  0.2428
  838SOL     OW 3349   2.947   2.055   0.912  0.2891 -0.0152  0.5562
  838SOL    HW1 3350   2.863   2.013   0.899 -1.4530  0.9807 -0.8812
  838SOL    HW2 3351   2.982   2.028   1.000  3.0698  0.5829  0.0754
  838SOL     MW 3352   2.941   2.046   0.922  0.4261  0.1952  0.3031
  839SOL     OW 3353   1.528   2.440   1.052 -0.0620  0.3513  0.9836
  839SOL    HW1 3354   1.500   2.525   1.092 -1.5873 -0.0796 -1.7617
  839SOL    HW2 3355   1.532   2.388   1.125 -1.1177  2.0433 -2.4881
  839SOL     MW 3356   1.525   2.445   1.067 -0.4025  0.5177  0.1634
  840SOL     OW 3357   2.375   2.102   2.323 -0.3487 -0.6446  0.1678
  840SOL    HW1 3358   2.348   2.172   2.269 -2.0130 -0.6309  1.8996
  840SOL    HW2 3359   2.428   2.138   2.396 -0.9120  2.3498 -1.3823
  840SOL     MW 3360   2.379   2.116   2.325 -0.6426 -0.2477  0.1918
  841SOL     OW 3361   2.268   2.308   0.136 -0.4938  0.6630 -0.2629
  841SOL    HW1 3362   2.248   2.393   0.104  0.1161 -0.4239 -0.8761
  841SOL    HW2 3363   2.204   2.255   0.086 -0.7620  0.3306 -1.5394
  841SOL     MW 3364   2.257   2.312   0.125 -0.4487  0.4758 -0.5122
  842SOL     OW 3365   2.660   1.970   1.459  0.1304  0.0578 -0.1046
  842SOL    HW1 3366   2.581   1.920   1.435 -0.9387  0.1584 -1.2590
  842SOL    HW2 3367   2.696   2.004   1.376  0.7686  0.6362 -0.3426
  842SOL     MW 3368   2.654   1.968   1.445  0.0736  0.1474 -0.2883
  843SOL     OW 3369   2.679   2.742   1.790 -0.0127  0.0280  0.7226
  843SOL    HW1 3370   2.766   2.720   1.821 -2.6291  0.9014  1.7846
  843SOL    HW2 3371   2.649   2.651   1.754  0.1823  1.1802  1.2838
  843SOL     MW 3372   2.687   2.727   1.789 -0.3321  0.2953  0.9367
  844SOL     OW 3373   2.699   2.345   1.111  0.5181  0.5631  0.2271
  844SOL    HW1 3374   2.688   2.390   1.023 -0.8710 -0.1282 -0.5458
  844SOL    HW2 3375   2.776   2.375   1.154 -1.6100  3.4289  0.4787
  844SOL     MW 3376   2.707   2.355   1.105  0.0540  0.8500  0.1583
  845SOL     OW 3377   2.810   2.613   0.270 -0.2292  0.0243  0.1167
  845SOL    HW1 3378   2.834   2.530   0.325 -0.5745 -2.7519 -3.0523
  845SOL    HW2 3379   2.815   2.686   0.332 -0.5284 -0.1917  0.5975
  845SOL     MW 3380   2.814   2.611   0.285 -0.3142 -0.3705 -0.2380
  846SOL     OW 3381   1.453   2.710   0.783  0.5532  0.0026 -0.1046
  846SOL    HW1 3382   1.508   2.789   0.771  0.3752  0.9617  0.2415
  846SOL    HW2 3383   1.359   2.743   0.787  0.7351 -0.2461  2.7022
  846SOL     MW 3384   1.448   2.725   0.782  0.5537  0.0964  0.3114
  847SOL     OW 3385   2.431   1.825   0.230  0.3240 -0.1535  0.2910
  847SOL    HW1 3386   2.421   1.735   0.247 -0.4509 -0.7579  0.4147
  847SOL    HW2 3387   2.427   1.840   0.139  2.1451  3.6957  3.7540
  847SOL     MW 3388   2.429   1.815   0.220  0.4620  0.2746  0.7643
  848SOL     OW 3389   2.723   2.100   1.233  0.5029 -0.0902  0.5843
  848SOL    HW1 3390   2.730   2.186   1.197  1.2711  1.9139  1.5482
  848SOL    HW2 3391   2.774   2.044   1.173 -2.7311 -2.7153 -1.0068
  848SOL     MW 3392   2.731   2.104   1.221  0.1776 -0.1721  0.5015
  849SOL     OW 3393   1.901   2.844   0.852 -0.4925  0.1136  0.5799
  849SOL    HW1 3394   1.886   2.789   0.925 -0.9207  0.1464 -0.4908
  849SOL    HW2 3395   1.875   2.789   0.772 -0.6371 -0.8647 -1.6421
  849SOL     MW 3396   1.896   2.830   0.851 -0.5681 -0.0111  0.1455
  850SOL     OW 3397   2.331   1.933   1.613  0.2054 -0.5613 -0.3455
  850SOL    HW1 3398   2.246   1.921   1.565  0.3541 -0.7114  0.8412
  850SOL    HW2 3399   2.330   2.028   1.642  0.5769  1.9000  1.0261
  850SOL     MW 3400   2.320   1.944   1.610  0.2740 -0.2563 -0.0079
  851SOL     OW 3401   2.593   2.220   0.385  0.4441  0.1858 -0.3473
  851SOL    HW1 3402   2.580   2.202   0.290  0.1681 -1.6230  0.0965
  851SOL    HW2 3403   2.530   2.285   0.417 -0.0121  0.6206  4.3641
  851SOL     MW 3404   2.583   2.226   0.377  0.3475  0.0046  0.3329
  852SOL     OW 3405   2.335   2.045   0.361 -0.0278  0.2244  0.3109
  852SOL    HW1 3406   2.373   2.113   0.303  1.3037 -0.6249 -0.4585
  852SOL    HW2 3407   2.367   1.962   0.313 -0.7639 -0.8897 -1.3287
  852SOL     MW 3408   2.344   2.043   0.347  0.0508 -0.0346 -0.0069
  853SOL     OW 3409   2.521   2.401   1.896  0.3407 -0.3521 -0.0076
  853SOL    HW1 3410   2.511   2.442   1.808 -1.7407  0.7491 -1.0556
  853SOL    HW2 3411   2.619   2.397   1.902  1.4756  1.3630 -0.3877
  853SOL     MW 3412   2.533   2.406   1.885  0.2158  0.0195 -0.1960
  854SOL     OW 3413   2.889   2.266   0.756 -0.6194  0.1702  0.0542
  854SOL    HW1 3414   2.820   2.219   0.705  0.3037  0.1751 -0.3805
  854SOL    HW2 3415   2.927   2.196   0.820 -0.1963  0.3363 -0.2613
  854SOL     MW 3416   2.885   2.251   0.757 -0.4418  0.1928 -0.0448
  855SOL     OW 3417   2.835   2.371   0.410 -0.1066  0.2000 -0.0096
  855SOL    HW1 3418   2.746   2.329   0.415 -1.4465  1.5605  0.4005
  855SOL    HW2 3419   2.895   2.292   0.398 -1.3350 -1.3271 -2.4689
  855SOL     MW 3420   2.831   2.355   0.409 -0.4454  0.1780 -0.2800
  856SOL     OW 3421   2.068   1.833   0.251 -0.8999  0.4828  0.1004
  856SOL    HW1 3422   1.974   1.833   0.266 -0.5685 -0.4023  0.8469
  856SOL    HW2 3423   2.104   1.914   0.289 -2.4000  1.1777 -1.8616
  856SOL     MW 3424   2.061   1.843   0.258 -1.0541  0.4577 -0.0600
  857SOL     OW 3425   2.487   1.929   0.586  0.3196  0.0704  0.4043
  857SOL    HW1 3426   2.445   1.968   0.511 -1.2431  0.3841  2.1405
  857SOL    HW2 3427   2.413   1.922   0.648  0.3891 -1.6651 -2.9560
  857SOL     MW 3428   2.472   1.933   0.584  0.1226 -0.1172  0.1900
  858SOL     OW 3429   2.949   2.688   1.881  0.8949  0.1358  0.8262
  858SOL    HW1 3430   3.019   2.749   1.897 -0.2455  0.3931  0.5957
  858SOL    HW2 3431   2.975   2.622   1.818 -1.9460 -1.1900 -1.1245
  858SOL     MW 3432   2.962   2.687   1.875  0.3696 -0.0052  0.5384
  859SOL     OW 3433   1.752   2.657   0.994  0.1529  0.0463  0.4275
  859SOL    HW1 3434   1.711   2.599   0.932  0.4172  1.9484  2.5882
  859SOL    HW2 3435   1.820   2.609   1.040  4.1100  1.4567  1.6688
  859SOL     MW 3436   1.756   2.643   0.992  0.7099  0.4834  0.8764
  860SOL     OW 3437   2.657   2.559   0.061  0.2887 -0.4250  0.0958
  860SOL    HW1 3438   2.718   2.589   0.134 -0.8679 -0.7230  0.2287
  860SOL    HW2 3439   2.640   2.642   0.021  0.2730  0.7507 -2.1345
  860SOL     MW 3440   2.663   2.574   0.066  0.1340 -0.3092 -0.1809
  861SOL     OW 3441   1.588   2.149   1.174 -0.4770  0.2298 -0.1834
  861SOL    HW1 3442   1.648   2.203   1.234 -1.6588  2.4142  2.2105
  861SOL    HW2 3443   1.529   2.093   1.229  0.0081  0.3797 -1.2802
  861SOL     MW 3444   1.588   2.149   1.189 -0.5690  0.5377 -0.0123
  862SOL     OW 3445   2.460   1.736   1.460  0.2578  1.0733  0.2018
  862SOL    HW1 3446   2.420   1.785   1.534  2.7960 -0.4044 -1.3302
  862SOL    HW2 3447   2.384   1.713   1.410  0.8174  0.7356  1.1932
  862SOL     MW 3448   2.445   1.740   1.463  0.6665  0.8338  0.1305
  863SOL     OW 3449   2.870   1.649   0.946 -0.1523 -0.2380  0.3194
  863SOL    HW1 3450   2.837   1.717   1.005  0.5377  1.2241  0.4762
  863SOL    HW2 3451   2.799   1.646   0.878 -1.2630 -0.7365  1.7040
  863SOL     MW 3452   2.857   1.658   0.945 -0.2078 -0.1109  0.5228
  864SOL     OW 3453   3.076   1.773   0.776  0.0103  0.4182  0.2596
  864SOL    HW1 3454   3.007   1.744   0.840  0.8909 -3.2305 -1.5023
  864SOL    HW2 3455   3.037   1.745   0.690 -0.8890  2.7377 -0.4783
  864SOL     MW 3456   3.061   1.765   0.773  0.0078  0.2428 -0.0702
  865SOL     OW 3457   2.511   2.159   0.133  0.2085  0.0231 -0.4381
  865SOL    HW1 3458   2.511   2.094   0.068 -0.2566  0.6501 -1.5152
  865SOL    HW2 3459   2.433   2.213   0.111 -3.8654  1.5720 -1.7788
  865SOL     MW 3460   2.500   2.157   0.122 -0.3904  0.3102 -0.7571
  866SOL     OW 3461   2.723   2.350   1.527 -0.2148 -0.5814 -0.2415
  866SOL    HW1 3462   2.742   2.255   1.546  0.6986 -1.2052  1.8075
  866SOL    HW2 3463   2.771   2.361   1.448  0.8669 -0.3028 -1.7359
  866SOL     MW 3464   2.731   2.339   1.519  0.0484 -0.6270 -0.1683
  867SOL     OW 3465   0.169   2.712   1.719 -0.5642 -0.4929 -0.5331
  867SOL    HW1 3466   0.230   2.775   1.757  0.5586 -0.8617  0.0676
  867SOL    HW2 3467   0.089   2.760   1.689  0.9491  0.5386  2.1851
  867SOL     MW 3468   0.166   2.727   1.720 -0.2164 -0.4054 -0.0952
  868SOL     OW 3469   2.736   2.634   0.572  0.1599 -0.8265 -0.3226
  868SOL    HW1 3470   2.730   2.544   0.552  1.0855  2.2556  1.8929
  868SOL    HW2 3471   2.674   2.675   0.512  1.0022 -1.5890 -0.8331
  868SOL     MW 3472   2.727   2.628   0.561  0.3931 -0.5204 -0.0976
  869SOL     OW 3473   1.943   2.450   1.069  0.1492  0.0374 -0.6558
  869SOL    HW1 3474   2.016   2.508   1.039  0.3575 -1.2452 -2.7224
  869SOL    HW2 3475   1.941   2.381   0.997  3.6820  2.9285 -0.4268
  869SOL     MW 3476   1.952   2.449   1.055  0.6428  0.2496 -0.8982
  870SOL     OW 3477   2.167   0.020   0.459 -0.2315  0.1000 -0.0034
  870SOL    HW1 3478   2.246   0.054   0.411  4.9172  0.6704 -0.4292
  870SOL    HW2 3479   2.207  -0.056   0.509  0.7417 -0.1396  0.0266
  870SOL     MW 3480   2.183   0.015   0.459  0.5763  0.1436 -0.0556
  871SOL     OW 3481   2.444   2.048   0.902 -0.2836  0.3124  0.1477
  871SOL    HW1 3482   2.368   1.994   0.870 -2.1769  0.0368  0.1291
  871SOL    HW2 3483   2.392   2.115   0.957 -2.1692 -0.9378  0.1927
  871SOL     MW 3484   2.427   2.050   0.905 -0.7822  0.1111  0.1512
  872SOL     OW 3485   2.110   2.468   1.616 -0.0670  0.0530 -0.1923
  872SOL    HW1 3486   2.055   2.540   1.643  0.0543 -0.9698  1.5781
  872SOL    HW2 3487   2.056   2.433   1.547  0.8872 -2.3482  1.9621
  872SOL     MW 3488   2.095   2.473   1.611  0.0749 -0.3988  0.3255
  873SOL     OW 3489   2.894   2.136   1.827  0.3652  0.0035 -0.2098
  873SOL    HW1 3490   2.895   2.200   1.898  1.6244 -0.7489 -0.5184
  873SOL    HW2 3491   2.968   2.155   1.769  1.1028 -0.1397 -1.9671
  873SOL     MW 3492   2.904   2.147   1.829  0.6287 -0.1147 -0.4824
  874SOL     OW 3493   2.328   1.420   2.380  0.6372 -0.3325 -0.2838
  874SOL    HW1 3494   2.274   1.386   2.305  1.0739  0.8373  0.8258
  874SOL    HW2 3495   2.407   1.369   2.388 -0.9830  4.2536  0.1517
  874SOL     MW 3496   2.331   1.409   2.371  0.4810  0.4269 -0.0800
  875SOL     OW 3497   2.336   2.283   1.001 -0.0799 -0.7143 -0.1203
  875SOL    HW1 3498   2.347   2.328   0.917 -2.1793 -1.1641  0.0732
  875SOL    HW2 3499   2.391   2.330   1.062 -2.3228  2.1408  0.4852
  875SOL     MW 3500   2.344   2.295   0.998 -0.6528 -0.3969 -0.0149
  876SOL     OW 3501   0.003   2.213   1.295  1.1057 -0.0925 -0.5281
  876SOL    HW1 3502   0.068   2.272   1.257  0.9117  1.4705  1.5499
  876SOL    HW2 3503   0.023   2.206   1.386 -1.2647 -0.7782  1.6156
  876SOL     MW 3504   0.014   2.219   1.302  0.7673  0.0232  0.0289
  877SOL     OW 3505   0.027   2.790   0.273  0.4629 -0.2543 -0.0857
  877SOL    HW1 3506   0.108   2.829   0.230 -0.1645  0.7985  0.5355
  877SOL    HW2 3507  -0.003   2.720   0.217  0.9330  2.5778  0.5082
  877SOL     MW 3508   0.034   2.786   0.260  0.4421  0.2583  0.0746
  878SOL     OW 3509   2.258   1.710   1.143 -0.1509  0.9438 -0.1894
  878SOL    HW1 3510   2.174   1.664   1.183 -1.8711 -2.1869  0.5017
  878SOL    HW2 3511   2.341   1.660   1.146  2.9518  0.7234  0.6567
  878SOL     MW 3512   2.258   1.697   1.149  0.0315  0.5017  0.0134
  879SOL     OW 3513   2.711   2.453   0.859  0.2210 -0.0427  0.4405
  879SOL    HW1 3514   2.783   2.518   0.856  2.5601 -1.5093 -1.1077
  879SOL    HW2 3515   2.758   2.374   0.830 -2.5940  1.7645 -0.1946
  879SOL     MW 3516   2.727   2.451   0.855  0.1582  0.0022  0.1525
  880SOL     OW 3517   2.609   2.200   0.706  0.5913 -0.0620  0.1580
  880SOL    HW1 3518   2.555   2.185   0.789  0.7293  3.7751 -1.8925
  880SOL    HW2 3519   2.573   2.141   0.643 -0.5937 -0.7019 -1.6994
  880SOL     MW 3520   2.597   2.190   0.709  0.4531  0.3598 -0.3576
  881SOL     OW 3521   2.965   2.708   0.706 -0.5320 -0.1833 -0.2550
  881SOL    HW1 3522   2.890   2.692   0.642 -1.7078 -1.7174 -2.6277
  881SOL    HW2 3523   3.042   2.676   0.666  1.7078  0.7709 -0.3392
  881SOL     MW 3524   2.965   2.702   0.692 -0.3916 -0.2598 -0.5792
  882SOL     OW 3525   2.245   2.912   1.918  0.0455 -0.6104 -0.4253
  882SOL    HW1 3526   2.246   2.921   1.822 -0.4940  0.0141 -0.0746
  882SOL    HW2 3527   2.198   2.829   1.933 -0.6384 -3.0322 -0.6750
  882SOL     MW 3528   2.239   2.902   1.907 -0.1159 -0.8476 -0.4120
  883SOL     OW 3529   2.442   2.169   1.315 -0.5038  0.4030  0.2589
  883SOL    HW1 3530   2.537   2.145   1.306 -0.3463 -0.0316  1.3004
  883SOL    HW2 3531   2.389   2.116   1.257 -1.4805 -0.3835  0.2189
  883SOL     MW 3532   2.447   2.159   1.306 -0.6119  0.2419  0.3910
  884SOL     OW 3533   1.879   1.870   1.044  0.1082 -0.1175  0.1831
  884SOL    HW1 3534   1.829   1.943   0.991  0.5905 -0.3746 -0.6138
  884SOL    HW2 3535   1.975   1.894   1.039 -0.2706 -0.0233  1.2405
  884SOL     MW 3536   1.885   1.882   1.036  0.1218 -0.1390  0.2174
  885SOL     OW 3537   2.930   2.438   1.713 -0.3559  0.3657  0.2875
  885SOL    HW1 3538   2.978   2.353   1.695  0.1211 -0.0926  0.8646
  885SOL    HW2 3539   2.857   2.436   1.651  0.3474 -1.1745  1.6912
  885SOL     MW 3540   2.927   2.426   1.703 -0.2002  0.1020  0.5488
  886SOL     OW 3541   2.896   2.386   1.292 -0.1914  0.0682  0.0261
  886SOL    HW1 3542   2.967   2.329   1.261  1.6813 -0.0374 -2.2022
  886SOL    HW2 3543   2.930   2.469   1.327 -2.0825 -1.0363  0.8147
  886SOL     MW 3544   2.910   2.390   1.293 -0.1938 -0.0914 -0.1639
  887SOL     OW 3545   2.334   2.626   1.556  0.4751 -0.2043 -0.2464
  887SOL    HW1 3546   2.348   2.640   1.461  0.6860 -0.9486 -0.7523
  887SOL    HW2 3547   2.262   2.566   1.557  0.7795 -2.0517 -1.1432
  887SOL     MW 3548   2.326   2.620   1.543  0.5431 -0.5463 -0.4315
  888SOL     OW 3549   2.075   2.201   1.425 -0.1743  0.8706  0.4485
  888SOL    HW1 3550   2.114   2.174   1.343 -2.1723 -1.7435 -1.5172
  888SOL    HW2 3551   2.145   2.195   1.493 -0.1931  0.0039 -1.3038
  888SOL     MW 3552   2.090   2.197   1.423 -0.4404  0.4114 -0.0421
  889SOL     OW 3553   2.280   1.932   2.067  0.6432 -0.2589  0.2821
  889SOL    HW1 3554   2.352   1.896   2.112 -0.7075 -1.2679 -0.5388
  889SOL    HW2 3555   2.310   2.016   2.027  0.4436  0.8711 -0.1897
  889SOL     MW 3556   2.293   1.938   2.067  0.4386 -0.2430  0.1115
  890SOL     OW 3557   0.059   2.352   0.120 -0.4230 -0.1347 -0.1741
  890SOL    HW1 3558   0.024   2.442   0.125 -0.4995 -0.8376  1.4023
  890SOL    HW2 3559   0.097   2.333   0.204  0.5385  0.5652 -0.4131
  890SOL     MW 3560   0.060   2.361   0.132 -0.3062 -0.1351  0.0023
  891SOL     OW 3561   3.009   1.962   1.200 -0.2805  0.1218  0.1418
  891SOL    HW1 3562   3.074   1.893   1.183 -0.6053  0.9105  0.1835
  891SOL    HW2 3563   3.069   2.031   1.242  2.3933 -2.9580 -1.2091
  891SOL     MW 3564   3.026   1.962   1.204  0.0294 -0.1805 -0.0309
  892SOL     OW 3565   2.433   2.359   2.739 -0.1641 -0.0376 -0.0794
  892SOL    HW1 3566   2.417   2.260   2.758 -0.9843  0.0806 -1.5873
  892SOL    HW2 3567   2.526   2.380   2.762  1.4801  0.1887  2.6424
  892SOL     MW 3568   2.443   2.348   2.745 -0.0554  0.0078  0.0807
  893SOL     OW 3569   1.630   2.335   1.390  0.3068  0.2526 -0.3560
  893SOL    HW1 3570   1.555   2.388   1.407  1.1032  0.7980  1.8113
  893SOL    HW2 3571   1.667   2.337   1.477 -3.3084 -1.6169  0.5127
  893SOL     MW 3572   1.625   2.342   1.403 -0.0651  0.0779  0.0446
  894SOL     OW 3573   2.785   1.977   0.497  0.2577 -0.3983  1.1677
  894SOL    HW1 3574   2.708   2.005   0.536  2.1724 -0.0603  0.0604
  894SOL    HW2 3575   2.756   1.943   0.413 -0.4470  1.6024  0.1114
  894SOL     MW 3576   2.771   1.976   0.491  0.4173 -0.0898  0.8822
  895SOL     OW 3577   2.187   2.163   1.194  0.2240  0.9263  0.2098
  895SOL    HW1 3578   2.208   2.237   1.130 -1.1431 -0.1213 -0.1665
  895SOL    HW2 3579   2.160   2.085   1.137  2.2855 -2.0144 -0.2528
  895SOL     MW 3580   2.186   2.163   1.178  0.3156  0.4001  0.0991
  896SOL     OW 3581   2.326   2.799   1.089  1.1013 -0.3463  0.1729
  896SOL    HW1 3582   2.364   2.741   1.157  0.9324 -0.2639 -0.7475
  896SOL    HW2 3583   2.245   2.831   1.131 -1.0533 -1.2963  0.9575
  896SOL     MW 3584   2.320   2.796   1.103  0.7947 -0.4607  0.1550
  897SOL     OW 3585   0.015   3.056   3.037  0.4129 -0.2916 -0.6751
  897SOL    HW1 3586   0.045   2.963   3.030  0.2389  0.3383  2.2855
  897SOL    HW2 3587  -0.039   3.068   2.962  1.9629  0.3598  0.3117
  897SOL     MW 3588   0.012   3.045   3.026  0.5944 -0.1225 -0.1543
  898SOL     OW 3589   2.158   0.188   1.429 -0.6974 -0.2154  0.0360
  898SOL    HW1 3590   2.119   0.099   1.436  0.9935 -0.6307  2.1584
  898SOL    HW2 3591   2.152   0.223   1.344  0.9538  1.4425 -0.0926
  898SOL     MW 3592   2.152   0.181   1.419 -0.2565 -0.0515  0.2990
  899SOL     OW 3593   3.013   2.970   0.612 -0.0174 -0.6455  0.1988
  899SOL    HW1 3594   2.992   2.887   0.652 -0.8969 -0.0230  1.2364
  899SOL    HW2 3595   2.932   3.020   0.641  0.7546 -0.6800 -0.6514
  899SOL     MW 3596   2.999   2.965   0.621 -0.0316 -0.5679  0.2235
  900SOL     OW 3597   0.175   2.373   1.138 -0.1799 -0.0193 -0.0977
  900SOL    HW1 3598   0.160   2.459   1.097 -1.2074  1.9288  1.3761
  900SOL    HW2 3599   0.165   2.308   1.065 -1.0851 -0.8781 -1.5151
  900SOL     MW 3600   0.172   2.375   1.123 -0.4349  0.1244 -0.0903
  901SOL     OW 3601   1.751   2.870   1.771  0.0451 -0.1862 -0.0553
  901SOL    HW1 3602   1.788   2.794   1.738  0.4027  1.6417 -1.6912
  901SOL    HW2 3603   1.654   2.839   1.792 -3.2382 -2.5252 -2.8213
  901SOL     MW 3604   1.743   2.856   1.770 -0.3409 -0.2536 -0.6360
  902SOL     OW 3605   2.611   2.087   1.725 -0.2053  0.0800  0.1027
  902SOL    HW1 3606   2.604   2.029   1.652  0.6831 -1.2130 -0.7240
  902SOL    HW2 3607   2.703   2.080   1.751  1.4386  0.9473  0.0398
  902SOL     MW 3608   2.622   2.078   1.719  0.1288  0.0238 -0.0147
  903SOL     OW 3609   1.545   2.654   0.535 -0.0320  0.3706 -0.1880
  903SOL    HW1 3610   1.628   2.606   0.537 -0.3438 -1.2029 -2.1572
  903SOL    HW2 3611   1.518   2.679   0.623 -3.5095  2.5705 -1.3315
  903SOL     MW 3612   1.552   2.651   0.547 -0.5320  0.4532 -0.5987
  904SOL     OW 3613   2.554   2.537   1.671 -0.1077  0.1604  0.5536
  904SOL    HW1 3614   2.469   2.573   1.630 -1.9469  0.2315 -1.3316
  904SOL    HW2 3615   2.598   2.482   1.601 -1.4657 -0.4107  0.6435
  904SOL     MW 3616   2.549   2.535   1.656 -0.5296  0.0944  0.3167
  905SOL     OW 3617   2.335   2.509   2.084 -0.1313  0.1156  0.3302
  905SOL    HW1 3618   2.404   2.453   2.045 -0.3232 -0.2590 -3.4396
  905SOL    HW2 3619   2.300   2.443   2.149 -0.4880 -1.3122 -1.0420
  905SOL     MW 3620   2.339   2.493   2.088 -0.2037 -0.1222 -0.3482
  906SOL     OW 3621   2.412   2.471   0.787 -0.4642 -0.6979  0.5631
  906SOL    HW1 3622   2.503   2.453   0.782 -1.4987 -0.0428  0.3596
  906SOL    HW2 3623   2.396   2.566   0.801 -1.6445  0.8500 -0.0551
  906SOL     MW 3624   2.422   2.481   0.788 -0.7564 -0.4072  0.4547
  907SOL     OW 3625   2.666   2.737   1.329 -0.2031  0.1355  0.4504
  907SOL    HW1 3626   2.674   2.817   1.376 -2.1916 -0.2948 -5.3270
  907SOL    HW2 3627   2.687   2.761   1.237  2.0057  2.9454 -2.7986
  907SOL     MW 3628   2.670   2.751   1.323 -0.1740  0.4495 -0.7406
  908SOL     OW 3629   2.680   2.311   3.070 -0.0686 -0.3610  0.0139
  908SOL    HW1 3630   2.636   2.258   3.129  0.7006 -0.4691  3.3155
  908SOL    HW2 3631   2.649   2.398   3.099  0.0942 -0.9528 -1.1166
  908SOL     MW 3632   2.670   2.315   3.082  0.0544 -0.4533  0.3003
  909SOL     OW 3633   1.713   0.099   1.305  0.1130  0.0236 -0.0098
  909SOL    HW1 3634   1.698   0.191   1.281  0.4693 -0.7579  0.9633
  909SOL    HW2 3635   1.658   0.082   1.389 -0.6399  1.8777 -1.1313
  909SOL     MW 3636   1.704   0.109   1.313  0.0606  0.1651 -0.0294
  910SOL     OW 3637   2.136   1.640   0.445  0.1912 -0.1929  0.5177
  910SOL    HW1 3638   2.094   1.556   0.433 -1.7712  3.3043  1.5493
  910SOL    HW2 3639   2.083   1.698   0.385  0.4479  0.5014  1.3435
  910SOL     MW 3640   2.124   1.636   0.436 -0.0338  0.3602  0.7628
  911SOL     OW 3641   2.386   2.206   1.578 -0.4254 -0.3301  0.3038
  911SOL    HW1 3642   2.474   2.203   1.610 -2.2199 -0.4071  0.6086
  911SOL    HW2 3643   2.394   2.181   1.492 -1.4374  0.1997  1.4346
  911SOL     MW 3644   2.399   2.202   1.571 -0.7957 -0.2704  0.4932
  912SOL     OW 3645   2.933   1.846   1.444  0.0576 -0.2227  0.5341
  912SOL    HW1 3646   2.977   1.873   1.356  0.5398  0.6804  0.2519
  912SOL    HW2 3647   2.854   1.902   1.443 -4.2786 -2.6696 -1.8812
  912SOL     MW 3648   2.929   1.857   1.432 -0.4509 -0.4264  0.1782
  913SOL     OW 3649   2.684   3.102   0.312  0.1285 -0.5775  0.1529
  913SOL    HW1 3650   2.772   3.066   0.306 -2.1541 -0.4900 -0.0470
  913SOL    HW2 3651   2.631   3.033   0.272  1.3678  0.5544 -0.1822
  913SOL     MW 3652   2.689   3.088   0.306 -0.0091 -0.4166  0.0823
  914SOL     OW 3653   2.641   1.774   3.054  0.0993  0.1347  0.5510
  914SOL    HW1 3654   2.706   1.841   3.021  1.0670 -0.8798  1.8366
  914SOL    HW2 3655   2.557   1.807   3.017  0.9039 -2.4903 -1.1063
  914SOL     MW 3656   2.639   1.787   3.045  0.3332 -0.3455  0.5019
  915SOL     OW 3657   1.799   0.117   0.169  0.2945 -0.0557  0.0876
  915SOL    HW1 3658   1.867   0.047   0.200  0.9029  0.3724  0.6067
  915SOL    HW2 3659   1.715   0.070   0.186  1.0582  1.7261 -2.2963
  915SOL     MW 3660   1.797   0.101   0.175  0.4755  0.2359 -0.1584
  916SOL     OW 3661   1.784   2.127   1.984 -0.1786 -0.7631  0.0711
  916SOL    HW1 3662   1.819   2.212   1.961  0.8986 -2.1771  1.5492
  916SOL    HW2 3663   1.832   2.072   1.918 -0.2451 -1.1843 -0.7351
  916SOL     MW 3664   1.795   2.131   1.972 -0.0452 -1.0052  0.1597
  917SOL     OW 3665   2.512   2.193   2.530 -0.3221 -0.1272 -0.1506
  917SOL    HW1 3666   2.477   2.269   2.575  0.1098  2.9131  1.6605
  917SOL    HW2 3667   2.600   2.219   2.516  1.0444 -0.8124  1.2712
  917SOL     MW 3668   2.519   2.207   2.534 -0.0848  0.1835  0.2759
  918SOL     OW 3669   2.030   1.607   2.676 -0.3740 -0.6205 -0.2235
  918SOL    HW1 3670   1.948   1.602   2.622 -0.3514  3.2407 -1.4832
  918SOL    HW2 3671   2.096   1.660   2.627 -1.0479 -1.5972  0.1559
  918SOL     MW 3672   2.028   1.613   2.663 -0.4599 -0.2399 -0.3397
  919SOL     OW 3673   3.052   2.395   2.287  0.1088 -0.3938 -0.2710
  919SOL    HW1 3674   2.979   2.337   2.277  1.0487  4.0892 -0.6723
  919SOL    HW2 3675   3.083   2.414   2.199  1.9324  0.1160 -1.7311
  919SOL     MW 3676   3.046   2.389   2.274  0.4734  0.2650 -0.5166
  920SOL     OW 3677   2.590   2.868   3.034 -0.1541  0.4590 -0.3251
  920SOL    HW1 3678   2.519   2.807   3.004 -0.5536  1.5886 -0.1254
  920SOL    HW2 3679   2.659   2.853   2.973  0.0899 -0.7331  1.7227
  920SOL     MW 3680   2.590   2.858   3.022 -0.1746  0.4508 -0.0286
  921SOL     OW 3681   2.411   2.584   2.595 -0.3264 -0.1051 -0.3059
  921SOL    HW1 3682   2.496   2.577   2.557 -0.8463  1.9523  0.6508
  921SOL    HW2 3683   2.403   2.506   2.651  0.2560  1.4380 -0.6698
  921SOL     MW 3684   2.421   2.572   2.597 -0.3181  0.3700 -0.2277
  922SOL     OW 3685   2.088   2.644   0.407  0.0723  0.3199  0.3111
  922SOL    HW1 3686   2.106   2.657   0.313 -0.4391 -0.1384 -2.9547
  922SOL    HW2 3687   2.135   2.558   0.423  0.5486  2.2731 -2.7298
  922SOL     MW 3688   2.096   2.635   0.397  0.0676  0.5171 -0.5210
  923SOL     OW 3689   2.221   2.862   1.652 -0.0192 -0.9338 -0.1846
  923SOL    HW1 3690   2.255   2.783   1.609 -0.6812  1.0575 -2.7972
  923SOL    HW2 3691   2.200   2.931   1.588 -0.8691 -0.1102  1.8994
  923SOL     MW 3692   2.223   2.861   1.638 -0.2187 -0.5624 -0.2544
  924SOL     OW 3693   1.070   2.725   2.613 -0.1089  0.2996 -0.5702
  924SOL    HW1 3694   1.165   2.725   2.604 -1.1707  2.9492 -0.0675
  924SOL    HW2 3695   1.051   2.639   2.653 -1.4910 -0.7474  0.7980
  924SOL     MW 3696   1.080   2.713   2.617 -0.4313  0.5110 -0.3233
  925SOL     OW 3697   2.988   0.147   2.628 -0.5992  0.5583  0.5180
  925SOL    HW1 3698   2.930   0.159   2.553 -4.3064 -1.0593 -1.0793
  925SOL    HW2 3699   2.958   0.222   2.683 -0.1528 -1.4423  0.3610
  925SOL     MW 3700   2.977   0.158   2.626 -1.0294  0.0809  0.2866
  926SOL     OW 3701   2.797   2.411   1.953 -0.4792 -0.1184  0.0571
  926SOL    HW1 3702   2.830   2.485   1.994  0.8218 -0.4275  0.1007
  926SOL    HW2 3703   2.837   2.410   1.865 -0.9196  0.0355 -0.2863
  926SOL     MW 3704   2.807   2.421   1.947 -0.3656 -0.1388  0.0175
  927SOL     OW 3705   2.359   0.119   0.297  0.0516 -0.3232 -0.2407
  927SOL    HW1 3706   2.450   0.127   0.317 -1.0979 -0.7086 -0.3811
  927SOL    HW2 3707   2.353   0.063   0.216 -3.0011  1.9565  1.4245
  927SOL     MW 3708   2.371   0.113   0.289 -0.5028 -0.0732 -0.0396
  928SOL     OW 3709   2.169   2.328   1.860  0.3927  0.1931 -0.0642
  928SOL    HW1 3710   2.175   2.394   1.789 -1.9530  1.2991  3.2664
  928SOL    HW2 3711   2.186   2.379   1.936 -0.2295  1.1196 -1.1153
  928SOL     MW 3712   2.172   2.344   1.861  0.0011  0.4613  0.2365
  929SOL     OW 3713   2.720   2.350   2.431 -0.5401  0.1580 -0.6700
  929SOL    HW1 3714   2.738   2.308   2.346  0.1665  1.2823 -1.4116
  929SOL    HW2 3715   2.796   2.335   2.489  3.5085 -1.0820 -1.4526
  929SOL     MW 3716   2.732   2.343   2.428  0.0873  0.1428 -0.8711
  930SOL     OW 3717   2.042   2.840   2.675  0.3483 -0.5506  0.3959
  930SOL    HW1 3718   2.042   2.761   2.725 -1.6998 -0.9054  0.7645
  930SOL    HW2 3719   2.137   2.867   2.658  1.1706  2.9001  0.3534
  930SOL     MW 3720   2.055   2.833   2.680  0.1865 -0.1421  0.4389
  931SOL     OW 3721   0.036   2.763   2.451 -0.2119 -0.3015  0.1206
  931SOL    HW1 3722   0.038   2.837   2.522 -0.8605 -0.0929 -0.5255
  931SOL    HW2 3723   0.125   2.766   2.412 -0.7962  2.3670  2.5594
  931SOL     MW 3724   0.048   2.773   2.455 -0.3745  0.0781  0.3571
  932SOL     OW 3725   2.760   2.041   2.448 -0.5002 -0.1052  0.2066
  932SOL    HW1 3726   2.853   2.069   2.460 -0.2696  0.7466 -0.9260
  932SOL    HW2 3727   2.750   2.001   2.361  0.3898 -2.0871  1.2879
  932SOL     MW 3728   2.771   2.039   2.438 -0.3523 -0.2543  0.1998
  933SOL     OW 3729   2.092   2.773   2.224 -0.0424  0.2343 -0.0609
  933SOL    HW1 3730   2.167   2.826   2.221 -2.7951  2.6548  1.4431
  933SOL    HW2 3731   2.016   2.839   2.210  1.6152 -0.9164  1.3051
  933SOL     MW 3732   2.092   2.788   2.222 -0.1869  0.4018  0.3178
  934SOL     OW 3733   2.005   2.662   2.453 -0.2319 -0.5044  0.0918
  934SOL    HW1 3734   2.030   2.723   2.517  0.6060  1.3460  0.3144
  934SOL    HW2 3735   2.049   2.696   2.372 -1.3469  0.3353 -2.8785
  934SOL     MW 3736   2.015   2.674   2.451 -0.2684 -0.1494 -0.2707
  935SOL     OW 3737   2.642   1.508   1.818  0.2076  0.4983  0.5288
  935SOL    HW1 3738   2.731   1.474   1.793  1.7225  0.1931 -1.4785
  935SOL    HW2 3739   2.586   1.489   1.744  0.3649  2.4336  1.0359
  935SOL     MW 3740   2.646   1.501   1.805  0.4282  0.7133  0.3308
  936SOL     OW 3741   2.925   2.215   0.021  0.1317  0.2658  0.1294
  936SOL    HW1 3742   3.003   2.270   0.049 -0.5506 -1.5114  0.5382
  936SOL    HW2 3743   2.849   2.267   0.024 -1.4552  0.5649  3.8223
  936SOL     MW 3744   2.926   2.229   0.025 -0.1677  0.0708  0.6705
  937SOL     OW 3745   1.922   2.123   2.614  0.9058 -0.4121  0.2373
  937SOL    HW1 3746   1.993   2.080   2.665  0.5316  0.2826  0.6355
  937SOL    HW2 3747   1.938   2.111   2.518  1.1511 -1.3537 -0.4068
  937SOL     MW 3748   1.934   2.115   2.608  0.8888 -0.4447  0.2049
  938SOL     OW 3749   2.221   1.817   1.837 -0.3958  0.4746  0.1302
  938SOL    HW1 3750   2.264   1.858   1.767  2.0576  0.9408 -0.9537
  938SOL    HW2 3751   2.267   1.843   1.914  0.3779  2.3934 -2.5530
  938SOL     MW 3752   2.232   1.826   1.838  0.0300  0.7893 -0.3669
  939SOL     OW 3753   2.778   1.978   2.153 -0.7155  0.1022 -0.9559
  939SOL    HW1 3754   2.831   1.938   2.084 -0.2514  0.0901 -1.1130
  939SOL    HW2 3755   2.690   1.945   2.150  0.0421 -1.3819 -2.1111
  939SOL     MW 3756   2.774   1.968   2.144 -0.5543 -0.0952 -1.1290
  940SOL     OW 3757   2.220   0.080   2.773  0.0891  0.0589  0.2099
  940SOL    HW1 3758   2.250   0.016   2.704  1.2386  0.8068 -1.0446
  940SOL    HW2 3759   2.288   0.108   2.836 -2.3585  2.5504 -0.2047
  940SOL     MW 3760   2.233   0.075   2.772 -0.0822  0.4863 -0.0103
  941SOL     OW 3761   0.115   2.448   2.053 -0.4315 -0.3349 -0.9723
  941SOL    HW1 3762   0.211   2.411   2.062  0.8759  0.2262 -0.4374
  941SOL    HW2 3763   0.095   2.439   1.963 -2.6478  0.6731 -0.3344
  941SOL     MW 3764   0.125   2.442   2.042 -0.5515 -0.1279 -0.8175
  942SOL     OW 3765   2.791   2.260   2.182 -0.4931 -0.0165  0.4087
  942SOL    HW1 3766   2.783   2.313   2.098  1.7667 -1.3211  3.7628
  942SOL    HW2 3767   2.790   2.163   2.168  3.4199  2.2063  1.1102
  942SOL     MW 3768   2.790   2.254   2.169  0.3213  0.1046  0.9438
  943SOL     OW 3769   0.350   2.178   2.273  0.3336  0.2094  0.6812
  943SOL    HW1 3770   0.271   2.184   2.329 -1.5412  2.5093  2.9175
  943SOL    HW2 3771   0.422   2.139   2.324  0.3149 -0.3494  0.7923
  943SOL     MW 3772   0.349   2.174   2.287  0.0838  0.4391  0.9909
  944SOL     OW 3773   2.125   2.670   1.981 -0.1472  0.8095 -0.1461
  944SOL    HW1 3774   2.187   2.601   1.996  0.2505  1.3208 -0.0603
  944SOL    HW2 3775   2.100   2.707   2.075 -1.0130 -1.3987  0.1038
  944SOL     MW 3776   2.130   2.666   1.995 -0.2089  0.5856 -0.1018
  945SOL     OW 3777   2.746   2.675   2.887  0.1441 -0.1514  0.1215
  945SOL    HW1 3778   2.702   2.581   2.872  1.4009 -0.2568 -0.2364
  945SOL    HW2 3779   2.753   2.716   2.796 -0.8794  0.1298  0.7103
  945SOL     MW 3780   2.741   2.668   2.873  0.1749 -0.1282  0.1519
  946SOL     OW 3781   2.452   2.717   2.236  0.5570 -0.2647 -0.4404
  946SOL    HW1 3782   2.474   2.752   2.158 -1.2883 -0.6878  3.9679
  946SOL    HW2 3783   2.395   2.642   2.205  0.9596  0.3427 -0.8679
  946SOL     MW 3784   2.448   2.712   2.221  0.3666 -0.2404  0.0849
  947SOL     OW 3785   2.035   3.032   0.202 -0.0936 -0.2278 -0.2834
  947SOL    HW1 3786   2.038   2.945   0.172 -2.2126 -0.0949 -1.6486
  947SOL    HW2 3787   2.077   3.026   0.295  0.7849  2.5090  0.3989
  947SOL     MW 3788   2.041   3.020   0.211 -0.2573  0.1508 -0.3735
  948SOL     OW 3789   1.818   3.036   2.629  0.0164 -0.2627 -0.2274
  948SOL    HW1 3790   1.888   2.969   2.640  1.0140 -0.7874 -0.1683
  948SOL    HW2 3791   1.810   3.052   2.532  1.1591  2.6480 -0.5851
  948SOL     MW 3792   1.826   3.030   2.618  0.2988  0.0521 -0.2668
  949SOL     OW 3793   2.516   1.892   2.214  0.0164  0.4030 -0.6736
  949SOL    HW1 3794   2.511   1.816   2.273 -0.1559 -0.3381 -0.1793
  949SOL    HW2 3795   2.477   1.967   2.262  1.8242  1.1093  1.8840
  949SOL     MW 3796   2.510   1.892   2.228  0.2322  0.3984 -0.2709
  950SOL     OW 3797   2.287   2.448   2.946 -0.4649 -0.1400  0.1535
  950SOL    HW1 3798   2.332   2.403   2.875  1.1736  3.6543 -0.4455
  950SOL    HW2 3799   2.209   2.491   2.906 -2.9496 -0.6904 -2.4423
  950SOL     MW 3800   2.283   2.448   2.932 -0.5765  0.2880 -0.2680
  951SOL     OW 3801   3.020   2.226   2.864  0.1380 -0.0057 -0.0985
  951SOL    HW1 3802   2.976   2.193   2.939  1.1036  1.7776 -1.3905
  951SOL    HW2 3803   3.108   2.246   2.896  3.5147 -2.1806 -2.2916
  951SOL     MW 3804   3.026   2.225   2.878  0.7109 -0.0573 -0.5583
  952SOL     OW 3805   3.064   1.734   2.118  0.2917 -0.1191 -0.0612
  952SOL    HW1 3806   3.015   1.778   2.046  0.4597  1.8216 -0.7905
  952SOL    HW2 3807   3.133   1.800   2.142  0.0794 -0.4929  1.2949
  952SOL     MW 3808   3.067   1.748   2.112  0.2859  0.0876  0.0215
  953SOL     OW 3809   1.902   1.771   2.871 -0.3791 -0.0636 -0.6593
  953SOL    HW1 3810   1.849   1.713   2.931  0.1526 -0.8207  2.5790
  953SOL    HW2 3811   1.958   1.706   2.826  0.1720  1.6788 -1.1049
  953SOL     MW 3812   1.903   1.755   2.873 -0.2362  0.0664 -0.2909
  954SOL     OW 3813   2.409   2.102   2.839  0.0046 -0.6486 -0.6307
  954SOL    HW1 3814   2.319   2.085   2.808 -0.3929 -0.3432  0.8763
  954SOL    HW2 3815   2.473   2.040   2.789 -0.2134 -3.0018  1.7371
  954SOL     MW 3816   2.406   2.091   2.829 -0.0766 -0.9188 -0.1195
  955SOL     OW 3817   1.550   1.551   2.573 -1.4936  0.4842  0.0013
  955SOL    HW1 3818   1.543   1.559   2.479 -1.3864 -1.6215  4.9688
  955SOL    HW2 3819   1.644   1.576   2.586 -0.5381 -1.7080  1.9563
  955SOL     MW 3820   1.562   1.556   2.563 -1.3534 -0.0829  0.9147
  956SOL     OW 3821   2.682   2.410   2.818  0.0600 -0.7425 -0.4046
  956SOL    HW1 3822   2.670   2.353   2.892 -3.3915  1.5282 -0.9185
  956SOL    HW2 3823   2.767   2.390   2.776 -0.0863  3.3047  3.2059
  956SOL     MW 3824   2.692   2.400   2.822 -0.4147  0.0911  0.0040
  957SOL     OW 3825   2.277   2.838   0.535  0.0865 -0.1337  0.1543
  957SOL    HW1 3826   2.222   2.765   0.509 -1.6174  0.0788 -3.3514
  957SOL    HW2 3827   2.279   2.839   0.629  2.7498  1.3176 -3.6120
  957SOL     MW 3828   2.270   2.828   0.544  0.2131  0.0858 -0.8052
  958SOL     OW 3829   2.065   2.559   2.849 -0.3728  0.5024 -0.4268
  958SOL    HW1 3830   2.007   2.509   2.794  1.4343  1.5556  1.1362
  958SOL    HW2 3831   2.024   2.547   2.939  0.5761  1.2107  1.0436
  958SOL     MW 3832   2.052   2.551   2.854 -0.0091  0.7348 -0.0266
  959SOL     OW 3833   2.539   2.757   0.425 -0.1444  0.2612  0.0856
  959SOL    HW1 3834   2.561   2.808   0.342  0.8611 -0.6050  0.7423
  959SOL    HW2 3835   2.476   2.807   0.472  0.0467 -1.0676 -0.6872
  959SOL     MW 3836   2.534   2.770   0.420  0.0135 -0.0284  0.0703
  960SOL     OW 3837   1.899   2.385   2.311 -0.6253 -0.1501  0.3002
  960SOL    HW1 3838   1.941   2.301   2.322  1.0689 -0.5414 -0.9397
  960SOL    HW2 3839   1.830   2.388   2.377 -2.9757  2.3376  0.0345
  960SOL     MW 3840   1.895   2.374   2.321 -0.7119  0.1265  0.1016
  961SOL     OW 3841   2.217   2.338   2.248 -0.0702 -0.0549 -0.5351
  961SOL    HW1 3842   2.127   2.308   2.232 -0.3374  1.0748 -0.3528
  961SOL    HW2 3843   2.195   2.373   2.341 -1.8086  0.9812  0.3966
  961SOL     MW 3844   2.202   2.339   2.258 -0.3348  0.2308 -0.3881
  962SOL     OW 3845   2.155   2.030   2.778  0.0739 -0.2097 -0.6433
  962SOL    HW1 3846   2.138   1.980   2.858  2.5882  0.8061 -1.7345
  962SOL    HW2 3847   2.193   1.985   2.701  0.1694 -0.4152 -0.6305
  962SOL     MW 3848   2.158   2.017   2.779  0.4182 -0.1028 -0.7856
  963SOL     OW 3849   1.843   2.535   2.090 -0.0242 -0.3195  0.2208
  963SOL    HW1 3850   1.855   2.488   2.176  2.7985 -1.1897  0.7122
  963SOL    HW2 3851   1.875   2.474   2.023 -2.2760  0.8543  0.3648
  963SOL     MW 3852   1.849   2.521   2.093  0.0511 -0.2794  0.3046
  964SOL     OW 3853   1.786   1.892   2.639 -0.3669  0.5068 -0.6325
  964SOL    HW1 3854   1.828   1.973   2.608 -1.2601 -2.5555 -0.0521
  964SOL    HW2 3855   1.838   1.852   2.708 -0.2572 -3.5974 -2.5570
  964SOL     MW 3856   1.799   1.898   2.644 -0.4703 -0.4388 -0.8098
  965SOL     OW 3857   2.138   2.574   0.870 -0.1705 -0.6087  0.4000
  965SOL    HW1 3858   2.174   2.522   0.799 -0.6381  0.1584  0.1673
  965SOL    HW2 3859   2.178   2.662   0.858 -4.3943  0.3383 -0.3864
  965SOL     MW 3860   2.148   2.579   0.859 -0.7894 -0.3825  0.2655
  966SOL     OW 3861   2.656   2.617   2.409 -0.5859 -0.1586 -0.3722
  966SOL    HW1 3862   2.578   2.630   2.358  3.0007  0.7354 -1.5733
  966SOL    HW2 3863   2.678   2.522   2.411  2.9175  0.0466 -0.2738
  966SOL     MW 3864   2.648   2.606   2.403  0.3495 -0.0136 -0.5177
  967SOL     OW 3865   2.658   0.042   3.100 -0.0112 -0.4322  0.4149
  967SOL    HW1 3866   2.649  -0.048   3.058  2.4721  1.6323  0.5645
  967SOL    HW2 3867   2.609   0.090   3.031 -2.8615  1.8604  1.2195
  967SOL     MW 3868   2.650   0.036   3.085 -0.0596  0.1427  0.5408
  968SOL     OW 3869   3.019   2.651   2.933 -0.4204 -0.7146  0.3065
  968SOL    HW1 3870   2.924   2.655   2.938 -0.1591 -1.1428  1.4401
  968SOL    HW2 3871   3.039   2.607   2.849  4.6887 -0.5330 -0.8068
  968SOL     MW 3872   3.010   2.646   2.922  0.2882 -0.7471  0.3092
  969SOL     OW 3873   1.583   2.100   1.728  0.2604 -0.1430 -0.0241
  969SOL    HW1 3874   1.655   2.039   1.732 -2.3278 -0.7598 -2.6004
  969SOL    HW2 3875   1.554   2.123   1.820  0.1022 -2.8815 -1.5784
  969SOL     MW 3876   1.589   2.095   1.741 -0.1020 -0.5857 -0.5691
  970SOL     OW 3877   1.736   1.791   1.860  0.3325 -0.3698  0.0489
  970SOL    HW1 3878   1.779   1.718   1.907 -0.0437 -2.9559 -0.4381
  970SOL    HW2 3879   1.647   1.810   1.892  1.2071 -1.0090 -1.4816
  970SOL     MW 3880   1.730   1.784   1.870  0.3983 -0.7953 -0.2173
  971SOL     OW 3881   1.763   0.004   2.361  0.0392  0.2492  0.0698
  971SOL    HW1 3882   1.829  -0.041   2.300  1.4732 -1.5880 -0.1996
  971SOL    HW2 3883   1.796   0.093   2.366  1.7132 -3.0531 -1.7542
  971SOL     MW 3884   1.776   0.010   2.353  0.4493 -0.4289 -0.2064
  972SOL     OW 3885   0.298   2.828   2.418  0.0340 -0.0808  0.3482
  972SOL    HW1 3886   0.346   2.756   2.453 -2.8013  2.0951  1.4012
  972SOL    HW2 3887   0.334   2.910   2.460 -0.9395  1.9996 -0.9573
  972SOL     MW 3888   0.309   2.830   2.428 -0.4685  0.4808  0.3149
  973SOL     OW 3889   2.619   3.024   2.152  0.3257  0.0484  0.2486
  973SOL    HW1 3890   2.588   2.945   2.099  0.4354  2.2831  1.1673
  973SOL    HW2 3891   2.658   3.084   2.085 -1.6468  2.3661  0.9071
  973SOL     MW 3892   2.620   3.021   2.136  0.0799  0.6491  0.4567
  974SOL     OW 3893   2.011   0.140   2.606  0.1895 -0.0034  0.4149
  974SOL    HW1 3894   2.077   0.126   2.676 -1.7213 -0.9562 -1.2494
  974SOL    HW2 3895   1.954   0.064   2.607 -1.4590  1.3827  0.0559
  974SOL     MW 3896   2.013   0.128   2.615 -0.2801  0.0538  0.1480
  975SOL     OW 3897   2.172   2.457   2.505 -0.4760 -0.6386 -0.1655
  975SOL    HW1 3898   2.259   2.476   2.528 -0.2586  0.8772  0.7875
  975SOL    HW2 3899   2.119   2.539   2.483  0.4942  1.7132 -0.9586
  975SOL     MW 3900   2.176   2.471   2.505 -0.3193 -0.1283 -0.1444
  976SOL     OW 3901   0.161   0.350   1.592 -0.2797  0.2107  0.4121
  976SOL    HW1 3902   0.234   0.289   1.612 -0.7438 -0.2944 -1.3452
  976SOL    HW2 3903   0.094   0.281   1.590  0.8046 -2.1102  1.3157
  976SOL     MW 3904   0.162   0.333   1.595 -0.1979 -0.1622  0.2995
  977SOL     OW 3905   1.751   2.742   2.386 -0.2525 -0.0952 -0.0578
  977SOL    HW1 3906   1.837   2.699   2.413  1.9258  0.7230  3.6953
  977SOL    HW2 3907   1.751   2.821   2.437  0.9871  0.7851  1.4824
  977SOL     MW 3908   1.763   2.747   2.396  0.1985  0.1289  0.6406
   3.10000   3.10000   3.10000
