977 TIP4P/2005f water molecules t=   1.84000 step= 1840
 3908
    1SOL     OW    1   0.394   0.766   0.107  0.6937  0.1575  0.6657
    1SOL    HW1    2   0.315   0.742   0.065  1.3012  0.0783 -0.1980
    1SOL    HW2    3   0.419   0.690   0.164 -1.7354 -2.3900 -0.2463
    1SOL     MW    4   0.387   0.753   0.109  0.4533 -0.1891  0.4314
    2SOL     OW    5   0.276   2.987   1.099 -0.3640 -0.0301  0.2038
    2SOL    HW1    6   0.324   3.072   1.105 -0.0932  1.1458  1.2751
    2SOL    HW2    7   0.183   3.006   1.097  1.2441  0.3124 -1.4503
    2SOL     MW    8   0.270   3.000   1.100 -0.1161  0.1703  0.1269
    3SOL     OW    9   2.705   0.328   0.941  0.6952 -0.4260 -0.7911
    3SOL    HW1   10   2.745   0.411   0.907 -0.6918 -1.1600  0.5528
    3SOL    HW2   11   2.677   0.350   1.038 -0.4530  1.1462  4.9089
    3SOL     MW   12   2.706   0.342   0.949  0.3607 -0.3154  0.1383
    4SOL     OW   13   2.941   1.711   0.544  0.3016  0.3903  0.2067
    4SOL    HW1   14   2.911   1.788   0.495  1.6267  0.6219 -3.3345
    4SOL    HW2   15   3.017   1.688   0.487  0.5114 -1.0436 -0.8777
    4SOL     MW   16   2.947   1.718   0.530  0.5041  0.2317 -0.4036
    5SOL     OW   17   1.614   1.447   0.611  0.4097  0.8426  0.0577
    5SOL    HW1   18   1.653   1.431   0.697  0.2095 -1.3489  0.8177
    5SOL    HW2   19   1.527   1.463   0.641 -2.0011 -1.0683 -0.4579
    5SOL     MW   20   1.607   1.447   0.626  0.0652  0.3014  0.0899
    6SOL     OW   21   0.780   1.421   0.606 -0.3259 -0.0789  0.0365
    6SOL    HW1   22   0.702   1.417   0.559 -1.0110  0.6353 -0.3065
    6SOL    HW2   23   0.794   1.338   0.656 -1.9408 -0.3992  0.9050
    6SOL     MW   24   0.772   1.410   0.606 -0.6294 -0.0269  0.1059
    7SOL     OW   25   1.966   1.034   0.031  0.7913  0.0509 -0.0065
    7SOL    HW1   26   2.043   1.081   0.054 -0.1497 -0.0111 -1.8871
    7SOL    HW2   27   1.940   0.998   0.123 -1.7101 -0.3859  3.2869
    7SOL     MW   28   1.973   1.035   0.046  0.3371 -0.0149  0.1799
    8SOL     OW   29   0.827   1.397   0.997  0.5490 -0.4448 -0.3314
    8SOL    HW1   30   0.911   1.446   1.008 -1.0264 -0.5229 -2.2336
    8SOL    HW2   31   0.801   1.355   1.079 -1.7344  0.3732  1.6044
    8SOL     MW   32   0.835   1.398   1.009  0.0399 -0.3472 -0.3270
    9SOL     OW   33   0.889   0.543   1.303 -0.6952  0.2198 -0.4655
    9SOL    HW1   34   0.845   0.459   1.281  2.1124 -0.4571 -0.2196
    9SOL    HW2   35   0.953   0.530   1.373  0.4144  0.4185 -1.1913
    9SOL     MW   36   0.892   0.530   1.309 -0.1783  0.1567 -0.5288
   10SOL     OW   37   0.314   0.811   0.505 -0.1111 -0.3152  0.3257
   10SOL    HW1   38   0.404   0.849   0.493  1.1133  1.4019  2.3001
   10SOL    HW2   39   0.263   0.863   0.572  0.9454 -0.9407 -1.6780
   10SOL     MW   40   0.319   0.823   0.512  0.1899 -0.1711  0.3218
   11SOL     OW   41   0.747   1.121   1.497 -0.3163 -0.0227  0.0721
   11SOL    HW1   42   0.825   1.145   1.549 -0.6429 -0.4197  4.9019
   11SOL    HW2   43   0.789   1.039   1.464  0.9916 -0.6562  0.6138
   11SOL     MW   44   0.762   1.113   1.500 -0.1868 -0.1587  0.7808
   12SOL     OW   45   0.040   1.088   0.915 -0.9814 -0.0586 -0.1924
   12SOL    HW1   46   0.066   1.168   0.960 -0.2985  2.4630 -1.7728
   12SOL    HW2   47  -0.024   1.122   0.844 -0.0941 -0.7939 -0.2969
   12SOL     MW   48   0.035   1.103   0.911 -0.7742  0.1771 -0.4147
   13SOL     OW   49   1.841   1.411   1.323  0.1331  0.3886 -0.5847
   13SOL    HW1   50   1.871   1.324   1.287  0.3919 -0.1599  1.0742
   13SOL    HW2   51   1.912   1.472   1.294  1.0474 -2.1257 -2.9447
   13SOL     MW   52   1.854   1.408   1.315  0.2879 -0.0155 -0.6772
   14SOL     OW   53   0.586   0.270   1.827  0.2366 -0.1812  0.2474
   14SOL    HW1   54   0.604   0.206   1.757  1.4871 -1.2977  3.6396
   14SOL    HW2   55   0.649   0.335   1.804 -2.8740 -1.2276 -0.6633
   14SOL     MW   56   0.596   0.270   1.815 -0.0088 -0.4666  0.5748
   15SOL     OW   57   2.054   0.431   0.948 -0.0395 -0.4249 -0.2472
   15SOL    HW1   58   2.086   0.515   0.988  0.7116 -1.8044  1.3617
   15SOL    HW2   59   2.051   0.441   0.850 -1.1519 -2.6749 -1.6841
   15SOL     MW   60   2.058   0.443   0.941 -0.0872 -0.9037 -0.2245
   16SOL     OW   61   0.201   1.836   0.259  0.0499  0.0199  0.3305
   16SOL    HW1   62   0.270   1.782   0.229  0.5233 -0.9923 -2.6546
   16SOL    HW2   63   0.246   1.909   0.306  0.6970  0.6066 -1.1809
   16SOL     MW   64   0.216   1.839   0.261  0.1977 -0.0363 -0.2627
   17SOL     OW   65   1.119   0.896   1.407 -0.0343 -0.1407 -0.2993
   17SOL    HW1   66   1.141   0.879   1.500  2.1542 -0.2649  0.8717
   17SOL    HW2   67   1.018   0.889   1.405  0.1467  0.8975 -1.0360
   17SOL     MW   68   1.109   0.893   1.419  0.2783 -0.0201 -0.2420
   18SOL     OW   69   0.053   1.648   0.361 -0.6246 -0.3604  0.0817
   18SOL    HW1   70   0.110   1.727   0.332 -0.6967 -0.9669 -0.3545
   18SOL    HW2   71   0.024   1.624   0.273  1.5612 -1.6156  0.8900
   18SOL     MW   72   0.057   1.655   0.346 -0.3457 -0.6060  0.1308
   19SOL     OW   73   0.080   1.365   0.961 -0.4385  0.6471  0.0418
   19SOL    HW1   74   0.099   1.401   0.874  0.0835  0.6372 -1.5606
   19SOL    HW2   75  -0.015   1.376   0.972 -2.1394 -1.1431  0.6387
   19SOL     MW   76   0.070   1.371   0.951 -0.5940  0.4096 -0.0909
   20SOL     OW   77   0.449   2.119   1.271 -0.1461  0.0384  0.3383
   20SOL    HW1   78   0.392   2.054   1.232 -0.2515 -0.8572 -1.7798
   20SOL    HW2   79   0.409   2.128   1.357  2.3715  1.4395 -0.5441
   20SOL     MW   80   0.436   2.112   1.277  0.1722  0.1051 -0.0576
   21SOL     OW   81   0.562   0.922   0.445  0.5097  0.0865  0.1455
   21SOL    HW1   82   0.625   0.865   0.488 -5.0012  1.3334 -0.2952
   21SOL    HW2   83   0.600   0.938   0.355  0.5628 -1.2104 -0.7338
   21SOL     MW   84   0.576   0.917   0.438 -0.2104  0.0799 -0.0287
   22SOL     OW   85   1.545   0.727   0.986 -0.0967  0.0721 -0.6438
   22SOL    HW1   86   1.556   0.698   0.894 -0.4513  1.7375 -1.8215
   22SOL    HW2   87   1.448   0.740   0.999 -0.6983  2.0075 -1.7976
   22SOL     MW   88   1.534   0.725   0.976 -0.2229  0.5472 -0.9514
   23SOL     OW   89   3.081   0.811   0.688  0.1180 -0.1737  0.2423
   23SOL    HW1   90   3.136   0.751   0.747  3.4436 -1.1148 -1.5970
   23SOL    HW2   91   3.139   0.885   0.662  2.9184  0.0218  0.2997
   23SOL     MW   92   3.096   0.813   0.693  0.9263 -0.2721  0.0072
   24SOL     OW   93   2.065   2.138   0.071 -1.0821  0.5345  0.2696
   24SOL    HW1   94   2.012   2.135   0.154  0.2589 -0.9718 -0.8763
   24SOL    HW2   95   2.097   2.056   0.040  2.0853  2.5152  1.1463
   24SOL     MW   96   2.062   2.127   0.078 -0.4872  0.5971  0.2341
   25SOL     OW   97   0.232   1.454   0.389 -0.0647 -0.3238 -0.4190
   25SOL    HW1   98   0.146   1.522   0.388 -3.0089  2.3889 -0.8964
   25SOL    HW2   99   0.253   1.452   0.300 -0.2863  4.7165  2.1007
   25SOL     MW  100   0.223   1.463   0.377 -0.4824  0.6991 -0.1495
   26SOL     OW  101   1.971   1.030   0.306 -0.3266 -0.1211 -0.0646
   26SOL    HW1  102   1.932   1.079   0.382  1.3245  0.0992  0.9557
   26SOL    HW2  103   2.047   1.086   0.284 -1.1554  2.0591 -0.2758
   26SOL     MW  104   1.976   1.043   0.313 -0.2181  0.1956  0.0421
   27SOL     OW  105   1.860   1.372   0.119 -0.0130  0.1504  0.1458
   27SOL    HW1  106   1.791   1.436   0.142 -0.2602  1.2176 -0.2782
   27SOL    HW2  107   1.914   1.360   0.196  0.5512  0.1444 -1.2421
   27SOL     MW  108   1.858   1.379   0.132  0.0288  0.2904 -0.0933
   28SOL     OW  109   0.440   0.935   2.058 -0.2232  0.0883  0.5303
   28SOL    HW1  110   0.466   0.935   2.150 -1.5276 -1.4714  2.3693
   28SOL    HW2  111   0.362   0.883   2.043  3.4739 -0.9745 -0.7194
   28SOL     MW  112   0.433   0.928   2.068  0.0925 -0.2577  0.6081
   29SOL     OW  113   0.171   1.430   0.701  0.2636 -0.4738 -0.2709
   29SOL    HW1  114   0.193   1.524   0.695  0.4503 -1.8051  1.8315
   29SOL    HW2  115   0.191   1.401   0.612 -3.3528  1.1262 -1.8589
   29SOL     MW  116   0.176   1.438   0.688 -0.1889 -0.4383 -0.2030
   30SOL     OW  117   0.718   1.268   1.230 -0.7786 -0.3309 -0.2934
   30SOL    HW1  118   0.623   1.275   1.230  0.2789  1.2152 -0.6040
   30SOL    HW2  119   0.735   1.230   1.315 -3.1705  3.0856 -0.5704
   30SOL     MW  120   0.708   1.264   1.241 -0.9546  0.3239 -0.3710
   31SOL     OW  121   0.493   0.254   0.196  0.2718  0.2855 -0.3017
   31SOL    HW1  122   0.490   0.183   0.255  0.1749  3.2405 -1.5339
   31SOL    HW2  123   0.480   0.215   0.107 -2.3090  0.7067  0.8962
   31SOL     MW  124   0.491   0.240   0.192 -0.0815  0.7310 -0.3062
   32SOL     OW  125   2.755   0.995   1.086  0.0952  0.5895  0.4362
   32SOL    HW1  126   2.691   0.923   1.083 -1.6255 -3.6202 -0.3915
   32SOL    HW2  127   2.845   0.941   1.081  2.6661  0.4545 -4.2037
   32SOL     MW  128   2.758   0.979   1.085  0.2074  0.0163 -0.2852
   33SOL     OW  129   1.620   1.221   0.415  0.5197 -0.0019  0.1639
   33SOL    HW1  130   1.712   1.225   0.434  0.1991  1.6954 -4.0221
   33SOL    HW2  131   1.587   1.289   0.474  1.1449  0.4640  2.1938
   33SOL     MW  132   1.628   1.230   0.425  0.5599  0.2835 -0.1206
   34SOL     OW  133   1.141   1.993   1.188  0.8474 -0.0077  0.3237
   34SOL    HW1  134   1.056   2.001   1.237 -2.7064  0.6334 -2.7493
   34SOL    HW2  135   1.208   2.001   1.247  0.2860  1.9835  2.9451
   34SOL     MW  136   1.138   1.995   1.203  0.3044  0.3396  0.2641
   35SOL     OW  137   0.315   0.146   1.670 -0.0160  0.0508 -0.1355
   35SOL    HW1  138   0.349   0.173   1.754  2.0479  1.3462 -1.3495
   35SOL    HW2  139   0.304   0.051   1.673 -1.2342  1.5457  1.8405
   35SOL     MW  140   0.318   0.137   1.682  0.0956  0.4189 -0.0350
   36SOL     OW  141   1.952   1.997   0.582  0.2125  0.1118 -0.1725
   36SOL    HW1  142   1.941   1.980   0.489  0.7785  0.4237 -4.1436
   36SOL    HW2  143   1.990   1.909   0.606 -0.3183  0.7044 -1.5748
   36SOL     MW  144   1.955   1.983   0.573  0.2171  0.2312 -0.8815
   37SOL     OW  145   1.733   2.081   0.946 -0.4185  0.2619  0.5623
   37SOL    HW1  146   1.657   2.020   0.926  0.8023 -0.5416 -0.0302
   37SOL    HW2  147   1.715   2.101   1.033  2.1293 -2.4174 -1.5318
   37SOL     MW  148   1.720   2.076   0.954  0.0787 -0.1976  0.2078
   38SOL     OW  149   2.811   0.992   0.033  0.2915 -0.1350  0.4829
   38SOL    HW1  150   2.856   0.965   0.114  1.8894  0.8091 -1.2662
   38SOL    HW2  151   2.875   0.987  -0.048  1.1188  1.0994 -0.2653
   38SOL     MW  152   2.825   0.988   0.033  0.6115  0.1524  0.1534
   39SOL     OW  153   1.554   0.652   0.732 -0.1516 -0.4669 -0.1298
   39SOL    HW1  154   1.523   0.567   0.702 -0.1387  1.5493  1.3405
   39SOL    HW2  155   1.478   0.707   0.721  2.5956 -0.5789 -0.9034
   39SOL     MW  156   1.540   0.648   0.727  0.2126 -0.2157 -0.0379
   40SOL     OW  157   1.277   1.874   0.240 -0.0519  0.0134  0.0616
   40SOL    HW1  158   1.345   1.824   0.284  1.2434  2.3997 -0.2495
   40SOL    HW2  159   1.216   1.901   0.310  1.8494 -0.4087 -0.0481
   40SOL     MW  160   1.278   1.871   0.255  0.3699  0.2726  0.0061
   41SOL     OW  161   0.512   0.497   1.593  0.0807  0.1373  0.1978
   41SOL    HW1  162   0.559   0.556   1.527  0.2460  0.8376 -1.8936
   41SOL    HW2  163   0.433   0.551   1.589 -2.2865  0.9068 -0.8041
   41SOL     MW  164   0.508   0.512   1.584 -0.2098  0.3312 -0.2103
   42SOL     OW  165   1.239   2.904   1.997 -0.2077  0.4514 -0.1439
   42SOL    HW1  166   1.181   2.887   2.065  2.2747  1.0642 -2.0222
   42SOL    HW2  167   1.321   2.852   2.028  0.2188  0.6196  0.5367
   42SOL     MW  168   1.242   2.895   2.010  0.1761  0.5545 -0.3020
   43SOL     OW  169   1.385   0.129   1.697 -0.3609  0.1773 -0.0084
   43SOL    HW1  170   1.462   0.086   1.655  0.9489  2.7371 -2.0748
   43SOL    HW2  171   1.329   0.053   1.709  1.2634 -0.8445  2.5726
   43SOL     MW  172   1.388   0.113   1.693  0.0262  0.3802  0.0595
   44SOL     OW  173   1.207   0.838   0.958 -0.3247  0.1578 -0.3120
   44SOL    HW1  174   1.178   0.927   0.952 -0.7959 -0.3163  0.7490
   44SOL    HW2  175   1.146   0.793   1.017  1.6132 -2.3462 -0.0219
   44SOL     MW  176   1.196   0.844   0.965 -0.1312 -0.2351 -0.1337
   45SOL     OW  177   1.306   0.800   0.691  0.3832 -0.3752 -0.1281
   45SOL    HW1  178   1.267   0.810   0.778 -1.6101 -3.2195  0.7372
   45SOL    HW2  179   1.222   0.765   0.643 -2.0324  0.0416 -0.8974
   45SOL     MW  180   1.290   0.797   0.696 -0.1985 -0.6955 -0.1154
   46SOL     OW  181   0.419   1.132   0.672 -0.1526  0.1735 -0.0336
   46SOL    HW1  182   0.483   1.147   0.605  0.3924 -0.3266 -0.1330
   46SOL    HW2  183   0.419   1.211   0.734  2.5779 -0.5970  1.5348
   46SOL     MW  184   0.427   1.145   0.671  0.2796  0.0058  0.1602
   47SOL     OW  185   0.105   1.972   1.959  0.6371  0.3724 -0.3150
   47SOL    HW1  186   0.104   1.907   1.892 -0.4964  0.4322 -0.9603
   47SOL    HW2  187   0.143   1.933   2.042  2.4953 -0.1298  1.1255
   47SOL     MW  188   0.110   1.958   1.961  0.7327  0.3140 -0.2101
   48SOL     OW  189   1.267   0.490   1.045  0.6536 -0.0514  0.6324
   48SOL    HW1  190   1.212   0.466   0.972 -0.3399 -0.1101  1.1144
   48SOL    HW2  191   1.221   0.571   1.064  0.8399 -0.3443  0.6052
   48SOL     MW  192   1.254   0.498   1.038  0.5471 -0.0978  0.6924
   49SOL     OW  193   1.710   0.730   1.548 -0.4323 -0.8239 -0.0461
   49SOL    HW1  194   1.751   0.669   1.616 -0.1469  2.4192  1.3866
   49SOL    HW2  195   1.748   0.701   1.465 -1.7807  0.1016 -0.9302
   49SOL     MW  196   1.720   0.718   1.546 -0.5726 -0.2739  0.0263
   50SOL     OW  197   1.317   1.198   0.638 -0.4591  0.1275 -0.4209
   50SOL    HW1  198   1.237   1.192   0.700  2.8622  1.7205  0.2993
   50SOL    HW2  199   1.372   1.122   0.658  2.9335  0.3831 -1.3842
   50SOL     MW  200   1.314   1.188   0.649  0.4267  0.3714 -0.4530
   51SOL     OW  201   0.352   2.901   0.847  0.0347  0.8724 -0.1982
   51SOL    HW1  202   0.442   2.866   0.858  1.4158 -1.8818  0.9106
   51SOL    HW2  203   0.330   2.932   0.937 -2.0057 -0.3552  0.2350
   51SOL     MW  204   0.361   2.901   0.860 -0.0523  0.3470  0.0052
   52SOL     OW  205   0.802   1.837   0.479  0.6518  0.2162 -0.3619
   52SOL    HW1  206   0.790   1.928   0.509  0.0348 -0.3245  0.2302
   52SOL    HW2  207   0.840   1.846   0.392  0.6155  3.3345 -0.7459
   52SOL     MW  208   0.805   1.850   0.472  0.5656  0.5563 -0.3344
   53SOL     OW  209   0.485   2.156   0.581 -0.3525 -0.3847 -0.1902
   53SOL    HW1  210   0.447   2.117   0.500 -1.1414  0.0607  0.4184
   53SOL    HW2  211   0.447   2.247   0.581 -2.0733  0.6848  0.3900
   53SOL     MW  212   0.475   2.163   0.570 -0.6837 -0.1848 -0.0334
   54SOL     OW  213   2.043   0.995   0.715  0.5302  0.0344 -0.3367
   54SOL    HW1  214   2.103   0.985   0.642 -2.2087  0.3834 -1.7315
   54SOL    HW2  215   2.022   0.905   0.737 -0.4112 -1.0717 -2.9699
   54SOL     MW  216   2.048   0.982   0.708  0.0446 -0.0655 -0.8681
   55SOL     OW  217   0.427   1.523   1.734  0.3553 -0.2377 -0.0364
   55SOL    HW1  218   0.375   1.559   1.657 -1.4865  1.3102 -0.5130
   55SOL    HW2  219   0.516   1.531   1.707 -0.7099  3.7048 -0.6311
   55SOL     MW  220   0.432   1.529   1.720 -0.0282  0.4867 -0.1778
   56SOL     OW  221   0.661   0.914   0.175 -0.0420 -0.2212  0.4657
   56SOL    HW1  222   0.665   1.005   0.138  1.0675  1.5641 -0.0159
   56SOL    HW2  223   0.579   0.892   0.138  0.4876  0.3140  1.1632
   56SOL     MW  224   0.651   0.923   0.165  0.1743  0.0850  0.4942
   57SOL     OW  225   1.103   1.320   1.179 -0.1305  0.4193  0.4334
   57SOL    HW1  226   1.198   1.339   1.189 -0.5284 -2.9287 -3.1699
   57SOL    HW2  227   1.086   1.249   1.246 -0.6825 -0.0248  1.0898
   57SOL     MW  228   1.114   1.313   1.189 -0.2558 -0.0810  0.0445
   58SOL     OW  229   0.434   1.245   1.290  0.5817 -0.1269  0.1910
   58SOL    HW1  230   0.391   1.325   1.320  1.7366 -2.2129  2.2551
   58SOL    HW2  231   0.456   1.199   1.366 -1.4541  0.2417 -0.7982
   58SOL     MW  232   0.431   1.249   1.304  0.4654 -0.3535  0.3329
   59SOL     OW  233   1.472   1.678   0.383  0.8512 -0.4664 -0.0253
   59SOL    HW1  234   1.515   1.731   0.445  1.9446  1.0122  1.1194
   59SOL    HW2  235   1.394   1.655   0.438 -0.6109 -0.5106  0.6497
   59SOL     MW  236   1.468   1.682   0.398  0.8025 -0.2771  0.2148
   60SOL     OW  237   3.079   0.164   1.632 -0.2148 -0.0632 -0.2178
   60SOL    HW1  238   3.000   0.217   1.644 -1.0881 -1.0905  1.3092
   60SOL    HW2  239   3.131   0.168   1.719 -2.0631 -1.6054 -2.1829
   60SOL     MW  240   3.075   0.171   1.645 -0.5739 -0.4022 -0.2756
   61SOL     OW  241   1.986   1.347   2.994  0.2092 -0.2819  0.3205
   61SOL    HW1  242   1.944   1.347   3.087 -0.9868  1.3798 -0.8043
   61SOL    HW2  243   2.058   1.289   2.994 -2.1797  2.5474  2.3120
   61SOL     MW  244   1.990   1.340   3.006 -0.2638  0.3107  0.4349
   62SOL     OW  245   0.567   1.751   0.603 -0.5637  0.4296 -0.5945
   62SOL    HW1  246   0.646   1.779   0.560 -1.5284  1.1329 -3.2180
   62SOL    HW2  247   0.539   1.662   0.574 -0.7141 -0.1692 -1.5122
   62SOL     MW  248   0.574   1.743   0.593 -0.7108  0.4434 -1.0617
   63SOL     OW  249   1.722   0.674   0.529 -0.1176 -0.8327 -0.5697
   63SOL    HW1  250   1.714   0.759   0.487 -2.1178 -0.6520  1.4907
   63SOL    HW2  251   1.655   0.679   0.602 -2.0302 -1.6584  1.7447
   63SOL     MW  252   1.712   0.686   0.533 -0.6339 -0.9178  0.0075
   64SOL     OW  253   0.223   1.702   0.647 -0.4343  0.3478 -0.5807
   64SOL    HW1  254   0.279   1.757   0.703 -1.5046  1.5108  2.2548
   64SOL    HW2  255   0.133   1.725   0.673 -3.5167 -0.7560  0.1478
   64SOL     MW  256   0.218   1.712   0.658 -0.9822  0.3556 -0.1105
   65SOL     OW  257   1.497   2.311   0.396  0.5920  0.1011 -0.1746
   65SOL    HW1  258   1.574   2.370   0.400  0.1132  2.6317 -0.1138
   65SOL    HW2  259   1.433   2.355   0.458  0.4907  1.3349  0.6069
   65SOL     MW  260   1.499   2.325   0.405  0.5155  0.5978 -0.0635
   66SOL     OW  261   0.383   0.537   0.537 -0.2536  0.3656  0.1346
   66SOL    HW1  262   0.444   0.522   0.460 -1.4653  1.2303  0.7773
   66SOL    HW2  263   0.353   0.626   0.525  0.4173 -0.2693 -1.4052
   66SOL     MW  264   0.387   0.546   0.525 -0.3249  0.3959  0.0163
   67SOL     OW  265   1.336   0.051   1.992 -0.3809 -0.1567  0.0708
   67SOL    HW1  266   1.369   0.057   1.901 -1.4495 -2.5760  0.7013
   67SOL    HW2  267   1.293  -0.034   1.995  0.7864  0.7161  2.7447
   67SOL     MW  268   1.335   0.041   1.981 -0.3679 -0.3607  0.5068
   68SOL     OW  269   0.779   0.099   2.880  0.8184 -0.0436 -0.0770
   68SOL    HW1  270   0.758   0.172   2.819 -0.2979  0.9934 -0.3234
   68SOL    HW2  271   0.851   0.122   2.939 -1.4261  2.3511 -2.0308
   68SOL     MW  272   0.786   0.112   2.880  0.3750  0.4092 -0.3673
   69SOL     OW  273   1.105   0.265   1.973  0.1456  0.4084 -0.3801
   69SOL    HW1  274   1.193   0.256   2.019 -0.7951 -1.8272  0.0520
   69SOL    HW2  275   1.031   0.218   2.018 -1.9393 -0.8621 -0.8241
   69SOL     MW  276   1.107   0.258   1.985 -0.2536 -0.0542 -0.3817
   70SOL     OW  277   0.542   1.709   1.140 -0.4024 -0.6844  0.2148
   70SOL    HW1  278   0.622   1.761   1.141 -1.3656  0.0034 -3.6935
   70SOL    HW2  279   0.545   1.671   1.053  2.6784  3.9167 -1.4705
   70SOL     MW  280   0.553   1.710   1.129 -0.1230  0.0134 -0.5232
   71SOL     OW  281   1.570   0.586   1.222 -0.0728  0.7116 -0.6121
   71SOL    HW1  282   1.506   0.661   1.245  2.2566  0.1425 -3.2424
   71SOL    HW2  283   1.569   0.605   1.124  2.8176  0.3312 -1.0001
   71SOL     MW  284   1.561   0.598   1.212  0.6159  0.5864 -1.0103
   72SOL     OW  285   0.786   1.839   1.040  0.4229  0.4411  0.2933
   72SOL    HW1  286   0.804   1.912   0.981 -0.6382 -0.5423  2.8867
   72SOL    HW2  287   0.842   1.772   1.001  2.0152  0.0965  1.8903
   72SOL     MW  288   0.795   1.840   1.027  0.4930  0.2659  0.8462
   73SOL     OW  289   1.076   0.682   1.139 -0.2643 -0.3436 -0.1263
   73SOL    HW1  290   1.015   0.615   1.176 -2.3433 -2.9882 -0.0545
   73SOL    HW2  291   1.067   0.742   1.211  1.4731 -1.0801 -4.4885
   73SOL     MW  292   1.067   0.681   1.154 -0.3094 -0.7897 -0.6924
   74SOL     OW  293   2.822   0.086   0.971  0.4575  0.6266  0.2510
   74SOL    HW1  294   2.904   0.103   0.922  0.8530 -0.0231  0.0109
   74SOL    HW2  295   2.766   0.165   0.962 -2.2321  0.5184  0.5606
   74SOL     MW  296   2.825   0.099   0.963  0.1548  0.5266  0.2602
   75SOL     OW  297   1.483   1.317   0.170 -0.4093  0.2174 -0.0400
   75SOL    HW1  298   1.558   1.273   0.127 -0.4536 -0.8864 -2.5604
   75SOL    HW2  299   1.514   1.309   0.260 -1.2960 -3.3466 -1.3649
   75SOL     MW  300   1.497   1.310   0.177 -0.5321 -0.3985 -0.5473
   76SOL     OW  301   3.063   0.698   0.427 -0.4738 -0.3006 -1.2330
   76SOL    HW1  302   3.080   0.741   0.515 -1.9180 -0.4612  0.0840
   76SOL    HW2  303   3.128   0.629   0.416  1.9058 -0.9332  2.2253
   76SOL     MW  304   3.074   0.694   0.437 -0.3504 -0.4052 -0.6029
   77SOL     OW  305   0.883   0.610   0.452 -0.9219 -0.7250 -0.4961
   77SOL    HW1  306   0.845   0.651   0.370  0.1022 -3.7718 -2.1224
   77SOL    HW2  307   0.867   0.517   0.432 -0.1320  1.4621 -1.6921
   77SOL     MW  308   0.876   0.603   0.439 -0.6826 -0.8384 -0.8685
   78SOL     OW  309   0.822   0.881   1.083 -0.4319  0.0444  0.2308
   78SOL    HW1  310   0.800   0.964   1.042 -1.9473 -2.7961  0.2155
   78SOL    HW2  311   0.735   0.850   1.113 -0.4761  1.9610 -1.4395
   78SOL     MW  312   0.808   0.888   1.082 -0.6377 -0.0775  0.0084
   79SOL     OW  313   1.871   1.508   0.534 -0.3744  0.0348  0.4536
   79SOL    HW1  314   1.780   1.492   0.559  0.8817 -1.0976 -0.3868
   79SOL    HW2  315   1.922   1.478   0.608  2.4059  0.4912  0.7331
   79SOL     MW  316   1.866   1.502   0.547  0.1582 -0.0544  0.3796
   80SOL     OW  317   0.225   0.994   0.288  0.1169 -0.3217  0.0984
   80SOL    HW1  318   0.174   0.950   0.215  0.3835  0.4703 -0.1895
   80SOL    HW2  319   0.251   0.924   0.348 -0.1995 -0.9687  0.7993
   80SOL     MW  320   0.222   0.979   0.286  0.1103 -0.3026  0.1529
   81SOL     OW  321   1.821   1.823   0.352 -0.3221 -0.1866 -0.7122
   81SOL    HW1  322   1.781   1.738   0.329 -0.5694 -2.8464 -4.1108
   81SOL    HW2  323   1.781   1.886   0.294 -0.8047  0.7752 -2.3720
   81SOL     MW  324   1.810   1.820   0.341 -0.4184 -0.4106 -1.3796
   82SOL     OW  325   0.976   1.018   0.567 -0.0443  0.1129 -0.0852
   82SOL    HW1  326   0.928   1.078   0.506  0.2250  3.1734 -0.5748
   82SOL    HW2  327   0.907   0.954   0.578  1.0599  0.3395 -2.1501
   82SOL     MW  328   0.961   1.017   0.561  0.1370  0.5466 -0.4223
   83SOL     OW  329   3.087   0.738   1.549  0.1298 -0.0366 -0.6645
   83SOL    HW1  330   3.068   0.787   1.464 -1.5026  0.9623  0.3715
   83SOL    HW2  331   3.162   0.684   1.513  2.5648 -1.5991 -1.7056
   83SOL     MW  332   3.094   0.737   1.533  0.2357 -0.1109 -0.6652
   84SOL     OW  333   3.076   0.170   0.906 -0.3630 -0.1125  0.1357
   84SOL    HW1  334   3.077   0.268   0.934 -0.9982 -0.3516  3.0173
   84SOL    HW2  335   3.103   0.120   0.980 -0.3278  1.6635 -1.6315
   84SOL     MW  336   3.079   0.177   0.919 -0.4421  0.0903  0.2827
   85SOL     OW  337   0.357   0.480   0.801  0.0277  0.0265 -0.4555
   85SOL    HW1  338   0.365   0.506   0.705  0.7387 -1.0295 -0.8091
   85SOL    HW2  339   0.321   0.389   0.800  1.9158 -0.6571  1.6546
   85SOL     MW  340   0.353   0.472   0.788  0.3707 -0.2030 -0.2237
   86SOL     OW  341   1.285   0.271   1.212 -0.4280 -0.3217  0.2016
   86SOL    HW1  342   1.275   0.357   1.176  1.6120  1.1116  2.2156
   86SOL    HW2  343   1.370   0.273   1.255  0.3787  0.4916 -0.5351
   86SOL     MW  344   1.295   0.283   1.213 -0.0524 -0.0253  0.3701
   87SOL     OW  345   1.021   1.578   1.179 -0.4707  0.0538  0.3122
   87SOL    HW1  346   1.069   1.650   1.135 -1.1572  0.6189 -0.9366
   87SOL    HW2  347   1.066   1.489   1.167 -2.0974 -4.8436  0.6040
   87SOL     MW  348   1.033   1.576   1.171 -0.7759 -0.5178  0.1859
   88SOL     OW  349   1.152   1.121   0.996  0.2677  0.2968  0.8347
   88SOL    HW1  350   1.249   1.125   0.994 -1.1681 -0.1911  1.1600
   88SOL    HW2  351   1.122   1.179   1.066  1.0140  0.9358  2.5607
   88SOL     MW  352   1.161   1.129   1.005  0.1767  0.3167  1.1054
   89SOL     OW  353   1.794   0.719   0.226 -0.0592  0.4719 -0.4092
   89SOL    HW1  354   1.740   0.652   0.272 -2.4112 -0.5462  0.4822
   89SOL    HW2  355   1.868   0.737   0.285  0.8573  0.3248 -0.2591
   89SOL     MW  356   1.797   0.713   0.240 -0.2486  0.3181 -0.2718
   90SOL     OW  357   0.762   1.190   2.792  0.2728 -0.4933 -0.6569
   90SOL    HW1  358   0.800   1.103   2.786  0.3952  1.9545 -1.8138
   90SOL    HW2  359   0.788   1.237   2.871  0.5822 -4.1487 -1.0838
   90SOL     MW  360   0.770   1.185   2.801  0.3297 -0.6526 -0.8659
   91SOL     OW  361   2.257   0.593   0.531  0.2135  0.2919  0.5622
   91SOL    HW1  362   2.316   0.649   0.477 -1.8983  0.9667  0.0232
   91SOL    HW2  363   2.255   0.508   0.474  0.0497 -0.8761  0.6979
   91SOL     MW  364   2.264   0.589   0.516 -0.0868  0.2268  0.5090
   92SOL     OW  365   1.649   0.955   0.475  0.1942  0.6423 -0.0381
   92SOL    HW1  366   1.601   0.945   0.559 -0.6546 -1.3187  0.4492
   92SOL    HW2  367   1.615   1.040   0.437  0.0958 -3.2149 -2.7971
   92SOL     MW  368   1.638   0.965   0.481  0.0692 -0.1253 -0.3378
   93SOL     OW  369   1.097   0.248   0.405  0.4957 -0.6172 -0.1781
   93SOL    HW1  370   1.008   0.266   0.431  2.3162  1.4359  0.5891
   93SOL    HW2  371   1.101   0.290   0.317  0.2419 -0.5993 -0.5254
   93SOL     MW  372   1.086   0.256   0.396  0.7024 -0.3440 -0.1227
   94SOL     OW  373   1.917   1.391   1.575  0.2479 -0.2443  0.4145
   94SOL    HW1  374   1.879   1.397   1.488 -0.3449 -1.2767  0.6249
   94SOL    HW2  375   1.894   1.301   1.595 -1.7463  2.7288 -0.8567
   94SOL     MW  376   1.909   1.380   1.566 -0.0934  0.0118  0.2746
   95SOL     OW  377   0.592   1.529   0.928  0.4001 -0.1962  0.3829
   95SOL    HW1  378   0.676   1.487   0.955 -0.4120  0.6595 -3.0278
   95SOL    HW2  379   0.533   1.456   0.909 -1.2415 -2.6859  0.2206
   95SOL     MW  380   0.595   1.514   0.929  0.0764 -0.4118 -0.0885
   96SOL     OW  381   1.347   1.839   1.709 -0.4128 -0.1588 -0.1222
   96SOL    HW1  382   1.265   1.837   1.763  0.1204  1.3462 -0.1033
   96SOL    HW2  383   1.375   1.753   1.680  0.5137 -0.9451  0.6560
   96SOL     MW  384   1.340   1.827   1.712 -0.2202 -0.0640 -0.0170
   97SOL     OW  385   1.090   1.567   0.831 -0.0914 -0.5371 -0.1653
   97SOL    HW1  386   1.125   1.643   0.879  0.8957 -0.0086  0.1226
   97SOL    HW2  387   0.993   1.579   0.844  0.5136  2.4427 -0.3052
   97SOL     MW  388   1.082   1.578   0.839  0.1186 -0.0742 -0.1458
   98SOL     OW  389   1.363   1.395   1.225  0.1535 -0.2136 -0.3455
   98SOL    HW1  390   1.419   1.449   1.282  1.4776  1.7896  1.1265
   98SOL    HW2  391   1.396   1.402   1.133 -1.0445  2.5249  0.7050
   98SOL     MW  392   1.375   1.403   1.220  0.1702  0.4120 -0.0126
   99SOL     OW  393   1.555   0.331   1.302 -0.0134 -0.0213  0.2759
   99SOL    HW1  394   1.563   0.424   1.276  0.6224  0.7338 -0.5118
   99SOL    HW2  395   1.501   0.339   1.388 -0.2048  0.9841  0.6993
   99SOL     MW  396   1.549   0.344   1.310  0.0453  0.2110  0.2278
  100SOL     OW  397   1.085   1.156   1.390  0.2887 -0.1088 -0.2323
  100SOL    HW1  398   1.124   1.206   1.460 -2.8436  0.1566  2.5564
  100SOL    HW2  399   1.102   1.065   1.405 -0.3028  1.7776  0.1116
  100SOL     MW  400   1.092   1.151   1.401 -0.2026  0.1751  0.1810
  101SOL     OW  401   0.543   1.229   0.451 -0.5788  0.5900  0.6595
  101SOL    HW1  402   0.492   1.170   0.387 -1.0509  2.2164 -0.7309
  101SOL    HW2  403   0.628   1.189   0.432  0.9828 -0.5172  1.7462
  101SOL     MW  404   0.547   1.216   0.440 -0.4351  0.6585  0.6194
  102SOL     OW  405   2.888   0.604   1.076 -0.4258 -0.1182 -0.3709
  102SOL    HW1  406   2.932   0.687   1.091 -0.5046 -2.0754 -0.1828
  102SOL    HW2  407   2.882   0.582   1.163 -1.0424  1.1460  0.6502
  102SOL     MW  408   2.893   0.612   1.090 -0.5175 -0.2096 -0.2113
  103SOL     OW  409   1.863   0.282   1.761  0.4052 -0.1394  0.1900
  103SOL    HW1  410   1.880   0.198   1.712  1.5925  0.1343 -0.4911
  103SOL    HW2  411   1.857   0.263   1.856  0.5721 -0.1743 -1.8883
  103SOL     MW  412   1.864   0.268   1.767  0.5839 -0.1079 -0.1741
  104SOL     OW  413   0.057   1.522   1.675 -0.3004 -0.0400  0.1404
  104SOL    HW1  414   0.093   1.437   1.710  0.4384  2.0075 -1.9745
  104SOL    HW2  415  -0.040   1.513   1.698 -0.8168 -0.2722  0.0930
  104SOL     MW  416   0.049   1.509   1.683 -0.2711  0.1995 -0.1449
  105SOL     OW  417   0.090   1.198   0.438  0.2878 -0.0318  0.1221
  105SOL    HW1  418   0.125   1.128   0.382 -0.5311 -0.3904 -0.0511
  105SOL    HW2  419   0.148   1.270   0.435 -0.9104  0.5652  0.9028
  105SOL     MW  420   0.102   1.198   0.430  0.0217 -0.0003  0.2022
  106SOL     OW  421   0.811   0.248   0.845  0.4845 -0.2505  0.6913
  106SOL    HW1  422   0.728   0.304   0.850 -0.0688  1.0798  2.2163
  106SOL    HW2  423   0.883   0.307   0.829 -0.7674  1.8747 -4.3772
  106SOL     MW  424   0.809   0.263   0.843  0.2463  0.2054  0.2238
  107SOL     OW  425   0.801   2.202   2.878  0.3336 -0.4968 -0.2230
  107SOL    HW1  426   0.710   2.197   2.903 -1.2435 -0.7333  0.5215
  107SOL    HW2  427   0.840   2.141   2.939  1.2778  2.4758  0.4456
  107SOL     MW  428   0.794   2.193   2.889  0.2501 -0.1358 -0.0366
  108SOL     OW  429   1.307   1.549   1.635 -0.0230 -0.3711 -0.2788
  108SOL    HW1  430   1.226   1.556   1.576 -1.4742  2.2044  0.4558
  108SOL    HW2  431   1.381   1.498   1.594  3.4337 -1.6263 -1.7974
  108SOL     MW  432   1.306   1.543   1.622  0.2416 -0.1969 -0.3822
  109SOL     OW  433   2.039   0.769   0.349  0.1568  0.0816  0.5756
  109SOL    HW1  434   2.031   0.865   0.343 -0.7442 -2.8103  1.9276
  109SOL    HW2  435   2.077   0.750   0.433  0.9354 -4.1343 -0.3807
  109SOL     MW  436   2.043   0.779   0.359  0.1407 -0.8562  0.6278
  110SOL     OW  437   0.403   1.901   0.792 -0.3543 -0.2728  0.1847
  110SOL    HW1  438   0.461   1.824   0.783  1.6693 -0.4509  0.5143
  110SOL    HW2  439   0.444   1.963   0.730  3.2440  0.7137 -0.6267
  110SOL     MW  440   0.416   1.899   0.783  0.3874 -0.1661  0.1212
  111SOL     OW  441   0.845   0.879   1.363  0.3738 -0.1483  0.0662
  111SOL    HW1  442   0.840   0.898   1.267  2.3589  0.7058 -1.2610
  111SOL    HW2  443   0.795   0.802   1.390  1.8451  1.9482  0.2770
  111SOL     MW  444   0.838   0.871   1.354  0.8298  0.2410 -0.0811
  112SOL     OW  445   1.343   1.152   1.656 -0.3798  0.2176  1.0362
  112SOL    HW1  446   1.263   1.206   1.649  0.7351  0.2245  0.6560
  112SOL    HW2  447   1.326   1.059   1.655  0.6340  0.2930  0.3422
  112SOL     MW  448   1.330   1.147   1.655 -0.0990  0.2285  0.8945
  113SOL     OW  449   1.224   2.976   1.729 -0.1150 -0.0797  0.2116
  113SOL    HW1  450   1.186   2.924   1.798  1.1167 -0.6529  0.3042
  113SOL    HW2  451   1.199   2.932   1.648  0.8343 -3.5574  2.2231
  113SOL     MW  452   1.216   2.963   1.727  0.1728 -0.6142  0.4892
  114SOL     OW  453   0.363   2.899   1.790 -0.5099  0.1686  0.3248
  114SOL    HW1  454   0.448   2.936   1.802 -1.0709 -3.1616  0.3747
  114SOL    HW2  455   0.297   2.935   1.851 -2.5679 -1.7154  1.3589
  114SOL     MW  456   0.365   2.908   1.800 -0.8555 -0.5194  0.4678
  115SOL     OW  457   0.564   0.883   1.177  0.0341  0.0559 -0.3282
  115SOL    HW1  458   0.542   0.796   1.146 -0.3076  2.3298  0.3981
  115SOL    HW2  459   0.481   0.921   1.199 -0.6949  2.1655  2.1857
  115SOL     MW  460   0.550   0.876   1.176 -0.1072  0.6342  0.0993
  116SOL     OW  461   0.683   1.114   1.005  0.1542  0.0677  0.2097
  116SOL    HW1  462   0.757   1.129   0.942 -0.6464  0.3591  1.6322
  116SOL    HW2  463   0.695   1.166   1.087  3.0555 -1.1444 -0.8361
  116SOL     MW  464   0.695   1.123   1.008  0.4313 -0.0538  0.2594
  117SOL     OW  465   1.101   1.304   0.781 -0.5051 -0.0553 -0.5542
  117SOL    HW1  466   1.123   1.254   0.855  1.4849  0.8407 -1.1976
  117SOL    HW2  467   1.100   1.396   0.820 -1.3788  0.0377 -0.3707
  117SOL     MW  468   1.104   1.310   0.796 -0.3578  0.0752 -0.6149
  118SOL     OW  469   3.079   2.964   1.812  0.6959  0.5911  0.3239
  118SOL    HW1  470   3.119   3.049   1.830  1.1262 -2.1760  1.7975
  118SOL    HW2  471   2.983   2.975   1.798  1.6837 -1.0521  0.5935
  118SOL     MW  472   3.072   2.977   1.813  0.8830  0.0092  0.5539
  119SOL     OW  473   0.378   1.527   1.282  0.5180 -0.7560  0.2781
  119SOL    HW1  474   0.428   1.592   1.233  0.6882  2.0077  2.8419
  119SOL    HW2  475   0.295   1.519   1.235  0.9650  0.6597 -1.7696
  119SOL     MW  476   0.373   1.535   1.270  0.5994 -0.2046  0.3462
  120SOL     OW  477   0.296   0.888   0.976 -0.0907 -0.6265 -0.5855
  120SOL    HW1  478   0.285   0.982   0.993 -0.7481 -1.2033  1.9742
  120SOL    HW2  479   0.370   0.893   0.915 -0.3828  0.4084 -0.4062
  120SOL     MW  480   0.304   0.901   0.970 -0.2160 -0.5660 -0.2242
  121SOL     OW  481   1.752   1.110   1.599  0.0856  0.0753  0.6797
  121SOL    HW1  482   1.679   1.126   1.537  2.0962 -1.0288 -3.0005
  121SOL    HW2  483   1.801   1.035   1.561  1.9319 -1.7290 -0.8700
  121SOL     MW  484   1.749   1.102   1.585  0.5944 -0.3084 -0.0103
  122SOL     OW  485   0.163   0.674   0.878 -0.0337  0.6322 -0.1489
  122SOL    HW1  486   0.238   0.610   0.858  0.2435 -0.4541 -1.9151
  122SOL    HW2  487   0.210   0.757   0.899 -1.9635 -2.1445  3.1500
  122SOL     MW  488   0.179   0.676   0.878 -0.2517  0.1225  0.0533
  123SOL     OW  489   1.855   1.117   0.539 -0.6977  0.1013  0.2523
  123SOL    HW1  490   1.792   1.044   0.522  1.0479  0.6937 -0.7924
  123SOL    HW2  491   1.905   1.086   0.616 -2.2244  0.8081  2.0669
  123SOL     MW  492   1.854   1.103   0.547 -0.6688  0.2727  0.3539
  124SOL     OW  493   0.638   0.452   0.848  1.3101 -0.1590 -0.6535
  124SOL    HW1  494   0.552   0.466   0.800  0.0038  0.5236 -2.2819
  124SOL    HW2  495   0.690   0.532   0.846 -0.6570 -0.3827 -1.2889
  124SOL     MW  496   0.634   0.464   0.841  0.8782 -0.0985 -0.9522
  125SOL     OW  497   0.680   1.715   1.724 -0.3516  0.6642 -0.1713
  125SOL    HW1  498   0.683   1.710   1.629  0.2883 -0.2683 -2.8561
  125SOL    HW2  499   0.615   1.789   1.736 -1.1095  1.6668 -0.3940
  125SOL     MW  500   0.672   1.724   1.713 -0.3672  0.6735 -0.5549
  126SOL     OW  501   2.120   1.552   1.887 -0.1331  0.2325 -0.6585
  126SOL    HW1  502   2.176   1.630   1.876  2.8392 -0.0728 -2.6748
  126SOL    HW2  503   2.179   1.478   1.906  0.5314  0.4706  0.4166
  126SOL     MW  504   2.135   1.552   1.888  0.3467  0.2237 -0.7827
  127SOL     OW  505   0.499   0.781   1.841  0.2724 -0.6077 -0.0140
  127SOL    HW1  506   0.597   0.772   1.826  3.0971  2.3198 -1.0984
  127SOL    HW2  507   0.497   0.824   1.924  0.3998 -0.9217  1.2772
  127SOL     MW  508   0.512   0.785   1.850  0.6619 -0.2628  0.0133
  128SOL     OW  509   1.753   0.750   2.866 -0.0015  0.5993 -0.2892
  128SOL    HW1  510   1.806   0.732   2.785 -2.5394  1.0435 -0.5290
  128SOL    HW2  511   1.751   0.847   2.879 -1.9924  2.0621  0.3126
  128SOL     MW  512   1.760   0.760   2.857 -0.5990  0.8509 -0.2414
  129SOL     OW  513   1.590   0.926   0.158  0.5442  0.7539 -0.2592
  129SOL    HW1  514   1.558   0.845   0.122  1.6517  1.5073  0.0480
  129SOL    HW2  515   1.645   0.894   0.232 -0.2872  0.3745 -0.1458
  129SOL     MW  516   1.593   0.911   0.163  0.5806  0.8033 -0.2037
  130SOL     OW  517   0.873   1.445   0.326  0.4406  0.4185 -0.3110
  130SOL    HW1  518   0.858   1.461   0.415  3.5886 -3.2335  0.4762
  130SOL    HW2  519   0.964   1.464   0.313 -1.4381  2.1283  1.3565
  130SOL     MW  520   0.883   1.449   0.336  0.6081  0.1622  0.0129
  131SOL     OW  521   0.063   0.807   0.083 -0.0495  0.6378 -0.6416
  131SOL    HW1  522   0.051   0.827  -0.006  0.0610  0.3193  0.3901
  131SOL    HW2  523   0.127   0.728   0.087  0.1094 -1.0458 -1.2202
  131SOL     MW  524   0.070   0.799   0.072 -0.0139  0.3737 -0.5818
  132SOL     OW  525   2.730   0.081   1.238  0.0116 -0.3110 -0.6797
  132SOL    HW1  526   2.770   0.074   1.151  2.2444 -1.5741 -1.1106
  132SOL    HW2  527   2.636   0.071   1.224  1.1344  2.9939  0.5859
  132SOL     MW  528   2.723   0.079   1.225  0.4544 -0.0416 -0.5696
  133SOL     OW  529   1.064   0.111   1.744  0.3433  0.2783 -0.0186
  133SOL    HW1  530   1.120   0.037   1.760  0.2332  0.4918 -1.2150
  133SOL    HW2  531   1.093   0.179   1.810 -0.8183 -0.4135 -0.4864
  133SOL     MW  532   1.075   0.110   1.755  0.1755  0.2152 -0.2382
  134SOL     OW  533   1.409   2.502   1.453  0.0176 -0.2540  0.1314
  134SOL    HW1  534   1.409   2.585   1.407  0.1983 -2.4899 -0.0038
  134SOL    HW2  535   1.413   2.537   1.547  1.0883  2.2163  2.6162
  134SOL     MW  536   1.409   2.518   1.459  0.1827 -0.2231  0.4414
  135SOL     OW  537   3.016   1.014   2.936 -0.1468 -0.2958 -0.6266
  135SOL    HW1  538   3.093   1.049   2.976 -2.5770 -0.4715  1.0630
  135SOL    HW2  539   2.956   1.088   2.905 -0.7497  2.2079 -0.3066
  135SOL     MW  540   3.019   1.029   2.937 -0.5470  0.0113 -0.3614
  136SOL     OW  541   0.152   1.999   0.862 -0.0916  0.3803 -0.1620
  136SOL    HW1  542   0.082   1.928   0.847  1.3017 -0.8234 -0.2518
  136SOL    HW2  543   0.232   1.962   0.820 -1.7611 -3.0509  1.1067
  136SOL     MW  544   0.153   1.985   0.854 -0.1280 -0.2313 -0.0064
  137SOL     OW  545   0.741   2.080   0.598  0.0893 -0.3105  0.4631
  137SOL    HW1  546   0.785   2.102   0.683  0.5029 -0.7211 -1.0522
  137SOL    HW2  547   0.646   2.101   0.608  0.7840 -0.6061  1.0127
  137SOL     MW  548   0.734   2.085   0.611  0.2355 -0.4037  0.3357
  138SOL     OW  549   0.508   0.603   1.074  0.6062  0.1995 -0.4989
  138SOL    HW1  550   0.424   0.569   1.095 -0.8510  1.0438  0.3475
  138SOL    HW2  551   0.544   0.544   1.015  0.0440  1.1306  0.1763
  138SOL     MW  552   0.502   0.590   1.069  0.3397  0.4337 -0.2981
  139SOL     OW  553   2.859   0.491   1.343 -0.0000 -0.2807 -0.7179
  139SOL    HW1  554   2.952   0.464   1.356  1.8073 -0.0715  0.6995
  139SOL    HW2  555   2.836   0.543   1.422 -0.0283  0.4381 -1.4643
  139SOL     MW  556   2.868   0.494   1.355  0.2347 -0.1582 -0.6294
  140SOL     OW  557   0.903   0.491   1.957  0.1746 -0.5423 -0.6703
  140SOL    HW1  558   0.984   0.445   1.971 -0.0542  0.3291 -0.2351
  140SOL    HW2  559   0.859   0.475   2.040 -0.1053 -1.9356  2.0623
  140SOL     MW  560   0.908   0.483   1.970  0.1075 -0.6112 -0.2524
  141SOL     OW  561   1.113   0.654   1.712 -0.2615  0.4866  0.4971
  141SOL    HW1  562   1.127   0.585   1.645  0.3011  1.2513  0.7647
  141SOL    HW2  563   1.140   0.627   1.798  2.6606 -0.0677  1.6092
  141SOL     MW  564   1.118   0.642   1.715  0.1983  0.5144  0.6791
  142SOL     OW  565   0.844   1.174   0.762 -0.3772 -0.4321  0.0865
  142SOL    HW1  566   0.889   1.106   0.706 -1.0599 -0.3263  2.1216
  142SOL    HW2  567   0.916   1.234   0.796  1.4106  1.0047  2.9938
  142SOL     MW  568   0.860   1.173   0.759 -0.2314 -0.2286  0.7386
  143SOL     OW  569   1.838   0.726   1.056  0.1151  0.0264 -0.1878
  143SOL    HW1  570   1.890   0.665   1.003 -1.6590  1.7204 -0.4288
  143SOL    HW2  571   1.747   0.706   1.030 -1.7421  0.3263 -2.4673
  143SOL     MW  572   1.833   0.716   1.045 -0.3640  0.2895 -0.5203
  144SOL     OW  573   0.242   1.325   1.759 -0.1155  0.3947 -0.1240
  144SOL    HW1  574   0.309   1.397   1.759 -2.9324 -0.1966  0.1895
  144SOL    HW2  575   0.290   1.260   1.808 -0.8861 -2.2391 -1.4517
  144SOL     MW  576   0.257   1.326   1.765 -0.5888 -0.0308 -0.2578
  145SOL     OW  577   0.227   0.492   1.178  0.1050 -0.1729  0.0633
  145SOL    HW1  578   0.261   0.404   1.199 -0.0160  3.2502 -0.3357
  145SOL    HW2  579   0.144   0.489   1.124 -1.1411 -2.5453 -2.5387
  145SOL     MW  580   0.221   0.480   1.174 -0.0754 -0.0343 -0.3327
  146SOL     OW  581   0.793   1.965   1.544 -0.2249  0.3697  0.4287
  146SOL    HW1  582   0.858   1.991   1.485  0.8671  1.6125  1.1399
  146SOL    HW2  583   0.733   1.912   1.485 -0.9107  1.1448 -1.6008
  146SOL     MW  584   0.794   1.962   1.528 -0.1713  0.6359  0.2547
  147SOL     OW  585   0.433   0.530   3.006  0.1979 -0.0381  0.2101
  147SOL    HW1  586   0.342   0.538   3.037 -0.7513  1.0077 -1.7521
  147SOL    HW2  587   0.435   0.583   2.924 -1.2306 -1.3209 -0.9543
  147SOL     MW  588   0.421   0.538   2.999 -0.1158 -0.0693 -0.2024
  148SOL     OW  589   0.012   0.884   1.314 -0.0288 -0.3295 -0.1672
  148SOL    HW1  590   0.106   0.869   1.323 -0.4581 -1.7505  0.3206
  148SOL    HW2  591   0.002   0.979   1.315  0.4312  1.5854  3.4141
  148SOL     MW  592   0.023   0.895   1.315 -0.0248 -0.2644  0.3696
  149SOL     OW  593   1.535   1.211   1.439 -0.4683  0.5263 -0.2523
  149SOL    HW1  594   1.480   1.187   1.520 -1.5834 -1.6535  3.6208
  149SOL    HW2  595   1.520   1.305   1.427 -0.6109  1.3981  1.1324
  149SOL     MW  596   1.526   1.220   1.448 -0.6342  0.3537  0.4414
  150SOL     OW  597   1.710   1.457   0.878 -0.1196 -0.1120  0.2199
  150SOL    HW1  598   1.763   1.381   0.895 -0.4656 -0.6735 -0.9663
  150SOL    HW2  599   1.757   1.539   0.892 -3.2263  3.0059  0.2331
  150SOL     MW  600   1.723   1.458   0.882 -0.5751  0.2253  0.0652
  151SOL     OW  601   1.592   1.861   0.824 -0.4718 -0.7117 -0.4682
  151SOL    HW1  602   1.576   1.855   0.727  2.0660 -0.2562 -0.7329
  151SOL    HW2  603   1.532   1.806   0.881 -0.7732 -1.0648  0.5788
  151SOL     MW  604   1.582   1.853   0.818 -0.1767 -0.6982 -0.3650
  152SOL     OW  605   0.654   1.418   1.595  0.1469  0.3601 -0.4019
  152SOL    HW1  606   0.711   1.446   1.526 -2.2416  1.4706  2.7438
  152SOL    HW2  607   0.599   1.343   1.557 -1.2032 -1.1786  3.3918
  152SOL     MW  608   0.654   1.412   1.581 -0.3464  0.3036  0.5137
  153SOL     OW  609   2.610   1.214   0.729  0.4322 -0.3709  0.2441
  153SOL    HW1  610   2.682   1.172   0.686 -0.9801  1.1860 -1.3429
  153SOL    HW2  611   2.549   1.142   0.723 -1.6800 -2.3385  2.7153
  153SOL     MW  612   2.612   1.199   0.722 -0.0328 -0.4251  0.3608
  154SOL     OW  613   0.124   1.783   1.759 -0.2618  0.1226  0.3332
  154SOL    HW1  614   0.111   1.681   1.728 -0.0352 -1.1059 -1.6870
  154SOL    HW2  615   0.225   1.785   1.773  0.7980  0.2350  0.0427
  154SOL     MW  616   0.136   1.770   1.757 -0.0921 -0.0247  0.0283
  155SOL     OW  617   1.166   0.690   0.293 -0.3044  0.0827  0.3404
  155SOL    HW1  618   1.144   0.665   0.384 -1.2459  1.6302 -4.4555
  155SOL    HW2  619   1.129   0.782   0.290 -1.5506  2.7748 -2.5350
  155SOL     MW  620   1.158   0.699   0.304 -0.5930  0.6421 -0.6717
  156SOL     OW  621   1.568   0.012   1.099  0.2531 -0.2696 -0.3159
  156SOL    HW1  622   1.599   0.055   1.182  2.4813  0.7067  3.1384
  156SOL    HW2  623   1.602  -0.081   1.112  0.0420  0.5248 -2.4424
  156SOL     MW  624   1.576   0.005   1.112  0.5192 -0.0360 -0.1407
  157SOL     OW  625   1.259   1.147   0.163 -0.0764 -0.0914 -0.4242
  157SOL    HW1  626   1.245   1.057   0.205 -2.9976  1.3262  2.2639
  157SOL    HW2  627   1.348   1.180   0.161  1.4199  1.1727 -2.8846
  157SOL     MW  628   1.269   1.140   0.169 -0.2644  0.2624 -0.3942
  158SOL     OW  629   0.364   1.652   2.309 -0.5369 -0.2252  0.7030
  158SOL    HW1  630   0.359   1.694   2.224 -2.4736 -0.4660 -0.6986
  158SOL    HW2  631   0.285   1.671   2.359 -0.1503  2.1923  2.2562
  158SOL     MW  632   0.353   1.660   2.304 -0.7414  0.0620  0.7230
  159SOL     OW  633   1.210   1.721   0.500  0.0687  0.2357 -0.2844
  159SOL    HW1  634   1.171   1.681   0.423  0.6774 -1.2152 -0.3770
  159SOL    HW2  635   1.140   1.763   0.545 -0.1037 -1.2512 -2.4522
  159SOL     MW  636   1.195   1.721   0.496  0.1263 -0.1519 -0.5826
  160SOL     OW  637   0.487   1.151   1.532 -0.4906  0.2099 -0.0899
  160SOL    HW1  638   0.441   1.096   1.602 -2.1698  1.3566  3.2693
  160SOL    HW2  639   0.576   1.117   1.536  2.1946  0.1533 -2.5818
  160SOL     MW  640   0.492   1.139   1.542 -0.3579  0.3538  0.0245
  161SOL     OW  641   0.487   2.304   2.668  0.2149 -0.0869 -0.6198
  161SOL    HW1  642   0.405   2.354   2.648 -1.3810  4.9129  0.3031
  161SOL    HW2  643   0.492   2.229   2.612 -1.0618  1.0123 -0.3968
  161SOL     MW  644   0.477   2.301   2.658 -0.1641  0.7178 -0.4686
  162SOL     OW  645   1.095   1.803   1.823  0.3798  0.1523  0.4840
  162SOL    HW1  646   1.100   1.897   1.859  3.9987  1.1834 -0.5920
  162SOL    HW2  647   1.016   1.753   1.858 -3.4145  0.2702  2.3862
  162SOL     MW  648   1.085   1.809   1.833  0.3566  0.3039  0.5930
  163SOL     OW  649   2.133   3.039   0.806 -0.1313 -0.2525 -0.0031
  163SOL    HW1  650   2.091   3.112   0.762  0.4568  0.7667  0.4378
  163SOL    HW2  651   2.073   2.964   0.793 -0.9513 -2.8197 -1.8419
  163SOL     MW  652   2.120   3.038   0.798 -0.1619 -0.4568 -0.1875
  164SOL     OW  653   0.225   0.241   0.804 -0.5860 -0.7651 -0.5602
  164SOL    HW1  654   0.131   0.214   0.834 -1.0369 -0.8200 -1.7243
  164SOL    HW2  655   0.243   0.167   0.747 -0.1010 -1.0158 -1.7973
  164SOL     MW  656   0.215   0.228   0.800 -0.5815 -0.8054 -0.8770
  165SOL     OW  657   1.153   1.288   0.373 -0.3046  0.3246  0.2813
  165SOL    HW1  658   1.176   1.250   0.450 -1.8347 -0.0138 -1.2371
  165SOL    HW2  659   1.212   1.249   0.303  1.6763 -0.9127 -0.6644
  165SOL     MW  660   1.164   1.278   0.374 -0.2451  0.1167 -0.0438
  166SOL     OW  661   0.349   1.158   1.057 -0.4400  1.1201  0.2272
  166SOL    HW1  662   0.366   1.175   1.151 -0.5628 -1.8966  2.0575
  166SOL    HW2  663   0.433   1.130   1.032 -0.6055  1.2026 -2.7771
  166SOL     MW  664   0.362   1.156   1.066 -0.4780  0.7330  0.0723
  167SOL     OW  665   0.800   1.173   0.388 -0.1913 -0.7818  0.3200
  167SOL    HW1  666   0.833   1.267   0.401 -1.3742  0.6895  1.1116
  167SOL    HW2  667   0.835   1.136   0.308 -0.8036 -0.1208  1.1590
  167SOL     MW  668   0.809   1.181   0.379 -0.4281 -0.5005  0.5352
  168SOL     OW  669   1.691   1.630   3.041 -0.7581  0.6096  0.4302
  168SOL    HW1  670   1.627   1.702   3.026 -2.3845  0.8495  0.0923
  168SOL    HW2  671   1.659   1.549   2.997  2.8042 -0.8753  0.2396
  168SOL     MW  672   1.678   1.629   3.033 -0.5027  0.4454  0.3605
  169SOL     OW  673   0.302   0.931   1.343  0.0366 -0.5185  0.1133
  169SOL    HW1  674   0.321   0.886   1.421  0.8319 -1.8978 -0.0047
  169SOL    HW2  675   0.291   1.013   1.382 -0.2756 -1.3963  3.6497
  169SOL     MW  676   0.303   0.936   1.358  0.1003 -0.8163  0.5643
  170SOL     OW  677   1.102   1.562   1.461 -0.0400  0.3868  0.1457
  170SOL    HW1  678   1.052   1.640   1.484 -3.7936 -1.6193 -0.0173
  170SOL    HW2  679   1.076   1.550   1.371 -0.2543  2.5634 -1.4963
  170SOL     MW  680   1.092   1.571   1.452 -0.5635  0.4093 -0.0925
  171SOL     OW  681   0.486   1.512   0.521  0.4095  0.2571 -0.4821
  171SOL    HW1  682   0.396   1.511   0.512  1.3591 -1.1270 -1.8510
  171SOL    HW2  683   0.492   1.421   0.495 -0.9848  1.6799  3.1328
  171SOL     MW  684   0.475   1.500   0.516  0.3508  0.2622 -0.1858
  172SOL     OW  685   0.764   0.292   1.274  0.4399  0.0566  0.3808
  172SOL    HW1  686   0.724   0.254   1.193 -1.5341 -2.8161 -1.4576
  172SOL    HW2  687   0.810   0.223   1.325 -0.4539  2.0875  0.8184
  172SOL     MW  688   0.765   0.278   1.270  0.0615 -0.0545  0.1960
  173SOL     OW  689   0.501   1.769   0.309  0.0566 -0.3079 -0.5741
  173SOL    HW1  690   0.505   1.669   0.306  1.0341 -1.1614  0.1959
  173SOL    HW2  691   0.532   1.781   0.398 -0.6701  0.3815  0.3926
  173SOL     MW  692   0.505   1.758   0.320  0.0897 -0.3295 -0.3450
  174SOL     OW  693   1.916   0.888   1.512  0.3718  0.1920  0.0129
  174SOL    HW1  694   1.840   0.840   1.545  0.0030  1.7059 -0.3782
  174SOL    HW2  695   1.913   0.869   1.418 -0.5454  1.4858 -3.5898
  174SOL     MW  696   1.906   0.879   1.504  0.2021  0.5624 -0.5141
  175SOL     OW  697   0.597   1.482   0.223 -0.1903  0.3032  0.0697
  175SOL    HW1  698   0.546   1.420   0.271  0.5622  1.2776  0.9810
  175SOL    HW2  699   0.684   1.450   0.252  0.2063  0.2744  1.3186
  175SOL     MW  700   0.602   1.469   0.233 -0.0387  0.4280  0.3547
  176SOL     OW  701   0.094   1.505   1.229 -0.3591 -0.0491 -0.2832
  176SOL    HW1  702   0.118   1.474   1.139 -1.5348 -1.5545 -0.3871
  176SOL    HW2  703   0.018   1.456   1.251 -0.5729  0.7167  1.8784
  176SOL     MW  704   0.087   1.495   1.220 -0.5424 -0.1467 -0.0117
  177SOL     OW  705   0.512   0.263   1.425  0.6167  0.3612  0.2905
  177SOL    HW1  706   0.567   0.283   1.351 -1.1237  0.9205 -1.2306
  177SOL    HW2  707   0.493   0.341   1.475  1.1366  0.9596 -0.9092
  177SOL     MW  708   0.517   0.276   1.422  0.4556  0.5139 -0.0685
  178SOL     OW  709   3.103   0.607   2.951  0.4189  0.8792 -0.5656
  178SOL    HW1  710   3.044   0.585   3.015  0.0248  2.1914 -1.3704
  178SOL    HW2  711   3.057   0.624   2.876  2.6671 -0.6243  1.8073
  178SOL     MW  712   3.089   0.607   2.950  0.6635  0.8540 -0.3587
  179SOL     OW  713   1.562   1.482   1.371  0.0461 -0.1044 -0.4667
  179SOL    HW1  714   1.572   1.484   1.470  0.0985 -1.0091 -1.5512
  179SOL    HW2  715   1.644   1.461   1.321  0.6941 -0.3871  2.0118
  179SOL     MW  716   1.574   1.480   1.378  0.1385 -0.2610 -0.2828
  180SOL     OW  717   0.045   0.243   0.428  0.3756 -0.4735  0.3373
  180SOL    HW1  718  -0.036   0.258   0.374 -0.5467 -0.1637  0.4064
  180SOL    HW2  719   0.090   0.324   0.451  3.0145 -0.2233 -0.4087
  180SOL     MW  720   0.040   0.255   0.424  0.6021 -0.3996  0.2480
  181SOL     OW  721   1.083   1.335   0.041  0.1906  0.0430  0.1951
  181SOL    HW1  722   1.156   1.326   0.096 -1.7279 -2.6889  1.2919
  181SOL    HW2  723   1.108   1.278  -0.030  3.0302 -2.6955  1.1445
  181SOL     MW  724   1.096   1.327   0.039  0.3121 -0.6788  0.4650
  182SOL     OW  725   0.357   0.881   1.614 -0.1926  0.7672  0.1940
  182SOL    HW1  726   0.265   0.899   1.641  0.4822  1.8064 -2.3243
  182SOL    HW2  727   0.406   0.845   1.686  0.7774 -0.6880 -0.3679
  182SOL     MW  728   0.351   0.879   1.627  0.0244  0.7123 -0.2124
  183SOL     OW  729   1.545   1.741   1.280  0.1317 -0.3729 -0.2012
  183SOL    HW1  730   1.638   1.741   1.279 -0.5712  0.6801  0.6129
  183SOL    HW2  731   1.524   1.660   1.339 -0.3384  0.7423  1.9736
  183SOL     MW  732   1.555   1.730   1.288 -0.0231 -0.0868  0.1932
  184SOL     OW  733   0.839   0.628   1.721  0.5786  0.1590 -0.7742
  184SOL    HW1  734   0.930   0.664   1.710 -1.9246  1.2787 -0.8608
  184SOL    HW2  735   0.851   0.572   1.799  0.7342  1.2971 -0.4726
  184SOL     MW  736   0.853   0.626   1.730  0.2689  0.4569 -0.7458
  185SOL     OW  737   1.084   0.966   1.874 -0.5771 -0.1920 -0.3970
  185SOL    HW1  738   1.071   0.874   1.911  0.7733  1.7843  1.0539
  185SOL    HW2  739   1.139   1.006   1.939 -1.2198  0.7287  1.6270
  185SOL     MW  740   1.089   0.959   1.888 -0.4837  0.1902  0.0615
  186SOL     OW  741   0.260   1.623   1.530  0.5520  0.6651 -0.2578
  186SOL    HW1  742   0.268   1.583   1.442 -0.0737 -1.5957  1.9013
  186SOL    HW2  743   0.176   1.589   1.569  1.5883 -0.2701 -0.8819
  186SOL     MW  744   0.250   1.613   1.523  0.6062  0.2434 -0.0553
  187SOL     OW  745   1.409   0.823   1.355  0.0029  0.5768  0.4729
  187SOL    HW1  746   1.456   0.833   1.438 -1.8835  0.3253  0.4734
  187SOL    HW2  747   1.314   0.822   1.367  0.3187  0.3716 -0.1524
  187SOL     MW  748   1.402   0.825   1.368 -0.2043  0.5165  0.3905
  188SOL     OW  749   1.851   1.223   0.930  0.4291 -0.2357 -0.0896
  188SOL    HW1  750   1.896   1.234   1.016 -0.1119  0.0341 -0.2257
  188SOL    HW2  751   1.834   1.129   0.918 -0.4736 -1.5355 -0.3832
  188SOL     MW  752   1.854   1.212   0.940  0.2386 -0.3716 -0.1463
  189SOL     OW  753   0.726   0.714   0.854 -0.0573 -0.1634 -0.0145
  189SOL    HW1  754   0.652   0.768   0.847  2.6479  0.2187  0.0712
  189SOL    HW2  755   0.772   0.745   0.934  0.8814  1.1809  0.6071
  189SOL     MW  756   0.722   0.726   0.863  0.4235  0.0644  0.0788
  190SOL     OW  757   1.879   0.274   2.040  0.4089  0.4178 -0.5345
  190SOL    HW1  758   1.878   0.233   2.129 -1.9979  0.4579  1.8245
  190SOL    HW2  759   1.956   0.334   2.046 -1.0596  1.4935  4.1959
  190SOL     MW  760   1.889   0.276   2.053 -0.1024  0.5650  0.4009
  191SOL     OW  761   1.527   1.043   1.229 -0.5971  0.3231  0.0390
  191SOL    HW1  762   1.519   1.118   1.293 -1.6510  3.1999  0.0757
  191SOL    HW2  763   1.472   0.973   1.263 -1.9519  0.4953  0.0771
  191SOL     MW  764   1.519   1.044   1.242 -0.9149  0.7254  0.0488
  192SOL     OW  765   0.503   2.198   2.952 -0.1140 -0.0444  0.0994
  192SOL    HW1  766   0.488   2.276   2.898  1.7603 -0.0114 -2.3735
  192SOL    HW2  767   0.482   2.116   2.903  0.4404  0.7650  1.3922
  192SOL     MW  768   0.498   2.197   2.939  0.2064  0.0667 -0.0563
  193SOL     OW  769   0.835   1.663   0.792  0.0019  0.5218 -0.1222
  193SOL    HW1  770   0.738   1.670   0.821 -2.9121  0.1656 -0.9795
  193SOL    HW2  771   0.842   1.596   0.731 -1.0154  3.2055  0.7994
  193SOL     MW  772   0.823   1.655   0.788 -0.5168  0.8289 -0.1137
  194SOL     OW  773   0.383   1.338   0.837 -0.0292 -0.2262 -0.1745
  194SOL    HW1  774   0.357   1.281   0.903 -1.4534 -1.3742 -0.4405
  194SOL    HW2  775   0.302   1.373   0.800  1.4957 -0.9831 -0.4103
  194SOL     MW  776   0.369   1.335   0.841 -0.0159 -0.4776 -0.2407
  195SOL     OW  777   1.225   1.119   2.996  0.5499  0.2433 -0.9680
  195SOL    HW1  778   1.261   1.100   3.082 -1.9983 -2.2372  0.5905
  195SOL    HW2  779   1.142   1.064   2.990 -1.8142 -2.7120 -0.1736
  195SOL     MW  780   1.219   1.109   3.006 -0.0982 -0.4739 -0.6575
  196SOL     OW  781   2.247   0.988   0.520  0.1224 -0.3354  0.0478
  196SOL    HW1  782   2.309   0.964   0.452  1.3881 -3.4846 -0.7401
  196SOL    HW2  783   2.221   1.076   0.502 -2.5251 -0.9469  2.2156
  196SOL     MW  784   2.252   0.997   0.509 -0.0599 -0.8316  0.2299
  197SOL     OW  785   0.614   1.324   2.177 -0.2096 -0.6577  0.2288
  197SOL    HW1  786   0.637   1.253   2.116  0.5816 -1.2013 -1.5173
  197SOL    HW2  787   0.651   1.407   2.142  1.6369  2.2380  1.1888
  197SOL     MW  788   0.622   1.326   2.164  0.1384 -0.3474  0.1250
  198SOL     OW  789   2.922   1.407   1.015 -0.3311 -0.8693  0.2085
  198SOL    HW1  790   2.895   1.497   0.982  1.3502 -0.4543  0.3093
  198SOL    HW2  791   2.839   1.345   1.009  0.7592 -1.4269  1.2267
  198SOL     MW  792   2.907   1.410   1.010  0.0346 -0.8881  0.3562
  199SOL     OW  793   0.651   1.244   1.811 -0.2373 -0.7021  0.5665
  199SOL    HW1  794   0.558   1.232   1.829  2.1354 -0.6289 -0.2287
  199SOL    HW2  795   0.663   1.332   1.761  0.0417 -0.0475 -0.8343
  199SOL     MW  796   0.640   1.254   1.807  0.1126 -0.6061  0.2767
  200SOL     OW  797   1.845   2.966   1.289  0.3576  0.0693  0.3578
  200SOL    HW1  798   1.920   2.957   1.222  1.8965 -2.0484  1.0411
  200SOL    HW2  799   1.807   3.051   1.295  1.4135 -1.4427 -1.2029
  200SOL     MW  800   1.850   2.976   1.281  0.6999 -0.4096  0.2421
  201SOL     OW  801   1.183   0.295   0.852  0.1250 -0.1149  0.0766
  201SOL    HW1  802   1.154   0.216   0.813 -0.8753  1.9569  0.3924
  201SOL    HW2  803   1.278   0.286   0.863  0.8622 -0.3086  3.5389
  201SOL     MW  804   1.192   0.283   0.849  0.0903  0.1329  0.5750
  202SOL     OW  805   1.463   1.717   1.010 -0.4693 -0.7251 -0.1012
  202SOL    HW1  806   1.480   1.621   0.985 -0.2733  0.0956 -2.3745
  202SOL    HW2  807   1.497   1.730   1.101 -0.2189 -2.1629  2.5056
  202SOL     MW  808   1.470   1.706   1.019 -0.4104 -0.8065 -0.0572
  203SOL     OW  809   0.015   0.410   1.342  0.1336  0.1425  0.4769
  203SOL    HW1  810   0.017   0.319   1.321  0.5925  2.9642 -1.2857
  203SOL    HW2  811   0.089   0.450   1.294 -0.7873  0.6954 -0.6917
  203SOL     MW  812   0.025   0.403   1.333  0.0727  0.5877  0.0902
  204SOL     OW  813   1.002   1.842   0.656  0.0731  0.0383  0.0880
  204SOL    HW1  814   0.975   1.782   0.726 -1.4771  0.5430  0.7062
  204SOL    HW2  815   0.919   1.840   0.605  0.0235 -0.8989 -1.6004
  204SOL     MW  816   0.988   1.834   0.659 -0.1380 -0.0188 -0.0532
  205SOL     OW  817   1.397   3.010   1.306 -0.7145  0.0567  1.1748
  205SOL    HW1  818   1.421   3.022   1.216  0.0974 -0.7418  0.6786
  205SOL    HW2  819   1.352   3.089   1.336 -1.6560 -1.0770  0.2786
  205SOL     MW  820   1.394   3.022   1.298 -0.7316 -0.1982  0.9911
  206SOL     OW  821   0.365   2.887   1.367 -0.3354 -0.7643  0.2168
  206SOL    HW1  822   0.359   2.915   1.277 -0.1837  0.6699  0.5673
  206SOL    HW2  823   0.453   2.896   1.401 -0.7178  1.1005  2.9727
  206SOL     MW  824   0.376   2.892   1.360 -0.3658 -0.3291  0.6267
  207SOL     OW  825   0.868   1.737   0.222 -0.4589 -0.3090  0.1652
  207SOL    HW1  826   0.946   1.760   0.169  0.4360 -2.2833  0.0439
  207SOL    HW2  827   0.885   1.647   0.244  0.4005 -1.4286 -1.5298
  207SOL     MW  828   0.880   1.728   0.218 -0.2275 -0.7172 -0.0744
  208SOL     OW  829   0.791   1.516   1.357  0.1122 -0.4750  0.3524
  208SOL    HW1  830   0.877   1.547   1.324 -2.9363 -0.1100  3.5436
  208SOL    HW2  831   0.759   1.445   1.295  0.2904 -0.8427 -1.2332
  208SOL     MW  832   0.798   1.511   1.344 -0.2665 -0.4754  0.5642
  209SOL     OW  833   1.614   0.475   2.828 -0.2400  0.1415  0.0282
  209SOL    HW1  834   1.659   0.557   2.833  0.6049  1.4653  1.1603
  209SOL    HW2  835   1.661   0.427   2.759 -2.2590 -0.4865 -1.6133
  209SOL     MW  836   1.626   0.479   2.819 -0.3949  0.2333 -0.0390
  210SOL     OW  837   1.463   1.413   0.972 -0.7948 -0.1377 -0.8452
  210SOL    HW1  838   1.553   1.410   0.948 -1.8711  1.2790  1.0901
  210SOL    HW2  839   1.413   1.432   0.892  0.4723  0.8717 -1.2596
  210SOL     MW  840   1.468   1.415   0.958 -0.7697  0.1824 -0.6445
  211SOL     OW  841   1.746   0.475   0.893  0.2293 -0.6260 -0.4703
  211SOL    HW1  842   1.759   0.456   0.805  0.3284  2.4465 -0.2610
  211SOL    HW2  843   1.830   0.452   0.926 -3.8808  0.2704 -0.1203
  211SOL     MW  844   1.759   0.469   0.886 -0.2999 -0.1023 -0.3965
  212SOL     OW  845   0.392   1.206   0.212  0.4266  0.1836  0.3493
  212SOL    HW1  846   0.343   1.123   0.214  1.9341  2.0964  1.9006
  212SOL    HW2  847   0.477   1.207   0.155 -0.1307  4.3018  0.7351
  212SOL     MW  848   0.397   1.195   0.205  0.5519  0.9794  0.6049
  213SOL     OW  849   0.423   1.789   3.044  0.3676 -0.3769  0.4505
  213SOL    HW1  850   0.477   1.845   3.100 -0.7009 -0.5719  1.4389
  213SOL    HW2  851   0.431   1.817   2.950 -0.1569  1.4109 -0.8064
  213SOL     MW  852   0.431   1.800   3.039  0.1574 -0.1667  0.4151
  214SOL     OW  853   0.570   0.360   2.119 -0.3430  0.3979  0.4398
  214SOL    HW1  854   0.491   0.422   2.124  2.0791  0.6487 -2.1444
  214SOL    HW2  855   0.584   0.329   2.024 -0.5725  1.4919 -1.2194
  214SOL     MW  856   0.561   0.364   2.107 -0.0537  0.5753 -0.1201
  215SOL     OW  857   0.508   0.502   2.487  0.9970  1.1749 -0.1943
  215SOL    HW1  858   0.474   0.571   2.428 -2.1388 -1.2529  1.0928
  215SOL    HW2  859   0.446   0.433   2.494 -0.2163  2.6931  1.7946
  215SOL     MW  860   0.495   0.502   2.480  0.4232  1.0549  0.2379
  216SOL     OW  861   2.918   3.095   2.842 -0.0010 -0.0293  0.8062
  216SOL    HW1  862   2.837   3.045   2.837 -0.9317 -0.1767 -1.2138
  216SOL    HW2  863   2.905   3.153   2.775  0.9127 -0.9892  2.3350
  216SOL     MW  864   2.906   3.096   2.833 -0.0033 -0.1754  0.7414
  217SOL     OW  865   0.947   1.093   0.150  0.0743 -0.2385 -0.1716
  217SOL    HW1  866   0.959   1.021   0.088 -0.2276  1.9804 -0.1202
  217SOL    HW2  867   1.002   1.167   0.129 -0.0540  2.9941  0.9699
  217SOL     MW  868   0.956   1.093   0.139  0.0175  0.4808 -0.0142
  218SOL     OW  869   0.834   1.377   2.609 -0.6519  0.4948 -0.1398
  218SOL    HW1  870   0.816   1.320   2.682 -2.0538  1.3101 -1.2229
  218SOL    HW2  871   0.922   1.414   2.625  0.5657  1.4308 -1.2949
  218SOL     MW  872   0.843   1.375   2.621 -0.6762  0.7259 -0.4351
  219SOL     OW  873   1.042   0.473   2.561  0.6141 -0.2001 -0.3572
  219SOL    HW1  874   1.107   0.530   2.608 -3.1172 -1.0065 -1.9647
  219SOL    HW2  875   0.977   0.535   2.531  0.8785 -0.3212  0.3072
  219SOL     MW  876   1.042   0.489   2.563  0.1567 -0.3225 -0.4817
  220SOL     OW  877   1.681   0.497   2.215 -0.5206 -0.3030  0.6651
  220SOL    HW1  878   1.616   0.563   2.184 -1.0760 -0.9668 -0.5810
  220SOL    HW2  879   1.684   0.431   2.147  1.7018 -0.7565 -0.8173
  220SOL     MW  880   1.673   0.497   2.202 -0.3007 -0.4504  0.3051
  221SOL     OW  881   0.372   1.380   2.949 -0.3765 -0.1435  0.1153
  221SOL    HW1  882   0.411   1.294   2.919  1.1354 -0.7947 -0.6901
  221SOL    HW2  883   0.451   1.444   2.938  0.3069  0.2016 -2.9919
  221SOL     MW  884   0.388   1.377   2.943 -0.0868 -0.1839 -0.4009
  222SOL     OW  885   0.520   0.911   2.734 -0.0878 -0.0379  0.0655
  222SOL    HW1  886   0.427   0.888   2.751 -0.3581 -0.4890 -2.0756
  222SOL    HW2  887   0.568   0.825   2.724 -0.4188 -0.5068  0.6467
  222SOL     MW  888   0.514   0.897   2.735 -0.1671 -0.1593 -0.1403
  223SOL     OW  889   3.037   2.031   2.509 -0.2241  0.0733  0.3159
  223SOL    HW1  890   3.019   2.014   2.601  0.5350  4.6315 -0.2355
  223SOL    HW2  891   3.076   2.119   2.507 -2.8479 -0.1025 -4.8234
  223SOL     MW  892   3.040   2.040   2.521 -0.4702  0.6515 -0.4349
  224SOL     OW  893   1.469   0.646   2.421 -0.2033 -0.2582 -0.1811
  224SOL    HW1  894   1.538   0.588   2.465  0.5051 -0.5656  1.5915
  224SOL    HW2  895   1.470   0.736   2.450 -1.2286 -0.9876 -1.3496
  224SOL     MW  896   1.478   0.650   2.430 -0.2451 -0.3950 -0.1014
  225SOL     OW  897   2.942   1.497   2.186 -0.1854  0.3974 -0.5606
  225SOL    HW1  898   2.972   1.586   2.156  0.0468 -0.7766 -0.9015
  225SOL    HW2  899   2.868   1.533   2.233 -0.0588 -1.0896  1.3841
  225SOL     MW  900   2.936   1.514   2.188 -0.1381  0.0463 -0.3490
  226SOL     OW  901   0.455   1.568   2.693  0.1786 -0.2221  0.0559
  226SOL    HW1  902   0.531   1.593   2.640 -0.9994  2.3694 -0.9306
  226SOL    HW2  903   0.396   1.643   2.691  1.5068 -1.2069 -1.2999
  226SOL     MW  904   0.457   1.581   2.686  0.1984 -0.0101 -0.2531
  227SOL     OW  905   0.526   1.150   2.879  0.1953  0.1519  0.3431
  227SOL    HW1  906   0.614   1.172   2.840 -2.3385  1.2790 -0.2915
  227SOL    HW2  907   0.522   1.062   2.843  1.9777 -1.2709 -2.6247
  227SOL     MW  908   0.537   1.141   2.869  0.0962  0.1129 -0.1322
  228SOL     OW  909   0.784   1.098   2.023  0.1624 -0.0807  0.0488
  228SOL    HW1  910   0.747   1.147   1.956  1.6437 -0.3943 -1.0156
  228SOL    HW2  911   0.870   1.136   2.039  1.7631 -0.1708 -4.0587
  228SOL     MW  912   0.790   1.110   2.016  0.5690 -0.1340 -0.6336
  229SOL     OW  913   0.197   0.553   0.031 -0.4417  0.2283 -0.2911
  229SOL    HW1  914   0.128   0.549  -0.043 -0.5744 -0.5825  2.2466
  229SOL    HW2  915   0.187   0.467   0.081 -5.0922  1.1915  0.8450
  229SOL     MW  916   0.186   0.541   0.028 -1.0728  0.2484  0.1936
  230SOL     OW  917   1.759   1.349   2.127  0.7225 -0.2501  0.4846
  230SOL    HW1  918   1.694   1.338   2.201 -3.2475 -3.9679 -0.8254
  230SOL    HW2  919   1.826   1.281   2.151  0.3092 -0.0911  3.6875
  230SOL     MW  920   1.759   1.339   2.140  0.1442 -0.7197  0.7344
  231SOL     OW  921   2.723   1.285   2.218 -0.1102 -0.3353  0.2134
  231SOL    HW1  922   2.808   1.326   2.211  0.9867 -1.8182  2.5928
  231SOL    HW2  923   2.661   1.300   2.143 -3.7655  0.0153 -0.8791
  231SOL     MW  924   2.726   1.292   2.208 -0.4478 -0.4847  0.3832
  232SOL     OW  925   2.284   0.885   1.969 -0.5810 -0.0632  0.7508
  232SOL    HW1  926   2.211   0.899   1.905  0.6249 -2.2735 -2.1374
  232SOL    HW2  927   2.256   0.831   2.047  0.5667  1.8317  1.0769
  232SOL     MW  928   2.270   0.880   1.971 -0.2705 -0.1048  0.4127
  233SOL     OW  929   2.102   0.443   2.058  0.0487 -0.2530  0.4182
  233SOL    HW1  930   2.160   0.375   2.042 -1.8268  3.3129  0.9306
  233SOL    HW2  931   2.097   0.460   2.149  0.7455  0.7820 -2.9056
  233SOL     MW  932   2.109   0.437   2.068 -0.1068  0.3540  0.0473
  234SOL     OW  933   0.260   1.054   2.644  0.1457  0.4008 -0.6254
  234SOL    HW1  934   0.183   1.065   2.592 -1.0012 -1.4618 -1.1029
  234SOL    HW2  935   0.295   1.138   2.646  1.6315 -2.4260  0.2724
  234SOL     MW  936   0.255   1.066   2.638  0.1904 -0.2179 -0.5699
  235SOL     OW  937   1.147   0.023   2.828 -0.3454  0.1143 -0.3045
  235SOL    HW1  938   1.195   0.018   2.912 -1.4997 -0.6591  0.0048
  235SOL    HW2  939   1.109   0.110   2.809  0.4783  2.5628 -1.3870
  235SOL     MW  940   1.148   0.034   2.836 -0.3890  0.3353 -0.4065
  236SOL     OW  941   2.960   0.597   0.176  0.0167  0.3437  0.2934
  236SOL    HW1  942   2.990   0.634   0.258 -0.1492 -0.0345 -0.6106
  236SOL    HW2  943   3.025   0.640   0.125 -2.7615  0.9338  1.7827
  236SOL     MW  944   2.972   0.608   0.180 -0.3717  0.3717  0.3706
  237SOL     OW  945   1.901   1.106   2.110 -0.0225  0.7658 -0.1299
  237SOL    HW1  946   1.821   1.053   2.151 -2.2436  0.5593  4.4325
  237SOL    HW2  947   1.877   1.101   2.018 -0.8864  0.5753  1.0359
  237SOL     MW  948   1.887   1.099   2.103 -0.4295  0.7134  0.6259
  238SOL     OW  949   1.089   1.717   2.900  0.1290 -0.1881 -0.1466
  238SOL    HW1  950   1.043   1.639   2.930 -0.7739  2.6365 -0.6856
  238SOL    HW2  951   1.183   1.692   2.897  1.6346  0.4842  0.2256
  238SOL     MW  952   1.095   1.703   2.904  0.2085  0.2733 -0.1686
  239SOL     OW  953   1.171   1.296   2.353 -0.2787 -0.3190  0.3239
  239SOL    HW1  954   1.088   1.337   2.357 -0.0386 -2.1049 -0.5547
  239SOL    HW2  955   1.188   1.269   2.444  2.8292 -0.2667  0.5836
  239SOL     MW  956   1.162   1.298   2.366  0.1631 -0.5477  0.2422
  240SOL     OW  957   0.575   0.847   2.315 -0.2980 -0.2803 -0.0528
  240SOL    HW1  958   0.591   0.895   2.398  1.7807 -1.1903  0.0651
  240SOL    HW2  959   0.652   0.841   2.269 -2.1724 -4.4005 -0.6479
  240SOL     MW  960   0.587   0.852   2.320 -0.2711 -0.9440 -0.1158
  241SOL     OW  961   0.699   0.454   0.003 -1.0187  0.1780 -0.2189
  241SOL    HW1  962   0.718   0.512   0.078  2.5198 -1.8213  1.2427
  241SOL    HW2  963   0.614   0.482  -0.031  2.9687 -0.9988 -0.8795
  241SOL     MW  964   0.690   0.465   0.008 -0.0257 -0.2411 -0.1132
  242SOL     OW  965   1.496   1.613   2.295  0.2546 -0.0285 -0.1989
  242SOL    HW1  966   1.460   1.682   2.350 -1.1150  0.8105 -0.6908
  242SOL    HW2  967   1.426   1.564   2.257  2.1774  1.1239  0.1632
  242SOL     MW  968   1.482   1.615   2.297  0.3276  0.2342 -0.2160
  243SOL     OW  969   0.972   0.250   2.397 -0.3612 -0.1778  0.3399
  243SOL    HW1  970   1.049   0.198   2.369 -2.3044 -1.3512  1.5430
  243SOL    HW2  971   1.006   0.317   2.462  1.1636 -1.4621 -0.7663
  243SOL     MW  972   0.987   0.252   2.401 -0.4164 -0.5021  0.3527
  244SOL     OW  973   0.106   0.786   2.389  0.4239  0.1142  0.1155
  244SOL    HW1  974   0.101   0.875   2.412  0.0875 -0.4322  3.0173
  244SOL    HW2  975   0.194   0.774   2.348  2.9336 -2.0089  0.2957
  244SOL     MW  976   0.117   0.796   2.387  0.7106 -0.2380  0.5221
  245SOL     OW  977   1.267   0.116   2.408  0.5820 -0.6008 -0.4591
  245SOL    HW1  978   1.339   0.104   2.351 -2.6382 -2.3465 -1.3900
  245SOL    HW2  979   1.289   0.073   2.491  0.9478  0.1659 -3.5638
  245SOL     MW  980   1.279   0.109   2.411  0.2054 -0.7300 -0.9915
  246SOL     OW  981   1.184   1.108   2.084 -0.1233 -0.8124 -0.0497
  246SOL    HW1  982   1.109   1.106   2.147 -1.7644 -0.4880  0.6126
  246SOL    HW2  983   1.264   1.075   2.133  1.8330 -1.5477  1.0763
  246SOL     MW  984   1.184   1.103   2.099 -0.0817 -0.8666  0.1862
  247SOL     OW  985   0.774   0.641   0.184  0.3470 -0.0555  0.2149
  247SOL    HW1  986   0.753   0.735   0.163 -0.7795  2.0152  0.9655
  247SOL    HW2  987   0.862   0.627   0.137  0.9049 -2.0491 -3.4255
  247SOL     MW  988   0.783   0.652   0.175  0.2719 -0.0453 -0.1664
  248SOL     OW  989   0.328   1.333   2.618  0.7545  0.2157  0.2454
  248SOL    HW1  990   0.349   1.325   2.525 -0.4599 -1.2661 -0.3176
  248SOL    HW2  991   0.384   1.404   2.646 -0.7488  1.5809 -1.2265
  248SOL     MW  992   0.338   1.341   2.609  0.3959  0.2003 -0.0231
  249SOL     OW  993   3.029   1.924   2.796  0.2162 -0.2756  0.1873
  249SOL    HW1  994   2.990   1.840   2.777 -2.4504 -0.0293 -0.7098
  249SOL    HW2  995   3.073   1.911   2.881  0.8195  1.3535  0.7660
  249SOL     MW  996   3.030   1.911   2.805 -0.0560 -0.0282  0.1453
  250SOL     OW  997   2.271   0.721   2.186  0.1380 -0.7012  0.1437
  250SOL    HW1  998   2.209   0.664   2.228  3.0771  2.0779 -1.7012
  250SOL    HW2  999   2.352   0.699   2.245 -1.7610  0.7075  2.9911
  250SOL     MW 1000   2.273   0.711   2.200  0.2752 -0.1487  0.2760
  251SOL     OW 1001   0.174   0.871   2.028  0.2156 -0.0483 -0.2633
  251SOL    HW1 1002   0.137   0.791   2.050  1.4205  2.8771 -3.3099
  251SOL    HW2 1003   0.127   0.893   1.950 -2.1493  0.2719  1.0989
  251SOL     MW 1004   0.163   0.864   2.021  0.0625  0.3799 -0.4855
  252SOL     OW 1005   1.705   1.037   2.881 -0.1491 -0.1866 -0.0972
  252SOL    HW1 1006   1.692   1.061   2.973 -0.6195 -1.8816 -0.3613
  252SOL    HW2 1007   1.790   1.038   2.849  0.0775 -0.3808 -0.2864
  252SOL     MW 1008   1.715   1.041   2.889 -0.1813 -0.4359 -0.1570
  253SOL     OW 1009   1.142   1.676   2.544 -0.2997 -0.1454  0.1857
  253SOL    HW1 1010   1.145   1.627   2.456  1.0422  0.5167 -3.6369
  253SOL    HW2 1011   1.058   1.730   2.549  0.2891 -0.9772 -2.2743
  253SOL     MW 1012   1.132   1.677   2.533 -0.0449 -0.1678 -0.6432
  254SOL     OW 1013   0.980   1.050   2.254  0.2635 -0.3027  0.4625
  254SOL    HW1 1014   0.915   0.982   2.234 -1.4604 -1.3978 -0.2667
  254SOL    HW2 1015   0.934   1.117   2.310  0.5672  1.2312 -0.9076
  254SOL     MW 1016   0.966   1.050   2.259  0.0761 -0.2448  0.1855
  255SOL     OW 1017   0.855   2.490   2.140 -0.1524 -0.0286 -0.2775
  255SOL    HW1 1018   0.781   2.438   2.113  3.7631 -1.8253 -0.8042
  255SOL    HW2 1019   0.908   2.422   2.188  0.9373 -0.9537 -0.4975
  255SOL     MW 1020   0.853   2.474   2.143  0.5080 -0.3877 -0.3760
  256SOL     OW 1021   1.347   2.790   3.068  0.3822  0.2799 -0.2518
  256SOL    HW1 1022   1.344   2.700   3.098 -0.7906  1.3514  0.8167
  256SOL    HW2 1023   1.375   2.789   2.977 -1.2137  2.6183  0.7104
  256SOL     MW 1024   1.350   2.778   3.060  0.0169  0.7298  0.0161
  257SOL     OW 1025   0.061   1.960   0.062 -0.3067  0.8737 -0.6472
  257SOL    HW1 1026   0.092   1.904   0.130 -0.0868 -1.4729 -1.0729
  257SOL    HW2 1027   0.085   1.902  -0.013  0.9544  1.2447 -0.7507
  257SOL     MW 1028   0.068   1.945   0.061 -0.1113  0.6130 -0.7170
  258SOL     OW 1029   0.691   0.991   2.512  0.3468 -0.2302  0.5566
  258SOL    HW1 1030   0.668   1.074   2.473 -0.7555  1.5893 -0.0579
  258SOL    HW2 1031   0.633   1.002   2.594 -2.0908 -1.7237  1.7031
  258SOL     MW 1032   0.681   1.004   2.518 -0.1202 -0.1872  0.6268
  259SOL     OW 1033   0.808   0.415   2.244 -0.0959 -0.6020  0.6326
  259SOL    HW1 1034   0.715   0.394   2.235  1.9766  2.5845 -0.3285
  259SOL    HW2 1035   0.862   0.347   2.293 -1.2437 -1.0977  1.6786
  259SOL     MW 1036   0.803   0.403   2.249  0.0261 -0.2470  0.6438
  260SOL     OW 1037   0.639   0.081   1.610  0.4022 -0.4778 -0.2500
  260SOL    HW1 1038   0.583   0.114   1.545  1.5465 -1.4790  0.7641
  260SOL    HW2 1039   0.729   0.095   1.574 -0.6392 -3.1203  4.0798
  260SOL     MW 1040   0.644   0.087   1.597  0.4158 -0.9586  0.4551
  261SOL     OW 1041   1.017   0.729   2.010  0.3094  0.8056  0.2489
  261SOL    HW1 1042   1.069   0.709   2.088 -0.4150 -0.1201 -1.2577
  261SOL    HW2 1043   0.964   0.648   2.009  0.0466 -2.2521  1.2873
  261SOL     MW 1044   1.017   0.716   2.020  0.1792  0.2800  0.1871
  262SOL     OW 1045   1.130   0.301   0.139 -0.7202  0.1373  0.5761
  262SOL    HW1 1046   1.213   0.330   0.096  0.2693 -0.7155  1.0899
  262SOL    HW2 1047   1.077   0.261   0.069  0.0125  2.3708 -1.3308
  262SOL     MW 1048   1.134   0.300   0.124 -0.4930  0.3195  0.3923
  263SOL     OW 1049   0.418  -0.003   2.464 -0.8313  0.0564  0.7033
  263SOL    HW1 1050   0.378   0.066   2.511  1.8134  1.3207 -0.9727
  263SOL    HW2 1051   0.444   0.045   2.388  1.3394 -1.1815  0.8626
  263SOL     MW 1052   0.416   0.012   2.460 -0.1960  0.0599  0.5032
  264SOL     OW 1053   1.554   1.483   1.905 -0.0743 -0.4885  0.0642
  264SOL    HW1 1054   1.470   1.432   1.914  0.2527 -1.7102  1.8643
  264SOL    HW2 1055   1.600   1.462   1.989  0.2483  0.0642 -3.1714
  264SOL     MW 1056   1.549   1.473   1.917  0.0114 -0.5768 -0.1252
  265SOL     OW 1057   0.712   2.784   2.315 -0.2047 -0.2909  0.6456
  265SOL    HW1 1058   0.780   2.720   2.288 -0.4322 -2.3007  3.4548
  265SOL    HW2 1059   0.711   2.780   2.412 -0.2170  0.4290  1.0677
  265SOL     MW 1060   0.721   2.775   2.325 -0.2363 -0.4611  1.0719
  266SOL     OW 1061   0.820   0.865   2.165 -0.1215 -0.2551 -0.5505
  266SOL    HW1 1062   0.793   0.941   2.115  0.1798 -0.2028 -0.4233
  266SOL    HW2 1063   0.894   0.815   2.116  2.0876 -0.1522  1.5145
  266SOL     MW 1064   0.826   0.869   2.152  0.2097 -0.2346 -0.2613
  267SOL     OW 1065   1.382   1.748   2.668  0.2487  0.2496  0.3630
  267SOL    HW1 1066   1.451   1.695   2.633 -0.7656  2.8579 -0.0831
  267SOL    HW2 1067   1.299   1.719   2.621 -2.7218 -3.4110  0.0295
  267SOL     MW 1068   1.380   1.737   2.657 -0.2770  0.1108  0.2601
  268SOL     OW 1069   0.105   0.920   1.738 -0.4117  0.0558 -0.1464
  268SOL    HW1 1070   0.032   0.975   1.759 -1.4069 -0.8314 -0.8849
  268SOL    HW2 1071   0.057   0.844   1.698 -1.7603 -2.0921 -2.6559
  268SOL     MW 1072   0.089   0.917   1.736 -0.7209 -0.3447 -0.5749
  269SOL     OW 1073   1.378   1.846   2.389 -0.2935 -0.4088  0.7833
  269SOL    HW1 1074   1.411   1.930   2.425  2.4245 -0.6014  1.2134
  269SOL    HW2 1075   1.288   1.835   2.411 -0.2720 -4.2776  0.0322
  269SOL     MW 1076   1.370   1.856   2.396  0.0680 -0.9446  0.7410
  270SOL     OW 1077   1.094   0.448   1.517  0.4315  0.0624  0.3248
  270SOL    HW1 1078   1.029   0.383   1.537 -1.1143  1.5859  0.8685
  270SOL    HW2 1079   1.176   0.406   1.525 -2.2900  1.5059 -1.3325
  270SOL     MW 1080   1.096   0.434   1.521 -0.1315  0.4539  0.1778
  271SOL     OW 1081   0.792   0.078   2.532 -0.9390 -0.0436  0.7122
  271SOL    HW1 1082   0.849   0.027   2.590 -1.7113  2.0699  2.3689
  271SOL    HW2 1083   0.859   0.115   2.478 -3.9252 -1.9896  0.3881
  271SOL     MW 1084   0.809   0.076   2.532 -1.4349 -0.0215  0.8881
  272SOL     OW 1085   1.460   2.769   2.811 -0.5711  0.0860  0.2557
  272SOL    HW1 1086   1.406   2.769   2.738 -0.9500  0.7753 -0.1599
  272SOL    HW2 1087   1.510   2.857   2.814  2.4767  0.0179 -1.0399
  272SOL     MW 1088   1.460   2.780   2.802 -0.2190  0.1680  0.0299
  273SOL     OW 1089   1.462   0.820   2.812  0.0553 -0.3518 -0.2620
  273SOL    HW1 1090   1.548   0.791   2.829  0.0481  0.4211 -1.3803
  273SOL    HW2 1091   1.463   0.918   2.801 -2.4036  0.6971 -0.0787
  273SOL     MW 1092   1.473   0.829   2.813 -0.2701 -0.1115 -0.3854
  274SOL     OW 1093   1.403   0.627   0.118 -0.1037  0.2781 -0.1394
  274SOL    HW1 1094   1.470   0.565   0.152  1.6190 -0.0518 -0.7845
  274SOL    HW2 1095   1.327   0.624   0.182  0.6922 -0.0120  1.6287
  274SOL     MW 1096   1.402   0.619   0.131  0.2286  0.1963  0.0088
  275SOL     OW 1097   1.843   0.554   1.695  0.4254 -0.0460  0.0451
  275SOL    HW1 1098   1.869   0.610   1.766 -3.4209 -0.6986 -1.8767
  275SOL    HW2 1099   1.835   0.464   1.726  3.1757  1.4286 -0.0901
  275SOL     MW 1100   1.845   0.550   1.708  0.2808  0.0625 -0.2263
  276SOL     OW 1101   0.371   1.164   1.934  0.7406 -0.3566  0.2888
  276SOL    HW1 1102   0.393   1.087   1.989  0.5602  0.0266 -0.0683
  276SOL    HW2 1103   0.352   1.242   1.989 -0.5343  0.7990  1.8217
  276SOL     MW 1104   0.371   1.165   1.948  0.5486 -0.1536  0.4439
  277SOL     OW 1105   1.956   1.134   2.468 -0.1212  0.2011 -0.5362
  277SOL    HW1 1106   1.962   1.226   2.486 -0.1683 -0.6713  0.0234
  277SOL    HW2 1107   2.026   1.115   2.408 -1.0558  0.8501  1.6210
  277SOL     MW 1108   1.966   1.144   2.463 -0.2508  0.1716 -0.1778
  278SOL     OW 1109   1.469   0.611   1.606  0.2335  0.3735 -0.6424
  278SOL    HW1 1110   1.483   0.594   1.697  0.8463 -0.2662  1.1586
  278SOL    HW2 1111   1.555   0.651   1.574  0.7114  2.2929 -1.5832
  278SOL     MW 1112   1.483   0.614   1.614  0.3774  0.5424 -0.5289
  279SOL     OW 1113   0.506   0.106   2.236 -0.1742 -0.1473 -0.6729
  279SOL    HW1 1114   0.581   0.043   2.226 -0.4242 -4.1999  1.8638
  279SOL    HW2 1115   0.519   0.198   2.203  0.8001  0.6581 -2.9504
  279SOL     MW 1116   0.518   0.110   2.230 -0.0786 -0.5757 -0.6387
  280SOL     OW 1117   1.405   0.988   2.249 -0.7095 -0.0904 -0.0913
  280SOL    HW1 1118   1.498   1.002   2.230 -1.5953  2.4038 -0.7283
  280SOL    HW2 1119   1.415   0.964   2.340 -1.6583  0.4183  0.4930
  280SOL     MW 1120   1.418   0.986   2.258 -0.9516  0.3058 -0.0983
  281SOL     OW 1121   1.384   1.066   2.762  0.7076  0.1865  0.0933
  281SOL    HW1 1122   1.439   1.147   2.753  1.9384 -0.6222  1.6745
  281SOL    HW2 1123   1.318   1.080   2.833  0.8441  2.7181  0.2459
  281SOL     MW 1124   1.382   1.078   2.770  0.8880  0.4138  0.3220
  282SOL     OW 1125   1.118   1.306   1.641 -0.9372  0.8388 -0.2004
  282SOL    HW1 1126   1.083   1.397   1.632 -0.4431 -1.2848 -0.4013
  282SOL    HW2 1127   1.047   1.247   1.663  2.4126  0.2172  0.2278
  282SOL     MW 1128   1.104   1.310   1.642 -0.4300  0.4766 -0.1704
  283SOL     OW 1129   0.817   1.352   3.027 -0.2754 -0.2182 -0.6040
  283SOL    HW1 1130   0.898   1.334   3.077  1.6111  0.3071  0.7600
  283SOL    HW2 1131   0.817   1.448   3.019  1.7651 -1.1246  0.4934
  283SOL     MW 1132   0.828   1.362   3.033  0.2427 -0.2685 -0.2792
  284SOL     OW 1133   0.367   0.685   2.326 -0.1436 -0.3611 -0.1425
  284SOL    HW1 1134   0.429   0.762   2.336 -2.2105  0.0222  1.3737
  284SOL    HW2 1135   0.377   0.642   2.240 -2.3951  0.4742 -0.1189
  284SOL     MW 1136   0.376   0.690   2.316 -0.7134 -0.2004  0.0607
  285SOL     OW 1137   0.852   0.882   2.813  0.0367  0.9207 -0.3223
  285SOL    HW1 1138   0.899   0.899   2.735 -0.4294  0.2914 -0.2360
  285SOL    HW2 1139   0.786   0.822   2.776  1.9779  1.6544  0.4032
  285SOL     MW 1140   0.850   0.876   2.798  0.2313  0.9345 -0.2152
  286SOL     OW 1141   1.067   1.464   2.721 -0.0082 -0.7225  0.5690
  286SOL    HW1 1142   1.129   1.395   2.719 -0.0359  0.5189 -2.1506
  286SOL    HW2 1143   1.092   1.537   2.657  1.2165  1.0194  1.1475
  286SOL     MW 1144   1.078   1.464   2.712  0.1497 -0.3289  0.2865
  287SOL     OW 1145   1.099   0.950   0.329 -0.5234 -0.0710  0.1226
  287SOL    HW1 1146   1.065   0.957   0.421  1.7360  1.2952 -1.3612
  287SOL    HW2 1147   1.043   1.007   0.277 -1.4443 -1.4319 -1.7096
  287SOL     MW 1148   1.087   0.958   0.334 -0.3468 -0.0703 -0.3149
  288SOL     OW 1149   1.495   0.701   2.103 -0.3581  0.2166 -0.4481
  288SOL    HW1 1150   1.430   0.704   2.179  1.6272  1.2690 -2.1847
  288SOL    HW2 1151   1.535   0.792   2.116  1.5809 -2.1336 -0.4150
  288SOL     MW 1152   1.492   0.713   2.115  0.1597  0.0454 -0.6729
  289SOL     OW 1153   0.981   0.969   2.580  0.7864  0.5689 -0.1019
  289SOL    HW1 1154   1.035   0.906   2.531  2.4652 -3.0437  0.1934
  289SOL    HW2 1155   0.896   0.969   2.525 -1.0525  1.8481 -2.7178
  289SOL     MW 1156   0.977   0.960   2.566  0.7653  0.2610 -0.4081
  290SOL     OW 1157   0.713   0.659   1.465 -0.5104 -0.5718  0.2365
  290SOL    HW1 1158   0.758   0.596   1.409 -2.4286 -0.8854  0.4445
  290SOL    HW2 1159   0.749   0.639   1.547 -2.3260 -0.2963 -0.4103
  290SOL     MW 1160   0.724   0.648   1.468 -1.0030 -0.5768  0.1786
  291SOL     OW 1161   0.246   0.342   0.201 -0.2746  0.1536  0.3297
  291SOL    HW1 1162   0.340   0.334   0.212 -2.3601 -1.1021  0.2425
  291SOL    HW2 1163   0.214   0.253   0.194  0.6795  1.4800 -0.0805
  291SOL     MW 1164   0.254   0.329   0.202 -0.4239  0.1629  0.2640
  292SOL     OW 1165   1.027   0.587   0.096 -0.0563 -0.2208 -0.1595
  292SOL    HW1 1166   1.069   0.629   0.173 -2.6474  1.8329 -1.5165
  292SOL    HW2 1167   1.072   0.500   0.087  1.8637 -1.7649 -1.5077
  292SOL     MW 1168   1.039   0.581   0.105 -0.1448 -0.1535 -0.5164
  293SOL     OW 1169   0.161   0.138   2.529  0.0416  0.3084 -0.2480
  293SOL    HW1 1170   0.158   0.086   2.451 -3.3915 -0.1009  0.0870
  293SOL    HW2 1171   0.070   0.158   2.550  3.1270  2.3089 -0.1937
  293SOL     MW 1172   0.149   0.133   2.521 -0.0043  0.5184 -0.1966
  294SOL     OW 1173   1.299   0.437   2.318 -1.2151 -0.1170 -0.9942
  294SOL    HW1 1174   1.359   0.506   2.354  2.0989 -0.1825  1.3565
  294SOL    HW2 1175   1.235   0.412   2.387 -0.0101 -1.7960  0.2024
  294SOL     MW 1176   1.298   0.443   2.332 -0.6189 -0.3472 -0.5262
  295SOL     OW 1177   0.852   0.639   2.487 -0.0771  0.5030 -0.0200
  295SOL    HW1 1178   0.811   0.603   2.410  0.9477  2.2047  0.8544
  295SOL    HW2 1179   0.781   0.648   2.553 -0.8996 -0.6098 -0.1844
  295SOL     MW 1180   0.837   0.636   2.486 -0.0504  0.5807  0.0737
  296SOL     OW 1181   1.359   0.338   2.065  0.1007  0.3922  0.4331
  296SOL    HW1 1182   1.386   0.244   2.066 -0.7616 -1.0239 -1.9651
  296SOL    HW2 1183   1.342   0.364   2.153 -0.4530  0.9016 -1.1270
  296SOL     MW 1184   1.360   0.329   2.077 -0.0862  0.2726 -0.0892
  297SOL     OW 1185   1.353   0.372   1.529 -0.0291  0.0777 -0.5722
  297SOL    HW1 1186   1.380   0.457   1.560 -0.1122  1.0297  2.1472
  297SOL    HW2 1187   1.357   0.313   1.607  3.2376 -0.5576  0.9147
  297SOL     MW 1188   1.357   0.375   1.543  0.3909  0.1195 -0.0172
  298SOL     OW 1189   1.680   0.927   2.133  0.8298 -0.0881  0.3987
  298SOL    HW1 1190   1.694   0.948   2.035  2.0096  1.2721  1.7864
  298SOL    HW2 1191   1.754   0.866   2.156  1.3220  0.0181  0.3639
  298SOL     MW 1192   1.691   0.922   2.123  1.0504  0.1053  0.5772
  299SOL     OW 1193   0.613   1.178   0.058 -0.2823 -0.3069 -0.5567
  299SOL    HW1 1194   0.562   1.156  -0.030 -1.3936 -1.0439 -0.2969
  299SOL    HW2 1195   0.651   1.268   0.037 -1.0269  1.1222 -0.2389
  299SOL     MW 1196   0.612   1.187   0.044 -0.5272 -0.2156 -0.4805
  300SOL     OW 1197   1.166   1.187   2.636 -0.0730  0.5494  1.0814
  300SOL    HW1 1198   1.101   1.120   2.623  1.8578  0.9506  0.0845
  300SOL    HW2 1199   1.243   1.146   2.680 -1.3781 -2.4632 -0.6369
  300SOL     MW 1200   1.168   1.173   2.640  0.0095  0.2049  0.7232
  301SOL     OW 1201   1.480   0.991   0.705 -0.4433  0.6558 -0.5245
  301SOL    HW1 1202   1.479   1.004   0.800  1.6712 -0.8860 -1.6064
  301SOL    HW2 1203   1.405   0.930   0.688 -1.5304 -0.4472 -0.2890
  301SOL     MW 1204   1.470   0.985   0.715 -0.3077  0.3068 -0.6362
  302SOL     OW 1205   0.199   1.613   2.038  0.8804  0.0076 -0.5440
  302SOL    HW1 1206   0.225   1.527   2.063  2.5987 -0.5882 -0.2232
  302SOL    HW2 1207   0.103   1.622   2.047  0.9622 -1.5164 -1.1041
  302SOL     MW 1208   0.190   1.603   2.042  1.1179 -0.2721 -0.5755
  303SOL     OW 1209   0.278   1.790   2.678 -0.4231  0.0117 -0.4358
  303SOL    HW1 1210   0.231   1.833   2.606  2.9241 -1.1199 -0.8943
  303SOL    HW2 1211   0.226   1.804   2.754  3.5880  1.1244  1.4313
  303SOL     MW 1212   0.265   1.797   2.679  0.5478  0.0092 -0.2500
  304SOL     OW 1213   0.526   2.088   2.475  0.0559  0.2017 -0.0261
  304SOL    HW1 1214   0.577   2.163   2.453  0.0659  1.3687  0.1913
  304SOL    HW2 1215   0.593   2.020   2.474 -0.0006 -2.3079  1.2046
  304SOL     MW 1216   0.541   2.089   2.472  0.0498  0.0245  0.1649
  305SOL     OW 1217   1.120   0.644   0.556  0.5841 -0.3946  0.3386
  305SOL    HW1 1218   1.027   0.630   0.538 -0.2881 -0.4846  1.9925
  305SOL    HW2 1219   1.164   0.550   0.555 -0.5858  1.3990  1.0010
  305SOL     MW 1220   1.114   0.630   0.554  0.3147 -0.1698  0.6442
  306SOL     OW 1221   1.111   1.543   0.291  0.2063 -0.5339  0.0669
  306SOL    HW1 1222   1.141   1.469   0.341 -0.6493  0.3742  0.0275
  306SOL    HW2 1223   1.177   1.564   0.223  0.2059 -1.4516  0.3095
  306SOL     MW 1224   1.124   1.536   0.289  0.0933 -0.5352  0.0937
  307SOL     OW 1225   1.463   0.540   1.874 -0.0855  0.4523 -0.0061
  307SOL    HW1 1226   1.445   0.454   1.910  1.6695  0.6668  1.6648
  307SOL    HW2 1227   1.496   0.591   1.951  0.0273  1.3456 -0.2439
  307SOL     MW 1228   1.465   0.536   1.889  0.1610  0.5985  0.1830
  308SOL     OW 1229   2.290   0.581   2.758 -0.1822 -0.0726 -0.3269
  308SOL    HW1 1230   2.388   0.576   2.774 -0.4331  0.2346 -0.9062
  308SOL    HW2 1231   2.277   0.677   2.755  2.1767  0.1974 -1.5495
  308SOL     MW 1232   2.301   0.593   2.759  0.0959  0.0036 -0.5646
  309SOL     OW 1233   0.519   0.517   0.287  0.4751 -0.4059  0.1956
  309SOL    HW1 1234   0.595   0.573   0.269  0.5672 -2.2251 -2.1802
  309SOL    HW2 1235   0.527   0.446   0.218  3.3107  2.0177 -0.1055
  309SOL     MW 1236   0.530   0.515   0.275  0.8614 -0.3262 -0.1576
  310SOL     OW 1237   0.378   0.533   1.836  0.3947 -0.0408  0.8217
  310SOL    HW1 1238   0.453   0.477   1.813 -0.8047 -0.3749 -1.9349
  310SOL    HW2 1239   0.408   0.626   1.824  1.0323  1.6035 -2.2875
  310SOL     MW 1240   0.392   0.538   1.831  0.3206  0.1320  0.0478
  311SOL     OW 1241   2.003   0.691   1.923 -0.1107  0.4333 -0.4061
  311SOL    HW1 1242   1.982   0.747   2.003  2.2205  2.0944  2.1659
  311SOL    HW2 1243   2.044   0.610   1.960 -2.2616  2.2666 -1.7196
  311SOL     MW 1244   2.006   0.688   1.939 -0.0869  0.8943 -0.2400
  312SOL     OW 1245   1.725   2.478   0.160  0.3846 -0.2660 -0.2524
  312SOL    HW1 1246   1.732   2.458   0.256 -2.1352 -0.8076 -0.1163
  312SOL    HW2 1247   1.658   2.547   0.151 -0.9958  2.0813  1.2456
  312SOL     MW 1248   1.717   2.484   0.171 -0.1300 -0.0277 -0.0368
  313SOL     OW 1249   0.124   1.144   3.047 -0.7421 -0.1123  0.5615
  313SOL    HW1 1250   0.084   1.179   3.127 -0.5972  0.6455  1.4306
  313SOL    HW2 1251   0.147   1.217   2.986  0.3442 -0.5582  1.9446
  313SOL     MW 1252   0.122   1.158   3.050 -0.5797 -0.0711  0.8586
  314SOL     OW 1253   2.215   2.891   3.088  0.1567 -0.3867 -0.3658
  314SOL    HW1 1254   2.150   2.922   3.020 -0.3487  0.1580  0.0472
  314SOL    HW2 1255   2.259   2.966   3.109  2.2746  0.8108 -0.3922
  314SOL     MW 1256   2.212   2.905   3.082  0.3694 -0.1568 -0.3148
  315SOL     OW 1257   1.515   1.844   3.021 -0.5689 -0.2382  0.0880
  315SOL    HW1 1258   1.445   1.905   3.057 -2.4937  1.2196  3.9280
  315SOL    HW2 1259   1.563   1.904   2.963  2.1394  0.7005  0.8266
  315SOL     MW 1260   1.512   1.860   3.018 -0.4655  0.0780  0.6921
  316SOL     OW 1261   1.221   0.714   2.706  0.2289 -0.0656  0.0683
  316SOL    HW1 1262   1.302   0.754   2.724 -0.3063  0.3225  3.3441
  316SOL    HW2 1263   1.167   0.709   2.784 -0.6718 -0.3437  2.0212
  316SOL     MW 1264   1.224   0.719   2.719  0.0395 -0.0511  0.7582
  317SOL     OW 1265   0.696   1.639   2.575 -0.5576 -0.2870 -0.2069
  317SOL    HW1 1266   0.751   1.556   2.593 -0.8938 -2.1563 -1.5350
  317SOL    HW2 1267   0.659   1.625   2.492  2.2575 -0.6723 -2.1060
  317SOL     MW 1268   0.698   1.626   2.567 -0.2305 -0.5845 -0.6327
  318SOL     OW 1269   1.361   0.415   2.868  0.4327  0.0184 -0.3858
  318SOL    HW1 1270   1.281   0.473   2.865 -0.6029 -0.3349 -0.0369
  318SOL    HW2 1271   1.435   0.457   2.833 -0.4793  0.9214 -1.3958
  318SOL     MW 1272   1.360   0.428   2.863  0.1758  0.0909 -0.4730
  319SOL     OW 1273   0.831   0.512   2.857  0.1543  0.0592  0.0317
  319SOL    HW1 1274   0.787   0.437   2.808 -1.5299  1.4335 -0.9728
  319SOL    HW2 1275   0.797   0.506   2.945  1.5889  0.7820  0.9438
  319SOL     MW 1276   0.820   0.501   2.863  0.1214  0.3359  0.0195
  320SOL     OW 1277   1.002   1.323   1.991 -0.0330 -0.2250  0.4502
  320SOL    HW1 1278   1.072   1.261   1.984 -2.6364 -0.5313 -0.8011
  320SOL    HW2 1279   1.039   1.399   1.945  0.4878  0.2645  0.6480
  320SOL     MW 1280   1.016   1.325   1.984 -0.3078 -0.2008  0.3112
  321SOL     OW 1281   1.033   0.911   3.045 -0.1405  0.3539  0.0629
  321SOL    HW1 1282   0.965   0.865   2.994 -1.4336  1.8461  0.4996
  321SOL    HW2 1283   1.112   0.858   3.025 -2.3479  0.9463 -1.0062
  321SOL     MW 1284   1.035   0.898   3.036 -0.6023  0.6289 -0.0206
  322SOL     OW 1285   1.343   0.869   1.643  0.3625  0.1468  0.0979
  322SOL    HW1 1286   1.401   0.791   1.645  0.4716  0.4931 -1.5704
  322SOL    HW2 1287   1.281   0.854   1.715 -0.9702 -3.4524 -0.8873
  322SOL     MW 1288   1.343   0.857   1.653  0.2011 -0.2824 -0.2522
  323SOL     OW 1289   1.177   1.533   1.889 -0.7118  0.3267  0.2027
  323SOL    HW1 1290   1.208   1.495   1.808 -0.1312 -2.5193  1.1664
  323SOL    HW2 1291   1.160   1.625   1.867 -0.0356 -1.0282 -2.6539
  323SOL     MW 1292   1.179   1.540   1.876 -0.5460 -0.2275 -0.0471
  324SOL     OW 1293   1.441   0.913   2.499  0.2144 -0.2932  0.1570
  324SOL    HW1 1294   1.378   0.927   2.577  1.0128 -1.7643 -0.9649
  324SOL    HW2 1295   1.516   0.965   2.526 -3.8182 -0.7424  0.8009
  324SOL     MW 1296   1.442   0.922   2.513 -0.2124 -0.5465  0.0939
  325SOL     OW 1297   1.095   0.525   2.908 -0.0967  0.3064  0.4262
  325SOL    HW1 1298   1.080   0.551   2.999  2.1926  1.6507 -1.1236
  325SOL    HW2 1299   1.004   0.510   2.878  0.9730 -0.8323 -1.9758
  325SOL     MW 1300   1.081   0.526   2.916  0.3465  0.3335 -0.0952
  326SOL     OW 1301   0.395   1.360   2.362 -0.4876 -0.2822  0.2869
  326SOL    HW1 1302   0.469   1.343   2.305 -0.2758  0.0850 -0.6583
  326SOL    HW2 1303   0.399   1.460   2.366  1.1710  2.1566 -0.2518
  326SOL     MW 1304   0.405   1.371   2.355 -0.2408  0.0881  0.0912
  327SOL     OW 1305   1.954   0.749   2.417  0.0631  0.0098 -0.6461
  327SOL    HW1 1306   1.934   0.713   2.505 -1.0371 -1.3988 -0.6380
  327SOL    HW2 1307   1.986   0.833   2.440 -0.2791 -1.8509  1.9287
  327SOL     MW 1308   1.955   0.755   2.432 -0.1272 -0.4216 -0.3053
  328SOL     OW 1309   0.262   1.342   2.113  0.0318 -0.0104 -0.3456
  328SOL    HW1 1310   0.182   1.289   2.118  3.6351 -0.2138  0.8108
  328SOL    HW2 1311   0.291   1.334   2.208 -1.9781 -0.9525  3.2706
  328SOL     MW 1312   0.256   1.334   2.126  0.2421 -0.1615  0.2841
  329SOL     OW 1313   0.053   0.119   1.362 -0.3717  0.2461  0.3340
  329SOL    HW1 1314   0.037   0.107   1.456 -3.8841  4.2664 -3.4986
  329SOL    HW2 1315   0.146   0.146   1.359 -0.3057  2.6555  0.7037
  329SOL     MW 1316   0.063   0.121   1.374 -0.8264  1.0945 -0.1229
  330SOL     OW 1317   0.335   0.068   1.971 -0.4957 -0.1720 -0.2759
  330SOL    HW1 1318   0.428   0.068   1.952 -1.5040  2.8893 -2.2087
  330SOL    HW2 1319   0.320   0.003   2.039  0.4788 -0.9279 -0.8806
  330SOL     MW 1320   0.345   0.059   1.977 -0.5001  0.1322 -0.6107
  331SOL     OW 1321   0.775   1.242   2.376  0.4592  0.2666  0.7574
  331SOL    HW1 1322   0.710   1.293   2.324 -0.6861  0.2364  0.1680
  331SOL    HW2 1323   0.782   1.299   2.447 -0.3162 -2.9458 -3.0882
  331SOL     MW 1324   0.768   1.256   2.379  0.2058 -0.1612  0.1723
  332SOL     OW 1325   1.355   1.652   2.943  0.3327  0.1677  0.5362
  332SOL    HW1 1326   1.345   1.674   2.848 -0.3936 -1.4979  1.1600
  332SOL    HW2 1327   1.436   1.700   2.960  2.3717 -0.3267 -0.1154
  332SOL     MW 1328   1.364   1.661   2.933  0.5059 -0.1173  0.5325
  333SOL     OW 1329   1.696   1.364   2.924  0.2354 -0.4678 -0.0111
  333SOL    HW1 1330   1.788   1.374   2.894 -1.2882 -0.3910 -2.4181
  333SOL    HW2 1331   1.693   1.278   2.963  0.5706 -2.4349  0.5501
  333SOL     MW 1332   1.708   1.354   2.925  0.0786 -0.7172 -0.2547
  334SOL     OW 1333   1.322   3.063   2.649 -0.4710 -0.4214  0.0046
  334SOL    HW1 1334   1.254   3.075   2.715  3.5993  1.6682 -0.8622
  334SOL    HW2 1335   1.394   3.112   2.691 -1.5147  1.5731 -0.1501
  334SOL     MW 1336   1.323   3.071   2.663 -0.0717  0.1175 -0.1302
  335SOL     OW 1337   1.264   0.773   3.010 -0.0470  0.0383  0.7422
  335SOL    HW1 1338   1.305   0.726   3.084 -0.4806  5.0796 -3.2706
  335SOL    HW2 1339   1.343   0.796   2.958 -2.3078 -3.2620  0.8006
  335SOL     MW 1340   1.280   0.770   3.013 -0.4025  0.2680  0.2205
  336SOL     OW 1341   0.930   1.127   1.704  0.1123 -0.6065 -0.0253
  336SOL    HW1 1342   0.847   1.155   1.743  1.3504 -1.5134 -0.4730
  336SOL    HW2 1343   0.967   1.055   1.770 -1.4679 -3.0670  0.5411
  336SOL     MW 1344   0.924   1.121   1.718  0.0671 -1.0508 -0.0097
  337SOL     OW 1345   0.490   1.953   2.825  0.5720  0.3213  0.6522
  337SOL    HW1 1346   0.438   1.902   2.763  0.5928  0.8989 -0.6139
  337SOL    HW2 1347   0.580   1.924   2.829  1.5618 -1.3429  2.3203
  337SOL     MW 1348   0.495   1.942   2.817  0.7053  0.1780  0.7053
  338SOL     OW 1349   1.102   0.772   2.463  0.2213  0.5460  0.3016
  338SOL    HW1 1350   1.011   0.735   2.458  0.2853  1.3463  0.1562
  338SOL    HW2 1351   1.150   0.745   2.542  0.1057  1.0750  0.7247
  338SOL     MW 1352   1.096   0.764   2.473  0.2145  0.7214  0.3382
  339SOL     OW 1353   1.352   1.277   1.917 -0.0703 -0.1163 -0.3673
  339SOL    HW1 1354   1.373   1.238   1.832 -0.1082  0.9078 -1.9637
  339SOL    HW2 1355   1.300   1.207   1.954 -1.4452 -0.1925  0.0184
  339SOL     MW 1356   1.348   1.263   1.911 -0.2567  0.0088 -0.5270
  340SOL     OW 1357   1.312   1.537   0.091  0.0120  0.2798  0.2239
  340SOL    HW1 1358   1.304   1.565  -0.003 -0.8927  1.1483 -3.6908
  340SOL    HW2 1359   1.380   1.465   0.094 -1.1610 -0.9259  1.3194
  340SOL     MW 1360   1.320   1.532   0.079 -0.2621  0.2353 -0.1481
  341SOL     OW 1361   0.117   1.372   2.821 -0.6200  0.0753 -0.1617
  341SOL    HW1 1362   0.208   1.381   2.864 -0.4444  0.2766  3.8803
  341SOL    HW2 1363   0.136   1.367   2.729 -0.7769  3.0850 -0.8186
  341SOL     MW 1364   0.132   1.373   2.815 -0.6175  0.4989  0.2849
  342SOL     OW 1365   1.380   0.331   0.035  0.3463 -0.3366 -0.0067
  342SOL    HW1 1366   1.449   0.388   0.078 -0.9559  0.8799 -1.9780
  342SOL    HW2 1367   1.374   0.366  -0.055 -0.0016  0.4407 -1.9155
  342SOL     MW 1368   1.389   0.343   0.029  0.1286 -0.0735 -0.5187
  343SOL     OW 1369   0.249   0.262   2.164  0.6724  0.2652  0.1285
  343SOL    HW1 1370   0.291   0.191   2.111 -1.1555  0.4855 -1.6328
  343SOL    HW2 1371   0.153   0.261   2.144 -1.1806  0.4570 -1.0829
  343SOL     MW 1372   0.242   0.252   2.154  0.1868  0.3196 -0.2637
  344SOL     OW 1373   1.691   2.038   0.184 -0.1705  0.1381  0.3728
  344SOL    HW1 1374   1.712   2.067   0.101  0.7263  0.8369  1.2720
  344SOL    HW2 1375   1.605   1.990   0.177 -5.5667 -1.2217 -1.7444
  344SOL     MW 1376   1.682   2.035   0.172 -0.7641  0.0509  0.2121
  345SOL     OW 1377   0.645   1.613   2.320 -0.3555 -0.8770 -0.3656
  345SOL    HW1 1378   0.573   1.627   2.260  0.1602  1.1915  0.3637
  345SOL    HW2 1379   0.724   1.593   2.268  1.9700 -1.3471 -1.1881
  345SOL     MW 1380   0.646   1.612   2.305  0.0194 -0.6661 -0.3779
  346SOL     OW 1381   1.678   1.163   0.045 -0.4015  0.2887 -0.3417
  346SOL    HW1 1382   1.765   1.205   0.067 -2.1528 -1.2475  5.0525
  346SOL    HW2 1383   1.663   1.088   0.108  0.8597 -0.5920  1.4997
  346SOL     MW 1384   1.688   1.159   0.056 -0.4661 -0.0302  0.6129
  347SOL     OW 1385   1.189   0.661   2.210  0.4977  0.6116 -0.5676
  347SOL    HW1 1386   1.213   0.577   2.251 -0.5145  1.3050 -2.3459
  347SOL    HW2 1387   1.172   0.710   2.292  0.1441 -1.2709 -0.2257
  347SOL     MW 1388   1.190   0.656   2.226  0.3175  0.4547 -0.7572
  348SOL     OW 1389   1.298   2.576   1.955 -0.3323 -0.7870 -0.4671
  348SOL    HW1 1390   1.311   2.490   2.007 -0.4129 -0.5656  0.0672
  348SOL    HW2 1391   1.347   2.636   2.018  0.6096  2.7191  0.5525
  348SOL     MW 1392   1.306   2.572   1.970 -0.2186 -0.2952 -0.2620
  349SOL     OW 1393   1.468   0.169   2.766 -0.6235 -0.3820  0.2244
  349SOL    HW1 1394   1.428   0.239   2.823 -1.2687 -1.2287  0.4215
  349SOL    HW2 1395   1.509   0.108   2.832  2.4245  2.6186  4.0370
  349SOL     MW 1396   1.468   0.171   2.782 -0.3064 -0.0978  0.7534
  350SOL     OW 1397   1.869   0.634   2.648  0.2442 -0.2353  0.0477
  350SOL    HW1 1398   1.812   0.588   2.585  0.2026  0.9147  0.0752
  350SOL    HW2 1399   1.919   0.562   2.703 -0.9486 -0.0160  2.2454
  350SOL     MW 1400   1.868   0.619   2.647  0.0813 -0.0546  0.3413
  351SOL     OW 1401   0.101   1.192   1.564  0.4289 -0.1261  0.3809
  351SOL    HW1 1402   0.061   1.117   1.606 -0.7591 -1.3412 -2.5709
  351SOL    HW2 1403   0.151   1.239   1.636  2.8168  0.3056 -0.6071
  351SOL     MW 1404   0.102   1.188   1.579  0.5872 -0.2294 -0.1389
  352SOL     OW 1405   0.745   1.808   2.797  0.0285 -0.4149  0.7095
  352SOL    HW1 1406   0.790   1.747   2.857  0.2474  0.0601  0.9041
  352SOL    HW2 1407   0.710   1.757   2.724 -0.8908  0.2047 -0.0944
  352SOL     MW 1408   0.746   1.793   2.795 -0.0639 -0.2705  0.6291
  353SOL     OW 1409   3.088   2.567   2.642  0.0639  0.4310  0.3131
  353SOL    HW1 1410   3.156   2.500   2.633 -0.4076 -3.0568  2.9902
  353SOL    HW2 1411   3.108   2.624   2.569  1.2263 -2.4516 -0.4061
  353SOL     MW 1412   3.100   2.566   2.631  0.1551 -0.4095  0.5715
  354SOL     OW 1413   0.366   2.414   0.814 -0.6156  0.0316 -0.4560
  354SOL    HW1 1414   0.426   2.369   0.879  1.0219 -1.1802 -2.6591
  354SOL    HW2 1415   0.281   2.363   0.822  0.9491  1.4875 -0.9039
  354SOL     MW 1416   0.363   2.401   0.824 -0.1931  0.0638 -0.8058
  355SOL     OW 1417   0.119   2.239   0.402 -0.1762  1.2274  0.3981
  355SOL    HW1 1418   0.029   2.192   0.377 -0.8330 -1.7727  1.6597
  355SOL    HW2 1419   0.107   2.291   0.480 -2.6711 -1.2554 -0.4581
  355SOL     MW 1420   0.105   2.240   0.409 -0.5920  0.5040  0.4516
  356SOL     OW 1421   0.742   2.971   1.029 -0.0813  0.2346 -0.8184
  356SOL    HW1 1422   0.807   2.990   0.962 -2.0664  0.2256 -2.2861
  356SOL    HW2 1423   0.707   2.882   1.002  1.0287 -2.8111  0.7928
  356SOL     MW 1424   0.746   2.962   1.016 -0.1967 -0.1685 -0.7995
  357SOL     OW 1425   1.846   2.794   0.474  0.3670  0.1461 -0.1191
  357SOL    HW1 1426   1.830   2.729   0.544 -2.5256  0.6284  0.5868
  357SOL    HW2 1427   1.925   2.754   0.442  0.4514  0.6576  1.9798
  357SOL     MW 1428   1.854   2.780   0.479 -0.0035  0.2772  0.2509
  358SOL     OW 1429   0.420   0.141   1.063 -0.1946 -0.5088 -0.1526
  358SOL    HW1 1430   0.519   0.147   1.053  0.4073 -0.4142  1.5631
  358SOL    HW2 1431   0.380   0.196   0.995  0.0210  1.0932 -0.3055
  358SOL     MW 1432   0.428   0.149   1.053 -0.0868 -0.2850  0.0536
  359SOL     OW 1433   0.898   2.950   1.880  0.7492 -0.4526  0.5734
  359SOL    HW1 1434   0.874   2.858   1.912 -0.4476 -0.0851  0.7656
  359SOL    HW2 1435   0.903   2.931   1.782 -0.9634 -4.9069 -2.1820
  359SOL     MW 1436   0.896   2.936   1.871  0.3653 -0.9918  0.2352
  360SOL     OW 1437   0.573   2.763   0.919 -0.0999 -0.1193 -0.3825
  360SOL    HW1 1438   0.619   2.748   0.838  0.1234  1.7330 -2.3142
  360SOL    HW2 1439   0.582   2.679   0.965 -2.5204  0.0821 -3.0974
  360SOL     MW 1440   0.580   2.750   0.914 -0.3898  0.1517 -0.9955
  361SOL     OW 1441   0.155   2.708   1.378 -0.6365  0.3865 -0.7358
  361SOL    HW1 1442   0.080   2.745   1.427  1.0891 -1.2583 -1.4632
  361SOL    HW2 1443   0.223   2.770   1.387  1.0063 -0.7679 -0.6888
  361SOL     MW 1444   0.154   2.721   1.386 -0.1921  0.0172 -0.8256
  362SOL     OW 1445   1.378   2.428   0.610  0.5573 -0.0402 -0.5282
  362SOL    HW1 1446   1.431   2.363   0.663 -0.0952 -1.8258  0.2901
  362SOL    HW2 1447   1.430   2.508   0.585  1.1371  2.0103 -0.9730
  362SOL     MW 1448   1.392   2.430   0.614  0.5477 -0.0053 -0.4789
  363SOL     OW 1449   0.313   3.095   0.666 -0.2057  0.1401 -0.4478
  363SOL    HW1 1450   0.324   3.019   0.724  0.2222 -1.8660 -2.2293
  363SOL    HW2 1451   0.230   3.075   0.622 -1.0515 -0.8934 -0.7849
  363SOL     MW 1452   0.303   3.082   0.668 -0.2609 -0.2609 -0.7274
  364SOL     OW 1453   0.769   0.211   0.153 -0.6143  0.2085 -0.1072
  364SOL    HW1 1454   0.694   0.172   0.194 -2.1838  1.7097  1.3358
  364SOL    HW2 1455   0.735   0.278   0.082 -2.0765  0.1225 -1.9573
  364SOL     MW 1456   0.755   0.215   0.149 -1.0143  0.3952 -0.1609
  365SOL     OW 1457   0.879   2.022   1.281 -0.1839 -0.3298 -0.0358
  365SOL    HW1 1458   0.888   2.113   1.249  1.7498 -0.9716 -1.8126
  365SOL    HW2 1459   0.832   1.974   1.207 -3.5431 -0.5386 -0.4728
  365SOL     MW 1460   0.874   2.028   1.267 -0.3720 -0.4420 -0.3279
  366SOL     OW 1461   2.889   2.660   0.950 -0.3184  0.1457 -0.6376
  366SOL    HW1 1462   2.953   2.621   1.013  3.0441 -2.8236  1.2550
  366SOL    HW2 1463   2.938   2.683   0.869  0.1627 -1.2763  0.7638
  366SOL     MW 1464   2.904   2.658   0.948  0.1887 -0.4337 -0.2030
  367SOL     OW 1465   1.290   3.034   1.014  0.3826  0.6930 -0.3310
  367SOL    HW1 1466   1.372   3.072   1.017 -2.9092 -0.0570  2.0491
  367SOL    HW2 1467   1.284   3.025   0.922  0.7430 -0.1964  0.0471
  367SOL     MW 1468   1.300   3.038   1.002 -0.0042  0.4767  0.0329
  368SOL     OW 1469   1.703   0.417   0.597  0.0285 -0.1707  0.2169
  368SOL    HW1 1470   1.776   0.360   0.570 -0.7865 -2.0735 -2.0137
  368SOL    HW2 1471   1.727   0.504   0.561  1.1846 -3.7145 -1.2409
  368SOL     MW 1472   1.716   0.421   0.589  0.0735 -0.8893 -0.2698
  369SOL     OW 1473   0.158   2.408   1.756 -0.0959  0.0340 -0.1764
  369SOL    HW1 1474   0.253   2.385   1.762  2.1476  0.6882  0.2914
  369SOL    HW2 1475   0.158   2.502   1.752 -0.7242 -0.8210  0.3634
  369SOL     MW 1476   0.170   2.417   1.757  0.1172  0.0075 -0.0435
  370SOL     OW 1477   0.708   0.128   1.074 -0.5708  0.2931 -0.1372
  370SOL    HW1 1478   0.762   0.164   1.003  1.0967 -0.4350 -1.1842
  370SOL    HW2 1479   0.719   0.030   1.057 -1.6215 -0.0404  1.4547
  370SOL     MW 1480   0.717   0.120   1.062 -0.4894  0.1530 -0.0653
  371SOL     OW 1481   1.120   2.894   1.467  0.2011  0.0745  0.0642
  371SOL    HW1 1482   1.125   2.811   1.416  0.5520  0.1703  2.3184
  371SOL    HW2 1483   1.152   2.971   1.416 -2.6102  2.3942  0.1068
  371SOL     MW 1484   1.125   2.893   1.453 -0.1235  0.3932  0.3673
  372SOL     OW 1485   0.809   2.311   0.469  0.6699 -0.0940  0.2663
  372SOL    HW1 1486   0.781   2.226   0.509  0.4575  0.7854  0.8631
  372SOL    HW2 1487   0.846   2.293   0.382 -2.8543  0.9656 -1.2364
  372SOL     MW 1488   0.810   2.298   0.463  0.1769  0.1618  0.1468
  373SOL     OW 1489   2.803   2.975   1.413 -0.1216 -0.1387  0.1225
  373SOL    HW1 1490   2.888   2.945   1.393 -2.3682  1.8978 -0.4292
  373SOL    HW2 1491   2.780   3.032   1.346 -0.3097  0.7832  0.9796
  373SOL     MW 1492   2.811   2.979   1.401 -0.4429  0.2516  0.1628
  374SOL     OW 1493   1.596   0.473   0.251 -0.1242 -0.4058 -0.1939
  374SOL    HW1 1494   1.684   0.438   0.229  1.5592 -1.1978 -0.1050
  374SOL    HW2 1495   1.559   0.417   0.313 -0.0512 -0.5537 -0.9776
  374SOL     MW 1496   1.603   0.461   0.256  0.1076 -0.5298 -0.2855
  375SOL     OW 1497   1.109   2.048   2.216  0.1826 -0.7436 -0.1764
  375SOL    HW1 1498   1.121   2.046   2.314 -0.7294  0.0168 -1.0880
  375SOL    HW2 1499   1.020   2.017   2.191 -0.0837  0.5131 -2.6581
  375SOL     MW 1500   1.099   2.043   2.225  0.0272 -0.4775 -0.6241
  376SOL     OW 1501   0.840   2.519   0.144  0.6005  0.1258  0.1345
  376SOL    HW1 1502   0.789   2.480   0.217 -0.7976 -1.7997  3.2476
  376SOL    HW2 1503   0.844   2.453   0.069  1.9561  0.6024 -2.6280
  376SOL     MW 1504   0.833   2.505   0.143  0.5949 -0.0654  0.1807
  377SOL     OW 1505   1.346   2.091   0.938  0.2122 -0.3218  0.2496
  377SOL    HW1 1506   1.276   2.076   0.875  1.2282 -0.6281  0.3414
  377SOL    HW2 1507   1.349   2.024   1.001 -0.2266  4.6325  1.2916
  377SOL     MW 1508   1.337   2.080   0.938  0.2884  0.2914  0.3992
  378SOL     OW 1509   0.880   2.872   1.635 -0.0784  0.0417  0.4887
  378SOL    HW1 1510   0.904   2.776   1.643  0.0310 -3.0685  2.0075
  378SOL    HW2 1511   0.935   2.909   1.567  0.0454 -0.4759 -4.1315
  378SOL     MW 1512   0.891   2.864   1.627 -0.0477 -0.4370  0.0795
  379SOL     OW 1513   1.062   1.556   2.300  0.0016 -0.1395  0.2687
  379SOL    HW1 1514   0.982   1.540   2.248  0.5985  1.5795 -0.7311
  379SOL    HW2 1515   1.123   1.551   2.224  2.8446 -0.9021  1.1886
  379SOL     MW 1516   1.060   1.553   2.283  0.4555 -0.0133  0.2582
  380SOL     OW 1517   0.915   0.136   1.519  0.4557  0.1411  0.7659
  380SOL    HW1 1518   0.919   0.055   1.462 -0.4449 -0.4377  2.2413
  380SOL    HW2 1519   0.952   0.119   1.607  2.3575  1.0864 -1.3033
  380SOL     MW 1520   0.921   0.123   1.523  0.5878  0.1894  0.6875
  381SOL     OW 1521   0.838   2.061   0.903  0.1674  0.3714  0.1854
  381SOL    HW1 1522   0.936   2.066   0.897 -0.0671 -1.6576  1.5305
  381SOL    HW2 1523   0.811   2.118   0.975  0.6593 -0.3348 -1.8086
  381SOL     MW 1524   0.847   2.069   0.912  0.2013  0.0105  0.0998
  382SOL     OW 1525   0.869   0.121   0.596  0.2774  0.1593 -0.3016
  382SOL    HW1 1526   0.830   0.171   0.673 -3.9890  1.3553 -0.9043
  382SOL    HW2 1527   0.821   0.041   0.591  1.9439  0.0300 -1.6606
  382SOL     MW 1528   0.858   0.117   0.606 -0.0656  0.3001 -0.5604
  383SOL     OW 1529   0.650   3.106   0.307  0.1417 -0.2626 -0.4147
  383SOL    HW1 1530   0.684   3.034   0.257  1.5336  0.3916  2.9206
  383SOL    HW2 1531   0.594   3.065   0.369  0.3468  1.7537 -2.5860
  383SOL     MW 1532   0.647   3.091   0.308  0.3524  0.0897 -0.2611
  384SOL     OW 1533   0.777   2.963   0.610  0.1706 -0.2630  0.0622
  384SOL    HW1 1534   0.813   2.957   0.701  1.1311 -0.5584 -3.1894
  384SOL    HW2 1535   0.708   2.896   0.603  1.0045  0.5465  4.3272
  384SOL     MW 1536   0.772   2.954   0.621  0.4073 -0.1952  0.1959
  385SOL     OW 1537   1.376   2.057   1.536  0.4260 -0.2907  0.2976
  385SOL    HW1 1538   1.444   2.097   1.601  3.1091  2.8287 -0.4472
  385SOL    HW2 1539   1.344   1.979   1.586 -0.4469 -0.9259  0.8145
  385SOL     MW 1540   1.381   2.052   1.551  0.6648  0.0370  0.2676
  386SOL     OW 1541   1.461   0.384   0.844 -0.0541 -0.2110  0.1105
  386SOL    HW1 1542   1.410   0.418   0.918 -0.8237 -1.4214 -1.0958
  386SOL    HW2 1543   1.554   0.394   0.861 -0.6117 -3.1969 -1.4151
  386SOL     MW 1544   1.466   0.390   0.856 -0.2292 -0.7646 -0.2499
  387SOL     OW 1545   0.804   2.269   1.570  0.7104 -0.2332  0.2020
  387SOL    HW1 1546   0.894   2.286   1.531  1.4452  1.3067 -0.6707
  387SOL    HW2 1547   0.798   2.178   1.583  1.5860  3.3574 -0.2789
  387SOL     MW 1548   0.815   2.259   1.566  0.9229  0.4437  0.0234
  388SOL     OW 1549   1.459   2.801   1.495  0.3383  0.1626  0.0296
  388SOL    HW1 1550   1.412   2.857   1.434  0.3087 -2.7042  1.0551
  388SOL    HW2 1551   1.538   2.773   1.447  0.7314 -2.0528 -0.1558
  388SOL     MW 1552   1.463   2.805   1.480  0.3862 -0.5079  0.1405
  389SOL     OW 1553   0.454   0.110   3.056 -0.1259 -0.4374 -0.3131
  389SOL    HW1 1554   0.503   0.027   3.036 -1.1663 -2.4345 -1.5486
  389SOL    HW2 1555   0.474   0.170   2.980 -1.6662 -0.6484  0.9660
  389SOL     MW 1556   0.463   0.107   3.043 -0.4664 -0.7287 -0.3073
  390SOL     OW 1557   1.373   0.005   0.710  0.2007 -0.5217 -0.0377
  390SOL    HW1 1558   1.429   0.010   0.633 -1.3002  0.5648 -2.0709
  390SOL    HW2 1559   1.431   0.036   0.786 -1.8742  1.0221 -1.0659
  390SOL     MW 1560   1.388   0.010   0.710 -0.2711 -0.1746 -0.4416
  391SOL     OW 1561   0.307   2.152   1.509 -0.2542 -0.3672 -0.2005
  391SOL    HW1 1562   0.326   2.162   1.605  1.3684  0.5599 -1.7553
  391SOL    HW2 1563   0.262   2.236   1.483  2.0995  1.4808 -0.0905
  391SOL     MW 1564   0.303   2.164   1.518  0.2704 -0.0011 -0.3911
  392SOL     OW 1565   1.951   2.138   0.322  0.3840 -0.6525  0.1932
  392SOL    HW1 1566   2.007   2.215   0.343  1.8750  0.4928 -2.3481
  392SOL    HW2 1567   1.869   2.169   0.288 -1.0528 -1.5673 -0.3562
  392SOL     MW 1568   1.947   2.152   0.321  0.3912 -0.6221 -0.2146
  393SOL     OW 1569   0.231   2.950   2.805  0.0725 -0.1063 -0.5290
  393SOL    HW1 1570   0.320   2.939   2.769 -0.3428  0.7934 -0.9478
  393SOL    HW2 1571   0.221   3.044   2.817 -1.7443  0.7873  0.5385
  393SOL     MW 1572   0.241   2.961   2.802 -0.2220  0.1303 -0.4434
  394SOL     OW 1573   0.984   1.770   1.564 -0.3518 -0.4877  0.4479
  394SOL    HW1 1574   1.019   1.795   1.649 -1.6731 -0.0486 -1.1466
  394SOL    HW2 1575   0.906   1.820   1.553  1.9032  1.0233 -0.1161
  394SOL     MW 1576   0.979   1.780   1.574 -0.2286 -0.2304  0.1631
  395SOL     OW 1577   0.956   2.949   2.720 -0.0344  0.0535  0.4303
  395SOL    HW1 1578   1.028   3.007   2.759 -1.0533 -0.1052 -3.7986
  395SOL    HW2 1579   1.001   2.869   2.685  1.5785 -1.8662 -0.4771
  395SOL     MW 1580   0.971   2.946   2.720  0.0440 -0.2207 -0.2474
  396SOL     OW 1581   0.713   1.875   2.358  0.0146  0.7140  0.2371
  396SOL    HW1 1582   0.771   1.811   2.401 -2.1183 -1.9908  0.1317
  396SOL    HW2 1583   0.646   1.813   2.326 -0.7230  0.3397 -0.5282
  396SOL     MW 1584   0.712   1.858   2.360 -0.3641  0.3077  0.1222
  397SOL     OW 1585   1.021   2.286   1.387  0.2808  0.0841  0.5029
  397SOL    HW1 1586   1.062   2.327   1.314  0.5869  0.7722  2.9057
  397SOL    HW2 1587   1.104   2.290   1.441  1.7289 -1.2950 -1.0735
  397SOL     MW 1588   1.037   2.292   1.385  0.5122 -0.0071  0.6120
  398SOL     OW 1589   0.660   2.720   0.660  0.3310 -0.3770  0.0875
  398SOL    HW1 1590   0.594   2.691   0.595 -1.0402 -2.2319  0.6488
  398SOL    HW2 1591   0.744   2.672   0.656 -0.6934 -0.5883  0.1580
  398SOL     MW 1592   0.662   2.710   0.651  0.0149 -0.6496  0.1708
  399SOL     OW 1593   0.323   2.054   0.389  0.4530 -0.3340  0.8426
  399SOL    HW1 1594   0.262   2.117   0.419  2.0161 -0.3311  1.3538
  399SOL    HW2 1595   0.354   2.091   0.304 -0.6285  0.1552 -2.5566
  399SOL     MW 1596   0.319   2.067   0.382  0.5165 -0.2691  0.4615
  400SOL     OW 1597   0.598   1.933   0.117  0.2895 -0.0334  0.4806
  400SOL    HW1 1598   0.558   2.017   0.162 -0.9589  2.2865  1.4994
  400SOL    HW2 1599   0.575   1.872   0.190 -1.0644 -0.2934  2.1593
  400SOL     MW 1600   0.590   1.936   0.132 -0.0538  0.2384  0.8365
  401SOL     OW 1601   0.849   2.023   3.081 -0.3855 -0.4711 -0.3051
  401SOL    HW1 1602   0.918   1.959   3.104 -1.2055  0.7161  2.1304
  401SOL    HW2 1603   0.777   2.010   3.142  0.4630  0.2362 -0.1519
  401SOL     MW 1604   0.849   2.013   3.092 -0.3818 -0.2212  0.0364
  402SOL     OW 1605   0.603   3.009   1.832 -0.4644  0.4186  0.4677
  402SOL    HW1 1606   0.687   2.968   1.827  0.5978 -0.4514 -0.0900
  402SOL    HW2 1607   0.620   3.082   1.779  1.8406 -0.7683  0.3024
  402SOL     MW 1608   0.616   3.013   1.824 -0.0201  0.1472  0.3723
  403SOL     OW 1609   0.149   0.497   0.422  0.2009 -0.1611  0.6106
  403SOL    HW1 1610   0.238   0.511   0.461 -1.1975  3.5799 -1.2008
  403SOL    HW2 1611   0.171   0.454   0.344 -0.4959  0.7124  0.2761
  403SOL     MW 1612   0.164   0.493   0.417 -0.0755  0.4477  0.3275
  404SOL     OW 1613   0.944   2.965   0.827  0.3490  0.3059  0.0521
  404SOL    HW1 1614   1.022   2.904   0.827 -0.0632  1.9169 -1.1311
  404SOL    HW2 1615   0.987   3.051   0.818 -0.1877  1.4428  0.7543
  404SOL     MW 1616   0.960   2.968   0.825  0.2238  0.6685 -0.0113
  405SOL     OW 1617   0.530   2.469   1.516  0.1230  0.5348 -0.1856
  405SOL    HW1 1618   0.508   2.545   1.464 -0.4370 -2.9427  1.9267
  405SOL    HW2 1619   0.564   2.400   1.461 -1.0422  1.3004  1.6961
  405SOL     MW 1620   0.531   2.470   1.502 -0.1046  0.1770  0.3413
  406SOL     OW 1621   0.468   2.350   1.088  0.1219 -0.1024 -0.2452
  406SOL    HW1 1622   0.373   2.371   1.092 -0.9974  1.6244  1.0417
  406SOL    HW2 1623   0.467   2.281   1.159 -3.3309 -0.3866  1.8236
  406SOL     MW 1624   0.456   2.344   1.098 -0.4813  0.0879  0.1976
  407SOL     OW 1625   0.055   2.636   1.092  0.0298 -0.2115  0.0157
  407SOL    HW1 1626   0.105   2.658   1.173  2.6165 -0.1573  1.6574
  407SOL    HW2 1627   0.116   2.635   1.014 -0.2398  0.3875  0.4235
  407SOL     MW 1628   0.070   2.639   1.092  0.3355 -0.1253  0.2861
  408SOL     OW 1629   2.133   2.162   0.699 -0.0760  0.5307  0.0057
  408SOL    HW1 1630   2.072   2.216   0.761 -1.4807  2.1525 -1.6524
  408SOL    HW2 1631   2.079   2.111   0.628 -1.2643  2.1081 -0.6487
  408SOL     MW 1632   2.118   2.162   0.698 -0.4181  0.9528 -0.2994
  409SOL     OW 1633   1.597   0.093   0.842  0.1017 -0.1961  0.3577
  409SOL    HW1 1634   1.671   0.148   0.817 -0.2811 -0.0213 -1.0552
  409SOL    HW2 1635   1.604   0.077   0.937 -1.9226 -1.1719  1.6956
  409SOL     MW 1636   1.607   0.098   0.851 -0.2159 -0.3018  0.3478
  410SOL     OW 1637   1.088   2.436   1.162 -0.4551  0.5981  0.4288
  410SOL    HW1 1638   1.022   2.463   1.098 -1.0554 -2.3853 -0.3472
  410SOL    HW2 1639   1.160   2.397   1.112 -0.9932 -0.0061  1.1053
  410SOL     MW 1640   1.089   2.435   1.147 -0.6053  0.1247  0.4157
  411SOL     OW 1641   1.992   2.932   2.920  0.1220 -0.2027  0.5943
  411SOL    HW1 1642   2.005   2.907   2.826  0.6621 -0.1599 -1.4105
  411SOL    HW2 1643   1.971   3.027   2.922  1.8145 -1.9204 -0.6665
  411SOL     MW 1644   1.991   2.942   2.908  0.4166 -0.4237  0.1634
  412SOL     OW 1645   1.020   2.238   0.616 -0.5164  0.0359 -0.5072
  412SOL    HW1 1646   1.076   2.316   0.630 -1.2036  1.6916 -0.4000
  412SOL    HW2 1647   0.956   2.271   0.554 -0.5400 -2.7857 -4.9414
  412SOL     MW 1648   1.019   2.253   0.610 -0.6102 -0.1180 -1.0781
  413SOL     OW 1649   0.624   2.694   0.029 -0.1920 -0.0815 -0.4751
  413SOL    HW1 1650   0.699   2.640   0.066  0.0700 -2.3525  1.1306
  413SOL    HW2 1651   0.601   2.658  -0.057 -1.1833  0.0729  1.3540
  413SOL     MW 1652   0.631   2.682   0.023 -0.2882 -0.3608 -0.0219
  414SOL     OW 1653   2.042   2.983   1.102  0.1014 -0.0685  0.1063
  414SOL    HW1 1654   2.027   3.075   1.115  1.8113  0.0647 -0.5259
  414SOL    HW2 1655   2.027   2.981   1.008 -2.1508  1.4931 -1.7145
  414SOL     MW 1656   2.038   2.995   1.092  0.0299  0.1551 -0.2174
  415SOL     OW 1657   1.648   2.842   1.145  0.1064  0.0763  0.4862
  415SOL    HW1 1658   1.703   2.860   1.222 -1.4342  3.1225 -0.4278
  415SOL    HW2 1659   1.686   2.772   1.091 -1.9686 -0.0846  1.6122
  415SOL     MW 1660   1.661   2.835   1.148 -0.3707  0.4570  0.5142
  416SOL     OW 1661   0.631   1.790   1.431  0.1423  0.0366  0.0834
  416SOL    HW1 1662   0.553   1.838   1.415  1.4958  4.7533 -2.0686
  416SOL    HW2 1663   0.630   1.711   1.377 -1.2109  0.5968  1.4404
  416SOL     MW 1664   0.621   1.786   1.422  0.1423  0.7328 -0.0215
  417SOL     OW 1665   0.930   0.054   2.061 -0.5258 -0.1747  0.6504
  417SOL    HW1 1666   0.850   0.049   2.104  0.7367 -2.1821  1.2024
  417SOL    HW2 1667   0.928  -0.013   1.995 -0.1168  0.4351  1.0956
  417SOL     MW 1668   0.919   0.045   2.058 -0.3053 -0.3591  0.7820
  418SOL     OW 1669   0.788   2.879   0.186 -0.6041 -0.2813  0.4936
  418SOL    HW1 1670   0.854   2.868   0.118  0.6236  1.1967  0.6481
  418SOL    HW2 1671   0.726   2.809   0.156  1.2153 -0.1044  0.0638
  418SOL     MW 1672   0.788   2.868   0.173 -0.2021 -0.0629  0.4573
  419SOL     OW 1673   0.637   2.688   1.322 -0.1030  0.3479  0.0564
  419SOL    HW1 1674   0.659   2.752   1.383  2.4304 -1.3550  1.0335
  419SOL    HW2 1675   0.720   2.639   1.322 -0.4076 -2.3921 -2.0653
  419SOL     MW 1676   0.651   2.690   1.330  0.1911 -0.2383 -0.0946
  420SOL     OW 1677   0.825   2.227   1.112  0.4125 -0.2931  0.6806
  420SOL    HW1 1678   0.748   2.276   1.144  0.5617 -1.9542 -1.8882
  420SOL    HW2 1679   0.874   2.294   1.068 -1.4370 -1.6008 -0.8628
  420SOL     MW 1680   0.821   2.242   1.110  0.1882 -0.6848  0.1381
  421SOL     OW 1681   2.918   0.140   0.088  0.6859 -0.9798 -0.4027
  421SOL    HW1 1682   2.827   0.137   0.068  2.7589 -0.8273  0.2631
  421SOL    HW2 1683   2.971   0.063   0.065  1.1643  2.0687 -3.3117
  421SOL     MW 1684   2.913   0.130   0.082  1.0225 -0.5574 -0.6987
  422SOL     OW 1685   0.887   2.453   0.975  0.8695 -0.2889 -0.0599
  422SOL    HW1 1686   0.812   2.485   1.023  4.3390  0.2485 -0.7166
  422SOL    HW2 1687   0.864   2.474   0.886 -2.2395 -2.3114  0.1141
  422SOL     MW 1688   0.874   2.460   0.969  0.9171 -0.4849 -0.1236
  423SOL     OW 1689   1.525   0.036   0.489  0.2421  0.3273  0.5261
  423SOL    HW1 1690   1.565   0.001   0.410 -1.9033  0.3082 -2.2295
  423SOL    HW2 1691   1.514   0.126   0.466  1.8161  0.6640  0.0556
  423SOL     MW 1692   1.529   0.043   0.476  0.1667  0.3692  0.1004
  424SOL     OW 1693   0.642   2.294   1.345 -0.5818  0.2171 -0.4476
  424SOL    HW1 1694   0.604   2.211   1.318  0.2815 -1.4061  1.8027
  424SOL    HW2 1695   0.704   2.285   1.418 -1.1903  2.5542  0.3509
  424SOL     MW 1696   0.645   2.282   1.351 -0.5482  0.3113 -0.0453
  425SOL     OW 1697   1.719   2.792   2.054  0.6619 -0.1134  0.2893
  425SOL    HW1 1698   1.720   2.824   1.960 -1.4670  0.8247 -1.5889
  425SOL    HW2 1699   1.760   2.703   2.059 -2.1449 -1.6030 -1.9358
  425SOL     MW 1700   1.725   2.784   2.043  0.0107 -0.1861 -0.2521
  426SOL     OW 1701   0.851   1.683   1.933 -0.5979  0.6216  0.3551
  426SOL    HW1 1702   0.786   1.710   1.863  1.4312  0.6745 -2.4457
  426SOL    HW2 1703   0.855   1.763   1.976  0.4906 -0.0382 -3.0110
  426SOL     MW 1704   0.843   1.697   1.929 -0.1866  0.5415 -0.4585
  427SOL     OW 1705   0.371   1.755   1.866  0.0288 -0.6171  0.2282
  427SOL    HW1 1706   0.403   1.677   1.821 -1.0443  2.9858  1.8499
  427SOL    HW2 1707   0.290   1.719   1.912 -1.3311  0.9361  0.8361
  427SOL     MW 1708   0.364   1.740   1.866 -0.2922  0.0632  0.5224
  428SOL     OW 1709   0.648   2.545   1.101 -0.5491 -0.2602  0.2275
  428SOL    HW1 1710   0.573   2.479   1.100 -1.2730 -1.1537  0.7858
  428SOL    HW2 1711   0.625   2.598   1.173  0.9725 -0.7944 -0.2093
  428SOL     MW 1712   0.635   2.543   1.110 -0.4438 -0.4486  0.2435
  429SOL     OW 1713   1.194   2.777   1.086  0.0023  0.6999 -0.2347
  429SOL    HW1 1714   1.103   2.784   1.120 -0.1173  1.1716 -2.7565
  429SOL    HW2 1715   1.218   2.868   1.084  1.1198 -0.0001  1.7617
  429SOL     MW 1716   1.185   2.790   1.090  0.1340  0.6698 -0.3041
  430SOL     OW 1717   1.179   2.823   0.805  0.3587 -0.2198 -0.3024
  430SOL    HW1 1718   1.153   2.781   0.887  0.0527  1.2426 -0.6932
  430SOL    HW2 1719   1.141   2.772   0.735  3.0823 -1.3699 -1.9564
  430SOL     MW 1720   1.170   2.811   0.806  0.6776 -0.1786 -0.5722
  431SOL     OW 1721   0.325   1.909   1.116  0.0937 -0.1108  0.5080
  431SOL    HW1 1722   0.411   1.864   1.117  1.9332 -2.1809 -0.8061
  431SOL    HW2 1723   0.310   1.917   1.024  0.8809  0.2307 -1.4759
  431SOL     MW 1724   0.334   1.904   1.104  0.4403 -0.3389  0.0728
  432SOL     OW 1725   0.018   3.101   1.122 -0.2139 -0.0293 -0.0136
  432SOL    HW1 1726  -0.001   3.144   1.206 -0.3116 -1.7144  2.4838
  432SOL    HW2 1727  -0.017   3.015   1.123 -0.7617  5.2449  0.0447
  432SOL     MW 1728   0.011   3.095   1.133 -0.2990  0.4442  0.3236
  433SOL     OW 1729   0.640   2.929   1.496  0.0260  0.0708 -0.1338
  433SOL    HW1 1730   0.615   3.022   1.490 -1.9308  0.2492  0.5354
  433SOL    HW2 1731   0.705   2.908   1.565  2.3284  0.0035  2.3589
  433SOL     MW 1732   0.645   2.938   1.504  0.0716  0.0854  0.2834
  434SOL     OW 1733   1.480   2.822   1.760 -0.3300 -0.3199  1.0002
  434SOL    HW1 1734   1.436   2.898   1.799  0.3414 -1.7636  2.4706
  434SOL    HW2 1735   1.452   2.827   1.665 -0.6135 -1.2975  0.9768
  434SOL     MW 1736   1.471   2.833   1.753 -0.2788 -0.6394  1.1911
  435SOL     OW 1737   2.702   1.793   0.280 -0.0323  0.2594  0.7985
  435SOL    HW1 1738   2.757   1.847   0.216 -2.0085 -0.1542  2.0217
  435SOL    HW2 1739   2.622   1.793   0.236 -1.0262 -0.5257  0.3819
  435SOL     MW 1740   2.699   1.800   0.265 -0.4242  0.1012  0.9050
  436SOL     OW 1741   1.354   2.755   0.353  0.8086  0.3855 -0.1738
  436SOL    HW1 1742   1.421   2.727   0.411 -1.5693  0.7540 -2.8851
  436SOL    HW2 1743   1.313   2.839   0.375 -2.0113 -2.1872  1.5521
  436SOL     MW 1744   1.357   2.762   0.364  0.1228  0.0947 -0.3038
  437SOL     OW 1745   0.919   3.053   1.300 -0.5295  0.6442 -0.0132
  437SOL    HW1 1746   0.975   3.101   1.237  1.7870 -0.4638 -0.9969
  437SOL    HW2 1747   0.879   2.983   1.252 -1.3492  2.7323  3.2439
  437SOL     MW 1748   0.921   3.050   1.285 -0.3320  0.7735  0.2868
  438SOL     OW 1749   0.868   2.708   1.971 -0.3198 -0.5443  0.1499
  438SOL    HW1 1750   0.857   2.645   2.047  0.0840 -2.4611  3.3731
  438SOL    HW2 1751   0.848   2.644   1.902 -0.7403  1.2307  2.0752
  438SOL     MW 1752   0.864   2.691   1.972 -0.3220 -0.5630  0.8292
  439SOL     OW 1753   1.170   2.063   0.448 -0.4334 -0.0422  0.0509
  439SOL    HW1 1754   1.137   2.096   0.531 -1.8956  0.4011  1.2987
  439SOL    HW2 1755   1.183   2.142   0.391 -0.6517 -1.0739 -0.2456
  439SOL     MW 1756   1.168   2.077   0.451 -0.6551 -0.1198  0.1764
  440SOL     OW 1757   1.775   2.764   3.009  0.7844 -1.2846  0.0922
  440SOL    HW1 1758   1.765   2.781   3.106 -2.8499  2.0377  0.9547
  440SOL    HW2 1759   1.843   2.822   2.981 -1.0672  2.1209  2.3257
  440SOL     MW 1760   1.783   2.774   3.018  0.0606 -0.3969  0.5007
  441SOL     OW 1761   0.499   2.730   0.414 -0.0240  0.4400  0.0272
  441SOL    HW1 1762   0.443   2.715   0.336 -2.3377  2.6527  0.1416
  441SOL    HW2 1763   0.500   2.821   0.422 -3.4287 -1.7482  1.7918
  441SOL     MW 1764   0.492   2.740   0.405 -0.7785  0.4432  0.2751
  442SOL     OW 1765   0.023   2.371   0.627  0.0796  0.3408 -0.1924
  442SOL    HW1 1766   0.021   2.467   0.622  1.9133 -2.9490 -1.2653
  442SOL    HW2 1767  -0.062   2.340   0.656 -0.0909  1.0428 -1.2701
  442SOL     MW 1768   0.011   2.380   0.630  0.2990 -0.0006 -0.4762
  443SOL     OW 1769   1.472   1.785   1.937  0.2255  0.4320  0.5262
  443SOL    HW1 1770   1.428   1.805   1.854  0.4496  1.1630  0.9282
  443SOL    HW2 1771   1.442   1.703   1.968 -0.9861  3.8128  1.3983
  443SOL     MW 1772   1.462   1.777   1.930  0.0952  0.9745  0.6943
  444SOL     OW 1773   0.928   2.589   1.603 -0.3247  0.0576 -0.0714
  444SOL    HW1 1774   0.996   2.544   1.649  0.8560 -1.8201 -2.2679
  444SOL    HW2 1775   0.854   2.562   1.653  1.0644 -1.9066 -1.1117
  444SOL     MW 1776   0.927   2.580   1.615  0.0143 -0.4493 -0.4985
  445SOL     OW 1777   1.205   0.080   1.385  0.1620  0.1545 -0.5082
  445SOL    HW1 1778   1.153   0.139   1.439 -0.7964  0.5241 -2.4141
  445SOL    HW2 1779   1.212   0.136   1.308 -2.6345 -0.3398 -0.5743
  445SOL     MW 1780   1.199   0.095   1.382 -0.3334  0.1381 -0.7684
  446SOL     OW 1781   2.702   2.851   1.067 -0.4032 -0.1886  0.4072
  446SOL    HW1 1782   2.650   2.898   1.003 -0.7640 -1.1768 -3.0320
  446SOL    HW2 1783   2.735   2.781   1.011 -2.3192  0.3540 -0.4213
  446SOL     MW 1784   2.700   2.848   1.051 -0.7036 -0.2474 -0.1559
  447SOL     OW 1785   0.048   1.952   1.564  0.2870  0.3264 -0.2123
  447SOL    HW1 1786   0.063   1.885   1.633  0.3443 -0.4949  0.5441
  447SOL    HW2 1787  -0.031   1.919   1.513  3.8523  1.4198 -2.5192
  447SOL     MW 1788   0.039   1.939   1.566  0.7649  0.3623 -0.4169
  448SOL     OW 1789   1.697   2.340   1.670 -0.4452 -0.3611 -0.1603
  448SOL    HW1 1790   1.667   2.255   1.692 -0.8498  0.6025  2.0464
  448SOL    HW2 1791   1.626   2.401   1.679 -0.4768 -0.6113  0.0173
  448SOL     MW 1792   1.684   2.337   1.674 -0.5028 -0.2670  0.1543
  449SOL     OW 1793   0.954   2.893   0.406  0.5936 -0.4053  0.1990
  449SOL    HW1 1794   0.902   2.874   0.328 -1.0384  1.3347 -0.3943
  449SOL    HW2 1795   0.898   2.936   0.474 -0.4248  0.9785 -0.5509
  449SOL     MW 1796   0.939   2.896   0.405  0.2439  0.0069  0.0218
  450SOL     OW 1797   1.158   2.527   0.737  0.5471 -0.1247  0.9977
  450SOL    HW1 1798   1.190   2.498   0.822  0.0568 -0.6265 -3.6573
  450SOL    HW2 1799   1.230   2.491   0.680  1.8740 -1.0430  0.1661
  450SOL     MW 1800   1.172   2.519   0.740  0.6575 -0.3121  0.2738
  451SOL     OW 1801   0.548   2.003   1.697 -0.4438 -0.0493 -0.2601
  451SOL    HW1 1802   0.640   1.988   1.680  1.9446  1.8079 -0.1029
  451SOL    HW2 1803   0.503   1.996   1.612  1.8131  1.8794  0.6040
  451SOL     MW 1804   0.554   2.000   1.683  0.1691  0.4502 -0.1253
  452SOL     OW 1805   0.316   2.623   3.087 -0.9274 -0.3550  0.1029
  452SOL    HW1 1806   0.400   2.674   3.092  0.1028  1.8449  3.1801
  452SOL    HW2 1807   0.239   2.678   3.085  0.0833 -0.7915  1.1495
  452SOL     MW 1808   0.317   2.637   3.088 -0.6581 -0.1223  0.6470
  453SOL     OW 1809   0.208   2.999   1.573 -0.2433 -0.4937 -0.0217
  453SOL    HW1 1810   0.261   2.955   1.638 -0.4758  0.1876  0.7749
  453SOL    HW2 1811   0.240   2.978   1.489 -0.6854  0.5793  1.4042
  453SOL     MW 1812   0.219   2.990   1.571 -0.3323 -0.2622  0.2715
  454SOL     OW 1813   0.952   2.777   1.184  0.9592  0.1228 -0.1805
  454SOL    HW1 1814   0.929   2.706   1.237  0.5320  0.1052  0.4317
  454SOL    HW2 1815   0.884   2.785   1.119  1.1879 -0.6413 -0.0137
  454SOL     MW 1816   0.940   2.769   1.182  0.9330  0.0197 -0.0777
  455SOL     OW 1817   1.753   2.846   0.179 -0.1168 -0.5216  0.1250
  455SOL    HW1 1818   1.776   2.850   0.276  1.6949 -0.4820  1.4130
  455SOL    HW2 1819   1.673   2.792   0.178 -0.8956 -1.8859 -1.0363
  455SOL     MW 1820   1.746   2.839   0.192  0.0195 -0.6964  0.1417
  456SOL     OW 1821   2.758   0.259   1.462 -0.0292 -0.2123  0.2723
  456SOL    HW1 1822   2.769   0.194   1.390  0.5872 -1.0060 -0.8338
  456SOL    HW2 1823   2.785   0.342   1.423 -1.4202 -0.9106  0.6381
  456SOL     MW 1824   2.763   0.261   1.447 -0.1314 -0.4092  0.1746
  457SOL     OW 1825   0.811   1.663   3.055  0.6851  0.1465  0.3276
  457SOL    HW1 1826   0.717   1.639   3.068  0.2059  0.6341 -1.5293
  457SOL    HW2 1827   0.838   1.698   3.139  0.6572  2.0194  0.1167
  457SOL     MW 1828   0.802   1.664   3.068  0.6182  0.4580  0.0548
  458SOL     OW 1829   1.362   1.468   0.719  0.2829 -0.2046  0.9510
  458SOL    HW1 1830   1.296   1.531   0.679 -2.1897  0.8553 -2.2268
  458SOL    HW2 1831   1.331   1.385   0.683  0.8018  0.5559 -1.4288
  458SOL     MW 1832   1.349   1.466   0.709  0.0252  0.0356  0.2177
  459SOL     OW 1833   1.605   3.044   0.250 -0.1776 -0.0456 -0.4059
  459SOL    HW1 1834   1.668   2.979   0.209  0.6588  0.8269 -0.8861
  459SOL    HW2 1835   1.536   3.059   0.183  1.6526 -0.0717  0.1669
  459SOL     MW 1836   1.604   3.038   0.236  0.1743  0.0660 -0.3937
  460SOL     OW 1837   1.771   2.237   0.639  0.1996 -0.1089  0.0868
  460SOL    HW1 1838   1.683   2.223   0.680  1.3432  1.8818 -0.7996
  460SOL    HW2 1839   1.804   2.148   0.616 -1.7340  2.1607 -0.8567
  460SOL     MW 1840   1.764   2.223   0.641  0.0954  0.4532 -0.1547
  461SOL     OW 1841   0.403   2.442   0.522  0.2443  0.3649  0.3029
  461SOL    HW1 1842   0.403   2.523   0.475  0.1448  2.6572  0.4084
  461SOL    HW2 1843   0.386   2.462   0.610 -0.6235  0.0549 -1.1192
  461SOL     MW 1844   0.401   2.455   0.527  0.1166  0.6264  0.1292
  462SOL     OW 1845   0.285   0.243   1.287  0.0024 -0.2712 -0.0916
  462SOL    HW1 1846   0.323   0.201   1.209  0.0546  3.7083 -1.8182
  462SOL    HW2 1847   0.356   0.254   1.354 -0.9481  0.3868 -2.2545
  462SOL     MW 1848   0.300   0.239   1.286 -0.1161  0.3407 -0.6048
  463SOL     OW 1849   1.103   0.069   0.722 -0.0927  0.3574 -0.2422
  463SOL    HW1 1850   1.161   0.005   0.682 -1.4768  1.4848 -0.2261
  463SOL    HW2 1851   1.030   0.090   0.661  1.1144 -0.4801  0.1169
  463SOL     MW 1852   1.101   0.063   0.709 -0.1160  0.3957 -0.1927
  464SOL     OW 1853   0.741   3.080   2.279  0.3138 -0.0224 -0.2230
  464SOL    HW1 1854   0.737   2.981   2.270  0.2033 -0.0689  0.0438
  464SOL    HW2 1855   0.746   3.110   2.376  0.3040  2.0899 -1.6779
  464SOL     MW 1856   0.741   3.071   2.290  0.2979  0.2501 -0.3798
  465SOL     OW 1857   0.835   0.347   0.381  0.0945  0.3441  0.7012
  465SOL    HW1 1858   0.800   0.274   0.430 -1.0053  0.8003  2.8716
  465SOL    HW2 1859   0.821   0.319   0.288 -0.4490  2.1747  2.5809
  465SOL     MW 1860   0.828   0.334   0.375 -0.1223  0.6458  1.2356
  466SOL     OW 1861   1.118   2.051   0.789 -0.1667 -0.4015  0.2873
  466SOL    HW1 1862   1.076   1.983   0.740 -1.2061  2.8886 -4.4380
  466SOL    HW2 1863   1.079   2.128   0.742 -2.0456 -0.9867 -0.0841
  466SOL     MW 1864   1.107   2.052   0.776 -0.5517 -0.0446 -0.3852
  467SOL     OW 1865   1.273   2.350   0.979 -0.3794  0.3732  0.0056
  467SOL    HW1 1866   1.359   2.386   0.999 -0.1236  0.4887 -1.7646
  467SOL    HW2 1867   1.287   2.254   0.972  0.6470 -1.1548  2.5268
  467SOL     MW 1868   1.286   2.342   0.981 -0.2102  0.1869  0.1047
  468SOL     OW 1869   0.497   2.666   1.916 -0.8918  0.4622  0.4804
  468SOL    HW1 1870   0.488   2.574   1.877  0.7567 -2.6677 -2.0181
  468SOL    HW2 1871   0.448   2.728   1.864 -0.9044 -5.3851 -1.3644
  468SOL     MW 1872   0.489   2.662   1.904 -0.6760 -0.7223 -0.0926
  469SOL     OW 1873   0.321   2.155   1.801 -0.1687  0.1512 -0.5017
  469SOL    HW1 1874   0.271   2.091   1.848  2.6496  0.7098  2.0648
  469SOL    HW2 1875   0.393   2.104   1.766  0.1692 -0.2735  1.1531
  469SOL     MW 1876   0.324   2.140   1.802  0.2477  0.1689  0.0553
  470SOL     OW 1877   3.037   2.584   0.096  0.0138  0.0683  0.1399
  470SOL    HW1 1878   2.955   2.595   0.152 -0.3849  0.5181  1.9773
  470SOL    HW2 1879   3.015   2.596   0.001  0.3532  1.1137  0.3560
  470SOL     MW 1880   3.023   2.587   0.091  0.0060  0.2656  0.4109
  471SOL     OW 1881   1.148   2.647   1.372 -0.4213 -0.1037  0.5400
  471SOL    HW1 1882   1.070   2.593   1.379  1.1462 -2.0338 -4.1670
  471SOL    HW2 1883   1.183   2.613   1.290 -1.1634  1.5002 -1.5839
  471SOL     MW 1884   1.142   2.635   1.362 -0.3124 -0.1467 -0.3613
  472SOL     OW 1885   2.968   2.134   0.359 -0.3209  0.1515  0.1555
  472SOL    HW1 1886   2.970   2.076   0.285  1.5319 -0.5009  0.0600
  472SOL    HW2 1887   2.898   2.097   0.425 -2.3207  1.2716  2.3170
  472SOL     MW 1888   2.959   2.122   0.358 -0.3403  0.2132  0.4281
  473SOL     OW 1889   0.867   2.547   1.328  0.5498  0.0596  0.7088
  473SOL    HW1 1890   0.913   2.469   1.300  0.2316  0.5010 -1.8222
  473SOL    HW2 1891   0.890   2.562   1.419  0.4878  0.5806 -1.4339
  473SOL     MW 1892   0.876   2.539   1.337  0.4997  0.1866  0.0922
  474SOL     OW 1893   0.707   2.281   1.840  0.9542 -0.1841  0.0405
  474SOL    HW1 1894   0.798   2.276   1.866  0.8175 -0.5520 -0.1922
  474SOL    HW2 1895   0.719   2.294   1.748  5.4125  2.3871 -0.9253
  474SOL     MW 1896   0.721   2.282   1.831  1.5244  0.1066 -0.1176
  475SOL     OW 1897   1.602   3.080   1.517 -0.0171  0.0928 -0.0245
  475SOL    HW1 1898   1.538   3.021   1.477 -1.4475  0.8385 -1.7990
  475SOL    HW2 1899   1.645   3.042   1.594  1.9612  1.9921 -0.6678
  475SOL     MW 1900   1.599   3.067   1.522  0.0552  0.4418 -0.3435
  476SOL     OW 1901   1.424   2.675   1.185  0.2662  0.5643  0.2257
  476SOL    HW1 1902   1.356   2.719   1.143  3.8006  0.1383  0.7277
  476SOL    HW2 1903   1.507   2.723   1.172 -0.5211 -0.6762 -0.0650
  476SOL     MW 1904   1.426   2.687   1.178  0.6286  0.3444  0.2536
  477SOL     OW 1905   0.856   2.536   0.705  0.4415 -0.0478 -0.2634
  477SOL    HW1 1906   0.948   2.566   0.704  1.7972 -0.0421  0.0770
  477SOL    HW2 1907   0.837   2.467   0.638 -0.7286  0.4442  0.7063
  477SOL     MW 1908   0.866   2.531   0.696  0.4660  0.0179 -0.0906
  478SOL     OW 1909   0.222   2.650   0.884 -0.1197 -0.2349 -0.7032
  478SOL    HW1 1910   0.264   2.738   0.894 -2.5204 -0.5536  0.4941
  478SOL    HW2 1911   0.290   2.589   0.850 -1.0525 -0.6326 -0.9268
  478SOL     MW 1912   0.237   2.653   0.881 -0.5595 -0.3294 -0.5748
  479SOL     OW 1913   1.398   1.974   1.268 -0.6158  0.4795  0.3081
  479SOL    HW1 1914   1.391   2.003   1.361  0.3192 -0.3797 -1.0884
  479SOL    HW2 1915   1.435   1.885   1.267  0.1893  0.5815 -0.6393
  479SOL     MW 1916   1.402   1.967   1.280 -0.3862  0.3796 -0.0012
  480SOL     OW 1917   1.987   2.454   1.369 -0.9461  0.0813 -0.8553
  480SOL    HW1 1918   1.988   2.353   1.373  0.7270 -1.2720  1.4853
  480SOL    HW2 1919   1.964   2.475   1.281  1.3823 -2.0717  1.2127
  480SOL     MW 1920   1.984   2.443   1.358 -0.4182 -0.3813 -0.2736
  481SOL     OW 1921   1.078   0.094   1.073  0.5477 -0.5871  0.3787
  481SOL    HW1 1922   1.141   0.024   1.051 -0.1898  0.0589 -0.5852
  481SOL    HW2 1923   1.127   0.174   1.077 -0.9343 -0.0431  0.7725
  481SOL     MW 1924   1.093   0.095   1.071  0.2549 -0.4301  0.3035
  482SOL     OW 1925   1.046   0.004   0.260 -0.3978 -0.5222  0.0317
  482SOL    HW1 1926   1.002  -0.053   0.321 -1.7948 -1.4786 -0.7416
  482SOL    HW2 1927   1.048   0.084   0.313  1.9194  0.7060  1.7242
  482SOL     MW 1928   1.040   0.007   0.275 -0.2764 -0.4864  0.1530
  483SOL     OW 1929   0.465   2.986   0.461  1.0161 -0.3911 -0.2531
  483SOL    HW1 1930   0.413   2.981   0.378 -1.5039  0.7154 -0.6768
  483SOL    HW2 1931   0.401   3.009   0.532 -1.9138 -0.9415  1.6351
  483SOL     MW 1932   0.450   2.988   0.459  0.2970 -0.3177 -0.0599
  484SOL     OW 1933   1.827   2.026   1.422 -0.1076  0.4466  0.2226
  484SOL    HW1 1934   1.887   2.106   1.420  2.3940  1.6426  2.4036
  484SOL    HW2 1935   1.811   2.016   1.520  3.9499  0.6525  0.3373
  484SOL     MW 1936   1.833   2.035   1.435  0.7578  0.6316  0.5255
  485SOL     OW 1937   0.624   2.415   0.295  0.0074  0.0082 -0.0262
  485SOL    HW1 1938   0.683   2.406   0.377  1.7127 -0.4208  1.8874
  485SOL    HW2 1939   0.569   2.491   0.308  2.0964  2.0943  1.1168
  485SOL     MW 1940   0.624   2.424   0.308  0.5080  0.2269  0.3771
  486SOL     OW 1941   0.177   2.390   1.446 -0.4656 -0.5284  1.2141
  486SOL    HW1 1942   0.230   2.457   1.405  0.5438 -1.5510 -0.7125
  486SOL    HW2 1943   0.157   2.419   1.535  2.2671  1.2440  0.3924
  486SOL     MW 1944   0.182   2.402   1.453  0.0281 -0.4295  0.8515
  487SOL     OW 1945   1.180   1.762   1.036 -0.3375  0.3128  0.6455
  487SOL    HW1 1946   1.176   1.842   1.080 -0.5164  0.9848 -0.8607
  487SOL    HW2 1947   1.273   1.739   1.026  1.8095  0.9131 -2.1599
  487SOL     MW 1948   1.192   1.769   1.041 -0.0778  0.4807  0.0766
  488SOL     OW 1949   1.591   1.847   0.545 -0.1454  0.5237 -0.2464
  488SOL    HW1 1950   1.677   1.844   0.504  2.2661 -0.1564  0.2058
  488SOL    HW2 1951   1.555   1.937   0.532  2.0115  1.5549 -3.6704
  488SOL     MW 1952   1.598   1.859   0.538  0.4574  0.5701 -0.6385
  489SOL     OW 1953   0.784   0.830   0.595 -0.3103 -0.4028 -0.6465
  489SOL    HW1 1954   0.825   0.751   0.552  3.2398 -0.1631  3.5251
  489SOL    HW2 1955   0.772   0.788   0.682  0.2676  2.7549 -0.2818
  489SOL     MW 1956   0.788   0.814   0.601  0.2344  0.0454 -0.0479
  490SOL     OW 1957   1.438   2.058   0.513 -0.0807 -0.2040 -0.9268
  490SOL    HW1 1958   1.467   2.129   0.449  0.9507  1.1657 -0.5503
  490SOL    HW2 1959   1.349   2.039   0.494  0.0825  0.1158 -0.7686
  490SOL     MW 1960   1.430   2.065   0.502  0.0769  0.0190 -0.8563
  491SOL     OW 1961   1.280   2.999   0.408  0.6492  0.2375  0.1085
  491SOL    HW1 1962   1.362   3.043   0.434  5.2811  2.0120 -0.6442
  491SOL    HW2 1963   1.240   3.056   0.341  2.3656  1.6449 -0.6388
  491SOL     MW 1964   1.285   3.012   0.403  1.4868  0.6573 -0.0894
  492SOL     OW 1965   1.521   2.200   0.746 -0.5282 -0.0851  0.3721
  492SOL    HW1 1966   1.490   2.157   0.670 -0.2234  2.4116  2.3506
  492SOL    HW2 1967   1.503   2.148   0.826 -1.4140 -1.1275  1.9610
  492SOL     MW 1968   1.515   2.188   0.746 -0.6048  0.1068  0.8428
  493SOL     OW 1969   0.261   2.957   0.285  0.5557  0.1217  0.0144
  493SOL    HW1 1970   0.217   3.015   0.352  3.8641  1.9423 -1.9038
  493SOL    HW2 1971   0.273   3.010   0.201  2.6794  3.0867  0.3324
  493SOL     MW 1972   0.257   2.972   0.283  1.2724  0.7531 -0.1967
  494SOL     OW 1973   0.440   2.439   1.773  0.3609 -0.0245 -0.3655
  494SOL    HW1 1974   0.496   2.365   1.788  2.2703 -0.2496 -1.8229
  494SOL    HW2 1975   0.469   2.473   1.691 -3.9676 -1.4589  1.5574
  494SOL     MW 1976   0.451   2.434   1.764  0.0417 -0.2435 -0.3041
  495SOL     OW 1977   2.827   1.736   2.556 -0.0093  0.5124 -0.1035
  495SOL    HW1 1978   2.771   1.812   2.527 -1.5730 -1.9329  1.4477
  495SOL    HW2 1979   2.811   1.698   2.644 -0.0256 -0.5680 -2.1782
  495SOL     MW 1980   2.818   1.741   2.564 -0.2178  0.0472 -0.1726
  496SOL     OW 1981   2.923   2.344   2.648 -0.3468 -0.6122  0.0717
  496SOL    HW1 1982   2.953   2.297   2.724  0.6414 -1.2618 -1.9122
  496SOL    HW2 1983   2.980   2.420   2.633 -1.1023  0.7910 -0.9547
  496SOL     MW 1984   2.935   2.348   2.656 -0.3161 -0.5127 -0.3255
  497SOL     OW 1985   1.538   2.225   2.669 -0.2698  0.0262  0.2433
  497SOL    HW1 1986   1.453   2.189   2.654  1.1860 -1.9208 -2.4428
  497SOL    HW2 1987   1.578   2.148   2.714  1.2236  1.5636  1.3315
  497SOL     MW 1988   1.532   2.210   2.673  0.1193 -0.0278  0.0325
  498SOL     OW 1989   1.490   2.688   2.357  0.1389  0.4137 -0.1719
  498SOL    HW1 1990   1.471   2.596   2.348  1.9362  0.7910  0.4555
  498SOL    HW2 1991   1.583   2.693   2.363  0.1874  0.7401  1.2827
  498SOL     MW 1992   1.500   2.676   2.357  0.3825  0.5065  0.1028
  499SOL     OW 1993   0.960   0.146   3.065 -0.5624 -0.0639 -0.4880
  499SOL    HW1 1994   0.903   0.150   3.148 -0.1640  1.8649  2.5204
  499SOL    HW2 1995   1.041   0.090   3.068  1.3905 -1.6519 -0.5675
  499SOL     MW 1996   0.963   0.139   3.077 -0.2521 -0.0190 -0.1016
  500SOL     OW 1997   1.046   2.483   2.769 -0.4958  0.0185 -0.7146
  500SOL    HW1 1998   1.115   2.464   2.839 -1.1321 -0.5078  0.0536
  500SOL    HW2 1999   0.968   2.491   2.828 -1.4474 -2.3900  1.3183
  500SOL     MW 2000   1.045   2.482   2.786 -0.7053 -0.3688 -0.3450
  501SOL     OW 2001   1.764   2.216   3.065 -0.1485 -0.0998 -0.5253
  501SOL    HW1 2002   1.700   2.273   3.107  1.5942 -0.2556  2.3802
  501SOL    HW2 2003   1.850   2.250   3.085 -1.3859 -0.6010 -2.0666
  501SOL     MW 2004   1.767   2.228   3.073 -0.0818 -0.1865 -0.3453
  502SOL     OW 2005   0.126   2.830   3.021 -0.4669  0.2673 -0.8828
  502SOL    HW1 2006   0.055   2.781   2.980 -2.2075 -2.3839  0.3513
  502SOL    HW2 2007   0.175   2.862   2.947  1.5452  1.6784 -0.3574
  502SOL     MW 2008   0.123   2.828   3.006 -0.4311  0.1037 -0.6507
  503SOL     OW 2009   1.025   2.904   2.157  1.0639  0.3894 -0.3845
  503SOL    HW1 2010   0.955   2.853   2.118 -1.8163  4.0106  1.7226
  503SOL    HW2 2011   0.988   2.991   2.152 -1.3839  1.3963 -0.4975
  503SOL     MW 2012   1.011   2.909   2.151  0.3609  1.0000 -0.1214
  504SOL     OW 2013   0.089   2.722   2.130  0.7838 -0.5079 -0.4223
  504SOL    HW1 2014   0.104   2.626   2.122 -0.0221  2.1199 -0.2653
  504SOL    HW2 2015   0.080   2.726   2.220  2.0778 -1.9790 -1.0101
  504SOL     MW 2016   0.090   2.710   2.141  0.8482 -0.3553 -0.4791
  505SOL     OW 2017   1.716   2.728   2.685  0.0719 -0.2002  0.0504
  505SOL    HW1 2018   1.731   2.693   2.598 -0.8368 -2.1139  2.6237
  505SOL    HW2 2019   1.624   2.737   2.690  1.0486 -2.0236  0.4114
  505SOL     MW 2020   1.706   2.725   2.674  0.0809 -0.6933  0.4376
  506SOL     OW 2021   1.636   2.999   2.842  0.4044  0.3401  0.4766
  506SOL    HW1 2022   1.677   2.931   2.895 -0.4793  0.0780  1.4622
  506SOL    HW2 2023   1.711   3.022   2.784  0.8523 -1.4960  1.6444
  506SOL     MW 2024   1.652   2.993   2.841  0.3469  0.0633  0.7607
  507SOL     OW 2025   0.811   2.795   2.895 -0.3235  1.0921  0.1625
  507SOL    HW1 2026   0.866   2.850   2.846 -0.4085  0.5577 -0.3826
  507SOL    HW2 2027   0.735   2.850   2.928  0.3626 -0.0492 -2.5727
  507SOL     MW 2028   0.808   2.810   2.893 -0.2442  0.8710 -0.2703
  508SOL     OW 2029   1.136   2.048   2.488 -0.0780  0.5136 -0.7593
  508SOL    HW1 2030   1.190   2.047   2.567 -3.0437  3.1005 -1.4385
  508SOL    HW2 2031   1.087   2.129   2.501 -2.2030 -0.1512 -1.5920
  508SOL     MW 2032   1.137   2.058   2.500 -0.7497  0.7672 -0.9588
  509SOL     OW 2033   0.556   2.526   2.889 -0.0919  0.3564  0.6940
  509SOL    HW1 2034   0.582   2.527   2.788 -3.6669 -4.3357 -3.7686
  509SOL    HW2 2035   0.460   2.510   2.886 -0.4498 -3.1133  0.3704
  509SOL     MW 2036   0.547   2.524   2.875 -0.6108 -0.7205  0.0625
  510SOL     OW 2037   1.500   2.523   1.712 -0.4398  0.3533  0.1030
  510SOL    HW1 2038   1.504   2.618   1.724 -0.6707  0.1036  1.1360
  510SOL    HW2 2039   1.460   2.491   1.797 -1.4205 -1.8928  1.9857
  510SOL     MW 2040   1.495   2.531   1.725 -0.5996  0.0240  0.4877
  511SOL     OW 2041   0.422   2.593   2.469  0.5175 -0.1363  0.2512
  511SOL    HW1 2042   0.505   2.575   2.510  0.5820  0.7251 -0.2172
  511SOL    HW2 2043   0.447   2.595   2.378  2.7350 -0.9866  4.5665
  511SOL     MW 2044   0.436   2.591   2.462  0.8186 -0.1348  0.7587
  512SOL     OW 2045   1.002   1.976   2.847  0.1933  0.0316  0.0235
  512SOL    HW1 2046   0.916   1.963   2.887 -0.5179 -0.7172 -1.2351
  512SOL    HW2 2047   1.046   1.893   2.866 -0.9502 -1.3472 -0.6719
  512SOL     MW 2048   0.996   1.963   2.855 -0.0514 -0.2492 -0.2343
  513SOL     OW 2049   1.461   2.396   2.399 -0.1912 -0.5444 -0.3866
  513SOL    HW1 2050   1.555   2.407   2.430  0.5117  0.3366  2.5122
  513SOL    HW2 2051   1.448   2.300   2.388  4.2276 -0.7313 -0.0397
  513SOL     MW 2052   1.471   2.385   2.401  0.4845 -0.4528  0.0416
  514SOL     OW 2053   0.221   2.435   2.627  0.0314 -0.1769 -0.6707
  514SOL    HW1 2054   0.266   2.480   2.551  1.7268 -0.0172 -0.4238
  514SOL    HW2 2055   0.256   2.463   2.715  2.1944  1.8807 -0.2247
  514SOL     MW 2056   0.232   2.445   2.628  0.5405  0.1156 -0.5793
  515SOL     OW 2057   1.162   2.063   1.927  0.2618  0.2224 -0.2249
  515SOL    HW1 2058   1.092   2.124   1.926  1.7381 -0.0563  0.1954
  515SOL    HW2 2059   1.185   2.060   2.016  2.6817  2.0357 -3.2572
  515SOL     MW 2060   1.156   2.070   1.938  0.7759  0.4249 -0.5695
  516SOL     OW 2061   1.445   2.521   3.045 -0.3799 -0.6610  0.4661
  516SOL    HW1 2062   1.494   2.507   2.963 -1.8104  2.1608  2.5489
  516SOL    HW2 2063   1.356   2.507   3.017  0.7952  2.6323  3.0598
  516SOL     MW 2064   1.440   2.517   3.030 -0.4136  0.1458  1.0831
  517SOL     OW 2065   0.586   2.424   2.124 -0.4920  1.0058 -0.6766
  517SOL    HW1 2066   0.544   2.516   2.151 -1.3286 -2.3260  0.6503
  517SOL    HW2 2067   0.503   2.377   2.098 -2.3407 -0.7173  1.7171
  517SOL     MW 2068   0.570   2.430   2.124 -0.8463  0.3388 -0.1857
  518SOL     OW 2069   1.893   0.078   2.976 -0.1510 -0.2459  0.7676
  518SOL    HW1 2070   1.835   0.111   2.902  0.1293  2.2112 -1.1400
  518SOL    HW2 2071   1.840   0.063   3.057  0.1323  0.0079  1.1922
  518SOL     MW 2072   1.878   0.080   2.977 -0.0766  0.1118  0.5719
  519SOL     OW 2073   0.737   2.549   1.782  0.3118 -0.5220  0.1687
  519SOL    HW1 2074   0.754   2.454   1.813  0.8054  0.8371  0.4896
  519SOL    HW2 2075   0.670   2.587   1.829 -0.7049 -0.5486  0.3261
  519SOL     MW 2076   0.731   2.542   1.792  0.2428 -0.3462  0.2318
  520SOL     OW 2077   1.216   2.146   2.925 -0.7499 -0.2148 -0.6697
  520SOL    HW1 2078   1.139   2.092   2.910  1.0673 -2.0124  4.1098
  520SOL    HW2 2079   1.241   2.115   3.012  0.0958  1.8031  1.6672
  520SOL     MW 2080   1.209   2.135   2.934 -0.3985 -0.1857  0.2692
  521SOL     OW 2081   1.770   2.015   2.239 -0.2234 -0.2414 -0.0360
  521SOL    HW1 2082   1.765   2.031   2.145  1.0308 -0.9227  0.8430
  521SOL    HW2 2083   1.771   1.918   2.243  0.0492 -0.5194 -0.4343
  521SOL     MW 2084   1.769   2.004   2.227 -0.0220 -0.3680  0.0274
  522SOL     OW 2085   2.847   2.596   2.217  0.4806  0.3654  0.2767
  522SOL    HW1 2086   2.927   2.549   2.240  2.7413 -1.7775  0.5223
  522SOL    HW2 2087   2.810   2.604   2.305  1.5484  2.3862  0.5399
  522SOL     MW 2088   2.853   2.591   2.232  0.9197  0.3493  0.3438
  523SOL     OW 2089   0.850   1.496   2.128  0.0500 -0.0458 -0.3080
  523SOL    HW1 2090   0.842   1.566   2.059 -0.1381 -0.5380 -0.1293
  523SOL    HW2 2091   0.897   1.424   2.080  2.6360  0.3893  0.1842
  523SOL     MW 2092   0.855   1.496   2.112  0.3664 -0.0533 -0.2195
  524SOL     OW 2093   0.832   2.462   2.960 -0.7289  0.1357 -0.0672
  524SOL    HW1 2094   0.754   2.493   2.921  1.6719 -1.7213 -3.0213
  524SOL    HW2 2095   0.830   2.373   2.929 -2.3774  0.6596  0.0229
  524SOL     MW 2096   0.821   2.454   2.950 -0.6297 -0.0402 -0.4451
  525SOL     OW 2097   0.346   2.311   2.028 -0.3303 -0.1305 -0.0419
  525SOL    HW1 2098   0.320   2.240   2.097  0.6749  1.2300  2.2208
  525SOL    HW2 2099   0.344   2.257   1.947 -0.9362  1.3661 -0.2872
  525SOL     MW 2100   0.342   2.294   2.026 -0.2776  0.2464  0.2243
  526SOL     OW 2101   0.634   2.121   2.083 -0.1623  0.2735  0.7067
  526SOL    HW1 2102   0.641   2.183   2.012  0.4279 -2.2059 -1.4830
  526SOL    HW2 2103   0.655   2.161   2.164 -0.7494  0.8500 -0.3369
  526SOL     MW 2104   0.638   2.134   2.084 -0.1619  0.0225  0.2801
  527SOL     OW 2105   1.400   1.957   2.134  0.3448 -0.2130  0.2997
  527SOL    HW1 2106   1.368   1.894   2.206  0.4900  0.5335  1.2641
  527SOL    HW2 2107   1.422   1.899   2.060  1.2893 -1.7472  1.7838
  527SOL     MW 2108   1.399   1.941   2.134  0.4886 -0.3170  0.6228
  528SOL     OW 2109   0.618   3.002   2.936 -0.8190  0.9377 -0.2635
  528SOL    HW1 2110   0.678   3.075   2.917 -1.9219  1.3398  0.2508
  528SOL    HW2 2111   0.567   2.996   2.853  2.2172 -0.6224 -1.1567
  528SOL     MW 2112   0.619   3.011   2.923 -0.5639  0.7849 -0.3135
  529SOL     OW 2113   0.976   2.283   1.952  0.2731  0.2398 -0.1298
  529SOL    HW1 2114   0.990   2.318   2.038 -0.7325  0.1204 -2.4311
  529SOL    HW2 2115   1.023   2.342   1.895 -0.8858  1.4628  1.1741
  529SOL     MW 2116   0.984   2.295   1.956 -0.0125  0.3854 -0.2614
  530SOL     OW 2117   1.215   2.433   2.966 -0.0903  0.4741  0.4708
  530SOL    HW1 2118   1.150   2.442   3.032  1.3562 -0.9729  1.2694
  530SOL    HW2 2119   1.227   2.337   2.955 -0.6278  0.7275  2.1627
  530SOL     MW 2120   1.208   2.422   2.973  0.0296  0.3166  0.7994
  531SOL     OW 2121   0.934   1.856   2.567  0.1837  0.1084 -0.5174
  531SOL    HW1 2122   0.990   1.933   2.565 -0.0066  2.0892  3.7225
  531SOL    HW2 2123   0.896   1.857   2.649  1.7193  2.2759  1.1971
  531SOL     MW 2124   0.936   1.866   2.578  0.3612  0.6557  0.2683
  532SOL     OW 2125   1.753   0.198   2.762  0.1456 -0.0938  0.0494
  532SOL    HW1 2126   1.656   0.213   2.765  1.7827 -1.9664 -0.8321
  532SOL    HW2 2127   1.776   0.181   2.673  0.1444 -0.8334 -0.0562
  532SOL     MW 2128   1.743   0.198   2.750  0.3614 -0.4384 -0.0809
  533SOL     OW 2129   1.956   2.569   0.000  0.4231 -0.1757 -0.4031
  533SOL    HW1 2130   1.897   2.512   0.052  0.2551 -1.1216  0.5415
  533SOL    HW2 2131   1.896   2.642  -0.037  0.8170 -1.4888  0.8094
  533SOL     MW 2132   1.940   2.571   0.002  0.4529 -0.4738 -0.1185
  534SOL     OW 2133   1.716   2.367   2.504 -0.0972  0.0798  0.2596
  534SOL    HW1 2134   1.680   2.293   2.551  1.1560 -0.7370  1.4378
  534SOL    HW2 2135   1.785   2.403   2.569  1.4314 -1.1128  0.9116
  534SOL     MW 2136   1.720   2.362   2.519  0.2698 -0.1853  0.5010
  535SOL     OW 2137   1.885   2.385   1.865  0.1434 -0.5445 -0.1606
  535SOL    HW1 2138   1.829   2.370   1.784  0.6698 -1.5374  1.9591
  535SOL    HW2 2139   1.977   2.364   1.853 -0.1579  0.4924  1.3475
  535SOL     MW 2140   1.890   2.380   1.853  0.1731 -0.5387  0.3181
  536SOL     OW 2141   0.485   1.866   2.137  0.0706  0.2702 -0.2603
  536SOL    HW1 2142   0.462   1.851   2.051 -1.7937  0.4723  0.8938
  536SOL    HW2 2143   0.511   1.961   2.142  2.4268  1.6896 -2.1685
  536SOL     MW 2144   0.485   1.877   2.126  0.1355  0.4841 -0.3598
  537SOL     OW 2145   1.070   0.285   2.772 -0.3021  0.2116 -0.3443
  537SOL    HW1 2146   1.091   0.347   2.848 -0.6141  0.9282  1.3347
  537SOL    HW2 2147   1.044   0.343   2.701  0.9393 -0.2759  1.4456
  537SOL     MW 2148   1.069   0.301   2.773 -0.1795  0.2418  0.1134
  538SOL     OW 2149   1.423   0.056   0.060  0.0073  0.4826 -0.1586
  538SOL    HW1 2150   1.408   0.149   0.049  1.8651  0.8782 -0.3966
  538SOL    HW2 2151   1.344   0.000   0.036 -0.4782 -0.3642 -0.2097
  538SOL     MW 2152   1.410   0.061   0.055  0.1883  0.4231 -0.1968
  539SOL     OW 2153   0.705   2.812   2.593  0.2263  0.9477 -0.0929
  539SOL    HW1 2154   0.776   2.860   2.637  1.6559 -1.4913 -1.0456
  539SOL    HW2 2155   0.715   2.715   2.619  1.0243  1.9720 -0.4975
  539SOL     MW 2156   0.716   2.805   2.603  0.5202  0.7611 -0.2720
  540SOL     OW 2157   0.292   2.455   2.884  0.9314 -0.1047  0.1543
  540SOL    HW1 2158   0.276   2.518   2.958 -0.2178 -0.6215 -2.0144
  540SOL    HW2 2159   0.290   2.369   2.933 -1.3431  0.3479 -0.9418
  540SOL     MW 2160   0.290   2.452   2.900  0.4796 -0.1132 -0.2764
  541SOL     OW 2161   0.251   2.950   2.137  0.1521 -0.2214 -0.6304
  541SOL    HW1 2162   0.213   2.868   2.103 -1.0160 -0.6820 -0.3787
  541SOL    HW2 2163   0.308   2.909   2.203  0.1314 -0.8194 -0.2495
  541SOL     MW 2164   0.253   2.934   2.141 -0.0047 -0.3611 -0.5469
  542SOL     OW 2165   0.973   2.291   2.596 -0.0172  0.2073  0.3600
  542SOL    HW1 2166   0.925   2.233   2.657  0.9883  0.6029  0.8079
  542SOL    HW2 2167   1.025   2.355   2.656 -1.0991 -0.6943  0.7970
  542SOL     MW 2168   0.974   2.292   2.612 -0.0273  0.1406  0.4768
  543SOL     OW 2169   1.582   2.437   2.824  0.5536 -0.0388 -0.2636
  543SOL    HW1 2170   1.575   2.362   2.764 -0.1232  2.2857  2.2553
  543SOL    HW2 2171   1.655   2.492   2.806 -1.6836  1.1740  0.2664
  543SOL     MW 2172   1.591   2.434   2.813  0.1691  0.4279  0.1387
  544SOL     OW 2173   0.693   0.310   2.719 -0.0094  0.3518 -0.0534
  544SOL    HW1 2174   0.599   0.314   2.726  0.0138 -1.3546  0.7151
  544SOL    HW2 2175   0.712   0.255   2.639 -3.5525 -1.5349 -0.8976
  544SOL     MW 2176   0.683   0.303   2.709 -0.4739 -0.1223 -0.0634
  545SOL     OW 2177   1.506   2.131   2.339  0.6916 -0.2827  0.0670
  545SOL    HW1 2178   1.465   2.086   2.265 -0.5151  1.4337 -0.4540
  545SOL    HW2 2179   1.592   2.128   2.310 -3.0544  0.2897  1.1039
  545SOL     MW 2180   1.512   2.124   2.326  0.0382  0.0193  0.1351
  546SOL     OW 2181   2.885   1.959   0.134  0.4749  0.2034  0.1708
  546SOL    HW1 2182   2.878   2.049   0.094  0.2172  1.4215 -0.5832
  546SOL    HW2 2183   2.973   1.927   0.116  1.4088  3.7432  0.1869
  546SOL     MW 2184   2.896   1.967   0.126  0.5641  0.8312  0.0734
  547SOL     OW 2185   0.211   0.080   0.107 -0.7440 -0.5729 -0.0178
  547SOL    HW1 2186   0.284   0.085   0.039  1.8569 -2.3852 -0.4972
  547SOL    HW2 2187   0.137   0.058   0.056 -0.1417  1.9574 -2.1375
  547SOL     MW 2188   0.211   0.078   0.092 -0.3214 -0.4782 -0.3607
  548SOL     OW 2189   0.357   2.548   0.257  0.7846  0.8703  0.3841
  548SOL    HW1 2190   0.341   2.553   0.164  1.5850  1.0597  0.0587
  548SOL    HW2 2191   0.331   2.457   0.285  0.3317  0.7840 -1.8355
  548SOL     MW 2192   0.352   2.537   0.248  0.8305  0.8839  0.0483
  549SOL     OW 2193   0.839   1.938   2.118  0.0197 -0.1748  0.2878
  549SOL    HW1 2194   0.778   1.993   2.078  0.2603 -2.2299  1.4043
  549SOL    HW2 2195   0.788   1.923   2.199 -1.6632  0.6648  0.3592
  549SOL     MW 2196   0.824   1.943   2.124 -0.1706 -0.3352  0.4445
  550SOL     OW 2197   1.845   1.653   2.508 -0.9207 -0.9842  0.4474
  550SOL    HW1 2198   1.833   1.695   2.422 -1.3081 -0.8016  3.8474
  550SOL    HW2 2199   1.813   1.723   2.564 -2.6920 -2.5208 -3.0931
  550SOL     MW 2200   1.839   1.668   2.504 -1.2055 -1.1628  0.4289
  551SOL     OW 2201   0.924   2.220   0.194  0.0733  0.2814 -0.3088
  551SOL    HW1 2202   1.016   2.237   0.196  1.2124 -0.4097  1.8332
  551SOL    HW2 2203   0.898   2.170   0.110 -2.4065 -0.5847  1.5207
  551SOL     MW 2204   0.933   2.216   0.183 -0.1036  0.0759  0.2152
  552SOL     OW 2205   1.764   1.735   2.258 -0.0643 -0.1260 -0.5182
  552SOL    HW1 2206   1.673   1.717   2.257 -1.2894  2.2806  2.8549
  552SOL    HW2 2207   1.805   1.699   2.176  1.7013  0.6713  2.9794
  552SOL     MW 2208   1.758   1.728   2.247  0.0070  0.2967  0.3883
  553SOL     OW 2209   1.237   2.301   1.577  0.2241  0.0450 -0.0633
  553SOL    HW1 2210   1.273   2.215   1.551 -1.2338  1.5295  0.4890
  553SOL    HW2 2211   1.294   2.357   1.528 -0.5070 -3.6527  3.0982
  553SOL     MW 2212   1.249   2.297   1.567 -0.0647 -0.2470  0.4267
  554SOL     OW 2213   0.506   2.970   2.693  0.3687  0.2797 -0.1134
  554SOL    HW1 2214   0.505   3.020   2.614  0.1969  1.0059 -1.1793
  554SOL    HW2 2215   0.564   2.898   2.664  0.4992 -0.0782 -0.3079
  554SOL     MW 2216   0.513   2.967   2.678  0.3633  0.3283 -0.2797
  555SOL     OW 2217   0.630   2.527   2.625 -0.1584  0.0591 -0.4850
  555SOL    HW1 2218   0.591   2.434   2.635  0.0056 -1.7257  0.3517
  555SOL    HW2 2219   0.719   2.511   2.579  1.0576 -0.4291  0.3511
  555SOL     MW 2220   0.637   2.513   2.620  0.0237 -0.2408 -0.2643
  556SOL     OW 2221   1.075   1.859   0.045 -0.4758 -0.5026 -0.4321
  556SOL    HW1 2222   1.097   1.812  -0.032  1.6336  0.6210  0.0070
  556SOL    HW2 2223   1.157   1.844   0.093  1.5345  0.4888  0.8822
  556SOL     MW 2224   1.089   1.851   0.041  0.0677 -0.2235 -0.2008
  557SOL     OW 2225   1.052   2.715   0.573 -0.5354  0.5856 -0.0273
  557SOL    HW1 2226   1.075   2.652   0.510  0.1887 -1.7495  0.5913
  557SOL    HW2 2227   1.036   2.790   0.518  1.9271 -0.9993  1.9517
  557SOL     MW 2228   1.053   2.717   0.557 -0.1149  0.0684  0.3155
  558SOL     OW 2229   0.230   2.233   3.027  0.2516 -0.1314 -0.2620
  558SOL    HW1 2230   0.264   2.149   3.054  1.4015 -1.8996 -0.9388
  558SOL    HW2 2231   0.171   2.260   3.101 -1.3872 -0.7732  4.5738
  558SOL     MW 2232   0.227   2.225   3.040  0.1871 -0.4493  0.2867
  559SOL     OW 2233   1.061   2.314   2.245 -0.0857 -0.5549  0.5405
  559SOL    HW1 2234   1.139   2.370   2.219  1.9147 -1.7579  0.7250
  559SOL    HW2 2235   1.091   2.228   2.222 -2.9845  0.5290  0.8830
  559SOL     MW 2236   1.075   2.310   2.239 -0.2042 -0.5706  0.6101
  560SOL     OW 2237   2.166   2.667   0.157  0.2709  0.1440 -0.2155
  560SOL    HW1 2238   2.167   2.741   0.101  0.3096 -1.3774 -0.1412
  560SOL    HW2 2239   2.107   2.608   0.106  0.9531  0.1578 -1.7938
  560SOL     MW 2240   2.159   2.669   0.143  0.3660 -0.0549 -0.4139
  561SOL     OW 2241   0.485   2.198   0.189 -0.0424  0.4257 -0.2693
  561SOL    HW1 2242   0.500   2.225   0.097  0.0468  1.2297 -0.4979
  561SOL    HW2 2243   0.527   2.263   0.247  0.9073 -1.1144  0.0249
  561SOL     MW 2244   0.492   2.210   0.184  0.0947  0.3286 -0.2606
  562SOL     OW 2245   0.653   2.300   2.353 -0.1374  0.4175  0.4541
  562SOL    HW1 2246   0.637   2.368   2.287  3.3900 -1.9879  1.1380
  562SOL    HW2 2247   0.729   2.342   2.379 -0.7056  0.0841 -1.3271
  562SOL     MW 2248   0.661   2.315   2.348  0.2531  0.0561  0.3093
  563SOL     OW 2249   1.261   0.407   0.579  0.4467  0.2731 -0.1979
  563SOL    HW1 2250   1.208   0.342   0.521  0.2479 -0.3974  2.6734
  563SOL    HW2 2251   1.245   0.383   0.667 -0.8531 -0.8416  0.0710
  563SOL     MW 2252   1.252   0.395   0.583  0.2489  0.0376  0.2165
  564SOL     OW 2253   0.995   2.680   2.334  0.1331  0.9747 -0.2537
  564SOL    HW1 2254   1.012   2.762   2.290 -0.1824 -3.4912  0.1095
  564SOL    HW2 2255   1.048   2.699   2.417 -1.1711  2.2559 -2.8129
  564SOL     MW 2256   1.005   2.694   2.340 -0.0806  0.5545 -0.5435
  565SOL     OW 2257   2.751   2.801   2.626 -0.1590 -0.0787 -0.2022
  565SOL    HW1 2258   2.710   2.871   2.577  0.2438  2.0383  2.3375
  565SOL    HW2 2259   2.720   2.729   2.573  1.3939  1.6792  3.7639
  565SOL     MW 2260   2.741   2.800   2.613  0.0991  0.4326  0.6562
  566SOL     OW 2261   2.180   1.950   2.373  0.0840 -0.2032  0.5330
  566SOL    HW1 2262   2.167   1.912   2.289 -0.4120 -1.7622 -0.4368
  566SOL    HW2 2263   2.258   2.001   2.370 -0.7262 -4.0708  0.5032
  566SOL     MW 2264   2.188   1.952   2.361 -0.0884 -0.9192  0.4011
  567SOL     OW 2265   1.174   3.064   0.006  0.1918 -0.3899  0.0450
  567SOL    HW1 2266   1.139   3.077   0.095  0.9244 -0.3257 -1.6593
  567SOL    HW2 2267   1.152   2.972  -0.016 -1.7540  0.9939 -2.5120
  567SOL     MW 2268   1.166   3.054   0.015  0.0317 -0.1988 -0.5172
  568SOL     OW 2269   1.658   2.030   2.852  0.0743  0.2336  0.1768
  568SOL    HW1 2270   1.702   2.098   2.893 -0.0787 -0.0971 -0.7114
  568SOL    HW2 2271   1.716   1.968   2.804  0.3261 -1.6212 -0.6011
  568SOL     MW 2272   1.671   2.031   2.851  0.0873 -0.0547 -0.0430
  569SOL     OW 2273   0.128   2.244   2.438  0.0254  0.1365 -0.3308
  569SOL    HW1 2274   0.056   2.296   2.404 -0.0787 -3.2482  1.7464
  569SOL    HW2 2275   0.157   2.289   2.518  1.5659 -2.0047  2.0544
  569SOL     MW 2276   0.123   2.257   2.444  0.2149 -0.5926  0.2580
  570SOL     OW 2277   1.487   0.305   0.452  0.1834 -0.3452  0.0380
  570SOL    HW1 2278   1.405   0.319   0.506 -0.5747  1.2834  0.3507
  570SOL    HW2 2279   1.559   0.344   0.506 -2.9186 -1.6927 -0.7067
  570SOL     MW 2280   1.485   0.312   0.466 -0.3259 -0.3081 -0.0190
  571SOL     OW 2281   1.354   2.375   2.139  0.0342 -0.0301  0.0988
  571SOL    HW1 2282   1.413   2.394   2.213  2.5934 -0.3430 -1.9033
  571SOL    HW2 2283   1.396   2.310   2.074 -1.2610 -3.2684  0.6924
  571SOL     MW 2284   1.367   2.369   2.140  0.2010 -0.4987 -0.0870
  572SOL     OW 2285   1.112   2.596   0.095  0.1183  0.4006  0.1328
  572SOL    HW1 2286   1.112   2.676   0.052 -1.2539 -5.6710  0.8450
  572SOL    HW2 2287   1.014   2.571   0.112  0.4316  1.4907 -0.2999
  572SOL     MW 2288   1.099   2.604   0.092 -0.0214 -0.2567  0.1696
  573SOL     OW 2289   1.196   2.291   0.276  0.1506  0.3633  0.2531
  573SOL    HW1 2290   1.280   2.285   0.228  1.7764  0.7945  0.6038
  573SOL    HW2 2291   1.190   2.380   0.315  2.9336  1.7416  2.0876
  573SOL     MW 2292   1.206   2.302   0.274  0.7323  0.6021  0.5414
  574SOL     OW 2293   1.147   2.557   0.377 -0.2525  0.6114  0.1590
  574SOL    HW1 2294   1.217   2.621   0.390  0.4348  1.4240  0.9890
  574SOL    HW2 2295   1.131   2.563   0.286  2.9129 -1.4874  1.5221
  574SOL     MW 2296   1.154   2.566   0.367  0.2558  0.4417  0.4484
  575SOL     OW 2297   3.072   2.205   1.615  0.0977  0.4952  0.3944
  575SOL    HW1 2298   3.101   2.115   1.591  0.4868  0.1131  1.5127
  575SOL    HW2 2299   3.158   2.244   1.636  1.6492  0.0089  0.4754
  575SOL     MW 2300   3.087   2.198   1.615  0.3538  0.3806  0.5526
  576SOL     OW 2301   2.917   1.880   1.934  0.6622 -0.1727 -0.3454
  576SOL    HW1 2302   2.929   1.973   1.916  0.4902  0.2047 -1.7658
  576SOL    HW2 2303   2.880   1.824   1.863 -3.1192 -1.7981 -1.4612
  576SOL     MW 2304   2.914   1.885   1.922  0.1406 -0.3374 -0.6801
  577SOL     OW 2305   2.130   0.147   0.014  0.6330  0.3618  0.2322
  577SOL    HW1 2306   2.068   0.142  -0.063 -0.0370  0.5209 -0.6571
  577SOL    HW2 2307   2.084   0.097   0.077 -0.5839 -0.0276 -0.5847
  577SOL     MW 2308   2.116   0.140   0.012  0.3841  0.3314  0.0071
  578SOL     OW 2309   1.975   2.124   2.333 -0.2114 -0.1614 -0.0888
  578SOL    HW1 2310   1.909   2.066   2.285  0.7091 -1.1041 -0.2915
  578SOL    HW2 2311   2.059   2.063   2.344  1.3187 -0.4616  0.6312
  578SOL     MW 2312   1.978   2.108   2.328  0.1119 -0.3254 -0.0205
  579SOL     OW 2313   0.853   2.514   2.486  0.2657 -0.2741 -0.0718
  579SOL    HW1 2314   0.911   2.448   2.509  0.3317  1.4878  2.6297
  579SOL    HW2 2315   0.903   2.565   2.420 -1.5587 -0.3231 -0.3376
  579SOL     MW 2316   0.867   2.512   2.480  0.0337 -0.0481  0.2496
  580SOL     OW 2317   0.985   2.848   3.103  0.6285 -0.7385 -0.0875
  580SOL    HW1 2318   0.952   2.931   3.073  1.5077  0.3475 -0.1198
  580SOL    HW2 2319   0.957   2.794   3.019 -0.3954  2.1274 -1.3613
  580SOL     MW 2320   0.977   2.852   3.088  0.6094 -0.2171 -0.2598
  581SOL     OW 2321   1.103   2.457   1.785 -0.2894  0.3708 -0.1084
  581SOL    HW1 2322   1.162   2.512   1.842 -0.9063  1.1715  1.8154
  581SOL    HW2 2323   1.156   2.409   1.723  0.4440  0.5400  0.2606
  581SOL     MW 2324   1.118   2.458   1.784 -0.2740  0.4988  0.1941
  582SOL     OW 2325   0.005   2.958   2.658  0.5243  0.5175  0.3128
  582SOL    HW1 2326  -0.045   3.005   2.718 -0.8787 -2.7010 -0.1769
  582SOL    HW2 2327   0.097   2.979   2.679 -0.5793 -2.3302  1.8485
  582SOL     MW 2328   0.010   2.967   2.669  0.1936 -0.2829  0.4508
  583SOL     OW 2329   1.922   2.399   2.657 -0.4821 -0.3674  0.0356
  583SOL    HW1 2330   1.992   2.416   2.593  0.7464 -0.7193  0.9209
  583SOL    HW2 2331   1.906   2.298   2.657 -0.0958 -1.4591  0.8054
  583SOL     MW 2332   1.929   2.388   2.649 -0.2690 -0.5579  0.2540
  584SOL     OW 2333   0.192   1.894   2.209  0.0035 -0.1328 -0.3421
  584SOL    HW1 2334   0.174   1.888   2.304 -0.3258 -1.6810  0.1729
  584SOL    HW2 2335   0.240   1.978   2.190 -1.2191 -2.3865 -3.9024
  584SOL     MW 2336   0.196   1.905   2.219 -0.2013 -0.6344 -0.7439
  585SOL     OW 2337   1.544   2.692   0.167 -0.8261 -0.4755 -0.0172
  585SOL    HW1 2338   1.513   2.688   0.074 -1.0654 -0.9450 -0.6662
  585SOL    HW2 2339   1.465   2.718   0.214  1.1584 -1.2271 -0.8969
  585SOL     MW 2340   1.530   2.695   0.161 -0.5958 -0.6366 -0.2189
  586SOL     OW 2341   1.344   2.787   2.565  0.1883 -0.4745  0.4837
  586SOL    HW1 2342   1.392   2.751   2.488  0.6495 -1.4994  4.3038
  586SOL    HW2 2343   1.338   2.883   2.565  1.4476  0.8476 -0.5775
  586SOL     MW 2344   1.350   2.795   2.555  0.4153 -0.4353  0.8477
  587SOL     OW 2345   1.309   1.452   2.151 -0.6047  0.3226 -0.2464
  587SOL    HW1 2346   1.269   1.380   2.198 -1.7204  0.7809 -2.9725
  587SOL    HW2 2347   1.268   1.459   2.065 -1.7037  2.7734  3.5073
  587SOL     MW 2348   1.298   1.443   2.146 -0.8969  0.7064 -0.1108
  588SOL     OW 2349   1.326   2.025   2.692 -0.3821  0.0249 -0.3043
  588SOL    HW1 2350   1.364   1.942   2.716  1.4582  1.1685  0.5955
  588SOL    HW2 2351   1.297   2.064   2.777  0.8335  1.0795  0.3682
  588SOL     MW 2352   1.328   2.019   2.706  0.0211  0.3149 -0.0969
  589SOL     OW 2353   1.344   2.031   0.022  0.4605  0.4567 -0.3803
  589SOL    HW1 2354   1.374   2.117   0.057 -0.4204 -1.8019  1.3579
  589SOL    HW2 2355   1.303   1.985   0.094 -2.1862  0.2710 -0.0421
  589SOL     MW 2356   1.342   2.036   0.036 -0.0049  0.1342 -0.1064
  590SOL     OW 2357   0.494   2.647   2.212 -0.3399 -0.4999  0.6916
  590SOL    HW1 2358   0.482   2.677   2.118 -3.3041  4.6142 -1.3516
  590SOL    HW2 2359   0.564   2.713   2.239 -0.2609 -0.8901  0.2031
  590SOL     MW 2360   0.502   2.660   2.203 -0.7206  0.1233  0.3576
  591SOL     OW 2361   2.199   0.669   0.150 -0.1061  0.2306  0.0631
  591SOL    HW1 2362   2.126   0.682   0.213  0.7252  1.1034 -0.3209
  591SOL    HW2 2363   2.201   0.718   0.068  0.6298  1.5950  0.5422
  591SOL     MW 2364   2.189   0.677   0.147  0.1007  0.5258  0.0757
  592SOL     OW 2365   1.649   2.899   0.767 -0.3556 -0.1854 -0.7271
  592SOL    HW1 2366   1.646   2.996   0.760 -0.5601  1.9141 -1.1978
  592SOL    HW2 2367   1.739   2.882   0.748 -1.1489 -0.8005  0.0092
  592SOL     MW 2368   1.661   2.909   0.763 -0.4873  0.0104 -0.6921
  593SOL     OW 2369   1.935   0.715   0.736  0.3727  0.1982 -0.4112
  593SOL    HW1 2370   1.849   0.712   0.687 -2.6306  3.1253 -0.7279
  593SOL    HW2 2371   1.984   0.636   0.720 -2.0060 -0.2755  1.2475
  593SOL     MW 2372   1.930   0.704   0.728 -0.3374  0.5219 -0.2341
  594SOL     OW 2373   2.819   1.023   1.361  0.1326  0.8636 -0.4902
  594SOL    HW1 2374   2.904   1.074   1.350  2.6984  1.6383 -0.8273
  594SOL    HW2 2375   2.789   1.016   1.267 -2.7416 -3.8321 -2.1183
  594SOL     MW 2376   2.826   1.029   1.347  0.0919  0.3463 -0.7495
  595SOL     OW 2377   0.540   0.943   0.854  0.3620  0.4295  0.3170
  595SOL    HW1 2378   0.506   1.005   0.786 -0.0334 -1.1335 -1.4341
  595SOL    HW2 2379   0.583   1.004   0.920  0.1434  0.5760 -2.9602
  595SOL     MW 2380   0.541   0.959   0.854  0.2810  0.2426 -0.3465
  596SOL     OW 2381   2.446   1.363   0.483  0.1712 -0.1088  0.1554
  596SOL    HW1 2382   2.410   1.410   0.409  0.9345 -1.4544  1.0070
  596SOL    HW2 2383   2.516   1.404   0.529 -0.3069 -0.8842  1.4467
  596SOL     MW 2384   2.451   1.375   0.479  0.2088 -0.3886  0.4382
  597SOL     OW 2385   2.229   0.639   1.568 -0.3421 -0.0230  0.2650
  597SOL    HW1 2386   2.245   0.584   1.644  0.6035  1.7817  2.3384
  597SOL    HW2 2387   2.167   0.582   1.514  1.2401  1.1022  5.3751
  597SOL     MW 2388   2.223   0.624   1.571 -0.0086  0.3635  1.2128
  598SOL     OW 2389   2.584   1.023   2.896 -0.2258  0.0267 -0.4472
  598SOL    HW1 2390   2.616   0.940   2.860 -0.3129 -0.8506  1.6380
  598SOL    HW2 2391   2.661   1.075   2.896 -0.2858 -1.5599  0.0786
  598SOL     MW 2392   2.598   1.019   2.891 -0.2452 -0.2984 -0.1027
  599SOL     OW 2393   3.051   0.486   2.258 -0.7501  0.3758 -0.2148
  599SOL    HW1 2394   3.064   0.551   2.320  0.3579 -0.2255 -2.3277
  599SOL    HW2 2395   3.050   0.538   2.168 -1.7929 -0.5237 -2.4732
  599SOL     MW 2396   3.053   0.501   2.255 -0.7415  0.1778 -0.7916
  600SOL     OW 2397   1.825   1.707   0.839  0.1928 -0.2094 -0.0234
  600SOL    HW1 2398   1.851   1.760   0.917 -0.0616  0.5071 -0.8827
  600SOL    HW2 2399   1.745   1.753   0.815  2.2416  0.3041 -0.9830
  600SOL     MW 2400   1.818   1.720   0.846  0.4296 -0.0471 -0.2634
  601SOL     OW 2401   2.540   0.766   0.871 -0.0719  0.1087  0.2003
  601SOL    HW1 2402   2.541   0.731   0.960 -0.7387 -1.1145 -3.4792
  601SOL    HW2 2403   2.491   0.695   0.832 -0.4067 -1.4418  0.8521
  601SOL     MW 2404   2.534   0.752   0.878 -0.2041 -0.2573 -0.1991
  602SOL     OW 2405   2.260   1.924   0.766 -0.1076  0.5453 -0.0432
  602SOL    HW1 2406   2.196   1.858   0.729 -1.3710 -1.3640  0.7372
  602SOL    HW2 2407   2.231   2.009   0.724 -1.4471 -2.6381  3.9155
  602SOL     MW 2408   2.248   1.926   0.756 -0.4511 -0.1266  0.5821
  603SOL     OW 2409   2.992   1.370   1.956  0.1165 -0.0250 -0.0996
  603SOL    HW1 2410   2.976   1.432   2.025  1.4343  0.5642  1.1713
  603SOL    HW2 2411   3.031   1.295   1.997  1.6430 -1.6978  1.7437
  603SOL     MW 2412   2.995   1.368   1.971  0.4918 -0.1680  0.3113
  604SOL     OW 2413   2.028   1.391   0.359  0.2868  0.1124  0.1061
  604SOL    HW1 2414   2.093   1.359   0.421  0.8637  0.0336 -1.6525
  604SOL    HW2 2415   1.956   1.416   0.417 -1.8892 -1.6221 -1.5123
  604SOL     MW 2416   2.027   1.390   0.375  0.0758 -0.1269 -0.3395
  605SOL     OW 2417   2.437   1.453   0.806 -0.0879  0.0579 -0.6807
  605SOL    HW1 2418   2.433   1.532   0.750 -1.3169 -0.2985 -1.1095
  605SOL    HW2 2419   2.488   1.386   0.765  0.7406 -0.8285  0.3984
  605SOL     MW 2420   2.443   1.455   0.793 -0.1407 -0.1061 -0.5949
  606SOL     OW 2421   2.689   1.759   1.788 -0.3676 -0.0919 -0.2651
  606SOL    HW1 2422   2.654   1.824   1.848  2.0418  0.6094 -0.7602
  606SOL    HW2 2423   2.670   1.672   1.815  0.4643  3.3202  0.4471
  606SOL     MW 2424   2.682   1.756   1.800  0.0600  0.4508 -0.2364
  607SOL     OW 2425   2.387   0.993   3.079  0.4388  0.2341  0.0983
  607SOL    HW1 2426   2.467   0.990   3.019  1.4405 -0.5194  0.9605
  607SOL    HW2 2427   2.429   1.013   3.165  1.3757 -4.2096 -2.5181
  607SOL     MW 2428   2.403   0.995   3.082  0.6946 -0.4516 -0.1332
  608SOL     OW 2429   1.896   0.256   0.484  0.9557  0.0362 -0.6888
  608SOL    HW1 2430   1.876   0.294   0.392 -0.1297  1.8952 -0.7311
  608SOL    HW2 2431   1.865   0.163   0.480 -1.3413  0.4778  2.0082
  608SOL     MW 2432   1.889   0.249   0.471  0.5094  0.3397 -0.3386
  609SOL     OW 2433   2.122   1.890   3.081 -0.4291 -0.1651  0.6050
  609SOL    HW1 2434   2.054   1.867   3.013  0.2633 -0.6219 -0.5329
  609SOL    HW2 2435   2.100   1.846   3.163 -2.5637  0.1308 -0.7348
  609SOL     MW 2436   2.110   1.881   3.083 -0.6194 -0.1864  0.2781
  610SOL     OW 2437   1.809   0.960   1.208  0.1584  0.6729  0.3700
  610SOL    HW1 2438   1.800   0.883   1.155 -0.0700 -2.3188  1.7766
  610SOL    HW2 2439   1.712   0.983   1.237 -3.1002  2.0760 -0.0388
  610SOL     MW 2440   1.795   0.953   1.205 -0.3017  0.4633  0.5017
  611SOL     OW 2441   2.472   1.636   0.595  0.2895  0.0261  0.2857
  611SOL    HW1 2442   2.463   1.602   0.504  1.1851 -1.3944 -1.3723
  611SOL    HW2 2443   2.465   1.727   0.580 -1.6601  0.5100 -2.0997
  611SOL     MW 2444   2.470   1.643   0.581  0.1505 -0.0974 -0.2478
  612SOL     OW 2445   2.876   2.882   0.388  0.4555 -0.4588  0.5351
  612SOL    HW1 2446   2.903   2.923   0.473 -0.0916 -4.2116 -0.0492
  612SOL    HW2 2447   2.957   2.867   0.334  0.6335 -1.1614  1.5115
  612SOL     MW 2448   2.890   2.885   0.392  0.4068 -1.0466  0.5869
  613SOL     OW 2449   1.420   1.112   0.980  0.1727  0.6287 -0.7227
  613SOL    HW1 2450   1.428   1.205   0.972 -0.2157 -1.0196 -2.3195
  613SOL    HW2 2451   1.455   1.083   1.070 -1.6761 -0.9202 -0.0435
  613SOL     MW 2452   1.426   1.120   0.991 -0.1224  0.2068 -0.8438
  614SOL     OW 2453   2.064   0.480   1.443  0.5102  0.1285  0.4179
  614SOL    HW1 2454   2.052   0.449   1.532  0.1878  0.0345 -2.7499
  614SOL    HW2 2455   1.972   0.507   1.418 -1.4085  0.3030  0.8301
  614SOL     MW 2456   2.050   0.479   1.452  0.2145  0.1392  0.0543
  615SOL     OW 2457   2.401   0.735   0.325 -0.1017 -0.1339 -0.0372
  615SOL    HW1 2458   2.460   0.662   0.320 -2.2336  1.5484 -0.9234
  615SOL    HW2 2459   2.341   0.710   0.257  1.1374 -2.3297 -0.5990
  615SOL     MW 2460   2.401   0.722   0.315 -0.2195 -0.2016 -0.2283
  616SOL     OW 2461   2.582   0.397   1.648  0.0818 -0.3214 -0.0213
  616SOL    HW1 2462   2.601   0.323   1.585 -0.5925 -1.5525  2.2779
  616SOL    HW2 2463   2.547   0.473   1.598 -0.9920 -0.1171  0.3830
  616SOL     MW 2464   2.580   0.397   1.633 -0.1488 -0.4569  0.3354
  617SOL     OW 2465   2.817   0.560   1.844 -0.3911  0.4163 -0.1494
  617SOL    HW1 2466   2.728   0.554   1.883 -2.4803 -1.5594 -0.0872
  617SOL    HW2 2467   2.831   0.464   1.814 -0.1012  1.8771  0.8534
  617SOL     MW 2468   2.807   0.547   1.846 -0.6285  0.3484 -0.0089
  618SOL     OW 2469   2.818   0.243   2.005 -0.3516 -0.4177  0.1340
  618SOL    HW1 2470   2.757   0.264   2.079 -1.2518 -1.1800 -1.5049
  618SOL    HW2 2471   2.901   0.215   2.050  1.8150 -0.7930 -2.4212
  618SOL     MW 2472   2.821   0.242   2.020 -0.1845 -0.5678 -0.4193
  619SOL     OW 2473   2.728   0.730   0.074  0.2166  0.4948 -0.5396
  619SOL    HW1 2474   2.739   0.822   0.066 -1.3615  1.0078  1.0076
  619SOL    HW2 2475   2.772   0.695   0.155  0.6690 -2.3890 -1.2627
  619SOL     MW 2476   2.735   0.737   0.084  0.0681  0.1820 -0.4309
  620SOL     OW 2477   2.227   1.015   0.918 -0.2104 -0.2758 -0.4608
  620SOL    HW1 2478   2.293   1.025   0.847  0.8133  0.1848 -0.0410
  620SOL    HW2 2479   2.140   1.023   0.878  0.2242  1.8683  0.6803
  620SOL     MW 2480   2.224   1.017   0.903 -0.0180  0.0678 -0.2549
  621SOL     OW 2481   1.515   2.205   1.976  0.1959 -0.1359 -0.3920
  621SOL    HW1 2482   1.499   2.121   2.023  0.2473  1.1456 -2.8398
  621SOL    HW2 2483   1.606   2.225   1.993 -0.8869 -0.3637 -2.6657
  621SOL     MW 2484   1.525   2.197   1.984  0.0598  0.0031 -1.0150
  622SOL     OW 2485   2.645   0.278   0.206  0.2858 -0.3257 -0.3005
  622SOL    HW1 2486   2.735   0.313   0.206 -2.2920 -0.3638  3.0483
  622SOL    HW2 2487   2.657   0.182   0.203  1.2578 -1.3466 -1.2270
  622SOL     MW 2488   2.658   0.270   0.206  0.0740 -0.4654  0.0191
  623SOL     OW 2489   2.339   2.772   0.814 -0.2749  0.0455 -0.2634
  623SOL    HW1 2490   2.401   2.840   0.806 -1.8632 -1.2215 -1.7442
  623SOL    HW2 2491   2.330   2.776   0.914 -1.1310 -0.2341 -1.7445
  623SOL     MW 2492   2.346   2.781   0.826 -0.5974 -0.1585 -0.6542
  624SOL     OW 2493   2.124   1.589   3.033  0.6559 -0.1370 -0.3965
  624SOL    HW1 2494   2.063   1.515   3.019  0.7677 -2.0853 -0.7161
  624SOL    HW2 2495   2.073   1.660   3.071 -1.1308  1.7709  1.2937
  624SOL     MW 2496   2.109   1.589   3.036  0.4349 -0.1424 -0.2156
  625SOL     OW 2497   2.156   1.911   1.024 -0.2487  1.5954  0.3404
  625SOL    HW1 2498   2.202   1.834   1.067 -1.4730 -0.0458 -1.7344
  625SOL    HW2 2499   2.175   1.908   0.931 -2.3675  0.6278  1.2518
  625SOL     MW 2500   2.165   1.900   1.018 -0.6898  1.2512  0.1869
  626SOL     OW 2501   0.141   1.850   2.458 -0.0626 -0.0283  0.3132
  626SOL    HW1 2502   0.098   1.755   2.466 -2.3065  2.7368 -1.2845
  626SOL    HW2 2503   0.067   1.915   2.471 -2.3895 -0.7499  0.6038
  626SOL     MW 2504   0.126   1.846   2.461 -0.6656  0.2413  0.1408
  627SOL     OW 2505   2.598   0.794   2.605 -0.1217 -0.5762  0.5331
  627SOL    HW1 2506   2.504   0.829   2.602 -0.3601  1.0136  1.4496
  627SOL    HW2 2507   2.632   0.785   2.516 -0.5052  0.4516  0.4141
  627SOL     MW 2508   2.590   0.797   2.593 -0.2037 -0.2309  0.6383
  628SOL     OW 2509   2.348   1.402   1.290 -0.3195 -0.8726 -0.1605
  628SOL    HW1 2510   2.369   1.322   1.243 -1.8913 -0.8990  1.7031
  628SOL    HW2 2511   2.410   1.470   1.264  0.7532 -1.6258 -0.0107
  628SOL     MW 2512   2.359   1.400   1.280 -0.3853 -0.9754  0.1052
  629SOL     OW 2513   1.840   0.623   1.315  0.4867 -0.2557  0.0804
  629SOL    HW1 2514   1.887   0.661   1.241  0.8695 -0.6091 -0.2628
  629SOL    HW2 2515   1.759   0.588   1.281  0.3168 -0.2344  2.1293
  629SOL     MW 2516   1.836   0.624   1.301  0.5148 -0.2995  0.3055
  630SOL     OW 2517   2.405   1.925   3.071  0.1166 -0.0508  0.3797
  630SOL    HW1 2518   2.410   2.007   3.022  1.5580  2.0537 -0.2655
  630SOL    HW2 2519   2.314   1.904   3.041  0.6436  2.0535 -1.6542
  630SOL     MW 2520   2.394   1.933   3.061  0.3763  0.5045  0.0262
  631SOL     OW 2521   2.100   1.853   1.486 -0.1842  0.3460 -0.3680
  631SOL    HW1 2522   2.100   1.763   1.526  0.1659  0.4534 -0.5018
  631SOL    HW2 2523   2.013   1.890   1.501  0.5674 -0.8141  0.0469
  631SOL     MW 2524   2.088   1.846   1.493 -0.0389  0.2071 -0.3309
  632SOL     OW 2525   0.384   1.874   1.472  0.4830  0.4006  0.0921
  632SOL    HW1 2526   0.329   1.953   1.495  2.4443  0.1890 -1.3180
  632SOL    HW2 2527   0.329   1.794   1.492 -0.9312 -2.8100  0.7785
  632SOL     MW 2528   0.370   1.874   1.478  0.5552 -0.0509 -0.0034
  633SOL     OW 2529   2.616   0.539   0.365  0.3124  0.8171  0.1792
  633SOL    HW1 2530   2.691   0.540   0.421 -1.6001  0.0863  0.4387
  633SOL    HW2 2531   2.634   0.465   0.308  1.7615 -0.6753  0.1757
  633SOL     MW 2532   2.628   0.529   0.365  0.2512  0.5238  0.2130
  634SOL     OW 2533   2.706   3.069   0.594  0.0032  0.4638  0.3695
  634SOL    HW1 2534   2.728   3.162   0.586 -2.0683 -0.8852 -0.0783
  634SOL    HW2 2535   2.684   3.047   0.505 -0.6535  0.5267  1.6173
  634SOL     MW 2536   2.706   3.078   0.581 -0.3567  0.2941  0.4751
  635SOL     OW 2537   2.659   0.031   1.858  0.5214  0.7744 -0.6794
  635SOL    HW1 2538   2.721  -0.008   1.794 -2.8142  2.1307  1.2352
  635SOL    HW2 2539   2.696   0.114   1.891  1.3696 -2.9271 -1.0020
  635SOL     MW 2540   2.672   0.037   1.854  0.1932  0.4650 -0.4694
  636SOL     OW 2541   2.699   1.656   0.759 -0.5350 -0.6932 -0.0627
  636SOL    HW1 2542   2.633   1.647   0.690  2.5804  0.8783 -1.3495
  636SOL    HW2 2543   2.698   1.745   0.796  2.0443 -0.6023 -0.4277
  636SOL     MW 2544   2.690   1.667   0.755  0.2164 -0.4739 -0.2806
  637SOL     OW 2545   2.917   1.444   0.721  0.3189 -0.3543  0.1169
  637SOL    HW1 2546   2.991   1.496   0.703  0.8436 -1.1995  2.1302
  637SOL    HW2 2547   2.843   1.499   0.696 -0.7557  0.4932 -1.3772
  637SOL     MW 2548   2.917   1.458   0.715  0.2464 -0.3540  0.1854
  638SOL     OW 2549   2.820   0.541   0.543  0.0836 -0.1112  0.3443
  638SOL    HW1 2550   2.902   0.573   0.502 -1.3179  0.5829 -2.0789
  638SOL    HW2 2551   2.821   0.550   0.637 -1.9769  1.2709  0.3127
  638SOL     MW 2552   2.831   0.546   0.550 -0.3731  0.1627  0.0204
  639SOL     OW 2553   1.833   3.085   0.544  0.1767 -0.1677 -0.1651
  639SOL    HW1 2554   1.736   3.097   0.521 -3.1673 -2.8244 -0.9576
  639SOL    HW2 2555   1.844   3.003   0.495  1.4006 -0.2358  1.0727
  639SOL     MW 2556   1.822   3.076   0.534 -0.1030 -0.5272 -0.1064
  640SOL     OW 2557   0.285   1.447   0.100  0.1796 -0.1458  0.5815
  640SOL    HW1 2558   0.316   1.459   0.013 -2.0459  3.1000 -0.1704
  640SOL    HW2 2559   0.329   1.364   0.127 -0.7605 -0.3174 -1.7084
  640SOL     MW 2560   0.295   1.438   0.092 -0.2380  0.2598  0.1801
  641SOL     OW 2561   2.299   0.369   0.408  0.3188  0.1736 -0.8937
  641SOL    HW1 2562   2.302   0.282   0.373 -0.0381 -1.7706 -0.1086
  641SOL    HW2 2563   2.368   0.357   0.470 -1.2920 -1.1604  0.2930
  641SOL     MW 2564   2.309   0.356   0.411  0.0592 -0.2589 -0.6335
  642SOL     OW 2565   0.104   3.086   0.472  0.2829 -0.0384  0.0475
  642SOL    HW1 2566   0.061   3.172   0.460 -1.6989 -1.1566  0.8937
  642SOL    HW2 2567   0.040   3.049   0.532  2.3878 -0.6131 -0.8941
  642SOL     MW 2568   0.090   3.092   0.478  0.2991 -0.2617  0.0349
  643SOL     OW 2569   2.143   0.353   1.676 -0.0898  0.5389  0.0621
  643SOL    HW1 2570   2.063   0.322   1.722 -1.0844 -0.1744 -1.0472
  643SOL    HW2 2571   2.170   0.282   1.611  0.0128  0.3005 -1.2726
  643SOL     MW 2572   2.136   0.340   1.674 -0.2075  0.4133 -0.2604
  644SOL     OW 2573   2.697   1.913   0.953  0.0413  0.2458  0.1362
  644SOL    HW1 2574   2.663   1.867   1.029  0.1865  0.3956 -2.8307
  644SOL    HW2 2575   2.632   1.986   0.927 -1.8423 -0.9284  0.1442
  644SOL     MW 2576   2.684   1.916   0.960 -0.1881  0.1107 -0.2542
  645SOL     OW 2577   2.811   0.986   0.778  0.2708  0.8893 -0.3689
  645SOL    HW1 2578   2.881   0.925   0.763  0.0286  1.2484 -1.4106
  645SOL    HW2 2579   2.784   0.970   0.865  1.9915 -1.3502 -0.1947
  645SOL     MW 2580   2.816   0.976   0.788  0.4658  0.6412 -0.4834
  646SOL     OW 2581   0.126   2.277   0.887 -0.0378 -0.0514 -0.5722
  646SOL    HW1 2582   0.116   2.172   0.897 -1.5478 -2.0777  0.0023
  646SOL    HW2 2583   0.088   2.300   0.799 -0.7892  0.5868 -1.1665
  646SOL     MW 2584   0.120   2.266   0.876 -0.3362 -0.2346 -0.5748
  647SOL     OW 2585   2.795   0.506   3.012  0.1854 -0.2671  0.4530
  647SOL    HW1 2586   2.707   0.488   2.987 -0.2262 -1.3474 -0.6172
  647SOL    HW2 2587   2.773   0.576   3.072 -1.1784 -0.8377  1.3878
  647SOL     MW 2588   2.780   0.513   3.017 -0.0488 -0.4849  0.4351
  648SOL     OW 2589   2.124   0.632   1.121 -0.5179 -0.0183 -0.2502
  648SOL    HW1 2590   2.195   0.591   1.173  1.4025  0.4767  0.6008
  648SOL    HW2 2591   2.160   0.716   1.096  0.4835  2.0206  3.6062
  648SOL     MW 2592   2.138   0.638   1.124 -0.1324  0.3160  0.3709
  649SOL     OW 2593   2.410   2.685   1.312  0.3157 -0.3207 -0.0076
  649SOL    HW1 2594   2.496   2.725   1.321  1.1420  0.1645 -0.1146
  649SOL    HW2 2595   2.440   2.599   1.275  1.9513  3.0803 -2.3215
  649SOL     MW 2596   2.425   2.679   1.308  0.6405  0.1920 -0.3271
  650SOL     OW 2597   2.723   0.236   0.496 -0.4814 -0.0667  0.3601
  650SOL    HW1 2598   2.777   0.315   0.492  0.4464  0.9710 -0.7057
  650SOL    HW2 2599   2.691   0.226   0.405  1.0528  0.1948 -0.5390
  650SOL     MW 2600   2.726   0.245   0.483 -0.1566  0.1048  0.1008
  651SOL     OW 2601   0.011   0.447   1.005 -0.2811  0.3878  0.0584
  651SOL    HW1 2602   0.055   0.513   0.946 -2.3121 -0.0131 -1.6573
  651SOL    HW2 2603  -0.070   0.493   1.040 -0.2926  2.2312  0.1936
  651SOL     MW 2604   0.006   0.462   1.002 -0.5506  0.5781 -0.1501
  652SOL     OW 2605   2.339   1.436   2.928 -1.0173 -0.0869 -0.5551
  652SOL    HW1 2606   2.381   1.475   2.850 -1.4921 -1.4064 -2.2528
  652SOL    HW2 2607   2.280   1.502   2.963  0.7140 -0.1850 -1.6037
  652SOL     MW 2608   2.337   1.449   2.922 -0.8515 -0.2739 -0.9175
  653SOL     OW 2609   1.853   0.375   0.223 -0.1835  0.0892 -0.1516
  653SOL    HW1 2610   1.836   0.288   0.188  0.8830  1.4472  1.4514
  653SOL    HW2 2611   1.913   0.409   0.155  0.3266  1.0836 -0.6467
  653SOL     MW 2612   1.858   0.368   0.210  0.0245  0.3996 -0.0054
  654SOL     OW 2613   2.437   1.007   0.725  0.3832  0.3553 -0.2460
  654SOL    HW1 2614   2.372   0.997   0.657 -0.5103 -1.6021  4.6985
  654SOL    HW2 2615   2.476   0.916   0.734  1.3419  0.8208 -0.1841
  654SOL     MW 2616   2.433   0.994   0.718  0.3918  0.1585  0.4146
  655SOL     OW 2617   2.888   0.949   0.293  0.3392  0.4048  0.5995
  655SOL    HW1 2618   2.859   0.991   0.373  1.9708  1.3489 -0.4709
  655SOL    HW2 2619   2.962   0.893   0.317 -0.3865 -0.5684 -0.5293
  655SOL     MW 2620   2.894   0.947   0.307  0.4587  0.4009  0.3094
  656SOL     OW 2621   1.771   2.655   1.427 -0.6323  0.2242  0.3102
  656SOL    HW1 2622   1.853   2.704   1.432 -0.4168  0.9065  0.9123
  656SOL    HW2 2623   1.800   2.563   1.419  0.0947  0.8564 -1.4446
  656SOL     MW 2624   1.786   2.650   1.427 -0.5079  0.3976  0.1581
  657SOL     OW 2625   0.090   1.778   1.107  0.0661  0.0436 -0.0203
  657SOL    HW1 2626   0.170   1.822   1.122 -0.5589 -0.3457 -0.1682
  657SOL    HW2 2627   0.101   1.703   1.164  2.4180  1.5913 -0.0608
  657SOL     MW 2628   0.102   1.774   1.117  0.2939  0.1964 -0.0451
  658SOL     OW 2629   2.660   1.346   0.213  0.5454  0.2814  0.0729
  658SOL    HW1 2630   2.627   1.282   0.275 -2.5180  2.7920 -0.7753
  658SOL    HW2 2631   2.693   1.412   0.272 -1.4681 -2.2372  0.1086
  658SOL     MW 2632   2.660   1.346   0.229 -0.1244  0.2804 -0.0343
  659SOL     OW 2633   2.096   1.395   1.038 -0.0287 -0.4063  0.2245
  659SOL    HW1 2634   2.165   1.335   1.078 -0.6691  0.7845 -0.2395
  659SOL    HW2 2635   2.078   1.460   1.105 -0.7744  1.0984  0.6392
  659SOL     MW 2636   2.103   1.396   1.052 -0.2116 -0.0506  0.2180
  660SOL     OW 2637   2.078   1.603   1.599  0.1737  0.8265  0.2869
  660SOL    HW1 2638   2.092   1.593   1.695  1.7551 -1.7597 -0.1167
  660SOL    HW2 2639   2.011   1.528   1.598 -1.5106 -1.0317  1.4676
  660SOL     MW 2640   2.071   1.592   1.611  0.1601  0.2401  0.3894
  661SOL     OW 2641   2.412   0.994   0.258 -0.4798  0.2428  0.3235
  661SOL    HW1 2642   2.477   1.048   0.309 -2.4380 -0.6519 -0.0522
  661SOL    HW2 2643   2.423   0.901   0.280 -0.5983  3.5104  0.3271
  661SOL     MW 2644   2.422   0.989   0.268 -0.7538  0.5559  0.2744
  662SOL     OW 2645   2.526   2.994   0.798 -0.7035  0.6711 -0.1767
  662SOL    HW1 2646   2.490   3.070   0.841  0.5540 -0.5622 -1.5413
  662SOL    HW2 2647   2.574   3.023   0.723  2.6839 -3.2154 -0.4348
  662SOL     MW 2648   2.527   3.008   0.794 -0.0906 -0.0044 -0.3908
  663SOL     OW 2649   2.711   1.544   0.396  0.4396 -0.2956 -0.3285
  663SOL    HW1 2650   2.705   1.626   0.349  0.4172 -0.5791  1.2712
  663SOL    HW2 2651   2.783   1.562   0.456 -5.4738 -0.5085  0.5086
  663SOL     MW 2652   2.720   1.557   0.398 -0.3435 -0.3611 -0.0070
  664SOL     OW 2653   2.533   1.462   1.539  0.1393  0.7257  0.5410
  664SOL    HW1 2654   2.514   1.551   1.518  0.2611  0.9816  2.2653
  664SOL    HW2 2655   2.452   1.408   1.531 -0.7735  0.7906  0.8443
  664SOL     MW 2656   2.520   1.466   1.535  0.0349  0.7680  0.8085
  665SOL     OW 2657   2.867   0.774   2.126  0.3194 -0.5683  0.5610
  665SOL    HW1 2658   2.806   0.795   2.052  0.1257 -0.7322  0.5700
  665SOL    HW2 2659   2.943   0.754   2.073 -0.0647 -0.1930  0.6207
  665SOL     MW 2660   2.869   0.774   2.109  0.2432 -0.5404  0.5700
  666SOL     OW 2661   2.810   2.980   1.703 -0.5836 -0.1852 -0.2549
  666SOL    HW1 2662   2.844   2.981   1.613 -1.7802  0.0697 -0.2868
  666SOL    HW2 2663   2.757   2.898   1.720  1.1142 -2.7932  1.0816
  666SOL     MW 2664   2.807   2.969   1.694 -0.5174 -0.4956 -0.0828
  667SOL     OW 2665   2.020   2.709   1.735 -0.3145 -0.1382  0.0359
  667SOL    HW1 2666   2.036   2.696   1.827  0.0310 -0.1213  0.8935
  667SOL    HW2 2667   2.092   2.767   1.698 -0.5427 -3.1253 -0.9685
  667SOL     MW 2668   2.032   2.715   1.742 -0.2990 -0.5301  0.0165
  668SOL     OW 2669   2.792   0.594   0.821 -0.0279  0.6713  0.0326
  668SOL    HW1 2670   2.830   0.600   0.908 -1.6694  0.7990  1.6630
  668SOL    HW2 2671   2.733   0.666   0.811  0.0781 -1.7872 -2.1719
  668SOL     MW 2672   2.789   0.604   0.831 -0.2305  0.3638 -0.0431
  669SOL     OW 2673   0.177   1.003   0.673  0.6463  0.3775 -0.0672
  669SOL    HW1 2674   0.147   1.033   0.759 -0.1117  2.0684  0.7797
  669SOL    HW2 2675   0.261   1.054   0.663 -1.2238 -1.8092 -1.4017
  669SOL     MW 2676   0.184   1.014   0.683  0.2996  0.3121 -0.1316
  670SOL     OW 2677   2.912   0.340   0.268 -0.2892 -0.2423 -0.5179
  670SOL    HW1 2678   2.912   0.270   0.206 -1.1583  1.6507  0.9766
  670SOL    HW2 2679   2.926   0.422   0.221  2.4952  1.4339 -1.5614
  670SOL     MW 2680   2.914   0.342   0.253 -0.0365  0.2286 -0.4584
  671SOL     OW 2681   2.053   3.036   1.460  0.0240 -0.5169 -0.3382
  671SOL    HW1 2682   1.986   3.007   1.395 -0.4419  0.5721  1.1596
  671SOL    HW2 2683   2.003   3.056   1.536  0.5267 -0.8442 -0.2025
  671SOL     MW 2684   2.037   3.035   1.461  0.0288 -0.4164 -0.1227
  672SOL     OW 2685   1.826   1.777   1.300 -0.9126  0.0470  0.0255
  672SOL    HW1 2686   1.802   1.863   1.355 -0.0572  0.6278 -0.1923
  672SOL    HW2 2687   1.843   1.810   1.213  0.6698 -1.0548  1.0790
  672SOL     MW 2688   1.825   1.793   1.296 -0.5910 -0.0217  0.1358
  673SOL     OW 2689   2.824   1.089   0.530  0.2076 -0.4080 -0.0856
  673SOL    HW1 2690   2.794   1.040   0.603  0.8513 -1.6421  1.0846
  673SOL    HW2 2691   2.878   1.152   0.583  0.3373  2.2345  0.1119
  673SOL     MW 2692   2.827   1.091   0.547  0.3097 -0.2222  0.0948
  674SOL     OW 2693   2.456   3.060   1.205 -0.1025 -0.5006  0.0323
  674SOL    HW1 2694   2.395   3.072   1.133  2.1351  0.1059  0.2590
  674SOL    HW2 2695   2.510   2.987   1.172  0.2833 -0.5291 -1.6229
  674SOL     MW 2696   2.455   3.052   1.191  0.2436 -0.4244 -0.1561
  675SOL     OW 2697   2.978   0.860   1.089  0.0505 -0.5295 -0.5055
  675SOL    HW1 2698   3.021   0.860   1.177 -1.5111 -1.2302  0.4174
  675SOL    HW2 2699   3.043   0.894   1.028 -0.7728 -1.3830 -4.1208
  675SOL     MW 2700   2.992   0.865   1.093 -0.2641 -0.7345 -0.8607
  676SOL     OW 2701   2.891   1.439   1.731  0.0710  0.1115  0.6164
  676SOL    HW1 2702   2.879   1.352   1.689 -0.5058 -2.8185  3.7298
  676SOL    HW2 2703   2.926   1.418   1.821 -0.5916 -1.9271 -1.9147
  676SOL     MW 2704   2.894   1.425   1.737 -0.0925 -0.5440  0.6932
  677SOL     OW 2705   2.469   0.711   1.888 -0.2792  0.5689 -0.4604
  677SOL    HW1 2706   2.429   0.629   1.854  5.2246 -1.3594  1.7422
  677SOL    HW2 2707   2.401   0.774   1.899  0.0890  0.9571 -3.2929
  677SOL     MW 2708   2.455   0.708   1.885  0.4956  0.3657 -0.5435
  678SOL     OW 2709   2.369   1.575   0.328 -0.2997  0.0541  0.1104
  678SOL    HW1 2710   2.278   1.595   0.348  0.0071  1.3639 -0.3545
  678SOL    HW2 2711   2.376   1.526   0.241 -0.4236 -0.2009 -1.0974
  678SOL     MW 2712   2.358   1.571   0.319 -0.2755  0.1933 -0.1103
  679SOL     OW 2713   2.284   0.428   1.286 -0.5780  0.3436 -0.3860
  679SOL    HW1 2714   2.263   0.348   1.241  2.6629  0.5798 -1.3785
  679SOL    HW2 2715   2.210   0.432   1.348  0.8588  1.2652  0.3391
  679SOL     MW 2716   2.271   0.418   1.288  0.0392  0.4964 -0.4212
  680SOL     OW 2717   2.463   0.152   1.476 -0.4688  0.5176 -0.0913
  680SOL    HW1 2718   2.379   0.166   1.435  2.8492  1.1116  1.2904
  680SOL    HW2 2719   2.482   0.060   1.463  0.3388 -3.4353  1.0095
  680SOL     MW 2720   2.455   0.142   1.469  0.0755  0.0745  0.2362
  681SOL     OW 2721   0.227   0.583   1.449 -0.0276 -0.3717  0.2396
  681SOL    HW1 2722   0.198   0.504   1.497 -1.9533 -3.8432 -2.3097
  681SOL    HW2 2723   0.236   0.557   1.360 -0.4668 -0.7240 -1.4564
  681SOL     MW 2724   0.225   0.569   1.443 -0.3397 -0.8762 -0.3205
  682SOL     OW 2725   3.066   2.864   1.523 -0.4399  0.1626  0.0595
  682SOL    HW1 2726   3.131   2.916   1.561 -3.3763 -2.2593  1.3674
  682SOL    HW2 2727   3.029   2.842   1.612 -0.5924 -1.1311 -0.3714
  682SOL     MW 2728   3.070   2.868   1.540 -0.8475 -0.3277  0.1753
  683SOL     OW 2729   2.105   0.771   3.022  0.5544 -0.2725  0.1673
  683SOL    HW1 2730   2.028   0.713   3.027  0.1614  1.3164 -0.2507
  683SOL    HW2 2731   2.059   0.844   3.063  0.5222  1.1833  0.8558
  683SOL     MW 2732   2.089   0.773   3.028  0.4983  0.1292  0.2030
  684SOL     OW 2733   2.060   1.751   0.661  0.0034 -0.0567  0.4916
  684SOL    HW1 2734   2.070   1.699   0.577  1.5087 -0.4493  0.5257
  684SOL    HW2 2735   1.980   1.726   0.707  0.4690  3.4548  1.6795
  684SOL     MW 2736   2.051   1.741   0.656  0.2635  0.3548  0.6529
  685SOL     OW 2737   2.645   1.751   1.162 -0.3427  0.0446 -0.3681
  685SOL    HW1 2738   2.675   1.699   1.239 -0.1816 -0.7554  0.4844
  685SOL    HW2 2739   2.580   1.701   1.118 -4.5780 -0.2425  1.7118
  685SOL     MW 2740   2.640   1.738   1.167 -0.8802 -0.0988  0.0188
  686SOL     OW 2741   2.816   0.637   1.570 -0.2880 -0.2290 -0.8957
  686SOL    HW1 2742   2.796   0.617   1.658  0.6330  1.4400 -2.2919
  686SOL    HW2 2743   2.906   0.679   1.576 -0.1341  1.9277 -1.1717
  686SOL     MW 2744   2.825   0.640   1.583 -0.1462  0.2757 -1.1163
  687SOL     OW 2745   2.135   0.185   1.099  0.6363  0.3763 -0.5098
  687SOL    HW1 2746   2.172   0.129   1.036  1.1656  0.4234  0.7485
  687SOL    HW2 2747   2.125   0.261   1.040 -0.2136  1.8042 -0.9296
  687SOL     MW 2748   2.138   0.187   1.083  0.5940  0.5709 -0.3992
  688SOL     OW 2749   2.463   0.590   1.460  0.3332  0.5870  0.8492
  688SOL    HW1 2750   2.421   0.537   1.389 -1.9240 -1.3574  1.6072
  688SOL    HW2 2751   2.388   0.626   1.509  0.9043  1.3963  0.4427
  688SOL     MW 2752   2.448   0.588   1.457  0.1107  0.4372  0.8956
  689SOL     OW 2753   2.500   0.739   2.997 -0.0615  0.0662  0.1063
  689SOL    HW1 2754   2.419   0.785   3.027 -0.8430  0.0344  2.3546
  689SOL    HW2 2755   2.564   0.726   3.068 -0.9408 -0.0510  2.7108
  689SOL     MW 2756   2.498   0.743   3.010 -0.2807  0.0465  0.7466
  690SOL     OW 2757   2.020   0.959   1.841 -0.4437  0.5526 -0.1032
  690SOL    HW1 2758   2.019   0.863   1.850  0.8842  1.8529  1.3947
  690SOL    HW2 2759   2.057   0.977   1.758 -1.3680  2.2238 -0.7125
  690SOL     MW 2760   2.025   0.949   1.831 -0.3905  0.9447  0.0140
  691SOL     OW 2761   2.429   0.307   0.877 -0.3329  0.5418 -0.5093
  691SOL    HW1 2762   2.514   0.302   0.918  0.1987  1.6697  0.2480
  691SOL    HW2 2763   2.432   0.397   0.852  0.2700 -0.8303  0.6611
  691SOL     MW 2764   2.440   0.318   0.879 -0.1832  0.5095 -0.2550
  692SOL     OW 2765   2.764   1.630   1.397 -0.3554  0.0962  0.1274
  692SOL    HW1 2766   2.725   1.622   1.482 -2.3569  0.5044 -2.3323
  692SOL    HW2 2767   2.847   1.669   1.426  0.1740 -0.6540 -2.2199
  692SOL     MW 2768   2.770   1.634   1.412 -0.5496  0.0510 -0.5069
  693SOL     OW 2769   2.259   0.465   0.005 -0.7315 -0.3910 -0.1998
  693SOL    HW1 2770   2.232   0.383   0.042 -0.5696  4.3804 -0.0629
  693SOL    HW2 2771   2.226   0.536   0.058 -2.0643  0.0193 -2.4553
  693SOL     MW 2772   2.251   0.463   0.017 -0.8860  0.2927 -0.4793
  694SOL     OW 2773   1.939   1.196   1.192  0.4554  0.2509 -0.1518
  694SOL    HW1 2774   2.030   1.179   1.212  2.0458 -2.6831 -1.7150
  694SOL    HW2 2775   1.892   1.105   1.195  0.7671 -0.5806 -1.2425
  694SOL     MW 2776   1.945   1.182   1.195  0.7064 -0.2459 -0.5019
  695SOL     OW 2777   2.934   1.424   1.282  0.0784  0.4947  0.3471
  695SOL    HW1 2778   2.912   1.417   1.186  2.9467 -0.4039 -0.0921
  695SOL    HW2 2779   2.889   1.507   1.312  1.3041  0.3850 -2.1707
  695SOL     MW 2780   2.925   1.434   1.273  0.6186  0.3617 -0.0430
  696SOL     OW 2781   2.046   1.385   0.742 -0.2224 -0.5308  0.3791
  696SOL    HW1 2782   2.100   1.434   0.801  0.9997 -3.1755 -0.8976
  696SOL    HW2 2783   2.012   1.314   0.796  2.3342 -1.6999  0.6504
  696SOL     MW 2784   2.049   1.382   0.757  0.2762 -1.0340  0.2465
  697SOL     OW 2785   2.907   1.043   2.228  0.2996  0.4425  0.1683
  697SOL    HW1 2786   2.831   1.097   2.218  0.9920 -1.6207 -0.4180
  697SOL    HW2 2787   2.883   0.947   2.219  1.9990 -3.0881 -0.7815
  697SOL     MW 2788   2.894   1.037   2.226  0.6152 -0.2955 -0.0344
  698SOL     OW 2789   2.528   0.396   3.071 -0.6437 -0.1297  0.0971
  698SOL    HW1 2790   2.436   0.436   3.080  1.3196  1.2746  2.0249
  698SOL    HW2 2791   2.548   0.353   3.153 -2.8933 -0.2636 -3.5468
  698SOL     MW 2792   2.519   0.396   3.083 -0.6815  0.0379 -0.1293
  699SOL     OW 2793   1.872   1.573   2.006 -0.0242 -0.2458 -0.6236
  699SOL    HW1 2794   1.846   1.495   2.060  0.0117 -0.7688  0.7341
  699SOL    HW2 2795   1.958   1.556   1.968  0.3853 -0.9242  1.2932
  699SOL     MW 2796   1.880   1.560   2.008  0.0346 -0.4043 -0.1916
  700SOL     OW 2797   2.697   0.889   1.609  0.3570  0.4444 -0.3404
  700SOL    HW1 2798   2.736   0.945   1.544 -0.0650 -1.6205  0.2790
  700SOL    HW2 2799   2.733   0.801   1.596  0.7524 -1.0558 -0.8750
  700SOL     MW 2800   2.707   0.885   1.598  0.3535 -0.0260 -0.3292
  701SOL     OW 2801   1.657   1.074   2.571 -0.7189 -0.2707  0.9082
  701SOL    HW1 2802   1.735   1.031   2.602  0.2330  3.6489 -1.0729
  701SOL    HW2 2803   1.613   1.125   2.644  0.3941  1.1956 -1.9912
  701SOL     MW 2804   1.662   1.075   2.585 -0.4465  0.4399  0.2643
  702SOL     OW 2805   2.062   0.479   0.682  0.5001 -0.0033 -0.0963
  702SOL    HW1 2806   2.086   0.386   0.673 -2.0513  3.5456  1.4177
  702SOL    HW2 2807   2.135   0.529   0.637  1.2312 -0.0184  1.6085
  702SOL     MW 2808   2.075   0.473   0.675  0.2600  0.4630  0.3284
  703SOL     OW 2809   2.701   1.246   0.996  0.0365  0.4919  0.0223
  703SOL    HW1 2810   2.666   1.217   0.912 -1.6349 -2.0836  0.5552
  703SOL    HW2 2811   2.715   1.155   1.037  0.5909 -0.5389  0.1605
  703SOL     MW 2812   2.698   1.230   0.991 -0.1109  0.0161  0.1109
  704SOL     OW 2813   3.057   1.288   0.160 -0.1572  0.2608  0.0185
  704SOL    HW1 2814   2.965   1.274   0.129  0.6622 -1.3502 -0.1896
  704SOL    HW2 2815   3.058   1.258   0.251 -1.2150  3.1457  1.7604
  704SOL     MW 2816   3.045   1.282   0.168 -0.1886  0.4289  0.2209
  705SOL     OW 2817   2.037   1.611   1.301  0.4950  0.3993 -0.2087
  705SOL    HW1 2818   1.967   1.670   1.323  0.4231 -2.4732  2.3669
  705SOL    HW2 2819   2.073   1.589   1.388 -2.0926 -0.6644  0.8595
  705SOL     MW 2820   2.033   1.616   1.315  0.1441 -0.1200  0.2721
  706SOL     OW 2821   3.020   1.188   0.687  0.8956 -0.4397 -0.2190
  706SOL    HW1 2822   3.080   1.196   0.611  2.0995 -2.1981 -2.7013
  706SOL    HW2 2823   2.991   1.277   0.715  3.6669  0.4095  1.3054
  706SOL     MW 2824   3.024   1.201   0.681  1.4201 -0.5597 -0.3454
  707SOL     OW 2825   2.334   0.058   0.949 -0.5179 -0.7208 -0.3646
  707SOL    HW1 2826   2.338   0.153   0.924  1.8935  2.7790 -0.3773
  707SOL    HW2 2827   2.291   0.006   0.884  0.2602  1.2592  0.2572
  707SOL     MW 2828   2.329   0.064   0.937 -0.0971  0.0022 -0.2842
  708SOL     OW 2829   2.397   1.421   0.111 -0.2876  0.1523 -0.6828
  708SOL    HW1 2830   2.491   1.396   0.117 -0.4267  0.3933  0.8496
  708SOL    HW2 2831   2.383   1.424   0.015 -0.4095  0.9689  0.7467
  708SOL     MW 2832   2.408   1.418   0.099 -0.3220  0.2919 -0.2920
  709SOL     OW 2833   1.693   1.614   0.217 -0.1078 -0.6353  0.5057
  709SOL    HW1 2834   1.683   1.617   0.121 -0.4791 -0.1233 -0.1743
  709SOL    HW2 2835   1.599   1.619   0.251 -1.7928  2.3760 -0.3950
  709SOL     MW 2836   1.680   1.615   0.209 -0.3791 -0.1704  0.2971
  710SOL     OW 2837   2.245   1.165   1.164  0.5123  0.2382 -0.6976
  710SOL    HW1 2838   2.273   1.118   1.085  1.8012  0.1599 -0.8675
  710SOL    HW2 2839   2.256   1.087   1.224 -1.1704 -0.4676  1.5754
  710SOL     MW 2840   2.250   1.148   1.161  0.4603  0.1347 -0.4201
  711SOL     OW 2841   2.377   0.091   1.790  0.2675 -0.4558 -0.2659
  711SOL    HW1 2842   2.456   0.036   1.806  0.5991 -0.6878  1.2987
  711SOL    HW2 2843   2.399   0.122   1.702 -0.9554  2.4327 -1.5331
  711SOL     MW 2844   2.390   0.088   1.781  0.1499 -0.1053 -0.2267
  712SOL     OW 2845   1.892   0.619   3.081 -0.1615 -0.0957  0.2008
  712SOL    HW1 2846   1.831   0.662   3.018  1.8144 -1.2102  2.0846
  712SOL    HW2 2847   1.869   0.668   3.166  0.6373  2.1978 -0.9708
  712SOL     MW 2848   1.881   0.631   3.084  0.2046  0.0599  0.2947
  713SOL     OW 2849   2.575   0.683   1.124  0.3164 -0.0049 -0.1328
  713SOL    HW1 2850   2.587   0.592   1.157  0.6678 -0.9342  1.1284
  713SOL    HW2 2851   2.584   0.745   1.198  2.0923  0.9793 -1.5844
  713SOL     MW 2852   2.577   0.679   1.138  0.5971  0.0023 -0.1579
  714SOL     OW 2853   2.236   0.203   2.001 -0.3737  0.2067 -0.2599
  714SOL    HW1 2854   2.286   0.162   2.069 -0.0034  0.7053 -1.6461
  714SOL    HW2 2855   2.290   0.175   1.929 -1.5120  0.5379 -0.3507
  714SOL     MW 2856   2.250   0.194   2.001 -0.4750  0.3162 -0.4548
  715SOL     OW 2857   1.827   1.992   1.694  0.4789 -0.0601 -0.3621
  715SOL    HW1 2858   1.921   2.014   1.710 -1.6136 -0.6380  0.3907
  715SOL    HW2 2859   1.798   1.919   1.755 -1.2634 -0.2673  1.1561
  715SOL     MW 2860   1.836   1.986   1.705 -0.0271 -0.1637 -0.0625
  716SOL     OW 2861   2.452   0.535   0.730 -0.0183 -0.6713  0.4029
  716SOL    HW1 2862   2.509   0.480   0.681 -0.0905  3.0381  1.7193
  716SOL    HW2 2863   2.383   0.564   0.674 -2.2813 -2.3924 -0.9015
  716SOL     MW 2864   2.451   0.531   0.716 -0.3264 -0.4090  0.4045
  717SOL     OW 2865   2.787   1.662   2.830 -0.3753  1.0663  0.5013
  717SOL    HW1 2866   2.860   1.618   2.878  1.3412 -1.8457  3.4841
  717SOL    HW2 2867   2.727   1.684   2.900  1.1013 -2.0870 -1.4995
  717SOL     MW 2868   2.789   1.659   2.846  0.0460  0.2661  0.6309
  718SOL     OW 2869   2.638   1.322   1.300  0.0448 -0.7094  0.1149
  718SOL    HW1 2870   2.586   1.379   1.364  0.2260  0.9849  1.1653
  718SOL    HW2 2871   2.730   1.337   1.316 -1.6289  0.2805 -1.5356
  718SOL     MW 2872   2.643   1.331   1.311 -0.1521 -0.3552  0.0357
  719SOL     OW 2873   2.196   1.268   0.532 -0.2576 -0.5117 -0.4864
  719SOL    HW1 2874   2.293   1.288   0.524 -0.3606 -3.2687 -1.1706
  719SOL    HW2 2875   2.154   1.313   0.613 -1.0979  0.5561 -0.0567
  719SOL     MW 2876   2.203   1.277   0.542 -0.3820 -0.7346 -0.5200
  720SOL     OW 2877   2.821   1.242   0.023  0.6287 -0.1246  0.2752
  720SOL    HW1 2878   2.822   1.144   0.043  1.9312 -1.0419  2.0058
  720SOL    HW2 2879   2.750   1.270   0.079 -0.4650 -2.5303  0.4777
  720SOL     MW 2880   2.811   1.233   0.033  0.6563 -0.5630  0.5303
  721SOL     OW 2881   2.573   0.825   1.347  0.2326 -0.5456  0.4575
  721SOL    HW1 2882   2.537   0.755   1.408 -0.5806 -1.8886  1.8298
  721SOL    HW2 2883   2.641   0.865   1.393  1.7617  0.4237 -1.3250
  721SOL     MW 2884   2.577   0.821   1.361  0.3271 -0.5949  0.4034
  722SOL     OW 2885   2.573   1.142   0.403 -0.1792 -0.2027  0.2183
  722SOL    HW1 2886   2.530   1.213   0.453  1.7747 -0.6765 -1.2362
  722SOL    HW2 2887   2.659   1.132   0.446  0.5057  0.0806 -0.2553
  722SOL     MW 2888   2.579   1.150   0.415  0.1690 -0.2278 -0.0361
  723SOL     OW 2889   2.290   1.334   1.549 -0.1486  0.3893 -0.4662
  723SOL    HW1 2890   2.272   1.336   1.457 -1.2603 -1.3756 -0.6549
  723SOL    HW2 2891   2.249   1.404   1.590  1.6100 -1.9137 -0.6661
  723SOL     MW 2892   2.282   1.343   1.542 -0.0633 -0.1474 -0.5175
  724SOL     OW 2893   2.468   0.268   0.612  0.6674 -0.5057  0.4439
  724SOL    HW1 2894   2.454   0.268   0.706  0.8739 -1.2261  0.0344
  724SOL    HW2 2895   2.558   0.239   0.595  2.9066  1.3268  0.9200
  724SOL     MW 2896   2.478   0.264   0.622  0.9901 -0.3590  0.4527
  725SOL     OW 2897   2.638   0.426   1.203  0.6239 -0.0074 -0.4417
  725SOL    HW1 2898   2.717   0.444   1.249  0.1290 -2.4049  0.5433
  725SOL    HW2 2899   2.584   0.380   1.261 -0.1450 -0.8530 -1.8153
  725SOL     MW 2900   2.641   0.422   1.217  0.4572 -0.4353 -0.4930
  726SOL     OW 2901   2.505   2.471   0.433 -0.3165  0.1827  0.3724
  726SOL    HW1 2902   2.470   2.520   0.360  0.9719 -0.6281 -1.4128
  726SOL    HW2 2903   2.514   2.529   0.500 -1.3299 -1.0212 -1.6579
  726SOL     MW 2904   2.502   2.485   0.432 -0.2802 -0.0831 -0.1310
  727SOL     OW 2905   2.865   0.313   1.734 -0.0499 -0.0585 -0.1522
  727SOL    HW1 2906   2.799   0.299   1.667  0.8434 -0.3993 -0.7030
  727SOL    HW2 2907   2.828   0.281   1.812  2.2246 -1.5214 -3.1797
  727SOL     MW 2908   2.851   0.307   1.735  0.3681 -0.2964 -0.6243
  728SOL     OW 2909   2.813   1.181   2.862 -0.4298  0.0933  0.1744
  728SOL    HW1 2910   2.824   1.231   2.783 -1.4194 -2.5391  0.8725
  728SOL    HW2 2911   2.825   1.243   2.938 -0.4675  1.6857 -1.9794
  728SOL     MW 2912   2.816   1.196   2.862 -0.5653 -0.0439 -0.0177
  729SOL     OW 2913   2.542   1.515   1.057  0.4951 -0.0802  0.2918
  729SOL    HW1 2914   2.613   1.455   1.069 -0.3484  0.0065  1.2395
  729SOL    HW2 2915   2.515   1.501   0.967  3.2139  1.4498 -0.8586
  729SOL     MW 2916   2.548   1.505   1.047  0.7426  0.1331  0.2650
  730SOL     OW 2917   2.175   1.159   0.196 -0.5060 -0.6409  0.3515
  730SOL    HW1 2918   2.258   1.103   0.204  2.9425  0.2164  0.1063
  730SOL    HW2 2919   2.200   1.237   0.150 -1.1258 -0.2161  0.3036
  730SOL     MW 2920   2.189   1.162   0.191 -0.1328 -0.4717  0.3128
  731SOL     OW 2921   2.770   1.991   2.911  0.4563 -0.4185  0.2755
  731SOL    HW1 2922   2.719   2.003   2.838 -0.0157  0.5596  3.2559
  731SOL    HW2 2923   2.857   1.994   2.872  0.3661 -3.1579 -0.0631
  731SOL     MW 2924   2.775   1.993   2.896  0.3821 -0.6509  0.6241
  732SOL     OW 2925   2.318   0.983   1.340  0.0566  0.2870 -0.2259
  732SOL    HW1 2926   2.290   0.966   1.427  0.9362  1.4761  1.5727
  732SOL    HW2 2927   2.401   0.931   1.334  0.4466 -2.8262  0.9146
  732SOL     MW 2928   2.325   0.974   1.351  0.2241  0.0331  0.1619
  733SOL     OW 2929   2.400   2.700   2.992 -0.1159 -0.5787 -0.0192
  733SOL    HW1 2930   2.346   2.739   3.058 -0.7231  2.1806  0.6584
  733SOL    HW2 2931   2.373   2.608   2.994  2.4115  0.4129 -1.3264
  733SOL     MW 2932   2.389   2.693   3.001  0.1375 -0.0838 -0.1022
  734SOL     OW 2933   1.500   0.267   2.506  0.5797  0.5562 -0.2063
  734SOL    HW1 2934   1.474   0.214   2.583  0.0526 -0.7910 -0.1659
  734SOL    HW2 2935   1.423   0.265   2.448  0.4717 -0.6241  2.1872
  734SOL     MW 2936   1.486   0.260   2.508  0.4959  0.2227  0.1148
  735SOL     OW 2937   3.009   0.873   2.681  0.1041 -0.3495  0.5242
  735SOL    HW1 2938   3.016   0.775   2.671  1.8754 -1.1522  0.4494
  735SOL    HW2 2939   3.041   0.898   2.768 -0.4924  1.9882  0.1642
  735SOL     MW 2940   3.014   0.864   2.691  0.2591 -0.1470  0.4669
  736SOL     OW 2941   0.124   0.566   2.531  0.1615  0.0330 -0.3676
  736SOL    HW1 2942   0.140   0.655   2.480 -0.7100 -0.4084 -1.1299
  736SOL    HW2 2943   0.185   0.500   2.487 -0.2940 -1.0478 -1.7760
  736SOL     MW 2944   0.134   0.569   2.518 -0.0136 -0.1678 -0.6540
  737SOL     OW 2945   2.987   0.586   2.645  0.4760 -0.5489  0.0824
  737SOL    HW1 2946   2.926   0.591   2.567  0.0918 -1.9152 -0.5219
  737SOL    HW2 2947   3.068   0.572   2.601 -1.0362  1.5104  0.8648
  737SOL     MW 2948   2.989   0.585   2.629  0.2258 -0.4575  0.1059
  738SOL     OW 2949   0.109   0.415   1.848 -0.3957 -0.2365  0.0927
  738SOL    HW1 2950   0.201   0.439   1.847 -0.0601  1.6635 -1.5434
  738SOL    HW2 2951   0.108   0.383   1.757 -0.8715 -1.5044 -0.8854
  738SOL     MW 2952   0.121   0.414   1.836 -0.4142 -0.1531 -0.2522
  739SOL     OW 2953   2.519   0.985   2.103  0.1849 -0.0506 -0.2794
  739SOL    HW1 2954   2.476   1.005   2.027  2.7645  0.7433  2.7756
  739SOL    HW2 2955   2.545   0.896   2.099  1.1646  0.8555  2.3067
  739SOL     MW 2956   2.517   0.976   2.093  0.6545  0.1737  0.4649
  740SOL     OW 2957   0.126   1.766   2.960  0.5647  0.4038 -0.4677
  740SOL    HW1 2958   0.075   1.690   2.942 -0.9134 -1.2840  0.1825
  740SOL    HW2 2959   0.212   1.736   2.988  2.2178 -0.7053  1.4739
  740SOL     MW 2960   0.130   1.752   2.961  0.5878  0.0348 -0.1257
  741SOL     OW 2961   2.247   1.152   2.716 -0.4145  0.4631  0.0941
  741SOL    HW1 2962   2.208   1.218   2.661  0.9943  0.2495  1.3480
  741SOL    HW2 2963   2.212   1.176   2.811  0.2367 -1.3298  0.5966
  741SOL     MW 2964   2.237   1.164   2.721 -0.1427  0.1983  0.3259
  742SOL     OW 2965   1.549   1.221   2.297 -0.4603  0.1658  0.8795
  742SOL    HW1 2966   1.464   1.177   2.276 -0.9385 -2.9032  2.1758
  742SOL    HW2 2967   1.582   1.172   2.374  0.0557  1.8484  1.4415
  742SOL     MW 2968   1.542   1.209   2.305 -0.4553 -0.0171  1.1247
  743SOL     OW 2969   2.506   1.231   2.710  1.5111  0.2359 -0.5196
  743SOL    HW1 2970   2.406   1.212   2.721 -2.3891 -0.1949 -0.5540
  743SOL    HW2 2971   2.552   1.154   2.738  2.0197  1.3135  0.1274
  743SOL     MW 2972   2.499   1.218   2.715  1.0636  0.3212 -0.4388
  744SOL     OW 2973   2.713   0.851   1.934  0.6549  0.1509 -0.1497
  744SOL    HW1 2974   2.674   0.935   1.952 -0.5600  0.0923  1.4546
  744SOL    HW2 2975   2.650   0.801   1.877  0.2421  0.6793 -1.4497
  744SOL     MW 2976   2.700   0.855   1.929  0.4402  0.2129 -0.1095
  745SOL     OW 2977   1.686   0.485   2.490  0.2992 -0.6047 -0.5810
  745SOL    HW1 2978   1.698   0.486   2.394  2.4560  1.7423  1.4999
  745SOL    HW2 2979   1.650   0.399   2.510 -0.5833 -1.5650 -1.0384
  745SOL     MW 2980   1.683   0.474   2.480  0.4673 -0.4217 -0.3668
  746SOL     OW 2981   1.583   1.485   1.635 -0.0111  0.4532  0.8927
  746SOL    HW1 2982   1.676   1.472   1.642 -3.4170  1.6214  4.7699
  746SOL    HW2 2983   1.564   1.475   1.728 -2.6450  0.2396 -0.9274
  746SOL     MW 2984   1.593   1.482   1.648 -0.8080  0.5792  1.1641
  747SOL     OW 2985   2.617   1.130   1.812 -0.0127  0.3350  0.2396
  747SOL    HW1 2986   2.536   1.132   1.756 -0.3760  0.3185  0.3574
  747SOL    HW2 2987   2.605   1.207   1.870  2.4624  1.0091 -2.5232
  747SOL     MW 2988   2.605   1.140   1.813  0.2659  0.4218 -0.1094
  748SOL     OW 2989   0.084   0.118   1.893  0.3641 -0.1185 -0.1969
  748SOL    HW1 2990   0.175   0.112   1.911 -2.3434 -0.3444 -4.0190
  748SOL    HW2 2991   0.055   0.198   1.936  2.6292 -0.1575 -2.2999
  748SOL     MW 2992   0.092   0.128   1.901  0.3057 -0.1535 -0.9787
  749SOL     OW 2993   2.555   0.589   2.784  0.8501  0.3560 -0.0702
  749SOL    HW1 2994   2.566   0.663   2.723 -0.9192  0.4020 -0.2669
  749SOL    HW2 2995   2.541   0.627   2.877  0.1753  1.5296 -0.2896
  749SOL     MW 2996   2.554   0.604   2.789  0.5276  0.5169 -0.1251
  750SOL     OW 2997   2.033   3.080   1.975  0.5203  0.1682 -0.3240
  750SOL    HW1 2998   2.074   3.169   1.976  1.3585  0.5726 -1.3204
  750SOL    HW2 2999   2.111   3.016   1.961 -0.0474  0.4888  1.1041
  750SOL     MW 3000   2.049   3.083   1.973  0.5560  0.2639 -0.2671
  751SOL     OW 3001   0.294   0.333   2.417 -0.7425 -0.2826 -0.4452
  751SOL    HW1 3002   0.229   0.279   2.455 -3.2115  2.6822 -1.3778
  751SOL    HW2 3003   0.293   0.303   2.326  1.5819 -0.7461  0.6369
  751SOL     MW 3004   0.285   0.322   2.410 -0.7616  0.0474 -0.4255
  752SOL     OW 3005   2.145   0.835   2.737  0.1956  0.1078  0.6097
  752SOL    HW1 3006   2.219   0.883   2.700 -3.0089  1.2192  0.2817
  752SOL    HW2 3007   2.160   0.816   2.830  0.8269 -2.9570 -0.2712
  752SOL     MW 3008   2.157   0.839   2.744 -0.1439 -0.1499  0.4502
  753SOL     OW 3009   2.784   0.150   2.403  0.1922 -0.2498 -0.1164
  753SOL    HW1 3010   2.766   0.056   2.382  0.7566 -1.3872 -0.2429
  753SOL    HW2 3011   2.768   0.199   2.325 -0.6050 -0.2213  0.8045
  753SOL     MW 3012   2.780   0.144   2.390  0.1615 -0.3961 -0.0116
  754SOL     OW 3013   2.268   2.953   2.624  0.0723  0.4959  0.8530
  754SOL    HW1 3014   2.288   2.924   2.535  0.8677  1.0767  0.5984
  754SOL    HW2 3015   2.333   2.907   2.679  0.5147 -2.3844 -1.1431
  754SOL     MW 3016   2.279   2.943   2.619  0.2356  0.1925  0.5560
  755SOL     OW 3017   2.748   1.537   2.401 -0.2328 -0.3132 -0.2222
  755SOL    HW1 3018   2.763   1.472   2.469  1.1388  2.4412  1.6586
  755SOL    HW2 3019   2.770   1.625   2.442  3.3965  0.2683 -0.5831
  755SOL     MW 3020   2.753   1.540   2.415  0.4270  0.1270 -0.0216
  756SOL     OW 3021   2.225   1.190   2.982 -0.3785  0.5644 -0.2114
  756SOL    HW1 3022   2.284   1.267   2.976 -0.1833  1.1619 -2.3251
  756SOL    HW2 3023   2.287   1.115   3.005  0.3057  0.9331  0.4337
  756SOL     MW 3024   2.241   1.190   2.984 -0.2625  0.6919 -0.4052
  757SOL     OW 3025   2.180   0.925   1.610  0.7706  0.3470  0.2868
  757SOL    HW1 3026   2.184   0.828   1.609  0.5523  2.8966  0.6118
  757SOL    HW2 3027   2.102   0.929   1.549 -0.1898 -0.9415 -1.8906
  757SOL     MW 3028   2.171   0.913   1.602  0.6151  0.5134  0.0424
  758SOL     OW 3029   2.219   1.811   2.625  0.3070  0.2029  0.1709
  758SOL    HW1 3030   2.182   1.827   2.539  0.2555 -2.0216 -3.2549
  758SOL    HW2 3031   2.312   1.802   2.609  0.7860 -1.1499 -1.1108
  758SOL     MW 3032   2.226   1.812   2.612  0.3634 -0.2691 -0.4502
  759SOL     OW 3033   1.545   1.284   2.715  0.0904 -0.1249 -0.1654
  759SOL    HW1 3034   1.563   1.365   2.668  0.8313 -1.3812  3.1298
  759SOL    HW2 3035   1.591   1.297   2.802 -2.1862 -0.5652 -0.8032
  759SOL     MW 3036   1.553   1.296   2.720 -0.1122 -0.3488  0.1852
  760SOL     OW 3037   2.566   1.990   2.713  0.2352 -0.0065 -0.5537
  760SOL    HW1 3038   2.526   1.903   2.685  1.0721 -0.1182 -0.7854
  760SOL    HW2 3039   2.560   2.056   2.644  2.1953 -0.5290  1.9734
  760SOL     MW 3040   2.560   1.987   2.701  0.6042 -0.0902 -0.2509
  761SOL     OW 3041   2.191   0.417   2.551  0.6571  0.0773 -0.3350
  761SOL    HW1 3042   2.148   0.351   2.606 -1.7628 -2.4930  0.7471
  761SOL    HW2 3043   2.240   0.460   2.622  1.2856  0.8524 -2.2259
  761SOL     MW 3044   2.191   0.414   2.568  0.4207 -0.1596 -0.4417
  762SOL     OW 3045   3.057   0.230   2.153  0.1169  0.4249  0.3379
  762SOL    HW1 3046   3.068   0.172   2.226  2.2680  2.0326  0.6516
  762SOL    HW2 3047   3.019   0.315   2.188 -0.7208 -0.1327 -0.7810
  762SOL     MW 3048   3.053   0.234   2.167  0.2902  0.5634  0.2317
  763SOL     OW 3049   2.334   1.034   2.340  0.2930  0.2177 -0.1676
  763SOL    HW1 3050   2.374   0.983   2.269  0.1974 -1.5775  0.2732
  763SOL    HW2 3051   2.396   1.111   2.356 -0.3453  1.2343 -0.0862
  763SOL     MW 3052   2.347   1.037   2.333  0.1962  0.1149 -0.0987
  764SOL     OW 3053   0.409   0.285   2.829 -0.4060 -0.0543  0.2453
  764SOL    HW1 3054   0.330   0.228   2.825 -2.0077  1.6066  0.2545
  764SOL    HW2 3055   0.400   0.336   2.912 -0.2529  0.1838  1.5655
  764SOL     MW 3056   0.397   0.284   2.840 -0.5971  0.1963  0.4207
  765SOL     OW 3057   2.726   2.992   2.394 -0.0352 -0.8361  0.1507
  765SOL    HW1 3058   2.681   2.991   2.312 -0.1864 -2.3301  0.5196
  765SOL    HW2 3059   2.816   2.966   2.363  0.2774 -1.0322 -0.2457
  765SOL     MW 3060   2.732   2.988   2.379 -0.0139 -1.0591  0.1471
  766SOL     OW 3061   1.901   2.960   2.183  0.4227  0.4534 -0.2105
  766SOL    HW1 3062   1.949   3.011   2.113  0.8486 -0.8869 -0.9737
  766SOL    HW2 3063   1.846   2.891   2.135  1.4575  0.8319 -1.5091
  766SOL     MW 3064   1.900   2.957   2.167  0.6154  0.3265 -0.4825
  767SOL     OW 3065   2.637   0.602   2.133 -0.1435 -0.1818  0.0264
  767SOL    HW1 3066   2.718   0.654   2.152 -0.1872 -1.5018  3.0866
  767SOL    HW2 3067   2.582   0.638   2.061 -1.2645 -1.0440 -0.2314
  767SOL     MW 3068   2.640   0.614   2.126 -0.2972 -0.4697  0.3962
  768SOL     OW 3069   3.034   1.552   2.935 -1.0639 -0.2445  0.1985
  768SOL    HW1 3070   3.060   1.554   3.027  0.4605 -1.5218  2.7861
  768SOL    HW2 3071   3.084   1.486   2.882  0.1709  0.8402  1.0875
  768SOL     MW 3072   3.044   1.544   2.940 -0.6998 -0.2699  0.6572
  769SOL     OW 3073   2.486   0.660   2.325  0.2650 -0.4598  0.4012
  769SOL    HW1 3074   2.533   0.616   2.397  0.8036  2.2748  0.0455
  769SOL    HW2 3075   2.532   0.625   2.247 -0.8859 -0.3399 -1.6319
  769SOL     MW 3076   2.498   0.650   2.324  0.1842 -0.0831  0.0861
  770SOL     OW 3077   3.101   1.627   2.525 -0.6259 -0.6064  0.0247
  770SOL    HW1 3078   3.039   1.682   2.566  3.5464 -1.5703 -0.6923
  770SOL    HW2 3079   3.057   1.552   2.470 -1.8128  0.8654 -3.2073
  770SOL     MW 3080   3.087   1.624   2.523 -0.2320 -0.5394 -0.4964
  771SOL     OW 3081   3.056   0.616   1.986  0.7962  0.0622  0.0091
  771SOL    HW1 3082   2.981   0.593   1.928 -1.8181  0.3017  0.6227
  771SOL    HW2 3083   3.120   0.574   1.924 -1.1130 -0.8987 -1.1971
  771SOL     MW 3084   3.054   0.607   1.970  0.1994 -0.0329 -0.0691
  772SOL     OW 3085   0.070   3.088   2.287 -0.0689  0.3539 -0.0462
  772SOL    HW1 3086  -0.005   3.029   2.285 -0.1590  2.4137 -0.7021
  772SOL    HW2 3087   0.135   3.045   2.229 -1.8986  1.9661  0.7582
  772SOL     MW 3088   0.069   3.075   2.279 -0.3222  0.8384 -0.0266
  773SOL     OW 3089   2.469   2.819   2.751  0.5261 -0.0455  0.3176
  773SOL    HW1 3090   2.458   2.742   2.697 -0.0567 -0.6048  1.2488
  773SOL    HW2 3091   2.435   2.797   2.840  1.9885 -0.7295  1.8076
  773SOL     MW 3092   2.463   2.806   2.756  0.6421 -0.2095  0.6371
  774SOL     OW 3093   2.315   1.137   1.743 -0.9860 -0.3428  0.1605
  774SOL    HW1 3094   2.300   1.193   1.665 -2.0708 -1.2243 -0.6920
  774SOL    HW2 3095   2.284   1.057   1.708 -0.7702  0.5590  0.7582
  774SOL     MW 3096   2.309   1.134   1.729 -1.1007 -0.3401  0.1269
  775SOL     OW 3097   2.304   2.922   2.342  0.1173 -0.2975  0.1693
  775SOL    HW1 3098   2.333   2.999   2.292 -0.6003 -0.6228 -0.6241
  775SOL    HW2 3099   2.363   2.858   2.310  0.3951 -2.2896 -0.9304
  775SOL     MW 3100   2.316   2.924   2.331  0.0593 -0.6032 -0.0805
  776SOL     OW 3101   0.027   1.531   0.085 -0.3274 -0.4295  0.1604
  776SOL    HW1 3102   0.117   1.510   0.079 -1.1325  2.1720  1.4017
  776SOL    HW2 3103  -0.013   1.452   0.111 -0.7158  2.1165 -0.2469
  776SOL     MW 3104   0.034   1.518   0.087 -0.4849  0.2497  0.2704
  777SOL     OW 3105   2.945   0.972   1.758 -0.5424 -0.1171  0.2815
  777SOL    HW1 3106   2.896   1.038   1.706  0.2743 -4.0792  0.5535
  777SOL    HW2 3107   2.873   0.926   1.797 -1.1897  1.4153  1.0827
  777SOL     MW 3108   2.929   0.975   1.756 -0.5200 -0.4377  0.4231
  778SOL     OW 3109   2.882   0.354   2.783  0.1478 -0.2712  0.3221
  778SOL    HW1 3110   2.905   0.373   2.874  0.9310  2.0879 -2.1943
  778SOL    HW2 3111   2.938   0.420   2.732  0.8677 -1.1998  1.2844
  778SOL     MW 3112   2.893   0.365   2.788  0.3461 -0.0824  0.1171
  779SOL     OW 3113   2.108   0.536   2.320 -0.2710 -0.1343  0.5706
  779SOL    HW1 3114   2.036   0.590   2.335  0.9850 -1.0494 -3.7651
  779SOL    HW2 3115   2.140   0.505   2.402 -0.1972  0.2814 -0.3676
  779SOL     MW 3116   2.103   0.539   2.333 -0.0955 -0.2002 -0.1252
  780SOL     OW 3117   0.182   0.123   2.824  0.4624  0.1826 -0.5240
  780SOL    HW1 3118   0.108   0.148   2.882  0.5120 -1.1185 -1.6670
  780SOL    HW2 3119   0.142   0.143   2.742 -0.5855  1.0825  0.4006
  780SOL     MW 3120   0.167   0.129   2.821  0.3307  0.1297 -0.5528
  781SOL     OW 3121   3.031   1.382   2.433 -0.1125  0.0031 -0.3482
  781SOL    HW1 3122   3.024   1.391   2.338 -1.1491 -1.3979 -2.3028
  781SOL    HW2 3123   3.108   1.329   2.436 -2.2034  1.2629 -0.5975
  781SOL     MW 3124   3.040   1.376   2.421 -0.5252 -0.0155 -0.6390
  782SOL     OW 3125   0.538   1.563   3.078  0.0978 -0.5962  0.5249
  782SOL    HW1 3126   0.495   1.647   3.061 -0.7979  0.4273  2.1667
  782SOL    HW2 3127   0.556   1.539   3.171  1.2101 -1.9672 -3.7789
  782SOL     MW 3128   0.535   1.571   3.088  0.1264 -0.6421  0.1736
  783SOL     OW 3129   2.819   0.569   2.432  0.2483 -0.1040 -0.4617
  783SOL    HW1 3130   2.869   0.520   2.362  1.2939 -0.5535 -0.6815
  783SOL    HW2 3131   2.758   0.503   2.465 -1.5934 -0.1640  1.5946
  783SOL     MW 3132   2.817   0.554   2.427  0.1432 -0.1712 -0.2194
  784SOL     OW 3133   0.206   0.910   2.889 -0.1084 -0.0397  0.1945
  784SOL    HW1 3134   0.218   0.973   2.960 -0.0281  0.1854 -5.1011
  784SOL    HW2 3135   0.191   0.962   2.807 -0.7166 -3.7786  1.0627
  784SOL     MW 3136   0.206   0.925   2.888 -0.1780 -0.5033 -0.3897
  785SOL     OW 3137   0.357   0.521   2.119  0.0070  0.7376 -0.4639
  785SOL    HW1 3138   0.338   0.540   2.027  2.3701  4.2071 -0.7526
  785SOL    HW2 3139   0.290   0.459   2.146  0.7098  1.1317  3.2315
  785SOL     MW 3140   0.345   0.515   2.111  0.4115  1.2474 -0.0144
  786SOL     OW 3141   2.031   0.480   2.841 -0.0917 -0.5754  0.2790
  786SOL    HW1 3142   2.003   0.509   2.925  0.1751  0.0355  0.6218
  786SOL    HW2 3143   2.122   0.503   2.843  1.7913  0.1567 -2.0046
  786SOL     MW 3144   2.039   0.487   2.853  0.1919 -0.3982  0.0230
  787SOL     OW 3145   2.427   0.157   2.931 -0.2051 -0.4089 -0.1547
  787SOL    HW1 3146   2.491   0.095   2.892 -0.1145 -0.3906 -1.6572
  787SOL    HW2 3147   2.475   0.229   2.969 -0.7053 -0.7127 -0.6017
  787SOL     MW 3148   2.442   0.159   2.931 -0.2591 -0.4466 -0.4119
  788SOL     OW 3149   2.950   2.892   2.279 -0.3410 -0.2600  0.0769
  788SOL    HW1 3150   2.901   2.819   2.234 -1.8732 -4.3957  3.6954
  788SOL    HW2 3151   3.015   2.842   2.329 -0.4277 -0.0190 -1.4088
  788SOL     MW 3152   2.952   2.876   2.279 -0.5546 -0.7738  0.3583
  789SOL     OW 3153   0.039   0.277   3.018  0.0588  0.4386  0.0555
  789SOL    HW1 3154  -0.042   0.242   3.063 -0.8091 -0.0581  0.5646
  789SOL    HW2 3155   0.114   0.273   3.077  1.4447 -0.5223  2.1793
  789SOL     MW 3156   0.038   0.272   3.032  0.1271  0.2463  0.4029
  790SOL     OW 3157   0.021   1.061   2.490 -0.1747 -0.1465 -0.4698
  790SOL    HW1 3158  -0.000   1.003   2.560  2.9751  1.5115 -0.8557
  790SOL    HW2 3159  -0.066   1.075   2.448  0.0070 -2.0318 -1.4276
  790SOL     MW 3160   0.007   1.055   2.494  0.2648 -0.1764 -0.6471
  791SOL     OW 3161   2.668   0.408   2.626  0.2122  0.4907 -0.2543
  791SOL    HW1 3162   2.615   0.468   2.681  1.3585 -1.4856 -1.5497
  791SOL    HW2 3163   2.737   0.387   2.696 -0.2700  1.2329 -1.3433
  791SOL     MW 3164   2.670   0.413   2.643  0.2998  0.3278 -0.5689
  792SOL     OW 3165   2.442   0.260   2.370 -0.3904  0.4591  0.9247
  792SOL    HW1 3166   2.374   0.330   2.390  1.2801  1.3721 -1.4082
  792SOL    HW2 3167   2.475   0.221   2.452 -1.7951 -0.2537 -2.2416
  792SOL     MW 3168   2.437   0.264   2.383 -0.3553  0.4855  0.1992
  793SOL     OW 3169   1.756   1.027   1.873  0.3112 -0.3319 -0.4893
  793SOL    HW1 3170   1.706   1.059   1.796 -0.6542 -4.0017  1.2185
  793SOL    HW2 3171   1.853   1.016   1.841  1.3898  1.2282 -1.4813
  793SOL     MW 3172   1.762   1.030   1.858  0.3261 -0.6103 -0.3948
  794SOL     OW 3173   1.443   2.297   0.115 -0.0546 -0.3825 -0.1240
  794SOL    HW1 3174   1.450   2.361   0.042 -1.7119 -1.1298  1.2270
  794SOL    HW2 3175   1.483   2.342   0.191 -0.2233  1.3695  0.6381
  794SOL     MW 3176   1.449   2.312   0.115 -0.2956 -0.2499  0.1548
  795SOL     OW 3177   2.367   0.930   2.605 -0.1154  0.0711 -0.1335
  795SOL    HW1 3178   2.343   1.016   2.638  2.2559  0.5120 -0.9439
  795SOL    HW2 3179   2.377   0.944   2.510  1.1882 -1.6306 -1.8244
  795SOL     MW 3180   2.365   0.944   2.596  0.3695 -0.0953 -0.4635
  796SOL     OW 3181   0.318   0.684   2.797  0.0605 -0.4172  0.3525
  796SOL    HW1 3182   0.259   0.740   2.848 -1.4646 -0.2874 -1.3569
  796SOL    HW2 3183   0.272   0.636   2.730  1.6358 -0.6928  0.2685
  796SOL     MW 3184   0.304   0.685   2.795  0.0671 -0.4364  0.1159
  797SOL     OW 3185   2.573   0.153   2.584 -0.6859  0.2870  0.0432
  797SOL    HW1 3186   2.607   0.238   2.617  2.3500  2.4163 -1.0614
  797SOL    HW2 3187   2.638   0.138   2.516  0.3264  0.0538 -0.0854
  797SOL     MW 3188   2.586   0.163   2.579 -0.1518  0.5371 -0.1195
  798SOL     OW 3189   2.377   0.052   2.183  0.3447 -0.4140 -0.2022
  798SOL    HW1 3190   2.393   0.101   2.265 -0.5424  1.2341 -0.8278
  798SOL    HW2 3191   2.452  -0.000   2.154  1.5764 -0.2664  3.7720
  798SOL     MW 3192   2.389   0.052   2.190  0.3902 -0.1771  0.2396
  799SOL     OW 3193   2.525   2.933   0.198  0.2979 -0.5684 -0.1457
  799SOL    HW1 3194   2.576   2.878   0.140 -1.1877  1.1381 -2.5556
  799SOL    HW2 3195   2.463   2.978   0.137  1.2106 -0.9560  0.3125
  799SOL     MW 3196   2.524   2.932   0.183  0.2223 -0.3944 -0.4032
  800SOL     OW 3197   1.915   3.085   1.713 -0.2903 -0.0475  0.4393
  800SOL    HW1 3198   1.837   3.036   1.745 -2.1181  1.7115 -0.7923
  800SOL    HW2 3199   1.960   3.104   1.796  2.4886  0.1573 -2.3776
  800SOL     MW 3200   1.911   3.081   1.728 -0.1648  0.2116 -0.0948
  801SOL     OW 3201   2.828   1.308   2.617  0.0808  0.5159 -0.4185
  801SOL    HW1 3202   2.831   1.211   2.592  1.5311  0.0713  0.1136
  801SOL    HW2 3203   2.911   1.343   2.578  0.8004  2.3713 -1.5321
  801SOL     MW 3204   2.839   1.300   2.608  0.3671  0.7021 -0.4952
  802SOL     OW 3205   2.559   1.512   2.750 -0.5253  0.3813 -0.3396
  802SOL    HW1 3206   2.558   1.417   2.774  0.5511 -0.6472 -2.5641
  802SOL    HW2 3207   2.631   1.541   2.798 -0.5178 -4.4482 -0.6359
  802SOL     MW 3208   2.568   1.503   2.759 -0.3823 -0.3916 -0.6722
  803SOL     OW 3209   2.281   1.317   1.956 -0.5682 -0.7244 -0.1784
  803SOL    HW1 3210   2.218   1.277   2.018 -1.0861  1.1916  2.4593
  803SOL    HW2 3211   2.291   1.261   1.883  0.4457  0.4214  1.9064
  803SOL     MW 3212   2.274   1.305   1.954 -0.5028 -0.3204  0.4447
  804SOL     OW 3213   2.357   0.004   0.043  0.1347 -0.2694  0.5245
  804SOL    HW1 3214   2.270   0.052   0.047  0.2194 -0.1522  1.5140
  804SOL    HW2 3215   2.410   0.060  -0.017 -0.6781 -1.4654  0.3271
  804SOL     MW 3216   2.353   0.017   0.036  0.0386 -0.4117  0.6290
  805SOL     OW 3217   2.827   1.038   2.553  0.4237  0.1206  0.6819
  805SOL    HW1 3218   2.737   1.006   2.565 -0.5684  2.6385 -0.5748
  805SOL    HW2 3219   2.878   0.974   2.601  2.1838  0.7057  0.1862
  805SOL     MW 3220   2.822   1.026   2.561  0.5250  0.5300  0.4507
  806SOL     OW 3221   2.642   0.334   2.203  0.1571  0.2983 -0.7134
  806SOL    HW1 3222   2.559   0.316   2.242  2.6998  1.3704 -2.1234
  806SOL    HW2 3223   2.646   0.420   2.169 -1.6581  0.7801 -0.9447
  806SOL     MW 3224   2.632   0.343   2.203  0.2531  0.5033 -0.9300
  807SOL     OW 3225   0.034   1.154   2.101  0.0727 -0.0820  0.6636
  807SOL    HW1 3226   0.100   1.086   2.082 -1.4206 -2.3287 -0.8277
  807SOL    HW2 3227  -0.037   1.114   2.150 -0.3289  1.0826  0.8897
  807SOL     MW 3228   0.034   1.139   2.105 -0.1773 -0.2248  0.4967
  808SOL     OW 3229   2.622   3.070   2.794  0.8502 -0.4593  0.4542
  808SOL    HW1 3230   2.571   2.990   2.796  1.5639  0.5478  2.1289
  808SOL    HW2 3231   2.590   3.114   2.710 -1.0702 -1.3075  1.6835
  808SOL     MW 3232   2.611   3.066   2.783  0.6910 -0.4383  0.8374
  809SOL     OW 3233   2.507   1.245   2.408  0.3774 -0.3063 -0.0627
  809SOL    HW1 3234   2.532   1.235   2.502  1.5305 -2.2505  4.3677
  809SOL    HW2 3235   2.591   1.251   2.363  3.1106  2.3135  0.7612
  809SOL     MW 3236   2.521   1.244   2.414  0.8901 -0.2172  0.6306
  810SOL     OW 3237   2.152   1.180   2.178  0.9358  0.3134  0.2877
  810SOL    HW1 3238   2.201   1.106   2.224  0.9039 -0.6245  0.9572
  810SOL    HW2 3239   2.057   1.156   2.164 -0.4273  4.2422 -0.4414
  810SOL     MW 3240   2.146   1.167   2.182  0.7518  0.7080  0.2798
  811SOL     OW 3241   1.497   0.082   2.240 -0.8099 -0.1045 -0.0257
  811SOL    HW1 3242   1.586   0.044   2.262 -0.9231  0.3723  0.5608
  811SOL    HW2 3243   1.485   0.052   2.147 -1.0497  1.1815 -3.3246
  811SOL     MW 3244   1.507   0.073   2.231 -0.8565  0.1281 -0.3836
  812SOL     OW 3245   1.443   2.755   2.096  0.1785  0.0893 -0.5114
  812SOL    HW1 3246   1.537   2.767   2.068 -1.2897  1.0789  0.2108
  812SOL    HW2 3247   1.452   2.760   2.191  0.8907  0.2576 -1.6185
  812SOL     MW 3248   1.457   2.757   2.105  0.0788  0.2421 -0.5622
  813SOL     OW 3249   1.866   0.729   2.169 -0.3135  0.0662 -0.4810
  813SOL    HW1 3250   1.822   0.644   2.175 -0.4538 -1.5866  1.6286
  813SOL    HW2 3251   1.888   0.747   2.262  0.5396 -2.1387 -0.8001
  813SOL     MW 3252   1.863   0.720   2.182 -0.2195 -0.4428 -0.2448
  814SOL     OW 3253   2.825   1.187   1.656  0.2112 -0.5305 -0.1663
  814SOL    HW1 3254   2.738   1.163   1.699 -2.8060 -1.5310  2.1526
  814SOL    HW2 3255   2.805   1.203   1.565  1.0412 -1.0715  0.4047
  814SOL     MW 3256   2.811   1.186   1.650 -0.0774 -0.7339  0.2150
  815SOL     OW 3257   2.495   1.630   2.355  0.1522  0.3874  0.1784
  815SOL    HW1 3258   2.425   1.562   2.359  3.1091  0.3714 -0.0663
  815SOL    HW2 3259   2.574   1.581   2.363  0.9917 -2.2689  2.2472
  815SOL     MW 3260   2.496   1.615   2.357  0.6531  0.0348  0.4191
  816SOL     OW 3261   0.677   0.672   2.693  0.3004 -0.5858  0.7164
  816SOL    HW1 3262   0.715   0.609   2.751 -0.4955  0.6615  1.0954
  816SOL    HW2 3263   0.616   0.618   2.633 -0.7675  0.2937  0.2370
  816SOL     MW 3264   0.674   0.656   2.693  0.0545 -0.3052  0.7032
  817SOL     OW 3265   3.046   1.170   1.303  0.3460  0.1297 -0.1875
  817SOL    HW1 3266   3.122   1.201   1.347 -0.8361  0.5444 -1.7140
  817SOL    HW2 3267   2.998   1.254   1.275  1.2228  0.2930  2.2665
  817SOL     MW 3268   3.050   1.185   1.305  0.3057  0.2060 -0.0652
  818SOL     OW 3269   1.901   0.969   2.694 -0.0880  0.2410  0.0395
  818SOL    HW1 3270   1.934   1.033   2.627 -2.9736  2.0488 -2.9425
  818SOL    HW2 3271   1.980   0.922   2.721  1.5397  1.7127  0.9368
  818SOL     MW 3272   1.916   0.971   2.689 -0.2540  0.6737 -0.2355
  819SOL     OW 3273   1.933   0.239   2.324 -0.0080 -0.4925 -0.2001
  819SOL    HW1 3274   1.971   0.323   2.299  5.1204  0.7028 -1.6716
  819SOL    HW2 3275   1.966   0.221   2.410 -0.2930  2.0056 -0.0681
  819SOL     MW 3276   1.943   0.248   2.332  0.6310 -0.0052 -0.3768
  820SOL     OW 3277   2.472   1.724   2.612 -0.0852 -0.2785  0.5074
  820SOL    HW1 3278   2.528   1.654   2.657  0.5173 -1.9874 -1.5135
  820SOL    HW2 3279   2.476   1.708   2.520  1.4906  3.2752  1.1755
  820SOL     MW 3280   2.480   1.713   2.605  0.2022 -0.0351  0.3289
  821SOL     OW 3281   2.541   1.316   2.000 -0.1556  0.1405 -0.2851
  821SOL    HW1 3282   2.560   1.396   1.950 -2.0189 -1.1156 -2.0931
  821SOL    HW2 3283   2.447   1.319   2.007 -1.8195 -0.6060 -1.4475
  821SOL     MW 3284   2.531   1.327   1.994 -0.6210 -0.1237 -0.6771
  822SOL     OW 3285   2.893   2.622   1.444 -0.5145 -0.0493 -0.3563
  822SOL    HW1 3286   2.803   2.656   1.417 -1.4328  1.1064  0.5460
  822SOL    HW2 3287   2.945   2.695   1.465 -1.1610 -1.3531 -1.3301
  822SOL     MW 3288   2.888   2.636   1.443 -0.7210 -0.0688 -0.3657
  823SOL     OW 3289   2.362   0.465   1.786 -0.2085  0.0745 -0.0258
  823SOL    HW1 3290   2.443   0.422   1.744  3.7921  0.9044  3.2535
  823SOL    HW2 3291   2.298   0.398   1.777  0.2311  1.3610 -1.3735
  823SOL     MW 3292   2.364   0.450   1.779  0.3773  0.3538  0.2290
  824SOL     OW 3293   2.132   1.355   2.567  0.3797 -0.0702 -0.2443
  824SOL    HW1 3294   2.200   1.378   2.498 -0.9544 -1.2583 -0.1842
  824SOL    HW2 3295   2.114   1.437   2.615  0.9647 -2.2791 -1.1542
  824SOL     MW 3296   2.139   1.369   2.564  0.2809 -0.5184 -0.3564
  825SOL     OW 3297   2.125   2.335   0.359  0.0195 -0.7047  0.0008
  825SOL    HW1 3298   2.201   2.324   0.305 -3.2438 -0.6122  0.2600
  825SOL    HW2 3299   2.168   2.361   0.445 -0.4591  0.5341  1.9424
  825SOL     MW 3300   2.141   2.337   0.363 -0.4742 -0.5290  0.2911
  826SOL     OW 3301   1.767   2.424   0.430  0.4088  0.4106  0.4353
  826SOL    HW1 3302   1.773   2.355   0.492  0.8535 -1.7074 -0.7065
  826SOL    HW2 3303   1.809   2.492   0.478 -0.3752  0.4653  0.8255
  826SOL     MW 3304   1.774   2.424   0.445  0.3641  0.1384  0.3361
  827SOL     OW 3305   1.921   2.252   0.864 -0.1634 -0.1173  0.1499
  827SOL    HW1 3306   1.869   2.282   0.791  0.5856 -0.4587  1.9983
  827SOL    HW2 3307   1.871   2.182   0.903  1.6489 -0.5240  0.5481
  827SOL     MW 3308   1.908   2.246   0.860  0.1746 -0.2160  0.4463
  828SOL     OW 3309   0.096   2.641   0.540 -0.1903  0.3794 -0.6565
  828SOL    HW1 3310   0.173   2.687   0.575  0.0678  2.1273 -0.5307
  828SOL    HW2 3311   0.094   2.662   0.450  1.0408  0.5517  1.5991
  828SOL     MW 3312   0.106   2.650   0.532  0.0062  0.6327 -0.3423
  829SOL     OW 3313   2.992   2.863   1.191 -0.4349  0.3101 -0.3016
  829SOL    HW1 3314   2.908   2.870   1.162  3.4234  0.7480 -1.8781
  829SOL    HW2 3315   3.025   2.780   1.158  0.7477  1.1996  0.9888
  829SOL     MW 3316   2.985   2.853   1.183  0.2302  0.4852 -0.3393
  830SOL     OW 3317   2.488   2.819   1.992  0.2926  0.3485  0.1531
  830SOL    HW1 3318   2.394   2.851   1.962 -2.4440  0.3777 -1.1097
  830SOL    HW2 3319   2.532   2.794   1.913 -0.7588  1.0079  0.0654
  830SOL     MW 3320   2.481   2.820   1.978 -0.2072  0.4393 -0.0251
  831SOL     OW 3321   2.460   2.433   1.235 -0.2733  0.1051  0.0413
  831SOL    HW1 3322   2.457   2.356   1.291  1.5139 -1.1929  1.0456
  831SOL    HW2 3323   2.531   2.403   1.170 -0.9602  1.7484 -3.2007
  831SOL     MW 3324   2.469   2.419   1.233 -0.1282  0.1507 -0.2539
  832SOL     OW 3325   2.420   2.102   1.924 -0.2896  0.1677  0.2717
  832SOL    HW1 3326   2.429   2.196   1.928 -2.6086 -2.3061 -0.0424
  832SOL    HW2 3327   2.498   2.085   1.867  0.1128 -0.3294 -1.5061
  832SOL     MW 3328   2.432   2.112   1.917 -0.5424 -0.2243 -0.0043
  833SOL     OW 3329   1.610   2.489   0.791  0.0209  0.2101 -0.2887
  833SOL    HW1 3330   1.585   2.461   0.879 -1.0146  2.8231  1.3556
  833SOL    HW2 3331   1.540   2.552   0.775  1.2891 -2.2335  2.2597
  833SOL     MW 3332   1.598   2.494   0.801  0.0516  0.2325  0.2645
  834SOL     OW 3333   2.202   2.411   0.602  0.3020  0.0672 -0.4343
  834SOL    HW1 3334   2.170   2.323   0.634  0.3159 -2.0256 -0.6784
  834SOL    HW2 3335   2.295   2.432   0.628 -0.3310 -0.4767 -0.8018
  834SOL     MW 3336   2.210   2.402   0.610  0.2203 -0.2807 -0.5150
  835SOL     OW 3337   1.856   2.617   0.673 -0.8413  0.4466  0.2122
  835SOL    HW1 3338   1.773   2.581   0.724 -3.0085 -0.8137  0.0315
  835SOL    HW2 3339   1.928   2.563   0.710  4.8386  0.9775  1.9961
  835SOL     MW 3340   1.854   2.605   0.684 -0.3778  0.3503  0.4237
  836SOL     OW 3341   2.085   2.055   1.769 -0.2217 -0.3072 -0.0252
  836SOL    HW1 3342   2.165   2.010   1.752 -2.0203  0.2329  0.0977
  836SOL    HW2 3343   2.106   2.134   1.821 -1.1678 -0.5945  1.1984
  836SOL     MW 3344   2.098   2.059   1.774 -0.5838 -0.2739  0.1524
  837SOL     OW 3345   2.099   0.214   0.664 -0.9328  0.5831  0.0978
  837SOL    HW1 3346   2.030   0.242   0.612  1.8897  0.1313  0.1326
  837SOL    HW2 3347   2.143   0.148   0.611 -0.2363 -1.3130  1.6738
  837SOL     MW 3348   2.096   0.209   0.650 -0.4685  0.2733  0.3103
  838SOL     OW 3349   2.931   2.036   0.909  0.1682  0.1826 -0.3776
  838SOL    HW1 3350   2.844   2.005   0.930  1.2444  1.9057  4.1027
  838SOL    HW2 3351   2.974   2.015   0.990 -0.2679  0.5994  0.1330
  838SOL     MW 3352   2.925   2.029   0.923  0.2526  0.4650  0.2809
  839SOL     OW 3353   1.522   2.409   1.045 -0.0418  0.4461 -0.1836
  839SOL    HW1 3354   1.491   2.482   1.101  1.7730  0.1853  0.5775
  839SOL    HW2 3355   1.547   2.333   1.104  1.3474  4.7726 -2.5260
  839SOL     MW 3356   1.521   2.409   1.060  0.3810  0.9825 -0.3922
  840SOL     OW 3357   2.393   2.121   2.312 -0.2677 -0.0157  0.0247
  840SOL    HW1 3358   2.330   2.191   2.291 -1.5907 -2.9180  1.8281
  840SOL    HW2 3359   2.449   2.165   2.379  1.2894  0.8641 -0.3277
  840SOL     MW 3360   2.392   2.136   2.318 -0.2368 -0.2826  0.2161
  841SOL     OW 3361   2.288   2.285   0.142 -0.0893  0.2546  0.3594
  841SOL    HW1 3362   2.302   2.322   0.053  1.3865 -0.9926  0.7090
  841SOL    HW2 3363   2.209   2.228   0.135 -1.4795 -0.3533  0.3344
  841SOL     MW 3364   2.279   2.283   0.130 -0.0780  0.0099  0.4023
  842SOL     OW 3365   2.658   1.962   1.477 -0.3336  0.3709 -0.3866
  842SOL    HW1 3366   2.638   1.872   1.477  1.2689 -0.0226 -0.2476
  842SOL    HW2 3367   2.644   1.992   1.388  0.3615  0.6946 -1.2669
  842SOL     MW 3368   2.653   1.954   1.465 -0.0305  0.3617 -0.4844
  843SOL     OW 3369   2.680   2.748   1.765  0.4116 -0.6823  0.3959
  843SOL    HW1 3370   2.763   2.730   1.805  0.7746  2.6620 -2.0979
  843SOL    HW2 3371   2.643   2.663   1.727  2.3217  0.6586  0.2566
  843SOL     MW 3372   2.686   2.734   1.765  0.7115 -0.0641  0.0485
  844SOL     OW 3373   2.682   2.333   1.096  0.3207  0.0011  0.4719
  844SOL    HW1 3374   2.691   2.359   1.001  1.5004 -2.5749 -1.7275
  844SOL    HW2 3375   2.760   2.368   1.134  0.4613 -0.6126  0.4178
  844SOL     MW 3376   2.693   2.341   1.089  0.4949 -0.4198  0.1746
  845SOL     OW 3377   2.832   2.618   0.276 -0.5827  0.1192 -0.0783
  845SOL    HW1 3378   2.829   2.532   0.331  1.8749  0.7314 -0.2978
  845SOL    HW2 3379   2.843   2.686   0.343  0.0951 -3.3109  0.4973
  845SOL     MW 3380   2.833   2.616   0.292 -0.1691 -0.2526 -0.0313
  846SOL     OW 3381   1.430   2.719   0.787  0.0551 -0.3740 -0.0163
  846SOL    HW1 3382   1.495   2.789   0.789 -0.6743  0.3863 -1.1614
  846SOL    HW2 3383   1.343   2.768   0.788  0.1163  0.7839  0.8205
  846SOL     MW 3384   1.427   2.735   0.787 -0.0331 -0.1209 -0.0570
  847SOL     OW 3385   2.416   1.814   0.216 -0.0588  0.2998 -0.0660
  847SOL    HW1 3386   2.383   1.730   0.228 -1.3101  1.0321 -1.7552
  847SOL    HW2 3387   2.406   1.840   0.120 -0.2590 -2.0468  1.9517
  847SOL     MW 3388   2.411   1.806   0.205 -0.2503  0.0868 -0.0227
  848SOL     OW 3389   2.708   2.082   1.205 -0.1670  0.4567  0.3082
  848SOL    HW1 3390   2.696   2.175   1.181  0.7027  2.6932 -0.3657
  848SOL    HW2 3391   2.800   2.062   1.210  0.5305  4.3265  3.1245
  848SOL     MW 3392   2.719   2.092   1.202  0.0398  1.2624  0.5909
  849SOL     OW 3393   1.925   2.846   0.831 -0.3809 -0.0346  0.3328
  849SOL    HW1 3394   1.852   2.817   0.889  0.6314 -0.1401  0.7960
  849SOL    HW2 3395   1.930   2.770   0.778  0.9351 -1.4305 -0.6099
  849SOL     MW 3396   1.916   2.832   0.832 -0.0737 -0.2327  0.2696
  850SOL     OW 3397   2.319   1.944   1.615  0.0724 -0.2514  0.2208
  850SOL    HW1 3398   2.239   1.924   1.559 -0.4023  0.6525  2.2071
  850SOL    HW2 3399   2.335   2.039   1.613  3.3069  2.8876 -1.2877
  850SOL     MW 3400   2.311   1.954   1.607  0.4366  0.2820  0.2839
  851SOL     OW 3401   2.575   2.223   0.410  0.6789 -0.1299 -0.5354
  851SOL    HW1 3402   2.587   2.217   0.312 -2.9637  1.9858 -0.8415
  851SOL    HW2 3403   2.528   2.306   0.417 -2.1277  0.2452 -2.0545
  851SOL     MW 3404   2.570   2.233   0.398 -0.1720  0.1987 -0.7762
  852SOL     OW 3405   2.327   2.026   0.359  0.2149  0.4689 -0.2365
  852SOL    HW1 3406   2.393   2.092   0.376 -0.2220  1.6762  0.8835
  852SOL    HW2 3407   2.373   1.947   0.316  0.0519 -0.2433 -1.3254
  852SOL     MW 3408   2.342   2.024   0.356  0.1357  0.5342 -0.2324
  853SOL     OW 3409   2.507   2.406   1.905 -0.0444 -0.0722  0.0483
  853SOL    HW1 3410   2.516   2.446   1.814  1.5898  1.9681 -0.9234
  853SOL    HW2 3411   2.594   2.406   1.940  0.9219 -1.4836  1.0887
  853SOL     MW 3412   2.520   2.412   1.897  0.2987  0.0108  0.0574
  854SOL     OW 3413   2.898   2.272   0.739  0.6395 -0.0710  0.3802
  854SOL    HW1 3414   2.821   2.223   0.707 -1.4060  0.7025  1.4807
  854SOL    HW2 3415   2.938   2.203   0.799 -0.0809 -0.4756 -1.1318
  854SOL     MW 3416   2.893   2.256   0.743  0.2746 -0.0224  0.3259
  855SOL     OW 3417   2.821   2.376   0.420  0.4921 -0.1232 -0.1567
  855SOL    HW1 3418   2.732   2.337   0.430 -0.2642 -0.6957  0.6700
  855SOL    HW2 3419   2.878   2.298   0.398  1.5441 -1.1389 -0.1942
  855SOL     MW 3420   2.817   2.361   0.418  0.5311 -0.3327 -0.0526
  856SOL     OW 3421   2.104   1.818   0.245 -0.2022 -0.3231  0.0580
  856SOL    HW1 3422   2.017   1.829   0.282 -1.1672  0.0206 -0.1324
  856SOL    HW2 3423   2.153   1.898   0.275 -0.4805  0.2823  2.3301
  856SOL     MW 3424   2.099   1.830   0.254 -0.3663 -0.1979  0.3327
  857SOL     OW 3425   2.466   1.936   0.570  0.5196  0.1336  0.0935
  857SOL    HW1 3426   2.415   1.964   0.494  3.2721  0.2241  0.9467
  857SOL    HW2 3427   2.402   1.921   0.646  0.7962 -1.1756  0.3500
  857SOL     MW 3428   2.450   1.938   0.570  0.9193 -0.0272  0.2399
  858SOL     OW 3429   2.923   2.678   1.842 -0.0276  0.0982  0.6232
  858SOL    HW1 3430   3.003   2.723   1.868 -0.7011  0.1057  0.4649
  858SOL    HW2 3431   2.950   2.619   1.776  1.3921  2.9857  1.7578
  858SOL     MW 3432   2.937   2.676   1.837  0.0708  0.4801  0.7520
  859SOL     OW 3433   1.745   2.651   0.982 -0.1143  0.0980 -0.0968
  859SOL    HW1 3434   1.683   2.580   0.959 -0.2295 -0.0121  0.0416
  859SOL    HW2 3435   1.806   2.597   1.020 -1.7554 -0.8235 -1.2591
  859SOL     MW 3436   1.745   2.635   0.984 -0.3460 -0.0381 -0.2319
  860SOL     OW 3437   2.639   2.580   0.070  0.2729 -0.1344 -0.3710
  860SOL    HW1 3438   2.708   2.607   0.135  1.1054  0.3355 -1.3422
  860SOL    HW2 3439   2.612   2.655   0.016  1.5473 -2.4306 -0.1013
  860SOL     MW 3440   2.644   2.593   0.071  0.5509 -0.3754 -0.4635
  861SOL     OW 3441   1.608   2.151   1.189 -0.1119 -0.3895 -0.3660
  861SOL    HW1 3442   1.627   2.211   1.267 -1.8667  1.7284  2.2661
  861SOL    HW2 3443   1.543   2.092   1.233 -0.6703 -0.6809 -3.0246
  861SOL     MW 3444   1.602   2.151   1.205 -0.4171 -0.1485 -0.3695
  862SOL     OW 3445   2.426   1.710   1.447  0.4419  0.0159  0.3116
  862SOL    HW1 3446   2.375   1.780   1.499  0.9920  0.6934 -0.5141
  862SOL    HW2 3447   2.466   1.754   1.372  2.1669  0.0469  1.2483
  862SOL     MW 3448   2.425   1.725   1.444  0.7421  0.1093  0.3263
  863SOL     OW 3449   2.888   1.646   0.951 -0.4429  0.0486 -0.5439
  863SOL    HW1 3450   2.869   1.711   1.017 -1.0108 -1.8655  0.4273
  863SOL    HW2 3451   2.811   1.636   0.893 -0.6328 -0.6935  0.2272
  863SOL     MW 3452   2.876   1.653   0.952 -0.5429 -0.3018 -0.3140
  864SOL     OW 3453   3.077   1.759   0.774 -0.5613  0.2683 -0.1541
  864SOL    HW1 3454   3.020   1.717   0.844  1.2265 -2.2123  0.8723
  864SOL    HW2 3455   3.024   1.759   0.692  2.2911  1.1806 -0.4339
  864SOL     MW 3456   3.062   1.754   0.772  0.0510  0.0614 -0.0556
  865SOL     OW 3457   2.511   2.153   0.137 -0.3841 -0.0111  0.0016
  865SOL    HW1 3458   2.510   2.071   0.089  0.1038  1.6853  1.0820
  865SOL    HW2 3459   2.413   2.196   0.140 -1.0626  2.5536  0.8861
  865SOL     MW 3460   2.498   2.148   0.131 -0.4092  0.5511  0.2608
  866SOL     OW 3461   2.735   2.372   1.521 -0.2574  0.1684  0.4714
  866SOL    HW1 3462   2.709   2.289   1.547  0.5425 -0.2224 -0.9833
  866SOL    HW2 3463   2.769   2.373   1.434 -1.9819 -1.0546  1.2434
  866SOL     MW 3464   2.736   2.361   1.513 -0.3794 -0.0445  0.3813
  867SOL     OW 3465   0.154   2.683   1.725  0.7928  0.9518  0.0373
  867SOL    HW1 3466   0.234   2.729   1.748 -0.1514  0.5300 -0.0367
  867SOL    HW2 3467   0.095   2.754   1.706 -0.8708  2.7029 -1.8101
  867SOL     MW 3468   0.157   2.698   1.726  0.4488  1.1272 -0.2162
  868SOL     OW 3469   2.739   2.662   0.593 -0.3599 -0.2852 -0.4503
  868SOL    HW1 3470   2.732   2.562   0.590 -1.8038 -3.2955 -1.0159
  868SOL    HW2 3471   2.677   2.703   0.534  2.1730 -0.5197 -0.2439
  868SOL     MW 3472   2.730   2.654   0.584 -0.2162 -0.7133 -0.4977
  869SOL     OW 3473   1.928   2.457   1.084  0.3475 -0.3625  0.0576
  869SOL    HW1 3474   1.998   2.514   1.054 -0.8043  1.5695  0.4168
  869SOL    HW2 3475   1.922   2.374   1.029 -1.6461 -1.5317  2.0514
  869SOL     MW 3476   1.937   2.454   1.073 -0.0675 -0.2619  0.3681
  870SOL     OW 3477   2.168   3.099   0.459 -0.3734  0.4919  0.1029
  870SOL    HW1 3478   2.248   3.133   0.416  1.0834  3.1941 -2.3829
  870SOL    HW2 3479   2.190   3.017   0.509  0.0254 -1.1143  2.1560
  870SOL     MW 3480   2.181   3.093   0.460 -0.1286  0.6365  0.0458
  871SOL     OW 3481   2.480   2.051   0.907 -0.4348 -0.2100 -0.1765
  871SOL    HW1 3482   2.397   2.003   0.899  1.5300 -1.5773 -2.0842
  871SOL    HW2 3483   2.468   2.144   0.937  0.9642  1.7077 -1.5452
  871SOL     MW 3484   2.467   2.057   0.910  0.0090 -0.1374 -0.6088
  872SOL     OW 3485   2.101   2.478   1.606  0.3598 -0.4009 -0.0223
  872SOL    HW1 3486   2.065   2.553   1.654  1.1306 -1.3560  0.8968
  872SOL    HW2 3487   2.052   2.465   1.521 -1.7279  3.3000  1.6345
  872SOL     MW 3488   2.090   2.486   1.601  0.1860 -0.0386  0.3176
  873SOL     OW 3489   2.863   2.132   1.844  0.6713 -0.3112  0.0545
  873SOL    HW1 3490   2.867   2.220   1.881 -0.4785  1.3605  0.3159
  873SOL    HW2 3491   2.929   2.135   1.777 -0.0565  0.0740 -0.8114
  873SOL     MW 3492   2.872   2.144   1.840  0.4236 -0.0398 -0.0252
  874SOL     OW 3493   2.311   1.417   2.377  0.1733  0.0898  0.6637
  874SOL    HW1 3494   2.264   1.376   2.303 -0.2099 -1.5611  0.5325
  874SOL    HW2 3495   2.377   1.355   2.386 -0.5506  1.6373 -1.4730
  874SOL     MW 3496   2.314   1.404   2.369  0.0272  0.0761  0.3645
  875SOL     OW 3497   2.362   2.320   0.995 -0.3886 -0.7746  0.3409
  875SOL    HW1 3498   2.375   2.379   0.920 -2.2732 -0.3219  0.5937
  875SOL    HW2 3499   2.365   2.375   1.074 -1.2216 -0.2564 -1.8876
  875SOL     MW 3500   2.364   2.335   0.996 -0.7472 -0.6465  0.0802
  876SOL     OW 3501   3.086   2.205   1.315 -0.3098 -0.0055  0.0980
  876SOL    HW1 3502   3.152   2.226   1.249 -2.2494  0.1162 -2.6215
  876SOL    HW2 3503   3.134   2.233   1.389  2.0377  0.0627 -4.5116
  876SOL     MW 3504   3.101   2.211   1.316 -0.2560  0.0195 -0.8690
  877SOL     OW 3505   0.020   2.790   0.279 -0.3798 -0.1664 -0.4122
  877SOL    HW1 3506   0.097   2.840   0.254  2.0630  1.4606 -0.3085
  877SOL    HW2 3507   0.009   2.724   0.210  0.5180  1.7934  1.8504
  877SOL     MW 3508   0.028   2.788   0.266  0.0610  0.3068 -0.1000
  878SOL     OW 3509   2.263   1.679   1.153  0.0307  0.2943 -0.1129
  878SOL    HW1 3510   2.185   1.643   1.218 -2.1202 -0.6495  1.3905
  878SOL    HW2 3511   2.289   1.598   1.118  0.7485  2.4974  0.4888
  878SOL     MW 3512   2.256   1.664   1.157 -0.1583  0.4605  0.1648
  879SOL     OW 3513   2.708   2.454   0.848 -0.2271 -0.2559  0.0450
  879SOL    HW1 3514   2.760   2.530   0.874 -2.3378  0.1472  1.6153
  879SOL    HW2 3515   2.769   2.383   0.813 -0.0284  2.6987 -0.8458
  879SOL     MW 3516   2.723   2.455   0.847 -0.4793  0.1871  0.1346
  880SOL     OW 3517   2.589   2.198   0.702 -0.0875 -0.1842  0.5474
  880SOL    HW1 3518   2.539   2.116   0.735 -1.5309 -3.0446 -0.7168
  880SOL    HW2 3519   2.564   2.197   0.610  0.4883  1.2689  3.3960
  880SOL     MW 3520   2.579   2.187   0.694 -0.2020 -0.3699  0.7564
  881SOL     OW 3521   2.992   2.735   0.685 -0.1661 -0.5071  0.5626
  881SOL    HW1 3522   2.904   2.707   0.642 -1.7830 -0.7547 -2.0082
  881SOL    HW2 3523   3.061   2.695   0.637 -0.0450 -0.4244  3.2807
  881SOL     MW 3524   2.989   2.726   0.673 -0.3634 -0.5289  0.5821
  882SOL     OW 3525   2.253   2.918   1.937  0.0915  0.3314 -0.3357
  882SOL    HW1 3526   2.266   2.920   1.841 -1.6393  0.5123 -0.4507
  882SOL    HW2 3527   2.227   2.830   1.956  2.2664  0.4532  0.3885
  882SOL     MW 3528   2.251   2.907   1.927  0.1501  0.3714 -0.2554
  883SOL     OW 3529   2.464   2.152   1.301  0.1427  0.2525  0.3338
  883SOL    HW1 3530   2.527   2.127   1.230 -0.1056 -0.8876 -2.8950
  883SOL    HW2 3531   2.380   2.143   1.254 -0.8852 -1.9794  2.2791
  883SOL     MW 3532   2.461   2.147   1.285 -0.0256 -0.1924  0.1645
  884SOL     OW 3533   1.885   1.854   1.049 -0.3255  0.3343 -0.4597
  884SOL    HW1 3534   1.845   1.937   1.012 -0.1216 -2.1289 -0.9759
  884SOL    HW2 3535   1.982   1.872   1.056 -0.7200 -0.0422 -0.4355
  884SOL     MW 3536   1.892   1.868   1.045 -0.3506 -0.0404 -0.5246
  885SOL     OW 3537   2.938   2.442   1.703 -0.0553 -0.2122  0.2185
  885SOL    HW1 3538   2.994   2.367   1.677 -0.6733 -1.1424 -0.0873
  885SOL    HW2 3539   2.867   2.437   1.633 -1.5111  0.8985  0.1162
  885SOL     MW 3540   2.936   2.431   1.690 -0.3289 -0.1884  0.1647
  886SOL     OW 3541   2.872   2.398   1.290  0.6810 -0.2742  0.1518
  886SOL    HW1 3542   2.940   2.327   1.289  3.4154 -2.4522 -1.4937
  886SOL    HW2 3543   2.915   2.476   1.330  0.6807 -0.8620 -0.0120
  886SOL     MW 3544   2.887   2.399   1.295  1.0417 -0.6391 -0.0869
  887SOL     OW 3545   2.309   2.650   1.579  0.2854 -0.5164 -0.1333
  887SOL    HW1 3546   2.338   2.649   1.486  0.3141  0.0910 -1.4549
  887SOL    HW2 3547   2.240   2.585   1.593 -1.7529 -1.0919  0.8384
  887SOL     MW 3548   2.304   2.641   1.568  0.0202 -0.5122 -0.1795
  888SOL     OW 3549   2.069   2.174   1.438  0.1802  0.2191 -0.1800
  888SOL    HW1 3550   2.096   2.152   1.349 -0.4453 -0.9593 -0.7872
  888SOL    HW2 3551   2.152   2.184   1.482  2.2105  1.2037  0.5719
  888SOL     MW 3552   2.084   2.172   1.432  0.3655  0.1935 -0.1609
  889SOL     OW 3553   2.262   1.930   2.079  0.0850  0.2513 -0.6747
  889SOL    HW1 3554   2.331   1.884   2.130 -2.0928  0.4833  0.0643
  889SOL    HW2 3555   2.315   2.001   2.037  2.7714  1.8946  1.9227
  889SOL     MW 3556   2.278   1.933   2.080  0.1521  0.4988 -0.2345
  890SOL     OW 3557   0.077   2.345   0.134 -0.1430  0.4370 -0.2883
  890SOL    HW1 3558   0.032   2.433   0.135 -0.8747 -1.0745 -2.3147
  890SOL    HW2 3559   0.104   2.330   0.225 -1.2275  1.2708 -1.9509
  890SOL     MW 3560   0.074   2.355   0.147 -0.3826  0.3476 -0.7750
  891SOL     OW 3561   3.001   1.977   1.191  0.5979 -0.0731  0.2636
  891SOL    HW1 3562   3.054   1.910   1.150 -3.9501 -2.6369  1.4138
  891SOL    HW2 3563   3.063   2.047   1.225 -0.0773 -1.4375  0.7461
  891SOL     MW 3564   3.016   1.977   1.190 -0.0913 -0.5914  0.4790
  892SOL     OW 3565   2.449   2.346   2.739 -0.5951 -0.2558  0.1840
  892SOL    HW1 3566   2.434   2.283   2.809 -3.3510  0.3086 -2.8443
  892SOL    HW2 3567   2.548   2.364   2.753  2.5872 -1.7077 -1.2253
  892SOL     MW 3568   2.460   2.340   2.750 -0.5388 -0.3729 -0.4015
  893SOL     OW 3569   1.628   2.323   1.392  0.1723  0.3479  0.1854
  893SOL    HW1 3570   1.580   2.399   1.417 -0.5823 -1.8405 -2.3124
  893SOL    HW2 3571   1.665   2.291   1.474 -0.5841 -2.3458 -0.7384
  893SOL     MW 3572   1.627   2.329   1.406 -0.0271 -0.2962 -0.2660
  894SOL     OW 3573   2.764   1.968   0.449  0.4362 -0.0055  0.1940
  894SOL    HW1 3574   2.690   1.989   0.515  0.2715  0.4565 -0.2478
  894SOL    HW2 3575   2.727   1.896   0.394 -0.1260  2.3695 -2.7027
  894SOL     MW 3576   2.749   1.962   0.450  0.3403  0.3688 -0.2465
  895SOL     OW 3577   2.199   2.144   1.175 -0.7397  0.1802  0.4046
  895SOL    HW1 3578   2.230   2.216   1.113 -0.1921  1.1604 -2.2218
  895SOL    HW2 3579   2.182   2.063   1.116  0.9709 -2.3233  1.0249
  895SOL     MW 3580   2.201   2.143   1.159 -0.4417 -0.0208  0.1399
  896SOL     OW 3581   2.268   2.823   1.069  1.1525 -0.3587  0.4582
  896SOL    HW1 3582   2.310   2.773   1.141  1.3534 -0.9568  0.7089
  896SOL    HW2 3583   2.192   2.865   1.106  1.4042 -1.3367 -1.3550
  896SOL     MW 3584   2.263   2.822   1.083  1.2122 -0.5667  0.2520
  897SOL     OW 3585   3.083   3.075   3.063 -0.1400  0.3191 -0.1018
  897SOL    HW1 3586   3.115   2.984   3.065 -0.4542 -1.6039 -2.6500
  897SOL    HW2 3587   3.030   3.082   2.986  1.6007  1.4475 -2.7614
  897SOL     MW 3588   3.080   3.064   3.053  0.0482  0.2142 -0.7889
  898SOL     OW 3589   2.192   0.182   1.431 -0.6573  0.5535 -0.2639
  898SOL    HW1 3590   2.169   0.090   1.440  0.8358  0.1151 -0.2041
  898SOL    HW2 3591   2.135   0.197   1.354  0.2136 -2.0659  1.5535
  898SOL     MW 3592   2.181   0.172   1.422 -0.3454  0.1501 -0.0162
  899SOL     OW 3593   2.986   2.995   0.627  0.8013 -0.5562 -0.7296
  899SOL    HW1 3594   2.973   2.909   0.663  1.3867  0.3702  0.9954
  899SOL    HW2 3595   2.917   3.055   0.657  0.1920  0.9734  2.6031
  899SOL     MW 3596   2.975   2.992   0.636  0.7982 -0.2322 -0.0623
  900SOL     OW 3597   0.172   2.363   1.130  0.4123 -0.0132  0.1207
  900SOL    HW1 3598   0.134   2.449   1.140 -1.0405 -1.0148  3.2966
  900SOL    HW2 3599   0.151   2.335   1.037 -0.1230  2.6694 -1.9262
  900SOL     MW 3600   0.164   2.371   1.119  0.1500  0.2086  0.2696
  901SOL     OW 3601   1.755   2.871   1.784  0.3647  0.1975 -0.4228
  901SOL    HW1 3602   1.821   2.820   1.733 -3.8526  0.3877  0.5865
  901SOL    HW2 3603   1.670   2.816   1.782 -2.4835 -1.2298  1.0835
  901SOL     MW 3604   1.753   2.857   1.777 -0.5675  0.0343 -0.0909
  902SOL     OW 3605   2.622   2.088   1.718 -0.1521 -0.3111 -0.0775
  902SOL    HW1 3606   2.629   2.026   1.648  0.7232 -0.6323  0.8019
  902SOL    HW2 3607   2.708   2.097   1.757 -0.9590  1.5608  0.9799
  902SOL     MW 3608   2.634   2.081   1.714 -0.1431 -0.1065  0.1780
  903SOL     OW 3609   1.551   2.633   0.536  0.1331 -0.1161  0.3374
  903SOL    HW1 3610   1.642   2.649   0.548 -0.8243  0.6904  1.3809
  903SOL    HW2 3611   1.516   2.683   0.609  3.5148  1.4118 -1.1656
  903SOL     MW 3612   1.558   2.641   0.547  0.4529  0.1919  0.2767
  904SOL     OW 3613   2.563   2.526   1.650  0.3079  0.0214 -0.0700
  904SOL    HW1 3614   2.480   2.560   1.608 -1.9262 -0.8815 -1.1968
  904SOL    HW2 3615   2.617   2.482   1.578  0.3627 -0.2562  1.7222
  904SOL     MW 3616   2.560   2.525   1.635  0.0204 -0.1343  0.0178
  905SOL     OW 3617   2.337   2.508   2.080 -0.1682  0.3102 -0.2012
  905SOL    HW1 3618   2.417   2.473   2.028  0.4242 -0.7895 -1.0462
  905SOL    HW2 3619   2.297   2.444   2.146  0.4859 -1.4139 -0.3022
  905SOL     MW 3620   2.342   2.495   2.082 -0.0038 -0.0623 -0.3260
  906SOL     OW 3621   2.452   2.498   0.763 -0.6057 -0.3908  0.4994
  906SOL    HW1 3622   2.538   2.478   0.797 -2.3013 -2.3417  1.1182
  906SOL    HW2 3623   2.445   2.587   0.785  1.7027 -0.7458 -0.1023
  906SOL     MW 3624   2.462   2.507   0.771 -0.5248 -0.6950  0.5017
  907SOL     OW 3625   2.689   2.758   1.318 -0.1209 -0.4872  0.4447
  907SOL    HW1 3626   2.728   2.833   1.360 -1.4093 -4.2036  0.8135
  907SOL    HW2 3627   2.700   2.771   1.226 -0.9078 -3.4319 -2.2708
  907SOL     MW 3628   2.696   2.770   1.311 -0.3947 -1.3661  0.1351
  908SOL     OW 3629   2.679   2.326   3.070  0.4233 -0.5490 -0.2701
  908SOL    HW1 3630   2.635   2.264   3.118 -1.3195  0.8606  0.0729
  908SOL    HW2 3631   2.661   2.417   3.105 -1.3297  0.7146 -0.0782
  908SOL     MW 3632   2.671   2.330   3.081 -0.0379 -0.1963 -0.1996
  909SOL     OW 3633   1.706   0.105   1.318 -0.1067 -0.3624  0.4771
  909SOL    HW1 3634   1.671   0.199   1.314  0.6291 -1.1436 -3.0043
  909SOL    HW2 3635   1.674   0.073   1.405 -0.1304 -0.1077 -3.6836
  909SOL     MW 3636   1.697   0.113   1.329 -0.0128 -0.4319 -0.5312
  910SOL     OW 3637   2.131   1.624   0.421  0.0807  0.1268 -0.2674
  910SOL    HW1 3638   2.064   1.559   0.392 -1.2666  3.7155  2.2358
  910SOL    HW2 3639   2.137   1.697   0.353  3.1062 -0.3858  0.7917
  910SOL     MW 3640   2.123   1.625   0.408  0.3022  0.5327  0.2026
  911SOL     OW 3641   2.407   2.217   1.565 -0.4203  0.0681 -0.0813
  911SOL    HW1 3642   2.467   2.181   1.634 -0.4521 -0.4489  1.6023
  911SOL    HW2 3643   2.437   2.190   1.484  1.9605  1.0981  2.9773
  911SOL     MW 3644   2.418   2.209   1.564 -0.1104  0.1358  0.5444
  912SOL     OW 3645   2.933   1.859   1.428  0.2042 -0.2683  0.4606
  912SOL    HW1 3646   2.953   1.893   1.334  1.0698  2.0917  0.6411
  912SOL    HW2 3647   2.857   1.901   1.463  2.1960  0.1649  0.3959
  912SOL     MW 3648   2.926   1.869   1.420  0.5812  0.1002  0.4759
  913SOL     OW 3649   2.697   0.029   0.317 -0.3788 -0.0462  0.2294
  913SOL    HW1 3650   2.785  -0.016   0.318  1.5085  0.0773 -1.3028
  913SOL    HW2 3651   2.640  -0.040   0.288 -0.5872  2.7161  0.1486
  913SOL     MW 3652   2.701   0.014   0.313 -0.1573  0.3346  0.0166
  914SOL     OW 3653   2.633   1.794   3.030  0.1023 -0.4361  0.3840
  914SOL    HW1 3654   2.687   1.872   3.004 -0.9929 -0.1769  0.4438
  914SOL    HW2 3655   2.542   1.820   3.007 -2.1933 -0.1554  0.5893
  914SOL     MW 3656   2.628   1.808   3.024 -0.3451 -0.3649  0.4190
  915SOL     OW 3657   1.796   0.098   0.159 -0.9740  0.2206  0.5438
  915SOL    HW1 3658   1.875   0.040   0.181  0.5264 -1.4375  0.7369
  915SOL    HW2 3659   1.718   0.063   0.202  1.9646  0.2582 -1.4883
  915SOL     MW 3660   1.796   0.086   0.168 -0.3883  0.0068  0.3011
  916SOL     OW 3661   1.796   2.166   1.978 -0.2353 -0.1813 -0.0574
  916SOL    HW1 3662   1.833   2.248   1.945  1.5947 -1.6242  0.0411
  916SOL    HW2 3663   1.811   2.104   1.911  1.6013 -1.4833  1.0931
  916SOL     MW 3664   1.803   2.169   1.965  0.2484 -0.5434  0.1074
  917SOL     OW 3665   2.526   2.195   2.535 -0.4647  0.0156 -0.2867
  917SOL    HW1 3666   2.484   2.267   2.581 -0.3110  2.3176  1.9740
  917SOL    HW2 3667   2.617   2.223   2.518  2.3533 -0.7023 -0.9968
  917SOL     MW 3668   2.533   2.208   2.539 -0.0726  0.2246 -0.0821
  918SOL     OW 3669   2.048   1.621   2.692 -0.3871  0.0548 -0.4866
  918SOL    HW1 3670   1.988   1.603   2.621 -0.6078  0.8075  0.2234
  918SOL    HW2 3671   2.127   1.677   2.662  1.1031 -0.7032  0.7189
  918SOL     MW 3672   2.050   1.626   2.679 -0.2196  0.0541 -0.2338
  919SOL     OW 3673   3.029   2.398   2.287  0.1959 -0.1358  0.2673
  919SOL    HW1 3674   2.972   2.329   2.244  2.2975  0.6746  0.7669
  919SOL    HW2 3675   3.093   2.415   2.221  0.2954  3.6326  0.0734
  919SOL     MW 3676   3.030   2.391   2.273  0.4863  0.4683  0.3076
  920SOL     OW 3677   2.616   2.846   3.061 -0.7819  0.5006 -0.4764
  920SOL    HW1 3678   2.535   2.797   3.035 -2.4219  2.2470 -0.9311
  920SOL    HW2 3679   2.674   2.820   2.991 -3.3157 -2.0584  1.4551
  920SOL     MW 3680   2.613   2.836   3.048 -1.3326  0.3934 -0.2816
  921SOL     OW 3681   2.435   2.594   2.600 -0.3748 -0.3547  0.1997
  921SOL    HW1 3682   2.500   2.623   2.534 -1.5690 -0.7778 -0.7612
  921SOL    HW2 3683   2.455   2.503   2.628 -3.6385 -0.6888 -2.6497
  921SOL     MW 3684   2.446   2.586   2.595 -0.9629 -0.4546 -0.3030
  922SOL     OW 3685   2.089   2.630   0.419  0.1083  0.0353 -0.3796
  922SOL    HW1 3686   2.111   2.654   0.326 -1.6869  0.4944 -2.8454
  922SOL    HW2 3687   2.114   2.534   0.423  0.8020 -4.1956  1.8063
  922SOL     MW 3688   2.095   2.621   0.407 -0.0370 -0.4624 -0.4165
  923SOL     OW 3689   2.216   2.894   1.657  0.4230 -0.5135  0.0196
  923SOL    HW1 3690   2.260   2.820   1.614 -0.8038 -0.6790 -0.0894
  923SOL    HW2 3691   2.190   2.948   1.582 -1.3320 -0.1193  0.5388
  923SOL     MW 3692   2.218   2.892   1.642  0.0296 -0.4833  0.0737
  924SOL     OW 3693   1.093   2.705   2.620 -0.3099  0.0290  0.0053
  924SOL    HW1 3694   1.187   2.724   2.607 -2.0527 -1.3802  2.4811
  924SOL    HW2 3695   1.085   2.624   2.671  1.0642 -0.4968  1.1092
  924SOL     MW 3696   1.104   2.697   2.625 -0.3586 -0.2263  0.4776
  925SOL     OW 3697   3.001   0.149   2.620  0.5082 -0.6210 -0.1092
  925SOL    HW1 3698   2.952   0.141   2.543 -2.1806 -1.4210  1.5077
  925SOL    HW2 3699   2.966   0.219   2.680 -0.2950 -0.0399 -0.8206
  925SOL     MW 3700   2.990   0.157   2.618  0.0475 -0.6499  0.0103
  926SOL     OW 3701   2.816   2.417   1.945 -0.2195  0.2150  0.3671
  926SOL    HW1 3702   2.831   2.498   1.991 -1.0249 -2.5252 -2.2135
  926SOL    HW2 3703   2.860   2.435   1.862 -0.3719 -1.2510 -0.4337
  926SOL     MW 3704   2.824   2.430   1.940 -0.3459 -0.3399 -0.0791
  927SOL     OW 3705   2.382   0.111   0.306 -0.5068  0.3093 -0.5033
  927SOL    HW1 3706   2.478   0.121   0.315 -0.6860 -1.3499 -0.1106
  927SOL    HW2 3707   2.375   0.076   0.215  1.3590  2.6246  2.2619
  927SOL     MW 3708   2.393   0.108   0.295 -0.2842  0.3958 -0.0867
  928SOL     OW 3709   2.161   2.311   1.855  0.2999  0.3093  0.3075
  928SOL    HW1 3710   2.162   2.307   1.758 -2.6534 -0.3098  1.1364
  928SOL    HW2 3711   2.199   2.397   1.883  0.3804 -0.2115  0.7930
  928SOL     MW 3712   2.166   2.322   1.846 -0.0791  0.1589  0.4809
  929SOL     OW 3713   2.730   2.350   2.457 -0.2993 -0.2119 -0.2089
  929SOL    HW1 3714   2.742   2.301   2.374 -2.3663 -1.2821 -0.6604
  929SOL    HW2 3715   2.814   2.336   2.510  2.7749  0.6475  2.2685
  929SOL     MW 3716   2.743   2.342   2.453 -0.1664 -0.2397  0.0584
  930SOL     OW 3717   2.014   2.844   2.664  0.0650  0.2195  0.0767
  930SOL    HW1 3718   2.029   2.757   2.700  2.3533  2.1366 -1.7061
  930SOL    HW2 3719   2.105   2.888   2.664  1.2559 -1.8390 -0.9381
  930SOL     MW 3720   2.028   2.838   2.669  0.5241  0.2008 -0.2924
  931SOL     OW 3721   0.040   2.780   2.453  0.3300 -0.4765 -0.1812
  931SOL    HW1 3722   0.024   2.830   2.543 -3.6950 -1.2760 -0.5201
  931SOL    HW2 3723   0.132   2.805   2.433 -2.1016  0.4758  0.8503
  931SOL     MW 3724   0.050   2.790   2.462 -0.5219 -0.4563 -0.0898
  932SOL     OW 3725   2.793   2.042   2.445 -0.3595  0.1200 -0.3433
  932SOL    HW1 3726   2.890   2.028   2.458  1.0624  0.4337  1.6932
  932SOL    HW2 3727   2.786   2.008   2.353  2.7135 -0.7723 -0.9559
  932SOL     MW 3728   2.805   2.036   2.435  0.2335  0.0437 -0.1554
  933SOL     OW 3729   2.100   2.782   2.232 -0.2648 -0.1597 -0.3761
  933SOL    HW1 3730   2.171   2.838   2.239 -1.4824 -2.3602  2.1139
  933SOL    HW2 3731   2.025   2.835   2.214  3.5443 -4.1324 -1.5925
  933SOL     MW 3732   2.099   2.796   2.231  0.0771 -0.9742 -0.2081
  934SOL     OW 3733   2.012   2.678   2.458 -0.1009 -0.0893  0.1352
  934SOL    HW1 3734   2.026   2.752   2.514  2.6382 -0.2534  0.6342
  934SOL    HW2 3735   2.050   2.706   2.365 -0.2783  0.0350 -2.3336
  934SOL     MW 3736   2.019   2.691   2.453  0.2371 -0.0945 -0.1247
  935SOL     OW 3737   2.633   1.488   1.781  0.1740  0.4080  0.4466
  935SOL    HW1 3738   2.731   1.471   1.756  1.7519 -1.1215 -1.9811
  935SOL    HW2 3739   2.586   1.458   1.703 -0.4414  1.5018  1.1094
  935SOL     MW 3740   2.640   1.482   1.768  0.3010  0.3505  0.2137
  936SOL     OW 3741   2.921   2.210   0.023  0.0785 -0.3424 -0.4934
  936SOL    HW1 3742   2.994   2.249   0.079  1.7488  2.1955  0.0125
  936SOL    HW2 3743   2.851   2.273   0.009 -2.6564  1.8562  1.5730
  936SOL     MW 3744   2.921   2.223   0.029 -0.0619  0.2826 -0.1540
  937SOL     OW 3745   1.901   2.140   2.614 -0.0736  0.2360 -0.1366
  937SOL    HW1 3746   1.987   2.115   2.651 -0.1880  0.3787  0.5732
  937SOL    HW2 3747   1.905   2.118   2.520 -1.3492 -0.6342  0.1486
  937SOL     MW 3748   1.913   2.134   2.607 -0.2570  0.1400 -0.0053
  938SOL     OW 3749   2.231   1.791   1.836 -0.4207  0.5144  0.1122
  938SOL    HW1 3750   2.286   1.828   1.770  0.8345 -1.4910 -4.3377
  938SOL    HW2 3751   2.256   1.839   1.916 -0.1337 -2.4641  2.4784
  938SOL     MW 3752   2.241   1.802   1.838 -0.2173 -0.1432 -0.1627
  939SOL     OW 3753   2.794   1.971   2.193 -0.1507  0.4470 -0.2498
  939SOL    HW1 3754   2.842   1.930   2.123  0.4634  0.1904  0.3429
  939SOL    HW2 3755   2.707   1.940   2.174 -0.0317 -0.4911  2.1843
  939SOL     MW 3756   2.789   1.962   2.182 -0.0540  0.2894  0.1496
  940SOL     OW 3757   2.190   0.087   2.773  0.6248 -0.3388 -0.1358
  940SOL    HW1 3758   2.242   0.035   2.712  3.7440 -0.9490  1.2097
  940SOL    HW2 3759   2.258   0.135   2.817 -0.9280 -0.7664 -1.8347
  940SOL     MW 3760   2.206   0.087   2.771  0.8315 -0.4757 -0.1824
  941SOL     OW 3761   0.123   2.445   2.081  0.3529  0.0677 -0.4159
  941SOL    HW1 3762   0.210   2.412   2.043 -0.9421 -1.2750 -0.9246
  941SOL    HW2 3763   0.069   2.422   2.004  3.1250  1.0901  0.1550
  941SOL     MW 3764   0.127   2.438   2.066  0.5478  0.0254 -0.4077
  942SOL     OW 3765   2.817   2.259   2.176 -0.8812 -0.0063 -0.4604
  942SOL    HW1 3766   2.806   2.283   2.083  1.2430 -1.1147  1.4720
  942SOL    HW2 3767   2.821   2.165   2.156  0.1828  1.0946 -0.9029
  942SOL     MW 3768   2.816   2.250   2.161 -0.4605 -0.0073 -0.2638
  943SOL     OW 3769   0.337   2.150   2.252  0.4968  0.8318 -0.0632
  943SOL    HW1 3770   0.285   2.190   2.317 -0.2252  3.3906 -2.0151
  943SOL    HW2 3771   0.404   2.107   2.305 -0.2222 -0.4335  1.3493
  943SOL     MW 3772   0.339   2.150   2.267  0.3067  1.0025 -0.1344
  944SOL     OW 3773   2.139   2.643   1.971 -0.1405  0.0999  0.5286
  944SOL    HW1 3774   2.202   2.585   2.013 -0.0447  1.7157  0.4126
  944SOL    HW2 3775   2.087   2.670   2.053 -1.4468 -0.1118  1.0096
  944SOL     MW 3776   2.141   2.639   1.987 -0.3002  0.2852  0.5767
  945SOL     OW 3777   2.747   2.699   2.870 -0.0135 -0.6847  0.1439
  945SOL    HW1 3778   2.698   2.612   2.853  2.4239 -0.8038  1.1417
  945SOL    HW2 3779   2.758   2.747   2.785 -1.4116  0.8341  2.0584
  945SOL     MW 3780   2.742   2.694   2.857  0.1237 -0.5000  0.5281
  946SOL     OW 3781   2.443   2.705   2.239 -0.1549  0.6911  0.1427
  946SOL    HW1 3782   2.472   2.735   2.160 -2.2864  2.0217 -0.2012
  946SOL    HW2 3783   2.411   2.617   2.212 -0.1138 -0.7965 -0.9966
  946SOL     MW 3784   2.443   2.698   2.225 -0.4307  0.6703 -0.0530
  947SOL     OW 3785   2.038   3.057   0.217 -0.1985 -0.9649 -0.4983
  947SOL    HW1 3786   2.086   2.971   0.195  1.3022 -0.3591  3.1068
  947SOL    HW2 3787   2.082   3.082   0.307  1.8513 -0.7429 -0.7792
  947SOL     MW 3788   2.050   3.049   0.226  0.2699 -0.8557 -0.0597
  948SOL     OW 3789   1.816   3.039   2.636  0.3725 -0.0553  0.2728
  948SOL    HW1 3790   1.843   2.949   2.646 -2.0673 -1.6838 -1.0849
  948SOL    HW2 3791   1.771   3.042   2.550 -0.2835  1.6558 -0.0862
  948SOL     MW 3792   1.813   3.028   2.626 -0.0360 -0.0444  0.0463
  949SOL     OW 3793   2.516   1.873   2.230 -0.1910  0.2457  0.0616
  949SOL    HW1 3794   2.500   1.795   2.283 -0.7006 -0.9652  0.1445
  949SOL    HW2 3795   2.482   1.955   2.268  1.7534  2.6530 -0.0074
  949SOL     MW 3796   2.510   1.874   2.242 -0.0017  0.4036  0.0635
  950SOL     OW 3797   2.304   2.441   2.965 -0.3674  0.1794 -0.7736
  950SOL    HW1 3798   2.349   2.412   2.884  1.2318  0.8152  1.2198
  950SOL    HW2 3799   2.218   2.474   2.928 -2.8291  1.7190  1.0220
  950SOL     MW 3800   2.299   2.442   2.949 -0.4812  0.4664 -0.2736
  951SOL     OW 3801   3.021   2.228   2.871 -0.5439 -0.2829  0.1605
  951SOL    HW1 3802   2.979   2.230   2.956  1.7371 -0.2350 -0.1743
  951SOL    HW2 3803   3.103   2.186   2.891 -0.0092  4.5876 -1.6251
  951SOL     MW 3804   3.026   2.223   2.885 -0.1724  0.3661 -0.1192
  952SOL     OW 3805   3.062   1.731   2.113 -0.1705  0.0339 -0.0080
  952SOL    HW1 3806   3.038   1.787   2.035  0.1099  1.3044 -0.3383
  952SOL    HW2 3807   3.128   1.782   2.162 -0.4708 -0.0546  3.1040
  952SOL     MW 3808   3.067   1.745   2.109 -0.1732  0.1899  0.3590
  953SOL     OW 3809   1.923   1.773   2.905 -0.4498  0.0272 -1.1124
  953SOL    HW1 3810   1.854   1.738   2.960 -0.8690  0.0341  1.7981
  953SOL    HW2 3811   1.971   1.699   2.862 -0.3767 -0.1499  0.5264
  953SOL     MW 3812   1.920   1.758   2.906 -0.4955  0.0048 -0.5122
  954SOL     OW 3813   2.392   2.127   2.883  0.7818  0.1182 -1.2338
  954SOL    HW1 3814   2.302   2.107   2.858  1.4484  0.6631 -1.5207
  954SOL    HW2 3815   2.449   2.089   2.815 -1.3028 -0.0678  0.1572
  954SOL     MW 3816   2.388   2.119   2.870  0.5947  0.1656 -1.0881
  955SOL     OW 3817   1.570   1.528   2.561 -0.0282  0.3414  0.0666
  955SOL    HW1 3818   1.542   1.554   2.469  0.6178  1.2477  3.8459
  955SOL    HW2 3819   1.661   1.546   2.568 -0.4863  2.1651 -0.0414
  955SOL     MW 3820   1.579   1.534   2.550 -0.0034  0.7016  0.5510
  956SOL     OW 3821   2.695   2.433   2.815 -0.4632 -0.1153  0.0573
  956SOL    HW1 3822   2.692   2.391   2.898 -0.5716 -1.1219 -1.4311
  956SOL    HW2 3823   2.784   2.407   2.779 -1.4296 -2.6609  3.2024
  956SOL     MW 3824   2.706   2.424   2.821 -0.6050 -0.5840  0.2759
  957SOL     OW 3825   2.268   2.843   0.533  0.3705 -0.0079  0.3539
  957SOL    HW1 3826   2.212   2.775   0.501 -1.2282  2.9421  2.3006
  957SOL    HW2 3827   2.283   2.819   0.625 -1.8600 -1.3388 -3.8164
  957SOL     MW 3828   2.263   2.831   0.541 -0.1347  0.2057  0.0605
  958SOL     OW 3829   2.075   2.542   2.844 -0.1337 -0.0073  0.2783
  958SOL    HW1 3830   2.006   2.502   2.787  0.7708  1.8761  1.3347
  958SOL    HW2 3831   2.037   2.561   2.934  0.9833  2.1118  0.3355
  958SOL     MW 3832   2.061   2.539   2.848  0.1330  0.5208  0.4252
  959SOL     OW 3833   2.527   2.770   0.426  0.4841 -0.5599 -0.1065
  959SOL    HW1 3834   2.550   2.829   0.350  0.9658  0.8746 -0.1889
  959SOL    HW2 3835   2.443   2.806   0.456  1.7390 -0.6620 -1.0413
  959SOL     MW 3836   2.519   2.782   0.420  0.7133 -0.3841 -0.2407
  960SOL     OW 3837   1.919   2.384   2.305 -0.1434 -0.0262  0.2762
  960SOL    HW1 3838   1.939   2.291   2.323 -2.5291  0.3997  0.9711
  960SOL    HW2 3839   1.839   2.398   2.354  0.0006 -2.7274 -0.9150
  960SOL     MW 3840   1.911   2.374   2.314 -0.4392 -0.3264  0.2107
  961SOL     OW 3841   2.227   2.330   2.278 -0.2112  0.2304 -0.5925
  961SOL    HW1 3842   2.134   2.317   2.265 -0.2536 -2.5781 -0.5255
  961SOL    HW2 3843   2.240   2.386   2.361  0.6899  1.1189  0.6713
  961SOL     MW 3844   2.216   2.336   2.288 -0.0979 -0.0229 -0.4169
  962SOL     OW 3845   2.138   2.035   2.806  0.4996 -0.1705 -0.4678
  962SOL    HW1 3846   2.101   2.006   2.891 -1.2875  2.8166  3.0931
  962SOL    HW2 3847   2.154   1.944   2.766 -0.1363 -2.7058 -2.4691
  962SOL     MW 3848   2.135   2.019   2.812  0.1799 -0.1109 -0.2621
  963SOL     OW 3849   1.840   2.561   2.077 -0.1295 -0.2000  0.3334
  963SOL    HW1 3850   1.884   2.513   2.147  2.8249 -1.6464 -1.5957
  963SOL    HW2 3851   1.837   2.499   1.999 -2.6059  1.5510 -0.3028
  963SOL     MW 3852   1.845   2.547   2.076 -0.0664 -0.1598 -0.0051
  964SOL     OW 3853   1.809   1.872   2.679 -0.4107  0.7494 -1.0517
  964SOL    HW1 3854   1.860   1.946   2.646  0.0663 -2.8231  0.0585
  964SOL    HW2 3855   1.864   1.847   2.752 -0.0556 -0.4480 -0.0947
  964SOL     MW 3856   1.823   1.879   2.684 -0.3009  0.1201 -0.7790
  965SOL     OW 3857   2.135   2.589   0.842  0.5582  0.1483  0.8653
  965SOL    HW1 3858   2.163   2.523   0.778  1.5839 -0.2750  1.1222
  965SOL    HW2 3859   2.191   2.668   0.826  0.8165  0.8355 -0.0411
  965SOL     MW 3860   2.146   2.590   0.832  0.7276  0.1831  0.7796
  966SOL     OW 3861   2.659   2.620   2.433  0.1550  0.2163 -0.4753
  966SOL    HW1 3862   2.602   2.612   2.356  0.3948 -1.1992  2.5847
  966SOL    HW2 3863   2.688   2.530   2.452 -0.8042 -1.5458 -2.0399
  966SOL     MW 3864   2.656   2.607   2.425  0.0600 -0.2030 -0.2780
  967SOL     OW 3865   2.666   0.048   3.075 -0.5078  0.4582  0.3002
  967SOL    HW1 3866   2.660  -0.049   3.105 -2.2584 -2.9696 -1.0285
  967SOL    HW2 3867   2.660   0.049   2.982 -1.4054 -0.4815  1.7632
  967SOL     MW 3868   2.665   0.035   3.067 -0.8572 -0.1180  0.3179
  968SOL     OW 3869   3.012   2.671   2.905 -0.0526 -0.1806  0.7305
  968SOL    HW1 3870   2.918   2.689   2.897  1.3137 -3.8179 -2.9847
  968SOL    HW2 3871   3.038   2.638   2.821 -0.2297 -1.1308  1.4534
  968SOL     MW 3872   3.003   2.669   2.893  0.1043 -0.7859  0.3357
  969SOL     OW 3873   1.577   2.100   1.725  0.2574 -0.0187  0.6581
  969SOL    HW1 3874   1.642   2.029   1.725  0.3173  2.0383 -1.1523
  969SOL    HW2 3875   1.565   2.127   1.813 -1.1335 -0.5840 -1.3172
  969SOL     MW 3876   1.584   2.094   1.737  0.0818  0.1781  0.1586
  970SOL     OW 3877   1.730   1.808   1.871 -0.3006 -0.0926 -0.2759
  970SOL    HW1 3878   1.771   1.726   1.893 -2.3703 -0.4547  1.3077
  970SOL    HW2 3879   1.638   1.785   1.892 -1.0613  0.7232 -2.1568
  970SOL     MW 3880   1.723   1.794   1.876 -0.6741 -0.0327 -0.3151
  971SOL     OW 3881   1.752  -0.002   2.362  0.1662  0.1590  0.1068
  971SOL    HW1 3882   1.794  -0.059   2.291  0.3146 -3.2392  0.8384
  971SOL    HW2 3883   1.798   0.085   2.341  0.5112 -0.8022 -1.0324
  971SOL     MW 3884   1.764   0.002   2.350  0.2313 -0.4162  0.0530
  972SOL     OW 3885   0.308   2.840   2.395 -0.2507 -0.8438  0.5687
  972SOL    HW1 3886   0.354   2.772   2.445 -1.1094  1.4324 -1.2861
  972SOL    HW2 3887   0.342   2.925   2.421  1.8125  0.5832  1.2488
  972SOL     MW 3888   0.319   2.842   2.405 -0.0918 -0.3552  0.4137
  973SOL     OW 3889   2.619   3.017   2.127 -0.4151 -0.0057  0.2027
  973SOL    HW1 3890   2.601   2.936   2.076  0.7427  3.1598  1.9173
  973SOL    HW2 3891   2.671   3.065   2.066  2.4872 -1.1860  2.3411
  973SOL     MW 3892   2.624   3.013   2.112  0.1206  0.2562  0.7111
  974SOL     OW 3893   2.000   0.151   2.586  0.4769 -0.1679  0.7043
  974SOL    HW1 3894   2.057   0.156   2.662 -0.1769 -1.8266 -1.5952
  974SOL    HW2 3895   1.958   0.067   2.605  0.4228  0.3981  0.1016
  974SOL     MW 3896   2.002   0.140   2.598  0.3835 -0.3121  0.3214
  975SOL     OW 3897   2.187   2.475   2.506  0.0131 -0.3183 -0.0005
  975SOL    HW1 3898   2.267   2.511   2.543 -0.9550 -2.6523 -0.9719
  975SOL    HW2 3899   2.132   2.561   2.501 -1.6593  0.3865 -0.6885
  975SOL     MW 3900   2.190   2.491   2.510 -0.3353 -0.5332 -0.2194
  976SOL     OW 3901   0.180   0.357   1.589 -0.1217 -0.3133 -0.1058
  976SOL    HW1 3902   0.248   0.292   1.610  1.0523  0.9160  1.8689
  976SOL    HW2 3903   0.097   0.316   1.574 -0.9689  1.5124  1.1583
  976SOL     MW 3904   0.178   0.343   1.590 -0.0786  0.0897  0.3215
  977SOL     OW 3905   1.761   2.746   2.382 -0.2049  0.1988 -0.2058
  977SOL    HW1 3906   1.844   2.708   2.411 -1.1772 -4.9680  2.4245
  977SOL    HW2 3907   1.776   2.838   2.359 -1.4645 -0.1041  2.2570
  977SOL     MW 3908   1.774   2.753   2.383 -0.4994 -0.5229  0.4662
   3.10000   3.10000   3.10000
