977 TIP4P/2005f water molecules t=   1.44000 step= 1440
 3908
    1SOL     OW    1   0.366   0.875   0.052 -0.2100  0.1666  0.7852
    1SOL    HW1    2   0.325   0.907  -0.029  0.4827  2.3399  3.5630
    1SOL    HW2    3   0.331   0.793   0.082  0.6076 -0.9019 -0.5651
    1SOL     MW    4   0.356   0.869   0.045 -0.0108  0.3123  0.9736
    2SOL     OW    5   0.315   3.056   1.116 -0.7554 -0.0361 -0.6242
    2SOL    HW1    6   0.361   3.132   1.079  1.4050  0.0159 -0.3726
    2SOL    HW2    7   0.225   3.084   1.118 -0.6294 -2.4277  0.9573
    2SOL     MW    8   0.309   3.070   1.111 -0.4537 -0.3447 -0.3823
    3SOL     OW    9   2.647   0.329   0.970 -0.0193  0.1118 -0.2355
    3SOL    HW1   10   2.679   0.410   0.928 -1.5458 -3.9072  1.5994
    3SOL    HW2   11   2.615   0.355   1.053 -0.6551  2.1557  1.7017
    3SOL     MW   12   2.647   0.343   0.976 -0.3046 -0.1488  0.2622
    4SOL     OW   13   3.073   1.735   0.556  0.0598 -0.3221 -0.5190
    4SOL    HW1   14   3.003   1.781   0.509 -0.0988  0.0286 -2.6064
    4SOL    HW2   15   3.115   1.677   0.494  1.1163  1.5278  0.2279
    4SOL     MW   16   3.069   1.733   0.541  0.1782 -0.0317 -0.6959
    5SOL     OW   17   1.636   1.484   0.628  0.3548 -0.3215 -0.1853
    5SOL    HW1   18   1.674   1.422   0.686 -0.0664 -3.5158 -1.3976
    5SOL    HW2   19   1.536   1.497   0.648 -3.8472  1.1410  1.2532
    5SOL     MW   20   1.628   1.478   0.638 -0.2552 -0.5500 -0.1555
    6SOL     OW   21   0.789   1.410   0.598  0.4105  0.5680  0.2479
    6SOL    HW1   22   0.700   1.438   0.601 -0.3628  0.3073  0.5784
    6SOL    HW2   23   0.809   1.335   0.651 -2.3790  1.5532 -1.7974
    6SOL     MW   24   0.780   1.404   0.605 -0.0596  0.6636  0.0216
    7SOL     OW   25   1.990   1.062   0.013 -0.3956 -0.1583  0.0334
    7SOL    HW1   26   2.054   1.117  -0.031  2.1219  1.5829 -2.0619
    7SOL    HW2   27   2.018   1.047   0.103 -1.1874 -1.2620  0.1162
    7SOL     MW   28   2.002   1.067   0.019 -0.1679 -0.0742 -0.2322
    8SOL     OW   29   0.780   1.512   1.171  0.1269 -0.3477 -0.0747
    8SOL    HW1   30   0.876   1.516   1.193 -0.8569 -1.6455  1.0319
    8SOL    HW2   31   0.771   1.418   1.158 -1.8946  1.0932 -1.9965
    8SOL     MW   32   0.792   1.500   1.172 -0.2697 -0.3289 -0.1823
    9SOL     OW   33   1.028   0.464   1.339 -0.3940 -0.5550 -0.7797
    9SOL    HW1   34   0.948   0.406   1.328 -0.7109  1.4999 -1.5186
    9SOL    HW2   35   1.077   0.434   1.416  1.0661  0.6459  0.4150
    9SOL     MW   36   1.024   0.453   1.348 -0.2432 -0.1254 -0.7196
   10SOL     OW   37   0.269   0.821   0.515  0.9117  0.4212 -0.0448
   10SOL    HW1   38   0.344   0.863   0.468 -1.9794  5.0003  0.6696
   10SOL    HW2   39   0.250   0.875   0.593 -1.8885 -0.5627 -1.5634
   10SOL     MW   40   0.276   0.833   0.519  0.1608  0.8955 -0.1509
   11SOL     OW   41   0.764   1.143   1.583 -0.1863 -0.3436 -0.1210
   11SOL    HW1   42   0.819   1.148   1.669  1.1655 -0.0722  1.2938
   11SOL    HW2   43   0.781   1.061   1.535  2.5122  0.0142 -5.1961
   11SOL     MW   44   0.773   1.133   1.588  0.3481 -0.2606 -0.6039
   12SOL     OW   45   3.046   1.131   0.863  0.4110 -0.0954  0.3231
   12SOL    HW1   46   3.098   1.201   0.896  1.0403  0.0159 -0.1683
   12SOL    HW2   47   3.005   1.159   0.779 -0.2074  1.2151 -3.3809
   12SOL     MW   48   3.048   1.144   0.856  0.4124  0.0922 -0.2305
   13SOL     OW   49   1.832   1.420   1.278  0.5389 -0.3193 -0.4886
   13SOL    HW1   50   1.868   1.369   1.204  1.0545  1.7322  1.7788
   13SOL    HW2   51   1.868   1.511   1.265 -0.4177 -0.0996 -0.6372
   13SOL     MW   52   1.842   1.425   1.267  0.4807 -0.0196 -0.2091
   14SOL     OW   53   0.564   0.320   1.847  0.1834  0.4054  0.6827
   14SOL    HW1   54   0.491   0.274   1.800 -3.0534 -0.2081  1.7083
   14SOL    HW2   55   0.640   0.334   1.786  1.3502  1.1979  0.9206
   14SOL     MW   56   0.565   0.316   1.833 -0.0897  0.4290  0.8494
   15SOL     OW   57   1.995   0.355   1.055 -0.1396  0.5015  0.2547
   15SOL    HW1   58   2.039   0.408   1.123  2.1489 -0.0863 -1.5990
   15SOL    HW2   59   2.036   0.376   0.969 -0.3893 -0.9400  0.4682
   15SOL     MW   60   2.006   0.365   1.053  0.1294  0.2338  0.0383
   16SOL     OW   61   0.237   1.817   0.272  0.1246  0.0126 -0.8518
   16SOL    HW1   62   0.328   1.781   0.280 -1.5772 -1.1763  1.5369
   16SOL    HW2   63   0.241   1.896   0.327  0.9269  1.2610 -0.2165
   16SOL     MW   64   0.249   1.823   0.280  0.0059  0.0205 -0.4528
   17SOL     OW   65   1.078   0.887   1.416 -0.0119  0.7973 -0.0321
   17SOL    HW1   66   1.100   0.869   1.512 -0.6217 -1.4673  0.1998
   17SOL    HW2   67   0.982   0.880   1.413  0.5741 -1.0411 -1.5439
   17SOL     MW   68   1.068   0.883   1.428 -0.0150  0.2560 -0.2010
   18SOL     OW   69   0.141   1.584   0.355 -0.4847  0.2483  0.2293
   18SOL    HW1   70   0.160   1.674   0.322 -0.9739  2.5149 -1.0512
   18SOL    HW2   71   0.118   1.537   0.269  0.4271 -0.0387 -3.7949
   18SOL     MW   72   0.140   1.590   0.340 -0.4290  0.5095 -0.4706
   19SOL     OW   73   0.090   1.390   0.943 -0.3120 -0.0400 -0.2022
   19SOL    HW1   74   0.118   1.400   0.853  0.6647 -0.4763 -0.7355
   19SOL    HW2   75  -0.001   1.421   0.941  2.8082 -0.7837 -0.3218
   19SOL     MW   76   0.082   1.395   0.931  0.2285 -0.1957 -0.2883
   20SOL     OW   77   0.428   2.170   1.223  0.0197 -0.1239  0.4134
   20SOL    HW1   78   0.424   2.086   1.174 -0.6454 -3.6651  1.9248
   20SOL    HW2   79   0.418   2.141   1.314  2.2807  0.6358  1.2257
   20SOL     MW   80   0.426   2.155   1.229  0.2302 -0.4909  0.7200
   21SOL     OW   81   0.515   0.890   0.418  0.4621 -0.3766  0.6132
   21SOL    HW1   82   0.593   0.865   0.462  2.0244  0.2648 -1.7554
   21SOL    HW2   83   0.534   0.913   0.332 -0.1666  0.9802  2.4820
   21SOL     MW   84   0.528   0.890   0.412  0.5853 -0.1130  0.5473
   22SOL     OW   85   1.575   0.712   0.962  0.8263 -0.0327  0.7200
   22SOL    HW1   86   1.563   0.660   0.886  0.9149  1.0444 -0.2567
   22SOL    HW2   87   1.495   0.754   0.977  0.0965 -1.1415 -1.5593
   22SOL     MW   88   1.563   0.711   0.954  0.7417 -0.0369  0.2904
   23SOL     OW   89   3.078   0.705   0.690 -0.4167  0.5689  0.2277
   23SOL    HW1   90   3.139   0.643   0.731 -0.3341  1.5266 -1.5923
   23SOL    HW2   91   3.140   0.781   0.683  1.1050 -0.8116  0.7777
   23SOL     MW   92   3.094   0.707   0.695 -0.2050  0.5131  0.0602
   24SOL     OW   93   2.083   2.189   3.088  0.3898  0.3375  0.8496
   24SOL    HW1   94   2.082   2.192   3.183  2.6977  1.9255 -1.3074
   24SOL    HW2   95   2.089   2.092   3.080  0.3893  0.8020  0.2232
   24SOL     MW   96   2.084   2.177   3.100  0.6943  0.6083  0.4824
   25SOL     OW   97   0.236   1.343   0.417  0.1313 -0.2537  0.1313
   25SOL    HW1   98   0.225   1.443   0.407 -2.0830  0.5181 -0.8168
   25SOL    HW2   99   0.318   1.333   0.367 -2.3027 -0.8968  0.0948
   25SOL     MW  100   0.245   1.355   0.409 -0.4820 -0.2367  0.0014
   26SOL     OW  101   2.042   1.010   0.293  0.1097  0.0310  0.5871
   26SOL    HW1  102   1.971   1.031   0.353  1.1920 -2.0171  0.8340
   26SOL    HW2  103   2.096   1.080   0.312 -6.0129 -2.4983  2.1117
   26SOL     MW  104   2.040   1.022   0.303 -0.5553 -0.5729  0.8208
   27SOL     OW  105   1.865   1.374   0.186 -0.2836 -0.8709 -0.8559
   27SOL    HW1  106   1.799   1.441   0.206 -0.9539 -1.1006 -1.7951
   27SOL    HW2  107   1.928   1.383   0.261 -0.1386  0.7595 -0.4310
   27SOL     MW  108   1.865   1.384   0.199 -0.3529 -0.6861 -0.9237
   28SOL     OW  109   0.468   0.972   2.010 -0.4680 -0.4209 -0.0731
   28SOL    HW1  110   0.532   0.944   2.076 -1.7101 -2.3471 -2.1635
   28SOL    HW2  111   0.383   0.928   2.017  1.2560  0.4177 -0.4722
   28SOL     MW  112   0.465   0.962   2.020 -0.4044 -0.5644 -0.4015
   29SOL     OW  113   0.259   1.393   0.702  0.3928 -0.5200  0.2281
   29SOL    HW1  114   0.257   1.492   0.708  0.3394  1.9031  0.9390
   29SOL    HW2  115   0.248   1.370   0.605 -4.6632  1.4317  0.2074
   29SOL     MW  116   0.257   1.403   0.690 -0.2813  0.0572  0.3192
   30SOL     OW  117   0.797   1.244   1.225  0.4148 -0.1937  0.6368
   30SOL    HW1  118   0.704   1.238   1.257 -1.6038  2.8975 -1.4986
   30SOL    HW2  119   0.856   1.209   1.290 -2.6296 -1.0439 -3.1754
   30SOL     MW  120   0.793   1.239   1.238 -0.2532  0.1020 -0.1479
   31SOL     OW  121   0.458   0.288   0.150  0.3578 -0.3007 -0.7518
   31SOL    HW1  122   0.484   0.210   0.202 -1.1634 -0.7573 -0.3735
   31SOL    HW2  123   0.505   0.272   0.068  1.4490 -0.3848  0.5444
   31SOL     MW  124   0.468   0.276   0.146  0.3011 -0.3720 -0.5308
   32SOL     OW  125   2.689   0.984   1.147  0.0730  0.3580  0.4921
   32SOL    HW1  126   2.638   0.900   1.147 -0.6952 -3.4279 -0.5767
   32SOL    HW2  127   2.775   0.964   1.114 -0.1911  1.6222  2.7248
   32SOL     MW  128   2.693   0.970   1.143 -0.0632  0.0253  0.6457
   33SOL     OW  129   1.639   1.317   0.406  0.3391 -0.1435  0.4859
   33SOL    HW1  130   1.692   1.240   0.430  1.3279 -1.5036  1.3209
   33SOL    HW2  131   1.641   1.370   0.485 -0.7206 -1.6674  0.1172
   33SOL     MW  132   1.646   1.314   0.419  0.3297 -0.5240  0.5475
   34SOL     OW  133   1.215   1.947   1.125 -0.3731 -0.0848  0.3400
   34SOL    HW1  134   1.130   1.985   1.133  0.2383 -3.9354  0.1045
   34SOL    HW2  135   1.276   1.982   1.190  1.7405  1.8306  1.9959
   34SOL     MW  136   1.212   1.957   1.135 -0.0135 -0.3401  0.5274
   35SOL     OW  137   0.319   0.154   1.822 -0.4309  0.4675  0.3931
   35SOL    HW1  138   0.357   0.116   1.900  0.3834  0.8415 -0.6064
   35SOL    HW2  139   0.331   0.082   1.756  1.4855  2.4371 -1.7415
   35SOL     MW  140   0.326   0.139   1.823 -0.0706  0.7767 -0.0204
   36SOL     OW  141   1.933   1.925   0.592 -0.1220  0.4659  0.2285
   36SOL    HW1  142   1.911   1.904   0.502 -1.1347  1.0185 -0.9985
   36SOL    HW2  143   1.898   1.838   0.625 -1.1890  0.2279 -0.9426
   36SOL     MW  144   1.925   1.911   0.584 -0.3964  0.5074 -0.0879
   37SOL     OW  145   1.824   2.010   1.027  0.0606  0.3016  0.3690
   37SOL    HW1  146   1.758   1.964   0.976  1.3951 -0.7947  0.5210
   37SOL    HW2  147   1.779   2.070   1.090  5.1991  2.7442  2.3196
   37SOL     MW  148   1.809   2.012   1.028  0.9146  0.4792  0.6464
   38SOL     OW  149   2.823   0.901   0.139  0.8442  0.3262  0.3583
   38SOL    HW1  150   2.862   0.889   0.228  0.8591  1.4538 -1.9309
   38SOL    HW2  151   2.904   0.901   0.084  3.0962  2.1069  2.6760
   38SOL     MW  152   2.839   0.900   0.143  1.1433  0.7099  0.3620
   39SOL     OW  153   1.466   0.570   0.746  0.6529  0.5865 -0.1541
   39SOL    HW1  154   1.408   0.497   0.763 -1.8915  2.0041 -0.9838
   39SOL    HW2  155   1.406   0.644   0.745 -1.1045  1.0403 -1.5367
   39SOL     MW  156   1.451   0.570   0.748  0.0853  0.8334 -0.4460
   40SOL     OW  157   1.266   1.884   0.263  0.3160  0.5356  0.4261
   40SOL    HW1  158   1.319   1.836   0.321 -1.9831 -0.0340  0.0457
   40SOL    HW2  159   1.231   1.963   0.308 -0.3982 -0.3717  1.2818
   40SOL     MW  160   1.269   1.889   0.277 -0.0816  0.3407  0.4888
   41SOL     OW  161   0.583   0.523   1.623 -0.5528  0.3882 -0.1371
   41SOL    HW1  162   0.658   0.551   1.569  1.1159  2.5876 -0.4585
   41SOL    HW2  163   0.509   0.567   1.599  0.0732 -1.7518  2.4369
   41SOL     MW  164   0.583   0.533   1.613 -0.2501  0.3960  0.1601
   42SOL     OW  165   1.282   3.005   1.941 -0.3969  0.2920 -0.1857
   42SOL    HW1  166   1.195   3.016   1.985  0.3068 -1.5174  1.7216
   42SOL    HW2  167   1.310   2.924   1.981  1.3327  0.9938 -0.5676
   42SOL     MW  168   1.274   2.996   1.952 -0.0758  0.1459  0.0156
   43SOL     OW  169   1.494   0.141   1.676  0.2583 -0.1879  0.6528
   43SOL    HW1  170   1.579   0.100   1.669  1.6570 -0.2461 -1.6867
   43SOL    HW2  171   1.428   0.087   1.639  1.3888  1.1317  0.8054
   43SOL     MW  172   1.496   0.128   1.670  0.5920 -0.0214  0.3643
   44SOL     OW  173   1.286   0.736   1.068 -0.3658 -0.0267 -0.2579
   44SOL    HW1  174   1.264   0.831   1.078 -2.4714  2.0471  0.6218
   44SOL    HW2  175   1.290   0.716   1.163  2.8555  2.5431  1.0941
   44SOL     MW  176   1.283   0.746   1.082 -0.2186  0.5860  0.0366
   45SOL     OW  177   1.278   0.762   0.772  0.1118  0.1349 -0.0541
   45SOL    HW1  178   1.233   0.744   0.854 -0.7748  0.9288 -0.5245
   45SOL    HW2  179   1.199   0.740   0.706 -1.0391 -0.8993 -1.1095
   45SOL     MW  180   1.262   0.757   0.774 -0.1570  0.1032 -0.2554
   46SOL     OW  181   0.516   1.110   0.648 -0.2710  0.1221  0.3538
   46SOL    HW1  182   0.515   1.099   0.553 -0.7549  0.1874 -1.2664
   46SOL    HW2  183   0.600   1.152   0.661  0.8903  1.4539 -1.9601
   46SOL     MW  184   0.527   1.114   0.637 -0.1816  0.3065 -0.1653
   47SOL     OW  185   0.174   1.971   1.956 -0.7810  0.0015  0.2288
   47SOL    HW1  186   0.113   1.924   1.906  0.7564 -0.3201 -0.4961
   47SOL    HW2  187   0.165   1.923   2.035 -1.0468  1.0201 -1.2109
   47SOL     MW  188   0.165   1.958   1.960 -0.6132  0.0935 -0.0568
   48SOL     OW  189   1.155   0.505   1.015  0.7010 -0.2868 -0.1489
   48SOL    HW1  190   1.066   0.522   1.048 -2.2620  0.5990 -1.1635
   48SOL    HW2  191   1.209   0.584   1.038  0.2233  2.2770  1.9580
   48SOL     MW  192   1.150   0.518   1.022  0.2470  0.1683 -0.0048
   49SOL     OW  193   1.692   0.627   1.533 -0.2761  0.1562  0.6806
   49SOL    HW1  194   1.703   0.569   1.608  0.6933  0.2611 -0.0824
   49SOL    HW2  195   1.711   0.575   1.456  0.9643  0.4878  1.3710
   49SOL     MW  196   1.696   0.612   1.533  0.0155  0.2138  0.6710
   50SOL     OW  197   1.265   1.196   0.585 -0.0905  1.0012  0.0882
   50SOL    HW1  198   1.207   1.183   0.671  1.7971 -0.7455  3.9733
   50SOL    HW2  199   1.329   1.127   0.591 -1.6844  2.6945  0.4227
   50SOL     MW  200   1.266   1.186   0.597 -0.0518  0.9942  0.6449
   51SOL     OW  201   0.322   2.910   0.892 -0.4050  0.0317 -0.5149
   51SOL    HW1  202   0.409   2.857   0.896 -0.6744 -0.3077  0.8700
   51SOL    HW2  203   0.325   2.951   0.980 -0.7100  0.2582  0.9253
   51SOL     MW  204   0.334   2.908   0.904 -0.4808  0.0168 -0.1422
   52SOL     OW  205   0.812   1.833   0.468  0.1919  0.3933 -0.0231
   52SOL    HW1  206   0.767   1.921   0.471 -0.1152  0.0220 -1.7251
   52SOL    HW2  207   0.822   1.819   0.375 -1.9233 -0.4039  0.6306
   52SOL     MW  208   0.807   1.843   0.457 -0.1277  0.2391 -0.1614
   53SOL     OW  209   0.433   2.152   0.487  0.0070  0.0611 -0.3392
   53SOL    HW1  210   0.358   2.141   0.430 -2.9471 -0.7313  1.7427
   53SOL    HW2  211   0.428   2.236   0.536  0.7184 -0.8444 -0.0059
   53SOL     MW  212   0.423   2.162   0.486 -0.2889 -0.1629 -0.0206
   54SOL     OW  213   2.067   0.941   0.770 -0.2412  0.4430 -0.3038
   54SOL    HW1  214   2.096   0.931   0.681 -0.3290  1.3776 -0.1414
   54SOL    HW2  215   2.043   0.853   0.803 -1.0680  1.0594 -0.7103
   54SOL     MW  216   2.068   0.928   0.762 -0.3619  0.6476 -0.3360
   55SOL     OW  217   0.500   1.559   1.661  0.0130 -0.0870  0.5616
   55SOL    HW1  218   0.462   1.585   1.579  0.7928  1.0010  3.3345
   55SOL    HW2  219   0.579   1.512   1.626 -2.6074 -0.9003 -2.2196
   55SOL     MW  220   0.506   1.556   1.646 -0.2299 -0.0507  0.5605
   56SOL     OW  221   0.626   0.879   0.160  0.2881 -0.1503  0.2809
   56SOL    HW1  222   0.686   0.953   0.168  0.0957  1.2786  1.0582
   56SOL    HW2  223   0.562   0.916   0.099  0.8117  2.0697  1.3406
   56SOL     MW  224   0.625   0.894   0.153  0.3318  0.3311  0.5232
   57SOL     OW  225   1.166   1.236   1.171 -0.6822  0.4401  0.0827
   57SOL    HW1  226   1.243   1.283   1.196 -1.1227  1.3852 -1.1123
   57SOL    HW2  227   1.118   1.193   1.245 -3.0944 -0.4740 -0.6576
   57SOL     MW  228   1.170   1.236   1.184 -1.0586  0.4442 -0.1727
   58SOL     OW  229   0.545   1.254   1.276 -0.2695 -0.1055 -0.0020
   58SOL    HW1  230   0.500   1.339   1.276 -1.4210  1.6748  0.0148
   58SOL    HW2  231   0.550   1.228   1.366 -0.1912  2.4655  0.6961
   58SOL     MW  232   0.540   1.262   1.288 -0.4111  0.4686  0.0924
   59SOL     OW  233   1.478   1.670   0.327 -0.7220 -0.3073 -0.1368
   59SOL    HW1  234   1.512   1.724   0.394  0.1278 -1.2927 -0.7517
   59SOL    HW2  235   1.414   1.618   0.369  0.1167  1.0126  1.5887
   59SOL     MW  236   1.474   1.671   0.341 -0.4992 -0.2631  0.0097
   60SOL     OW  237   3.072   0.162   1.711 -0.3093  0.0697 -0.2591
   60SOL    HW1  238   3.000   0.227   1.739  0.9825  2.7460  0.5447
   60SOL    HW2  239   3.081   0.102   1.780 -0.7630 -2.7221  1.5662
   60SOL     MW  240   3.064   0.163   1.724 -0.1987  0.0545  0.0878
   61SOL     OW  241   1.979   1.378   3.014 -0.2097  0.0368  0.4319
   61SOL    HW1  242   1.961   1.379   3.115  0.7803 -2.6079  0.9128
   61SOL    HW2  243   2.054   1.326   2.988 -0.4392 -1.1106 -3.3151
   61SOL     MW  244   1.986   1.372   3.024 -0.1094 -0.4635  0.0009
   62SOL     OW  245   0.536   1.736   0.545  0.0028  0.2217  0.2759
   62SOL    HW1  246   0.627   1.733   0.531 -0.1627 -0.9039  2.1623
   62SOL    HW2  247   0.511   1.644   0.541  0.8547  2.7139 -1.0461
   62SOL     MW  248   0.545   1.724   0.542  0.0933  0.4020  0.3503
   63SOL     OW  249   1.727   0.653   0.654 -0.1417  0.2458 -0.2590
   63SOL    HW1  250   1.714   0.748   0.647 -1.0840  0.8044 -1.3743
   63SOL    HW2  251   1.635   0.619   0.666 -0.1844  1.1250  1.4543
   63SOL     MW  252   1.713   0.661   0.655 -0.2716  0.4355 -0.1801
   64SOL     OW  253   0.262   1.663   0.760 -0.5261 -0.5594 -0.2753
   64SOL    HW1  254   0.336   1.720   0.782 -0.3987 -0.1291  2.6314
   64SOL    HW2  255   0.190   1.726   0.773  2.4571 -0.1671  1.2886
   64SOL     MW  256   0.262   1.678   0.765 -0.1157 -0.4509  0.3146
   65SOL     OW  257   1.555   2.307   0.364 -0.4388 -0.0788 -0.5472
   65SOL    HW1  258   1.644   2.342   0.383 -0.4767 -1.1320  0.0265
   65SOL    HW2  259   1.508   2.335   0.448 -3.1570  2.2971  1.6249
   65SOL     MW  260   1.561   2.316   0.378 -0.8024  0.0958 -0.1849
   66SOL     OW  261   0.349   0.570   0.480 -0.2880  0.3545 -0.0052
   66SOL    HW1  262   0.414   0.585   0.411  1.0330 -0.8761  2.0864
   66SOL    HW2  263   0.314   0.662   0.508  0.7490  0.7288  1.7262
   66SOL     MW  264   0.353   0.584   0.475  0.0231  0.2415  0.4992
   67SOL     OW  265   1.474   0.097   1.968  0.0324 -0.6281 -0.4452
   67SOL    HW1  266   1.464   0.154   1.893 -0.1401 -1.8089  1.3273
   67SOL    HW2  267   1.424   0.013   1.951 -2.3403 -1.2992 -1.9072
   67SOL     MW  268   1.466   0.093   1.956 -0.3034 -0.8724 -0.4042
   68SOL     OW  269   0.768   0.001   2.976  0.2027 -0.2979  0.2021
   68SOL    HW1  270   0.785   0.022   2.884  0.0787  3.1827  1.9870
   68SOL    HW2  271   0.847   0.014   3.034 -1.2155 -4.1132  0.5210
   68SOL     MW  272   0.781   0.006   2.972 -0.0008 -0.3421  0.4796
   69SOL     OW  273   0.950   0.193   1.958  0.0427  0.0184  0.0548
   69SOL    HW1  274   1.034   0.214   2.007 -0.4833  2.6299  0.0265
   69SOL    HW2  275   0.949   0.097   1.969 -0.7202 -1.5514  3.2901
   69SOL     MW  276   0.961   0.183   1.966 -0.1273  0.1558  0.4779
   70SOL     OW  277   0.479   1.697   1.076 -0.0858  0.5612 -0.0675
   70SOL    HW1  278   0.560   1.718   1.123 -0.9792 -0.0560 -1.2454
   70SOL    HW2  279   0.517   1.646   1.001  0.7670 -2.4244  1.9220
   70SOL     MW  280   0.494   1.693   1.073 -0.0911  0.0859  0.0396
   71SOL     OW  281   1.504   0.549   1.180 -0.8581  0.2541  0.1680
   71SOL    HW1  282   1.502   0.609   1.252 -1.8059 -1.4115  0.9633
   71SOL    HW2  283   1.515   0.602   1.100  2.6780  0.5294 -0.3634
   71SOL     MW  284   1.505   0.564   1.179 -0.5166  0.0707  0.2028
   72SOL     OW  285   0.761   1.866   1.011 -0.6070 -0.1058  0.3086
   72SOL    HW1  286   0.747   1.953   0.977 -0.3135 -1.3760  0.8200
   72SOL    HW2  287   0.766   1.820   0.931  1.0620 -0.4889  0.9087
   72SOL     MW  288   0.760   1.871   0.996 -0.3481 -0.3239  0.4552
   73SOL     OW  289   1.230   0.680   1.332  0.1272 -0.1510  0.2759
   73SOL    HW1  290   1.168   0.614   1.337  0.3700 -0.8483 -0.2283
   73SOL    HW2  291   1.170   0.758   1.347 -2.4932 -0.5350  1.3128
   73SOL     MW  292   1.214   0.681   1.335 -0.1865 -0.2937  0.3462
   74SOL     OW  293   2.883   0.232   1.057  0.2041 -0.6540 -0.0125
   74SOL    HW1  294   2.895   0.171   0.982  1.9251 -3.3916 -1.7028
   74SOL    HW2  295   2.817   0.292   1.019  0.8933  1.3008 -1.3694
   74SOL     MW  296   2.876   0.232   1.042  0.5221 -0.7573 -0.4146
   75SOL     OW  297   1.584   1.322   0.108  0.1450  0.0840  0.0233
   75SOL    HW1  298   1.659   1.265   0.077 -0.1709  0.7847  0.2857
   75SOL    HW2  299   1.607   1.342   0.203 -0.3692  1.6483 -1.0773
   75SOL     MW  300   1.597   1.317   0.117  0.0354  0.3829 -0.0873
   76SOL     OW  301   2.991   0.610   0.463  0.1628  0.7223 -0.2476
   76SOL    HW1  302   3.033   0.650   0.542  0.4514 -0.1615  0.1939
   76SOL    HW2  303   3.058   0.566   0.411  0.4447  1.2999  1.2618
   76SOL     MW  304   3.006   0.609   0.467  0.2381  0.6819  0.0098
   77SOL     OW  305   0.907   0.562   0.415 -0.3005  0.5853 -0.5715
   77SOL    HW1  306   0.871   0.568   0.328  0.4782 -0.5876 -0.5773
   77SOL    HW2  307   0.900   0.468   0.426  1.6940  1.5958 -0.1013
   77SOL     MW  308   0.901   0.550   0.405  0.0654  0.5639 -0.5102
   78SOL     OW  309   0.755   0.874   1.142 -0.6874 -0.3936  0.2590
   78SOL    HW1  310   0.798   0.953   1.097  0.6453  1.6008 -1.6004
   78SOL    HW2  311   0.666   0.871   1.112  1.3578  2.4553 -0.5304
   78SOL     MW  312   0.749   0.884   1.132 -0.2417  0.2454 -0.0905
   79SOL     OW  313   1.882   1.650   0.619 -0.3538 -0.4108 -0.7121
   79SOL    HW1  314   1.802   1.605   0.594 -1.5965 -1.8760 -0.0696
   79SOL    HW2  315   1.893   1.632   0.715 -4.1378  0.2242 -1.9366
   79SOL     MW  316   1.873   1.641   0.629 -1.0170 -0.5203 -0.7889
   80SOL     OW  317   0.070   0.954   0.374 -0.5544  0.3399  0.0778
   80SOL    HW1  318  -0.019   0.929   0.391  0.2330 -1.8213 -0.6595
   80SOL    HW2  319   0.124   0.910   0.435  1.7885  2.3901 -0.4918
   80SOL     MW  320   0.065   0.945   0.384 -0.1414  0.3253 -0.0946
   81SOL     OW  321   1.861   1.879   0.326 -0.1425 -0.5709  0.5477
   81SOL    HW1  322   1.829   1.796   0.294 -0.2704 -2.8498 -1.8195
   81SOL    HW2  323   1.812   1.943   0.267  0.3783  0.2232 -1.1825
   81SOL     MW  324   1.850   1.876   0.314 -0.0907 -0.7668  0.0071
   82SOL     OW  325   0.869   1.034   0.510  0.2443 -0.3272  0.0276
   82SOL    HW1  326   0.877   1.077   0.425  0.8857 -1.0006 -0.5469
   82SOL    HW2  327   0.818   0.949   0.505 -0.6886 -1.2208 -1.0913
   82SOL     MW  328   0.863   1.029   0.498  0.2058 -0.5339 -0.1958
   83SOL     OW  329   0.047   0.747   1.488 -0.0180  0.3607 -0.1809
   83SOL    HW1  330   0.050   0.804   1.411 -0.5033  2.0342 -1.8411
   83SOL    HW2  331   0.110   0.678   1.470  3.6219  1.9112 -2.8439
   83SOL     MW  332   0.056   0.746   1.475  0.3982  0.7861 -0.7513
   84SOL     OW  333   0.042   0.204   0.895 -0.2093 -0.0237  0.1466
   84SOL    HW1  334   0.011   0.289   0.937 -1.9017  2.0946 -1.8308
   84SOL    HW2  335   0.031   0.137   0.965 -0.2281 -1.0220  2.1209
   84SOL     MW  336   0.036   0.206   0.910 -0.4351  0.1241  0.1462
   85SOL     OW  337   0.394   0.439   0.708 -0.1145  0.1498  0.0892
   85SOL    HW1  338   0.385   0.468   0.620  1.5340 -0.2583  1.3988
   85SOL    HW2  339   0.365   0.347   0.715 -1.0301  1.3541  0.3756
   85SOL     MW  340   0.389   0.431   0.697 -0.0178  0.2548  0.2998
   86SOL     OW  341   1.185   0.245   1.139  0.3825  0.0774  0.5315
   86SOL    HW1  342   1.170   0.340   1.136  1.2062 -0.3499 -1.1391
   86SOL    HW2  343   1.276   0.243   1.150  2.1614 -0.3629  1.6429
   86SOL     MW  344   1.195   0.258   1.140  0.7259 -0.0371  0.4577
   87SOL     OW  345   1.055   1.495   1.210 -0.1375  0.4586 -0.1749
   87SOL    HW1  346   1.113   1.550   1.159 -2.9269  0.1412  1.1120
   87SOL    HW2  347   1.072   1.406   1.182  0.9129 -1.7712 -0.0227
   87SOL     MW  348   1.065   1.491   1.199 -0.3670  0.1226  0.0150
   88SOL     OW  349   1.236   1.023   0.995  0.5600 -0.2657  0.0848
   88SOL    HW1  350   1.329   1.029   0.976 -0.0347  0.7321  0.6225
   88SOL    HW2  351   1.215   1.104   1.047 -1.8379  1.7886 -0.3252
   88SOL     MW  352   1.246   1.035   1.000  0.1652  0.1370  0.1016
   89SOL     OW  353   1.734   0.729   0.372  0.2136 -0.1034 -0.8005
   89SOL    HW1  354   1.720   0.637   0.390 -0.1187 -0.8355 -1.6377
   89SOL    HW2  355   1.830   0.729   0.347  2.1990 -0.3374  1.2030
   89SOL     MW  356   1.745   0.717   0.371  0.4317 -0.2309 -0.6466
   90SOL     OW  357   0.855   1.156   2.881  0.4660  0.1385 -0.2885
   90SOL    HW1  358   0.869   1.060   2.892 -2.0511  0.9287 -0.1730
   90SOL    HW2  359   0.862   1.191   2.973  1.3311  0.9271 -0.8523
   90SOL     MW  360   0.858   1.148   2.895  0.2480  0.3468 -0.3477
   91SOL     OW  361   2.199   0.659   0.451  0.2020 -0.0029 -0.3045
   91SOL    HW1  362   2.290   0.688   0.412  0.4695 -1.0227 -1.8403
   91SOL    HW2  363   2.185   0.569   0.429 -2.8663  1.5343  2.7609
   91SOL     MW  364   2.209   0.651   0.443 -0.1676  0.0654 -0.1027
   92SOL     OW  365   1.651   0.919   0.569 -0.0046  0.1893  0.2317
   92SOL    HW1  366   1.558   0.941   0.592  0.0143 -1.3966  0.9999
   92SOL    HW2  367   1.649   0.863   0.488 -1.1679  2.3505  0.3966
   92SOL     MW  368   1.639   0.914   0.561 -0.1556  0.2652  0.3548
   93SOL     OW  369   1.134   0.200   0.407 -0.0337  0.1171 -0.1456
   93SOL    HW1  370   1.058   0.245   0.435  1.7125 -0.9545  0.4472
   93SOL    HW2  371   1.140   0.237   0.315 -1.9614  0.0770 -1.4507
   93SOL     MW  372   1.125   0.211   0.399 -0.0576 -0.0295 -0.2396
   94SOL     OW  373   1.859   1.373   1.593  0.5371  0.6772 -0.2796
   94SOL    HW1  374   1.862   1.360   1.501 -1.2777 -1.3329 -0.7537
   94SOL    HW2  375   1.823   1.290   1.628 -1.1202  1.8349 -1.8397
   94SOL     MW  376   1.854   1.360   1.586  0.0790  0.5647 -0.5480
   95SOL     OW  377   0.640   1.546   0.917 -0.6463 -0.9713 -0.3160
   95SOL    HW1  378   0.686   1.518   1.000  2.9674 -1.3540 -4.2674
   95SOL    HW2  379   0.597   1.470   0.874  0.5510 -1.1534 -0.7607
   95SOL     MW  380   0.641   1.532   0.923 -0.0116 -1.0458 -0.8960
   96SOL     OW  381   1.328   1.869   1.726 -0.2353 -0.2720  0.1514
   96SOL    HW1  382   1.246   1.881   1.767  0.0119  0.1537  1.9968
   96SOL    HW2  383   1.335   1.785   1.681  3.1538 -0.6400 -0.8330
   96SOL     MW  384   1.318   1.859   1.726  0.2445 -0.2644  0.2650
   97SOL     OW  385   1.117   1.458   0.863 -0.2411 -0.1641  0.6693
   97SOL    HW1  386   1.165   1.526   0.911  0.3007  1.7168 -1.5298
   97SOL    HW2  387   1.038   1.502   0.839 -1.0583  0.7171  0.3395
   97SOL     MW  388   1.113   1.473   0.866 -0.2774  0.2003  0.3356
   98SOL     OW  389   1.425   1.351   1.153 -0.1433  0.6916 -0.3063
   98SOL    HW1  390   1.467   1.387   1.234 -0.6302 -0.1130  2.4134
   98SOL    HW2  391   1.429   1.420   1.087 -1.4967 -2.3287  0.2538
   98SOL     MW  392   1.431   1.365   1.155 -0.3862  0.1869  0.1264
   99SOL     OW  393   1.452   0.283   1.262 -0.8640  0.0320  0.2226
   99SOL    HW1  394   1.468   0.365   1.214 -0.9831 -2.2952  0.1034
   99SOL    HW2  395   1.430   0.314   1.346  4.8735 -0.1953  0.2950
   99SOL     MW  396   1.451   0.298   1.267 -0.1227 -0.3050  0.2164
  100SOL     OW  397   1.020   1.167   1.392  0.0269  0.2369 -0.4894
  100SOL    HW1  398   1.061   1.208   1.470 -0.6619 -0.0920  1.1750
  100SOL    HW2  399   1.028   1.071   1.407  1.1204 -1.9835 -1.2882
  100SOL     MW  400   1.026   1.159   1.405  0.0803 -0.0995 -0.3752
  101SOL     OW  401   0.544   1.181   0.355  0.4053 -0.2526  0.0020
  101SOL    HW1  402   0.481   1.129   0.307  3.1979 -1.4422 -0.5165
  101SOL    HW2  403   0.622   1.134   0.326 -1.6772  1.6588  0.2159
  101SOL     MW  404   0.546   1.168   0.345  0.4990 -0.1573 -0.0382
  102SOL     OW  405   2.892   0.646   1.042 -0.2424  0.2416  0.7700
  102SOL    HW1  406   2.921   0.738   1.040  0.4432  2.4912  0.2340
  102SOL    HW2  407   2.853   0.623   1.132 -2.5707  1.6569 -2.3348
  102SOL     MW  408   2.891   0.655   1.054 -0.4591  0.7252  0.2897
  103SOL     OW  409   1.832   0.223   1.813 -0.0790 -0.1567 -0.5845
  103SOL    HW1  410   1.838   0.132   1.795  0.5245 -0.4339 -1.4784
  103SOL    HW2  411   1.814   0.232   1.905  0.7449  0.6908  0.5078
  103SOL     MW  412   1.830   0.212   1.822  0.1094 -0.0815 -0.5583
  104SOL     OW  413   0.108   1.522   1.591  0.2014  0.3858  0.2382
  104SOL    HW1  414   0.153   1.460   1.644 -1.0412 -1.4343  3.1053
  104SOL    HW2  415   0.019   1.506   1.629  0.3616 -2.6137  1.6480
  104SOL     MW  416   0.102   1.512   1.603  0.0586 -0.2501  0.8025
  105SOL     OW  417   3.089   1.223   0.408 -0.3690 -0.0652 -0.2948
  105SOL    HW1  418   3.131   1.136   0.424  1.5739  1.0250 -1.8488
  105SOL    HW2  419   3.159   1.281   0.426 -1.4211 -1.6933  0.6368
  105SOL     MW  420   3.104   1.219   0.413 -0.2515 -0.1362 -0.3769
  106SOL     OW  421   0.761   0.413   0.901 -0.3500 -0.2228 -0.0646
  106SOL    HW1  422   0.693   0.481   0.915 -1.3678 -1.2533  0.7094
  106SOL    HW2  423   0.823   0.451   0.842 -0.5811  0.6241 -1.5039
  106SOL     MW  424   0.760   0.427   0.895 -0.5148 -0.2471 -0.1524
  107SOL     OW  425   0.825   2.108   2.895 -0.6148  0.1339  0.0410
  107SOL    HW1  426   0.735   2.085   2.874  1.2415  0.9563  0.2903
  107SOL    HW2  427   0.824   2.109   2.989  0.4073 -4.0539 -1.2539
  107SOL     MW  428   0.813   2.106   2.904 -0.2350 -0.3101 -0.0969
  108SOL     OW  429   1.358   1.602   1.643 -0.0999 -0.0344  0.1370
  108SOL    HW1  430   1.289   1.554   1.586 -1.5870 -2.1021  0.2468
  108SOL    HW2  431   1.443   1.568   1.636 -1.7201 -0.1103  0.6651
  108SOL     MW  432   1.361   1.591   1.634 -0.5099 -0.3172  0.2211
  109SOL     OW  433   2.017   0.715   0.247  0.0536 -0.5902 -0.0355
  109SOL    HW1  434   2.007   0.808   0.259  0.0272  0.0832  1.9532
  109SOL    HW2  435   2.078   0.690   0.317 -0.4594  0.9513  1.8316
  109SOL     MW  436   2.024   0.724   0.258 -0.0176 -0.2980  0.4733
  110SOL     OW  437   0.408   1.934   0.709  0.0262  0.1350  0.2319
  110SOL    HW1  438   0.466   1.864   0.695 -0.4354  1.9089 -1.8558
  110SOL    HW2  439   0.419   1.983   0.627  1.1621 -1.5286  2.7380
  110SOL     MW  440   0.417   1.931   0.697  0.1152  0.1495  0.2871
  111SOL     OW  441   0.797   0.892   1.424  0.5220 -0.0292 -0.6818
  111SOL    HW1  442   0.777   0.895   1.330 -3.0252 -1.5208  1.3279
  111SOL    HW2  443   0.762   0.804   1.449  2.7353 -0.2307 -0.3521
  111SOL     MW  444   0.790   0.881   1.415  0.3460 -0.2526 -0.3731
  112SOL     OW  445   1.372   1.083   1.621  0.5550  0.0133 -0.2452
  112SOL    HW1  446   1.303   1.142   1.606  2.6597  0.4070 -1.4380
  112SOL    HW2  447   1.336   0.993   1.619  0.7966 -0.4077  0.4796
  112SOL     MW  448   1.358   1.078   1.619  0.8645  0.0097 -0.3070
  113SOL     OW  449   1.242   3.066   1.672  0.0591 -0.1224 -0.0286
  113SOL    HW1  450   1.254   3.041   1.768  1.3476 -0.3297  2.0250
  113SOL    HW2  451   1.248   2.987   1.615 -1.3064 -0.2018 -1.1502
  113SOL     MW  452   1.244   3.052   1.677  0.0489 -0.1602  0.0944
  114SOL     OW  453   0.260   2.879   1.871  0.3397  0.0675  0.3328
  114SOL    HW1  454   0.307   2.902   1.947 -2.5803  0.4782 -1.1489
  114SOL    HW2  455   0.216   2.963   1.841 -2.3255  3.0972 -0.7618
  114SOL     MW  456   0.260   2.893   1.877 -0.3972  0.5215 -0.0071
  115SOL     OW  457   0.459   0.799   1.147  0.1827 -0.3654  0.4394
  115SOL    HW1  458   0.445   0.701   1.152  4.6504 -1.6611 -0.2458
  115SOL    HW2  459   0.433   0.819   1.242  0.1323  2.1535 -0.9833
  115SOL     MW  460   0.454   0.789   1.160  0.7655 -0.2040  0.1613
  116SOL     OW  461   0.823   1.098   1.012  0.1705  0.2150 -0.1800
  116SOL    HW1  462   0.830   1.148   0.930  2.0243  2.9698  1.7151
  116SOL    HW2  463   0.835   1.160   1.078 -0.4759 -1.3106 -1.0451
  116SOL     MW  464   0.826   1.113   1.010  0.3298  0.3772 -0.0441
  117SOL     OW  465   1.112   1.179   0.800  0.6275  0.2511 -0.1515
  117SOL    HW1  466   1.156   1.134   0.872 -0.4412  3.9489  0.9445
  117SOL    HW2  467   1.104   1.277   0.833 -0.3705 -1.3642  1.2869
  117SOL     MW  468   1.116   1.186   0.814  0.3548  0.5259  0.1829
  118SOL     OW  469   3.046   2.966   1.688  0.3994 -0.6245 -0.3313
  118SOL    HW1  470   3.083   2.983   1.775  0.9503 -4.0374 -2.3141
  118SOL    HW2  471   2.967   3.023   1.681  1.1466 -3.4035  1.2624
  118SOL     MW  472   3.040   2.976   1.698  0.5707 -1.4415 -0.3826
  119SOL     OW  473   0.412   1.509   1.259  0.1839  0.4359  0.3279
  119SOL    HW1  474   0.448   1.583   1.210  1.5515 -3.4466 -2.6050
  119SOL    HW2  475   0.326   1.495   1.219 -1.1495  1.0446 -0.7693
  119SOL     MW  476   0.405   1.517   1.247  0.1884  0.0040 -0.2039
  120SOL     OW  477   0.212   0.771   1.019  0.5541  0.1875 -0.1131
  120SOL    HW1  478   0.165   0.813   1.089 -1.8309  1.0135 -1.5271
  120SOL    HW2  479   0.304   0.789   1.034  0.5349 -0.9968 -4.3022
  120SOL     MW  480   0.218   0.779   1.030  0.2369  0.1402 -0.8524
  121SOL     OW  481   1.759   1.110   1.659 -0.1107 -0.6710 -0.0499
  121SOL    HW1  482   1.676   1.125   1.600 -1.3564 -3.6226 -2.4737
  121SOL    HW2  483   1.806   1.054   1.597  2.5168  1.4445  3.0698
  121SOL     MW  484   1.755   1.105   1.643  0.0716 -0.7813  0.0419
  122SOL     OW  485   0.179   0.558   0.814 -0.0183 -0.6302  0.1834
  122SOL    HW1  486   0.262   0.527   0.771 -0.6692  0.4967  0.5469
  122SOL    HW2  487   0.209   0.608   0.891  1.2713  1.5316  0.0597
  122SOL     MW  488   0.194   0.560   0.818  0.0660 -0.1963  0.2150
  123SOL     OW  489   1.842   1.101   0.484  0.0762  0.2957  0.0656
  123SOL    HW1  490   1.779   1.033   0.515 -0.1111  2.8187  3.0506
  123SOL    HW2  491   1.864   1.150   0.566  2.2492 -0.5472  0.8586
  123SOL     MW  492   1.836   1.099   0.499  0.3382  0.5174  0.5641
  124SOL     OW  493   0.510   0.568   0.938  0.1802 -0.2411  0.1441
  124SOL    HW1  494   0.477   0.515   0.864 -1.9712 -1.5875 -0.1874
  124SOL    HW2  495   0.570   0.638   0.906 -0.6670  0.9004  1.0774
  124SOL     MW  496   0.514   0.570   0.924 -0.2154 -0.2681  0.2235
  125SOL     OW  497   0.741   1.777   1.727  0.0097 -0.2969  0.4068
  125SOL    HW1  498   0.658   1.729   1.733  0.2428 -1.0757  0.1423
  125SOL    HW2  499   0.719   1.865   1.683 -1.3094 -0.2222  1.9658
  125SOL     MW  500   0.727   1.782   1.722 -0.1336 -0.3898  0.5776
  126SOL     OW  501   2.163   1.500   1.951  0.2332 -0.5338  0.0402
  126SOL    HW1  502   2.194   1.589   1.922  0.3628 -0.5605  0.5400
  126SOL    HW2  503   2.235   1.439   1.946 -1.6671 -1.0043 -1.3522
  126SOL     MW  504   2.177   1.503   1.946 -0.0005 -0.5994 -0.0776
  127SOL     OW  505   0.582   0.866   1.783 -0.1572  0.2289 -0.0812
  127SOL    HW1  506   0.669   0.832   1.807 -0.1159 -2.5607  0.4814
  127SOL    HW2  507   0.560   0.932   1.855  0.2493  0.8683 -0.3175
  127SOL     MW  508   0.590   0.870   1.796 -0.0981 -0.0548 -0.0382
  128SOL     OW  509   1.678   0.714   2.900 -0.0731 -0.0561  0.2395
  128SOL    HW1  510   1.739   0.703   2.824  2.0764  0.1767 -1.4117
  128SOL    HW2  511   1.644   0.801   2.878  0.9927 -0.8169 -2.5604
  128SOL     MW  512   1.682   0.724   2.887  0.3511 -0.1258 -0.3477
  129SOL     OW  513   1.610   0.933   0.188  0.0212 -0.1039  0.7003
  129SOL    HW1  514   1.537   0.868   0.182 -1.6792 -0.8058  1.1238
  129SOL    HW2  515   1.668   0.905   0.257 -0.8270  1.6691 -0.5736
  129SOL     MW  516   1.608   0.921   0.196 -0.3151  0.0374  0.5881
  130SOL     OW  517   0.775   1.405   0.306 -0.7619  0.5909  0.1175
  130SOL    HW1  518   0.790   1.433   0.402 -0.6809  1.1453 -0.2907
  130SOL    HW2  519   0.859   1.422   0.264  0.9115 -1.6277 -1.1548
  130SOL     MW  520   0.788   1.411   0.313 -0.5304  0.3713 -0.1042
  131SOL     OW  521   3.045   0.816   0.020 -0.2346 -0.2482  0.4473
  131SOL    HW1  522   3.045   0.865  -0.073  0.9700  2.1036  1.3524
  131SOL    HW2  523   3.131   0.779   0.034  2.1333 -0.4011 -0.4472
  131SOL     MW  524   3.056   0.817   0.009  0.2367  0.0419  0.4487
  132SOL     OW  525   2.745   0.158   1.285  0.4009 -0.0993 -0.4700
  132SOL    HW1  526   2.785   0.208   1.216 -1.4019  1.0777 -1.9860
  132SOL    HW2  527   2.647   0.148   1.265 -1.9199 -1.3280  0.1823
  132SOL     MW  528   2.738   0.163   1.274 -0.1432 -0.1061 -0.5839
  133SOL     OW  529   1.051   0.167   1.685 -0.3978 -0.9335  0.0087
  133SOL    HW1  530   1.131   0.114   1.679  1.0849 -1.0886  1.1784
  133SOL    HW2  531   1.019   0.164   1.777 -5.4936 -3.4246 -1.6367
  133SOL     MW  532   1.057   0.160   1.696 -0.8745 -1.2826 -0.0540
  134SOL     OW  533   1.417   2.449   1.450  0.4790 -0.5460  1.0962
  134SOL    HW1  534   1.342   2.512   1.433 -0.5531  2.0098 -0.6586
  134SOL    HW2  535   1.447   2.481   1.536 -2.9587  2.3395  0.3164
  134SOL     MW  536   1.411   2.462   1.459 -0.1108  0.1719  0.7618
  135SOL     OW  537   3.055   0.984   2.879  0.1776 -0.1379  0.0243
  135SOL    HW1  538   3.115   1.048   2.905 -2.3153 -1.0077  2.3131
  135SOL    HW2  539   2.970   1.032   2.862 -0.9612 -1.3586  0.7423
  135SOL     MW  540   3.051   0.999   2.880 -0.3015 -0.4137  0.4210
  136SOL     OW  541   0.222   2.045   0.872  0.1322 -0.2013  0.3383
  136SOL    HW1  542   0.149   1.981   0.857  0.3756  0.3735  0.8361
  136SOL    HW2  543   0.298   2.017   0.826  0.5149 -2.0177 -0.4692
  136SOL     MW  544   0.223   2.033   0.864  0.2148 -0.3651  0.2975
  137SOL     OW  545   0.684   2.063   0.534  0.0520 -0.2344 -0.1924
  137SOL    HW1  546   0.705   2.069   0.629 -1.3468 -0.3613 -2.0101
  137SOL    HW2  547   0.591   2.095   0.524  1.0249  2.5153  1.1634
  137SOL     MW  548   0.675   2.068   0.545 -0.0042  0.1117 -0.2534
  138SOL     OW  549   0.445   0.508   1.208 -0.3364  0.2047 -0.0767
  138SOL    HW1  550   0.349   0.492   1.197 -2.6577 -0.6989  2.3738
  138SOL    HW2  551   0.473   0.497   1.116 -2.9916 -1.4313  1.6054
  138SOL     MW  552   0.436   0.504   1.195 -0.9930 -0.1303  0.4685
  139SOL     OW  553   2.805   0.569   1.294 -0.3757  0.1844  0.5309
  139SOL    HW1  554   2.897   0.533   1.314  0.8230 -1.1024  2.3376
  139SOL    HW2  555   2.794   0.630   1.369 -1.1016  0.2403  1.9279
  139SOL     MW  556   2.816   0.573   1.307 -0.3133  0.0220  0.9536
  140SOL     OW  557   0.880   0.478   2.001 -0.6134  0.0046  0.1854
  140SOL    HW1  558   0.898   0.385   1.983  0.7021  1.5181 -1.1524
  140SOL    HW2  559   0.843   0.472   2.092 -0.5669  0.8056  0.6610
  140SOL     MW  560   0.878   0.465   2.010 -0.4337  0.3100  0.0716
  141SOL     OW  561   0.994   0.653   1.674  0.0690 -0.1095 -0.0523
  141SOL    HW1  562   1.033   0.570   1.665 -1.8673  0.9713 -1.6261
  141SOL    HW2  563   1.074   0.708   1.675  3.0157 -0.5338 -0.7119
  141SOL     MW  564   1.010   0.649   1.673  0.2023 -0.0229 -0.3470
  142SOL     OW  565   0.852   1.172   0.748  0.0965  0.0424  0.2583
  142SOL    HW1  566   0.858   1.120   0.666 -1.0013  2.4515 -1.3327
  142SOL    HW2  567   0.945   1.183   0.771 -2.8077  1.9231  1.6104
  142SOL     MW  568   0.865   1.166   0.740 -0.4315  0.6084  0.2268
  143SOL     OW  569   1.823   0.691   1.091 -0.1616  0.6251 -0.1151
  143SOL    HW1  570   1.889   0.712   1.026 -1.0208 -0.8481 -1.6916
  143SOL    HW2  571   1.744   0.678   1.037  0.3775 -4.0477  1.5149
  143SOL     MW  572   1.821   0.692   1.075 -0.2039 -0.1858 -0.1081
  144SOL     OW  573   0.283   1.356   1.718 -0.3659 -0.5018 -0.4416
  144SOL    HW1  574   0.352   1.422   1.685  0.6997  3.1063  1.9501
  144SOL    HW2  575   0.319   1.322   1.805 -0.0774  1.3489 -0.0752
  144SOL     MW  576   0.297   1.360   1.725 -0.1873  0.2184 -0.0777
  145SOL     OW  577   0.163   0.463   1.256 -0.1863 -0.6256 -0.8405
  145SOL    HW1  578   0.184   0.372   1.229 -1.6918  1.1431 -0.3337
  145SOL    HW2  579   0.117   0.489   1.178 -0.3441 -3.1067  1.9078
  145SOL     MW  580   0.160   0.454   1.242 -0.4057 -0.7196 -0.4110
  146SOL     OW  581   0.898   1.906   1.372 -0.0782 -0.5044 -0.3296
  146SOL    HW1  582   0.957   1.943   1.312  0.2409 -1.0950  1.3670
  146SOL    HW2  583   0.815   1.897   1.325 -0.4606  0.1499 -2.4395
  146SOL     MW  584   0.895   1.909   1.358 -0.0866 -0.4960 -0.3841
  147SOL     OW  585   0.436   0.510   2.950  0.0602 -0.1327 -0.1014
  147SOL    HW1  586   0.388   0.560   3.020  0.1455  1.9582 -1.6331
  147SOL    HW2  587   0.391   0.553   2.876  0.9006 -0.3941 -1.3852
  147SOL     MW  588   0.424   0.522   2.949  0.1823  0.1087 -0.4729
  148SOL     OW  589   0.031   0.908   1.257 -0.4951  0.9820  0.9391
  148SOL    HW1  590   0.126   0.896   1.284  0.1528 -0.0934  0.5949
  148SOL    HW2  591  -0.008   0.995   1.292  2.1726  2.8221  0.8209
  148SOL     MW  592   0.038   0.918   1.265 -0.0576  1.0829  0.8781
  149SOL     OW  593   1.574   1.166   1.473 -0.4767  0.1116  0.9196
  149SOL    HW1  594   1.492   1.151   1.521 -0.7073 -1.0771 -2.8157
  149SOL    HW2  595   1.559   1.253   1.440  0.5729 -0.8051  1.0270
  149SOL     MW  596   1.561   1.175   1.475 -0.3686 -0.1662  0.4410
  150SOL     OW  597   1.719   1.364   0.870  0.5959 -0.1952  0.3890
  150SOL    HW1  598   1.781   1.295   0.848 -0.0929 -0.8853  2.7649
  150SOL    HW2  599   1.774   1.444   0.887  1.0498  2.5237  0.3189
  150SOL     MW  600   1.735   1.365   0.869  0.5649  0.0725  0.6932
  151SOL     OW  601   1.693   1.840   0.797 -0.1857 -0.2583  0.2070
  151SOL    HW1  602   1.690   1.854   0.704  0.1990  0.2241 -0.5642
  151SOL    HW2  603   1.606   1.835   0.826  1.0671 -0.0342 -0.3034
  151SOL     MW  604   1.681   1.841   0.789  0.0303 -0.1650  0.0379
  152SOL     OW  605   0.771   1.436   1.629 -0.0534  0.3632 -0.0482
  152SOL    HW1  606   0.751   1.481   1.545 -4.2686 -0.3336  0.6654
  152SOL    HW2  607   0.801   1.348   1.604 -0.0672  2.2337  3.0473
  152SOL     MW  608   0.773   1.431   1.615 -0.6114  0.5181  0.4543
  153SOL     OW  609   2.547   1.219   0.768 -0.2040 -0.3025 -0.0772
  153SOL    HW1  610   2.627   1.198   0.723 -0.4557  1.0387  0.0151
  153SOL    HW2  611   2.499   1.134   0.778  1.7560  0.3584 -1.1054
  153SOL     MW  612   2.551   1.205   0.763  0.0214 -0.0383 -0.2007
  154SOL     OW  613   0.118   1.758   1.741 -0.2560 -0.2437  0.3469
  154SOL    HW1  614   0.120   1.680   1.686  0.6072  2.1020  1.6665
  154SOL    HW2  615   0.199   1.768   1.791 -2.8851  0.7970  0.4003
  154SOL     MW  616   0.129   1.749   1.740 -0.4890  0.2031  0.5280
  155SOL     OW  617   1.180   0.749   0.321  0.1316 -0.5804 -0.0544
  155SOL    HW1  618   1.149   0.729   0.414 -1.2084 -1.2887  1.7395
  155SOL    HW2  619   1.195   0.844   0.323 -2.9390 -1.1985  0.3468
  155SOL     MW  620   1.178   0.759   0.333 -0.4503 -0.7554  0.2352
  156SOL     OW  621   1.546   3.044   1.116  0.1139 -0.1659  0.4816
  156SOL    HW1  622   1.607   3.109   1.159  0.2356  0.3780 -0.4424
  156SOL    HW2  623   1.608   2.976   1.090 -1.4672 -0.0803 -2.9156
  156SOL     MW  624   1.562   3.044   1.118 -0.0786 -0.0828 -0.0885
  157SOL     OW  625   1.375   1.162   0.094  0.4486  0.1493 -0.1624
  157SOL    HW1  626   1.403   1.077   0.119 -3.5172  0.9843 -2.5659
  157SOL    HW2  627   1.458   1.201   0.112  1.3667 -0.4294 -0.3923
  157SOL     MW  628   1.390   1.156   0.100  0.0464  0.1831 -0.5098
  158SOL     OW  629   0.448   1.690   2.291 -0.0317  0.6634 -0.5934
  158SOL    HW1  630   0.462   1.746   2.214 -0.5737  2.3528  0.8184
  158SOL    HW2  631   0.374   1.729   2.335 -0.2324 -0.6269 -1.8313
  158SOL     MW  632   0.440   1.703   2.287 -0.1297  0.7160 -0.5705
  159SOL     OW  633   1.249   1.621   0.474 -0.0533 -0.7582  0.0452
  159SOL    HW1  634   1.208   1.567   0.405 -2.2249 -0.5997 -0.6132
  159SOL    HW2  635   1.174   1.666   0.521 -1.1023  1.6608  1.1644
  159SOL     MW  636   1.233   1.620   0.471 -0.4782 -0.4181  0.1060
  160SOL     OW  637   0.506   1.256   1.542  0.1230 -0.0807 -0.4119
  160SOL    HW1  638   0.440   1.205   1.584  1.1504  0.8882  0.8330
  160SOL    HW2  639   0.596   1.236   1.579 -0.4601 -1.9613 -0.0485
  160SOL     MW  640   0.509   1.247   1.553  0.1816 -0.2010 -0.1997
  161SOL     OW  641   0.454   2.198   2.572 -0.3247  0.9535 -0.0901
  161SOL    HW1  642   0.371   2.234   2.579  2.6088 -0.0489  2.7558
  161SOL    HW2  643   0.460   2.141   2.492  1.0330 -2.4939 -2.0728
  161SOL     MW  644   0.444   2.196   2.563  0.2415  0.3664  0.0238
  162SOL     OW  645   1.051   1.831   1.837  0.1045  0.1707 -0.4425
  162SOL    HW1  646   1.028   1.920   1.830  1.5214 -1.3483 -0.3119
  162SOL    HW2  647   0.984   1.800   1.902  2.0920 -0.3262  1.5857
  162SOL     MW  648   1.039   1.839   1.845  0.5537 -0.0952 -0.1576
  163SOL     OW  649   2.070   3.061   0.892  0.5798 -0.0996 -0.4752
  163SOL    HW1  650   2.033   3.145   0.855  0.0686  3.5144  1.1971
  163SOL    HW2  651   2.046   2.995   0.826 -1.7419  0.9460  0.2477
  163SOL     MW  652   2.062   3.063   0.878  0.2060  0.5152 -0.1592
  164SOL     OW  653   0.311   0.197   0.799  0.6206  0.3809  0.1840
  164SOL    HW1  654   0.225   0.194   0.846 -2.4057 -0.2519  0.9517
  164SOL    HW2  655   0.322   0.125   0.739 -0.7518  2.0333 -0.2696
  164SOL     MW  656   0.301   0.187   0.797  0.0402  0.5154  0.2254
  165SOL     OW  657   1.199   1.320   0.346 -0.2129  0.0394  0.0617
  165SOL    HW1  658   1.231   1.317   0.434  3.0657  1.1653  0.2797
  165SOL    HW2  659   1.255   1.271   0.290 -1.1021 -2.6280 -0.9730
  165SOL     MW  660   1.210   1.313   0.351  0.1024 -0.1640 -0.0460
  166SOL     OW  661   0.540   1.120   1.018 -0.6649  0.1738 -0.1094
  166SOL    HW1  662   0.527   1.169   1.102  0.7965 -1.8962 -1.6564
  166SOL    HW2  663   0.641   1.121   1.014  0.6165  0.3851 -0.4992
  166SOL     MW  664   0.552   1.126   1.029 -0.3030 -0.0715 -0.3649
  167SOL     OW  665   0.806   1.108   0.256 -0.1927  0.2461  0.2516
  167SOL    HW1  666   0.779   1.206   0.252 -1.0557 -0.5437 -1.5275
  167SOL    HW2  667   0.885   1.102   0.201 -1.5061  0.3871 -1.7735
  167SOL     MW  668   0.813   1.120   0.248 -0.4799  0.1605 -0.2503
  168SOL     OW  669   1.752   1.667   3.044  0.7717  0.2749 -0.0497
  168SOL    HW1  670   1.676   1.728   3.027 -1.1615  1.7259  2.1430
  168SOL    HW2  671   1.729   1.579   3.009 -0.3506 -2.2118  1.6594
  168SOL     MW  672   1.739   1.664   3.037  0.3685  0.1383  0.4651
  169SOL     OW  673   0.291   0.957   1.336 -0.2714 -0.4654  0.2185
  169SOL    HW1  674   0.298   0.984   1.429 -2.8543  0.5495  2.8968
  169SOL    HW2  675   0.353   1.011   1.291 -1.3022  1.0879 -0.8121
  169SOL     MW  676   0.300   0.968   1.343 -0.7482 -0.1266  0.4359
  170SOL     OW  677   1.154   1.504   1.464  0.7693  0.0667 -1.1175
  170SOL    HW1  678   1.103   1.574   1.496  0.6528 -4.2715  2.5014
  170SOL    HW2  679   1.134   1.495   1.374 -1.4331 -0.8307  0.8766
  170SOL     MW  680   1.144   1.512   1.457  0.4633 -0.6241 -0.3769
  171SOL     OW  681   0.492   1.418   0.531 -0.4401 -0.1488  0.0318
  171SOL    HW1  682   0.485   1.392   0.624 -2.7294  0.1761  3.9752
  171SOL    HW2  683   0.522   1.344   0.480 -1.7132  0.1958 -1.2003
  171SOL     MW  684   0.495   1.405   0.536 -0.9101 -0.0605  0.3895
  172SOL     OW  685   0.847   0.297   1.249 -0.7019 -0.1300 -0.4409
  172SOL    HW1  686   0.834   0.279   1.157  0.3303 -1.4878  2.2069
  172SOL    HW2  687   0.838   0.216   1.292  1.8485 -0.7975 -0.9946
  172SOL     MW  688   0.844   0.284   1.242 -0.2292 -0.3972 -0.1646
  173SOL     OW  689   0.529   1.796   0.287  0.2452 -0.8090  0.7290
  173SOL    HW1  690   0.554   1.709   0.255 -0.4154  0.7644  0.6828
  173SOL    HW2  691   0.525   1.777   0.380  1.4780 -2.1246  0.2643
  173SOL     MW  692   0.532   1.782   0.295  0.3207 -0.7750  0.6616
  174SOL     OW  693   1.850   0.901   1.494  0.0735 -0.0978  0.0382
  174SOL    HW1  694   1.817   0.811   1.507 -0.8536 -1.2165 -2.1177
  174SOL    HW2  695   1.858   0.908   1.398 -0.1343  0.6462 -0.1251
  174SOL     MW  696   1.846   0.890   1.483 -0.0762 -0.1472 -0.2678
  175SOL     OW  697   0.542   1.520   0.200  1.0402  0.1053  0.1297
  175SOL    HW1  698   0.468   1.463   0.183 -1.7479  0.2235  3.0772
  175SOL    HW2  699   0.606   1.476   0.251  0.2861  1.1451 -4.5647
  175SOL     MW  700   0.540   1.506   0.205  0.5728  0.2581 -0.1008
  176SOL     OW  701   0.151   1.460   1.201  0.0920 -0.1336 -0.8295
  176SOL    HW1  702   0.150   1.440   1.101  2.4750 -0.1948 -1.7211
  176SOL    HW2  703   0.063   1.428   1.237 -0.5130 -0.3495  3.1182
  176SOL     MW  704   0.139   1.453   1.193  0.3265 -0.1702 -0.4263
  177SOL     OW  705   0.548   0.315   1.453 -0.4807  0.1356  0.2205
  177SOL    HW1  706   0.580   0.331   1.366 -0.5792 -0.6379 -0.6382
  177SOL    HW2  707   0.560   0.396   1.505 -2.0113 -0.6801 -0.1728
  177SOL     MW  708   0.553   0.328   1.448 -0.6956 -0.0741  0.0553
  178SOL     OW  709   3.091   0.515   3.002  0.2475 -0.3844 -0.1604
  178SOL    HW1  710   3.045   0.520   3.095 -1.4894  0.7140  0.6934
  178SOL    HW2  711   3.018   0.490   2.939 -1.8136  0.8677  1.5527
  178SOL     MW  712   3.075   0.512   3.006 -0.2536 -0.0743  0.1783
  179SOL     OW  713   1.565   1.429   1.377 -0.7781 -0.3124  0.1554
  179SOL    HW1  714   1.595   1.446   1.463  1.6715 -0.3682 -0.7502
  179SOL    HW2  715   1.655   1.429   1.338 -2.2365  0.2208 -0.7489
  179SOL     MW  716   1.581   1.431   1.383 -0.6473 -0.2494 -0.0834
  180SOL     OW  717   2.993   0.276   0.503  0.5423  0.1542  0.1085
  180SOL    HW1  718   2.947   0.299   0.416 -2.6529 -0.7579 -1.3962
  180SOL    HW2  719   3.034   0.355   0.529 -3.0045  2.1231  0.7825
  180SOL     MW  720   2.992   0.289   0.495 -0.3472  0.2937 -0.0011
  181SOL     OW  721   1.141   1.308   3.081  0.4457 -0.9896  0.1150
  181SOL    HW1  722   1.213   1.367   3.101 -0.7470  1.1714 -1.7974
  181SOL    HW2  723   1.181   1.282   2.995 -1.8171  1.3457 -1.9765
  181SOL     MW  724   1.156   1.312   3.072 -0.0102 -0.3964 -0.4133
  182SOL     OW  725   0.372   1.002   1.615  0.4193  0.0470  0.0385
  182SOL    HW1  726   0.314   0.976   1.683 -1.0831 -0.8782  0.2193
  182SOL    HW2  727   0.457   0.964   1.645 -0.8387 -1.4565 -0.7437
  182SOL     MW  728   0.376   0.994   1.628  0.0551 -0.2734 -0.0409
  183SOL     OW  729   1.525   1.719   1.279 -0.0700  0.4485  0.2461
  183SOL    HW1  730   1.621   1.723   1.273 -0.2851  1.6941 -0.0712
  183SOL    HW2  731   1.521   1.640   1.335 -2.4220  0.7456  1.2991
  183SOL     MW  732   1.537   1.709   1.285 -0.4087  0.6520  0.3432
  184SOL     OW  733   0.790   0.707   1.884 -0.2200 -0.0780 -0.3252
  184SOL    HW1  734   0.846   0.700   1.803 -0.2374  0.5890 -2.1431
  184SOL    HW2  735   0.796   0.622   1.926  1.3517 -0.7249  0.8001
  184SOL     MW  736   0.799   0.695   1.879 -0.0150 -0.0753 -0.4166
  185SOL     OW  737   1.082   0.940   1.890 -0.2629 -0.0247 -0.0080
  185SOL    HW1  738   1.101   0.850   1.917 -4.4665 -0.3977 -1.3065
  185SOL    HW2  739   1.102   0.994   1.962 -1.2624 -1.0471 -0.2061
  185SOL     MW  740   1.087   0.935   1.903 -0.9494 -0.2088 -0.2055
  186SOL     OW  741   0.310   1.646   1.482 -0.5119 -0.5919 -0.2604
  186SOL    HW1  742   0.336   1.591   1.407 -1.4529  1.0669  0.2810
  186SOL    HW2  743   0.216   1.605   1.496 -0.4201  0.3193  1.9727
  186SOL     MW  744   0.301   1.633   1.474 -0.6239 -0.2528  0.1056
  187SOL     OW  745   1.514   0.742   1.359  0.0633  0.0311 -0.0598
  187SOL    HW1  746   1.570   0.716   1.431 -0.9828 -0.3867  0.2811
  187SOL    HW2  747   1.431   0.704   1.389  0.2873 -0.9674  1.5601
  187SOL     MW  748   1.511   0.733   1.372 -0.0451 -0.1557  0.1989
  188SOL     OW  749   1.948   1.192   0.810  0.0663  0.3152  0.5698
  188SOL    HW1  750   1.934   1.163   0.904  0.3553  1.1935 -1.3005
  188SOL    HW2  751   1.977   1.111   0.766  0.7035  2.8279  0.2606
  188SOL     MW  752   1.950   1.178   0.816  0.1885  0.7626  0.2822
  189SOL     OW  753   0.687   0.763   0.840  0.4733 -0.1401  0.2191
  189SOL    HW1  754   0.596   0.807   0.824 -3.1071  0.0793 -1.6505
  189SOL    HW2  755   0.738   0.829   0.888 -0.1607 -0.2345 -0.7816
  189SOL     MW  756   0.682   0.777   0.844 -0.0827 -0.1236 -0.1596
  190SOL     OW  757   1.852   0.330   2.138  0.3280  0.5332  0.0110
  190SOL    HW1  758   1.859   0.295   2.225 -1.7339  1.3668 -0.4621
  190SOL    HW2  759   1.931   0.385   2.124 -0.4781 -3.1832 -2.6146
  190SOL     MW  760   1.863   0.333   2.147 -0.0504  0.1528 -0.3978
  191SOL     OW  761   1.518   0.992   1.236  0.2446  0.4335  0.5863
  191SOL    HW1  762   1.531   1.052   1.310 -0.6787  2.1914 -2.2667
  191SOL    HW2  763   1.499   0.911   1.284 -0.0121  0.6592  1.1937
  191SOL     MW  764   1.517   0.989   1.252  0.0889  0.6952  0.2900
  192SOL     OW  765   0.536   2.114   2.844 -0.0365  0.1249  1.0014
  192SOL    HW1  766   0.537   2.161   2.761 -0.5242 -0.1059 -1.7727
  192SOL    HW2  767   0.534   2.022   2.819  1.6295  1.5340  1.7189
  192SOL     MW  768   0.536   2.108   2.830  0.1189  0.2803  0.7301
  193SOL     OW  769   0.872   1.615   0.766 -0.1155 -0.1188  0.6421
  193SOL    HW1  770   0.795   1.602   0.809  2.1433 -1.0045 -0.7663
  193SOL    HW2  771   0.860   1.544   0.698  1.3961 -2.0503 -0.8520
  193SOL     MW  772   0.860   1.604   0.763  0.3820 -0.4905  0.2592
  194SOL     OW  773   0.525   1.339   0.802 -0.0542 -0.0701 -0.5078
  194SOL    HW1  774   0.520   1.260   0.855  0.0697  1.2585  0.4638
  194SOL    HW2  775   0.427   1.344   0.788  0.1060  0.8143 -0.5320
  194SOL     MW  776   0.511   1.329   0.807 -0.0167  0.2219 -0.3828
  195SOL     OW  777   1.292   1.117   2.937  0.2077  0.3121  0.2065
  195SOL    HW1  778   1.339   1.127   3.020 -0.4359 -0.0973 -0.2804
  195SOL    HW2  779   1.248   1.035   2.957  0.0834 -0.6714  1.5267
  195SOL     MW  780   1.292   1.107   2.950  0.1064  0.1283  0.3165
  196SOL     OW  781   2.257   0.975   0.536  0.3050 -0.0996  0.4949
  196SOL    HW1  782   2.218   0.944   0.459  2.7666 -0.3000 -1.5935
  196SOL    HW2  783   2.219   1.064   0.559 -0.1328  0.3757 -1.4197
  196SOL     MW  784   2.247   0.982   0.529  0.5720 -0.0633 -0.0333
  197SOL     OW  785   0.613   1.273   2.235 -0.6846 -0.2958 -0.2744
  197SOL    HW1  786   0.642   1.191   2.184 -0.0526 -0.3560  0.3593
  197SOL    HW2  787   0.663   1.350   2.203  3.4498 -1.1736  0.1267
  197SOL     MW  788   0.623   1.272   2.224 -0.0557 -0.4196 -0.1379
  198SOL     OW  789   2.930   1.452   1.007  0.0645  0.5074 -0.1700
  198SOL    HW1  790   2.864   1.520   0.991  1.2234  0.7758  1.0098
  198SOL    HW2  791   2.878   1.375   0.972 -2.8009 -1.2153 -0.9638
  198SOL     MW  792   2.914   1.450   1.000 -0.1607  0.3155 -0.1191
  199SOL     OW  793   0.729   1.335   1.893 -0.1698 -0.6714 -0.9422
  199SOL    HW1  794   0.635   1.315   1.887 -0.7930  0.4817 -0.3539
  199SOL    HW2  795   0.755   1.388   1.816 -0.7834  3.2292 -0.8331
  199SOL     MW  796   0.720   1.339   1.882 -0.3330 -0.0046 -0.8501
  200SOL     OW  797   1.858   2.914   1.373 -0.4419  0.5818  0.4763
  200SOL    HW1  798   1.892   2.920   1.287 -0.8189 -1.0578  0.1155
  200SOL    HW2  799   1.779   2.967   1.366  3.7927 -1.3894  1.9873
  200SOL     MW  800   1.852   2.922   1.360  0.0671  0.1054  0.6281
  201SOL     OW  801   1.051   0.340   0.725  0.4546 -0.3498  0.1314
  201SOL    HW1  802   1.021   0.252   0.742  1.4727  0.2342  1.2494
  201SOL    HW2  803   1.135   0.332   0.782  2.7038 -1.8854 -1.8314
  201SOL     MW  804   1.058   0.327   0.735  0.8857 -0.4753  0.0199
  202SOL     OW  805   1.471   1.786   0.970 -0.1569  0.5993  0.1027
  202SOL    HW1  806   1.489   1.691   0.967  1.0160  0.4572  0.2522
  202SOL    HW2  807   1.481   1.814   1.063  0.1218  1.2898  3.2271
  202SOL     MW  808   1.475   1.777   0.982  0.0346  0.6716  0.5347
  203SOL     OW  809   2.986   0.389   1.450 -0.2402 -0.2185 -0.8488
  203SOL    HW1  810   3.028   0.310   1.406  4.1748 -1.0805 -0.3464
  203SOL    HW2  811   3.037   0.400   1.531  0.7122 -3.3499 -1.8699
  203SOL     MW  812   2.998   0.380   1.455  0.4680 -0.7454 -0.9172
  204SOL     OW  813   1.029   1.810   0.632  0.1619 -0.0469 -0.1268
  204SOL    HW1  814   0.998   1.756   0.708  2.1652 -1.5463  0.6819
  204SOL    HW2  815   0.956   1.818   0.571  0.9279 -2.5717 -0.8057
  204SOL     MW  816   1.016   1.804   0.634  0.5273 -0.5779 -0.1097
  205SOL     OW  817   1.383   3.045   1.330  0.0737 -0.4334  0.2284
  205SOL    HW1  818   1.414   3.064   1.240 -3.6318 -1.6015 -0.2528
  205SOL    HW2  819   1.333   3.123   1.356 -0.5762  0.9439 -0.0156
  205SOL     MW  820   1.381   3.058   1.322 -0.5010 -0.4058  0.1327
  206SOL     OW  821   0.473   3.069   1.352 -0.2346 -0.1160 -0.0366
  206SOL    HW1  822   0.410   3.064   1.279 -0.9487  1.5978 -1.5293
  206SOL    HW2  823   0.540   3.008   1.323 -1.7176 -0.7493 -0.4133
  206SOL     MW  824   0.473   3.060   1.339 -0.5245  0.0266 -0.2832
  207SOL     OW  825   0.880   1.703   0.200 -0.0254  0.4082 -0.6047
  207SOL    HW1  826   0.926   1.778   0.171 -1.7146 -0.7933  0.4335
  207SOL    HW2  827   0.954   1.656   0.231 -1.1413  1.3632 -1.0823
  207SOL     MW  828   0.896   1.707   0.200 -0.3955  0.3757 -0.5307
  208SOL     OW  829   0.726   1.614   1.421  0.2374 -0.4566  0.1450
  208SOL    HW1  830   0.808   1.661   1.447 -1.5593 -1.2802 -1.8583
  208SOL    HW2  831   0.742   1.566   1.334 -0.3570 -0.1385 -2.3878
  208SOL     MW  832   0.739   1.614   1.413 -0.0781 -0.5233 -0.4535
  209SOL     OW  833   1.519   0.501   2.816 -0.0873  0.2591  0.5404
  209SOL    HW1  834   1.566   0.581   2.852 -0.8951  3.2833  2.4465
  209SOL    HW2  835   1.589   0.437   2.803  1.6621  2.3963  0.0949
  209SOL     MW  836   1.535   0.503   2.819  0.0369  0.9401  0.7331
  210SOL     OW  837   1.468   1.491   0.923 -0.2346 -0.0817 -0.1344
  210SOL    HW1  838   1.548   1.431   0.926 -1.0996 -2.0876 -1.5953
  210SOL    HW2  839   1.418   1.471   0.839 -3.0005  1.1168 -1.6184
  210SOL     MW  840   1.472   1.480   0.912 -0.7137 -0.1882 -0.5230
  211SOL     OW  841   1.723   0.303   0.992 -0.0952 -0.3183 -0.1978
  211SOL    HW1  842   1.711   0.335   0.904  1.7980  0.9158  1.1937
  211SOL    HW2  843   1.812   0.323   1.012 -0.8903  1.8901  0.8962
  211SOL     MW  844   1.733   0.310   0.983  0.0497  0.1359  0.1301
  212SOL     OW  845   0.285   1.088   0.212  0.5907 -0.1240 -0.4991
  212SOL    HW1  846   0.207   1.067   0.260  1.2583  2.4558  1.5340
  212SOL    HW2  847   0.302   1.005   0.154 -0.3588 -1.8058  1.8454
  212SOL     MW  848   0.277   1.074   0.210  0.5535 -0.0055  0.0785
  213SOL     OW  849   0.432   1.790   3.001 -0.7041  0.5379  0.2392
  213SOL    HW1  850   0.461   1.846   3.066 -2.5472 -0.1373 -2.2494
  213SOL    HW2  851   0.485   1.816   2.923 -2.4866  0.3131  1.2685
  213SOL     MW  852   0.443   1.801   2.999 -1.1824  0.4192  0.0467
  214SOL     OW  853   0.613   0.321   2.135  0.3863 -0.3478 -0.1144
  214SOL    HW1  854   0.549   0.386   2.149 -1.1469  0.1275 -0.0302
  214SOL    HW2  855   0.604   0.320   2.038  0.6018  0.0866 -1.4937
  214SOL     MW  856   0.603   0.329   2.124  0.2124 -0.2278 -0.2853
  215SOL     OW  857   0.504   0.619   2.574  0.0579 -1.1583 -0.2623
  215SOL    HW1  858   0.486   0.639   2.483 -0.6052  1.8535  0.4102
  215SOL    HW2  859   0.421   0.641   2.622 -2.5897  1.1020  0.1889
  215SOL     MW  860   0.491   0.624   2.568 -0.3789 -0.4627 -0.1141
  216SOL     OW  861   2.976   3.056   2.704 -0.1478 -0.3209 -0.0470
  216SOL    HW1  862   2.917   3.042   2.777 -1.4590 -0.7969 -0.1961
  216SOL    HW2  863   2.987   3.153   2.708  0.4601  3.1390  0.1425
  216SOL     MW  864   2.970   3.067   2.714 -0.2406  0.0728 -0.0417
  217SOL     OW  865   1.059   1.067   0.109 -0.3037 -0.1606  0.2172
  217SOL    HW1  866   1.078   0.988   0.046 -0.1001 -2.9349  2.6022
  217SOL    HW2  867   1.110   1.139   0.077 -0.6776 -0.5783  0.2367
  217SOL     MW  868   1.068   1.066   0.096 -0.3262 -0.5817  0.5344
  218SOL     OW  869   0.866   1.357   2.686  0.6307 -0.1517 -0.1995
  218SOL    HW1  870   0.872   1.285   2.749 -1.5332  0.0319  2.3101
  218SOL    HW2  871   0.945   1.414   2.690  3.0266  0.4586 -0.1014
  218SOL     MW  872   0.877   1.355   2.695  0.6613 -0.0469  0.1445
  219SOL     OW  873   1.062   0.363   2.635 -0.2117  0.3554  0.4010
  219SOL    HW1  874   1.129   0.430   2.667 -0.8272 -2.1838 -2.1431
  219SOL    HW2  875   0.992   0.423   2.611 -1.1483 -1.8423  0.3612
  219SOL     MW  876   1.061   0.380   2.636 -0.4165 -0.2696  0.0601
  220SOL     OW  877   1.664   0.494   2.234  0.8783 -0.1301  0.1297
  220SOL    HW1  878   1.596   0.527   2.168  0.1775  0.6547 -1.9302
  220SOL    HW2  879   1.719   0.423   2.192 -0.1356 -1.7385 -2.4247
  220SOL     MW  880   1.662   0.489   2.220  0.6520 -0.2388 -0.4791
  221SOL     OW  881   0.330   1.281   2.906  0.1859  0.1458 -0.0168
  221SOL    HW1  882   0.398   1.221   2.873  0.1961  0.4445  0.0113
  221SOL    HW2  883   0.366   1.363   2.871 -0.1773 -2.4247  1.9299
  221SOL     MW  884   0.343   1.284   2.897  0.1394 -0.1539  0.2438
  222SOL     OW  885   0.512   0.909   2.695  0.1123  0.3144  0.2110
  222SOL    HW1  886   0.442   0.960   2.666  1.2523  1.3602 -2.1659
  222SOL    HW2  887   0.474   0.824   2.676 -1.9205 -1.2253  0.8761
  222SOL     MW  888   0.498   0.904   2.689 -0.0055  0.2492 -0.0149
  223SOL     OW  889   0.017   2.000   2.570 -0.3252  0.0316 -0.1787
  223SOL    HW1  890   0.015   1.977   2.662 -2.3812  1.3697 -0.9366
  223SOL    HW2  891   0.020   2.101   2.561  0.4375  2.4874  1.4950
  223SOL     MW  892   0.017   2.011   2.581 -0.4959  0.5321 -0.0578
  224SOL     OW  893   1.457   0.742   2.515 -0.2040 -0.1010  0.2798
  224SOL    HW1  894   1.455   0.775   2.607  2.5946  0.3678 -1.5297
  224SOL    HW2  895   1.489   0.812   2.464  1.2304  2.0524  2.0488
  224SOL     MW  896   1.461   0.755   2.521  0.3545  0.2450  0.2744
  225SOL     OW  897   2.939   1.437   2.312  0.1720 -0.2659 -0.0746
  225SOL    HW1  898   2.977   1.514   2.269  0.2631  0.0912  1.8802
  225SOL    HW2  899   2.882   1.479   2.378 -1.5440  1.7524  0.9832
  225SOL     MW  900   2.937   1.453   2.315 -0.0424  0.0475  0.3229
  226SOL     OW  901   0.396   1.495   2.756  0.4344 -0.0781 -0.0109
  226SOL    HW1  902   0.488   1.519   2.764 -0.4246 -0.0116  2.0952
  226SOL    HW2  903   0.354   1.580   2.743 -0.5354  2.4920 -1.5816
  226SOL     MW  904   0.402   1.509   2.756  0.1931  0.2698  0.0597
  227SOL     OW  905   0.566   1.133   2.856 -0.0653  0.4030  0.8800
  227SOL    HW1  906   0.657   1.132   2.885 -0.0124 -0.4496  0.7575
  227SOL    HW2  907   0.562   1.050   2.813 -0.1224  2.9379  0.7156
  227SOL     MW  908   0.578   1.122   2.855 -0.0659  0.6250  0.8422
  228SOL     OW  909   0.757   1.101   2.066  0.2229  0.7090 -0.0596
  228SOL    HW1  910   0.741   1.165   1.993 -0.5014  0.9699  1.6620
  228SOL    HW2  911   0.837   1.125   2.118  1.1366  1.4200 -0.0545
  228SOL     MW  912   0.765   1.113   2.063  0.2479  0.8373  0.1682
  229SOL     OW  913   0.235   0.620   0.016  0.4790 -0.4081  0.0235
  229SOL    HW1  914   0.168   0.596  -0.048 -1.1723 -2.4647 -1.3287
  229SOL    HW2  915   0.211   0.548   0.081  0.5151 -0.8083  0.9726
  229SOL     MW  916   0.223   0.607   0.016  0.2659 -0.7322 -0.0297
  230SOL     OW  917   1.802   1.362   2.005  0.1097 -0.4862 -0.8270
  230SOL    HW1  918   1.756   1.325   2.087 -0.5360 -1.6883  1.6971
  230SOL    HW2  919   1.834   1.281   1.973  2.7257  2.4697 -1.3734
  230SOL     MW  920   1.800   1.347   2.012  0.3697 -0.2548 -0.5661
  231SOL     OW  921   2.731   1.260   2.203  0.0631  0.7845  0.2790
  231SOL    HW1  922   2.794   1.334   2.227 -0.6231  0.2032  0.7765
  231SOL    HW2  923   2.698   1.278   2.114 -1.0151 -1.8381  2.6148
  231SOL     MW  924   2.735   1.272   2.194 -0.1697  0.3617  0.6528
  232SOL     OW  925   2.284   0.789   1.995  0.3556 -0.1732 -0.1987
  232SOL    HW1  926   2.216   0.829   1.936 -2.9301 -1.1091 -0.2849
  232SOL    HW2  927   2.236   0.818   2.071  0.6697  2.6574 -0.5176
  232SOL     MW  928   2.268   0.798   1.997 -0.0365  0.0768 -0.2521
  233SOL     OW  929   2.082   0.473   2.085  0.3860  0.0535  0.1806
  233SOL    HW1  930   2.117   0.390   2.058  2.7878  0.9025 -0.4875
  233SOL    HW2  931   2.146   0.510   2.142 -2.5431  1.3854 -3.7734
  233SOL     MW  932   2.095   0.467   2.089  0.3165  0.3412 -0.4293
  234SOL     OW  933   0.259   1.045   2.625  0.0035  0.1129 -0.7013
  234SOL    HW1  934   0.183   1.032   2.571 -0.3632 -0.9332 -0.3919
  234SOL    HW2  935   0.287   1.135   2.609 -1.0885  1.5230  0.1771
  234SOL     MW  936   0.253   1.055   2.616 -0.1889  0.1609 -0.5446
  235SOL     OW  937   1.009   3.037   2.796 -0.3753 -0.2366  0.0050
  235SOL    HW1  938   1.060   3.000   2.875  1.5219  1.7938  2.2370
  235SOL    HW2  939   1.019   3.135   2.803  0.1082 -1.1247 -0.2482
  235SOL     MW  940   1.017   3.045   2.807 -0.0612 -0.0859  0.2661
  236SOL     OW  941   2.945   0.576   0.124 -0.4417  0.2426  0.4508
  236SOL    HW1  942   2.905   0.610   0.202  1.7761  0.0250 -0.2348
  236SOL    HW2  943   2.973   0.659   0.085 -0.0385 -0.5023 -1.3295
  236SOL     MW  944   2.943   0.592   0.129 -0.0959  0.1156  0.1254
  237SOL     OW  945   1.944   1.071   2.171  0.3641 -0.4109 -0.1980
  237SOL    HW1  946   1.862   1.083   2.127 -0.5128 -0.4260 -1.5859
  237SOL    HW2  947   1.980   0.984   2.148 -0.1075  1.8064  2.5932
  237SOL     MW  948   1.938   1.061   2.162  0.1861 -0.1204 -0.0129
  238SOL     OW  949   1.097   1.777   2.966 -0.6496 -0.5610  0.1969
  238SOL    HW1  950   1.037   1.743   2.899  3.0887  1.2197 -2.7387
  238SOL    HW2  951   1.177   1.720   2.963  1.8500  0.3359 -0.4895
  238SOL     MW  952   1.099   1.765   2.957  0.1735 -0.2077 -0.2810
  239SOL     OW  953   1.188   1.311   2.275 -0.3487 -0.6184 -0.4317
  239SOL    HW1  954   1.093   1.314   2.268 -0.0014 -2.4995  2.7791
  239SOL    HW2  955   1.213   1.252   2.351  0.3150  1.5420  0.9145
  239SOL     MW  956   1.178   1.304   2.284 -0.2153 -0.5816  0.1695
  240SOL     OW  957   0.601   0.898   2.235 -0.3174 -0.6161 -1.1429
  240SOL    HW1  958   0.624   0.949   2.322 -0.5857  0.2454  1.4915
  240SOL    HW2  959   0.685   0.864   2.203  0.2932 -0.9592  3.2497
  240SOL     MW  960   0.615   0.901   2.242 -0.2722 -0.5477 -0.2157
  241SOL     OW  961   0.675   0.482   3.070  0.0055  0.4155 -0.2642
  241SOL    HW1  962   0.707   0.541   3.146 -1.3653  1.0964  1.2020
  241SOL    HW2  963   0.587   0.504   3.045  0.9619 -1.3196  0.8326
  241SOL     MW  964   0.668   0.493   3.077 -0.0492  0.2764  0.0739
  242SOL     OW  965   1.511   1.707   2.263 -0.2380 -0.5052  0.0764
  242SOL    HW1  966   1.450   1.782   2.261  0.6175 -3.0261 -0.1123
  242SOL    HW2  967   1.469   1.625   2.242  1.8640  0.9007 -0.1667
  242SOL     MW  968   1.498   1.706   2.260  0.1522 -0.6523  0.0195
  243SOL     OW  969   0.993   0.274   2.362  0.1125  1.0958 -0.7220
  243SOL    HW1  970   1.087   0.273   2.336 -1.5928 -0.9583  1.5487
  243SOL    HW2  971   0.999   0.291   2.457  1.8395  2.2524  2.3324
  243SOL     MW  972   1.006   0.277   2.371  0.1153  0.9774 -0.0194
  244SOL     OW  973   0.132   0.800   2.365  0.1658 -0.2535  0.3464
  244SOL    HW1  974   0.098   0.889   2.387  0.4958 -2.5350 -1.2426
  244SOL    HW2  975   0.227   0.790   2.358  0.0752 -0.1516  0.0187
  244SOL     MW  976   0.140   0.810   2.367  0.1974 -0.5411  0.0935
  245SOL     OW  977   1.246   0.200   2.305 -0.3023  0.1852  0.5226
  245SOL    HW1  978   1.272   0.115   2.271  0.5412  0.4487 -2.3392
  245SOL    HW2  979   1.286   0.210   2.391  1.1830  1.2215  2.0916
  245SOL     MW  980   1.255   0.190   2.312  0.0050  0.3567  0.3520
  246SOL     OW  981   1.201   1.132   2.058  0.1409 -0.1054 -0.2271
  246SOL    HW1  982   1.156   1.137   2.143  1.5490 -1.2243 -2.2829
  246SOL    HW2  983   1.297   1.126   2.095  0.4441 -1.2718 -0.0870
  246SOL     MW  984   1.208   1.132   2.074  0.3667 -0.4070 -0.4798
  247SOL     OW  985   0.767   0.641   0.153  0.1526  0.1793 -0.1996
  247SOL    HW1  986   0.711   0.717   0.168 -0.7421  2.3770 -0.9802
  247SOL    HW2  987   0.861   0.667   0.135  0.3165 -2.2046  1.3195
  247SOL     MW  988   0.772   0.654   0.152  0.0562  0.1547 -0.1022
  248SOL     OW  989   0.341   1.288   2.546 -0.1200 -0.2571 -0.5210
  248SOL    HW1  990   0.357   1.325   2.461 -1.1892 -0.7875  1.6325
  248SOL    HW2  991   0.360   1.358   2.605  1.3661  2.2560 -2.1463
  248SOL     MW  992   0.345   1.302   2.543 -0.0650  0.0045 -0.4513
  249SOL     OW  993   3.028   1.906   2.837 -0.7860  0.1535  0.0420
  249SOL    HW1  994   2.963   1.837   2.851  0.3951 -0.9777  2.8371
  249SOL    HW2  995   3.106   1.858   2.860 -0.8946  1.0532  1.9016
  249SOL     MW  996   3.030   1.890   2.842 -0.6445  0.1230  0.6561
  250SOL     OW  997   2.143   0.853   2.212 -0.4780 -0.5806 -0.2653
  250SOL    HW1  998   2.093   0.792   2.267  3.7450  1.3993  0.0604
  250SOL    HW2  999   2.213   0.879   2.272 -1.2127 -0.0695 -1.3765
  250SOL     MW 1000   2.146   0.849   2.227 -0.0178 -0.2520 -0.3689
  251SOL     OW 1001   0.155   0.906   2.013 -0.3095 -0.4443 -0.3001
  251SOL    HW1 1002   0.135   0.822   2.053  0.9852 -2.1709  2.2095
  251SOL    HW2 1003   0.120   0.904   1.926  0.6460  1.6354 -0.5719
  251SOL     MW 1004   0.148   0.894   2.007 -0.0126 -0.3977 -0.0049
  252SOL     OW 1005   1.652   1.004   2.827 -0.6130 -0.6983 -0.4407
  252SOL    HW1 1006   1.671   1.058   2.906 -1.0766 -1.1628  0.6919
  252SOL    HW2 1007   1.733   1.004   2.780  1.6266  1.6618  0.9400
  252SOL     MW 1008   1.666   1.011   2.831 -0.3786 -0.4482 -0.1091
  253SOL     OW 1009   1.135   1.703   2.433  0.4537 -0.0449  0.8825
  253SOL    HW1 1010   1.107   1.705   2.333  3.3038  0.8609 -4.4112
  253SOL    HW2 1011   1.076   1.771   2.468  2.4942 -0.5049 -0.6323
  253SOL     MW 1012   1.124   1.712   2.425  1.0990  0.0139 -0.0158
  254SOL     OW 1013   0.948   1.134   2.242  0.1106  0.0047 -0.3145
  254SOL    HW1 1014   0.935   1.044   2.248 -1.1157  0.1718 -1.0108
  254SOL    HW2 1015   0.895   1.175   2.312 -0.4903  1.2407 -0.2848
  254SOL     MW 1016   0.939   1.128   2.252 -0.1305  0.1898 -0.4024
  255SOL     OW 1017   0.888   2.560   2.156  0.2526  0.7909  0.5361
  255SOL    HW1 1018   0.790   2.529   2.154 -3.3191 -2.8592  1.5710
  255SOL    HW2 1019   0.944   2.486   2.162 -1.5866  2.6160  0.6735
  255SOL     MW 1020   0.882   2.547   2.156 -0.4613  0.5501  0.6908
  256SOL     OW 1021   1.207   2.758   2.986  0.0329  0.4864  0.5614
  256SOL    HW1 1022   1.159   2.692   2.937 -0.6756  1.7377  0.3664
  256SOL    HW2 1023   1.289   2.777   2.931  0.3944  2.2647 -1.3624
  256SOL     MW 1024   1.212   2.752   2.972 -0.0129  0.8861  0.2819
  257SOL     OW 1025   0.035   1.905   0.043  0.2229 -0.1421  1.3899
  257SOL    HW1 1026   0.109   1.876   0.090 -2.7843 -0.0281 -1.8754
  257SOL    HW2 1027   0.065   1.888  -0.045 -1.4742  0.7082  0.5115
  257SOL     MW 1028   0.049   1.899   0.038 -0.3978 -0.0149  0.8432
  258SOL     OW 1029   0.703   0.978   2.464  0.0056 -0.2703  0.2257
  258SOL    HW1 1030   0.690   1.066   2.486  0.3914 -1.7181 -0.8833
  258SOL    HW2 1031   0.658   0.937   2.531  1.9578 -1.2379 -2.2201
  258SOL     MW 1032   0.695   0.984   2.476  0.3141 -0.5890 -0.2433
  259SOL     OW 1033   0.808   0.491   2.278 -0.2124 -0.3789 -0.0955
  259SOL    HW1 1034   0.731   0.433   2.273 -0.8151 -0.9886  0.3126
  259SOL    HW2 1035   0.884   0.435   2.296 -0.2070  1.7317 -0.1660
  259SOL     MW 1036   0.808   0.476   2.279 -0.2912 -0.1809 -0.0510
  260SOL     OW 1037   0.634   0.096   1.582 -0.0699 -0.7719 -0.3837
  260SOL    HW1 1038   0.577   0.160   1.528 -0.9424 -1.5861  1.4170
  260SOL    HW2 1039   0.722   0.095   1.542 -0.6018  0.5388 -1.2259
  260SOL     MW 1040   0.638   0.104   1.569 -0.2552 -0.7064 -0.2573
  261SOL     OW 1041   1.111   0.673   1.967 -0.2853  0.0164 -0.3655
  261SOL    HW1 1042   1.147   0.654   2.056  0.0731 -0.5945  3.3296
  261SOL    HW2 1043   1.037   0.611   1.950  1.4507  1.1500  0.2690
  261SOL     MW 1044   1.106   0.662   1.976 -0.0089  0.0854  0.2058
  262SOL     OW 1045   1.125   0.332   0.195  0.8387  0.3862 -0.5065
  262SOL    HW1 1046   1.227   0.326   0.176  1.1699 -0.5836 -0.1385
  262SOL    HW2 1047   1.094   0.282   0.114  1.0905  0.2870  0.1012
  262SOL     MW 1048   1.135   0.325   0.182  0.9156  0.2451 -0.3778
  263SOL     OW 1049   0.361   0.021   2.462 -0.0314 -0.6070  0.2938
  263SOL    HW1 1050   0.309   0.105   2.464  0.1851 -1.0912  0.4634
  263SOL    HW2 1051   0.425   0.046   2.396  1.3247  1.0317  1.3028
  263SOL     MW 1052   0.363   0.036   2.454  0.1761 -0.4547  0.4493
  264SOL     OW 1053   1.529   1.360   1.943 -0.5708  0.7812  0.5364
  264SOL    HW1 1054   1.515   1.265   1.934 -0.7268  0.6113 -0.6392
  264SOL    HW2 1055   1.622   1.378   1.967  0.7136  1.8503  3.1156
  264SOL     MW 1056   1.539   1.350   1.945 -0.4219  0.8998  0.7216
  265SOL     OW 1057   0.727   2.761   2.304 -0.2736 -0.4510 -0.1452
  265SOL    HW1 1058   0.806   2.714   2.276 -0.5424 -0.7600  2.0873
  265SOL    HW2 1059   0.714   2.761   2.401 -1.4850  0.6029 -0.7357
  265SOL     MW 1060   0.735   2.755   2.313 -0.4689 -0.3527  0.0715
  266SOL     OW 1061   0.890   0.854   2.149 -0.1007  0.5485 -0.0262
  266SOL    HW1 1062   0.912   0.848   2.056 -2.3369  2.1452 -0.0250
  266SOL    HW2 1063   0.949   0.788   2.192 -0.6358 -5.5838 -2.1544
  266SOL     MW 1064   0.901   0.845   2.143 -0.4663 -0.0499 -0.3068
  267SOL     OW 1065   1.320   1.745   2.633 -0.0029 -0.4809 -0.2295
  267SOL    HW1 1066   1.394   1.687   2.620 -1.6158  0.8958 -1.1027
  267SOL    HW2 1067   1.267   1.742   2.551 -1.0300 -0.8314 -1.3452
  267SOL     MW 1068   1.323   1.737   2.621 -0.3512 -0.3455 -0.4919
  268SOL     OW 1069   0.123   0.931   1.737 -0.3552  0.2246  1.0016
  268SOL    HW1 1070   0.111   1.016   1.690 -0.3771 -2.0388  1.6142
  268SOL    HW2 1071   0.095   0.858   1.678 -0.4059 -1.3758 -2.7145
  268SOL     MW 1072   0.118   0.932   1.723 -0.3648 -0.2852  0.5921
  269SOL     OW 1073   1.347   1.954   2.289 -0.2475 -0.1923  0.0089
  269SOL    HW1 1074   1.384   2.012   2.352 -0.0242  0.7190  1.1964
  269SOL    HW2 1075   1.256   1.949   2.323 -1.0662 -0.8686  2.9488
  269SOL     MW 1076   1.340   1.961   2.302 -0.3260 -0.1613  0.5535
  270SOL     OW 1077   1.134   0.411   1.585  0.1182  0.8026  0.1537
  270SOL    HW1 1078   1.095   0.325   1.616 -1.0831 -0.5513  1.1771
  270SOL    HW2 1079   1.222   0.389   1.552 -1.0231  0.8137 -2.1470
  270SOL     MW 1080   1.140   0.397   1.585 -0.1909  0.6255 -0.0149
  271SOL     OW 1081   0.824   0.078   2.454  0.0872  0.4479  0.8962
  271SOL    HW1 1082   0.894   0.027   2.496  1.8581  0.1198 -2.5708
  271SOL    HW2 1083   0.886   0.145   2.418  3.3419  1.3921 -0.3520
  271SOL     MW 1084   0.842   0.080   2.455  0.7503  0.5292  0.2741
  272SOL     OW 1085   1.456   2.826   2.841 -0.2048 -0.0688 -0.5675
  272SOL    HW1 1086   1.429   2.830   2.749 -0.5164  2.6260  1.7862
  272SOL    HW2 1087   1.489   2.914   2.868  0.6151 -1.3963 -1.4903
  272SOL     MW 1088   1.456   2.838   2.832 -0.1377  0.1116 -0.3787
  273SOL     OW 1089   1.426   0.850   2.748 -0.3280 -0.7954 -0.0211
  273SOL    HW1 1090   1.493   0.921   2.755  2.4738  0.1124  2.6890
  273SOL    HW2 1091   1.342   0.887   2.725  0.2827 -3.1467  2.5533
  273SOL     MW 1092   1.423   0.864   2.746  0.1222 -0.9859  0.6762
  274SOL     OW 1093   1.423   0.732   0.187  0.2350 -1.0248  0.2489
  274SOL    HW1 1094   1.476   0.655   0.218 -0.1776 -2.1059  0.0223
  274SOL    HW2 1095   1.337   0.727   0.228  1.5172 -2.2292 -1.4655
  274SOL     MW 1096   1.418   0.721   0.197  0.3497 -1.3263 -0.0072
  275SOL     OW 1097   1.755   0.514   1.791  0.3985 -0.0120 -0.1713
  275SOL    HW1 1098   1.823   0.572   1.825 -0.3407 -0.7314 -0.7560
  275SOL    HW2 1099   1.780   0.422   1.808  0.9524 -1.8815 -0.4308
  275SOL     MW 1100   1.767   0.510   1.797  0.3741 -0.3536 -0.2827
  276SOL     OW 1101   0.485   1.252   1.920  0.7312 -0.6748  0.4905
  276SOL    HW1 1102   0.492   1.159   1.949  0.5285  1.0137 -3.0390
  276SOL    HW2 1103   0.411   1.284   1.976 -0.3091  1.0947 -0.9222
  276SOL     MW 1104   0.476   1.244   1.931  0.5672 -0.2185 -0.1616
  277SOL     OW 1105   1.972   1.071   2.456  0.5536 -0.3702 -0.2051
  277SOL    HW1 1106   1.992   1.165   2.459  0.0889  0.4317 -1.0092
  277SOL    HW2 1107   1.972   1.062   2.360  1.4227  0.5795  0.5353
  277SOL     MW 1108   1.975   1.082   2.444  0.6069 -0.1391 -0.2135
  278SOL     OW 1109   1.399   0.674   1.765  0.9402  0.0848  0.1705
  278SOL    HW1 1110   1.372   0.584   1.793  1.0924 -4.1634 -0.6274
  278SOL    HW2 1111   1.492   0.680   1.789 -1.1829 -1.6084  0.5185
  278SOL     MW 1112   1.407   0.663   1.772  0.6801 -0.6991  0.1112
  279SOL     OW 1113   0.532   0.108   2.286 -0.3287  0.1708 -0.2815
  279SOL    HW1 1114   0.599   0.040   2.277  2.8111  2.7530  0.0232
  279SOL    HW2 1115   0.563   0.173   2.226 -0.8496 -0.3547  0.7221
  279SOL     MW 1116   0.545   0.107   2.277  0.0169  0.4422 -0.1089
  280SOL     OW 1117   1.461   1.109   2.154  0.1687  0.2070  0.3337
  280SOL    HW1 1118   1.518   1.037   2.123 -1.3774 -0.1600  1.5376
  280SOL    HW2 1119   1.458   1.077   2.249 -1.4156 -1.4148  2.2853
  280SOL     MW 1120   1.468   1.095   2.163 -0.2443 -0.0554  0.7500
  281SOL     OW 1121   1.371   1.149   2.683 -0.3121  0.0044 -0.3426
  281SOL    HW1 1122   1.436   1.221   2.686  3.5532  0.1028 -1.2052
  281SOL    HW2 1123   1.333   1.139   2.773 -1.3250 -1.8319 -2.2355
  281SOL     MW 1124   1.375   1.157   2.695  0.0642 -0.2249 -0.7061
  282SOL     OW 1125   1.167   1.263   1.621  0.2167 -0.3919 -0.2842
  282SOL    HW1 1126   1.156   1.345   1.565 -3.1514 -3.2297  0.5312
  282SOL    HW2 1127   1.090   1.270   1.679  0.1427  0.0709 -0.5114
  282SOL     MW 1128   1.155   1.275   1.622 -0.2374 -0.7052 -0.2066
  283SOL     OW 1129   0.879   1.327   0.004 -0.0660  0.4609 -0.0661
  283SOL    HW1 1130   0.972   1.295  -0.012  1.8108 -0.3323 -1.1488
  283SOL    HW2 1131   0.878   1.421  -0.000 -1.7332  2.3224 -0.4116
  283SOL     MW 1132   0.891   1.335   0.001 -0.0383  0.6019 -0.2545
  284SOL     OW 1133   0.414   0.730   2.348 -0.3961  0.0974 -1.1264
  284SOL    HW1 1134   0.471   0.789   2.296  0.3274  1.1494  2.0352
  284SOL    HW2 1135   0.435   0.647   2.301  1.2326  0.4889 -0.5367
  284SOL     MW 1136   0.424   0.727   2.335 -0.0858  0.2879 -0.6314
  285SOL     OW 1137   0.876   0.905   2.835  0.2156  0.6916  0.5058
  285SOL    HW1 1138   0.883   0.932   2.741 -0.8984 -0.6609  1.5762
  285SOL    HW2 1139   0.829   0.824   2.821  1.3192 -2.5976  1.8848
  285SOL     MW 1140   0.871   0.898   2.821  0.2143  0.0792  0.8290
  286SOL     OW 1141   1.113   1.482   2.620 -0.6517 -0.4067  0.1212
  286SOL    HW1 1142   1.157   1.402   2.607 -1.0753 -0.4674 -1.5876
  286SOL    HW2 1143   1.135   1.532   2.534  1.9780  2.6461  0.7524
  286SOL     MW 1144   1.122   1.478   2.607 -0.3606 -0.0119 -0.0210
  287SOL     OW 1145   1.201   1.027   0.328  0.1715  0.6887  0.5282
  287SOL    HW1 1146   1.177   1.086   0.403 -1.0030  2.2693  2.0106
  287SOL    HW2 1147   1.147   1.064   0.265 -1.0208 -0.2263  1.0866
  287SOL     MW 1148   1.191   1.040   0.330 -0.1408  0.7765  0.7974
  288SOL     OW 1149   1.472   0.609   2.076  0.1872  0.1578 -0.0086
  288SOL    HW1 1150   1.419   0.596   2.166  1.0612  0.7805  1.3297
  288SOL    HW2 1151   1.457   0.702   2.069 -0.5155  3.7702 -0.5335
  288SOL     MW 1152   1.463   0.619   2.087  0.2098  0.7166  0.0987
  289SOL     OW 1153   0.949   1.000   2.586 -0.8550 -0.2582 -0.0061
  289SOL    HW1 1154   0.999   0.914   2.563  0.1130 -1.2027 -0.9778
  289SOL    HW2 1155   0.875   0.993   2.528 -3.0131 -0.7286  0.8216
  289SOL     MW 1156   0.946   0.988   2.575 -1.0120 -0.4449 -0.0251
  290SOL     OW 1157   0.797   0.616   1.479  0.1415  0.6561 -0.3818
  290SOL    HW1 1158   0.845   0.589   1.401  2.0766 -0.8974  0.8851
  290SOL    HW2 1159   0.864   0.630   1.546  0.3395  1.7217 -1.7703
  290SOL     MW 1160   0.812   0.614   1.478  0.4229  0.5918 -0.3979
  291SOL     OW 1161   0.181   0.376   0.141 -0.0989 -0.3031  0.1917
  291SOL    HW1 1162   0.276   0.350   0.156  2.1013 -0.4547 -2.0579
  291SOL    HW2 1163   0.140   0.296   0.110 -0.5058 -1.1853  1.2140
  291SOL     MW 1164   0.188   0.362   0.139  0.1377 -0.4395  0.0298
  292SOL     OW 1165   1.046   0.600   0.135  0.2560 -0.0813 -0.2815
  292SOL    HW1 1166   1.118   0.636   0.192  0.3957  1.4850  2.0373
  292SOL    HW2 1167   1.050   0.508   0.155  1.5258  1.3087 -0.6108
  292SOL     MW 1168   1.056   0.592   0.145  0.4419  0.3088 -0.0190
  293SOL     OW 1169   0.124   0.180   2.506  0.0847  0.0060  0.2428
  293SOL    HW1 1170   0.081   0.115   2.446  1.7159 -1.1301 -1.1086
  293SOL    HW2 1171   0.054   0.201   2.564 -1.6420 -0.3840  0.2982
  293SOL     MW 1172   0.109   0.174   2.506  0.0721 -0.1954  0.0718
  294SOL     OW 1173   1.330   0.537   2.310 -0.6367 -0.7325  0.0894
  294SOL    HW1 1174   1.361   0.578   2.392 -3.7254 -0.0008 -0.4660
  294SOL    HW2 1175   1.340   0.442   2.319 -0.2785 -2.2895  3.2560
  294SOL     MW 1176   1.336   0.530   2.322 -0.9970 -0.8414  0.4339
  295SOL     OW 1177   0.872   0.537   2.531 -0.9551  0.4466 -0.6789
  295SOL    HW1 1178   0.837   0.534   2.442  0.6171 -2.2738 -0.5608
  295SOL    HW2 1179   0.795   0.561   2.586  0.3049 -1.1898 -0.6560
  295SOL     MW 1180   0.857   0.540   2.527 -0.5814 -0.1283 -0.6603
  296SOL     OW 1181   1.222   0.226   2.031  0.5268 -0.5142  0.1757
  296SOL    HW1 1182   1.282   0.155   2.007 -1.9971 -0.6851  0.1386
  296SOL    HW2 1183   1.234   0.236   2.124 -1.0519 -0.9576  0.7235
  296SOL     MW 1184   1.231   0.218   2.040 -0.0145 -0.5953  0.2431
  297SOL     OW 1185   1.392   0.376   1.525  0.1040  0.1952 -0.1267
  297SOL    HW1 1186   1.391   0.434   1.602  1.5418 -2.2955 -1.5287
  297SOL    HW2 1187   1.417   0.295   1.568 -2.2138  0.6346  0.8209
  297SOL     MW 1188   1.395   0.373   1.541 -0.0121 -0.0754 -0.1866
  298SOL     OW 1189   1.601   0.894   2.075 -0.3123  0.6140 -0.2155
  298SOL    HW1 1190   1.646   0.952   2.009  0.3456 -0.0652 -0.2579
  298SOL    HW2 1191   1.669   0.843   2.112 -0.2880  0.9255  0.8358
  298SOL     MW 1192   1.616   0.895   2.071 -0.2223  0.5655 -0.0824
  299SOL     OW 1193   0.571   1.134   0.052 -0.4008  0.3300  0.0670
  299SOL    HW1 1194   0.553   1.120  -0.044 -1.0334  0.3838  3.8523
  299SOL    HW2 1195   0.647   1.190   0.052  1.0466  0.4254  1.7606
  299SOL     MW 1196   0.579   1.140   0.039 -0.2933  0.3497  0.7899
  300SOL     OW 1197   1.190   1.143   2.510 -0.5174  0.4422  0.2971
  300SOL    HW1 1198   1.109   1.107   2.540  0.4826 -3.2585  1.1427
  300SOL    HW2 1199   1.257   1.152   2.581 -0.3554  1.9852 -0.8959
  300SOL     MW 1200   1.189   1.139   2.524 -0.3641  0.1575  0.2513
  301SOL     OW 1201   1.417   0.989   0.710 -0.4776  0.4772  0.5134
  301SOL    HW1 1202   1.464   1.006   0.790 -0.9830  0.4825  0.8707
  301SOL    HW2 1203   1.372   0.909   0.730 -0.5951 -0.1806  0.7786
  301SOL     MW 1204   1.417   0.981   0.723 -0.5598  0.3911  0.5955
  302SOL     OW 1205   0.212   1.537   2.044 -0.1517  0.5069 -0.1571
  302SOL    HW1 1206   0.205   1.442   2.054  1.5557  1.3853  0.9392
  302SOL    HW2 1207   0.127   1.578   2.031 -1.8729 -1.4796  1.5486
  302SOL     MW 1208   0.200   1.530   2.044 -0.1535  0.3607  0.2126
  303SOL     OW 1209   0.314   1.789   2.657  0.7264 -0.0169  0.0701
  303SOL    HW1 1210   0.257   1.794   2.579 -0.9717 -2.8023 -0.8334
  303SOL    HW2 1211   0.267   1.821   2.733 -0.8757  0.6907  1.9405
  303SOL     MW 1212   0.300   1.794   2.657  0.2910 -0.2911  0.1977
  304SOL     OW 1213   0.498   2.032   2.345  0.6417 -0.5917  0.4869
  304SOL    HW1 1214   0.562   2.085   2.291 -1.7192  0.3362  1.0437
  304SOL    HW2 1215   0.551   1.975   2.403 -0.3231  0.4280 -0.4827
  304SOL     MW 1216   0.514   2.031   2.345  0.2029 -0.3347  0.4324
  305SOL     OW 1217   1.102   0.674   0.570  0.4644  0.3693  0.0516
  305SOL    HW1 1218   1.029   0.641   0.511 -1.8901 -0.9005 -0.6722
  305SOL    HW2 1219   1.156   0.592   0.567 -0.1072 -2.0336  0.7715
  305SOL     MW 1220   1.099   0.659   0.562  0.0783 -0.1153  0.0511
  306SOL     OW 1221   1.128   1.556   0.208 -0.4185  0.1809  0.0640
  306SOL    HW1 1222   1.152   1.465   0.240 -2.0743 -1.9601  0.4693
  306SOL    HW2 1223   1.195   1.560   0.143  0.7144 -0.7448  1.8799
  306SOL     MW 1224   1.140   1.544   0.204 -0.4875 -0.2237  0.3570
  307SOL     OW 1225   1.331   0.430   1.894  0.1761 -0.0675 -0.1242
  307SOL    HW1 1226   1.276   0.364   1.942 -0.0348 -0.4677  1.9698
  307SOL    HW2 1227   1.382   0.475   1.963  1.5777  1.9197 -1.2791
  307SOL     MW 1228   1.331   0.428   1.909  0.3332  0.1419 -0.0003
  308SOL     OW 1229   2.233   0.500   2.671  0.4041  0.1316 -0.0170
  308SOL    HW1 1230   2.323   0.499   2.697  0.3180  0.1200 -0.7822
  308SOL    HW2 1231   2.201   0.590   2.697  1.0112 -0.6820 -0.8144
  308SOL     MW 1232   2.241   0.512   2.678  0.4728  0.0228 -0.2231
  309SOL     OW 1233   0.477   0.557   0.231 -0.0556  0.6814  0.1730
  309SOL    HW1 1234   0.538   0.602   0.175  2.7970 -1.3824  0.4065
  309SOL    HW2 1235   0.474   0.468   0.199 -1.9403  1.8457 -0.5752
  309SOL     MW 1236   0.485   0.551   0.219  0.0721  0.5627  0.1051
  310SOL     OW 1237   0.488   0.643   1.920 -0.0153  0.6747  0.1132
  310SOL    HW1 1238   0.509   0.565   1.861  0.5393 -3.2030 -2.1135
  310SOL    HW2 1239   0.529   0.722   1.887 -1.4540 -0.6484  0.6541
  310SOL     MW 1240   0.496   0.643   1.907 -0.1319 -0.0115 -0.1093
  311SOL     OW 1241   1.948   0.649   1.924  0.4249  0.0482  0.7201
  311SOL    HW1 1242   1.904   0.690   1.996 -3.4555 -2.3291 -0.9645
  311SOL    HW2 1243   2.026   0.599   1.966  2.4609 -1.8935 -1.6088
  311SOL     MW 1244   1.953   0.648   1.939  0.1815 -0.5216  0.1906
  312SOL     OW 1245   1.800   2.448   0.162 -0.0679 -0.2931 -0.2822
  312SOL    HW1 1246   1.809   2.410   0.249 -1.1372  0.8821 -0.9423
  312SOL    HW2 1247   1.721   2.498   0.173  0.0564 -0.9471 -0.8921
  312SOL     MW 1248   1.791   2.450   0.175 -0.1926 -0.2243 -0.4498
  313SOL     OW 1249   0.144   1.149   3.028  0.5425 -0.1238 -0.3053
  313SOL    HW1 1250   0.145   1.174   3.119  0.4678  2.4634 -0.1461
  313SOL    HW2 1251   0.210   1.201   2.987  1.1794 -3.0798  3.6227
  313SOL     MW 1252   0.152   1.159   3.035  0.6167 -0.1724  0.2340
  314SOL     OW 1253   2.168   2.961   3.060 -0.2809 -0.2114  0.8454
  314SOL    HW1 1254   2.098   3.001   2.994  2.6204 -1.8756  1.4072
  314SOL    HW2 1255   2.211   3.039   3.096  0.4995 -2.8401  2.9317
  314SOL     MW 1256   2.165   2.977   3.056  0.2049 -0.7778  1.1948
  315SOL     OW 1257   1.546   1.823   2.975 -0.2221  0.0327 -0.3195
  315SOL    HW1 1258   1.490   1.880   3.039  2.0341 -0.1632 -1.2189
  315SOL    HW2 1259   1.557   1.874   2.892  1.3515 -1.3736  0.5562
  315SOL     MW 1260   1.540   1.837   2.973  0.2832 -0.1787 -0.3226
  316SOL     OW 1261   1.247   0.564   2.722  0.0115  0.0099  0.3033
  316SOL    HW1 1262   1.342   0.544   2.712 -0.9110  1.5858 -2.0501
  316SOL    HW2 1263   1.229   0.577   2.816 -1.1456  0.2242  0.6233
  316SOL     MW 1264   1.257   0.563   2.733 -0.2629  0.2461  0.0350
  317SOL     OW 1265   0.698   1.585   2.647 -0.2380  0.4868  0.4724
  317SOL    HW1 1266   0.750   1.510   2.673  1.1135  0.9904  0.3344
  317SOL    HW2 1267   0.708   1.584   2.553 -0.8269  4.0576  2.5131
  317SOL     MW 1268   0.706   1.575   2.638 -0.1374  1.0243  0.7234
  318SOL     OW 1269   1.349   0.351   2.952 -0.2337 -0.0169 -0.2597
  318SOL    HW1 1270   1.270   0.409   2.956 -4.3880 -0.4107 -0.7361
  318SOL    HW2 1271   1.415   0.404   2.905 -1.4333 -4.1243  0.1087
  318SOL     MW 1272   1.347   0.366   2.946 -0.9401 -0.6108 -0.2740
  319SOL     OW 1273   0.862   0.355   2.920  0.7612  0.0658 -0.6900
  319SOL    HW1 1274   0.807   0.297   2.864 -3.1979 -1.9611  0.3792
  319SOL    HW2 1275   0.798   0.406   2.977 -4.0353  0.8110 -0.0148
  319SOL     MW 1276   0.846   0.354   2.920 -0.3940 -0.1033 -0.4598
  320SOL     OW 1277   1.075   1.394   1.987  0.0859  0.3204 -0.5040
  320SOL    HW1 1278   1.124   1.310   1.994 -0.3042  0.5666 -0.8069
  320SOL    HW2 1279   1.131   1.465   1.963 -0.8499 -0.3506  2.3321
  320SOL     MW 1280   1.089   1.392   1.985 -0.0890  0.2644 -0.1698
  321SOL     OW 1281   1.121   0.911   2.996 -0.4508  0.1470 -0.0705
  321SOL    HW1 1282   1.044   0.895   2.939  2.1038  1.0988  1.3179
  321SOL    HW2 1283   1.181   0.834   3.001  1.3665  0.1442  1.4137
  321SOL     MW 1284   1.119   0.899   2.989  0.1261  0.2722  0.3085
  322SOL     OW 1285   1.201   0.833   1.652  0.6215  0.5275 -0.0549
  322SOL    HW1 1286   1.269   0.779   1.698  0.3006 -2.3351 -1.5782
  322SOL    HW2 1287   1.148   0.886   1.718 -3.1150  1.1953  1.1273
  322SOL     MW 1288   1.203   0.833   1.667  0.0861  0.2379 -0.0999
  323SOL     OW 1289   1.244   1.627   1.889 -0.1033 -0.0654 -0.3567
  323SOL    HW1 1290   1.289   1.614   1.804  1.4040 -1.5634  0.5608
  323SOL    HW2 1291   1.180   1.692   1.868  2.8691  2.1607  1.0864
  323SOL     MW 1292   1.242   1.634   1.875  0.4877  0.0306 -0.0453
  324SOL     OW 1293   1.492   1.002   2.412 -0.3428  0.0414  0.1817
  324SOL    HW1 1294   1.431   1.023   2.485 -1.3636 -0.5977 -0.8287
  324SOL    HW2 1295   1.573   1.052   2.417  1.7465 -0.3402 -1.4423
  324SOL     MW 1296   1.495   1.011   2.422 -0.2018 -0.0932 -0.1659
  325SOL     OW 1297   1.110   0.499   2.976  0.2346  0.1309  0.2617
  325SOL    HW1 1298   1.097   0.565   3.050 -0.9962 -0.4730  0.2877
  325SOL    HW2 1299   1.025   0.465   2.958  1.6855  0.9178  0.0286
  325SOL     MW 1300   1.097   0.503   2.983  0.2636  0.1550  0.2344
  326SOL     OW 1301   0.338   1.370   2.280 -0.0158 -0.0912  0.1004
  326SOL    HW1 1302   0.431   1.326   2.267  3.3681 -0.1049  0.3151
  326SOL    HW2 1303   0.342   1.459   2.253  1.2454 -1.5650  1.0482
  326SOL     MW 1304   0.351   1.376   2.275  0.5970 -0.2875  0.2538
  327SOL     OW 1305   1.940   0.793   2.452  0.4654  0.0951 -0.1168
  327SOL    HW1 1306   1.905   0.737   2.529  0.5022  1.4675 -0.5328
  327SOL    HW2 1307   1.955   0.873   2.498 -0.9706  1.9057  0.1692
  327SOL     MW 1308   1.937   0.796   2.468  0.2808  0.5151 -0.1339
  328SOL     OW 1309   0.239   1.266   2.050  0.1087 -0.4857 -0.6868
  328SOL    HW1 1310   0.160   1.212   2.065 -0.3040 -0.6440 -0.0913
  328SOL    HW2 1311   0.272   1.281   2.138 -1.1966 -0.2966  1.3094
  328SOL     MW 1312   0.233   1.261   2.063 -0.1180 -0.4816 -0.3449
  329SOL     OW 1313   0.083   0.171   1.346  0.4436 -0.2759 -0.2711
  329SOL    HW1 1314   0.091   0.114   1.419 -1.3301 -0.1815  1.3713
  329SOL    HW2 1315   0.172   0.199   1.312  0.0078  1.8464 -1.9468
  329SOL     MW 1316   0.096   0.167   1.351  0.1521  0.0166 -0.2755
  330SOL     OW 1317   0.396   3.086   2.029  0.2787  0.2927 -0.4769
  330SOL    HW1 1318   0.480   3.056   2.059  0.0522  0.8229  1.6346
  330SOL    HW2 1319   0.355   3.115   2.107 -1.3972 -2.0273  0.8235
  330SOL     MW 1320   0.402   3.086   2.043  0.0277  0.0565 -0.0268
  331SOL     OW 1321   0.779   1.247   2.464  0.3312  0.1543  0.5143
  331SOL    HW1 1322   0.710   1.303   2.432  1.9728  0.7578 -1.0840
  331SOL    HW2 1323   0.826   1.294   2.537  1.3645  0.4746 -0.8334
  331SOL     MW 1324   0.776   1.261   2.469  0.6841  0.2762  0.1256
  332SOL     OW 1325   1.335   1.666   2.893 -0.2949 -0.3917  0.1776
  332SOL    HW1 1326   1.307   1.680   2.803  0.6864  2.8868  0.1674
  332SOL    HW2 1327   1.411   1.724   2.912  2.5451 -0.8694 -1.1753
  332SOL     MW 1328   1.341   1.676   2.883  0.2093 -0.0222 -0.0022
  333SOL     OW 1329   1.718   1.404   2.908 -0.5801 -0.1958  0.3003
  333SOL    HW1 1330   1.818   1.395   2.928  2.4075  0.5741  0.5592
  333SOL    HW2 1331   1.680   1.331   2.958  1.3875 -0.3905 -0.8146
  333SOL     MW 1332   1.726   1.393   2.917  0.0737 -0.1199  0.1873
  334SOL     OW 1333   1.262   3.048   2.632 -0.4194  0.4118  0.7958
  334SOL    HW1 1334   1.178   3.053   2.671 -1.1645 -0.1579 -0.7771
  334SOL    HW2 1335   1.300   3.133   2.672 -0.3005  2.0420  2.7318
  334SOL     MW 1336   1.256   3.060   2.642 -0.5020  0.5518  0.8437
  335SOL     OW 1337   1.309   0.736   2.988  0.4751 -0.1092 -0.2037
  335SOL    HW1 1338   1.376   0.746   3.064  0.3844 -1.9003  2.8263
  335SOL    HW2 1339   1.372   0.764   2.918 -0.2994 -2.1623 -0.8461
  335SOL     MW 1340   1.326   0.741   2.989  0.3610 -0.6164  0.1113
  336SOL     OW 1341   0.957   1.195   1.767  0.2820  0.1254 -0.0965
  336SOL    HW1 1342   0.907   1.246   1.824  2.3775 -0.7318 -2.4303
  336SOL    HW2 1343   1.005   1.136   1.827 -1.0609  0.7061  0.9346
  336SOL     MW 1344   0.957   1.194   1.783  0.3813  0.0889 -0.2684
  337SOL     OW 1345   0.581   1.861   2.789 -0.3853  0.0953  0.2454
  337SOL    HW1 1346   0.547   1.814   2.715  1.1817  0.4176  1.7404
  337SOL    HW2 1347   0.678   1.843   2.788 -1.5896  1.2588  0.6683
  337SOL     MW 1348   0.590   1.852   2.779 -0.3374  0.2913  0.4984
  338SOL     OW 1349   1.048   0.755   2.552 -0.8887  0.3944 -0.4585
  338SOL    HW1 1350   0.970   0.694   2.556  1.1360  1.5051  0.4695
  338SOL    HW2 1351   1.118   0.712   2.593  1.7389  0.3627 -1.4047
  338SOL     MW 1352   1.047   0.742   2.558 -0.2748  0.5368 -0.4609
  339SOL     OW 1353   1.461   1.113   1.863 -0.4868  0.1300 -0.2412
  339SOL    HW1 1354   1.427   1.105   1.772  0.2724  0.2998 -0.7260
  339SOL    HW2 1355   1.397   1.067   1.917 -0.0153  0.8323  1.0341
  339SOL     MW 1356   1.448   1.106   1.858 -0.3244  0.2450 -0.1369
  340SOL     OW 1357   1.344   1.497   0.035 -0.9742  0.4043  0.0947
  340SOL    HW1 1358   1.374   1.555  -0.036  0.7136 -1.6833  0.1507
  340SOL    HW2 1359   1.424   1.465   0.077  1.8727 -1.7488 -0.5690
  340SOL     MW 1360   1.359   1.501   0.031 -0.3759 -0.1552  0.0145
  341SOL     OW 1361   0.032   1.363   2.757 -0.2904  0.0907  0.1040
  341SOL    HW1 1362   0.082   1.282   2.759  0.4268  0.0792  2.1784
  341SOL    HW2 1363   0.005   1.363   2.670  2.2142 -0.7089  0.8461
  341SOL     MW 1364   0.035   1.352   2.745  0.1347 -0.0163  0.4756
  342SOL     OW 1365   1.374   0.335   0.120 -0.1596 -0.4150  0.3807
  342SOL    HW1 1366   1.429   0.407   0.166  1.2435  0.3964  0.8700
  342SOL    HW2 1367   1.379   0.367   0.031 -0.0978  0.9940  0.7226
  342SOL     MW 1368   1.382   0.349   0.114  0.0337 -0.1221  0.4904
  343SOL     OW 1369   0.303   0.298   2.216 -0.0591  0.1377  0.0298
  343SOL    HW1 1370   0.364   0.231   2.241  0.3588 -2.2617 -0.0675
  343SOL    HW2 1371   0.213   0.261   2.214  1.3214 -1.0160  2.2580
  343SOL     MW 1372   0.299   0.284   2.219  0.1782 -0.3311  0.3109
  344SOL     OW 1373   1.715   2.029   0.170  0.1289  0.0366 -0.3681
  344SOL    HW1 1374   1.754   2.068   0.090 -1.6133  1.4787 -0.8063
  344SOL    HW2 1375   1.629   2.058   0.181  3.7561 -1.9037 -1.2464
  344SOL     MW 1376   1.709   2.038   0.161  0.3776 -0.0291 -0.5418
  345SOL     OW 1377   0.680   1.567   2.370  0.1874 -0.2970 -0.0454
  345SOL    HW1 1378   0.608   1.602   2.311  1.1025  2.8348 -2.8513
  345SOL    HW2 1379   0.746   1.530   2.315 -0.1371 -0.4440  0.6104
  345SOL     MW 1380   0.679   1.567   2.355  0.2654  0.0968 -0.3291
  346SOL     OW 1381   1.720   1.116   3.074 -0.0724 -0.2850 -0.8533
  346SOL    HW1 1382   1.812   1.102   3.095 -2.2209 -0.2010 -1.9188
  346SOL    HW2 1383   1.666   1.050   3.124  0.4230 -1.6532  1.0289
  346SOL     MW 1384   1.725   1.105   3.083 -0.2905 -0.4545 -0.7455
  347SOL     OW 1385   1.141   0.752   2.265 -0.2328  0.0321 -0.2369
  347SOL    HW1 1386   1.216   0.694   2.267  0.9526 -0.4203 -0.4481
  347SOL    HW2 1387   1.129   0.764   2.362 -0.1338 -0.1117  2.9380
  347SOL     MW 1388   1.149   0.746   2.278 -0.0633 -0.0466  0.1541
  348SOL     OW 1389   1.358   2.550   1.911  0.2802  0.3016 -0.3553
  348SOL    HW1 1390   1.328   2.504   1.992 -0.0779  0.7731  2.8611
  348SOL    HW2 1391   1.388   2.637   1.944  1.5910 -1.4021  0.0099
  348SOL     MW 1392   1.358   2.555   1.926  0.4059  0.1390  0.1173
  349SOL     OW 1393   1.405   0.161   2.754 -0.1959  0.4597  0.6515
  349SOL    HW1 1394   1.359   0.206   2.824  0.6751  2.5512 -1.7582
  349SOL    HW2 1395   1.464   0.101   2.804 -0.6470 -0.0109  0.2686
  349SOL     MW 1396   1.407   0.159   2.770 -0.1405  0.6735  0.2831
  350SOL     OW 1397   1.828   0.650   2.675  0.1665 -0.3517 -0.6931
  350SOL    HW1 1398   1.777   0.576   2.628  2.0300  1.6029  0.7722
  350SOL    HW2 1399   1.908   0.609   2.703  0.4119  2.6371  1.7605
  350SOL     MW 1400   1.832   0.635   2.672  0.4447  0.3005 -0.1761
  351SOL     OW 1401   0.070   1.181   1.640 -0.0963 -0.4510 -0.1615
  351SOL    HW1 1402  -0.005   1.176   1.704 -1.4957 -2.6234  1.5633
  351SOL    HW2 1403   0.139   1.243   1.673 -1.4357 -1.0221 -1.9614
  351SOL     MW 1404   0.069   1.188   1.653 -0.4577 -0.8130 -0.1714
  352SOL     OW 1405   0.845   1.749   2.795  0.1649 -0.1068  0.0435
  352SOL    HW1 1406   0.824   1.704   2.883  0.1958  2.8002  0.1493
  352SOL    HW2 1407   0.795   1.685   2.734 -3.5073 -1.3788  0.5009
  352SOL     MW 1408   0.836   1.735   2.798 -0.3156  0.1089  0.1178
  353SOL     OW 1409   0.026   2.545   2.741 -0.4890  0.0062 -0.3813
  353SOL    HW1 1410   0.114   2.533   2.702 -2.6565  0.1729 -1.9703
  353SOL    HW2 1411   0.013   2.638   2.752 -1.3705 -0.0382  1.5593
  353SOL     MW 1412   0.036   2.556   2.738 -0.8913  0.0223 -0.3349
  354SOL     OW 1413   0.316   2.462   0.844  0.4366 -0.0533  0.3904
  354SOL    HW1 1414   0.347   2.439   0.933 -2.8162  0.7013 -1.4104
  354SOL    HW2 1415   0.236   2.410   0.846  1.2508 -0.5755  1.0037
  354SOL     MW 1416   0.309   2.452   0.856  0.1149 -0.0227  0.2338
  355SOL     OW 1417   3.060   2.212   0.334 -0.8798 -1.0838 -0.0611
  355SOL    HW1 1418   2.990   2.150   0.317  1.7309  0.9455  1.6746
  355SOL    HW2 1419   3.038   2.268   0.410 -1.5315 -0.2489  0.6790
  355SOL     MW 1420   3.048   2.211   0.342 -0.6213 -0.7059  0.2656
  356SOL     OW 1421   0.817   2.771   0.941  0.3072  0.4257  0.5488
  356SOL    HW1 1422   0.873   2.829   0.887  1.0761  2.0761  0.7790
  356SOL    HW2 1423   0.728   2.775   0.902  0.8786  0.5849  0.8235
  356SOL     MW 1424   0.812   2.779   0.929  0.4841  0.6645  0.6154
  357SOL     OW 1425   1.787   2.815   0.487  0.2158 -0.2522  0.5082
  357SOL    HW1 1426   1.783   2.739   0.547 -0.9305 -1.0631 -0.8560
  357SOL    HW2 1427   1.874   2.816   0.447  1.1653 -0.2956 -3.3196
  357SOL     MW 1428   1.798   2.805   0.489  0.1899 -0.3649 -0.1769
  358SOL     OW 1429   0.450   0.161   1.021 -0.5229  0.4414  0.2206
  358SOL    HW1 1430   0.549   0.153   1.010  1.0695 -0.7569  1.1845
  358SOL    HW2 1431   0.405   0.170   0.936  0.0198  1.4223 -0.0803
  358SOL     MW 1432   0.457   0.161   1.008 -0.2412  0.4127  0.3081
  359SOL     OW 1433   0.784   2.939   1.853 -0.1505  1.0553 -0.4980
  359SOL    HW1 1434   0.791   2.845   1.872 -0.8844  0.8125 -1.9423
  359SOL    HW2 1435   0.822   2.946   1.766  1.1779 -1.1643 -2.1339
  359SOL     MW 1436   0.790   2.928   1.844 -0.0721  0.7304 -0.9044
  360SOL     OW 1437   0.555   2.761   0.869  0.1630 -0.4623 -0.5271
  360SOL    HW1 1438   0.568   2.730   0.779 -0.2605 -2.0488 -0.0879
  360SOL    HW2 1439   0.588   2.691   0.935  0.1843 -0.6274  0.8457
  360SOL     MW 1440   0.561   2.747   0.866  0.1100 -0.6934 -0.2881
  361SOL     OW 1441   0.211   2.619   1.405  0.1459  0.4467  0.5394
  361SOL    HW1 1442   0.175   2.685   1.463 -1.4524  0.0967  0.0957
  361SOL    HW2 1443   0.298   2.644   1.393 -2.7162  1.7552  2.8966
  361SOL     MW 1444   0.218   2.631   1.411 -0.4426  0.5731  0.7918
  362SOL     OW 1445   1.419   2.387   0.593 -0.3738 -0.0615 -0.7487
  362SOL    HW1 1446   1.465   2.330   0.656 -2.8401  2.3974  0.7783
  362SOL    HW2 1447   1.447   2.485   0.604 -1.7571  0.5844 -1.3606
  362SOL     MW 1448   1.429   2.392   0.603 -0.8817  0.3481 -0.6280
  363SOL     OW 1449   0.310   3.068   0.647  0.1613 -0.6202 -0.4576
  363SOL    HW1 1450   0.292   3.011   0.720 -0.5717  0.3520  0.1172
  363SOL    HW2 1451   0.228   3.108   0.615  1.6870 -2.0956 -2.6033
  363SOL     MW 1452   0.297   3.066   0.653  0.2659 -0.6866 -0.6649
  364SOL     OW 1453   0.772   0.247   0.168  0.3456  0.0709 -0.4491
  364SOL    HW1 1454   0.695   0.188   0.192 -1.1157 -0.9766 -2.0689
  364SOL    HW2 1455   0.728   0.310   0.110  0.8646 -0.4511  0.3990
  364SOL     MW 1456   0.756   0.248   0.164  0.2213 -0.1361 -0.5509
  365SOL     OW 1457   0.971   2.030   1.115 -0.4875  0.0629 -0.1191
  365SOL    HW1 1458   0.913   2.101   1.091  0.1964 -1.9285  2.8186
  365SOL    HW2 1459   0.922   1.955   1.081  2.3292  2.7195  0.5443
  365SOL     MW 1460   0.957   2.030   1.108 -0.0256  0.1506  0.3560
  366SOL     OW 1461   2.945   2.653   0.946  0.3616  0.3467  0.5213
  366SOL    HW1 1462   3.023   2.669   0.995  0.2726  1.8784 -1.8397
  366SOL    HW2 1463   2.965   2.686   0.852 -1.6749 -0.3419 -0.8312
  366SOL     MW 1464   2.958   2.660   0.940  0.0812  0.4579  0.0314
  367SOL     OW 1465   1.227   2.957   0.908 -0.1479  0.4243  0.6966
  367SOL    HW1 1466   1.274   3.019   0.860 -1.7418 -0.9092  2.0357
  367SOL    HW2 1467   1.190   2.905   0.834 -0.1970  0.3097  0.1603
  367SOL     MW 1468   1.228   2.959   0.892 -0.3646  0.2333  0.8025
  368SOL     OW 1469   1.723   0.388   0.731  0.5373  0.4032 -0.3334
  368SOL    HW1 1470   1.764   0.337   0.666 -0.4794  0.9729  3.1736
  368SOL    HW2 1471   1.747   0.476   0.706  0.7556 -0.9255 -0.4801
  368SOL     MW 1472   1.732   0.393   0.719  0.4320  0.3031  0.1100
  369SOL     OW 1473   0.117   2.419   1.782  0.1567  0.2589  0.5131
  369SOL    HW1 1474   0.217   2.412   1.774 -0.5255  3.0210  0.6723
  369SOL    HW2 1475   0.091   2.508   1.757 -0.7839 -0.9862  0.6436
  369SOL     MW 1476   0.127   2.430   1.778 -0.0574  0.4590  0.5513
  370SOL     OW 1477   0.743   0.150   0.959  0.0394  0.1406  0.1417
  370SOL    HW1 1478   0.750   0.243   0.927  3.4154  2.1914  1.4682
  370SOL    HW2 1479   0.825   0.116   0.950 -3.0727 -0.4295 -1.1001
  370SOL     MW 1480   0.755   0.158   0.954  0.0742  0.3359  0.1529
  371SOL     OW 1481   1.259   2.839   1.512 -0.7979  0.0635 -0.1094
  371SOL    HW1 1482   1.218   2.752   1.498 -0.5453 -1.7637  3.3158
  371SOL    HW2 1483   1.250   2.877   1.421 -1.2371 -2.3673 -1.4309
  371SOL     MW 1484   1.253   2.832   1.498 -0.8225 -0.4983  0.1682
  372SOL     OW 1485   0.815   2.307   0.487  0.2029  0.3274  0.2221
  372SOL    HW1 1486   0.760   2.228   0.500  0.4940  0.9402  0.8327
  372SOL    HW2 1487   0.851   2.315   0.385  0.7990 -1.3674 -0.5942
  372SOL     MW 1488   0.813   2.298   0.475  0.3200  0.1846  0.1950
  373SOL     OW 1489   2.864   3.019   1.392 -0.0818 -0.3638 -0.5010
  373SOL    HW1 1490   2.936   2.979   1.339  2.3179 -2.2273 -0.8319
  373SOL    HW2 1491   2.859   3.116   1.381  0.3039  1.0532  1.6633
  373SOL     MW 1492   2.873   3.027   1.384  0.2857 -0.4227 -0.2591
  374SOL     OW 1493   1.531   0.497   0.281 -0.0255  0.1115 -0.8004
  374SOL    HW1 1494   1.619   0.456   0.276 -0.2752 -0.8780 -1.2283
  374SOL    HW2 1495   1.488   0.440   0.347 -2.3994  1.2257  2.5556
  374SOL     MW 1496   1.537   0.484   0.289 -0.3717  0.1279 -0.4140
  375SOL     OW 1497   0.958   2.124   2.327 -0.1286  0.8589  0.7358
  375SOL    HW1 1498   1.008   2.088   2.397  0.4691 -3.9950 -1.6382
  375SOL    HW2 1499   0.924   2.040   2.285 -0.4906 -1.1211  1.0486
  375SOL     MW 1500   0.960   2.108   2.331 -0.0975 -0.0428  0.4639
  376SOL     OW 1501   0.701   2.475   0.066  0.0575 -0.1375 -0.5160
  376SOL    HW1 1502   0.628   2.415   0.085  0.7149  0.5385  0.1091
  376SOL    HW2 1503   0.745   2.444  -0.019  1.5069 -2.3359 -3.4449
  376SOL     MW 1504   0.697   2.463   0.058  0.3355 -0.3383 -0.8199
  377SOL     OW 1505   1.256   2.098   0.915 -0.1950  0.2214  0.2148
  377SOL    HW1 1506   1.177   2.077   0.867  0.2024  0.2462  0.3718
  377SOL    HW2 1507   1.251   2.039   0.993  0.8527 -2.2845  0.6895
  377SOL     MW 1508   1.245   2.087   0.919 -0.0043 -0.1059  0.2982
  378SOL     OW 1509   0.920   2.883   1.603  0.0225  0.7403 -0.3271
  378SOL    HW1 1510   0.933   2.792   1.631 -0.8281 -0.4300 -0.4576
  378SOL    HW2 1511   0.971   2.905   1.521  2.4592  3.3705 -0.6900
  378SOL     MW 1512   0.928   2.874   1.596  0.2318  0.9329 -0.3922
  379SOL     OW 1513   1.127   1.656   2.164 -0.4359 -0.4173 -0.2854
  379SOL    HW1 1514   1.051   1.595   2.170 -1.6269 -1.1666 -0.1451
  379SOL    HW2 1515   1.190   1.621   2.101 -1.3497  1.1211  0.3403
  379SOL     MW 1516   1.125   1.643   2.157 -0.7136 -0.3132 -0.1844
  380SOL     OW 1517   0.904   0.083   1.463  0.2010 -0.5257 -0.1830
  380SOL    HW1 1518   0.921  -0.003   1.423  1.3760  0.0600  2.9427
  380SOL    HW2 1519   0.958   0.090   1.546 -0.8128 -3.7711 -1.8555
  380SOL     MW 1520   0.913   0.072   1.468  0.2223 -0.8766  0.0087
  381SOL     OW 1521   0.739   2.085   0.846  0.7939 -0.1983 -0.3607
  381SOL    HW1 1522   0.832   2.074   0.834  0.1277  1.3450  0.2438
  381SOL    HW2 1523   0.731   2.150   0.918  0.1060  0.8918  3.0048
  381SOL     MW 1524   0.750   2.092   0.854  0.6153  0.1491  0.1631
  382SOL     OW 1525   0.745   0.152   0.619  0.7169  0.0794  0.3020
  382SOL    HW1 1526   0.720   0.150   0.708 -0.0673  1.3845 -0.3591
  382SOL    HW2 1527   0.731   0.060   0.596  0.8105  1.2592  0.5398
  382SOL     MW 1528   0.740   0.140   0.628  0.6258  0.4073  0.2461
  383SOL     OW 1529   0.560   0.045   0.280 -0.0537  0.0864 -0.1507
  383SOL    HW1 1530   0.621  -0.013   0.237  1.4323  1.5234  1.9977
  383SOL    HW2 1531   0.514  -0.007   0.348  3.2909 -1.4550  3.0218
  383SOL     MW 1532   0.562   0.030   0.283  0.5837  0.0726  0.5513
  384SOL     OW 1533   0.759   2.979   0.604 -0.2148 -0.4826 -0.2405
  384SOL    HW1 1534   0.843   2.952   0.650  1.6056 -1.3470  2.7735
  384SOL    HW2 1535   0.706   2.900   0.615  1.7456  2.1933 -0.9716
  384SOL     MW 1536   0.763   2.965   0.611  0.2840 -0.2436  0.0607
  385SOL     OW 1537   1.448   2.039   1.546  0.2138  0.1965 -0.0157
  385SOL    HW1 1538   1.503   2.092   1.605 -1.9364 -0.2837 -0.8647
  385SOL    HW2 1539   1.401   1.966   1.597  1.9577 -0.3706  0.6481
  385SOL     MW 1540   1.449   2.036   1.560  0.1602  0.0583 -0.0402
  386SOL     OW 1541   1.297   0.349   0.843 -0.2772  0.0307  0.3547
  386SOL    HW1 1542   1.257   0.393   0.920  1.4404 -0.2846 -0.2027
  386SOL    HW2 1543   1.372   0.298   0.878  1.0036  1.4380  0.6198
  386SOL     MW 1544   1.301   0.348   0.858  0.1184  0.1748  0.3162
  387SOL     OW 1545   0.805   2.157   1.489 -0.4145 -0.3788 -0.1073
  387SOL    HW1 1546   0.885   2.201   1.469 -3.1089 -2.9886 -0.6775
  387SOL    HW2 1547   0.834   2.070   1.464 -1.7012  1.0470 -0.5638
  387SOL     MW 1548   0.819   2.151   1.483 -0.9398 -0.5350 -0.2428
  388SOL     OW 1549   1.528   2.746   1.273 -0.1305  0.2855  0.9201
  388SOL    HW1 1550   1.459   2.798   1.241 -0.1842 -1.8674  2.8707
  388SOL    HW2 1551   1.528   2.654   1.232 -0.2002  0.1542  0.7573
  388SOL     MW 1552   1.519   2.741   1.263 -0.1468 -0.0158  1.1560
  389SOL     OW 1553   0.563   0.154   3.051  0.0196 -0.0000 -0.0290
  389SOL    HW1 1554   0.631   0.097   3.007 -0.4118 -2.4372 -0.1769
  389SOL    HW2 1555   0.501   0.189   2.982  1.0209  0.7655  3.4456
  389SOL     MW 1556   0.564   0.151   3.036  0.0948 -0.2206  0.4099
  390SOL     OW 1557   1.333   0.040   0.695  0.6244  0.4228 -0.4485
  390SOL    HW1 1558   1.400   0.036   0.631 -0.3709 -1.2875  1.6074
  390SOL    HW2 1559   1.372   0.078   0.778  1.5733 -0.3883 -0.8002
  390SOL     MW 1560   1.347   0.045   0.698  0.6183  0.0901 -0.2236
  391SOL     OW 1561   0.406   2.181   1.500  0.1594  0.1273 -0.3507
  391SOL    HW1 1562   0.374   2.090   1.500 -0.6705  0.0219  1.0562
  391SOL    HW2 1563   0.328   2.238   1.511 -0.3259  1.3418  0.3737
  391SOL     MW 1564   0.392   2.177   1.502 -0.0142  0.2737 -0.0695
  392SOL     OW 1565   2.075   2.228   0.302 -0.5998  0.2024 -0.4396
  392SOL    HW1 1566   2.166   2.212   0.305 -0.4259 -2.0872 -0.4219
  392SOL    HW2 1567   2.043   2.230   0.390  1.4575 -0.3344 -2.0121
  392SOL     MW 1568   2.083   2.226   0.314 -0.3054 -0.1706 -0.6447
  393SOL     OW 1569   0.307   2.923   2.824 -0.3306  0.3059  0.5080
  393SOL    HW1 1570   0.387   2.899   2.781 -1.0439 -0.2392  0.8880
  393SOL    HW2 1571   0.288   3.009   2.785  1.1643  1.6747 -1.1074
  393SOL     MW 1572   0.315   2.931   2.813 -0.2275  0.4146  0.3450
  394SOL     OW 1573   0.978   1.689   1.535  0.5151  0.2208  0.4163
  394SOL    HW1 1574   0.942   1.730   1.611 -0.6759  3.4834 -0.5616
  394SOL    HW2 1575   0.994   1.761   1.478 -1.6770 -2.3772  1.8786
  394SOL     MW 1576   0.976   1.704   1.537  0.0688  0.3085  0.4802
  395SOL     OW 1577   0.974   2.978   2.538  0.1732 -0.2000 -0.0748
  395SOL    HW1 1578   0.972   2.996   2.633 -1.9096  0.2191 -0.3018
  395SOL    HW2 1579   1.046   2.920   2.539 -0.4768  0.2320  1.0336
  395SOL     MW 1580   0.983   2.973   2.550 -0.1873 -0.0877  0.0415
  396SOL     OW 1581   0.704   1.860   2.437 -0.1293  1.0203  0.1156
  396SOL    HW1 1582   0.787   1.840   2.482  1.5944 -0.4447 -0.2323
  396SOL    HW2 1583   0.669   1.771   2.423  0.6947  0.4260 -0.0507
  396SOL     MW 1584   0.710   1.845   2.441  0.2068  0.7486  0.0477
  397SOL     OW 1585   1.017   2.320   1.437 -0.1334 -0.0021 -0.0434
  397SOL    HW1 1586   1.037   2.362   1.350  0.3839  2.6321 -1.7013
  397SOL    HW2 1587   1.096   2.266   1.461 -0.5372 -0.3027  1.0450
  397SOL     MW 1588   1.030   2.318   1.428 -0.1184  0.3058 -0.1186
  398SOL     OW 1589   0.625   2.730   0.613 -0.1420  0.0067  0.1029
  398SOL    HW1 1590   0.554   2.718   0.547 -1.1186 -1.1859 -0.5251
  398SOL    HW2 1591   0.659   2.637   0.623 -2.4206 -2.6287 -0.0324
  398SOL     MW 1592   0.620   2.716   0.606 -0.5715 -0.4984  0.0022
  399SOL     OW 1593   0.221   2.090   0.346 -0.0291  0.4111  0.0224
  399SOL    HW1 1594   0.131   2.117   0.359  3.7536 -0.6927 -0.2440
  399SOL    HW2 1595   0.249   2.101   0.251  2.2666 -0.4820 -0.8369
  399SOL     MW 1596   0.213   2.095   0.335  0.7729  0.1476 -0.1261
  400SOL     OW 1597   0.564   1.993   0.086  0.2521 -0.0379  0.3771
  400SOL    HW1 1598   0.488   2.047   0.068 -2.2991 -1.3064 -1.4537
  400SOL    HW2 1599   0.539   1.953   0.168 -0.5917  2.6296 -1.4454
  400SOL     MW 1600   0.551   1.995   0.094 -0.1958  0.1466 -0.1049
  401SOL     OW 1601   0.813   2.097   0.081 -0.1262  0.1380  0.0875
  401SOL    HW1 1602   0.862   2.015   0.100  4.1561  0.4159 -3.8783
  401SOL    HW2 1603   0.718   2.073   0.070 -0.5517  2.4878  1.9344
  401SOL     MW 1604   0.807   2.083   0.082  0.3827  0.4847 -0.1920
  402SOL     OW 1605   0.565   2.973   1.718  0.3860  0.3906  0.1010
  402SOL    HW1 1606   0.642   2.948   1.775 -1.2130  0.1813 -1.8077
  402SOL    HW2 1607   0.599   3.056   1.679 -1.0792 -0.3735 -1.5097
  402SOL     MW 1608   0.580   2.980   1.720 -0.0183  0.2622 -0.3633
  403SOL     OW 1609   0.084   0.471   0.368 -0.1504  0.3653 -0.2898
  403SOL    HW1 1610   0.158   0.526   0.403  1.5009  2.6653  0.7686
  403SOL    HW2 1611   0.110   0.440   0.283 -0.6314  2.9295  1.7354
  403SOL     MW 1612   0.097   0.474   0.362  0.0040  1.0071  0.1171
  404SOL     OW 1613   0.965   2.902   0.749  0.1840  0.1635  0.1040
  404SOL    HW1 1614   1.033   2.844   0.718  0.4991 -0.6443 -1.0063
  404SOL    HW2 1615   1.008   2.986   0.737  0.8140 -1.0876 -0.2824
  404SOL     MW 1616   0.979   2.906   0.743  0.3087 -0.1081 -0.0935
  405SOL     OW 1617   0.508   2.457   1.529 -0.4562  0.0976 -0.3479
  405SOL    HW1 1618   0.527   2.515   1.456 -1.4157 -0.5274  1.5027
  405SOL    HW2 1619   0.478   2.387   1.481  1.4358  0.9818  0.4195
  405SOL     MW 1620   0.506   2.455   1.513 -0.3331  0.1318 -0.0025
  406SOL     OW 1621   0.340   2.408   1.103  0.8462 -0.1885  0.7043
  406SOL    HW1 1622   0.240   2.416   1.091  0.1131  0.5251 -3.4833
  406SOL    HW2 1623   0.367   2.319   1.135 -0.5867 -0.5505  1.7705
  406SOL     MW 1624   0.331   2.397   1.105  0.5605 -0.1421  0.2925
  407SOL     OW 1625   0.075   2.678   1.157 -0.2962 -0.1337 -0.0132
  407SOL    HW1 1626   0.123   2.660   1.242  0.7904  0.2284  2.8565
  407SOL    HW2 1627   0.132   2.695   1.084 -0.8408 -3.6442  0.3501
  407SOL     MW 1628   0.089   2.678   1.159 -0.2247 -0.5491  0.4134
  408SOL     OW 1629   2.148   2.110   0.676 -0.3634  0.3960  0.2258
  408SOL    HW1 1630   2.077   2.154   0.721  1.7609 -1.2651 -0.9088
  408SOL    HW2 1631   2.099   2.041   0.631  2.2840  1.7258  0.5246
  408SOL     MW 1632   2.132   2.106   0.676  0.2661  0.3523  0.1155
  409SOL     OW 1633   1.484   0.137   0.923  0.5598 -0.1239 -0.6194
  409SOL    HW1 1634   1.552   0.192   0.967  2.5380  1.0542  1.0007
  409SOL    HW2 1635   1.494   0.055   0.967 -0.3833 -0.5279 -2.7278
  409SOL     MW 1636   1.494   0.133   0.934  0.6964 -0.0218 -0.6838
  410SOL     OW 1637   1.054   2.421   1.177 -0.2820  0.5968  0.1902
  410SOL    HW1 1638   0.978   2.428   1.117 -0.2569 -0.0548 -3.7644
  410SOL    HW2 1639   1.122   2.383   1.114  0.9040 -2.3961  0.4396
  410SOL     MW 1640   1.053   2.417   1.161 -0.1222  0.1159 -0.2987
  411SOL     OW 1641   1.971   3.064   2.912  0.2723 -0.4276 -0.1929
  411SOL    HW1 1642   1.903   3.033   2.855  0.8478 -1.5853  0.6823
  411SOL    HW2 1643   1.932   3.140   2.954  1.3205  0.2600 -1.6754
  411SOL     MW 1644   1.957   3.070   2.910  0.4866 -0.4896 -0.2730
  412SOL     OW 1645   1.059   2.242   0.622  0.4163  0.7278 -0.1333
  412SOL    HW1 1646   1.101   2.318   0.654  1.7364 -0.0494  0.3091
  412SOL    HW2 1647   0.979   2.265   0.577  0.7535 -0.2412  0.2350
  412SOL     MW 1648   1.054   2.255   0.620  0.6350  0.4974 -0.0264
  413SOL     OW 1649   0.576   2.727   0.049 -0.3000  0.7266  0.0348
  413SOL    HW1 1650   0.646   2.660   0.051  4.9631  1.9717  1.5846
  413SOL    HW2 1651   0.582   2.767  -0.034 -0.2346 -3.4149  1.2609
  413SOL     MW 1652   0.586   2.723   0.039  0.4031  0.3445  0.4011
  414SOL     OW 1653   2.035   2.999   1.189  0.2466 -0.0543 -0.3670
  414SOL    HW1 1654   2.081   3.089   1.193  2.5094 -0.1085  0.6001
  414SOL    HW2 1655   1.986   3.011   1.107 -1.3148 -0.9858 -0.8232
  414SOL     MW 1656   2.034   3.012   1.179  0.3392 -0.1844 -0.2996
  415SOL     OW 1657   1.703   2.799   1.081 -0.9094  0.1195 -0.2316
  415SOL    HW1 1658   1.659   2.769   1.160 -0.6310 -0.2368 -0.0689
  415SOL    HW2 1659   1.794   2.800   1.103 -2.9458  2.9365  2.6152
  415SOL     MW 1660   1.709   2.795   1.094 -1.1413  0.4442  0.1655
  416SOL     OW 1661   0.557   1.853   1.417  0.0549 -1.5519  0.6699
  416SOL    HW1 1662   0.478   1.847   1.465  2.2775  2.1418 -0.8564
  416SOL    HW2 1663   0.603   1.773   1.426  0.4409 -0.0945 -0.3170
  416SOL     MW 1664   0.553   1.841   1.425  0.3991 -0.8723  0.3383
  417SOL     OW 1665   0.990   3.025   2.041  0.0233  0.1587 -0.0781
  417SOL    HW1 1666   0.925   3.051   2.104  0.9786  2.0325  1.0281
  417SOL    HW2 1667   0.947   2.972   1.972  1.3516  3.5945  1.5476
  417SOL     MW 1668   0.975   3.022   2.041  0.3246  0.8592  0.2824
  418SOL     OW 1669   0.730   2.951   0.151  0.4193  0.2974  0.1405
  418SOL    HW1 1670   0.811   2.925   0.102  2.1950  2.7351  0.7292
  418SOL    HW2 1671   0.674   2.873   0.139  0.4249  0.1648  0.9557
  418SOL     MW 1672   0.733   2.938   0.143  0.6543  0.6015  0.3257
  419SOL     OW 1673   0.513   2.683   1.366  0.1397  0.3239  0.1558
  419SOL    HW1 1674   0.563   2.755   1.407 -0.4786  1.7500 -4.3171
  419SOL    HW2 1675   0.590   2.650   1.323 -0.0103 -0.8041 -1.3510
  419SOL     MW 1676   0.530   2.688   1.366  0.0383  0.3632 -0.6331
  420SOL     OW 1677   0.778   2.229   1.071 -0.4746 -0.4336  0.6100
  420SOL    HW1 1678   0.750   2.260   1.159 -1.2346 -0.6511  0.4088
  420SOL    HW2 1679   0.793   2.318   1.022 -1.2822  0.3718 -0.0885
  420SOL     MW 1680   0.776   2.245   1.076 -0.6814 -0.3560  0.4913
  421SOL     OW 1681   2.956   0.172   3.087 -0.4541 -0.1399  0.3789
  421SOL    HW1 1682   2.878   0.146   3.045  0.9305  0.1959 -0.9302
  421SOL    HW2 1683   2.997   0.085   3.090 -3.0545 -1.4885  1.4652
  421SOL     MW 1684   2.951   0.157   3.082 -0.6145 -0.2735  0.3495
  422SOL     OW 1685   0.813   2.472   0.952  0.3141  0.7359 -0.3690
  422SOL    HW1 1686   0.739   2.507   1.003 -2.0426  0.9843  0.7792
  422SOL    HW2 1687   0.795   2.494   0.859  1.0068  3.9193  0.0664
  422SOL     MW 1688   0.801   2.479   0.946  0.0946  1.1887 -0.1601
  423SOL     OW 1689   1.495   0.077   0.464 -0.5884  0.3117 -0.3629
  423SOL    HW1 1690   1.509   0.070   0.368  1.3974 -0.9820 -3.4100
  423SOL    HW2 1691   1.465   0.173   0.479 -0.4900 -0.0236  4.1063
  423SOL     MW 1692   1.493   0.089   0.453 -0.3134  0.0968 -0.1752
  424SOL     OW 1693   0.651   2.296   1.306  0.2098  0.0821  0.1440
  424SOL    HW1 1694   0.566   2.254   1.273 -0.5869 -0.5762  0.6549
  424SOL    HW2 1695   0.689   2.240   1.375 -1.7447  1.3091  0.9680
  424SOL     MW 1696   0.645   2.283   1.311 -0.1532  0.1571  0.3201
  425SOL     OW 1697   1.720   2.754   2.063 -0.1132  0.3523 -0.3154
  425SOL    HW1 1698   1.717   2.746   1.969 -1.3055  0.6885 -0.9132
  425SOL    HW2 1699   1.746   2.659   2.090  0.9272 -1.9492 -0.7511
  425SOL     MW 1700   1.723   2.740   2.054 -0.1333  0.0930 -0.4517
  426SOL     OW 1701   0.841   1.739   1.992  0.1428  0.1187 -0.4348
  426SOL    HW1 1702   0.798   1.754   1.910 -2.4691  0.1643  2.0167
  426SOL    HW2 1703   0.819   1.811   2.058 -0.1706 -0.2316  5.8244
  426SOL     MW 1704   0.833   1.750   1.990 -0.2432  0.0785  0.7145
  427SOL     OW 1705   0.349   1.693   1.857  0.3049 -0.1465  0.2996
  427SOL    HW1 1706   0.400   1.652   1.792  1.8214 -0.2321  0.2938
  427SOL    HW2 1707   0.315   1.628   1.920  0.3460  3.3970  0.2345
  427SOL     MW 1708   0.351   1.679   1.857  0.5104  0.3098  0.2902
  428SOL     OW 1709   0.567   2.586   1.073 -0.2308 -0.3158  0.4907
  428SOL    HW1 1710   0.530   2.495   1.077 -4.6892  0.5443 -0.3382
  428SOL    HW2 1711   0.505   2.632   1.123 -1.2481  2.0423  1.2444
  428SOL     MW 1712   0.554   2.580   1.080 -0.9532  0.1088  0.4808
  429SOL     OW 1713   1.214   2.795   1.147 -0.0773 -0.6520  0.1300
  429SOL    HW1 1714   1.131   2.752   1.159  0.0031 -0.0141 -0.6472
  429SOL    HW2 1715   1.203   2.880   1.106  1.2572  0.2655  0.4692
  429SOL     MW 1716   1.201   2.800   1.143  0.1094 -0.4468  0.0722
  430SOL     OW 1717   1.146   2.721   0.688  0.1818 -0.2424  0.0610
  430SOL    HW1 1718   1.155   2.636   0.724  0.0261  2.4114  1.5711
  430SOL    HW2 1719   1.110   2.711   0.591  0.0079 -0.2894  0.6661
  430SOL     MW 1720   1.142   2.709   0.680  0.1383  0.1016  0.3401
  431SOL     OW 1721   0.324   1.935   1.105 -0.4129  0.6889  0.7539
  431SOL    HW1 1722   0.380   1.869   1.063 -0.1317  0.2444 -2.1676
  431SOL    HW2 1723   0.288   1.982   1.028  2.0402 -1.1136  0.1642
  431SOL     MW 1724   0.327   1.932   1.089 -0.0522  0.3925  0.2907
  432SOL     OW 1725   0.048   0.011   1.109  0.1353  0.1216  0.3308
  432SOL    HW1 1726   0.019   0.071   1.179 -1.3175 -1.4707 -1.2181
  432SOL    HW2 1727   0.014  -0.075   1.135 -0.9778 -2.0581 -1.6870
  432SOL     MW 1728   0.040   0.007   1.122 -0.2033 -0.3760 -0.1398
  433SOL     OW 1729   0.658   2.874   1.484  0.4995  0.4731  0.2577
  433SOL    HW1 1730   0.624   2.892   1.579 -1.7366  0.3080 -0.0436
  433SOL    HW2 1731   0.745   2.901   1.480  0.6738 -1.9193 -1.5934
  433SOL     MW 1732   0.665   2.880   1.496  0.2275  0.1357 -0.0263
  434SOL     OW 1733   1.547   2.799   1.567  0.4253 -0.2057 -0.7066
  434SOL    HW1 1734   1.458   2.828   1.546  2.0668 -1.0672 -0.7302
  434SOL    HW2 1735   1.572   2.757   1.484 -1.3907 -2.0065 -0.9373
  434SOL     MW 1736   1.538   2.797   1.553  0.4022 -0.5570 -0.7401
  435SOL     OW 1737   2.751   1.769   0.206  0.3418 -0.0252 -0.0432
  435SOL    HW1 1738   2.798   1.826   0.138 -0.4163  1.5111 -1.0750
  435SOL    HW2 1739   2.659   1.780   0.165  0.0878 -0.9440  0.0433
  435SOL     MW 1740   2.745   1.778   0.192  0.2083  0.0563 -0.1679
  436SOL     OW 1741   1.414   2.688   0.368  0.1765  0.3874 -0.0975
  436SOL    HW1 1742   1.464   2.675   0.450  0.6445 -2.0314  0.5302
  436SOL    HW2 1743   1.379   2.782   0.379 -2.1808  0.5478  0.9622
  436SOL     MW 1744   1.416   2.699   0.380 -0.0728  0.0894  0.1251
  437SOL     OW 1745   1.016   2.952   1.335  1.0753  0.0842 -0.7606
  437SOL    HW1 1746   1.034   3.022   1.272 -0.8833 -0.2749 -0.2513
  437SOL    HW2 1747   0.983   2.874   1.287  1.5832 -0.0320  1.1504
  437SOL     MW 1748   1.014   2.951   1.320  0.8839  0.0215 -0.4412
  438SOL     OW 1749   0.823   2.665   1.906  0.8784  0.6983  0.1547
  438SOL    HW1 1750   0.832   2.600   1.971 -2.1659  0.7590 -1.7341
  438SOL    HW2 1751   0.764   2.617   1.840  0.9055 -0.5963  0.4894
  438SOL     MW 1752   0.817   2.650   1.906  0.4804  0.5355 -0.0503
  439SOL     OW 1753   1.158   2.104   0.403  0.3865  0.0474 -0.1047
  439SOL    HW1 1754   1.120   2.151   0.478 -0.1855  2.9206 -2.0846
  439SOL    HW2 1755   1.149   2.168   0.331 -1.8047 -1.4675  1.1620
  439SOL     MW 1756   1.152   2.118   0.404  0.0219  0.2266 -0.1988
  440SOL     OW 1757   1.680   2.959   3.063  1.0362 -0.2415  0.1586
  440SOL    HW1 1758   1.655   2.925   3.147 -1.9917  2.4043  0.0966
  440SOL    HW2 1759   1.773   2.960   3.071  1.5748 -2.4444  0.6465
  440SOL     MW 1760   1.689   2.954   3.075  0.7078 -0.1831  0.2148
  441SOL     OW 1761   0.360   2.668   0.513  0.1711 -0.0254 -0.1542
  441SOL    HW1 1762   0.337   2.616   0.430 -2.0723 -0.2648 -0.9210
  441SOL    HW2 1763   0.367   2.757   0.483 -0.2419 -3.9366 -1.3793
  441SOL     MW 1764   0.358   2.673   0.498 -0.1794 -0.5731 -0.4171
  442SOL     OW 1765   3.075   2.355   0.589  0.0517  0.1712  0.0954
  442SOL    HW1 1766   3.099   2.444   0.576 -0.4255  1.2357  4.4359
  442SOL    HW2 1767   2.992   2.342   0.634  2.7341 -1.8080 -0.3500
  442SOL     MW 1768   3.067   2.365   0.593  0.3427  0.0505  0.6093
  443SOL     OW 1769   1.524   1.744   1.959 -0.1481 -0.1592 -0.3930
  443SOL    HW1 1770   1.456   1.744   1.891  0.6222  4.9247 -2.8969
  443SOL    HW2 1771   1.511   1.673   2.021 -0.2067  0.1568 -1.9473
  443SOL     MW 1772   1.513   1.734   1.958 -0.0542  0.5533 -0.9284
  444SOL     OW 1773   0.931   2.602   1.577  0.4831  0.1032 -0.2599
  444SOL    HW1 1774   1.003   2.550   1.611 -1.4139 -2.3646 -0.4936
  444SOL    HW2 1775   0.849   2.567   1.615 -0.7297 -0.7252  1.7931
  444SOL     MW 1776   0.929   2.591   1.586  0.0728 -0.3317 -0.0198
  445SOL     OW 1777   1.191   0.167   1.397  0.3982  0.1180 -0.2440
  445SOL    HW1 1778   1.113   0.117   1.407  0.8245  1.3088  3.9361
  445SOL    HW2 1779   1.180   0.201   1.307 -1.0617  3.4821 -0.1147
  445SOL     MW 1780   1.179   0.164   1.387  0.2618  0.7189  0.3246
  446SOL     OW 1781   2.793   2.862   1.034  0.4081 -0.3099 -0.2469
  446SOL    HW1 1782   2.720   2.894   0.972 -1.9143  0.2685 -0.0741
  446SOL    HW2 1783   2.820   2.783   0.985 -1.3362  0.0333 -0.7377
  446SOL     MW 1784   2.787   2.856   1.020 -0.1284 -0.1883 -0.2889
  447SOL     OW 1785   0.026   1.981   1.634 -0.0216  0.1395 -0.0759
  447SOL    HW1 1786   0.052   1.904   1.677  0.3493 -0.9813 -0.1786
  447SOL    HW2 1787  -0.056   1.945   1.591 -1.2595 -1.0604 -2.8313
  447SOL     MW 1788   0.018   1.966   1.634 -0.1360 -0.1667 -0.4530
  448SOL     OW 1789   1.766   2.431   1.679 -0.1627  0.6063 -0.3927
  448SOL    HW1 1790   1.710   2.353   1.675 -1.2373 -1.6062 -1.0724
  448SOL    HW2 1791   1.695   2.496   1.676  1.7731  0.9083 -0.0784
  448SOL     MW 1792   1.750   2.429   1.678 -0.0491  0.3542 -0.4409
  449SOL     OW 1793   0.909   2.898   0.385 -0.1764  0.5382  0.3039
  449SOL    HW1 1794   0.847   2.870   0.319  0.4998  0.2154  2.7591
  449SOL    HW2 1795   0.850   2.926   0.457  2.1976  3.5870 -2.4019
  449SOL     MW 1796   0.893   2.898   0.386  0.2261  0.8978  0.2708
  450SOL     OW 1797   1.200   2.445   0.741 -0.5645 -0.4703  0.3064
  450SOL    HW1 1798   1.211   2.414   0.829  0.1878 -1.7612  0.3451
  450SOL    HW2 1799   1.279   2.425   0.691  1.2531  0.9112  0.3222
  450SOL     MW 1800   1.212   2.439   0.746 -0.2254 -0.4584  0.3136
  451SOL     OW 1801   0.607   2.006   1.688 -0.4180 -0.6153  0.3092
  451SOL    HW1 1802   0.643   2.080   1.737  2.6553 -0.1948 -0.5935
  451SOL    HW2 1803   0.621   2.033   1.597  2.5173  0.1613 -0.7926
  451SOL     MW 1804   0.614   2.019   1.682  0.3748 -0.4573  0.0447
  452SOL     OW 1805   0.325   2.627   0.052  0.6690 -0.0881 -0.1522
  452SOL    HW1 1806   0.404   2.685   0.053 -4.7954  0.2156 -0.0610
  452SOL    HW2 1807   0.246   2.682   0.024 -0.3386 -0.3715 -1.7947
  452SOL     MW 1808   0.325   2.642   0.048 -0.1849 -0.0854 -0.3569
  453SOL     OW 1809   0.335   3.061   1.626  0.2268  0.1260  0.2117
  453SOL    HW1 1810   0.407   3.016   1.669 -1.5056 -1.3086  0.7378
  453SOL    HW2 1811   0.367   3.072   1.534  0.0024  1.2922 -3.2346
  453SOL     MW 1812   0.349   3.056   1.620 -0.0314  0.0906 -0.1736
  454SOL     OW 1813   0.942   2.726   1.194 -0.4634  0.2827  0.4297
  454SOL    HW1 1814   0.883   2.676   1.245 -0.0817 -2.4521 -0.4946
  454SOL    HW2 1815   0.893   2.738   1.110 -0.8836  0.4954 -1.4903
  454SOL     MW 1816   0.928   2.721   1.189 -0.4685 -0.0501  0.0544
  455SOL     OW 1817   1.652   2.880   0.253  0.2931 -0.0747  0.5382
  455SOL    HW1 1818   1.683   2.850   0.333  1.1204  0.5764 -0.6562
  455SOL    HW2 1819   1.610   2.807   0.210  0.9474  2.5001 -1.9516
  455SOL     MW 1820   1.650   2.866   0.258  0.4886  0.3509  0.0521
  456SOL     OW 1821   2.708   0.305   1.533 -0.1711 -0.0873 -0.2675
  456SOL    HW1 1822   2.708   0.244   1.458  3.5753  0.3422  1.2454
  456SOL    HW2 1823   2.801   0.339   1.515 -0.3703  1.5056  2.7278
  456SOL     MW 1824   2.720   0.301   1.521  0.2969  0.1795  0.3273
  457SOL     OW 1825   0.796   1.583   3.024 -0.1018  0.6611  0.0329
  457SOL    HW1 1826   0.698   1.578   3.005 -0.2133 -1.8829  0.6659
  457SOL    HW2 1827   0.798   1.621   3.117 -2.6178 -3.7679  2.6851
  457SOL     MW 1828   0.783   1.587   3.034 -0.4485 -0.2589  0.4663
  458SOL     OW 1829   1.353   1.465   0.674  0.0243 -0.1772  0.7609
  458SOL    HW1 1830   1.309   1.518   0.607  0.7994  2.7808  0.7824
  458SOL    HW2 1831   1.315   1.377   0.668  0.5557 -0.1364  0.7586
  458SOL     MW 1832   1.342   1.461   0.665  0.1967  0.2185  0.7635
  459SOL     OW 1833   1.544   0.023   0.202 -0.0486  0.3434 -0.2278
  459SOL    HW1 1834   1.572  -0.067   0.196  0.2307 -0.2380 -0.9986
  459SOL    HW2 1835   1.490   0.048   0.126 -0.9326  1.3431  1.7239
  459SOL     MW 1836   1.541   0.014   0.191 -0.1284  0.3986 -0.0720
  460SOL     OW 1837   1.790   2.161   0.639  0.7041  0.4304  0.3013
  460SOL    HW1 1838   1.706   2.129   0.676 -0.1288 -0.5475 -0.5114
  460SOL    HW2 1839   1.840   2.084   0.611 -0.8521  1.2419 -2.0992
  460SOL     MW 1840   1.786   2.147   0.640  0.3889  0.4084 -0.1227
  461SOL     OW 1841   0.466   2.423   0.617 -0.2559  0.8008  0.3631
  461SOL    HW1 1842   0.442   2.504   0.573  2.6617 -0.9849  0.8681
  461SOL    HW2 1843   0.415   2.437   0.697  3.8807  0.7557  1.1277
  461SOL     MW 1844   0.457   2.436   0.622  0.6749  0.5592  0.5306
  462SOL     OW 1845   0.313   0.244   1.249  0.1695 -0.0589  0.7617
  462SOL    HW1 1846   0.369   0.241   1.168 -1.0364 -1.4597  1.1225
  462SOL    HW2 1847   0.381   0.275   1.314 -2.0287 -0.2070 -0.5441
  462SOL     MW 1848   0.329   0.248   1.247 -0.2797 -0.2633  0.6370
  463SOL     OW 1849   1.001   0.072   0.687 -0.1199 -0.1760  0.3588
  463SOL    HW1 1850   1.071   0.112   0.632 -0.4505  0.4708  0.9147
  463SOL    HW2 1851   0.923   0.091   0.644  2.9970 -0.7047  1.8380
  463SOL     MW 1852   1.000   0.080   0.674  0.2477 -0.1604  0.6273
  464SOL     OW 1853   0.788   3.029   2.236  0.2260  0.2674 -0.2078
  464SOL    HW1 1854   0.782   2.935   2.250 -2.2388 -0.1733 -0.2170
  464SOL    HW2 1855   0.791   3.073   2.319  0.2271 -1.5228 -1.3555
  464SOL     MW 1856   0.788   3.023   2.249 -0.0990 -0.0270 -0.3604
  465SOL     OW 1857   0.863   0.277   0.419 -0.3942  0.5211  0.0963
  465SOL    HW1 1858   0.799   0.240   0.483  0.5706  0.0965 -0.2505
  465SOL    HW2 1859   0.834   0.263   0.324  0.5395  2.5450 -4.1702
  465SOL     MW 1860   0.850   0.270   0.415 -0.1437  0.7321 -0.5124
  466SOL     OW 1861   1.016   2.036   0.795  0.4465  0.2992 -0.4375
  466SOL    HW1 1862   1.035   1.964   0.741  1.5530  1.3966  1.4427
  466SOL    HW2 1863   1.041   2.121   0.751 -0.5671  0.1703 -0.2888
  466SOL     MW 1864   1.022   2.037   0.782  0.4587  0.4269 -0.1698
  467SOL     OW 1865   1.253   2.338   1.012 -0.2001  0.3504 -0.1422
  467SOL    HW1 1866   1.347   2.354   1.012 -0.4379 -0.1434  1.6424
  467SOL    HW2 1867   1.243   2.240   0.992  0.8530 -1.4309  1.6530
  467SOL     MW 1868   1.264   2.327   1.010 -0.0925  0.0502  0.3301
  468SOL     OW 1869   0.491   2.661   1.914 -0.3231  0.3351 -0.3553
  468SOL    HW1 1870   0.488   2.571   1.881  0.1244 -1.4094 -0.0895
  468SOL    HW2 1871   0.413   2.702   1.879 -0.3076 -1.7426  1.7806
  468SOL     MW 1872   0.480   2.654   1.905 -0.2620 -0.1692 -0.0384
  469SOL     OW 1873   0.385   2.119   1.847  0.1580  0.4137  0.0884
  469SOL    HW1 1874   0.318   2.057   1.878  2.2666 -1.9763  3.3454
  469SOL    HW2 1875   0.425   2.074   1.768  0.1991 -0.6990  0.9092
  469SOL     MW 1876   0.381   2.105   1.841  0.4416 -0.0485  0.6265
  470SOL     OW 1877   3.094   2.578   0.181  0.2647 -0.2389  0.3625
  470SOL    HW1 1878   3.003   2.581   0.224  1.3120  1.1166 -0.3679
  470SOL    HW2 1879   3.079   2.605   0.090  1.3856  1.3103 -2.3442
  470SOL     MW 1880   3.080   2.582   0.175  0.5508  0.1444 -0.0910
  471SOL     OW 1881   1.206   2.588   1.395  0.1161 -0.5713 -0.3165
  471SOL    HW1 1882   1.153   2.544   1.458 -0.9852 -1.3217  0.1503
  471SOL    HW2 1883   1.176   2.572   1.308 -1.4079 -1.8254 -0.2412
  471SOL     MW 1884   1.195   2.580   1.392 -0.2303 -0.8358 -0.2450
  472SOL     OW 1885   2.786   2.087   0.357  0.0384 -0.3804 -0.3338
  472SOL    HW1 1886   2.811   2.055   0.265  1.3562 -0.8166 -2.4573
  472SOL    HW2 1887   2.770   2.004   0.408 -0.7458 -0.1466  0.3250
  472SOL     MW 1888   2.787   2.072   0.352  0.1088 -0.4071 -0.5270
  473SOL     OW 1889   0.795   2.549   1.329  0.2140 -0.1163  0.5953
  473SOL    HW1 1890   0.760   2.461   1.321 -0.4989 -0.5086 -2.5957
  473SOL    HW2 1891   0.809   2.563   1.419  0.5155 -0.8995  0.1207
  473SOL     MW 1892   0.792   2.539   1.339  0.1597 -0.2714  0.1117
  474SOL     OW 1893   0.745   2.240   1.779 -0.2128  1.1200  0.2187
  474SOL    HW1 1894   0.828   2.276   1.820  1.2693  0.3919 -0.7884
  474SOL    HW2 1895   0.770   2.223   1.689  0.4112 -0.6653 -2.2282
  474SOL     MW 1896   0.759   2.242   1.772  0.0650  0.7884 -0.2370
  475SOL     OW 1897   1.613   3.058   1.434 -0.0332  0.6626 -0.1855
  475SOL    HW1 1898   1.527   3.049   1.390 -2.9457  1.2695  0.0790
  475SOL    HW2 1899   1.603   3.006   1.513  2.1141 -0.1525 -1.8206
  475SOL     MW 1900   1.601   3.050   1.439 -0.1342  0.6351 -0.3664
  476SOL     OW 1901   1.411   2.634   1.034  0.3716 -0.0558 -0.2605
  476SOL    HW1 1902   1.341   2.683   1.077 -0.3854 -0.9224 -0.1561
  476SOL    HW2 1903   1.448   2.695   0.966  1.9523  0.8206 -2.2490
  476SOL     MW 1904   1.407   2.648   1.031  0.4803 -0.0545 -0.5090
  477SOL     OW 1905   0.768   2.513   0.661 -0.3980  0.2735 -0.5768
  477SOL    HW1 1906   0.833   2.555   0.607 -2.3425 -1.3492 -0.7963
  477SOL    HW2 1907   0.775   2.426   0.612  0.0933 -1.5224 -0.8633
  477SOL     MW 1908   0.777   2.507   0.647 -0.5897 -0.1775 -0.6435
  478SOL     OW 1909   0.182   2.677   0.879  0.0647 -0.0604 -0.5454
  478SOL    HW1 1910   0.238   2.759   0.888 -3.4079 -0.2983  3.7203
  478SOL    HW2 1911   0.250   2.609   0.857 -1.4020  0.6139 -2.1678
  478SOL     MW 1912   0.199   2.679   0.877 -0.5870 -0.0028 -0.1966
  479SOL     OW 1913   1.468   1.994   1.277 -0.1104 -0.6249 -0.0534
  479SOL    HW1 1914   1.471   2.035   1.367  0.0157  1.2259  0.5826
  479SOL    HW2 1915   1.494   1.897   1.290  0.3366 -3.0882 -0.1243
  479SOL     MW 1916   1.472   1.986   1.291 -0.0348 -0.7057  0.0212
  480SOL     OW 1917   1.936   2.453   1.265  0.0707 -0.3018  0.3359
  480SOL    HW1 1918   1.909   2.372   1.309  2.2917 -0.2575  1.4414
  480SOL    HW2 1919   1.950   2.431   1.177  1.6468 -0.6392  1.2557
  480SOL     MW 1920   1.934   2.439   1.259  0.5717 -0.3405  0.6031
  481SOL     OW 1921   1.049  -0.001   1.098  0.0066 -0.2006  0.2164
  481SOL    HW1 1922   1.106  -0.040   1.031 -0.2459 -2.1786 -0.4030
  481SOL    HW2 1923   1.082   0.088   1.111 -0.5650  1.1285  0.5111
  481SOL     MW 1924   1.061   0.005   1.091 -0.1022 -0.2862  0.1735
  482SOL     OW 1925   1.071   3.077   0.238 -0.0707  0.7561 -0.3272
  482SOL    HW1 1926   1.023   3.010   0.289 -3.2645  0.1779  1.4680
  482SOL    HW2 1927   1.088   3.145   0.299  1.9396 -0.2923 -0.6577
  482SOL     MW 1928   1.067   3.077   0.252 -0.2268  0.5415 -0.1340
  483SOL     OW 1929   0.393   2.916   0.448  0.0817 -0.3809 -0.1438
  483SOL    HW1 1930   0.319   2.946   0.393  0.4064 -1.7645 -2.8142
  483SOL    HW2 1931   0.372   2.958   0.533  0.7624 -1.7283 -0.4355
  483SOL     MW 1932   0.380   2.925   0.452  0.2143 -0.7412 -0.5346
  484SOL     OW 1933   1.881   1.886   1.495  0.9571  0.2603 -0.2493
  484SOL    HW1 1934   1.921   1.955   1.443 -2.1319 -2.1022  0.1248
  484SOL    HW2 1935   1.813   1.932   1.546 -0.7273 -2.6849 -0.7252
  484SOL     MW 1936   1.878   1.901   1.495  0.3273 -0.4400 -0.2627
  485SOL     OW 1937   0.508   2.337   0.193  0.4311 -0.3248  0.6468
  485SOL    HW1 1938   0.577   2.329   0.263 -2.2943  0.0777  0.3448
  485SOL    HW2 1939   0.445   2.405   0.228 -2.4263  0.8685 -1.3402
  485SOL     MW 1940   0.509   2.345   0.207 -0.3055 -0.1142  0.3448
  486SOL     OW 1941   0.172   2.356   1.495 -0.2522 -0.2662 -0.2264
  486SOL    HW1 1942   0.176   2.434   1.442 -2.1215 -2.6849 -1.2013
  486SOL    HW2 1943   0.137   2.383   1.582  0.1999 -0.2363  0.3970
  486SOL     MW 1944   0.168   2.370   1.500 -0.4392 -0.5814 -0.2728
  487SOL     OW 1945   1.211   1.681   1.062  0.0225  0.0929  0.3720
  487SOL    HW1 1946   1.184   1.774   1.074  1.0466 -2.7855  1.0060
  487SOL    HW2 1947   1.299   1.707   1.041 -0.6749 -1.4714  0.1780
  487SOL     MW 1948   1.219   1.697   1.061  0.0656 -0.4933  0.4300
  488SOL     OW 1949   1.613   1.879   0.500  0.1813  0.3062  0.6001
  488SOL    HW1 1950   1.693   1.893   0.452  2.5240 -1.1502 -1.6453
  488SOL    HW2 1951   1.550   1.954   0.493 -1.6034 -0.0817 -1.8597
  488SOL     MW 1952   1.615   1.891   0.493  0.2549  0.0629 -0.0207
  489SOL     OW 1953   0.750   0.782   0.556 -0.2218  0.0394 -0.5361
  489SOL    HW1 1954   0.775   0.705   0.508  1.5750  1.0050 -0.0885
  489SOL    HW2 1955   0.750   0.752   0.653 -2.4504  0.6097  1.7757
  489SOL     MW 1956   0.753   0.768   0.563 -0.2788  0.2421 -0.1720
  490SOL     OW 1957   1.431   2.084   0.460 -0.5608  0.0069  0.0460
  490SOL    HW1 1958   1.463   2.168   0.413 -1.6285  1.4535  0.5991
  490SOL    HW2 1959   1.337   2.071   0.450 -2.0689 -0.0872 -1.6720
  490SOL     MW 1960   1.423   2.094   0.452 -0.9007  0.1853 -0.1077
  491SOL     OW 1961   1.304   2.969   0.369 -0.4320 -0.4994  0.4992
  491SOL    HW1 1962   1.348   3.046   0.403 -2.3049 -1.1002 -0.4522
  491SOL    HW2 1963   1.220   2.999   0.336 -0.3361  2.1157 -1.0598
  491SOL     MW 1964   1.299   2.983   0.369 -0.6665 -0.2336  0.1679
  492SOL     OW 1965   1.495   2.146   0.741  0.2517 -0.0376 -0.2276
  492SOL    HW1 1966   1.470   2.107   0.658  0.0721 -0.5934  2.0160
  492SOL    HW2 1967   1.415   2.123   0.797  0.8903 -1.8984 -0.9635
  492SOL     MW 1968   1.481   2.138   0.737  0.3122 -0.3565 -0.0287
  493SOL     OW 1969   0.186   3.016   0.296  0.2352 -0.3132  0.3131
  493SOL    HW1 1970   0.136   3.062   0.367 -1.9848 -0.5007 -1.4272
  493SOL    HW2 1971   0.185   3.090   0.230 -0.5246  0.4140  0.9667
  493SOL     MW 1972   0.179   3.032   0.297 -0.1579 -0.2420  0.1697
  494SOL     OW 1973   0.382   2.424   1.771  0.0805  0.1221  0.1681
  494SOL    HW1 1974   0.381   2.329   1.794  0.4970  1.3317 -2.5829
  494SOL    HW2 1975   0.399   2.421   1.676  0.3531 -0.5091  1.9035
  494SOL     MW 1976   0.384   2.411   1.761  0.1714  0.1984  0.0341
  495SOL     OW 1977   2.915   1.640   2.639 -0.5559 -0.1668 -0.5067
  495SOL    HW1 1978   2.911   1.726   2.587 -1.5013  0.8755 -0.6493
  495SOL    HW2 1979   2.870   1.660   2.723 -0.2919  2.6064 -2.3916
  495SOL     MW 1980   2.908   1.654   2.643 -0.6458  0.3366 -0.7742
  496SOL     OW 1981   2.930   2.376   2.665  0.1143  0.7896  0.2554
  496SOL    HW1 1982   2.965   2.297   2.706 -2.0890 -4.3482  0.6055
  496SOL    HW2 1983   2.997   2.445   2.666  0.5217 -0.8939 -1.8014
  496SOL     MW 1984   2.943   2.375   2.671 -0.1227 -0.1104  0.0302
  497SOL     OW 1985   1.609   2.242   2.649  0.7718 -0.5211 -0.4295
  497SOL    HW1 1986   1.556   2.213   2.572  2.3138  0.5164 -1.6248
  497SOL    HW2 1987   1.594   2.179   2.722 -0.4669  0.4401 -1.7114
  497SOL     MW 1988   1.600   2.230   2.649  0.8118 -0.2573 -0.7564
  498SOL     OW 1989   1.454   2.714   2.331 -0.5775  0.1649  0.1078
  498SOL    HW1 1990   1.463   2.618   2.307  1.4148 -3.1156  0.1473
  498SOL    HW2 1991   1.539   2.719   2.380 -0.9273 -0.3785  0.5111
  498SOL     MW 1992   1.466   2.702   2.334 -0.3608 -0.3396  0.1662
  499SOL     OW 1993   0.978   0.141   0.034  0.2303  0.1500 -0.8413
  499SOL    HW1 1994   0.890   0.180   0.068  0.9751 -1.7212 -0.9730
  499SOL    HW2 1995   0.988   0.053   0.072  0.0719 -2.2138  0.5502
  499SOL     MW 1996   0.967   0.134   0.044  0.3077 -0.4088 -0.6751
  500SOL     OW 1997   1.074   2.558   2.827 -0.5790  0.1446 -0.6372
  500SOL    HW1 1998   1.130   2.502   2.890  0.4344 -0.7379  0.0997
  500SOL    HW2 1999   0.981   2.537   2.849 -2.2502  0.1803 -0.2685
  500SOL     MW 2000   1.069   2.548   2.838 -0.6658  0.0329 -0.4914
  501SOL     OW 2001   1.801   2.182   3.071  0.6784  0.0330 -0.1142
  501SOL    HW1 2002   1.759   2.263   3.098 -0.8638  3.3851  1.1727
  501SOL    HW2 2003   1.890   2.198   3.094 -2.0112 -0.9066  1.3600
  501SOL     MW 2004   1.807   2.195   3.077  0.1200  0.3513  0.2501
  502SOL     OW 2005   0.141   2.799   3.050  0.1438 -0.5865  0.4144
  502SOL    HW1 2006   0.064   2.751   3.014 -0.4905  2.0606 -0.6001
  502SOL    HW2 2007   0.198   2.832   2.976  0.4702  3.1764 -0.1033
  502SOL     MW 2008   0.138   2.797   3.035  0.1032  0.2593  0.2122
  503SOL     OW 2009   1.125   2.777   2.140 -0.3666 -0.1768  0.2957
  503SOL    HW1 2010   1.057   2.714   2.118 -0.2435  2.3761  0.7957
  503SOL    HW2 2011   1.079   2.861   2.152 -2.1817 -0.3105 -1.3159
  503SOL     MW 2012   1.110   2.780   2.139 -0.5898  0.1424  0.1491
  504SOL     OW 2013   0.112   2.697   2.146 -0.0286  0.3058 -0.1809
  504SOL    HW1 2014   0.151   2.612   2.144 -1.8432  0.7333  1.4258
  504SOL    HW2 2015   0.029   2.688   2.100  1.4186 -0.7896  2.9270
  504SOL     MW 2016   0.106   2.684   2.140 -0.0771  0.2177  0.4411
  505SOL     OW 2017   1.677   2.716   2.749 -0.0953 -0.2017 -0.3888
  505SOL    HW1 2018   1.682   2.737   2.654  2.1737 -1.7645 -3.4316
  505SOL    HW2 2019   1.615   2.782   2.782 -1.9759 -0.7879 -0.5288
  505SOL     MW 2020   1.670   2.728   2.741 -0.0441 -0.4853 -0.8087
  506SOL     OW 2021   1.575   3.087   2.838 -0.0194 -0.0751 -0.3897
  506SOL    HW1 2022   1.597   3.064   2.930 -0.0547 -0.0347  0.5020
  506SOL    HW2 2023   1.654   3.071   2.787 -0.2903  0.5292 -2.0288
  506SOL     MW 2024   1.588   3.082   2.844 -0.0598  0.0099 -0.4883
  507SOL     OW 2025   0.892   2.797   2.865  0.5344  0.1585  0.0624
  507SOL    HW1 2026   0.965   2.858   2.822  2.4795 -0.6338 -1.8655
  507SOL    HW2 2027   0.808   2.840   2.844  0.0110 -1.5067  0.1595
  507SOL     MW 2028   0.890   2.811   2.857  0.7220 -0.1658 -0.1792
  508SOL     OW 2029   1.144   2.085   2.518 -0.1443 -0.0590 -0.0989
  508SOL    HW1 2030   1.227   2.053   2.554 -1.7166 -0.6858 -0.4881
  508SOL    HW2 2031   1.125   2.168   2.571 -0.9135  0.3302 -0.5040
  508SOL     MW 2032   1.152   2.091   2.530 -0.4532 -0.0904 -0.2037
  509SOL     OW 2033   0.623   2.575   2.763 -0.9265 -0.3877  0.2112
  509SOL    HW1 2034   0.619   2.541   2.678 -2.6821 -0.7592 -0.8471
  509SOL    HW2 2035   0.534   2.590   2.792 -0.1389 -2.7482  0.9123
  509SOL     MW 2036   0.610   2.572   2.756 -1.0542 -0.7482  0.1641
  510SOL     OW 2037   1.519   2.544   1.689 -0.3012 -0.5010  0.0296
  510SOL    HW1 2038   1.530   2.628   1.643  1.6070  0.6303 -1.8027
  510SOL    HW2 2039   1.466   2.545   1.775  0.2353 -1.0813 -0.4054
  510SOL     MW 2040   1.513   2.555   1.694  0.0213 -0.4283 -0.2696
  511SOL     OW 2041   0.470   2.640   2.426  0.3985  0.1044  0.1668
  511SOL    HW1 2042   0.523   2.564   2.453  1.6420 -3.0417  2.7448
  511SOL    HW2 2043   0.474   2.677   2.336 -0.5896 -1.5175 -1.4467
  511SOL     MW 2044   0.477   2.635   2.418  0.4322 -0.5247  0.2941
  512SOL     OW 2045   1.055   2.000   2.812  0.4020  0.0587 -0.2591
  512SOL    HW1 2046   0.984   2.055   2.850 -0.0208 -0.7154  0.1937
  512SOL    HW2 2047   1.061   1.923   2.872  0.5712 -1.5574  0.5712
  512SOL     MW 2048   1.047   1.997   2.825  0.3686 -0.2566 -0.0898
  513SOL     OW 2049   1.564   2.455   2.280  0.1965 -0.3640  0.1034
  513SOL    HW1 2050   1.635   2.464   2.213 -0.8142  6.2039  2.0401
  513SOL    HW2 2051   1.599   2.435   2.368 -1.7423  0.7383  2.0670
  513SOL     MW 2052   1.578   2.453   2.283 -0.1927  0.6480  0.6180
  514SOL     OW 2053   0.278   2.535   2.650  0.1053  0.2352 -0.3620
  514SOL    HW1 2054   0.342   2.593   2.602  2.9290  1.6542  1.3354
  514SOL    HW2 2055   0.298   2.546   2.746 -0.5336 -1.1596  0.3251
  514SOL     MW 2056   0.289   2.544   2.656  0.3936  0.2384 -0.0474
  515SOL     OW 2057   1.131   2.124   1.805 -0.3449 -0.3262 -0.6947
  515SOL    HW1 2058   1.075   2.197   1.826 -0.7773  1.6325 -2.8459
  515SOL    HW2 2059   1.212   2.136   1.854 -0.4616 -1.2189 -2.5033
  515SOL     MW 2060   1.134   2.135   1.814 -0.4173 -0.1855 -1.2172
  516SOL     OW 2061   1.486   2.445   3.029 -0.1770  0.3494 -0.0053
  516SOL    HW1 2062   1.567   2.454   2.980 -1.4957 -2.0487  1.1347
  516SOL    HW2 2063   1.409   2.436   2.974  0.0044 -0.6113  1.7470
  516SOL     MW 2064   1.487   2.445   3.015 -0.3271 -0.0937  0.3763
  517SOL     OW 2065   0.604   2.469   2.149  0.6020 -0.5795  0.2202
  517SOL    HW1 2066   0.550   2.549   2.148 -1.9649 -0.1719  0.1611
  517SOL    HW2 2067   0.547   2.387   2.149  0.8450  0.5726  1.9381
  517SOL     MW 2068   0.589   2.469   2.149  0.2954 -0.3737  0.4390
  518SOL     OW 2069   1.869   0.204   3.025  0.0511 -0.5025 -0.2295
  518SOL    HW1 2070   1.815   0.260   2.967  0.7832 -1.6018 -2.1899
  518SOL    HW2 2071   1.807   0.182   3.100  1.3617  1.1484  1.3746
  518SOL     MW 2072   1.853   0.209   3.027  0.3206 -0.4297 -0.2765
  519SOL     OW 2073   0.678   2.538   1.729 -0.0577  0.8762  0.1168
  519SOL    HW1 2074   0.676   2.446   1.759  0.5443  3.0368 -1.8029
  519SOL    HW2 2075   0.606   2.541   1.668 -1.8145 -2.1733 -0.5412
  519SOL     MW 2076   0.668   2.526   1.725 -0.2101  0.7589 -0.2233
  520SOL     OW 2077   1.289   2.130   2.911  0.1394  0.3091 -0.0732
  520SOL    HW1 2078   1.208   2.087   2.870 -1.1286 -0.1349 -0.2528
  520SOL    HW2 2079   1.323   2.077   2.981 -0.1962 -0.9010  0.6855
  520SOL     MW 2080   1.283   2.117   2.915 -0.0722  0.0908  0.0032
  521SOL     OW 2081   1.685   2.054   2.284 -0.3586  0.4315  0.1435
  521SOL    HW1 2082   1.715   2.087   2.194 -1.0518  1.4913 -0.0981
  521SOL    HW2 2083   1.719   1.961   2.283  1.6736  0.5582  0.4551
  521SOL     MW 2084   1.694   2.046   2.272 -0.1819  0.5880  0.1527
  522SOL     OW 2085   2.860   2.563   2.163 -0.0544  0.2600 -0.1301
  522SOL    HW1 2086   2.928   2.525   2.215 -0.0384 -0.2309  0.2375
  522SOL    HW2 2087   2.785   2.573   2.222 -2.6691  0.0333  2.7670
  522SOL     MW 2088   2.859   2.559   2.178 -0.3973  0.1653  0.3006
  523SOL     OW 2089   0.866   1.521   2.155  0.1561  0.4691 -0.1511
  523SOL    HW1 2090   0.851   1.597   2.099 -2.6178  0.2435 -0.1759
  523SOL    HW2 2091   0.916   1.457   2.100  1.3132  2.2076 -0.5882
  523SOL     MW 2092   0.871   1.523   2.140 -0.0572  0.6687 -0.2121
  524SOL     OW 2093   0.803   2.395   2.937  1.0994  0.6931  0.3331
  524SOL    HW1 2094   0.745   2.407   2.862  2.1568  2.1956  0.0880
  524SOL    HW2 2095   0.821   2.297   2.940  0.5356 -0.1301 -0.6881
  524SOL     MW 2096   0.798   2.383   2.927  1.1645  0.7827  0.1660
  525SOL     OW 2097   0.408   2.262   2.102 -0.3861  0.0052  0.6114
  525SOL    HW1 2098   0.353   2.211   2.155  0.9811 -0.8167  0.4707
  525SOL    HW2 2099   0.406   2.212   2.016 -3.3580 -0.4579 -0.7788
  525SOL     MW 2100   0.401   2.249   2.097 -0.5978 -0.1643  0.4094
  526SOL     OW 2101   0.669   2.060   2.035  0.2187 -0.7399 -0.3401
  526SOL    HW1 2102   0.712   2.118   1.977  1.4845 -0.4861  2.4892
  526SOL    HW2 2103   0.652   2.117   2.116 -0.6277  2.0191  1.2609
  526SOL     MW 2104   0.672   2.075   2.038  0.2740 -0.3424  0.2444
  527SOL     OW 2105   1.350   1.993   2.006 -0.4867 -0.2436 -0.4328
  527SOL    HW1 2106   1.341   1.995   2.101  0.2214 -2.1797 -0.4006
  527SOL    HW2 2107   1.365   1.902   1.980  0.0285 -1.6026 -1.2242
  527SOL     MW 2108   1.351   1.981   2.015 -0.3253 -0.6784 -0.5330
  528SOL     OW 2109   0.632   2.877   2.911 -0.3615  0.2041 -0.4460
  528SOL    HW1 2110   0.666   2.957   2.948 -0.4540 -0.5743  0.8932
  528SOL    HW2 2111   0.577   2.891   2.839 -0.8168 -0.5042  2.4187
  528SOL     MW 2112   0.630   2.889   2.906 -0.4337  0.0080  0.1087
  529SOL     OW 2113   0.970   2.350   1.878 -0.7910  0.0434  0.2939
  529SOL    HW1 2114   1.015   2.358   1.963 -0.6636  0.2133  1.7472
  529SOL    HW2 2115   0.991   2.435   1.832 -0.4672  3.8548 -1.4712
  529SOL     MW 2116   0.979   2.362   1.883 -0.7315  0.5687  0.2528
  530SOL     OW 2117   1.195   2.431   3.024 -0.0906 -0.2649  0.4772
  530SOL    HW1 2118   1.152   2.464   3.106 -0.2246 -0.1487 -1.5482
  530SOL    HW2 2119   1.219   2.339   3.047  1.5293  1.0425 -0.1242
  530SOL     MW 2120   1.192   2.423   3.038  0.1054 -0.0770  0.1307
  531SOL     OW 2121   0.958   1.868   2.562 -0.1854 -0.2510  0.0378
  531SOL    HW1 2122   1.012   1.941   2.575  0.2697 -1.1462 -0.1243
  531SOL    HW2 2123   0.939   1.833   2.648  1.3314  2.6123 -3.8568
  531SOL     MW 2124   0.962   1.873   2.575  0.0748  0.0086 -0.4974
  532SOL     OW 2125   1.749   0.329   2.817  0.5510 -0.0310  0.7593
  532SOL    HW1 2126   1.748   0.276   2.736  0.2412  0.2759 -0.8056
  532SOL    HW2 2127   1.815   0.397   2.809  1.2623  3.1956 -0.7890
  532SOL     MW 2128   1.757   0.331   2.805  0.6039  0.4352  0.3486
  533SOL     OW 2129   1.863   2.652   3.045 -0.4570  0.0713 -0.3568
  533SOL    HW1 2130   1.856   2.575   3.109 -0.1643  1.6236 -1.6250
  533SOL    HW2 2131   1.787   2.647   2.991 -1.7427  0.8291  1.6894
  533SOL     MW 2132   1.852   2.641   3.046 -0.5880  0.3761 -0.2542
  534SOL     OW 2133   1.772   2.424   2.539  0.3816 -0.3196  0.1174
  534SOL    HW1 2134   1.703   2.363   2.579 -2.7763  0.2541  0.5085
  534SOL    HW2 2135   1.850   2.417   2.597 -0.9151  1.6735  0.8178
  534SOL     MW 2136   1.773   2.415   2.552 -0.2061  0.0190  0.2614
  535SOL     OW 2137   1.903   2.403   1.923  0.2209  0.2681  0.0813
  535SOL    HW1 2138   1.863   2.410   1.839  0.8989 -1.8279  2.4425
  535SOL    HW2 2139   1.979   2.460   1.913 -0.8568 -0.2673 -0.0668
  535SOL     MW 2140   1.908   2.412   1.911  0.1682 -0.0791  0.3733
  536SOL     OW 2141   0.489   1.814   2.071  0.2694 -0.2113 -0.2498
  536SOL    HW1 2142   0.450   1.779   1.987  3.8251 -0.3112 -0.8101
  536SOL    HW2 2143   0.537   1.887   2.036  2.6147 -0.6546 -0.0210
  536SOL     MW 2144   0.490   1.819   2.055  1.0480 -0.2830 -0.2936
  537SOL     OW 2145   1.094   0.181   2.825  0.0214 -0.1566 -0.4435
  537SOL    HW1 2146   1.062   0.205   2.916 -0.8403  0.3188  0.4554
  537SOL    HW2 2147   1.077   0.258   2.766  1.2203  1.5527  1.2255
  537SOL     MW 2148   1.087   0.194   2.829  0.0659  0.1316 -0.1047
  538SOL     OW 2149   1.397   0.083   3.068  0.2483  0.4731  0.1544
  538SOL    HW1 2150   1.373   0.178   3.078 -0.1288  1.9751  2.8050
  538SOL    HW2 2151   1.318   0.032   3.074  0.9804  0.1412 -0.5385
  538SOL     MW 2152   1.384   0.089   3.070  0.2951  0.6275  0.4127
  539SOL     OW 2153   0.748   2.808   2.589 -0.1236  0.4283  0.0612
  539SOL    HW1 2154   0.818   2.870   2.561 -2.1417  1.5705 -3.0750
  539SOL    HW2 2155   0.786   2.735   2.633 -1.3601  0.1265  1.8078
  539SOL     MW 2156   0.762   2.807   2.591 -0.5530  0.5392 -0.1221
  540SOL     OW 2157   0.361   2.529   2.894 -0.1662  0.0732 -0.1085
  540SOL    HW1 2158   0.348   2.570   2.981 -0.0375 -0.9572  1.1260
  540SOL    HW2 2159   0.347   2.434   2.918  0.3947 -2.9287  3.8398
  540SOL     MW 2160   0.357   2.522   2.909 -0.0752 -0.4588  0.5753
  541SOL     OW 2161   0.176   2.956   2.229  0.0773 -0.3652 -0.0880
  541SOL    HW1 2162   0.157   2.875   2.182 -1.0855 -0.8359  4.1340
  541SOL    HW2 2163   0.202   2.919   2.316 -0.7295 -1.8543 -2.1248
  541SOL     MW 2164   0.177   2.941   2.234 -0.1826 -0.6238  0.2003
  542SOL     OW 2165   1.074   2.310   2.680 -0.0823 -0.2228 -0.1996
  542SOL    HW1 2166   1.063   2.256   2.757 -1.8703 -0.9270 -0.5227
  542SOL    HW2 2167   1.071   2.398   2.713 -1.2955 -0.0901  0.2801
  542SOL     MW 2168   1.072   2.315   2.694 -0.4783 -0.2982 -0.1789
  543SOL     OW 2169   1.678   2.438   2.852  0.7913 -0.0408 -0.6007
  543SOL    HW1 2170   1.645   2.371   2.797  1.2923 -0.1014 -1.0698
  543SOL    HW2 2171   1.673   2.515   2.796  2.0048  1.6318 -0.1854
  543SOL     MW 2172   1.673   2.439   2.837  1.0175  0.1719 -0.6078
  544SOL     OW 2173   0.734   0.163   2.706  0.4168 -0.6739  0.1599
  544SOL    HW1 2174   0.648   0.190   2.719  1.5357 -1.2759 -0.8578
  544SOL    HW2 2175   0.728   0.141   2.614  0.9149  0.0036  0.7418
  544SOL     MW 2176   0.722   0.164   2.695  0.6302 -0.6639  0.1024
  545SOL     OW 2177   1.479   2.168   2.410 -0.1806  0.1131 -0.0511
  545SOL    HW1 2178   1.450   2.249   2.372  0.1458 -1.1149  2.7836
  545SOL    HW2 2179   1.564   2.141   2.358  0.1156  0.5099 -1.9526
  545SOL     MW 2180   1.486   2.175   2.398 -0.0984  0.0034  0.0720
  546SOL     OW 2181   2.873   1.998   0.111  0.5107  0.0387  0.7871
  546SOL    HW1 2182   2.832   2.064   0.051 -1.0015  1.8127  0.2319
  546SOL    HW2 2183   2.958   1.967   0.081  0.1303  0.8280  0.6930
  546SOL     MW 2184   2.878   2.003   0.100  0.2610  0.3769  0.7014
  547SOL     OW 2185   0.154   0.114   0.095  0.0167  0.3395 -0.1494
  547SOL    HW1 2186   0.222   0.129   0.023  0.9835  2.0251  2.4909
  547SOL    HW2 2187   0.089   0.058   0.054  1.3490 -0.5291 -0.4318
  547SOL     MW 2188   0.155   0.108   0.080  0.3200  0.4473  0.1617
  548SOL     OW 2189   0.318   2.518   0.290  0.6636  0.0672  0.1725
  548SOL    HW1 2190   0.317   2.573   0.217  1.1649  0.0474  1.0966
  548SOL    HW2 2191   0.240   2.456   0.294 -2.7153 -2.3712 -1.2146
  548SOL     MW 2192   0.308   2.517   0.281  0.2839 -0.2571  0.1114
  549SOL     OW 2193   0.841   1.924   2.198  0.3834  0.7915 -0.0292
  549SOL    HW1 2194   0.782   1.959   2.130 -2.4891 -2.3890  1.0647
  549SOL    HW2 2195   0.784   1.902   2.271 -0.7018 -0.0431  1.6811
  549SOL     MW 2196   0.826   1.926   2.199 -0.1388  0.2618  0.3408
  550SOL     OW 2197   1.819   1.733   2.540  0.2232  0.8084  0.3835
  550SOL    HW1 2198   1.799   1.742   2.446  0.2152  1.4370 -3.2518
  550SOL    HW2 2199   1.823   1.823   2.574  2.4494  0.3117 -0.4022
  550SOL     MW 2200   1.817   1.746   2.532  0.5159  0.8258 -0.1998
  551SOL     OW 2201   0.895   2.307   0.240 -0.3170 -0.9815  0.4007
  551SOL    HW1 2202   0.984   2.315   0.215  0.9022  0.6678  0.0427
  551SOL    HW2 2203   0.860   2.229   0.199 -2.7409 -1.1561  1.2710
  551SOL     MW 2204   0.902   2.298   0.231 -0.4760 -0.7869  0.4683
  552SOL     OW 2205   1.777   1.798   2.268  0.0433 -0.4366  0.6837
  552SOL    HW1 2206   1.691   1.750   2.268  0.7591 -0.7319 -1.7246
  552SOL    HW2 2207   1.823   1.740   2.212  2.6839  3.4092 -0.9596
  552SOL     MW 2208   1.772   1.784   2.261  0.4861  0.0318  0.1491
  553SOL     OW 2209   1.263   2.241   1.542 -0.3511 -0.1528 -0.1021
  553SOL    HW1 2210   1.299   2.150   1.547  1.2624  0.4588  0.2700
  553SOL    HW2 2211   1.337   2.287   1.498 -3.0544 -1.0840  2.3461
  553SOL     MW 2212   1.277   2.235   1.537 -0.4949 -0.1950  0.2700
  554SOL     OW 2213   0.527   2.927   2.662  0.1209 -0.2491  0.2560
  554SOL    HW1 2214   0.522   3.009   2.608 -1.2275  1.1872  0.3135
  554SOL    HW2 2215   0.599   2.873   2.620 -1.7704 -1.8726  0.3166
  554SOL     MW 2216   0.536   2.931   2.649 -0.3065 -0.2738  0.2716
  555SOL     OW 2217   0.633   2.439   2.524 -0.6438  0.3097  0.5040
  555SOL    HW1 2218   0.607   2.349   2.545 -1.3111 -0.5470  1.2329
  555SOL    HW2 2219   0.725   2.425   2.498  1.1978  0.6895  0.7857
  555SOL     MW 2220   0.642   2.425   2.524 -0.4889  0.2468  0.6374
  556SOL     OW 2221   1.031   1.902   0.103  0.9966  0.3512  0.2962
  556SOL    HW1 2222   1.058   1.866   0.014 -0.4724 -0.6330  1.6013
  556SOL    HW2 2223   1.105   1.898   0.156 -0.8670  2.6314  1.5907
  556SOL     MW 2224   1.044   1.897   0.098  0.5569  0.5222  0.6392
  557SOL     OW 2225   0.985   2.660   0.493 -0.0063  0.7551  0.1252
  557SOL    HW1 2226   1.024   2.598   0.423  0.6891 -0.1795  1.3636
  557SOL    HW2 2227   0.954   2.743   0.449 -3.9481  0.3770 -0.4751
  557SOL     MW 2228   0.986   2.662   0.478 -0.4347  0.5819  0.2094
  558SOL     OW 2229   0.209   2.289   2.972  0.3635 -0.1976 -0.2806
  558SOL    HW1 2230   0.135   2.287   2.915 -0.3966 -0.9722 -0.4799
  558SOL    HW2 2231   0.185   2.319   3.065  0.4431  2.4528  2.5630
  558SOL     MW 2232   0.196   2.293   2.977  0.2737  0.0499  0.0683
  559SOL     OW 2233   1.034   2.314   2.165 -0.5312  0.0799  0.3276
  559SOL    HW1 2234   1.130   2.304   2.170 -0.2742 -0.5297 -2.3742
  559SOL    HW2 2235   1.010   2.257   2.240  2.3723  0.1333 -0.8008
  559SOL     MW 2236   1.044   2.305   2.176 -0.1142  0.0065 -0.1777
  560SOL     OW 2237   1.933   2.868   0.089  0.4384 -0.3268  0.4705
  560SOL    HW1 2238   2.010   2.900   0.042 -0.7972  0.0430 -0.2277
  560SOL    HW2 2239   1.909   2.782   0.046 -1.2250 -1.8223  0.0912
  560SOL     MW 2240   1.940   2.861   0.077  0.0559 -0.4753  0.3284
  561SOL     OW 2241   0.348   2.148   0.099  0.1946 -0.0521  0.0928
  561SOL    HW1 2242   0.337   2.168   0.007  0.3493  3.2063  1.3217
  561SOL    HW2 2243   0.403   2.227   0.126 -0.9201  1.0476 -0.4286
  561SOL     MW 2244   0.354   2.161   0.091  0.0680  0.5229  0.1861
  562SOL     OW 2245   0.704   2.217   2.273 -0.3873 -0.1688 -0.4316
  562SOL    HW1 2246   0.696   2.317   2.261  0.8182  1.2595  1.3099
  562SOL    HW2 2247   0.791   2.184   2.296 -0.6782  0.7486 -3.3709
  562SOL     MW 2248   0.714   2.226   2.275 -0.2666  0.1407 -0.5897
  563SOL     OW 2249   1.233   0.433   0.537  0.0620  0.1854 -0.8043
  563SOL    HW1 2250   1.220   0.372   0.463 -1.0420 -1.2095 -0.0304
  563SOL    HW2 2251   1.187   0.384   0.605 -2.1768 -0.7993  1.0509
  563SOL     MW 2252   1.225   0.418   0.536 -0.3790 -0.1286 -0.4574
  564SOL     OW 2253   1.114   2.633   2.393 -0.9225 -0.2024  0.1016
  564SOL    HW1 2254   1.173   2.672   2.336  0.6816  0.0442 -0.7323
  564SOL    HW2 2255   1.120   2.669   2.486 -2.7351 -1.9410 -1.0878
  564SOL     MW 2256   1.123   2.643   2.398 -0.9500 -0.3992 -0.1654
  565SOL     OW 2257   2.742   2.767   2.587  0.1403  0.8350 -0.5547
  565SOL    HW1 2258   2.764   2.848   2.541  1.0000 -0.0773 -1.7940
  565SOL    HW2 2259   2.712   2.713   2.516 -0.2737 -1.7819 -1.2699
  565SOL     MW 2260   2.741   2.771   2.571  0.1991  0.3693 -0.8126
  566SOL     OW 2261   2.156   1.892   2.401  0.6125  0.4854 -0.8243
  566SOL    HW1 2262   2.186   1.875   2.312 -0.1506  0.1910 -1.6342
  566SOL    HW2 2263   2.210   1.968   2.425  1.9293  0.3255  2.1920
  566SOL     MW 2264   2.167   1.900   2.392  0.6856  0.4254 -0.5332
  567SOL     OW 2265   1.181   3.012   3.073  0.7932 -0.4775  0.9045
  567SOL    HW1 2266   1.189   3.012   3.171  0.1418  0.4919 -0.0305
  567SOL    HW2 2267   1.208   2.920   3.047 -2.9562  0.2592  0.4741
  567SOL     MW 2268   1.185   3.000   3.083  0.2125 -0.2524  0.7244
  568SOL     OW 2269   1.604   2.061   2.821 -0.0097  0.0648 -0.7275
  568SOL    HW1 2270   1.646   2.096   2.901  0.7589  1.8469  1.2070
  568SOL    HW2 2271   1.678   2.010   2.780  3.7811 -0.2589 -0.4115
  568SOL     MW 2272   1.619   2.059   2.826  0.5918  0.2573 -0.4305
  569SOL     OW 2273   0.139   2.302   2.470 -0.6309  0.2780 -0.4012
  569SOL    HW1 2274   0.097   2.367   2.411 -0.7897  0.4216 -0.8416
  569SOL    HW2 2275   0.183   2.359   2.532 -0.2623  1.6853 -1.6759
  569SOL     MW 2276   0.139   2.318   2.471 -0.6032  0.4826 -0.6275
  570SOL     OW 2277   1.489   0.333   0.503 -0.4665 -0.2799  0.0710
  570SOL    HW1 2278   1.411   0.373   0.542 -2.0022  1.6448  0.6509
  570SOL    HW2 2279   1.553   0.350   0.572  1.2180  0.6517 -0.4508
  570SOL     MW 2280   1.487   0.340   0.518 -0.4469  0.0969  0.0787
  571SOL     OW 2281   1.330   2.352   2.127  0.1597 -0.3705  0.5428
  571SOL    HW1 2282   1.393   2.385   2.192 -3.2479  0.6404  1.2433
  571SOL    HW2 2283   1.377   2.304   2.058  0.4563  0.8743 -0.7520
  571SOL     MW 2284   1.345   2.350   2.127 -0.2508 -0.0729  0.4644
  572SOL     OW 2285   0.963   2.561   0.073 -0.2222  0.0996 -0.3631
  572SOL    HW1 2286   0.953   2.652   0.051  1.4164 -2.2591  1.2028
  572SOL    HW2 2287   0.876   2.529   0.083  0.0587  3.4016 -0.5880
  572SOL     MW 2288   0.950   2.569   0.071  0.0311  0.2241 -0.1862
  573SOL     OW 2289   1.187   2.279   0.211 -0.0616 -0.2641  0.3770
  573SOL    HW1 2290   1.277   2.270   0.175 -0.9106 -4.4895 -1.3117
  573SOL    HW2 2291   1.198   2.369   0.250  1.0450 -2.4855  2.7484
  573SOL     MW 2292   1.200   2.290   0.212 -0.0276 -1.1147  0.4670
  574SOL     OW 2293   1.129   2.539   0.297  0.1718 -0.3080 -0.4056
  574SOL    HW1 2294   1.210   2.603   0.286  0.1045  0.1107 -2.2284
  574SOL    HW2 2295   1.063   2.553   0.227 -2.0593 -0.1065 -1.6294
  574SOL     MW 2296   1.131   2.549   0.286 -0.1315 -0.2261 -0.8076
  575SOL     OW 2297   3.034   2.229   1.732  0.1825  0.0037 -0.4918
  575SOL    HW1 2298   3.071   2.141   1.711 -0.8119 -1.4045 -0.4143
  575SOL    HW2 2299   3.090   2.292   1.773 -0.7309  1.6419 -2.2281
  575SOL     MW 2300   3.046   2.226   1.734 -0.0692  0.0341 -0.7107
  576SOL     OW 2301   2.857   1.847   2.022  0.0632  0.4825 -0.0690
  576SOL    HW1 2302   2.862   1.928   1.971 -0.2438  0.3166  3.2724
  576SOL    HW2 2303   2.768   1.827   2.004  1.4364  3.2513 -1.0647
  576SOL     MW 2304   2.846   1.855   2.013  0.2039  0.8259  0.2405
  577SOL     OW 2305   2.069   0.235   0.099 -0.4202  0.8412 -0.1540
  577SOL    HW1 2306   2.005   0.238   0.030  0.7018 -1.0514  0.3927
  577SOL    HW2 2307   2.038   0.185   0.170  0.1376 -0.8998 -3.7902
  577SOL     MW 2308   2.057   0.229   0.099 -0.1986  0.3618 -0.5616
  578SOL     OW 2309   1.921   2.052   2.462  0.1103  0.3778  0.8611
  578SOL    HW1 2310   1.831   2.048   2.415  1.5867 -1.1167  2.1452
  578SOL    HW2 2311   1.979   1.979   2.434  0.8692  0.0805  0.0548
  578SOL     MW 2312   1.917   2.042   2.452  0.4052  0.1414  0.9241
  579SOL     OW 2313   0.899   2.417   2.484  0.2919 -0.2189  0.4166
  579SOL    HW1 2314   0.958   2.367   2.541 -2.8394  0.9870 -0.2113
  579SOL    HW2 2315   0.967   2.475   2.436  4.0227 -0.1831 -1.7369
  579SOL     MW 2316   0.916   2.418   2.485  0.3710 -0.0551  0.0496
  580SOL     OW 2317   0.938   2.845   0.021 -0.1239 -0.1095 -0.2977
  580SOL    HW1 2318   1.024   2.887   0.009  2.0111 -1.2711  0.7670
  580SOL    HW2 2319   0.908   2.816  -0.065 -0.9219 -0.0530 -2.1922
  580SOL     MW 2320   0.945   2.847   0.008  0.0525 -0.2553 -0.4072
  581SOL     OW 2321   1.157   2.495   1.694  0.2882 -0.4595  0.4510
  581SOL    HW1 2322   1.233   2.526   1.750  4.5105 -2.7586  2.2049
  581SOL    HW2 2323   1.185   2.408   1.665 -1.3116  1.7226  0.4218
  581SOL     MW 2324   1.171   2.488   1.698  0.6342 -0.4749  0.6786
  582SOL     OW 2325   0.056   2.830   2.758 -0.0725  1.0055 -0.1812
  582SOL    HW1 2326  -0.004   2.905   2.736 -0.4643  0.5316  3.2985
  582SOL    HW2 2327   0.146   2.864   2.766  1.5719 -0.0371 -1.2911
  582SOL     MW 2328   0.060   2.845   2.756  0.0928  0.8055  0.1315
  583SOL     OW 2329   2.011   2.434   2.680 -0.0469 -0.2928 -0.3259
  583SOL    HW1 2330   2.080   2.465   2.617  0.4533 -0.0635  2.7138
  583SOL    HW2 2331   2.019   2.343   2.690  1.6012  0.8249  0.0510
  583SOL     MW 2332   2.021   2.426   2.673  0.2365 -0.1151  0.1249
  584SOL     OW 2333   0.064   1.900   2.212  0.1766 -0.0663 -0.7572
  584SOL    HW1 2334   0.098   1.862   2.300 -1.3735 -4.1039  0.8080
  584SOL    HW2 2335   0.093   1.994   2.216  1.5672  1.3202 -0.2028
  584SOL     MW 2336   0.072   1.907   2.224  0.1556 -0.4161 -0.4775
  585SOL     OW 2337   1.578   2.630   0.147  0.1758  0.3970 -0.5439
  585SOL    HW1 2338   1.523   2.600   0.073 -1.4568 -0.0285 -2.1855
  585SOL    HW2 2339   1.516   2.618   0.216 -0.3515 -0.3747 -0.6264
  585SOL     MW 2340   1.562   2.625   0.146 -0.1091  0.2390 -0.7714
  586SOL     OW 2341   1.394   2.807   2.582  0.0719 -0.4163 -0.1583
  586SOL    HW1 2342   1.404   2.756   2.497 -0.5830 -2.6210 -0.0005
  586SOL    HW2 2343   1.388   2.897   2.562 -1.2296 -4.7412 -0.2207
  586SOL     MW 2344   1.394   2.812   2.568 -0.1862 -1.2778 -0.1457
  587SOL     OW 2345   1.382   1.478   2.145  0.4452 -0.1289 -0.0258
  587SOL    HW1 2346   1.319   1.418   2.189  1.0161 -2.6629  0.7404
  587SOL    HW2 2347   1.431   1.416   2.089 -0.1211  0.1358  0.3183
  587SOL     MW 2348   1.380   1.462   2.143  0.4458 -0.4283  0.1207
  588SOL     OW 2349   1.380   2.026   2.644  0.0355 -0.2569 -0.6464
  588SOL    HW1 2350   1.372   1.931   2.647  2.4256 -2.5050 -1.7602
  588SOL    HW2 2351   1.392   2.054   2.736  0.0967  2.1371 -0.7097
  588SOL     MW 2352   1.380   2.017   2.657  0.3589 -0.2376 -0.8017
  589SOL     OW 2353   1.423   2.002   0.038 -0.3049 -0.1003  0.5121
  589SOL    HW1 2354   1.438   2.092   0.070 -1.8069  0.8495  0.5919
  589SOL    HW2 2355   1.374   1.959   0.109  1.2788 -0.3386 -0.9765
  589SOL     MW 2356   1.418   2.008   0.052 -0.2941 -0.0064  0.3262
  590SOL     OW 2357   0.488   2.748   2.168  0.2527 -0.5299 -0.3157
  590SOL    HW1 2358   0.498   2.736   2.071 -0.8036 -1.5345  0.2384
  590SOL    HW2 2359   0.577   2.782   2.194  0.5069  2.6141 -2.8668
  590SOL     MW 2360   0.501   2.751   2.159  0.1469 -0.2476 -0.5792
  591SOL     OW 2361   2.286   0.701   0.050  1.0960  0.5241  0.1803
  591SOL    HW1 2362   2.222   0.756   0.012 -2.3711  0.4791  0.6935
  591SOL    HW2 2363   2.359   0.713  -0.017  1.4744  1.6314 -0.4962
  591SOL     MW 2364   2.287   0.710   0.036  0.6885  0.6642  0.1587
  592SOL     OW 2365   1.745   2.915   0.775  0.3479 -0.4785  0.5082
  592SOL    HW1 2366   1.725   2.994   0.718  0.5790  0.7063 -1.1946
  592SOL    HW2 2367   1.836   2.898   0.763 -0.1062  0.1201  0.1767
  592SOL     MW 2368   1.754   2.923   0.766  0.3185 -0.2432  0.2398
  593SOL     OW 2369   1.955   0.678   0.816  0.2158 -0.4307 -0.1518
  593SOL    HW1 2370   1.907   0.652   0.736 -1.2424  0.2456 -0.1436
  593SOL    HW2 2371   2.010   0.606   0.850 -2.2353 -1.0475  1.8348
  593SOL     MW 2372   1.956   0.665   0.810 -0.3000 -0.4228  0.1114
  594SOL     OW 2373   2.773   1.068   1.395  0.0794 -0.3809 -0.3446
  594SOL    HW1 2374   2.863   1.088   1.387  0.0485 -1.1104  1.9618
  594SOL    HW2 2375   2.743   1.018   1.322 -1.1726  3.0855  0.1710
  594SOL     MW 2376   2.781   1.064   1.384 -0.0899 -0.0198  0.0278
  595SOL     OW 2377   0.466   0.910   0.831 -0.0076 -0.4189  0.4277
  595SOL    HW1 2378   0.467   0.949   0.741  0.6880  1.7417  1.7475
  595SOL    HW2 2379   0.495   0.974   0.893  1.5024 -2.5960 -0.2373
  595SOL     MW 2380   0.470   0.924   0.827  0.2834 -0.4211  0.5141
  596SOL     OW 2381   2.468   1.343   0.522 -0.2182  0.3006  0.2721
  596SOL    HW1 2382   2.526   1.411   0.493  3.4347 -0.5786 -1.5515
  596SOL    HW2 2383   2.509   1.301   0.595  1.6483 -1.6030  0.1293
  596SOL     MW 2384   2.481   1.346   0.528  0.5100 -0.0666  0.0126
  597SOL     OW 2385   2.201   0.672   1.617  0.5169  0.1043 -0.5291
  597SOL    HW1 2386   2.235   0.607   1.676  2.4499  0.8877  0.8714
  597SOL    HW2 2387   2.129   0.631   1.555 -2.3713 -0.2536 -0.2876
  597SOL     MW 2388   2.196   0.658   1.617  0.3909  0.1605 -0.3125
  598SOL     OW 2389   2.585   1.047   2.871  0.7065 -0.4917 -0.0364
  598SOL    HW1 2390   2.581   1.053   2.774 -3.1604 -2.4671 -0.5283
  598SOL    HW2 2391   2.676   1.063   2.892  0.4658  2.1244 -1.5074
  598SOL     MW 2392   2.596   1.050   2.861  0.1645 -0.4072 -0.2954
  599SOL     OW 2393   2.961   0.433   2.145 -0.4370  0.0467 -0.1598
  599SOL    HW1 2394   3.015   0.438   2.218 -3.2354 -2.2992 -1.4092
  599SOL    HW2 2395   2.978   0.518   2.104  1.3324 -1.0559 -0.9125
  599SOL     MW 2396   2.970   0.445   2.149 -0.5727 -0.4083 -0.4240
  600SOL     OW 2397   1.860   1.618   0.905  0.1021 -0.1635  0.3930
  600SOL    HW1 2398   1.916   1.672   0.960 -0.9769  0.3534  0.2505
  600SOL    HW2 2399   1.799   1.684   0.871 -0.1636  1.6646 -0.6500
  600SOL     MW 2400   1.859   1.634   0.908 -0.0753  0.1459  0.2366
  601SOL     OW 2401   2.554   0.723   0.812 -0.1227 -0.0166  0.0924
  601SOL    HW1 2402   2.542   0.733   0.908 -0.3892  0.8193  0.8589
  601SOL    HW2 2403   2.475   0.678   0.773 -2.7928 -1.8643 -1.8041
  601SOL     MW 2404   2.542   0.718   0.819 -0.5102 -0.1501 -0.0567
  602SOL     OW 2405   2.309   1.920   0.780  0.0239 -0.1146  0.4711
  602SOL    HW1 2406   2.279   1.830   0.753 -0.7661 -0.2181 -1.4419
  602SOL    HW2 2407   2.254   1.983   0.741  2.7277  0.3899  0.4762
  602SOL     MW 2408   2.298   1.917   0.772  0.2764 -0.0617  0.2194
  603SOL     OW 2409   2.967   1.345   1.982 -0.2417 -0.3067 -0.0036
  603SOL    HW1 2410   2.949   1.374   2.072 -3.4156 -1.0495 -1.5095
  603SOL    HW2 2411   3.000   1.255   2.002  2.9026 -2.3736 -0.0776
  603SOL     MW 2412   2.969   1.337   1.996 -0.2456 -0.6774 -0.2121
  604SOL     OW 2413   2.036   1.462   0.439  0.3134 -0.0979 -0.0151
  604SOL    HW1 2414   2.079   1.384   0.485  0.6050  0.3358 -0.5000
  604SOL    HW2 2415   1.990   1.511   0.513 -1.1408  1.2854  1.8780
  604SOL     MW 2416   2.036   1.458   0.455  0.1600  0.1418  0.1707
  605SOL     OW 2417   2.491   1.485   0.882 -0.6145 -0.3442 -0.1727
  605SOL    HW1 2418   2.459   1.559   0.826  4.6406 -0.8665 -1.0148
  605SOL    HW2 2419   2.473   1.408   0.823 -0.9410  0.2659 -0.9286
  605SOL     MW 2420   2.484   1.485   0.867  0.0358 -0.3326 -0.3836
  606SOL     OW 2421   2.588   1.818   1.934  0.6202 -0.2098 -0.7837
  606SOL    HW1 2422   2.495   1.793   1.942  0.2217  0.2104  0.2433
  606SOL    HW2 2423   2.631   1.746   1.884 -0.0907  1.5872  0.2190
  606SOL     MW 2424   2.582   1.805   1.928  0.4738  0.0827 -0.5159
  607SOL     OW 2425   2.391   0.994   3.044  0.1452  0.1176  0.4698
  607SOL    HW1 2426   2.464   1.024   2.996 -1.8891  0.8547  0.8696
  607SOL    HW2 2427   2.405   1.012   3.136 -0.6060  1.1239  0.3684
  607SOL     MW 2428   2.402   1.000   3.050 -0.2223  0.3476  0.5092
  608SOL     OW 2429   1.856   0.257   0.534  0.0906 -0.2060  0.2984
  608SOL    HW1 2430   1.831   0.283   0.447  2.2456  0.0904 -1.4690
  608SOL    HW2 2431   1.849   0.165   0.514  0.7784  0.1641 -3.1094
  608SOL     MW 2432   1.852   0.248   0.520  0.4657 -0.1181 -0.3844
  609SOL     OW 2433   2.140   1.930   3.042 -0.2099 -0.6848 -0.3868
  609SOL    HW1 2434   2.077   1.870   2.999  0.3016  2.2830 -0.8223
  609SOL    HW2 2435   2.131   1.903   3.138  1.3268 -1.6656  2.4061
  609SOL     MW 2436   2.131   1.918   3.049  0.0604 -0.4226 -0.0758
  610SOL     OW 2437   1.783   0.928   1.206 -0.1866 -0.6912 -0.2407
  610SOL    HW1 2438   1.775   0.840   1.161 -1.1873  0.1204  1.1005
  610SOL    HW2 2439   1.693   0.971   1.213  0.8082 -1.5890 -1.4694
  610SOL     MW 2440   1.770   0.922   1.201 -0.1874 -0.7026 -0.2259
  611SOL     OW 2441   2.451   1.665   0.682  0.1917  0.1061 -0.6949
  611SOL    HW1 2442   2.518   1.676   0.619  0.3218  0.1486  1.9192
  611SOL    HW2 2443   2.377   1.620   0.637  2.0270 -2.7018  0.5319
  611SOL     MW 2444   2.450   1.661   0.668  0.4510 -0.2588 -0.1881
  612SOL     OW 2445   2.896   2.952   0.339  0.6832  0.1802 -0.2698
  612SOL    HW1 2446   2.917   2.991   0.426 -1.7078  0.3442 -1.8442
  612SOL    HW2 2447   2.957   2.884   0.318  0.4540  1.8982  0.0434
  612SOL     MW 2448   2.907   2.948   0.347  0.3375  0.4285 -0.4362
  613SOL     OW 2449   1.517   1.064   0.963  0.4883  0.5897  0.1191
  613SOL    HW1 2450   1.527   1.160   0.960  0.7564  0.0372 -1.5374
  613SOL    HW2 2451   1.518   1.037   1.058 -3.4370  2.4716  3.8869
  613SOL     MW 2452   1.518   1.073   0.975  0.0057  0.7651  0.3977
  614SOL     OW 2453   2.018   0.492   1.425  0.3500 -0.6964  0.4151
  614SOL    HW1 2454   2.019   0.424   1.489 -0.4419  2.0461 -1.5550
  614SOL    HW2 2455   1.931   0.478   1.384  0.0907  0.2945  0.5660
  614SOL     MW 2456   2.007   0.481   1.428  0.2113 -0.2038  0.1750
  615SOL     OW 2457   2.400   0.713   0.299  0.1562  0.1256  0.0945
  615SOL    HW1 2458   2.460   0.630   0.300  0.2246 -1.9070 -1.8326
  615SOL    HW2 2459   2.381   0.716   0.203  1.1304  1.8882 -0.1905
  615SOL     MW 2460   2.405   0.703   0.286  0.2937  0.0900 -0.1974
  616SOL     OW 2461   2.493   0.442   1.614  0.1749 -0.3317 -0.2052
  616SOL    HW1 2462   2.555   0.378   1.574 -0.0158 -1.5106  4.2029
  616SOL    HW2 2463   2.478   0.513   1.551 -0.1350  0.0157 -1.8827
  616SOL     MW 2464   2.500   0.443   1.600  0.1089 -0.4414  0.1550
  617SOL     OW 2465   2.865   0.619   1.791  0.0333 -0.3164  1.1794
  617SOL    HW1 2466   2.770   0.632   1.800  1.0887  0.4314  1.2518
  617SOL    HW2 2467   2.875   0.523   1.790  1.1418 -1.7875 -0.4888
  617SOL     MW 2468   2.854   0.608   1.792  0.3188 -0.4118  0.9688
  618SOL     OW 2469   2.739   0.331   2.021  0.3460 -0.4307  0.0633
  618SOL    HW1 2470   2.693   0.415   1.988 -0.4103  0.3424 -0.7836
  618SOL    HW2 2471   2.816   0.370   2.072  2.3484  0.7085  1.2755
  618SOL     MW 2472   2.743   0.347   2.023  0.5104 -0.1784  0.1115
  619SOL     OW 2473   2.640   0.721   0.100  0.0863  0.1734  0.4479
  619SOL    HW1 2474   2.713   0.787   0.120  1.7425  1.5339  0.9552
  619SOL    HW2 2475   2.633   0.665   0.176 -0.6255  1.5689  0.0342
  619SOL     MW 2476   2.648   0.722   0.112  0.2109  0.5370  0.4602
  620SOL     OW 2477   2.244   1.085   0.933 -0.2935  0.1263  0.4771
  620SOL    HW1 2478   2.317   1.039   0.890 -0.2181  0.6020  0.7798
  620SOL    HW2 2479   2.169   1.032   0.891  1.7691 -2.3223 -2.3292
  620SOL     MW 2480   2.244   1.072   0.922 -0.0114 -0.1340  0.1468
  621SOL     OW 2481   1.488   2.216   1.931 -0.3451 -0.2402 -0.1883
  621SOL    HW1 2482   1.437   2.135   1.946 -0.2341  3.2807  0.0899
  621SOL    HW2 2483   1.568   2.198   1.988 -0.4178 -2.8650 -1.3689
  621SOL     MW 2484   1.492   2.203   1.940 -0.3401 -0.1220 -0.3073
  622SOL     OW 2485   2.648   0.260   0.293  0.6155 -0.0445 -0.2252
  622SOL    HW1 2486   2.745   0.285   0.277  1.0503 -0.6935  1.4557
  622SOL    HW2 2487   2.651   0.166   0.304 -3.4211  0.6979  0.0390
  622SOL     MW 2488   2.661   0.251   0.293  0.1403 -0.0322  0.0315
  623SOL     OW 2489   2.404   2.758   0.893 -0.6362  0.5995  0.1358
  623SOL    HW1 2490   2.463   2.831   0.875 -2.8412 -2.6089 -0.4772
  623SOL    HW2 2491   2.336   2.799   0.953 -0.6803  1.2874  3.9445
  623SOL     MW 2492   2.403   2.773   0.899 -0.9329  0.2669  0.5574
  624SOL     OW 2493   2.169   1.599   3.041  0.0473 -0.0967 -0.1768
  624SOL    HW1 2494   2.100   1.535   3.034  3.1715 -0.1836 -1.1356
  624SOL    HW2 2495   2.128   1.677   3.025  3.2224 -0.1903  1.2452
  624SOL     MW 2496   2.154   1.601   3.038  0.8785 -0.1205 -0.1157
  625SOL     OW 2497   2.257   1.896   1.051  0.2717 -0.1946 -0.5775
  625SOL    HW1 2498   2.334   1.855   1.093 -0.5919  1.2244 -1.1748
  625SOL    HW2 2499   2.262   1.888   0.955  0.4627  2.7664 -1.9043
  625SOL     MW 2500   2.268   1.889   1.044  0.1829  0.3833 -0.8314
  626SOL     OW 2501   0.160   1.799   2.446 -0.8240 -0.2363 -0.2455
  626SOL    HW1 2502   0.123   1.721   2.483 -0.6692 -1.1170 -0.1235
  626SOL    HW2 2503   0.105   1.873   2.485 -2.8150  2.3743 -3.6153
  626SOL     MW 2504   0.148   1.799   2.456 -1.0663 -0.0081 -0.6740
  627SOL     OW 2505   2.509   0.817   2.560 -0.8605  0.3265  0.3752
  627SOL    HW1 2506   2.432   0.862   2.593 -1.5980  1.0287 -0.0566
  627SOL    HW2 2507   2.483   0.768   2.474 -1.8828  0.4759  0.4847
  627SOL     MW 2508   2.496   0.816   2.553 -1.0927  0.4388  0.3327
  628SOL     OW 2509   2.240   1.362   1.328  0.4974 -0.0488 -0.4554
  628SOL    HW1 2510   2.193   1.311   1.264  0.8327  1.2359 -2.1633
  628SOL    HW2 2511   2.325   1.370   1.281  1.9495  1.8052 -1.5546
  628SOL     MW 2512   2.245   1.356   1.313  0.7332  0.3653 -0.8258
  629SOL     OW 2513   1.767   0.505   1.293 -0.2347  0.6153 -0.5513
  629SOL    HW1 2514   1.768   0.581   1.227 -0.0091  2.5416 -0.4692
  629SOL    HW2 2515   1.686   0.469   1.264  0.2814 -0.4168  1.9238
  629SOL     MW 2516   1.756   0.510   1.280 -0.1368  0.7333 -0.2139
  630SOL     OW 2517   2.399   1.875   2.992 -0.3491 -0.1429  0.0570
  630SOL    HW1 2518   2.412   1.972   2.971 -0.3459  2.7006 -0.2907
  630SOL    HW2 2519   2.305   1.876   3.004 -0.0693  1.9036  0.7186
  630SOL     MW 2520   2.389   1.888   2.990 -0.3117  0.5023  0.0984
  631SOL     OW 2521   2.076   1.701   1.532  0.4732  0.8772 -0.0991
  631SOL    HW1 2522   2.048   1.653   1.611  0.3121  1.8117  0.2370
  631SOL    HW2 2523   2.020   1.776   1.523  0.6742 -1.5603  0.3496
  631SOL     MW 2524   2.065   1.704   1.541  0.4785  0.6789  0.0045
  632SOL     OW 2525   0.271   1.941   1.501  0.0719 -0.3046  0.0857
  632SOL    HW1 2526   0.195   1.975   1.556  0.7696 -1.7713 -1.2571
  632SOL    HW2 2527   0.251   1.855   1.466  0.7359  0.9907 -0.5105
  632SOL     MW 2528   0.258   1.934   1.503  0.2516 -0.3272 -0.1702
  633SOL     OW 2529   2.637   0.540   0.295  0.2859 -0.5166  0.5650
  633SOL    HW1 2530   2.671   0.512   0.382 -1.8887  1.1673  2.0881
  633SOL    HW2 2531   2.617   0.457   0.249 -0.4708  2.6989  0.6708
  633SOL     MW 2532   2.639   0.526   0.301 -0.1008  0.1298  0.7799
  634SOL     OW 2533   2.672   3.035   0.621 -0.0485 -0.3358  0.2655
  634SOL    HW1 2534   2.693   3.131   0.631 -1.4051 -1.0367 -0.0944
  634SOL    HW2 2535   2.622   3.033   0.538 -1.5454  1.1501  1.2378
  634SOL     MW 2536   2.668   3.047   0.611 -0.4250 -0.2322  0.3463
  635SOL     OW 2537   2.627   0.114   1.887  0.0201 -0.5688  0.8602
  635SOL    HW1 2538   2.692   0.065   1.833  0.8961  0.7738 -1.2855
  635SOL    HW2 2539   2.691   0.174   1.936  0.9662 -0.5230 -1.3659
  635SOL     MW 2540   2.644   0.116   1.887  0.2605 -0.3856  0.2834
  636SOL     OW 2541   2.744   1.591   0.880 -0.4315  0.2723 -0.0236
  636SOL    HW1 2542   2.652   1.581   0.909 -1.0414 -1.2573  3.3415
  636SOL    HW2 2543   2.769   1.671   0.928 -2.7688 -1.0834  0.5581
  636SOL     MW 2544   2.735   1.600   0.890 -0.8203 -0.1084  0.4971
  637SOL     OW 2545   2.881   1.532   0.640  0.1371 -0.4047  0.1455
  637SOL    HW1 2546   2.951   1.598   0.614 -1.5849  1.2537 -1.5245
  637SOL    HW2 2547   2.839   1.577   0.713 -0.2246  2.2718 -2.3614
  637SOL     MW 2548   2.885   1.547   0.647 -0.1378  0.1673 -0.4056
  638SOL     OW 2549   2.747   0.501   0.544  0.6542 -0.0926  0.7718
  638SOL    HW1 2550   2.827   0.537   0.507 -0.9449  0.2793 -0.4793
  638SOL    HW2 2551   2.766   0.527   0.632 -1.9814 -2.4468  0.3093
  638SOL     MW 2552   2.760   0.509   0.551  0.0955 -0.3541  0.5457
  639SOL     OW 2553   1.760   3.092   0.524  0.2421  0.0499  0.2134
  639SOL    HW1 2554   1.671   3.134   0.512  2.3521  0.8176  0.8579
  639SOL    HW2 2555   1.754   2.994   0.507 -2.6029  0.2269  1.0723
  639SOL     MW 2556   1.747   3.084   0.520  0.1452  0.1746  0.4117
  640SOL     OW 2557   0.355   1.338   0.092 -0.2251 -0.1156  0.3898
  640SOL    HW1 2558   0.370   1.328  -0.005 -0.9950 -3.9914  1.9892
  640SOL    HW2 2559   0.340   1.246   0.128  0.3713  0.1601 -0.1978
  640SOL     MW 2560   0.355   1.325   0.084 -0.2480 -0.5906  0.5233
  641SOL     OW 2561   2.179   0.414   0.363 -1.1486  0.2905  0.4430
  641SOL    HW1 2562   2.231   0.438   0.288 -1.9321 -1.0945 -1.3717
  641SOL    HW2 2563   2.204   0.321   0.384  0.1042 -0.5577  1.8051
  641SOL     MW 2564   2.189   0.405   0.356 -1.0867 -0.0041  0.3833
  642SOL     OW 2565   0.082   0.035   0.513 -0.4435  0.9242  0.7160
  642SOL    HW1 2566   0.054   0.120   0.520  1.9323 -0.2171 -0.1176
  642SOL    HW2 2567   0.013  -0.025   0.548 -1.5549 -0.5690 -0.0257
  642SOL     MW 2568   0.069   0.039   0.519 -0.2766  0.5766  0.5081
  643SOL     OW 2569   2.064   0.321   1.689  0.1753 -0.4500 -0.5714
  643SOL    HW1 2570   1.985   0.310   1.740  0.5165  1.7858 -1.7919
  643SOL    HW2 2571   2.062   0.250   1.630 -3.0378  2.4579 -1.4516
  643SOL     MW 2572   2.053   0.310   1.688 -0.2037  0.2286 -0.8485
  644SOL     OW 2573   2.678   1.881   0.990  0.1452  0.5372  0.0416
  644SOL    HW1 2574   2.661   1.857   1.078 -1.6905  0.8698  0.9512
  644SOL    HW2 2575   2.605   1.932   0.955  0.9820 -2.0573 -0.4439
  644SOL     MW 2576   2.666   1.884   0.997  0.0134  0.2388  0.0976
  645SOL     OW 2577   2.833   0.826   0.719 -0.0208  0.0595 -0.4895
  645SOL    HW1 2578   2.924   0.805   0.719  1.3348 -0.0685 -2.0837
  645SOL    HW2 2579   2.792   0.766   0.779 -0.9768 -1.9343  1.0912
  645SOL     MW 2580   2.840   0.815   0.727  0.0319 -0.2205 -0.4913
  646SOL     OW 2581   0.094   2.300   0.846  0.6628 -0.1485  0.1512
  646SOL    HW1 2582   0.152   2.225   0.845 -1.4474 -1.4951  2.5438
  646SOL    HW2 2583   0.069   2.310   0.752 -1.1037 -2.5196  0.9318
  646SOL     MW 2584   0.099   2.291   0.833  0.1513 -0.6390  0.5699
  647SOL     OW 2585   2.708   0.510   3.016  0.1999 -0.0836  0.1575
  647SOL    HW1 2586   2.649   0.446   3.051  0.1875 -0.3152 -0.8680
  647SOL    HW2 2587   2.710   0.578   3.084  3.0672 -0.6272  0.3974
  647SOL     MW 2588   2.701   0.510   3.030  0.5766 -0.1859  0.0538
  648SOL     OW 2589   2.278   0.714   1.094 -0.0556 -0.5872  0.0446
  648SOL    HW1 2590   2.224   0.643   1.120 -2.3123 -1.2089  0.2893
  648SOL    HW2 2591   2.253   0.790   1.147  0.6113  1.8430 -0.1938
  648SOL     MW 2592   2.268   0.715   1.105 -0.2653 -0.3486  0.0455
  649SOL     OW 2593   2.431   2.728   1.241  0.2279 -0.4892 -0.0647
  649SOL    HW1 2594   2.520   2.764   1.243  2.1159 -0.0096 -0.4574
  649SOL    HW2 2595   2.447   2.633   1.263  1.5088 -0.7600 -4.3127
  649SOL     MW 2596   2.445   2.720   1.244  0.6460 -0.4616 -0.6770
  650SOL     OW 2597   2.768   0.211   0.659  0.0210  0.5644  0.2986
  650SOL    HW1 2598   2.735   0.298   0.682 -0.9198  0.4375  0.3603
  650SOL    HW2 2599   2.848   0.229   0.604  0.9576  0.4958  0.6022
  650SOL     MW 2600   2.774   0.225   0.655  0.0205  0.5386  0.3468
  651SOL     OW 2601   0.012   0.457   1.011  0.8188 -0.2048  0.2738
  651SOL    HW1 2602   0.063   0.495   0.938 -0.4232  2.4451  2.1322
  651SOL    HW2 2603  -0.069   0.513   1.013  0.3929  2.2281  0.6397
  651SOL     MW 2604   0.008   0.469   1.002  0.5988  0.4658  0.5673
  652SOL     OW 2605   2.342   1.409   2.998 -0.3216 -0.0977  0.1284
  652SOL    HW1 2606   2.421   1.443   2.955 -0.9326  0.6577 -1.6084
  652SOL    HW2 2607   2.287   1.485   3.012  0.2723 -3.1540  0.3791
  652SOL     MW 2608   2.345   1.424   2.994 -0.3239 -0.4013 -0.0677
  653SOL     OW 2609   1.795   0.407   0.302  0.6784 -0.8303 -0.0760
  653SOL    HW1 2610   1.777   0.334   0.244 -1.0435  0.1603 -1.9662
  653SOL    HW2 2611   1.887   0.425   0.297  0.9982  1.1477 -1.6149
  653SOL     MW 2612   1.804   0.400   0.294  0.4934 -0.4386 -0.5284
  654SOL     OW 2613   2.418   0.955   0.748 -0.0477 -0.1538  0.0464
  654SOL    HW1 2614   2.374   0.946   0.658 -1.0018  2.4258  0.6388
  654SOL    HW2 2615   2.466   0.869   0.759  0.6475  0.8595 -0.4686
  654SOL     MW 2616   2.419   0.942   0.737 -0.0819  0.3202  0.0566
  655SOL     OW 2617   2.913   0.891   0.396  0.1380  0.0294  0.1666
  655SOL    HW1 2618   2.861   0.936   0.464  2.5747 -0.1472  3.3761
  655SOL    HW2 2619   2.906   0.798   0.415  0.8430 -1.1931  0.7936
  655SOL     MW 2620   2.905   0.885   0.408  0.5525 -0.1552  0.6728
  656SOL     OW 2621   1.778   2.655   1.386  0.3586 -0.5734  0.3101
  656SOL    HW1 2622   1.816   2.743   1.397 -1.6635  0.2389  0.7874
  656SOL    HW2 2623   1.849   2.599   1.363  0.9966  0.0539  1.2110
  656SOL     MW 2624   1.792   2.659   1.384  0.1760 -0.3835  0.4919
  657SOL     OW 2625   0.116   1.792   1.199 -0.3184  0.6594  0.6799
  657SOL    HW1 2626   0.180   1.857   1.175 -1.9227 -0.1529  3.1656
  657SOL    HW2 2627   0.167   1.711   1.208 -2.2954 -0.2167  0.5838
  657SOL     MW 2628   0.131   1.790   1.197 -0.7909  0.4367  0.9952
  658SOL     OW 2629   2.725   1.323   0.255  0.2484 -0.3357  0.0888
  658SOL    HW1 2630   2.703   1.254   0.320  1.5064  3.8786 -0.8164
  658SOL    HW2 2631   2.732   1.408   0.299  0.8112  0.0137  2.5158
  658SOL     MW 2632   2.723   1.325   0.269  0.4886  0.2664  0.2896
  659SOL     OW 2633   2.188   1.538   1.009 -0.1731 -0.3049  0.5212
  659SOL    HW1 2634   2.265   1.493   1.043  1.3123 -1.8186  2.8835
  659SOL    HW2 2635   2.182   1.618   1.066  1.7501  3.9687 -0.7257
  659SOL     MW 2636   2.197   1.543   1.021  0.2767  0.0592  0.6683
  660SOL     OW 2637   2.085   1.452   1.690 -0.0445 -0.1307 -0.3026
  660SOL    HW1 2638   2.088   1.460   1.784 -3.0128  1.5016  2.1557
  660SOL    HW2 2639   2.002   1.407   1.660 -2.1132  1.1098 -1.0365
  660SOL     MW 2640   2.075   1.447   1.698 -0.7091  0.2484 -0.0751
  661SOL     OW 2641   2.423   0.985   0.222 -0.7416  0.3069  0.1018
  661SOL    HW1 2642   2.488   1.011   0.287  2.0141 -0.3728 -0.1105
  661SOL    HW2 2643   2.429   0.889   0.232  1.1053 -4.6669 -1.7248
  661SOL     MW 2644   2.433   0.976   0.232 -0.1344 -0.4390 -0.1672
  662SOL     OW 2645   2.588   2.950   0.875  0.0017  0.0408  0.2211
  662SOL    HW1 2646   2.565   3.031   0.915 -0.3177  0.5309  0.4217
  662SOL    HW2 2647   2.611   2.977   0.781 -2.4581  0.1164 -1.3775
  662SOL     MW 2648   2.588   2.964   0.868 -0.3650  0.1155  0.0366
  663SOL     OW 2649   2.682   1.532   0.436 -0.1411  0.1646  0.0593
  663SOL    HW1 2650   2.659   1.623   0.410 -0.0559 -0.4231 -0.5367
  663SOL    HW2 2651   2.747   1.546   0.507  1.9168  0.1310  1.3573
  663SOL     MW 2652   2.687   1.546   0.442  0.1417  0.0826  0.1519
  664SOL     OW 2653   2.539   1.547   1.606  0.1067 -0.5921 -0.0049
  664SOL    HW1 2654   2.526   1.629   1.557  1.7111 -1.3468  3.0033
  664SOL    HW2 2655   2.463   1.497   1.596 -0.8587  4.4813 -1.3434
  664SOL     MW 2656   2.527   1.551   1.598  0.1910 -0.0223  0.2154
  665SOL     OW 2657   2.791   0.771   2.075  0.3619 -0.0017 -0.3319
  665SOL    HW1 2658   2.800   0.793   1.979  1.4484 -0.1694  0.3325
  665SOL    HW2 2659   2.881   0.745   2.098  0.9789 -0.6863  1.4801
  665SOL     MW 2660   2.804   0.771   2.065  0.5867 -0.1142 -0.0051
  666SOL     OW 2661   2.761   3.036   1.704 -0.5922 -0.1897 -0.1205
  666SOL    HW1 2662   2.743   3.056   1.613  1.1789  0.2438 -2.1031
  666SOL    HW2 2663   2.728   2.946   1.708  0.7509 -1.8600  0.9864
  666SOL     MW 2664   2.754   3.026   1.693 -0.1813 -0.3529 -0.2360
  667SOL     OW 2665   2.011   2.693   1.769 -0.0231  0.0187  0.1800
  667SOL    HW1 2666   2.053   2.663   1.852  0.3641  1.4580  0.0248
  667SOL    HW2 2667   2.071   2.755   1.723  0.3434 -0.3274 -0.8028
  667SOL     MW 2668   2.024   2.697   1.774  0.0764  0.1629  0.0299
  668SOL     OW 2669   2.760   0.551   0.820 -0.0482 -0.2072  0.2155
  668SOL    HW1 2670   2.807   0.574   0.907  3.2966 -0.9976  3.0928
  668SOL    HW2 2671   2.698   0.625   0.818  2.1999 -0.1689 -3.4784
  668SOL     MW 2672   2.758   0.564   0.831  0.6897 -0.3065  0.1078
  669SOL     OW 2673   0.173   0.918   0.765 -0.1823  0.7970 -0.6138
  669SOL    HW1 2674   0.124   0.985   0.805 -0.8099 -2.1758 -0.0340
  669SOL    HW2 2675   0.232   0.898   0.838  0.9138  4.5566 -1.4264
  669SOL     MW 2676   0.174   0.925   0.780 -0.1205  0.9008 -0.6445
  670SOL     OW 2677   2.895   0.323   0.219 -0.1968 -0.2715 -1.0876
  670SOL    HW1 2678   2.930   0.254   0.164  1.3649  0.4393  0.8180
  670SOL    HW2 2679   2.921   0.407   0.170  2.5011 -0.2193  0.0018
  670SOL     MW 2680   2.903   0.325   0.205  0.3652 -0.1709 -0.6924
  671SOL     OW 2681   2.001   3.021   1.563 -0.0544  0.3223 -0.2242
  671SOL    HW1 2682   1.949   2.972   1.499  1.6398 -1.2371 -0.3061
  671SOL    HW2 2683   1.947   3.046   1.639  1.1316 -1.4126  0.2912
  671SOL     MW 2684   1.987   3.018   1.565  0.3256 -0.1124 -0.1670
  672SOL     OW 2685   1.805   1.736   1.272  0.1470  0.3768 -0.2589
  672SOL    HW1 2686   1.831   1.768   1.357 -0.7223  3.7479  0.2121
  672SOL    HW2 2687   1.879   1.770   1.220  1.0243  0.2649  1.4463
  672SOL     MW 2688   1.818   1.745   1.276  0.1481  0.8068  0.0283
  673SOL     OW 2689   2.760   1.055   0.624 -0.1583  0.6887 -0.7816
  673SOL    HW1 2690   2.785   0.973   0.670  2.3931  2.6380  1.4903
  673SOL    HW2 2691   2.826   1.119   0.646 -2.1062 -1.3372 -1.6947
  673SOL     MW 2692   2.772   1.052   0.633 -0.0786  0.6786 -0.6023
  674SOL     OW 2693   2.463   3.097   1.266  0.2431  0.5438 -0.1151
  674SOL    HW1 2694   2.427   3.115   1.178  0.9251 -1.1557 -0.2355
  674SOL    HW2 2695   2.524   3.021   1.259  0.2112 -0.3466  1.2562
  674SOL     MW 2696   2.466   3.090   1.254  0.3289  0.2021  0.0499
  675SOL     OW 2697   2.943   0.935   1.038  0.9252  0.2168  0.0654
  675SOL    HW1 2698   3.006   0.929   1.107  0.0135 -0.9727  0.3802
  675SOL    HW2 2699   2.985   1.002   0.977  0.2240 -2.6833 -0.7439
  675SOL     MW 2700   2.957   0.943   1.039  0.7124 -0.3228  0.0002
  676SOL     OW 2701   2.947   1.449   1.689 -0.2394  0.7455 -0.0748
  676SOL    HW1 2702   2.875   1.386   1.671 -2.2941  1.0708 -1.7323
  676SOL    HW2 2703   2.962   1.419   1.775 -0.0174  1.9350  3.3720
  676SOL     MW 2704   2.940   1.436   1.698 -0.4812  0.9453  0.1613
  677SOL     OW 2705   2.379   0.552   2.046 -0.0717 -0.3248  0.2868
  677SOL    HW1 2706   2.353   0.508   1.961 -0.3380  1.0539  0.2085
  677SOL    HW2 2707   2.351   0.647   2.036 -0.1869  0.5427 -2.2975
  677SOL     MW 2708   2.372   0.558   2.034 -0.1221 -0.0284 -0.0645
  678SOL     OW 2709   2.461   1.654   0.302 -1.1381  0.3991 -0.3153
  678SOL    HW1 2710   2.382   1.659   0.362 -0.7005  2.1059 -0.4997
  678SOL    HW2 2711   2.462   1.570   0.247  2.0061 -1.5901 -0.8036
  678SOL     MW 2712   2.451   1.644   0.303 -0.6655  0.3619 -0.4040
  679SOL     OW 2713   2.237   0.447   1.264  0.6179 -0.3258 -0.2488
  679SOL    HW1 2714   2.229   0.351   1.269  0.7770 -1.0339 -2.8727
  679SOL    HW2 2715   2.154   0.467   1.314 -1.5957  1.0746 -3.9400
  679SOL     MW 2716   2.225   0.437   1.272  0.3468 -0.2344 -1.0820
  680SOL     OW 2717   2.312   0.160   1.481 -0.3406 -0.3126 -0.2763
  680SOL    HW1 2718   2.223   0.167   1.461 -0.1060 -0.6625 -0.1223
  680SOL    HW2 2719   2.341   0.105   1.400 -0.2292  1.5580 -3.3825
  680SOL     MW 2720   2.304   0.153   1.468 -0.2949 -0.1120 -0.6658
  681SOL     OW 2721   0.228   0.546   1.491  0.0424 -0.1521  0.0214
  681SOL    HW1 2722   0.223   0.480   1.556  2.2008 -0.2246 -3.2537
  681SOL    HW2 2723   0.196   0.500   1.406 -2.8043 -0.2162 -1.0915
  681SOL     MW 2724   0.223   0.531   1.488 -0.0484 -0.1701 -0.5575
  682SOL     OW 2725   0.141   2.869   1.522 -0.9062  0.3917 -0.1534
  682SOL    HW1 2726   0.217   2.924   1.533  0.2401  1.2070 -2.0371
  682SOL    HW2 2727   0.076   2.923   1.569 -0.4794  0.2779 -1.4084
  682SOL     MW 2728   0.143   2.883   1.530 -0.6987  0.4843 -0.5675
  683SOL     OW 2729   2.089   0.831   2.980 -0.4976  0.0647 -0.0207
  683SOL    HW1 2730   2.020   0.765   2.994 -0.9701  3.9164 -2.1537
  683SOL    HW2 2731   2.062   0.901   3.041  1.4990  1.5415  0.0969
  683SOL     MW 2732   2.076   0.832   2.990 -0.2965  0.7677 -0.2866
  684SOL     OW 2733   2.185   1.690   0.689 -0.5143 -0.1156 -0.0812
  684SOL    HW1 2734   2.176   1.705   0.590 -1.8125 -0.6304 -0.5827
  684SOL    HW2 2735   2.148   1.605   0.719  0.0696 -1.3099  1.1664
  684SOL     MW 2736   2.179   1.681   0.680 -0.6085 -0.3411  0.0172
  685SOL     OW 2737   2.721   1.656   1.195  0.2507  0.1301 -0.3010
  685SOL    HW1 2738   2.798   1.652   1.254 -2.8918  0.1305  1.8110
  685SOL    HW2 2739   2.681   1.568   1.209  1.8410 -0.5327  0.1394
  685SOL     MW 2740   2.726   1.644   1.205  0.0459  0.0427  0.0358
  686SOL     OW 2741   2.875   0.714   1.518 -0.2273 -0.3527  0.8111
  686SOL    HW1 2742   2.881   0.676   1.609 -0.0616 -2.6090  0.4504
  686SOL    HW2 2743   2.970   0.729   1.505  3.6370  0.2359  1.2173
  686SOL     MW 2744   2.888   0.711   1.528  0.3044 -0.5727  0.8171
  687SOL     OW 2745   2.135   0.144   1.176  0.1418  0.3454  0.0533
  687SOL    HW1 2746   2.204   0.098   1.124 -0.5971 -1.4067  0.5570
  687SOL    HW2 2747   2.089   0.208   1.111  0.1891  1.3327 -2.2664
  687SOL     MW 2748   2.138   0.146   1.161  0.0506  0.2445 -0.1863
  688SOL     OW 2749   2.393   0.614   1.428 -0.5868 -0.3819 -0.0890
  688SOL    HW1 2750   2.348   0.560   1.368  1.7595  0.2265 -0.5073
  688SOL    HW2 2751   2.330   0.632   1.496 -1.2793  0.2050 -3.0536
  688SOL     MW 2752   2.379   0.609   1.429 -0.3686 -0.2242 -0.5353
  689SOL     OW 2753   2.473   0.737   2.964 -0.9803  1.0461 -0.1284
  689SOL    HW1 2754   2.453   0.830   2.978  0.7219 -0.0454  1.4642
  689SOL    HW2 2755   2.521   0.718   3.044 -1.2126 -3.6709 -1.2889
  689SOL     MW 2756   2.477   0.747   2.976 -0.7864  0.2797 -0.0714
  690SOL     OW 2757   2.047   0.889   1.879 -0.3509  0.0212  0.4416
  690SOL    HW1 2758   2.014   0.800   1.879  0.4629  1.7881 -0.4556
  690SOL    HW2 2759   2.062   0.913   1.785 -1.6982  1.1986  1.6569
  690SOL     MW 2760   2.045   0.880   1.866 -0.4213  0.4097  0.4836
  691SOL     OW 2761   2.412   0.220   0.846  0.4597  0.1644  0.4804
  691SOL    HW1 2762   2.482   0.266   0.892 -2.9027 -0.2070  0.3476
  691SOL    HW2 2763   2.348   0.286   0.819 -1.4017 -1.1444 -1.3592
  691SOL     MW 2764   2.413   0.235   0.849 -0.2295 -0.0573  0.2202
  692SOL     OW 2765   2.887   1.603   1.430 -0.2894 -0.2184 -0.9578
  692SOL    HW1 2766   2.895   1.573   1.523 -0.3605  0.7409 -1.5070
  692SOL    HW2 2767   2.910   1.694   1.429 -2.8510 -1.0150 -0.7196
  692SOL     MW 2768   2.891   1.611   1.442 -0.6367 -0.1970 -0.9989
  693SOL     OW 2769   2.322   0.448   0.110  0.0363  0.1916 -0.2738
  693SOL    HW1 2770   2.240   0.398   0.100 -0.1123 -1.4245 -0.2873
  693SOL    HW2 2771   2.299   0.538   0.081  0.3249 -1.1526  0.0547
  693SOL     MW 2772   2.308   0.453   0.105  0.0548 -0.1990 -0.2323
  694SOL     OW 2773   1.909   1.113   1.053  0.2242 -0.0894  0.1479
  694SOL    HW1 2774   2.003   1.131   1.088 -0.9417  0.9168 -0.9476
  694SOL    HW2 2775   1.872   1.042   1.110 -1.9761 -0.0430  2.5627
  694SOL     MW 2776   1.916   1.106   1.065 -0.2199  0.0495  0.3220
  695SOL     OW 2777   3.004   1.383   1.281 -0.6142 -0.5949  0.7611
  695SOL    HW1 2778   2.972   1.402   1.196 -0.6578 -2.3055 -0.6760
  695SOL    HW2 2779   2.971   1.461   1.339  1.1159  0.8861  0.2769
  695SOL     MW 2780   2.996   1.396   1.278 -0.3917 -0.6252  0.5076
  696SOL     OW 2781   2.101   1.439   0.770 -0.1378  0.3523 -0.6307
  696SOL    HW1 2782   2.118   1.468   0.856  0.3431  0.4214 -0.9178
  696SOL    HW2 2783   2.022   1.385   0.788  1.3089  1.6667 -0.6039
  696SOL     MW 2784   2.092   1.436   0.784  0.1165  0.5348 -0.6651
  697SOL     OW 2785   2.858   0.982   2.257  0.1144 -0.3600  0.1380
  697SOL    HW1 2786   2.784   1.050   2.276 -0.7765  0.5162 -0.4196
  697SOL    HW2 2787   2.823   0.910   2.199  1.1564 -1.9424  0.7515
  697SOL     MW 2788   2.844   0.982   2.252  0.1344 -0.4532  0.1454
  698SOL     OW 2789   2.549   0.315   0.010  0.7315 -0.7998 -0.2552
  698SOL    HW1 2790   2.471   0.362   0.049  0.1588 -0.7052  0.0383
  698SOL    HW2 2791   2.590   0.265   0.089  0.8455 -1.0007  3.1910
  698SOL     MW 2792   2.544   0.315   0.026  0.6710 -0.8138  0.2383
  699SOL     OW 2793   1.894   1.622   2.095  0.6214  0.0284  0.6103
  699SOL    HW1 2794   1.846   1.546   2.070  0.9595  1.9323 -5.3138
  699SOL    HW2 2795   1.957   1.623   2.028 -1.7257  1.0714 -0.1929
  699SOL     MW 2796   1.896   1.612   2.083  0.3563  0.4172 -0.2773
  700SOL     OW 2797   2.688   0.898   1.604  0.7048 -0.2288  0.4185
  700SOL    HW1 2798   2.728   0.971   1.547 -2.3487 -0.0912 -3.1935
  700SOL    HW2 2799   2.735   0.817   1.577  2.0284 -0.5669  2.0492
  700SOL     MW 2800   2.699   0.897   1.593  0.4766 -0.2553  0.1571
  701SOL     OW 2801   1.700   1.168   2.498 -0.5716 -0.1499  0.3546
  701SOL    HW1 2802   1.779   1.117   2.517 -0.1524  2.8881 -0.8939
  701SOL    HW2 2803   1.669   1.229   2.566  1.1103 -0.0792 -0.5083
  701SOL     MW 2804   1.706   1.169   2.510 -0.2944  0.2603  0.0760
  702SOL     OW 2805   2.138   0.409   0.843  0.1484 -0.0800 -0.2052
  702SOL    HW1 2806   2.111   0.332   0.791 -2.4463 -0.0218 -2.1174
  702SOL    HW2 2807   2.195   0.457   0.784 -0.3286 -0.0850  2.3011
  702SOL     MW 2808   2.142   0.405   0.828 -0.2569 -0.0730 -0.1268
  703SOL     OW 2809   2.726   1.252   1.007  0.0031 -0.2339 -0.4578
  703SOL    HW1 2810   2.659   1.272   0.943  1.4318 -1.1226 -0.1056
  703SOL    HW2 2811   2.696   1.171   1.053  1.8088 -0.3730 -1.3086
  703SOL     MW 2812   2.713   1.244   1.005  0.4298 -0.3695 -0.5236
  704SOL     OW 2813   3.033   1.277   0.144 -0.1939 -0.0563  0.5240
  704SOL    HW1 2814   2.958   1.235   0.110 -0.4173  0.5307  1.2634
  704SOL    HW2 2815   3.041   1.245   0.238  1.2282  0.7448  1.4595
  704SOL     MW 2816   3.024   1.267   0.152 -0.0357  0.1268  0.7450
  705SOL     OW 2817   2.163   1.623   1.278 -1.0802 -0.5537 -0.0520
  705SOL    HW1 2818   2.134   1.653   1.370 -2.5431 -1.4765  0.4557
  705SOL    HW2 2819   2.185   1.535   1.295  0.4422  0.0395 -0.9393
  705SOL     MW 2820   2.162   1.615   1.293 -1.0724 -0.5972 -0.1021
  706SOL     OW 2821   2.934   1.262   0.631  0.1055 -0.1784 -0.2451
  706SOL    HW1 2822   2.970   1.268   0.543 -0.9511  2.9380  0.5700
  706SOL    HW2 2823   2.891   1.353   0.637  1.5663 -2.2949 -0.9907
  706SOL     MW 2824   2.933   1.274   0.620  0.1588 -0.0465 -0.2360
  707SOL     OW 2825   2.338   0.035   1.016  0.3361 -0.2905 -0.9865
  707SOL    HW1 2826   2.348   0.097   0.944 -1.7715  0.5210  2.2499
  707SOL    HW2 2827   2.270  -0.023   0.977 -1.2916  1.6340  2.7719
  707SOL     MW 2828   2.331   0.036   1.001 -0.1567  0.0705 -0.0636
  708SOL     OW 2829   2.438   1.404   0.186  0.3998 -0.3111 -0.3865
  708SOL    HW1 2830   2.534   1.387   0.196  1.6319  1.9056 -2.0417
  708SOL    HW2 2831   2.413   1.368   0.102 -0.5276  1.4134  0.7799
  708SOL     MW 2832   2.447   1.397   0.177  0.4400  0.2089 -0.4510
  709SOL     OW 2833   1.732   1.632   0.212 -0.6912 -0.2546 -0.0468
  709SOL    HW1 2834   1.720   1.639   0.117 -0.5594  3.3832 -0.1750
  709SOL    HW2 2835   1.646   1.638   0.240  0.1249  1.3231 -1.1965
  709SOL     MW 2836   1.719   1.634   0.203 -0.5661  0.4335 -0.2154
  710SOL     OW 2837   2.149   1.160   1.173 -0.3668  0.4863 -0.8886
  710SOL    HW1 2838   2.201   1.133   1.095 -0.0505  2.7877  0.7435
  710SOL    HW2 2839   2.156   1.075   1.219  1.3341 -2.7595 -0.3544
  710SOL     MW 2840   2.157   1.146   1.169 -0.1006  0.3617 -0.6028
  711SOL     OW 2841   2.338   0.097   1.781  0.2748  0.6105  0.7001
  711SOL    HW1 2842   2.434   0.101   1.801 -1.7100  0.3224 -0.5346
  711SOL    HW2 2843   2.331   0.093   1.687  1.6087 -1.4966 -0.5306
  711SOL     MW 2844   2.350   0.097   1.772  0.1889  0.2945  0.3748
  712SOL     OW 2845   1.932   0.632   3.065 -0.2580 -0.1131  0.1509
  712SOL    HW1 2846   1.850   0.675   3.050  0.5040 -0.9173 -2.7398
  712SOL    HW2 2847   1.956   0.635   3.161 -2.7864 -0.7493 -0.0260
  712SOL     MW 2848   1.924   0.638   3.076 -0.4911 -0.3031 -0.2538
  713SOL     OW 2849   2.537   0.716   1.087  0.0438 -0.1122  0.0216
  713SOL    HW1 2850   2.562   0.661   1.158 -0.5356 -0.0059  2.1596
  713SOL    HW2 2851   2.444   0.699   1.079  1.6111 -3.8384 -3.4121
  713SOL     MW 2852   2.528   0.707   1.095  0.1742 -0.5898 -0.1494
  714SOL     OW 2853   2.194   0.173   2.004  0.1005  0.5709 -0.1964
  714SOL    HW1 2854   2.242   0.115   2.068  1.1573  2.6765  0.5758
  714SOL    HW2 2855   2.238   0.158   1.914  0.6563  1.3615 -1.7345
  714SOL     MW 2856   2.206   0.164   2.000  0.3133  0.9531 -0.2974
  715SOL     OW 2857   1.828   2.043   1.734 -0.0460  0.1051  0.1129
  715SOL    HW1 2858   1.912   2.079   1.720 -2.3103 -0.3460 -0.6619
  715SOL    HW2 2859   1.830   1.960   1.790  0.1492 -0.3333  1.5484
  715SOL     MW 2860   1.839   2.037   1.740 -0.3190 -0.0123  0.2001
  716SOL     OW 2861   2.329   0.547   0.668  0.0466 -0.2995 -0.7327
  716SOL    HW1 2862   2.383   0.484   0.618 -3.3068  1.9856 -2.7522
  716SOL    HW2 2863   2.283   0.588   0.591  0.1045  0.6708 -1.6176
  716SOL     MW 2864   2.330   0.544   0.651 -0.3882  0.1300 -1.1159
  717SOL     OW 2865   2.809   1.651   2.889  0.0861 -0.1292  0.3774
  717SOL    HW1 2866   2.886   1.598   2.907  1.6025  0.3206 -1.3831
  717SOL    HW2 2867   2.756   1.692   2.966 -0.7085 -0.6851 -0.1892
  717SOL     MW 2868   2.812   1.649   2.901  0.1814 -0.1432  0.0704
  718SOL     OW 2869   2.665   1.401   1.314  0.5237 -0.4099  0.3321
  718SOL    HW1 2870   2.667   1.448   1.396  0.9921 -0.1941  0.9519
  718SOL    HW2 2871   2.749   1.360   1.298 -1.3708 -0.1265 -0.3139
  718SOL     MW 2872   2.677   1.401   1.322  0.3355 -0.3440  0.3287
  719SOL     OW 2873   2.177   1.233   0.571  0.3914 -0.1943 -0.0370
  719SOL    HW1 2874   2.246   1.253   0.508 -0.9386  0.5394  0.7757
  719SOL    HW2 2875   2.198   1.280   0.661 -1.4997  2.9511  0.9152
  719SOL     MW 2876   2.189   1.242   0.574 -0.0336  0.3175  0.1959
  720SOL     OW 2877   2.788   1.155   0.048 -0.3205 -0.5758  0.0332
  720SOL    HW1 2878   2.784   1.065   0.084 -1.2512 -0.1333  0.5857
  720SOL    HW2 2879   2.754   1.211   0.125  2.5316  0.5927 -0.5683
  720SOL     MW 2880   2.783   1.151   0.063 -0.0670 -0.3632  0.0267
  721SOL     OW 2881   2.488   0.874   1.418 -0.0279 -0.2288 -0.2736
  721SOL    HW1 2882   2.464   0.785   1.436 -0.8363  0.5453 -1.7540
  721SOL    HW2 2883   2.556   0.892   1.478 -2.1261 -2.0404 -3.0630
  721SOL     MW 2884   2.494   0.865   1.428 -0.4114 -0.3657 -0.8369
  722SOL     OW 2885   2.606   1.118   0.367  0.1853  0.2385 -0.2312
  722SOL    HW1 2886   2.545   1.177   0.397  2.6786 -1.6290 -0.7552
  722SOL    HW2 2887   2.643   1.078   0.448 -0.9659 -0.2527 -0.2577
  722SOL     MW 2888   2.603   1.121   0.382  0.3623 -0.0727 -0.3038
  723SOL     OW 2889   2.326   1.365   1.595 -0.2282 -0.1989 -0.0425
  723SOL    HW1 2890   2.301   1.370   1.502  2.5768  2.8989 -1.6714
  723SOL    HW2 2891   2.247   1.397   1.643  1.2798  4.1010 -0.7421
  723SOL     MW 2892   2.312   1.370   1.589  0.3408  0.7772 -0.3497
  724SOL     OW 2893   2.465   0.324   0.583  0.3265 -0.0556  0.5026
  724SOL    HW1 2894   2.484   0.278   0.662 -0.6508 -0.5656 -0.6546
  724SOL    HW2 2895   2.541   0.331   0.529 -0.6996 -1.3770 -0.4330
  724SOL     MW 2896   2.478   0.319   0.587  0.0622 -0.2972  0.2265
  725SOL     OW 2897   2.598   0.414   1.224 -0.1284  0.2970 -0.1287
  725SOL    HW1 2898   2.666   0.467   1.264 -0.8120 -0.1654  1.0928
  725SOL    HW2 2899   2.576   0.352   1.294  1.8023 -2.0730 -1.5452
  725SOL     MW 2900   2.604   0.413   1.239  0.0361 -0.0767 -0.1544
  726SOL     OW 2901   2.519   2.503   0.529  0.3143  0.0596  0.6202
  726SOL    HW1 2902   2.495   2.593   0.502 -1.3567  0.5363 -1.7343
  726SOL    HW2 2903   2.501   2.501   0.627 -2.2602  3.6014  0.0676
  726SOL     MW 2904   2.514   2.515   0.538 -0.2459  0.5898  0.2366
  727SOL     OW 2905   2.853   0.337   1.776 -0.2205  0.1315  0.0144
  727SOL    HW1 2906   2.781   0.346   1.711  0.4697 -0.6153 -3.4009
  727SOL    HW2 2907   2.813   0.318   1.868 -1.9433 -0.8430 -1.0603
  727SOL     MW 2908   2.838   0.336   1.780 -0.3567 -0.0956 -0.5780
  728SOL     OW 2909   2.839   1.147   2.859  0.4446  0.2609 -0.3946
  728SOL    HW1 2910   2.830   1.222   2.793  0.3504 -0.0366  1.4484
  728SOL    HW2 2911   2.839   1.193   2.941 -2.2413  0.4740 -0.3280
  728SOL     MW 2912   2.838   1.163   2.861  0.0778  0.2498 -0.1426
  729SOL     OW 2913   2.455   1.467   1.168 -0.5691 -0.0957 -0.0893
  729SOL    HW1 2914   2.532   1.432   1.215 -2.1262  2.2627  1.7196
  729SOL    HW2 2915   2.466   1.445   1.074  0.7391 -1.9273 -0.1513
  729SOL     MW 2916   2.467   1.459   1.161 -0.6020 -0.0262  0.1412
  730SOL     OW 2917   2.269   1.185   0.289 -0.9175 -0.3049  0.2357
  730SOL    HW1 2918   2.319   1.102   0.270  2.0740 -1.5595 -1.4396
  730SOL    HW2 2919   2.330   1.252   0.252  0.8001  2.2417  0.7776
  730SOL     MW 2920   2.284   1.183   0.282 -0.2962 -0.1344  0.0861
  731SOL     OW 2921   2.792   2.066   2.870  0.1510  0.1916 -0.1809
  731SOL    HW1 2922   2.743   2.043   2.793 -0.4822  0.0388 -1.0512
  731SOL    HW2 2923   2.884   2.054   2.861 -1.8426 -0.3143  1.1553
  731SOL     MW 2924   2.797   2.061   2.859 -0.1956  0.1047 -0.1195
  732SOL     OW 2925   2.239   0.923   1.339 -0.3320  0.8199 -0.2068
  732SOL    HW1 2926   2.197   0.902   1.419 -0.3702 -0.8224  0.4079
  732SOL    HW2 2927   2.329   0.924   1.372  1.7263  0.3425 -1.9492
  732SOL     MW 2928   2.245   0.920   1.353 -0.0655  0.5402 -0.3556
  733SOL     OW 2929   2.426   2.824   3.024 -0.5520 -0.0662  0.0738
  733SOL    HW1 2930   2.357   2.893   3.031 -0.0477  0.0155 -1.1883
  733SOL    HW2 2931   2.389   2.739   2.994 -1.7076  0.2704  0.8756
  733SOL     MW 2932   2.412   2.822   3.021 -0.6379 -0.0110  0.0130
  734SOL     OW 2933   1.506   0.290   2.538  0.4086 -0.3522  0.0151
  734SOL    HW1 2934   1.471   0.251   2.620 -2.8221 -1.1281  0.4116
  734SOL    HW2 2935   1.526   0.213   2.481  4.2130 -0.9147  0.0686
  734SOL     MW 2936   1.504   0.275   2.542  0.4843 -0.5288  0.0744
  735SOL     OW 2937   2.938   0.902   2.635  0.0191 -0.0002  0.9315
  735SOL    HW1 2938   2.904   0.811   2.644 -0.9273  0.7409 -0.3952
  735SOL    HW2 2939   2.990   0.925   2.714 -0.9674  2.6055  0.2577
  735SOL     MW 2940   2.941   0.893   2.647 -0.2359  0.4414  0.6675
  736SOL     OW 2941   0.081   0.632   2.571 -0.2710  0.1034  0.2880
  736SOL    HW1 2942   0.097   0.706   2.508  2.1632  1.0166  1.0141
  736SOL    HW2 2943   0.090   0.559   2.511  0.2169  2.8137  0.3268
  736SOL     MW 2944   0.085   0.632   2.555  0.1146  0.5815  0.3889
  737SOL     OW 2945   2.921   0.637   2.649  0.0582  0.9030 -0.3651
  737SOL    HW1 2946   2.869   0.612   2.574 -1.1006 -1.0007 -1.3356
  737SOL    HW2 2947   3.009   0.632   2.611  0.9987 -2.0327  2.0568
  737SOL     MW 2948   2.926   0.633   2.634  0.0294  0.2645 -0.1736
  738SOL     OW 2949   0.209   0.596   1.921  0.0903  0.0145 -0.1897
  738SOL    HW1 2950   0.304   0.612   1.919  1.1936 -1.1714 -1.5849
  738SOL    HW2 2951   0.191   0.541   1.844 -0.9571  0.4249 -0.3683
  738SOL     MW 2952   0.219   0.591   1.910  0.0977 -0.0878 -0.3973
  739SOL     OW 2953   2.486   1.016   2.065 -0.0940 -0.0152  0.1413
  739SOL    HW1 2954   2.424   0.968   2.007 -0.4714  3.6917 -0.7818
  739SOL    HW2 2955   2.553   1.045   2.006 -0.8467 -2.5619  0.9099
  739SOL     MW 2956   2.487   1.014   2.049 -0.2431  0.1378  0.1209
  740SOL     OW 2957   0.165   1.781   2.917 -0.4870  0.7524  0.0164
  740SOL    HW1 2958   0.136   1.696   2.944  0.9232  1.2843  2.1860
  740SOL    HW2 2959   0.254   1.788   2.956 -1.5972 -0.4529 -1.1163
  740SOL     MW 2960   0.173   1.771   2.926 -0.4475  0.6636  0.1532
  741SOL     OW 2961   2.196   1.196   2.707  0.5741 -0.7198  0.5631
  741SOL    HW1 2962   2.164   1.280   2.676 -0.3254 -2.5999  1.1866
  741SOL    HW2 2963   2.190   1.202   2.805  1.0508  2.1376  0.5946
  741SOL     MW 2964   2.191   1.208   2.716  0.5183 -0.5908  0.6495
  742SOL     OW 2965   1.690   1.252   2.216  0.5643  0.1375  0.4152
  742SOL    HW1 2966   1.612   1.203   2.184 -1.1168 -0.7851  1.5852
  742SOL    HW2 2967   1.682   1.269   2.311 -0.0392  0.1994  0.9627
  742SOL     MW 2968   1.679   1.248   2.224  0.2629  0.0240  0.6418
  743SOL     OW 2969   2.488   1.255   2.726  0.1102  0.2954 -0.1301
  743SOL    HW1 2970   2.399   1.263   2.702  2.9904 -0.9748 -3.9598
  743SOL    HW2 2971   2.511   1.202   2.800  0.1856 -2.2300  1.8337
  743SOL     MW 2972   2.479   1.249   2.733  0.5001 -0.2054 -0.3763
  744SOL     OW 2973   2.777   0.925   1.851  0.4382 -0.0881 -0.5709
  744SOL    HW1 2974   2.708   0.984   1.861  0.9912 -1.1259 -0.2255
  744SOL    HW2 2975   2.762   0.881   1.768  1.1097  0.5528 -0.6284
  744SOL     MW 2976   2.766   0.927   1.842  0.5998 -0.1405 -0.5329
  745SOL     OW 2977   1.744   0.436   2.500 -0.1740  0.6827 -0.6264
  745SOL    HW1 2978   1.742   0.459   2.407 -2.4470  0.6571 -0.2897
  745SOL    HW2 2979   1.655   0.397   2.510  1.0791 -1.1244 -0.4008
  745SOL     MW 2980   1.732   0.434   2.489 -0.3086  0.4409 -0.5522
  746SOL     OW 2981   1.610   1.468   1.650  0.1136 -0.1946  0.0867
  746SOL    HW1 2982   1.708   1.478   1.644 -0.8273 -2.6878 -0.6729
  746SOL    HW2 2983   1.589   1.433   1.735 -2.6088 -0.4926  0.2849
  746SOL     MW 2984   1.620   1.464   1.660 -0.3697 -0.5628  0.0126
  747SOL     OW 2985   2.579   1.136   1.804  0.0492 -0.2695  0.0789
  747SOL    HW1 2986   2.493   1.112   1.763 -0.7744 -0.3199 -3.2670
  747SOL    HW2 2987   2.558   1.210   1.862 -2.7326 -0.2217 -0.6971
  747SOL     MW 2988   2.565   1.143   1.806 -0.4265 -0.2698 -0.4649
  748SOL     OW 2989   0.092   0.000   1.903  0.0647 -0.1475  0.5312
  748SOL    HW1 2990   0.164   0.059   1.898 -1.6252  0.1810  0.0834
  748SOL    HW2 2991   0.055   0.023   1.983  0.2486 -0.4570  2.4381
  748SOL     MW 2992   0.097   0.011   1.913 -0.1340 -0.1450  0.7237
  749SOL     OW 2993   2.489   0.608   2.726 -0.3727 -0.1729  0.2361
  749SOL    HW1 2994   2.509   0.674   2.656  0.8549  1.3260  0.9709
  749SOL    HW2 2995   2.502   0.652   2.815 -0.3210  0.2850 -0.6908
  749SOL     MW 2996   2.494   0.623   2.729 -0.2039  0.0853  0.2107
  750SOL     OW 2997   2.061   3.041   1.964 -0.0863  0.7081  0.0340
  750SOL    HW1 2998   2.095   3.130   1.967  1.2960  0.7841 -0.8173
  750SOL    HW2 2999   2.131   2.978   1.987  0.1373 -1.1210 -0.8812
  750SOL     MW 3000   2.075   3.045   1.967  0.1256  0.4768 -0.1990
  751SOL     OW 3001   0.065   0.403   2.367  0.5057 -0.3634  0.4705
  751SOL    HW1 3002   0.058   0.315   2.412  1.7637 -0.5826 -1.1223
  751SOL    HW2 3003   0.150   0.396   2.325  1.7613 -0.7485 -1.5898
  751SOL     MW 3004   0.075   0.390   2.367  0.8374 -0.4432 -0.0115
  752SOL     OW 3005   2.131   0.749   2.717 -0.0689  0.0597 -0.2072
  752SOL    HW1 3006   2.185   0.823   2.684  1.4745  0.7674  0.8449
  752SOL    HW2 3007   2.122   0.759   2.812  0.3166 -0.0820 -0.3353
  752SOL     MW 3008   2.137   0.760   2.725  0.1856  0.1344 -0.0853
  753SOL     OW 3009   2.911   0.229   2.454  0.1139 -0.1986  0.2352
  753SOL    HW1 3010   2.851   0.167   2.411 -1.4559 -2.1198 -2.5829
  753SOL    HW2 3011   2.873   0.306   2.425  2.0408 -1.8302  1.1919
  753SOL     MW 3012   2.898   0.231   2.444  0.1610 -0.6673 -0.0104
  754SOL     OW 3013   2.265   2.973   2.581 -0.6902 -0.4418 -0.5408
  754SOL    HW1 3014   2.263   2.935   2.492 -0.8674  0.3157 -3.1848
  754SOL    HW2 3015   2.331   2.933   2.643  1.3183 -0.1081  1.5766
  754SOL     MW 3016   2.273   2.963   2.577 -0.4486 -0.2978 -0.6102
  755SOL     OW 3017   2.749   1.506   2.460  0.3403 -0.0135 -0.0800
  755SOL    HW1 3018   2.734   1.436   2.529  2.4108 -1.0289  2.0298
  755SOL    HW2 3019   2.805   1.566   2.514 -2.3636 -1.2555  1.0606
  755SOL     MW 3020   2.754   1.505   2.477  0.2567 -0.3114  0.3488
  756SOL     OW 3021   2.191   1.197   2.986 -0.1316  0.1133 -0.4251
  756SOL    HW1 3022   2.258   1.271   2.972 -1.1258 -1.5755 -2.8545
  756SOL    HW2 3023   2.245   1.120   2.997 -3.5048 -1.5323 -0.0141
  756SOL     MW 3024   2.207   1.197   2.985 -0.7078 -0.3266 -0.6914
  757SOL     OW 3025   2.092   0.915   1.598 -0.0239 -0.5209  0.2969
  757SOL    HW1 3026   2.128   0.828   1.622 -1.4706 -0.1521  1.9572
  757SOL    HW2 3027   1.997   0.906   1.564  1.1101  0.0318 -0.0746
  757SOL     MW 3028   2.084   0.902   1.597 -0.0652 -0.3993  0.4670
  758SOL     OW 3029   2.226   1.780   2.639 -0.2352 -0.1213 -1.0239
  758SOL    HW1 3030   2.204   1.795   2.547  1.4830  1.2268  0.8140
  758SOL    HW2 3031   2.333   1.764   2.629  2.7695 -1.0943  0.3319
  758SOL     MW 3032   2.237   1.780   2.626  0.3879 -0.0718 -0.6025
  759SOL     OW 3033   1.569   1.352   2.662 -0.7328  0.0450 -0.2637
  759SOL    HW1 3034   1.551   1.430   2.607 -0.9882  0.1460  0.8924
  759SOL    HW2 3035   1.626   1.386   2.731  0.1546  0.7400  0.7807
  759SOL     MW 3036   1.574   1.367   2.664 -0.6494  0.1500  0.0266
  760SOL     OW 3037   2.589   2.008   2.703 -0.4801  0.2787 -0.3037
  760SOL    HW1 3038   2.558   1.920   2.692 -0.7386 -0.1060  2.1523
  760SOL    HW2 3039   2.547   2.072   2.642 -0.5374  0.5899  2.7531
  760SOL     MW 3040   2.579   2.004   2.694 -0.5218  0.2690  0.4237
  761SOL     OW 3041   2.184   0.368   2.427 -0.0769 -0.3418 -0.2868
  761SOL    HW1 3042   2.113   0.313   2.446 -0.2388  1.6680  1.7731
  761SOL    HW2 3043   2.204   0.406   2.515 -0.0342  2.6352 -3.0392
  761SOL     MW 3044   2.177   0.366   2.441 -0.0926  0.3162 -0.3781
  762SOL     OW 3045   0.073   0.194   2.138 -0.4352  0.0837 -0.1996
  762SOL    HW1 3046   0.028   0.138   2.199 -1.8096 -1.4095 -0.3668
  762SOL    HW2 3047   0.010   0.268   2.129 -0.0290  2.5413  1.7195
  762SOL     MW 3048   0.059   0.196   2.145 -0.5629  0.2109  0.0316
  763SOL     OW 3049   2.352   1.018   2.355 -0.2414  0.3576  0.1760
  763SOL    HW1 3050   2.400   0.955   2.300  1.1876 -2.6249  1.3061
  763SOL    HW2 3051   2.427   1.083   2.363 -2.2961  0.2630 -0.6288
  763SOL     MW 3052   2.368   1.018   2.349 -0.3240 -0.0484  0.2189
  764SOL     OW 3053   0.467   0.235   2.807  0.4576 -0.5390  0.1237
  764SOL    HW1 3054   0.388   0.189   2.800  2.0311 -0.2931 -0.9646
  764SOL    HW2 3055   0.452   0.329   2.834  3.4121  1.1612  3.3979
  764SOL     MW 3056   0.455   0.241   2.809  1.0551 -0.2822  0.4121
  765SOL     OW 3057   2.770   0.030   2.344 -0.1017 -0.4414  0.5661
  765SOL    HW1 3058   2.732   0.038   2.249  0.8807 -0.4387  0.2890
  765SOL    HW2 3059   2.800  -0.063   2.343 -1.1345 -1.0813 -2.8364
  765SOL     MW 3060   2.769   0.019   2.331 -0.1083 -0.5254  0.0806
  766SOL     OW 3061   1.858   2.984   2.149  0.3206 -0.2377  0.2010
  766SOL    HW1 3062   1.908   3.020   2.084 -0.5972  0.0082  2.0831
  766SOL    HW2 3063   1.803   2.914   2.108 -2.8118  0.1639  1.2682
  766SOL     MW 3064   1.857   2.980   2.135 -0.2138 -0.1522  0.5902
  767SOL     OW 3065   2.629   0.575   1.976  0.6549 -0.4679  0.9269
  767SOL    HW1 3066   2.658   0.649   2.028 -0.9097  0.7621  1.3493
  767SOL    HW2 3067   2.533   0.576   1.967  0.5030 -1.3781 -1.5963
  767SOL     MW 3068   2.620   0.585   1.982  0.4284 -0.4257  0.6497
  768SOL     OW 3069   3.097   1.541   2.948 -0.1768 -0.0516  0.1462
  768SOL    HW1 3070   3.130   1.513   3.035 -0.9353 -0.0040  1.5115
  768SOL    HW2 3071   3.104   1.470   2.884  0.5456  2.5826  4.7739
  768SOL     MW 3072   3.102   1.528   2.951 -0.1816  0.3022  0.9369
  769SOL     OW 3073   2.450   0.680   2.345 -0.4301  0.1095 -0.2978
  769SOL    HW1 3074   2.354   0.656   2.340 -0.7316 -1.0807 -1.8829
  769SOL    HW2 3075   2.484   0.603   2.304 -2.2220  0.2003 -3.0024
  769SOL     MW 3076   2.442   0.667   2.339 -0.7063 -0.0356 -0.8638
  770SOL     OW 3077   0.091   1.607   2.608 -0.2912  0.0567 -0.0586
  770SOL    HW1 3078  -0.008   1.611   2.624  0.6847 -1.7142  0.3165
  770SOL    HW2 3079   0.113   1.513   2.617  0.3301 -2.1329 -2.2608
  770SOL     MW 3080   0.081   1.595   2.612 -0.0805 -0.4659 -0.2997
  771SOL     OW 3081   3.054   0.668   2.018  0.0751  0.2805  0.4019
  771SOL    HW1 3082   2.998   0.668   1.942 -1.4897  1.7698 -0.7337
  771SOL    HW2 3083   3.144   0.634   1.994 -2.5652  2.0122 -1.4886
  771SOL     MW 3084   3.059   0.664   2.004 -0.4797  0.7055  0.0026
  772SOL     OW 3085   3.100   0.017   2.323 -0.1275 -0.3622 -0.0460
  772SOL    HW1 3086   3.023  -0.028   2.355 -2.1534  1.3107 -0.7944
  772SOL    HW2 3087   3.164  -0.050   2.278  2.2308  1.8578  0.3045
  772SOL     MW 3088   3.099   0.002   2.322 -0.0836  0.1514 -0.0985
  773SOL     OW 3089   2.449   2.833   2.728 -0.2902 -0.2542  0.3213
  773SOL    HW1 3090   2.450   2.741   2.714  0.9323  1.0703  2.8714
  773SOL    HW2 3091   2.422   2.840   2.821 -1.2953 -0.4462 -0.9155
  773SOL     MW 3092   2.445   2.822   2.738 -0.2615 -0.1048  0.4946
  774SOL     OW 3093   2.297   1.093   1.749  0.0009 -0.5780  0.6901
  774SOL    HW1 3094   2.305   1.171   1.695 -0.1153 -0.9712 -1.3321
  774SOL    HW2 3095   2.234   1.047   1.696 -1.9838 -2.3101 -1.3704
  774SOL     MW 3096   2.290   1.097   1.735 -0.2763 -0.8584  0.1514
  775SOL     OW 3097   2.261   2.879   2.334 -0.0155 -0.2354  0.2074
  775SOL    HW1 3098   2.280   2.958   2.281  1.5637 -0.4230  0.3712
  775SOL    HW2 3099   2.324   2.814   2.294 -1.9171  0.3944  0.0044
  775SOL     MW 3100   2.271   2.881   2.321 -0.0580 -0.1770  0.2022
  776SOL     OW 3101   0.107   1.477   0.101  0.2742  0.0863 -0.3299
  776SOL    HW1 3102   0.189   1.431   0.080 -4.0186  3.2303  0.3583
  776SOL    HW2 3103   0.052   1.400   0.128  1.5518  0.4283  0.7163
  776SOL     MW 3104   0.111   1.461   0.102 -0.1236  0.5462 -0.1011
  777SOL     OW 3105   2.930   1.143   1.776  0.0636  0.6716  0.2526
  777SOL    HW1 3106   2.870   1.181   1.709  0.9905 -1.3250 -4.1815
  777SOL    HW2 3107   2.875   1.066   1.806 -1.6262  2.2796  2.1409
  777SOL     MW 3108   2.915   1.138   1.771 -0.0370  0.6204 -0.0833
  778SOL     OW 3109   2.879   0.428   2.827 -0.0229  0.4896 -0.1844
  778SOL    HW1 3110   2.821   0.470   2.900  0.3371  0.7048  0.2134
  778SOL    HW2 3111   2.912   0.505   2.776  2.0937  1.1659 -0.3986
  778SOL     MW 3112   2.876   0.444   2.830  0.3039  0.6073 -0.1602
  779SOL     OW 3113   2.165   0.618   2.337  0.5331 -0.2385  0.1838
  779SOL    HW1 3114   2.149   0.665   2.410 -2.7806 -1.8087  0.3168
  779SOL    HW2 3115   2.160   0.528   2.370  1.8858  1.4333  1.8455
  779SOL     MW 3116   2.162   0.612   2.351  0.2744 -0.2251  0.4206
  780SOL     OW 3117   0.225   0.091   2.747 -0.0895  0.0403  0.4167
  780SOL    HW1 3118   0.180   0.141   2.815 -1.0520 -2.3599 -0.2371
  780SOL    HW2 3119   0.194   0.124   2.663 -1.2197  2.1445  0.1482
  780SOL     MW 3120   0.215   0.102   2.745 -0.3656  0.0013  0.2950
  781SOL     OW 3121   3.057   1.290   2.509  0.0733 -0.1705  0.1903
  781SOL    HW1 3122   3.027   1.336   2.429 -0.0622  1.6460  0.1729
  781SOL    HW2 3123   3.095   1.210   2.473  2.3484  0.0051 -0.7906
  781SOL     MW 3124   3.058   1.286   2.494  0.3556  0.0923  0.0586
  782SOL     OW 3125   0.534   1.508   3.008 -0.3649  0.4555 -0.7311
  782SOL    HW1 3126   0.487   1.591   2.987 -0.6300  0.7356 -1.0386
  782SOL    HW2 3127   0.553   1.508   3.098  1.5430 -0.4325 -3.2746
  782SOL     MW 3128   0.531   1.519   3.017 -0.1482  0.3753 -1.1072
  783SOL     OW 3129   2.781   0.495   2.465 -0.0475 -0.0418  0.5453
  783SOL    HW1 3130   2.720   0.470   2.393  1.1881 -1.5151  1.4313
  783SOL    HW2 3131   2.735   0.453   2.539  1.6259 -2.0876  0.6164
  783SOL     MW 3132   2.767   0.486   2.465  0.3363 -0.5061  0.6716
  784SOL     OW 3133   0.251   0.930   2.899 -1.1200 -0.4059  0.5261
  784SOL    HW1 3134   0.222   1.012   2.950 -1.3957  2.7972  1.0702
  784SOL    HW2 3135   0.274   0.966   2.809  0.0227  0.1609 -1.1766
  784SOL     MW 3136   0.250   0.946   2.894 -1.0056  0.0915  0.3733
  785SOL     OW 3137   0.446   0.519   2.178  0.2292  0.2546  0.0345
  785SOL    HW1 3138   0.469   0.566   2.093 -3.8065 -2.3984 -1.2248
  785SOL    HW2 3139   0.391   0.437   2.167 -1.0562  0.8726  0.5192
  785SOL     MW 3140   0.442   0.514   2.165 -0.4728 -0.0139 -0.0677
  786SOL     OW 3141   1.976   0.482   2.805 -0.9214 -0.1433  0.4153
  786SOL    HW1 3142   1.992   0.479   2.901  0.0064 -1.4231  3.9608
  786SOL    HW2 3143   2.045   0.442   2.744  0.9508  0.1985 -2.1567
  786SOL     MW 3144   1.987   0.476   2.809 -0.5520 -0.2671  0.5438
  787SOL     OW 3145   2.452   0.120   2.932  0.2240 -0.2683 -0.7885
  787SOL    HW1 3146   2.530   0.083   2.884 -0.1515 -1.3709 -1.3661
  787SOL    HW2 3147   2.483   0.197   2.985  1.2565  0.6072  2.0227
  787SOL     MW 3148   2.466   0.125   2.932  0.3107 -0.2983 -0.4938
  788SOL     OW 3149   2.859   2.868   2.349  0.5291 -0.2121  0.1405
  788SOL    HW1 3150   2.861   2.804   2.275  1.5178 -2.0814 -1.2713
  788SOL    HW2 3151   2.940   2.842   2.398 -1.8723 -0.4585 -2.4534
  788SOL     MW 3152   2.870   2.856   2.346  0.3427 -0.4912 -0.3880
  789SOL     OW 3153   0.091   0.247   2.941 -0.1065 -0.4623  0.0708
  789SOL    HW1 3154   0.010   0.211   2.961  1.1803  0.0450 -2.3259
  789SOL    HW2 3155   0.086   0.339   2.952 -0.2364 -1.4502 -2.5773
  789SOL     MW 3156   0.080   0.255   2.945  0.0462 -0.5257 -0.5948
  790SOL     OW 3157   3.096   1.020   2.432  1.1122 -0.0192 -0.1764
  790SOL    HW1 3158   3.035   0.979   2.501 -0.7370 -0.1488  1.7197
  790SOL    HW2 3159   3.048   1.028   2.353 -3.4167  1.1506  1.9065
  790SOL     MW 3160   3.082   1.015   2.430  0.2707  0.1180  0.3486
  791SOL     OW 3161   2.660   0.366   2.673  0.0770  0.3815 -0.3655
  791SOL    HW1 3162   2.600   0.426   2.719  1.3578  0.3067  0.2200
  791SOL    HW2 3163   2.733   0.380   2.734 -1.0639  1.3395 -1.2200
  791SOL     MW 3164   2.661   0.376   2.687  0.0955  0.4980 -0.4010
  792SOL     OW 3165   2.445   0.221   2.362  0.0473  0.2852 -0.3819
  792SOL    HW1 3166   2.359   0.238   2.397  0.0445 -2.0777  2.0329
  792SOL    HW2 3167   2.484   0.163   2.431  1.4495 -0.7155  1.0185
  792SOL     MW 3168   2.439   0.216   2.376  0.2319 -0.1586  0.1215
  793SOL     OW 3169   1.794   1.032   1.951 -0.4758 -0.2653 -0.6474
  793SOL    HW1 3170   1.756   1.068   1.872 -0.4384 -3.0309  1.0562
  793SOL    HW2 3171   1.881   0.998   1.922  1.2678 -1.1814 -3.1434
  793SOL     MW 3172   1.801   1.032   1.937 -0.2408 -0.7511 -0.7520
  794SOL     OW 3173   1.465   2.247   0.119 -0.4424 -0.3880 -0.3075
  794SOL    HW1 3174   1.482   2.319   0.051 -2.5951  0.1744 -1.5187
  794SOL    HW2 3175   1.509   2.278   0.202  0.9041  0.2143  0.2991
  794SOL     MW 3176   1.473   2.261   0.121 -0.5488 -0.2344 -0.3873
  795SOL     OW 3177   2.280   0.959   2.607 -0.3651  0.1519 -0.1953
  795SOL    HW1 3178   2.243   1.047   2.627 -1.9335  1.2978  0.6588
  795SOL    HW2 3179   2.290   0.978   2.509 -3.3302 -0.8350  0.1771
  795SOL     MW 3180   2.277   0.973   2.597 -0.9632  0.1729 -0.0335
  796SOL     OW 3181   0.282   0.664   2.758  0.7558  0.4703 -0.1677
  796SOL    HW1 3182   0.274   0.746   2.809  3.2200  0.0142 -0.8508
  796SOL    HW2 3183   0.205   0.649   2.696  0.8064  0.1452  1.3844
  796SOL     MW 3184   0.270   0.673   2.757  1.0876  0.3672 -0.0531
  797SOL     OW 3185   2.601   0.135   2.564  0.1857  0.7384  0.0503
  797SOL    HW1 3186   2.617   0.222   2.598 -0.0597 -3.1218 -3.6025
  797SOL    HW2 3187   2.671   0.114   2.505 -1.8534 -0.4825  2.7465
  797SOL     MW 3188   2.612   0.144   2.561 -0.1157  0.0680 -0.0759
  798SOL     OW 3189   2.348   0.028   2.199  0.0280  0.3048  0.6612
  798SOL    HW1 3190   2.371   0.105   2.245 -2.3796 -2.3315 -2.8542
  798SOL    HW2 3191   2.421  -0.001   2.146  0.7857  1.4167 -0.3680
  798SOL     MW 3192   2.361   0.034   2.198 -0.1897  0.1037  0.0615
  799SOL     OW 3193   2.453   2.953   0.186 -0.0399  0.2756  0.1465
  799SOL    HW1 3194   2.445   2.872   0.132 -1.1847 -0.3312  0.5681
  799SOL    HW2 3195   2.359   2.982   0.193 -1.3810 -0.8907  0.5416
  799SOL     MW 3196   2.440   2.946   0.180 -0.3679  0.0417  0.2543
  800SOL     OW 3197   1.847   3.045   1.779 -0.1397 -0.2888 -0.1496
  800SOL    HW1 3198   1.818   2.951   1.769 -0.4826  0.4666 -2.3956
  800SOL    HW2 3199   1.924   3.034   1.835  0.9031  0.2039 -0.8630
  800SOL     MW 3200   1.854   3.031   1.785 -0.0474 -0.1241 -0.5401
  801SOL     OW 3201   2.816   1.295   2.620 -0.1304  0.3510 -0.4290
  801SOL    HW1 3202   2.762   1.219   2.597  1.9402 -0.0349  0.4085
  801SOL    HW2 3203   2.903   1.287   2.568  0.5162  0.2482  3.3202
  801SOL     MW 3204   2.821   1.284   2.610  0.2281  0.2865  0.1762
  802SOL     OW 3205   2.549   1.512   2.815 -0.0062 -0.4344  0.0220
  802SOL    HW1 3206   2.553   1.422   2.770 -0.0869 -1.6346 -0.3520
  802SOL    HW2 3207   2.633   1.542   2.838 -4.6476  0.1367  1.7149
  802SOL     MW 3208   2.561   1.504   2.812 -0.6292 -0.5174  0.1960
  803SOL     OW 3209   2.322   1.271   1.941 -0.5184 -0.1265 -0.3333
  803SOL    HW1 3210   2.308   1.234   2.026  1.3963 -0.5846 -0.0782
  803SOL    HW2 3211   2.309   1.203   1.879 -0.2333  0.3218  0.8884
  803SOL     MW 3212   2.318   1.257   1.944 -0.2282 -0.1278 -0.1385
  804SOL     OW 3213   2.283   0.069   0.058  0.1857 -0.5728 -0.4327
  804SOL    HW1 3214   2.211   0.132   0.057 -0.0517 -1.3077  3.3385
  804SOL    HW2 3215   2.328   0.093  -0.024  1.6404  0.0080  0.5799
  804SOL     MW 3216   2.280   0.080   0.047  0.3463 -0.5931  0.1985
  805SOL     OW 3217   2.679   1.030   2.578  1.0665  0.5219  0.7644
  805SOL    HW1 3218   2.621   0.949   2.568  0.9869  0.9398  1.9456
  805SOL    HW2 3219   2.762   0.984   2.580 -0.8911  1.7877  0.4112
  805SOL     MW 3220   2.683   1.013   2.577  0.7977  0.7440  0.8737
  806SOL     OW 3221   2.613   0.429   2.270  0.4071 -0.1322  0.2229
  806SOL    HW1 3222   2.548   0.359   2.302  1.8738  0.3956 -0.1543
  806SOL    HW2 3223   2.620   0.413   2.178 -0.4433 -1.6601  2.3288
  806SOL     MW 3224   2.606   0.418   2.262  0.4884 -0.2641  0.4510
  807SOL     OW 3225   3.094   1.094   2.115 -0.6526  0.0445  0.2530
  807SOL    HW1 3226   3.130   1.010   2.088  1.6154  0.3054  1.8776
  807SOL    HW2 3227   3.006   1.081   2.144  1.6769  2.8227 -0.0465
  807SOL     MW 3228   3.087   1.081   2.115 -0.0460  0.4455  0.4278
  808SOL     OW 3229   2.619   3.078   2.758  0.3110 -0.4507 -0.1594
  808SOL    HW1 3230   2.584   2.996   2.733 -0.0225  1.7011  2.4868
  808SOL    HW2 3231   2.615   3.133   2.675  0.2562 -3.4314  0.5256
  808SOL     MW 3232   2.614   3.075   2.743  0.2597 -0.5601  0.2801
  809SOL     OW 3233   2.543   1.233   2.395 -0.2704  0.0398 -0.1880
  809SOL    HW1 3234   2.581   1.192   2.466  0.8670  0.2042 -0.2718
  809SOL    HW2 3235   2.616   1.228   2.327 -1.8671 -2.5518 -0.7469
  809SOL     MW 3236   2.558   1.227   2.395 -0.3310 -0.2805 -0.2728
  810SOL     OW 3237   2.187   1.209   2.204 -0.0539 -0.9107  0.0344
  810SOL    HW1 3238   2.230   1.147   2.261 -1.7376 -1.2208 -0.4555
  810SOL    HW2 3239   2.107   1.169   2.181  2.4228  0.1573  2.4848
  810SOL     MW 3240   2.182   1.195   2.208  0.0507 -0.8107  0.2930
  811SOL     OW 3241   1.549   0.088   2.283 -0.6651  0.8178 -0.2234
  811SOL    HW1 3242   1.620   0.030   2.317  3.8333 -2.4100  1.2946
  811SOL    HW2 3243   1.558   0.096   2.191  1.7452 -0.8477  1.0298
  811SOL     MW 3244   1.559   0.081   2.275  0.2464  0.1722  0.1422
  812SOL     OW 3245   1.433   2.794   2.039 -0.1408 -0.1533  0.0187
  812SOL    HW1 3246   1.531   2.805   2.041 -0.9725 -0.9415  3.0395
  812SOL    HW2 3247   1.404   2.796   2.130 -0.8519  0.8560 -0.2077
  812SOL     MW 3248   1.442   2.795   2.052 -0.3444 -0.1241  0.3874
  813SOL     OW 3249   1.822   0.746   2.204  0.5650  0.3274 -0.3263
  813SOL    HW1 3250   1.781   0.656   2.194  0.9034  0.3992  1.2169
  813SOL    HW2 3251   1.850   0.750   2.296  0.5538 -0.9475 -0.2896
  813SOL     MW 3252   1.820   0.735   2.215  0.6082  0.1687 -0.1179
  814SOL     OW 3253   2.748   1.254   1.598 -0.4038 -0.1409 -0.5443
  814SOL    HW1 3254   2.674   1.220   1.645 -0.0492  1.5048 -0.7390
  814SOL    HW2 3255   2.747   1.197   1.523  0.7421 -0.5381 -0.8805
  814SOL     MW 3256   2.738   1.242   1.594 -0.2058  0.0238 -0.6144
  815SOL     OW 3257   2.489   1.661   2.405 -0.3333  0.2461  0.0270
  815SOL    HW1 3258   2.431   1.599   2.370  0.6090  0.1400 -1.4401
  815SOL    HW2 3259   2.577   1.619   2.390  1.6246  1.8243  2.2737
  815SOL     MW 3260   2.493   1.647   2.398  0.0494  0.4403  0.1298
  816SOL     OW 3261   0.742   0.654   2.730 -0.6889 -0.6658 -0.0125
  816SOL    HW1 3262   0.745   0.600   2.811  2.8571  1.3917  0.2434
  816SOL    HW2 3263   0.652   0.641   2.699 -3.4671  0.6435  0.6682
  816SOL     MW 3264   0.731   0.645   2.737 -0.5876 -0.2216  0.1111
  817SOL     OW 3265   3.046   1.137   1.382 -0.4304 -0.4057  0.4366
  817SOL    HW1 3266   3.088   1.146   1.467  2.1073 -2.0806 -2.8077
  817SOL    HW2 3267   3.038   1.226   1.345  1.5849 -2.9871 -0.1922
  817SOL     MW 3268   3.051   1.150   1.389  0.1703 -0.9673 -0.0744
  818SOL     OW 3269   1.901   1.031   2.718  0.3008 -0.2666  0.0195
  818SOL    HW1 3270   1.933   1.069   2.637 -0.5458 -1.3066 -0.4826
  818SOL    HW2 3271   1.975   0.995   2.769  1.4572  0.3426  2.7880
  818SOL     MW 3272   1.915   1.032   2.714  0.3417 -0.3234  0.3185
  819SOL     OW 3273   1.888   0.194   2.416 -0.8254 -0.0370 -0.3030
  819SOL    HW1 3274   1.848   0.273   2.446 -0.9168 -1.6193 -0.5664
  819SOL    HW2 3275   1.938   0.167   2.501 -0.3623  3.2606  1.2585
  819SOL     MW 3276   1.889   0.201   2.431 -0.7764  0.1893 -0.1317
  820SOL     OW 3277   2.488   1.737   2.665  0.3657 -0.4865 -0.2480
  820SOL    HW1 3278   2.493   1.654   2.717  0.2938 -0.5660  3.8131
  820SOL    HW2 3279   2.514   1.712   2.577  0.7963  2.0390  2.1746
  820SOL     MW 3280   2.492   1.723   2.660  0.4131 -0.1638  0.6075
  821SOL     OW 3281   2.585   1.360   1.951  0.0951  0.1893  0.4715
  821SOL    HW1 3282   2.628   1.436   1.905  0.5859  0.6949  3.3227
  821SOL    HW2 3283   2.490   1.377   1.950 -0.0022 -0.7476  1.4980
  821SOL     MW 3284   2.578   1.372   1.945  0.1470  0.1324  0.9831
  822SOL     OW 3285   2.850   2.704   1.446  0.0268 -0.0653 -0.0507
  822SOL    HW1 3286   2.910   2.758   1.504  1.8993  0.4155 -1.7061
  822SOL    HW2 3287   2.791   2.767   1.405 -0.1411 -1.4113 -0.3024
  822SOL     MW 3288   2.850   2.719   1.449  0.2517 -0.1794 -0.3024
  823SOL     OW 3289   2.281   0.471   1.767  0.1471  0.3731  0.1529
  823SOL    HW1 3290   2.362   0.453   1.710  1.6170 -0.1965 -2.8575
  823SOL    HW2 3291   2.207   0.419   1.724  0.1858  1.2223  0.2410
  823SOL     MW 3292   2.282   0.461   1.754  0.3462  0.4100 -0.2327
  824SOL     OW 3293   2.080   1.408   2.506  0.0510 -0.4776 -0.1270
  824SOL    HW1 3294   2.161   1.426   2.449  0.9437  0.2773 -3.8591
  824SOL    HW2 3295   2.056   1.472   2.577 -0.8855 -0.8414 -0.4803
  824SOL     MW 3296   2.087   1.419   2.508  0.0452 -0.4260 -0.6660
  825SOL     OW 3297   2.128   2.526   0.384  0.6783 -0.8710  0.2078
  825SOL    HW1 3298   2.098   2.461   0.317  1.2045  0.8648 -1.0204
  825SOL    HW2 3299   2.202   2.482   0.419  0.3118  1.4149  2.7037
  825SOL     MW 3300   2.134   2.512   0.380  0.6993 -0.3404  0.3750
  826SOL     OW 3301   1.790   2.381   0.470 -0.2222 -0.1887  0.1390
  826SOL    HW1 3302   1.802   2.315   0.539 -3.7044  2.1620  1.5034
  826SOL    HW2 3303   1.844   2.449   0.496 -0.9766 -1.9602 -2.4754
  826SOL     MW 3304   1.799   2.381   0.483 -0.7812 -0.1123 -0.0259
  827SOL     OW 3305   1.942   2.229   0.882 -0.4643  0.5750  0.6115
  827SOL    HW1 3306   1.889   2.195   0.812  0.2102  2.3838  0.8595
  827SOL    HW2 3307   1.916   2.170   0.952  2.8112  2.4471  0.6689
  827SOL     MW 3308   1.932   2.217   0.882  0.0568  1.0607  0.6518
  828SOL     OW 3309   0.092   2.601   0.528  0.0951  0.1772  0.3619
  828SOL    HW1 3310   0.179   2.636   0.555  2.5221  0.5689 -0.7836
  828SOL    HW2 3311   0.072   2.652   0.453 -2.5133  1.4326  0.7837
  828SOL     MW 3312   0.101   2.612   0.522  0.0711  0.3945  0.2664
  829SOL     OW 3313   3.009   2.890   1.205  0.3022 -0.1470 -0.1120
  829SOL    HW1 3314   2.948   2.884   1.136 -1.1074 -0.6610 -1.0404
  829SOL    HW2 3315   3.054   2.805   1.213  0.1210  0.7602 -0.5725
  829SOL     MW 3316   3.007   2.878   1.197  0.0923 -0.0951 -0.2952
  830SOL     OW 3317   2.540   2.807   2.021  0.6754 -0.3733 -0.4376
  830SOL    HW1 3318   2.449   2.836   1.993 -2.2483  0.8924  1.2386
  830SOL    HW2 3319   2.593   2.791   1.944 -1.9823  0.5844 -0.2317
  830SOL     MW 3320   2.535   2.809   2.007 -0.0610 -0.0800 -0.1893
  831SOL     OW 3321   2.474   2.438   1.207  0.2698  0.5016 -0.0154
  831SOL    HW1 3322   2.428   2.378   1.261 -0.0567 -2.6812 -1.5898
  831SOL    HW2 3323   2.558   2.398   1.181  2.8294  0.6364  0.3595
  831SOL     MW 3324   2.479   2.425   1.211  0.5645  0.0995 -0.1737
  832SOL     OW 3325   2.399   2.104   1.803  0.6140 -0.0654 -0.5076
  832SOL    HW1 3326   2.403   2.203   1.821  0.9876  0.0808  0.1528
  832SOL    HW2 3327   2.489   2.083   1.777 -1.3007  0.3967  2.3180
  832SOL     MW 3328   2.412   2.114   1.802  0.4106  0.0148 -0.0477
  833SOL     OW 3329   1.757   2.551   0.929 -0.2597  0.5285  0.0931
  833SOL    HW1 3330   1.708   2.481   0.946 -1.1328  1.2837 -0.9148
  833SOL    HW2 3331   1.720   2.637   0.954 -1.5803 -0.3592  1.0037
  833SOL     MW 3332   1.746   2.553   0.935 -0.5491  0.5110  0.0803
  834SOL     OW 3333   2.286   2.338   0.610  0.0919 -0.2460  0.7168
  834SOL    HW1 3334   2.213   2.282   0.595 -0.2549 -1.4475  1.3475
  834SOL    HW2 3335   2.359   2.318   0.555  2.1815 -2.6209 -2.0813
  834SOL     MW 3336   2.286   2.328   0.601  0.3219 -0.7179  0.4308
  835SOL     OW 3337   1.856   2.597   0.667 -0.0886 -0.1527 -0.3938
  835SOL    HW1 3338   1.822   2.550   0.741  0.1641 -0.2539 -1.0945
  835SOL    HW2 3339   1.927   2.643   0.713  1.8073 -3.5286  1.0418
  835SOL     MW 3340   1.861   2.597   0.683  0.1949 -0.6114 -0.2968
  836SOL     OW 3341   2.054   2.197   1.630 -0.5372 -0.1739  0.4399
  836SOL    HW1 3342   2.139   2.145   1.626  0.6976 -0.5126  1.0379
  836SOL    HW2 3343   2.083   2.280   1.670  1.8885 -1.2920 -2.0948
  836SOL     MW 3344   2.069   2.201   1.635 -0.0543 -0.3661  0.1844
  837SOL     OW 3345   2.076   0.198   0.703  0.1148  0.5696 -0.3173
  837SOL    HW1 3346   1.998   0.217   0.660  2.7354 -0.6114  1.8353
  837SOL    HW2 3347   2.131   0.178   0.627 -0.1105  0.1217  2.7534
  837SOL     MW 3348   2.073   0.198   0.687  0.4308  0.3547  0.3719
  838SOL     OW 3349   2.861   2.083   0.967 -0.1271  0.2352  0.1323
  838SOL    HW1 3350   2.801   2.011   0.979 -0.1303  1.0150  0.9304
  838SOL    HW2 3351   2.887   2.115   1.052 -0.0707 -0.0811 -1.0904
  838SOL     MW 3352   2.856   2.078   0.979 -0.1201  0.2964  0.0763
  839SOL     OW 3353   1.537   2.390   0.978  0.1809  0.4256  0.4762
  839SOL    HW1 3354   1.498   2.468   1.007 -1.1070 -0.2122 -0.2236
  839SOL    HW2 3355   1.563   2.342   1.054 -2.2835  0.2465 -3.0776
  839SOL     MW 3356   1.535   2.394   0.992 -0.3142  0.3178 -0.0850
  840SOL     OW 3357   2.280   2.118   2.431  0.5291 -0.7269 -0.1140
  840SOL    HW1 3358   2.273   2.193   2.363 -2.0428  2.5172  1.0170
  840SOL    HW2 3359   2.351   2.160   2.479  0.7631  3.0093  0.9855
  840SOL     MW 3360   2.288   2.133   2.428  0.2206  0.1941  0.1803
  841SOL     OW 3361   2.269   2.400   0.051 -0.1182 -0.8062  0.0482
  841SOL    HW1 3362   2.273   2.471  -0.008 -1.1855 -0.7792  0.6330
  841SOL    HW2 3363   2.216   2.332   0.008 -1.2887  0.3309 -0.9137
  841SOL     MW 3364   2.262   2.400   0.038 -0.4135 -0.6526 -0.0016
  842SOL     OW 3365   2.662   1.985   1.427 -0.2674 -0.0819 -0.1625
  842SOL    HW1 3366   2.592   1.919   1.425  0.9096  1.8160 -5.3170
  842SOL    HW2 3367   2.646   2.029   1.338 -1.5246  2.6092 -3.0503
  842SOL     MW 3368   2.651   1.982   1.415 -0.2780  0.5236 -1.2236
  843SOL     OW 3369   2.655   2.766   1.779 -0.5107  0.2012 -0.1921
  843SOL    HW1 3370   2.745   2.731   1.786  0.1359  1.6417  0.3815
  843SOL    HW2 3371   2.604   2.690   1.743  0.1165  0.3622 -0.2970
  843SOL     MW 3372   2.660   2.751   1.775 -0.3426  0.4125 -0.1302
  844SOL     OW 3373   2.721   2.334   1.164  0.7031 -0.3896 -0.4308
  844SOL    HW1 3374   2.746   2.362   1.075  1.0114  2.6686 -0.7264
  844SOL    HW2 3375   2.793   2.352   1.226 -3.7366 -1.1268 -0.7460
  844SOL     MW 3376   2.734   2.340   1.160  0.1580 -0.0834 -0.5114
  845SOL     OW 3377   2.852   2.600   0.316  0.5838 -0.1112 -0.6580
  845SOL    HW1 3378   2.809   2.512   0.334 -0.9466  2.8275  2.3415
  845SOL    HW2 3379   2.839   2.653   0.398  0.0768  0.7307  1.5427
  845SOL     MW 3380   2.844   2.595   0.329  0.3150  0.3876  0.0281
  846SOL     OW 3381   1.504   2.793   0.857 -0.5906 -0.1700  0.3841
  846SOL    HW1 3382   1.595   2.812   0.840  0.1236  0.3616  1.3474
  846SOL    HW2 3383   1.466   2.866   0.899 -1.8608 -0.6608 -2.5632
  846SOL     MW 3384   1.511   2.805   0.860 -0.6639 -0.1646  0.1223
  847SOL     OW 3385   2.481   1.887   0.151 -0.1032 -0.1588  0.2754
  847SOL    HW1 3386   2.452   1.803   0.193  2.0001  1.3276 -0.4417
  847SOL    HW2 3387   2.460   1.861   0.059 -1.7312  0.7140  1.6016
  847SOL     MW 3388   2.474   1.872   0.145 -0.0405  0.1525  0.3558
  848SOL     OW 3389   2.569   2.115   1.204  0.7028 -0.2202  0.3234
  848SOL    HW1 3390   2.637   2.185   1.196  2.4547 -0.4835 -0.2884
  848SOL    HW2 3391   2.511   2.120   1.128 -0.0403  1.7337  0.3728
  848SOL     MW 3392   2.570   2.125   1.193  0.8359  0.0028  0.2492
  849SOL     OW 3393   2.005   2.758   0.802 -0.3558  0.4923 -0.5339
  849SOL    HW1 3394   2.001   2.741   0.898 -1.4009 -0.3507  1.6141
  849SOL    HW2 3395   2.097   2.740   0.774 -1.4741  0.5826  2.9334
  849SOL     MW 3396   2.016   2.754   0.811 -0.6412  0.3930  0.2070
  850SOL     OW 3397   2.315   1.797   1.638  0.0953  0.2212 -0.3325
  850SOL    HW1 3398   2.234   1.757   1.602 -1.1737 -2.1124 -4.3067
  850SOL    HW2 3399   2.301   1.895   1.623 -1.9005 -0.2788 -0.7722
  850SOL     MW 3400   2.303   1.805   1.632 -0.3354 -0.1527 -0.9149
  851SOL     OW 3401   2.372   2.357   0.324 -0.1262  0.0264 -0.0440
  851SOL    HW1 3402   2.356   2.375   0.230  0.0777 -0.3173  0.1194
  851SOL    HW2 3403   2.442   2.413   0.350 -1.0891  1.0333  2.8386
  851SOL     MW 3404   2.379   2.367   0.315 -0.2263  0.1139  0.3579
  852SOL     OW 3405   2.334   2.069   0.315  0.3552 -0.5354 -0.2262
  852SOL    HW1 3406   2.359   2.160   0.323  1.1233 -1.1944  0.3781
  852SOL    HW2 3407   2.398   2.018   0.266 -1.2573 -1.4085  2.3314
  852SOL     MW 3408   2.345   2.074   0.310  0.2438 -0.7376  0.1910
  853SOL     OW 3409   2.458   2.357   1.920  0.1150 -0.0720  0.2211
  853SOL    HW1 3410   2.477   2.424   1.855 -1.1846 -2.6729  1.5684
  853SOL    HW2 3411   2.539   2.338   1.963 -0.0590  0.4668 -3.1918
  853SOL     MW 3412   2.471   2.363   1.917 -0.0794 -0.3441 -0.0515
  854SOL     OW 3413   2.860   2.229   0.720 -0.0291 -0.2066 -0.4391
  854SOL    HW1 3414   2.781   2.214   0.666 -0.8453 -3.7008 -0.4167
  854SOL    HW2 3415   2.859   2.160   0.789  0.4143 -0.4248 -1.3804
  854SOL     MW 3416   2.850   2.218   0.722 -0.0783 -0.6964 -0.5603
  855SOL     OW 3417   2.736   2.367   0.380  0.2898 -0.1523  0.5419
  855SOL    HW1 3418   2.657   2.386   0.429  2.9785 -0.3922  0.5664
  855SOL    HW2 3419   2.739   2.272   0.369 -0.1668  0.3092 -0.7614
  855SOL     MW 3420   2.726   2.357   0.385  0.5843 -0.1231  0.3732
  856SOL     OW 3421   2.101   1.885   0.195 -0.1523 -0.0419 -0.4770
  856SOL    HW1 3422   2.011   1.893   0.234 -0.2629  0.9483 -0.2039
  856SOL    HW2 3423   2.137   1.968   0.230 -2.7861 -0.4182  2.3763
  856SOL     MW 3424   2.094   1.897   0.205 -0.5144  0.0391 -0.0645
  857SOL     OW 3425   2.496   1.953   0.549  0.1928 -0.0918  0.1160
  857SOL    HW1 3426   2.427   1.963   0.482 -0.2920 -0.0906 -1.0916
  857SOL    HW2 3427   2.465   1.917   0.628  0.2495 -1.8707 -1.1409
  857SOL     MW 3428   2.483   1.949   0.550  0.1363 -0.3264 -0.2092
  858SOL     OW 3429   2.899   2.659   1.790  0.9354 -0.2942 -0.0699
  858SOL    HW1 3430   2.993   2.669   1.788  0.1174  1.4807  0.0032
  858SOL    HW2 3431   2.882   2.564   1.810 -0.0644 -0.1404  0.8331
  858SOL     MW 3432   2.909   2.648   1.793  0.6956 -0.0397  0.0589
  859SOL     OW 3433   1.969   2.730   1.062 -0.5343  0.6227 -0.0853
  859SOL    HW1 3434   1.952   2.637   1.040 -0.9622  1.4598 -0.5336
  859SOL    HW2 3435   2.035   2.721   1.133 -1.5640  2.7396  0.0108
  859SOL     MW 3436   1.976   2.716   1.069 -0.7266  1.0125 -0.1317
  860SOL     OW 3437   2.634   2.657   0.158 -1.2277  0.1400 -0.4990
  860SOL    HW1 3438   2.718   2.652   0.223  1.5981 -0.3975  0.9050
  860SOL    HW2 3439   2.662   2.713   0.084  0.6089  0.9955  2.8055
  860SOL     MW 3440   2.649   2.664   0.157 -0.6125  0.1819  0.1223
  861SOL     OW 3441   1.640   2.202   1.142  0.0176 -0.3633  0.7229
  861SOL    HW1 3442   1.673   2.265   1.210  3.4569  1.2870  0.1794
  861SOL    HW2 3443   1.568   2.153   1.184 -0.2835 -1.3567  0.4669
  861SOL     MW 3444   1.635   2.204   1.157  0.4316 -0.2766  0.6174
  862SOL     OW 3445   2.530   1.760   1.470 -0.1252  0.0475 -0.7036
  862SOL    HW1 3446   2.458   1.791   1.527  2.9729  3.3941  0.4832
  862SOL    HW2 3447   2.497   1.747   1.377  1.1408  1.0489 -0.1911
  862SOL     MW 3448   2.516   1.763   1.466  0.4506  0.6212 -0.4794
  863SOL     OW 3449   2.997   1.778   1.018  0.4041 -0.2098  0.0643
  863SOL    HW1 3450   3.061   1.746   1.077  1.1532  0.9896 -1.9557
  863SOL    HW2 3451   2.973   1.868   1.038 -1.4057  0.1139 -1.6035
  863SOL     MW 3452   3.002   1.786   1.028  0.2641 -0.0088 -0.4223
  864SOL     OW 3453   0.048   1.844   0.809 -0.7312  0.0759 -0.3387
  864SOL    HW1 3454  -0.008   1.793   0.864  0.8709 -0.9756 -3.2156
  864SOL    HW2 3455   0.026   1.822   0.721  0.5362  1.3462  0.2691
  864SOL     MW 3456   0.038   1.834   0.804 -0.3526  0.1047 -0.6381
  865SOL     OW 3457   2.632   2.154   0.067  0.1609 -0.0167  0.4112
  865SOL    HW1 3458   2.609   2.067   0.091  2.0576  0.4547 -1.8155
  865SOL    HW2 3459   2.598   2.148  -0.021  0.4474  0.6085  0.4139
  865SOL     MW 3460   2.625   2.141   0.059  0.4490  0.1280  0.1178
  866SOL     OW 3461   2.620   2.362   1.583  0.2538  0.0229 -0.7623
  866SOL    HW1 3462   2.624   2.264   1.606 -0.3641 -1.4154 -2.7542
  866SOL    HW2 3463   2.675   2.369   1.511  0.1116  0.2985  1.0058
  866SOL     MW 3464   2.627   2.350   1.577  0.1535 -0.1305 -0.7919
  867SOL     OW 3465   0.077   2.691   1.757 -0.0824 -0.1493  0.1033
  867SOL    HW1 3466   0.154   2.736   1.790 -1.4008 -0.1405  0.0254
  867SOL    HW2 3467   0.048   2.734   1.674  0.0400 -1.8220  1.9808
  867SOL     MW 3468   0.084   2.703   1.750 -0.2402 -0.3688  0.3407
  868SOL     OW 3469   2.731   2.690   0.569 -0.1807 -0.2117 -0.4173
  868SOL    HW1 3470   2.676   2.616   0.568  1.0902  0.3606  0.5349
  868SOL    HW2 3471   2.686   2.767   0.530 -0.5249  2.7744 -0.1813
  868SOL     MW 3472   2.718   2.690   0.564 -0.0584  0.2578 -0.2606
  869SOL     OW 3473   2.095   2.421   1.001 -0.4141  0.1952 -0.0529
  869SOL    HW1 3474   2.184   2.396   0.974 -1.1487  2.0620 -3.2726
  869SOL    HW2 3475   2.033   2.374   0.947  0.1808  0.6761 -0.3796
  869SOL     MW 3476   2.098   2.412   0.991 -0.4325  0.5049 -0.5208
  870SOL     OW 3477   2.183   0.086   0.469 -0.0603 -0.4751  0.1995
  870SOL    HW1 3478   2.257   0.119   0.406  2.8636 -1.2808 -1.5537
  870SOL    HW2 3479   2.197  -0.007   0.486  0.4633  1.9191  0.2349
  870SOL     MW 3480   2.195   0.078   0.463  0.3946 -0.2655 -0.0272
  871SOL     OW 3481   2.489   2.102   0.889  0.6968  0.3023 -0.4528
  871SOL    HW1 3482   2.423   2.035   0.861 -1.1028 -1.3794  0.1776
  871SOL    HW2 3483   2.437   2.184   0.892  1.6315 -0.7040 -1.6081
  871SOL     MW 3484   2.473   2.104   0.885  0.5827 -0.0524 -0.5221
  872SOL     OW 3485   2.062   2.570   1.502  0.2940  0.4861  0.0388
  872SOL    HW1 3486   1.988   2.548   1.560 -2.5925 -1.0679 -2.7086
  872SOL    HW2 3487   2.062   2.498   1.446 -1.7885  1.1505  0.3295
  872SOL     MW 3488   2.052   2.558   1.502 -0.3616  0.3687 -0.2853
  873SOL     OW 3489   2.843   2.099   1.886 -0.5128 -0.7987 -0.1567
  873SOL    HW1 3490   2.782   2.150   1.945  0.4125 -2.7174  0.0901
  873SOL    HW2 3491   2.912   2.155   1.851 -2.5493 -1.0895 -1.8539
  873SOL     MW 3492   2.844   2.113   1.889 -0.6594 -1.0903 -0.3481
  874SOL     OW 3493   2.330   1.430   2.340 -0.2094 -0.1270 -0.4647
  874SOL    HW1 3494   2.289   1.361   2.288 -0.8593 -0.6784 -0.2348
  874SOL    HW2 3495   2.408   1.387   2.378 -2.0488  1.4394  3.0149
  874SOL     MW 3496   2.335   1.415   2.338 -0.5378  0.0069  0.0248
  875SOL     OW 3497   2.363   2.331   0.976 -0.2299  0.3038 -0.1872
  875SOL    HW1 3498   2.401   2.400   0.921  0.0126 -0.2616  2.4566
  875SOL    HW2 3499   2.393   2.370   1.061  1.8247 -0.4095 -0.2165
  875SOL     MW 3500   2.372   2.346   0.980  0.0732  0.1351  0.1578
  876SOL     OW 3501   3.060   2.247   1.272  0.2065  0.1911 -0.3877
  876SOL    HW1 3502   3.093   2.303   1.205  0.1591  0.3215 -1.5916
  876SOL    HW2 3503   3.123   2.244   1.345 -1.4617 -1.4854  2.6851
  876SOL     MW 3504   3.073   2.254   1.273 -0.0199 -0.0129 -0.1411
  877SOL     OW 3505   0.010   2.797   0.319  0.5545 -0.1825  0.1935
  877SOL    HW1 3506   0.075   2.851   0.280 -0.3924 -2.6092 -0.6768
  877SOL    HW2 3507   0.012   2.722   0.257  1.2694 -1.0441  0.2546
  877SOL     MW 3508   0.019   2.794   0.306  0.5239 -0.6164  0.0867
  878SOL     OW 3509   2.415   1.731   1.231  0.0683 -0.0541 -0.1313
  878SOL    HW1 3510   2.324   1.724   1.257 -0.6357  1.7625 -0.7592
  878SOL    HW2 3511   2.443   1.643   1.216 -0.0095 -0.6248 -0.2840
  878SOL     MW 3512   2.407   1.719   1.233 -0.0348  0.1103 -0.2343
  879SOL     OW 3513   2.766   2.405   0.893 -0.6272  0.0564 -0.1617
  879SOL    HW1 3514   2.839   2.463   0.917  0.8131  0.4397  3.8688
  879SOL    HW2 3515   2.794   2.337   0.828  2.7867 -0.6209 -0.6693
  879SOL     MW 3516   2.779   2.404   0.888  0.0132  0.0176  0.3031
  880SOL     OW 3517   2.561   2.195   0.651  0.1840  0.4262  0.0498
  880SOL    HW1 3518   2.521   2.168   0.739 -2.2829 -0.0330  0.8753
  880SOL    HW2 3519   2.550   2.111   0.594 -2.2594 -3.8713 -2.9011
  880SOL     MW 3520   2.554   2.180   0.655 -0.4639 -0.2014 -0.2306
  881SOL     OW 3521   2.992   2.749   0.688 -0.1729  0.3875 -0.3261
  881SOL    HW1 3522   2.919   2.717   0.638 -2.4873 -0.6287  2.3891
  881SOL    HW2 3523   3.080   2.705   0.671 -0.2031 -0.2488 -0.4102
  881SOL     MW 3524   2.994   2.739   0.679 -0.4823  0.1694  0.0210
  882SOL     OW 3525   2.268   2.864   1.972  0.5409 -0.4466  0.2703
  882SOL    HW1 3526   2.264   2.876   1.877  2.1716  0.1298 -1.6381
  882SOL    HW2 3527   2.218   2.783   1.994 -0.6239  0.1661 -0.2599
  882SOL     MW 3528   2.261   2.855   1.962  0.6024 -0.2897 -0.0515
  883SOL     OW 3529   2.363   2.222   1.353 -0.2019  0.7211  0.0165
  883SOL    HW1 3530   2.443   2.176   1.308  3.1210  0.4618 -0.6755
  883SOL    HW2 3531   2.282   2.200   1.295 -2.1967  0.0800 -0.6760
  883SOL     MW 3532   2.363   2.213   1.340 -0.0266  0.6023 -0.1662
  884SOL     OW 3533   2.000   1.793   1.084 -0.4060  0.1272  0.5204
  884SOL    HW1 3534   1.958   1.872   1.055 -1.0607 -1.2784 -1.4815
  884SOL    HW2 3535   2.092   1.807   1.074 -0.1545 -1.2512  0.9253
  884SOL     MW 3536   2.006   1.805   1.079 -0.4592 -0.2401  0.3097
  885SOL     OW 3537   2.810   2.395   1.770 -0.3326 -0.1121 -0.0897
  885SOL    HW1 3538   2.886   2.338   1.737  0.0874  0.7434 -0.8833
  885SOL    HW2 3539   2.746   2.379   1.701  0.6889  0.0177  0.1681
  885SOL     MW 3540   2.811   2.385   1.757 -0.1424  0.0179 -0.1604
  886SOL     OW 3541   2.859   2.392   1.393  0.0339 -0.3309  0.2619
  886SOL    HW1 3542   2.943   2.353   1.375  0.6548 -2.2945  1.0317
  886SOL    HW2 3543   2.855   2.487   1.398 -0.3566  0.0300 -1.3956
  886SOL     MW 3544   2.869   2.399   1.391  0.0643 -0.5424  0.1448
  887SOL     OW 3545   2.312   2.694   1.496  0.5575  0.0909 -0.2451
  887SOL    HW1 3546   2.362   2.735   1.423  0.1962  0.9414 -0.9178
  887SOL    HW2 3547   2.223   2.666   1.477  0.3111 -0.5303  1.4600
  887SOL     MW 3548   2.307   2.695   1.484  0.4774  0.1211 -0.1089
  888SOL     OW 3549   1.919   2.197   1.384  0.3642 -0.0064 -0.0717
  888SOL    HW1 3550   2.001   2.178   1.336 -0.4801 -0.4925  1.4201
  888SOL    HW2 3551   1.940   2.198   1.479  0.9184  0.2465 -0.9082
  888SOL     MW 3552   1.933   2.194   1.390  0.3259 -0.0371  0.0147
  889SOL     OW 3553   2.341   2.005   2.037 -0.1927 -0.1604  0.4453
  889SOL    HW1 3554   2.426   1.998   2.080 -1.6680 -0.7668  0.3330
  889SOL    HW2 3555   2.362   2.048   1.952 -1.1115  0.3720 -0.7701
  889SOL     MW 3556   2.355   2.010   2.031 -0.5086 -0.1702  0.2701
  890SOL     OW 3557   0.120   2.346   0.146 -0.2649 -0.0243 -0.3931
  890SOL    HW1 3558   0.080   2.434   0.169 -1.2209  1.3105 -3.3629
  890SOL    HW2 3559   0.075   2.281   0.202  0.1320  1.5892 -1.0686
  890SOL     MW 3560   0.109   2.349   0.157 -0.3387  0.3647 -0.8741
  891SOL     OW 3561   2.992   1.992   1.223 -0.1763 -0.0229 -0.2657
  891SOL    HW1 3562   3.063   1.937   1.201 -0.4516  3.1827 -0.8831
  891SOL    HW2 3563   3.008   2.084   1.226 -1.3213 -1.9229 -2.0828
  891SOL     MW 3564   3.003   1.997   1.220 -0.3637  0.1494 -0.5869
  892SOL     OW 3565   2.462   2.371   2.789 -0.2500  0.3119  0.0746
  892SOL    HW1 3566   2.458   2.287   2.828  1.4055  1.8761  2.6567
  892SOL    HW2 3567   2.562   2.388   2.807  1.0398 -3.4512  0.7934
  892SOL     MW 3568   2.475   2.362   2.797  0.1386  0.0218  0.5102
  893SOL     OW 3569   1.647   2.398   1.320  0.1619 -0.2066  0.5205
  893SOL    HW1 3570   1.560   2.417   1.362  1.9190  0.6152  0.3020
  893SOL    HW2 3571   1.708   2.469   1.336  0.3778 -0.9695 -1.1212
  893SOL     MW 3572   1.643   2.409   1.328  0.4222 -0.1989  0.2751
  894SOL     OW 3573   2.737   1.828   0.465  0.4660 -0.1246  0.2190
  894SOL    HW1 3574   2.642   1.855   0.473 -2.8194 -1.4168  1.8062
  894SOL    HW2 3575   2.744   1.790   0.378 -0.8183  2.1954  4.5832
  894SOL     MW 3576   2.726   1.827   0.455 -0.1369  0.0110  1.0042
  895SOL     OW 3577   2.150   2.174   1.181  0.2281 -0.2699 -0.8208
  895SOL    HW1 3578   2.131   2.262   1.145  3.1778  1.6817 -0.4252
  895SOL    HW2 3579   2.180   2.116   1.113  4.0974  2.1803 -0.9694
  895SOL     MW 3580   2.151   2.178   1.167  1.1278  0.3109 -0.7882
  896SOL     OW 3581   2.238   2.826   1.085 -0.4925 -0.0645 -0.5709
  896SOL    HW1 3582   2.305   2.790   1.149  0.6536 -0.6253 -0.1458
  896SOL    HW2 3583   2.178   2.880   1.143 -0.5426 -1.9481 -0.8163
  896SOL     MW 3584   2.239   2.829   1.101 -0.3479 -0.3870 -0.5472
  897SOL     OW 3585   3.097   3.027   3.063 -0.0208 -0.0241  0.2981
  897SOL    HW1 3586   3.147   2.947   3.069  1.9842  0.4451  2.1444
  897SOL    HW2 3587   3.019   2.993   3.017 -3.2063  1.8943 -2.9371
  897SOL     MW 3588   3.093   3.012   3.058 -0.1766  0.2909  0.1149
  898SOL     OW 3589   2.032   0.161   1.435  0.3001 -0.3493 -0.0903
  898SOL    HW1 3590   2.007   0.073   1.469  0.8465 -0.4425  0.9235
  898SOL    HW2 3591   2.031   0.146   1.338  0.7875  0.4505 -1.4703
  898SOL     MW 3592   2.029   0.148   1.427  0.4365 -0.2561 -0.1386
  899SOL     OW 3593   2.962   3.012   0.617 -0.7175 -0.2107  0.1680
  899SOL    HW1 3594   2.963   2.923   0.655 -0.8802 -2.6985  2.0593
  899SOL    HW2 3595   2.867   3.032   0.609 -0.7312  0.7761 -1.7853
  899SOL     MW 3596   2.949   3.003   0.621 -0.7408 -0.4088  0.1598
  900SOL     OW 3597   0.069   2.413   1.098  0.2119 -0.1243 -0.2380
  900SOL    HW1 3598   0.056   2.510   1.107  0.4132  0.1067 -0.6905
  900SOL    HW2 3599   0.067   2.382   1.005 -1.4015 -1.2949  0.6562
  900SOL     MW 3600   0.067   2.422   1.087  0.0256 -0.2483 -0.1798
  901SOL     OW 3601   1.744   2.809   1.790  0.0218  0.0263  0.0361
  901SOL    HW1 3602   1.817   2.753   1.769 -1.8998  3.5734  3.5480
  901SOL    HW2 3603   1.675   2.781   1.731 -1.0317 -0.1824  1.8011
  901SOL     MW 3604   1.745   2.798   1.779 -0.3708  0.4667  0.7324
  902SOL     OW 3605   2.658   2.106   1.674 -0.0007  0.0599 -1.0598
  902SOL    HW1 3606   2.661   2.050   1.592 -0.7200  3.6908 -0.8777
  902SOL    HW2 3607   2.724   2.076   1.741  0.8881  0.6104 -1.2229
  902SOL     MW 3608   2.667   2.094   1.672  0.0217  0.6116 -1.0573
  903SOL     OW 3609   1.538   2.618   0.635 -0.4793  0.7636  0.2013
  903SOL    HW1 3610   1.609   2.572   0.674  0.2604 -0.6010 -1.8165
  903SOL    HW2 3611   1.502   2.690   0.684 -0.0569 -1.2449 -1.1349
  903SOL     MW 3612   1.542   2.621   0.647 -0.3260  0.3185 -0.2412
  904SOL     OW 3613   2.481   2.545   1.719 -0.2461  0.2475  0.3146
  904SOL    HW1 3614   2.424   2.586   1.651  1.2555  1.7628 -0.4525
  904SOL    HW2 3615   2.548   2.495   1.665 -0.4008  2.4718  2.6760
  904SOL     MW 3616   2.483   2.544   1.703 -0.0684  0.7409  0.5249
  905SOL     OW 3617   2.315   2.483   2.094 -0.5455 -0.2046  0.1144
  905SOL    HW1 3618   2.366   2.448   2.019  0.5235  3.2279 -1.6711
  905SOL    HW2 3619   2.270   2.409   2.156 -0.4596 -1.3721 -0.1435
  905SOL     MW 3620   2.316   2.468   2.092 -0.3931  0.0942 -0.1552
  906SOL     OW 3621   2.515   2.503   0.806 -0.5477 -0.3149 -0.6257
  906SOL    HW1 3622   2.607   2.473   0.823  2.4000  1.4669  1.3979
  906SOL    HW2 3623   2.512   2.586   0.849  2.8391  0.0167 -2.0210
  906SOL     MW 3624   2.527   2.510   0.814  0.2881 -0.0361 -0.5428
  907SOL     OW 3625   2.666   2.881   1.274  0.1579  0.1269 -0.0832
  907SOL    HW1 3626   2.718   2.957   1.307  2.1343 -0.7017  2.0868
  907SOL    HW2 3627   2.711   2.841   1.196  1.6540  1.3951  1.3457
  907SOL     MW 3628   2.679   2.885   1.268  0.6161  0.1849  0.3916
  908SOL     OW 3629   2.732   2.419   3.094  0.5032  0.3011  0.4922
  908SOL    HW1 3630   2.699   2.338   3.142  0.2584 -0.6375  0.6390
  908SOL    HW2 3631   2.688   2.486   3.148 -0.4396 -1.1144  0.6880
  908SOL     MW 3632   2.722   2.417   3.108  0.3465 -0.0095  0.5374
  909SOL     OW 3633   1.765   0.113   1.219 -0.0546  0.6722  0.2674
  909SOL    HW1 3634   1.759   0.177   1.153 -0.4672  0.5416  0.0259
  909SOL    HW2 3635   1.721   0.142   1.302 -2.3633 -0.8624  3.1373
  909SOL     MW 3636   1.758   0.125   1.221 -0.4136  0.4525  0.6142
  910SOL     OW 3637   2.206   1.684   0.415 -0.2000 -0.6416 -0.2113
  910SOL    HW1 3638   2.179   1.591   0.420  0.2424 -0.6566 -0.4320
  910SOL    HW2 3639   2.148   1.727   0.351 -1.0134 -1.3769  1.4365
  910SOL     MW 3640   2.194   1.677   0.407 -0.2490 -0.7406 -0.0230
  911SOL     OW 3641   2.293   2.051   1.557  0.4011 -0.1597  0.2276
  911SOL    HW1 3642   2.332   2.095   1.634 -1.4659  0.1862  0.1149
  911SOL    HW2 3643   2.323   2.105   1.477  0.8728  0.8076 -1.4343
  911SOL     MW 3644   2.302   2.064   1.557  0.2170  0.0136 -0.0065
  912SOL     OW 3645   2.907   1.881   1.449 -0.0010 -0.7705 -0.6742
  912SOL    HW1 3646   2.945   1.937   1.370 -1.3127 -0.4095 -0.7817
  912SOL    HW2 3647   2.812   1.886   1.440  2.4817 -0.0329  1.1315
  912SOL     MW 3648   2.900   1.889   1.437  0.1535 -0.6256 -0.4501
  913SOL     OW 3649   2.648   3.083   0.318  0.5694  0.0104 -1.0726
  913SOL    HW1 3650   2.721   3.025   0.314 -0.3734 -0.7349  2.8448
  913SOL    HW2 3651   2.578   3.038   0.264  0.2154  1.7699 -0.8165
  913SOL     MW 3652   2.648   3.069   0.310  0.3983  0.1442 -0.5219
  914SOL     OW 3653   2.681   1.852   3.034 -0.2540 -0.4869 -0.6600
  914SOL    HW1 3654   2.720   1.929   2.991  0.3815 -1.1712 -4.7365
  914SOL    HW2 3655   2.591   1.854   3.011 -0.6669 -0.1897 -0.0844
  914SOL     MW 3656   2.674   1.863   3.025 -0.2246 -0.5380 -1.1219
  915SOL     OW 3657   1.777   0.166   0.187  0.1369  0.1446 -0.8599
  915SOL    HW1 3658   1.846   0.098   0.212 -1.1291  0.2907  0.0267
  915SOL    HW2 3659   1.692   0.118   0.191 -2.2446  0.2718 -2.1444
  915SOL     MW 3660   1.775   0.151   0.191 -0.3443  0.1807 -0.9124
  916SOL     OW 3661   1.739   2.177   2.019 -0.4013  0.0692  0.8371
  916SOL    HW1 3662   1.801   2.249   2.017 -0.7019  0.6357  0.6241
  916SOL    HW2 3663   1.751   2.126   1.941  0.0090  0.3613  0.7104
  916SOL     MW 3664   1.749   2.180   2.008 -0.3868  0.1825  0.7923
  917SOL     OW 3665   2.518   2.215   2.557  0.1066  0.2937  0.4049
  917SOL    HW1 3666   2.497   2.275   2.629 -1.8654  1.2717 -0.0867
  917SOL    HW2 3667   2.601   2.256   2.540  0.5020  1.3285  1.1379
  917SOL     MW 3668   2.527   2.229   2.564 -0.1014  0.5593  0.4367
  918SOL     OW 3669   2.020   1.601   2.680  0.4914  0.3668 -0.0945
  918SOL    HW1 3670   1.952   1.629   2.613  0.0418  0.2531 -0.4590
  918SOL    HW2 3671   2.102   1.653   2.663  0.0927  1.3532  0.1434
  918SOL     MW 3672   2.022   1.612   2.669  0.3795  0.4820 -0.1112
  919SOL     OW 3673   3.061   2.411   2.263  0.6240 -0.2366 -0.5653
  919SOL    HW1 3674   3.001   2.335   2.266  0.4271 -0.1893 -2.9664
  919SOL    HW2 3675   3.123   2.388   2.183  1.0153 -1.4442  0.1032
  919SOL     MW 3676   3.061   2.398   2.253  0.6496 -0.3897 -0.7939
  920SOL     OW 3677   2.697   2.844   3.042  0.6203 -0.2959 -0.2370
  920SOL    HW1 3678   2.603   2.854   3.050  0.2463  1.1524 -1.2151
  920SOL    HW2 3679   2.731   2.796   2.965 -1.6522  0.1252 -2.7451
  920SOL     MW 3680   2.689   2.839   3.033  0.2711 -0.0492 -0.6970
  921SOL     OW 3681   2.423   2.591   2.608 -0.1088 -0.2388  0.2036
  921SOL    HW1 3682   2.496   2.584   2.550 -1.6353 -0.5447 -0.2832
  921SOL    HW2 3683   2.430   2.509   2.658  0.4874 -1.6474  0.8701
  921SOL     MW 3684   2.434   2.579   2.607 -0.2316 -0.4650  0.2273
  922SOL     OW 3685   2.036   2.785   0.337 -0.0399 -0.1271  0.4089
  922SOL    HW1 3686   2.003   2.789   0.248  2.5717 -0.0159  0.0947
  922SOL    HW2 3687   2.065   2.692   0.352  1.9979 -2.3519 -1.8754
  922SOL     MW 3688   2.036   2.773   0.328  0.5735 -0.4060  0.0661
  923SOL     OW 3689   2.199   2.865   1.676 -0.4188 -0.2809 -0.3215
  923SOL    HW1 3690   2.247   2.831   1.602  0.0146 -0.6726  2.3693
  923SOL    HW2 3691   2.143   2.930   1.636  0.9008 -0.6649 -1.3630
  923SOL     MW 3692   2.198   2.869   1.661 -0.1875 -0.3833 -0.1039
  924SOL     OW 3693   1.121   2.757   2.623 -0.3029 -0.0166 -0.2078
  924SOL    HW1 3694   1.209   2.792   2.624 -2.7113  0.8506  1.5326
  924SOL    HW2 3695   1.115   2.687   2.686  2.0953 -2.6390  1.8808
  924SOL     MW 3696   1.132   2.752   2.632 -0.3042 -0.2482  0.2974
  925SOL     OW 3697   3.018   0.230   2.695 -0.6443  0.3779 -0.0968
  925SOL    HW1 3698   2.964   0.230   2.608 -3.0192 -2.8873  0.3383
  925SOL    HW2 3699   2.971   0.288   2.748 -0.5174 -0.0551  1.0122
  925SOL     MW 3700   3.005   0.238   2.690 -0.9409 -0.1100  0.1070
  926SOL     OW 3701   2.723   2.350   2.019  0.7614 -0.6777  0.1012
  926SOL    HW1 3702   2.750   2.425   2.076  2.1881  1.9249  0.2546
  926SOL    HW2 3703   2.748   2.369   1.924  1.2369 -1.9163 -2.2636
  926SOL     MW 3704   2.730   2.362   2.014  1.0124 -0.4977 -0.1906
  927SOL     OW 3705   2.359   0.178   0.289  0.3713 -0.3523 -0.1116
  927SOL    HW1 3706   2.443   0.227   0.289  1.5302  0.4389  0.1206
  927SOL    HW2 3707   2.362   0.125   0.202  0.3242 -0.0188 -1.7368
  927SOL     MW 3708   2.370   0.178   0.278  0.5180 -0.2039 -0.2954
  928SOL     OW 3709   2.175   2.432   1.757  0.4183 -0.4339  0.0553
  928SOL    HW1 3710   2.159   2.503   1.698 -1.2571 -0.2869 -0.2104
  928SOL    HW2 3711   2.267   2.446   1.775 -0.6524 -1.4840 -0.6188
  928SOL     MW 3712   2.185   2.443   1.752  0.0560 -0.5531 -0.0687
  929SOL     OW 3713   2.726   2.364   2.481  0.1112  0.2935 -0.0990
  929SOL    HW1 3714   2.772   2.310   2.420  0.1659 -0.0034 -1.2019
  929SOL    HW2 3715   2.796   2.371   2.548 -0.6180  2.0735  3.2019
  929SOL     MW 3716   2.741   2.358   2.482  0.0222  0.4892  0.1910
  930SOL     OW 3717   2.003   2.830   2.604  0.2903 -0.4337 -0.2333
  930SOL    HW1 3718   2.016   2.788   2.697  0.5609  0.2066  1.1456
  930SOL    HW2 3719   2.067   2.901   2.601  1.1078  2.9180 -1.4386
  930SOL     MW 3720   2.013   2.834   2.616  0.4339  0.0930 -0.2104
  931SOL     OW 3721   3.090   2.759   2.477  0.6371  0.4835 -0.1858
  931SOL    HW1 3722   3.105   2.782   2.572  0.3336  0.0092 -0.5240
  931SOL    HW2 3723   3.172   2.754   2.442 -0.8483 -1.7965  1.8289
  931SOL     MW 3724   3.103   2.761   2.485  0.4011  0.1201  0.0354
  932SOL     OW 3725   2.897   1.859   2.481 -0.3218  0.2499 -0.0364
  932SOL    HW1 3726   2.962   1.922   2.512 -0.5425  0.2359  2.8482
  932SOL    HW2 3727   2.870   1.888   2.392  1.0153 -1.1310 -1.8795
  932SOL     MW 3728   2.902   1.871   2.474 -0.1745  0.0659  0.1010
  933SOL     OW 3729   2.037   2.780   2.218 -0.0202  0.3543  0.3200
  933SOL    HW1 3730   2.111   2.837   2.247 -2.0422 -4.1023  0.8462
  933SOL    HW2 3731   1.968   2.844   2.201  1.4415  2.8305  0.8796
  933SOL     MW 3732   2.038   2.796   2.220 -0.0941  0.0930  0.4633
  934SOL     OW 3733   1.988   2.627   2.435  0.1144 -0.8903  0.4146
  934SOL    HW1 3734   1.998   2.693   2.508 -1.8321  4.0481  1.2129
  934SOL    HW2 3735   2.017   2.687   2.366 -1.1218 -2.4131  1.0744
  934SOL     MW 3736   1.993   2.644   2.435 -0.3056 -0.4396  0.6070
  935SOL     OW 3737   2.685   1.586   1.826  0.4173 -0.1073 -0.9562
  935SOL    HW1 3738   2.777   1.558   1.818 -0.3493  0.7807  2.1421
  935SOL    HW2 3739   2.630   1.567   1.734  0.3749 -0.1205  0.2014
  935SOL     MW 3740   2.690   1.580   1.813  0.3105  0.0081 -0.3946
  936SOL     OW 3741   2.991   2.283   0.005 -0.4589 -0.0863 -0.5903
  936SOL    HW1 3742   3.049   2.328   0.068  1.9892  0.7572  0.5886
  936SOL    HW2 3743   2.908   2.329   0.013  0.6559  0.4442  0.9847
  936SOL     MW 3744   2.987   2.295   0.015  0.0112  0.0950 -0.2270
  937SOL     OW 3745   2.021   2.154   2.696 -0.0803  0.5451  0.0570
  937SOL    HW1 3746   2.106   2.107   2.707  2.2298 -1.0191 -0.6889
  937SOL    HW2 3747   1.994   2.132   2.606  0.2934 -1.4375  2.8413
  937SOL     MW 3748   2.029   2.145   2.686  0.2738  0.0771  0.3260
  938SOL     OW 3749   2.280   1.755   1.905  0.3613 -0.3542  0.4667
  938SOL    HW1 3750   2.301   1.765   1.812 -0.1760  0.6928  1.6793
  938SOL    HW2 3751   2.281   1.844   1.939 -1.2063 -1.3659 -0.8956
  938SOL     MW 3752   2.283   1.768   1.897  0.0835 -0.3495  0.4469
  939SOL     OW 3753   2.800   1.968   2.260  0.0630 -0.2167 -0.0208
  939SOL    HW1 3754   2.827   1.916   2.182  0.1356  2.0369 -0.2474
  939SOL    HW2 3755   2.702   1.974   2.260  3.0415  1.3381 -1.3015
  939SOL     MW 3756   2.791   1.962   2.250  0.4656  0.2858 -0.2196
  940SOL     OW 3757   2.269   0.136   2.687 -0.5011  0.4383 -0.4127
  940SOL    HW1 3758   2.294   0.050   2.650 -2.1383  1.0203 -0.6822
  940SOL    HW2 3759   2.338   0.155   2.750 -1.1149  2.4950  1.0140
  940SOL     MW 3760   2.281   0.127   2.690 -0.7981  0.7865 -0.2600
  941SOL     OW 3761   0.154   2.414   2.055 -0.0428 -0.2317 -0.3914
  941SOL    HW1 3762   0.235   2.376   2.083  2.4186 -1.2697  0.0220
  941SOL    HW2 3763   0.145   2.407   1.960  4.7007  0.2708  1.1539
  941SOL     MW 3764   0.164   2.408   2.046  0.9078 -0.3023 -0.1329
  942SOL     OW 3765   2.852   2.230   2.252  0.1689  0.1906 -0.3514
  942SOL    HW1 3766   2.814   2.266   2.171  1.8215 -0.0304 -2.5067
  942SOL    HW2 3767   2.839   2.127   2.265  0.3036 -3.1292  0.3261
  942SOL     MW 3768   2.845   2.221   2.243  0.4047 -0.2766 -0.5464
  943SOL     OW 3769   0.230   2.109   2.293  0.2218 -0.1650 -0.2696
  943SOL    HW1 3770   0.207   2.174   2.361 -2.6099  0.5458 -0.2821
  943SOL    HW2 3771   0.329   2.083   2.305  1.0546 -0.4104  2.5743
  943SOL     MW 3772   0.240   2.114   2.304 -0.0419 -0.1036  0.1039
  944SOL     OW 3773   2.104   2.637   1.999  0.3042 -0.2972 -0.3083
  944SOL    HW1 3774   2.156   2.571   2.048  0.0502  1.8872 -1.3635
  944SOL    HW2 3775   2.058   2.683   2.067  0.4416 -0.2479 -0.0060
  944SOL     MW 3776   2.105   2.634   2.015  0.2888 -0.0025 -0.4076
  945SOL     OW 3777   2.804   2.716   2.847  0.3535  0.2160 -0.2506
  945SOL    HW1 3778   2.775   2.624   2.843  3.5485  2.8176 -0.8845
  945SOL    HW2 3779   2.783   2.746   2.758  1.5294  2.6467 -0.6475
  945SOL     MW 3780   2.797   2.707   2.835  0.9302  0.8800 -0.3866
  946SOL     OW 3781   2.433   2.670   2.230 -0.1548 -0.0500 -0.3997
  946SOL    HW1 3782   2.469   2.725   2.153  0.1208 -4.2634  3.1265
  946SOL    HW2 3783   2.377   2.597   2.199 -0.8349 -1.8877  3.3222
  946SOL     MW 3784   2.431   2.667   2.216 -0.2082 -0.8484  0.5566
  947SOL     OW 3785   1.994   0.006   0.261  0.5453  0.2092 -0.1247
  947SOL    HW1 3786   1.993  -0.094   0.246 -0.1227 -1.9455 -0.0119
  947SOL    HW2 3787   2.060   0.023   0.325 -0.4044  2.1948 -0.5848
  947SOL     MW 3788   2.002  -0.005   0.267  0.3319  0.1868 -0.1705
  948SOL     OW 3789   1.802   2.998   2.700 -0.2726  0.1396  0.2724
  948SOL    HW1 3790   1.832   2.903   2.690  2.6422  0.0492  0.8638
  948SOL    HW2 3791   1.813   3.017   2.609  0.3212  0.6782 -0.9872
  948SOL     MW 3792   1.807   2.988   2.686  0.1903  0.1987  0.1842
  949SOL     OW 3793   2.513   1.964   2.316 -0.3538  0.1073 -0.3395
  949SOL    HW1 3794   2.499   1.873   2.350 -2.0064 -0.8730 -2.0064
  949SOL    HW2 3795   2.453   2.016   2.366 -1.9529 -0.4244 -0.4667
  949SOL     MW 3796   2.504   1.959   2.327 -0.7828 -0.0922 -0.5762
  950SOL     OW 3797   2.286   2.582   2.937  0.0886  0.0442 -0.3556
  950SOL    HW1 3798   2.314   2.507   2.885 -0.3064 -0.3116 -0.2197
  950SOL    HW2 3799   2.204   2.629   2.893  0.2646 -0.5713  2.5110
  950SOL     MW 3800   2.279   2.578   2.924  0.0597 -0.0840  0.0406
  951SOL     OW 3801   3.072   2.213   2.848 -0.1325  0.4596  0.4647
  951SOL    HW1 3802   3.043   2.240   2.940  2.1747 -0.2344 -0.8818
  951SOL    HW2 3803   3.098   2.122   2.855 -0.0014  1.2835  1.7094
  951SOL     MW 3804   3.072   2.205   2.861  0.1892  0.4768  0.4513
  952SOL     OW 3805   3.048   1.653   2.100 -0.5357  0.1202  0.3116
  952SOL    HW1 3806   2.983   1.715   2.064  0.6597 -0.5946  0.1652
  952SOL    HW2 3807   3.093   1.723   2.152  0.4482  3.0292 -0.9358
  952SOL     MW 3808   3.045   1.670   2.102 -0.2481  0.4097  0.1277
  953SOL     OW 3809   1.951   1.786   2.882  0.4582 -0.3869  0.6346
  953SOL    HW1 3810   1.900   1.732   2.941 -0.4266  0.9595  2.3714
  953SOL    HW2 3811   1.958   1.725   2.800 -0.1192  1.7087  1.3202
  953SOL     MW 3812   1.945   1.771   2.879  0.2653  0.0672  0.9542
  954SOL     OW 3813   2.473   2.121   2.919  0.2888 -0.1062  0.2569
  954SOL    HW1 3814   2.376   2.117   2.887 -2.7246  0.3399 -0.9326
  954SOL    HW2 3815   2.520   2.081   2.850  2.0435  1.3590 -1.9139
  954SOL     MW 3816   2.466   2.115   2.906  0.1227  0.1460 -0.1865
  955SOL     OW 3817   1.552   1.615   2.525 -0.0587 -0.6012  0.2790
  955SOL    HW1 3818   1.517   1.670   2.452 -1.1888  0.1154 -1.0352
  955SOL    HW2 3819   1.639   1.652   2.558  1.6518  1.7631 -0.3818
  955SOL     MW 3820   1.559   1.627   2.519  0.0179 -0.1947  0.0184
  956SOL     OW 3821   2.712   2.458   2.829 -0.0330  0.3345 -0.2449
  956SOL    HW1 3822   2.730   2.443   2.934 -2.3226  2.9697  1.7612
  956SOL    HW2 3823   2.775   2.404   2.780 -0.8359  0.9505 -1.0630
  956SOL     MW 3824   2.723   2.449   2.837 -0.4410  0.7635 -0.0881
  957SOL     OW 3825   2.257   2.919   0.466  0.5340 -0.3931  0.6238
  957SOL    HW1 3826   2.183   2.884   0.411 -0.7193 -0.4989 -1.3186
  957SOL    HW2 3827   2.231   2.876   0.545  1.2742  1.1845  1.0016
  957SOL     MW 3828   2.244   2.908   0.469  0.4663 -0.1989  0.4174
  958SOL     OW 3829   2.039   2.670   2.830  0.1781  0.0821 -0.2669
  958SOL    HW1 3830   2.033   2.575   2.795  2.7896  0.3054  1.2946
  958SOL    HW2 3831   1.986   2.664   2.913  0.3208 -1.0673 -0.8855
  958SOL     MW 3832   2.031   2.656   2.837  0.5415 -0.0401 -0.1425
  959SOL     OW 3833   2.509   2.797   0.448  0.2149 -0.0875  0.5871
  959SOL    HW1 3834   2.558   2.789   0.363  1.9512  0.2295  1.5341
  959SOL    HW2 3835   2.449   2.876   0.444 -1.8825  1.0562 -0.9329
  959SOL     MW 3836   2.508   2.806   0.436  0.1672  0.1052  0.5115
  960SOL     OW 3837   1.942   2.290   2.335  0.1596  0.3506  0.1276
  960SOL    HW1 3838   1.951   2.205   2.381  1.5170  1.0543 -1.2650
  960SOL    HW2 3839   1.897   2.344   2.402  0.3034  1.1065  0.5240
  960SOL     MW 3840   1.937   2.286   2.350  0.3577  0.5432 -0.0039
  961SOL     OW 3841   2.217   2.327   2.276  0.4688 -0.0286  0.2389
  961SOL    HW1 3842   2.121   2.313   2.279  0.8671  2.5756 -0.6582
  961SOL    HW2 3843   2.238   2.386   2.344  0.7266 -2.0469 -0.0217
  961SOL     MW 3844   2.207   2.333   2.285  0.5554  0.0487  0.0861
  962SOL     OW 3845   2.232   2.020   2.764  0.1823  0.7089  0.8772
  962SOL    HW1 3846   2.165   2.033   2.829 -1.3448  0.3354  0.5549
  962SOL    HW2 3847   2.222   1.934   2.727 -2.1792  4.0894  3.6159
  962SOL     MW 3848   2.222   2.011   2.768 -0.3307  1.1057  1.1960
  963SOL     OW 3849   1.779   2.482   2.134 -0.3893  0.1640  0.2762
  963SOL    HW1 3850   1.832   2.431   2.196  3.5264  0.2489 -0.4200
  963SOL    HW2 3851   1.825   2.456   2.051  2.1974  1.8955  1.7980
  963SOL     MW 3852   1.792   2.472   2.131  0.4687  0.4036  0.3852
  964SOL     OW 3853   1.831   1.973   2.719 -0.4425 -0.6502 -0.2495
  964SOL    HW1 3854   1.887   2.049   2.713  0.7209 -0.9049 -0.9984
  964SOL    HW2 3855   1.877   1.911   2.789  0.9501  0.5202 -0.9617
  964SOL     MW 3856   1.844   1.975   2.728 -0.1052 -0.5294 -0.4423
  965SOL     OW 3857   2.248   2.715   0.676 -0.2983 -0.2957  0.6462
  965SOL    HW1 3858   2.254   2.624   0.654  0.0677  0.5756  0.7903
  965SOL    HW2 3859   2.321   2.724   0.740  0.9934  0.1123 -2.8672
  965SOL     MW 3860   2.258   2.704   0.682 -0.0796 -0.1269  0.2016
  966SOL     OW 3861   2.668   2.606   2.382  0.3267 -0.1307 -0.2028
  966SOL    HW1 3862   2.586   2.597   2.336  1.0232  2.4646 -0.0582
  966SOL    HW2 3863   2.693   2.515   2.403 -1.4030 -1.8742 -0.5419
  966SOL     MW 3864   2.660   2.593   2.379  0.1904 -0.0183 -0.2285
  967SOL     OW 3865   2.825   3.065   2.936  0.0191 -0.4162  0.5054
  967SOL    HW1 3866   2.786   2.997   2.995  2.0195  0.0996 -1.3121
  967SOL    HW2 3867   2.758   3.085   2.866 -0.3323  2.4244  1.5809
  967SOL     MW 3868   2.811   3.059   2.935  0.2367  0.0267  0.4075
  968SOL     OW 3869   3.040   2.631   3.002 -0.0894  0.1247  0.1287
  968SOL    HW1 3870   2.957   2.666   2.963 -2.3716  0.1443  0.8770
  968SOL    HW2 3871   3.074   2.574   2.931  3.1143  0.5135  1.7307
  968SOL     MW 3872   3.034   2.628   2.988  0.0322  0.1786  0.4388
  969SOL     OW 3873   1.607   2.202   1.694  0.1207  0.1608  0.2194
  969SOL    HW1 3874   1.673   2.141   1.725 -0.4944  0.9789  1.4818
  969SOL    HW2 3875   1.550   2.208   1.778  0.2329  0.6704 -1.8485
  969SOL     MW 3876   1.608   2.195   1.709  0.0543  0.3360  0.1131
  970SOL     OW 3877   1.783   1.829   1.904  0.1575  0.2120 -0.2450
  970SOL    HW1 3878   1.803   1.776   1.978 -1.3891  0.9561  0.7229
  970SOL    HW2 3879   1.688   1.828   1.923  0.3442 -0.9263 -0.7823
  970SOL     MW 3880   1.773   1.822   1.916 -0.0219  0.1600 -0.1882
  971SOL     OW 3881   1.778   3.061   2.410  0.4886 -0.6626  0.0473
  971SOL    HW1 3882   1.793   3.030   2.316 -2.8861 -0.2609 -1.2696
  971SOL    HW2 3883   1.810   3.148   2.404 -0.4568 -2.1634  0.9653
  971SOL     MW 3884   1.784   3.068   2.397 -0.0814 -0.8076 -0.0054
  972SOL     OW 3885   0.259   2.861   2.461 -0.0770 -0.5929 -0.2501
  972SOL    HW1 3886   0.335   2.806   2.459  1.2286 -1.9991 -0.9693
  972SOL    HW2 3887   0.300   2.955   2.477  0.6228  2.2128 -1.5037
  972SOL     MW 3888   0.275   2.866   2.463  0.1876 -0.4083 -0.5104
  973SOL     OW 3889   2.614   3.072   2.109 -0.2967  0.0555 -0.1854
  973SOL    HW1 3890   2.600   2.979   2.081  0.6603  0.1339 -0.1532
  973SOL    HW2 3891   2.615   3.122   2.029  0.6165 -0.9033 -0.0684
  973SOL     MW 3892   2.612   3.066   2.095 -0.0500 -0.0607 -0.1657
  974SOL     OW 3893   1.984   0.146   2.676 -0.2278 -0.2465 -0.8291
  974SOL    HW1 3894   2.083   0.150   2.683 -0.3661  1.8766  0.8682
  974SOL    HW2 3895   1.964   0.076   2.742 -1.0641 -1.1917 -1.4086
  974SOL     MW 3896   1.994   0.137   2.686 -0.3564 -0.0911 -0.6816
  975SOL     OW 3897   2.206   2.487   2.498 -0.0379  0.1981 -0.0863
  975SOL    HW1 3898   2.270   2.547   2.537 -1.4513  0.5677 -0.6158
  975SOL    HW2 3899   2.134   2.541   2.456 -0.2391  0.9900 -1.8186
  975SOL     MW 3900   2.205   2.502   2.498 -0.2509  0.3514 -0.3848
  976SOL     OW 3901   0.162   0.352   1.738  0.6224 -0.3864 -0.1331
  976SOL    HW1 3902   0.223   0.291   1.774 -1.8460 -1.4048 -3.5656
  976SOL    HW2 3903   0.079   0.301   1.757 -0.9456 -1.8186 -0.1263
  976SOL     MW 3904   0.159   0.337   1.745  0.0898 -0.7097 -0.5851
  977SOL     OW 3905   1.694   2.710   2.473  0.0516  0.2977 -0.7146
  977SOL    HW1 3906   1.737   2.624   2.487 -1.3455  0.1406 -1.2415
  977SOL    HW2 3907   1.768   2.743   2.426  2.5548 -1.5555  1.0582
  977SOL     MW 3908   1.709   2.703   2.469  0.1975  0.0325 -0.5502
   3.10000   3.10000   3.10000
