977 TIP4P/2005f water molecules t=   0.25000 step= 250
 3908
    1SOL     OW    1   0.258   0.767   0.014  0.8655 -0.7474  0.3484
    1SOL    HW1    2   0.256   0.789  -0.077  0.8973 -1.6745  1.1978
    1SOL    HW2    3   0.242   0.669   0.016 -0.5436 -1.6556 -0.2382
    1SOL     MW    4   0.256   0.757   0.003  0.6838 -0.9895  0.3831
    2SOL     OW    5   0.360   3.027   1.148 -0.0649  0.2844 -0.1410
    2SOL    HW1    6   0.392   3.115   1.132 -1.2310 -1.0125  0.2402
    2SOL    HW2    7   0.266   3.044   1.169  0.3677 -1.1649  1.9782
    2SOL     MW    8   0.352   3.041   1.149 -0.1617 -0.0779  0.1889
    3SOL     OW    9   2.676   0.397   0.915 -0.3392 -0.1193  0.5769
    3SOL    HW1   10   2.704   0.474   0.865  1.5806  3.0981 -0.5053
    3SOL    HW2   11   2.699   0.415   1.003 -1.2562  0.9769  0.4299
    3SOL     MW   12   2.682   0.410   0.920 -0.2069  0.4499  0.4147
    4SOL     OW   13   3.077   1.821   0.640 -0.5855  0.1452 -0.5352
    4SOL    HW1   14   2.995   1.856   0.611  1.7484  1.3100  3.5460
    4SOL    HW2   15   3.105   1.771   0.566 -0.2264  0.8122 -0.8102
    4SOL     MW   16   3.070   1.819   0.627 -0.2302  0.3869 -0.0330
    5SOL     OW   17   1.709   1.445   0.513  0.3348 -0.1255  0.3303
    5SOL    HW1   18   1.742   1.411   0.596  1.6649  0.5350  2.4048
    5SOL    HW2   19   1.615   1.455   0.540 -1.7010  0.5997 -2.7763
    5SOL     MW   20   1.701   1.442   0.527  0.2417  0.0574  0.1942
    6SOL     OW   21   0.863   1.393   0.606  0.7022  1.0381 -0.0546
    6SOL    HW1   22   0.783   1.402   0.660  0.5791  0.7803  2.5106
    6SOL    HW2   23   0.903   1.308   0.645  0.7266  0.3672  1.7069
    6SOL     MW   24   0.858   1.383   0.618  0.6891  0.9156  0.5162
    7SOL     OW   25   1.953   1.072   0.008 -0.4130 -0.2950  0.1877
    7SOL    HW1   26   2.016   1.140  -0.008  2.1056 -1.9875  2.9290
    7SOL    HW2   27   1.973   1.053   0.101  1.9618  2.8966  0.3151
    7SOL     MW   28   1.964   1.078   0.018  0.2327 -0.0972  0.5662
    8SOL     OW   29   1.006   1.296   1.053  0.5132  0.5128 -0.2088
    8SOL    HW1   30   1.081   1.241   1.085 -1.7612  0.4032 -1.2739
    8SOL    HW2   31   0.924   1.241   1.070 -0.5868 -0.3966  0.2577
    8SOL     MW   32   1.005   1.281   1.059  0.0680  0.3783 -0.2878
    9SOL     OW   33   1.013   0.476   1.380  0.5084  0.1339 -0.5826
    9SOL    HW1   34   0.970   0.404   1.328 -1.1722  0.6292 -1.8399
    9SOL    HW2   35   1.057   0.437   1.452  0.9632 -0.6674 -0.7164
    9SOL     MW   36   1.013   0.461   1.383  0.3467  0.0935 -0.7661
   10SOL     OW   37   0.301   0.859   0.469  0.0981 -0.2347 -0.2394
   10SOL    HW1   38   0.390   0.887   0.470 -2.7587  1.4360 -1.3255
   10SOL    HW2   39   0.276   0.897   0.553  0.8650  0.6297 -0.4924
   10SOL     MW   40   0.309   0.868   0.480 -0.1776  0.0997 -0.4161
   11SOL     OW   41   0.913   1.100   1.557 -0.5008 -0.2168  1.0429
   11SOL    HW1   42   0.911   1.094   1.655 -0.8150  1.3091  0.7275
   11SOL    HW2   43   0.839   1.037   1.526 -0.4979  0.0229  0.6435
   11SOL     MW   44   0.903   1.091   1.566 -0.5419  0.0161  0.9486
   12SOL     OW   45   0.000   1.102   0.843  0.3618  0.7674 -0.5465
   12SOL    HW1   46   0.071   1.154   0.880  3.1853  0.2095  4.1282
   12SOL    HW2   47  -0.047   1.165   0.786 -1.9021  1.4504  3.2078
   12SOL     MW   48   0.003   1.117   0.841  0.4356  0.7839  0.5656
   13SOL     OW   49   1.935   1.439   1.428  0.1288 -0.3004 -0.2708
   13SOL    HW1   50   1.956   1.388   1.351 -1.6100 -1.3453 -1.0000
   13SOL    HW2   51   1.891   1.521   1.396  1.5908  0.8657 -0.6046
   13SOL     MW   52   1.932   1.444   1.413  0.0923 -0.2844 -0.4110
   14SOL     OW   53   0.618   0.345   1.762  0.2961 -0.0223 -0.2959
   14SOL    HW1   54   0.620   0.271   1.701  0.5450  0.8669 -0.2539
   14SOL    HW2   55   0.700   0.337   1.805  0.0593 -1.8494  0.5640
   14SOL     MW   56   0.629   0.334   1.760  0.2977 -0.1461 -0.1769
   15SOL     OW   57   1.983   0.536   0.921  0.2320  0.6883 -0.1810
   15SOL    HW1   58   1.994   0.515   1.015 -0.9729 -0.3682  0.8291
   15SOL    HW2   59   2.063   0.495   0.883 -1.4194 -1.0627 -2.5080
   15SOL     MW   60   1.995   0.528   0.928 -0.1448  0.3179 -0.3547
   16SOL     OW   61   0.200   1.795   0.301  0.2922 -0.3813  0.6901
   16SOL    HW1   62   0.284   1.747   0.312 -2.2538  1.7263  1.9149
   16SOL    HW2   63   0.216   1.876   0.344  1.4945 -1.4232  0.3015
   16SOL     MW   64   0.213   1.799   0.308  0.1149 -0.2407  0.8004
   17SOL     OW   65   1.083   0.819   1.452 -0.0027  0.4141  0.2295
   17SOL    HW1   66   1.128   0.810   1.541 -1.4209 -0.2694  0.5819
   17SOL    HW2   67   1.009   0.760   1.456 -0.4181 -2.0793  0.1481
   17SOL     MW   68   1.079   0.810   1.464 -0.2446 -0.0051  0.2653
   18SOL     OW   69   0.025   1.542   0.414  0.0558 -0.4170  0.1783
   18SOL    HW1   70   0.062   1.615   0.357  0.2851  1.7241  0.0294
   18SOL    HW2   71  -0.007   1.472   0.353 -0.9152  1.9537 -0.2668
   18SOL     MW   72   0.026   1.542   0.399 -0.0421  0.1783  0.0999
   19SOL     OW   73   0.133   1.286   1.023 -0.1096  0.4723 -0.1019
   19SOL    HW1   74   0.161   1.361   0.969  2.5402 -1.8261  0.0786
   19SOL    HW2   75   0.041   1.301   1.040  0.5406  0.6583  0.6795
   19SOL     MW   76   0.125   1.298   1.018  0.3258  0.1936  0.0250
   20SOL     OW   77   0.453   2.159   1.287  0.0442 -0.1142  0.1797
   20SOL    HW1   78   0.406   2.105   1.222  1.5360  0.4285  1.7929
   20SOL    HW2   79   0.390   2.205   1.346  2.0038  1.4348 -1.1331
   20SOL     MW   80   0.438   2.158   1.286  0.4995  0.1618  0.2193
   21SOL     OW   81   0.552   0.902   0.363 -0.0618  0.0353  0.0099
   21SOL    HW1   82   0.616   0.853   0.411 -3.8534  1.9771  0.1301
   21SOL    HW2   83   0.539   0.860   0.280  2.3896 -0.3503 -1.0619
   21SOL     MW   84   0.559   0.890   0.358 -0.2386  0.2406 -0.1157
   22SOL     OW   85   1.553   0.569   1.137 -0.6118 -0.4887  0.3328
   22SOL    HW1   86   1.606   0.532   1.062 -0.4974  1.0487 -2.0197
   22SOL    HW2   87   1.504   0.643   1.097 -0.1057 -1.1077  2.3827
   22SOL     MW   88   1.554   0.574   1.122 -0.5299 -0.3675  0.2929
   23SOL     OW   89   3.034   0.737   0.731 -0.0272  0.3733  0.4263
   23SOL    HW1   90   3.078   0.652   0.749 -1.2002 -2.4908  2.0113
   23SOL    HW2   91   3.111   0.793   0.736 -3.0053 -1.8532  0.0165
   23SOL     MW   92   3.050   0.733   0.734 -0.5749 -0.2984  0.5814
   24SOL     OW   93   2.051   2.166   0.037 -1.0109  1.0940 -0.0330
   24SOL    HW1   94   2.061   2.160   0.132  0.7994 -2.7788  0.1930
   24SOL    HW2   95   2.119   2.102   0.008  1.4269  0.2333 -1.0858
   24SOL     MW   96   2.061   2.157   0.046 -0.4504  0.4694 -0.1421
   25SOL     OW   97   0.224   1.444   0.558  1.0050 -0.1376 -0.3403
   25SOL    HW1   98   0.156   1.488   0.502  0.9330  4.3335 -3.9682
   25SOL    HW2   99   0.297   1.427   0.496  1.3085 -1.0743  0.8971
   25SOL     MW  100   0.225   1.447   0.542  1.0356  0.3287 -0.6557
   26SOL     OW  101   2.043   0.960   0.381  0.4904 -0.0504 -0.1001
   26SOL    HW1  102   1.957   0.984   0.423 -0.9253 -1.0209 -0.4712
   26SOL    HW2  103   2.063   1.044   0.325  0.3273 -0.0099  1.1314
   26SOL     MW  104   2.034   0.974   0.380  0.2821 -0.1731  0.0134
   27SOL     OW  105   1.973   1.409   0.247 -0.2002  0.0737  0.3306
   27SOL    HW1  106   1.892   1.361   0.274 -0.5794  3.4326  2.5004
   27SOL    HW2  107   1.998   1.467   0.319  3.5751  0.0252  1.0791
   27SOL     MW  108   1.966   1.410   0.260  0.2479  0.5105  0.7156
   28SOL     OW  109   0.398   0.949   1.870  0.0230  0.3254  0.1919
   28SOL    HW1  110   0.342   0.883   1.912  2.2271 -0.2018 -1.9360
   28SOL    HW2  111   0.444   0.902   1.802  0.4246 -2.6612  3.8177
   28SOL     MW  112   0.397   0.934   1.866  0.3668 -0.1382  0.3895
   29SOL     OW  113   0.242   1.454   0.836  0.1204 -0.2406 -0.3982
   29SOL    HW1  114   0.257   1.543   0.861  0.6718  1.0244 -2.2149
   29SOL    HW2  115   0.251   1.446   0.740  1.1150  0.1939 -2.2182
   29SOL     MW  116   0.245   1.465   0.827  0.3244 -0.0164 -0.8780
   30SOL     OW  117   0.908   1.011   1.145 -0.0131  0.0347 -0.1433
   30SOL    HW1  118   0.832   1.049   1.193  0.4488 -1.3984  2.6608
   30SOL    HW2  119   0.982   1.033   1.207  0.2362  1.0095  0.0113
   30SOL     MW  120   0.908   1.019   1.159  0.0807 -0.0258  0.2471
   31SOL     OW  121   0.458   0.260   0.239 -0.0448  0.6798  0.0952
   31SOL    HW1  122   0.477   0.187   0.305  0.0381  1.4792  1.4696
   31SOL    HW2  123   0.444   0.215   0.150 -2.7689  0.2327 -2.7749
   31SOL     MW  124   0.459   0.245   0.236 -0.3933  0.7262 -0.1022
   32SOL     OW  125   2.691   1.045   1.125  0.0632 -0.3739 -0.2959
   32SOL    HW1  126   2.652   0.956   1.129 -2.0694 -0.6227 -0.6652
   32SOL    HW2  127   2.786   1.035   1.110 -2.0273 -0.7327  1.7366
   32SOL     MW  128   2.698   1.032   1.123 -0.4940 -0.4540 -0.0764
   33SOL     OW  129   1.757   1.254   0.328 -0.1612 -0.5022 -0.6368
   33SOL    HW1  130   1.788   1.169   0.368 -0.8685  0.6755  0.7148
   33SOL    HW2  131   1.736   1.317   0.399 -0.1649  1.0860 -0.0192
   33SOL     MW  132   1.758   1.251   0.343 -0.2550 -0.1373 -0.3770
   34SOL     OW  133   1.259   1.857   1.122 -0.3998 -0.4061  0.6344
   34SOL    HW1  134   1.177   1.907   1.141  1.5758  0.1385 -2.2130
   34SOL    HW2  135   1.318   1.871   1.202  0.8013  0.8111  0.9096
   34SOL     MW  136   1.256   1.866   1.135  0.0193 -0.1736  0.2950
   35SOL     OW  137   0.374   0.051   1.860  0.1327  0.5986  0.6101
   35SOL    HW1  138   0.397  -0.017   1.927  1.6629 -1.5356 -0.7060
   35SOL    HW2  139   0.413   0.014   1.781  2.0988 -2.0481 -0.7822
   35SOL     MW  140   0.383   0.038   1.858  0.5940 -0.0322  0.2527
   36SOL     OW  141   1.907   1.937   0.536  0.2308  0.8402  0.8460
   36SOL    HW1  142   1.891   1.921   0.439  0.3559  0.3174  0.6570
   36SOL    HW2  143   1.889   1.850   0.575 -0.5736  0.7523  0.0206
   36SOL     MW  144   1.902   1.923   0.528  0.1412  0.7596  0.7122
   37SOL     OW  145   1.748   1.995   0.936 -0.3675  0.3085  0.1171
   37SOL    HW1  146   1.693   1.939   0.883  1.4452  1.5238  1.9069
   37SOL    HW2  147   1.694   2.028   1.021 -1.2144 -1.6300 -0.1375
   37SOL     MW  148   1.734   1.992   0.940 -0.2401  0.2131  0.3197
   38SOL     OW  149   2.866   0.937   0.213 -0.3225  0.5143 -0.2586
   38SOL    HW1  150   2.909   0.933   0.300 -0.4876  2.4380 -2.3915
   38SOL    HW2  151   2.921   0.884   0.150  1.8602 -1.6650 -0.6404
   38SOL     MW  152   2.879   0.929   0.216 -0.0563  0.4805 -0.5904
   39SOL     OW  153   1.457   0.693   0.852  0.1771  0.4378  0.8196
   39SOL    HW1  154   1.457   0.595   0.861 -2.3072  0.0070 -1.5396
   39SOL    HW2  155   1.396   0.726   0.924 -0.3276 -1.0061 -0.0149
   39SOL     MW  156   1.449   0.684   0.863 -0.2172  0.1905  0.3982
   40SOL     OW  157   1.292   1.875   0.275 -0.1908  0.0379 -0.0721
   40SOL    HW1  158   1.299   1.797   0.328  0.5389  0.1335 -0.1631
   40SOL    HW2  159   1.311   1.947   0.335  0.5616  0.0444 -1.3209
   40SOL     MW  160   1.295   1.874   0.290  0.0047  0.0514 -0.2489
   41SOL     OW  161   0.589   0.523   1.573 -0.4097 -0.0426  0.6340
   41SOL    HW1  162   0.667   0.571   1.578  1.0070 -1.6212  1.9594
   41SOL    HW2  163   0.606   0.450   1.637  2.2846 -3.2812 -0.0105
   41SOL     MW  164   0.602   0.520   1.582  0.1327 -0.6782  0.7239
   42SOL     OW  165   1.336   3.071   1.938 -0.1186 -0.5477  0.4155
   42SOL    HW1  166   1.244   3.036   1.921  0.8420  0.5774 -0.4534
   42SOL    HW2  167   1.379   3.001   1.989  1.3013  2.2572 -1.0054
   42SOL     MW  168   1.330   3.057   1.943  0.1955 -0.0292  0.1134
   43SOL     OW  169   1.615   0.227   1.596 -0.0193  0.2703  0.0706
   43SOL    HW1  170   1.676   0.163   1.552 -0.2598  0.2965 -1.4481
   43SOL    HW2  171   1.533   0.171   1.619 -0.8198  0.1545 -1.2328
   43SOL     MW  172   1.612   0.211   1.593 -0.1566  0.2585 -0.3017
   44SOL     OW  173   1.322   0.762   1.078  0.3518 -0.0361  0.1961
   44SOL    HW1  174   1.336   0.859   1.075 -1.8804  0.3251  0.1238
   44SOL    HW2  175   1.317   0.730   1.167 -1.1534 -0.5170  2.0799
   44SOL     MW  176   1.323   0.770   1.089 -0.1413 -0.0519  0.4351
   45SOL     OW  177   1.084   0.742   0.798  0.5024 -0.3500 -0.4610
   45SOL    HW1  178   1.061   0.713   0.887  0.0294 -0.1844  1.3333
   45SOL    HW2  179   1.153   0.672   0.775  0.0294 -2.7254  0.4623
   45SOL     MW  180   1.090   0.729   0.807  0.3776 -0.6415 -0.1024
   46SOL     OW  181   0.598   1.115   0.600 -0.3015  0.4257 -0.0589
   46SOL    HW1  182   0.588   1.145   0.503 -1.0851  1.1959 -1.6497
   46SOL    HW2  183   0.679   1.065   0.592 -0.5747  2.5076  0.9807
   46SOL     MW  184   0.608   1.113   0.586 -0.4409  0.8020 -0.1316
   47SOL     OW  185   0.129   1.932   1.829  0.2289 -0.1937  0.0093
   47SOL    HW1  186   0.180   1.868   1.785 -0.5257  2.2607 -0.4303
   47SOL    HW2  187   0.129   1.913   1.925  0.2018 -0.6574  0.3356
   47SOL     MW  188   0.136   1.921   1.836  0.1257  0.0689 -0.0056
   48SOL     OW  189   1.018   0.661   1.055  0.1204  0.0806 -0.2923
   48SOL    HW1  190   0.944   0.672   1.117  0.1247 -2.4401  0.4237
   48SOL    HW2  191   1.083   0.712   1.103 -1.0610 -1.2724 -1.5929
   48SOL     MW  192   1.017   0.669   1.070 -0.0349 -0.4305 -0.3695
   49SOL     OW  193   1.864   0.759   1.602  0.3464 -0.3465  0.1262
   49SOL    HW1  194   1.827   0.714   1.688  2.3322 -0.0985  1.0019
   49SOL    HW2  195   1.916   0.687   1.558  0.9879  0.8720 -0.5235
   49SOL     MW  196   1.866   0.744   1.607  0.6931 -0.1530  0.1560
   50SOL     OW  197   1.300   0.988   0.555 -0.0399 -0.2479 -0.8056
   50SOL    HW1  198   1.262   1.017   0.640  0.2538 -1.2400  1.0976
   50SOL    HW2  199   1.336   0.901   0.568 -3.0715  3.2420 -2.3427
   50SOL     MW  200   1.300   0.980   0.568 -0.4011  0.0816 -0.7573
   51SOL     OW  201   0.316   2.850   0.920  0.3005 -0.1491  0.2648
   51SOL    HW1  202   0.402   2.835   0.874  0.1907 -0.8230  5.0703
   51SOL    HW2  203   0.339   2.912   0.992  0.2305 -1.0420  1.4271
   51SOL     MW  204   0.330   2.856   0.923  0.2768 -0.3558  1.0522
   52SOL     OW  205   0.819   1.856   0.391 -0.4636 -0.2401 -0.1997
   52SOL    HW1  206   0.754   1.896   0.446 -0.2684 -1.2083  0.7287
   52SOL    HW2  207   0.764   1.839   0.312 -0.6331  2.0067 -0.9154
   52SOL     MW  208   0.803   1.859   0.388 -0.4602 -0.0714 -0.1716
   53SOL     OW  209   0.399   2.042   0.597  0.8210 -0.0778 -0.5661
   53SOL    HW1  210   0.363   2.048   0.511  0.9058  1.8792  2.9168
   53SOL    HW2  211   0.390   2.133   0.620 -0.3823  4.0500  0.8136
   53SOL     MW  212   0.393   2.055   0.589  0.6734  0.7250  0.0754
   54SOL     OW  213   2.214   0.826   0.858  0.2109 -0.1397  0.6319
   54SOL    HW1  214   2.245   0.787   0.774 -0.5092 -1.9105  0.6709
   54SOL    HW2  215   2.121   0.833   0.844 -0.3247  0.3382  1.5700
   54SOL     MW  216   2.206   0.822   0.845  0.0452 -0.3103  0.7608
   55SOL     OW  217   0.522   1.455   1.557  0.5997  0.7517  0.1573
   55SOL    HW1  218   0.477   1.480   1.479  0.5306 -0.0418  1.2907
   55SOL    HW2  219   0.610   1.422   1.539  0.2297 -0.7063  0.0963
   55SOL     MW  220   0.527   1.454   1.544  0.5418  0.4547  0.2988
   56SOL     OW  221   0.537   0.763   0.094  0.0394  0.3477 -0.3313
   56SOL    HW1  222   0.577   0.835   0.040  1.5274 -0.0911 -2.3385
   56SOL    HW2  223   0.451   0.760   0.060  1.9538  2.3658 -0.0119
   56SOL     MW  224   0.531   0.772   0.082  0.4883  0.5561 -0.5540
   57SOL     OW  225   1.254   1.209   1.175 -0.1459  0.5482  0.1942
   57SOL    HW1  226   1.343   1.225   1.207  0.8109 -0.6846  0.0319
   57SOL    HW2  227   1.217   1.150   1.248 -0.8677 -0.3880  2.3777
   57SOL     MW  228   1.261   1.203   1.189 -0.1149  0.2620  0.4609
   58SOL     OW  229   0.698   1.095   1.291 -0.0877  0.2529  0.3305
   58SOL    HW1  230   0.642   1.174   1.282  0.4134 -1.9999  1.0339
   58SOL    HW2  231   0.651   1.029   1.343 -2.6903 -0.9514 -1.9317
   58SOL     MW  232   0.685   1.097   1.297 -0.3650 -0.2032  0.1248
   59SOL     OW  233   1.522   1.616   0.272 -0.1348  0.3640  0.2003
   59SOL    HW1  234   1.589   1.569   0.315  1.1216  0.1348 -1.2516
   59SOL    HW2  235   1.458   1.650   0.336 -0.7152  1.8584 -1.6057
   59SOL     MW  236   1.522   1.614   0.286 -0.0456  0.5309 -0.2295
   60SOL     OW  237   3.081   0.169   1.634 -0.1907  0.2890 -0.7623
   60SOL    HW1  238   3.014   0.238   1.650  3.0321  0.7189 -0.6279
   60SOL    HW2  239   3.042   0.092   1.678 -1.4851 -1.2065 -1.6288
   60SOL     MW  240   3.067   0.168   1.642  0.0637  0.1484 -0.8589
   61SOL     OW  241   2.013   1.502   3.071  0.4385  0.2065  0.1485
   61SOL    HW1  242   1.986   1.502   3.161 -0.6869  2.9070  1.3913
   61SOL    HW2  243   2.063   1.424   3.074 -1.1416  2.6065  0.0760
   61SOL     MW  244   2.016   1.491   3.083  0.0815  0.8795  0.3029
   62SOL     OW  245   0.609   1.634   0.572 -0.2920 -0.7572  0.6237
   62SOL    HW1  246   0.663   1.610   0.505  0.0189  3.4709  1.1488
   62SOL    HW2  247   0.591   1.555   0.622  0.8428  1.1770 -1.4210
   62SOL     MW  248   0.614   1.621   0.569 -0.1013  0.0558  0.4232
   63SOL     OW  249   1.708   0.711   0.707  0.3671 -0.3109 -0.6334
   63SOL    HW1  250   1.690   0.759   0.628  0.7693  0.6616 -0.5761
   63SOL    HW2  251   1.619   0.691   0.733 -0.8292  1.0363 -2.9128
   63SOL     MW  252   1.694   0.715   0.700  0.2624 -0.0049 -0.9266
   64SOL     OW  253   0.258   1.702   0.988 -0.3920  0.2823 -0.0854
   64SOL    HW1  254   0.330   1.735   0.945 -4.1069 -0.2218 -1.8182
   64SOL    HW2  255   0.207   1.782   0.977  1.1728 -1.7517 -2.4818
   64SOL     MW  256   0.260   1.717   0.981 -0.6757 -0.0526 -0.6302
   65SOL     OW  257   1.516   2.240   0.324  0.4998  0.9740 -0.0354
   65SOL    HW1  258   1.611   2.234   0.306  1.7325  1.6476  1.4389
   65SOL    HW2  259   1.518   2.308   0.392  3.3928 -1.1060 -2.8289
   65SOL     MW  260   1.529   2.248   0.330  1.0441  0.7884 -0.2094
   66SOL     OW  261   0.314   0.587   0.520  0.0813 -0.4165 -0.3402
   66SOL    HW1  262   0.390   0.577   0.469  0.0666 -4.3626  0.1637
   66SOL    HW2  263   0.294   0.680   0.516  0.1803 -1.7988 -0.5488
   66SOL     MW  264   0.321   0.598   0.513  0.0924 -1.1196 -0.3012
   67SOL     OW  265   1.527   0.189   2.039  0.4977 -0.1764  0.1049
   67SOL    HW1  266   1.553   0.248   1.962 -0.4596 -0.0046 -2.5484
   67SOL    HW2  267   1.480   0.108   2.005 -0.0455 -2.0690 -0.5347
   67SOL     MW  268   1.524   0.186   2.025  0.2997 -0.4035 -0.3296
   68SOL     OW  269   0.645   0.069   2.978 -0.5111 -0.0066 -0.6823
   68SOL    HW1  270   0.660   0.076   2.885  1.0869 -0.1959  0.9072
   68SOL    HW2  271   0.671   0.160   3.004 -0.0711 -2.8024  0.4399
   68SOL     MW  272   0.650   0.082   2.969 -0.2422 -0.4004 -0.3245
   69SOL     OW  273   1.081   0.182   1.971 -0.3506 -0.2585 -0.1638
   69SOL    HW1  274   1.157   0.216   2.018  1.9900 -0.2657 -1.9954
   69SOL    HW2  275   1.088   0.085   1.968  3.0145  2.4255  0.7393
   69SOL     MW  276   1.092   0.173   1.977  0.4022  0.0947 -0.2863
   70SOL     OW  277   0.573   1.819   1.130  0.5654  0.0633 -0.7421
   70SOL    HW1  278   0.579   1.729   1.162  0.6374 -0.2309  2.9414
   70SOL    HW2  279   0.656   1.832   1.076 -1.6697 -0.6736  0.0593
   70SOL     MW  280   0.585   1.809   1.127  0.2800 -0.0727 -0.1503
   71SOL     OW  281   1.762   0.702   1.240 -0.0766  0.1078 -0.3678
   71SOL    HW1  282   1.746   0.700   1.335  0.5004 -0.0746  0.5582
   71SOL    HW2  283   1.695   0.646   1.205 -1.3103 -2.1446  0.0312
   71SOL     MW  284   1.751   0.694   1.248 -0.1633 -0.2134 -0.1930
   72SOL     OW  285   0.824   1.828   0.993  0.1169  0.1100 -0.0770
   72SOL    HW1  286   0.813   1.867   0.908 -0.1960 -0.5906 -1.0477
   72SOL    HW2  287   0.854   1.737   0.974  0.4948 -0.4376 -0.2416
   72SOL     MW  288   0.826   1.821   0.980  0.1255 -0.0547 -0.2268
   73SOL     OW  289   1.286   0.671   1.350 -0.0625 -0.2185  0.1326
   73SOL    HW1  290   1.281   0.577   1.363  1.6297  0.6652  1.6065
   73SOL    HW2  291   1.207   0.712   1.390  1.9662 -1.8959  2.7619
   73SOL     MW  292   1.275   0.664   1.357  0.4284 -0.3232  0.6740
   74SOL     OW  293   2.754   0.117   1.009  0.0904  0.3061  0.3338
   74SOL    HW1  294   2.762   0.027   0.984  0.5064  0.4109 -1.2144
   74SOL    HW2  295   2.820   0.170   0.959  0.4827  0.6989  0.3661
   74SOL     MW  296   2.764   0.112   0.999  0.1970  0.3717  0.1338
   75SOL     OW  297   1.643   1.302   0.085 -0.4865  0.5200 -0.1238
   75SOL    HW1  298   1.666   1.292   0.179 -0.5640  1.0921  0.0529
   75SOL    HW2  299   1.665   1.226   0.040  0.6636  2.0642  0.7926
   75SOL     MW  300   1.649   1.291   0.092 -0.3450  0.7992  0.0205
   76SOL     OW  301   2.923   0.667   0.483 -0.1356  0.4005 -0.5020
   76SOL    HW1  302   2.958   0.692   0.569  0.2418  0.1490  0.4499
   76SOL    HW2  303   2.986   0.602   0.441 -2.4344 -3.3015  0.1759
   76SOL     MW  304   2.936   0.662   0.489 -0.3891 -0.1211 -0.2870
   77SOL     OW  305   0.894   0.409   0.523 -0.0060 -0.1392 -0.2850
   77SOL    HW1  306   0.843   0.484   0.544  1.1607  0.3501  0.1819
   77SOL    HW2  307   0.832   0.330   0.518  0.1168  0.5329  0.5661
   77SOL     MW  308   0.879   0.408   0.525  0.1641  0.0140 -0.1111
   78SOL     OW  309   0.828   0.768   1.201 -0.6549  0.1089 -0.2339
   78SOL    HW1  310   0.751   0.760   1.142  1.1166 -0.2426  0.1154
   78SOL    HW2  311   0.859   0.859   1.194 -2.1825  0.6264  2.1839
   78SOL     MW  312   0.822   0.779   1.192 -0.6227  0.1308  0.1312
   79SOL     OW  313   1.835   1.658   0.596  0.2791  0.0252 -0.1736
   79SOL    HW1  314   1.788   1.582   0.569 -0.4898  0.9770  1.5830
   79SOL    HW2  315   1.865   1.636   0.681 -1.5888  0.5660 -0.2870
   79SOL     MW  316   1.833   1.645   0.603 -0.0688  0.2222  0.0432
   80SOL     OW  317   0.160   0.986   0.291 -0.0472 -0.1816  0.4636
   80SOL    HW1  318   0.072   0.957   0.330  0.3671 -1.1121  0.6077
   80SOL    HW2  319   0.215   0.924   0.343  1.0154  1.2556 -0.9578
   80SOL     MW  320   0.155   0.974   0.303  0.1476 -0.1147  0.2951
   81SOL     OW  321   1.926   1.890   0.235 -0.5653  0.4337 -0.4960
   81SOL    HW1  322   1.842   1.839   0.221 -1.6820 -0.9932 -2.9036
   81SOL    HW2  323   1.908   1.982   0.235  1.4312  0.2164  2.0406
   81SOL     MW  324   1.912   1.896   0.233 -0.4492  0.2168 -0.4790
   82SOL     OW  325   0.819   0.964   0.561  0.4635  0.7830 -0.0400
   82SOL    HW1  326   0.889   0.960   0.497  0.0209  2.2603  2.3260
   82SOL    HW2  327   0.802   0.874   0.582  4.1584 -2.1253 -0.8079
   82SOL     MW  328   0.826   0.951   0.555  0.8926  0.5942  0.1708
   83SOL     OW  329   0.076   0.633   1.389  0.8185 -0.2507 -0.2633
   83SOL    HW1  330   0.105   0.718   1.345 -2.3504  1.9160  1.1369
   83SOL    HW2  331   0.153   0.587   1.420 -1.5602 -2.0391  1.9486
   83SOL     MW  332   0.090   0.638   1.387  0.0866 -0.2008  0.2133
   84SOL     OW  333   0.061   0.302   1.052  0.6307 -0.3705 -0.5732
   84SOL    HW1  334  -0.006   0.300   0.981  1.4956 -2.3510 -1.0769
   84SOL    HW2  335   0.063   0.212   1.091 -0.3734 -1.4957 -0.5562
   84SOL     MW  336   0.052   0.290   1.048  0.6124 -0.7802 -0.6374
   85SOL     OW  337   0.407   0.428   0.746  0.1127  0.2852  0.1323
   85SOL    HW1  338   0.354   0.470   0.674  1.9687 -1.7575  3.3060
   85SOL    HW2  339   0.367   0.342   0.768 -0.7541 -0.2272  0.0219
   85SOL     MW  340   0.395   0.422   0.739  0.2432 -0.0519  0.5365
   86SOL     OW  341   1.182   0.432   1.134  0.5339 -0.0547 -0.2338
   86SOL    HW1  342   1.122   0.500   1.093 -2.8346  1.1970 -2.2399
   86SOL    HW2  343   1.153   0.449   1.224 -0.9863 -0.9042  0.8813
   86SOL     MW  344   1.170   0.443   1.140 -0.1111 -0.0017 -0.3513
   87SOL     OW  345   1.221   1.456   1.299 -0.8366 -0.2862 -0.2734
   87SOL    HW1  346   1.240   1.512   1.227 -0.9175  1.9224  0.9304
   87SOL    HW2  347   1.216   1.372   1.257  2.0023  0.6464 -1.1870
   87SOL     MW  348   1.223   1.453   1.284 -0.4727  0.1282 -0.2351
   88SOL     OW  349   1.367   1.014   1.007 -0.6021  0.1422 -0.6424
   88SOL    HW1  350   1.458   0.999   1.029 -3.0482 -1.9802  1.9009
   88SOL    HW2  351   1.341   1.083   1.071  0.8427  0.6054 -0.0363
   88SOL     MW  352   1.375   1.021   1.019 -0.7342 -0.0767 -0.2269
   89SOL     OW  353   1.756   0.579   0.291 -0.6623  0.2136  0.6362
   89SOL    HW1  354   1.808   0.514   0.338 -2.1508  3.5248  2.1266
   89SOL    HW2  355   1.812   0.654   0.270 -0.0566  1.8483  0.8950
   89SOL     MW  356   1.770   0.580   0.295 -0.7788  0.8661  0.8670
   90SOL     OW  357   0.674   1.214   2.795 -0.0481 -0.2851 -0.5205
   90SOL    HW1  358   0.759   1.177   2.776  0.9329 -2.2555  0.5992
   90SOL    HW2  359   0.687   1.241   2.882 -0.2027  0.1004 -2.5029
   90SOL     MW  360   0.687   1.212   2.804  0.0609 -0.4942 -0.6343
   91SOL     OW  361   2.058   0.708   0.493  0.1063 -0.5653  0.2294
   91SOL    HW1  362   2.051   0.798   0.465  4.0820 -0.0417  2.6175
   91SOL    HW2  363   2.033   0.656   0.420  3.4201 -1.5706 -1.6904
   91SOL     MW  364   2.053   0.713   0.479  1.0680 -0.6288  0.2912
   92SOL     OW  365   1.611   0.802   0.459 -0.6367  0.2647 -0.0962
   92SOL    HW1  366   1.535   0.759   0.503 -0.3283 -1.8773  1.9380
   92SOL    HW2  367   1.659   0.728   0.419 -1.3680  1.7123 -0.0079
   92SOL     MW  368   1.607   0.787   0.459 -0.6925  0.1731  0.1839
   93SOL     OW  369   1.060   0.248   0.325  0.6832  0.2735 -0.2224
   93SOL    HW1  370   0.982   0.297   0.349 -0.2549 -0.4497 -1.8846
   93SOL    HW2  371   1.089   0.278   0.238 -1.7199 -0.3511  0.6517
   93SOL     MW  372   1.053   0.258   0.317  0.2423  0.0957 -0.3264
   94SOL     OW  373   1.936   1.281   1.645 -0.1646  0.6159 -0.2830
   94SOL    HW1  374   1.961   1.308   1.558 -0.5384 -1.3581  0.5083
   94SOL    HW2  375   1.871   1.209   1.648  0.2995  4.1292 -1.2974
   94SOL     MW  376   1.931   1.275   1.634 -0.1527  0.8190 -0.3124
   95SOL     OW  377   0.885   1.538   0.977 -1.0446 -0.1553 -0.0557
   95SOL    HW1  378   0.929   1.457   0.990 -1.3066 -2.9773 -2.0086
   95SOL    HW2  379   0.806   1.521   1.022  2.6531  0.7057 -0.4966
   95SOL     MW  380   0.880   1.525   0.985 -0.5913 -0.4140 -0.3715
   96SOL     OW  381   1.259   1.800   1.590 -0.2838  0.2398 -0.2370
   96SOL    HW1  382   1.184   1.740   1.619 -2.7506 -0.2231 -2.3209
   96SOL    HW2  383   1.317   1.736   1.545 -0.8536  3.6049 -2.5929
   96SOL     MW  384   1.257   1.784   1.588 -0.6845  0.6227 -0.8227
   97SOL     OW  385   1.262   1.436   0.842  0.0469 -0.8258  0.1859
   97SOL    HW1  386   1.271   1.486   0.923  1.9951 -1.0109 -3.5234
   97SOL    HW2  387   1.182   1.475   0.805  0.4566 -1.9429 -1.6091
   97SOL     MW  388   1.253   1.448   0.848  0.3580 -0.9976 -0.5403
   98SOL     OW  389   1.505   1.312   1.182  0.1814  0.3737 -0.2566
   98SOL    HW1  390   1.527   1.399   1.217  0.3086  1.8515 -1.3302
   98SOL    HW2  391   1.505   1.322   1.086 -1.3648  1.5163 -0.1522
   98SOL     MW  392   1.508   1.325   1.174 -0.0058  0.7194 -0.3845
   99SOL     OW  393   1.521   0.299   1.277  0.0627 -0.0272  0.0539
   99SOL    HW1  394   1.511   0.385   1.254 -0.7143 -2.3617 -0.6202
   99SOL    HW2  395   1.518   0.302   1.373 -0.3835  2.7056  2.5862
   99SOL     MW  396   1.519   0.311   1.287 -0.0987  0.0253  0.2990
  100SOL     OW  397   1.102   1.068   1.330 -0.8484  0.1299  0.0790
  100SOL    HW1  398   1.038   1.092   1.400 -0.3417 -0.7371  0.9531
  100SOL    HW2  399   1.118   0.974   1.351 -0.9502  1.1591 -0.0067
  100SOL     MW  400   1.096   1.059   1.342 -0.7949  0.1513  0.1830
  101SOL     OW  401   0.608   1.175   0.323 -0.0353 -0.2988 -0.1338
  101SOL    HW1  402   0.593   1.077   0.325 -0.1675 -0.7434 -0.7752
  101SOL    HW2  403   0.573   1.198   0.235 -0.7084  0.7255 -1.4430
  101SOL     MW  404   0.602   1.165   0.312 -0.1415 -0.2223 -0.3911
  102SOL     OW  405   2.954   0.586   0.976 -0.1891  0.0524 -0.0428
  102SOL    HW1  406   3.011   0.664   0.957  1.3451  3.6690 -0.4655
  102SOL    HW2  407   2.955   0.568   1.073 -0.5580 -0.1374 -2.1245
  102SOL     MW  408   2.962   0.594   0.986 -0.0353  0.5045 -0.3732
  103SOL     OW  409   1.599   0.359   1.833  0.0550 -0.2469  1.2278
  103SOL    HW1  410   1.617   0.321   1.743  1.0964  0.1434 -2.7112
  103SOL    HW2  411   1.675   0.401   1.867 -2.0527  0.5114  1.2761
  103SOL     MW  412   1.612   0.359   1.826 -0.0857 -0.0953  0.7144
  104SOL     OW  413   0.110   1.836   1.438 -0.2424  0.2057 -0.8324
  104SOL    HW1  414   0.197   1.794   1.427  0.2067  0.5706 -0.8440
  104SOL    HW2  415   0.056   1.753   1.439  2.0553  1.8327 -2.2327
  104SOL     MW  416   0.115   1.819   1.437  0.1200  0.4685 -1.0187
  105SOL     OW  417   0.154   1.139   0.525  0.2744 -0.5263  0.8048
  105SOL    HW1  418   0.166   1.071   0.452  1.9954 -0.1983  0.5715
  105SOL    HW2  419   0.216   1.205   0.499 -0.6981 -0.4943 -1.4215
  105SOL     MW  420   0.164   1.139   0.512  0.3731 -0.4788  0.4803
  106SOL     OW  421   0.838   0.311   0.941 -0.5622  0.2881 -0.1889
  106SOL    HW1  422   0.775   0.369   0.904  0.3961  1.1336 -0.5484
  106SOL    HW2  423   0.924   0.325   0.894 -1.3537 -0.7945 -0.8787
  106SOL     MW  424   0.841   0.320   0.930 -0.5402  0.2568 -0.3273
  107SOL     OW  425   0.799   2.213   3.043  0.3346 -0.7416 -0.4270
  107SOL    HW1  426   0.759   2.129   3.022 -0.3219 -0.5596  0.0241
  107SOL    HW2  427   0.879   2.190   3.092 -1.6687  0.1079  1.4770
  107SOL     MW  428   0.804   2.199   3.046 -0.0163 -0.6055 -0.1163
  108SOL     OW  429   1.407   1.587   1.485  0.0454 -0.1140 -0.9990
  108SOL    HW1  430   1.345   1.516   1.462 -0.8432  0.7370  0.7555
  108SOL    HW2  431   1.481   1.557   1.543  3.0205 -1.7341  1.3876
  108SOL     MW  432   1.409   1.574   1.489  0.3207 -0.2155 -0.4526
  109SOL     OW  433   1.957   0.750   0.194  0.2666  0.8276  1.1166
  109SOL    HW1  434   1.998   0.725   0.108  0.8569 -2.2983 -1.5504
  109SOL    HW2  435   2.028   0.787   0.244  0.9731  0.6503  0.6087
  109SOL     MW  436   1.972   0.752   0.189  0.4377  0.3918  0.6977
  110SOL     OW  437   0.392   1.793   0.709  0.0714  0.2054 -0.1943
  110SOL    HW1  438   0.471   1.755   0.672  0.4802  0.6446 -1.3300
  110SOL    HW2  439   0.394   1.874   0.664  0.8088 -0.2868  2.3456
  110SOL     MW  440   0.403   1.799   0.698  0.2226  0.1984 -0.0090
  111SOL     OW  441   0.728   0.904   1.496  0.1862 -0.3604 -0.5138
  111SOL    HW1  442   0.772   0.819   1.480 -1.3272 -0.1096  1.0810
  111SOL    HW2  443   0.653   0.888   1.554  1.0796 -1.1763  3.1150
  111SOL     MW  444   0.724   0.890   1.501  0.1044 -0.4350  0.1754
  112SOL     OW  445   1.303   1.103   1.624  0.3042  0.0951  0.1898
  112SOL    HW1  446   1.235   1.169   1.660  0.9785  0.7964  1.1538
  112SOL    HW2  447   1.254   1.019   1.628 -2.2373 -1.8954  1.4128
  112SOL     MW  448   1.288   1.101   1.630  0.0579 -0.0750  0.4783
  113SOL     OW  449   1.368   0.089   1.688 -0.3308 -0.1352 -0.2243
  113SOL    HW1  450   1.357   0.059   1.781  1.0255  2.3622 -0.9679
  113SOL    HW2  451   1.361   0.007   1.637 -0.9558  3.4740  1.6037
  113SOL     MW  452   1.365   0.074   1.694 -0.2343  0.6705 -0.0812
  114SOL     OW  453   0.439   2.811   1.856  0.0376 -0.2935 -0.3661
  114SOL    HW1  454   0.444   2.866   1.933 -1.1506 -0.5406  0.6130
  114SOL    HW2  455   0.424   2.868   1.782 -0.6489  1.1642 -1.1699
  114SOL     MW  456   0.438   2.825   1.856 -0.2097 -0.1338 -0.3430
  115SOL     OW  457   0.445   0.849   1.092  0.7122  0.2077 -0.2364
  115SOL    HW1  458   0.487   0.764   1.082 -0.0592  1.2567 -0.9592
  115SOL    HW2  459   0.426   0.864   1.183  1.4247 -2.0338 -0.0802
  115SOL     MW  460   0.448   0.840   1.102  0.7044  0.0504 -0.3111
  116SOL     OW  461   0.775   1.008   0.914 -0.9793  0.0599  0.0220
  116SOL    HW1  462   0.837   1.054   0.850  0.2458 -0.8290  1.5731
  116SOL    HW2  463   0.814   1.010   1.000  0.4717  0.7426  0.9185
  116SOL     MW  464   0.789   1.015   0.917 -0.6262  0.0327  0.3449
  117SOL     OW  465   1.193   1.122   0.782  0.1375  0.2830  0.0737
  117SOL    HW1  466   1.245   1.066   0.839 -1.9883  2.2286 -4.7405
  117SOL    HW2  467   1.212   1.210   0.805 -0.1690 -1.2475  0.0092
  117SOL     MW  468   1.202   1.126   0.793 -0.1834  0.3378 -0.5700
  118SOL     OW  469   3.090   2.955   1.715  0.1824 -0.1987  0.4116
  118SOL    HW1  470   3.120   3.011   1.794 -0.7890  0.3325  0.0297
  118SOL    HW2  471   2.994   2.977   1.713  0.3660 -2.0940 -0.1890
  118SOL     MW  472   3.081   2.965   1.725  0.0785 -0.3787  0.2819
  119SOL     OW  473   0.550   1.315   1.207  0.6187  0.5153 -0.2197
  119SOL    HW1  474   0.532   1.337   1.111 -1.2480 -2.0214  1.0226
  119SOL    HW2  475   0.469   1.273   1.234  1.8950  1.8494 -1.6557
  119SOL     MW  476   0.537   1.312   1.198  0.5408  0.3566 -0.2453
  120SOL     OW  477   0.214   0.657   0.935  0.1070  0.4930 -0.2957
  120SOL    HW1  478   0.254   0.611   1.012 -0.7358  2.2036  3.0986
  120SOL    HW2  479   0.252   0.743   0.925  2.0050  1.7202 -1.1563
  120SOL     MW  480   0.224   0.662   0.943  0.2462  0.8806  0.0386
  121SOL     OW  481   1.779   1.035   1.719  0.7352 -0.3203 -0.2746
  121SOL    HW1  482   1.689   1.025   1.699  2.8415  0.0849  2.1235
  121SOL    HW2  483   1.827   0.956   1.700 -1.8482  1.1524  1.4031
  121SOL     MW  484   1.774   1.024   1.714  0.6722 -0.0725  0.2631
  122SOL     OW  485   0.103   0.516   0.720  0.1444 -0.1093  0.3539
  122SOL    HW1  486   0.139   0.569   0.651  1.0109 -1.0264 -0.5180
  122SOL    HW2  487   0.149   0.546   0.800  1.1173  0.9169  0.2854
  122SOL     MW  488   0.113   0.527   0.722  0.3871 -0.0949  0.2298
  123SOL     OW  489   1.799   1.018   0.466 -0.0909 -0.0089 -0.2054
  123SOL    HW1  490   1.737   0.945   0.456 -3.4599  2.6881  1.9668
  123SOL    HW2  491   1.803   1.035   0.563  2.0641  0.9218  1.3289
  123SOL     MW  492   1.791   1.011   0.477 -0.2511  0.4698  0.2836
  124SOL     OW  493   0.670   0.500   0.819 -0.0301 -0.0359  0.0461
  124SOL    HW1  494   0.581   0.477   0.790  0.2217  1.4902  2.1035
  124SOL    HW2  495   0.667   0.595   0.804  2.4738 -1.7571  1.5299
  124SOL     MW  496   0.658   0.509   0.813  0.3335 -0.0617  0.5133
  125SOL     OW  497   0.699   1.668   1.651 -0.3549 -0.4720 -0.2076
  125SOL    HW1  498   0.622   1.613   1.629  3.0034  1.9176  2.6498
  125SOL    HW2  499   0.667   1.757   1.667  0.0258  1.8628 -3.2041
  125SOL     MW  500   0.684   1.672   1.650  0.1384  0.1513 -0.2260
  126SOL     OW  501   2.127   1.614   1.958  0.3448 -0.2547 -1.0118
  126SOL    HW1  502   2.170   1.704   1.950 -1.2116  1.4040 -0.1020
  126SOL    HW2  503   2.197   1.554   1.980 -1.3434  1.4331 -0.7493
  126SOL     MW  504   2.142   1.618   1.960 -0.0833  0.1869 -0.8571
  127SOL     OW  505   0.603   0.730   1.902  0.0524 -0.4659  0.0436
  127SOL    HW1  506   0.678   0.678   1.928  2.1409 -2.1914 -0.4175
  127SOL    HW2  507   0.627   0.822   1.923  1.1698  2.5207  0.3358
  127SOL     MW  508   0.616   0.735   1.908  0.4754 -0.2995  0.0213
  128SOL     OW  509   1.749   0.745   2.880  0.0522  0.1226  0.3303
  128SOL    HW1  510   1.774   0.727   2.791 -0.1351 -0.6433  2.1612
  128SOL    HW2  511   1.721   0.838   2.877 -1.7873 -1.5368  2.0397
  128SOL     MW  512   1.748   0.755   2.868 -0.2152 -0.1974  0.7974
  129SOL     OW  513   1.481   0.959   0.201  0.1254 -0.0313 -0.0222
  129SOL    HW1  514   1.423   0.892   0.163 -2.0096  2.1059  0.3569
  129SOL    HW2  515   1.476   0.918   0.284  0.8361  0.0798  0.5654
  129SOL     MW  516   1.472   0.945   0.207 -0.0626  0.2654  0.1053
  130SOL     OW  517   0.755   1.496   0.357 -0.5041 -0.2778 -0.0638
  130SOL    HW1  518   0.778   1.444   0.432  1.3741 -0.7704  3.2288
  130SOL    HW2  519   0.845   1.506   0.313  0.9769  0.2350 -0.1143
  130SOL     MW  520   0.770   1.491   0.361 -0.0609 -0.2752  0.3640
  131SOL     OW  521   3.037   0.784   0.058 -0.3686 -0.6220 -0.0379
  131SOL    HW1  522   3.045   0.868   0.001  1.0492  1.2255 -0.2208
  131SOL    HW2  523   3.129   0.765   0.092  2.7305 -2.7063  1.0602
  131SOL     MW  524   3.050   0.792   0.055  0.2274 -0.6532  0.0829
  132SOL     OW  525   2.718   0.171   1.271  0.8666 -0.0299  0.1990
  132SOL    HW1  526   2.729   0.153   1.176 -0.1080 -0.8253 -0.4416
  132SOL    HW2  527   2.632   0.126   1.292  0.7442  0.4719  0.7662
  132SOL     MW  528   2.708   0.163   1.261  0.7218 -0.0687  0.1893
  133SOL     OW  529   1.119   0.213   1.698  0.4781 -0.4891 -0.4608
  133SOL    HW1  530   1.203   0.169   1.683  0.5395 -0.6260  1.3681
  133SOL    HW2  531   1.091   0.196   1.789 -3.6276 -0.9326 -1.7180
  133SOL     MW  532   1.127   0.205   1.708 -0.0555 -0.5657 -0.3854
  134SOL     OW  533   1.351   2.502   1.408 -0.0261  0.5524 -0.3069
  134SOL    HW1  534   1.298   2.575   1.387  1.8651 -2.3491 -1.7390
  134SOL    HW2  535   1.376   2.521   1.499 -0.5680 -0.2927 -3.7143
  134SOL     MW  536   1.347   2.514   1.418  0.1520  0.0581 -0.9454
  135SOL     OW  537   3.043   0.973   2.958 -0.3413 -0.2440  0.4785
  135SOL    HW1  538   3.097   1.059   2.964  1.9097  0.1294  2.0812
  135SOL    HW2  539   2.946   1.006   2.965 -2.7603  0.4461  0.0759
  135SOL     MW  540   3.037   0.988   2.960 -0.3635 -0.1037  0.6369
  136SOL     OW  541   0.254   1.993   0.867  0.4099 -0.5490 -0.7744
  136SOL    HW1  542   0.164   1.951   0.859 -0.9512  4.2706 -0.1002
  136SOL    HW2  543   0.307   1.943   0.797  3.6128  0.2418 -3.5948
  136SOL     MW  544   0.249   1.981   0.856  0.6529  0.1912 -1.0576
  137SOL     OW  545   0.665   1.998   0.569  0.6706 -0.1501 -0.0832
  137SOL    HW1  546   0.700   1.985   0.656  0.1116 -3.7566 -0.1259
  137SOL    HW2  547   0.571   2.029   0.579 -0.7990  1.7941 -2.8470
  137SOL     MW  548   0.657   2.000   0.582  0.4029 -0.3695 -0.4535
  138SOL     OW  549   0.544   0.601   1.056 -0.5427 -0.1040  0.2312
  138SOL    HW1  550   0.470   0.543   1.061  3.7683 -1.3701 -1.2913
  138SOL    HW2  551   0.596   0.569   0.985 -1.0557 -2.1446  0.8987
  138SOL     MW  552   0.541   0.589   1.047 -0.0416 -0.5403  0.1184
  139SOL     OW  553   2.758   0.526   1.416 -0.4067  0.1518  0.3258
  139SOL    HW1  554   2.802   0.451   1.380  1.7892  1.4875 -0.1580
  139SOL    HW2  555   2.836   0.592   1.430 -0.5948  0.7492 -0.7356
  139SOL     MW  556   2.774   0.525   1.413 -0.1418  0.4068  0.1219
  140SOL     OW  557   0.864   0.314   2.134 -0.1867  0.4417  0.1309
  140SOL    HW1  558   0.917   0.282   2.062  1.9440 -0.5269  2.4480
  140SOL    HW2  559   0.911   0.259   2.205  0.7378 -4.3115  3.1437
  140SOL     MW  560   0.877   0.302   2.134  0.2164 -0.3132  0.8341
  141SOL     OW  561   1.014   0.606   1.764  0.1229 -0.1278 -0.0306
  141SOL    HW1  562   1.067   0.535   1.714 -2.3576 -0.3716 -0.9167
  141SOL    HW2  563   1.068   0.683   1.762 -3.4980  0.3863  0.4040
  141SOL     MW  564   1.028   0.607   1.757 -0.6821 -0.0922 -0.0902
  142SOL     OW  565   0.928   1.140   0.724  0.1917 -0.5726  0.2030
  142SOL    HW1  566   0.904   1.074   0.661 -1.5522  1.1618 -0.3099
  142SOL    HW2  567   1.029   1.145   0.730 -1.3892  1.8764  0.0015
  142SOL     MW  568   0.938   1.132   0.717 -0.2470 -0.0207  0.1087
  143SOL     OW  569   1.881   0.922   1.122  0.1226 -0.1996 -0.0626
  143SOL    HW1  570   1.894   0.892   1.033  1.3343  0.4054 -0.6763
  143SOL    HW2  571   1.842   0.847   1.166  0.6437 -1.0860  0.1422
  143SOL     MW  572   1.878   0.908   1.116  0.3512 -0.2368 -0.1165
  144SOL     OW  573   0.139   1.168   1.552 -0.0280  0.0936 -0.3194
  144SOL    HW1  574   0.234   1.160   1.551 -0.4281 -0.3024 -0.0235
  144SOL    HW2  575   0.123   1.204   1.640 -1.5588  0.9576 -0.1496
  144SOL     MW  576   0.149   1.172   1.564 -0.2828  0.1553 -0.2580
  145SOL     OW  577   0.278   0.455   1.141  0.4919  0.3382 -0.3556
  145SOL    HW1  578   0.309   0.400   1.209  1.4308 -1.6644 -2.3867
  145SOL    HW2  579   0.202   0.407   1.110 -1.3928 -2.9545 -0.0852
  145SOL     MW  580   0.272   0.441   1.146  0.3671 -0.3604 -0.5879
  146SOL     OW  581   0.892   1.903   1.401  0.3433 -0.2679  0.2661
  146SOL    HW1  582   0.948   1.921   1.314  0.6072  0.8294 -0.9233
  146SOL    HW2  583   0.801   1.926   1.378  0.9002  1.0600  0.6226
  146SOL     MW  584   0.887   1.908   1.386  0.4516  0.0521  0.1562
  147SOL     OW  585   0.405   0.443   2.853 -0.3824  0.4884  0.1868
  147SOL    HW1  586   0.369   0.450   2.937 -1.2521 -0.3740 -3.9864
  147SOL    HW2  587   0.347   0.499   2.804 -0.2123 -0.4668 -2.4637
  147SOL     MW  588   0.393   0.452   2.857 -0.4747  0.2486 -0.7135
  148SOL     OW  589   0.034   0.932   1.295  0.4909  0.3322  0.1270
  148SOL    HW1  590   0.126   0.913   1.303 -0.2637  1.2674  0.5369
  148SOL    HW2  591   0.010   0.948   1.383 -0.4974  1.4786  2.1563
  148SOL     MW  592   0.043   0.932   1.308  0.2609  0.6069  0.4488
  149SOL     OW  593   1.422   1.121   1.377 -0.2308 -0.0950  0.7584
  149SOL    HW1  594   1.367   1.124   1.461 -1.1660  0.0008 -0.3550
  149SOL    HW2  595   1.483   1.196   1.385 -2.0396  2.9852  1.0450
  149SOL     MW  596   1.423   1.132   1.389 -0.5929  0.3240  0.6493
  150SOL     OW  597   1.823   1.346   0.741 -0.0445 -0.3200  0.1775
  150SOL    HW1  598   1.864   1.261   0.723  0.2717 -0.7508  2.8285
  150SOL    HW2  599   1.891   1.380   0.795 -1.1933  1.4621  1.0385
  150SOL     MW  600   1.838   1.339   0.746 -0.1543 -0.1417  0.6409
  151SOL     OW  601   1.613   1.787   0.834  0.3725  0.0499  0.5542
  151SOL    HW1  602   1.545   1.789   0.768 -0.2479  1.0737  1.9330
  151SOL    HW2  603   1.606   1.721   0.903  1.3341  1.2737  1.0915
  151SOL     MW  604   1.603   1.779   0.834  0.4175  0.3465  0.8070
  152SOL     OW  605   0.766   1.333   1.545  0.2163  0.4172  0.1122
  152SOL    HW1  606   0.793   1.247   1.563 -0.5482  0.3141 -0.8177
  152SOL    HW2  607   0.845   1.382   1.511  1.6854  2.2676 -0.2440
  152SOL     MW  608   0.780   1.328   1.543  0.3092  0.6478 -0.0575
  153SOL     OW  609   2.664   1.224   0.690 -0.0352 -0.1465 -0.2595
  153SOL    HW1  610   2.719   1.204   0.617 -0.8961  0.9351  1.7217
  153SOL    HW2  611   2.596   1.157   0.689  1.8122  3.0238 -1.9556
  153SOL     MW  612   2.662   1.213   0.680  0.0950  0.4145 -0.2219
  154SOL     OW  613   0.321   1.775   1.709 -0.0246  0.0170 -0.5046
  154SOL    HW1  614   0.345   1.742   1.628  2.2200  3.5190  2.5230
  154SOL    HW2  615   0.344   1.701   1.768 -1.1617  0.3083  0.1955
  154SOL     MW  616   0.327   1.761   1.706  0.1215  0.5175 -0.0127
  155SOL     OW  617   1.103   0.733   0.256 -0.0520 -0.3447  0.7097
  155SOL    HW1  618   1.118   0.677   0.335  1.7234 -1.4557 -0.5283
  155SOL    HW2  619   1.072   0.814   0.300  1.0798  0.7326  0.9548
  155SOL     MW  620   1.101   0.736   0.272  0.3316 -0.3492  0.5787
  156SOL     OW  621   1.526   3.076   1.029 -0.9391 -0.8084  0.2409
  156SOL    HW1  622   1.591   3.149   1.018  0.6837  1.2059  1.6193
  156SOL    HW2  623   1.554   3.010   1.093 -1.6885 -3.2543 -2.6693
  156SOL     MW  624   1.538   3.077   1.036 -0.8239 -0.8653  0.0388
  157SOL     OW  625   1.396   1.204   0.126 -0.7099  0.7847 -0.0429
  157SOL    HW1  626   1.419   1.111   0.141 -1.5287 -2.5990  0.1408
  157SOL    HW2  627   1.477   1.255   0.106 -0.9302  1.3491  0.4940
  157SOL     MW  628   1.410   1.198   0.125 -0.8470  0.4127  0.0521
  158SOL     OW  629   0.391   1.645   2.289 -0.7188 -0.4090 -0.4298
  158SOL    HW1  630   0.367   1.720   2.235  0.1507  2.8468  1.6279
  158SOL    HW2  631   0.326   1.635   2.362 -0.9524  1.0157 -0.1907
  158SOL     MW  632   0.379   1.654   2.292 -0.6349  0.2086 -0.1268
  159SOL     OW  633   1.299   1.656   0.436  0.3471 -0.4824 -0.0963
  159SOL    HW1  634   1.286   1.573   0.393 -0.2931  1.1089  4.4107
  159SOL    HW2  635   1.212   1.686   0.472 -0.8028  0.8554 -1.2651
  159SOL     MW  636   1.286   1.649   0.435  0.1109 -0.0960  0.3442
  160SOL     OW  637   0.442   1.072   1.550  0.3469  0.1222 -0.3031
  160SOL    HW1  638   0.449   0.999   1.610 -1.0835  1.5966 -0.9098
  160SOL    HW2  639   0.464   1.144   1.609  1.1913 -1.0226 -0.1263
  160SOL     MW  640   0.446   1.072   1.566  0.2696  0.1657 -0.3598
  161SOL     OW  641   0.597   2.116   2.703 -0.1166  0.0630  0.0854
  161SOL    HW1  642   0.528   2.130   2.767 -2.3034 -1.8790 -0.5725
  161SOL    HW2  643   0.555   2.093   2.619  0.8128  3.0527  2.3279
  161SOL     MW  644   0.582   2.115   2.700 -0.2825  0.2013  0.2945
  162SOL     OW  645   1.036   1.714   1.828  0.1803 -0.0988 -0.3875
  162SOL    HW1  646   1.061   1.807   1.797 -1.9304 -1.0094 -0.9783
  162SOL    HW2  647   0.936   1.715   1.818 -0.7609 -0.5422 -0.0817
  162SOL     MW  648   1.027   1.726   1.822 -0.2224 -0.2774 -0.4251
  163SOL     OW  649   2.135   0.147   0.984 -0.1089  0.3024 -0.2694
  163SOL    HW1  650   2.147   0.168   0.888 -0.7911 -0.7181  1.2244
  163SOL    HW2  651   2.082   0.068   0.986 -1.6584  2.4380 -0.3950
  163SOL     MW  652   2.129   0.139   0.972 -0.4034  0.4495 -0.0889
  164SOL     OW  653   0.258   0.196   0.818 -0.7965  0.2584  0.0654
  164SOL    HW1  654   0.192   0.240   0.865 -0.8262 -1.8929 -3.2298
  164SOL    HW2  655   0.227   0.106   0.798  0.2140  0.2753 -1.8740
  164SOL     MW  656   0.246   0.190   0.822 -0.6671 -0.0232 -0.6252
  165SOL     OW  657   1.372   1.219   0.419 -0.2154 -0.1996 -0.2714
  165SOL    HW1  658   1.334   1.136   0.446 -0.3389  0.0744 -2.8532
  165SOL    HW2  659   1.399   1.207   0.328  2.8973  0.6667  2.3760
  165SOL     MW  660   1.371   1.206   0.410  0.1790 -0.0492 -0.2628
  166SOL     OW  661   0.527   1.082   0.967  0.1699 -0.6448  0.0396
  166SOL    HW1  662   0.504   1.003   1.021 -4.3898  1.0330  1.2089
  166SOL    HW2  663   0.619   1.058   0.939 -0.0395  2.2884  2.0856
  166SOL     MW  664   0.536   1.069   0.970 -0.4593 -0.0365  0.4638
  167SOL     OW  665   0.920   1.151   0.269 -0.3460 -0.2337 -0.2475
  167SOL    HW1  666   0.824   1.173   0.268  1.0706 -1.1515 -3.0914
  167SOL    HW2  667   0.951   1.159   0.180 -0.3887  2.3090 -0.4509
  167SOL     MW  668   0.911   1.155   0.257 -0.1648 -0.0193 -0.6496
  168SOL     OW  669   1.690   1.758   2.886 -0.4078 -0.4308 -0.0389
  168SOL    HW1  670   1.648   1.825   2.944  1.7698 -0.4271 -1.2751
  168SOL    HW2  671   1.681   1.667   2.929  0.9638 -0.6218  1.6436
  168SOL     MW  672   1.683   1.755   2.899  0.0605 -0.4555  0.0200
  169SOL     OW  673   0.315   0.923   1.325 -0.6246 -0.2725  0.3061
  169SOL    HW1  674   0.362   0.931   1.405  1.6769  0.8443 -0.0586
  169SOL    HW2  675   0.293   1.013   1.294 -1.6798  1.3141  0.2834
  169SOL     MW  676   0.318   0.936   1.332 -0.4601  0.0842  0.2550
  170SOL     OW  677   1.025   1.463   1.492  0.7818 -0.0698 -0.6365
  170SOL    HW1  678   0.961   1.529   1.461 -0.5913  0.7631  0.1112
  170SOL    HW2  679   1.088   1.467   1.424 -3.2087  1.4200 -0.7064
  170SOL     MW  680   1.025   1.472   1.479  0.0741  0.2367 -0.5471
  171SOL     OW  681   0.596   1.400   0.716 -0.0932 -0.0679 -0.1869
  171SOL    HW1  682   0.558   1.381   0.804 -1.0665  0.1514  1.6694
  171SOL    HW2  683   0.587   1.322   0.667  2.4961  0.2146 -1.1432
  171SOL     MW  684   0.590   1.387   0.721  0.1200 -0.0017 -0.0682
  172SOL     OW  685   0.835   0.323   1.214 -0.3299 -0.1691  0.1301
  172SOL    HW1  686   0.829   0.332   1.119  0.9231  1.7597 -0.6387
  172SOL    HW2  687   0.761   0.366   1.251  2.8711 -0.8404 -1.4079
  172SOL     MW  688   0.824   0.330   1.206  0.2578 -0.0032 -0.1742
  173SOL     OW  689   0.458   1.678   0.322  0.2819 -0.1306 -0.1828
  173SOL    HW1  690   0.460   1.583   0.304  1.3325 -2.5136 -0.2311
  173SOL    HW2  691   0.474   1.671   0.416  0.0148  0.0951 -0.5504
  173SOL     MW  692   0.460   1.664   0.332  0.3853 -0.4153 -0.2377
  174SOL     OW  693   2.029   0.965   1.529 -0.1654 -0.2342 -0.2060
  174SOL    HW1  694   1.968   0.892   1.511 -0.7738 -2.2580 -1.0639
  174SOL    HW2  695   1.982   1.045   1.491 -1.7101 -1.4417  0.6283
  174SOL     MW  696   2.015   0.966   1.522 -0.4495 -0.6605 -0.2091
  175SOL     OW  697   0.421   1.397   0.360  0.2779  0.8820 -0.1272
  175SOL    HW1  698   0.395   1.366   0.271 -0.6098  0.4409 -2.9132
  175SOL    HW2  699   0.509   1.350   0.370  0.4123  2.0905  1.0104
  175SOL     MW  700   0.430   1.386   0.349  0.1785  0.9833 -0.3447
  176SOL     OW  701   0.295   1.221   1.263  0.3804 -0.1886 -0.2663
  176SOL    HW1  702   0.252   1.235   1.179 -2.0153 -1.7065 -0.2639
  176SOL    HW2  703   0.252   1.278   1.322 -1.1702  2.1970  2.9584
  176SOL     MW  704   0.283   1.230   1.260 -0.1403 -0.0741  0.1595
  177SOL     OW  705   0.610   0.460   1.319  0.5397 -0.0619 -0.0638
  177SOL    HW1  706   0.577   0.538   1.277 -1.9337  1.4140 -1.9606
  177SOL    HW2  707   0.601   0.482   1.413  0.1697 -0.3441 -1.9183
  177SOL     MW  708   0.605   0.473   1.326  0.1645  0.0956 -0.5588
  178SOL     OW  709   3.099   0.443   2.957 -0.0993 -0.0856 -0.2914
  178SOL    HW1  710   3.042   0.467   3.033  1.1967 -0.5706 -1.8956
  178SOL    HW2  711   3.049   0.475   2.877 -1.5883 -2.2050 -1.1948
  178SOL     MW  712   3.085   0.451   2.957 -0.1247 -0.4292 -0.6223
  179SOL     OW  713   1.621   1.331   1.488 -0.1493  0.2045  0.1713
  179SOL    HW1  714   1.588   1.370   1.571 -1.9484  1.5187  2.9158
  179SOL    HW2  715   1.715   1.340   1.496 -1.0960  0.6495  1.8579
  179SOL     MW  716   1.629   1.337   1.500 -0.5116  0.4366  0.7559
  180SOL     OW  717   3.027   0.270   0.485  0.2918  0.2349  0.1587
  180SOL    HW1  718   3.001   0.271   0.387 -1.3647  0.7404 -1.5782
  180SOL    HW2  719   3.097   0.337   0.492 -1.2907  0.2604  0.7160
  180SOL     MW  720   3.033   0.279   0.473 -0.1356  0.3049  0.0031
  181SOL     OW  721   1.127   1.418   3.089 -0.1537  0.3467 -0.3982
  181SOL    HW1  722   1.148   1.465   3.168 -0.1621 -0.0587 -0.3032
  181SOL    HW2  723   1.197   1.435   3.020 -0.0097  1.3351  0.8696
  181SOL     MW  724   1.139   1.426   3.090 -0.1358  0.4236 -0.2184
  182SOL     OW  725   0.473   0.802   1.668 -0.0274  0.0990 -0.3489
  182SOL    HW1  726   0.382   0.774   1.663  2.5120  0.0215 -2.8635
  182SOL    HW2  727   0.512   0.748   1.739 -0.7118 -1.3257  0.8477
  182SOL     MW  728   0.466   0.791   1.676  0.2174 -0.0992 -0.5228
  183SOL     OW  729   1.615   1.543   1.300  0.3234 -0.1860  0.2366
  183SOL    HW1  730   1.552   1.596   1.354 -1.3461  0.8759  2.4223
  183SOL    HW2  731   1.627   1.467   1.362  1.7335 -2.1379 -1.0501
  183SOL     MW  732   1.608   1.540   1.315  0.2892 -0.3034  0.3552
  184SOL     OW  733   0.824   0.576   1.984  0.3583  0.9958 -0.4896
  184SOL    HW1  734   0.906   0.590   1.933  2.6548  1.0763 -1.8083
  184SOL    HW2  735   0.849   0.492   2.035  0.0631 -1.4922  2.2933
  184SOL     MW  736   0.838   0.567   1.984  0.6224  0.6781 -0.2964
  185SOL     OW  737   1.113   0.958   1.945  0.0130  0.1108 -0.3719
  185SOL    HW1  738   1.090   0.881   1.998 -0.1264  2.1832 -2.0381
  185SOL    HW2  739   1.146   1.027   2.013  0.7421  1.8821 -0.0219
  185SOL     MW  740   1.114   0.957   1.961  0.0908  0.6179 -0.5455
  186SOL     OW  741   0.357   1.701   1.415  0.5703 -0.7426 -0.2560
  186SOL    HW1  742   0.424   1.756   1.378  0.6845  1.4733 -0.0271
  186SOL    HW2  743   0.333   1.635   1.350 -0.9974 -1.8142  1.0729
  186SOL     MW  744   0.363   1.699   1.402  0.3785 -0.5917 -0.0504
  187SOL     OW  745   1.513   0.665   1.484 -0.6377  0.1819 -0.2855
  187SOL    HW1  746   1.485   0.657   1.576  1.5858  2.7221  0.2143
  187SOL    HW2  747   1.431   0.688   1.436 -1.6853 -0.9121 -0.8049
  187SOL     MW  748   1.498   0.667   1.490 -0.4826  0.3727 -0.2880
  188SOL     OW  749   1.921   1.087   0.717  0.0870 -0.6533  0.0607
  188SOL    HW1  750   1.901   1.013   0.777  0.8950 -1.5670  1.3560
  188SOL    HW2  751   2.014   1.077   0.718 -2.0873 -0.0196  0.2646
  188SOL     MW  752   1.931   1.076   0.725 -0.0932 -0.6903  0.2585
  189SOL     OW  753   0.653   0.783   0.802  0.6203 -0.1650 -0.0736
  189SOL    HW1  754   0.565   0.824   0.799  2.2775 -0.5118  1.9415
  189SOL    HW2  755   0.704   0.857   0.836 -5.5232  2.9018  0.7975
  189SOL     MW  756   0.648   0.798   0.806  0.0284  0.1939  0.3072
  190SOL     OW  757   1.856   0.372   1.969  0.1471 -0.7118 -0.2115
  190SOL    HW1  758   1.889   0.287   1.956 -2.2394  1.1892 -0.0762
  190SOL    HW2  759   1.935   0.431   1.961  2.3110 -2.2435  0.4621
  190SOL     MW  760   1.871   0.369   1.966  0.1177 -0.6631 -0.1048
  191SOL     OW  761   1.612   0.938   1.511 -0.6531 -0.4377 -1.2464
  191SOL    HW1  762   1.538   0.982   1.461 -0.3841  0.6285 -1.5227
  191SOL    HW2  763   1.626   0.847   1.489 -0.1127 -0.4851  0.7414
  191SOL     MW  764   1.604   0.932   1.502 -0.5463 -0.3033 -1.0206
  192SOL     OW  765   0.744   1.961   2.924  0.4340  0.0633  0.1073
  192SOL    HW1  766   0.713   2.010   2.845  2.0862 -1.9684 -2.1151
  192SOL    HW2  767   0.667   1.913   2.955 -1.4238  0.5474 -1.9970
  192SOL     MW  768   0.729   1.961   2.918  0.4068 -0.1409 -0.4636
  193SOL     OW  769   1.039   1.552   0.745 -0.1794  0.3729 -0.4018
  193SOL    HW1  770   0.994   1.545   0.834  1.7371 -0.1300 -0.0533
  193SOL    HW2  771   0.983   1.491   0.693 -1.3953  0.6090 -1.7937
  193SOL     MW  772   1.026   1.543   0.750 -0.0870  0.3377 -0.5395
  194SOL     OW  773   0.459   1.345   0.952 -0.3199 -0.4375 -0.0126
  194SOL    HW1  774   0.460   1.247   0.952  0.9340 -0.1837  0.1266
  194SOL    HW2  775   0.373   1.379   0.923  0.8915  2.5921  2.1009
  194SOL     MW  776   0.448   1.337   0.948  0.0054 -0.0043  0.2846
  195SOL     OW  777   1.308   1.156   2.949 -0.0479  0.5496  0.5733
  195SOL    HW1  778   1.321   1.191   3.039  0.3998  1.5751  1.8362
  195SOL    HW2  779   1.230   1.099   2.956 -1.3936 -1.4951 -1.2611
  195SOL     MW  780   1.300   1.153   2.962 -0.1664  0.4151  0.4979
  196SOL     OW  781   2.176   1.050   0.604 -0.6893 -0.1792 -0.1465
  196SOL    HW1  782   2.148   1.030   0.517  1.1559 -0.6043 -0.6327
  196SOL    HW2  783   2.172   1.147   0.604 -0.6489 -0.3803 -2.3252
  196SOL     MW  784   2.172   1.060   0.593 -0.4405 -0.2618 -0.4981
  197SOL     OW  785   0.568   1.235   2.007 -0.0902  0.5387 -0.0456
  197SOL    HW1  786   0.596   1.147   2.002 -0.1348  2.6095  0.2859
  197SOL    HW2  787   0.531   1.237   1.920  1.1453  0.1344  2.7478
  197SOL     MW  788   0.567   1.223   1.995  0.0669  0.7585  0.3667
  198SOL     OW  789   2.914   1.370   1.062 -0.3720 -0.0863 -0.5566
  198SOL    HW1  790   2.900   1.454   1.011 -0.0299  1.3862 -1.6229
  198SOL    HW2  791   2.852   1.308   1.029  1.6908  2.6433  0.8650
  198SOL     MW  792   2.904   1.373   1.051 -0.0547  0.4682 -0.5097
  199SOL     OW  793   0.478   1.272   1.741 -0.0375 -0.1068  0.2413
  199SOL    HW1  794   0.381   1.269   1.758 -1.2861  3.0132 -2.2704
  199SOL    HW2  795   0.482   1.329   1.668 -1.4178  0.3282  0.5537
  199SOL     MW  796   0.465   1.279   1.734 -0.3843  0.3623 -0.0489
  200SOL     OW  797   1.931   3.066   1.314  0.1133  1.0203  0.6220
  200SOL    HW1  798   1.943   3.065   1.216  2.0072 -0.8048 -0.2697
  200SOL    HW2  799   1.835   3.066   1.338 -0.6155 -0.4269 -0.3606
  200SOL     MW  800   1.920   3.066   1.304  0.2670  0.5886  0.3747
  201SOL     OW  801   1.136   0.324   0.813  0.0263 -0.0892  0.0802
  201SOL    HW1  802   1.122   0.228   0.820  0.9129 -4.9379 -2.0199
  201SOL    HW2  803   1.143   0.322   0.719 -1.9675 -1.2999  1.3676
  201SOL     MW  804   1.135   0.311   0.801 -0.1198 -0.8887 -0.0270
  202SOL     OW  805   1.585   1.590   1.024 -0.0314  0.0190  0.0356
  202SOL    HW1  806   1.591   1.499   0.992 -1.6359 -0.3274  0.6376
  202SOL    HW2  807   1.634   1.591   1.109  0.2735  0.5554 -0.5592
  202SOL     MW  808   1.592   1.578   1.031 -0.2029  0.0441  0.0365
  203SOL     OW  809   3.023   0.473   1.222  0.1864 -0.5893  0.5577
  203SOL    HW1  810   3.078   0.422   1.162 -0.6581  1.6871  1.6218
  203SOL    HW2  811   3.071   0.533   1.268  1.9555 -2.3546 -1.2992
  203SOL     MW  812   3.037   0.474   1.221  0.3084 -0.5218  0.4531
  204SOL     OW  813   1.060   1.772   0.527  0.5836 -0.3196  0.3594
  204SOL    HW1  814   1.028   1.707   0.592  0.4841  0.6477 -1.4818
  204SOL    HW2  815   0.995   1.783   0.456  1.4772  0.7372 -0.3804
  204SOL     MW  816   1.047   1.765   0.526  0.6884 -0.0525  0.0189
  205SOL     OW  817   1.395   0.066   1.317  0.0145  0.6363  0.3014
  205SOL    HW1  818   1.352   0.062   1.231  0.7642  1.2587 -1.0683
  205SOL    HW2  819   1.415   0.158   1.306  1.1878 -0.1736 -0.5364
  205SOL     MW  820   1.392   0.077   1.304  0.2682  0.6115  0.0101
  206SOL     OW  821   0.531   3.088   1.368 -0.1691 -0.4097 -0.1133
  206SOL    HW1  822   0.474   3.074   1.293 -1.1015 -1.8551  1.1182
  206SOL    HW2  823   0.582   3.003   1.379 -1.4946  1.4245 -0.7885
  206SOL     MW  824   0.530   3.075   1.360 -0.4670 -0.3584 -0.0399
  207SOL     OW  825   0.969   1.548   0.213  0.1515  0.0023  0.0092
  207SOL    HW1  826   0.978   1.633   0.166  2.4342  0.6709  0.4476
  207SOL    HW2  827   1.057   1.525   0.248  4.2078  0.1321 -2.3079
  207SOL     MW  828   0.981   1.556   0.211  0.9879  0.1077 -0.2387
  208SOL     OW  829   0.646   1.569   1.240  0.1376  0.0391 -0.3615
  208SOL    HW1  830   0.703   1.589   1.311 -1.3032 -1.0153  0.9884
  208SOL    HW2  831   0.605   1.476   1.253 -0.0537 -2.4960 -0.1016
  208SOL     MW  832   0.648   1.559   1.251 -0.0777 -0.4345 -0.1491
  209SOL     OW  833   1.492   0.480   2.805 -0.3648  0.3357 -0.3566
  209SOL    HW1  834   1.516   0.569   2.824  0.3257  0.1590  2.5140
  209SOL    HW2  835   1.576   0.426   2.827  0.8866 -1.8578  0.9377
  209SOL     MW  836   1.506   0.485   2.810 -0.1086  0.0230  0.1930
  210SOL     OW  837   1.583   1.334   0.900 -0.4285  0.7324 -0.1911
  210SOL    HW1  838   1.657   1.327   0.844 -0.6534  1.2849 -1.1888
  210SOL    HW2  839   1.507   1.355   0.843 -0.0899  0.5614 -1.2534
  210SOL     MW  840   1.583   1.336   0.885 -0.4135  0.7827 -0.4629
  211SOL     OW  841   1.717   0.458   0.917 -0.4307 -0.1578 -0.2196
  211SOL    HW1  842   1.699   0.461   0.817  1.2129  1.5736  0.7148
  211SOL    HW2  843   1.813   0.487   0.915  2.0309  1.5597 -0.2162
  211SOL     MW  844   1.727   0.462   0.904  0.1109  0.2973 -0.0959
  212SOL     OW  845   0.261   1.099   0.040 -0.4075 -0.4319  0.3843
  212SOL    HW1  846   0.221   1.044   0.111  0.0162  0.9128  0.4555
  212SOL    HW2  847   0.350   1.059   0.020 -2.9075  0.7027 -4.0123
  212SOL     MW  848   0.267   1.086   0.047 -0.6815 -0.1048 -0.1864
  213SOL     OW  849   0.508   1.690   3.096 -0.7560 -0.1387  0.0109
  213SOL    HW1  850   0.538   1.766   3.151 -1.6388 -0.2475  1.9747
  213SOL    HW2  851   0.525   1.717   3.009 -0.8381 -0.6145 -1.5026
  213SOL     MW  852   0.514   1.704   3.092 -0.8833 -0.2158  0.0704
  214SOL     OW  853   0.624   0.243   2.265  0.1780  0.2665  0.5415
  214SOL    HW1  854   0.551   0.270   2.211 -1.2970  0.9269  0.1838
  214SOL    HW2  855   0.694   0.265   2.208 -0.3376  1.6195 -2.1947
  214SOL     MW  856   0.623   0.249   2.251 -0.0847  0.5322  0.1333
  215SOL     OW  857   0.506   0.729   2.648 -0.2954  0.5466 -0.2022
  215SOL    HW1  858   0.507   0.720   2.554 -0.4266 -1.8335 -0.0691
  215SOL    HW2  859   0.437   0.665   2.675  1.7734  1.8734  1.1517
  215SOL     MW  860   0.497   0.720   2.639 -0.0398  0.4076 -0.0060
  216SOL     OW  861   0.007   3.087   2.776 -0.2804 -0.4813 -0.1433
  216SOL    HW1  862  -0.074   3.054   2.828 -2.1062 -0.5261 -0.2617
  216SOL    HW2  863  -0.023   3.174   2.743 -2.5351  0.7131 -1.6174
  216SOL     MW  864  -0.008   3.094   2.778 -0.8188 -0.3296 -0.3534
  217SOL     OW  865   0.981   1.188   0.005  0.2325 -0.1153 -0.3172
  217SOL    HW1  866   1.025   1.102  -0.032 -2.2818 -1.5217  0.3569
  217SOL    HW2  867   1.049   1.262  -0.011  1.6805  2.6722 -1.4576
  217SOL     MW  868   0.996   1.187  -0.002  0.0918  0.0669 -0.3787
  218SOL     OW  869   0.920   1.395   2.483 -0.0775  0.2913 -0.2606
  218SOL    HW1  870   0.924   1.306   2.526  0.3490  1.9850  0.9860
  218SOL    HW2  871   0.992   1.448   2.515 -1.8259 -4.0268  2.8286
  218SOL     MW  872   0.930   1.390   2.493 -0.2519 -0.0550  0.3115
  219SOL     OW  873   0.995   0.423   2.526  0.1069  0.2012 -0.5481
  219SOL    HW1  874   1.036   0.494   2.482 -0.2124 -0.8193 -2.2684
  219SOL    HW2  875   0.922   0.457   2.577  1.7884  1.8305 -1.8606
  219SOL     MW  876   0.990   0.437   2.527  0.2867  0.2816 -0.9483
  220SOL     OW  877   1.761   0.542   2.176 -0.3454 -0.1731  0.0963
  220SOL    HW1  878   1.682   0.581   2.147 -0.9052 -1.2807  1.3119
  220SOL    HW2  879   1.788   0.471   2.122 -0.3869  1.9700  2.8596
  220SOL     MW  880   1.754   0.538   2.165 -0.4248 -0.0365  0.6213
  221SOL     OW  881   0.407   1.430   2.919  0.2194 -0.5067  0.0470
  221SOL    HW1  882   0.377   1.345   2.891 -2.4075  1.8160 -3.4753
  221SOL    HW2  883   0.414   1.482   2.832 -1.0112 -2.2340 -0.7277
  221SOL     MW  884   0.404   1.426   2.904 -0.2896 -0.4282 -0.5199
  222SOL     OW  885   0.347   0.961   2.659 -0.6489  0.1478 -0.2709
  222SOL    HW1  886   0.310   0.967   2.572 -2.7980 -0.2223 -1.6457
  222SOL    HW2  887   0.408   0.888   2.655  1.0447  0.2038  0.0177
  222SOL     MW  888   0.350   0.952   2.647 -0.7090  0.1063 -0.4142
  223SOL     OW  889   3.085   1.996   2.647  0.4251 -0.1792 -0.5658
  223SOL    HW1  890   3.144   1.916   2.661 -2.3247 -1.9331 -0.7680
  223SOL    HW2  891   3.117   2.019   2.554  1.9625 -1.2999 -2.4407
  223SOL     MW  892   3.097   1.988   2.637  0.2652 -0.5585 -0.8398
  224SOL     OW  893   1.521   0.835   2.583 -0.3775  0.2958 -0.4109
  224SOL    HW1  894   1.493   0.859   2.670 -1.7300 -2.1347  1.3045
  224SOL    HW2  895   1.517   0.919   2.538 -1.0967 -0.8970  2.3937
  224SOL     MW  896   1.517   0.849   2.588 -0.6508 -0.1823  0.1855
  225SOL     OW  897   2.915   1.481   2.233 -0.5133  0.0535 -0.5528
  225SOL    HW1  898   2.991   1.528   2.195  1.1913 -0.2318 -1.1292
  225SOL    HW2  899   2.881   1.542   2.302 -0.4949  2.0302  1.6729
  225SOL     MW  900   2.920   1.495   2.237 -0.2860  0.2767 -0.3352
  226SOL     OW  901   0.402   1.501   2.631 -0.5768 -0.3721 -0.1912
  226SOL    HW1  902   0.485   1.466   2.594  2.1188 -1.4618 -1.6629
  226SOL    HW2  903   0.405   1.593   2.617  0.1933 -1.9246 -1.1791
  226SOL     MW  904   0.413   1.509   2.625 -0.1195 -0.7207 -0.5157
  227SOL     OW  905   0.430   1.143   2.835  0.5085 -0.0404 -0.0254
  227SOL    HW1  906   0.516   1.184   2.811 -1.0997 -1.5355  0.9707
  227SOL    HW2  907   0.420   1.084   2.764 -3.5751 -0.2493  0.9669
  227SOL     MW  908   0.440   1.141   2.823 -0.2425 -0.2652  0.2370
  228SOL     OW  909   0.688   0.978   1.991  0.2385  0.1408 -0.4074
  228SOL    HW1  910   0.777   1.001   1.952 -0.6543  1.6799 -0.5363
  228SOL    HW2  911   0.682   0.935   2.079 -0.3424 -1.4519 -3.0790
  228SOL     MW  912   0.699   0.976   1.997  0.0441  0.1337 -0.7769
  229SOL     OW  913   0.245   0.490   3.077  0.0177  0.5348  0.5893
  229SOL    HW1  914   0.166   0.477   3.025  2.4206  2.1534  2.2774
  229SOL    HW2  915   0.230   0.448   3.164  0.8778  0.7694  0.4101
  229SOL     MW  916   0.233   0.482   3.082  0.4482  0.7793  0.7884
  230SOL     OW  917   1.768   1.345   2.112  0.2619 -0.2125  0.0103
  230SOL    HW1  918   1.729   1.353   2.202 -2.0981 -0.0274  0.1300
  230SOL    HW2  919   1.775   1.250   2.089 -1.5826  1.3648 -1.1951
  230SOL     MW  920   1.764   1.334   2.121 -0.2928  0.0200 -0.1329
  231SOL     OW  921   2.810   1.234   2.176 -0.2958  0.0442 -0.3454
  231SOL    HW1  922   2.863   1.310   2.197  1.5931  1.0291 -1.4618
  231SOL    HW2  923   2.743   1.250   2.108  0.6259  2.0613 -1.1893
  231SOL     MW  924   2.809   1.246   2.170  0.0750  0.4403 -0.6040
  232SOL     OW  925   2.278   0.949   2.097 -0.3574 -0.3716 -0.1836
  232SOL    HW1  926   2.199   0.988   2.054  1.8573 -0.2525  1.1709
  232SOL    HW2  927   2.239   0.909   2.173  1.4453 -3.0063  1.4032
  232SOL     MW  928   2.262   0.949   2.101  0.1727 -0.7035  0.2045
  233SOL     OW  929   2.071   0.546   1.936  0.3929 -0.1260 -0.0890
  233SOL    HW1  930   2.123   0.585   1.859  1.0003 -1.2327 -0.9975
  233SOL    HW2  931   2.133   0.519   2.010  1.2691  0.3062 -1.7603
  233SOL     MW  932   2.086   0.547   1.936  0.5886 -0.2150 -0.4293
  234SOL     OW  933   0.245   0.964   2.406  0.4541  0.1468 -0.9783
  234SOL    HW1  934   0.156   1.005   2.425 -0.1009  2.0482  0.1260
  234SOL    HW2  935   0.301   1.033   2.373  1.2539  1.4542  1.4007
  234SOL     MW  936   0.241   0.979   2.404  0.4864  0.5702 -0.5187
  235SOL     OW  937   0.981   3.052   2.796  0.1324 -0.1781 -0.3277
  235SOL    HW1  938   1.011   3.004   2.875 -0.7481  0.0034  1.8431
  235SOL    HW2  939   0.975   3.144   2.823  0.3711 -0.0739 -1.0215
  235SOL     MW  940   0.984   3.058   2.810  0.0478 -0.1404 -0.1328
  236SOL     OW  941   2.940   0.508   0.081  0.0117  0.5809 -0.5052
  236SOL    HW1  942   2.856   0.509   0.027 -1.3032  1.9028  2.1166
  236SOL    HW2  943   2.957   0.603   0.109 -0.5739 -2.5084 -0.6415
  236SOL     MW  944   2.931   0.520   0.077 -0.2390  0.3477 -0.1773
  237SOL     OW  945   1.757   0.874   2.172  0.5195 -0.2334  0.1245
  237SOL    HW1  946   1.778   0.958   2.121  2.7849  1.4556  0.1738
  237SOL    HW2  947   1.792   0.879   2.262 -0.2759 -0.6347 -2.4133
  237SOL     MW  948   1.765   0.885   2.177  0.7135 -0.0635 -0.2038
  238SOL     OW  949   1.107   1.758   2.975  0.0782 -0.1325  0.0585
  238SOL    HW1  950   1.038   1.691   2.976 -1.6341  1.8720 -0.7873
  238SOL    HW2  951   1.189   1.706   2.949  1.4715 -0.8673 -0.0476
  238SOL     MW  952   1.109   1.742   2.972  0.0361  0.0350 -0.0671
  239SOL     OW  953   1.212   1.385   2.312 -0.5258 -0.2639 -0.3081
  239SOL    HW1  954   1.249   1.368   2.396 -1.3211  1.4968 -0.5799
  239SOL    HW2  955   1.135   1.329   2.318 -2.6261 -0.7078 -0.5716
  239SOL     MW  956   1.207   1.375   2.324 -0.9078 -0.0901 -0.3787
  240SOL     OW  957   0.627   0.832   2.239 -0.7196  0.1125  0.5720
  240SOL    HW1  958   0.618   0.897   2.309  0.0807  1.0023 -0.5256
  240SOL    HW2  959   0.718   0.812   2.244 -3.8318 -2.9219  0.6138
  240SOL     MW  960   0.637   0.838   2.249 -1.0246 -0.1705  0.4327
  241SOL     OW  961   0.648   0.385   2.951  0.0123 -0.2370 -0.0491
  241SOL    HW1  962   0.622   0.436   3.029  2.6676  1.8760 -0.5889
  241SOL    HW2  963   0.568   0.372   2.898  1.8960 -1.9511 -0.0854
  241SOL     MW  964   0.634   0.390   2.954  0.6111 -0.1843 -0.1251
  242SOL     OW  965   1.428   1.675   2.355  0.2334  0.2841 -0.3271
  242SOL    HW1  966   1.406   1.761   2.386  0.7026  2.7690 -0.0549
  242SOL    HW2  967   1.355   1.644   2.304  1.7845 -1.6693 -2.0406
  242SOL     MW  968   1.415   1.682   2.353  0.4999  0.3542 -0.5173
  243SOL     OW  969   1.003   0.209   2.343 -0.6205 -0.1722 -0.3981
  243SOL    HW1  970   1.099   0.203   2.331 -0.8959 -3.9206 -1.3460
  243SOL    HW2  971   0.994   0.275   2.407  1.9442 -1.0562  0.0213
  243SOL     MW  972   1.015   0.217   2.350 -0.3185 -0.7834 -0.4679
  244SOL     OW  973   0.204   0.719   2.275  0.1161 -0.1583  0.1377
  244SOL    HW1  974   0.196   0.805   2.327 -0.8909 -0.3675 -0.1997
  244SOL    HW2  975   0.285   0.675   2.299 -4.5282 -0.0597  0.0641
  244SOL     MW  976   0.214   0.725   2.285 -0.6295 -0.1729  0.0835
  245SOL     OW  977   1.265   0.152   2.274 -1.4034  0.6919  0.0702
  245SOL    HW1  978   1.241   0.061   2.282 -2.3169  0.1924  1.0379
  245SOL    HW2  979   1.322   0.177   2.344 -1.3974  1.2395 -1.0765
  245SOL     MW  980   1.269   0.144   2.284 -1.5231  0.6982  0.0466
  246SOL     OW  981   1.163   1.144   2.156 -0.5859  0.1249  0.1607
  246SOL    HW1  982   1.123   1.097   2.230  1.1327 -0.9202 -1.1756
  246SOL    HW2  983   1.252   1.178   2.183  3.6500 -0.3396  0.0593
  246SOL     MW  984   1.170   1.142   2.169  0.1998 -0.0743 -0.0290
  247SOL     OW  985   0.660   0.532   0.137  0.2827 -0.0991 -0.5215
  247SOL    HW1  986   0.614   0.613   0.118  1.5429 -0.9611  0.9406
  247SOL    HW2  987   0.753   0.547   0.125  0.5390 -1.6618  1.5109
  247SOL     MW  988   0.666   0.544   0.133  0.4828 -0.4190 -0.0605
  248SOL     OW  989   0.429   1.213   2.421  0.7238 -0.0719  0.1042
  248SOL    HW1  990   0.446   1.270   2.342 -0.5121  1.6477  1.2897
  248SOL    HW2  991   0.370   1.258   2.475 -2.3510 -1.5925  1.0216
  248SOL     MW  992   0.423   1.226   2.418  0.1551 -0.0457  0.3816
  249SOL     OW  993   0.169   1.797   2.712  0.2164 -0.3170 -0.0324
  249SOL    HW1  994   0.135   1.711   2.685 -1.9421 -0.1251  0.3610
  249SOL    HW2  995   0.204   1.777   2.798  0.4716 -0.3775  0.3974
  249SOL     MW  996   0.169   1.783   2.720 -0.0347 -0.2997  0.0762
  250SOL     OW  997   2.164   0.892   2.363 -0.3558 -0.9531  0.0647
  250SOL    HW1  998   2.221   0.815   2.343 -2.0091  2.4917  1.1281
  250SOL    HW2  999   2.213   0.943   2.433 -1.7887 -1.8141 -0.3553
  250SOL     MW 1000   2.178   0.888   2.369 -0.7630 -0.6122  0.1496
  251SOL     OW 1001   0.183   0.828   1.997  0.2429 -0.3237 -0.3908
  251SOL    HW1 1002   0.189   0.785   2.082 -3.2552 -1.8919  0.4101
  251SOL    HW2 1003   0.142   0.764   1.945  3.8792  1.9469  0.3541
  251SOL     MW 1004   0.179   0.814   2.001  0.2611 -0.2310 -0.1868
  252SOL     OW 1005   1.685   1.020   2.839  0.4995 -0.3466 -0.7427
  252SOL    HW1 1006   1.698   1.037   2.935  1.0185 -1.0429  0.1085
  252SOL    HW2 1007   1.762   1.044   2.786  0.5137  0.4663  1.9108
  252SOL     MW 1008   1.697   1.026   2.844  0.5698 -0.3312 -0.2803
  253SOL     OW 1009   1.151   1.726   2.552 -0.1185  0.1795  0.2084
  253SOL    HW1 1010   1.151   1.755   2.464  1.2895 -0.9446  0.3137
  253SOL    HW2 1011   1.061   1.763   2.575  1.7033 -0.6169  0.6017
  253SOL     MW 1012   1.139   1.735   2.543  0.3076 -0.0739  0.2742
  254SOL     OW 1013   1.008   1.036   2.349  0.5371 -0.4693  0.2519
  254SOL    HW1 1014   0.993   0.940   2.344  1.5029  0.3649 -0.0315
  254SOL    HW2 1015   0.928   1.085   2.333  2.9782 -0.6669  1.5659
  254SOL     MW 1016   0.996   1.030   2.346  0.9866 -0.3853  0.3879
  255SOL     OW 1017   0.784   2.404   2.246  0.7543  0.4815 -0.1396
  255SOL    HW1 1018   0.692   2.380   2.233 -0.3673 -1.2236  0.1333
  255SOL    HW2 1019   0.792   2.423   2.339 -2.5295 -1.6585  0.4910
  255SOL     MW 1020   0.773   2.404   2.256  0.1730 -0.0258 -0.0204
  256SOL     OW 1021   1.174   2.847   2.912 -0.4735 -0.7777 -0.4377
  256SOL    HW1 1022   1.210   2.753   2.922  0.3751 -0.4955  0.3785
  256SOL    HW2 1023   1.231   2.900   2.857 -2.1014  0.5759 -3.5286
  256SOL     MW 1024   1.186   2.842   2.906 -0.5763 -0.5618 -0.7379
  257SOL     OW 1025   0.106   1.862   0.040  0.5741  0.0621  0.1190
  257SOL    HW1 1026   0.150   1.821   0.121  0.2033  2.5810 -2.0129
  257SOL    HW2 1027   0.126   1.804  -0.035 -0.6909  0.5911  0.9365
  257SOL     MW 1028   0.115   1.849   0.041  0.3583  0.4642 -0.0545
  258SOL     OW 1029   0.658   1.053   2.457  0.6306  0.1759  0.7484
  258SOL    HW1 1030   0.692   1.120   2.397 -3.2325 -1.1686 -0.7341
  258SOL    HW2 1031   0.570   1.082   2.462 -1.2621  1.0631  2.7659
  258SOL     MW 1032   0.651   1.066   2.450 -0.1289  0.1156  0.8190
  259SOL     OW 1033   0.640   0.465   2.468  0.7694  0.9581 -0.3784
  259SOL    HW1 1034   0.575   0.522   2.421  2.0591 -1.5991 -0.9872
  259SOL    HW2 1035   0.630   0.373   2.431  1.4320 -0.9455 -1.4547
  259SOL     MW 1036   0.630   0.461   2.457  1.0270  0.3695 -0.6008
  260SOL     OW 1037   0.626   0.146   1.581 -0.7014 -0.2466  0.3623
  260SOL    HW1 1038   0.614   0.092   1.505  0.0897  0.0303  0.7977
  260SOL    HW2 1039   0.724   0.161   1.579  0.8923  0.2173  2.7003
  260SOL     MW 1040   0.637   0.141   1.571 -0.3867 -0.1488  0.7282
  261SOL     OW 1041   1.105   0.680   2.113  0.6967 -0.6649 -0.0909
  261SOL    HW1 1042   1.160   0.672   2.191 -1.0848 -1.9152  1.7101
  261SOL    HW2 1043   1.139   0.617   2.054 -0.5347  0.9003  0.8963
  261SOL     MW 1044   1.117   0.670   2.115  0.2991 -0.6234  0.2770
  262SOL     OW 1045   1.125   0.350   0.080  0.2845 -0.1062  0.0044
  262SOL    HW1 1046   1.214   0.338   0.046 -1.1244 -2.4059  0.4421
  262SOL    HW2 1047   1.080   0.308   0.011  0.8814  1.4735  2.3237
  262SOL     MW 1048   1.131   0.343   0.066  0.1774 -0.2012  0.3681
  263SOL     OW 1049   0.471   3.015   2.518  1.0378  0.0343 -0.1019
  263SOL    HW1 1050   0.401   3.079   2.514 -2.3564 -0.0021  0.7573
  263SOL    HW2 1051   0.520   3.009   2.431  3.1964  1.7952 -0.5620
  263SOL     MW 1052   0.468   3.023   2.506  0.8748  0.2618 -0.0492
  264SOL     OW 1053   1.553   1.365   1.947  0.1791 -0.2634  0.2316
  264SOL    HW1 1054   1.480   1.370   2.009 -0.9944  2.3171 -3.3230
  264SOL    HW2 1055   1.630   1.348   2.008  0.8008  1.4878  0.0737
  264SOL     MW 1056   1.554   1.363   1.963  0.1063  0.3082 -0.2583
  265SOL     OW 1057   0.676   2.746   2.236 -0.0254 -0.3771  0.3518
  265SOL    HW1 1058   0.750   2.682   2.223 -1.1788  1.2505 -0.1523
  265SOL    HW2 1059   0.680   2.757   2.330  0.7293 -0.1894 -0.1160
  265SOL     MW 1060   0.686   2.739   2.247 -0.0780 -0.1376  0.2236
  266SOL     OW 1061   0.890   0.771   2.270  0.1315  0.6462 -0.1939
  266SOL    HW1 1062   0.966   0.722   2.222  1.8985  1.0566 -1.1356
  266SOL    HW2 1063   0.867   0.711   2.344 -0.6001 -2.9486  0.1288
  266SOL     MW 1064   0.897   0.757   2.273  0.2681  0.2260 -0.2756
  267SOL     OW 1065   1.373   1.816   2.686  0.0335 -0.5865  0.0518
  267SOL    HW1 1066   1.431   1.754   2.638  1.8566 -1.5761 -2.9973
  267SOL    HW2 1067   1.289   1.792   2.658  0.5862 -0.7332  1.7056
  267SOL     MW 1068   1.370   1.805   2.676  0.3470 -0.7364 -0.1323
  268SOL     OW 1069   0.200   0.764   1.699 -0.1058 -0.0365  0.3576
  268SOL    HW1 1070   0.140   0.827   1.665  0.9352 -2.0891 -1.8482
  268SOL    HW2 1071   0.198   0.683   1.640 -2.1596  3.2592  0.8839
  268SOL     MW 1072   0.192   0.762   1.686 -0.2395  0.1275  0.1360
  269SOL     OW 1073   1.449   1.959   2.444  0.2799  0.1809  0.3375
  269SOL    HW1 1074   1.424   1.944   2.538  0.9608  0.0444 -4.2184
  269SOL    HW2 1075   1.364   1.989   2.400 -1.1662 -1.6224  1.1383
  269SOL     MW 1076   1.434   1.961   2.450  0.1789 -0.0750 -0.1580
  270SOL     OW 1077   1.179   0.460   1.623  0.1459  0.1213 -0.1645
  270SOL    HW1 1078   1.153   0.366   1.650 -0.8849 -0.8126  1.0888
  270SOL    HW2 1079   1.264   0.449   1.581 -3.4134  0.4747 -0.1888
  270SOL     MW 1080   1.187   0.446   1.621 -0.4597  0.0447 -0.0024
  271SOL     OW 1081   0.869   3.081   2.401  0.0510 -0.1243 -0.3143
  271SOL    HW1 1082   0.922   3.014   2.452  0.4674  1.7588  1.7843
  271SOL    HW2 1083   0.919   3.164   2.409  2.3017  0.7684 -0.5829
  271SOL     MW 1084   0.883   3.083   2.409  0.4029  0.2419 -0.0729
  272SOL     OW 1085   1.387   3.003   2.824  0.0172 -0.3542  0.1224
  272SOL    HW1 1086   1.340   3.035   2.749 -2.0725  0.6187  0.0025
  272SOL    HW2 1087   1.363   3.071   2.897 -0.6157 -1.3199  2.3114
  272SOL     MW 1088   1.377   3.016   2.824 -0.3420 -0.3533  0.3954
  273SOL     OW 1089   1.446   0.927   2.880  0.0015  0.1504  0.2177
  273SOL    HW1 1090   1.543   0.937   2.863 -0.7767  0.2021  1.2706
  273SOL    HW2 1091   1.413   1.013   2.909  0.1648 -0.7378  2.0378
  273SOL     MW 1092   1.455   0.940   2.881 -0.0796  0.0400  0.5968
  274SOL     OW 1093   1.351   0.731   0.135 -0.0933  0.0194  0.3116
  274SOL    HW1 1094   1.396   0.659   0.181  1.2821 -1.3363  0.2803
  274SOL    HW2 1095   1.251   0.723   0.158 -1.8637 -1.1192 -0.7565
  274SOL     MW 1096   1.344   0.721   0.144 -0.1454 -0.3097  0.1666
  275SOL     OW 1097   1.705   0.682   1.812  0.1940  1.0587  0.3761
  275SOL    HW1 1098   1.750   0.720   1.888 -0.3489 -0.2363 -1.1606
  275SOL    HW2 1099   1.673   0.598   1.842  1.8376 -0.3507 -0.8823
  275SOL     MW 1100   1.707   0.676   1.826  0.3392  0.7019  0.0073
  276SOL     OW 1101   0.254   1.165   1.814  0.5923  0.3811 -0.0922
  276SOL    HW1 1102   0.287   1.081   1.841 -0.4908 -1.3727 -1.9633
  276SOL    HW2 1103   0.174   1.176   1.864  2.0198 -0.0093 -0.5963
  276SOL     MW 1104   0.248   1.155   1.824  0.6377  0.0982 -0.4056
  277SOL     OW 1105   1.950   1.371   2.664 -0.3596 -0.1033 -0.6945
  277SOL    HW1 1106   1.977   1.459   2.675  1.6935  0.9983  1.4091
  277SOL    HW2 1107   2.018   1.323   2.708  0.9464  0.0142  0.3289
  277SOL     MW 1108   1.962   1.376   2.671  0.0836  0.0575 -0.2819
  278SOL     OW 1109   1.421   0.666   1.732 -0.0398 -0.4157 -0.2136
  278SOL    HW1 1110   1.380   0.616   1.807 -0.3766  0.8991  0.6689
  278SOL    HW2 1111   1.508   0.691   1.775  1.7074 -0.9002 -0.0844
  278SOL     MW 1112   1.427   0.663   1.748  0.1462 -0.3061 -0.0801
  279SOL     OW 1113   0.578   3.064   2.278 -0.1202 -0.2046  0.4305
  279SOL    HW1 1114   0.641   2.992   2.251 -1.7588 -3.0682  1.2204
  279SOL    HW2 1115   0.619   3.147   2.258 -2.3818  0.1439 -3.8919
  279SOL     MW 1116   0.592   3.065   2.272 -0.6348 -0.5364 -0.0356
  280SOL     OW 1117   1.477   1.161   2.230  0.7108 -0.4101  0.2726
  280SOL    HW1 1118   1.497   1.081   2.178  1.7162 -0.2419 -1.0641
  280SOL    HW2 1119   1.477   1.115   2.314 -0.8781 -1.5915  1.4781
  280SOL     MW 1120   1.479   1.144   2.235  0.6338 -0.5438  0.2553
  281SOL     OW 1121   1.266   1.427   2.836 -0.3285 -0.3564  0.1233
  281SOL    HW1 1122   1.359   1.460   2.822 -1.8161  3.2046  0.0758
  281SOL    HW2 1123   1.272   1.334   2.843  0.8586 -0.5368 -0.2544
  281SOL     MW 1124   1.279   1.419   2.835 -0.3681  0.0897  0.0672
  282SOL     OW 1125   1.099   1.298   1.691  0.5849  0.1198  0.0152
  282SOL    HW1 1126   1.088   1.372   1.626 -1.5546  2.3071  0.1955
  282SOL    HW2 1127   1.051   1.226   1.653  3.1526 -2.3712  1.8946
  282SOL     MW 1128   1.091   1.299   1.678  0.6414  0.0797  0.2869
  283SOL     OW 1129   0.711   1.221   3.085 -0.2449  0.0205 -0.0721
  283SOL    HW1 1130   0.804   1.199   3.101 -1.4445 -0.8745 -0.0994
  283SOL    HW2 1131   0.694   1.315   3.103  3.2495 -1.1540  1.4057
  283SOL     MW 1132   0.721   1.231   3.089  0.0579 -0.2526  0.1193
  284SOL     OW 1133   0.466   0.616   2.334  0.4486  0.6957 -0.0175
  284SOL    HW1 1134   0.534   0.664   2.276 -0.7902  1.6277  0.4543
  284SOL    HW2 1135   0.453   0.530   2.285  3.1155 -1.5312  1.5275
  284SOL     MW 1136   0.473   0.611   2.320  0.6370  0.5249  0.2486
  285SOL     OW 1137   0.905   0.917   2.820 -0.4688  0.2413  0.7324
  285SOL    HW1 1138   0.896   0.942   2.729 -0.0431  1.3943  3.4040
  285SOL    HW2 1139   0.845   0.840   2.819 -2.3221 -3.1982  1.7430
  285SOL     MW 1140   0.896   0.910   2.808 -0.6571 -0.0604  1.2182
  286SOL     OW 1141   1.166   1.459   2.588  0.5186  0.1384  0.5099
  286SOL    HW1 1142   1.180   1.454   2.686 -1.1239  0.3919  0.6269
  286SOL    HW2 1143   1.181   1.547   2.556  0.6634  0.1685  0.4823
  286SOL     MW 1144   1.170   1.470   2.597  0.3210  0.1758  0.5217
  287SOL     OW 1145   1.060   0.967   0.425 -0.6012 -0.0172 -0.0643
  287SOL    HW1 1146   1.139   0.985   0.478 -1.8023  1.0085  1.8124
  287SOL    HW2 1147   1.027   1.035   0.369 -0.3724 -1.4223 -0.7037
  287SOL     MW 1148   1.066   0.978   0.425 -0.7295 -0.0673  0.0990
  288SOL     OW 1149   1.513   0.656   2.159 -0.0417 -0.3631 -0.3938
  288SOL    HW1 1150   1.485   0.657   2.251 -0.8991 -1.9374 -3.0418
  288SOL    HW2 1151   1.494   0.740   2.121 -0.5866 -0.9213  1.6530
  288SOL     MW 1152   1.507   0.667   2.166 -0.2267 -0.6445 -0.4731
  289SOL     OW 1153   0.899   1.089   2.579  0.6069 -0.2932 -0.2766
  289SOL    HW1 1154   0.952   1.065   2.498 -1.7012 -1.4981 -1.9691
  289SOL    HW2 1155   0.805   1.076   2.548 -1.7235 -0.6677 -2.0310
  289SOL     MW 1156   0.894   1.084   2.564 -0.0051 -0.5016 -0.7314
  290SOL     OW 1157   0.861   0.656   1.527 -0.1072 -1.3304 -0.0651
  290SOL    HW1 1158   0.888   0.591   1.463 -1.0356 -0.2713 -0.0751
  290SOL    HW2 1159   0.902   0.641   1.613  0.8892 -0.2325  1.6265
  290SOL     MW 1160   0.870   0.645   1.530 -0.0982 -1.0458  0.1567
  291SOL     OW 1161   0.204   0.348   0.211 -0.2301 -0.3058  0.2472
  291SOL    HW1 1162   0.290   0.333   0.246 -0.2436 -0.3412 -0.5664
  291SOL    HW2 1163   0.204   0.267   0.161 -1.5216  0.8146  1.4537
  291SOL     MW 1164   0.215   0.335   0.209 -0.4023 -0.1627  0.2990
  292SOL     OW 1165   0.941   0.575   0.084  0.2483 -0.0593  0.2981
  292SOL    HW1 1166   0.987   0.644   0.137  2.2454 -0.8216 -1.1160
  292SOL    HW2 1167   1.000   0.498   0.090 -1.7588 -0.1864 -0.0706
  292SOL     MW 1168   0.955   0.574   0.092  0.2470 -0.1767  0.0629
  293SOL     OW 1169   0.239   0.076   2.495 -0.0819 -0.2429  0.1628
  293SOL    HW1 1170   0.154   0.039   2.473 -0.3195 -1.5940  1.7056
  293SOL    HW2 1171   0.221   0.145   2.561 -2.1471 -1.8466 -0.6780
  293SOL     MW 1172   0.225   0.081   2.501 -0.3857 -0.6328  0.2554
  294SOL     OW 1173   1.465   0.629   2.430  0.6019  0.0979 -0.1287
  294SOL    HW1 1174   1.478   0.712   2.486 -0.4421  2.7172  1.2948
  294SOL    HW2 1175   1.517   0.554   2.467 -2.9477 -0.7713  1.6164
  294SOL     MW 1176   1.474   0.630   2.442 -0.0042  0.3288  0.2894
  295SOL     OW 1177   0.817   0.661   2.518  0.7056  0.0598 -0.6806
  295SOL    HW1 1178   0.744   0.596   2.509  1.2907  1.9890  0.1956
  295SOL    HW2 1179   0.797   0.692   2.608 -0.5989 -0.3049 -0.5393
  295SOL     MW 1180   0.805   0.657   2.528  0.6107  0.2662 -0.5463
  296SOL     OW 1181   1.287   0.313   2.063  0.0445 -0.0048  0.5355
  296SOL    HW1 1182   1.354   0.263   2.025  2.7032  0.5525  4.4386
  296SOL    HW2 1183   1.286   0.267   2.147  2.8562 -0.7110  1.1383
  296SOL     MW 1184   1.296   0.300   2.069  0.7662 -0.0245  1.1300
  297SOL     OW 1185   1.416   0.418   1.493  0.0584  0.1672  0.5263
  297SOL    HW1 1186   1.464   0.503   1.480 -1.9333 -0.6555  1.1462
  297SOL    HW2 1187   1.463   0.380   1.565  0.0228 -0.0301 -1.3923
  297SOL     MW 1188   1.428   0.424   1.501 -0.2090  0.0326  0.3550
  298SOL     OW 1189   1.510   0.917   2.069  0.3558 -0.0731  0.2793
  298SOL    HW1 1190   1.516   0.979   1.996 -0.3162 -1.2364 -1.6559
  298SOL    HW2 1191   1.597   0.907   2.109 -1.5212  2.8935 -0.9938
  298SOL     MW 1192   1.522   0.924   2.065  0.0195  0.1648 -0.1440
  299SOL     OW 1193   0.521   1.034   3.076  0.4610 -0.3181  1.1286
  299SOL    HW1 1194   0.586   1.102   3.073 -0.6605  1.8852 -1.0591
  299SOL    HW2 1195   0.481   1.052   2.985  0.5732  1.9103  0.1200
  299SOL     MW 1196   0.524   1.045   3.063  0.3278  0.2666  0.7069
  300SOL     OW 1197   1.230   1.124   2.504  0.1616  0.2769 -0.1530
  300SOL    HW1 1198   1.181   1.048   2.478 -1.9525 -1.9846  0.0423
  300SOL    HW2 1199   1.180   1.176   2.566 -3.6972  1.6259 -0.0475
  300SOL     MW 1200   1.217   1.121   2.508 -0.6264  0.1565 -0.1133
  301SOL     OW 1201   1.381   0.716   0.581 -0.2195 -0.1391 -0.5263
  301SOL    HW1 1202   1.379   0.708   0.678 -0.0801 -1.0761  0.7037
  301SOL    HW2 1203   1.300   0.672   0.555 -2.6285 -0.8817 -0.7414
  301SOL     MW 1204   1.370   0.709   0.591 -0.5189 -0.3607 -0.3924
  302SOL     OW 1205   0.148   1.446   1.926 -0.4790  0.3368  0.4160
  302SOL    HW1 1206   0.127   1.406   2.010 -1.1794  1.1349 -0.5370
  302SOL    HW2 1207   0.117   1.535   1.934 -0.6664 -2.3815 -0.8505
  302SOL     MW 1208   0.141   1.452   1.938 -0.5961  0.0834  0.1232
  303SOL     OW 1209   0.397   1.775   2.583 -0.4265  0.0640 -0.1351
  303SOL    HW1 1210   0.378   1.755   2.494 -0.7236 -3.5200  1.0653
  303SOL    HW2 1211   0.322   1.816   2.622  0.5367 -0.5854 -0.4049
  303SOL     MW 1212   0.385   1.778   2.576 -0.3386 -0.4945 -0.0123
  304SOL     OW 1213   0.487   2.072   2.427  0.6450  0.1046 -0.1377
  304SOL    HW1 1214   0.521   2.136   2.365  1.1315  0.8322  2.4140
  304SOL    HW2 1215   0.562   2.008   2.421  1.2859  0.9979 -2.3539
  304SOL     MW 1216   0.501   2.072   2.418  0.7937  0.3184 -0.0934
  305SOL     OW 1217   1.171   0.554   0.505 -0.2456 -0.3005  0.1178
  305SOL    HW1 1218   1.083   0.547   0.535 -2.8023  1.3467  3.1539
  305SOL    HW2 1219   1.217   0.470   0.510  0.2799 -0.5109  2.0252
  305SOL     MW 1220   1.166   0.542   0.510 -0.5136 -0.1109  0.7700
  306SOL     OW 1221   1.239   1.437   0.308 -0.2281  0.5132  0.6135
  306SOL    HW1 1222   1.249   1.364   0.370 -0.7348  0.9364 -1.7621
  306SOL    HW2 1223   1.261   1.391   0.226  0.1942  0.3201 -3.8762
  306SOL     MW 1224   1.243   1.421   0.305 -0.2392  0.5435 -0.2923
  307SOL     OW 1225   1.312   0.557   1.966  0.3303  0.0855 -0.5533
  307SOL    HW1 1226   1.285   0.466   1.997 -0.3464 -0.1476 -0.9433
  307SOL    HW2 1227   1.376   0.584   2.028  1.1767  3.2767 -2.9512
  307SOL     MW 1228   1.317   0.548   1.978  0.3527  0.4758 -0.9211
  308SOL     OW 1229   2.111   0.608   2.710 -0.6523 -0.2351 -0.5532
  308SOL    HW1 1230   2.113   0.512   2.732 -1.0552 -1.4835 -0.3898
  308SOL    HW2 1231   2.203   0.626   2.747  0.0208  3.7888 -3.4912
  308SOL     MW 1232   2.124   0.598   2.718 -0.6166  0.1311 -0.9193
  309SOL     OW 1233   0.563   0.485   0.407 -0.3806  0.0604  0.2393
  309SOL    HW1 1234   0.577   0.394   0.430 -0.5853 -0.7342  1.3866
  309SOL    HW2 1235   0.603   0.490   0.318  1.9736  1.7669  0.3301
  309SOL     MW 1236   0.570   0.473   0.398 -0.0970  0.1807  0.4027
  310SOL     OW 1237   0.420   0.525   1.915  0.0971  0.1233  0.0996
  310SOL    HW1 1238   0.475   0.460   1.870  2.0637 -0.1317 -0.0711
  310SOL    HW2 1239   0.477   0.604   1.921 -2.6685  1.7818 -1.3999
  310SOL     MW 1240   0.435   0.527   1.910 -0.0084  0.3085 -0.1207
  311SOL     OW 1241   1.910   0.761   1.978 -0.3331 -0.5833  0.6177
  311SOL    HW1 1242   1.866   0.766   2.063 -1.9498 -2.1553  0.2591
  311SOL    HW2 1243   1.964   0.679   1.973  0.0715  3.1146  1.0689
  311SOL     MW 1244   1.912   0.751   1.988 -0.4930 -0.3028  0.6299
  312SOL     OW 1245   1.750   2.553   0.000  0.4304 -0.4155  0.1595
  312SOL    HW1 1246   1.777   2.552   0.092  2.6167 -1.3686 -0.4830
  312SOL    HW2 1247   1.652   2.558   0.014 -2.3012  1.7399  1.6349
  312SOL     MW 1248   1.741   2.554   0.014  0.3585 -0.2569  0.2694
  313SOL     OW 1249   0.080   1.233   2.956  0.1568  0.4086  0.4575
  313SOL    HW1 1250   0.135   1.181   3.019 -0.6920 -3.3599 -1.1693
  313SOL    HW2 1251   0.144   1.250   2.883 -1.1179  2.7674  0.1304
  313SOL     MW 1252   0.096   1.228   2.955 -0.1233  0.2226  0.1997
  314SOL     OW 1253   2.155   3.046   2.969  0.0190 -0.3951 -0.1265
  314SOL    HW1 1254   2.096   3.107   2.908  1.9294  0.6975 -1.6695
  314SOL    HW2 1255   2.202   3.105   3.027  0.5438  1.2431 -1.5426
  314SOL     MW 1256   2.153   3.062   2.968  0.3403 -0.0348 -0.5169
  315SOL     OW 1257   1.565   1.968   3.027 -0.3110 -0.1991 -0.0675
  315SOL    HW1 1258   1.491   2.009   3.067 -1.0617  1.3132 -0.5550
  315SOL    HW2 1259   1.599   2.041   2.971  1.4313  0.5202 -0.9853
  315SOL     MW 1260   1.560   1.983   3.025 -0.1802  0.0953 -0.2529
  316SOL     OW 1261   1.237   0.672   2.674 -0.1673 -0.0794  0.1121
  316SOL    HW1 1262   1.302   0.609   2.640 -0.1633  0.4446 -1.9841
  316SOL    HW2 1263   1.229   0.663   2.769  0.4930 -2.0759 -3.3896
  316SOL     MW 1264   1.245   0.662   2.682 -0.0797 -0.2737 -0.6265
  317SOL     OW 1265   0.641   1.389   2.568 -0.5774  0.3374  0.1310
  317SOL    HW1 1266   0.642   1.317   2.629  0.8699  1.1025 -3.2865
  317SOL    HW2 1267   0.724   1.404   2.521 -2.8934  0.5960  1.9419
  317SOL     MW 1268   0.652   1.382   2.570 -0.6920  0.4725 -0.0810
  318SOL     OW 1269   1.273   0.335   2.904  0.3047 -0.3635 -0.4120
  318SOL    HW1 1270   1.190   0.396   2.906  1.4488 -0.9944 -1.6823
  318SOL    HW2 1271   1.348   0.389   2.875 -0.7262  1.0132  0.1958
  318SOL     MW 1272   1.272   0.350   2.900  0.3196 -0.2651 -0.4994
  319SOL     OW 1273   0.817   0.405   2.749  0.0358 -0.2573  0.3597
  319SOL    HW1 1274   0.779   0.339   2.686  0.6894  0.4203  0.9725
  319SOL    HW2 1275   0.752   0.417   2.819  0.3217  1.3454  1.3805
  319SOL     MW 1276   0.804   0.398   2.750  0.1597  0.0436  0.5752
  320SOL     OW 1277   1.008   1.323   2.025 -0.4429  0.1191 -0.0006
  320SOL    HW1 1278   1.071   1.259   2.067  2.0255 -0.2648  0.5500
  320SOL    HW2 1279   1.066   1.370   1.961  2.8527 -1.0093  0.2552
  320SOL     MW 1280   1.024   1.320   2.022  0.3176 -0.0805  0.1058
  321SOL     OW 1281   1.102   0.960   2.998 -0.2841 -0.4991  0.3234
  321SOL    HW1 1282   1.052   0.946   2.912 -1.0408  1.7147 -0.1004
  321SOL    HW2 1283   1.145   0.871   3.005 -1.0697  0.5761  0.8635
  321SOL     MW 1284   1.101   0.946   2.987 -0.4876 -0.0651  0.3388
  322SOL     OW 1285   1.207   0.827   1.700 -0.2912 -0.5958  0.1764
  322SOL    HW1 1286   1.285   0.775   1.711 -1.1729 -1.1456 -1.2881
  322SOL    HW2 1287   1.192   0.884   1.773 -0.6428  0.2509  0.0442
  322SOL     MW 1288   1.216   0.828   1.711 -0.4539 -0.5566 -0.0343
  323SOL     OW 1289   1.182   1.504   1.888 -0.0462  0.1066 -0.0156
  323SOL    HW1 1290   1.163   1.437   1.825 -2.8081 -1.8860 -1.5489
  323SOL    HW2 1291   1.115   1.578   1.874  1.0229 -0.2601  0.4005
  323SOL     MW 1292   1.171   1.505   1.878 -0.2695 -0.2047 -0.1630
  324SOL     OW 1293   1.494   1.083   2.489  0.7194 -0.0818 -0.4546
  324SOL    HW1 1294   1.394   1.098   2.482 -1.6052  1.8442 -1.7486
  324SOL    HW2 1295   1.541   1.120   2.565  0.2694  0.1497  0.5456
  324SOL     MW 1296   1.487   1.090   2.498  0.3533  0.2028 -0.4933
  325SOL     OW 1297   1.044   0.483   2.919  0.2321  0.0925 -0.2505
  325SOL    HW1 1298   0.995   0.534   2.979  2.0855 -1.0478  0.5073
  325SOL    HW2 1299   0.980   0.448   2.853  1.7061 -1.7848 -2.1102
  325SOL     MW 1300   1.029   0.485   2.918  0.6711 -0.3056 -0.3958
  326SOL     OW 1301   0.389   1.395   2.187  0.0071 -0.3218  0.4971
  326SOL    HW1 1302   0.441   1.395   2.110  0.2498 -2.1580 -0.9638
  326SOL    HW2 1303   0.395   1.488   2.216 -1.6949  1.7854 -0.8560
  326SOL     MW 1304   0.397   1.407   2.181 -0.1854 -0.2861  0.1258
  327SOL     OW 1305   1.910   0.823   2.413  0.3979  0.5978 -0.5104
  327SOL    HW1 1306   1.899   0.767   2.494 -1.9641 -0.8673  0.5653
  327SOL    HW2 1307   1.993   0.871   2.417  0.5292  1.5212 -0.2461
  327SOL     MW 1308   1.920   0.822   2.424  0.1036  0.5263 -0.3336
  328SOL     OW 1309   0.116   1.332   2.183  0.2516 -0.3129  0.2151
  328SOL    HW1 1310   0.103   1.247   2.136  1.1543 -1.3724  1.2657
  328SOL    HW2 1311   0.208   1.351   2.180 -1.0624 -0.6885 -0.6254
  328SOL     MW 1312   0.126   1.323   2.176  0.1973 -0.5023  0.2428
  329SOL     OW 1313   0.119   0.172   1.393 -0.2357 -0.0745  0.0665
  329SOL    HW1 1314   0.063   0.215   1.451  0.8172 -4.4203 -1.2579
  329SOL    HW2 1315   0.192   0.230   1.363 -0.7000  1.4913 -0.6491
  329SOL     MW 1316   0.121   0.186   1.397 -0.1580 -0.4413 -0.2026
  330SOL     OW 1317   0.398   2.963   2.082  0.1212  0.6600 -0.5626
  330SOL    HW1 1318   0.471   3.004   2.127 -1.6869 -1.7477 -1.7193
  330SOL    HW2 1319   0.333   2.926   2.150 -0.0330 -2.0746  1.1253
  330SOL     MW 1320   0.399   2.963   2.097 -0.1377 -0.0185 -0.4925
  331SOL     OW 1321   0.806   1.203   2.259  0.8012 -0.0929  0.3170
  331SOL    HW1 1322   0.759   1.198   2.175 -0.2413  0.9765 -2.9019
  331SOL    HW2 1323   0.813   1.294   2.282 -0.0435  1.2508 -1.3193
  331SOL     MW 1324   0.800   1.214   2.251  0.5522  0.2255 -0.3236
  332SOL     OW 1325   1.418   1.746   2.966 -0.2817  0.4189  0.2874
  332SOL    HW1 1326   1.434   1.755   2.870 -1.6066 -0.2669 -0.5930
  332SOL    HW2 1327   1.455   1.828   2.994 -0.8440  0.0556  0.1160
  332SOL     MW 1328   1.425   1.758   2.957 -0.5307  0.2804  0.1486
  333SOL     OW 1329   1.729   1.495   3.017 -0.2544  0.2548 -0.0000
  333SOL    HW1 1330   1.824   1.499   3.020 -1.3924  0.9286  1.0956
  333SOL    HW2 1331   1.711   1.437   3.092 -1.5598  0.6489  0.5594
  333SOL     MW 1332   1.739   1.488   3.027 -0.5768  0.3957  0.2183
  334SOL     OW 1333   1.212  -0.004   2.627  0.2561  0.1052  0.6754
  334SOL    HW1 1334   1.132  -0.008   2.677  4.1099  0.3320 -2.0137
  334SOL    HW2 1335   1.256   0.082   2.649  1.1210 -0.0178 -0.9045
  334SOL     MW 1336   1.207   0.007   2.636  0.8787  0.1189  0.1122
  335SOL     OW 1337   1.268   0.745   2.964  0.0166  0.3489  0.7986
  335SOL    HW1 1338   1.295   0.707   3.047  1.3656 -1.6087  2.3793
  335SOL    HW2 1339   1.338   0.803   2.931 -1.3759 -1.9320 -1.2065
  335SOL     MW 1340   1.281   0.748   2.970  0.0109 -0.2103  0.7426
  336SOL     OW 1341   0.901   1.098   1.862 -0.3058  0.7910  0.1069
  336SOL    HW1 1342   0.906   1.188   1.885 -0.4484  0.8113 -0.8130
  336SOL    HW2 1343   0.975   1.047   1.892  0.3864 -2.1256  3.0674
  336SOL     MW 1344   0.912   1.103   1.869 -0.2333  0.4089  0.3761
  337SOL     OW 1345   0.558   1.759   2.837 -0.8142  0.4174  0.3080
  337SOL    HW1 1346   0.511   1.766   2.751 -1.6223  1.8997 -2.0432
  337SOL    HW2 1347   0.647   1.716   2.811 -0.1319 -2.9660  1.4758
  337SOL     MW 1348   0.564   1.754   2.822 -0.8308  0.1666  0.1519
  338SOL     OW 1349   1.053   0.835   2.525  0.1282  0.7229 -0.4800
  338SOL    HW1 1350   0.987   0.762   2.521  1.2040 -1.0794 -1.6105
  338SOL    HW2 1351   1.115   0.799   2.591  0.5958 -2.9891  2.9952
  338SOL     MW 1352   1.052   0.820   2.533  0.3319 -0.0047 -0.1706
  339SOL     OW 1353   1.506   1.127   1.830  0.7146  0.3116  0.2027
  339SOL    HW1 1354   1.454   1.122   1.749  0.1415 -1.5079  0.1843
  339SOL    HW2 1355   1.505   1.216   1.868 -1.9160 -2.1119 -0.9257
  339SOL     MW 1356   1.499   1.138   1.825  0.2919 -0.2482  0.0514
  340SOL     OW 1357   1.328   1.594   0.067  0.3064  0.4553  0.1457
  340SOL    HW1 1358   1.357   1.656   0.003  1.6415  1.4488  3.7499
  340SOL    HW2 1359   1.373   1.612   0.153 -0.7619 -0.2765 -0.2845
  340SOL     MW 1360   1.337   1.604   0.070  0.3416  0.4898  0.5645
  341SOL     OW 1361   0.174   1.342   2.673  0.2866  0.8862 -0.1399
  341SOL    HW1 1362   0.239   1.410   2.644  2.7823 -1.3774 -3.1082
  341SOL    HW2 1363   0.130   1.314   2.592 -0.7736 -1.2323 -2.0632
  341SOL     MW 1364   0.177   1.347   2.658  0.4760  0.3080 -0.7853
  342SOL     OW 1365   1.413   0.291   0.088 -0.0779 -0.1716 -0.5028
  342SOL    HW1 1366   1.436   0.368   0.146 -0.8039  1.6953  1.0828
  342SOL    HW2 1367   1.428   0.315  -0.002 -1.9564 -1.8059 -1.7008
  342SOL     MW 1368   1.418   0.304   0.083 -0.4215 -0.1409 -0.4516
  343SOL     OW 1369   0.185   0.301   2.323  0.0418  0.3445 -0.2540
  343SOL    HW1 1370   0.202   0.223   2.377  2.2696 -0.7369 -0.3145
  343SOL    HW2 1371   0.140   0.262   2.243  0.9948 -0.0640 -0.3363
  343SOL     MW 1372   0.181   0.286   2.319  0.4614  0.1480 -0.2729
  344SOL     OW 1373   1.720   2.158   0.140  0.0788 -0.2151  0.5615
  344SOL    HW1 1374   1.755   2.197   0.060 -1.7984 -4.0016 -0.2611
  344SOL    HW2 1375   1.660   2.083   0.110 -2.1203  0.6438  2.7506
  344SOL     MW 1376   1.716   2.153   0.125 -0.4591 -0.6014  0.7418
  345SOL     OW 1377   0.671   1.620   2.353  0.3635 -0.1227  0.0365
  345SOL    HW1 1378   0.580   1.611   2.326 -0.7627 -1.1791 -1.8211
  345SOL    HW2 1379   0.727   1.566   2.291 -1.1509  1.5021 -1.2474
  345SOL     MW 1380   0.667   1.612   2.341  0.0151 -0.0477 -0.3780
  346SOL     OW 1381   1.693   1.041   0.010  0.6410 -0.0579  0.5296
  346SOL    HW1 1382   1.787   1.047   0.019 -1.5741 -0.7287  2.4114
  346SOL    HW2 1383   1.665   1.008   0.097  1.1239  3.1620  0.6062
  346SOL     MW 1384   1.702   1.038   0.022  0.4125  0.2784  0.7880
  347SOL     OW 1385   1.181   0.619   2.374 -0.0667 -0.2656  0.2912
  347SOL    HW1 1386   1.279   0.596   2.393  0.0608 -0.9480  0.8849
  347SOL    HW2 1387   1.164   0.690   2.431  0.1659 -2.9036  0.8572
  347SOL     MW 1388   1.192   0.625   2.384 -0.0192 -0.7037  0.4442
  348SOL     OW 1389   1.366   2.635   1.870 -0.1938  0.0824  0.3447
  348SOL    HW1 1390   1.400   2.545   1.903  0.7915 -1.5484  3.3989
  348SOL    HW2 1391   1.410   2.707   1.920 -0.2368 -1.4524  0.8681
  348SOL     MW 1392   1.377   2.633   1.881 -0.0695 -0.3353  0.8168
  349SOL     OW 1393   1.364   0.203   2.685 -0.0550  0.5210 -0.0873
  349SOL    HW1 1394   1.333   0.273   2.745  3.4890  2.2795 -1.2944
  349SOL    HW2 1395   1.442   0.156   2.726  0.4115  0.7250  0.7612
  349SOL     MW 1396   1.370   0.206   2.698  0.4741  0.7799 -0.1346
  350SOL     OW 1397   1.867   0.677   2.642  0.2413  0.4666 -0.3952
  350SOL    HW1 1398   1.805   0.612   2.603 -0.5906 -2.4934  2.4931
  350SOL    HW2 1399   1.951   0.631   2.666  1.2978  0.1130  1.7083
  350SOL     MW 1400   1.870   0.662   2.640  0.2710  0.0294  0.2634
  351SOL     OW 1401   3.091   0.928   1.575 -0.0669 -0.0087  0.4115
  351SOL    HW1 1402   3.010   0.959   1.616 -1.1428 -1.2582 -0.5277
  351SOL    HW2 1403   3.154   0.999   1.587  0.8480 -0.3825  1.8367
  351SOL     MW 1404   3.088   0.941   1.582 -0.0882 -0.2229  0.4756
  352SOL     OW 1405   0.775   1.602   2.760  0.1357  0.4474  0.0203
  352SOL    HW1 1406   0.845   1.571   2.829  3.8968 -2.3477  0.4798
  352SOL    HW2 1407   0.753   1.530   2.704 -1.8233  1.5462  0.9188
  352SOL     MW 1408   0.781   1.588   2.762  0.3735  0.2236  0.1995
  353SOL     OW 1409   3.046   2.407   2.752 -0.4812 -0.4848  0.1532
  353SOL    HW1 1410   3.139   2.392   2.748 -0.5868  0.5671 -1.8458
  353SOL    HW2 1411   3.036   2.488   2.702 -0.3497 -0.8845  0.1206
  353SOL     MW 1412   3.057   2.416   2.745 -0.4778 -0.3987 -0.1149
  354SOL     OW 1413   0.406   2.412   0.881  0.1051 -0.3371 -0.0637
  354SOL    HW1 1414   0.431   2.397   0.977 -1.4531 -0.6497 -1.4436
  354SOL    HW2 1415   0.326   2.356   0.879 -1.3385 -2.0021  1.9358
  354SOL     MW 1416   0.399   2.402   0.893 -0.2909 -0.5980  0.0181
  355SOL     OW 1417   0.082   2.260   0.371  0.1185  0.0503  0.6572
  355SOL    HW1 1418   0.006   2.200   0.367 -1.2669 -1.7512  0.7642
  355SOL    HW2 1419   0.082   2.271   0.466  1.3949 -0.6514 -1.2314
  355SOL     MW 1420   0.072   2.253   0.383  0.1041 -0.2800  0.4222
  356SOL     OW 1421   0.784   2.982   0.998  0.1824  0.2828  0.4799
  356SOL    HW1 1422   0.859   2.941   0.955  2.1582 -0.2321 -0.0961
  356SOL    HW2 1423   0.712   2.930   0.961  0.9330  1.0961  2.4549
  356SOL     MW 1424   0.785   2.970   0.988  0.5421  0.3222  0.6645
  357SOL     OW 1425   1.813   2.952   0.361 -0.0874 -0.3291  0.1699
  357SOL    HW1 1426   1.758   2.889   0.406 -2.0068 -0.9557 -0.4922
  357SOL    HW2 1427   1.899   2.918   0.333 -2.7667 -1.3513 -0.7214
  357SOL     MW 1428   1.817   2.939   0.363 -0.6942 -0.5467 -0.0351
  358SOL     OW 1429   0.443   0.180   1.063 -0.7292  0.1369 -0.3982
  358SOL    HW1 1430   0.533   0.169   1.019  3.1259  0.3590 -2.2140
  358SOL    HW2 1431   0.382   0.185   0.989 -2.0654 -1.6063 -0.8228
  358SOL     MW 1432   0.447   0.179   1.047 -0.3968 -0.0638 -0.6938
  359SOL     OW 1433   0.961   2.773   1.871  1.2275 -0.1122 -0.6174
  359SOL    HW1 1434   0.938   2.729   1.949 -1.5883  3.2143 -1.6024
  359SOL    HW2 1435   1.012   2.716   1.815 -0.9396 -1.7085 -2.4180
  359SOL     MW 1436   0.964   2.759   1.874  0.5701  0.1161 -0.9849
  360SOL     OW 1437   0.587   2.773   0.913  0.8892  0.2158  0.3727
  360SOL    HW1 1438   0.589   2.705   0.845  1.6242 -1.5045  0.5104
  360SOL    HW2 1439   0.589   2.739   1.007  0.3085 -0.3149 -0.6836
  360SOL     MW 1440   0.587   2.759   0.916  0.9096 -0.0812  0.2515
  361SOL     OW 1441   0.175   2.766   1.371 -0.4298 -0.1037 -0.3120
  361SOL    HW1 1442   0.149   2.846   1.413 -1.4191 -3.1656 -2.6784
  361SOL    HW2 1443   0.267   2.780   1.342 -1.5554  1.7340 -2.0849
  361SOL     MW 1444   0.184   2.778   1.373 -0.7089 -0.2652 -0.8581
  362SOL     OW 1445   1.486   2.395   0.591 -0.2491 -0.0158 -0.0260
  362SOL    HW1 1446   1.487   2.306   0.634 -1.8452 -0.3647  1.3386
  362SOL    HW2 1447   1.507   2.449   0.669  1.5825 -0.7324 -1.5387
  362SOL     MW 1448   1.489   2.390   0.607 -0.2180 -0.1564 -0.0455
  363SOL     OW 1449   0.211   3.021   0.724 -0.2115 -0.1321  0.4355
  363SOL    HW1 1450   0.214   2.960   0.794 -0.1839  2.7571 -1.3977
  363SOL    HW2 1451   0.126   3.029   0.683 -0.4539  5.1033  3.1285
  363SOL     MW 1452   0.201   3.014   0.728 -0.2398  0.9399  0.5490
  364SOL     OW 1453   0.736   0.196   0.181 -0.0730  0.4076 -0.7061
  364SOL    HW1 1454   0.703   0.107   0.174 -0.7327 -2.0380  1.5751
  364SOL    HW2 1455   0.658   0.257   0.197 -0.5378 -1.6972 -1.0337
  364SOL     MW 1456   0.721   0.192   0.182 -0.2213 -0.1928 -0.4483
  365SOL     OW 1457   0.986   1.973   1.141  0.1742 -0.2128 -0.8073
  365SOL    HW1 1458   0.992   2.059   1.106 -1.9325 -0.6509  0.0644
  365SOL    HW2 1459   0.925   1.928   1.086 -3.2682 -0.0483  1.5326
  365SOL     MW 1460   0.979   1.978   1.129 -0.5579 -0.2489 -0.3836
  366SOL     OW 1461   2.863   2.674   1.031  0.1861  0.2445  0.2197
  366SOL    HW1 1462   2.935   2.664   1.103 -0.0558  1.4776  1.3614
  366SOL    HW2 1463   2.908   2.684   0.946  2.1189  1.2238  0.2988
  366SOL     MW 1464   2.879   2.674   1.029  0.4092  0.5364  0.3807
  367SOL     OW 1465   1.283   2.907   0.892  0.4391  0.2980  0.1400
  367SOL    HW1 1466   1.199   2.960   0.893  1.7387 -3.3802  2.3019
  367SOL    HW2 1467   1.279   2.856   0.807 -0.9313  0.0079 -2.0368
  367SOL     MW 1468   1.272   2.907   0.881  0.4298 -0.2256  0.1381
  368SOL     OW 1469   1.690   0.451   0.662  0.1092 -0.2282 -0.1680
  368SOL    HW1 1470   1.769   0.394   0.655  0.1621 -0.3842  0.5922
  368SOL    HW2 1471   1.715   0.539   0.645  0.4393  2.7075  0.1766
  368SOL     MW 1472   1.704   0.455   0.659  0.1597  0.1386 -0.0223
  369SOL     OW 1473   0.133   2.479   1.750 -0.5887  0.2826 -0.1669
  369SOL    HW1 1474   0.225   2.456   1.777 -0.9061 -0.4700  1.0801
  369SOL    HW2 1475   0.117   2.561   1.785  0.5104 -1.4363  2.9261
  369SOL     MW 1476   0.143   2.487   1.758 -0.4856 -0.0435  0.4057
  370SOL     OW 1477   0.665   0.114   0.936  0.0828 -0.2535  0.6276
  370SOL    HW1 1478   0.741   0.179   0.939  1.2121  0.3936  2.0189
  370SOL    HW2 1479   0.698   0.032   0.981  1.8569 -1.4846  0.1199
  370SOL     MW 1480   0.679   0.112   0.942  0.4659 -0.3306  0.7442
  371SOL     OW 1481   1.336   2.979   1.528 -0.2123  0.0765  0.2746
  371SOL    HW1 1482   1.271   2.902   1.524  0.7754 -1.7436  1.0037
  371SOL    HW2 1483   1.324   3.033   1.451  1.6341  0.7048  1.4847
  371SOL     MW 1484   1.326   2.976   1.518  0.1617 -0.0808  0.5304
  372SOL     OW 1485   0.797   2.263   0.501  0.2389 -0.6389  0.1580
  372SOL    HW1 1486   0.767   2.178   0.544 -0.5986 -1.3354  2.7063
  372SOL    HW2 1487   0.812   2.264   0.405  0.3738  2.4198  1.2086
  372SOL     MW 1488   0.795   2.252   0.494  0.1462 -0.3272  0.6328
  373SOL     OW 1489   2.823   3.008   1.396  0.3118  0.4985 -0.7332
  373SOL    HW1 1490   2.894   2.994   1.331  0.2284  2.0272  0.0642
  373SOL    HW2 1491   2.793   3.098   1.381  2.2996  1.3497  0.8914
  373SOL     MW 1492   2.828   3.018   1.386  0.5631  0.8125 -0.4137
  374SOL     OW 1493   1.488   0.522   0.228  0.1644  0.9188 -0.3423
  374SOL    HW1 1494   1.577   0.547   0.221  0.8597 -1.9129  2.4976
  374SOL    HW2 1495   1.473   0.502   0.316 -1.7826  0.9466 -2.2334
  374SOL     MW 1496   1.498   0.523   0.238 -0.0008  0.5489 -0.2171
  375SOL     OW 1497   1.135   2.100   2.262  0.5936  0.3097  0.4509
  375SOL    HW1 1498   1.159   2.145   2.349  0.3728 -1.5237  2.5157
  375SOL    HW2 1499   1.097   2.014   2.300 -1.0743  0.3924  0.4334
  375SOL     MW 1500   1.133   2.095   2.279  0.3444  0.0787  0.7210
  376SOL     OW 1501   0.695   2.545   0.133 -0.3635 -0.0286  0.1478
  376SOL    HW1 1502   0.701   2.482   0.209 -0.1846  1.9385  1.3703
  376SOL    HW2 1503   0.654   2.488   0.065  0.2704 -3.1114  0.4983
  376SOL     MW 1504   0.690   2.529   0.134 -0.2563 -0.1758  0.3553
  377SOL     OW 1505   1.228   2.073   0.942 -0.4313 -0.0570 -0.1869
  377SOL    HW1 1506   1.158   2.032   0.888 -2.0834  0.6694 -0.4291
  377SOL    HW2 1507   1.254   2.009   1.008 -0.1241  4.9715  1.3170
  377SOL     MW 1508   1.222   2.059   0.944 -0.6088  0.7023 -0.0204
  378SOL     OW 1509   0.965   2.809   1.492 -0.2934 -0.2457  0.4418
  378SOL    HW1 1510   0.913   2.726   1.503 -1.2758 -0.8113 -1.1074
  378SOL    HW2 1511   0.949   2.842   1.401  0.2091 -1.2874 -0.5563
  378SOL     MW 1512   0.956   2.802   1.481 -0.3567 -0.4578  0.1057
  379SOL     OW 1513   1.048   1.841   2.312  0.3469 -0.3647 -0.3426
  379SOL    HW1 1514   0.951   1.846   2.309 -0.8700 -0.4618  1.5631
  379SOL    HW2 1515   1.083   1.766   2.266 -0.2263 -1.4063 -3.5808
  379SOL     MW 1516   1.040   1.832   2.306  0.1108 -0.5150 -0.5184
  380SOL     OW 1517   0.874   0.217   1.554  0.1770  0.1627 -0.0008
  380SOL    HW1 1518   0.902   0.157   1.478  2.8900 -0.9707 -2.1592
  380SOL    HW2 1519   0.948   0.212   1.614  1.6686 -1.0536  1.5113
  380SOL     MW 1520   0.887   0.209   1.552  0.7317 -0.1474 -0.0861
  381SOL     OW 1521   0.826   2.024   0.802 -0.6286 -0.1724 -0.3126
  381SOL    HW1 1522   0.915   2.010   0.767 -1.9300 -0.0858  0.1138
  381SOL    HW2 1523   0.843   2.088   0.875  0.5134 -1.3449  1.3345
  381SOL     MW 1524   0.840   2.031   0.807 -0.6496 -0.3157 -0.0390
  382SOL     OW 1525   0.687   0.041   0.650  0.1748 -0.2982  0.4511
  382SOL    HW1 1526   0.637   0.036   0.730 -1.0382  1.1848  0.4651
  382SOL    HW2 1527   0.688  -0.050   0.620  2.0811  1.6452  1.2797
  382SOL     MW 1528   0.681   0.028   0.656  0.2663  0.1539  0.5623
  383SOL     OW 1529   0.496   0.011   0.348 -0.1967 -0.2721  0.2323
  383SOL    HW1 1530   0.519   0.039   0.440 -0.0399 -1.8758 -1.4758
  383SOL    HW2 1531   0.408  -0.026   0.347  2.8549  0.8949  1.4826
  383SOL     MW 1532   0.488   0.009   0.360  0.2266 -0.3297  0.1719
  384SOL     OW 1533   0.598   2.871   0.580 -0.2437  0.4007 -0.2254
  384SOL    HW1 1534   0.596   2.779   0.613 -0.6770  0.9803 -0.7253
  384SOL    HW2 1535   0.511   2.885   0.542  1.7234  1.2044  3.2789
  384SOL     MW 1536   0.586   2.861   0.579 -0.0414  0.5832  0.1710
  385SOL     OW 1537   1.338   2.063   1.564  0.3398 -0.0116 -0.7985
  385SOL    HW1 1538   1.408   2.066   1.634 -0.4378 -2.5214  1.3554
  385SOL    HW2 1539   1.291   1.982   1.591 -0.8718  1.6915  2.8597
  385SOL     MW 1540   1.341   2.053   1.577  0.0773 -0.1181 -0.0317
  386SOL     OW 1541   1.359   0.432   0.896  0.4672 -0.2862  0.3838
  386SOL    HW1 1542   1.282   0.403   0.847 -1.0170  0.4691 -0.9822
  386SOL    HW2 1543   1.323   0.458   0.981  0.1865 -0.4006  0.4184
  386SOL     MW 1544   1.344   0.432   0.901  0.2344 -0.2017  0.2082
  387SOL     OW 1545   0.895   2.151   1.467 -0.3322 -0.1675  0.0810
  387SOL    HW1 1546   0.944   2.206   1.405 -1.0102 -1.3481  3.0976
  387SOL    HW2 1547   0.904   2.051   1.445 -2.6115 -2.8136 -2.8419
  387SOL     MW 1548   0.903   2.145   1.456 -0.7224 -0.6724  0.0934
  388SOL     OW 1549   1.555   2.849   1.180 -0.3811 -0.4871 -0.1153
  388SOL    HW1 1550   1.482   2.812   1.133 -1.5309  0.3611 -1.3536
  388SOL    HW2 1551   1.626   2.808   1.131 -0.4433 -0.3789 -0.8771
  388SOL     MW 1552   1.555   2.839   1.168 -0.5410 -0.3609 -0.3792
  389SOL     OW 1553   0.405   0.170   3.101 -0.3873  0.7902  0.3134
  389SOL    HW1 1554   0.471   0.116   3.053  0.4136 -0.2935  0.3890
  389SOL    HW2 1555   0.321   0.130   3.085 -4.2250  0.4561  0.5248
  389SOL     MW 1556   0.403   0.158   3.092 -0.7880  0.6031  0.3513
  390SOL     OW 1557   1.376   0.061   0.616 -0.4007 -0.1319 -1.2382
  390SOL    HW1 1558   1.460   0.089   0.578 -0.8542  1.3355  1.0373
  390SOL    HW2 1559   1.384   0.065   0.712  1.0457 -2.2754 -0.7548
  390SOL     MW 1560   1.389   0.065   0.624 -0.2697 -0.2211 -0.8742
  391SOL     OW 1561   0.259   2.308   1.437  0.0663 -0.0438  0.1403
  391SOL    HW1 1562   0.231   2.233   1.497 -2.2989 -0.1425  1.2238
  391SOL    HW2 1563   0.198   2.383   1.440 -1.5553 -1.1685  1.6284
  391SOL     MW 1564   0.247   2.308   1.446 -0.4597 -0.2052  0.4796
  392SOL     OW 1565   1.975   2.163   0.311  0.0751 -0.5082  0.3508
  392SOL    HW1 1566   1.924   2.246   0.336 -0.1079 -0.3569 -1.4389
  392SOL    HW2 1567   2.036   2.152   0.388  0.8083  0.3110  0.7389
  392SOL     MW 1568   1.976   2.173   0.325  0.1477 -0.3802  0.1659
  393SOL     OW 1569   0.212   3.019   2.929  0.6158 -0.3431 -0.0731
  393SOL    HW1 1570   0.277   3.079   2.895 -0.5130 -4.6851 -2.0044
  393SOL    HW2 1571   0.131   3.052   2.886  2.1124  0.2652 -1.7151
  393SOL     MW 1572   0.210   3.031   2.919  0.6643 -0.8357 -0.5445
  394SOL     OW 1573   0.835   1.644   1.430 -0.0757 -0.0052 -0.7235
  394SOL    HW1 1574   0.807   1.638   1.525 -2.8087 -0.0210  0.1834
  394SOL    HW2 1575   0.860   1.737   1.429 -0.4254 -5.1125  2.7434
  394SOL     MW 1576   0.835   1.656   1.442 -0.4824 -0.6811 -0.1464
  395SOL     OW 1577   0.933   2.891   2.581 -0.3560  0.5522 -0.4734
  395SOL    HW1 1578   0.918   2.960   2.646 -0.0680  2.7364  0.8575
  395SOL    HW2 1579   1.027   2.863   2.572  0.8238  0.6943  1.7496
  395SOL     MW 1580   0.943   2.897   2.588 -0.1623  0.8591 -0.0045
  396SOL     OW 1581   0.765   1.870   2.379  0.2622  0.3729  0.5021
  396SOL    HW1 1582   0.819   1.868   2.458  1.2654  1.2115 -1.3315
  396SOL    HW2 1583   0.733   1.779   2.368 -0.4028 -0.8643  1.7259
  396SOL     MW 1584   0.768   1.858   2.388  0.3069  0.3203  0.4217
  397SOL     OW 1585   1.019   2.353   1.321 -0.0489 -0.0128  0.4387
  397SOL    HW1 1586   1.058   2.399   1.241 -0.4345 -2.8877 -1.4920
  397SOL    HW2 1587   1.097   2.351   1.381  1.6750 -0.1147  2.3612
  397SOL     MW 1588   1.034   2.359   1.318  0.1277 -0.4056  0.4376
  398SOL     OW 1589   0.593   2.602   0.689  0.9101  0.1655  0.1938
  398SOL    HW1 1590   0.526   2.526   0.683 -0.2549 -0.2612  3.2634
  398SOL    HW2 1591   0.669   2.574   0.640  3.2137  1.1349 -0.8087
  398SOL     MW 1592   0.594   2.588   0.682  1.0603  0.2371  0.4665
  399SOL     OW 1593   0.283   2.060   0.353  0.1491 -0.0212  0.3297
  399SOL    HW1 1594   0.226   2.128   0.378  3.1443 -1.3928  0.2137
  399SOL    HW2 1595   0.344   2.097   0.289 -1.7493 -0.7760  2.7969
  399SOL     MW 1596   0.283   2.074   0.348  0.2938 -0.3018  0.6399
  400SOL     OW 1597   0.627   1.850   0.183 -0.0047  0.2989 -0.2670
  400SOL    HW1 1598   0.602   1.942   0.188  1.1257  0.3546  0.1308
  400SOL    HW2 1599   0.554   1.812   0.235 -0.3263  0.3199  0.1770
  400SOL     MW 1600   0.614   1.857   0.191  0.1020  0.3091 -0.1559
  401SOL     OW 1601   1.025   2.094   0.046 -0.3955 -0.1586 -0.0756
  401SOL    HW1 1602   1.003   1.999   0.061 -0.7776 -2.8101  2.7714
  401SOL    HW2 1603   1.076   2.125   0.126 -0.3824  1.0645 -0.9253
  401SOL     MW 1604   1.028   2.085   0.059 -0.4442 -0.3471  0.1879
  402SOL     OW 1605   0.699   2.832   1.718  0.3945  0.8899  0.5858
  402SOL    HW1 1606   0.635   2.819   1.791 -0.2103 -0.6471 -0.9405
  402SOL    HW2 1607   0.782   2.841   1.762 -0.2054 -1.0204 -0.7616
  402SOL     MW 1608   0.702   2.832   1.734  0.2355  0.4351  0.2066
  403SOL     OW 1609   0.050   0.553   0.370 -0.2793 -0.3410  0.6522
  403SOL    HW1 1610   0.140   0.571   0.404  1.7363  1.2299  0.7922
  403SOL    HW2 1611   0.065   0.463   0.325 -0.6290 -1.7945  0.7127
  403SOL     MW 1612   0.064   0.543   0.368 -0.0595 -0.3255  0.6786
  404SOL     OW 1613   0.973   2.890   0.833 -0.0199  0.1983 -0.6172
  404SOL    HW1 1614   1.044   2.836   0.791 -2.0270 -1.1588  0.3318
  404SOL    HW2 1615   0.969   2.972   0.781  0.4890 -1.5578 -1.1671
  404SOL     MW 1616   0.982   2.894   0.821 -0.2176 -0.2125 -0.5646
  405SOL     OW 1617   0.470   2.462   1.555  0.0624  0.1048 -0.0491
  405SOL    HW1 1618   0.482   2.543   1.509  0.6028  1.6624 -3.1986
  405SOL    HW2 1619   0.405   2.407   1.501  2.6064 -0.9810  3.1471
  405SOL     MW 1620   0.463   2.466   1.542  0.4694  0.1671 -0.0429
  406SOL     OW 1621   0.416   2.396   1.148 -0.1126 -0.2588 -0.3558
  406SOL    HW1 1622   0.322   2.408   1.163  0.7763 -1.1289  2.8919
  406SOL    HW2 1623   0.439   2.316   1.206 -0.6062 -2.9896  0.6103
  406SOL     MW 1624   0.406   2.387   1.158 -0.0605 -0.7339  0.2002
  407SOL     OW 1625   0.008   2.675   1.161  0.1995  0.0240 -0.2298
  407SOL    HW1 1626   0.048   2.714   1.237 -0.0412 -0.4967 -5.4568
  407SOL    HW2 1627   0.079   2.675   1.100  1.2059 -0.1531  2.3336
  407SOL     MW 1628   0.023   2.680   1.163  0.3006 -0.0680 -0.5813
  408SOL     OW 1629   2.115   2.134   0.554  0.2052  0.8605  0.3185
  408SOL    HW1 1630   2.102   2.216   0.599 -0.1778 -0.9334 -0.1617
  408SOL    HW2 1631   2.031   2.071   0.554 -2.5570 -1.2307 -2.0698
  408SOL     MW 1632   2.102   2.137   0.560 -0.2098  0.3479 -0.0599
  409SOL     OW 1633   1.380   0.136   0.887 -0.2080 -0.3687  0.3211
  409SOL    HW1 1634   1.434   0.202   0.922 -0.5012 -2.9053 -0.3806
  409SOL    HW2 1635   1.413   0.061   0.938 -0.9141 -1.1580 -0.1030
  409SOL     MW 1636   1.391   0.135   0.898 -0.3398 -0.8075  0.1725
  410SOL     OW 1637   1.085   2.491   1.078  0.0959 -0.0376 -0.3178
  410SOL    HW1 1638   1.009   2.483   1.024  0.1750  0.1710  2.2332
  410SOL    HW2 1639   1.160   2.450   1.029  1.1870 -0.4736  2.4085
  410SOL     MW 1640   1.085   2.484   1.065  0.2503 -0.0676  0.3785
  411SOL     OW 1641   1.964   0.124   2.844  0.8584  0.7263 -0.2125
  411SOL    HW1 1642   1.910   0.105   2.766  0.7491  4.7852 -1.4550
  411SOL    HW2 1643   1.902   0.152   2.916 -0.2557  2.0237  0.2649
  411SOL     MW 1644   1.949   0.125   2.843  0.6970  1.4330 -0.3134
  412SOL     OW 1645   1.077   2.210   0.558  0.4910 -0.3776  0.2364
  412SOL    HW1 1646   1.143   2.280   0.579 -0.4270  0.8860 -0.5913
  412SOL    HW2 1647   0.990   2.252   0.553  1.8306  3.0126 -0.2550
  412SOL     MW 1648   1.074   2.225   0.561  0.5466  0.2365  0.0623
  413SOL     OW 1649   0.549   2.787   0.175 -0.0634  0.0709  0.0596
  413SOL    HW1 1650   0.595   2.697   0.178 -0.5220 -2.2938  1.0192
  413SOL    HW2 1651   0.566   2.823   0.084 -1.7953  0.6586  0.1629
  413SOL     MW 1652   0.557   2.780   0.163 -0.3524 -0.1635  0.1999
  414SOL     OW 1653   1.999   3.021   1.044 -0.2617  0.0663  0.6026
  414SOL    HW1 1654   1.946   2.990   0.964  1.0414  3.2069  0.2887
  414SOL    HW2 1655   2.066   2.957   1.070  2.1799  1.3375  2.7926
  414SOL     MW 1656   2.001   3.009   1.037  0.2324  0.6484  0.8501
  415SOL     OW 1657   1.753   2.691   1.064 -0.3808 -0.1162 -0.2199
  415SOL    HW1 1658   1.696   2.633   1.116  1.3625 -0.5254  1.5002
  415SOL    HW2 1659   1.828   2.714   1.122 -0.5957 -1.0846 -2.9800
  415SOL     MW 1660   1.755   2.687   1.079 -0.1791 -0.2980 -0.3571
  416SOL     OW 1661   0.607   1.936   1.369 -0.0272 -0.0728  0.3086
  416SOL    HW1 1662   0.559   2.018   1.347  0.2454  0.5148  0.5166
  416SOL    HW2 1663   0.598   1.886   1.283  0.1675  1.4438 -1.9652
  416SOL     MW 1664   0.599   1.940   1.355  0.0345  0.2049  0.0361
  417SOL     OW 1665   1.058   3.017   1.969 -1.1056  0.0490  0.4295
  417SOL    HW1 1666   1.003   3.018   2.051 -3.6097 -2.4765  0.6409
  417SOL    HW2 1667   1.030   2.940   1.916 -0.7911  1.3952 -1.2959
  417SOL     MW 1668   1.047   3.007   1.973 -1.3945 -0.1066  0.2297
  418SOL     OW 1669   0.738   2.997   0.194 -0.1449  0.0028 -0.0220
  418SOL    HW1 1670   0.772   2.947   0.119 -0.5197  1.2370  0.5055
  418SOL    HW2 1671   0.649   2.960   0.200  0.4839 -0.6020  1.2408
  418SOL     MW 1672   0.730   2.986   0.185 -0.1114  0.0859  0.2142
  419SOL     OW 1673   0.443   2.697   1.399  0.3188  0.3349  0.0156
  419SOL    HW1 1674   0.505   2.761   1.441 -0.2358 -0.9034  1.1161
  419SOL    HW2 1675   0.491   2.685   1.316  0.4199  1.6153 -1.3196
  419SOL     MW 1676   0.458   2.704   1.394  0.2590  0.3405 -0.0154
  420SOL     OW 1677   0.910   2.214   1.020 -0.3849 -0.4552 -0.0290
  420SOL    HW1 1678   0.853   2.218   1.099  1.8585 -0.5359  3.0274
  420SOL    HW2 1679   0.909   2.296   0.970  2.3087 -0.4574  1.0264
  420SOL     MW 1680   0.903   2.225   1.024  0.2665 -0.4662  0.5135
  421SOL     OW 1681   2.936   0.103   0.037  0.0644 -0.6503 -0.6834
  421SOL    HW1 1682   2.912   0.108  -0.052  1.6484 -2.3886  3.0108
  421SOL    HW2 1683   2.923   0.011   0.055 -2.6835  1.0778  1.3167
  421SOL     MW 1684   2.931   0.091   0.027 -0.0892 -0.6516  0.0679
  422SOL     OW 1685   0.871   2.461   0.872 -0.0529  0.1539 -0.4817
  422SOL    HW1 1686   0.791   2.510   0.892  0.2230 -0.6467 -0.1721
  422SOL    HW2 1687   0.895   2.502   0.788 -1.1475 -2.8126  1.8265
  422SOL     MW 1688   0.863   2.473   0.864 -0.1609 -0.3431 -0.1363
  423SOL     OW 1689   1.601   0.138   0.502 -0.4042  0.4248 -0.2306
  423SOL    HW1 1690   1.605   0.098   0.416 -0.3056 -0.1748  0.3610
  423SOL    HW2 1691   1.572   0.226   0.484  3.4080 -0.2659 -1.4659
  423SOL     MW 1692   1.598   0.144   0.488  0.1118  0.2546 -0.3155
  424SOL     OW 1693   0.742   2.200   1.241  0.1967  0.2807  0.2264
  424SOL    HW1 1694   0.645   2.208   1.256 -0.3582 -0.7663  2.7241
  424SOL    HW2 1695   0.775   2.184   1.329 -2.4470  1.0121  1.2976
  424SOL     MW 1696   0.733   2.199   1.255 -0.2253  0.2391  0.6973
  425SOL     OW 1697   1.736   2.847   2.036  0.2086  0.4149 -0.0760
  425SOL    HW1 1698   1.743   2.836   1.938  1.3583  0.5753 -1.0057
  425SOL    HW2 1699   1.751   2.761   2.071  0.0854  2.0163 -1.7753
  425SOL     MW 1700   1.739   2.834   2.027  0.3441  0.6473 -0.4228
  426SOL     OW 1701   0.736   1.603   1.915 -0.1616  0.3883  0.3478
  426SOL    HW1 1702   0.725   1.635   1.826  0.1824  3.4953 -0.9263
  426SOL    HW2 1703   0.726   1.677   1.978  2.2984  0.0051  0.1352
  426SOL     MW 1704   0.733   1.617   1.912  0.2084  0.7477  0.1517
  427SOL     OW 1705   0.382   1.548   1.854  0.6270 -0.1217  0.1404
  427SOL    HW1 1706   0.453   1.498   1.824 -0.8791  3.9217  1.2517
  427SOL    HW2 1707   0.302   1.495   1.880  0.0846  0.3388 -0.4139
  427SOL     MW 1708   0.381   1.534   1.853  0.3567  0.4726  0.2139
  428SOL     OW 1709   0.593   2.634   1.158 -0.0949  0.1653 -0.6271
  428SOL    HW1 1710   0.656   2.601   1.227  1.0514 -1.7393  0.9455
  428SOL    HW2 1711   0.518   2.574   1.150 -0.9249  1.9978  1.3560
  428SOL     MW 1712   0.592   2.622   1.166 -0.0532  0.1558 -0.1580
  429SOL     OW 1713   1.326   2.703   1.051  0.1140 -0.2371  0.3428
  429SOL    HW1 1714   1.238   2.666   1.063 -1.3693 -1.6188 -0.5308
  429SOL    HW2 1715   1.302   2.781   0.998 -0.4456 -1.3306  2.8927
  429SOL     MW 1716   1.311   2.709   1.046 -0.1555 -0.5636  0.5639
  430SOL     OW 1717   1.172   2.736   0.701  0.3927 -0.4832 -0.2173
  430SOL    HW1 1718   1.215   2.653   0.718  0.6110 -1.3373 -0.1201
  430SOL    HW2 1719   1.147   2.717   0.610  0.2778 -0.9120  0.5345
  430SOL     MW 1720   1.174   2.723   0.691  0.4063 -0.6525 -0.1053
  431SOL     OW 1721   0.345   1.961   1.135 -0.6258 -0.7954  0.4393
  431SOL    HW1 1722   0.432   1.941   1.113 -2.1713  0.4933  0.2517
  431SOL    HW2 1723   0.307   1.999   1.054 -0.4344 -0.6962 -1.0882
  431SOL     MW 1724   0.351   1.964   1.121 -0.8045 -0.6123  0.2130
  432SOL     OW 1725   0.093   0.018   1.147 -0.8161  0.0138  0.3865
  432SOL    HW1 1726   0.094   0.045   1.234 -1.7973 -1.3885 -0.4733
  432SOL    HW2 1727   0.016  -0.032   1.147 -0.9725  0.7973  0.2352
  432SOL     MW 1728   0.083   0.015   1.159 -0.9662 -0.0678  0.2531
  433SOL     OW 1729   0.657   2.871   1.462  0.2180  0.0407 -0.3132
  433SOL    HW1 1730   0.688   2.869   1.554  1.3750 -0.2583 -2.4254
  433SOL    HW2 1731   0.735   2.898   1.411 -0.4857 -4.2083  1.4669
  433SOL     MW 1732   0.671   2.874   1.467  0.2778 -0.5594 -0.3570
  434SOL     OW 1733   1.555   2.809   1.491 -0.3269 -0.1514 -0.3598
  434SOL    HW1 1734   1.478   2.863   1.514  2.7360 -0.1783  0.9468
  434SOL    HW2 1735   1.549   2.793   1.397 -1.0479 -2.4482 -1.2999
  434SOL     MW 1736   1.544   2.814   1.482 -0.0179 -0.4580 -0.3114
  435SOL     OW 1737   2.858   1.803   0.232  0.4452 -0.3796  0.2000
  435SOL    HW1 1738   2.909   1.876   0.196  0.3513  0.2250  0.1662
  435SOL    HW2 1739   2.855   1.741   0.162 -0.8032  3.2196 -0.6821
  435SOL     MW 1740   2.864   1.804   0.218  0.2681  0.1750  0.0791
  436SOL     OW 1741   1.451   2.783   0.311 -0.1050 -0.1220 -0.1658
  436SOL    HW1 1742   1.527   2.786   0.376 -0.6335  0.7435 -0.7220
  436SOL    HW2 1743   1.387   2.845   0.346  1.0711 -1.9208  2.9032
  436SOL     MW 1744   1.452   2.792   0.324 -0.0196 -0.2451  0.1657
  437SOL     OW 1745   0.866   2.951   1.273  0.6639 -0.1340  0.1179
  437SOL    HW1 1746   0.880   3.045   1.301 -2.2822  1.8094  2.6313
  437SOL    HW2 1747   0.817   2.970   1.192  0.0913  0.0434  1.0196
  437SOL     MW 1748   0.862   2.966   1.266  0.1996  0.1458  0.5685
  438SOL     OW 1749   0.850   2.535   2.009  0.5939  0.4451 -0.5105
  438SOL    HW1 1750   0.834   2.498   2.101 -0.1216  1.5610 -3.5322
  438SOL    HW2 1751   0.771   2.497   1.970  0.7556  1.8887  0.6338
  438SOL     MW 1752   0.838   2.525   2.016  0.5208  0.7828 -0.7582
  439SOL     OW 1753   1.148   2.163   0.301  0.0506 -0.3250  0.6474
  439SOL    HW1 1754   1.089   2.178   0.379  1.1049  2.0245 -1.0903
  439SOL    HW2 1755   1.154   2.253   0.258  0.7652 -1.9177 -1.9079
  439SOL     MW 1756   1.141   2.177   0.306  0.2840 -0.2251  0.0810
  440SOL     OW 1757   1.642   3.033   2.985  0.7519 -0.5733  0.3168
  440SOL    HW1 1758   1.607   3.026   3.073  0.8076  3.0396  0.9115
  440SOL    HW2 1759   1.701   2.957   2.976  1.2629  1.0805 -0.3689
  440SOL     MW 1760   1.645   3.022   2.995  0.8266  0.1216  0.3048
  441SOL     OW 1761   0.328   2.567   0.539 -0.0255  0.0294  0.1171
  441SOL    HW1 1762   0.311   2.544   0.444  0.3786  1.1333  1.9609
  441SOL    HW2 1763   0.332   2.664   0.531  1.4691  0.0422 -0.6492
  441SOL     MW 1764   0.326   2.577   0.526  0.2250  0.1767  0.2593
  442SOL     OW 1765   0.025   2.333   0.625  0.4375  0.3176 -0.1867
  442SOL    HW1 1766   0.019   2.425   0.604 -0.8699 -3.0385 -1.9765
  442SOL    HW2 1767  -0.065   2.323   0.655  2.0492  0.1435 -1.4924
  442SOL     MW 1768   0.013   2.344   0.626  0.4776 -0.1482 -0.5951
  443SOL     OW 1769   1.403   1.725   1.846 -0.6231 -0.1019  0.1946
  443SOL    HW1 1770   1.382   1.751   1.762  0.3413 -2.2338  0.9173
  443SOL    HW2 1771   1.363   1.634   1.851 -2.8927 -2.6186 -2.4307
  443SOL     MW 1772   1.395   1.717   1.836 -0.7953 -0.7153 -0.0564
  444SOL     OW 1773   0.855   2.576   1.581 -0.0926  0.1344 -0.4362
  444SOL    HW1 1774   0.916   2.521   1.643  0.7592 -0.1186  1.2889
  444SOL    HW2 1775   0.776   2.579   1.631 -2.1243  0.2647 -2.1365
  444SOL     MW 1776   0.853   2.569   1.596 -0.2483  0.1182 -0.4330
  445SOL     OW 1777   0.950   0.109   1.319 -0.0019 -0.2035 -0.2435
  445SOL    HW1 1778   0.904   0.189   1.296  1.8585 -2.7103  0.6604
  445SOL    HW2 1779   1.016   0.103   1.254 -1.3899  0.0706  0.1469
  445SOL     MW 1780   0.953   0.119   1.308  0.0604 -0.4981 -0.0727
  446SOL     OW 1781   2.744   2.916   1.025  0.1771  0.5755 -0.6735
  446SOL    HW1 1782   2.675   2.936   0.959  0.2469  0.7003 -1.8710
  446SOL    HW2 1783   2.769   2.820   1.011  0.8568  0.8606  1.2928
  446SOL     MW 1784   2.738   2.906   1.014  0.2760  0.6296 -0.5721
  447SOL     OW 1785   3.027   2.055   1.698  0.0686  0.1532  0.3551
  447SOL    HW1 1786   3.091   1.995   1.739  2.1540  2.3554 -0.5610
  447SOL    HW2 1787   2.978   2.007   1.628 -0.1685 -1.5753 -2.9455
  447SOL     MW 1788   3.029   2.041   1.694  0.3124  0.2157 -0.2013
  448SOL     OW 1789   1.660   2.363   1.656  0.1210 -0.0142  0.0040
  448SOL    HW1 1790   1.592   2.293   1.660 -0.3521  0.9143 -1.9878
  448SOL    HW2 1791   1.611   2.445   1.657  1.2786 -3.3452  0.1805
  448SOL     MW 1792   1.645   2.365   1.657  0.2113 -0.3312 -0.2355
  449SOL     OW 1793   0.829   2.871   0.410  0.4659  0.0910  0.0236
  449SOL    HW1 1794   0.796   2.918   0.335  1.8064  2.2247  1.6571
  449SOL    HW2 1795   0.752   2.855   0.467 -1.5637 -0.5504  0.2937
  449SOL     MW 1796   0.815   2.875   0.408  0.3750  0.2879  0.2748
  450SOL     OW 1797   1.221   2.426   0.635  0.0150 -0.1976 -0.2438
  450SOL    HW1 1798   1.239   2.426   0.734  1.0716 -0.4058  1.8061
  450SOL    HW2 1799   1.311   2.439   0.606 -0.3977  0.4215  0.3933
  450SOL     MW 1800   1.235   2.427   0.645  0.1000 -0.1434  0.1107
  451SOL     OW 1801   0.617   1.956   1.672  0.1479  0.0664  0.2946
  451SOL    HW1 1802   0.674   2.035   1.686 -1.8818 -0.2193  0.2769
  451SOL    HW2 1803   0.610   1.953   1.576  0.4967 -1.3517 -0.5820
  451SOL     MW 1804   0.624   1.966   1.661 -0.0739 -0.1584  0.1766
  452SOL     OW 1805   0.271   2.691   0.083  0.6086 -0.0442  0.5071
  452SOL    HW1 1806   0.360   2.731   0.097  1.5854  3.9839  0.1775
  452SOL    HW2 1807   0.274   2.658  -0.008  0.7781  1.8035  1.2125
  452SOL     MW 1808   0.283   2.692   0.073  0.7599  0.7311  0.5567
  453SOL     OW 1809   0.405   2.989   1.629 -0.2866 -0.6770  0.1222
  453SOL    HW1 1810   0.469   3.033   1.566  0.1536  1.8569 -0.9225
  453SOL    HW2 1811   0.316   2.986   1.590 -1.8216  3.5657  0.4498
  453SOL     MW 1812   0.402   2.994   1.616 -0.4310  0.2171  0.0276
  454SOL     OW 1813   1.050   2.768   1.168 -0.0612  0.5299 -0.2807
  454SOL    HW1 1814   1.026   2.685   1.127  0.4860  3.3261 -0.0526
  454SOL    HW2 1815   0.968   2.816   1.187 -2.1108 -0.2641 -0.0691
  454SOL     MW 1816   1.036   2.763   1.165 -0.2594  0.7941 -0.2227
  455SOL     OW 1817   1.598   2.947   0.154 -0.3838 -0.3223  0.1540
  455SOL    HW1 1818   1.671   2.953   0.212  0.9989 -2.5249  0.6121
  455SOL    HW2 1819   1.525   2.897   0.198  0.3226 -0.7013  3.4049
  455SOL     MW 1820   1.598   2.941   0.168 -0.1081 -0.6629  0.6433
  456SOL     OW 1821   2.918   0.303   1.390  0.6791 -0.4813  0.1296
  456SOL    HW1 1822   2.852   0.246   1.347 -0.4704 -4.3666 -1.3244
  456SOL    HW2 1823   2.968   0.341   1.320 -1.7075 -1.0213  0.0156
  456SOL     MW 1824   2.916   0.301   1.375  0.2125 -1.0652 -0.0773
  457SOL     OW 1825   0.903   1.550   2.999 -0.7151 -0.1975  0.6657
  457SOL    HW1 1826   0.840   1.554   3.069 -1.1208 -1.0569 -1.9820
  457SOL    HW2 1827   0.978   1.498   3.031 -1.7835  0.7491 -1.5400
  457SOL     MW 1828   0.905   1.544   3.012 -0.9096 -0.1860  0.0253
  458SOL     OW 1829   1.452   1.399   0.610 -0.4679  0.3957  0.6347
  458SOL    HW1 1830   1.386   1.439   0.662  1.8967  1.9467  2.5541
  458SOL    HW2 1831   1.411   1.343   0.545 -0.7640 -0.7258 -1.3679
  458SOL     MW 1832   1.438   1.397   0.608 -0.1950  0.4524  0.6237
  459SOL     OW 1833   1.582   0.102   0.226  0.1736  0.4259 -0.0882
  459SOL    HW1 1834   1.580   0.006   0.202 -0.6871 -0.3448 -0.6264
  459SOL    HW2 1835   1.510   0.137   0.178 -1.0717  1.3989  1.3628
  459SOL     MW 1836   1.572   0.094   0.217 -0.1043  0.4526  0.0323
  460SOL     OW 1837   1.737   2.155   0.600 -0.6043 -0.0100 -0.1370
  460SOL    HW1 1838   1.667   2.128   0.654 -0.5087  3.9220 -3.6974
  460SOL    HW2 1839   1.780   2.063   0.580  1.0837  0.9867 -0.4470
  460SOL     MW 1840   1.733   2.139   0.604 -0.3690  0.6403 -0.6477
  461SOL     OW 1841   0.416   2.325   0.616  0.8806 -0.0871 -0.2629
  461SOL    HW1 1842   0.400   2.416   0.575 -1.7573 -0.0343  0.0347
  461SOL    HW2 1843   0.407   2.353   0.704  1.2613 -0.7643 -0.7134
  461SOL     MW 1844   0.413   2.341   0.622  0.5828 -0.1695 -0.2831
  462SOL     OW 1845   0.403   0.280   1.302 -0.4001  0.8875 -0.1939
  462SOL    HW1 1846   0.419   0.244   1.213 -2.4109 -0.9416 -2.3157
  462SOL    HW2 1847   0.488   0.332   1.321  2.8115 -1.8937  1.3278
  462SOL     MW 1848   0.416   0.282   1.293 -0.2416  0.2792 -0.2731
  463SOL     OW 1849   0.995   0.039   0.706  0.5752  0.3475  0.3311
  463SOL    HW1 1850   1.028   0.034   0.614 -1.8007  2.0107  1.6937
  463SOL    HW2 1851   0.904   0.063   0.694  0.5242  2.6164  0.3388
  463SOL     MW 1852   0.987   0.042   0.692  0.2550  0.8663  0.5119
  464SOL     OW 1853   0.848   2.978   2.152 -0.0571 -0.1078  0.2889
  464SOL    HW1 1854   0.802   2.894   2.157 -0.2826  0.9897  0.4416
  464SOL    HW2 1855   0.865   3.028   2.233  1.1684 -1.2477 -3.2493
  464SOL     MW 1856   0.844   2.973   2.163  0.0748 -0.1134 -0.1578
  465SOL     OW 1857   0.698   0.230   0.461  0.7644 -0.7004  0.4121
  465SOL    HW1 1858   0.702   0.164   0.531  3.1790  1.8563  0.8993
  465SOL    HW2 1859   0.723   0.176   0.383 -0.0016 -1.1448  0.1391
  465SOL     MW 1860   0.702   0.214   0.460  0.9819 -0.4217  0.4404
  466SOL     OW 1861   1.091   1.978   0.712 -0.0803 -0.2374 -0.9051
  466SOL    HW1 1862   1.098   1.914   0.642 -0.1742  0.6859 -0.1394
  466SOL    HW2 1863   1.084   2.071   0.671  0.2070  0.1876 -1.9236
  466SOL     MW 1864   1.091   1.982   0.698 -0.0548 -0.0595 -0.9385
  467SOL     OW 1865   1.284   2.336   0.957  0.4150 -0.8511  0.3006
  467SOL    HW1 1866   1.372   2.338   0.988  2.0130 -2.2802  2.2642
  467SOL    HW2 1867   1.269   2.236   0.942 -2.1892 -0.5285  2.1657
  467SOL     MW 1868   1.294   2.323   0.959  0.2823 -0.9971  0.8057
  468SOL     OW 1869   0.320   2.598   2.001 -0.1177  0.4365 -0.3986
  468SOL    HW1 1870   0.306   2.503   1.991 -0.4507  0.5170  0.7877
  468SOL    HW2 1871   0.356   2.630   1.915 -0.5342  0.7417 -1.3706
  468SOL     MW 1872   0.323   2.590   1.988 -0.2166  0.4874 -0.3704
  469SOL     OW 1873   0.400   2.073   1.829  0.0238  0.4898  0.6788
  469SOL    HW1 1874   0.325   2.041   1.781 -0.0452  1.9510  2.7949
  469SOL    HW2 1875   0.482   2.029   1.788  0.3909 -2.6386  0.2406
  469SOL     MW 1876   0.401   2.063   1.817  0.0631  0.2698  0.9002
  470SOL     OW 1877   3.097   2.540   0.181 -0.6126 -0.6522 -0.5217
  470SOL    HW1 1878   3.014   2.510   0.222 -1.3084  0.8421  1.2744
  470SOL    HW2 1879   3.087   2.551   0.084 -2.3811 -0.1482 -1.5654
  470SOL     MW 1880   3.085   2.537   0.173 -0.9377 -0.3886 -0.4224
  471SOL     OW 1881   1.198   2.721   1.396 -0.6276 -0.7304 -0.3976
  471SOL    HW1 1882   1.117   2.748   1.442  0.2016 -0.5056  1.6202
  471SOL    HW2 1883   1.174   2.725   1.307  0.9657 -1.5135 -0.7982
  471SOL     MW 1884   1.184   2.725   1.390 -0.3080 -0.8040 -0.1842
  472SOL     OW 1885   2.934   2.128   0.384 -0.2692 -0.2533 -0.2546
  472SOL    HW1 1886   2.955   2.099   0.288 -0.0915  1.6309 -0.1874
  472SOL    HW2 1887   2.902   2.047   0.422 -1.2635  0.4059  1.3427
  472SOL     MW 1888   2.932   2.113   0.377 -0.3770  0.0823 -0.0350
  473SOL     OW 1889   0.790   2.517   1.310  0.2053  0.2919  0.1164
  473SOL    HW1 1890   0.862   2.450   1.303  0.9666 -0.0940  0.6924
  473SOL    HW2 1891   0.805   2.541   1.402 -2.3559 -1.7919  0.0977
  473SOL     MW 1892   0.802   2.512   1.321 -0.0322 -0.0339  0.1899
  474SOL     OW 1893   0.851   2.193   1.773  0.5094  0.4195  0.6136
  474SOL    HW1 1894   0.934   2.233   1.781 -0.7782 -0.1299  1.0460
  474SOL    HW2 1895   0.842   2.174   1.683 -1.8089  1.3396 -1.6917
  474SOL     MW 1896   0.861   2.196   1.762  0.0337  0.4684  0.3665
  475SOL     OW 1897   1.675   3.090   1.442 -0.3963  0.2105  0.2909
  475SOL    HW1 1898   1.591   3.098   1.392 -1.3585 -2.7586 -1.2741
  475SOL    HW2 1899   1.683   2.999   1.467 -3.4694 -1.3882  0.3334
  475SOL     MW 1900   1.665   3.079   1.439 -0.9287 -0.3922  0.0900
  476SOL     OW 1901   1.469   2.614   0.796 -0.2069 -0.3232 -0.2845
  476SOL    HW1 1902   1.437   2.606   0.888 -0.4388 -0.0191  1.9192
  476SOL    HW2 1903   1.515   2.697   0.796  1.6831 -1.6804  4.4243
  476SOL     MW 1904   1.471   2.624   0.808  0.0119 -0.4621  0.6275
  477SOL     OW 1905   0.860   2.533   0.584  0.1301  0.3352  0.3450
  477SOL    HW1 1906   0.917   2.588   0.518 -1.7717  0.4961  0.3862
  477SOL    HW2 1907   0.844   2.445   0.536 -3.0383 -1.9280 -0.6672
  477SOL     MW 1908   0.866   2.528   0.569 -0.5389  0.0578  0.2169
  478SOL     OW 1909   0.231   2.604   0.995  0.1368 -0.5888 -0.3697
  478SOL    HW1 1910   0.281   2.690   0.987 -1.2926  0.7722  1.5791
  478SOL    HW2 1911   0.277   2.526   0.959  2.0977 -0.6237  0.0943
  478SOL     MW 1912   0.244   2.605   0.989  0.2070 -0.4138 -0.0514
  479SOL     OW 1913   1.428   1.923   1.330 -0.7431  0.5141  0.2665
  479SOL    HW1 1914   1.389   1.986   1.388  1.2230 -2.1474 -0.9058
  479SOL    HW2 1915   1.502   1.900   1.386  0.0680  0.0982 -1.0255
  479SOL     MW 1916   1.433   1.928   1.345 -0.3767  0.1081 -0.0586
  480SOL     OW 1917   1.794   2.365   1.303 -0.1621  0.1056 -0.4812
  480SOL    HW1 1918   1.788   2.279   1.339 -0.0186 -2.5155  0.0429
  480SOL    HW2 1919   1.835   2.346   1.215  0.8703 -2.4681  0.3486
  480SOL     MW 1920   1.799   2.351   1.296 -0.0070 -0.5798 -0.3026
  481SOL     OW 1921   1.175   0.153   1.092  0.1074  0.3811  0.6637
  481SOL    HW1 1922   1.240   0.152   1.018 -2.2709 -1.0257 -0.9173
  481SOL    HW2 1923   1.161   0.248   1.110 -1.3143 -0.0570  2.9795
  481SOL     MW 1924   1.182   0.166   1.085 -0.3940  0.1377  0.7606
  482SOL     OW 1925   1.046   3.074   0.438 -0.4221  0.3191 -0.2870
  482SOL    HW1 1926   0.982   3.000   0.429 -2.0793  2.4893 -0.6285
  482SOL    HW2 1927   1.041   3.136   0.365 -1.1750  0.2222 -0.0558
  482SOL     MW 1928   1.037   3.073   0.427 -0.7401  0.5926 -0.3016
  483SOL     OW 1929   0.327   2.854   0.544 -0.5276 -0.2980  0.3048
  483SOL    HW1 1930   0.270   2.886   0.474 -3.0620 -1.2695 -2.1165
  483SOL    HW2 1931   0.301   2.904   0.628  0.4158 -0.0491  0.4589
  483SOL     MW 1932   0.316   2.865   0.546 -0.7375 -0.3933  0.0057
  484SOL     OW 1933   1.661   1.855   1.466 -0.4564  0.3102 -0.2392
  484SOL    HW1 1934   1.712   1.931   1.431  0.5664 -0.4206  0.3421
  484SOL    HW2 1935   1.674   1.860   1.561 -2.9422  0.0562 -1.3203
  484SOL     MW 1936   1.670   1.866   1.474 -0.6494  0.1803 -0.3051
  485SOL     OW 1937   0.555   2.313   0.290  0.4576  0.0791 -0.2586
  485SOL    HW1 1938   0.567   2.271   0.374 -3.3359  0.0527 -1.3940
  485SOL    HW2 1939   0.468   2.341   0.302  1.2665  1.0205  0.4231
  485SOL     MW 1940   0.545   2.311   0.302  0.0638  0.1998 -0.3185
  486SOL     OW 1941   0.094   2.528   1.484 -0.0813 -0.6753 -0.2383
  486SOL    HW1 1942   0.134   2.606   1.451  0.9332 -2.4692  1.1436
  486SOL    HW2 1943   0.107   2.513   1.579 -0.1673  0.5201  0.3684
  486SOL     MW 1944   0.101   2.536   1.492  0.0412 -0.7542  0.0241
  487SOL     OW 1945   1.305   1.596   1.049 -0.4061  0.6057 -0.6813
  487SOL    HW1 1946   1.292   1.686   1.089 -0.6588  3.2238 -1.9949
  487SOL    HW2 1947   1.399   1.592   1.042 -2.2144  0.9581 -3.2016
  487SOL     MW 1948   1.316   1.607   1.053 -0.6780  0.9976 -1.1872
  488SOL     OW 1949   1.468   1.807   0.606  0.4556 -0.1514 -0.0733
  488SOL    HW1 1950   1.418   1.883   0.571 -1.4696 -1.3160  1.8103
  488SOL    HW2 1951   1.425   1.734   0.566 -1.3368  2.5533  0.8656
  488SOL     MW 1952   1.456   1.808   0.596 -0.0349  0.0518  0.2991
  489SOL     OW 1953   0.691   0.721   0.525  0.2049  0.8213  0.3755
  489SOL    HW1 1954   0.649   0.647   0.477  0.0013  0.0717  0.9091
  489SOL    HW2 1955   0.655   0.719   0.616  0.9129 -1.2147  1.0983
  489SOL     MW 1956   0.681   0.711   0.531  0.2714  0.4538  0.5412
  490SOL     OW 1957   1.360   2.059   0.468  0.2679 -0.1696  0.0230
  490SOL    HW1 1958   1.425   2.108   0.412  1.3794  0.7523  0.1614
  490SOL    HW2 1959   1.281   2.111   0.448  0.1987  1.0064  0.9563
  490SOL     MW 1960   1.358   2.073   0.458  0.4054  0.1072  0.1644
  491SOL     OW 1961   1.304   3.007   0.388 -0.3350 -0.1186 -0.1250
  491SOL    HW1 1962   1.341   3.062   0.457 -0.5326  1.1421 -0.2362
  491SOL    HW2 1963   1.216   3.035   0.398 -0.8233  2.6332 -0.6950
  491SOL     MW 1964   1.297   3.018   0.398 -0.4255  0.4108 -0.2149
  492SOL     OW 1965   1.464   2.156   0.716 -0.1137  0.2951 -0.4051
  492SOL    HW1 1966   1.404   2.106   0.664 -0.4471 -0.3357 -0.0002
  492SOL    HW2 1967   1.421   2.160   0.802 -0.2413 -0.8175  2.1746
  492SOL     MW 1968   1.451   2.150   0.720 -0.1745  0.0651 -0.0113
  493SOL     OW 1969   0.209   3.046   0.330  0.6273 -0.5480  0.3157
  493SOL    HW1 1970   0.136   3.087   0.381 -1.8572  0.4219 -0.0890
  493SOL    HW2 1971   0.172   3.019   0.245  3.1500  1.9282 -1.2702
  493SOL     MW 1972   0.194   3.048   0.325  0.6324 -0.0933  0.0531
  494SOL     OW 1973   0.392   2.374   1.794  0.3446  0.0834 -0.0539
  494SOL    HW1 1974   0.379   2.274   1.802  0.5179  1.2348  1.5714
  494SOL    HW2 1975   0.422   2.399   1.701  0.7006 -2.1724 -1.5967
  494SOL     MW 1976   0.394   2.364   1.783  0.4145 -0.0623 -0.0430
  495SOL     OW 1977   2.866   1.623   2.685  0.2865  0.4066  0.1611
  495SOL    HW1 1978   2.846   1.691   2.747 -0.5140  1.1389 -0.6222
  495SOL    HW2 1979   2.839   1.543   2.727  3.0292  0.9177 -0.8119
  495SOL     MW 1980   2.860   1.621   2.699  0.5428  0.5707 -0.0706
  496SOL     OW 1981   2.803   2.281   2.711 -0.2857 -0.0665  0.2558
  496SOL    HW1 1982   2.806   2.198   2.759 -0.5328  2.5156  0.2152
  496SOL    HW2 1983   2.892   2.322   2.727 -2.8627 -0.0821  1.6105
  496SOL     MW 1984   2.815   2.275   2.719 -0.6583  0.2722  0.4292
  497SOL     OW 1985   1.522   2.381   2.581  0.0232 -0.7275 -0.4731
  497SOL    HW1 1986   1.518   2.326   2.499  1.7661 -1.0922 -0.9158
  497SOL    HW2 1987   1.462   2.336   2.642  0.3840  0.2986  1.9299
  497SOL     MW 1988   1.514   2.368   2.578  0.3008 -0.6403 -0.2144
  498SOL     OW 1989   1.437   2.755   2.323  0.0634 -0.0974  0.1792
  498SOL    HW1 1990   1.440   2.657   2.313  3.1103 -0.4694  1.1845
  498SOL    HW2 1991   1.520   2.775   2.375  1.0414  0.4418  1.3877
  498SOL     MW 1992   1.448   2.745   2.328  0.5945 -0.0753  0.4713
  499SOL     OW 1993   0.993   0.078   0.075 -0.1696 -0.0903  0.0884
  499SOL    HW1 1994   0.925   0.121   0.137 -2.3959 -2.1509  0.0469
  499SOL    HW2 1995   0.958  -0.015   0.080 -1.8107  1.3572  0.3025
  499SOL     MW 1996   0.979   0.071   0.084 -0.6799 -0.1712  0.1111
  500SOL     OW 1997   1.066   2.510   2.729 -0.5479 -0.0094 -0.2688
  500SOL    HW1 1998   1.088   2.468   2.810  2.4127  0.3819 -1.9252
  500SOL    HW2 1999   1.018   2.588   2.752 -0.5677  0.9000  0.4044
  500SOL     MW 2000   1.062   2.515   2.743 -0.1599  0.1622 -0.3985
  501SOL     OW 2001   1.816   2.269   3.015 -0.2635 -0.2685  0.8445
  501SOL    HW1 2002   1.815   2.364   3.006 -1.5853 -0.4439 -0.7892
  501SOL    HW2 2003   1.902   2.241   3.051 -0.8196  0.0083  0.4517
  501SOL     MW 2004   1.827   2.278   3.019 -0.5113 -0.2551  0.5771
  502SOL     OW 2005   0.284   2.736   2.897 -0.2028 -0.0213  0.5371
  502SOL    HW1 2006   0.285   2.722   2.805 -3.2465 -0.9440  1.9945
  502SOL    HW2 2007   0.234   2.814   2.905 -0.6917  0.5437  2.2756
  502SOL     MW 2008   0.277   2.745   2.886 -0.6689 -0.0685  0.9588
  503SOL     OW 2009   1.126   2.542   2.069 -0.5636  0.8597 -0.1595
  503SOL    HW1 2010   1.193   2.584   2.011  3.3252 -0.9803  3.9348
  503SOL    HW2 2011   1.046   2.528   2.018 -1.7177 -1.6832  3.3620
  503SOL     MW 2012   1.124   2.546   2.055 -0.2028  0.2814  0.8453
  504SOL     OW 2013   0.095   2.646   2.165  0.1644 -0.7548 -0.4932
  504SOL    HW1 2014   0.174   2.626   2.115  1.9454  0.4183 -0.8309
  504SOL    HW2 2015   0.083   2.566   2.222  1.1106 -3.2180 -0.9943
  504SOL     MW 2016   0.104   2.633   2.166  0.5242 -0.9250 -0.6038
  505SOL     OW 2017   1.578   2.809   2.736  0.3982 -0.4576 -0.1454
  505SOL    HW1 2018   1.582   2.792   2.637 -1.6704 -3.6740  1.7407
  505SOL    HW2 2019   1.522   2.887   2.757  0.4261  2.2674  0.4370
  505SOL     MW 2020   1.571   2.817   2.726  0.1289 -0.5225  0.1803
  506SOL     OW 2021   1.612   0.091   2.748  0.0525 -0.0772  0.2820
  506SOL    HW1 2022   1.596   0.036   2.822  0.7678  1.5913 -3.7561
  506SOL    HW2 2023   1.665   0.040   2.692 -1.4833  1.0144 -0.4746
  506SOL     MW 2024   1.617   0.077   2.750 -0.0558  0.2870 -0.3506
  507SOL     OW 2025   0.872   2.709   2.837  0.2815  0.3054 -0.1127
  507SOL    HW1 2026   0.873   2.764   2.760 -0.3422 -1.3484 -1.1456
  507SOL    HW2 2027   0.784   2.665   2.825 -1.9124  0.3805 -0.2794
  507SOL     MW 2028   0.860   2.710   2.825 -0.0903  0.0971 -0.2710
  508SOL     OW 2029   1.183   2.122   2.527 -0.5667  0.0492 -0.0597
  508SOL    HW1 2030   1.269   2.136   2.575 -1.1381 -0.4046  0.2302
  508SOL    HW2 2031   1.132   2.083   2.600 -1.4542 -0.5040  1.0785
  508SOL     MW 2032   1.187   2.119   2.543 -0.7592 -0.0837  0.1287
  509SOL     OW 2033   0.622   2.545   2.827  0.3805  0.4477 -0.4147
  509SOL    HW1 2034   0.607   2.466   2.769  0.8267  0.4836 -1.5318
  509SOL    HW2 2035   0.553   2.603   2.811  4.0513  1.3140 -0.4377
  509SOL     MW 2036   0.611   2.542   2.818  0.9237  0.5667 -0.5651
  510SOL     OW 2037   1.492   2.579   1.630  0.0850 -0.1508 -0.5514
  510SOL    HW1 2038   1.506   2.652   1.566  0.4488  0.7516  0.3173
  510SOL    HW2 2039   1.450   2.624   1.708  0.7997 -0.9243  1.6991
  510SOL     MW 2040   1.489   2.595   1.632  0.2273 -0.1338 -0.1398
  511SOL     OW 2041   0.345   2.513   2.474  0.0785  0.1667  0.4986
  511SOL    HW1 2042   0.423   2.458   2.495 -0.5892 -1.5400 -0.0052
  511SOL    HW2 2043   0.363   2.554   2.388 -0.6997 -2.0699  0.9847
  511SOL     MW 2044   0.358   2.511   2.465 -0.1123 -0.3536  0.4963
  512SOL     OW 2045   1.020   1.952   2.804  0.5237  0.0361 -0.0771
  512SOL    HW1 2046   0.944   1.982   2.855  0.5032 -0.0875  1.7941
  512SOL    HW2 2047   1.059   1.869   2.851  0.9600  1.7706 -0.3601
  512SOL     MW 2048   1.015   1.945   2.817  0.5786  0.2486  0.1324
  513SOL     OW 2049   1.503   2.488   2.288  0.0305 -0.4542 -0.2388
  513SOL    HW1 2050   1.587   2.507   2.239 -0.8507  2.3903  0.1761
  513SOL    HW2 2051   1.527   2.394   2.308 -2.8245  0.0473 -1.2344
  513SOL     MW 2052   1.518   2.478   2.284 -0.4624 -0.0127 -0.3155
  514SOL     OW 2053   0.195   2.337   2.674 -0.4384 -0.1276  0.1232
  514SOL    HW1 2054   0.237   2.384   2.602 -1.7991 -2.0196 -2.3499
  514SOL    HW2 2055   0.261   2.309   2.739  2.3552 -1.5416 -0.2535
  514SOL     MW 2056   0.209   2.339   2.673 -0.2493 -0.5638 -0.2528
  515SOL     OW 2057   1.078   1.976   1.848 -0.1911 -0.3575 -0.3020
  515SOL    HW1 2058   1.035   2.070   1.851 -0.5390  2.4017 -1.0214
  515SOL    HW2 2059   1.145   1.969   1.921  1.2694 -1.2572  0.1843
  515SOL     MW 2060   1.082   1.988   1.858 -0.0443 -0.1121 -0.3327
  516SOL     OW 2061   1.298   2.581   2.907 -0.0403 -0.1838  0.0537
  516SOL    HW1 2062   1.283   2.588   2.809  1.0205  0.3357  0.1392
  516SOL    HW2 2063   1.229   2.514   2.937 -0.2139 -0.4145 -0.6685
  516SOL     MW 2064   1.287   2.573   2.898  0.0768 -0.1457 -0.0303
  517SOL     OW 2065   0.522   2.304   2.240 -0.1520  0.4839 -0.1583
  517SOL    HW1 2066   0.492   2.393   2.259 -0.5012  1.9813  1.8228
  517SOL    HW2 2067   0.458   2.264   2.185 -0.8875  4.5744 -1.5265
  517SOL     MW 2068   0.510   2.310   2.235 -0.2951  1.2212 -0.0775
  518SOL     OW 2069   1.783   0.172   3.049  0.0383 -0.5440 -0.2688
  518SOL    HW1 2070   1.787   0.167   3.149  1.0382 -0.2193  0.3953
  518SOL    HW2 2071   1.730   0.096   3.028 -0.9176  0.9308  3.0534
  518SOL     MW 2072   1.777   0.162   3.059  0.0441 -0.3066  0.2571
  519SOL     OW 2073   0.622   2.380   1.970  0.0526  0.4841 -0.7606
  519SOL    HW1 2074   0.639   2.286   1.986  0.5074  1.9599  1.4620
  519SOL    HW2 2075   0.562   2.380   1.894 -1.1012 -2.0986 -1.7132
  519SOL     MW 2076   0.616   2.367   1.962 -0.0397  0.3380 -0.5930
  520SOL     OW 2077   1.209   2.123   2.918  0.4445 -0.3293  0.2682
  520SOL    HW1 2078   1.143   2.069   2.875 -1.4237  1.0060  1.7743
  520SOL    HW2 2079   1.217   2.087   3.010  1.2583 -1.1263  0.7912
  520SOL     MW 2080   1.201   2.111   2.925  0.3054 -0.2583  0.5359
  521SOL     OW 2081   1.756   2.025   2.239  0.3480  0.0581  0.2637
  521SOL    HW1 2082   1.782   2.052   2.147  0.1258  0.9377  0.5734
  521SOL    HW2 2083   1.746   1.933   2.234  1.2914  0.5796  0.9868
  521SOL     MW 2084   1.758   2.016   2.226  0.4432  0.2430  0.4000
  522SOL     OW 2085   2.813   2.570   2.226  0.4213  0.1866  0.6029
  522SOL    HW1 2086   2.879   2.508   2.258 -0.5260  1.5443 -0.4713
  522SOL    HW2 2087   2.853   2.650   2.257 -1.3968 -4.4413  2.3894
  522SOL     MW 2088   2.827   2.572   2.234  0.0564 -0.2449  0.6969
  523SOL     OW 2089   0.804   1.481   2.155  0.3416  0.3416 -0.1334
  523SOL    HW1 2090   0.770   1.492   2.063 -1.4838 -0.6216  0.1526
  523SOL    HW2 2091   0.893   1.449   2.131 -0.6163 -0.4969 -0.1855
  523SOL     MW 2092   0.811   1.478   2.140 -0.0256  0.1039 -0.1025
  524SOL     OW 2093   0.565   2.372   3.032  0.5224 -0.0206 -0.2811
  524SOL    HW1 2094   0.583   2.442   2.964  0.7816  3.3551 -3.3037
  524SOL    HW2 2095   0.640   2.312   3.039 -0.1667  2.5706 -1.1044
  524SOL     MW 2096   0.578   2.373   3.024  0.4657  0.7667 -0.7885
  525SOL     OW 2097   0.329   2.152   2.087  0.5966 -0.2173 -0.0875
  525SOL    HW1 2098   0.305   2.086   2.155  0.0737  1.3459 -2.2328
  525SOL    HW2 2099   0.368   2.106   2.011  0.3291 -0.1852  0.4082
  525SOL     MW 2100   0.331   2.137   2.086  0.4923 -0.0068 -0.3051
  526SOL     OW 2101   0.743   2.086   1.989 -0.1082  0.0297 -0.2287
  526SOL    HW1 2102   0.791   2.118   1.924 -0.4415 -1.9606  4.3238
  526SOL    HW2 2103   0.787   2.111   2.071  0.4220 -0.6564  0.2842
  526SOL     MW 2104   0.755   2.093   1.991 -0.0822 -0.3234  0.4396
  527SOL     OW 2105   1.290   1.911   2.015  0.5349  0.0070 -0.4148
  527SOL    HW1 2106   1.269   1.901   2.110  0.8950  0.0452  1.2276
  527SOL    HW2 2107   1.314   1.829   1.973  0.0950 -0.0597 -1.2331
  527SOL     MW 2108   1.290   1.899   2.022  0.5243  0.0032 -0.3061
  528SOL     OW 2109   0.600   2.907   3.015  0.3184  0.0017  0.1206
  528SOL    HW1 2110   0.628   3.005   3.011  1.7379 -0.2924  2.3997
  528SOL    HW2 2111   0.549   2.891   2.935  0.7783  1.0911  1.0055
  528SOL     MW 2112   0.597   2.918   3.004  0.5664  0.1067  0.5381
  529SOL     OW 2113   1.099   2.274   1.796 -0.0489  0.3339 -0.6240
  529SOL    HW1 2114   1.157   2.255   1.875 -1.3691 -0.1296  1.4204
  529SOL    HW2 2115   1.140   2.251   1.710  1.3096 -4.1021  2.4813
  529SOL     MW 2116   1.112   2.268   1.795 -0.0438 -0.3125  0.0555
  530SOL     OW 2117   1.111   2.404   2.981  0.2483 -0.3088  0.7366
  530SOL    HW1 2118   1.028   2.414   3.036 -0.7835 -0.7699  2.3785
  530SOL    HW2 2119   1.145   2.320   3.003 -0.9945  0.9288 -1.3339
  530SOL     MW 2120   1.105   2.394   2.991 -0.0518 -0.2063  0.6801
  531SOL     OW 2121   0.903   1.819   2.621 -0.1733 -0.1818 -0.1013
  531SOL    HW1 2122   0.929   1.877   2.690  0.2649 -0.6356 -1.9102
  531SOL    HW2 2123   0.860   1.745   2.658 -1.8217  2.6934  0.5586
  531SOL     MW 2124   0.901   1.817   2.635 -0.3330  0.1376 -0.2529
  532SOL     OW 2125   1.703   0.336   2.848 -0.3983 -0.5793  0.5448
  532SOL    HW1 2126   1.674   0.256   2.803  2.1016  0.8399  1.4301
  532SOL    HW2 2127   1.725   0.314   2.939  1.4524 -2.5612 -0.2263
  532SOL     MW 2128   1.702   0.322   2.854  0.1757 -0.6535  0.5599
  533SOL     OW 2129   1.778   2.791   2.959  0.2920 -0.2305  0.0300
  533SOL    HW1 2130   1.778   2.713   3.015 -3.2483 -2.0565  0.9803
  533SOL    HW2 2131   1.711   2.770   2.892 -1.5522 -2.6085 -0.7403
  533SOL     MW 2132   1.769   2.778   2.957 -0.4184 -0.7851  0.0537
  534SOL     OW 2133   1.751   2.489   2.495 -0.6263 -0.6192  0.2206
  534SOL    HW1 2134   1.660   2.456   2.519  2.5777 -0.5974 -1.2194
  534SOL    HW2 2135   1.791   2.500   2.583 -1.6160  0.1356  3.1821
  534SOL     MW 2136   1.744   2.486   2.510 -0.3341 -0.5168  0.4214
  535SOL     OW 2137   1.795   2.387   1.927 -0.0201 -0.2906 -0.0137
  535SOL    HW1 2138   1.734   2.387   1.858 -0.0923 -2.8805  0.3354
  535SOL    HW2 2139   1.869   2.439   1.889 -2.3437  1.7988 -2.2325
  535SOL     MW 2140   1.797   2.394   1.913 -0.3362 -0.3567 -0.2604
  536SOL     OW 2141   0.407   1.876   2.032  0.4586 -0.1837 -0.3741
  536SOL    HW1 2142   0.422   1.929   1.955 -1.1607  0.9979  0.2350
  536SOL    HW2 2143   0.500   1.840   2.050  2.2648  0.4192  2.9738
  536SOL     MW 2144   0.421   1.879   2.024  0.4832  0.0517  0.1480
  537SOL     OW 2145   0.977   0.176   2.928 -0.1751  0.5020  0.1803
  537SOL    HW1 2146   0.963   0.142   3.019  0.0088 -2.1197 -1.1070
  537SOL    HW2 2147   0.912   0.242   2.901 -3.4964 -0.3469 -1.7020
  537SOL     MW 2148   0.967   0.180   2.937 -0.5890  0.0440 -0.2379
  538SOL     OW 2149   1.292   0.060   3.029  0.1448  0.2633  0.5055
  538SOL    HW1 2150   1.209   0.103   3.017  1.8409 -0.0739  0.3750
  538SOL    HW2 2151   1.349   0.125   3.073  2.9460  2.5345  3.0386
  538SOL     MW 2152   1.289   0.074   3.033  0.7382  0.5185  0.8225
  539SOL     OW 2153   0.738   2.717   2.509  0.3301 -0.6125 -0.3987
  539SOL    HW1 2154   0.815   2.773   2.528  0.1442  2.0876 -2.8498
  539SOL    HW2 2155   0.778   2.631   2.506 -0.9395  0.0188  1.0554
  539SOL     MW 2156   0.754   2.713   2.511  0.1381 -0.1730 -0.5302
  540SOL     OW 2157   0.409   2.218   2.891 -0.2899  0.2066 -0.3859
  540SOL    HW1 2158   0.459   2.281   2.956  0.9785  1.2113  1.6347
  540SOL    HW2 2159   0.349   2.168   2.947  0.5134 -1.5534  0.3376
  540SOL     MW 2160   0.408   2.220   2.907 -0.0165  0.1070 -0.0238
  541SOL     OW 2161   0.197   2.887   2.253  0.0191 -0.0411 -0.1300
  541SOL    HW1 2162   0.147   2.812   2.219  0.2466  0.7129 -0.0757
  541SOL    HW2 2163   0.217   2.873   2.348  0.3229  0.6249 -1.6473
  541SOL     MW 2164   0.193   2.875   2.261  0.0892  0.1463 -0.3230
  542SOL     OW 2165   0.874   2.312   2.776  0.3386 -0.3071  0.2484
  542SOL    HW1 2166   0.850   2.297   2.874 -0.6931  1.3161  2.1035
  542SOL    HW2 2167   0.951   2.366   2.765  2.4070 -1.8284 -0.6833
  542SOL     MW 2168   0.881   2.317   2.787  0.4754 -0.2937  0.3703
  543SOL     OW 2169   1.354   2.648   2.653  0.2420  0.2647  0.5009
  543SOL    HW1 2170   1.389   2.579   2.598  1.0808 -1.5549  0.7429
  543SOL    HW2 2171   1.426   2.687   2.708 -0.1412  0.8896  2.5847
  543SOL     MW 2172   1.369   2.644   2.653  0.3021  0.1071  0.8078
  544SOL     OW 2173   0.699   0.090   2.609 -0.3275 -0.3484 -0.7104
  544SOL    HW1 2174   0.618   0.052   2.579  2.4819  0.9996 -1.3171
  544SOL    HW2 2175   0.762   0.079   2.543 -1.4851 -0.6791  0.4906
  544SOL     MW 2176   0.697   0.084   2.596 -0.1095 -0.2142 -0.6320
  545SOL     OW 2177   1.571   2.231   2.333  0.2657 -0.0550 -0.3234
  545SOL    HW1 2178   1.545   2.148   2.379 -0.2265  1.1696 -2.8883
  545SOL    HW2 2179   1.658   2.207   2.313 -2.6755  1.5502  2.5899
  545SOL     MW 2180   1.579   2.217   2.336 -0.1873  0.3183 -0.2774
  546SOL     OW 2181   2.983   2.011   0.115 -0.5359  0.1990 -0.3318
  546SOL    HW1 2182   2.942   2.084   0.062 -1.2918 -0.3224 -2.3145
  546SOL    HW2 2183   3.070   1.982   0.080  3.1716 -0.1151  0.9464
  546SOL     MW 2184   2.989   2.017   0.103 -0.1465  0.0888 -0.4248
  547SOL     OW 2185   0.126   2.934   0.066 -0.6235  0.1208 -0.3551
  547SOL    HW1 2186   0.161   2.980  -0.012  0.5046 -0.1222 -1.2274
  547SOL    HW2 2187   0.161   2.844   0.057  0.2574  0.4281 -3.2883
  547SOL     MW 2188   0.135   2.928   0.054 -0.3585  0.1293 -0.8572
  548SOL     OW 2189   0.257   2.497   0.291  0.4336 -0.3356 -0.4147
  548SOL    HW1 2190   0.283   2.564   0.230 -0.1239  0.0063  0.6355
  548SOL    HW2 2191   0.160   2.502   0.275  1.7608 -2.1034  0.7202
  548SOL     MW 2192   0.248   2.507   0.281  0.5351 -0.5238 -0.1264
  549SOL     OW 2193   0.703   1.835   2.050 -0.0143 -0.6563  0.2641
  549SOL    HW1 2194   0.700   1.933   2.031  0.6999  3.6082 -2.3687
  549SOL    HW2 2195   0.723   1.826   2.141  1.6822  3.0287  0.8489
  549SOL     MW 2196   0.705   1.847   2.060  0.3037  0.3925 -0.0061
  550SOL     OW 2197   1.861   1.736   2.514  0.5626  0.2754  0.4260
  550SOL    HW1 2198   1.827   1.728   2.427 -2.3459  0.5513 -2.0067
  550SOL    HW2 2199   1.844   1.829   2.548 -1.3675 -0.2376  1.9860
  550SOL     MW 2200   1.855   1.747   2.507 -0.0758  0.2441  0.3109
  551SOL     OW 2201   0.853   2.291   0.242 -0.0827  0.0053  0.1030
  551SOL    HW1 2202   0.927   2.342   0.205  0.4053  0.2044 -0.6714
  551SOL    HW2 2203   0.810   2.252   0.167 -2.3453  1.0860  1.2634
  551SOL     MW 2204   0.857   2.292   0.227 -0.3168  0.1741  0.1540
  552SOL     OW 2205   1.723   1.747   2.273  0.3428  0.1943  0.4195
  552SOL    HW1 2206   1.643   1.710   2.303  1.2860  0.9678 -0.5032
  552SOL    HW2 2207   1.766   1.696   2.200  1.5474 -0.5535 -2.0800
  552SOL     MW 2208   1.718   1.735   2.267  0.6262  0.1977 -0.0320
  553SOL     OW 2209   1.215   2.310   1.519 -0.1174  0.2575 -0.0618
  553SOL    HW1 2210   1.277   2.236   1.534 -0.4835  0.0824  3.4894
  553SOL    HW2 2211   1.268   2.376   1.471 -0.2920  1.4322  0.8871
  553SOL     MW 2212   1.230   2.309   1.515 -0.1887  0.3894  0.5319
  554SOL     OW 2213   0.537   2.813   2.698 -0.4711  0.0396  0.3259
  554SOL    HW1 2214   0.502   2.884   2.648  0.3216  2.2180  1.2346
  554SOL    HW2 2215   0.591   2.758   2.635 -1.4977 -1.4376  2.8933
  554SOL     MW 2216   0.539   2.815   2.683 -0.5020  0.1321  0.7845
  555SOL     OW 2217   0.567   2.383   2.607 -0.4492 -0.0480  0.1385
  555SOL    HW1 2218   0.565   2.301   2.658  1.0831 -3.5328  1.7894
  555SOL    HW2 2219   0.653   2.382   2.555  1.6507 -2.6879 -1.7798
  555SOL     MW 2220   0.578   2.372   2.607  0.0300 -0.8561  0.1032
  556SOL     OW 2221   1.051   1.805   0.145 -0.0702 -0.5835  0.0425
  556SOL    HW1 2222   1.083   1.790   0.055  0.3431  0.0659  0.3203
  556SOL    HW2 2223   1.130   1.828   0.194 -2.9201  0.0214 -1.8409
  556SOL     MW 2224   1.065   1.806   0.139 -0.3917 -0.4180 -0.1694
  557SOL     OW 2225   1.053   2.699   0.457  0.0946 -0.3160 -0.1665
  557SOL    HW1 2226   1.102   2.684   0.377 -1.1263  2.9363  1.3353
  557SOL    HW2 2227   0.972   2.749   0.433 -1.6516  2.4273  1.8831
  557SOL     MW 2228   1.049   2.703   0.443 -0.2969  0.4751  0.3021
  558SOL     OW 2229   0.249   2.081   3.077 -0.2907 -0.5850  0.4288
  558SOL    HW1 2230   0.219   1.999   3.104 -0.4845  0.5862 -1.0181
  558SOL    HW2 2231   0.194   2.148   3.106  0.9690 -0.1368 -2.9323
  558SOL     MW 2232   0.238   2.079   3.084 -0.1500 -0.3714 -0.2056
  559SOL     OW 2233   1.205   2.268   2.044 -0.0490  0.2125 -0.6194
  559SOL    HW1 2234   1.197   2.359   2.068 -0.8035 -0.6738 -0.1496
  559SOL    HW2 2235   1.167   2.220   2.121 -0.7660 -1.0777  2.4780
  559SOL     MW 2236   1.199   2.273   2.057 -0.2432 -0.0747 -0.1488
  560SOL     OW 2237   1.935   2.980   0.035 -0.3861 -0.6033 -0.0075
  560SOL    HW1 2238   1.996   3.001  -0.036 -0.9225  0.3273 -0.6370
  560SOL    HW2 2239   1.870   2.928  -0.010  1.3142 -0.3094  0.7013
  560SOL     MW 2240   1.934   2.976   0.020 -0.2326 -0.4417  0.0030
  561SOL     OW 2241   0.479   2.089   0.163  0.4100  0.3175  0.2738
  561SOL    HW1 2242   0.416   2.083   0.081 -0.5950 -0.0626 -1.5105
  561SOL    HW2 2243   0.505   2.183   0.169 -2.0650 -3.4048  0.0724
  561SOL     MW 2244   0.474   2.101   0.153 -0.0492 -0.2238  0.0118
  562SOL     OW 2245   0.864   2.134   2.233  0.1431 -0.2610  0.1323
  562SOL    HW1 2246   0.835   2.229   2.240  1.3153  1.8649  0.0877
  562SOL    HW2 2247   0.956   2.127   2.261 -0.1737 -0.2627 -0.0865
  562SOL     MW 2248   0.872   2.146   2.238  0.2559  0.0193  0.0975
  563SOL     OW 2249   1.253   0.281   0.534 -0.4383  0.0970  0.6880
  563SOL    HW1 2250   1.193   0.246   0.466  0.6701 -0.4083  0.3436
  563SOL    HW2 2251   1.305   0.198   0.553 -1.6458 -0.5223  0.2756
  563SOL     MW 2252   1.252   0.266   0.528 -0.4513 -0.0514  0.5882
  564SOL     OW 2253   1.006   2.602   2.321  0.2836  0.5143  0.1344
  564SOL    HW1 2254   1.037   2.585   2.232  1.2030 -3.3055  0.5335
  564SOL    HW2 2255   1.065   2.667   2.366  0.8973 -1.3497  0.6406
  564SOL     MW 2256   1.018   2.608   2.315  0.4859 -0.2356  0.2539
  565SOL     OW 2257   2.925   2.663   2.703 -0.5501 -0.0176 -0.4358
  565SOL    HW1 2258   3.002   2.709   2.672  2.3670 -0.2205  0.0112
  565SOL    HW2 2259   2.857   2.671   2.627 -2.1888 -0.5851 -0.7916
  565SOL     MW 2260   2.926   2.670   2.689 -0.3814 -0.1192 -0.4238
  566SOL     OW 2261   2.197   1.986   2.342  0.7073 -0.9701 -0.3572
  566SOL    HW1 2262   2.231   1.992   2.250  1.4444 -2.3636 -0.3466
  566SOL    HW2 2263   2.239   2.064   2.380  2.6621  0.2127 -0.7328
  566SOL     MW 2264   2.207   1.997   2.335  1.0625 -0.9979 -0.4054
  567SOL     OW 2265   1.190   2.929   0.083  0.2517  0.2999  0.4079
  567SOL    HW1 2266   1.180   3.012   0.123 -1.1536 -1.1915 -0.2818
  567SOL    HW2 2267   1.196   2.937  -0.012 -0.3783 -1.2468 -0.9550
  567SOL     MW 2268   1.190   2.941   0.076 -0.0169 -0.1010  0.1371
  568SOL     OW 2269   1.634   2.145   2.818  0.6367 -0.1395  0.6014
  568SOL    HW1 2270   1.697   2.211   2.853  3.0679  0.6846 -0.3749
  568SOL    HW2 2271   1.690   2.073   2.779 -1.7964  0.9130  1.0837
  568SOL     MW 2272   1.650   2.144   2.817  0.6364  0.1081  0.5362
  569SOL     OW 2273   0.113   2.213   2.461 -0.2311  0.2430 -0.2914
  569SOL    HW1 2274   0.056   2.278   2.415  1.8597 -1.0951  1.0044
  569SOL    HW2 2275   0.126   2.247   2.550  0.4081 -0.9809 -0.9094
  569SOL     MW 2276   0.107   2.226   2.466  0.1291 -0.0951 -0.2020
  570SOL     OW 2277   1.513   0.395   0.469 -0.4392  0.2916  1.0694
  570SOL    HW1 2278   1.424   0.375   0.498  1.0675  2.5000 -1.5691
  570SOL    HW2 2279   1.565   0.424   0.542 -3.7107  1.3391 -0.7415
  570SOL     MW 2280   1.508   0.396   0.482 -0.6721  0.7212  0.4824
  571SOL     OW 2281   1.468   2.423   1.995  0.3463 -0.4606 -0.3237
  571SOL    HW1 2282   1.450   2.435   2.087 -3.9079 -1.2673 -0.2797
  571SOL    HW2 2283   1.455   2.328   1.987  1.2773 -0.0236  0.3696
  571SOL     MW 2284   1.464   2.412   2.006 -0.0922 -0.5094 -0.2265
  572SOL     OW 2285   0.898   2.561   3.063  0.0898  0.4459 -0.2087
  572SOL    HW1 2286   0.880   2.623   2.990 -1.1973  1.2723  0.7282
  572SOL    HW2 2287   0.822   2.568   3.122 -0.9093 -1.0040  2.4370
  572SOL     MW 2288   0.885   2.570   3.061 -0.2118  0.3636  0.2640
  573SOL     OW 2289   1.114   2.400   0.175 -0.0688  0.2905  0.1188
  573SOL    HW1 2290   1.201   2.389   0.133  2.7410  1.0947 -0.4135
  573SOL    HW2 2291   1.114   2.490   0.194 -2.6903 -0.5322  1.0180
  573SOL     MW 2292   1.126   2.411   0.172 -0.0440  0.2880  0.1672
  574SOL     OW 2293   1.200   2.677   0.202 -1.0024  0.4950 -0.0850
  574SOL    HW1 2294   1.281   2.678   0.256  0.0083  0.5674  0.1016
  574SOL    HW2 2295   1.195   2.763   0.167 -1.3474 -1.7970  0.6464
  574SOL     MW 2296   1.210   2.689   0.204 -0.9146  0.2021  0.0361
  575SOL     OW 2297   3.049   2.297   1.824  0.3590  0.2023  0.2708
  575SOL    HW1 2298   3.077   2.205   1.799 -0.6613  0.1906  1.5464
  575SOL    HW2 2299   3.121   2.352   1.780  1.3330  2.0452  1.0963
  575SOL     MW 2300   3.062   2.292   1.815  0.3529  0.4439  0.5480
  576SOL     OW 2301   2.817   1.808   2.031  0.0115  0.0839 -0.0656
  576SOL    HW1 2302   2.832   1.892   1.986  0.9410  0.8559  0.3418
  576SOL    HW2 2303   2.721   1.805   2.047  0.4833 -2.1085  2.2535
  576SOL     MW 2304   2.806   1.819   2.027  0.1964 -0.1035  0.2941
  577SOL     OW 2305   2.060   0.249   0.054  0.2574 -0.6414  0.4848
  577SOL    HW1 2306   1.998   0.312   0.021 -1.3917 -1.2859 -0.6553
  577SOL    HW2 2307   2.010   0.192   0.102 -0.1315 -1.1909 -2.4242
  577SOL     MW 2308   2.045   0.250   0.056 -0.0115 -0.7989 -0.0495
  578SOL     OW 2309   1.995   2.166   2.327 -0.1806 -0.6888 -0.2051
  578SOL    HW1 2310   1.910   2.115   2.318  3.4383 -0.1768 -0.8449
  578SOL    HW2 2311   2.068   2.099   2.319  0.1854 -1.7399 -1.3999
  578SOL     MW 2312   1.993   2.150   2.325  0.3452 -0.7600 -0.4472
  579SOL     OW 2313   0.829   2.446   2.515  0.1150 -0.2587  0.1491
  579SOL    HW1 2314   0.848   2.395   2.600 -0.9571 -0.4538 -0.5340
  579SOL    HW2 2315   0.915   2.475   2.483  0.5012  1.2566 -0.9748
  579SOL     MW 2316   0.843   2.443   2.522  0.0245 -0.0845 -0.0893
  580SOL     OW 2317   0.906   2.886   0.027 -0.0486  0.8079  0.0624
  580SOL    HW1 2318   0.989   2.833   0.034  0.4349 -0.5364  2.1622
  580SOL    HW2 2319   0.858   2.836  -0.034  3.3695  0.3473  3.4436
  580SOL     MW 2320   0.911   2.872   0.020  0.4662  0.5698  0.7856
  581SOL     OW 2321   1.103   2.543   1.745 -0.2425 -0.0414  0.4338
  581SOL    HW1 2322   1.194   2.555   1.729 -0.8242 -1.1504  0.8863
  581SOL    HW2 2323   1.095   2.450   1.765  0.4130  0.5390  2.6638
  581SOL     MW 2324   1.114   2.532   1.746 -0.2327 -0.1111  0.7877
  582SOL     OW 2325  -0.001   2.854   2.614 -0.0526 -0.1106 -0.4625
  582SOL    HW1 2326   0.021   2.923   2.686  0.1485  1.1625 -0.2582
  582SOL    HW2 2327   0.088   2.834   2.590  0.8265  1.2685  1.3999
  582SOL     MW 2328   0.014   2.860   2.620  0.0899  0.2393 -0.1898
  583SOL     OW 2329   1.954   2.487   2.682  0.5328 -0.2084 -0.2447
  583SOL    HW1 2330   2.013   2.514   2.608  1.2926  1.0035  1.7365
  583SOL    HW2 2331   1.964   2.393   2.691 -0.0910 -1.3513  0.3393
  583SOL     MW 2332   1.963   2.478   2.674  0.5507 -0.1993  0.0937
  584SOL     OW 2333   0.160   1.845   2.126 -0.4606  0.0069  0.2465
  584SOL    HW1 2334   0.253   1.837   2.093  1.1865 -1.5639  1.3495
  584SOL    HW2 2335   0.169   1.907   2.197 -0.9877 -1.4984  1.4813
  584SOL     MW 2336   0.174   1.852   2.131 -0.3128 -0.3990  0.5549
  585SOL     OW 2337   1.452   2.580   0.041  0.1488 -0.4170 -0.1903
  585SOL    HW1 2338   1.400   2.582  -0.045 -0.8866 -2.2397  0.0171
  585SOL    HW2 2339   1.444   2.671   0.081  3.3754 -1.6602 -1.5965
  585SOL     MW 2340   1.444   2.592   0.035  0.4379 -0.8215 -0.3485
  586SOL     OW 2341   1.298   2.989   2.375 -0.7803  0.1000 -0.1242
  586SOL    HW1 2342   1.362   2.921   2.356  0.0221  1.3304  0.1302
  586SOL    HW2 2343   1.312   3.024   2.466  1.0081  0.3290  1.8859
  586SOL     MW 2344   1.308   2.985   2.384 -0.4385  0.2926  0.1746
  587SOL     OW 2345   1.191   1.632   2.201  0.1422  0.0414  0.1378
  587SOL    HW1 2346   1.194   1.543   2.246  1.3392  1.0623  0.9164
  587SOL    HW2 2347   1.158   1.613   2.113 -2.2208 -0.9999 -2.6084
  587SOL     MW 2348   1.187   1.618   2.196 -0.0117  0.0387 -0.1218
  588SOL     OW 2349   1.377   2.182   2.717 -0.0248 -0.9203  0.0718
  588SOL    HW1 2350   1.463   2.164   2.738 -3.4639  2.1390  0.3910
  588SOL    HW2 2351   1.325   2.181   2.800  2.3038 -1.3625  0.5081
  588SOL     MW 2352   1.381   2.179   2.731 -0.1713 -0.5750  0.1715
  589SOL     OW 2353   1.335   2.051   0.048  0.2180 -0.2757  0.1104
  589SOL    HW1 2354   1.335   2.142   0.074  1.4772  0.3507  0.2396
  589SOL    HW2 2355   1.339   2.000   0.131 -0.3544  2.5656  1.0022
  589SOL     MW 2356   1.335   2.056   0.062  0.3086  0.1818  0.2451
  590SOL     OW 2357   0.450   2.582   2.234 -0.2248  0.1924 -0.1424
  590SOL    HW1 2358   0.402   2.586   2.152  0.9641  1.8226 -0.6419
  590SOL    HW2 2359   0.519   2.644   2.216  0.2386  0.1786  1.3954
  590SOL     MW 2360   0.453   2.591   2.221 -0.0068  0.4057 -0.0054
  591SOL     OW 2361   2.245   0.705   3.037  0.5881  0.5618  0.3815
  591SOL    HW1 2362   2.171   0.755   3.013  0.6799 -0.7262 -0.5492
  591SOL    HW2 2363   2.315   0.737   2.978  1.8448  1.5528  2.0431
  591SOL     MW 2364   2.245   0.716   3.026  0.7660  0.5226  0.4779
  592SOL     OW 2365   1.845   2.935   0.853 -0.2103  0.5453 -0.1187
  592SOL    HW1 2366   1.839   2.976   0.763 -1.1199 -0.1234 -2.2002
  592SOL    HW2 2367   1.896   2.849   0.836 -0.3048 -1.5525  1.7188
  592SOL     MW 2368   1.851   2.929   0.839 -0.3428  0.1803 -0.1509
  593SOL     OW 2369   1.936   0.797   0.846 -0.2241 -0.3529 -0.2617
  593SOL    HW1 2370   1.855   0.772   0.801 -2.2587 -1.5997 -2.0790
  593SOL    HW2 2371   1.969   0.709   0.866 -2.1736 -1.4042 -1.3069
  593SOL     MW 2372   1.930   0.782   0.842 -0.7497 -0.6561 -0.6394
  594SOL     OW 2373   2.724   1.147   1.373  0.4153  0.4134  0.2293
  594SOL    HW1 2374   2.807   1.206   1.366 -0.4736  3.3539  1.6499
  594SOL    HW2 2375   2.719   1.104   1.285  2.3208  0.7136 -0.6372
  594SOL     MW 2376   2.735   1.149   1.361  0.5495  0.8410  0.3024
  595SOL     OW 2377   0.422   0.973   0.751  0.3488 -0.0858 -0.4348
  595SOL    HW1 2378   0.482   1.013   0.679  1.2911  1.6423  0.2589
  595SOL    HW2 2379   0.436   1.015   0.833 -0.4797 -4.0390  0.5763
  595SOL     MW 2380   0.432   0.984   0.752  0.3638 -0.3794 -0.2098
  596SOL     OW 2381   2.448   1.358   0.594 -0.4671  0.0324  0.3553
  596SOL    HW1 2382   2.462   1.442   0.544 -2.2090  2.5564 -2.5278
  596SOL    HW2 2383   2.533   1.329   0.630  0.0615 -0.4715 -2.0021
  596SOL     MW 2384   2.461   1.365   0.592 -0.6272  0.2989 -0.3361
  597SOL     OW 2385   2.179   0.649   1.706 -0.5396  0.1446  0.2771
  597SOL    HW1 2386   2.261   0.611   1.728 -2.8873  0.1682 -0.8594
  597SOL    HW2 2387   2.145   0.597   1.628  0.6614 -1.0204  1.1132
  597SOL     MW 2388   2.185   0.637   1.699 -0.6909 -0.0060  0.2375
  598SOL     OW 2389   2.626   0.999   2.874  0.0265 -0.0330 -0.4096
  598SOL    HW1 2390   2.630   0.941   2.803  1.0088  2.8238  2.7203
  598SOL    HW2 2391   2.701   1.058   2.875  1.5652 -0.5132  1.2057
  598SOL     MW 2392   2.636   0.999   2.865  0.3592  0.2806  0.2165
  599SOL     OW 2393   2.902   0.374   2.003 -0.0606  0.1784 -0.3945
  599SOL    HW1 2394   2.895   0.378   2.098 -1.5579 -0.3260 -1.7763
  599SOL    HW2 2395   2.970   0.439   1.984 -0.5765  1.2068 -0.9259
  599SOL     MW 2396   2.910   0.383   2.013 -0.3262  0.2475 -0.6469
  600SOL     OW 2397   1.863   1.699   0.877 -0.1854  0.5113  0.5406
  600SOL    HW1 2398   1.866   1.677   0.969  0.1489  0.2779 -1.3836
  600SOL    HW2 2399   1.780   1.747   0.864  2.5833 -0.4705  0.6076
  600SOL     MW 2400   1.852   1.703   0.887  0.2240  0.3510  0.2956
  601SOL     OW 2401   2.521   0.801   0.879  0.7392  0.0414  0.0274
  601SOL    HW1 2402   2.539   0.798   0.975 -1.2468  1.6136  0.4334
  601SOL    HW2 2403   2.443   0.750   0.867  0.7095 -4.7359  0.4724
  601SOL     MW 2404   2.513   0.794   0.890  0.4733 -0.3815  0.1397
  602SOL     OW 2405   2.289   1.942   0.683  0.2588 -0.0379 -0.1694
  602SOL    HW1 2406   2.228   1.876   0.720  0.6719 -1.0596 -1.4264
  602SOL    HW2 2407   2.237   1.987   0.617  2.5773  0.8388 -1.1424
  602SOL     MW 2408   2.274   1.939   0.679  0.6192 -0.0570 -0.4636
  603SOL     OW 2409   3.001   1.391   1.837 -0.2296 -0.4413 -0.5217
  603SOL    HW1 2410   3.084   1.403   1.881  0.2727  2.0335  1.4550
  603SOL    HW2 2411   2.978   1.294   1.837  0.3017 -0.0237  1.4147
  603SOL     MW 2412   3.009   1.380   1.843 -0.0933 -0.0597 -0.0054
  604SOL     OW 2413   2.079   1.553   0.489  0.5455 -0.2290 -0.7184
  604SOL    HW1 2414   2.089   1.468   0.540  2.4187 -0.5025 -2.4352
  604SOL    HW2 2415   1.996   1.591   0.521 -2.0809 -1.6793 -0.3686
  604SOL     MW 2416   2.069   1.547   0.500  0.4461 -0.4565 -0.8988
  605SOL     OW 2417   2.664   1.568   0.867 -0.1441  0.1940  0.4767
  605SOL    HW1 2418   2.584   1.596   0.828  3.7535  0.3597  1.9166
  605SOL    HW2 2419   2.637   1.535   0.953 -2.6302  0.8901 -2.6164
  605SOL     MW 2420   2.650   1.567   0.873  0.0421  0.3077  0.2586
  606SOL     OW 2421   2.538   1.765   2.000  0.0423 -0.4083  0.3115
  606SOL    HW1 2422   2.448   1.777   1.982  0.5999 -3.4160 -1.6492
  606SOL    HW2 2423   2.573   1.688   1.940 -1.3316 -0.8058 -0.7931
  606SOL     MW 2424   2.531   1.756   1.989 -0.0654 -0.8576 -0.0930
  607SOL     OW 2425   2.333   1.028   3.007 -0.0342 -0.4356  0.4270
  607SOL    HW1 2426   2.422   1.045   2.984 -0.1511  0.7263 -0.7383
  607SOL    HW2 2427   2.342   1.044   3.103  3.5196 -0.1285  2.6391
  607SOL     MW 2428   2.346   1.032   3.016  0.4192 -0.2417  0.5651
  608SOL     OW 2429   1.896   0.267   0.593 -0.6094  0.6718 -0.2767
  608SOL    HW1 2430   1.906   0.301   0.501  1.5047 -1.2712 -2.0930
  608SOL    HW2 2431   1.876   0.170   0.586 -0.3326 -2.2264 -0.0505
  608SOL     MW 2432   1.894   0.258   0.580 -0.2939  0.0331 -0.4865
  609SOL     OW 2433   2.147   1.897   3.022 -0.3563 -0.0044  0.0304
  609SOL    HW1 2434   2.067   1.849   2.994  0.5597 -0.7312 -0.4076
  609SOL    HW2 2435   2.164   1.872   3.114  0.8931  1.0017 -1.5593
  609SOL     MW 2436   2.139   1.887   3.030 -0.0706  0.0324 -0.2371
  610SOL     OW 2437   1.848   1.098   1.356  0.2628 -0.2735 -0.0911
  610SOL    HW1 2438   1.896   1.042   1.293  1.0469 -0.1037 -0.6653
  610SOL    HW2 2439   1.776   1.044   1.387  1.5729  1.4263 -0.6509
  610SOL     MW 2440   1.845   1.084   1.352  0.5391 -0.0268 -0.2407
  611SOL     OW 2441   2.447   1.693   0.722 -0.2686 -0.6646 -0.0216
  611SOL    HW1 2442   2.408   1.764   0.670 -1.5876  1.6746 -0.8641
  611SOL    HW2 2443   2.463   1.638   0.651 -0.9593 -0.0891 -1.7995
  611SOL     MW 2444   2.444   1.695   0.705 -0.5338 -0.2801 -0.3673
  612SOL     OW 2445   2.785   2.806   0.453 -0.0121 -0.3378  0.2800
  612SOL    HW1 2446   2.825   2.858   0.531  2.0387  2.1379 -1.0827
  612SOL    HW2 2447   2.862   2.775   0.402 -0.6208 -0.8330  0.1013
  612SOL     MW 2448   2.801   2.809   0.457  0.1781 -0.0765  0.0766
  613SOL     OW 2449   1.621   1.009   1.117 -0.3763  0.4663  0.3027
  613SOL    HW1 2450   1.612   1.095   1.155  0.4661  1.9498  2.0225
  613SOL    HW2 2451   1.715   0.987   1.108 -1.5323 -0.0232 -2.8389
  613SOL     MW 2452   1.632   1.017   1.121 -0.4177  0.5974  0.1151
  614SOL     OW 2453   2.029   0.551   1.500  0.8549 -0.2975 -0.5962
  614SOL    HW1 2454   2.017   0.466   1.547 -2.5985  0.6970  2.0201
  614SOL    HW2 2455   2.049   0.517   1.414  0.2852  1.0734  0.2118
  614SOL     MW 2456   2.030   0.535   1.495  0.3241  0.0146 -0.1444
  615SOL     OW 2457   2.238   0.821   0.192  0.5603 -0.1573 -0.1869
  615SOL    HW1 2458   2.287   0.779   0.259  1.8259  2.3681 -2.6078
  615SOL    HW2 2459   2.270   0.785   0.110 -0.6307  0.5996 -0.5227
  615SOL     MW 2460   2.249   0.811   0.190  0.5701  0.2757 -0.5506
  616SOL     OW 2461   2.578   0.433   1.590 -0.4376  0.1854 -0.4121
  616SOL    HW1 2462   2.524   0.370   1.545 -1.5081  0.5905  2.4318
  616SOL    HW2 2463   2.642   0.470   1.522  0.6876 -1.5826 -1.0006
  616SOL     MW 2464   2.580   0.430   1.575 -0.4304  0.0056 -0.1145
  617SOL     OW 2465   2.897   0.548   1.752 -0.5996 -0.4092 -0.2353
  617SOL    HW1 2466   2.804   0.561   1.786 -1.4064 -0.5856  0.5509
  617SOL    HW2 2467   2.876   0.465   1.704 -0.8536 -1.2569 -0.4191
  617SOL     MW 2468   2.882   0.539   1.750 -0.7395 -0.5443 -0.1558
  618SOL     OW 2469   2.647   0.367   1.934  0.1695 -0.1625 -0.1493
  618SOL    HW1 2470   2.633   0.460   1.918  0.4874  0.5770 -4.7379
  618SOL    HW2 2471   2.739   0.361   1.965  0.9874  1.2911 -1.9317
  618SOL     MW 2472   2.657   0.378   1.936  0.3193  0.1268 -0.9899
  619SOL     OW 2473   2.605   0.884   0.151 -0.2751 -0.7479  0.1261
  619SOL    HW1 2474   2.699   0.889   0.174  1.7757  1.3839  2.6240
  619SOL    HW2 2475   2.562   0.857   0.230  0.5239  1.0085 -0.5540
  619SOL     MW 2476   2.612   0.881   0.164  0.1009 -0.2349  0.3659
  620SOL     OW 2477   2.282   1.083   0.926 -0.0759  0.1148  0.0833
  620SOL    HW1 2478   2.350   1.087   0.859  0.2465 -0.4150  1.1744
  620SOL    HW2 2479   2.257   0.992   0.922 -1.3463 -1.3069  0.7641
  620SOL     MW 2480   2.288   1.072   0.917 -0.2010 -0.1427  0.3171
  621SOL     OW 2481   1.479   2.117   1.980 -0.4085 -0.3418 -0.2375
  621SOL    HW1 2482   1.416   2.050   2.004  1.6807 -0.4507  1.6547
  621SOL    HW2 2483   1.518   2.151   2.059 -1.3455  2.5778  0.7664
  621SOL     MW 2484   1.475   2.113   1.994 -0.2565  0.0290  0.1446
  622SOL     OW 2485   2.623   0.160   0.179 -0.0928  0.0059  0.3129
  622SOL    HW1 2486   2.716   0.157   0.202 -2.2681 -3.5067 -0.1787
  622SOL    HW2 2487   2.607   0.065   0.145  0.1128 -0.6441  0.3122
  622SOL     MW 2488   2.633   0.147   0.178 -0.3527 -0.5433  0.2479
  623SOL     OW 2489   2.369   2.788   0.841 -0.3134 -0.1663 -0.1988
  623SOL    HW1 2490   2.411   2.872   0.841 -2.5409 -0.4414  0.1728
  623SOL    HW2 2491   2.310   2.791   0.914 -0.6129 -1.3194 -0.8035
  623SOL     MW 2492   2.367   2.799   0.850 -0.6468 -0.3548 -0.2296
  624SOL     OW 2493   2.238   1.645   3.015 -0.1234 -0.2429  0.5857
  624SOL    HW1 2494   2.159   1.606   3.048  1.7694  0.8415  0.8592
  624SOL    HW2 2495   2.215   1.738   3.007  0.3253 -0.8498  0.0059
  624SOL     MW 2496   2.224   1.652   3.019  0.1855 -0.1799  0.5453
  625SOL     OW 2497   2.182   1.888   1.074 -0.4105 -0.1397  0.0045
  625SOL    HW1 2498   2.246   1.858   1.138  0.8648  0.6713  1.0490
  625SOL    HW2 2499   2.229   1.894   0.994 -1.3108  0.0621  1.1939
  625SOL     MW 2500   2.197   1.885   1.072 -0.3610 -0.0061  0.2992
  626SOL     OW 2501   0.157   1.546   2.386  0.1857  0.1408 -0.2009
  626SOL    HW1 2502   0.136   1.497   2.305  3.3332 -1.9524 -1.0073
  626SOL    HW2 2503   0.088   1.525   2.454  4.0097 -3.1664  0.3597
  626SOL     MW 2504   0.145   1.537   2.384  1.1055 -0.5717 -0.2333
  627SOL     OW 2505   2.445   0.844   2.556  0.0348 -0.8143  0.1090
  627SOL    HW1 2506   2.404   0.935   2.552  0.8583 -1.1881  0.1853
  627SOL    HW2 2507   2.420   0.801   2.469 -1.2707  2.2613  0.0531
  627SOL     MW 2508   2.436   0.850   2.544 -0.0288 -0.4578  0.1117
  628SOL     OW 2509   2.299   1.368   1.379 -0.4378  0.0608 -0.0276
  628SOL    HW1 2510   2.300   1.293   1.320 -0.6330  0.1876  3.3888
  628SOL    HW2 2511   2.393   1.379   1.399  1.3483  0.9191  2.4025
  628SOL     MW 2512   2.312   1.360   1.374 -0.2279  0.1908  0.7438
  629SOL     OW 2513   2.000   0.554   1.193 -0.2179  0.0930  0.7631
  629SOL    HW1 2514   2.077   0.615   1.194 -0.9245 -1.5253  0.0329
  629SOL    HW2 2515   1.923   0.601   1.230 -0.3109 -2.1124 -1.2263
  629SOL     MW 2516   2.000   0.569   1.198 -0.3234 -0.4115  0.4043
  630SOL     OW 2517   2.517   1.793   3.066  0.4194  0.2435 -0.0000
  630SOL    HW1 2518   2.450   1.812   2.997 -0.8030 -0.6234 -1.6473
  630SOL    HW2 2519   2.500   1.700   3.095  0.2260  1.2631 -1.9282
  630SOL     MW 2520   2.506   1.783   3.060  0.2326  0.2637 -0.4718
  631SOL     OW 2521   1.977   1.788   1.606  0.6079  0.4543 -0.2007
  631SOL    HW1 2522   1.973   1.706   1.667 -1.6501  0.4875  0.8538
  631SOL    HW2 2523   1.950   1.757   1.517 -2.7588 -1.8397 -2.5533
  631SOL     MW 2524   1.973   1.773   1.602 -0.1342  0.1560 -0.3720
  632SOL     OW 2525   0.193   2.096   1.576 -0.9321  0.4207  0.1723
  632SOL    HW1 2526   0.137   2.112   1.649  1.7193 -1.4661 -0.7107
  632SOL    HW2 2527   0.167   2.008   1.549  0.5542 -2.9799 -0.7814
  632SOL     MW 2528   0.182   2.086   1.582 -0.3862 -0.2769 -0.0701
  633SOL     OW 2529   2.417   0.681   0.358  0.0368  0.1452 -0.2954
  633SOL    HW1 2530   2.498   0.657   0.401  0.9877  1.8235  3.0257
  633SOL    HW2 2531   2.366   0.601   0.348 -1.4460  0.3020 -2.5355
  633SOL     MW 2532   2.421   0.667   0.362 -0.0334  0.3873 -0.1528
  634SOL     OW 2533   2.649   3.082   0.624  0.0612 -0.2886 -0.0871
  634SOL    HW1 2534   2.680   3.176   0.614  0.1254  0.1374  1.8838
  634SOL    HW2 2535   2.597   3.065   0.547 -1.2978 -0.6785  0.4356
  634SOL     MW 2536   2.646   3.092   0.612 -0.1097 -0.2839  0.2419
  635SOL     OW 2537   2.630   0.129   1.805  0.3461  0.3131 -0.0128
  635SOL    HW1 2538   2.702   0.089   1.757 -1.1678 -1.5890 -0.1920
  635SOL    HW2 2539   2.655   0.212   1.845 -1.7161  1.6607 -1.9692
  635SOL     MW 2540   2.643   0.135   1.804 -0.1257  0.2400 -0.2946
  636SOL     OW 2541   2.925   1.641   0.971  0.3331  0.3018 -0.1219
  636SOL    HW1 2542   2.831   1.649   0.980  0.6881 -0.2224 -0.0049
  636SOL    HW2 2543   2.965   1.676   1.053  2.7610  0.0720  1.3985
  636SOL     MW 2544   2.918   1.647   0.983  0.7002  0.2023  0.0941
  637SOL     OW 2545   2.905   1.490   0.714 -0.0262 -0.1366 -0.5497
  637SOL    HW1 2546   2.967   1.552   0.738 -1.5328 -1.7840  0.7105
  637SOL    HW2 2547   2.825   1.516   0.756  0.3145 -0.1925 -1.0936
  637SOL     MW 2548   2.903   1.502   0.723 -0.1800 -0.3614 -0.4552
  638SOL     OW 2549   2.651   0.668   0.509  0.2714 -0.2992 -0.4917
  638SOL    HW1 2550   2.743   0.663   0.478 -0.9689 -0.6661  0.4615
  638SOL    HW2 2551   2.660   0.605   0.579 -0.7381  0.0304  0.1058
  638SOL     MW 2552   2.664   0.659   0.514 -0.0254 -0.3041 -0.2871
  639SOL     OW 2553   1.802   3.098   0.629  0.3646  0.1052 -0.7945
  639SOL    HW1 2554   1.720   3.146   0.596  1.7193  2.2442 -0.9742
  639SOL    HW2 2555   1.838   3.039   0.564 -0.6082  0.7727  0.2546
  639SOL     MW 2556   1.796   3.096   0.616  0.4150  0.4755 -0.6798
  640SOL     OW 2557   0.379   1.360   0.085 -0.0511  0.5727  0.0378
  640SOL    HW1 2558   0.414   1.389  -0.001  1.4831 -1.2668 -1.7441
  640SOL    HW2 2559   0.314   1.287   0.064 -0.9152 -1.1267  1.1156
  640SOL     MW 2560   0.375   1.354   0.071  0.0373  0.1058 -0.0551
  641SOL     OW 2561   2.262   0.453   0.366 -0.7531 -0.2207  0.2400
  641SOL    HW1 2562   2.279   0.425   0.276 -0.2566  1.1415 -1.7250
  641SOL    HW2 2563   2.323   0.398   0.420 -1.7803 -0.0041 -1.4741
  641SOL     MW 2564   2.273   0.442   0.362 -0.8232 -0.0124 -0.2455
  642SOL     OW 2565   0.030   0.020   0.539 -0.3720 -0.5812  0.2220
  642SOL    HW1 2566   0.002   0.111   0.524 -1.3121  0.7421  4.7821
  642SOL    HW2 2567  -0.054  -0.021   0.568 -0.3602 -1.5086  3.3085
  642SOL     MW 2568   0.015   0.027   0.541 -0.4945 -0.5290  1.2309
  643SOL     OW 2569   2.013   0.321   1.669  0.1951  0.5399  0.0670
  643SOL    HW1 2570   2.094   0.312   1.717 -0.2687  1.2381  0.2100
  643SOL    HW2 2571   1.999   0.250   1.601 -3.4141  0.6393 -0.8837
  643SOL     MW 2572   2.021   0.311   1.666 -0.3423  0.6451 -0.0396
  644SOL     OW 2573   2.708   1.843   0.983  0.0853 -0.0937  0.5135
  644SOL    HW1 2574   2.662   1.800   1.051 -0.8417 -0.2439 -1.2935
  644SOL    HW2 2575   2.644   1.844   0.913 -1.1666 -0.0423 -1.3211
  644SOL     MW 2576   2.694   1.837   0.982 -0.2022 -0.1067  0.0330
  645SOL     OW 2577   2.792   0.893   0.650  0.4945 -0.4311  0.3348
  645SOL    HW1 2578   2.852   0.839   0.704  0.4096  0.4975 -0.5147
  645SOL    HW2 2579   2.716   0.836   0.637 -0.0152 -1.1060  0.7363
  645SOL     MW 2580   2.790   0.878   0.655  0.4160 -0.3977  0.2757
  646SOL     OW 2581   0.181   2.260   0.870  0.1809 -0.2341 -0.5377
  646SOL    HW1 2582   0.193   2.166   0.868 -1.4080  0.1834  2.5990
  646SOL    HW2 2583   0.145   2.289   0.787 -0.1120  2.7058  3.0815
  646SOL     MW 2584   0.178   2.251   0.859 -0.0674  0.2088  0.3537
  647SOL     OW 2585   2.731   0.534   2.978 -0.2372  0.3010 -0.0132
  647SOL    HW1 2586   2.665   0.484   3.020  2.0159 -2.5304 -2.5484
  647SOL    HW2 2587   2.697   0.618   2.978 -1.2661 -1.7710  1.6941
  647SOL     MW 2588   2.717   0.539   2.984 -0.0757 -0.3460 -0.1224
  648SOL     OW 2589   2.217   0.710   1.179  0.2724 -0.1650  0.5706
  648SOL    HW1 2590   2.201   0.771   1.103 -1.1649  0.3305  2.3825
  648SOL    HW2 2591   2.241   0.770   1.248  1.3583 -1.4898  0.9873
  648SOL     MW 2592   2.218   0.726   1.178  0.2260 -0.2744  0.8646
  649SOL     OW 2593   2.375   2.710   1.241  0.3257  0.1858  0.3081
  649SOL    HW1 2594   2.466   2.744   1.247 -0.7793  0.8759  0.2316
  649SOL    HW2 2595   2.373   2.612   1.221  1.2517  1.4525  2.3788
  649SOL     MW 2596   2.386   2.702   1.239  0.3021  0.4440  0.5712
  650SOL     OW 2597   2.780   0.232   0.615  0.7321  0.1941  0.3046
  650SOL    HW1 2598   2.807   0.262   0.705 -0.8575  1.6513  0.0719
  650SOL    HW2 2599   2.852   0.260   0.556  3.0740 -0.4166 -0.6408
  650SOL     MW 2600   2.793   0.240   0.619  0.8313  0.3058  0.1491
  651SOL     OW 2601   2.958   0.332   0.842 -0.0371  0.2841  0.0194
  651SOL    HW1 2602   3.007   0.345   0.761  1.9454  1.3733 -1.4335
  651SOL    HW2 2603   2.941   0.422   0.879 -1.0116  0.4169 -0.3614
  651SOL     MW 2604   2.962   0.345   0.836  0.0959  0.4454 -0.2225
  652SOL     OW 2605   2.359   1.430   2.939  0.0016  0.2687  0.5319
  652SOL    HW1 2606   2.438   1.447   2.879  2.7388  0.8983  1.3373
  652SOL    HW2 2607   2.310   1.513   2.943  0.6958 -0.7705  0.4593
  652SOL     MW 2608   2.363   1.443   2.931  0.4544  0.2147  0.6286
  653SOL     OW 2609   1.967   0.417   0.372  0.2438  0.7945 -0.0514
  653SOL    HW1 2610   1.949   0.405   0.279  0.6148 -0.2297 -1.1877
  653SOL    HW2 2611   2.059   0.409   0.375 -0.1504 -2.4020 -1.3084
  653SOL     MW 2612   1.977   0.414   0.360  0.2408  0.2376 -0.3671
  654SOL     OW 2613   2.472   1.028   0.700  0.4127  0.2362 -0.2657
  654SOL    HW1 2614   2.388   0.992   0.670  0.1459  1.6044  2.1153
  654SOL    HW2 2615   2.496   0.969   0.776 -1.8964  1.9823 -0.0405
  654SOL     MW 2616   2.464   1.015   0.706  0.0728  0.6471  0.0781
  655SOL     OW 2617   3.028   0.911   0.439 -0.3460 -0.0634  0.2164
  655SOL    HW1 2618   3.019   0.946   0.527 -1.1090 -0.2471 -0.6150
  655SOL    HW2 2619   3.004   0.815   0.441  0.0888  0.7347 -2.4657
  655SOL     MW 2620   3.024   0.903   0.451 -0.3893  0.0177 -0.2472
  656SOL     OW 2621   1.947   2.781   1.225 -0.2165 -0.6097  0.3397
  656SOL    HW1 2622   1.921   2.863   1.269 -1.1634  2.0554 -0.7536
  656SOL    HW2 2623   1.979   2.717   1.281 -2.4097  1.5548 -0.3411
  656SOL     MW 2624   1.948   2.783   1.238 -0.6308  0.0275  0.1056
  657SOL     OW 2625   0.242   1.514   1.231  0.1063 -0.3104  0.0860
  657SOL    HW1 2626   0.146   1.502   1.235  0.5359 -1.1839  2.3676
  657SOL    HW2 2627   0.258   1.564   1.153  1.8933 -0.4510 -0.4905
  657SOL     MW 2628   0.231   1.519   1.221  0.3987 -0.4442  0.3110
  658SOL     OW 2629   2.703   1.387   0.246  0.1121 -0.3041 -0.2503
  658SOL    HW1 2630   2.638   1.329   0.290 -0.9802 -0.2306 -0.1490
  658SOL    HW2 2631   2.721   1.453   0.312 -1.2289 -1.3887 -1.3957
  658SOL     MW 2632   2.697   1.388   0.261 -0.2089 -0.4375 -0.3880
  659SOL     OW 2633   2.233   1.556   1.021  0.0901  0.0673 -0.4731
  659SOL    HW1 2634   2.330   1.536   1.048  1.9674  0.0901 -0.0458
  659SOL    HW2 2635   2.178   1.561   1.100  2.8302  0.9764 -3.1278
  659SOL     MW 2636   2.239   1.554   1.035  0.6993  0.1903 -0.7670
  660SOL     OW 2637   2.041   1.548   1.720  0.8790 -0.4316  0.4476
  660SOL    HW1 2638   2.063   1.567   1.814 -0.1811  1.5846 -1.1282
  660SOL    HW2 2639   2.011   1.462   1.702 -0.9170  3.2671  0.2110
  660SOL     MW 2640   2.040   1.539   1.730  0.5022  0.3224  0.2085
  661SOL     OW 2641   2.372   1.126   0.159  0.2938 -0.1167  0.0019
  661SOL    HW1 2642   2.447   1.162   0.204 -1.7821 -1.6891 -0.5933
  661SOL    HW2 2643   2.357   1.040   0.204  1.7348 -1.7739  0.7963
  661SOL     MW 2644   2.380   1.120   0.171  0.2100 -0.5428  0.0282
  662SOL     OW 2645   2.542   3.003   0.878  0.1985 -0.6301  0.2865
  662SOL    HW1 2646   2.499   3.075   0.931  1.3285  1.1464  1.0280
  662SOL    HW2 2647   2.571   3.040   0.795  0.6811 -1.5708 -0.0014
  662SOL     MW 2648   2.540   3.018   0.874  0.4113 -0.5198  0.3463
  663SOL     OW 2649   2.818   1.567   0.439  0.4458  0.4904  0.1676
  663SOL    HW1 2650   2.881   1.627   0.411 -1.4169 -2.4107  0.0240
  663SOL    HW2 2651   2.841   1.559   0.533  0.8146  0.4796 -0.6566
  663SOL     MW 2652   2.830   1.574   0.447  0.2487  0.1062  0.0399
  664SOL     OW 2653   2.485   1.589   1.550  0.2479  0.3396 -0.1634
  664SOL    HW1 2654   2.447   1.678   1.536 -0.2014 -0.1392 -2.6776
  664SOL    HW2 2655   2.419   1.542   1.603 -1.3887 -1.6238  0.7890
  664SOL     MW 2656   2.471   1.595   1.555 -0.0273  0.0173 -0.3695
  665SOL     OW 2657   2.861   0.801   2.033 -0.4718 -0.0081 -0.1850
  665SOL    HW1 2658   2.827   0.829   1.945 -0.8337 -0.5832 -0.9442
  665SOL    HW2 2659   2.929   0.736   2.026 -2.0782 -0.6824 -0.1505
  665SOL     MW 2660   2.865   0.796   2.020 -0.7315 -0.1729 -0.2806
  666SOL     OW 2661   2.798   3.005   1.685 -0.5945  0.3257  0.2511
  666SOL    HW1 2662   2.774   3.007   1.592  0.8678  3.0428 -0.6879
  666SOL    HW2 2663   2.750   2.935   1.724  1.5327  1.4145 -0.0806
  666SOL     MW 2664   2.788   2.996   1.678 -0.1209  0.8278  0.0835
  667SOL     OW 2665   1.946   2.691   1.603  0.5727  0.1679 -0.7224
  667SOL    HW1 2666   1.971   2.629   1.671 -1.6914 -0.3936 -2.7246
  667SOL    HW2 2667   2.019   2.756   1.600 -1.0490 -0.2676  0.3791
  667SOL     MW 2668   1.959   2.691   1.611  0.0600  0.0364 -0.8412
  668SOL     OW 2669   2.750   0.634   0.807 -0.0237  0.1693  0.0155
  668SOL    HW1 2670   2.807   0.664   0.879 -0.6260  1.3472  1.1510
  668SOL    HW2 2671   2.682   0.699   0.815  4.0122 -0.6434 -0.9028
  668SOL     MW 2672   2.748   0.647   0.818  0.4293  0.2175  0.0442
  669SOL     OW 2673   0.150   0.918   0.726 -0.0604 -0.6144  0.0023
  669SOL    HW1 2674   0.087   0.988   0.761 -0.3793 -1.4734 -0.3750
  669SOL    HW2 2675   0.236   0.960   0.733  2.9672  2.3895  0.5585
  669SOL     MW 2676   0.153   0.933   0.732  0.2970 -0.3314  0.0259
  670SOL     OW 2677   2.909   0.277   0.238  0.4209 -0.0463 -0.1927
  670SOL    HW1 2678   2.930   0.213   0.170  0.1140  0.2490 -1.0144
  670SOL    HW2 2679   2.912   0.365   0.193  0.5959  2.3191 -0.5894
  670SOL     MW 2680   2.912   0.280   0.223  0.4035  0.3047 -0.3535
  671SOL     OW 2681   2.162  -0.000   1.617  0.3450  0.2648 -0.0048
  671SOL    HW1 2682   2.139   0.054   1.536 -1.4771 -3.1249 -2.0838
  671SOL    HW2 2683   2.088  -0.015   1.677  0.7065 -0.8135  0.8531
  671SOL     MW 2684   2.149   0.005   1.614  0.1523 -0.3247 -0.1659
  672SOL     OW 2685   1.880   1.706   1.352 -0.3391 -0.3163 -0.6163
  672SOL    HW1 2686   1.793   1.721   1.362  3.2126  2.0625  1.2193
  672SOL    HW2 2687   1.907   1.763   1.276  1.3751  1.4457  0.8710
  672SOL     MW 2688   1.872   1.716   1.343  0.3557  0.2300 -0.1779
  673SOL     OW 2689   2.787   1.106   0.460 -0.2016 -0.0481 -0.3388
  673SOL    HW1 2690   2.783   1.057   0.546 -1.1862  0.9524 -0.0514
  673SOL    HW2 2691   2.870   1.165   0.470 -1.5531  1.0418  1.2122
  673SOL     MW 2692   2.797   1.107   0.472 -0.5098  0.2277 -0.0962
  674SOL     OW 2693   2.496   0.027   1.283  0.7591  0.6087 -0.0428
  674SOL    HW1 2694   2.457   0.038   1.195  1.2373  0.9692  2.5805
  674SOL    HW2 2695   2.528  -0.063   1.278  1.4001 -0.4660 -1.7064
  674SOL     MW 2696   2.495   0.016   1.271  0.9068  0.5145  0.0838
  675SOL     OW 2697   2.967   1.065   1.100  0.0723  0.0789  0.1838
  675SOL    HW1 2698   3.041   1.022   1.153  1.3137 -2.4279 -1.1086
  675SOL    HW2 2699   2.987   1.057   1.006 -1.3686  4.2799  1.1781
  675SOL     MW 2700   2.979   1.058   1.094  0.0460  0.3024  0.1444
  676SOL     OW 2701   2.810   1.477   1.633 -0.5409 -0.7310 -0.1686
  676SOL    HW1 2702   2.765   1.398   1.631  1.0112  1.7196  0.8627
  676SOL    HW2 2703   2.896   1.443   1.648  1.3052 -0.3187 -2.7935
  676SOL     MW 2704   2.815   1.462   1.635 -0.0925 -0.3532 -0.3789
  677SOL     OW 2705   2.473   0.827   1.869 -0.5010 -0.3755  0.4980
  677SOL    HW1 2706   2.419   0.870   1.804 -0.2298  1.2576 -0.4303
  677SOL    HW2 2707   2.425   0.835   1.957  1.6818 -0.1343 -1.1301
  677SOL     MW 2708   2.459   0.834   1.872 -0.1772 -0.1282  0.1607
  678SOL     OW 2709   2.485   1.583   0.451  0.3684 -0.2197 -0.0805
  678SOL    HW1 2710   2.406   1.637   0.433  0.1637 -0.7612  2.3080
  678SOL    HW2 2711   2.565   1.625   0.421 -1.9862  1.7009  1.6350
  678SOL     MW 2712   2.485   1.596   0.445  0.0308 -0.0378  0.4610
  679SOL     OW 2713   2.412   0.505   1.156  0.0110  0.0836 -0.8052
  679SOL    HW1 2714   2.364   0.425   1.151 -0.5246  0.6136 -0.9546
  679SOL    HW2 2715   2.345   0.577   1.146 -1.5580 -1.5736 -3.1235
  679SOL     MW 2716   2.397   0.504   1.154 -0.2667 -0.0651 -1.1308
  680SOL     OW 2717   2.410   0.270   1.460  0.0741  0.1645 -0.0430
  680SOL    HW1 2718   2.364   0.242   1.538 -1.4810  2.5644 -1.6084
  680SOL    HW2 2719   2.412   0.193   1.396 -0.6815  1.4074 -2.2138
  680SOL     MW 2720   2.404   0.256   1.462 -0.2307  0.6451 -0.5359
  681SOL     OW 2721   0.298   0.504   1.565  0.2250  0.4333  0.0175
  681SOL    HW1 2722   0.277   0.421   1.608 -0.5191  2.4827 -1.4904
  681SOL    HW2 2723   0.396   0.516   1.568  1.4076 -1.6696  1.1952
  681SOL     MW 2724   0.308   0.495   1.571  0.2829  0.4262 -0.0260
  682SOL     OW 2725   0.110   3.011   1.467  0.5897  0.2415 -0.1624
  682SOL    HW1 2726   0.118   3.100   1.461 -1.6755 -0.5795 -0.4550
  682SOL    HW2 2727   0.059   2.992   1.548  0.2065  5.0966  1.6992
  682SOL     MW 2728   0.105   3.020   1.477  0.2403  0.7738  0.0446
  683SOL     OW 2729   1.994   0.819   3.001  0.7968  0.2148  0.0978
  683SOL    HW1 2730   1.907   0.782   2.987 -0.0016 -1.8569 -1.5981
  683SOL    HW2 2731   1.978   0.907   3.033 -2.0225  1.9458 -0.9517
  683SOL     MW 2732   1.980   0.826   3.004  0.3195  0.1699 -0.2644
  684SOL     OW 2733   2.156   1.739   0.817  0.4154 -0.0894  0.5769
  684SOL    HW1 2734   2.064   1.727   0.848 -0.2331 -0.9651  1.5854
  684SOL    HW2 2735   2.205   1.684   0.881 -0.0394  0.0384  3.0972
  684SOL     MW 2736   2.151   1.730   0.829  0.2698 -0.1881  1.0425
  685SOL     OW 2737   2.570   1.747   1.206 -0.2909 -0.3690  0.2249
  685SOL    HW1 2738   2.623   1.741   1.282 -0.9997  0.6292 -0.6009
  685SOL    HW2 2739   2.547   1.659   1.181 -2.6610 -0.9141  1.0833
  685SOL     MW 2740   2.574   1.735   1.212 -0.6971 -0.3092  0.2292
  686SOL     OW 2741   2.944   0.695   1.493 -0.9304 -0.3256 -0.8498
  686SOL    HW1 2742   2.957   0.644   1.572 -0.6319 -0.1355  0.1359
  686SOL    HW2 2743   3.030   0.694   1.455 -0.3023  0.4562  0.3424
  686SOL     MW 2744   2.957   0.689   1.499 -0.8082 -0.1973 -0.5625
  687SOL     OW 2745   2.155   0.321   1.183  0.0899 -0.2129  0.3895
  687SOL    HW1 2746   2.153   0.260   1.109  0.3803 -0.7205  0.5000
  687SOL    HW2 2747   2.072   0.369   1.177 -1.9541 -0.1202 -0.2337
  687SOL     MW 2748   2.144   0.320   1.172 -0.1414 -0.2676  0.3219
  688SOL     OW 2749   2.342   0.565   1.414 -0.3315  0.1644  0.1826
  688SOL    HW1 2750   2.362   0.470   1.422 -0.2894 -0.5076 -0.1829
  688SOL    HW2 2751   2.362   0.588   1.325 -1.3933 -1.8205 -2.2805
  688SOL     MW 2752   2.347   0.555   1.403 -0.4660 -0.1861 -0.1906
  689SOL     OW 2753   2.556   0.762   2.988  0.3735  0.2172  0.0349
  689SOL    HW1 2754   2.575   0.848   2.953 -0.0512 -1.3355 -0.6810
  689SOL    HW2 2755   2.573   0.781   3.085  1.4305  0.2486 -1.1827
  689SOL     MW 2756   2.561   0.776   2.996  0.4569  0.0165 -0.2202
  690SOL     OW 2757   2.047   1.019   1.981  0.6771  0.2223 -0.3928
  690SOL    HW1 2758   1.982   0.943   1.977 -0.6223  0.2852 -1.1762
  690SOL    HW2 2759   2.097   1.016   1.895  0.2992  0.9527 -3.7155
  690SOL     MW 2760   2.045   1.009   1.969  0.4558  0.3270 -0.9346
  691SOL     OW 2761   2.440   0.284   0.822  0.0511 -0.8210 -0.2719
  691SOL    HW1 2762   2.520   0.330   0.855 -0.9150  0.5146 -0.4936
  691SOL    HW2 2763   2.371   0.352   0.846  0.9197  1.0502  2.0619
  691SOL     MW 2764   2.442   0.299   0.830  0.0382 -0.3979  0.0068
  692SOL     OW 2765   2.765   1.666   1.403  0.4189  0.2035 -0.4422
  692SOL    HW1 2766   2.749   1.627   1.490 -2.7543  1.5640  1.0998
  692SOL    HW2 2767   2.810   1.750   1.440 -0.5331  0.6854 -2.8449
  692SOL     MW 2768   2.769   1.672   1.420 -0.1254  0.4466 -0.5558
  693SOL     OW 2769   2.285   0.406   0.095 -0.3818 -0.1463  0.4880
  693SOL    HW1 2770   2.194   0.365   0.087  0.4175  0.4468 -2.2942
  693SOL    HW2 2771   2.260   0.498   0.081  0.5961 -2.7231  0.9016
  693SOL     MW 2772   2.270   0.413   0.092 -0.1473 -0.4080  0.1755
  694SOL     OW 2773   1.997   1.290   1.199  0.1675 -0.0524 -0.5523
  694SOL    HW1 2774   2.075   1.236   1.202 -2.0518 -0.8943  0.8513
  694SOL    HW2 2775   1.931   1.232   1.232  2.1163 -0.8796 -0.2808
  694SOL     MW 2776   1.998   1.275   1.204  0.1318 -0.2726 -0.3313
  695SOL     OW 2777   2.982   1.492   1.322 -0.5891  0.0729  0.1931
  695SOL    HW1 2778   2.964   1.447   1.242  1.2110  0.4487 -1.7847
  695SOL    HW2 2779   2.915   1.562   1.337 -1.3161 -0.6970 -1.3547
  695SOL     MW 2780   2.971   1.495   1.313 -0.4475  0.0209 -0.2721
  696SOL     OW 2781   2.028   1.405   0.920  0.2777  0.1085 -0.2370
  696SOL    HW1 2782   2.116   1.450   0.935  0.4864 -0.4727  4.7447
  696SOL    HW2 2783   1.995   1.376   1.005  1.0148 -0.6026 -0.7674
  696SOL     MW 2784   2.035   1.408   0.933  0.4025 -0.0620  0.3503
  697SOL     OW 2785   2.872   0.930   2.294 -0.2182  0.4793  0.2233
  697SOL    HW1 2786   2.860   1.012   2.249 -1.3646 -1.9427  2.4690
  697SOL    HW2 2787   2.896   0.872   2.222 -0.8835  1.1850 -2.8075
  697SOL     MW 2788   2.874   0.933   2.278 -0.4573  0.2529  0.1197
  698SOL     OW 2789   2.541   0.383  -0.002 -0.2340 -0.4804  0.3157
  698SOL    HW1 2790   2.456   0.418   0.029  0.6278 -3.1436 -0.1772
  698SOL    HW2 2791   2.572   0.323   0.068 -1.4355  0.6109  3.1787
  698SOL     MW 2792   2.534   0.380   0.012 -0.2788 -0.6878  0.6284
  699SOL     OW 2793   1.829   1.599   2.050 -0.3873 -0.2081  0.0998
  699SOL    HW1 2794   1.804   1.506   2.061 -0.5420  2.0404  1.6674
  699SOL    HW2 2795   1.922   1.596   2.072 -0.5040 -0.1666 -0.8083
  699SOL     MW 2796   1.838   1.587   2.054 -0.4231  0.0940  0.1868
  700SOL     OW 2797   2.727   0.891   1.503  0.2200  0.4324  0.1868
  700SOL    HW1 2798   2.755   0.967   1.454 -1.9990 -1.7434  0.4996
  700SOL    HW2 2799   2.789   0.822   1.477  0.7734  2.8913  0.4355
  700SOL     MW 2800   2.739   0.892   1.493  0.0003  0.4698  0.2609
  701SOL     OW 2801   1.687   1.280   2.625  0.1911  0.1135 -0.1304
  701SOL    HW1 2802   1.780   1.307   2.639 -1.2145 -0.2454  1.7051
  701SOL    HW2 2803   1.638   1.334   2.695 -0.6803 -0.9855 -0.2259
  701SOL     MW 2804   1.693   1.291   2.636 -0.1093 -0.0788  0.0992
  702SOL     OW 2805   2.223   0.455   0.810  0.4644 -0.5362  0.1232
  702SOL    HW1 2806   2.207   0.378   0.753 -0.0174  2.9748  0.8648
  702SOL    HW2 2807   2.265   0.523   0.756  3.0979 -3.1159 -0.7340
  702SOL     MW 2808   2.227   0.454   0.796  0.7483 -0.4133  0.1079
  703SOL     OW 2809   2.663   1.277   1.001  0.1185  0.2662 -0.1603
  703SOL    HW1 2810   2.680   1.282   0.904  0.0231  1.6091 -0.0321
  703SOL    HW2 2811   2.646   1.185   1.022 -2.0233 -1.4440  1.0325
  703SOL     MW 2812   2.663   1.266   0.991 -0.1767  0.2177  0.0140
  704SOL     OW 2813   0.034   1.265   0.265 -0.5789  0.1885 -0.4215
  704SOL    HW1 2814  -0.034   1.241   0.207  2.5455 -3.7483  0.3569
  704SOL    HW2 2815   0.053   1.187   0.315 -0.9092 -1.7983  0.6394
  704SOL     MW 2816   0.028   1.251   0.264 -0.2102 -0.5931 -0.1788
  705SOL     OW 2817   2.165   1.607   1.308 -0.0539  0.3179  0.1154
  705SOL    HW1 2818   2.082   1.616   1.360 -0.4841 -0.6797  1.9377
  705SOL    HW2 2819   2.208   1.528   1.349 -3.5999  0.1852 -0.9590
  705SOL     MW 2820   2.160   1.598   1.320 -0.5786  0.1688  0.2141
  706SOL     OW 2821   3.001   1.253   0.570 -0.0822  0.3058  0.0773
  706SOL    HW1 2822   3.098   1.244   0.571 -0.3023  0.7676  1.8211
  706SOL    HW2 2823   3.000   1.337   0.613  1.2774 -2.2327 -0.4691
  706SOL     MW 2824   3.014   1.263   0.576  0.0682  0.0318  0.2353
  707SOL     OW 2825   2.402   0.106   1.029 -0.8201 -0.4506  0.1720
  707SOL    HW1 2826   2.440   0.150   0.954 -1.3484 -1.6368  1.4626
  707SOL    HW2 2827   2.309   0.106   1.014 -0.5964  1.1842 -1.0043
  707SOL     MW 2828   2.395   0.112   1.017 -0.8603 -0.3914  0.1871
  708SOL     OW 2829   2.541   1.520   0.067 -0.3611 -0.6502 -0.2100
  708SOL    HW1 2830   2.603   1.462   0.115 -0.4082 -0.2230 -0.0847
  708SOL    HW2 2831   2.501   1.468   0.001 -0.7156 -0.1653  2.3455
  708SOL     MW 2832   2.544   1.505   0.064 -0.4141 -0.5298  0.1437
  709SOL     OW 2833   1.726   1.751   0.114 -0.7263 -0.1314 -0.0155
  709SOL    HW1 2834   1.720   1.719   0.024 -0.3864  0.7290 -4.0378
  709SOL    HW2 2835   1.642   1.719   0.153  0.7946  2.4772 -0.0946
  709SOL     MW 2836   1.714   1.742   0.107 -0.4808  0.3263 -0.5566
  710SOL     OW 2837   2.230   1.168   1.187 -0.1654 -0.4553  0.1160
  710SOL    HW1 2838   2.267   1.149   1.097  1.1781  3.0405  2.6835
  710SOL    HW2 2839   2.227   1.077   1.236  1.1884 -0.7025  1.3834
  710SOL     MW 2840   2.234   1.153   1.181  0.1905 -0.0267  0.6220
  711SOL     OW 2841   2.333   0.204   1.733 -0.0067 -0.5998 -0.3417
  711SOL    HW1 2842   2.423   0.182   1.702 -0.5498  1.6837  1.7273
  711SOL    HW2 2843   2.284   0.120   1.717 -1.9576 -0.7425  2.1543
  711SOL     MW 2844   2.338   0.190   1.727 -0.3357 -0.3173  0.2606
  712SOL     OW 2845   1.628   0.600   3.064  0.1891  0.2317 -0.7182
  712SOL    HW1 2846   1.666   0.662   3.001 -0.4144 -0.0105  0.9135
  712SOL    HW2 2847   1.538   0.635   3.072  1.2302 -1.4882  1.5611
  712SOL     MW 2848   1.621   0.612   3.057  0.2468 -0.0272 -0.2022
  713SOL     OW 2849   2.586   0.790   1.153  0.2234  0.3466  0.1126
  713SOL    HW1 2850   2.641   0.708   1.154 -1.2473 -0.5330 -2.0860
  713SOL    HW2 2851   2.550   0.801   1.242  0.1121  2.7215  0.1848
  713SOL     MW 2852   2.589   0.781   1.165  0.0147  0.5439 -0.1680
  714SOL     OW 2853   2.270   0.175   1.995  0.2069  0.1250 -0.3730
  714SOL    HW1 2854   2.326   0.110   2.037 -0.4185  0.8953  2.8565
  714SOL    HW2 2855   2.312   0.197   1.909  0.0568  2.8442  1.6854
  714SOL     MW 2856   2.283   0.169   1.989  0.1046  0.5854  0.3247
  715SOL     OW 2857   1.746   1.918   1.709 -0.6730 -0.3320 -0.1175
  715SOL    HW1 2858   1.833   1.889   1.691  0.4876  0.4602  2.7490
  715SOL    HW2 2859   1.718   1.846   1.772  0.7024  0.3357  3.4847
  715SOL     MW 2860   1.753   1.905   1.715 -0.3384 -0.1394  0.7359
  716SOL     OW 2861   2.301   0.713   0.638  0.6046 -0.5281  0.3218
  716SOL    HW1 2862   2.383   0.722   0.584  0.7743 -1.0278 -0.0417
  716SOL    HW2 2863   2.222   0.718   0.578  1.7022 -0.9113 -0.5105
  716SOL     MW 2864   2.301   0.715   0.623  0.7718 -0.6446  0.1640
  717SOL     OW 2865   2.828   1.439   2.922 -0.4957 -0.0988 -0.0152
  717SOL    HW1 2866   2.921   1.464   2.947  1.0030  0.1907 -2.3208
  717SOL    HW2 2867   2.778   1.493   2.982  0.2661  1.0952  1.6236
  717SOL     MW 2868   2.833   1.450   2.933 -0.1975  0.0969 -0.1031
  718SOL     OW 2869   2.602   1.401   1.356 -0.4141 -1.4804  0.9212
  718SOL    HW1 2870   2.611   1.457   1.436 -0.7657 -0.5473  3.1465
  718SOL    HW2 2871   2.672   1.335   1.354 -0.0119  0.2434 -0.8312
  718SOL     MW 2872   2.612   1.400   1.366 -0.4074 -1.1299  0.9836
  719SOL     OW 2873   2.184   1.339   0.659  0.8134  0.9622 -0.2406
  719SOL    HW1 2874   2.280   1.320   0.650  0.6895 -0.8884 -1.9107
  719SOL    HW2 2875   2.162   1.332   0.751 -0.9264  2.6893 -1.2527
  719SOL     MW 2876   2.194   1.336   0.670  0.5675  0.9459 -0.5945
  720SOL     OW 2877   2.889   1.204   0.161 -0.2295  0.3892 -0.0296
  720SOL    HW1 2878   2.878   1.115   0.197  1.1643 -0.3817  1.3583
  720SOL    HW2 2879   2.818   1.272   0.196  0.9966  1.8993 -2.7105
  720SOL     MW 2880   2.878   1.201   0.170  0.1162  0.4867 -0.2002
  721SOL     OW 2881   2.475   0.798   1.399 -0.6844  0.4070  0.0909
  721SOL    HW1 2882   2.428   0.734   1.449 -1.8925  0.7187 -3.3071
  721SOL    HW2 2883   2.557   0.835   1.435 -0.3426 -0.9288 -2.6844
  721SOL     MW 2884   2.480   0.794   1.410 -0.7987  0.2719 -0.7236
  722SOL     OW 2885   2.547   1.181   0.354  0.4483  0.1018  0.2731
  722SOL    HW1 2886   2.500   1.204   0.433 -0.0932  3.1854 -0.7138
  722SOL    HW2 2887   2.626   1.140   0.397 -0.0464 -0.0547  0.3760
  722SOL     MW 2888   2.551   1.179   0.370  0.3116  0.4880  0.1565
  723SOL     OW 2889   2.275   1.430   1.673 -0.0408  0.3747 -0.6553
  723SOL    HW1 2890   2.268   1.396   1.579  1.4479  0.7027 -1.9971
  723SOL    HW2 2891   2.195   1.485   1.686  1.7535  0.6925  0.7636
  723SOL     MW 2892   2.264   1.432   1.662  0.3923  0.4599 -0.6451
  724SOL     OW 2893   2.503   0.382   0.569 -0.5331  0.3497 -0.2521
  724SOL    HW1 2894   2.460   0.345   0.650 -1.9217 -0.6236 -2.2831
  724SOL    HW2 2895   2.567   0.315   0.540 -0.2141  0.5782  0.5916
  724SOL     MW 2896   2.506   0.368   0.576 -0.6742  0.2514 -0.4088
  725SOL     OW 2897   2.679   0.527   1.163 -0.3792 -0.0877  0.1523
  725SOL    HW1 2898   2.702   0.521   1.254  2.0141  1.9971 -0.5639
  725SOL    HW2 2899   2.577   0.529   1.145 -3.6844 -1.0968 -0.0536
  725SOL     MW 2900   2.668   0.527   1.173 -0.4995  0.0542  0.0306
  726SOL     OW 2901   2.568   2.392   0.519  0.0027  0.3590 -0.2111
  726SOL    HW1 2902   2.505   2.456   0.472  2.4530  2.1534 -1.6913
  726SOL    HW2 2903   2.509   2.349   0.581  1.1015 -0.3588 -1.8217
  726SOL     MW 2904   2.552   2.395   0.521  0.4710  0.5010 -0.6189
  727SOL     OW 2905   2.831   0.305   1.648 -0.8162 -0.2983 -0.2631
  727SOL    HW1 2906   2.857   0.312   1.552  1.5501  0.9184 -0.0273
  727SOL    HW2 2907   2.741   0.331   1.659  0.6807  1.4180 -0.2773
  727SOL     MW 2908   2.823   0.309   1.637 -0.3065  0.0887 -0.2339
  728SOL     OW 2909   2.835   1.142   3.002 -0.6145 -0.1281  0.4761
  728SOL    HW1 2910   2.871   1.223   2.956  1.5020 -1.7985 -1.9427
  728SOL    HW2 2911   2.837   1.164   3.098 -1.2813  1.4890 -1.8635
  728SOL     MW 2912   2.840   1.156   3.008 -0.4232 -0.1351 -0.1518
  729SOL     OW 2913   2.492   1.478   1.118  0.4778  0.4058  0.7030
  729SOL    HW1 2914   2.522   1.446   1.202  1.1980  0.2332 -3.9331
  729SOL    HW2 2915   2.513   1.407   1.064 -0.0837 -2.0160  1.5386
  729SOL     MW 2916   2.499   1.465   1.122  0.4988  0.0635  0.2016
  730SOL     OW 2917   2.097   1.172   0.230  0.1638 -0.7568  0.1854
  730SOL    HW1 2918   2.191   1.183   0.241  2.8738 -0.5225  1.6251
  730SOL    HW2 2919   2.050   1.261   0.239 -0.6739  0.2775  1.1345
  730SOL     MW 2920   2.103   1.185   0.233  0.4108 -0.5894  0.5006
  731SOL     OW 2921   2.789   1.802   2.877  0.8304  0.7366  0.0346
  731SOL    HW1 2922   2.701   1.827   2.851  1.3477 -1.1247  3.2862
  731SOL    HW2 2923   2.843   1.880   2.873 -0.4133 -0.0386 -0.4824
  731SOL     MW 2924   2.784   1.816   2.873  0.7345  0.3887  0.3954
  732SOL     OW 2925   2.260   0.942   1.330  0.6666 -0.0862 -0.1493
  732SOL    HW1 2926   2.196   0.940   1.406 -3.2883 -0.7673  0.4883
  732SOL    HW2 2927   2.346   0.937   1.367  3.3457  1.5835  2.6936
  732SOL     MW 2928   2.263   0.941   1.345  0.4983  0.0442  0.3099
  733SOL     OW 2929   2.375   2.888   3.027  0.0320  0.2172  0.3873
  733SOL    HW1 2930   2.290   2.933   3.015 -1.0823  0.4927 -1.2186
  733SOL    HW2 2931   2.347   2.793   3.023  0.2823 -1.0445 -1.4555
  733SOL     MW 2932   2.360   2.881   3.025 -0.0820  0.0871 -0.0677
  734SOL     OW 2933   1.487   0.349   2.472 -0.3418  0.3626 -0.0662
  734SOL    HW1 2934   1.461   0.317   2.556  0.2835  0.3622 -0.3180
  734SOL    HW2 2935   1.532   0.266   2.443  3.9360 -1.7558 -0.0832
  734SOL     MW 2936   1.489   0.334   2.479  0.3051  0.0830 -0.1017
  735SOL     OW 2937   3.033   0.868   2.678  0.6887 -0.5386 -0.2388
  735SOL    HW1 2938   2.957   0.813   2.656 -1.1913 -0.5065 -2.7437
  735SOL    HW2 2939   3.013   0.910   2.760  0.3619  0.5423 -1.1918
  735SOL     MW 2940   3.021   0.866   2.686  0.3975 -0.3917 -0.6951
  736SOL     OW 2941   0.050   0.605   2.473 -0.5334 -0.0270  0.3092
  736SOL    HW1 2942   0.095   0.620   2.388  1.0629 -0.5070  0.1400
  736SOL    HW2 2943   0.010   0.515   2.462 -1.5780 -2.1524 -0.3942
  736SOL     MW 2944   0.050   0.595   2.460 -0.4606 -0.3707  0.1941
  737SOL     OW 2945   2.876   0.688   2.537  0.4248  0.7323  0.0245
  737SOL    HW1 2946   2.821   0.631   2.483 -0.4301  0.6049  1.6824
  737SOL    HW2 2947   2.969   0.672   2.521 -0.4228  2.8108  0.3081
  737SOL     MW 2948   2.881   0.678   2.528  0.2002  0.9898  0.2807
  738SOL     OW 2949   0.178   0.416   1.927  0.5469 -0.2682  0.1582
  738SOL    HW1 2950   0.242   0.482   1.919 -1.8964  2.5180  1.5190
  738SOL    HW2 2951   0.198   0.340   1.872 -1.6184  0.2577  0.1422
  738SOL     MW 2952   0.189   0.415   1.919 -0.0611  0.1688  0.3356
  739SOL     OW 2953   2.571   0.980   2.133  0.0483 -0.1869 -0.8127
  739SOL    HW1 2954   2.476   0.975   2.129  1.5843 -0.1796  0.2201
  739SOL    HW2 2955   2.585   1.022   2.045 -4.6590  0.6240 -1.6702
  739SOL     MW 2956   2.561   0.985   2.121 -0.3701 -0.0790 -0.7896
  740SOL     OW 2957   0.240   1.679   2.957 -0.1772  0.1057 -0.1964
  740SOL    HW1 2958   0.178   1.609   2.944 -0.9442  2.7285 -2.0677
  740SOL    HW2 2959   0.321   1.647   2.996 -0.4580 -1.9523 -0.4548
  740SOL     MW 2960   0.242   1.665   2.960 -0.3155  0.1802 -0.4774
  741SOL     OW 2961   2.199   1.231   2.748 -0.1654 -0.5452  0.4009
  741SOL    HW1 2962   2.212   1.321   2.712 -3.5715  1.3513  2.0862
  741SOL    HW2 2963   2.198   1.244   2.846 -0.7288  0.9601 -1.7057
  741SOL     MW 2964   2.200   1.244   2.756 -0.6892 -0.0963  0.3453
  742SOL     OW 2965   1.650   1.360   2.355  0.7306 -0.1031 -0.1846
  742SOL    HW1 2966   1.604   1.283   2.319  1.2048 -1.0441  0.7990
  742SOL    HW2 2967   1.667   1.340   2.447  0.0797  2.7874  4.0386
  742SOL     MW 2968   1.646   1.347   2.362  0.7073  0.1541  0.5023
  743SOL     OW 2969   2.527   1.223   2.702  0.0941  0.0014  0.1510
  743SOL    HW1 2970   2.430   1.242   2.704  1.5283 -0.1970  1.6182
  743SOL    HW2 2971   2.540   1.150   2.758  1.8449 -0.6876 -0.8205
  743SOL     MW 2972   2.516   1.216   2.710  0.5143 -0.1157  0.2164
  744SOL     OW 2973   2.781   0.919   1.790 -0.0694 -0.2806  0.2247
  744SOL    HW1 2974   2.706   0.950   1.839  1.7673  0.2503  1.1306
  744SOL    HW2 2975   2.751   0.905   1.701 -3.0548  1.0774  1.5252
  744SOL     MW 2976   2.767   0.922   1.785 -0.2209 -0.0313  0.5158
  745SOL     OW 2977   1.727   0.489   2.480 -0.3055 -0.1715  0.0701
  745SOL    HW1 2978   1.724   0.525   2.386  2.2796  1.1855 -0.7168
  745SOL    HW2 2979   1.652   0.426   2.483  0.2715 -3.4092  1.6552
  745SOL     MW 2980   1.717   0.486   2.468  0.1117 -0.4197  0.1754
  746SOL     OW 2981   1.581   1.495   1.702  0.3689  0.5358 -0.4250
  746SOL    HW1 2982   1.602   1.583   1.739  0.0921  0.3682 -1.0437
  746SOL    HW2 2983   1.578   1.434   1.783 -0.0636 -1.3875  0.1350
  746SOL     MW 2984   1.583   1.499   1.718  0.2753  0.2599 -0.4328
  747SOL     OW 2985   2.598   1.128   1.887  0.0667 -0.0146  0.0668
  747SOL    HW1 2986   2.518   1.115   1.834 -2.3134 -2.0119 -1.5895
  747SOL    HW2 2987   2.606   1.221   1.918  3.4957  0.9094  0.0874
  747SOL     MW 2988   2.589   1.139   1.884  0.2051 -0.1562 -0.1490
  748SOL     OW 2989   0.104  -0.002   1.944 -0.2135 -0.5664 -0.4306
  748SOL    HW1 2990   0.192   0.040   1.936 -1.0859 -0.5076 -1.5913
  748SOL    HW2 2991   0.066   0.063   2.004 -1.9803 -1.2843  1.1141
  748SOL     MW 2992   0.110   0.012   1.951 -0.5617 -0.6533 -0.3799
  749SOL     OW 2993   2.415   0.657   2.766  0.0482  0.1540  0.4725
  749SOL    HW1 2994   2.426   0.724   2.692  0.3823 -1.0407 -1.5075
  749SOL    HW2 2995   2.477   0.679   2.840 -0.9986 -0.6935 -1.9436
  749SOL     MW 2996   2.424   0.669   2.766 -0.0458 -0.1154 -0.1075
  750SOL     OW 2997   2.143   3.042   1.991  0.0067  0.0963  0.1060
  750SOL    HW1 2998   2.193   3.129   1.986 -2.0466 -0.5575  0.7115
  750SOL    HW2 2999   2.196   2.975   1.954  2.0886 -0.8767 -1.0699
  750SOL     MW 3000   2.157   3.045   1.985  0.0104 -0.1183  0.0308
  751SOL     OW 3001   3.067   0.335   2.457  0.0283  0.0172  0.1343
  751SOL    HW1 3002   3.007   0.322   2.379 -1.3416  0.2785 -3.0297
  751SOL    HW2 3003   3.154   0.318   2.422 -2.8252 -1.5146  1.9391
  751SOL     MW 3004   3.070   0.331   2.442 -0.5289 -0.1504 -0.0450
  752SOL     OW 3005   2.142   0.923   2.770  0.1675  0.2651 -0.1804
  752SOL    HW1 3006   2.208   0.957   2.827  1.5659 -0.9192 -0.0929
  752SOL    HW2 3007   2.071   0.883   2.820 -0.4059  0.0505 -0.4074
  752SOL     MW 3008   2.141   0.922   2.784  0.2764  0.0805 -0.1988
  753SOL     OW 3009   2.879   0.314   2.271 -0.4113  0.4274 -0.0935
  753SOL    HW1 3010   2.826   0.229   2.267 -1.0148 -2.1354  1.5107
  753SOL    HW2 3011   2.811   0.376   2.305 -1.0220  0.3598 -0.3183
  753SOL     MW 3012   2.863   0.311   2.275 -0.5715  0.0804  0.0885
  754SOL     OW 3013   2.263   2.995   2.598  0.6466 -0.3603  0.0486
  754SOL    HW1 3014   2.281   2.949   2.513 -0.0943 -1.0375 -0.7899
  754SOL    HW2 3015   2.342   2.970   2.651  0.5524 -1.5554 -0.1215
  754SOL     MW 3016   2.276   2.986   2.594  0.5364 -0.6074 -0.0845
  755SOL     OW 3017   2.767   1.628   2.424 -0.6273  0.1483  0.3976
  755SOL    HW1 3018   2.723   1.541   2.421  0.4967  1.6524  0.7540
  755SOL    HW2 3019   2.799   1.639   2.515 -1.5267  0.9514  3.1339
  755SOL     MW 3020   2.765   1.618   2.436 -0.5977  0.4527  0.8056
  756SOL     OW 3021   2.169   1.243   3.018 -0.2216  0.2925  0.3828
  756SOL    HW1 3022   2.234   1.305   3.046 -1.9376 -0.6735 -0.8152
  756SOL    HW2 3023   2.208   1.157   3.014  0.4419  0.2174 -0.6356
  756SOL     MW 3024   2.183   1.240   3.021 -0.3605  0.1551  0.0904
  757SOL     OW 3025   2.169   0.945   1.752 -0.0905  0.0099  0.1888
  757SOL    HW1 3026   2.157   0.848   1.767  0.7099  0.4380  0.8268
  757SOL    HW2 3027   2.107   0.966   1.678  1.8518  1.5332 -1.3161
  757SOL     MW 3028   2.160   0.935   1.744  0.2714  0.2674  0.0744
  758SOL     OW 3029   2.260   1.854   2.626 -0.0969 -0.0194 -0.0619
  758SOL    HW1 3030   2.255   1.876   2.537  0.5512  1.7723  1.0291
  758SOL    HW2 3031   2.339   1.794   2.627  0.5385 -1.1354  1.6132
  758SOL     MW 3032   2.270   1.849   2.614  0.0724  0.0698  0.3031
  759SOL     OW 3033   1.547   1.439   2.798 -0.6249 -0.4489 -0.0183
  759SOL    HW1 3034   1.570   1.513   2.735  0.1886 -1.5387 -0.6618
  759SOL    HW2 3035   1.597   1.441   2.874 -1.2462 -0.7097 -1.7810
  759SOL     MW 3036   1.556   1.449   2.800 -0.5996 -0.6271 -0.3358
  760SOL     OW 3037   2.599   1.920   2.720  0.3982  0.6389 -0.0461
  760SOL    HW1 3038   2.550   1.838   2.702  0.1105  1.6937 -3.2087
  760SOL    HW2 3039   2.674   1.925   2.662  1.5434  1.8120 -0.6643
  760SOL     MW 3040   2.602   1.910   2.710  0.5113  0.9329 -0.5449
  761SOL     OW 3041   2.220   0.480   2.447 -0.9024  0.2744  0.5610
  761SOL    HW1 3042   2.128   0.454   2.453 -2.9180  0.9573 -1.0743
  761SOL    HW2 3043   2.224   0.544   2.517  1.1718  3.2891 -3.0683
  761SOL     MW 3044   2.209   0.485   2.457 -0.8946  0.7623 -0.1336
  762SOL     OW 3045   0.024   0.184   2.131 -0.0010  0.0977  0.4387
  762SOL    HW1 3046  -0.005   0.118   2.193 -1.2531 -0.1626 -1.1778
  762SOL    HW2 3047  -0.047   0.227   2.082 -0.3036  1.7459  2.0080
  762SOL     MW 3048   0.010   0.181   2.132 -0.2061  0.2808  0.4324
  763SOL     OW 3049   2.475   1.198   2.355  0.4257 -0.1084 -0.3603
  763SOL    HW1 3050   2.491   1.153   2.277 -1.6437  2.7565  2.4099
  763SOL    HW2 3051   2.555   1.239   2.390  0.9584 -0.6388  0.4790
  763SOL     MW 3052   2.487   1.197   2.350  0.2230  0.1996  0.1159
  764SOL     OW 3053   0.395   0.096   2.832  0.0154  0.2837 -0.5916
  764SOL    HW1 3054   0.321   0.120   2.769  1.2123  0.5619  0.5238
  764SOL    HW2 3055   0.402   0.168   2.891 -0.4791 -0.5123 -0.2882
  764SOL     MW 3056   0.386   0.109   2.831  0.1081  0.2154 -0.4044
  765SOL     OW 3057   2.716   0.083   2.290 -0.4020  1.2876 -0.1409
  765SOL    HW1 3058   2.671   0.052   2.207 -0.1218  0.0191 -0.2363
  765SOL    HW2 3059   2.747   0.008   2.340 -1.3212 -1.4173  0.4457
  765SOL     MW 3060   2.714   0.069   2.286 -0.4863  0.7633 -0.0761
  766SOL     OW 3061   1.941   3.039   2.163 -0.1015  0.5050  0.4184
  766SOL    HW1 3062   2.004   3.058   2.089  0.1492  1.1283 -1.8541
  766SOL    HW2 3063   1.864   2.995   2.132  0.6948  4.9410 -0.1952
  766SOL     MW 3064   1.939   3.036   2.149  0.0366  1.1725  0.0376
  767SOL     OW 3065   2.679   0.642   1.895  0.0016 -0.0952  0.7452
  767SOL    HW1 3066   2.743   0.663   1.960  1.1525  0.4054  1.1481
  767SOL    HW2 3067   2.618   0.718   1.884 -1.1425 -0.4283  0.0224
  767SOL     MW 3068   2.679   0.655   1.902  0.0025 -0.0731  0.7030
  768SOL     OW 3069  -0.002   1.493   2.963 -0.4068  0.0024  0.4330
  768SOL    HW1 3070   0.002   1.502   3.063 -1.2545 -0.6658  0.2424
  768SOL    HW2 3071   0.035   1.409   2.944  1.6547  0.5720  0.5016
  768SOL     MW 3072   0.004   1.483   2.974 -0.2467 -0.0106  0.4169
  769SOL     OW 3073   2.351   0.713   2.322 -0.4720 -0.0286  0.7350
  769SOL    HW1 3074   2.305   0.637   2.299 -0.2936 -0.4069 -0.2083
  769SOL    HW2 3075   2.433   0.703   2.278 -0.5374 -0.6933 -0.5821
  769SOL     MW 3076   2.356   0.702   2.313 -0.4571 -0.1662  0.4368
  770SOL     OW 3077   0.033   1.560   2.632  0.9545  0.5036 -0.2465
  770SOL    HW1 3078  -0.056   1.572   2.668 -0.0108  1.0615 -2.2700
  770SOL    HW2 3079   0.052   1.469   2.663  1.6508 -0.3897  2.2456
  770SOL     MW 3080   0.024   1.550   2.641  0.9190  0.4593 -0.1847
  771SOL     OW 3081   3.069   0.603   1.963  0.3999  0.3293  0.2470
  771SOL    HW1 3082   3.031   0.603   1.878  1.1749 -4.8728 -0.1556
  771SOL    HW2 3083   3.136   0.541   1.962  0.0094  1.8647  1.1253
  771SOL     MW 3084   3.073   0.595   1.951  0.4506 -0.1545  0.3098
  772SOL     OW 3085   3.101   3.093   2.346 -0.0942  0.0579 -0.0654
  772SOL    HW1 3086   3.022   3.041   2.369  0.2003  2.4278 -1.7317
  772SOL    HW2 3087   3.156   3.034   2.292  2.2046  3.1100  0.9935
  772SOL     MW 3088   3.098   3.079   2.342  0.2480  0.7733 -0.1456
  773SOL     OW 3089   2.478   2.923   2.756  0.2342 -0.2834  0.3204
  773SOL    HW1 3090   2.496   2.834   2.723 -2.0022 -0.8194  2.0712
  773SOL    HW2 3091   2.442   2.912   2.847 -2.2066  2.4257  2.9778
  773SOL     MW 3092   2.476   2.910   2.764 -0.3829  0.0033  0.9020
  774SOL     OW 3093   2.354   1.147   1.725 -0.3586 -0.4695  0.2987
  774SOL    HW1 3094   2.322   1.239   1.724  1.2850 -0.3216 -1.0706
  774SOL    HW2 3095   2.277   1.081   1.714  0.3923 -1.1922 -0.1580
  774SOL     MW 3096   2.340   1.150   1.723 -0.0426 -0.5453  0.0577
  775SOL     OW 3097   2.294   2.882   2.354 -0.2051  0.0812 -0.1595
  775SOL    HW1 3098   2.321   2.966   2.313 -0.3015 -0.9233  1.6188
  775SOL    HW2 3099   2.363   2.814   2.348  0.7463  0.6691 -1.6866
  775SOL     MW 3100   2.307   2.884   2.348 -0.0923  0.0262 -0.1264
  776SOL     OW 3101   0.129   1.487   0.132  0.0019  0.5970 -0.1661
  776SOL    HW1 3102   0.222   1.494   0.106  0.5498 -0.0781  0.2769
  776SOL    HW2 3103   0.120   1.404   0.178 -1.7795 -0.3509 -1.3632
  776SOL     MW 3104   0.140   1.477   0.135 -0.1608  0.3829 -0.2656
  777SOL     OW 3105   2.942   1.146   1.757  0.2219  0.3808  0.1004
  777SOL    HW1 3106   2.892   1.180   1.683  1.7812 -0.0470  3.5962
  777SOL    HW2 3107   2.897   1.065   1.781 -0.6793 -2.8522 -1.2601
  777SOL     MW 3108   2.930   1.140   1.751  0.3087 -0.1022  0.3821
  778SOL     OW 3109   2.912   0.496   2.748 -0.4162 -0.4156 -0.4496
  778SOL    HW1 3110   2.845   0.506   2.816  0.3178  2.4050  1.3391
  778SOL    HW2 3111   2.882   0.545   2.670 -2.3697 -2.0141 -1.6320
  778SOL     MW 3112   2.899   0.504   2.747 -0.5771 -0.2544 -0.3696
  779SOL     OW 3113   2.247   0.412   2.113 -0.2051 -0.4316 -0.0064
  779SOL    HW1 3114   2.227   0.416   2.203  2.5664 -1.7749 -2.7721
  779SOL    HW2 3115   2.253   0.318   2.101  2.4367 -0.3576 -1.7868
  779SOL     MW 3116   2.245   0.400   2.123  0.5091 -0.5991 -0.6062
  780SOL     OW 3117   0.166   0.240   2.705 -0.1459 -0.0992 -0.4249
  780SOL    HW1 3118   0.071   0.239   2.708 -3.2837 -2.2978  2.4004
  780SOL    HW2 3119   0.177   0.332   2.697 -2.3007  1.6240  1.9077
  780SOL     MW 3120   0.155   0.252   2.704 -0.8442 -0.1619  0.2556
  781SOL     OW 3121   3.073   1.296   2.461 -0.3147  0.3130  0.4239
  781SOL    HW1 3122   3.070   1.331   2.375 -1.1096  2.3862  1.3316
  781SOL    HW2 3123   3.078   1.197   2.455 -1.8781 -0.7001  0.3112
  781SOL     MW 3124   3.073   1.288   2.449 -0.6259  0.4529  0.5288
  782SOL     OW 3125   0.695   1.498   0.080  0.0393  0.1115  0.3644
  782SOL    HW1 3126   0.638   1.572   0.057  2.5256  3.8832  0.8565
  782SOL    HW2 3127   0.714   1.485   0.173 -0.3558 -0.0421 -0.1574
  782SOL     MW 3128   0.690   1.506   0.089  0.3152  0.5889  0.3605
  783SOL     OW 3129   2.705   0.495   2.391  0.0015  0.4434  0.2202
  783SOL    HW1 3130   2.657   0.562   2.344 -1.1614 -1.2008  0.4387
  783SOL    HW2 3131   2.641   0.464   2.458 -1.5483  2.5264 -1.4140
  783SOL     MW 3132   2.691   0.500   2.393 -0.3564  0.5013  0.0334
  784SOL     OW 3133   0.212   0.818   2.861 -0.2025  0.0822 -0.4629
  784SOL    HW1 3134   0.122   0.839   2.874  0.3549 -0.1221  3.4214
  784SOL    HW2 3135   0.249   0.880   2.803  1.6445 -0.8923  0.8715
  784SOL     MW 3136   0.205   0.829   2.855  0.1148 -0.0733  0.2256
  785SOL     OW 3137   0.404   0.393   2.179  0.5100 -0.2138  0.0565
  785SOL    HW1 3138   0.361   0.415   2.093 -1.4249  1.7516 -0.5654
  785SOL    HW2 3139   0.335   0.372   2.244  2.1167 -2.5299  1.2005
  785SOL     MW 3140   0.389   0.393   2.176  0.4667 -0.2601  0.1254
  786SOL     OW 3141   1.874   0.442   0.019  0.4407 -0.5401 -0.4370
  786SOL    HW1 3142   1.805   0.487   0.074  0.2534 -2.0520 -0.7892
  786SOL    HW2 3143   1.850   0.471  -0.068  0.0050 -2.4195  2.1461
  786SOL     MW 3144   1.862   0.452   0.015  0.3585 -0.9875 -0.1426
  787SOL     OW 3145   2.448   0.179   2.916  0.3889 -0.3734  0.5805
  787SOL    HW1 3146   2.526   0.135   2.887  2.0463 -1.0537 -1.4609
  787SOL    HW2 3147   2.486   0.249   2.975  2.5847  0.8725  1.2997
  787SOL     MW 3148   2.463   0.183   2.920  0.8973 -0.2988  0.4061
  788SOL     OW 3149   2.871   3.003   2.432  0.0046  0.0372 -0.0777
  788SOL    HW1 3150   2.920   2.965   2.503 -3.0314 -0.7060  1.3854
  788SOL    HW2 3151   2.888   2.940   2.361 -0.2905 -0.8207 -0.5862
  788SOL     MW 3152   2.880   2.990   2.432 -0.4349 -0.1741  0.0482
  789SOL     OW 3153   0.116   0.162   0.012  0.0311 -0.2241 -0.3561
  789SOL    HW1 3154   0.022   0.158   0.023  2.4398 -0.4857 -2.9762
  789SOL    HW2 3155   0.131   0.235  -0.051 -3.2645  1.1246 -0.8142
  789SOL     MW 3156   0.105   0.171   0.005 -0.0859 -0.0807 -0.7622
  790SOL     OW 3157   3.071   1.023   2.455  0.8345  0.5767 -0.5315
  790SOL    HW1 3158   3.070   0.979   2.541  3.0442  3.7080 -1.1882
  790SOL    HW2 3159   2.997   0.979   2.398 -0.9842  1.8546 -2.1439
  790SOL     MW 3160   3.061   1.011   2.458  0.8861  1.1585 -0.8309
  791SOL     OW 3161   2.545   0.455   2.597  0.0129  0.5898  0.0925
  791SOL    HW1 3162   2.518   0.506   2.679 -3.1965  0.3883 -2.5657
  791SOL    HW2 3163   2.605   0.385   2.630  1.2956 -0.4032 -0.2934
  791SOL     MW 3164   2.549   0.452   2.612 -0.2413  0.4322 -0.3091
  792SOL     OW 3165   2.424   0.195   2.468 -0.3341  0.0196 -0.3663
  792SOL    HW1 3166   2.430   0.292   2.486 -1.9379  1.5078  0.5026
  792SOL    HW2 3167   2.357   0.177   2.537 -2.0244 -2.0248  0.8481
  792SOL     MW 3168   2.416   0.205   2.480 -0.7688 -0.0537 -0.0915
  793SOL     OW 3169   1.776   1.103   2.001  0.0762  0.0628  0.5443
  793SOL    HW1 3170   1.745   1.078   1.907  0.6180 -2.7632 -0.7384
  793SOL    HW2 3171   1.874   1.105   1.994  0.1428 -2.6219  0.0439
  793SOL     MW 3172   1.785   1.100   1.988  0.1565 -0.6643  0.3090
  794SOL     OW 3173   1.374   2.319   0.103 -0.1241  0.3868 -0.3665
  794SOL    HW1 3174   1.395   2.411   0.099  0.3151 -4.8354  3.7252
  794SOL    HW2 3175   1.431   2.296   0.178  2.8315  0.7460  0.3970
  794SOL     MW 3176   1.384   2.328   0.112  0.3238 -0.2548  0.2741
  795SOL     OW 3177   2.302   1.074   2.534  0.3529  0.0071 -0.0570
  795SOL    HW1 3178   2.255   1.131   2.597  0.3629 -1.3240  1.3209
  795SOL    HW2 3179   2.368   1.131   2.497 -2.9376 -0.5533 -0.2895
  795SOL     MW 3180   2.305   1.089   2.538 -0.0799 -0.2424  0.0941
  796SOL     OW 3181   0.251   0.615   2.702  0.0014  0.1212  0.2781
  796SOL    HW1 3182   0.226   0.688   2.765  0.2545  1.2488  1.5593
  796SOL    HW2 3183   0.176   0.613   2.642  0.5392 -0.1057  0.2852
  796SOL     MW 3184   0.238   0.624   2.702  0.1058  0.2401  0.4481
  797SOL     OW 3185   2.653   0.201   2.603 -0.4379 -0.2979  0.0119
  797SOL    HW1 3186   2.578   0.168   2.551 -2.5406 -2.8276 -4.4010
  797SOL    HW2 3187   2.728   0.156   2.564 -2.3458 -2.2818 -0.5749
  797SOL     MW 3188   2.653   0.191   2.591 -0.9670 -0.8934 -0.6478
  798SOL     OW 3189   2.363   0.038   2.247 -0.0754  0.4954 -0.7505
  798SOL    HW1 3190   2.374   0.102   2.323 -2.7542 -0.0901  1.3824
  798SOL    HW2 3191   2.450   0.047   2.208 -1.1021  2.1311  1.3823
  798SOL     MW 3192   2.376   0.047   2.252 -0.5643  0.6339 -0.1877
  799SOL     OW 3193   2.557   2.978   0.110 -0.4852 -0.1448  0.5386
  799SOL    HW1 3194   2.476   2.947   0.072 -0.0364 -2.1320 -2.9932
  799SOL    HW2 3195   2.547   2.976   0.205  0.0311 -0.0773 -0.7329
  799SOL     MW 3196   2.545   2.974   0.117 -0.3579 -0.3981 -0.0951
  800SOL     OW 3197   1.933   3.051   1.752 -0.3349  0.4411  0.0083
  800SOL    HW1 3198   1.866   2.983   1.760 -0.6880  0.0769 -0.4770
  800SOL    HW2 3199   1.983   3.046   1.841  1.6829  0.2235  0.4142
  800SOL     MW 3200   1.931   3.041   1.764 -0.1153  0.3643 -0.0022
  801SOL     OW 3201   2.852   1.223   2.612  0.1897 -0.2843  0.1440
  801SOL    HW1 3202   2.848   1.129   2.625 -2.7620  2.0399  1.3955
  801SOL    HW2 3203   2.930   1.247   2.562 -0.3140  0.2311  1.1250
  801SOL     MW 3204   2.862   1.214   2.607 -0.2662  0.0904  0.4385
  802SOL     OW 3205   2.600   1.485   2.788  0.0285  0.1107 -0.3336
  802SOL    HW1 3206   2.600   1.403   2.738  1.3411 -1.6617 -3.1228
  802SOL    HW2 3207   2.680   1.484   2.852  0.6471 -1.7326  2.1156
  802SOL     MW 3208   2.611   1.474   2.790  0.2833 -0.3664 -0.3785
  803SOL     OW 3209   2.291   1.386   2.002 -0.6195 -0.0966 -0.1397
  803SOL    HW1 3210   2.258   1.379   2.091 -0.7875  2.0645 -0.7757
  803SOL    HW2 3211   2.238   1.331   1.947  1.6812 -1.1403  0.8000
  803SOL     MW 3212   2.280   1.378   2.006 -0.3381  0.0508 -0.0997
  804SOL     OW 3213   2.295   0.105   0.036  0.2422 -0.0324 -0.3459
  804SOL    HW1 3214   2.225   0.178   0.034 -1.1759 -0.3624  0.9212
  804SOL    HW2 3215   2.360   0.130  -0.040  0.2416 -1.2254  1.5312
  804SOL     MW 3216   2.294   0.118   0.025  0.0550 -0.2334  0.0689
  805SOL     OW 3217   2.691   0.864   2.643  0.5090  0.2107  0.2613
  805SOL    HW1 3218   2.604   0.849   2.598  0.9748  0.5607  0.5768
  805SOL    HW2 3219   2.758   0.812   2.601 -2.1890  2.4575 -1.2507
  805SOL     MW 3220   2.688   0.855   2.632  0.2145  0.5533  0.1034
  806SOL     OW 3221   2.606   0.713   2.241 -0.7068 -0.4505  0.1195
  806SOL    HW1 3222   2.637   0.701   2.153 -0.8874 -0.3710  0.2140
  806SOL    HW2 3223   2.639   0.794   2.274 -1.9346 -1.1946 -0.6645
  806SOL     MW 3224   2.614   0.722   2.234 -0.8926 -0.5382  0.0285
  807SOL     OW 3225   0.057   1.105   2.061  0.0265  0.3124  0.5946
  807SOL    HW1 3226   0.108   1.020   2.038  2.4361  0.9992 -0.6938
  807SOL    HW2 3227  -0.032   1.082   2.058  3.0387  0.9956 -0.9558
  807SOL     MW 3228   0.052   1.091   2.058  0.7418  0.4931  0.2200
  808SOL     OW 3229   2.655   0.039   2.823 -0.2324 -0.3674 -0.0097
  808SOL    HW1 3230   2.629  -0.052   2.795 -0.3906  0.9951 -1.6320
  808SOL    HW2 3231   2.662   0.093   2.734 -1.2141  0.3222 -1.0739
  808SOL     MW 3232   2.653   0.034   2.808 -0.3828 -0.0967 -0.3642
  809SOL     OW 3233   2.693   1.348   2.425 -0.1217 -0.0049 -0.9836
  809SOL    HW1 3234   2.738   1.306   2.498 -2.5621  0.3596 -0.4540
  809SOL    HW2 3235   2.735   1.323   2.342 -2.1535  1.9342 -0.7749
  809SOL     MW 3236   2.704   1.339   2.423 -0.7118  0.2990 -0.8862
  810SOL     OW 3237   2.222   1.344   2.281  0.2334  0.1439  0.5615
  810SOL    HW1 3238   2.286   1.275   2.309  0.1704 -0.0562 -1.0589
  810SOL    HW2 3239   2.157   1.352   2.348  1.3193  0.3314  0.9041
  810SOL     MW 3240   2.222   1.336   2.293  0.3683  0.1422  0.3929
  811SOL     OW 3241   1.595   0.168   2.306 -0.2444 -0.3246 -0.6055
  811SOL    HW1 3242   1.688   0.156   2.327  1.0119  0.7094  1.0504
  811SOL    HW2 3243   1.589   0.169   2.213 -0.2921  1.6600  1.4835
  811SOL     MW 3244   1.607   0.167   2.297 -0.0849  0.0737 -0.1114
  812SOL     OW 3245   1.462   2.866   2.062 -0.3648  0.1948 -0.6567
  812SOL    HW1 3246   1.557   2.856   2.050 -0.6098  0.7453  0.2153
  812SOL    HW2 3247   1.445   2.826   2.146  0.4490  0.7559 -0.7599
  812SOL     MW 3248   1.472   2.860   2.072 -0.2898  0.3415 -0.5553
  813SOL     OW 3249   2.016   0.617   2.237  0.1383 -0.1449  0.1082
  813SOL    HW1 3250   1.941   0.572   2.207  3.0307  0.5762  1.3204
  813SOL    HW2 3251   1.978   0.691   2.280  2.9869 -1.8908 -1.9194
  813SOL     MW 3252   2.001   0.621   2.239  0.8957 -0.2801  0.0006
  814SOL     OW 3253   2.689   1.221   1.640  0.3652  0.0326 -0.1438
  814SOL    HW1 3254   2.628   1.160   1.681 -0.8978 -0.4040  0.0184
  814SOL    HW2 3255   2.687   1.195   1.544 -2.7753  0.9727 -0.1131
  814SOL     MW 3256   2.681   1.209   1.633 -0.2158  0.0990 -0.1184
  815SOL     OW 3257   2.533   1.761   2.409  0.9719  0.6313 -0.0719
  815SOL    HW1 3258   2.490   1.680   2.368 -2.4199 -1.3373 -0.5855
  815SOL    HW2 3259   2.628   1.737   2.412  0.9666 -0.5900  0.3778
  815SOL     MW 3260   2.540   1.747   2.404  0.5237  0.2104 -0.0804
  816SOL     OW 3261   0.750   0.694   2.761  0.3964  0.6532  0.6906
  816SOL    HW1 3262   0.762   0.592   2.782 -2.1537  1.0583 -0.1908
  816SOL    HW2 3263   0.653   0.684   2.723  0.8900  0.4266 -1.8691
  816SOL     MW 3264   0.739   0.679   2.759  0.1251  0.6768  0.2366
  817SOL     OW 3265   2.981   1.243   1.454 -0.4913 -0.6788  0.1225
  817SOL    HW1 3266   3.075   1.210   1.451 -0.2921 -0.0102 -0.3843
  817SOL    HW2 3267   2.988   1.339   1.425 -0.1999  1.6369 -0.6593
  817SOL     MW 3268   2.994   1.251   1.449 -0.4266 -0.2851 -0.0475
  818SOL     OW 3269   1.902   1.065   2.628 -0.5690 -0.0370 -0.1202
  818SOL    HW1 3270   1.873   1.011   2.558  1.7390  3.8043  0.3157
  818SOL    HW2 3271   1.991   1.026   2.649  1.6757 -4.0648 -1.3640
  818SOL     MW 3272   1.910   1.053   2.622  0.0317 -0.0616 -0.2268
  819SOL     OW 3273   1.967   0.328   2.480  0.3210 -0.2249  0.3348
  819SOL    HW1 3274   1.887   0.384   2.471  0.6535 -1.9490  2.1717
  819SOL    HW2 3275   1.985   0.347   2.570 -1.7875 -0.4640 -0.8160
  819SOL     MW 3276   1.959   0.338   2.490  0.0866 -0.4839  0.4253
  820SOL     OW 3277   2.464   1.692   2.667 -0.5077 -0.4093 -0.5142
  820SOL    HW1 3278   2.527   1.631   2.710  0.6318  0.9248 -1.5160
  820SOL    HW2 3279   2.489   1.686   2.572  0.1615 -0.5629  0.9844
  820SOL     MW 3280   2.475   1.683   2.660 -0.2690 -0.2536 -0.4486
  821SOL     OW 3281   2.579   1.375   1.990 -0.1690 -0.0563  0.0049
  821SOL    HW1 3282   2.600   1.449   1.928  0.1428 -1.0499 -0.8091
  821SOL    HW2 3283   2.488   1.392   2.010  1.8224 -2.5623 -0.3729
  821SOL     MW 3284   2.569   1.387   1.984  0.1348 -0.5180 -0.1524
  822SOL     OW 3285   2.916   2.742   1.478 -0.1012  0.1769  0.0419
  822SOL    HW1 3286   2.909   2.699   1.559 -2.3062  1.3165 -2.5994
  822SOL    HW2 3287   2.897   2.835   1.492  0.8755 -1.1828 -0.8443
  822SOL     MW 3288   2.913   2.749   1.490 -0.2632  0.1479 -0.4235
  823SOL     OW 3289   2.365   0.489   1.864  0.3589  0.4219 -0.0504
  823SOL    HW1 3290   2.437   0.440   1.827 -3.4589  1.4756  0.9488
  823SOL    HW2 3291   2.344   0.461   1.951  0.2672  0.8447 -1.0860
  823SOL     MW 3292   2.372   0.479   1.871 -0.1569  0.6167 -0.0552
  824SOL     OW 3293   2.262   1.474   2.670  0.3305 -0.4109  0.3929
  824SOL    HW1 3294   2.341   1.528   2.669  0.2021 -0.2256  0.5895
  824SOL    HW2 3295   2.189   1.540   2.666  0.4857 -0.3662  1.2960
  824SOL     MW 3296   2.263   1.490   2.669  0.3341 -0.3806  0.5380
  825SOL     OW 3297   1.865   2.590   0.240  0.2012 -0.2200  0.0061
  825SOL    HW1 3298   1.807   2.555   0.304  1.0019 -3.5453  2.6941
  825SOL    HW2 3299   1.935   2.527   0.236 -1.0918 -0.2686  2.1218
  825SOL     MW 3300   1.867   2.577   0.248  0.1362 -0.6652  0.6399
  826SOL     OW 3301   1.800   2.365   0.446 -0.3947 -0.0186 -0.6486
  826SOL    HW1 3302   1.759   2.306   0.514  1.2986  1.6502  1.2449
  826SOL    HW2 3303   1.805   2.452   0.493  1.2242 -2.2486  2.5987
  826SOL     MW 3304   1.795   2.369   0.461  0.0423 -0.0927  0.0297
  827SOL     OW 3305   1.898   2.222   0.798 -0.2222 -0.4533  0.3697
  827SOL    HW1 3306   1.840   2.184   0.731 -0.6396  1.4650 -1.2402
  827SOL    HW2 3307   1.878   2.156   0.868  1.1512  1.9529  0.3092
  827SOL     MW 3308   1.888   2.208   0.798 -0.0961  0.1173  0.1493
  828SOL     OW 3309   0.042   2.628   0.578  0.4013 -0.2701 -0.1247
  828SOL    HW1 3310   0.139   2.631   0.573 -0.8281 -2.1400 -1.9458
  828SOL    HW2 3311   0.009   2.692   0.514 -0.0704  0.2019  0.5292
  828SOL     MW 3312   0.050   2.637   0.569  0.1769 -0.4545 -0.2787
  829SOL     OW 3313   2.976   2.926   1.191  0.0798  0.1980  0.4404
  829SOL    HW1 3314   2.899   2.928   1.128  0.6974  0.2734  2.6008
  829SOL    HW2 3315   3.016   2.842   1.173  0.5683 -1.3327  0.1808
  829SOL     MW 3316   2.971   2.915   1.181  0.2258  0.0060  0.6912
  830SOL     OW 3317   2.553   2.831   2.023  0.4965 -0.5146  0.1167
  830SOL    HW1 3318   2.464   2.815   1.983  1.5636 -0.9698  0.6956
  830SOL    HW2 3319   2.605   2.792   1.952 -0.6219  1.8720  1.9590
  830SOL     MW 3320   2.548   2.824   2.009  0.4897 -0.2598  0.4362
  831SOL     OW 3321   2.371   2.432   1.169 -0.2041 -0.0943  0.2074
  831SOL    HW1 3322   2.332   2.367   1.235  0.2587  0.2726  0.8719
  831SOL    HW2 3323   2.466   2.422   1.177 -2.4046  1.8778  1.9097
  831SOL     MW 3324   2.378   2.422   1.179 -0.4334  0.2143  0.5197
  832SOL     OW 3325   2.351   2.198   1.854  0.1421 -0.1395  0.4941
  832SOL    HW1 3326   2.381   2.284   1.880  2.1725  0.5118 -0.7142
  832SOL    HW2 3327   2.432   2.155   1.838  2.2835  2.3215 -2.8376
  832SOL     MW 3328   2.365   2.203   1.855  0.6925  0.2711 -0.1049
  833SOL     OW 3329   1.720   2.481   0.885 -0.6110 -0.2465  0.9697
  833SOL    HW1 3330   1.665   2.419   0.927  2.1501 -1.1215  0.5967
  833SOL    HW2 3331   1.723   2.561   0.938 -5.2342 -6.0932 -0.6197
  833SOL     MW 3332   1.713   2.483   0.898 -0.8567 -1.1334  0.7108
  834SOL     OW 3333   2.089   2.411   0.576 -0.2189 -0.0779  0.0884
  834SOL    HW1 3334   2.002   2.376   0.575 -2.2869  0.5636  0.3486
  834SOL    HW2 3335   2.121   2.406   0.484  0.2773 -1.2664 -1.8131
  834SOL     MW 3336   2.082   2.406   0.564 -0.4263 -0.1501 -0.1281
  835SOL     OW 3337   1.790   2.584   0.635 -0.3276  0.3546 -0.1511
  835SOL    HW1 3338   1.746   2.523   0.701 -1.2915 -4.3006  0.8847
  835SOL    HW2 3339   1.859   2.628   0.678 -0.5667  0.6410 -1.5183
  835SOL     MW 3340   1.793   2.582   0.649 -0.4864 -0.2218 -0.1948
  836SOL     OW 3341   1.890   2.187   1.581  0.4271 -0.6268 -0.1878
  836SOL    HW1 3342   1.978   2.226   1.589 -1.4341  1.0306  0.7722
  836SOL    HW2 3343   1.826   2.256   1.597 -0.4371 -0.4281  0.5509
  836SOL     MW 3344   1.893   2.201   1.584  0.0675 -0.3819  0.0363
  837SOL     OW 3345   2.145   0.211   0.715  0.1036  0.3191 -0.7375
  837SOL    HW1 3346   2.060   0.228   0.668  2.6099  1.8524  0.7645
  837SOL    HW2 3347   2.172   0.134   0.669 -1.2577  1.7542  2.1368
  837SOL     MW 3348   2.137   0.203   0.703  0.2547  0.7107 -0.1601
  838SOL     OW 3349   2.931   2.025   0.932  0.1391  0.0310  0.2651
  838SOL    HW1 3350   2.856   1.965   0.939 -0.1906 -1.0313 -0.7242
  838SOL    HW2 3351   3.013   1.975   0.910 -0.3856  0.2908 -2.1418
  838SOL     MW 3352   2.932   2.010   0.930  0.0263 -0.0749 -0.1830
  839SOL     OW 3353   1.543   2.334   1.035  0.1950  0.1986 -0.1550
  839SOL    HW1 3354   1.539   2.399   1.099 -0.1813  0.8844 -1.4412
  839SOL    HW2 3355   1.540   2.250   1.089  1.0309  0.5056  1.0186
  839SOL     MW 3356   1.542   2.331   1.050  0.2556  0.3296 -0.1698
  840SOL     OW 3357   2.364   2.198   2.447  0.1096 -0.4344  0.2507
  840SOL    HW1 3358   2.323   2.258   2.388  0.5168 -2.2560 -0.2182
  840SOL    HW2 3359   2.359   2.229   2.542  0.5878  2.4598 -0.2526
  840SOL     MW 3360   2.358   2.210   2.452  0.2264 -0.2929  0.1224
  841SOL     OW 3361   2.063   2.439   0.124  0.0891 -0.1543 -0.0096
  841SOL    HW1 3362   2.100   2.513   0.072 -1.6422  0.3629 -2.9837
  841SOL    HW2 3363   2.041   2.365   0.067  1.3167 -1.0152 -3.2696
  841SOL     MW 3364   2.065   2.439   0.110  0.0227 -0.1997 -0.8322
  842SOL     OW 3365   2.684   2.077   1.540  0.0189 -0.0226 -0.3563
  842SOL    HW1 3366   2.620   2.045   1.604  3.1168 -0.0481  1.0920
  842SOL    HW2 3367   2.644   2.094   1.452  0.9339 -0.9059 -2.6518
  842SOL     MW 3368   2.671   2.075   1.537  0.5483 -0.1425 -0.4681
  843SOL     OW 3369   2.667   2.753   1.785 -0.3857 -0.2124 -0.0082
  843SOL    HW1 3370   2.759   2.727   1.787  1.4463  1.3179 -0.8458
  843SOL    HW2 3371   2.623   2.680   1.729 -0.3656 -0.8362  0.5919
  843SOL     MW 3372   2.673   2.740   1.778 -0.1413 -0.0928 -0.0395
  844SOL     OW 3373   2.648   2.385   1.151 -0.7045  0.2168 -0.4259
  844SOL    HW1 3374   2.699   2.376   1.068 -0.9134 -0.1312 -2.7052
  844SOL    HW2 3375   2.714   2.424   1.216 -1.3002 -1.4268  3.3579
  844SOL     MW 3376   2.664   2.389   1.149 -0.8106 -0.0460 -0.2274
  845SOL     OW 3377   2.849   2.500   0.294 -0.2932  0.5622 -0.2097
  845SOL    HW1 3378   2.791   2.420   0.277 -2.5448 -1.2429  1.5935
  845SOL    HW2 3379   2.851   2.500   0.390  2.6941 -0.8182 -3.8323
  845SOL     MW 3380   2.842   2.490   0.304 -0.1961  0.1419 -0.4498
  846SOL     OW 3381   1.595   2.861   0.794  0.2361 -0.1438  0.1524
  846SOL    HW1 3382   1.679   2.899   0.833  0.5411 -2.8614  2.7201
  846SOL    HW2 3383   1.520   2.913   0.831  0.8281 -1.5719 -0.3685
  846SOL     MW 3384   1.596   2.873   0.804  0.3544 -0.6908  0.4225
  847SOL     OW 3385   2.622   1.951   0.194 -0.4908 -0.4110  0.2762
  847SOL    HW1 3386   2.704   1.901   0.217 -0.7151 -0.9646 -2.3132
  847SOL    HW2 3387   2.584   1.890   0.138 -1.8104 -0.5636 -0.1738
  847SOL     MW 3388   2.628   1.936   0.190 -0.6945 -0.5042 -0.1248
  848SOL     OW 3389   2.530   2.119   1.298 -0.2668 -0.1792 -0.3291
  848SOL    HW1 3390   2.564   2.193   1.250 -1.5033  0.3294  1.8621
  848SOL    HW2 3391   2.515   2.047   1.244  0.2468 -0.0497  0.9841
  848SOL     MW 3392   2.532   2.119   1.285 -0.3622 -0.0950  0.1332
  849SOL     OW 3393   1.967   2.697   0.792  0.0865  0.9164  0.2650
  849SOL    HW1 3394   1.995   2.621   0.842  1.6109 -0.1759 -0.0633
  849SOL    HW2 3395   2.043   2.718   0.739 -0.4540 -2.2903  0.0311
  849SOL     MW 3396   1.981   2.690   0.792  0.2163  0.3492  0.1908
  850SOL     OW 3397   2.169   1.958   1.678  0.1494  0.1013  0.0084
  850SOL    HW1 3398   2.093   1.902   1.650 -0.9894 -1.5424 -0.1000
  850SOL    HW2 3399   2.144   2.049   1.661  0.3812 -1.8239  0.9274
  850SOL     MW 3400   2.156   1.963   1.672  0.0297 -0.3696  0.1153
  851SOL     OW 3401   2.232   2.374   0.339 -0.2065 -0.2413  0.6966
  851SOL    HW1 3402   2.194   2.402   0.256  2.5474  0.4509  1.6835
  851SOL    HW2 3403   2.305   2.435   0.353  0.7881 -0.6524 -0.2028
  851SOL     MW 3404   2.237   2.386   0.330  0.2881 -0.2042  0.7082
  852SOL     OW 3405   2.307   2.117   0.242 -0.5503 -0.0635 -0.9821
  852SOL    HW1 3406   2.289   2.203   0.282 -0.2481  1.0044  0.4798
  852SOL    HW2 3407   2.397   2.120   0.201  0.8575  0.8689 -0.0269
  852SOL     MW 3408   2.317   2.129   0.242 -0.3247  0.2004 -0.6632
  853SOL     OW 3409   2.420   2.446   1.932 -0.1667 -0.2187  0.8131
  853SOL    HW1 3410   2.450   2.483   1.847  0.7160 -0.2998 -0.0261
  853SOL    HW2 3411   2.503   2.422   1.970  0.1653  2.0591  1.2275
  853SOL     MW 3412   2.435   2.448   1.926 -0.0065  0.0712  0.7571
  854SOL     OW 3413   2.860   2.216   0.742  0.1893  0.0863 -0.1198
  854SOL    HW1 3414   2.787   2.167   0.702 -0.8886  0.0940 -0.7889
  854SOL    HW2 3415   2.893   2.160   0.815  1.1638  0.2021  1.3784
  854SOL     MW 3416   2.855   2.202   0.746  0.1756  0.1026 -0.0104
  855SOL     OW 3417   2.698   2.244   0.293 -0.8793  0.2935 -0.2770
  855SOL    HW1 3418   2.641   2.259   0.370  3.8646  0.2079  0.1476
  855SOL    HW2 3419   2.777   2.201   0.327  0.4140  0.0468 -1.8536
  855SOL     MW 3420   2.701   2.240   0.308 -0.0827  0.2497 -0.4290
  856SOL     OW 3421   2.204   1.879   0.173 -0.1654 -0.0824 -0.0364
  856SOL    HW1 3422   2.111   1.877   0.205  0.0108  0.3646  2.0192
  856SOL    HW2 3423   2.243   1.967   0.204  0.5988  0.7193  0.1627
  856SOL     MW 3424   2.197   1.890   0.182 -0.0413  0.0824  0.2611
  857SOL     OW 3425   2.513   1.909   0.456  0.8047  0.3106 -0.0087
  857SOL    HW1 3426   2.549   1.916   0.371 -0.5836 -0.5904  0.7788
  857SOL    HW2 3427   2.431   1.872   0.437  4.8705 -0.7888  0.7772
  857SOL     MW 3428   2.507   1.905   0.442  1.1579  0.0467  0.1989
  858SOL     OW 3429   2.915   2.662   1.751 -0.0638 -0.6977 -0.2885
  858SOL    HW1 3430   2.997   2.686   1.790 -2.3344  1.0413  1.7390
  858SOL    HW2 3431   2.907   2.563   1.755  1.3804 -0.3913  0.3872
  858SOL     MW 3432   2.924   2.652   1.756 -0.1728 -0.4278  0.0682
  859SOL     OW 3433   2.102   2.461   0.905  0.0862 -0.2361 -0.1185
  859SOL    HW1 3434   2.071   2.407   0.833 -0.4477  3.2072  0.3459
  859SOL    HW2 3435   2.192   2.438   0.913  0.9122  0.5445 -2.1980
  859SOL     MW 3436   2.110   2.451   0.897  0.1247  0.3212 -0.3316
  860SOL     OW 3437   2.633   2.631   0.183 -0.0332 -0.2827  0.1161
  860SOL    HW1 3438   2.714   2.606   0.224 -0.2851  2.0991 -1.1194
  860SOL    HW2 3439   2.664   2.702   0.121 -0.1713 -0.3543 -0.3648
  860SOL     MW 3440   2.648   2.637   0.181 -0.0846  0.0221 -0.1104
  861SOL     OW 3441   1.569   2.101   1.162  0.0060  0.2467  0.2035
  861SOL    HW1 3442   1.655   2.091   1.207 -0.7562  1.4125 -3.2347
  861SOL    HW2 3443   1.511   2.043   1.213 -0.2110  0.2260  0.7165
  861SOL     MW 3444   1.573   2.092   1.175 -0.1232  0.3978 -0.1825
  862SOL     OW 3445   2.401   1.838   1.551 -0.1146 -0.3861 -0.0639
  862SOL    HW1 3446   2.336   1.880   1.609 -0.3214 -0.4915 -2.4173
  862SOL    HW2 3447   2.374   1.865   1.465 -1.0258 -0.2422  1.2091
  862SOL     MW 3448   2.389   1.847   1.547 -0.2621 -0.3810 -0.2064
  863SOL     OW 3449   3.067   1.814   1.156 -0.2245 -0.3282  0.1536
  863SOL    HW1 3450   3.144   1.785   1.208  1.7796 -0.2307 -2.5382
  863SOL    HW2 3451   3.044   1.902   1.197 -2.0271 -0.5401 -0.9323
  863SOL     MW 3452   3.074   1.822   1.169 -0.1979 -0.3433 -0.3448
  864SOL     OW 3453   0.045   1.863   0.901 -0.0740 -0.5220 -0.5266
  864SOL    HW1 3454   0.002   1.835   0.981  0.5939 -0.6143 -0.4732
  864SOL    HW2 3455   0.028   1.814   0.820  0.4029  1.5038  0.3784
  864SOL     MW 3456   0.037   1.853   0.901  0.0770 -0.2669 -0.4001
  865SOL     OW 3457   2.518   2.173   0.078  0.2928 -0.1084 -0.3760
  865SOL    HW1 3458   2.587   2.109   0.127  1.2801 -1.0257  1.6194
  865SOL    HW2 3459   2.501   2.130  -0.008  2.8830  0.8724  0.8093
  865SOL     MW 3460   2.525   2.159   0.073  0.7648 -0.1000  0.0436
  866SOL     OW 3461   2.706   2.363   1.593 -0.1971  0.7597  0.0825
  866SOL    HW1 3462   2.695   2.269   1.572 -0.4776  2.0602 -0.4862
  866SOL    HW2 3463   2.728   2.406   1.513 -2.2895  0.5062 -0.0140
  866SOL     MW 3464   2.707   2.356   1.580 -0.5102  0.8978 -0.0052
  867SOL     OW 3465   0.077   2.736   1.865 -0.0217  0.5885 -0.4499
  867SOL    HW1 3466   0.157   2.749   1.910 -1.9037  0.5827 -0.7452
  867SOL    HW2 3467   0.055   2.815   1.817  0.4378 -0.1191  2.3151
  867SOL     MW 3468   0.085   2.748   1.864 -0.2094  0.4944 -0.1240
  868SOL     OW 3469   2.801   2.553   0.564 -0.2540  0.5294 -0.4595
  868SOL    HW1 3470   2.713   2.512   0.573 -0.5956  0.4891  1.0548
  868SOL    HW2 3471   2.793   2.639   0.520  2.6863  1.9460  0.3445
  868SOL     MW 3472   2.788   2.559   0.559  0.0889  0.7109 -0.1536
  869SOL     OW 3473   1.890   2.334   1.057  0.1749 -0.1302  0.0114
  869SOL    HW1 3474   1.972   2.381   1.030 -0.7872  0.1961 -2.8750
  869SOL    HW2 3475   1.849   2.350   0.970  1.4270 -0.8821 -4.0533
  869SOL     MW 3476   1.896   2.343   1.042  0.2132 -0.1864 -0.9057
  870SOL     OW 3477   2.263   0.038   0.539 -0.6560 -0.1573  0.0232
  870SOL    HW1 3478   2.303   0.089   0.464 -0.0736 -1.1733 -1.7483
  870SOL    HW2 3479   2.308  -0.046   0.537 -0.6686  0.1056 -2.0862
  870SOL     MW 3480   2.274   0.034   0.529 -0.5808 -0.2567 -0.4889
  871SOL     OW 3481   2.465   2.062   0.869  0.3408 -0.9967  0.3725
  871SOL    HW1 3482   2.401   2.005   0.825  1.4498 -1.0851  2.0278
  871SOL    HW2 3483   2.412   2.143   0.887  0.6858 -1.4437  0.0116
  871SOL     MW 3484   2.450   2.066   0.866  0.5326 -1.0673  0.5433
  872SOL     OW 3485   2.018   2.578   1.384 -0.3771 -0.7270 -0.0138
  872SOL    HW1 3486   1.999   2.613   1.475  2.6146  0.1269 -1.3067
  872SOL    HW2 3487   1.978   2.491   1.384 -0.4867  0.7724  2.3208
  872SOL     MW 3488   2.010   2.571   1.396  0.0032 -0.4165  0.1237
  873SOL     OW 3489   2.824   2.078   1.916  0.2483  0.6974  0.5264
  873SOL    HW1 3490   2.838   2.139   1.988 -1.0067 -2.0047 -1.0618
  873SOL    HW2 3491   2.899   2.079   1.859 -1.2894  1.3108 -0.0612
  873SOL     MW 3492   2.836   2.086   1.918 -0.1202  0.4218  0.2393
  874SOL     OW 3493   2.440   1.511   2.340 -0.4035 -0.4331  0.3937
  874SOL    HW1 3494   2.360   1.464   2.334 -0.0975  2.4201  4.5786
  874SOL    HW2 3495   2.512   1.454   2.313 -0.3044 -0.1065 -0.1475
  874SOL     MW 3496   2.439   1.498   2.336 -0.3501 -0.0135  0.8744
  875SOL     OW 3497   2.324   2.309   0.914 -0.3166 -0.1812 -0.2445
  875SOL    HW1 3498   2.379   2.371   0.859  0.7126  2.0782 -1.5017
  875SOL    HW2 3499   2.351   2.349   0.997 -0.7101  0.2002 -1.7698
  875SOL     MW 3500   2.335   2.322   0.918 -0.2327  0.1673 -0.6116
  876SOL     OW 3501   3.044   2.332   1.327 -0.3790 -0.4953  0.1950
  876SOL    HW1 3502   3.080   2.319   1.237 -0.5953 -0.7666 -2.6163
  876SOL    HW2 3503   3.100   2.389   1.375  0.2118  2.6551 -0.1636
  876SOL     MW 3504   3.056   2.337   1.321 -0.3296 -0.1154 -0.2233
  877SOL     OW 3505   3.040   2.757   0.324 -0.5481 -0.2667 -0.5569
  877SOL    HW1 3506   3.034   2.828   0.262 -0.4336  0.9304  1.5124
  877SOL    HW2 3507   3.072   2.683   0.271 -1.2949  0.8100 -1.0477
  877SOL     MW 3508   3.043   2.756   0.309 -0.6315  0.0333 -0.3486
  878SOL     OW 3509   2.330   1.816   1.277 -0.8771 -0.5101 -0.3917
  878SOL    HW1 3510   2.280   1.739   1.304 -2.0356  0.0793 -1.3775
  878SOL    HW2 3511   2.417   1.777   1.265 -0.7785 -0.5986  2.9012
  878SOL     MW 3512   2.335   1.801   1.279 -1.0169 -0.4440 -0.0873
  879SOL     OW 3513   2.775   2.422   0.915 -0.3133  0.2297 -0.4336
  879SOL    HW1 3514   2.838   2.487   0.928  2.1146 -0.1330 -0.8989
  879SOL    HW2 3515   2.800   2.372   0.838 -1.3668  2.5443  0.5414
  879SOL     MW 3516   2.787   2.424   0.906 -0.1320  0.4872 -0.3664
  880SOL     OW 3517   2.661   2.031   0.663 -0.6877  0.5168 -0.0922
  880SOL    HW1 3518   2.619   2.051   0.751 -0.9801  0.9216  3.2684
  880SOL    HW2 3519   2.590   1.992   0.610 -2.1780 -1.0114 -0.5893
  880SOL     MW 3520   2.646   2.028   0.668 -0.9229  0.3686  0.2856
  881SOL     OW 3521   2.930   2.692   0.773 -0.2641 -0.1036  0.0902
  881SOL    HW1 3522   2.864   2.636   0.724 -2.6634 -0.7083 -2.0621
  881SOL    HW2 3523   3.005   2.674   0.719 -1.3604 -0.5496 -0.4990
  881SOL     MW 3524   2.931   2.682   0.760 -0.7253 -0.2422 -0.2715
  882SOL     OW 3525   2.330   2.772   1.877 -0.1062  0.1899 -0.0352
  882SOL    HW1 3526   2.309   2.773   1.786  1.0510 -0.5099  1.3541
  882SOL    HW2 3527   2.253   2.745   1.928  0.3666  0.5227 -1.7242
  882SOL     MW 3528   2.317   2.768   1.872  0.1089  0.1415 -0.0748
  883SOL     OW 3529   2.258   2.247   1.357 -0.1013  0.5441  0.0438
  883SOL    HW1 3530   2.333   2.190   1.351  1.6700  1.2748  0.8254
  883SOL    HW2 3531   2.189   2.208   1.294 -0.6401 -0.4860 -0.3599
  883SOL     MW 3532   2.259   2.234   1.348  0.0613  0.5046  0.0937
  884SOL     OW 3533   1.921   1.862   1.122 -0.4842  0.2772 -0.2134
  884SOL    HW1 3534   1.873   1.890   1.046 -2.2427 -0.1619  0.5157
  884SOL    HW2 3535   2.011   1.858   1.090  2.3712  3.1271  1.3936
  884SOL     MW 3536   1.927   1.865   1.108 -0.3395  0.5953  0.0949
  885SOL     OW 3537   2.785   2.409   1.855 -0.7750  0.4539  0.0004
  885SOL    HW1 3538   2.857   2.343   1.856  1.3928 -0.8014  0.0405
  885SOL    HW2 3539   2.748   2.405   1.766  0.8754 -4.7171 -1.4943
  885SOL     MW 3540   2.790   2.400   1.843 -0.2712 -0.3940 -0.1915
  886SOL     OW 3541   2.810   2.520   1.360 -0.3358 -1.0365  0.2694
  886SOL    HW1 3542   2.880   2.456   1.367  0.6014 -0.4422  0.5331
  886SOL    HW2 3543   2.857   2.598   1.398 -0.0663 -0.1103  1.8627
  886SOL     MW 3544   2.825   2.522   1.366 -0.1766 -0.8359  0.5144
  887SOL     OW 3545   2.301   2.615   1.476  0.2029 -0.2222  0.2598
  887SOL    HW1 3546   2.324   2.668   1.399  0.8593  0.0810  1.5562
  887SOL    HW2 3547   2.216   2.577   1.458 -0.4923  2.3757  3.3712
  887SOL     MW 3548   2.292   2.617   1.464  0.1978  0.1605  0.8414
  888SOL     OW 3549   1.793   2.079   1.330  0.0529  0.3206 -0.3090
  888SOL    HW1 3550   1.869   2.048   1.284 -0.8453 -1.0968  1.4139
  888SOL    HW2 3551   1.834   2.103   1.417 -0.3550 -2.3574  2.0073
  888SOL     MW 3552   1.809   2.078   1.335 -0.1194 -0.2198  0.2240
  889SOL     OW 3553   2.329   2.044   2.099  0.2656 -0.6963 -0.1942
  889SOL    HW1 3554   2.415   2.039   2.142  0.9050 -2.0127  0.3600
  889SOL    HW2 3555   2.343   2.100   2.024 -2.2969  2.4910  3.1556
  889SOL     MW 3556   2.342   2.051   2.095  0.0119 -0.4494  0.3209
  890SOL     OW 3557   0.122   2.303   0.103  0.2519  0.3693  0.1258
  890SOL    HW1 3558   0.112   2.399   0.107  0.7171 -0.7473 -1.8699
  890SOL    HW2 3559   0.123   2.277   0.198 -1.2797 -0.9267  1.5912
  890SOL     MW 3560   0.121   2.313   0.116  0.1112  0.0510  0.0558
  891SOL     OW 3561   3.053   2.049   1.328  0.1586  0.2254 -0.0891
  891SOL    HW1 3562   3.146   2.034   1.348 -2.2836 -0.8110  1.7447
  891SOL    HW2 3563   3.039   2.140   1.334 -0.6190 -0.6532 -1.9831
  891SOL     MW 3564   3.063   2.059   1.331 -0.2662 -0.0273 -0.0971
  892SOL     OW 3565   2.348   2.391   2.978  0.2596  0.1759  0.0326
  892SOL    HW1 3566   2.371   2.356   3.066  0.8590  0.4305  2.1931
  892SOL    HW2 3567   2.424   2.379   2.920  0.3462  2.3502 -1.1696
  892SOL     MW 3568   2.361   2.385   2.982  0.3501  0.4964  0.1590
  893SOL     OW 3569   1.592   2.536   1.225 -0.5365 -0.0888 -0.0328
  893SOL    HW1 3570   1.507   2.514   1.266  0.0199  0.3960  1.1593
  893SOL    HW2 3571   1.652   2.470   1.262 -2.9397  2.0179 -0.8898
  893SOL     MW 3572   1.589   2.525   1.235 -0.7802  0.2531  0.0114
  894SOL     OW 3573   2.852   1.897   0.517  0.1056 -0.1545 -0.1733
  894SOL    HW1 3574   2.789   1.931   0.589 -1.7829  1.8270  1.3985
  894SOL    HW2 3575   2.796   1.863   0.441 -4.3458  0.2149 -3.2793
  894SOL     MW 3576   2.837   1.897   0.516 -0.7309  0.1557 -0.3757
  895SOL     OW 3577   2.082   2.135   1.180 -0.0277  0.4736 -0.1520
  895SOL    HW1 3578   2.021   2.186   1.124 -1.6010 -0.6451 -0.0759
  895SOL    HW2 3579   2.107   2.054   1.139  0.0767  0.3473 -0.3375
  895SOL     MW 3580   2.077   2.131   1.167 -0.2215  0.3093 -0.1664
  896SOL     OW 3581   2.194   2.840   1.059  0.0348 -0.0505  0.2081
  896SOL    HW1 3582   2.258   2.811   1.128 -0.3426  2.3219  1.4348
  896SOL    HW2 3583   2.127   2.771   1.060  1.6343  1.9683 -0.4354
  896SOL     MW 3584   2.193   2.827   1.068  0.1960  0.5289  0.2851
  897SOL     OW 3585   2.968   2.950   0.158 -0.1196  0.2673  0.2053
  897SOL    HW1 3586   3.053   2.958   0.109  1.0860  0.3523 -1.1460
  897SOL    HW2 3587   2.910   2.912   0.092  2.8395  0.6850  1.7341
  897SOL     MW 3588   2.971   2.946   0.143  0.4299  0.3336  0.2288
  898SOL     OW 3589   2.076   0.184   1.414 -0.1834  0.1153  0.1434
  898SOL    HW1 3590   2.025   0.132   1.350  0.9880  1.0195 -0.1200
  898SOL    HW2 3591   2.137   0.223   1.350  1.7613 -1.6537  1.9654
  898SOL     MW 3592   2.077   0.182   1.397  0.2277  0.0012  0.3490
  899SOL     OW 3593   2.889   2.963   0.660  0.1861  0.3281  0.5650
  899SOL    HW1 3594   2.872   2.906   0.738 -1.5650 -1.1774 -0.2058
  899SOL    HW2 3595   2.808   3.018   0.651  0.9363  2.5022  2.2241
  899SOL     MW 3596   2.876   2.963   0.669  0.0541  0.4163  0.6822
  900SOL     OW 3597   0.123   2.376   1.120  0.1477 -0.0202 -0.3230
  900SOL    HW1 3598   0.122   2.469   1.095  2.4215 -0.3414 -0.0725
  900SOL    HW2 3599   0.106   2.327   1.039 -1.7621  1.9140 -0.3460
  900SOL     MW 3600   0.121   2.382   1.106  0.1957  0.1926 -0.2930
  901SOL     OW 3601   1.729   2.807   1.748 -0.0761  0.4100 -0.4963
  901SOL    HW1 3602   1.806   2.764   1.712 -0.6046 -0.6246  0.3799
  901SOL    HW2 3603   1.646   2.771   1.705 -0.3640 -0.6317 -1.0469
  901SOL     MW 3604   1.728   2.797   1.738 -0.1839  0.1361 -0.4533
  902SOL     OW 3605   2.575   2.008   1.807 -0.2745 -0.5686  0.4923
  902SOL    HW1 3606   2.545   1.933   1.859  0.5816  1.0101  0.4379
  902SOL    HW2 3607   2.663   2.035   1.839  0.9863  0.3964  0.2132
  902SOL     MW 3608   2.583   2.002   1.818  0.0048 -0.2329  0.4483
  903SOL     OW 3609   1.646   2.782   0.515 -0.1021  0.3259  0.1039
  903SOL    HW1 3610   1.691   2.703   0.562 -2.5338 -1.5023 -0.5077
  903SOL    HW2 3611   1.612   2.824   0.601 -0.6696  2.1794  1.2200
  903SOL     MW 3612   1.647   2.777   0.533 -0.4978  0.3292  0.1704
  904SOL     OW 3613   2.501   2.537   1.663  0.0164  0.5976 -0.2144
  904SOL    HW1 3614   2.449   2.518   1.588  1.6699 -0.2470  2.5991
  904SOL    HW2 3615   2.579   2.483   1.643  1.2057  1.2184  0.5016
  904SOL     MW 3616   2.505   2.528   1.650  0.3915  0.5680  0.2513
  905SOL     OW 3617   2.343   2.592   2.147  0.2674  0.1249  0.5645
  905SOL    HW1 3618   2.382   2.565   2.067 -2.4085 -0.7775  0.2098
  905SOL    HW2 3619   2.307   2.508   2.185  1.7955 -0.5447  1.3493
  905SOL     MW 3620   2.343   2.577   2.142  0.1160 -0.0825  0.6213
  906SOL     OW 3621   2.509   2.481   0.822 -0.2136 -0.6437 -0.1312
  906SOL    HW1 3622   2.596   2.476   0.870  2.0417 -1.8248 -0.9515
  906SOL    HW2 3623   2.473   2.570   0.825  0.9481 -1.7484  0.0605
  906SOL     MW 3624   2.516   2.492   0.829  0.2373 -0.9453 -0.2141
  907SOL     OW 3625   2.602   2.873   1.265  0.4445  0.6064 -0.0193
  907SOL    HW1 3626   2.673   2.866   1.328  0.2869 -2.4027  1.4134
  907SOL    HW2 3627   2.652   2.885   1.184 -0.9098 -0.4694 -0.0065
  907SOL     MW 3628   2.618   2.874   1.262  0.2450  0.0674  0.1714
  908SOL     OW 3629   2.707   2.390   0.031  0.0854  0.3523  0.1521
  908SOL    HW1 3630   2.648   2.319   0.069 -0.2207 -2.9136  2.4812
  908SOL    HW2 3631   2.688   2.473   0.068  2.7349 -1.5173 -3.0318
  908SOL     MW 3632   2.697   2.392   0.041  0.3946 -0.3253  0.0393
  909SOL     OW 3633   1.627   0.231   1.011 -0.1964  0.1671  0.0718
  909SOL    HW1 3634   1.650   0.320   0.980  0.0483 -0.6237 -1.9988
  909SOL    HW2 3635   1.597   0.233   1.105  0.1934 -0.8093 -1.0896
  909SOL     MW 3636   1.626   0.243   1.019 -0.1127 -0.0661 -0.3546
  910SOL     OW 3637   2.283   1.739   0.396  0.2403  0.4685  0.1666
  910SOL    HW1 3638   2.210   1.683   0.410 -0.8943  3.5204 -1.0983
  910SOL    HW2 3639   2.272   1.773   0.305  2.2179 -1.0855  0.4236
  910SOL     MW 3640   2.272   1.736   0.386  0.3515  0.6662  0.0336
  911SOL     OW 3641   2.156   2.258   1.636 -0.0189  0.8947  0.2996
  911SOL    HW1 3642   2.220   2.233   1.699 -2.9010 -0.1778  1.1299
  911SOL    HW2 3643   2.199   2.292   1.559 -0.4572  2.1204 -1.7763
  911SOL     MW 3644   2.170   2.259   1.634 -0.4570  0.9149  0.1352
  912SOL     OW 3645   2.890   1.899   1.488  0.5404  0.2428  0.3124
  912SOL    HW1 3646   2.945   1.947   1.422  0.0163  1.0337 -2.1762
  912SOL    HW2 3647   2.813   1.952   1.495 -1.6803  0.6729  0.2392
  912SOL     MW 3648   2.887   1.912   1.480  0.1783  0.4039 -0.0256
  913SOL     OW 3649   2.537   2.956   0.385 -0.1338  0.1906  0.2784
  913SOL    HW1 3650   2.618   2.908   0.412  0.3581 -3.3944 -0.1833
  913SOL    HW2 3651   2.463   2.898   0.408 -0.9990  1.0751  2.2365
  913SOL     MW 3652   2.538   2.942   0.391 -0.1831 -0.1657  0.4758
  914SOL     OW 3653   2.782   1.630   0.035 -0.2926  0.4740  0.1161
  914SOL    HW1 3654   2.798   1.677  -0.043 -1.1095 -0.2392  2.7433
  914SOL    HW2 3655   2.689   1.638   0.053  5.0954  1.0341  1.5893
  914SOL     MW 3656   2.772   1.637   0.027  0.3105  0.4538  0.6571
  915SOL     OW 3657   1.846   0.157   0.214 -0.6273 -0.2266  0.1920
  915SOL    HW1 3658   1.902   0.101   0.270  2.3493  0.2527 -1.6810
  915SOL    HW2 3659   1.761   0.150   0.252  0.3868  0.6568  0.5835
  915SOL     MW 3660   1.842   0.149   0.226 -0.1008 -0.0468 -0.0034
  916SOL     OW 3661   1.825   2.090   1.961  0.0752 -0.3445  0.6053
  916SOL    HW1 3662   1.823   2.189   1.946 -1.7267 -0.1533  0.7897
  916SOL    HW2 3663   1.817   2.054   1.871  0.1497 -0.5935 -1.0793
  916SOL     MW 3664   1.824   2.099   1.947 -0.1527 -0.3521  0.4074
  917SOL     OW 3665   2.288   2.332   2.697  0.1103  0.3667 -0.1690
  917SOL    HW1 3666   2.271   2.303   2.788  1.8279  0.2769  0.9690
  917SOL    HW2 3667   2.276   2.427   2.688  2.1592  0.1261  2.8922
  917SOL     MW 3668   2.284   2.341   2.708  0.6072  0.3231  0.3850
  918SOL     OW 3669   2.070   1.661   2.669  0.3366  0.4027  0.0031
  918SOL    HW1 3670   1.993   1.694   2.620  0.0087  1.2497  0.4239
  918SOL    HW2 3671   2.141   1.720   2.647 -1.1413  0.7472  0.3183
  918SOL     MW 3672   2.069   1.673   2.660  0.0983  0.5599  0.1002
  919SOL     OW 3673   3.060   2.401   2.274 -0.1298 -0.3044  0.2411
  919SOL    HW1 3674   3.002   2.331   2.256  3.8109  3.9095  0.3231
  919SOL    HW2 3675   3.127   2.391   2.212  1.1029 -0.9387 -0.6047
  919SOL     MW 3676   3.061   2.391   2.264  0.5528  0.1679  0.1403
  920SOL     OW 3677   2.773   2.847   0.013  0.4196 -0.0109  0.0309
  920SOL    HW1 3678   2.698   2.907   0.028 -1.2193  0.2137  0.5974
  920SOL    HW2 3679   2.763   2.804  -0.074  2.1409 -0.1723 -0.6532
  920SOL     MW 3680   2.762   2.849   0.003  0.4305 -0.0026  0.0154
  921SOL     OW 3681   2.524   2.624   2.695 -0.1884 -0.5637 -0.1636
  921SOL    HW1 3682   2.584   2.638   2.624  1.7890  0.3223 -0.5096
  921SOL    HW2 3683   2.549   2.540   2.735  0.0147  2.7015 -4.5840
  921SOL     MW 3684   2.535   2.614   2.691  0.0993 -0.0160 -0.7924
  922SOL     OW 3685   2.027   2.815   0.266  0.2702 -0.2667 -0.3408
  922SOL    HW1 3686   2.033   2.876   0.187 -0.0415 -1.8445  1.0198
  922SOL    HW2 3687   1.967   2.737   0.237 -0.6189 -1.9761  0.7504
  922SOL     MW 3688   2.020   2.813   0.251  0.1118 -0.7004 -0.0173
  923SOL     OW 3689   2.200   2.818   1.631  0.5091  0.2015  0.2555
  923SOL    HW1 3690   2.245   2.758   1.570  1.8506  0.3097  1.3331
  923SOL    HW2 3691   2.214   2.908   1.604 -3.1654 -1.5068  1.4798
  923SOL     MW 3692   2.208   2.822   1.620  0.2013 -0.0096  0.5592
  924SOL     OW 3693   1.164   2.763   2.483  0.5615  0.2225 -0.3102
  924SOL    HW1 3694   1.210   2.845   2.455  0.1372  1.2915  0.8440
  924SOL    HW2 3695   1.229   2.726   2.542 -2.0496  0.0826  3.4457
  924SOL     MW 3696   1.178   2.769   2.487  0.1610  0.3451  0.3377
  925SOL     OW 3697   2.963   0.208   2.682 -0.3042  0.0459 -0.4050
  925SOL    HW1 3698   2.986   0.241   2.593 -2.5446 -1.5074  2.0016
  925SOL    HW2 3699   2.960   0.283   2.734  1.4378 -0.4915 -0.1321
  925SOL     MW 3700   2.966   0.222   2.677 -0.3700 -0.2299 -0.0514
  926SOL     OW 3701   2.656   2.392   2.089 -0.0278  0.0829  0.1293
  926SOL    HW1 3702   2.689   2.461   2.146  0.4908  0.5921  0.4124
  926SOL    HW2 3703   2.714   2.382   2.009  0.4689 -0.6169 -0.1278
  926SOL     MW 3704   2.668   2.400   2.086  0.1062  0.0578  0.1327
  927SOL     OW 3705   2.368   0.163   0.294 -0.2326 -0.2646  0.0649
  927SOL    HW1 3706   2.458   0.161   0.255 -0.3497  1.7389  1.3375
  927SOL    HW2 3707   2.323   0.141   0.218  0.0328  1.5763  0.7313
  927SOL     MW 3708   2.374   0.160   0.279 -0.2130  0.2426  0.3207
  928SOL     OW 3709   2.003   2.507   1.798 -0.1362 -0.1687 -0.6057
  928SOL    HW1 3710   2.066   2.437   1.782  3.3914 -0.8535  0.3425
  928SOL    HW2 3711   2.051   2.560   1.862 -2.6761  1.4439  1.0809
  928SOL     MW 3712   2.018   2.504   1.805 -0.0059 -0.0463 -0.2581
  929SOL     OW 3713   2.765   2.351   2.433  0.6287  0.1547  0.1629
  929SOL    HW1 3714   2.684   2.310   2.405 -2.0273  1.7719  0.4799
  929SOL    HW2 3715   2.785   2.315   2.522 -2.9179 -1.6931 -2.9618
  929SOL     MW 3716   2.757   2.341   2.441 -0.1896  0.1243 -0.2075
  930SOL     OW 3717   2.014   2.880   2.644  0.2461  0.7268  0.4322
  930SOL    HW1 3718   1.996   2.829   2.720 -0.5666 -1.0749 -1.6924
  930SOL    HW2 3719   2.108   2.908   2.644 -0.0649 -1.9930  0.0728
  930SOL     MW 3720   2.024   2.877   2.654  0.0978  0.1302  0.1044
  931SOL     OW 3721   2.933   2.841   2.191 -0.0137 -0.0890  0.7952
  931SOL    HW1 3722   3.002   2.777   2.183 -0.1056 -0.0056 -2.4884
  931SOL    HW2 3723   2.877   2.829   2.112 -0.5699 -0.0912  0.1058
  931SOL     MW 3724   2.934   2.831   2.180 -0.0992 -0.0783  0.2710
  932SOL     OW 3725   2.825   1.919   2.556 -0.0255  0.0563  0.4669
  932SOL    HW1 3726   2.910   1.945   2.590  0.4293  0.7831  1.6349
  932SOL    HW2 3727   2.826   1.918   2.464 -0.7485 -2.1329  3.2243
  932SOL     MW 3728   2.837   1.923   2.548 -0.0609 -0.1366  0.9848
  933SOL     OW 3729   2.063   2.816   2.236 -0.2741  0.6526 -0.3610
  933SOL    HW1 3730   2.156   2.825   2.258 -2.7421 -3.1243  3.7002
  933SOL    HW2 3731   2.025   2.902   2.219 -2.7805 -2.3534  1.7870
  933SOL     MW 3732   2.070   2.829   2.236 -0.9304 -0.2424  0.4582
  934SOL     OW 3733   1.999   2.681   2.470  0.6067  0.1580 -0.0623
  934SOL    HW1 3734   2.000   2.758   2.521  2.4654 -0.3659 -2.9300
  934SOL    HW2 3735   2.012   2.723   2.383 -0.3201  0.5325 -1.4900
  934SOL     MW 3736   2.001   2.697   2.465  0.7296  0.1383 -0.6291
  935SOL     OW 3737   2.617   1.608   1.798 -0.6635  0.0479 -0.1376
  935SOL    HW1 3738   2.699   1.588   1.750 -2.2655  0.2119  0.9293
  935SOL    HW2 3739   2.557   1.615   1.732  1.3557  0.6087  3.4493
  935SOL     MW 3740   2.620   1.606   1.783 -0.6085  0.1436  0.4764
  936SOL     OW 3741   2.951   2.242   3.046 -0.1881  0.0594 -0.3017
  936SOL    HW1 3742   3.041   2.263   3.076 -1.6081 -2.6146 -1.7925
  936SOL    HW2 3743   2.897   2.323   3.056 -0.1134  1.3968 -3.3633
  936SOL     MW 3744   2.956   2.255   3.051 -0.3656 -0.1170 -0.9024
  937SOL     OW 3745   1.984   2.189   2.633  0.1677 -0.3456  0.4369
  937SOL    HW1 3746   2.048   2.164   2.703 -2.1689 -1.7150  1.0317
  937SOL    HW2 3747   2.025   2.172   2.546  1.0438 -0.8655 -0.8653
  937SOL     MW 3748   1.998   2.183   2.631 -0.0250 -0.5948  0.3435
  938SOL     OW 3749   2.260   1.848   1.922  0.3529  0.2091  0.0276
  938SOL    HW1 3750   2.213   1.895   1.853 -0.2762  0.1742  0.3786
  938SOL    HW2 3751   2.283   1.905   1.991  0.0276 -1.0903 -2.5135
  938SOL     MW 3752   2.257   1.862   1.922  0.2270  0.0330 -0.2614
  939SOL     OW 3753   2.803   1.975   2.269 -0.0055 -0.9429 -0.1678
  939SOL    HW1 3754   2.805   1.920   2.194 -0.6662 -1.6163  1.3700
  939SOL    HW2 3755   2.708   1.999   2.284 -2.5831 -1.2160  1.4713
  939SOL     MW 3756   2.791   1.971   2.261 -0.4328 -1.0677  0.2513
  940SOL     OW 3757   2.272   0.147   2.682 -0.3753 -0.1429 -0.0710
  940SOL    HW1 3758   2.267   0.055   2.654 -1.4548  2.0221  1.0255
  940SOL    HW2 3759   2.334   0.148   2.758  1.5117 -1.2861 -0.5430
  940SOL     MW 3760   2.279   0.135   2.688 -0.2688 -0.0081  0.0114
  941SOL     OW 3761   0.171   2.372   2.077  0.3942 -0.1371  0.1552
  941SOL    HW1 3762   0.217   2.294   2.069  0.4083  2.2051 -1.5399
  941SOL    HW2 3763   0.106   2.372   2.005 -1.4209 -1.4063 -1.8081
  941SOL     MW 3764   0.169   2.361   2.066  0.1565  0.0045 -0.3275
  942SOL     OW 3765   2.887   2.220   2.165  0.4896  0.4202  0.1359
  942SOL    HW1 3766   2.800   2.256   2.154 -1.0333 -2.1187 -1.2433
  942SOL    HW2 3767   2.875   2.136   2.222 -0.8499  1.7867  2.1046
  942SOL     MW 3768   2.874   2.213   2.171  0.1120  0.2656  0.2137
  943SOL     OW 3769   0.247   2.003   2.315  0.6057 -0.2573 -0.3845
  943SOL    HW1 3770   0.189   2.053   2.380 -2.7099  1.7646  1.0774
  943SOL    HW2 3771   0.331   2.009   2.361  0.5824 -0.8240  1.5467
  943SOL     MW 3772   0.250   2.010   2.330  0.1651 -0.0653  0.0632
  944SOL     OW 3773   2.119   2.666   2.014 -0.1047  0.0095 -0.3561
  944SOL    HW1 3774   2.190   2.624   2.063 -2.0924 -0.4129  1.4914
  944SOL    HW2 3775   2.084   2.717   2.089  1.1812 -1.6123 -1.3206
  944SOL     MW 3776   2.124   2.667   2.030 -0.1973 -0.2602 -0.2396
  945SOL     OW 3777   2.762   2.674   2.914  0.3390  0.6281 -1.1765
  945SOL    HW1 3778   2.694   2.604   2.896 -0.2891 -0.9192  1.9346
  945SOL    HW2 3779   2.812   2.668   2.832 -1.8013 -1.3423 -0.6188
  945SOL     MW 3780   2.759   2.664   2.900 -0.0263  0.1640 -0.6924
  946SOL     OW 3781   2.550   2.730   2.288 -0.1890  0.6115  0.2390
  946SOL    HW1 3782   2.593   2.786   2.221 -1.1070  0.9451 -1.1690
  946SOL    HW2 3783   2.497   2.679   2.228 -3.5762 -0.9796 -0.6741
  946SOL     MW 3784   2.549   2.731   2.272 -0.7570  0.4456 -0.0673
  947SOL     OW 3785   2.046   0.043   0.360 -0.0677 -0.6562 -0.5724
  947SOL    HW1 3786   2.080  -0.027   0.312 -1.5547  1.6130 -1.7963
  947SOL    HW2 3787   2.114   0.065   0.427  3.4702  0.7033  3.6395
  947SOL     MW 3788   2.060   0.036   0.362  0.2029 -0.1774 -0.1782
  948SOL     OW 3789   1.837   3.099   2.638 -0.5547 -0.2660 -1.0502
  948SOL    HW1 3790   1.888   3.017   2.649  2.2458  0.9439 -0.1359
  948SOL    HW2 3791   1.858   3.138   2.556  0.2749  1.5462  0.2530
  948SOL     MW 3792   1.846   3.093   2.629 -0.0757  0.1327 -0.7576
  949SOL     OW 3793   2.541   2.023   2.310 -0.0866 -0.8848  0.4353
  949SOL    HW1 3794   2.528   1.935   2.354  1.8804 -0.1730 -0.9339
  949SOL    HW2 3795   2.502   2.091   2.362 -0.7015 -0.3851  0.4646
  949SOL     MW 3796   2.534   2.020   2.323  0.0918 -0.7250  0.2586
  950SOL     OW 3797   2.209   2.631   3.046 -1.0359  0.1056 -0.1813
  950SOL    HW1 3798   2.251   2.553   3.010  1.1278  0.6200  0.9397
  950SOL    HW2 3799   2.152   2.669   2.978  1.2764 -0.8673 -1.4170
  950SOL     MW 3800   2.207   2.626   3.032 -0.4453  0.0451 -0.1965
  951SOL     OW 3801   2.892   2.052   2.865  0.1499  0.0206 -0.0185
  951SOL    HW1 3802   2.914   2.115   2.930  2.1215 -0.0836 -2.1971
  951SOL    HW2 3803   2.959   2.048   2.790 -0.6515  0.2972  0.0243
  951SOL     MW 3804   2.904   2.060   2.864  0.3043  0.0434 -0.3003
  952SOL     OW 3805   3.094   1.632   2.090  0.1395  0.1604 -0.1440
  952SOL    HW1 3806   3.015   1.678   2.071  0.2829 -2.0363  1.8795
  952SOL    HW2 3807   3.148   1.705   2.129 -1.8157  0.3736  0.6112
  952SOL     MW 3808   3.091   1.648   2.093 -0.0995 -0.1013  0.2226
  953SOL     OW 3809   1.939   1.819   2.832  1.2697  0.2638  0.6940
  953SOL    HW1 3810   1.847   1.787   2.854  1.4403 -0.8293  1.9375
  953SOL    HW2 3811   2.001   1.758   2.781 -0.2079 -0.7487 -0.2639
  953SOL     MW 3812   1.935   1.807   2.828  1.0973 -0.0140  0.7317
  954SOL     OW 3813   2.417   2.061   2.915  0.2071  0.7469  0.3383
  954SOL    HW1 3814   2.332   2.081   2.877 -1.7375  2.7694  2.3773
  954SOL    HW2 3815   2.473   2.028   2.835  0.3650 -0.0579 -0.0090
  954SOL     MW 3816   2.414   2.059   2.900 -0.0286  0.9076  0.5615
  955SOL     OW 3817   1.574   1.637   2.602 -0.2739  0.3882  0.1933
  955SOL    HW1 3818   1.552   1.600   2.520  0.0746  1.4705  1.0619
  955SOL    HW2 3819   1.668   1.647   2.600  3.3262 -0.2482  0.2757
  955SOL     MW 3820   1.583   1.634   2.591  0.2471  0.4471  0.3188
  956SOL     OW 3821   2.620   2.418   2.863  0.0821 -0.2664  0.2353
  956SOL    HW1 3822   2.657   2.398   2.954 -0.5980 -0.2451 -2.1672
  956SOL    HW2 3823   2.669   2.364   2.798 -1.0815 -0.7119 -0.3498
  956SOL     MW 3824   2.631   2.408   2.867 -0.1612 -0.3223 -0.1589
  957SOL     OW 3825   2.303   2.812   0.410  0.2177 -0.6520  0.6895
  957SOL    HW1 3826   2.227   2.813   0.353  0.8638  1.3104 -3.4784
  957SOL    HW2 3827   2.280   2.764   0.491 -2.4615  1.2094 -2.8157
  957SOL     MW 3828   2.290   2.806   0.413 -0.0505 -0.1475 -0.3229
  958SOL     OW 3829   2.015   2.698   2.850 -0.5097 -0.3219  0.1757
  958SOL    HW1 3830   1.991   2.615   2.803 -0.9228 -0.8186 -1.4569
  958SOL    HW2 3831   1.938   2.731   2.886  1.1864 -0.7250  1.4229
  958SOL     MW 3832   2.002   2.691   2.849 -0.3404 -0.4406  0.1249
  959SOL     OW 3833   2.411   2.562   0.343  0.5279 -0.1840 -0.2909
  959SOL    HW1 3834   2.488   2.580   0.288 -1.2539  0.6699 -0.5043
  959SOL    HW2 3835   2.366   2.645   0.344  1.1034 -0.4680 -2.1349
  959SOL     MW 3836   2.415   2.575   0.336  0.3687 -0.1088 -0.5624
  960SOL     OW 3837   1.953   2.426   2.305 -0.2542 -0.6199 -0.0278
  960SOL    HW1 3838   1.943   2.333   2.323  1.7267  1.8603  2.2618
  960SOL    HW2 3839   1.907   2.472   2.369 -0.3264 -0.5831 -2.0833
  960SOL     MW 3840   1.946   2.420   2.316 -0.0024 -0.2878  0.0031
  961SOL     OW 3841   2.242   2.405   2.323 -0.1097 -0.3117  0.5268
  961SOL    HW1 3842   2.153   2.370   2.305  1.9766  0.5516  0.9554
  961SOL    HW2 3843   2.222   2.463   2.394 -1.2613 -1.3949 -3.2998
  961SOL     MW 3844   2.228   2.408   2.330  0.0136 -0.3407  0.0784
  962SOL     OW 3845   2.170   2.067   2.785 -0.4741  0.4426  0.0252
  962SOL    HW1 3846   2.138   2.015   2.863 -0.0752 -0.4843  1.0895
  962SOL    HW2 3847   2.208   1.994   2.730  1.4166 -1.5837 -2.1789
  962SOL     MW 3848   2.171   2.051   2.788 -0.1720  0.0529 -0.1252
  963SOL     OW 3849   1.747   2.541   2.152  0.4986  0.3341 -0.5273
  963SOL    HW1 3850   1.821   2.509   2.202 -2.3518  2.3084 -2.0971
  963SOL    HW2 3851   1.767   2.489   2.075  1.4746  1.4257  1.7772
  963SOL     MW 3852   1.759   2.530   2.149  0.2513  0.7386 -0.4304
  964SOL     OW 3853   1.805   1.986   2.643 -0.0709 -0.4474  0.2004
  964SOL    HW1 3854   1.861   2.066   2.621  0.7485  1.3130  3.5463
  964SOL    HW2 3855   1.859   1.953   2.717  0.0088  1.3827  0.3382
  964SOL     MW 3856   1.819   1.992   2.650  0.0477  0.0263  0.6601
  965SOL     OW 3857   2.184   2.704   0.634  0.4378  0.2828 -0.0043
  965SOL    HW1 3858   2.185   2.607   0.617 -0.2278 -1.5123  3.3531
  965SOL    HW2 3859   2.264   2.724   0.687  1.8581  1.3318 -0.3899
  965SOL     MW 3860   2.194   2.694   0.639  0.5374  0.1843  0.3878
  966SOL     OW 3861   2.714   2.623   2.499 -0.3614  0.2521 -0.7225
  966SOL    HW1 3862   2.662   2.660   2.426 -1.1948  0.7811 -1.2244
  966SOL    HW2 3863   2.733   2.532   2.474  0.1408  0.8306  0.8520
  966SOL     MW 3864   2.710   2.616   2.486 -0.4051  0.3982 -0.5810
  967SOL     OW 3865   2.892   3.017   2.909  0.5928 -0.4026  0.2015
  967SOL    HW1 3866   2.853   2.970   2.981  1.2891  0.6338 -0.0795
  967SOL    HW2 3867   2.828   3.048   2.839 -0.3421 -1.2046 -0.6121
  967SOL     MW 3868   2.878   3.015   2.909  0.5613 -0.3717  0.0571
  968SOL     OW 3869   3.017   2.540   3.018  0.1119  0.0605  0.4770
  968SOL    HW1 3870   2.932   2.588   3.007  4.0631 -0.5646  0.7290
  968SOL    HW2 3871   3.028   2.484   2.945  0.6409  0.7133  2.0449
  968SOL     MW 3872   3.008   2.539   3.007  0.7030  0.0642  0.7171
  969SOL     OW 3873   1.536   2.098   1.714  0.4136 -0.5323  0.1809
  969SOL    HW1 3874   1.619   2.053   1.690 -2.2033  0.9747  1.3632
  969SOL    HW2 3875   1.526   2.109   1.811 -2.9204  0.8707  1.4484
  969SOL     MW 3876   1.546   2.094   1.724 -0.3716 -0.1484  0.5041
  970SOL     OW 3877   1.676   1.711   1.851 -0.2110  0.2440 -0.1821
  970SOL    HW1 3878   1.722   1.675   1.929  1.4340 -1.1410 -1.0181
  970SOL    HW2 3879   1.585   1.728   1.869  0.1968 -0.2825  1.3632
  970SOL     MW 3880   1.670   1.708   1.864  0.0598 -0.0082 -0.0885
  971SOL     OW 3881   1.855   0.109   2.376 -0.1109 -0.7121 -0.0528
  971SOL    HW1 3882   1.892   0.050   2.313  0.7920  2.8941  0.4534
  971SOL    HW2 3883   1.912   0.193   2.380  1.3489  1.8649 -2.3852
  971SOL     MW 3884   1.868   0.113   2.368  0.2008  0.1037 -0.2937
  972SOL     OW 3885   0.270   2.809   2.546  0.4586 -0.2289  0.0929
  972SOL    HW1 3886   0.300   2.722   2.522  3.8265 -2.2506  0.8255
  972SOL    HW2 3887   0.341   2.869   2.526 -1.0975  1.4252  0.6473
  972SOL     MW 3888   0.283   2.806   2.540  0.6977 -0.2774  0.2627
  973SOL     OW 3889   2.611   3.092   2.054 -0.1736  0.0525 -0.3303
  973SOL    HW1 3890   2.609   3.002   2.018 -1.1631  1.7851  1.1313
  973SOL    HW2 3891   2.624   3.146   1.979  0.6053 -0.3655 -0.1922
  973SOL     MW 3892   2.612   3.087   2.039 -0.2014  0.2259 -0.1193
  974SOL     OW 3893   2.076   0.346   2.732  0.2928 -0.0845  0.3739
  974SOL    HW1 3894   2.143   0.289   2.697  0.7452 -0.6628  2.4522
  974SOL    HW2 3895   2.025   0.277   2.782 -0.6271  0.8627 -3.0763
  974SOL     MW 3896   2.078   0.329   2.734  0.2311 -0.0358  0.1929
  975SOL     OW 3897   2.279   2.598   2.550 -0.5510 -0.0440 -0.1063
  975SOL    HW1 3898   2.365   2.610   2.584 -1.9425 -3.1315 -0.2090
  975SOL    HW2 3899   2.242   2.684   2.544  0.0445 -0.7299  0.3354
  975SOL     MW 3900   2.285   2.611   2.554 -0.6560 -0.5419 -0.0616
  976SOL     OW 3901   0.235   0.260   1.733 -0.3852  0.2128  0.1252
  976SOL    HW1 3902   0.289   0.208   1.788 -0.3404  2.8989 -2.1973
  976SOL    HW2 3903   0.159   0.204   1.700 -2.8567  0.8460 -0.0941
  976SOL     MW 3904   0.232   0.246   1.736 -0.7054  0.6507 -0.2101
  977SOL     OW 3905   1.671   2.765   2.461 -0.1579  0.2138 -0.2753
  977SOL    HW1 3906   1.694   2.669   2.447 -1.6810 -0.4997 -1.3129
  977SOL    HW2 3907   1.737   2.828   2.431  1.1865 -1.4599  0.2605
  977SOL     MW 3908   1.683   2.761   2.455 -0.1815 -0.1011 -0.3415
   3.10000   3.10000   3.10000
