977 TIP4P/2005f water molecules t=   1.05000 step= 1050
 3908
    1SOL     OW    1   0.393   0.802   0.034  0.6279 -0.1323  0.1679
    1SOL    HW1    2   0.374   0.845  -0.053  0.5992  0.0724 -1.5467
    1SOL    HW2    3   0.338   0.723   0.025 -2.6610 -0.1068 -1.3840
    1SOL     MW    4   0.383   0.798   0.021  0.1901 -0.1019 -0.2631
    2SOL     OW    5   0.330   3.053   1.171  0.0102  0.2413  0.3918
    2SOL    HW1    6   0.380   3.130   1.133  1.6344  3.6576 -0.1087
    2SOL    HW2    7   0.245   3.097   1.185  2.2023  1.8928  0.8402
    2SOL     MW    8   0.325   3.069   1.168  0.5137  0.9099  0.3850
    3SOL     OW    9   2.631   0.439   0.984 -0.3945 -0.1382 -0.2417
    3SOL    HW1   10   2.686   0.500   0.933  1.8194  3.1998 -2.6022
    3SOL    HW2   11   2.615   0.494   1.067 -1.0865 -0.5682  1.8570
    3SOL     MW   12   2.636   0.454   0.988 -0.1937  0.2455 -0.2763
    4SOL     OW   13   2.928   1.669   0.565  0.3011  0.0234 -0.0156
    4SOL    HW1   14   2.867   1.730   0.526 -0.5553  0.1290 -1.2017
    4SOL    HW2   15   3.004   1.647   0.510 -0.4304  0.6008 -3.1652
    4SOL     MW   16   2.930   1.674   0.553  0.0916  0.1135 -0.5877
    5SOL     OW   17   1.773   1.491   0.520 -0.6503 -0.3907  0.4902
    5SOL    HW1   18   1.786   1.429   0.588 -3.1355 -0.2121  1.1331
    5SOL    HW2   19   1.679   1.521   0.538 -2.3585  1.5859 -1.0300
    5SOL     MW   20   1.763   1.487   0.531 -1.2035 -0.1064  0.3745
    6SOL     OW   21   0.805   1.379   0.585 -0.1776 -0.7086 -0.4491
    6SOL    HW1   22   0.726   1.393   0.642  0.1850  2.6909  0.7038
    6SOL    HW2   23   0.846   1.300   0.620  0.1341  2.0414  0.1217
    6SOL     MW   24   0.800   1.370   0.597 -0.0886  0.1028 -0.2216
    7SOL     OW   25   2.069   1.031   3.099  0.1381 -0.4953  0.0789
    7SOL    HW1   26   2.128   1.060   3.034 -1.1156 -1.2372  1.6831
    7SOL    HW2   27   2.116   1.054   3.179  0.4726 -2.3523 -0.7875
    7SOL     MW   28   2.083   1.038   3.101  0.0168 -0.8382  0.1763
    8SOL     OW   29   0.914   1.432   1.146 -0.4376  0.0552  1.0927
    8SOL    HW1   30   1.005   1.415   1.139 -0.6758  0.2192 -1.7229
    8SOL    HW2   31   0.874   1.351   1.174  0.1457  1.6674  0.3453
    8SOL     MW   32   0.921   1.419   1.149 -0.3921  0.2896  0.6226
    9SOL     OW   33   1.020   0.539   1.396  0.0935  0.1939  0.2096
    9SOL    HW1   34   0.981   0.466   1.342 -1.0003 -2.9472  0.8592
    9SOL    HW2   35   1.057   0.495   1.473  0.1696  0.2792 -1.0987
    9SOL     MW   36   1.020   0.523   1.399 -0.0408 -0.2093  0.1227
   10SOL     OW   37   0.203   0.765   0.453 -0.2723 -0.0938  0.2030
   10SOL    HW1   38   0.298   0.792   0.442  0.2657  1.6043  1.7063
   10SOL    HW2   39   0.195   0.799   0.546 -0.3991 -0.6942  0.2814
   10SOL     MW   40   0.214   0.773   0.464 -0.2181  0.0511  0.4117
   11SOL     OW   41   0.808   1.135   1.651  0.0837  0.3228 -0.9524
   11SOL    HW1   42   0.834   1.096   1.736 -0.5876 -3.6893 -0.4611
   11SOL    HW2   43   0.803   1.063   1.599  3.4085  1.3126 -0.3124
   11SOL     MW   44   0.811   1.121   1.656  0.4338 -0.0759 -0.8031
   12SOL     OW   45   0.032   1.083   0.862 -0.4437  0.0494  0.0754
   12SOL    HW1   46   0.054   1.153   0.923 -0.5791  2.2084  3.3911
   12SOL    HW2   47   0.007   1.133   0.786  3.7383  0.2227 -2.6891
   12SOL     MW   48   0.031   1.099   0.860  0.0902  0.3571  0.1481
   13SOL     OW   49   1.849   1.441   1.339 -0.2223  0.0493 -0.4674
   13SOL    HW1   50   1.908   1.382   1.295 -1.6628  1.5423  0.4831
   13SOL    HW2   51   1.873   1.530   1.315 -2.0850  1.1662  0.9872
   13SOL     MW   52   1.860   1.445   1.330 -0.6581  0.3937 -0.1501
   14SOL     OW   53   0.585   0.388   1.868 -0.3957  0.2991 -0.2161
   14SOL    HW1   54   0.520   0.318   1.840 -0.7726  1.4402 -0.5910
   14SOL    HW2   55   0.679   0.355   1.856  1.3703 -0.1156  0.3678
   14SOL     MW   56   0.589   0.375   1.863 -0.2124  0.3950 -0.1885
   15SOL     OW   57   1.941   0.350   1.063  0.6912 -0.0870 -0.0932
   15SOL    HW1   58   1.907   0.398   1.137 -1.4114  0.8942 -0.0942
   15SOL    HW2   59   1.987   0.419   1.016 -0.9557  1.4434  2.0101
   15SOL     MW   60   1.942   0.365   1.066  0.1965  0.2443  0.1842
   16SOL     OW   61   0.195   1.803   0.329 -0.1130  0.2078  0.0965
   16SOL    HW1   62   0.288   1.777   0.350  0.5724 -0.6479 -0.5092
   16SOL    HW2   63   0.189   1.896   0.328 -2.4027 -2.0796  0.4559
   16SOL     MW   64   0.206   1.812   0.332 -0.3247 -0.2069  0.0640
   17SOL     OW   65   1.104   0.899   1.434 -0.3287  0.5273  0.6612
   17SOL    HW1   66   1.140   0.848   1.504 -0.9558  0.9670 -2.6737
   17SOL    HW2   67   1.014   0.909   1.462  0.9460 -0.9271  1.1154
   17SOL     MW   68   1.097   0.894   1.447 -0.2433  0.3934  0.2811
   18SOL     OW   69   0.045   1.572   0.423 -0.2962  0.1789 -0.3519
   18SOL    HW1   70   0.094   1.630   0.369 -1.7329 -2.9953  1.8408
   18SOL    HW2   71  -0.002   1.516   0.358 -1.8260 -1.9096  1.7059
   18SOL     MW   72   0.046   1.572   0.408 -0.6876 -0.5154  0.2089
   19SOL     OW   73   0.121   1.284   1.026 -0.2944 -0.4436  0.0213
   19SOL    HW1   74   0.153   1.329   0.948 -1.4276  0.3815  3.9484
   19SOL    HW2   75   0.026   1.304   1.033 -1.8549  0.0524  2.0377
   19SOL     MW   76   0.113   1.292   1.017 -0.6498 -0.2693  0.8055
   20SOL     OW   77   0.442   2.150   1.172 -0.1626 -0.0254 -0.2666
   20SOL    HW1   78   0.393   2.075   1.132 -1.9216 -1.3717 -0.3446
   20SOL    HW2   79   0.385   2.190   1.240  0.8436 -1.7258 -0.0357
   20SOL     MW   80   0.428   2.145   1.176 -0.2619 -0.4274 -0.2464
   21SOL     OW   81   0.456   0.862   0.400  0.0929  0.3217  0.3922
   21SOL    HW1   82   0.532   0.852   0.458  0.4992  0.5816  0.6826
   21SOL    HW2   83   0.490   0.840   0.314 -0.4832 -1.1485  2.5333
   21SOL     MW   84   0.471   0.858   0.396  0.0705  0.1620  0.7130
   22SOL     OW   85   1.588   0.637   1.027  0.1821 -0.1746  0.0064
   22SOL    HW1   86   1.535   0.641   0.949  1.5146 -0.2027  2.6691
   22SOL    HW2   87   1.547   0.698   1.091 -1.2210 -0.5834  1.3375
   22SOL     MW   88   1.576   0.645   1.026  0.1728 -0.2322  0.5334
   23SOL     OW   89   3.062   0.714   0.659 -0.3401 -0.5854 -0.0468
   23SOL    HW1   90   3.122   0.648   0.710 -0.9966 -3.3267  2.1178
   23SOL    HW2   91   3.109   0.797   0.666 -0.8792  0.8887  2.7864
   23SOL     MW   92   3.076   0.716   0.666 -0.4978 -0.7526  0.6126
   24SOL     OW   93   2.031   2.215   0.033 -0.0012 -0.3870 -0.2609
   24SOL    HW1   94   2.044   2.199   0.129 -2.2001 -1.1569 -1.1384
   24SOL    HW2   95   2.049   2.126   0.001  2.0802 -1.3409 -0.9856
   24SOL     MW   96   2.035   2.201   0.041 -0.0167 -0.6144 -0.4723
   25SOL     OW   97   0.225   1.424   0.563  0.0899  0.1466  0.3265
   25SOL    HW1   98   0.176   1.492   0.524  1.3657 -1.0266  0.7410
   25SOL    HW2   99   0.319   1.444   0.583 -1.8352  0.7902  0.7682
   25SOL     MW  100   0.231   1.436   0.561  0.0042  0.0768  0.4395
   26SOL     OW  101   2.110   1.014   0.359  0.0126  0.9033 -0.2520
   26SOL    HW1  102   2.041   1.059   0.400  1.4688  0.1596  1.9493
   26SOL    HW2  103   2.161   1.074   0.305  1.3759 -0.5463  0.3964
   26SOL     MW  104   2.107   1.028   0.357  0.3846  0.6140  0.1240
   27SOL     OW  105   2.009   1.434   0.244 -0.3441  0.1430 -0.0886
   27SOL    HW1  106   1.921   1.447   0.211 -0.5312  0.0934 -2.1396
   27SOL    HW2  107   2.033   1.515   0.290 -0.3718  1.5818 -0.1325
   27SOL     MW  108   2.001   1.446   0.245 -0.3725  0.3263 -0.3650
   28SOL     OW  109   0.439   0.986   1.947 -0.6160  0.4271 -0.2696
   28SOL    HW1  110   0.506   0.993   2.024  1.1113 -1.4341  2.1202
   28SOL    HW2  111   0.358   0.953   1.983  1.2959  0.1101  1.5320
   28SOL     MW  112   0.437   0.983   1.962 -0.1358  0.1397  0.2834
   29SOL     OW  113   0.223   1.440   0.828 -0.3072  0.7508  0.3663
   29SOL    HW1  114   0.235   1.534   0.845  0.2010 -1.0305  0.9070
   29SOL    HW2  115   0.201   1.438   0.734  0.1510  2.7507 -1.5032
   29SOL     MW  116   0.221   1.452   0.818 -0.1797  0.7796  0.1909
   30SOL     OW  117   0.815   1.191   1.232  0.0647  0.2832 -0.4917
   30SOL    HW1  118   0.735   1.184   1.280 -0.3349 -0.0174  0.7041
   30SOL    HW2  119   0.894   1.180   1.296  2.3585  1.1150 -0.0683
   30SOL     MW  120   0.815   1.189   1.246  0.3146  0.3533 -0.2781
   31SOL     OW  121   0.434   0.221   0.172  0.6864  0.5503 -0.3564
   31SOL    HW1  122   0.438   0.131   0.194  0.2074  3.2630  3.2271
   31SOL    HW2  123   0.451   0.224   0.076  3.4322 -2.7588 -2.1487
   31SOL     MW  124   0.437   0.209   0.162  0.9855  0.4716 -0.1201
   32SOL     OW  125   2.818   0.966   1.181 -0.3553  0.4551  0.0650
   32SOL    HW1  126   2.754   0.906   1.145  1.1213  0.2828  3.7844
   32SOL    HW2  127   2.904   0.947   1.139  0.3183  0.0359  0.8079
   32SOL     MW  128   2.821   0.956   1.171 -0.0716  0.3771  0.6538
   33SOL     OW  129   1.728   1.305   0.324 -0.2269 -0.0742 -0.0046
   33SOL    HW1  130   1.796   1.236   0.338  1.0343  0.4823 -1.6863
   33SOL    HW2  131   1.754   1.378   0.377 -0.5017 -0.3354 -0.2073
   33SOL     MW  132   1.741   1.305   0.332 -0.0967 -0.0353 -0.2532
   34SOL     OW  133   1.230   1.888   1.115 -0.5076 -0.0903 -0.5818
   34SOL    HW1  134   1.150   1.942   1.115  0.0831  2.6003 -0.0041
   34SOL    HW2  135   1.294   1.920   1.180  1.4047  0.4178 -0.3902
   34SOL     MW  136   1.228   1.899   1.123 -0.1774  0.3317 -0.4803
   35SOL     OW  137   0.427   0.156   1.828 -0.3375 -0.7962  0.3259
   35SOL    HW1  138   0.447   0.092   1.898 -1.1038  1.2489  1.0979
   35SOL    HW2  139   0.453   0.127   1.740  1.7736  1.3435  3.5563
   35SOL     MW  140   0.433   0.144   1.826 -0.1601 -0.2441  0.8540
   36SOL     OW  141   1.964   1.964   0.587  0.1349  0.1819  0.6059
   36SOL    HW1  142   1.931   1.955   0.498  2.8190 -1.6606 -0.7943
   36SOL    HW2  143   1.983   1.868   0.603 -1.2285  0.3062  0.4910
   36SOL     MW  144   1.962   1.950   0.578  0.3092 -0.0448  0.4060
   37SOL     OW  145   1.800   1.976   0.967  0.4429  0.1188 -0.2176
   37SOL    HW1  146   1.748   1.913   0.912  3.1325  1.0978 -0.0852
   37SOL    HW2  147   1.732   2.014   1.019 -0.7345 -0.1096 -2.4332
   37SOL     MW  148   1.784   1.973   0.966  0.6424  0.2178 -0.4924
   38SOL     OW  149   2.822   0.924   0.150  0.0256  0.3560 -0.2256
   38SOL    HW1  150   2.838   0.900   0.243 -0.7405  1.2541  1.8271
   38SOL    HW2  151   2.906   0.901   0.114  1.2923 -2.2602  2.6470
   38SOL     MW  152   2.835   0.918   0.158  0.0917  0.1293  0.4242
   39SOL     OW  153   1.422   0.634   0.805  0.2686 -0.4492  0.1423
   39SOL    HW1  154   1.380   0.551   0.834 -0.0590 -1.4446  0.8432
   39SOL    HW2  155   1.352   0.692   0.762 -0.2034 -1.3796 -1.1994
   39SOL     MW  156   1.407   0.631   0.803  0.1631 -0.7033  0.0578
   40SOL     OW  157   1.185   1.915   0.319 -0.0717  0.1463 -0.1516
   40SOL    HW1  158   1.210   1.833   0.358  1.6725  1.4408  0.7561
   40SOL    HW2  159   1.185   1.980   0.390 -0.2641 -2.1094  2.2475
   40SOL     MW  160   1.188   1.913   0.334  0.1330  0.0195  0.2847
   41SOL     OW  161   0.590   0.544   1.638 -0.2630 -0.5855 -0.4136
   41SOL    HW1  162   0.674   0.594   1.635 -1.4319  0.7718  1.2475
   41SOL    HW2  163   0.582   0.499   1.725 -1.6907  0.8607  2.3853
   41SOL     MW  164   0.600   0.544   1.649 -0.6056 -0.2156  0.1749
   42SOL     OW  165   1.262   3.002   2.006  0.5688 -0.1284  0.4023
   42SOL    HW1  166   1.171   3.012   2.028  2.2715  0.5958  0.0568
   42SOL    HW2  167   1.295   2.921   2.046  1.7049 -2.1266 -1.0311
   42SOL     MW  168   1.255   2.993   2.014  0.9434 -0.2965  0.1676
   43SOL     OW  169   1.516   0.128   1.717  0.2888 -0.3075 -0.5288
   43SOL    HW1  170   1.559   0.099   1.633  1.4906 -2.0873 -0.8661
   43SOL    HW2  171   1.427   0.089   1.710 -1.0495  1.3504  1.5869
   43SOL     MW  172   1.510   0.119   1.705  0.2708 -0.3236 -0.2942
   44SOL     OW  173   1.084   0.799   1.038  0.6972 -0.0044 -0.0128
   44SOL    HW1  174   1.130   0.881   1.032 -0.3893  0.5042  2.3247
   44SOL    HW2  175   1.109   0.759   1.120  0.0495  1.8567 -0.2787
   44SOL     MW  176   1.093   0.804   1.048  0.4684  0.3083  0.2605
   45SOL     OW  177   1.217   0.756   0.645  0.2276  0.0707 -0.2265
   45SOL    HW1  178   1.175   0.840   0.653 -2.3472  0.0172 -2.7126
   45SOL    HW2  179   1.150   0.689   0.606 -0.7502 -0.7543 -2.2615
   45SOL     MW  180   1.203   0.759   0.641 -0.2411 -0.0452 -0.8230
   46SOL     OW  181   0.555   1.171   0.606 -0.3198 -0.5582 -0.4105
   46SOL    HW1  182   0.526   1.178   0.513 -0.4412 -0.8399 -0.9008
   46SOL    HW2  183   0.639   1.131   0.606 -0.4044 -3.5102  2.3600
   46SOL     MW  184   0.562   1.167   0.594 -0.3470 -0.9848 -0.1096
   47SOL     OW  185   0.207   2.049   1.995  0.3875  0.5904  0.0490
   47SOL    HW1  186   0.272   1.980   1.980  0.6977 -0.4467 -1.3512
   47SOL    HW2  187   0.183   2.047   2.084  0.7132  2.2158 -1.9501
   47SOL     MW  188   0.213   2.039   2.005  0.4714  0.6680 -0.3995
   48SOL     OW  189   1.066   0.482   1.038 -0.5674 -0.2338  0.8142
   48SOL    HW1  190   0.986   0.432   1.022  1.9196  0.8147 -1.8875
   48SOL    HW2  191   1.045   0.570   1.026 -1.5489  0.7863  1.0342
   48SOL     MW  192   1.052   0.487   1.034 -0.3688  0.0391  0.4867
   49SOL     OW  193   1.755   0.708   1.523 -1.0137 -0.1138  0.3142
   49SOL    HW1  194   1.717   0.664   1.599 -1.2495 -0.9403  1.8348
   49SOL    HW2  195   1.837   0.660   1.502 -1.9853  1.7734 -0.5228
   49SOL     MW  196   1.761   0.696   1.531 -1.1730  0.0261  0.4044
   50SOL     OW  197   1.323   1.073   0.510  0.3438 -0.0097  0.2687
   50SOL    HW1  198   1.277   1.117   0.580  1.3065  0.2810  1.5026
   50SOL    HW2  199   1.398   1.025   0.547  0.5738 -0.7436 -2.3686
   50SOL     MW  200   1.327   1.072   0.524  0.5011 -0.0681  0.0835
   51SOL     OW  201   0.334   2.918   0.910  0.1091 -0.1335 -0.6575
   51SOL    HW1  202   0.419   2.872   0.918  1.8726  1.8842  1.8765
   51SOL    HW2  203   0.332   2.957   0.998  1.2726 -2.0401  3.1951
   51SOL     MW  204   0.345   2.917   0.923  0.4953 -0.1188  0.1851
   52SOL     OW  205   0.778   1.731   0.417  0.1218 -0.4220 -0.0854
   52SOL    HW1  206   0.728   1.793   0.360 -1.5638 -0.3945 -1.1527
   52SOL    HW2  207   0.775   1.651   0.365  2.6636  1.7036 -2.2432
   52SOL     MW  208   0.771   1.729   0.402  0.2348 -0.1379 -0.5110
   53SOL     OW  209   0.439   2.088   0.517  0.0908  0.3111 -1.3733
   53SOL    HW1  210   0.377   2.085   0.445 -1.3563 -0.3565 -0.9349
   53SOL    HW2  211   0.438   2.180   0.551 -0.5723  1.6237  3.5762
   53SOL     MW  212   0.431   2.100   0.512 -0.1876  0.3962 -0.6624
   54SOL     OW  213   1.997   0.940   0.788 -0.0622  0.3086  0.0914
   54SOL    HW1  214   2.071   0.964   0.728  0.2875 -0.0757 -1.3602
   54SOL    HW2  215   1.986   0.845   0.785 -1.0433  0.3295 -0.5800
   54SOL     MW  216   2.006   0.930   0.779 -0.1455  0.2606 -0.1887
   55SOL     OW  217   0.534   1.548   1.614  0.4336  0.1399  0.0078
   55SOL    HW1  218   0.499   1.585   1.535 -0.7531 -0.3057  0.4037
   55SOL    HW2  219   0.607   1.495   1.593 -0.9926 -0.5669 -1.2301
   55SOL     MW  220   0.539   1.546   1.601  0.0888 -0.0121 -0.1033
   56SOL     OW  221   0.613   0.820   0.190 -0.0604  0.1887 -0.2556
   56SOL    HW1  222   0.663   0.901   0.178 -0.2907 -0.6128  1.6428
   56SOL    HW2  223   0.549   0.826   0.119  0.7781 -0.8182  1.0203
   56SOL     MW  224   0.611   0.832   0.179  0.0198 -0.0499  0.1632
   57SOL     OW  225   1.156   1.263   1.174  0.4458 -0.4959  0.1127
   57SOL    HW1  226   1.250   1.251   1.188 -1.2744 -1.3245 -0.9749
   57SOL    HW2  227   1.130   1.255   1.265 -1.9015  0.4343  2.5621
   57SOL     MW  228   1.165   1.260   1.188 -0.0908 -0.4825  0.2924
   58SOL     OW  229   0.546   1.212   1.352 -0.6385  0.8939 -0.0177
   58SOL    HW1  230   0.557   1.304   1.338 -3.2461  2.2960 -2.1583
   58SOL    HW2  231   0.543   1.192   1.444 -3.8357 -0.5300 -0.9506
   58SOL     MW  232   0.547   1.221   1.362 -1.4044  0.8911 -0.4232
   59SOL     OW  233   1.545   1.698   0.357  0.1022 -0.3327 -0.0924
   59SOL    HW1  234   1.582   1.757   0.423 -2.9571  0.9522 -1.6157
   59SOL    HW2  235   1.458   1.680   0.396 -2.0298 -1.6983  1.6622
   59SOL     MW  236   1.538   1.703   0.371 -0.5828 -0.3434 -0.0619
   60SOL     OW  237   0.018   0.221   1.628  0.2285  0.1950  0.4602
   60SOL    HW1  238  -0.056   0.271   1.661 -2.5645  2.7988  1.9632
   60SOL    HW2  239   0.019   0.151   1.695 -0.0331 -2.6175  0.4473
   60SOL     MW  240   0.008   0.218   1.641 -0.1745  0.1675  0.6568
   61SOL     OW  241   2.035   1.455   3.068  0.9835 -0.9611 -0.3447
   61SOL    HW1  242   2.045   1.445   3.166 -3.0104 -0.9039  0.6522
   61SOL    HW2  243   2.114   1.414   3.026  0.3632 -1.0907 -1.7507
   61SOL     MW  244   2.047   1.448   3.075  0.3747 -0.9707 -0.3987
   62SOL     OW  245   0.577   1.702   0.609  0.1811 -0.1843 -0.1913
   62SOL    HW1  246   0.655   1.720   0.554 -2.5769  3.1663 -1.0342
   62SOL    HW2  247   0.572   1.613   0.609 -0.7158  3.3169  2.0514
   62SOL     MW  248   0.587   1.692   0.602 -0.3012  0.7197 -0.0066
   63SOL     OW  249   1.695   0.690   0.710 -0.0254  0.3716  0.0601
   63SOL    HW1  250   1.706   0.781   0.685 -1.3912 -1.1363  0.0478
   63SOL    HW2  251   1.605   0.682   0.746  0.0654 -0.0822  0.9795
   63SOL     MW  252   1.685   0.701   0.712 -0.1936  0.1128  0.1798
   64SOL     OW  253   0.223   1.712   0.829  0.2627 -0.0268 -0.3747
   64SOL    HW1  254   0.258   1.767   0.765  0.0184 -0.0385  0.4291
   64SOL    HW2  255   0.130   1.737   0.826 -1.3821  1.2392  2.4923
   64SOL     MW  256   0.215   1.723   0.820  0.0134  0.1387  0.1096
   65SOL     OW  257   1.586   2.308   0.384 -0.0469  0.1240  0.6676
   65SOL    HW1  258   1.657   2.252   0.404  0.5177 -0.1585  0.4942
   65SOL    HW2  259   1.539   2.330   0.467  1.6273  1.2200  0.4647
   65SOL     MW  260   1.589   2.303   0.398  0.2485  0.2314  0.6180
   66SOL     OW  261   0.293   0.522   0.544 -0.3693  0.3587  0.1069
   66SOL    HW1  262   0.362   0.490   0.476 -0.3086 -1.7460 -2.0471
   66SOL    HW2  263   0.264   0.608   0.511  1.2469 -0.8629  2.5178
   66SOL     MW  264   0.299   0.529   0.531 -0.1480 -0.0802  0.1408
   67SOL     OW  265   1.500   0.075   2.022 -0.2006 -0.0094 -0.6301
   67SOL    HW1  266   1.533   0.090   1.936 -1.3542 -0.5647 -0.6019
   67SOL    HW2  267   1.466  -0.014   2.014 -3.3352 -1.8684  0.2010
   67SOL     MW  268   1.500   0.065   2.010 -0.7664 -0.3280 -0.5167
   68SOL     OW  269   0.707   0.037   2.952 -0.0511 -0.0126  0.7879
   68SOL    HW1  270   0.734   0.111   2.892 -0.1454  2.0251  3.4905
   68SOL    HW2  271   0.753   0.051   3.038  0.3978  2.5373  0.2342
   68SOL     MW  272   0.717   0.048   2.955 -0.0043  0.5927  1.0714
   69SOL     OW  273   1.056   0.208   1.952 -0.2066 -0.5460 -0.4056
   69SOL    HW1  274   1.141   0.239   1.988 -1.2770  3.3008 -2.6289
   69SOL    HW2  275   1.049   0.117   1.980 -0.6578 -1.9301  2.3884
   69SOL     MW  276   1.066   0.200   1.961 -0.4074 -0.2211 -0.3303
   70SOL     OW  277   0.577   1.731   1.147  0.1350  0.1497  0.5183
   70SOL    HW1  278   0.637   1.690   1.210 -2.3459 -3.4369 -1.2992
   70SOL    HW2  279   0.637   1.769   1.083  2.0714 -0.2782 -0.1596
   70SOL     MW  280   0.593   1.730   1.147  0.0632 -0.3800  0.1891
   71SOL     OW  281   1.600   0.475   1.246  0.2973 -0.2820 -0.0641
   71SOL    HW1  282   1.544   0.548   1.278 -2.3420 -0.7046  0.5257
   71SOL    HW2  283   1.612   0.487   1.151 -1.6608 -0.2227 -0.3708
   71SOL     MW  284   1.594   0.486   1.238 -0.3093 -0.3299 -0.0267
   72SOL     OW  285   0.778   1.863   0.995  0.1578 -0.5093 -0.0508
   72SOL    HW1  286   0.775   1.933   0.925  0.6546 -0.9079  1.7641
   72SOL    HW2  287   0.791   1.775   0.950 -1.2759 -2.5404  0.9788
   72SOL     MW  288   0.780   1.861   0.980  0.0342 -0.8299  0.3245
   73SOL     OW  289   1.175   0.701   1.271  0.4496  0.4345 -0.0015
   73SOL    HW1  290   1.134   0.630   1.319  2.2494 -0.6593 -0.3770
   73SOL    HW2  291   1.135   0.782   1.317  0.9079  1.4113  1.5087
   73SOL     MW  292   1.164   0.702   1.283  0.7475  0.4190  0.1482
   74SOL     OW  293   2.725   0.196   1.017  0.3555  0.2266  0.7316
   74SOL    HW1  294   2.795   0.182   0.950  0.6467  1.1524 -0.2374
   74SOL    HW2  295   2.689   0.280   0.988  1.1570  1.5474 -0.2400
   74SOL     MW  296   2.729   0.205   1.004  0.4997  0.5230  0.4755
   75SOL     OW  297   1.565   1.434   0.144 -0.7290  0.2280  0.0720
   75SOL    HW1  298   1.637   1.494   0.157 -0.2906 -0.5802  1.1013
   75SOL    HW2  299   1.591   1.373   0.219 -2.5888 -0.8006 -0.8909
   75SOL     MW  300   1.578   1.434   0.156 -0.9166 -0.0143  0.0808
   76SOL     OW  301   2.938   0.555   0.466  0.0013 -0.4092  0.3522
   76SOL    HW1  302   2.982   0.597   0.544  0.0946 -1.2755  0.6341
   76SOL    HW2  303   3.012   0.521   0.413 -2.0320  0.4097 -0.0984
   76SOL     MW  304   2.954   0.556   0.469 -0.2547 -0.4154  0.3299
   77SOL     OW  305   0.821   0.559   0.475 -0.0289  0.7860  0.3631
   77SOL    HW1  306   0.799   0.581   0.384  1.0245  0.6829  1.0203
   77SOL    HW2  307   0.793   0.466   0.485 -0.9618 -1.3876 -0.5929
   77SOL     MW  308   0.815   0.549   0.465 -0.0130  0.4856  0.3237
   78SOL     OW  309   0.759   0.912   1.261 -0.1440 -0.3125 -0.4152
   78SOL    HW1  310   0.819   0.965   1.203  3.0630  2.3483  0.1950
   78SOL    HW2  311   0.685   0.887   1.202  0.2855  1.1063 -1.1284
   78SOL     MW  312   0.757   0.916   1.246  0.3358  0.2258 -0.4288
   79SOL     OW  313   1.952   1.680   0.591 -0.2690 -0.1484  0.6523
   79SOL    HW1  314   1.890   1.616   0.555  0.7910 -2.3037 -2.6219
   79SOL    HW2  315   1.954   1.650   0.686 -0.7284 -1.9223  1.4849
   79SOL     MW  316   1.944   1.668   0.599 -0.1898 -0.6668  0.3301
   80SOL     OW  317   0.086   0.972   0.321  0.0203 -0.4002  0.0048
   80SOL    HW1  318   0.006   0.938   0.348 -0.0425 -2.5303  0.2738
   80SOL    HW2  319   0.149   0.906   0.348  0.7895 -1.3382 -1.6777
   80SOL     MW  320   0.084   0.958   0.328  0.1135 -0.8050 -0.1817
   81SOL     OW  321   1.913   1.889   0.338 -0.2929  0.0088 -0.1660
   81SOL    HW1  322   1.876   1.804   0.356  1.0694 -1.2425 -3.3544
   81SOL    HW2  323   1.848   1.945   0.297  2.7894  0.2031 -1.2264
   81SOL     MW  324   1.900   1.885   0.335  0.2935 -0.1306 -0.7266
   82SOL     OW  325   0.785   1.008   0.559  0.5622 -0.3456  0.2546
   82SOL    HW1  326   0.801   1.037   0.465 -0.5238  0.3388 -2.8004
   82SOL    HW2  327   0.756   0.918   0.558  0.1574  1.0558 -0.3339
   82SOL     MW  328   0.783   1.000   0.546  0.3655 -0.0704 -0.2261
   83SOL     OW  329   0.074   0.663   1.438 -0.0816  0.6027 -0.2434
   83SOL    HW1  330   0.110   0.739   1.387 -2.6717  1.5493 -0.3169
   83SOL    HW2  331   0.151   0.605   1.444  0.2262  1.2100  0.2163
   83SOL     MW  332   0.089   0.666   1.432 -0.3827  0.8077 -0.1924
   84SOL     OW  333   0.137   0.215   1.027 -0.4682 -0.5270  0.3474
   84SOL    HW1  334   0.056   0.258   1.006  0.5988  0.7188 -0.8813
   84SOL    HW2  335   0.108   0.132   1.065 -1.4577 -0.1442 -2.8862
   84SOL     MW  336   0.123   0.210   1.029 -0.4580 -0.3121 -0.2414
   85SOL     OW  337   0.475   0.434   0.781 -0.3134  0.3220 -0.3901
   85SOL    HW1  338   0.433   0.472   0.711 -0.0957 -0.8024  0.3953
   85SOL    HW2  339   0.435   0.348   0.800  0.9800  1.9967 -0.4569
   85SOL     MW  340   0.464   0.428   0.774 -0.1140  0.3946 -0.2953
   86SOL     OW  341   1.179   0.247   1.121  0.1024  0.0713 -0.4488
   86SOL    HW1  342   1.129   0.321   1.099 -1.4588 -3.5246 -0.1638
   86SOL    HW2  343   1.241   0.273   1.189 -1.7728 -0.9138  1.7688
   86SOL     MW  344   1.181   0.260   1.127 -0.3510 -0.5331 -0.1186
   87SOL     OW  345   1.261   1.519   1.303 -0.5255  0.8086  0.0008
   87SOL    HW1  346   1.267   1.557   1.215  1.0351  0.4799  1.1826
   87SOL    HW2  347   1.244   1.423   1.286 -0.1353  0.1503  0.1379
   87SOL     MW  348   1.259   1.512   1.289 -0.2681  0.6784  0.1748
   88SOL     OW  349   1.191   1.073   0.964 -0.3033  0.0872 -0.2400
   88SOL    HW1  350   1.282   1.056   0.954 -1.3428 -0.4988 -0.9281
   88SOL    HW2  351   1.189   1.150   1.026  4.0492  0.9034  2.0306
   88SOL     MW  352   1.203   1.081   0.971  0.1338  0.1176 -0.0312
   89SOL     OW  353   1.706   0.733   0.360  0.2254 -0.0988 -0.2368
   89SOL    HW1  354   1.705   0.650   0.408  0.2738 -0.4752  1.6812
   89SOL    HW2  355   1.782   0.723   0.298 -0.3702  0.3936 -1.9917
   89SOL     MW  356   1.716   0.721   0.358  0.1532 -0.0835 -0.2153
   90SOL     OW  357   0.811   1.074   2.771  0.3830 -0.6076  0.8363
   90SOL    HW1  358   0.845   0.983   2.786  2.0389 -0.1374 -1.1295
   90SOL    HW2  359   0.815   1.136   2.845  0.7948  1.8962  2.5699
   90SOL     MW  360   0.816   1.070   2.783  0.6558 -0.2152  0.8057
   91SOL     OW  361   2.171   0.677   0.419 -0.7425  0.3810  0.0628
   91SOL    HW1  362   2.226   0.724   0.355  1.4301  0.9621 -0.3755
   91SOL    HW2  363   2.196   0.586   0.401 -0.1444 -1.5652  1.8374
   91SOL     MW  364   2.182   0.671   0.409 -0.3769  0.2009  0.2391
   92SOL     OW  365   1.739   0.925   0.562 -0.5911 -0.3323  0.4889
   92SOL    HW1  366   1.644   0.906   0.574  2.3850  0.0301 -0.3638
   92SOL    HW2  367   1.769   0.867   0.491  0.3172  1.2824  1.0630
   92SOL     MW  368   1.730   0.915   0.554 -0.0786 -0.0714  0.4522
   93SOL     OW  369   0.967   0.263   0.417  0.4965  0.2633  0.0750
   93SOL    HW1  370   0.875   0.279   0.439  1.1506 -1.4530  1.9867
   93SOL    HW2  371   0.979   0.276   0.320 -0.5905  0.1734 -1.1580
   93SOL     MW  372   0.956   0.267   0.407  0.4394  0.0250  0.1646
   94SOL     OW  373   1.841   1.382   1.657 -0.0096 -0.1431  1.1295
   94SOL    HW1  374   1.842   1.357   1.568  2.1544 -0.8122 -0.5839
   94SOL    HW2  375   1.809   1.311   1.717  2.3847  0.0879  1.5651
   94SOL     MW  376   1.837   1.369   1.653  0.5918 -0.2009  0.9609
   95SOL     OW  377   0.801   1.582   0.937 -0.0737  0.7315  0.2201
   95SOL    HW1  378   0.830   1.549   1.021 -1.2652 -0.9673  0.7195
   95SOL    HW2  379   0.712   1.546   0.928 -0.9177  0.2272  3.5526
   95SOL     MW  380   0.793   1.573   0.947 -0.3423  0.4408  0.7257
   96SOL     OW  381   1.217   1.877   1.680  0.2041 -0.1382  0.2381
   96SOL    HW1  382   1.150   1.856   1.743  0.2719 -1.2986 -2.3090
   96SOL    HW2  383   1.247   1.799   1.651 -2.1014  3.5293  4.7772
   96SOL     MW  384   1.212   1.864   1.685 -0.0911  0.1926  0.5010
   97SOL     OW  385   1.234   1.455   0.811 -0.5533  0.3883  0.9101
   97SOL    HW1  386   1.260   1.505   0.888 -1.2562 -1.4520  2.3841
   97SOL    HW2  387   1.141   1.487   0.786 -1.0870 -2.4283 -0.4757
   97SOL     MW  388   1.226   1.466   0.818 -0.7165 -0.2261  0.9218
   98SOL     OW  389   1.430   1.279   1.040  0.0350  0.0046  0.1309
   98SOL    HW1  390   1.498   1.313   1.104  1.1330  1.3347 -0.3385
   98SOL    HW2  391   1.466   1.288   0.953 -0.2974  4.5635 -0.1289
   98SOL     MW  392   1.444   1.285   1.037  0.1360  0.7816  0.0347
   99SOL     OW  393   1.346   0.340   1.312  0.5017 -0.3106 -0.9899
   99SOL    HW1  394   1.445   0.351   1.307  1.7070  0.4712 -2.2015
   99SOL    HW2  395   1.333   0.361   1.405  2.2956 -2.0737 -0.6827
   99SOL     MW  396   1.357   0.344   1.324  0.8974 -0.4401 -1.1092
  100SOL     OW  397   1.023   1.177   1.406  0.7442  0.0648 -0.9322
  100SOL    HW1  398   1.038   1.196   1.498 -0.6106  0.6915  0.8785
  100SOL    HW2  399   1.060   1.086   1.403  1.5536  0.7931  3.7459
  100SOL     MW  400   1.030   1.167   1.418  0.6722  0.2435 -0.0761
  101SOL     OW  401   0.494   1.136   0.341  0.2114  0.6999  0.4074
  101SOL    HW1  402   0.476   1.040   0.350 -0.1196 -0.0534 -2.9890
  101SOL    HW2  403   0.569   1.132   0.283  4.2558  0.0329  1.8360
  101SOL     MW  404   0.502   1.123   0.335  0.7014  0.5125  0.1477
  102SOL     OW  405   2.884   0.674   1.032 -0.3707 -0.3498 -0.2641
  102SOL    HW1  406   2.946   0.745   1.027 -1.2219 -0.0321  0.8087
  102SOL    HW2  407   2.833   0.683   1.115 -2.7739  1.5117  1.2613
  102SOL     MW  408   2.885   0.685   1.042 -0.8001 -0.0623  0.0787
  103SOL     OW  409   1.681   0.284   1.864 -0.1262 -0.0066  0.2526
  103SOL    HW1  410   1.626   0.231   1.800  0.6574  2.5072  1.4774
  103SOL    HW2  411   1.754   0.234   1.883 -2.4661  1.8757  1.8738
  103SOL     MW  412   1.683   0.270   1.858 -0.3315  0.5734  0.6281
  104SOL     OW  413   0.144   1.550   1.564 -0.0743 -0.8971  0.7871
  104SOL    HW1  414   0.150   1.458   1.591  0.8972  3.4799  1.1530
  104SOL    HW2  415   0.054   1.561   1.553 -1.5471  1.2198  3.5073
  104SOL     MW  416   0.133   1.540   1.566 -0.1405 -0.0403  1.1943
  105SOL     OW  417   0.067   1.227   0.426 -0.1533 -0.1352 -0.3454
  105SOL    HW1  418   0.110   1.146   0.415 -1.0447  3.9437  0.1323
  105SOL    HW2  419   0.131   1.282   0.466 -0.0607 -0.7752 -1.9264
  105SOL     MW  420   0.081   1.224   0.430 -0.2587  0.3185 -0.4910
  106SOL     OW  421   0.848   0.343   0.975  0.4070  0.2117  0.2986
  106SOL    HW1  422   0.787   0.407   0.937 -1.3480 -0.6999 -0.3633
  106SOL    HW2  423   0.898   0.310   0.898 -0.5909  0.0778 -0.6831
  106SOL     MW  424   0.846   0.347   0.960  0.0438  0.0737  0.0818
  107SOL     OW  425   0.801   2.189   2.952 -0.3938  0.1806 -0.0557
  107SOL    HW1  426   0.737   2.172   2.882 -0.3660 -1.2084 -0.1477
  107SOL    HW2  427   0.774   2.122   3.017 -0.4806  0.0639 -3.1874
  107SOL     MW  428   0.789   2.178   2.951 -0.4016 -0.0180 -0.4811
  108SOL     OW  429   1.341   1.590   1.638 -0.2049  0.2058  0.0153
  108SOL    HW1  430   1.266   1.577   1.572 -0.6815 -0.7308 -1.0479
  108SOL    HW2  431   1.412   1.543   1.601 -1.5332 -2.2526 -1.8823
  108SOL     MW  432   1.340   1.582   1.625 -0.4430 -0.2421 -0.3754
  109SOL     OW  433   1.961   0.754   0.222  0.3509  0.0521  0.9789
  109SOL    HW1  434   1.955   0.848   0.242  1.4610 -1.2102  0.9248
  109SOL    HW2  435   2.019   0.709   0.286  1.6472 -0.8431 -2.2021
  109SOL     MW  436   1.968   0.760   0.233  0.6684 -0.2326  0.5520
  110SOL     OW  437   0.349   1.869   0.638  0.6782 -0.8988  0.2631
  110SOL    HW1  438   0.427   1.813   0.621 -2.4065 -2.4355 -2.8502
  110SOL    HW2  439   0.372   1.947   0.586 -3.3037 -1.7905 -2.3628
  110SOL     MW  440   0.363   1.872   0.629 -0.2542 -1.2192 -0.4941
  111SOL     OW  441   0.845   0.895   1.520 -0.6520 -0.4715 -0.2045
  111SOL    HW1  442   0.802   0.889   1.432 -2.5592 -1.9953 -0.8251
  111SOL    HW2  443   0.841   0.815   1.570  4.2078  1.2268 -0.1611
  111SOL     MW  444   0.839   0.884   1.515 -0.2624 -0.4485 -0.2807
  112SOL     OW  445   1.315   1.116   1.616 -0.0590 -0.5529  0.5822
  112SOL    HW1  446   1.250   1.188   1.631  0.3461  0.3062  0.9229
  112SOL    HW2  447   1.263   1.033   1.609  0.0424  0.1109 -1.1979
  112SOL     MW  448   1.299   1.115   1.617  0.0078 -0.3519  0.3923
  113SOL     OW  449   1.279   3.102   1.737 -0.4569 -0.0542  0.2043
  113SOL    HW1  450   1.267   3.040   1.807  0.2565 -1.7517  1.2588
  113SOL    HW2  451   1.280   3.056   1.652 -1.1735 -2.8226 -0.1116
  113SOL     MW  452   1.277   3.088   1.735 -0.4574 -0.6435  0.3018
  114SOL     OW  453   0.300   2.866   1.927 -0.1247 -0.3554 -0.3656
  114SOL    HW1  454   0.389   2.892   1.963 -1.0713 -1.0942 -0.5042
  114SOL    HW2  455   0.303   2.892   1.834  0.0946  0.0221 -0.0549
  114SOL     MW  456   0.312   2.873   1.919 -0.2206 -0.4030 -0.3429
  115SOL     OW  457   0.504   0.854   1.125  0.2153  0.1544  0.5484
  115SOL    HW1  458   0.488   0.761   1.150 -2.2216 -0.2989  0.0395
  115SOL    HW2  459   0.478   0.908   1.205  1.5744  1.5046 -0.6058
  115SOL     MW  460   0.498   0.849   1.139  0.0731  0.2727  0.3289
  116SOL     OW  461   0.783   1.096   0.977  0.6610 -0.4529  0.1730
  116SOL    HW1  462   0.853   1.104   0.911 -1.7672 -0.3556  1.5963
  116SOL    HW2  463   0.814   1.147   1.051  0.1497  1.1791  3.0116
  116SOL     MW  464   0.796   1.104   0.978  0.2732 -0.2247  0.7353
  117SOL     OW  465   1.208   1.212   0.713 -0.5862 -0.1821  0.1469
  117SOL    HW1  466   1.215   1.158   0.794  0.8007  3.5390  0.0012
  117SOL    HW2  467   1.217   1.299   0.747 -1.4234  0.4387 -0.9964
  117SOL     MW  468   1.210   1.216   0.728 -0.5137  0.3908 -0.0232
  118SOL     OW  469   3.042   2.979   1.703  0.0252  0.2587 -0.2889
  118SOL    HW1  470   3.098   3.027   1.764  2.2788 -3.1067 -0.0313
  118SOL    HW2  471   2.958   3.034   1.707 -2.6053  1.7921 -2.0622
  118SOL     MW  472   3.038   2.993   1.711 -0.0245  0.0169 -0.4888
  119SOL     OW  473   0.475   1.477   1.261  0.0257 -0.2465 -0.5849
  119SOL    HW1  474   0.522   1.525   1.195  0.6995 -2.6631 -1.6754
  119SOL    HW2  475   0.384   1.470   1.236  0.4124 -2.1049 -2.5462
  119SOL     MW  476   0.469   1.483   1.249  0.1656 -0.8106 -0.9876
  120SOL     OW  477   0.270   0.715   0.969  0.2938  0.7393 -0.6672
  120SOL    HW1  478   0.264   0.643   1.033  0.6082  1.2308  1.5178
  120SOL    HW2  479   0.362   0.748   0.975  0.9217  1.7247  0.0789
  120SOL     MW  480   0.282   0.710   0.978  0.4181  0.9342 -0.2805
  121SOL     OW  481   1.729   1.121   1.757  0.3649 -0.2142  0.0634
  121SOL    HW1  482   1.634   1.101   1.781  0.2042  0.3524  0.8312
  121SOL    HW2  483   1.752   1.062   1.685 -3.6458  2.0961  0.2895
  121SOL     MW  484   1.720   1.111   1.751 -0.1855  0.1653  0.1945
  122SOL     OW  485   0.143   0.563   0.802  0.0978 -0.0908 -0.0268
  122SOL    HW1  486   0.189   0.501   0.744 -0.4646 -1.1593  0.4901
  122SOL    HW2  487   0.206   0.620   0.851  0.6095  0.4636 -0.2219
  122SOL     MW  488   0.157   0.562   0.801  0.0911 -0.1587  0.0157
  123SOL     OW  489   1.889   1.156   0.512  0.3289 -0.0809  0.0611
  123SOL    HW1  490   1.835   1.078   0.531 -1.3183 -0.0500 -0.4851
  123SOL    HW2  491   1.850   1.230   0.552  1.8319 -0.7924 -1.4228
  123SOL     MW  492   1.877   1.156   0.520  0.3099 -0.1707 -0.2068
  124SOL     OW  493   0.670   0.550   0.927 -0.1370  0.2263  0.3650
  124SOL    HW1  494   0.593   0.516   0.882 -0.1357 -0.6339  0.0313
  124SOL    HW2  495   0.686   0.646   0.908 -0.8818  2.2621  1.6024
  124SOL     MW  496   0.662   0.558   0.919 -0.2351  0.3814  0.4843
  125SOL     OW  497   0.643   1.792   1.754  0.1433  0.0460 -0.2663
  125SOL    HW1  498   0.574   1.733   1.722 -0.4261  1.0047  0.8301
  125SOL    HW2  499   0.622   1.882   1.727  0.4183 -4.5617 -1.1788
  125SOL     MW  500   0.631   1.796   1.746  0.1044 -0.4354 -0.2421
  126SOL     OW  501   2.070   1.579   1.956  0.4361  0.2167  0.0597
  126SOL    HW1  502   2.124   1.657   1.976  1.2557  0.0207  1.2624
  126SOL    HW2  503   2.116   1.505   1.993 -2.1014 -0.5462  1.1813
  126SOL     MW  504   2.083   1.580   1.964  0.2094  0.0902  0.3663
  127SOL     OW  505   0.628   0.795   1.810 -0.3742 -0.0631 -0.1667
  127SOL    HW1  506   0.695   0.740   1.845 -0.7955  0.0169 -1.3916
  127SOL    HW2  507   0.621   0.872   1.863 -0.6212 -1.2684 -0.9819
  127SOL     MW  508   0.636   0.798   1.821 -0.4624 -0.2116 -0.4359
  128SOL     OW  509   1.802   0.738   2.925 -0.5346 -0.3596 -0.1774
  128SOL    HW1  510   1.834   0.702   2.837 -0.3119  1.5929 -1.3019
  128SOL    HW2  511   1.797   0.833   2.904 -1.7582 -1.0428  1.9619
  128SOL     MW  512   1.806   0.746   2.911 -0.6667 -0.1922 -0.0435
  129SOL     OW  513   1.568   0.923   0.218  0.1214  0.1616 -0.2567
  129SOL    HW1  514   1.539   0.838   0.181 -3.0651  0.7552  0.0406
  129SOL    HW2  515   1.616   0.887   0.293 -0.6538  1.7291  0.0505
  129SOL     MW  516   1.570   0.907   0.223 -0.4013  0.4467 -0.1769
  130SOL     OW  517   0.743   1.359   0.312 -0.0948 -0.7229 -0.1146
  130SOL    HW1  518   0.764   1.356   0.411 -0.1146  0.4427 -0.7778
  130SOL    HW2  519   0.804   1.419   0.278  1.3867  0.3204  1.4265
  130SOL     MW  520   0.754   1.366   0.320  0.0981 -0.4315  0.0012
  131SOL     OW  521   3.043   0.822   0.027 -0.7436  0.3427 -0.0234
  131SOL    HW1  522   3.029   0.870  -0.052  1.6008  1.7920  0.3457
  131SOL    HW2  523   3.132   0.798   0.028 -1.1867 -0.5716 -0.0583
  131SOL     MW  524   3.053   0.825   0.016 -0.4927  0.4133  0.0207
  132SOL     OW  525   2.691   0.128   1.293 -0.2279 -0.3110  0.9262
  132SOL    HW1  526   2.719   0.140   1.193  0.2991 -2.2066 -1.6379
  132SOL    HW2  527   2.599   0.099   1.294 -2.3140  1.0442  1.8458
  132SOL     MW  528   2.683   0.126   1.280 -0.4336 -0.3823  0.7092
  133SOL     OW  529   1.052   0.147   1.696  0.1120  0.7036  0.6059
  133SOL    HW1  530   1.137   0.102   1.706 -1.6125 -1.8652 -1.2048
  133SOL    HW2  531   1.042   0.187   1.781  1.3843  0.5857 -1.2026
  133SOL     MW  532   1.062   0.146   1.708  0.0524  0.3491  0.1283
  134SOL     OW  533   1.405   2.534   1.422  0.2755 -0.2746 -0.3530
  134SOL    HW1  534   1.330   2.585   1.386 -0.3841  0.3096 -0.4030
  134SOL    HW2  535   1.417   2.545   1.516 -2.4365 -0.5208  0.2059
  134SOL     MW  536   1.397   2.542   1.430 -0.1693 -0.2300 -0.2859
  135SOL     OW  537   2.999   0.969   2.891 -0.4021 -0.2305  0.5400
  135SOL    HW1  538   3.082   1.001   2.922  0.9431  0.9352  2.9216
  135SOL    HW2  539   2.945   1.049   2.901  1.7053  0.7768  3.0746
  135SOL     MW  540   3.002   0.983   2.897  0.0534  0.0562  1.1887
  136SOL     OW  541   0.168   2.005   0.805 -0.0472  0.4371  0.0255
  136SOL    HW1  542   0.093   1.947   0.799  0.7105 -2.5993 -0.4210
  136SOL    HW2  543   0.227   1.974   0.732  1.0251 -0.9842 -0.9769
  136SOL     MW  544   0.166   1.993   0.794  0.1943 -0.1511 -0.1657
  137SOL     OW  545   0.730   2.044   0.526 -0.1756  0.2594 -0.0760
  137SOL    HW1  546   0.743   2.046   0.623  1.8434 -2.3042  2.3554
  137SOL    HW2  547   0.632   2.044   0.519 -1.2138 -0.1188 -3.0336
  137SOL     MW  548   0.719   2.044   0.538 -0.0462 -0.1288 -0.1455
  138SOL     OW  549   0.517   0.573   1.172  0.0839 -0.0179  0.2377
  138SOL    HW1  550   0.442   0.517   1.195  1.7786  0.5397  1.8671
  138SOL    HW2  551   0.546   0.543   1.085 -0.4926 -0.2079  0.7698
  138SOL     MW  552   0.511   0.561   1.163  0.2314  0.0306  0.5229
  139SOL     OW  553   2.790   0.636   1.288  0.8938 -0.1522 -0.4680
  139SOL    HW1  554   2.823   0.559   1.329  0.2879  1.4336 -0.3019
  139SOL    HW2  555   2.819   0.712   1.345  0.1075  0.5509  1.4632
  139SOL     MW  556   2.798   0.636   1.301  0.7101  0.1498 -0.1912
  140SOL     OW  557   0.914   0.421   2.068  0.4254  0.3303 -0.3542
  140SOL    HW1  558   0.959   0.337   2.050  0.0423  2.5965  2.4352
  140SOL    HW2  559   0.927   0.441   2.162  0.0901 -0.9165  1.1293
  140SOL     MW  560   0.922   0.413   2.078  0.3306  0.4648  0.2096
  141SOL     OW  561   1.045   0.673   1.760  0.1667 -0.2238  0.5642
  141SOL    HW1  562   1.079   0.587   1.736 -1.9995 -0.1445  0.2652
  141SOL    HW2  563   1.110   0.740   1.741 -0.2988  1.5637 -0.7328
  141SOL     MW  564   1.058   0.671   1.754 -0.1805  0.0225  0.3536
  142SOL     OW  565   0.927   1.177   0.722  0.3391 -0.3601  0.5370
  142SOL    HW1  566   0.922   1.094   0.673  1.1909  1.1856  1.1758
  142SOL    HW2  567   1.019   1.186   0.726 -0.3646  0.2389 -2.5316
  142SOL     MW  568   0.938   1.167   0.716  0.3587 -0.0771  0.2164
  143SOL     OW  569   1.850   0.759   1.062  0.3875 -0.0057 -0.5079
  143SOL    HW1  570   1.909   0.754   0.982 -2.5906  1.5200 -2.6861
  143SOL    HW2  571   1.765   0.721   1.036  0.5737 -0.8092 -0.4802
  143SOL     MW  572   1.847   0.754   1.048  0.0191  0.0896 -0.7916
  144SOL     OW  573   0.278   1.227   1.650  0.5778  0.9708  0.3545
  144SOL    HW1  574   0.368   1.197   1.644 -1.2864 -1.8702 -0.9405
  144SOL    HW2  575   0.255   1.239   1.743 -1.5834  0.8760 -0.4093
  144SOL     MW  576   0.287   1.224   1.662  0.0467  0.5834  0.0828
  145SOL     OW  577   0.223   0.489   1.161  0.0235 -0.1688  0.1778
  145SOL    HW1  578   0.256   0.421   1.224 -0.1025 -0.8534  2.8216
  145SOL    HW2  579   0.153   0.462   1.114  0.8434  1.7146 -1.3549
  145SOL     MW  580   0.218   0.477   1.163  0.1150 -0.0106  0.3244
  146SOL     OW  581   0.841   1.966   1.373  0.3844  0.2442  0.5276
  146SOL    HW1  582   0.873   1.974   1.285 -4.2515  1.1326  0.0780
  146SOL    HW2  583   0.745   1.984   1.369 -0.8986  1.1326  0.8792
  146SOL     MW  584   0.832   1.969   1.361 -0.3965  0.4786  0.5146
  147SOL     OW  585   0.436   0.456   2.985 -0.5955  0.0143  0.5199
  147SOL    HW1  586   0.350   0.437   3.025 -2.3925 -1.9350 -1.9209
  147SOL    HW2  587   0.421   0.529   2.927  1.0616 -1.4123  1.6600
  147SOL     MW  588   0.422   0.463   2.983 -0.6139 -0.4311  0.3483
  148SOL     OW  589   0.138   0.890   1.298 -0.1310  0.8869  0.4831
  148SOL    HW1  590   0.239   0.903   1.311 -1.1098 -0.1156 -1.2300
  148SOL    HW2  591   0.109   0.965   1.355 -1.9703 -1.7763  0.8017
  148SOL     MW  592   0.148   0.902   1.307 -0.5028  0.4032  0.2991
  149SOL     OW  593   1.373   1.186   1.356  0.5959 -0.2272  0.0036
  149SOL    HW1  594   1.351   1.157   1.447  3.2440 -0.5193  1.0945
  149SOL    HW2  595   1.458   1.234   1.361  0.2369 -0.2922 -1.0866
  149SOL     MW  596   1.381   1.189   1.368  0.8979 -0.2743  0.0037
  150SOL     OW  597   1.784   1.345   0.755 -0.4772  0.5771  0.1080
  150SOL    HW1  598   1.837   1.289   0.810 -1.3669  1.6971 -1.5462
  150SOL    HW2  599   1.796   1.432   0.797 -0.2084 -1.3971  1.7056
  150SOL     MW  600   1.793   1.349   0.768 -0.5591  0.4644  0.1005
  151SOL     OW  601   1.646   1.769   0.804  0.2365  0.1458  0.2820
  151SOL    HW1  602   1.632   1.806   0.720 -1.1935  0.0052  3.7854
  151SOL    HW2  603   1.575   1.709   0.836 -1.2042 -0.4984  0.9206
  151SOL     MW  604   1.635   1.766   0.797 -0.1423  0.0423  0.8285
  152SOL     OW  605   0.767   1.388   1.515  0.1659  0.4639  0.4098
  152SOL    HW1  606   0.807   1.302   1.529  2.1435  1.9399 -1.9281
  152SOL    HW2  607   0.842   1.447   1.523 -2.4602  0.1746  2.5376
  152SOL     MW  608   0.782   1.385   1.518  0.0803  0.6205  0.3821
  153SOL     OW  609   2.607   1.205   0.801 -0.1809  0.0275  0.1543
  153SOL    HW1  610   2.676   1.170   0.733 -0.8785  0.1689 -2.1196
  153SOL    HW2  611   2.553   1.130   0.803  0.8584 -2.4510 -0.2752
  153SOL     MW  612   2.609   1.191   0.792 -0.1358 -0.2809 -0.2024
  154SOL     OW  613   0.212   1.790   1.711 -0.3971  0.1152 -0.1065
  154SOL    HW1  614   0.173   1.705   1.673  1.3499 -2.6847 -1.3894
  154SOL    HW2  615   0.261   1.758   1.789 -5.0522 -0.1387  4.2141
  154SOL     MW  616   0.213   1.774   1.716 -0.7808 -0.2877  0.2943
  155SOL     OW  617   1.204   0.694   0.218 -0.0643 -0.8277  0.2238
  155SOL    HW1  618   1.186   0.643   0.302 -3.9544  3.0911  0.8176
  155SOL    HW2  619   1.190   0.784   0.248  0.3123  0.5231  0.9494
  155SOL     MW  620   1.200   0.699   0.233 -0.5279 -0.1324  0.3979
  156SOL     OW  621   1.485   3.042   1.110  0.0536  0.0865 -0.3001
  156SOL    HW1  622   1.577   3.066   1.099  0.8031  1.9197 -0.0396
  156SOL    HW2  623   1.498   2.949   1.124 -0.0212 -1.0718  1.8711
  156SOL     MW  624   1.499   3.033   1.110  0.1426  0.1756  0.0207
  157SOL     OW  625   1.465   1.190   0.112  0.1418 -0.0597 -0.7545
  157SOL    HW1  626   1.526   1.122   0.158  3.1472 -1.9373  1.3206
  157SOL    HW2  627   1.525   1.263   0.092 -0.3992 -0.8233  1.1827
  157SOL     MW  628   1.481   1.191   0.115  0.4669 -0.4082 -0.2251
  158SOL     OW  629   0.511   1.649   2.218 -0.9223 -0.0473  0.0902
  158SOL    HW1  630   0.509   1.725   2.162  1.1675  0.1041  2.9127
  158SOL    HW2  631   0.433   1.657   2.272  0.7790 -2.9574 -2.7186
  158SOL     MW  632   0.500   1.660   2.218 -0.4221 -0.4113  0.0920
  159SOL     OW  633   1.273   1.652   0.443 -0.0144  0.3492  0.5970
  159SOL    HW1  634   1.235   1.582   0.385 -0.9165 -0.9904  1.5879
  159SOL    HW2  635   1.193   1.672   0.499  0.7715  0.5016 -0.8382
  159SOL     MW  636   1.257   1.645   0.443 -0.0298  0.1925  0.5384
  160SOL     OW  637   0.537   1.133   1.639 -0.3357 -0.5136  0.0255
  160SOL    HW1  638   0.511   1.041   1.640  2.0080  0.0813 -2.0529
  160SOL    HW2  639   0.631   1.134   1.670 -0.3364 -0.7505  1.0542
  160SOL     MW  640   0.546   1.121   1.643 -0.0266 -0.4664 -0.1130
  161SOL     OW  641   0.517   2.290   2.565 -0.2564  0.0190  0.0401
  161SOL    HW1  642   0.428   2.308   2.585  1.7998  1.8491 -1.1146
  161SOL    HW2  643   0.514   2.217   2.506 -2.6019 -0.3599  0.0056
  161SOL     MW  644   0.504   2.283   2.560 -0.2946  0.2104 -0.1168
  162SOL     OW  645   1.091   1.788   1.891  0.1619 -0.6001  0.1724
  162SOL    HW1  646   1.119   1.854   1.955  2.7228 -1.1404 -1.6993
  162SOL    HW2  647   1.007   1.750   1.914  0.1206  1.6629 -2.9336
  162SOL     MW  648   1.084   1.792   1.902  0.4944 -0.3728 -0.4844
  163SOL     OW  649   2.090   3.092   0.907  0.1395 -0.3640 -0.0720
  163SOL    HW1  650   2.066   3.160   0.836 -0.3130 -0.9699 -1.9087
  163SOL    HW2  651   2.073   3.008   0.862 -1.7382 -0.5982 -2.2210
  163SOL     MW  652   2.085   3.090   0.892 -0.1680 -0.4748 -0.5979
  164SOL     OW  653   0.324   0.206   0.804  0.1722 -0.1564 -0.8462
  164SOL    HW1  654   0.266   0.212   0.880 -0.6991  0.0347  0.5674
  164SOL    HW2  655   0.307   0.128   0.758 -1.2314 -0.8301 -1.8141
  164SOL     MW  656   0.314   0.197   0.808 -0.1280 -0.2201 -0.7874
  165SOL     OW  657   1.362   1.279   0.356 -0.0086  0.6210  0.1484
  165SOL    HW1  658   1.326   1.207   0.404  0.3665  1.9321 -0.7827
  165SOL    HW2  659   1.396   1.263   0.266  1.0369  1.5448 -1.0139
  165SOL     MW  660   1.362   1.268   0.350  0.1788  0.9159 -0.1278
  166SOL     OW  661   0.528   1.207   1.005 -0.5960  0.1916  0.0085
  166SOL    HW1  662   0.516   1.178   1.093  0.2330 -1.8953  1.5573
  166SOL    HW2  663   0.622   1.187   0.975  1.6275  4.1124 -1.9990
  166SOL     MW  664   0.539   1.201   1.013 -0.1932  0.4336 -0.0520
  167SOL     OW  665   0.775   1.088   0.289 -0.0112  1.2893 -0.4918
  167SOL    HW1  666   0.780   1.192   0.284 -0.6829  2.1197  1.4593
  167SOL    HW2  667   0.861   1.076   0.238  2.2791  1.0911  0.1229
  167SOL     MW  668   0.787   1.100   0.282  0.2023  1.3727 -0.1533
  168SOL     OW  669   1.682   1.658   3.049 -0.2322 -0.5541 -0.2819
  168SOL    HW1  670   1.600   1.693   3.087  0.1311  3.2209 -0.2428
  168SOL    HW2  671   1.667   1.571   3.016  1.5685  2.5542  0.1170
  168SOL     MW  672   1.669   1.651   3.050  0.0533  0.3541 -0.2241
  169SOL     OW  673   0.413   0.972   1.339  0.4197  0.2519 -0.1872
  169SOL    HW1  674   0.448   0.945   1.424 -1.2588 -0.0357 -1.5948
  169SOL    HW2  675   0.438   1.064   1.323 -1.7599  1.1440 -0.2041
  169SOL     MW  676   0.421   0.980   1.348 -0.0893  0.3317 -0.3752
  170SOL     OW  677   1.058   1.534   1.534  0.8657  0.3457 -0.0510
  170SOL    HW1  678   1.001   1.616   1.531  0.1238  0.3123 -0.6926
  170SOL    HW2  679   1.108   1.540   1.457 -0.8418 -0.3922 -0.9706
  170SOL     MW  680   1.057   1.546   1.523  0.5425  0.2440 -0.2569
  171SOL     OW  681   0.507   1.445   0.654  0.3114 -0.2238 -0.5048
  171SOL    HW1  682   0.515   1.446   0.752  1.2010 -1.1319  1.2620
  171SOL    HW2  683   0.517   1.352   0.625 -1.9667 -3.0251 -0.5068
  171SOL     MW  684   0.509   1.433   0.663  0.1282 -0.7132 -0.2720
  172SOL     OW  685   0.886   0.326   1.257 -0.4374 -0.4195  0.2799
  172SOL    HW1  686   0.858   0.330   1.166  2.6562 -0.7801 -0.1764
  172SOL    HW2  687   0.806   0.358   1.292 -0.8032 -4.0134 -0.9370
  172SOL     MW  688   0.871   0.331   1.249 -0.0775 -0.9413  0.0591
  173SOL     OW  689   0.443   1.688   0.368  0.4245 -0.0438 -0.3794
  173SOL    HW1  690   0.455   1.597   0.335 -0.2068 -0.3685 -0.2759
  173SOL    HW2  691   0.488   1.690   0.455 -2.6955  0.8574 -1.2160
  173SOL     MW  692   0.451   1.677   0.375 -0.0705  0.0323 -0.4761
  174SOL     OW  693   1.847   0.963   1.562  0.5865 -0.5281 -0.4812
  174SOL    HW1  694   1.803   0.874   1.561  0.4258 -2.9106 -1.3608
  174SOL    HW2  695   1.834   0.997   1.476 -0.5130  0.5698  2.1334
  174SOL     MW  696   1.840   0.955   1.550  0.4202 -0.6976 -0.2523
  175SOL     OW  697   0.501   1.453   0.227  0.4344  0.0678 -0.0344
  175SOL    HW1  698   0.434   1.390   0.216 -2.3425 -0.3938 -0.1158
  175SOL    HW2  699   0.572   1.412   0.273 -3.2706 -0.5160 -0.2644
  175SOL     MW  700   0.502   1.439   0.232 -0.4208 -0.0701 -0.0755
  176SOL     OW  701   0.213   1.502   1.174  0.4947 -0.2579 -0.0239
  176SOL    HW1  702   0.200   1.423   1.120 -1.6603 -0.5656 -1.4296
  176SOL    HW2  703   0.141   1.503   1.240  1.4299 -1.4489 -4.0098
  176SOL     MW  704   0.202   1.492   1.175  0.3338 -0.4557 -0.7353
  177SOL     OW  705   0.660   0.475   1.381  0.3404 -0.0533 -1.1329
  177SOL    HW1  706   0.652   0.549   1.326 -2.1028 -2.1276  0.0528
  177SOL    HW2  707   0.638   0.493   1.472  0.0147 -3.5705 -3.5837
  177SOL     MW  708   0.656   0.487   1.386 -0.0249 -0.7910 -1.2998
  178SOL     OW  709   3.054   0.575   2.953  0.1723  0.1693 -0.3411
  178SOL    HW1  710   2.977   0.619   2.992 -0.5682  0.1900  2.5633
  178SOL    HW2  711   3.018   0.539   2.874  0.7634  2.1937  0.8827
  178SOL     MW  712   3.039   0.576   2.948  0.1526  0.4391  0.2035
  179SOL     OW  713   1.587   1.337   1.307  0.0665  0.6478 -0.1151
  179SOL    HW1  714   1.567   1.399   1.378 -0.5380 -1.1181 -0.8243
  179SOL    HW2  715   1.676   1.311   1.316  0.8790  1.4689  0.7127
  179SOL     MW  716   1.596   1.341   1.318  0.0939  0.5231 -0.0995
  180SOL     OW  717   3.023   0.198   0.420 -0.1089  0.5889  0.1987
  180SOL    HW1  718   2.964   0.221   0.348  2.4072 -0.5267 -1.9372
  180SOL    HW2  719   3.091   0.268   0.423  1.0215  0.2787  3.0810
  180SOL     MW  720   3.024   0.210   0.411  0.3722  0.4008  0.2972
  181SOL     OW  721   1.120   1.327   3.100  0.3585  0.3476 -0.0124
  181SOL    HW1  722   1.174   1.411   3.100  0.2479 -1.2012  1.0538
  181SOL    HW2  723   1.174   1.266   3.055 -0.1184 -0.6332  0.4689
  181SOL     MW  724   1.134   1.330   3.094  0.2810  0.0139  0.1918
  182SOL     OW  725   0.477   0.846   1.583  0.1351 -0.0817 -0.3740
  182SOL    HW1  726   0.381   0.815   1.596  1.9605 -1.5703  0.8713
  182SOL    HW2  727   0.524   0.794   1.651 -1.9359  1.6742 -0.2698
  182SOL     MW  728   0.470   0.835   1.594  0.1027 -0.0464 -0.1960
  183SOL     OW  729   1.600   1.565   1.144  0.1676  0.3642  0.0528
  183SOL    HW1  730   1.546   1.633   1.186 -3.1534 -0.1279  0.0849
  183SOL    HW2  731   1.599   1.491   1.202  1.0972  1.9173 -0.5169
  183SOL     MW  732   1.593   1.564   1.157 -0.1480  0.5042 -0.0181
  184SOL     OW  733   0.838   0.656   1.960  0.0591  0.0601 -0.0182
  184SOL    HW1  734   0.922   0.672   1.909  1.0857 -0.6029  2.6688
  184SOL    HW2  735   0.853   0.565   1.993 -2.4294  0.0448 -0.8764
  184SOL     MW  736   0.851   0.646   1.958 -0.1338 -0.0294  0.2231
  185SOL     OW  737   1.190   0.965   1.931 -0.2504 -0.3645 -0.3651
  185SOL    HW1  738   1.189   0.875   1.975  0.7121  2.2296  0.2243
  185SOL    HW2  739   1.233   1.024   1.988 -0.0126 -0.3856 -2.4275
  185SOL     MW  740   1.196   0.961   1.944 -0.0920 -0.0250 -0.5595
  186SOL     OW  741   0.363   1.699   1.427 -0.2597 -0.2267 -0.2817
  186SOL    HW1  742   0.386   1.633   1.356  3.3820 -0.1640 -0.4204
  186SOL    HW2  743   0.285   1.671   1.480  1.2495 -0.5786  0.1661
  186SOL     MW  744   0.356   1.686   1.424  0.4199 -0.2648 -0.2409
  187SOL     OW  745   1.440   0.697   1.355 -0.6233  0.2779 -0.4348
  187SOL    HW1  746   1.410   0.707   1.443  0.9611  1.4535  0.3771
  187SOL    HW2  747   1.364   0.689   1.300  1.3186 -0.4274  0.4171
  187SOL     MW  748   1.426   0.697   1.359 -0.1581  0.3400 -0.2153
  188SOL     OW  749   1.895   1.148   0.931 -0.2069  0.0710 -0.6521
  188SOL    HW1  750   1.900   1.167   1.028  1.8460 -2.2606  0.1460
  188SOL    HW2  751   1.926   1.058   0.904 -0.2901  0.1567  0.6635
  188SOL     MW  752   1.900   1.139   0.940  0.0530 -0.2253 -0.3732
  189SOL     OW  753   0.654   0.835   0.837 -0.3284  0.3389  0.3931
  189SOL    HW1  754   0.566   0.871   0.863  0.9970 -1.1215 -0.6347
  189SOL    HW2  755   0.714   0.891   0.886  1.7976  0.8817  1.2661
  189SOL     MW  756   0.650   0.847   0.847  0.1270  0.2179  0.3727
  190SOL     OW  757   1.923   0.227   2.172  0.1485  0.2310  0.4335
  190SOL    HW1  758   1.943   0.241   2.266  1.1387  3.5398 -1.1249
  190SOL    HW2  759   1.967   0.303   2.122  0.2459  1.0753 -1.6479
  190SOL     MW  760   1.932   0.239   2.178  0.2920  0.7789 -0.0467
  191SOL     OW  761   1.473   0.958   1.229 -0.0319  0.3941 -0.0820
  191SOL    HW1  762   1.420   1.027   1.267  4.2207  0.0216  0.8945
  191SOL    HW2  763   1.466   0.882   1.287 -0.3459 -1.4292 -1.9701
  191SOL     MW  764   1.465   0.957   1.242  0.4878  0.1044 -0.2023
  192SOL     OW  765   0.606   2.117   2.766  0.2057 -0.4763  0.0030
  192SOL    HW1  766   0.591   2.192   2.703 -3.3855  1.8369 -2.5639
  192SOL    HW2  767   0.604   2.038   2.716 -0.2107 -0.5744  2.4907
  192SOL     MW  768   0.604   2.117   2.751 -0.3231 -0.1841 -0.0074
  193SOL     OW  769   0.987   1.543   0.728 -0.2870 -0.7028  0.0517
  193SOL    HW1  770   0.924   1.546   0.804  4.1077  1.2192  0.1293
  193SOL    HW2  771   0.947   1.477   0.662 -0.1567 -1.2807 -1.7915
  193SOL     MW  772   0.973   1.535   0.730  0.3100 -0.5255 -0.1813
  194SOL     OW  773   0.528   1.465   0.908  0.2639  0.5123  0.2565
  194SOL    HW1  774   0.518   1.371   0.934  1.2905 -0.4782 -0.0622
  194SOL    HW2  775   0.438   1.495   0.914 -1.1149  1.2058  0.8720
  194SOL     MW  776   0.515   1.457   0.913  0.2175  0.4731  0.2956
  195SOL     OW  777   1.318   1.164   2.991  0.0104  0.1500 -0.0016
  195SOL    HW1  778   1.371   1.158   3.069 -2.9013 -0.5312  1.9942
  195SOL    HW2  779   1.264   1.088   2.996  0.8708 -0.6227  1.6160
  195SOL     MW  780   1.318   1.153   3.002 -0.2602 -0.0418  0.4751
  196SOL     OW  781   2.194   1.033   0.615 -0.5047 -1.0386 -0.1089
  196SOL    HW1  782   2.161   0.989   0.538  0.5632  1.2581  2.3094
  196SOL    HW2  783   2.183   1.130   0.596 -2.6604  0.8637 -1.0277
  196SOL     MW  784   2.188   1.040   0.602 -0.6482 -0.4846  0.0890
  197SOL     OW  785   0.639   1.284   2.116  0.2046  0.8378  0.0060
  197SOL    HW1  786   0.654   1.202   2.058  0.0230 -0.4670  1.2819
  197SOL    HW2  787   0.588   1.353   2.066 -2.1340  1.6979  1.8466
  197SOL     MW  788   0.634   1.282   2.102 -0.1279  0.7791  0.4172
  198SOL     OW  789   2.934   1.391   1.081 -0.0736 -0.0600 -0.3911
  198SOL    HW1  790   2.879   1.461   1.043 -0.5832 -1.2480 -3.2504
  198SOL    HW2  791   2.875   1.320   1.080  1.3910  0.7549  0.7636
  198SOL     MW  792   2.919   1.391   1.076  0.0524 -0.1092 -0.6160
  199SOL     OW  793   0.499   1.418   1.881 -0.4888  0.3090  0.1680
  199SOL    HW1  794   0.433   1.351   1.886  2.0853 -4.4393  1.1745
  199SOL    HW2  795   0.551   1.393   1.809 -0.5661  0.5778 -1.3133
  199SOL     MW  796   0.497   1.406   1.872 -0.1594 -0.2821  0.1053
  200SOL     OW  797   1.899   2.952   1.334  0.2222 -0.8740  0.6138
  200SOL    HW1  798   1.902   2.943   1.239  1.2663  1.9788 -0.4233
  200SOL    HW2  799   1.847   3.031   1.339 -1.8882  0.4399 -2.5282
  200SOL     MW  800   1.892   2.962   1.322  0.0815 -0.3242  0.0624
  201SOL     OW  801   1.045   0.249   0.819  0.0076  0.5006 -0.4441
  201SOL    HW1  802   1.022   0.193   0.744 -1.7422 -0.6139  0.9502
  201SOL    HW2  803   1.133   0.261   0.799 -3.0092  3.2193  0.8885
  201SOL     MW  804   1.053   0.243   0.807 -0.6213  0.7123 -0.0843
  202SOL     OW  805   1.506   1.542   0.871  0.1253 -0.1952  0.4460
  202SOL    HW1  806   1.494   1.458   0.832  2.0884  0.2290 -1.8613
  202SOL    HW2  807   1.557   1.532   0.954  2.6885 -0.0987 -0.2472
  202SOL     MW  808   1.511   1.530   0.877  0.7225 -0.1265  0.0501
  203SOL     OW  809   3.033   0.412   1.322 -0.6297  0.3294  0.5749
  203SOL    HW1  810   3.100   0.334   1.334  1.7366 -1.9974 -1.3520
  203SOL    HW2  811   3.098   0.482   1.337  0.6285 -0.6761  1.0028
  203SOL     MW  812   3.051   0.411   1.326 -0.1515 -0.1103  0.3771
  204SOL     OW  813   1.040   1.746   0.560 -0.2115  0.2032 -0.0081
  204SOL    HW1  814   1.028   1.682   0.627  0.4000 -1.9429 -2.2258
  204SOL    HW2  815   0.953   1.761   0.521  0.1809  3.8533  1.0740
  204SOL     MW  816   1.027   1.739   0.564 -0.0790  0.4017 -0.1579
  205SOL     OW  817   1.387   0.019   1.365  0.0857  0.0910 -0.7357
  205SOL    HW1  818   1.410  -0.022   1.281 -1.0654 -2.0448 -0.0344
  205SOL    HW2  819   1.366   0.110   1.351 -2.3805  0.0245 -1.4799
  205SOL     MW  820   1.387   0.025   1.352 -0.3916 -0.1996 -0.7413
  206SOL     OW  821   0.429   3.005   1.434  0.6714  0.5972 -0.4880
  206SOL    HW1  822   0.403   3.033   1.340 -1.1805 -2.2393  0.0617
  206SOL    HW2  823   0.500   2.942   1.420 -0.4352 -1.6669  1.9820
  206SOL     MW  824   0.435   3.000   1.420  0.2810 -0.0757 -0.0896
  207SOL     OW  825   0.907   1.557   0.210  0.0188 -0.1053 -0.2291
  207SOL    HW1  826   0.937   1.648   0.222 -1.0372 -1.0054  3.6002
  207SOL    HW2  827   0.991   1.512   0.190 -1.2951 -0.0722  2.8288
  207SOL     MW  828   0.922   1.563   0.209 -0.2939 -0.2197  0.6796
  208SOL     OW  829   0.728   1.619   1.355  0.6317 -0.4798 -0.1335
  208SOL    HW1  830   0.774   1.682   1.410  1.1398 -2.0369  1.1096
  208SOL    HW2  831   0.724   1.532   1.392  0.7709 -2.2592 -0.4234
  208SOL     MW  832   0.734   1.615   1.367  0.7171 -0.9200 -0.0077
  209SOL     OW  833   1.554   0.481   2.977  0.3690 -0.4761 -0.7659
  209SOL    HW1  834   1.548   0.577   2.960 -1.2402 -1.0489  0.8694
  209SOL    HW2  835   1.617   0.439   2.913  2.1675 -2.3415 -1.1032
  209SOL     MW  836   1.562   0.488   2.967  0.3939 -0.7978 -0.5947
  210SOL     OW  837   1.524   1.282   0.775  0.0478 -0.2492  0.4786
  210SOL    HW1  838   1.619   1.297   0.763 -1.6912 -1.0467 -3.6804
  210SOL    HW2  839   1.482   1.314   0.691 -0.1789 -0.3284 -0.8955
  210SOL     MW  840   1.531   1.289   0.763 -0.2116 -0.3649 -0.2514
  211SOL     OW  841   1.716   0.272   0.937  0.3161 -0.9103  0.5795
  211SOL    HW1  842   1.692   0.331   0.863  2.4930 -0.2530  0.8746
  211SOL    HW2  843   1.805   0.291   0.973  0.3630 -0.0728  2.9086
  211SOL     MW  844   1.725   0.282   0.932  0.6095 -0.7131  0.9257
  212SOL     OW  845   0.296   1.019   0.152  0.1799  0.0763 -0.1978
  212SOL    HW1  846   0.224   0.988   0.204 -1.2801  1.3467  0.2845
  212SOL    HW2  847   0.335   0.940   0.114 -1.9799 -0.6793  2.7868
  212SOL     MW  848   0.292   1.004   0.154 -0.2977  0.1442  0.2596
  213SOL     OW  849   0.550   1.689   3.059  0.1181  0.2745 -0.5468
  213SOL    HW1  850   0.524   1.770   3.103 -0.3340  2.9793 -0.7435
  213SOL    HW2  851   0.590   1.731   2.982 -1.7673 -0.2348 -0.9918
  213SOL     MW  852   0.552   1.705   3.054 -0.1903  0.5641 -0.6315
  214SOL     OW  853   0.641   0.326   2.156  0.2665  0.3429 -0.3863
  214SOL    HW1  854   0.574   0.392   2.173  2.7223 -0.7049  0.1484
  214SOL    HW2  855   0.689   0.378   2.088 -2.0817  2.3631  0.4994
  214SOL     MW  856   0.639   0.342   2.149  0.2807  0.4712 -0.1989
  215SOL     OW  857   0.505   0.727   2.648 -0.3098  0.2579 -0.0796
  215SOL    HW1  858   0.532   0.710   2.550  3.1547  1.6499 -2.8954
  215SOL    HW2  859   0.428   0.669   2.669 -0.3553 -0.9481  2.3082
  215SOL     MW  860   0.498   0.717   2.638  0.1413  0.2824 -0.1361
  216SOL     OW  861   2.913   3.014   2.658 -0.0293  0.3575  0.9648
  216SOL    HW1  862   2.847   3.000   2.721 -1.6743 -0.6369 -1.9214
  216SOL    HW2  863   2.948   3.095   2.691  4.2905 -1.4120  3.1661
  216SOL     MW  864   2.909   3.023   2.671  0.3236 -0.0072  0.8744
  217SOL     OW  865   1.025   1.076   0.137  0.3420 -0.1374  0.1078
  217SOL    HW1  866   1.069   1.026   0.070  2.5336  0.6941 -1.8591
  217SOL    HW2  867   1.050   1.165   0.110  0.4343  0.9814  1.9394
  217SOL     MW  868   1.034   1.081   0.125  0.6434  0.1199  0.0900
  218SOL     OW  869   0.935   1.309   2.556 -0.6816  0.0136 -0.1874
  218SOL    HW1  870   0.970   1.225   2.571 -0.2996  0.9286 -3.2010
  218SOL    HW2  871   1.003   1.366   2.598 -0.5698 -1.5078  1.4770
  218SOL     MW  872   0.948   1.305   2.563 -0.6165 -0.0664 -0.3654
  219SOL     OW  873   1.137   0.389   2.652 -0.1592 -0.3773  0.2997
  219SOL    HW1  874   1.202   0.448   2.684  1.3933 -2.0935 -3.6045
  219SOL    HW2  875   1.071   0.441   2.603  0.6494 -3.3183 -1.9316
  219SOL     MW  876   1.137   0.404   2.650  0.1523 -0.9918 -0.5098
  220SOL     OW  877   1.773   0.464   2.210 -0.1579 -0.7221 -0.2244
  220SOL    HW1  878   1.695   0.478   2.152 -3.0354 -1.3833 -2.2121
  220SOL    HW2  879   1.804   0.377   2.191  0.1608  0.9716  1.1459
  220SOL     MW  880   1.767   0.454   2.200 -0.4955 -0.5858 -0.3058
  221SOL     OW  881   0.379   1.314   2.966 -0.1381 -0.0792 -0.4960
  221SOL    HW1  882   0.437   1.240   2.944 -0.1497 -0.0905  2.2606
  221SOL    HW2  883   0.391   1.364   2.887 -3.5580  0.1757 -0.4557
  221SOL     MW  884   0.388   1.311   2.953 -0.5908 -0.0470 -0.1270
  222SOL     OW  885   0.352   0.975   2.678  0.3941  0.4065  0.0391
  222SOL    HW1  886   0.301   1.002   2.598  3.4355  3.0445 -1.5268
  222SOL    HW2  887   0.412   0.902   2.665  0.2470 -1.5097  1.0258
  222SOL     MW  888   0.353   0.969   2.666  0.7760  0.5017 -0.0373
  223SOL     OW  889   0.041   2.021   2.518  0.8672  0.2316  0.1185
  223SOL    HW1  890   0.082   1.992   2.599  0.4240 -1.1489 -0.5088
  223SOL    HW2  891   0.058   2.117   2.515 -2.7050  1.2088  0.8099
  223SOL     MW  892   0.049   2.030   2.528  0.3374  0.1784  0.1270
  224SOL     OW  893   1.526   0.740   2.597  0.9511  0.3499  0.1671
  224SOL    HW1  894   1.549   0.789   2.676 -0.4220 -1.3444 -0.8620
  224SOL    HW2  895   1.498   0.807   2.539  2.0130 -0.4913 -2.4766
  224SOL     MW  896   1.526   0.755   2.600  0.9100  0.0153 -0.3175
  225SOL     OW  897   2.894   1.427   2.300 -0.2325  0.1845  0.6443
  225SOL    HW1  898   2.942   1.484   2.245  1.3641  3.2650  3.0108
  225SOL    HW2  899   2.830   1.482   2.346  0.2700 -0.5843 -0.0604
  225SOL     MW  900   2.892   1.442   2.299  0.0444  0.4895  0.8636
  226SOL     OW  901   0.457   1.508   2.721 -0.0700  0.1021  0.1117
  226SOL    HW1  902   0.535   1.468   2.682  1.5580  0.0203 -0.7211
  226SOL    HW2  903   0.471   1.601   2.690  0.4602  0.4479  0.8648
  226SOL     MW  904   0.469   1.515   2.712  0.2147  0.1370  0.1012
  227SOL     OW  905   0.547   1.119   2.833 -0.0508 -0.3530  0.0612
  227SOL    HW1  906   0.633   1.122   2.792 -0.9451 -0.3392 -0.0135
  227SOL    HW2  907   0.491   1.055   2.791  0.1943  2.2255 -1.1860
  227SOL     MW  908   0.551   1.111   2.822 -0.1364 -0.0110 -0.1133
  228SOL     OW  909   0.744   0.993   2.035 -0.3754  1.0951  0.1892
  228SOL    HW1  910   0.818   1.043   2.001  0.7227  1.6851  0.6325
  228SOL    HW2  911   0.784   0.924   2.091  0.7742 -0.4606 -1.0770
  228SOL     MW  912   0.759   0.991   2.038 -0.0788  0.9677  0.0806
  229SOL     OW  913   0.180   0.622   3.090  0.0840 -0.1120  0.2560
  229SOL    HW1  914   0.103   0.619   3.030  1.4970  1.0104  0.2287
  229SOL    HW2  915   0.188   0.537   3.138  0.6595  2.6080  2.6787
  229SOL     MW  916   0.171   0.611   3.089  0.3464  0.3949  0.5720
  230SOL     OW  917   1.676   1.307   2.017  0.1177 -0.1853 -0.6745
  230SOL    HW1  918   1.610   1.288   2.087  0.6400 -0.2091  1.1506
  230SOL    HW2  919   1.749   1.252   2.042 -1.5215 -1.7749 -0.9630
  230SOL     MW  920   1.677   1.297   2.030 -0.0297 -0.3981 -0.4717
  231SOL     OW  921   2.716   1.244   2.204 -0.0046 -0.6545 -0.8753
  231SOL    HW1  922   2.778   1.320   2.238  2.8069  4.9315 -0.7364
  231SOL    HW2  923   2.662   1.273   2.123 -2.4454  0.1939  0.8652
  231SOL     MW  924   2.717   1.258   2.198  0.0443  0.1944 -0.6273
  232SOL     OW  925   2.215   0.867   2.013 -0.1656  0.4135 -0.2981
  232SOL    HW1  926   2.141   0.855   1.951  0.3372  0.6047 -1.3023
  232SOL    HW2  927   2.173   0.878   2.102 -2.2010  1.2120  1.6187
  232SOL     MW  928   2.199   0.867   2.016 -0.3678  0.5441 -0.1777
  233SOL     OW  929   2.059   0.438   2.063  0.0861  0.2293  0.3254
  233SOL    HW1  930   2.149   0.408   2.033 -1.4708  1.6404 -1.4752
  233SOL    HW2  931   2.060   0.506   2.134 -2.2138  0.9290  0.1619
  233SOL     MW  932   2.071   0.443   2.068 -0.4228  0.5078  0.0662
  234SOL     OW  933   0.228   1.058   2.460  0.0102 -0.1109  0.8553
  234SOL    HW1  934   0.136   1.040   2.459  1.6316 -0.3218  1.3029
  234SOL    HW2  935   0.240   1.140   2.507  2.1786 -0.6253  0.8605
  234SOL     MW  936   0.217   1.067   2.466  0.5102 -0.2066  0.9150
  235SOL     OW  937   1.114   3.056   2.729  0.3342  0.1450  0.7569
  235SOL    HW1  938   1.143   3.014   2.809  0.5513  0.8165 -0.4022
  235SOL    HW2  939   1.067   3.132   2.762  0.0615 -0.9475  1.1809
  235SOL     MW  940   1.112   3.061   2.744  0.3269  0.0894  0.6599
  236SOL     OW  941   2.929   0.572   0.141 -0.2569  1.3300 -0.1578
  236SOL    HW1  942   2.852   0.627   0.149  0.2068  4.2976  1.0485
  236SOL    HW2  943   2.991   0.639   0.138 -1.5188  0.3436 -0.1327
  236SOL     MW  944   2.927   0.588   0.142 -0.3622  1.5914  0.0047
  237SOL     OW  945   2.004   1.114   2.172  0.2878  0.2315  0.1437
  237SOL    HW1  946   1.962   1.089   2.090  2.3512 -0.7751 -0.0085
  237SOL    HW2  947   2.058   1.031   2.195  1.5336 -0.7605  1.5695
  237SOL     MW  948   2.005   1.100   2.164  0.7244 -0.0322  0.3117
  238SOL     OW  949   1.077   1.827   2.953 -0.1195  0.0558 -0.7414
  238SOL    HW1  950   1.056   1.742   2.911  2.8200  0.7639 -0.5610
  238SOL    HW2  951   1.174   1.822   2.956 -1.9178 -1.2364 -0.4168
  238SOL     MW  952   1.087   1.815   2.948  0.0311 -0.0212 -0.6748
  239SOL     OW  953   1.299   1.394   2.371  0.4105  0.6321 -0.2880
  239SOL    HW1  954   1.313   1.441   2.454  0.1948  1.9032 -2.1981
  239SOL    HW2  955   1.278   1.305   2.392 -0.2404 -2.3848 -2.9252
  239SOL     MW  956   1.298   1.389   2.385  0.2962  0.4017 -0.8880
  240SOL     OW  957   0.674   0.864   2.321 -0.4199  0.3204  0.1526
  240SOL    HW1  958   0.715   0.930   2.375  2.8446  2.9641 -1.3028
  240SOL    HW2  959   0.754   0.817   2.301 -1.5479  1.2292 -1.5246
  240SOL     MW  960   0.690   0.866   2.325 -0.1380  0.7891 -0.2607
  241SOL     OW  961   0.676   0.400   0.015 -0.1301 -0.1111 -0.5152
  241SOL    HW1  962   0.689   0.465   0.085 -2.6984  0.2501 -1.7596
  241SOL    HW2  963   0.603   0.431  -0.036  3.2119  0.8239  0.1559
  241SOL     MW  964   0.668   0.412   0.018 -0.0280  0.0599 -0.5908
  242SOL     OW  965   1.502   1.720   2.327 -0.3145  0.1740 -0.1534
  242SOL    HW1  966   1.463   1.798   2.369  1.5070  0.7109  0.2915
  242SOL    HW2  967   1.443   1.679   2.258 -1.0287 -0.1778 -1.4487
  242SOL     MW  968   1.489   1.725   2.323 -0.1684  0.1984 -0.2656
  243SOL     OW  969   1.038   0.179   2.486  0.2447 -0.2160 -0.8118
  243SOL    HW1  970   1.107   0.170   2.421 -1.6922 -1.2820  0.2003
  243SOL    HW2  971   1.067   0.234   2.557 -0.8650 -1.1148  0.6341
  243SOL     MW  972   1.051   0.185   2.487 -0.1573 -0.4752 -0.4875
  244SOL     OW  973   0.240   0.776   2.404  0.0060  0.5472 -0.5937
  244SOL    HW1  974   0.256   0.870   2.418 -1.5636  0.5447 -1.7434
  244SOL    HW2  975   0.329   0.741   2.393 -0.6147 -0.4474 -0.5826
  244SOL     MW  976   0.254   0.784   2.404 -0.2830  0.4156 -0.7439
  245SOL     OW  977   1.264   0.197   2.319 -0.5201 -0.1921 -0.2215
  245SOL    HW1  978   1.344   0.141   2.300  0.4114 -1.2527  1.0844
  245SOL    HW2  979   1.304   0.257   2.386 -1.0918  2.5141  2.2564
  245SOL     MW  980   1.280   0.198   2.326 -0.4726  0.0250  0.2778
  246SOL     OW  981   1.261   1.163   2.094 -0.2376 -0.5991 -0.2378
  246SOL    HW1  982   1.211   1.107   2.162 -0.5144 -1.6375 -0.0113
  246SOL    HW2  983   1.322   1.223   2.143  3.6803  1.8553  0.0197
  246SOL     MW  984   1.263   1.164   2.110  0.2428 -0.4122 -0.1740
  247SOL     OW  985   0.739   0.589   0.211 -0.0292  0.2154 -0.1291
  247SOL    HW1  986   0.696   0.672   0.221  3.6366 -0.3196  2.4861
  247SOL    HW2  987   0.821   0.604   0.155 -0.1554 -1.4130 -0.4473
  247SOL     MW  988   0.744   0.602   0.205  0.4378 -0.0700  0.1740
  248SOL     OW  989   0.307   1.323   2.555 -0.1494 -0.6357  0.6985
  248SOL    HW1  990   0.347   1.312   2.468 -0.4523 -1.3822  1.5860
  248SOL    HW2  991   0.356   1.396   2.600 -1.2824 -1.8416  1.3063
  248SOL     MW  992   0.319   1.332   2.549 -0.3388 -0.8933  0.8958
  249SOL     OW  993   0.170   1.878   2.727 -0.2231 -0.2774 -0.4848
  249SOL    HW1  994   0.133   1.793   2.688  2.5284 -0.6458  0.4776
  249SOL    HW2  995   0.214   1.847   2.807 -2.5738 -0.9830 -1.9960
  249SOL     MW  996   0.171   1.862   2.732 -0.1702 -0.4191 -0.5572
  250SOL     OW  997   2.197   0.945   2.270  0.1135 -0.0994  0.3704
  250SOL    HW1  998   2.260   0.873   2.292 -3.0499  1.9310  1.6002
  250SOL    HW2  999   2.252   1.015   2.307  0.9363 -1.3786  0.7663
  250SOL     MW 1000   2.213   0.944   2.278 -0.1953 -0.0003  0.5849
  251SOL     OW 1001   0.158   0.920   1.976  0.4493  0.5588 -0.2469
  251SOL    HW1 1002   0.101   0.842   1.999  1.6433  1.1481  0.1723
  251SOL    HW2 1003   0.165   0.916   1.881  0.9895  1.2077 -3.4824
  251SOL     MW 1004   0.151   0.909   1.966  0.6781  0.7222 -0.6185
  252SOL     OW 1005   1.739   1.009   2.856 -0.1315  0.5983  0.4749
  252SOL    HW1 1006   1.760   1.052   2.941  2.1407  0.5151  1.3450
  252SOL    HW2 1007   1.816   1.033   2.801  1.8968 -1.7588  1.2726
  252SOL     MW 1008   1.752   1.018   2.860  0.4359  0.2763  0.6950
  253SOL     OW 1009   1.186   1.784   2.553 -0.0843  0.1901  0.1882
  253SOL    HW1 1010   1.200   1.789   2.452 -0.4472 -0.7498  0.5805
  253SOL    HW2 1011   1.102   1.825   2.574  2.1485  1.1240  2.1818
  253SOL     MW 1012   1.177   1.790   2.542  0.1624  0.1893  0.5030
  254SOL     OW 1013   1.065   1.021   2.246  0.1977  0.0765 -0.0444
  254SOL    HW1 1014   0.999   0.955   2.222 -1.8301  1.6229 -3.4436
  254SOL    HW2 1015   1.011   1.107   2.251 -0.7236  2.7704  1.1229
  254SOL     MW 1016   1.049   1.024   2.243 -0.1914  0.6360 -0.3388
  255SOL     OW 1017   0.788   2.568   2.115  0.5471 -0.4478  0.0423
  255SOL    HW1 1018   0.721   2.518   2.163 -0.2581  0.9984 -0.3345
  255SOL    HW2 1019   0.871   2.526   2.127 -0.9816 -0.0685 -0.0353
  255SOL     MW 1020   0.790   2.556   2.123  0.2392 -0.2069 -0.0176
  256SOL     OW 1021   1.360   2.686   2.957 -0.0193  0.4248 -0.5058
  256SOL    HW1 1022   1.350   2.604   2.916 -1.0867  0.0040  1.7406
  256SOL    HW2 1023   1.389   2.741   2.886  2.0533  0.1222  0.9815
  256SOL     MW 1024   1.363   2.683   2.942  0.1133  0.3293 -0.0132
  257SOL     OW 1025   0.182   1.896   0.050  0.4230  0.2868 -0.3563
  257SOL    HW1 1026   0.204   1.833   0.119  0.8571  2.0972 -1.1990
  257SOL    HW2 1027   0.224   1.855  -0.025  0.1722  0.1675 -1.3544
  257SOL     MW 1028   0.191   1.882   0.049  0.4472  0.5099 -0.5992
  258SOL     OW 1029   0.817   1.042   2.467  0.2186  0.3412  0.2346
  258SOL    HW1 1030   0.853   1.122   2.425  0.3733 -3.2604  0.7935
  258SOL    HW2 1031   0.821   1.061   2.562  1.8601  0.3449  1.9828
  258SOL     MW 1032   0.823   1.055   2.474  0.4556 -0.1335  0.5390
  259SOL     OW 1033   0.845   0.384   2.341  0.5850 -0.5212 -0.6010
  259SOL    HW1 1034   0.784   0.346   2.278  0.6073  5.3675 -2.0868
  259SOL    HW2 1035   0.892   0.314   2.392 -2.5685 -0.8769  2.3435
  259SOL     MW 1036   0.843   0.370   2.339  0.1719  0.2088 -0.4085
  260SOL     OW 1037   0.512   0.127   1.584  0.1351 -0.4826  0.2766
  260SOL    HW1 1038   0.485   0.060   1.519 -0.1925  0.7105 -2.1313
  260SOL    HW2 1039   0.612   0.132   1.575  0.3787 -1.0717  0.5629
  260SOL     MW 1040   0.521   0.119   1.574  0.1240 -0.4029 -0.0033
  261SOL     OW 1041   1.149   0.722   2.035  0.1767 -0.0633  0.0894
  261SOL    HW1 1042   1.183   0.701   2.122 -2.0230  2.1943  3.5400
  261SOL    HW2 1043   1.169   0.648   1.973  1.7303 -0.5934 -1.3651
  261SOL     MW 1044   1.156   0.710   2.039  0.0914  0.1646  0.3528
  262SOL     OW 1045   1.032   0.305   0.157  0.1115 -0.1596  0.4481
  262SOL    HW1 1046   1.123   0.285   0.134 -0.3019 -2.9530 -0.5047
  262SOL    HW2 1047   0.988   0.226   0.119 -1.4237  1.6764  1.3202
  262SOL     MW 1048   1.039   0.292   0.149 -0.1456 -0.2859  0.4374
  263SOL     OW 1049   0.398   0.014   2.442  0.0087 -0.2039 -0.2168
  263SOL    HW1 1050   0.326   0.079   2.421 -0.8335  0.3394  0.8428
  263SOL    HW2 1051   0.476   0.050   2.399  0.3413  0.5910  0.4625
  263SOL     MW 1052   0.399   0.027   2.434 -0.0585 -0.0274  0.0126
  264SOL     OW 1053   1.459   1.363   1.840  0.0423 -0.0918  0.0218
  264SOL    HW1 1054   1.435   1.273   1.854  0.7970 -1.0829 -1.2167
  264SOL    HW2 1055   1.539   1.379   1.897  1.1892  0.7592 -1.7181
  264SOL     MW 1056   1.467   1.353   1.849  0.2932 -0.1103 -0.3712
  265SOL     OW 1057   0.750   2.815   2.262 -0.0999  0.0695 -0.3202
  265SOL    HW1 1058   0.807   2.755   2.216  0.7134 -0.1105 -0.5767
  265SOL    HW2 1059   0.762   2.797   2.355  0.2359 -4.3160  0.5577
  265SOL     MW 1060   0.759   2.805   2.269  0.0517 -0.5329 -0.2382
  266SOL     OW 1061   0.908   0.761   2.219 -1.2208  0.0203  0.3111
  266SOL    HW1 1062   0.877   0.720   2.142 -2.1090 -0.0504  2.7022
  266SOL    HW2 1063   1.003   0.745   2.220 -0.4164  0.0488 -0.3280
  266SOL     MW 1064   0.916   0.753   2.209 -1.2318  0.0147  0.5423
  267SOL     OW 1065   1.422   1.781   2.706 -0.2245 -0.4943 -0.5588
  267SOL    HW1 1066   1.450   1.723   2.638  0.2545 -1.1858 -1.1872
  267SOL    HW2 1067   1.351   1.830   2.659 -1.1636  3.7071 -1.7082
  267SOL     MW 1068   1.417   1.780   2.691 -0.2852 -0.0312 -0.7934
  268SOL     OW 1069   0.188   0.826   1.663  0.0347  0.3320 -0.1630
  268SOL    HW1 1070   0.166   0.900   1.610  0.0684 -1.8112  0.5949
  268SOL    HW2 1071   0.152   0.761   1.602 -1.6121 -1.1435 -0.0469
  268SOL     MW 1072   0.180   0.827   1.648 -0.1782 -0.1455 -0.0477
  269SOL     OW 1073   1.405   1.980   2.386 -0.1443  0.2708 -0.1832
  269SOL    HW1 1074   1.470   2.044   2.368  0.8270 -1.8369 -0.7329
  269SOL    HW2 1075   1.328   2.041   2.395 -3.3870  3.1364 -0.0257
  269SOL     MW 1076   1.404   1.996   2.385 -0.4440  0.3708 -0.2350
  270SOL     OW 1077   1.120   0.422   1.615 -0.0782 -0.2480 -0.1561
  270SOL    HW1 1078   1.075   0.340   1.644 -1.0089 -1.4544 -0.3199
  270SOL    HW2 1079   1.209   0.397   1.610 -1.7842 -2.2796 -0.2855
  270SOL     MW 1080   1.126   0.408   1.618 -0.4261 -0.6752 -0.1948
  271SOL     OW 1081   0.854   0.006   2.581  0.1576  0.0325  0.3746
  271SOL    HW1 1082   0.904  -0.073   2.609 -0.4271  0.5393  1.0817
  271SOL    HW2 1083   0.919   0.073   2.558 -3.2472 -0.9967  0.9157
  271SOL     MW 1084   0.869   0.005   2.582 -0.3687 -0.0364  0.5393
  272SOL     OW 1085   1.496   2.841   2.759  0.4975 -0.7043 -0.0855
  272SOL    HW1 1086   1.443   2.860   2.685  2.4799  0.9325 -0.9389
  272SOL    HW2 1087   1.522   2.928   2.800  3.8498  1.4085  1.7013
  272SOL     MW 1088   1.493   2.855   2.754  1.2013 -0.2095  0.0377
  273SOL     OW 1089   1.476   0.955   2.801  0.6095 -0.3024  0.0392
  273SOL    HW1 1090   1.564   0.980   2.833 -2.9587 -1.2377  0.1964
  273SOL    HW2 1091   1.444   1.035   2.761 -0.4240 -1.5710 -2.2240
  273SOL     MW 1092   1.484   0.969   2.800  0.0024 -0.5932 -0.2387
  274SOL     OW 1093   1.469   0.693   0.101 -0.0618  0.1251 -0.0926
  274SOL    HW1 1094   1.496   0.604   0.125  1.1046  0.6073  1.2620
  274SOL    HW2 1095   1.394   0.697   0.167  0.5962  1.2378  2.5646
  274SOL     MW 1096   1.463   0.682   0.113  0.1789  0.3356  0.4367
  275SOL     OW 1097   1.691   0.564   1.776 -0.7724 -0.1792  0.4388
  275SOL    HW1 1098   1.757   0.584   1.842  1.2506 -2.3081 -0.1296
  275SOL    HW2 1099   1.677   0.473   1.811  0.7247 -2.0744 -2.3621
  275SOL     MW 1100   1.698   0.555   1.790 -0.3080 -0.7101 -0.0057
  276SOL     OW 1101   0.302   1.222   1.909 -0.5860  0.1375  0.2017
  276SOL    HW1 1102   0.358   1.143   1.900  0.2795 -1.7356  4.2308
  276SOL    HW2 1103   0.252   1.220   1.990 -1.3348  0.0168  1.6154
  276SOL     MW 1104   0.303   1.211   1.918 -0.5706 -0.1255  0.9198
  277SOL     OW 1105   1.918   1.208   2.435  0.2684 -0.9107  0.7003
  277SOL    HW1 1106   1.982   1.263   2.482 -3.1585  0.0694  1.0225
  277SOL    HW2 1107   1.961   1.185   2.350 -2.4981  1.0882 -0.6955
  277SOL     MW 1108   1.932   1.212   2.430 -0.5487 -0.5176  0.5586
  278SOL     OW 1109   1.409   0.651   1.702 -0.4289  1.0955 -0.2714
  278SOL    HW1 1110   1.379   0.613   1.788 -0.7928  0.9577 -1.9260
  278SOL    HW2 1111   1.504   0.641   1.697  1.5446  1.1223  1.0146
  278SOL     MW 1112   1.418   0.645   1.713 -0.2165  1.0809 -0.3200
  279SOL     OW 1113   0.582   0.081   2.250 -0.0680  0.7608 -0.2413
  279SOL    HW1 1114   0.671   0.044   2.248  1.0464 -0.5317 -1.1785
  279SOL    HW2 1115   0.589   0.174   2.242 -0.5641 -1.0204  1.6949
  279SOL     MW 1116   0.595   0.089   2.248  0.0136  0.3553 -0.1095
  280SOL     OW 1117   1.500   0.983   2.133 -0.4453 -0.2675  0.2812
  280SOL    HW1 1118   1.550   0.922   2.080  0.1933 -0.0914  0.7037
  280SOL    HW2 1119   1.472   0.938   2.215 -1.5402  2.7244 -1.9033
  280SOL     MW 1120   1.503   0.969   2.137 -0.5055  0.1505  0.0488
  281SOL     OW 1121   1.329   1.342   2.772  0.3861 -0.2648 -0.5711
  281SOL    HW1 1122   1.416   1.367   2.767 -1.6563 -1.5179 -1.1675
  281SOL    HW2 1123   1.323   1.290   2.851  2.4398  0.8352  0.6621
  281SOL     MW 1124   1.339   1.339   2.782  0.3875 -0.2850 -0.4871
  282SOL     OW 1125   1.092   1.306   1.671 -0.4945 -0.0751 -0.0037
  282SOL    HW1 1126   1.070   1.401   1.665 -0.0102  0.7513 -3.6563
  282SOL    HW2 1127   1.040   1.277   1.742 -1.2079 -1.5531 -0.5975
  282SOL     MW 1128   1.082   1.315   1.679 -0.5248 -0.1611 -0.5640
  283SOL     OW 1129   0.801   1.232   2.982 -0.3562  0.6672  0.3870
  283SOL    HW1 1130   0.855   1.215   3.057  0.5134  1.7733 -2.6221
  283SOL    HW2 1131   0.768   1.326   2.989 -2.4955  0.8935 -1.5313
  283SOL     MW 1132   0.804   1.242   2.993 -0.5238  0.8430 -0.2631
  284SOL     OW 1133   0.497   0.675   2.384 -0.3927  0.2039  0.2650
  284SOL    HW1 1134   0.550   0.741   2.326  0.8301 -0.3048  1.8616
  284SOL    HW2 1135   0.484   0.603   2.324 -1.2910 -0.9782 -2.2220
  284SOL     MW 1136   0.502   0.674   2.368 -0.3499 -0.0192  0.1476
  285SOL     OW 1137   0.983   0.856   2.819  0.3716 -0.4186 -0.0417
  285SOL    HW1 1138   1.020   0.906   2.744  1.9448 -2.6051 -1.4502
  285SOL    HW2 1139   0.914   0.801   2.778  1.1301  0.7868  1.0200
  285SOL     MW 1140   0.979   0.855   2.804  0.6792 -0.5481 -0.0875
  286SOL     OW 1141   1.126   1.506   2.617 -0.4420  0.3811  1.0107
  286SOL    HW1 1142   1.202   1.490   2.672  1.8144 -0.4700  1.2521
  286SOL    HW2 1143   1.140   1.590   2.575  1.2117 -2.2976  3.7252
  286SOL     MW 1144   1.138   1.515   2.618  0.0739 -0.0846  1.4007
  287SOL     OW 1145   1.126   0.921   0.330 -0.1150  0.0293  0.0660
  287SOL    HW1 1146   1.187   0.954   0.392 -1.7663  2.5667  2.0058
  287SOL    HW2 1147   1.104   0.990   0.268 -0.1845 -0.2440  2.0693
  287SOL     MW 1148   1.131   0.934   0.330 -0.3421  0.3280  0.5862
  288SOL     OW 1149   1.540   0.566   2.093  0.4040 -0.0971 -0.4907
  288SOL    HW1 1150   1.534   0.569   2.187 -1.0655 -0.9743  0.4379
  288SOL    HW2 1151   1.564   0.653   2.070  1.5192 -0.5130 -1.8524
  288SOL     MW 1152   1.542   0.578   2.102  0.3572 -0.2677 -0.5479
  289SOL     OW 1153   1.051   1.008   2.588  0.2647 -0.0976  0.4543
  289SOL    HW1 1154   1.097   0.926   2.570 -1.8803  0.9187  3.6852
  289SOL    HW2 1155   0.983   1.005   2.518  1.7468  0.2126 -3.0348
  289SOL     MW 1156   1.048   0.997   2.576  0.1773  0.0774  0.4202
  290SOL     OW 1157   0.849   0.641   1.589 -0.3531  0.0521 -0.3447
  290SOL    HW1 1158   0.883   0.595   1.512  1.6827  0.9494 -0.6851
  290SOL    HW2 1159   0.924   0.643   1.656 -0.0618  1.5680 -1.7910
  290SOL     MW 1160   0.863   0.635   1.588 -0.0460  0.3705 -0.5804
  291SOL     OW 1161   0.203   0.377   0.093 -0.1304  0.1112  0.7101
  291SOL    HW1 1162   0.260   0.315   0.138  0.9473  1.1266 -1.4341
  291SOL    HW2 1163   0.156   0.324   0.025  0.3352  2.1104 -3.0823
  291SOL     MW 1164   0.205   0.362   0.090  0.0732  0.5090 -0.0732
  292SOL     OW 1165   0.998   0.557   0.071 -0.3235 -0.2138 -0.3455
  292SOL    HW1 1166   1.064   0.592   0.123 -2.5510 -2.0693 -0.9773
  292SOL    HW2 1167   0.989   0.469   0.114  3.2852 -0.0580 -1.5110
  292SOL     MW 1168   1.006   0.550   0.083 -0.1413 -0.4381 -0.5826
  293SOL     OW 1169   0.157   0.148   2.409 -0.0386 -0.1679  0.3486
  293SOL    HW1 1170   0.091   0.108   2.352  1.2501 -1.0143  2.3043
  293SOL    HW2 1171   0.120   0.135   2.493  0.9187 -0.1055  0.7750
  293SOL     MW 1172   0.143   0.141   2.412  0.2577 -0.2713  0.6629
  294SOL     OW 1173   1.454   0.605   2.352 -0.3652  0.0142 -0.6162
  294SOL    HW1 1174   1.510   0.633   2.430 -0.0870 -0.5757  0.5927
  294SOL    HW2 1175   1.443   0.515   2.385 -0.7203  4.2077  1.1276
  294SOL     MW 1176   1.460   0.597   2.367 -0.3753  0.4896 -0.2266
  295SOL     OW 1177   0.935   0.567   2.549 -0.3348  0.1457  0.5434
  295SOL    HW1 1178   0.896   0.521   2.478  1.1929 -1.3327  0.5262
  295SOL    HW2 1179   0.866   0.604   2.595  1.9906  1.7374 -4.8872
  295SOL     MW 1180   0.921   0.566   2.546  0.1736  0.1606 -0.1754
  296SOL     OW 1181   1.305   0.284   2.034 -0.5961  0.2695  0.2518
  296SOL    HW1 1182   1.360   0.205   2.012  0.6068 -0.2611  0.0738
  296SOL    HW2 1183   1.295   0.279   2.132  0.6079  0.3682 -1.6206
  296SOL     MW 1184   1.311   0.273   2.044 -0.2786  0.2125 -0.0187
  297SOL     OW 1185   1.385   0.386   1.596  0.2190  0.4641 -0.3364
  297SOL    HW1 1186   1.404   0.469   1.638  0.0738  0.1891  3.3511
  297SOL    HW2 1187   1.398   0.322   1.661 -0.6764  0.5225  1.4716
  297SOL     MW 1188   1.390   0.389   1.610  0.0817  0.4355  0.3887
  298SOL     OW 1189   1.638   0.811   1.981  0.4874 -0.3955 -0.1185
  298SOL    HW1 1190   1.646   0.884   1.919 -1.2763 -0.6187 -1.5002
  298SOL    HW2 1191   1.710   0.843   2.034 -2.2771  1.0497 -0.3306
  298SOL     MW 1192   1.648   0.825   1.980 -0.1101 -0.2343 -0.3288
  299SOL     OW 1193   0.573   1.073   0.068 -0.1124  0.5265 -0.1381
  299SOL    HW1 1194   0.596   1.120  -0.017 -2.0536 -0.6840  0.2044
  299SOL    HW2 1195   0.480   1.091   0.071 -0.7188  2.4524 -1.0042
  299SOL     MW 1196   0.564   1.082   0.058 -0.4485  0.6209 -0.2072
  300SOL     OW 1197   1.307   1.156   2.532  0.1811  0.0780  0.0985
  300SOL    HW1 1198   1.219   1.127   2.556 -0.2844  0.8933  1.2892
  300SOL    HW2 1199   1.342   1.209   2.606 -1.0718  0.6059  1.5045
  300SOL     MW 1200   1.300   1.159   2.545 -0.0457  0.2552  0.4411
  301SOL     OW 1201   1.490   0.892   0.647  0.3649 -0.2334 -0.3494
  301SOL    HW1 1202   1.480   0.911   0.744  0.5582 -3.1551 -0.9707
  301SOL    HW2 1203   1.429   0.821   0.626 -0.1629 -2.8666  1.2560
  301SOL     MW 1204   1.481   0.885   0.657  0.3208 -0.9663 -0.2195
  302SOL     OW 1205   0.126   1.532   1.998 -0.2152  0.2925 -1.0280
  302SOL    HW1 1206   0.173   1.478   2.060  2.0623 -0.3676 -0.0852
  302SOL    HW2 1207   0.056   1.563   2.061  1.8778 -0.0320 -0.0599
  302SOL     MW 1208   0.123   1.529   2.014  0.3615  0.1626 -0.7759
  303SOL     OW 1209   0.425   1.791   2.607 -0.3779  0.5217  0.4417
  303SOL    HW1 1210   0.407   1.748   2.522 -2.8701  2.7112 -1.0170
  303SOL    HW2 1211   0.336   1.819   2.629  2.6055 -0.9071  0.0831
  303SOL     MW 1212   0.411   1.789   2.599 -0.3131  0.6221  0.2020
  304SOL     OW 1213   0.549   2.070   2.383  0.4404 -0.1548  0.1878
  304SOL    HW1 1214   0.598   2.105   2.307 -1.1018 -1.4499  0.2523
  304SOL    HW2 1215   0.586   1.978   2.384 -2.4760 -0.7083 -0.1269
  304SOL     MW 1216   0.561   2.063   2.373 -0.1479 -0.3987  0.1548
  305SOL     OW 1217   1.113   0.555   0.479  0.5652 -0.0317  0.5259
  305SOL    HW1 1218   1.016   0.563   0.474  0.2709 -0.3525 -0.3639
  305SOL    HW2 1219   1.139   0.467   0.509 -0.0090  0.7139 -2.3938
  305SOL     MW 1220   1.104   0.545   0.483  0.4506  0.0243  0.0233
  306SOL     OW 1221   1.166   1.469   0.294  0.2305  0.0929 -0.4283
  306SOL    HW1 1222   1.214   1.386   0.318 -2.1897 -1.1490  0.3089
  306SOL    HW2 1223   1.218   1.504   0.221 -2.1884  1.0410  0.8576
  306SOL     MW 1224   1.179   1.462   0.287 -0.4080  0.0541 -0.1614
  307SOL     OW 1225   1.323   0.532   1.934  0.7423 -0.3716 -0.8280
  307SOL    HW1 1226   1.305   0.438   1.968 -2.0876 -0.0061  2.8846
  307SOL    HW2 1227   1.405   0.537   1.988 -0.2863 -0.4685  2.2134
  307SOL     MW 1228   1.331   0.520   1.946  0.2332 -0.3362  0.0631
  308SOL     OW 1229   2.168   0.522   2.733  0.0669  0.2928  0.1614
  308SOL    HW1 1230   2.264   0.512   2.751  3.2747 -0.0939  1.8705
  308SOL    HW2 1231   2.168   0.613   2.721 -0.2578 -2.1991 -0.3947
  308SOL     MW 1232   2.181   0.533   2.734  0.4473 -0.0870  0.3135
  309SOL     OW 1233   0.479   0.454   0.345  0.3174  0.2312 -0.1908
  309SOL    HW1 1234   0.572   0.477   0.368  0.6032 -0.6395 -1.8298
  309SOL    HW2 1235   0.480   0.395   0.269 -0.7763 -1.3640 -0.3394
  309SOL     MW 1236   0.492   0.449   0.338  0.2108 -0.0942 -0.4266
  310SOL     OW 1237   0.434   0.655   1.962 -0.2623 -0.3593  0.3492
  310SOL    HW1 1238   0.479   0.576   1.946  1.0194 -2.2290 -1.6179
  310SOL    HW2 1239   0.479   0.724   1.910 -0.4789  2.0456 -0.7920
  310SOL     MW 1240   0.446   0.654   1.953 -0.1218 -0.2887 -0.0609
  311SOL     OW 1241   1.907   0.626   1.940 -0.8986 -0.9344  0.9682
  311SOL    HW1 1242   1.895   0.671   2.025  1.0384 -3.9340  0.1871
  311SOL    HW2 1243   1.950   0.544   1.956  2.9838  1.7238  1.1066
  311SOL     MW 1244   1.911   0.621   1.953 -0.1308 -0.9794  0.8834
  312SOL     OW 1245   1.832   2.513   0.128  0.3885  0.1243  0.4892
  312SOL    HW1 1246   1.914   2.534   0.177  0.6299 -0.4883  0.6108
  312SOL    HW2 1247   1.765   2.539   0.184  1.3024 -0.7210  0.5862
  312SOL     MW 1248   1.834   2.519   0.142  0.5409 -0.0680  0.5181
  313SOL     OW 1249   0.147   1.092   2.971  0.0136  0.9403  0.3213
  313SOL    HW1 1250   0.132   1.109   3.065  1.9121  1.2436  0.4045
  313SOL    HW2 1251   0.207   1.166   2.951 -0.6539  0.7906  1.5516
  313SOL     MW 1252   0.153   1.104   2.981  0.1760  0.9606  0.4946
  314SOL     OW 1253   2.190   2.970   2.961  0.0450  0.4405 -0.3324
  314SOL    HW1 1254   2.109   2.995   2.922  1.0687 -1.6276 -0.1929
  314SOL    HW2 1255   2.214   3.046   3.016 -2.1313 -0.2764 -1.8021
  314SOL     MW 1256   2.183   2.984   2.963 -0.1071  0.0730 -0.5079
  315SOL     OW 1257   1.531   1.931   3.099 -0.0115  0.0172 -0.8830
  315SOL    HW1 1258   1.451   1.990   3.120  1.9448  2.1739 -2.6362
  315SOL    HW2 1259   1.576   1.982   3.027  0.1659 -0.3473  2.5828
  315SOL     MW 1260   1.526   1.945   3.092  0.2700  0.2536 -0.6570
  316SOL     OW 1261   1.299   0.618   2.713 -0.0109 -1.0537 -0.1002
  316SOL    HW1 1262   1.367   0.659   2.667 -2.2137 -0.0577  2.5498
  316SOL    HW2 1263   1.305   0.661   2.797 -0.9608  2.0139 -0.8933
  316SOL     MW 1264   1.309   0.630   2.718 -0.4269 -0.5176  0.1448
  317SOL     OW 1265   0.679   1.413   2.561 -0.4350  0.0417  0.8773
  317SOL    HW1 1266   0.760   1.362   2.582 -0.9738  0.6684  1.3895
  317SOL    HW2 1267   0.708   1.471   2.482  2.0246  3.2093 -1.3346
  317SOL     MW 1268   0.694   1.414   2.554 -0.1815  0.5423  0.6531
  318SOL     OW 1269   1.308   0.345   2.944  0.3455 -0.3839  0.5807
  318SOL    HW1 1270   1.231   0.406   2.922 -1.2983  1.4758  1.9819
  318SOL    HW2 1271   1.387   0.396   2.948  0.0547 -0.4197  1.5692
  318SOL     MW 1272   1.309   0.360   2.942  0.0902 -0.1433  0.8960
  319SOL     OW 1273   0.787   0.448   2.863  0.1382  0.5655 -0.4767
  319SOL    HW1 1274   0.761   0.367   2.813 -1.6491 -0.9078 -0.2831
  319SOL    HW2 1275   0.762   0.419   2.955  2.3022 -3.2918 -0.2546
  319SOL     MW 1276   0.781   0.434   2.869  0.1879 -0.1378 -0.4219
  320SOL     OW 1277   1.057   1.358   2.042 -0.0921  0.1036  0.1170
  320SOL    HW1 1278   1.126   1.303   2.079  0.2060 -0.6325  0.8853
  320SOL    HW2 1279   1.102   1.419   1.980  2.2151  0.4184 -0.0444
  320SOL     MW 1280   1.072   1.359   2.039  0.2516  0.0480  0.1971
  321SOL     OW 1281   1.140   0.924   3.024 -0.3734  0.5449 -0.2703
  321SOL    HW1 1282   1.076   0.886   2.964 -2.6064 -0.2474  2.1522
  321SOL    HW2 1283   1.193   0.850   3.035 -0.1764  3.2870 -0.1889
  321SOL     MW 1284   1.138   0.909   3.018 -0.6421  0.8021  0.0601
  322SOL     OW 1285   1.225   0.872   1.682 -0.4972 -0.0833 -0.1958
  322SOL    HW1 1286   1.292   0.803   1.692  0.4082 -1.5959 -0.0239
  322SOL    HW2 1287   1.214   0.900   1.779 -0.2546 -0.5875  0.3658
  322SOL     MW 1288   1.233   0.866   1.696 -0.3457 -0.3494 -0.0990
  323SOL     OW 1289   1.198   1.541   1.893 -0.0511  0.2494 -0.6838
  323SOL    HW1 1290   1.247   1.533   1.811 -1.6630 -0.0597 -0.6032
  323SOL    HW2 1291   1.168   1.629   1.881  0.9170  2.0504  0.5416
  323SOL     MW 1292   1.200   1.552   1.880 -0.1360  0.4463 -0.5115
  324SOL     OW 1293   1.483   0.950   2.429  0.2129  0.2747  0.3917
  324SOL    HW1 1294   1.408   1.005   2.453  3.6209 -2.1660 -1.5819
  324SOL    HW2 1295   1.556   1.012   2.442 -4.3330  3.0163 -0.9965
  324SOL     MW 1296   1.483   0.965   2.434  0.0628  0.3144 -0.0519
  325SOL     OW 1297   1.087   0.499   2.917  0.0198  0.4372 -0.7675
  325SOL    HW1 1298   1.059   0.545   3.000  0.4655  0.7417 -0.2078
  325SOL    HW2 1299   1.022   0.528   2.862  2.0483  0.1126  1.2500
  325SOL     MW 1300   1.075   0.509   2.921  0.3462  0.4345 -0.4275
  326SOL     OW 1301   0.462   1.362   2.301 -0.2785 -0.3006 -0.1221
  326SOL    HW1 1302   0.528   1.317   2.249  2.0337 -0.1536 -0.7120
  326SOL    HW2 1303   0.489   1.457   2.308 -1.5214  0.1442 -2.0748
  326SOL     MW 1304   0.474   1.368   2.295 -0.1374 -0.2225 -0.4576
  327SOL     OW 1305   1.921   0.785   2.441 -0.1001 -0.2332 -0.2069
  327SOL    HW1 1306   1.889   0.747   2.529  0.5836 -1.4691  0.8879
  327SOL    HW2 1307   2.004   0.831   2.458 -4.0369  2.5022 -0.4525
  327SOL     MW 1308   1.928   0.786   2.455 -0.5293 -0.0354 -0.0949
  328SOL     OW 1309   0.203   1.397   2.208  0.5532 -0.2234  0.1413
  328SOL    HW1 1310   0.164   1.311   2.190  0.5278 -2.1781  0.4145
  328SOL    HW2 1311   0.291   1.375   2.232 -1.0777  1.4403 -0.3112
  328SOL     MW 1312   0.209   1.383   2.209  0.3347 -0.2618  0.1176
  329SOL     OW 1313   0.145   0.252   1.383 -0.4203  0.0901  1.2638
  329SOL    HW1 1314   0.118   0.236   1.474 -0.4823 -1.3280 -1.0614
  329SOL    HW2 1315   0.237   0.284   1.386  1.9737 -1.4228 -2.5916
  329SOL     MW 1316   0.153   0.254   1.395 -0.1126 -0.2966  0.4483
  330SOL     OW 1317   0.375   0.012   2.103  0.0088 -0.4489 -0.1579
  330SOL    HW1 1318   0.445   0.045   2.168 -0.5945  1.7604  1.7064
  330SOL    HW2 1319   0.317  -0.051   2.151  0.4257 -2.2555 -0.3277
  330SOL     MW 1320   0.376   0.008   2.118 -0.0158 -0.3958  0.0657
  331SOL     OW 1321   0.889   1.245   2.264 -0.5611  0.0878  0.5676
  331SOL    HW1 1322   0.799   1.259   2.239  1.3842  0.3790  0.9859
  331SOL    HW2 1323   0.908   1.315   2.324 -0.2612  1.9367 -2.0300
  331SOL     MW 1324   0.880   1.256   2.269 -0.2649  0.3702  0.2800
  332SOL     OW 1325   1.350   1.782   2.980  0.1306 -0.4212 -0.2249
  332SOL    HW1 1326   1.381   1.766   2.887  2.1225 -0.4231  0.5146
  332SOL    HW2 1327   1.405   1.855   3.011 -1.9250 -1.1662 -1.0185
  332SOL     MW 1328   1.362   1.789   2.972  0.1222 -0.5198 -0.2320
  333SOL     OW 1329   1.750   1.399   2.965 -0.6208  0.2702 -0.0705
  333SOL    HW1 1330   1.830   1.439   2.999 -3.6648 -0.4762 -2.1309
  333SOL    HW2 1331   1.735   1.321   3.012 -1.5060  0.0921 -1.7663
  333SOL     MW 1332   1.759   1.394   2.975 -1.1392  0.1482 -0.5661
  334SOL     OW 1333   1.344   0.020   2.600 -0.4351  0.0802 -0.6608
  334SOL    HW1 1334   1.266   0.009   2.656  0.4701  0.4169  0.8998
  334SOL    HW2 1335   1.387   0.095   2.642 -0.0937 -1.3008  1.1030
  334SOL     MW 1336   1.339   0.028   2.613 -0.2706 -0.0576 -0.2222
  335SOL     OW 1337   1.363   0.754   2.965 -0.3024  0.1513 -0.0515
  335SOL    HW1 1338   1.414   0.744   3.049  1.1611  1.0581 -0.4546
  335SOL    HW2 1339   1.415   0.818   2.921  1.1492 -0.9213  1.0345
  335SOL     MW 1340   1.377   0.761   2.971  0.0822  0.1295  0.0386
  336SOL     OW 1341   0.950   1.132   1.897  0.0457  0.5571 -0.4116
  336SOL    HW1 1342   0.992   1.190   1.960 -0.4136 -2.4347 -1.4216
  336SOL    HW2 1343   1.023   1.077   1.882 -2.5104 -1.0510 -3.9020
  336SOL     MW 1344   0.965   1.133   1.903 -0.3521 -0.0498 -1.0054
  337SOL     OW 1345   0.622   1.815   2.795  1.2194 -0.2347  0.7110
  337SOL    HW1 1346   0.555   1.803   2.731  0.2171  1.2110  0.0549
  337SOL    HW2 1347   0.695   1.762   2.774  0.4661 -1.0805  0.9039
  337SOL     MW 1348   0.623   1.807   2.784  0.9878 -0.1556  0.6499
  338SOL     OW 1349   1.133   0.762   2.544  0.2831 -0.6285  0.0134
  338SOL    HW1 1350   1.059   0.700   2.561  1.6538 -0.5401  2.1262
  338SOL    HW2 1351   1.193   0.715   2.607 -0.9122 -1.4546 -0.1433
  338SOL     MW 1352   1.131   0.748   2.554  0.3063 -0.7258  0.2715
  339SOL     OW 1353   1.476   1.045   1.819  0.2027  0.5364 -0.4367
  339SOL    HW1 1354   1.407   1.076   1.762 -2.7940  0.0571 -0.5246
  339SOL    HW2 1355   1.429   1.035   1.900  1.3013  0.7641 -0.5393
  339SOL     MW 1356   1.461   1.048   1.822 -0.0478  0.5032 -0.4618
  340SOL     OW 1357   1.306   1.537   0.052 -0.0702 -0.1635 -0.0996
  340SOL    HW1 1358   1.325   1.616  -0.007  1.5769 -0.6332 -2.5126
  340SOL    HW2 1359   1.392   1.501   0.074  1.8442 -1.8380  0.3693
  340SOL     MW 1360   1.320   1.543   0.047  0.3997 -0.4464 -0.3561
  341SOL     OW 1361   0.112   1.409   2.766 -0.6105 -0.8343  0.4370
  341SOL    HW1 1362   0.191   1.380   2.718 -1.5603  0.0739 -0.3425
  341SOL    HW2 1363   0.049   1.382   2.700 -2.8859 -0.5516  0.4931
  341SOL     MW 1364   0.114   1.402   2.751 -1.0360 -0.6772  0.3416
  342SOL     OW 1365   1.302   0.303   0.122  0.3303 -0.3014  0.1917
  342SOL    HW1 1366   1.344   0.384   0.162 -0.7610  1.9078  0.1532
  342SOL    HW2 1367   1.285   0.326   0.028  0.0485  0.4015 -1.9072
  342SOL     MW 1368   1.305   0.317   0.115  0.1491  0.0828 -0.0903
  343SOL     OW 1369   0.260   0.260   2.143 -0.0301  0.3295 -0.9095
  343SOL    HW1 1370   0.276   0.169   2.124  4.0113  1.0039  1.5717
  343SOL    HW2 1371   0.199   0.301   2.082 -0.7900  0.8633  0.3121
  343SOL     MW 1372   0.254   0.253   2.133  0.4029  0.4889 -0.4210
  344SOL     OW 1373   1.717   2.011   0.167 -0.1238 -0.5306  0.4288
  344SOL    HW1 1374   1.730   2.086   0.116 -0.2515 -0.6956  0.5156
  344SOL    HW2 1375   1.656   1.961   0.116 -0.2465  0.9865 -0.0529
  344SOL     MW 1376   1.711   2.014   0.153 -0.1568 -0.3522  0.3767
  345SOL     OW 1377   0.751   1.580   2.345  0.0394  0.2420 -0.2581
  345SOL    HW1 1378   0.672   1.608   2.294  1.9900  0.9469 -1.4283
  345SOL    HW2 1379   0.815   1.563   2.278 -2.8569 -0.3926 -2.1237
  345SOL     MW 1380   0.749   1.581   2.329 -0.0854  0.2513 -0.6586
  346SOL     OW 1381   1.766   1.088   0.037 -0.1076  0.2328  0.0080
  346SOL    HW1 1382   1.862   1.100   0.041 -1.3704  4.4722  0.4103
  346SOL    HW2 1383   1.736   1.024   0.105 -1.8062  0.2895 -1.2966
  346SOL     MW 1384   1.775   1.081   0.046 -0.4983  0.7996 -0.1110
  347SOL     OW 1385   1.205   0.680   2.285 -0.1440 -0.4506  0.1306
  347SOL    HW1 1386   1.297   0.650   2.300  0.7799 -1.2232 -1.1395
  347SOL    HW2 1387   1.177   0.707   2.373 -0.7101 -0.9059  2.1861
  347SOL     MW 1388   1.213   0.680   2.299 -0.0968 -0.6126  0.2342
  348SOL     OW 1389   1.377   2.682   1.929 -0.3122 -0.7405 -0.5531
  348SOL    HW1 1390   1.426   2.599   1.961 -0.5323 -0.5267 -1.2950
  348SOL    HW2 1391   1.406   2.763   1.972  0.1470  2.0761  1.7931
  348SOL     MW 1392   1.387   2.682   1.939 -0.2806 -0.3407 -0.3414
  349SOL     OW 1393   1.449   0.251   2.713  0.0877  0.0732  0.3151
  349SOL    HW1 1394   1.385   0.284   2.776 -1.7805 -0.6293  1.9786
  349SOL    HW2 1395   1.518   0.225   2.768 -2.6421 -0.3470 -3.0748
  349SOL     MW 1396   1.450   0.252   2.728 -0.5189 -0.0749  0.0873
  350SOL     OW 1397   1.843   0.659   2.672  0.0597 -0.3201 -0.1427
  350SOL    HW1 1398   1.768   0.616   2.622  0.6948  1.4435 -0.2037
  350SOL    HW2 1399   1.908   0.596   2.686 -1.6323  1.2397  1.2093
  350SOL     MW 1400   1.841   0.645   2.668 -0.0798  0.1184  0.0276
  351SOL     OW 1401   0.099   1.062   1.530  0.2130  0.5424  0.3361
  351SOL    HW1 1402   0.035   1.046   1.598  0.5531 -0.9691 -1.2195
  351SOL    HW2 1403   0.163   1.113   1.576 -1.6967 -0.6600 -3.1666
  351SOL     MW 1404   0.099   1.066   1.545  0.0059  0.1843 -0.3313
  352SOL     OW 1405   0.812   1.650   2.702 -0.3520  0.0906  0.3268
  352SOL    HW1 1406   0.893   1.630   2.758  0.3080  0.8135 -0.4600
  352SOL    HW2 1407   0.796   1.564   2.661 -1.0959 -1.8423 -0.9468
  352SOL     MW 1408   0.821   1.636   2.704 -0.3631 -0.0690  0.0549
  353SOL     OW 1409   3.058   2.510   2.642  0.0922 -0.1872  0.0978
  353SOL    HW1 1410   3.157   2.509   2.645  2.7815  0.1096  1.0696
  353SOL    HW2 1411   3.031   2.605   2.629  0.9596 -0.0911  3.0005
  353SOL     MW 1412   3.067   2.523   2.641  0.5615 -0.1354  0.6090
  354SOL     OW 1413   0.244   2.482   0.805  0.2677  0.0414  0.1590
  354SOL    HW1 1414   0.313   2.472   0.869 -2.4656  2.0442  1.2180
  354SOL    HW2 1415   0.198   2.401   0.821  0.2441 -0.7414  2.3976
  354SOL     MW 1416   0.247   2.470   0.816 -0.0961  0.2024  0.5940
  355SOL     OW 1417   0.035   2.253   0.392 -0.6845  0.1888 -0.0245
  355SOL    HW1 1418  -0.041   2.197   0.412 -0.2796 -0.6625 -2.7989
  355SOL    HW2 1419   0.053   2.306   0.471 -0.0088 -2.4122 -0.4429
  355SOL     MW 1420   0.027   2.253   0.405 -0.5419 -0.2667 -0.4457
  356SOL     OW 1421   0.851   2.821   0.997 -0.3227  0.1036 -0.5870
  356SOL    HW1 1422   0.865   2.875   0.911 -0.3455 -0.0529 -0.9229
  356SOL    HW2 1423   0.758   2.814   1.006  1.2875 -1.7763  0.5485
  356SOL     MW 1424   0.841   2.827   0.987 -0.1133 -0.1651 -0.4815
  357SOL     OW 1425   1.780   2.908   0.403 -0.3191  0.2538 -0.2565
  357SOL    HW1 1426   1.735   2.844   0.457  0.4072 -0.2791 -2.0626
  357SOL    HW2 1427   1.872   2.880   0.416 -0.0997  0.5141 -1.2439
  357SOL     MW 1428   1.786   2.896   0.412 -0.1943  0.2179 -0.6251
  358SOL     OW 1429   0.453   0.161   1.061 -0.0533 -0.0994 -0.3056
  358SOL    HW1 1430   0.546   0.130   1.051  1.2195 -2.5964  0.3443
  358SOL    HW2 1431   0.409   0.157   0.975  2.0151 -0.8658 -0.8756
  358SOL     MW 1432   0.460   0.157   1.048  0.3875 -0.5300 -0.2951
  359SOL     OW 1433   0.846   2.917   1.860 -0.1637 -0.7890 -0.3133
  359SOL    HW1 1434   0.853   2.822   1.856 -0.4132  0.3002 -3.6748
  359SOL    HW2 1435   0.872   2.950   1.776  0.9997 -3.2523 -0.1925
  359SOL     MW 1436   0.850   2.909   1.848 -0.0431 -0.9703 -0.7409
  360SOL     OW 1437   0.574   2.769   0.919  0.1019  0.2316 -0.1491
  360SOL    HW1 1438   0.553   2.714   0.846  1.3736 -0.7613  0.4131
  360SOL    HW2 1439   0.578   2.703   0.990  2.6559  0.2923  0.5256
  360SOL     MW 1440   0.571   2.753   0.918  0.6067  0.1086  0.0141
  361SOL     OW 1441   0.182   2.649   1.338  0.5172 -0.1591  0.2102
  361SOL    HW1 1442   0.168   2.724   1.397  2.2187  1.7572  0.3078
  361SOL    HW2 1443   0.279   2.639   1.341  1.3608 -0.8055  0.9147
  361SOL     MW 1444   0.193   2.657   1.346  0.8530  0.0084  0.3160
  362SOL     OW 1445   1.493   2.393   0.638  0.1953 -0.1705 -0.0991
  362SOL    HW1 1446   1.476   2.345   0.718  1.9051 -0.8970  1.1957
  362SOL    HW2 1447   1.554   2.462   0.666 -2.0572 -0.0464  0.5754
  362SOL     MW 1448   1.499   2.396   0.652  0.1237 -0.2500  0.1607
  363SOL     OW 1449   0.301   3.072   0.668 -0.3109 -0.1324 -0.2467
  363SOL    HW1 1450   0.306   3.026   0.751 -0.9126  1.6915 -0.0168
  363SOL    HW2 1451   0.211   3.093   0.633 -2.0520  2.8743 -1.0734
  363SOL     MW 1452   0.290   3.069   0.674 -0.6200  0.5050 -0.3254
  364SOL     OW 1453   0.717   0.163   0.203  0.9821  0.2083 -0.3495
  364SOL    HW1 1454   0.640   0.105   0.234  1.1787 -0.0627 -0.1906
  364SOL    HW2 1455   0.673   0.224   0.141  0.7853 -0.8423 -3.9949
  364SOL     MW 1456   0.701   0.163   0.199  0.9821  0.0339 -0.8095
  365SOL     OW 1457   0.976   2.018   1.105  0.1085  0.7838  0.7852
  365SOL    HW1 1458   0.958   2.107   1.068  0.3986 -2.4369 -0.0963
  365SOL    HW2 1459   0.909   1.962   1.062  0.0058 -0.7301  1.0202
  365SOL     MW 1460   0.965   2.022   1.095  0.1332  0.1591  0.6999
  366SOL     OW 1461   2.844   2.682   1.022  0.6444  0.4575  0.0738
  366SOL    HW1 1462   2.924   2.659   1.081 -0.5513  1.3889  0.0371
  366SOL    HW2 1463   2.880   2.689   0.932  0.4035 -0.0618  0.4677
  366SOL     MW 1464   2.860   2.680   1.018  0.4549  0.5119  0.1209
  367SOL     OW 1465   1.230   2.957   0.866 -0.2040  0.5231  0.0038
  367SOL    HW1 1466   1.243   3.038   0.819 -2.1091  2.4697  0.5729
  367SOL    HW2 1467   1.212   2.882   0.802 -0.1587 -0.0756 -1.1970
  367SOL     MW 1468   1.229   2.957   0.851 -0.4494  0.7010 -0.0796
  368SOL     OW 1469   1.659   0.408   0.702  0.2036  0.5735  0.2420
  368SOL    HW1 1470   1.733   0.364   0.654  2.0271 -0.8314 -0.0816
  368SOL    HW2 1471   1.691   0.496   0.705  2.9178 -2.3621 -1.8233
  368SOL     MW 1472   1.673   0.414   0.696  0.8023  0.0008 -0.0732
  369SOL     OW 1473   0.130   2.487   1.749 -0.0896 -0.5776  1.1883
  369SOL    HW1 1474   0.230   2.489   1.778  2.4189 -0.4070  0.6909
  369SOL    HW2 1475   0.097   2.582   1.748 -2.3100  0.7216 -0.8877
  369SOL     MW 1476   0.139   2.500   1.753 -0.0516 -0.3837  0.8488
  370SOL     OW 1477   0.721   0.097   1.030 -0.2488 -0.0791  0.2402
  370SOL    HW1 1478   0.737   0.191   1.009 -1.6971 -1.4799 -0.6677
  370SOL    HW2 1479   0.802   0.066   1.074  1.3783  0.9956 -5.4830
  370SOL     MW 1480   0.734   0.105   1.033 -0.2252 -0.1222 -0.6347
  371SOL     OW 1481   1.306   2.925   1.521  0.4541 -0.0193  0.1232
  371SOL    HW1 1482   1.235   2.867   1.493 -1.1053  0.0565 -0.7340
  371SOL    HW2 1483   1.316   2.993   1.450 -0.3447  0.9563  1.0620
  371SOL     MW 1484   1.298   2.927   1.508  0.1430  0.1194  0.1339
  372SOL     OW 1485   0.740   2.300   0.461 -0.1129 -0.7587 -0.4880
  372SOL    HW1 1486   0.729   2.208   0.473  2.0080  1.8233 -1.6364
  372SOL    HW2 1487   0.789   2.298   0.375 -1.2579 -0.4392  2.6603
  372SOL     MW 1488   0.745   2.287   0.451  0.0159 -0.3759 -0.2241
  373SOL     OW 1489   2.762   2.997   1.449  0.3275 -0.1465 -0.5069
  373SOL    HW1 1490   2.849   2.967   1.433  0.3166 -1.1783  1.2790
  373SOL    HW2 1491   2.751   3.059   1.378  1.7402  1.1115 -1.5053
  373SOL     MW 1492   2.772   3.001   1.437  0.5125 -0.1167 -0.4030
  374SOL     OW 1493   1.531   0.470   0.235  0.2692 -0.3682 -0.2198
  374SOL    HW1 1494   1.588   0.395   0.222 -2.6410 -1.0084  2.3086
  374SOL    HW2 1495   1.495   0.463   0.322 -0.4986  1.8774  0.1820
  374SOL     MW 1496   1.534   0.459   0.245 -0.2161 -0.1564  0.1668
  375SOL     OW 1497   0.966   2.121   2.282 -0.0324 -0.0651 -0.3283
  375SOL    HW1 1498   1.028   2.120   2.352  3.6174 -1.0209 -0.9734
  375SOL    HW2 1499   1.002   2.051   2.217  2.6854  2.6711 -0.4296
  375SOL     MW 1500   0.979   2.112   2.282  0.8078  0.1698 -0.4268
  376SOL     OW 1501   0.756   2.568   0.080  0.4172 -0.4875  0.2331
  376SOL    HW1 1502   0.673   2.549   0.139  0.5395 -1.2767 -0.6275
  376SOL    HW2 1503   0.752   2.504   0.005 -0.8352 -3.1318  0.2548
  376SOL     MW 1504   0.745   2.557   0.078  0.2681 -0.9405  0.1224
  377SOL     OW 1505   1.283   2.010   0.876 -0.0757  0.2189 -0.0951
  377SOL    HW1 1506   1.206   1.999   0.821  0.3111  1.1988  2.9884
  377SOL    HW2 1507   1.268   1.958   0.953  2.9756 -1.4844 -1.6094
  377SOL     MW 1508   1.271   2.002   0.879  0.3779  0.1235  0.1120
  378SOL     OW 1509   0.902   2.817   1.569 -0.4963  0.6365 -0.0733
  378SOL    HW1 1510   0.884   2.721   1.559 -0.9085 -2.0502  1.4964
  378SOL    HW2 1511   0.880   2.871   1.488 -0.3626 -0.2943 -1.0988
  378SOL     MW 1512   0.896   2.811   1.557 -0.5330  0.1592 -0.0015
  379SOL     OW 1513   1.156   1.775   2.279 -0.5049  0.2116 -0.5669
  379SOL    HW1 1514   1.062   1.768   2.261 -0.0850 -1.5264  0.6501
  379SOL    HW2 1515   1.189   1.711   2.212  3.3345  0.6208 -0.4200
  379SOL     MW 1516   1.148   1.766   2.268  0.0571  0.0363 -0.3869
  380SOL     OW 1517   0.801   0.109   1.627  0.3550 -0.1691  0.2946
  380SOL    HW1 1518   0.818   0.141   1.540 -0.2657  3.3783 -1.3988
  380SOL    HW2 1519   0.889   0.109   1.665 -0.8028 -1.0328  0.1244
  380SOL     MW 1520   0.815   0.113   1.620  0.1203  0.1850  0.0487
  381SOL     OW 1521   0.812   2.050   0.794 -0.2433 -0.1080  0.6607
  381SOL    HW1 1522   0.899   2.018   0.776 -1.7697  0.2504 -2.1967
  381SOL    HW2 1523   0.816   2.100   0.879  1.5675 -2.7033 -1.1823
  381SOL     MW 1524   0.824   2.052   0.803 -0.2058 -0.4031  0.0405
  382SOL     OW 1525   0.686   0.072   0.723  0.7361 -0.0967 -0.0871
  382SOL    HW1 1526   0.697   0.053   0.809  1.9576  0.4237 -1.3402
  382SOL    HW2 1527   0.653  -0.008   0.674  0.8792 -0.6223 -0.4427
  382SOL     MW 1528   0.683   0.059   0.728  0.9162 -0.0974 -0.2994
  383SOL     OW 1529   0.535   3.081   0.284 -0.4779 -0.1659 -0.2652
  383SOL    HW1 1530   0.549   3.030   0.206  2.2801  0.9030  0.9061
  383SOL    HW2 1531   0.494   3.033   0.351 -1.4544  1.3538 -0.0275
  383SOL     MW 1532   0.532   3.068   0.282 -0.2428  0.1756 -0.0793
  384SOL     OW 1533   0.694   2.920   0.622  0.7250 -0.1674 -0.6012
  384SOL    HW1 1534   0.783   2.906   0.658  1.5475  0.4422 -0.4276
  384SOL    HW2 1535   0.641   2.847   0.658  1.2259  0.4240  2.7342
  384SOL     MW 1536   0.699   2.909   0.632  0.8996 -0.0089 -0.1382
  385SOL     OW 1537   1.384   2.099   1.523  0.1840 -0.1864 -0.0100
  385SOL    HW1 1538   1.478   2.120   1.557 -0.8747 -2.2299  2.2681
  385SOL    HW2 1539   1.336   2.035   1.573  1.4227  1.8364 -0.4708
  385SOL     MW 1540   1.390   2.093   1.534  0.2077 -0.1891  0.2298
  386SOL     OW 1541   1.306   0.416   0.898  0.1401 -0.2568  0.0149
  386SOL    HW1 1542   1.220   0.444   0.937  1.4210 -0.8804 -0.7635
  386SOL    HW2 1543   1.342   0.339   0.945  1.7952 -0.7014  0.0449
  386SOL     MW 1544   1.299   0.409   0.909  0.5274 -0.3977 -0.0839
  387SOL     OW 1545   0.810   2.197   1.524  0.1387 -0.0316  0.4329
  387SOL    HW1 1546   0.818   2.282   1.487  0.6279  0.1618  1.2638
  387SOL    HW2 1547   0.853   2.136   1.466 -1.6398 -0.6551  0.2862
  387SOL     MW 1548   0.817   2.200   1.512 -0.0314 -0.0884  0.5232
  388SOL     OW 1549   1.540   2.789   1.195 -0.3924 -0.3628 -0.5017
  388SOL    HW1 1550   1.453   2.751   1.175 -0.3337 -2.0169 -2.1004
  388SOL    HW2 1551   1.585   2.707   1.185 -2.2792 -1.7537  1.8953
  388SOL     MW 1552   1.534   2.773   1.191 -0.6336 -0.7645 -0.3963
  389SOL     OW 1553   0.437   0.095   3.025 -0.3260  0.1933  0.1974
  389SOL    HW1 1554   0.521   0.060   3.008 -1.8661 -0.2529  3.4836
  389SOL    HW2 1555   0.407   0.131   2.946 -0.4565 -2.3334  2.3025
  389SOL     MW 1556   0.444   0.095   3.012 -0.5464 -0.1990  0.9087
  390SOL     OW 1557   1.297   0.086   0.705  0.0989 -0.0712  0.2046
  390SOL    HW1 1558   1.349   0.067   0.626 -1.5209 -1.5032 -2.7125
  390SOL    HW2 1559   1.357   0.130   0.769 -2.4688 -0.4491 -1.3394
  390SOL     MW 1560   1.311   0.090   0.703 -0.4536 -0.3100 -0.3840
  391SOL     OW 1561   0.335   2.215   1.414  0.6975  0.8196  0.2288
  391SOL    HW1 1562   0.298   2.120   1.423  1.6922  0.4556 -0.3510
  391SOL    HW2 1563   0.257   2.262   1.438  1.1155  2.1570 -1.2775
  391SOL     MW 1564   0.320   2.208   1.418  0.8839  0.9480 -0.0465
  392SOL     OW 1565   2.050   2.209   0.317 -0.5015  0.0237  0.0357
  392SOL    HW1 1566   2.121   2.213   0.379  0.4791  2.6191 -0.5391
  392SOL    HW2 1567   1.992   2.277   0.359 -1.9665  0.9454  1.8256
  392SOL     MW 1568   2.052   2.219   0.331 -0.5654  0.4878  0.1960
  393SOL     OW 1569   0.203   2.992   2.782  0.5908 -0.7512  0.4208
  393SOL    HW1 1570   0.270   2.965   2.721 -2.6827 -0.9271  0.8351
  393SOL    HW2 1571   0.210   3.088   2.790  0.7081  1.6819  3.6430
  393SOL     MW 1572   0.212   3.001   2.775  0.1744 -0.4534  0.9006
  394SOL     OW 1573   0.864   1.737   1.562 -0.2047  0.2374 -0.0491
  394SOL    HW1 1574   0.808   1.756   1.635 -1.5796 -0.1022 -1.1440
  394SOL    HW2 1575   0.868   1.829   1.519 -1.5646 -0.2467  1.3577
  394SOL     MW 1576   0.857   1.751   1.566 -0.5655  0.1287 -0.0079
  395SOL     OW 1577   0.997   2.843   2.651 -0.4772 -0.0686  0.3490
  395SOL    HW1 1578   1.067   2.909   2.658 -1.7667 -0.8250  1.9181
  395SOL    HW2 1579   1.047   2.772   2.603  0.0898 -1.0071 -1.9762
  395SOL     MW 1580   1.013   2.842   2.645 -0.5726 -0.2922  0.2492
  396SOL     OW 1581   0.724   1.841   2.383 -0.4362 -0.2901 -0.5593
  396SOL    HW1 1582   0.789   1.876   2.446  0.6795 -2.7533  2.3456
  396SOL    HW2 1583   0.742   1.749   2.392 -1.0823  3.2507 -1.6973
  396SOL     MW 1584   0.735   1.834   2.392 -0.3742 -0.1480 -0.3262
  397SOL     OW 1585   1.010   2.312   1.297  0.1794  0.2396  0.3189
  397SOL    HW1 1586   1.043   2.354   1.220  0.0463 -1.4745  1.4720
  397SOL    HW2 1587   1.084   2.282   1.358  0.8271  0.9647 -1.1375
  397SOL     MW 1588   1.024   2.314   1.295  0.2473  0.1091  0.2789
  398SOL     OW 1589   0.532   2.643   0.679 -0.3883  0.4813 -0.2200
  398SOL    HW1 1590   0.459   2.609   0.620 -1.0953 -0.2389  1.5734
  398SOL    HW2 1591   0.616   2.601   0.649 -1.1745 -2.4068  1.7894
  398SOL     MW 1592   0.534   2.633   0.668 -0.5853  0.0052  0.2818
  399SOL     OW 1593   0.239   2.081   0.321 -0.0909  0.0228  0.0121
  399SOL    HW1 1594   0.178   2.155   0.338 -0.0445  0.3330  0.6119
  399SOL    HW2 1595   0.281   2.100   0.236  2.4096  2.0593 -2.8388
  399SOL     MW 1596   0.237   2.094   0.312  0.2451  0.3324 -0.2849
  400SOL     OW 1597   0.495   1.944   0.106  0.0826  0.0655 -0.4182
  400SOL    HW1 1598   0.460   2.033   0.103  0.4558  0.7527 -0.5720
  400SOL    HW2 1599   0.499   1.927   0.198  0.8636  0.8722 -1.1441
  400SOL     MW 1600   0.491   1.953   0.117  0.2349  0.2626 -0.5343
  401SOL     OW 1601   0.754   2.048   0.080 -0.0701  0.7933 -0.4011
  401SOL    HW1 1602   0.820   1.973   0.099  0.6779  0.4558 -0.2746
  401SOL    HW2 1603   0.666   2.024   0.056 -0.3712  0.8065 -0.6867
  401SOL     MW 1604   0.751   2.035   0.080 -0.0112  0.7505 -0.4221
  402SOL     OW 1605   0.596   2.963   1.793 -0.0298  0.1255 -0.5173
  402SOL    HW1 1606   0.677   2.922   1.821 -0.6899  0.5780 -0.6088
  402SOL    HW2 1607   0.624   3.045   1.752  0.7931 -1.3263  0.0865
  402SOL     MW 1608   0.611   2.969   1.791 -0.0083 -0.0063 -0.4497
  403SOL     OW 1609   0.062   0.445   0.362  0.2064  0.0794  0.5545
  403SOL    HW1 1610   0.138   0.459   0.423 -1.1751 -2.5586  1.7767
  403SOL    HW2 1611   0.098   0.454   0.271  0.7633 -0.2129  0.0811
  403SOL     MW 1612   0.077   0.448   0.358  0.0976 -0.3072  0.6533
  404SOL     OW 1613   0.929   2.930   0.757  0.2655 -0.0830  0.6544
  404SOL    HW1 1614   0.997   2.859   0.768 -0.8528 -1.1495 -0.6141
  404SOL    HW2 1615   0.961   3.011   0.711  0.0235  0.3127 -2.8610
  404SOL     MW 1616   0.942   2.931   0.752  0.0860 -0.1715  0.0232
  405SOL     OW 1617   0.521   2.401   1.537  0.2551 -0.1466  0.7875
  405SOL    HW1 1618   0.520   2.479   1.485  1.3719  0.2327  1.4698
  405SOL    HW2 1619   0.481   2.330   1.482 -3.2990 -2.5278 -1.1174
  405SOL     MW 1620   0.516   2.402   1.523 -0.0664 -0.4107  0.6262
  406SOL     OW 1621   0.396   2.408   1.063 -0.9281 -0.2152  0.2554
  406SOL    HW1 1622   0.301   2.409   1.081 -2.5004 -1.5010  1.5607
  406SOL    HW2 1623   0.419   2.317   1.075  0.4482 -0.8637  2.7133
  406SOL     MW 1624   0.386   2.396   1.067 -0.9540 -0.4704  0.7519
  407SOL     OW 1625  -0.000   2.670   1.153 -0.0510 -0.4321 -0.4202
  407SOL    HW1 1626   0.072   2.662   1.223  0.9537  0.0947  0.7906
  407SOL    HW2 1627   0.050   2.677   1.074  2.1950  0.8075 -1.2643
  407SOL     MW 1628   0.016   2.670   1.152  0.3779 -0.1990 -0.3718
  408SOL     OW 1629   2.163   2.143   0.687  0.5623  0.6131 -0.5788
  408SOL    HW1 1630   2.102   2.161   0.760  1.7559  1.5310 -2.4956
  408SOL    HW2 1631   2.118   2.078   0.626  3.8851 -2.1893 -2.0455
  408SOL     MW 1632   2.149   2.137   0.689  1.1582  0.3644 -1.0252
  409SOL     OW 1633   1.462   0.141   0.906 -0.4900 -0.1301  0.6535
  409SOL    HW1 1634   1.544   0.186   0.902 -0.9797 -0.5883  2.1352
  409SOL    HW2 1635   1.453   0.099   0.993  0.4578  0.0425  0.1439
  409SOL     MW 1636   1.472   0.141   0.917 -0.4296 -0.1678  0.7818
  410SOL     OW 1637   1.110   2.476   1.097  0.1232 -0.1418  0.8827
  410SOL    HW1 1638   1.051   2.519   1.033  0.0624  0.5603  2.4890
  410SOL    HW2 1639   1.164   2.412   1.047 -0.9161 -3.0091 -2.5569
  410SOL     MW 1640   1.109   2.473   1.082 -0.0220 -0.4275  0.6408
  411SOL     OW 1641   1.979   0.052   2.901  0.0421  0.6278 -0.3863
  411SOL    HW1 1642   1.916   0.019   2.843  0.9188  0.5749  0.9811
  411SOL    HW2 1643   1.935   0.118   2.959 -1.3008 -0.5345 -1.5359
  411SOL     MW 1644   1.965   0.056   2.901 -0.0194  0.4674 -0.3576
  412SOL     OW 1645   1.010   2.270   0.604  0.5687 -0.1461  0.2510
  412SOL    HW1 1646   1.051   2.356   0.601 -0.3596 -0.3558 -2.6206
  412SOL    HW2 1647   0.926   2.261   0.549 -2.3923 -4.2087 -2.7517
  412SOL     MW 1648   1.004   2.280   0.596  0.0555 -0.7097 -0.5241
  413SOL     OW 1649   0.572   2.749   3.058  0.4810 -0.1078 -0.5762
  413SOL    HW1 1650   0.630   2.670   3.079  2.4837 -1.8720 -0.0247
  413SOL    HW2 1651   0.612   2.787   2.979 -2.4868 -1.6908  3.4153
  413SOL     MW 1652   0.585   2.743   3.051  0.3537 -0.5494  0.0232
  414SOL     OW 1653   1.923   2.948   1.063 -0.3163  0.7944  0.0945
  414SOL    HW1 1654   1.862   2.966   0.993 -0.3995  1.0357  2.4737
  414SOL    HW2 1655   1.993   3.015   1.049  1.4029 -1.0580 -1.2146
  414SOL     MW 1656   1.924   2.959   1.052 -0.1004  0.5818  0.2357
  415SOL     OW 1657   1.809   2.636   1.081  0.5134  0.5461  0.1996
  415SOL    HW1 1658   1.840   2.619   1.174  1.6521  0.0775  1.1055
  415SOL    HW2 1659   1.838   2.722   1.052 -0.5951  0.2825 -0.9227
  415SOL     MW 1660   1.817   2.645   1.090  0.5174  0.4495  0.1711
  416SOL     OW 1661   0.574   1.957   1.381 -0.2373  0.5936 -0.3797
  416SOL    HW1 1662   0.535   1.990   1.301 -2.3059  0.5841  0.0795
  416SOL    HW2 1663   0.545   1.863   1.379  1.8046  1.2103  0.3382
  416SOL     MW 1664   0.565   1.949   1.371 -0.2409  0.6737 -0.2244
  417SOL     OW 1665   1.003   3.060   2.078 -0.4714  0.1170  0.2059
  417SOL    HW1 1666   0.967   3.073   2.166  2.5135  1.5752 -3.0629
  417SOL    HW2 1667   0.936   3.004   2.031 -2.3157 -2.2856 -3.1092
  417SOL     MW 1668   0.990   3.054   2.084 -0.3209 -0.0076 -0.6628
  418SOL     OW 1669   0.729   2.914   0.126 -0.0979  0.3273 -0.0977
  418SOL    HW1 1670   0.812   2.906   0.079  0.4045 -0.2222  1.0104
  418SOL    HW2 1671   0.668   2.869   0.062  0.3514  0.4377  1.5459
  418SOL     MW 1672   0.732   2.907   0.112  0.0277  0.2694  0.2653
  419SOL     OW 1673   0.451   2.621   1.369 -0.2886 -0.4828 -0.8900
  419SOL    HW1 1674   0.515   2.675   1.428  0.0483 -0.5967 -4.6657
  419SOL    HW2 1675   0.490   2.636   1.278 -0.3728  1.7614  0.7579
  419SOL     MW 1676   0.465   2.630   1.365 -0.2552 -0.2017 -1.1707
  420SOL     OW 1677   0.854   2.236   0.968 -0.2551 -0.0257  0.2040
  420SOL    HW1 1678   0.800   2.246   1.049 -0.2945 -2.3928 -0.0413
  420SOL    HW2 1679   0.890   2.321   0.967  1.4310  0.4075  2.9788
  420SOL     MW 1680   0.851   2.249   0.978 -0.0378 -0.2808  0.5377
  421SOL     OW 1681   2.945   0.130   3.071  0.4249  0.1395 -0.8535
  421SOL    HW1 1682   2.888   0.083   3.006  1.4353  0.0620  1.8818
  421SOL    HW2 1683   2.997   0.056   3.105 -0.5902  2.1666  1.6385
  421SOL     MW 1684   2.945   0.114   3.067  0.4243  0.3968 -0.1638
  422SOL     OW 1685   0.885   2.532   0.888 -0.0415 -0.1859  0.5574
  422SOL    HW1 1686   0.884   2.626   0.886  0.9966 -0.2106 -0.4736
  422SOL    HW2 1687   0.833   2.506   0.814 -0.6321 -0.2527 -2.1152
  422SOL     MW 1688   0.878   2.541   0.878  0.0175 -0.1980  0.0688
  423SOL     OW 1689   1.446   0.097   0.478 -0.2089 -0.5919 -0.6804
  423SOL    HW1 1690   1.410   0.064   0.397 -0.0360 -0.1236 -2.2574
  423SOL    HW2 1691   1.427   0.192   0.462  1.3153 -1.0829  0.2634
  423SOL     MW 1692   1.438   0.105   0.465  0.0150 -0.5949 -0.7640
  424SOL     OW 1693   0.699   2.280   1.196 -0.0500  0.2771 -0.2172
  424SOL    HW1 1694   0.616   2.235   1.212 -3.0788  0.3486  1.8870
  424SOL    HW2 1695   0.757   2.245   1.266  0.2473 -0.7467  0.5477
  424SOL     MW 1696   0.696   2.269   1.207 -0.4104  0.1515  0.1614
  425SOL     OW 1697   1.746   2.814   2.063 -0.1168 -0.0028 -0.1058
  425SOL    HW1 1698   1.754   2.832   1.972 -1.0686  1.2661  1.3211
  425SOL    HW2 1699   1.750   2.720   2.084  0.0755 -1.5496 -0.4904
  425SOL     MW 1700   1.748   2.804   2.054 -0.2170 -0.0395  0.0317
  426SOL     OW 1701   0.792   1.696   1.948  0.5509 -0.3923  0.3431
  426SOL    HW1 1702   0.741   1.727   1.875 -0.0268  1.3509  1.6567
  426SOL    HW2 1703   0.807   1.771   2.004 -1.5935  0.9596 -0.9423
  426SOL     MW 1704   0.787   1.710   1.946  0.1918  0.0161  0.3468
  427SOL     OW 1705   0.352   1.645   1.902  0.7665  0.0640 -0.4200
  427SOL    HW1 1706   0.399   1.579   1.854 -0.4826  1.1824 -0.8233
  427SOL    HW2 1707   0.280   1.600   1.948 -0.5219  0.3929  1.7074
  427SOL     MW 1708   0.349   1.630   1.902  0.4317  0.2550 -0.1925
  428SOL     OW 1709   0.591   2.592   1.130  0.5916  0.3000 -0.2992
  428SOL    HW1 1710   0.663   2.551   1.163 -0.1614 -0.2071  2.0404
  428SOL    HW2 1711   0.523   2.533   1.100  1.1719 -0.4781  1.3592
  428SOL     MW 1712   0.591   2.579   1.131  0.5689  0.1304  0.2283
  429SOL     OW 1713   1.263   2.787   1.086 -0.4830 -0.2807  1.1245
  429SOL    HW1 1714   1.185   2.784   1.145  0.1856 -1.2622  2.9227
  429SOL    HW2 1715   1.243   2.857   1.020  0.8821  1.2568  2.0214
  429SOL     MW 1716   1.250   2.796   1.085 -0.2147 -0.2073  1.4801
  430SOL     OW 1717   1.134   2.753   0.721  0.2036 -0.1789 -0.1339
  430SOL    HW1 1718   1.146   2.659   0.737 -1.2443  0.3338 -2.1079
  430SOL    HW2 1719   1.110   2.750   0.622 -2.8687  1.4223 -1.9775
  430SOL     MW 1720   1.133   2.740   0.710 -0.3928  0.1000 -0.6376
  431SOL     OW 1721   0.354   1.928   1.062 -0.4423 -0.2004  0.6091
  431SOL    HW1 1722   0.420   1.861   1.051  0.4127  0.9652 -2.3617
  431SOL    HW2 1723   0.305   1.929   0.980 -1.6458 -1.1025 -1.5191
  431SOL     MW 1724   0.356   1.919   1.050 -0.4883 -0.1656 -0.0636
  432SOL     OW 1725   0.074   0.025   1.218  0.1656  0.3202  0.2888
  432SOL    HW1 1726   0.092   0.076   1.295  0.7079 -1.9558 -2.4149
  432SOL    HW2 1727   0.013  -0.045   1.252 -0.4546  0.5709  1.5438
  432SOL     MW 1728   0.068   0.023   1.233  0.1553  0.0530  0.0977
  433SOL     OW 1729   0.618   2.802   1.512  0.2784  0.3009 -0.1423
  433SOL    HW1 1730   0.623   2.792   1.609 -1.3450  0.0198 -2.8319
  433SOL    HW2 1731   0.710   2.833   1.501  0.3284  0.5327  2.1867
  433SOL     MW 1732   0.631   2.805   1.524  0.0708  0.2944 -0.1898
  434SOL     OW 1733   1.593   2.856   1.511 -0.3707 -0.0601  0.0764
  434SOL    HW1 1734   1.498   2.884   1.513 -0.9223 -1.7168 -1.1739
  434SOL    HW2 1735   1.589   2.788   1.444  1.4162  1.4153 -2.5408
  434SOL     MW 1736   1.580   2.851   1.503 -0.2077 -0.0840 -0.4339
  435SOL     OW 1737   2.845   1.790   0.210  0.3465  0.0470  0.2667
  435SOL    HW1 1738   2.917   1.856   0.181 -0.2934  0.4329  2.0017
  435SOL    HW2 1739   2.808   1.757   0.129 -1.2831 -2.4319 -0.3519
  435SOL     MW 1740   2.850   1.794   0.195  0.0470 -0.2292  0.4140
  436SOL     OW 1741   1.321   2.707   0.400  0.0892 -0.2895  0.5236
  436SOL    HW1 1742   1.390   2.694   0.460 -1.1538 -0.5037  1.9256
  436SOL    HW2 1743   1.261   2.781   0.430  1.5678  1.9966  1.7070
  436SOL     MW 1744   1.322   2.715   0.412  0.1203 -0.0161  0.8647
  437SOL     OW 1745   0.847   2.957   1.345  0.2198 -0.1607 -0.1795
  437SOL    HW1 1746   0.897   3.038   1.351 -0.2356  0.3451 -1.5485
  437SOL    HW2 1747   0.895   2.906   1.278 -1.4734  2.8100 -1.6183
  437SOL     MW 1748   0.860   2.961   1.337 -0.0637  0.2980 -0.5500
  438SOL     OW 1749   0.823   2.639   1.871 -0.4923 -0.2877 -0.7358
  438SOL    HW1 1750   0.797   2.628   1.960 -0.4998  1.7989 -3.3332
  438SOL    HW2 1751   0.805   2.553   1.826  0.9702 -2.3803 -0.7237
  438SOL     MW 1752   0.817   2.626   1.877 -0.3003 -0.2885 -1.0769
  439SOL     OW 1753   1.231   2.181   0.440  0.4655 -0.0853 -0.5398
  439SOL    HW1 1754   1.150   2.212   0.489 -0.3543 -0.4905 -1.9282
  439SOL    HW2 1755   1.217   2.232   0.360  0.3508 -0.2272  0.7775
  439SOL     MW 1756   1.219   2.192   0.436  0.3422 -0.1575 -0.5492
  440SOL     OW 1757   1.764   3.006   3.072  0.1409  0.1263 -0.1182
  440SOL    HW1 1758   1.711   2.983   3.150 -0.0147  1.3597 -0.7869
  440SOL    HW2 1759   1.847   2.959   3.082 -2.7115  2.5475  2.0709
  440SOL     MW 1760   1.768   2.996   3.083 -0.2560  0.6085  0.0824
  441SOL     OW 1761   0.312   2.623   0.460 -0.3313 -0.1560  0.3569
  441SOL    HW1 1762   0.288   2.600   0.374 -0.9833  2.5869  1.7780
  441SOL    HW2 1763   0.336   2.718   0.452  1.9417 -0.2752 -0.8243
  441SOL     MW 1764   0.312   2.632   0.447 -0.1174  0.1902  0.3886
  442SOL     OW 1765   3.061   2.432   0.607  0.5751 -0.1007  0.4863
  442SOL    HW1 1766   3.084   2.521   0.604  2.4368  2.4193  1.2300
  442SOL    HW2 1767   2.972   2.429   0.643  0.8962 -2.1439  0.3831
  442SOL     MW 1768   3.052   2.443   0.612  0.8631 -0.0378  0.5708
  443SOL     OW 1769   1.411   1.807   1.913  0.1236  0.0812  0.0253
  443SOL    HW1 1770   1.347   1.809   1.842  1.3327  1.8689  0.7988
  443SOL    HW2 1771   1.389   1.736   1.971 -3.2993  1.9452 -1.6544
  443SOL     MW 1772   1.400   1.798   1.911 -0.1685  0.5630 -0.0942
  444SOL     OW 1773   0.878   2.540   1.567 -0.1430  0.4909 -0.4916
  444SOL    HW1 1774   0.954   2.507   1.613 -1.1052 -0.7908 -1.8735
  444SOL    HW2 1775   0.801   2.501   1.611 -2.6990  1.6386  0.9339
  444SOL     MW 1776   0.878   2.530   1.579 -0.6072  0.4732 -0.4859
  445SOL     OW 1777   1.022   0.086   1.353  0.4584  0.3233  0.0569
  445SOL    HW1 1778   1.037   0.180   1.363 -0.4087 -0.3665  2.0976
  445SOL    HW2 1779   1.063   0.065   1.265  2.0585 -0.5900 -0.7546
  445SOL     MW 1780   1.029   0.096   1.342  0.5551  0.1118  0.2191
  446SOL     OW 1781   2.734   2.920   1.108  0.3441  0.1881  0.4270
  446SOL    HW1 1782   2.697   2.961   1.032  0.0387 -0.3355 -0.9285
  446SOL    HW2 1783   2.758   2.829   1.073  0.4297 -0.4130 -0.8802
  446SOL     MW 1784   2.733   2.913   1.093  0.3151  0.0397  0.0757
  447SOL     OW 1785   0.087   2.024   1.638  0.2695 -0.2060  0.2286
  447SOL    HW1 1786   0.121   1.947   1.684 -0.9336 -0.4382  1.6137
  447SOL    HW2 1787   0.002   1.980   1.612  0.5853 -1.5629 -5.2062
  447SOL     MW 1788   0.081   2.008   1.641  0.1524 -0.4157 -0.3057
  448SOL     OW 1789   1.737   2.407   1.600  0.0800  0.5937  0.1743
  448SOL    HW1 1790   1.700   2.318   1.595 -1.0170 -1.6970  0.2893
  448SOL    HW2 1791   1.657   2.459   1.600  1.4062 -1.8944 -2.9403
  448SOL     MW 1792   1.722   2.402   1.599  0.1102 -0.0368 -0.2215
  449SOL     OW 1793   0.797   2.835   0.377 -0.3723  0.4769 -0.1272
  449SOL    HW1 1794   0.759   2.859   0.284 -0.0677  0.0967 -0.7500
  449SOL    HW2 1795   0.741   2.873   0.454 -1.8932  1.2664  1.5122
  449SOL     MW 1796   0.785   2.843   0.375 -0.5328  0.5309  0.0070
  450SOL     OW 1797   1.207   2.478   0.697  0.0448 -0.0438  0.7696
  450SOL    HW1 1798   1.184   2.421   0.762 -1.6234  0.4544 -1.3431
  450SOL    HW2 1799   1.305   2.479   0.691  0.3175  1.4424 -0.6475
  450SOL     MW 1800   1.217   2.470   0.705 -0.1393  0.2180  0.3039
  451SOL     OW 1801   0.577   2.095   1.639 -0.5432  0.2576  0.1336
  451SOL    HW1 1802   0.633   2.171   1.618  1.9229  1.0159  0.7163
  451SOL    HW2 1803   0.554   2.057   1.558  1.0890 -0.3810 -1.3134
  451SOL     MW 1804   0.581   2.100   1.626 -0.0024  0.2734  0.0195
  452SOL     OW 1805   0.305   2.708   3.100 -0.1636 -0.1290  0.0290
  452SOL    HW1 1806   0.394   2.712   3.059  0.9821 -0.6419 -1.1241
  452SOL    HW2 1807   0.246   2.726   3.027 -1.4518  1.1199 -0.0143
  452SOL     MW 1808   0.309   2.711   3.085 -0.1824 -0.0319 -0.1289
  453SOL     OW 1809   0.351   2.941   1.684 -0.3444  0.5559  0.2019
  453SOL    HW1 1810   0.436   2.951   1.726 -1.2951 -0.7736 -0.4273
  453SOL    HW2 1811   0.369   2.967   1.589  1.3701  1.5037 -1.7501
  453SOL     MW 1812   0.365   2.945   1.677 -0.2436  0.5056 -0.1387
  454SOL     OW 1813   1.011   2.780   1.201 -0.0924 -0.1880  0.4959
  454SOL    HW1 1814   0.990   2.686   1.207 -2.1110 -1.3823 -2.3413
  454SOL    HW2 1815   0.946   2.810   1.137  0.9490  2.0197  3.3996
  454SOL     MW 1816   0.999   2.772   1.193 -0.2213 -0.0543  0.5047
  455SOL     OW 1817   1.612   2.939   0.178  0.1856  0.1707 -0.4861
  455SOL    HW1 1818   1.673   2.929   0.253  2.3475 -0.2694 -0.4677
  455SOL    HW2 1819   1.563   2.849   0.164  0.8987 -1.6642 -1.1527
  455SOL     MW 1820   1.614   2.926   0.186  0.5649 -0.1295 -0.5716
  456SOL     OW 1821   2.765   0.363   1.441 -0.5316  0.2583  0.6769
  456SOL    HW1 1822   2.721   0.294   1.395 -0.9730 -0.1642 -0.8417
  456SOL    HW2 1823   2.859   0.348   1.416  2.7158  0.8030  1.3203
  456SOL     MW 1824   2.772   0.352   1.432 -0.1614  0.2744  0.5614
  457SOL     OW 1825   0.980   1.581   2.909 -0.2252 -0.1419 -0.2588
  457SOL    HW1 1826   0.913   1.575   2.983 -1.1728 -0.9569  2.3784
  457SOL    HW2 1827   1.017   1.494   2.915  0.5511  1.4376  2.9779
  457SOL     MW 1828   0.976   1.569   2.919 -0.2478 -0.0410  0.5162
  458SOL     OW 1829   1.474   1.449   0.553 -0.1426  0.9399 -0.1957
  458SOL    HW1 1830   1.395   1.503   0.566  0.5789  0.6295  1.9149
  458SOL    HW2 1831   1.441   1.382   0.494  1.1649 -1.5748  0.6887
  458SOL     MW 1832   1.459   1.447   0.547  0.1251  0.5671  0.1994
  459SOL     OW 1833   1.447   0.091   0.205 -0.0336 -0.2214  0.0010
  459SOL    HW1 1834   1.441   0.020   0.143 -1.8064  2.3746 -1.8825
  459SOL    HW2 1835   1.387   0.152   0.164  0.6283 -0.3369  1.9146
  459SOL     MW 1836   1.438   0.089   0.191 -0.1802  0.1059  0.0050
  460SOL     OW 1837   1.783   2.194   0.619 -0.6189 -0.4516  0.3386
  460SOL    HW1 1838   1.699   2.155   0.641 -1.8621  1.0248 -0.1314
  460SOL    HW2 1839   1.852   2.129   0.603 -0.4803 -0.7486 -1.2820
  460SOL     MW 1840   1.781   2.180   0.620 -0.7647 -0.2960  0.0628
  461SOL     OW 1841   0.376   2.375   0.574 -0.3751  0.3655 -0.1010
  461SOL    HW1 1842   0.343   2.424   0.503  0.7395 -0.9080 -0.5385
  461SOL    HW2 1843   0.330   2.416   0.653  1.1792  1.7306  0.4019
  461SOL     MW 1844   0.365   2.387   0.575 -0.0230  0.3776 -0.0924
  462SOL     OW 1845   0.411   0.313   1.310 -0.1960 -0.1351  0.0800
  462SOL    HW1 1846   0.440   0.249   1.247  0.5158  0.1365  0.5229
  462SOL    HW2 1847   0.494   0.352   1.343  2.7468 -1.1229  0.8063
  462SOL     MW 1848   0.426   0.309   1.306  0.2862 -0.2296  0.2342
  463SOL     OW 1849   0.957   0.070   0.629  0.5481  0.0444  0.4859
  463SOL    HW1 1850   0.969   0.117   0.550 -0.4358  0.2909  1.7216
  463SOL    HW2 1851   0.863   0.080   0.654 -1.7664 -1.2920  0.4219
  463SOL     MW 1852   0.947   0.077   0.622  0.1129 -0.0994  0.6405
  464SOL     OW 1853   0.846   3.060   2.306 -0.2668  0.2735  0.1126
  464SOL    HW1 1854   0.805   2.970   2.299  1.3433  1.6735 -1.6613
  464SOL    HW2 1855   0.868   3.080   2.398  2.1292  0.5081  2.0703
  464SOL     MW 1856   0.844   3.051   2.317  0.2617  0.4892  0.1369
  465SOL     OW 1857   0.703   0.309   0.474  0.0966 -0.2188  0.2259
  465SOL    HW1 1858   0.653   0.279   0.551 -2.9102 -0.1614 -0.6990
  465SOL    HW2 1859   0.679   0.260   0.397 -0.8438  0.5216  0.2640
  465SOL     MW 1860   0.693   0.299   0.474 -0.4242 -0.1135  0.1089
  466SOL     OW 1861   1.063   1.994   0.704 -0.0163  0.5036 -0.0785
  466SOL    HW1 1862   1.061   1.924   0.640  1.3039  0.5971 -0.4914
  466SOL    HW2 1863   1.045   2.076   0.660  2.7764  2.5070  0.1301
  466SOL     MW 1864   1.060   1.996   0.690  0.5264  0.7803 -0.1055
  467SOL     OW 1865   1.252   2.279   0.930 -0.5845 -0.6334 -0.0966
  467SOL    HW1 1866   1.348   2.305   0.942 -0.0469  0.4778  0.5404
  467SOL    HW2 1867   1.257   2.184   0.926  1.8223  0.7310 -0.4465
  467SOL     MW 1868   1.265   2.270   0.931 -0.1960 -0.3068 -0.0587
  468SOL     OW 1869   0.387   2.615   1.996 -0.3082  0.1869  0.1649
  468SOL    HW1 1870   0.417   2.565   1.916  0.3095  3.3986  0.6646
  468SOL    HW2 1871   0.331   2.683   1.957  0.7221 -1.2157  0.8890
  468SOL     MW 1872   0.383   2.618   1.980 -0.0908  0.4256  0.3264
  469SOL     OW 1873   0.370   2.199   1.786 -0.0459  0.0929  0.3724
  469SOL    HW1 1874   0.291   2.139   1.781  0.6287 -0.1925 -0.1083
  469SOL    HW2 1875   0.445   2.153   1.737  0.7151 -2.9826  1.6528
  469SOL     MW 1876   0.369   2.185   1.779  0.1435 -0.3505  0.4779
  470SOL     OW 1877   3.036   2.589   0.089 -0.5390 -0.1004  0.3871
  470SOL    HW1 1878   2.953   2.547   0.116 -0.2293  3.7880  3.8064
  470SOL    HW2 1879   3.013   2.617   0.002 -2.3391 -2.0738  0.4255
  470SOL     MW 1880   3.022   2.587   0.081 -0.7357  0.1523  0.8433
  471SOL     OW 1881   1.139   2.702   1.441  0.4249 -0.3551  0.5176
  471SOL    HW1 1882   1.074   2.745   1.493  2.8796  0.6895 -0.4145
  471SOL    HW2 1883   1.087   2.673   1.367 -2.1410  0.2075 -1.7316
  471SOL     MW 1884   1.123   2.704   1.438  0.4102 -0.1430  0.0979
  472SOL     OW 1885   2.892   2.113   0.395 -0.4291  0.4907 -0.3916
  472SOL    HW1 1886   2.915   2.078   0.306 -4.1670  0.2126 -0.3516
  472SOL    HW2 1887   2.849   2.036   0.432  2.7106 -0.6668  1.7040
  472SOL     MW 1888   2.890   2.099   0.388 -0.5080  0.3013 -0.1098
  473SOL     OW 1889   0.856   2.552   1.285 -0.4289  0.4275 -0.7909
  473SOL    HW1 1890   0.887   2.462   1.265  0.7277  2.5583 -2.1859
  473SOL    HW2 1891   0.861   2.560   1.382  2.0508  0.2185  0.5854
  473SOL     MW 1892   0.861   2.541   1.295  0.0509  0.6811 -0.7934
  474SOL     OW 1893   0.877   2.122   1.790  0.6450 -0.1284  0.2671
  474SOL    HW1 1894   0.957   2.146   1.831 -3.1918  0.5925  0.5549
  474SOL    HW2 1895   0.892   2.153   1.701 -0.3280  0.1500 -0.8480
  474SOL     MW 1896   0.890   2.130   1.784  0.0104  0.0034  0.1579
  475SOL     OW 1897   1.655   0.009   1.450 -0.0047 -0.1680  0.8030
  475SOL    HW1 1898   1.579   0.019   1.401  2.0971  0.7066 -0.0170
  475SOL    HW2 1899   1.669  -0.088   1.449  0.9167 -0.7552  1.4369
  475SOL     MW 1900   1.647  -0.003   1.443  0.3942 -0.1301  0.7784
  476SOL     OW 1901   1.402   2.604   0.932 -0.2550 -0.2531  0.4901
  476SOL    HW1 1902   1.320   2.625   0.979  2.7677  1.8401 -0.9441
  476SOL    HW2 1903   1.442   2.688   0.898  0.4322 -1.4819 -0.2081
  476SOL     MW 1904   1.396   2.618   0.934  0.2345 -0.1391  0.2088
  477SOL     OW 1905   0.780   2.529   0.633  0.4070 -0.0785  0.0600
  477SOL    HW1 1906   0.858   2.577   0.605 -1.2900 -1.9327 -1.2395
  477SOL    HW2 1907   0.762   2.459   0.567  0.8832  0.1865  0.0555
  477SOL     MW 1908   0.788   2.526   0.620  0.2460 -0.2882 -0.1121
  478SOL     OW 1909   0.136   2.728   0.938  0.3412  0.1320  0.1969
  478SOL    HW1 1910   0.198   2.804   0.929 -0.5363 -1.0819  3.7894
  478SOL    HW2 1911   0.185   2.663   0.891  0.9487 -1.5985 -3.6925
  478SOL     MW 1912   0.150   2.730   0.930  0.3056 -0.2565  0.1577
  479SOL     OW 1913   1.431   1.982   1.274  0.1855  0.3687 -0.1246
  479SOL    HW1 1914   1.407   2.027   1.358  1.6837 -1.1500  1.3642
  479SOL    HW2 1915   1.524   1.943   1.291 -0.8840  1.1772  2.3707
  479SOL     MW 1916   1.440   1.983   1.287  0.2421  0.2750  0.4011
  480SOL     OW 1917   1.880   2.354   1.338 -0.2098  0.4317 -0.3539
  480SOL    HW1 1918   1.844   2.272   1.370 -0.0140  3.1817  2.4481
  480SOL    HW2 1919   1.953   2.328   1.281  0.6313 -0.2202 -1.7936
  480SOL     MW 1920   1.885   2.340   1.335 -0.0730  0.7085 -0.1742
  481SOL     OW 1921   1.010   0.019   1.066 -0.7301  0.7420 -0.8656
  481SOL    HW1 1922   1.033  -0.037   0.994 -1.6185  1.4021 -0.3890
  481SOL    HW2 1923   1.075   0.084   1.055  1.3945  1.7791  0.4616
  481SOL     MW 1924   1.022   0.020   1.055 -0.5670  0.9659 -0.6276
  482SOL     OW 1925   0.999   3.018   0.310  0.9488 -0.2056 -0.5261
  482SOL    HW1 1926   0.927   2.959   0.343 -0.1467  3.1508 -0.0910
  482SOL    HW2 1927   0.963   3.062   0.234  0.0388  0.4189  1.1926
  482SOL     MW 1928   0.985   3.016   0.305  0.6842  0.3196 -0.2419
  483SOL     OW 1929   0.412   2.910   0.444  0.4125  0.1585  0.5090
  483SOL    HW1 1930   0.331   2.922   0.394 -0.5856 -0.9918 -0.4211
  483SOL    HW2 1931   0.390   2.954   0.526  1.3439  0.5614  0.3426
  483SOL     MW 1932   0.398   2.917   0.448  0.4037  0.0599  0.3643
  484SOL     OW 1933   1.677   1.882   1.377 -0.1264 -0.3826 -0.2298
  484SOL    HW1 1934   1.745   1.952   1.381  0.3259 -1.1784 -1.4763
  484SOL    HW2 1935   1.653   1.871   1.470 -2.1967  3.6628  0.5776
  484SOL     MW 1936   1.683   1.890   1.390 -0.3399  0.0461 -0.2877
  485SOL     OW 1937   0.545   2.434   0.230 -0.4046 -0.6083 -0.5107
  485SOL    HW1 1938   0.570   2.416   0.318  0.9503  0.1201  2.7834
  485SOL    HW2 1939   0.456   2.469   0.242  1.1287 -1.9683 -0.8220
  485SOL     MW 1940   0.537   2.437   0.243 -0.0235 -0.6917 -0.1171
  486SOL     OW 1941   0.119   2.379   1.481  0.1847 -0.3929  0.2734
  486SOL    HW1 1942   0.132   2.451   1.416 -0.9903 -0.9589  0.8602
  486SOL    HW2 1943   0.126   2.417   1.568 -1.2941  0.5192  0.5042
  486SOL     MW 1944   0.122   2.393   1.484 -0.1655 -0.3473  0.3813
  487SOL     OW 1945   1.279   1.632   1.026 -0.2794  0.7666 -0.0483
  487SOL    HW1 1946   1.244   1.721   1.035  1.8108  1.6743  1.2107
  487SOL    HW2 1947   1.345   1.636   0.966 -0.6672 -3.4498  0.9664
  487SOL     MW 1948   1.283   1.644   1.019 -0.0548  0.3301  0.2517
  488SOL     OW 1949   1.676   1.866   0.555 -0.2653  0.0615 -0.2535
  488SOL    HW1 1950   1.759   1.915   0.573  1.5410  1.6120 -1.7062
  488SOL    HW2 1951   1.606   1.920   0.591 -0.4834 -2.2772  0.3410
  488SOL     MW 1952   1.677   1.880   0.563 -0.0558 -0.0425 -0.3667
  489SOL     OW 1953   0.670   0.765   0.553 -0.3000 -0.1457  0.3081
  489SOL    HW1 1954   0.722   0.691   0.526 -1.0849 -0.1366  0.1207
  489SOL    HW2 1955   0.676   0.775   0.643 -1.0282 -1.4839 -0.2570
  489SOL     MW 1956   0.677   0.756   0.561 -0.4997 -0.3211  0.2088
  490SOL     OW 1957   1.453   2.016   0.422 -0.0025  0.1871  0.2519
  490SOL    HW1 1958   1.489   1.993   0.335  1.5206 -1.7701 -3.0905
  490SOL    HW2 1959   1.384   2.084   0.413  1.1358  3.0885 -1.4884
  490SOL     MW 1960   1.449   2.022   0.409  0.3487  0.3117 -0.4187
  491SOL     OW 1961   1.199   2.933   0.473  0.1398 -0.2534 -0.2489
  491SOL    HW1 1962   1.157   2.990   0.538  0.3829  1.1702  1.4423
  491SOL    HW2 1963   1.153   2.955   0.394  1.0617 -2.0861 -0.0123
  491SOL     MW 1964   1.188   2.944   0.471  0.2935 -0.3073  0.0054
  492SOL     OW 1965   1.502   2.061   0.695  0.1901  0.5141  0.5776
  492SOL    HW1 1966   1.451   2.093   0.622 -3.7871  0.0882  0.9403
  492SOL    HW2 1967   1.437   2.041   0.759  0.7010 -1.9679  2.5931
  492SOL     MW 1968   1.487   2.063   0.694 -0.2672  0.1304  0.8914
  493SOL     OW 1969   0.168   2.957   0.341  0.4626  0.3856 -0.3592
  493SOL    HW1 1970   0.142   3.023   0.411 -0.6796  1.1399  0.0444
  493SOL    HW2 1971   0.187   3.015   0.265  1.8770  1.6378 -1.5139
  493SOL     MW 1972   0.167   2.974   0.341  0.4985  0.6503 -0.4583
  494SOL     OW 1973   0.418   2.459   1.769  0.7540  0.3269  0.7517
  494SOL    HW1 1974   0.412   2.366   1.799 -1.2743  0.1254 -0.5371
  494SOL    HW2 1975   0.438   2.441   1.676  0.9996 -0.7697 -2.4530
  494SOL     MW 1976   0.420   2.444   1.761  0.5188  0.1556  0.1588
  495SOL     OW 1977   2.927   1.693   2.617  0.4278 -0.2892 -0.0992
  495SOL    HW1 1978   2.913   1.777   2.578  1.3792 -0.1682  0.6422
  495SOL    HW2 1979   2.888   1.692   2.705  2.4835  1.2985 -0.2357
  495SOL     MW 1980   2.920   1.704   2.624  0.8245 -0.0637 -0.0194
  496SOL     OW 1981   2.877   2.318   2.676  0.4219  0.5665  0.4846
  496SOL    HW1 1982   2.918   2.237   2.687 -1.3352 -0.0876 -0.9130
  496SOL    HW2 1983   2.942   2.400   2.668 -0.0678 -0.5137 -1.4515
  496SOL     MW 1984   2.891   2.318   2.676  0.1255  0.3376  0.0447
  497SOL     OW 1985   1.592   2.270   2.643 -0.0214 -0.2271  0.3449
  497SOL    HW1 1986   1.569   2.209   2.575  0.1006  0.1940  0.6623
  497SOL    HW2 1987   1.606   2.221   2.725 -1.5138 -0.6991 -0.2136
  497SOL     MW 1988   1.591   2.256   2.645 -0.2022 -0.2338  0.3131
  498SOL     OW 1989   1.525   2.726   2.379 -0.1208  0.5844 -0.3564
  498SOL    HW1 1990   1.526   2.630   2.354 -0.2881 -3.8720  2.0447
  498SOL    HW2 1991   1.610   2.748   2.414 -2.7062 -0.7816  0.7934
  498SOL     MW 1992   1.536   2.716   2.381 -0.4840 -0.1839  0.1121
  499SOL     OW 1993   0.911   0.079   0.045 -0.0306  0.3792  0.0258
  499SOL    HW1 1994   0.838   0.073   0.102 -1.5299  1.0478 -0.7386
  499SOL    HW2 1995   0.932  -0.014   0.006  1.8574 -0.5058 -0.4503
  499SOL     MW 1996   0.904   0.066   0.047  0.0207  0.3506 -0.1379
  500SOL     OW 1997   1.114   2.510   2.741  0.2711  0.1436  0.3077
  500SOL    HW1 1998   1.154   2.477   2.824  0.0879 -2.2927  0.4897
  500SOL    HW2 1999   1.043   2.565   2.781  0.2762  1.3998  3.2614
  500SOL     MW 2000   1.110   2.513   2.757  0.2476 -0.0121  0.7215
  501SOL     OW 2001   1.735   2.246   3.075  0.2912 -0.2198 -0.5993
  501SOL    HW1 2002   1.709   2.334   3.095  3.9061 -4.0934  1.2652
  501SOL    HW2 2003   1.830   2.244   3.101  0.9189  1.1954  1.1673
  501SOL     MW 2004   1.744   2.257   3.081  0.8510 -0.5442 -0.1202
  502SOL     OW 2005   0.052   2.805   2.952  0.1421 -0.1601 -0.2996
  502SOL    HW1 2006  -0.014   2.750   2.902  0.6707  3.2026 -0.0012
  502SOL    HW2 2007   0.113   2.848   2.889 -1.8519  0.7342  1.9310
  502SOL     MW 2008   0.051   2.803   2.937 -0.0513  0.4016  0.0341
  503SOL     OW 2009   1.104   2.666   2.014 -0.1092  0.1340  0.9106
  503SOL    HW1 2010   1.190   2.651   1.972 -1.9192  1.6673  1.7653
  503SOL    HW2 2011   1.025   2.659   1.956 -0.2032 -0.0758  1.4822
  503SOL     MW 2012   1.105   2.663   2.001 -0.3604  0.3086  1.0988
  504SOL     OW 2013   0.017   2.691   2.078 -0.3759  0.3278  0.2150
  504SOL    HW1 2014   0.048   2.600   2.078 -3.0673  0.7335 -1.5594
  504SOL    HW2 2015  -0.075   2.687   2.095 -0.9373 -2.6897  1.0585
  504SOL     MW 2016   0.009   2.679   2.080 -0.8051 -0.0168  0.0922
  505SOL     OW 2017   1.654   2.630   2.802  0.1723 -0.1488  0.1925
  505SOL    HW1 2018   1.691   2.640   2.714  0.4660  0.5565  2.0705
  505SOL    HW2 2019   1.601   2.709   2.800  0.8504 -0.4276  1.8095
  505SOL     MW 2020   1.652   2.642   2.790  0.3006 -0.0925  0.6536
  506SOL     OW 2021   1.606   3.082   2.857  0.0350 -0.1557 -0.0666
  506SOL    HW1 2022   1.657   3.082   2.939 -1.8687  4.4126  0.5434
  506SOL    HW2 2023   1.675   3.067   2.792 -0.5777  1.6578  3.8229
  506SOL     MW 2024   1.622   3.080   2.859 -0.2970  0.6863  0.5271
  507SOL     OW 2025   0.924   2.660   2.853 -0.4406 -0.0850  0.0581
  507SOL    HW1 2026   0.967   2.717   2.789 -2.3117 -1.2459 -1.4674
  507SOL    HW2 2027   0.831   2.688   2.852 -0.5495  0.5148 -1.5398
  507SOL     MW 2028   0.917   2.671   2.844 -0.7018 -0.1590 -0.3540
  508SOL     OW 2029   1.184   2.120   2.504 -0.3380 -0.5143  0.0371
  508SOL    HW1 2030   1.245   2.080   2.569 -0.7739  1.8356 -0.9366
  508SOL    HW2 2031   1.122   2.175   2.555 -3.0648  2.4723  1.9708
  508SOL     MW 2032   1.184   2.122   2.519 -0.7553  0.1898  0.1638
  509SOL     OW 2033   0.611   2.606   2.765  0.0850  0.0131 -0.0317
  509SOL    HW1 2034   0.628   2.573   2.675  1.3709 -1.1038  0.0238
  509SOL    HW2 2035   0.535   2.558   2.787  1.5464 -1.3718 -0.6495
  509SOL     MW 2036   0.603   2.596   2.756  0.4474 -0.3170 -0.1059
  510SOL     OW 2037   1.491   2.600   1.675  0.2677  0.1965  0.0234
  510SOL    HW1 2038   1.559   2.669   1.678 -2.2175 -2.7805  0.5417
  510SOL    HW2 2039   1.439   2.627   1.752 -1.6949 -0.6070  0.7718
  510SOL     MW 2040   1.493   2.613   1.686 -0.3191 -0.3023  0.1905
  511SOL     OW 2041   0.435   2.634   2.429 -0.1544  0.1106 -0.2007
  511SOL    HW1 2042   0.525   2.578   2.419  2.4108 -2.5058 -0.2473
  511SOL    HW2 2043   0.431   2.670   2.340 -0.8202 -0.3111  1.6364
  511SOL     MW 2044   0.446   2.631   2.416  0.0962 -0.2902  0.0356
  512SOL     OW 2045   0.973   2.019   2.803  0.5135  0.0510  0.5198
  512SOL    HW1 2046   0.907   2.064   2.864 -3.0027 -1.1005  0.5735
  512SOL    HW2 2047   1.001   1.944   2.854  0.0835  1.7359  0.1614
  512SOL     MW 2048   0.968   2.015   2.818 -0.0072  0.1214  0.4796
  513SOL     OW 2049   1.624   2.493   2.268 -0.5849  0.0440 -0.2730
  513SOL    HW1 2050   1.703   2.520   2.222 -0.1567 -0.6221  1.4107
  513SOL    HW2 2051   1.658   2.479   2.357 -0.9410  2.6747 -0.5382
  513SOL     MW 2052   1.639   2.495   2.273 -0.5754  0.3032 -0.0858
  514SOL     OW 2053   0.235   2.494   2.624 -0.7634  0.2834  0.3766
  514SOL    HW1 2054   0.308   2.537   2.567 -0.6879 -0.9107 -0.2002
  514SOL    HW2 2055   0.277   2.479   2.707  3.0209  3.0848 -1.6488
  514SOL     MW 2056   0.250   2.498   2.627 -0.2541  0.4955  0.0332
  515SOL     OW 2057   1.166   2.006   2.027 -0.1861 -0.2313  0.7619
  515SOL    HW1 2058   1.155   2.082   1.974 -0.6458  1.0872  0.0101
  515SOL    HW2 2059   1.256   2.021   2.062 -0.2380 -0.1165  0.7622
  515SOL     MW 2060   1.176   2.018   2.025 -0.2536 -0.0422  0.6628
  516SOL     OW 2061   1.461   2.478   0.018  0.1898 -0.1689  0.1222
  516SOL    HW1 2062   1.467   2.440  -0.073  0.7043 -0.5321  1.3860
  516SOL    HW2 2063   1.434   2.564  -0.010 -0.9731 -2.0764 -1.6592
  516SOL     MW 2064   1.458   2.485   0.003  0.1043 -0.4685  0.0539
  517SOL     OW 2065   0.562   2.441   2.188  0.4425 -0.1981 -0.7519
  517SOL    HW1 2066   0.534   2.524   2.152 -2.4742 -2.8376 -1.9197
  517SOL    HW2 2067   0.497   2.376   2.137 -2.0495 -1.4824 -0.2001
  517SOL     MW 2068   0.549   2.443   2.177 -0.2711 -0.7158 -0.8332
  518SOL     OW 2069   1.800   0.194   3.078 -0.4868  0.5311 -0.2051
  518SOL    HW1 2070   1.750   0.228   3.151 -0.8101 -1.1930  1.9866
  518SOL    HW2 2071   1.792   0.096   3.095 -0.1014 -0.3829  1.0284
  518SOL     MW 2072   1.793   0.186   3.090 -0.4786  0.1830  0.2468
  519SOL     OW 2073   0.722   2.407   1.754 -0.4710 -0.2898  0.1905
  519SOL    HW1 2074   0.747   2.323   1.797  1.2223 -0.8327 -0.0203
  519SOL    HW2 2075   0.630   2.409   1.745 -0.4441  0.3672  0.2027
  519SOL     MW 2076   0.713   2.396   1.758 -0.2440 -0.2747  0.1643
  520SOL     OW 2077   1.161   2.130   2.986  0.2668 -0.3738  0.2879
  520SOL    HW1 2078   1.082   2.082   2.960 -0.3767  1.0646 -2.0687
  520SOL    HW2 2079   1.199   2.084   3.068 -2.3335 -4.2968  1.8349
  520SOL     MW 2080   1.155   2.118   2.993 -0.1612 -0.7016  0.1811
  521SOL     OW 2081   1.728   1.999   2.163 -0.5357  0.5497  0.1344
  521SOL    HW1 2082   1.783   2.046   2.100  2.9899 -0.1404 -0.2140
  521SOL    HW2 2083   1.680   1.946   2.096  0.3297  2.4282 -3.0271
  521SOL     MW 2084   1.729   1.998   2.146  0.0437  0.7065 -0.3287
  522SOL     OW 2085   2.902   2.520   2.256 -0.6322  0.4573 -0.2604
  522SOL    HW1 2086   2.969   2.443   2.259 -0.3371 -4.4704 -1.1100
  522SOL    HW2 2087   2.949   2.593   2.291 -0.8637 -1.0733 -3.2204
  522SOL     MW 2088   2.917   2.519   2.261 -0.6238 -0.3948 -0.7630
  523SOL     OW 2089   0.947   1.588   2.155  0.2189  0.1782  0.6513
  523SOL    HW1 2090   0.884   1.625   2.091 -2.8702 -1.9083 -0.4256
  523SOL    HW2 2091   0.981   1.513   2.110 -1.3576  0.3515  2.3422
  523SOL     MW 2092   0.943   1.583   2.141 -0.3967 -0.0742  0.7323
  524SOL     OW 2093   0.663   2.427   2.955  0.8277  0.5733 -0.7848
  524SOL    HW1 2094   0.690   2.489   2.882  1.3780 -1.2525  2.1880
  524SOL    HW2 2095   0.716   2.348   2.944 -2.1337  1.8670  1.8641
  524SOL     MW 2096   0.673   2.425   2.944  0.5096  0.5031 -0.0431
  525SOL     OW 2097   0.399   2.264   2.047 -1.0659 -0.5656  0.2109
  525SOL    HW1 2098   0.358   2.198   2.111 -1.3506 -1.8327  3.0822
  525SOL    HW2 2099   0.383   2.223   1.954  0.2274 -0.8906 -1.3486
  525SOL     MW 2100   0.391   2.250   2.043 -0.9328 -0.7757  0.3840
  526SOL     OW 2101   0.694   1.982   1.968  0.3325  0.1716 -0.0021
  526SOL    HW1 2102   0.744   2.013   1.897  0.8581 -1.5938 -0.3982
  526SOL    HW2 2103   0.696   2.054   2.035  0.7969  1.3584 -1.3845
  526SOL     MW 2104   0.701   1.996   1.968  0.4631  0.0953 -0.2368
  527SOL     OW 2105   1.421   2.019   2.076  0.6872  0.0086  0.0150
  527SOL    HW1 2106   1.423   1.978   2.162 -1.7072 -1.5108 -1.8965
  527SOL    HW2 2107   1.429   1.958   1.998  0.7666 -0.4832 -1.2339
  527SOL     MW 2108   1.422   2.005   2.077  0.3818 -0.2568 -0.4019
  528SOL     OW 2109   0.719   2.859   2.856 -0.0548 -0.0727  0.1593
  528SOL    HW1 2110   0.717   2.952   2.877 -1.2100 -0.9034  0.6911
  528SOL    HW2 2111   0.656   2.855   2.783  1.9285 -0.9959 -0.7300
  528SOL     MW 2112   0.711   2.871   2.849  0.0545 -0.3041  0.1121
  529SOL     OW 2113   1.088   2.243   1.899 -0.0254  0.5861 -0.5317
  529SOL    HW1 2114   1.046   2.262   1.986 -2.3373 -1.6191 -0.6534
  529SOL    HW2 2115   1.110   2.325   1.861 -0.1944 -3.2709  1.0646
  529SOL     MW 2116   1.085   2.257   1.906 -0.3527 -0.2138 -0.3371
  530SOL     OW 2117   1.146   2.390   2.993 -0.1097  0.1034 -0.6521
  530SOL    HW1 2118   1.077   2.419   3.054 -2.1385  0.0713 -3.3879
  530SOL    HW2 2119   1.149   2.293   2.988  3.6416 -0.1085  0.4687
  530SOL     MW 2120   1.137   2.381   3.000  0.1175  0.0712 -0.8652
  531SOL     OW 2121   0.916   1.876   2.582 -0.6628 -0.3347 -0.1123
  531SOL    HW1 2122   0.934   1.944   2.653 -0.5814  3.0933 -0.1241
  531SOL    HW2 2123   0.873   1.796   2.618  2.3307 -0.0536  1.0436
  531SOL     MW 2124   0.912   1.875   2.596 -0.2571  0.1546  0.0386
  532SOL     OW 2125   1.752   0.334   2.826  0.2489 -0.1966  0.2067
  532SOL    HW1 2126   1.758   0.261   2.889  1.4445  0.1988  0.5382
  532SOL    HW2 2127   1.824   0.382   2.859 -2.2026 -1.9938 -1.2690
  532SOL     MW 2128   1.762   0.330   2.839  0.0832 -0.3815  0.0557
  533SOL     OW 2129   1.889   2.656   3.006  1.0319 -0.1433 -0.3260
  533SOL    HW1 2130   1.872   2.599   3.081  1.1683 -0.0097  2.4411
  533SOL    HW2 2131   1.811   2.643   2.961  3.5805  1.8961  3.1613
  533SOL     MW 2132   1.877   2.647   3.010  1.3861  0.1434  0.4992
  534SOL     OW 2133   1.776   2.399   2.470  0.0829  0.3180  0.0749
  534SOL    HW1 2134   1.729   2.343   2.536 -2.4080 -1.2025 -0.4141
  534SOL    HW2 2135   1.859   2.399   2.512 -0.8548 -0.2531  0.2009
  534SOL     MW 2136   1.781   2.392   2.484 -0.3695  0.0420  0.0270
  535SOL     OW 2137   1.879   2.366   1.833  0.6600 -0.0716 -0.0801
  535SOL    HW1 2138   1.828   2.412   1.765 -2.0354 -0.9307  1.9741
  535SOL    HW2 2139   1.960   2.417   1.842  0.1680 -1.1589  0.4232
  535SOL     MW 2140   1.883   2.379   1.825  0.2394 -0.3284  0.2573
  536SOL     OW 2141   0.441   1.859   2.051  0.0764 -0.5239  0.1550
  536SOL    HW1 2142   0.434   1.778   2.003 -1.7383 -0.7329 -0.7729
  536SOL    HW2 2143   0.525   1.890   2.012 -1.4124 -3.1835 -0.0605
  536SOL     MW 2144   0.451   1.852   2.040 -0.3595 -0.9024  0.0041
  537SOL     OW 2145   1.018   0.186   2.853  0.1579  0.3686 -0.1697
  537SOL    HW1 2146   0.975   0.154   2.932  1.0729  0.5080 -1.7134
  537SOL    HW2 2147   1.029   0.277   2.861  0.8857  2.1327  0.7825
  537SOL     MW 2148   1.014   0.194   2.864  0.3746  0.6198 -0.2477
  538SOL     OW 2149   1.357   0.035   2.989  0.0775  0.3535  0.3836
  538SOL    HW1 2150   1.321   0.109   2.938 -0.2828 -0.9102 -0.7874
  538SOL    HW2 2151   1.435   0.007   2.939 -1.2691 -0.0436 -0.9405
  538SOL     MW 2152   1.362   0.041   2.975 -0.1477  0.1344  0.0544
  539SOL     OW 2153   0.749   2.765   2.533 -0.1697  0.1811 -0.4092
  539SOL    HW1 2154   0.840   2.782   2.572 -0.8360 -0.3885 -1.2100
  539SOL    HW2 2155   0.732   2.669   2.532 -0.1066 -1.2306  2.5869
  539SOL     MW 2156   0.759   2.755   2.538 -0.2493 -0.0803 -0.1196
  540SOL     OW 2157   0.411   2.415   2.831  0.0251 -0.0368  0.3234
  540SOL    HW1 2158   0.495   2.386   2.865 -1.5885 -0.5185  2.0641
  540SOL    HW2 2159   0.354   2.381   2.901  1.5030  0.8597  1.7678
  540SOL     MW 2160   0.415   2.407   2.845  0.0072  0.0180  0.7437
  541SOL     OW 2161   0.200   2.945   2.220 -0.2700  0.0243 -0.1801
  541SOL    HW1 2162   0.243   2.900   2.143  1.9794  0.4341 -0.2531
  541SOL    HW2 2163   0.230   2.902   2.304  0.2752 -2.4862  2.0117
  541SOL     MW 2164   0.209   2.933   2.221  0.0987 -0.2529  0.0995
  542SOL     OW 2165   1.009   2.291   2.638 -0.0773  0.5328 -0.0021
  542SOL    HW1 2166   0.974   2.216   2.694  1.2833 -1.4811  2.5672
  542SOL    HW2 2167   1.057   2.344   2.700  1.4553 -3.3679  0.2902
  542SOL     MW 2168   1.011   2.288   2.653  0.3044 -0.2475  0.3754
  543SOL     OW 2169   1.456   2.442   2.827  0.2987 -0.2314  0.7293
  543SOL    HW1 2170   1.477   2.381   2.758 -0.6993  4.5344 -1.5120
  543SOL    HW2 2171   1.532   2.508   2.819  1.4336 -0.8381 -0.0979
  543SOL     MW 2172   1.469   2.443   2.817  0.3168  0.3174  0.3244
  544SOL     OW 2173   0.716   0.216   2.746  0.0094  0.1349  0.6648
  544SOL    HW1 2174   0.611   0.215   2.740 -3.4481  1.6668  1.3299
  544SOL    HW2 2175   0.757   0.160   2.682 -1.7285  0.9756 -0.9147
  544SOL     MW 2176   0.708   0.208   2.737 -0.6761  0.4479  0.5442
  545SOL     OW 2177   1.578   2.197   2.316  0.1442 -0.0971 -0.3391
  545SOL    HW1 2178   1.559   2.280   2.276  2.4780  1.5705  2.0656
  545SOL    HW2 2179   1.625   2.147   2.252  2.6980  1.2462  1.9210
  545SOL     MW 2180   1.582   2.202   2.302  0.7890  0.3002  0.2764
  546SOL     OW 2181   3.014   1.984   0.119  0.0372  0.0596 -0.0896
  546SOL    HW1 2182   2.997   2.045   0.050  0.1697  0.3204 -1.1857
  546SOL    HW2 2183   3.095   1.942   0.091  3.3116  0.9622  0.6569
  546SOL     MW 2184   3.022   1.987   0.106  0.4867  0.2131 -0.1358
  547SOL     OW 2185   0.283   3.048   0.096 -0.2653  0.4661 -0.7686
  547SOL    HW1 2186   0.334   3.104   0.037  0.0547 -3.6040  1.6957
  547SOL    HW2 2187   0.310   2.958   0.086 -1.5940  3.4132 -1.3020
  547SOL     MW 2188   0.293   3.044   0.087 -0.3984  0.3179 -0.5138
  548SOL     OW 2189   0.287   2.522   0.208  0.4802 -0.4405 -0.4273
  548SOL    HW1 2190   0.298   2.601   0.148  0.5177 -0.9508  1.8741
  548SOL    HW2 2191   0.196   2.493   0.198 -0.9140 -0.1837  0.9035
  548SOL     MW 2192   0.276   2.528   0.199  0.3012 -0.4740  0.0519
  549SOL     OW 2193   0.855   1.877   2.136 -0.0044  0.5833 -0.0040
  549SOL    HW1 2194   0.797   1.920   2.070 -0.5758 -0.9211  3.3662
  549SOL    HW2 2195   0.824   1.890   2.229 -1.0117 -0.2639  1.0122
  549SOL     MW 2196   0.843   1.885   2.140 -0.2127  0.2730  0.5748
  550SOL     OW 2197   1.783   1.724   2.603 -0.1021  0.8687 -0.0602
  550SOL    HW1 2198   1.794   1.726   2.501  1.0592  1.4407 -0.1155
  550SOL    HW2 2199   1.762   1.808   2.643  1.6724  1.0670 -0.9080
  550SOL     MW 2200   1.782   1.736   2.595  0.2853  0.9703 -0.1794
  551SOL     OW 2201   0.861   2.257   0.223 -0.7293 -0.0296 -0.1969
  551SOL    HW1 2202   0.953   2.274   0.206 -0.2125 -0.3521  1.3097
  551SOL    HW2 2203   0.823   2.180   0.180 -1.0063  1.3560  0.8190
  551SOL     MW 2204   0.868   2.249   0.215 -0.6976  0.1107  0.1359
  552SOL     OW 2205   1.787   1.694   2.341 -0.2560 -0.1045  1.3601
  552SOL    HW1 2206   1.688   1.695   2.328 -0.5291 -0.1933  1.6286
  552SOL    HW2 2207   1.793   1.658   2.249 -0.7738 -2.0036 -4.8037
  552SOL     MW 2208   1.775   1.690   2.327 -0.3604 -0.3668  0.5822
  553SOL     OW 2209   1.226   2.317   1.480  1.0701 -0.0622  0.1368
  553SOL    HW1 2210   1.291   2.251   1.502 -0.9283  1.5017  1.3537
  553SOL    HW2 2211   1.269   2.397   1.453 -0.4977 -0.3882 -0.9389
  553SOL     MW 2212   1.240   2.319   1.479  0.5996  0.1011  0.1554
  554SOL     OW 2213   0.537   2.907   2.637  0.0683 -0.2983  0.0315
  554SOL    HW1 2214   0.524   2.985   2.583 -1.4247  4.4568 -0.1489
  554SOL    HW2 2215   0.608   2.857   2.596 -0.4576  0.6621 -1.5096
  554SOL     MW 2216   0.544   2.911   2.625 -0.1981  0.4558 -0.1956
  555SOL     OW 2217   0.683   2.491   2.524  0.3319  0.0853 -0.0908
  555SOL    HW1 2218   0.630   2.408   2.540  2.5477  0.9853  0.1246
  555SOL    HW2 2219   0.771   2.461   2.480  2.0429  3.9214  0.0764
  555SOL     MW 2220   0.688   2.476   2.520  0.8500  0.7102 -0.0403
  556SOL     OW 2221   0.951   1.864   0.140  0.1452  0.2437  0.1919
  556SOL    HW1 2222   0.995   1.863   0.052  0.3097 -0.1226 -0.6649
  556SOL    HW2 2223   1.021   1.899   0.192  1.3633  2.1967 -2.1635
  556SOL     MW 2224   0.966   1.869   0.135  0.3276  0.4531 -0.2319
  557SOL     OW 2225   0.959   2.672   0.505 -0.3278  0.3080  0.2484
  557SOL    HW1 2226   1.024   2.625   0.453 -3.1206  1.3818  1.8747
  557SOL    HW2 2227   0.901   2.713   0.434 -2.0786  0.5631 -0.2872
  557SOL     MW 2228   0.960   2.671   0.488 -0.9273  0.4833  0.3923
  558SOL     OW 2229   0.238   2.310   3.027 -0.2226  0.6023 -0.5052
  558SOL    HW1 2230   0.215   2.218   3.036 -1.1310  0.9068 -0.1860
  558SOL    HW2 2231   0.189   2.344   3.103  0.2368  1.8875  1.3916
  558SOL     MW 2232   0.229   2.302   3.038 -0.2818  0.8121 -0.2128
  559SOL     OW 2233   0.988   2.338   2.121 -0.5149 -0.1203 -0.0954
  559SOL    HW1 2234   1.058   2.403   2.142  2.3229 -3.5692 -1.0810
  559SOL    HW2 2235   0.978   2.279   2.199 -0.6916  2.9232 -2.3256
  559SOL     MW 2236   0.996   2.338   2.134 -0.1638 -0.1738 -0.5197
  560SOL     OW 2237   2.005   2.875   0.028 -0.3179  0.0046 -0.1870
  560SOL    HW1 2238   2.068   2.912  -0.037 -1.6646 -0.3763  0.3426
  560SOL    HW2 2239   1.968   2.794  -0.013 -0.1740 -2.0157 -1.4414
  560SOL     MW 2240   2.008   2.869   0.014 -0.4766 -0.3122 -0.2826
  561SOL     OW 2241   0.410   2.205   0.125  0.4432  0.0903 -1.0135
  561SOL    HW1 2242   0.353   2.256   0.062 -1.7443  2.5609 -0.3781
  561SOL    HW2 2243   0.448   2.283   0.175  2.3376 -0.0881 -0.1130
  561SOL     MW 2244   0.408   2.222   0.124  0.4045  0.3928 -0.8109
  562SOL     OW 2245   0.690   2.173   2.165 -1.0136  0.3003 -0.1282
  562SOL    HW1 2246   0.675   2.268   2.173 -1.3233 -0.8140 -0.1609
  562SOL    HW2 2247   0.777   2.153   2.204  1.5815 -1.4967  0.8087
  562SOL     MW 2248   0.699   2.183   2.171 -0.7120 -0.0838 -0.0089
  563SOL     OW 2249   1.192   0.307   0.556 -0.5103 -0.0584 -0.1456
  563SOL    HW1 2250   1.116   0.273   0.505  1.2326  1.1444  0.2648
  563SOL    HW2 2251   1.222   0.226   0.592 -2.4997  0.7316  1.7394
  563SOL     MW 2252   1.186   0.292   0.554 -0.5429  0.2045  0.1572
  564SOL     OW 2253   1.076   2.552   2.276  0.4321 -0.3928  0.2681
  564SOL    HW1 2254   1.078   2.629   2.222 -0.6434 -2.4505  1.6904
  564SOL    HW2 2255   1.125   2.578   2.362  0.2512  0.7121  1.4473
  564SOL     MW 2256   1.083   2.566   2.280  0.2663 -0.5185  0.6113
  565SOL     OW 2257   2.837   2.728   2.658  0.1368 -0.1705  0.2206
  565SOL    HW1 2258   2.860   2.820   2.651 -4.9594  0.5144 -0.8783
  565SOL    HW2 2259   2.771   2.701   2.586  0.2310 -2.7291 -0.1539
  565SOL     MW 2260   2.831   2.737   2.647 -0.5232 -0.4177  0.0262
  566SOL     OW 2261   2.190   1.861   2.313 -0.0146  0.1829  0.1738
  566SOL    HW1 2262   2.267   1.834   2.263 -2.1976 -1.8591 -1.3764
  566SOL    HW2 2263   2.222   1.949   2.340 -2.0197 -0.8957 -2.3378
  566SOL     MW 2264   2.205   1.869   2.310 -0.5671 -0.2289 -0.3621
  567SOL     OW 2265   1.203   2.925   2.966 -0.4004  0.2365  0.7803
  567SOL    HW1 2266   1.247   3.006   2.994  1.2130  0.7472 -4.5853
  567SOL    HW2 2267   1.241   2.841   2.998  0.4871  1.5751 -2.6413
  567SOL     MW 2268   1.214   2.924   2.974 -0.0704  0.4805 -0.3791
  568SOL     OW 2269   1.583   2.115   2.881 -0.9126 -0.4986  0.5141
  568SOL    HW1 2270   1.643   2.176   2.932 -1.6681  0.8921 -2.1518
  568SOL    HW2 2271   1.634   2.042   2.826  1.1650 -1.3138  0.8466
  568SOL     MW 2272   1.597   2.113   2.881 -0.7382 -0.4227  0.2062
  569SOL     OW 2273   0.170   2.289   2.458 -0.1050 -0.0863 -0.2784
  569SOL    HW1 2274   0.110   2.316   2.391 -0.3124  0.7209 -2.3816
  569SOL    HW2 2275   0.181   2.361   2.523  0.1117 -2.0492  1.9254
  569SOL     MW 2276   0.163   2.302   2.458 -0.1038 -0.2388 -0.2652
  570SOL     OW 2277   1.445   0.375   0.477  0.5099  0.4734 -0.7476
  570SOL    HW1 2278   1.354   0.381   0.518 -2.2781 -0.9285  0.7376
  570SOL    HW2 2279   1.505   0.375   0.553 -0.5497  1.2422  0.6403
  570SOL     MW 2280   1.441   0.376   0.492  0.0023  0.3898 -0.3685
  571SOL     OW 2281   1.507   2.458   2.003  0.0134  0.2658  0.1843
  571SOL    HW1 2282   1.562   2.466   2.079 -1.4412 -0.7304  0.5952
  571SOL    HW2 2283   1.524   2.370   1.967 -0.2468 -0.7968 -3.2813
  571SOL     MW 2284   1.516   2.447   2.008 -0.2129 -0.0059 -0.2188
  572SOL     OW 2285   1.004   2.622   0.098  0.7749 -0.3026  0.0111
  572SOL    HW1 2286   1.014   2.650   0.008  2.9870 -0.4048  0.3684
  572SOL    HW2 2287   0.907   2.629   0.122 -1.8314 -1.3302  0.4408
  572SOL     MW 2288   0.993   2.627   0.089  0.7229 -0.4517  0.1150
  573SOL     OW 2289   1.135   2.306   0.222 -0.5694 -0.9038 -0.1972
  573SOL    HW1 2290   1.222   2.302   0.185  0.4197  1.7730 -2.1854
  573SOL    HW2 2291   1.143   2.396   0.268 -0.6444  0.9337  0.0097
  573SOL     MW 2292   1.147   2.317   0.223 -0.4488 -0.3082 -0.4322
  574SOL     OW 2293   1.115   2.549   0.333  0.5375 -0.4607  0.6878
  574SOL    HW1 2294   1.186   2.606   0.346 -1.1274  1.9194 -1.1115
  574SOL    HW2 2295   1.084   2.576   0.247  1.9490 -1.9023  1.4776
  574SOL     MW 2296   1.120   2.560   0.323  0.5040 -0.3369  0.5546
  575SOL     OW 2297   0.039   2.238   1.810 -0.6561 -0.3767 -0.1847
  575SOL    HW1 2298   0.060   2.164   1.747  1.8016  1.8722 -0.8541
  575SOL    HW2 2299   0.089   2.307   1.768 -3.8337  0.0558  1.1032
  575SOL     MW 2300   0.048   2.237   1.796 -0.7511 -0.0229 -0.1031
  576SOL     OW 2301   2.776   1.828   2.116 -0.5928 -0.4098  0.1684
  576SOL    HW1 2302   2.827   1.868   2.048 -0.9265  0.1519  0.3453
  576SOL    HW2 2303   2.699   1.786   2.078  0.6571  1.3322 -0.8484
  576SOL     MW 2304   2.773   1.828   2.102 -0.4719 -0.1058  0.0576
  577SOL     OW 2305   2.032   0.212   0.099 -0.3335 -0.1201  0.1566
  577SOL    HW1 2306   1.948   0.236   0.050 -2.1785  2.3650 -0.7996
  577SOL    HW2 2307   1.998   0.190   0.184 -0.6278  0.2178 -1.2350
  577SOL     MW 2308   2.017   0.213   0.103 -0.6157  0.2523 -0.1532
  578SOL     OW 2309   1.932   1.993   2.359  0.6109  0.2894  0.2125
  578SOL    HW1 2310   1.864   1.951   2.307 -1.1700 -1.6185 -0.1364
  578SOL    HW2 2311   2.007   1.933   2.347 -3.2715 -2.1860 -0.8921
  578SOL     MW 2312   1.933   1.980   2.350 -0.1363 -0.2889  0.0207
  579SOL     OW 2313   0.898   2.379   2.417  0.8282 -0.6846  0.1398
  579SOL    HW1 2314   0.939   2.349   2.501 -1.9825  0.8518 -0.1432
  579SOL    HW2 2315   0.964   2.439   2.378 -2.0285  0.5116  1.6604
  579SOL     MW 2316   0.912   2.383   2.423  0.0805 -0.3241  0.3031
  580SOL     OW 2317   0.941   2.921   3.028 -0.6801 -0.6388 -0.5315
  580SOL    HW1 2318   1.021   2.882   2.995 -0.3162  1.2759 -0.9785
  580SOL    HW2 2319   0.875   2.888   2.964  1.1855 -0.2558  0.2017
  580SOL     MW 2320   0.943   2.911   3.015 -0.3859 -0.3356 -0.4938
  581SOL     OW 2321   1.134   2.442   1.695 -0.2544  0.1468  0.4912
  581SOL    HW1 2322   1.168   2.531   1.711  1.5136 -4.6875  2.3502
  581SOL    HW2 2323   1.185   2.396   1.624  2.1174  1.0891 -3.1702
  581SOL     MW 2324   1.145   2.448   1.688  0.2918 -0.3667  0.2534
  582SOL     OW 2325   0.024   2.825   2.588  0.7312 -0.4490  0.6367
  582SOL    HW1 2326  -0.023   2.874   2.650  1.0464  0.3934 -1.0380
  582SOL    HW2 2327   0.111   2.853   2.600 -0.3131 -1.1319  0.9683
  582SOL     MW 2328   0.029   2.835   2.598  0.6350 -0.4280  0.4595
  583SOL     OW 2329   1.992   2.415   2.630 -0.4657 -0.3359  0.1100
  583SOL    HW1 2330   2.078   2.403   2.587  1.3948 -0.0885 -0.3015
  583SOL    HW2 2331   1.964   2.322   2.647  0.0547  1.6947 -1.0879
  583SOL     MW 2332   2.000   2.401   2.627 -0.1516 -0.0354 -0.1024
  584SOL     OW 2333   0.183   1.853   2.227 -0.7476  0.1852 -0.1701
  584SOL    HW1 2334   0.235   1.842   2.151 -0.1712  1.8286  0.7480
  584SOL    HW2 2335   0.221   1.923   2.282  0.8768 -0.0498  0.9201
  584SOL     MW 2336   0.195   1.861   2.224 -0.4572  0.3711  0.0949
  585SOL     OW 2337   1.532   2.676   0.229  0.6220  0.4850  0.1775
  585SOL    HW1 2338   1.511   2.597   0.177  0.7548 -1.4366 -1.0551
  585SOL    HW2 2339   1.456   2.678   0.286 -0.9065 -3.1156  2.6955
  585SOL     MW 2340   1.519   2.665   0.230  0.4378 -0.2436  0.3471
  586SOL     OW 2341   1.331   2.848   2.545 -0.4191 -0.1316 -0.4051
  586SOL    HW1 2342   1.419   2.818   2.504  1.1825  1.6687 -0.0632
  586SOL    HW2 2343   1.328   2.939   2.532 -0.5551 -2.8989  0.2152
  586SOL     MW 2344   1.342   2.856   2.538 -0.2257 -0.2592 -0.2782
  587SOL     OW 2345   1.331   1.570   2.167  0.1606  0.0203 -0.0206
  587SOL    HW1 2346   1.328   1.503   2.239  0.2323  0.0719 -0.5741
  587SOL    HW2 2347   1.306   1.522   2.087  2.7264 -1.7153 -2.0577
  587SOL     MW 2348   1.328   1.555   2.166  0.5086 -0.2019 -0.3624
  588SOL     OW 2349   1.342   2.061   2.727 -0.1584  0.1842 -0.0734
  588SOL    HW1 2350   1.427   2.031   2.757 -3.0314 -0.5442 -0.1475
  588SOL    HW2 2351   1.305   2.121   2.794  1.6322  0.6994 -2.9815
  588SOL     MW 2352   1.348   2.065   2.740 -0.3012  0.1561 -0.4669
  589SOL     OW 2353   1.301   2.046   0.095  0.8343 -0.5005 -0.5277
  589SOL    HW1 2354   1.347   2.131   0.119  1.2103  0.2817 -0.0624
  589SOL    HW2 2355   1.267   2.012   0.179  0.1897  0.9340  0.1766
  589SOL     MW 2356   1.302   2.053   0.109  0.7989 -0.2081 -0.3734
  590SOL     OW 2357   0.462   2.777   2.210  0.7611 -0.3458 -0.0347
  590SOL    HW1 2358   0.441   2.728   2.133 -0.7361 -1.8083  2.2151
  590SOL    HW2 2359   0.552   2.798   2.212 -0.1751 -0.8394 -0.2784
  590SOL     MW 2360   0.471   2.773   2.200  0.4400 -0.6039  0.2300
  591SOL     OW 2361   2.239   0.640   3.099 -0.5850 -0.1216 -0.1456
  591SOL    HW1 2362   2.173   0.698   3.066  1.4571 -1.1073 -3.3127
  591SOL    HW2 2363   2.311   0.685   3.072  0.4041  0.4421  2.4704
  591SOL     MW 2364   2.240   0.654   3.091 -0.1850 -0.1773 -0.2183
  592SOL     OW 2365   1.789   2.959   0.793 -0.2529  0.0922 -0.6502
  592SOL    HW1 2366   1.781   3.040   0.733  1.6921 -0.4238  0.6347
  592SOL    HW2 2367   1.872   2.907   0.790  1.1583  0.2833  0.5080
  592SOL     MW 2368   1.799   2.963   0.784  0.1899  0.0493 -0.3278
  593SOL     OW 2369   1.942   0.670   0.809 -0.3376 -0.5519 -0.3058
  593SOL    HW1 2370   1.847   0.664   0.776 -1.3214  0.3450  0.9317
  593SOL    HW2 2371   1.980   0.583   0.798 -0.2863 -0.5193  0.6747
  593SOL     MW 2372   1.934   0.658   0.803 -0.4606 -0.4293 -0.0131
  594SOL     OW 2373   2.793   1.166   1.373 -0.4722 -0.2465  0.7222
  594SOL    HW1 2374   2.887   1.195   1.403 -0.9583 -0.0624 -0.8285
  594SOL    HW2 2375   2.811   1.105   1.302  4.1609  3.1553 -0.1703
  594SOL     MW 2376   2.808   1.161   1.368  0.0750  0.2266  0.3999
  595SOL     OW 2377   0.426   1.022   0.803  0.8331  0.0104 -0.6079
  595SOL    HW1 2378   0.487   1.054   0.741 -1.4387  1.3698  0.1595
  595SOL    HW2 2379   0.441   1.083   0.870 -0.2728 -2.0257 -2.8309
  595SOL     MW 2380   0.436   1.034   0.804  0.3875 -0.0789 -0.7999
  596SOL     OW 2381   2.457   1.338   0.575  0.4021  0.3756  0.2904
  596SOL    HW1 2382   2.520   1.398   0.537  0.4473 -1.3777  0.9721
  596SOL    HW2 2383   2.518   1.287   0.632  0.4288  0.8156 -0.9403
  596SOL     MW 2384   2.473   1.339   0.578  0.4116  0.2023  0.2180
  597SOL     OW 2385   2.186   0.693   1.616 -0.0372 -0.5389  0.0619
  597SOL    HW1 2386   2.202   0.621   1.680  0.1636 -3.0473 -0.8513
  597SOL    HW2 2387   2.117   0.662   1.557  0.2744 -1.0621 -1.1624
  597SOL     MW 2388   2.179   0.679   1.617  0.0304 -0.9389 -0.2201
  598SOL     OW 2389   2.595   1.018   2.813  0.1421  0.1927 -0.8595
  598SOL    HW1 2390   2.590   0.990   2.720  1.3890  1.4660 -1.8073
  598SOL    HW2 2391   2.687   1.061   2.821 -0.4855  0.6889 -1.9455
  598SOL     MW 2392   2.606   1.020   2.802  0.2238  0.4262 -1.1278
  599SOL     OW 2393   2.960   0.404   2.088 -0.2792 -0.6007 -0.6365
  599SOL    HW1 2394   3.021   0.390   2.163  1.4840  1.6180 -1.2734
  599SOL    HW2 2395   2.973   0.493   2.052  1.2411  1.4736  0.7567
  599SOL     MW 2396   2.969   0.414   2.093  0.1540 -0.0342 -0.5367
  600SOL     OW 2397   1.853   1.596   0.830  0.3730  0.0191 -0.0112
  600SOL    HW1 2398   1.912   1.615   0.905 -0.2740 -1.7493  1.1955
  600SOL    HW2 2399   1.785   1.665   0.839  0.2643  1.2669  2.6861
  600SOL     MW 2400   1.852   1.607   0.841  0.2733 -0.0496  0.5039
  601SOL     OW 2401   2.505   0.765   0.811  0.4084 -0.7442  0.4466
  601SOL    HW1 2402   2.497   0.798   0.909 -1.1550  2.0351  1.6766
  601SOL    HW2 2403   2.432   0.700   0.803 -1.5213 -3.6921 -0.0338
  601SOL     MW 2404   2.494   0.760   0.823 -0.0525 -0.7664  0.5455
  602SOL     OW 2405   2.308   1.935   0.791 -0.0808  0.3829 -0.4844
  602SOL    HW1 2406   2.254   1.865   0.755  0.2356  1.2961 -1.1340
  602SOL    HW2 2407   2.267   2.016   0.761 -0.8366  0.9018  0.9771
  602SOL     MW 2408   2.295   1.937   0.783 -0.1388  0.5718 -0.3773
  603SOL     OW 2409   0.028   1.354   1.831  0.4400  0.0514  0.0409
  603SOL    HW1 2410   0.060   1.422   1.891  0.8815 -0.1339 -0.8320
  603SOL    HW2 2411   0.030   1.279   1.887  0.4046  3.7314  3.6003
  603SOL     MW 2412   0.032   1.353   1.846  0.4936  0.5125  0.3953
  604SOL     OW 2413   2.156   1.542   0.491 -0.0035  0.0883  0.3505
  604SOL    HW1 2414   2.150   1.447   0.513  0.9826 -1.7489 -1.5362
  604SOL    HW2 2415   2.079   1.582   0.537 -3.1091 -0.1376  1.1370
  604SOL     MW 2416   2.145   1.535   0.500 -0.2832 -0.1839  0.2053
  605SOL     OW 2417   2.566   1.475   0.874 -0.6886  0.3503 -0.2823
  605SOL    HW1 2418   2.512   1.523   0.813  3.5526 -1.3789 -0.8523
  605SOL    HW2 2419   2.591   1.389   0.843  0.5798  2.9483  1.7184
  605SOL     MW 2420   2.562   1.470   0.862  0.0383  0.4650 -0.0936
  606SOL     OW 2421   2.570   1.642   2.012 -0.2209 -0.2581  0.2590
  606SOL    HW1 2422   2.478   1.667   1.999 -1.8932 -1.2440 -0.9722
  606SOL    HW2 2423   2.599   1.605   1.927  1.1008 -1.1274 -0.8834
  606SOL     MW 2424   2.562   1.640   1.999 -0.2671 -0.5029 -0.0541
  607SOL     OW 2425   2.425   1.108   3.000  0.1686 -0.0058 -0.4581
  607SOL    HW1 2426   2.489   1.068   2.938  0.8606 -0.7882  0.8844
  607SOL    HW2 2427   2.464   1.093   3.092 -1.7574 -0.0827  1.1284
  607SOL     MW 2428   2.439   1.100   3.004  0.0058 -0.1192 -0.0717
  608SOL     OW 2429   1.855   0.279   0.587 -0.5204 -0.0933 -0.1746
  608SOL    HW1 2430   1.879   0.319   0.505  0.6126  0.1895  1.0149
  608SOL    HW2 2431   1.818   0.193   0.570  1.3436  0.0932 -4.3547
  608SOL     MW 2432   1.854   0.273   0.574 -0.1250 -0.0314 -0.5691
  609SOL     OW 2433   2.054   1.970   3.015 -0.2223 -0.2427 -0.4364
  609SOL    HW1 2434   1.979   1.906   3.000  0.5159 -1.3802 -0.9201
  609SOL    HW2 2435   2.098   1.915   3.084  0.4842 -2.2045  0.0434
  609SOL     MW 2436   2.050   1.955   3.022 -0.0317 -0.6516 -0.4369
  610SOL     OW 2437   1.753   0.997   1.269 -0.5699  0.1120 -0.3718
  610SOL    HW1 2438   1.755   0.922   1.212  3.7455 -2.3779 -1.3841
  610SOL    HW2 2439   1.657   1.016   1.268  0.0623  0.2048 -0.4160
  610SOL     MW 2440   1.741   0.990   1.262  0.0829 -0.2042 -0.5112
  611SOL     OW 2441   2.538   1.699   0.689  0.1466 -0.3523  0.1221
  611SOL    HW1 2442   2.530   1.783   0.727 -0.3168  1.7040 -1.1081
  611SOL    HW2 2443   2.476   1.696   0.617 -2.0407  0.0195  0.9442
  611SOL     MW 2444   2.529   1.710   0.685 -0.2031 -0.0320  0.0683
  612SOL     OW 2445   2.852   2.877   0.394  0.5002  0.3848  0.0138
  612SOL    HW1 2446   2.873   2.911   0.484  1.6099 -1.0294  0.4746
  612SOL    HW2 2447   2.934   2.831   0.356  0.6165  2.7625 -0.7102
  612SOL     MW 2448   2.866   2.875   0.401  0.6620  0.5120 -0.0209
  613SOL     OW 2449   1.468   1.013   0.888 -0.0550  0.0851 -0.0499
  613SOL    HW1 2450   1.495   1.096   0.843 -0.3194  2.4643  1.9643
  613SOL    HW2 2451   1.479   1.029   0.986  1.6836  1.1278  0.3787
  613SOL     MW 2452   1.473   1.026   0.895  0.1395  0.5366  0.2724
  614SOL     OW 2453   1.991   0.578   1.454 -0.0464  0.1261 -0.3888
  614SOL    HW1 2454   1.960   0.490   1.490  0.0400 -3.1553  2.6080
  614SOL    HW2 2455   1.949   0.587   1.366  1.7801  0.5050 -0.5104
  614SOL     MW 2456   1.981   0.568   1.447  0.2060 -0.2568 -0.0095
  615SOL     OW 2457   2.368   0.752   0.237 -0.6438  0.0908  0.3586
  615SOL    HW1 2458   2.437   0.686   0.253 -1.7651  1.1337 -0.6396
  615SOL    HW2 2459   2.328   0.701   0.164 -1.2845 -0.4884 -0.8730
  615SOL     MW 2460   2.372   0.736   0.229 -0.8763  0.1520  0.0644
  616SOL     OW 2461   2.512   0.410   1.657 -0.3307 -0.2413  0.0744
  616SOL    HW1 2462   2.576   0.372   1.602 -1.8213  2.2579  0.0563
  616SOL    HW2 2463   2.465   0.458   1.588  0.2033  2.2220 -0.9051
  616SOL     MW 2464   2.514   0.411   1.640 -0.4569  0.4135 -0.0572
  617SOL     OW 2465   2.795   0.621   1.713  0.2449  0.3505 -0.0931
  617SOL    HW1 2466   2.719   0.601   1.770 -0.3810 -1.4631  2.2694
  617SOL    HW2 2467   2.813   0.530   1.682 -3.2967  1.1259 -1.9321
  617SOL     MW 2468   2.787   0.606   1.716 -0.3050  0.2135 -0.0241
  618SOL     OW 2469   2.718   0.353   1.918  0.3638  0.2879 -0.1381
  618SOL    HW1 2470   2.657   0.420   1.947  0.8339  1.9356  0.9860
  618SOL    HW2 2471   2.787   0.357   1.985 -0.4651 -1.8256 -0.6691
  618SOL     MW 2472   2.719   0.363   1.931  0.3165  0.2265 -0.0599
  619SOL     OW 2473   2.652   0.696   0.069  0.5289  0.2924 -0.4073
  619SOL    HW1 2474   2.693   0.779   0.099  0.3232  1.4012  0.9123
  619SOL    HW2 2475   2.616   0.642   0.136  1.7178  0.4492  0.1274
  619SOL     MW 2476   2.653   0.700   0.082  0.6586  0.4594 -0.1626
  620SOL     OW 2477   2.207   1.058   0.941 -0.0161  0.1767  0.1208
  620SOL    HW1 2478   2.287   1.061   0.893  0.6849  0.7122  0.1616
  620SOL    HW2 2479   2.139   1.013   0.891  0.2375 -1.8099 -0.3688
  620SOL     MW 2480   2.208   1.052   0.928  0.1098 -0.0148  0.0616
  621SOL     OW 2481   1.551   2.200   1.909  0.3908 -0.0814  0.6112
  621SOL    HW1 2482   1.510   2.153   1.981 -1.1664  2.9948 -3.6973
  621SOL    HW2 2483   1.640   2.172   1.901  1.0590  0.3355 -0.7761
  621SOL     MW 2484   1.557   2.190   1.917  0.2735  0.3794 -0.1403
  622SOL     OW 2485   2.622   0.189   0.223 -0.6728  0.1705  0.2294
  622SOL    HW1 2486   2.710   0.231   0.236 -0.6113 -1.6387  0.5184
  622SOL    HW2 2487   2.634   0.102   0.266  0.3701 -0.9851 -1.3443
  622SOL     MW 2488   2.635   0.183   0.231 -0.5271 -0.2207  0.0599
  623SOL     OW 2489   2.398   2.777   0.819  0.1176 -0.1047 -0.1561
  623SOL    HW1 2490   2.435   2.858   0.785  0.0465 -0.9121  1.1730
  623SOL    HW2 2491   2.367   2.785   0.912 -2.0182  0.3088  1.3803
  623SOL     MW 2492   2.398   2.789   0.827 -0.1736 -0.1566  0.2219
  624SOL     OW 2493   2.149   1.687   3.004 -0.2075  0.0633  0.2503
  624SOL    HW1 2494   2.112   1.605   3.016  0.0310  0.1000 -1.2743
  624SOL    HW2 2495   2.075   1.748   2.971  0.9985  0.2928  0.7889
  624SOL     MW 2496   2.134   1.684   3.001 -0.0169  0.0985  0.1202
  625SOL     OW 2497   2.196   1.904   1.031 -0.1242 -0.7006 -0.0468
  625SOL    HW1 2498   2.269   1.879   1.083  1.1631 -0.4645  0.3400
  625SOL    HW2 2499   2.234   1.939   0.947 -1.8234 -0.2824 -0.4574
  625SOL     MW 2500   2.211   1.906   1.027 -0.1786 -0.6143 -0.0499
  626SOL     OW 2501   0.303   1.674   2.373 -0.1446  0.5903  0.2662
  626SOL    HW1 2502   0.243   1.631   2.436  2.3194  1.1978 -0.2906
  626SOL    HW2 2503   0.251   1.733   2.318 -3.3233 -1.3306  0.2813
  626SOL     MW 2504   0.288   1.676   2.374 -0.2389  0.4170  0.1947
  627SOL     OW 2505   2.445   0.700   2.547  0.0296 -0.3249  0.3949
  627SOL    HW1 2506   2.434   0.792   2.559  2.6132 -1.2309 -1.3750
  627SOL    HW2 2507   2.405   0.694   2.461  1.2565  2.1046 -0.1709
  627SOL     MW 2508   2.438   0.711   2.537  0.5323 -0.1239  0.0867
  628SOL     OW 2509   2.337   1.386   1.305 -0.9283 -1.3596 -0.6962
  628SOL    HW1 2510   2.308   1.307   1.259 -0.1577  1.1914 -0.8775
  628SOL    HW2 2511   2.399   1.419   1.244 -0.5623  2.7151  0.4710
  628SOL     MW 2512   2.342   1.380   1.291 -0.7783 -0.4854 -0.5661
  629SOL     OW 2513   1.858   0.538   1.229 -0.1716 -0.0898  0.6048
  629SOL    HW1 2514   1.864   0.621   1.186 -0.0005 -0.0136  0.1385
  629SOL    HW2 2515   1.761   0.528   1.255 -1.6395 -1.5289  0.7820
  629SOL     MW 2516   1.846   0.547   1.227 -0.3427 -0.2696  0.5667
  630SOL     OW 2517   2.366   1.842   3.078 -0.1972  0.6599  0.3952
  630SOL    HW1 2518   2.359   1.929   3.042 -1.6073  2.6170  0.1155
  630SOL    HW2 2519   2.282   1.792   3.066  0.3240  0.0757 -0.2322
  630SOL     MW 2520   2.354   1.847   3.071 -0.3145  0.8411  0.2755
  631SOL     OW 2521   2.054   1.812   1.543  0.4485 -0.3867 -0.0955
  631SOL    HW1 2522   2.055   1.730   1.592 -1.7618 -2.8851 -1.8808
  631SOL    HW2 2523   2.001   1.790   1.468 -0.8421 -3.5142  0.1894
  631SOL     MW 2524   2.047   1.798   1.540 -0.0134 -1.1290 -0.2935
  632SOL     OW 2525   0.208   1.983   1.394  0.0663  0.3564  0.4629
  632SOL    HW1 2526   0.158   1.996   1.482  0.4758 -3.6391  0.0602
  632SOL    HW2 2527   0.249   1.892   1.406  2.3514 -1.5011 -0.4422
  632SOL     MW 2528   0.207   1.972   1.407  0.4218 -0.4158  0.2903
  633SOL     OW 2529   2.558   0.573   0.302  0.2403  0.4770  0.1261
  633SOL    HW1 2530   2.621   0.580   0.373  1.2000  0.1003 -3.6150
  633SOL    HW2 2531   2.546   0.480   0.296  1.0674  2.1933  3.1385
  633SOL     MW 2532   2.564   0.561   0.310  0.4760  0.6538  0.0300
  634SOL     OW 2533   2.673   0.018   0.648  0.2727 -0.0908 -0.1318
  634SOL    HW1 2534   2.720   0.104   0.663  0.8632  0.2354  2.3689
  634SOL    HW2 2535   2.646   0.012   0.553 -3.8100 -0.8518  1.7850
  634SOL     MW 2536   2.676   0.029   0.637 -0.1881 -0.1482  0.4511
  635SOL     OW 2537   2.588   0.129   1.839 -0.6812 -0.3448  0.3005
  635SOL    HW1 2538   2.663   0.076   1.803 -0.8430  3.7117  1.1114
  635SOL    HW2 2539   2.637   0.212   1.855 -0.0030 -0.2450 -2.1932
  635SOL     MW 2540   2.604   0.133   1.836 -0.6131  0.2036  0.0784
  636SOL     OW 2541   2.830   1.605   0.941  0.0005 -0.0777 -1.2230
  636SOL    HW1 2542   2.741   1.630   0.923  0.3882  2.3431  0.9508
  636SOL    HW2 2543   2.881   1.680   0.964  0.6481 -1.2170  2.9910
  636SOL     MW 2544   2.825   1.618   0.942  0.1371  0.0914 -0.3802
  637SOL     OW 2545   2.873   1.448   0.707 -0.1022  0.5783 -0.6020
  637SOL    HW1 2546   2.921   1.518   0.663  1.3280 -2.3399 -2.1639
  637SOL    HW2 2547   2.864   1.481   0.793 -0.9398  0.3783 -0.9139
  637SOL     MW 2548   2.878   1.461   0.713 -0.0240  0.1669 -0.8493
  638SOL     OW 2549   2.678   0.525   0.555 -0.0498  0.0690 -0.5598
  638SOL    HW1 2550   2.764   0.511   0.514 -2.7522 -0.1309 -1.9687
  638SOL    HW2 2551   2.704   0.558   0.641 -0.3065  1.9843 -0.3886
  638SOL     MW 2552   2.693   0.527   0.561 -0.4402  0.2953 -0.7231
  639SOL     OW 2553   1.724   0.037   0.594 -0.0498  0.3283  0.0959
  639SOL    HW1 2554   1.649   0.068   0.555  2.7612 -0.8248  0.3556
  639SOL    HW2 2555   1.739  -0.041   0.536 -2.3658 -1.1129 -0.3855
  639SOL     MW 2556   1.716   0.031   0.581  0.0155 -0.0140  0.0667
  640SOL     OW 2557   0.293   1.309   0.141 -0.7241  0.0402  0.2018
  640SOL    HW1 2558   0.325   1.310   0.049  0.6373 -1.6937 -1.0888
  640SOL    HW2 2559   0.302   1.222   0.184 -1.2456 -1.0101 -1.0429
  640SOL     MW 2560   0.299   1.298   0.135 -0.6133 -0.3271 -0.1327
  641SOL     OW 2561   2.199   0.404   0.430  0.8467 -0.0453  0.0305
  641SOL    HW1 2562   2.215   0.382   0.338  1.2233  0.1972  3.0170
  641SOL    HW2 2563   2.259   0.353   0.486 -1.9912  0.3112  0.3145
  641SOL     MW 2564   2.209   0.395   0.425  0.5219  0.0337  0.4620
  642SOL     OW 2565   0.062   3.088   0.551 -0.1047  0.2067 -0.1045
  642SOL    HW1 2566  -0.005   3.154   0.510 -1.3502 -1.4591  0.4153
  642SOL    HW2 2567   0.004   3.040   0.609 -1.3149 -0.9484  0.9221
  642SOL     MW 2568   0.046   3.090   0.553 -0.4287 -0.1655  0.0995
  643SOL     OW 2569   1.998   0.379   1.663  0.2740 -0.1643  0.2247
  643SOL    HW1 2570   1.943   0.342   1.728 -0.9911  0.6973  3.4710
  643SOL    HW2 2571   1.992   0.317   1.588  1.6731 -1.3214  1.0802
  643SOL     MW 2572   1.990   0.365   1.661  0.2917 -0.2033  0.7659
  644SOL     OW 2573   2.734   1.949   1.068 -0.4383 -0.4676 -0.2248
  644SOL    HW1 2574   2.712   1.883   1.135 -1.0844 -2.3538 -1.1686
  644SOL    HW2 2575   2.648   1.986   1.048  2.0350  2.7912 -0.6454
  644SOL     MW 2576   2.720   1.945   1.074 -0.1972 -0.2865 -0.4048
  645SOL     OW 2577   2.805   0.848   0.660 -0.0234  0.1789 -0.0276
  645SOL    HW1 2578   2.886   0.810   0.686 -1.0165  0.2454  0.3777
  645SOL    HW2 2579   2.740   0.783   0.668  1.7029  1.6237 -2.5883
  645SOL     MW 2580   2.807   0.835   0.664  0.0733  0.3783 -0.3120
  646SOL     OW 2581   0.067   2.268   0.842 -0.3858 -0.1230  0.0362
  646SOL    HW1 2582   0.099   2.177   0.846  1.0364 -0.3274 -2.0703
  646SOL    HW2 2583   0.010   2.290   0.766 -4.5477 -2.9721  0.2145
  646SOL     MW 2584   0.063   2.259   0.832 -0.7473 -0.5259 -0.2182
  647SOL     OW 2585   2.713   0.480   2.905  0.3166  0.5749  0.2536
  647SOL    HW1 2586   2.726   0.467   3.001  3.2702 -0.3680  0.7270
  647SOL    HW2 2587   2.636   0.537   2.899 -1.5631 -2.1409 -0.2411
  647SOL     MW 2588   2.704   0.486   2.917  0.4583  0.0922  0.2508
  648SOL     OW 2589   2.150   0.727   1.179  0.6010 -0.4966 -0.0472
  648SOL    HW1 2590   2.184   0.651   1.217 -1.2745  2.0929 -2.1459
  648SOL    HW2 2591   2.137   0.795   1.245  1.5148  1.8475  1.0971
  648SOL     MW 2592   2.152   0.726   1.192  0.4741  0.1544 -0.1731
  649SOL     OW 2593   2.386   2.664   1.305 -0.1601  0.4858  0.4672
  649SOL    HW1 2594   2.476   2.691   1.324  1.5012  0.2879 -2.9669
  649SOL    HW2 2595   2.390   2.574   1.273 -0.3380 -0.8485 -1.9372
  649SOL     MW 2596   2.399   2.656   1.303  0.0356  0.2836 -0.3032
  650SOL     OW 2597   2.853   0.251   0.663  0.0266  0.1460  0.4881
  650SOL    HW1 2598   2.892   0.318   0.719  0.5770  0.4029  0.5780
  650SOL    HW2 2599   2.924   0.232   0.590 -0.3803 -1.7515 -0.4095
  650SOL     MW 2600   2.867   0.258   0.661  0.0455 -0.0705  0.3815
  651SOL     OW 2601   3.058   0.427   0.980 -0.2371  0.0539  0.3711
  651SOL    HW1 2602   3.139   0.476   0.943  0.9163  0.0335 -0.7507
  651SOL    HW2 2603   3.000   0.495   1.013  1.3429  1.4006  0.0994
  651SOL     MW 2604   3.061   0.442   0.979  0.1235  0.2289  0.1873
  652SOL     OW 2605   2.431   1.537   3.036  0.5882  0.1095 -0.2972
  652SOL    HW1 2606   2.497   1.551   2.971  0.4702  1.0951 -2.0177
  652SOL    HW2 2607   2.388   1.619   3.040 -2.9098 -0.1404  3.7819
  652SOL     MW 2608   2.434   1.550   3.028  0.1111  0.2065  0.0140
  653SOL     OW 2609   1.836   0.460   0.396 -0.0489  0.1233 -0.2153
  653SOL    HW1 2610   1.762   0.433   0.352  0.2634  0.8982  3.4554
  653SOL    HW2 2611   1.884   0.484   0.315  1.3345 -1.8501 -1.9316
  653SOL     MW 2612   1.833   0.460   0.380  0.1749 -0.0348  0.0426
  654SOL     OW 2613   2.422   1.017   0.762 -0.1174  0.5544 -0.1339
  654SOL    HW1 2614   2.345   1.027   0.698  0.1133  0.3511 -1.8062
  654SOL    HW2 2615   2.443   0.918   0.766  0.3586  0.4605  0.9681
  654SOL     MW 2616   2.414   1.006   0.754 -0.0242  0.5152 -0.2092
  655SOL     OW 2617   2.935   0.809   0.375 -0.5874  0.6357 -0.1172
  655SOL    HW1 2618   2.904   0.851   0.456 -1.1879  0.6843  0.0136
  655SOL    HW2 2619   2.941   0.714   0.400  1.8257 -1.7107  1.3178
  655SOL     MW 2620   2.932   0.802   0.389 -0.3483  0.3325  0.0894
  656SOL     OW 2621   1.845   2.653   1.351 -0.9657 -0.4360 -0.3629
  656SOL    HW1 2622   1.866   2.745   1.377  1.9202  1.9371  1.3774
  656SOL    HW2 2623   1.913   2.603   1.404  0.3581 -2.4856 -0.8156
  656SOL     MW 2624   1.857   2.659   1.361 -0.4103 -0.3933 -0.1930
  657SOL     OW 2625   0.151   1.770   1.173  0.4614  0.3908 -0.4247
  657SOL    HW1 2626   0.228   1.826   1.146  1.6474  2.1619 -0.6962
  657SOL    HW2 2627   0.189   1.676   1.169  0.5342  1.3110 -2.0895
  657SOL     MW 2628   0.166   1.765   1.169  0.6275  0.7459 -0.6802
  658SOL     OW 2629   2.661   1.337   0.258 -0.2598 -0.4177 -0.3311
  658SOL    HW1 2630   2.651   1.258   0.316 -1.1905 -0.7867  3.6122
  658SOL    HW2 2631   2.693   1.398   0.330 -0.1774 -0.3511  0.6145
  658SOL     MW 2632   2.664   1.335   0.275 -0.3718 -0.4576  0.3140
  659SOL     OW 2633   2.249   1.514   0.981 -0.0508 -0.1515 -0.9200
  659SOL    HW1 2634   2.331   1.491   1.022 -3.0592 -2.0079  1.6399
  659SOL    HW2 2635   2.210   1.581   1.047 -0.3941  1.3836  2.6991
  659SOL     MW 2636   2.255   1.520   0.995 -0.4930 -0.1939 -0.1047
  660SOL     OW 2637   2.064   1.550   1.669  0.2767 -0.4160 -0.0711
  660SOL    HW1 2638   2.082   1.560   1.768 -2.2689  0.3162  1.0985
  660SOL    HW2 2639   1.971   1.514   1.666  0.6632 -1.7070 -0.7541
  660SOL     MW 2640   2.054   1.547   1.682 -0.0082 -0.4897 -0.0069
  661SOL     OW 2641   2.463   1.011   0.195  0.6635 -0.1255  0.0654
  661SOL    HW1 2642   2.517   1.030   0.276 -3.3826  1.4721  0.3130
  661SOL    HW2 2643   2.414   0.933   0.220 -1.0316  1.7989 -1.4706
  661SOL     MW 2644   2.464   1.003   0.209 -0.0940  0.3392 -0.1046
  662SOL     OW 2645   2.554   3.028   0.903 -0.0913  0.8762  0.0327
  662SOL    HW1 2646   2.487   3.080   0.945  2.7741  1.4570 -1.1822
  662SOL    HW2 2647   2.583   3.082   0.832 -0.0016 -1.3626 -0.8995
  662SOL     MW 2648   2.549   3.042   0.899  0.2986  0.6574 -0.2506
  663SOL     OW 2649   2.673   1.495   0.484  0.2587  0.0699 -0.7254
  663SOL    HW1 2650   2.666   1.584   0.443  2.8670 -0.8902  1.9250
  663SOL    HW2 2651   2.729   1.501   0.566 -0.2894  0.5983 -0.4978
  663SOL     MW 2652   2.679   1.508   0.489  0.5305  0.0129 -0.3457
  664SOL     OW 2653   2.542   1.535   1.552 -0.0412 -0.0482 -0.0861
  664SOL    HW1 2654   2.515   1.627   1.545  2.4871  0.5512 -2.5236
  664SOL    HW2 2655   2.460   1.476   1.567 -0.1481 -1.3210 -3.2329
  664SOL     MW 2656   2.528   1.539   1.553  0.2782 -0.1371 -0.8229
  665SOL     OW 2657   2.840   0.848   2.027 -0.4657 -0.2226  0.4716
  665SOL    HW1 2658   2.814   0.884   1.943  1.7269  1.0805  0.5669
  665SOL    HW2 2659   2.883   0.770   1.996 -2.8763  0.2955 -1.7523
  665SOL     MW 2660   2.842   0.842   2.011 -0.4945  0.0177  0.1908
  666SOL     OW 2661   2.770   3.074   1.717  0.2175  0.3003 -0.2920
  666SOL    HW1 2662   2.763   3.062   1.621 -3.5043  3.2017 -0.3385
  666SOL    HW2 2663   2.745   2.991   1.757  0.8695  1.6090  0.6602
  666SOL     MW 2664   2.766   3.061   1.710 -0.1875  0.8558 -0.1725
  667SOL     OW 2665   1.955   2.655   1.804  0.8844 -0.3098 -0.1799
  667SOL    HW1 2666   1.977   2.652   1.896  2.6968  1.3500 -1.4974
  667SOL    HW2 2667   2.029   2.707   1.767  0.7367  0.3425 -1.5292
  667SOL     MW 2668   1.968   2.661   1.812  1.1041 -0.0047 -0.5318
  668SOL     OW 2669   2.732   0.615   0.815 -0.4823 -0.9352 -0.8715
  668SOL    HW1 2670   2.799   0.636   0.887  0.3583 -1.2306  3.1934
  668SOL    HW2 2671   2.657   0.679   0.817 -1.1606  1.3194  2.4150
  668SOL     MW 2672   2.731   0.626   0.825 -0.4609 -0.6767  0.0984
  669SOL     OW 2673   0.163   0.908   0.706 -0.4521 -0.5060  0.0456
  669SOL    HW1 2674   0.097   0.970   0.730 -1.3703  2.5266 -1.1217
  669SOL    HW2 2675   0.240   0.936   0.749  0.0851 -1.0861  0.7219
  669SOL     MW 2676   0.164   0.920   0.715 -0.5024 -0.1824 -0.0191
  670SOL     OW 2677   2.853   0.307   0.202 -0.2456 -0.0265  0.3141
  670SOL    HW1 2678   2.888   0.257   0.132 -0.0163 -2.5389 -0.1709
  670SOL    HW2 2679   2.885   0.394   0.192 -1.8982 -0.7869  1.1235
  670SOL     MW 2680   2.862   0.312   0.192 -0.4334 -0.4583  0.3569
  671SOL     OW 2681   2.052   3.060   1.549 -0.2069  0.5176  0.6373
  671SOL    HW1 2682   2.007   3.010   1.476  2.9281 -0.8346 -1.7269
  671SOL    HW2 2683   1.989   3.080   1.623 -2.5590 -0.3977  0.7276
  671SOL     MW 2684   2.038   3.056   1.549 -0.1036  0.2185  0.3373
  672SOL     OW 2685   1.894   1.725   1.320  0.1271 -0.3827 -0.3482
  672SOL    HW1 2686   1.808   1.760   1.342 -0.2443 -0.7594  0.2368
  672SOL    HW2 2687   1.901   1.744   1.230  0.6679  0.8508  1.9686
  672SOL     MW 2688   1.884   1.732   1.311  0.1494 -0.2696  0.0347
  673SOL     OW 2689   2.791   1.106   0.616  0.1831 -0.1982  0.1803
  673SOL    HW1 2690   2.811   1.011   0.627 -0.2716  1.5727  2.3013
  673SOL    HW2 2691   2.873   1.152   0.629 -0.8780  0.6005 -1.2231
  673SOL     MW 2692   2.804   1.099   0.619 -0.0169  0.1409  0.2750
  674SOL     OW 2693   2.442   3.054   1.308  0.0690 -0.0708 -0.1947
  674SOL    HW1 2694   2.391   3.053   1.228 -0.3289  1.6537 -2.3756
  674SOL    HW2 2695   2.455   2.961   1.328  2.9811 -0.1443 -1.1840
  674SOL     MW 2696   2.437   3.042   1.300  0.4007  0.1470 -0.6130
  675SOL     OW 2697   3.068   0.870   1.075  0.2444 -0.2546 -0.0088
  675SOL    HW1 2698   3.128   0.888   1.144 -0.0168  1.9832  0.9475
  675SOL    HW2 2699   3.102   0.910   0.999  0.0442 -0.3462  1.8589
  675SOL     MW 2700   3.081   0.877   1.074  0.1835  0.0286  0.3638
  676SOL     OW 2701   2.938   1.488   1.673  0.2921 -0.2076 -0.4997
  676SOL    HW1 2702   2.916   1.407   1.635  1.5704  1.7571  1.7498
  676SOL    HW2 2703   3.003   1.459   1.734 -0.5710  1.7186  1.1312
  676SOL     MW 2704   2.943   1.473   1.676  0.3469  0.3058  0.0122
  677SOL     OW 2705   2.367   0.591   2.015  0.1233 -0.2730 -0.3140
  677SOL    HW1 2706   2.325   0.554   1.941  1.1892  0.3245  0.8660
  677SOL    HW2 2707   2.327   0.673   2.022  1.5854 -0.8607 -3.2589
  677SOL     MW 2708   2.356   0.597   2.006  0.4569 -0.2717 -0.5468
  678SOL     OW 2709   2.523   1.699   0.315 -0.3144 -0.2560  0.7867
  678SOL    HW1 2710   2.444   1.709   0.371 -0.0417  0.0586 -0.8982
  678SOL    HW2 2711   2.496   1.620   0.262 -1.0880  0.2376 -0.3375
  678SOL     MW 2712   2.509   1.690   0.315 -0.3805 -0.1493  0.4160
  679SOL     OW 2713   2.227   0.432   1.290  0.6023  0.2222 -0.2893
  679SOL    HW1 2714   2.204   0.347   1.252 -1.5879  0.2145  0.3575
  679SOL    HW2 2715   2.155   0.462   1.346  0.6981 -0.4119  0.0268
  679SOL     MW 2716   2.214   0.425   1.292  0.3260  0.1375 -0.1623
  680SOL     OW 2717   2.369   0.175   1.469  0.1301  0.1473 -0.1397
  680SOL    HW1 2718   2.283   0.196   1.446 -1.2702 -0.8079 -0.9253
  680SOL    HW2 2719   2.393   0.080   1.437  1.5157  0.6700  0.1053
  680SOL     MW 2720   2.360   0.165   1.462  0.1281  0.0902 -0.2111
  681SOL     OW 2721   0.291   0.496   1.512  0.1243 -0.1028  0.1092
  681SOL    HW1 2722   0.291   0.446   1.585  2.8366  1.1973  0.3249
  681SOL    HW2 2723   0.386   0.523   1.507  0.4191  0.4260 -0.2374
  681SOL     MW 2724   0.303   0.493   1.521  0.5211  0.1385  0.0920
  682SOL     OW 2725   0.141   2.869   1.503  0.5479 -0.5560  0.4346
  682SOL    HW1 2726   0.209   2.903   1.560 -0.0992  2.5776 -0.3805
  682SOL    HW2 2727   0.060   2.893   1.553 -2.6741 -0.0836 -2.0957
  682SOL     MW 2728   0.140   2.877   1.517  0.0374 -0.0803 -0.0068
  683SOL     OW 2729   2.048   0.789   2.982  0.3020  0.0649  0.1491
  683SOL    HW1 2730   1.956   0.750   2.965  0.6115 -2.0337 -0.7417
  683SOL    HW2 2731   2.040   0.870   3.033 -0.9291 -0.4227 -0.5774
  683SOL     MW 2732   2.035   0.795   2.986  0.1804 -0.2763 -0.0643
  684SOL     OW 2733   2.231   1.661   0.721 -0.2767 -0.4869 -0.3462
  684SOL    HW1 2734   2.220   1.609   0.644  1.6227  0.1538 -0.9594
  684SOL    HW2 2735   2.238   1.603   0.798 -0.6884 -0.0966 -0.8127
  684SOL     MW 2736   2.231   1.647   0.721 -0.0804 -0.3509 -0.4886
  685SOL     OW 2737   2.608   1.730   1.212  0.0219  0.4252 -0.2748
  685SOL    HW1 2738   2.684   1.709   1.265 -0.2246  0.8835  0.0918
  685SOL    HW2 2739   2.585   1.653   1.167  0.3946  1.6690  0.8788
  685SOL     MW 2740   2.615   1.717   1.213  0.0386  0.6498 -0.0742
  686SOL     OW 2741   2.896   0.772   1.512 -0.3366 -0.5236 -0.6208
  686SOL    HW1 2742   2.878   0.718   1.587  3.1023 -2.0911 -0.7663
  686SOL    HW2 2743   2.970   0.730   1.468  1.5640 -1.2090  0.6305
  686SOL     MW 2744   2.903   0.759   1.516  0.3679 -0.8208 -0.4749
  687SOL     OW 2745   2.155   0.201   1.166 -0.0344  0.7889  0.8759
  687SOL    HW1 2746   2.202   0.131   1.117 -0.7236 -0.0505 -0.6389
  687SOL    HW2 2747   2.089   0.248   1.116 -1.6518 -2.8761  0.5218
  687SOL     MW 2748   2.153   0.198   1.153 -0.3387  0.1946  0.6293
  688SOL     OW 2749   2.410   0.585   1.450 -0.1439 -0.3786  0.3442
  688SOL    HW1 2750   2.340   0.535   1.399 -1.9160 -2.7232  0.6694
  688SOL    HW2 2751   2.363   0.648   1.514 -2.3030  1.5444  3.1660
  688SOL     MW 2752   2.395   0.586   1.452 -0.6626 -0.4342  0.7594
  689SOL     OW 2753   2.466   0.746   2.974  0.4884 -0.2667 -0.4392
  689SOL    HW1 2754   2.459   0.835   2.937 -2.4399 -2.1040 -0.0124
  689SOL    HW2 2755   2.536   0.754   3.043 -0.7923 -0.2471  2.5855
  689SOL     MW 2756   2.474   0.759   2.979 -0.0669 -0.5065  0.0162
  690SOL     OW 2757   2.001   0.859   1.853 -0.5922  0.0112  0.2302
  690SOL    HW1 2758   1.978   0.765   1.856  1.7252 -1.5397  1.5618
  690SOL    HW2 2759   2.024   0.865   1.760 -1.5959 -0.5871  1.4126
  690SOL     MW 2760   2.001   0.847   1.841 -0.4189 -0.2724  0.5619
  691SOL     OW 2761   2.406   0.320   0.897  0.1675 -0.6431 -0.5091
  691SOL    HW1 2762   2.467   0.379   0.941  0.7883  0.6909  3.0703
  691SOL    HW2 2763   2.321   0.361   0.887 -0.8201 -1.2284  1.8092
  691SOL     MW 2764   2.403   0.333   0.902  0.1191 -0.5443  0.2690
  692SOL     OW 2765   2.837   1.704   1.409  0.2270 -0.4268  0.5923
  692SOL    HW1 2766   2.815   1.634   1.474  0.3041 -0.5991  1.2904
  692SOL    HW2 2767   2.886   1.770   1.466 -2.3036  0.3805  1.7561
  692SOL     MW 2768   2.840   1.703   1.425 -0.0967 -0.3430  0.8380
  693SOL     OW 2769   2.257   0.400   0.141 -0.0396 -0.2625  0.0724
  693SOL    HW1 2770   2.181   0.350   0.127 -0.2899  1.9892 -1.6002
  693SOL    HW2 2771   2.245   0.481   0.085  1.2819  0.9383 -1.3941
  693SOL     MW 2772   2.245   0.404   0.132  0.1018  0.1930 -0.3417
  694SOL     OW 2773   1.945   1.204   1.194 -0.2511  0.1814  0.4300
  694SOL    HW1 2774   2.043   1.208   1.194  1.4699  1.4197 -1.5062
  694SOL    HW2 2775   1.909   1.123   1.230 -0.3677 -0.3721 -1.5192
  694SOL     MW 2776   1.953   1.194   1.199 -0.0394  0.2718 -0.0826
  695SOL     OW 2777   3.035   1.543   1.283  0.6264  0.2169  0.0710
  695SOL    HW1 2778   2.979   1.493   1.217 -0.0521  0.8343 -0.4193
  695SOL    HW2 2779   2.971   1.597   1.323  0.4906  0.1089 -0.8797
  695SOL     MW 2780   3.019   1.543   1.279  0.5189  0.2841 -0.1191
  696SOL     OW 2781   2.120   1.357   0.829 -0.4019  0.7121  0.3869
  696SOL    HW1 2782   2.168   1.418   0.885 -2.1479 -1.6363 -2.0066
  696SOL    HW2 2783   2.092   1.278   0.879  0.8930  2.5717  0.7241
  696SOL     MW 2784   2.123   1.355   0.843 -0.4614  0.6476  0.1156
  697SOL     OW 2785   2.907   1.059   2.222  0.0254  0.2574 -0.1220
  697SOL    HW1 2786   2.836   1.121   2.218  2.3587  0.2697  1.5423
  697SOL    HW2 2787   2.890   0.989   2.162 -1.7387  1.4226 -1.0081
  697SOL     MW 2788   2.896   1.058   2.214  0.1005  0.4128 -0.0193
  698SOL     OW 2789   2.544   0.343   0.008 -0.3083  0.1434 -0.0693
  698SOL    HW1 2790   2.458   0.369   0.044 -0.7786 -0.2953  2.1541
  698SOL    HW2 2791   2.578   0.284   0.076 -5.5479 -0.5314  1.4022
  698SOL     MW 2792   2.537   0.338   0.022 -1.0617 -0.0035  0.4182
  699SOL     OW 2793   1.807   1.571   2.073  0.5235 -0.3848 -0.3165
  699SOL    HW1 2794   1.772   1.484   2.054 -2.0689 -0.3889 -0.0615
  699SOL    HW2 2795   1.884   1.568   2.019  1.7574  1.4943  3.0382
  699SOL     MW 2796   1.813   1.559   2.064  0.3442 -0.1374  0.1597
  700SOL     OW 2797   2.670   0.928   1.470  0.2963 -0.2479  0.0344
  700SOL    HW1 2798   2.702   1.009   1.422  1.7894  0.1664  2.4900
  700SOL    HW2 2799   2.751   0.868   1.478  1.7689  0.7685  0.1028
  700SOL     MW 2800   2.685   0.931   1.465  0.6876 -0.0591  0.3674
  701SOL     OW 2801   1.649   1.195   2.487 -0.1726  0.1692  0.7202
  701SOL    HW1 2802   1.742   1.203   2.459 -1.3697 -1.0098  0.7151
  701SOL    HW2 2803   1.647   1.240   2.570  1.4232 -0.5691  1.7685
  701SOL     MW 2804   1.661   1.202   2.494 -0.1200 -0.0838  0.8578
  702SOL     OW 2805   2.141   0.412   0.849  0.0644 -0.2233  0.0015
  702SOL    HW1 2806   2.152   0.355   0.772 -0.3744  1.2746  2.3238
  702SOL    HW2 2807   2.193   0.493   0.839  1.8593  0.2614  1.2957
  702SOL     MW 2808   2.149   0.415   0.837  0.2433  0.0383  0.4787
  703SOL     OW 2809   2.723   1.197   1.069 -0.0946 -0.2420  0.2231
  703SOL    HW1 2810   2.676   1.177   0.982  1.2382 -0.7988 -0.0571
  703SOL    HW2 2811   2.743   1.110   1.110 -2.0499 -3.2940  1.0359
  703SOL     MW 2812   2.720   1.183   1.063 -0.1768 -0.7181  0.2934
  704SOL     OW 2813   3.043   1.174   0.062  0.8383 -0.1192 -0.4397
  704SOL    HW1 2814   2.952   1.202   0.035  0.2090  0.3066 -1.1918
  704SOL    HW2 2815   3.039   1.133   0.155 -0.4886  0.8590  0.2331
  704SOL     MW 2816   3.031   1.172   0.071  0.5802  0.0661 -0.4502
  705SOL     OW 2817   2.172   1.629   1.236 -0.3792 -0.1067 -0.3297
  705SOL    HW1 2818   2.112   1.639   1.307  1.2069  1.0520 -3.1614
  705SOL    HW2 2819   2.208   1.541   1.257 -0.2096  0.1854  0.3908
  705SOL     MW 2820   2.169   1.619   1.248 -0.1476  0.0847 -0.6083
  706SOL     OW 2821   3.031   1.234   0.651 -0.0047 -0.0606  0.3222
  706SOL    HW1 2822   3.069   1.235   0.556  0.0951 -1.3391 -2.2809
  706SOL    HW2 2823   2.991   1.317   0.679  3.1233 -2.4027  2.3631
  706SOL     MW 2824   3.031   1.245   0.642  0.4212 -0.5383  0.2480
  707SOL     OW 2825   2.347   0.067   1.040 -0.5382 -0.3991 -0.0508
  707SOL    HW1 2826   2.376   0.151   1.010  1.2568  0.9533 -2.0352
  707SOL    HW2 2827   2.284   0.038   0.971  0.0151  1.6157 -0.9168
  707SOL     MW 2828   2.343   0.074   1.027 -0.2283  0.0452 -0.4269
  708SOL     OW 2829   2.406   1.423   0.195 -0.4126 -0.1562 -0.0825
  708SOL    HW1 2830   2.494   1.392   0.214  2.3288  2.7865  1.5783
  708SOL    HW2 2831   2.423   1.461   0.108  0.5289 -4.0529  0.3412
  708SOL     MW 2832   2.420   1.424   0.186  0.0733 -0.2821  0.1925
  709SOL     OW 2833   1.776   1.634   0.207 -0.0485  0.0743 -0.0706
  709SOL    HW1 2834   1.769   1.648   0.114  0.4461  1.2023 -1.2808
  709SOL    HW2 2835   1.694   1.659   0.250 -0.9374 -1.0449 -1.6816
  709SOL     MW 2836   1.764   1.639   0.200 -0.1005  0.0755 -0.4428
  710SOL     OW 2837   2.211   1.185   1.171  0.2530 -0.3177 -0.5866
  710SOL    HW1 2838   2.212   1.152   1.079  2.2924 -2.2484  1.7867
  710SOL    HW2 2839   2.211   1.105   1.230 -0.5282 -0.3550  2.9055
  710SOL     MW 2840   2.211   1.170   1.167  0.4190 -0.5774  0.1873
  711SOL     OW 2841   2.334   0.157   1.739  0.0132  0.3836 -0.1521
  711SOL    HW1 2842   2.427   0.145   1.769 -0.7549  0.7112 -0.2445
  711SOL    HW2 2843   2.336   0.152   1.643  1.6445  3.2919  2.1276
  711SOL     MW 2844   2.347   0.155   1.730  0.1271  0.8106  0.1365
  712SOL     OW 2845   1.911   0.509   0.113 -0.0123  0.0245 -0.6695
  712SOL    HW1 2846   1.846   0.503   0.049  1.7110  1.8272  1.2493
  712SOL    HW2 2847   1.930   0.605   0.112 -1.3999 -1.8525 -0.4855
  712SOL     MW 2848   1.905   0.520   0.104  0.0320  0.0147 -0.3921
  713SOL     OW 2849   2.560   0.847   1.084  0.0708 -0.3919 -0.3290
  713SOL    HW1 2850   2.519   0.778   1.131 -3.5087  1.2661  0.8876
  713SOL    HW2 2851   2.538   0.927   1.136  1.0190 -2.8889  0.6807
  713SOL     MW 2852   2.552   0.848   1.097 -0.2764 -0.5026 -0.0353
  714SOL     OW 2853   2.224   0.219   2.007  0.1076 -0.6905 -0.9280
  714SOL    HW1 2854   2.257   0.160   2.076 -1.6154 -2.1681  2.2486
  714SOL    HW2 2855   2.264   0.214   1.919  0.6820  0.8437 -2.1677
  714SOL     MW 2856   2.234   0.210   2.005 -0.0439 -0.6830 -0.6725
  715SOL     OW 2857   1.751   1.867   1.677  0.1014 -0.0657  0.4898
  715SOL    HW1 2858   1.836   1.833   1.655 -1.8010  1.5568  1.8384
  715SOL    HW2 2859   1.742   1.854   1.770 -0.1806  0.3729 -0.0030
  715SOL     MW 2860   1.761   1.861   1.687 -0.1868  0.2062  0.6027
  716SOL     OW 2861   2.307   0.592   0.725  0.0716  0.3759  0.3681
  716SOL    HW1 2862   2.353   0.514   0.685  0.5462  1.4498 -1.3383
  716SOL    HW2 2863   2.271   0.636   0.650 -0.6333 -0.0103  1.5796
  716SOL     MW 2864   2.309   0.587   0.710  0.0412  0.4667  0.3028
  717SOL     OW 2865   2.860   1.615   2.870  0.2007  0.5785 -0.4217
  717SOL    HW1 2866   2.942   1.602   2.916 -2.4551 -1.3144 -1.0183
  717SOL    HW2 2867   2.793   1.647   2.930  0.7787  0.8500  0.6512
  717SOL     MW 2868   2.862   1.618   2.884 -0.0734  0.3646 -0.3589
  718SOL     OW 2869   2.673   1.418   1.332 -0.5819  1.0851  0.0984
  718SOL    HW1 2870   2.619   1.443   1.405  1.4682 -2.5858  0.5412
  718SOL    HW2 2871   2.703   1.332   1.356  0.9453  0.7638 -0.6326
  718SOL     MW 2872   2.670   1.410   1.345 -0.1099  0.5584  0.0604
  719SOL     OW 2873   2.188   1.298   0.585  0.2819  0.6099  0.0236
  719SOL    HW1 2874   2.283   1.325   0.581 -1.1841 -1.8025 -0.3234
  719SOL    HW2 2875   2.153   1.332   0.675 -1.5703 -2.2134  1.6424
  719SOL     MW 2876   2.196   1.306   0.597 -0.1559 -0.0809  0.1914
  720SOL     OW 2877   2.762   1.199   0.032  0.3554 -0.3323  0.3128
  720SOL    HW1 2878   2.739   1.114   0.068 -1.6275 -0.8257 -0.2912
  720SOL    HW2 2879   2.728   1.244   0.112  1.2015 -2.4333  2.6510
  720SOL     MW 2880   2.754   1.193   0.047  0.2054 -0.6746  0.5416
  721SOL     OW 2881   2.443   0.844   1.360 -0.0653  0.2416 -0.2193
  721SOL    HW1 2882   2.448   0.747   1.353 -1.7938 -1.1073 -2.2783
  721SOL    HW2 2883   2.526   0.870   1.404 -0.0218 -1.9000 -1.7690
  721SOL     MW 2884   2.454   0.835   1.365 -0.2876 -0.2189 -0.6955
  722SOL     OW 2885   2.592   1.120   0.400  0.4542 -0.5545 -0.0643
  722SOL    HW1 2886   2.531   1.169   0.455 -0.7656  0.1702 -2.2761
  722SOL    HW2 2887   2.664   1.093   0.462 -0.5079 -0.7978 -2.7891
  722SOL     MW 2888   2.594   1.123   0.415  0.1663 -0.4910 -0.7157
  723SOL     OW 2889   2.336   1.380   1.592  0.4985  0.4225  0.2700
  723SOL    HW1 2890   2.309   1.384   1.500  0.9269 -1.2576  1.1299
  723SOL    HW2 2891   2.261   1.416   1.640  2.4004 -1.8380 -1.8802
  723SOL     MW 2892   2.322   1.385   1.586  0.8060 -0.0974  0.0997
  724SOL     OW 2893   2.437   0.370   0.601 -0.4057 -0.4221 -0.1236
  724SOL    HW1 2894   2.452   0.327   0.686 -1.3225 -1.4606 -2.2978
  724SOL    HW2 2895   2.523   0.407   0.578 -0.3391  1.0821 -1.2964
  724SOL     MW 2896   2.450   0.369   0.610 -0.5178 -0.3607 -0.5652
  725SOL     OW 2897   2.538   0.577   1.200  0.1178  0.2003 -0.0381
  725SOL    HW1 2898   2.619   0.607   1.236 -1.0932  2.2884 -0.8470
  725SOL    HW2 2899   2.499   0.518   1.267 -1.4930  0.3297  2.3435
  725SOL     MW 2900   2.544   0.573   1.214 -0.2545  0.4929  0.1694
  726SOL     OW 2901   2.560   2.453   0.560 -0.0807  0.2625  0.1864
  726SOL    HW1 2902   2.504   2.504   0.505 -0.0457 -0.8530  0.3604
  726SOL    HW2 2903   2.519   2.421   0.635 -1.0005  0.2195  0.7073
  726SOL     MW 2904   2.547   2.455   0.563 -0.1974  0.1096  0.2781
  727SOL     OW 2905   2.922   0.367   1.698 -0.1849 -0.5764  0.3350
  727SOL    HW1 2906   2.863   0.334   1.629  1.0468  2.1147  1.0473
  727SOL    HW2 2907   2.862   0.372   1.775  1.8407 -2.2406  1.0432
  727SOL     MW 2908   2.907   0.363   1.699  0.2449 -0.4409  0.5225
  728SOL     OW 2909   2.805   1.182   2.861 -0.6970 -0.2283  0.2046
  728SOL    HW1 2910   2.774   1.256   2.805  2.4497  0.5405 -0.1362
  728SOL    HW2 2911   2.789   1.208   2.950  0.0551 -2.1655  0.1648
  728SOL     MW 2912   2.799   1.195   2.866 -0.1826 -0.3825  0.1544
  729SOL     OW 2913   2.517   1.485   1.121  0.3224 -0.1426  0.3166
  729SOL    HW1 2914   2.580   1.447   1.182 -3.1179 -2.5853  0.5212
  729SOL    HW2 2915   2.548   1.465   1.032 -1.5839 -2.6124  0.0031
  729SOL     MW 2916   2.530   1.477   1.117 -0.3831 -0.7907  0.3022
  730SOL     OW 2917   2.264   1.182   0.174  0.6917  0.2290  0.1875
  730SOL    HW1 2918   2.342   1.122   0.190 -1.7290  0.3995 -0.1190
  730SOL    HW2 2919   2.311   1.260   0.148 -1.6485 -1.5400 -0.3197
  730SOL     MW 2920   2.281   1.184   0.173  0.0636  0.0181  0.0801
  731SOL     OW 2921   2.758   1.899   2.853  0.1466  0.3726  0.0935
  731SOL    HW1 2922   2.692   1.938   2.796 -0.1082 -0.0806  0.2428
  731SOL    HW2 2923   2.836   1.953   2.825 -0.9257 -1.4961 -0.6044
  731SOL     MW 2924   2.760   1.912   2.842 -0.0285  0.0662  0.0211
  732SOL     OW 2925   2.217   0.996   1.367  0.2808 -0.6379 -0.0696
  732SOL    HW1 2926   2.189   1.002   1.457 -0.6577 -1.2350  0.1377
  732SOL    HW2 2927   2.297   0.949   1.365 -0.2229  1.3114  0.2111
  732SOL     MW 2928   2.224   0.991   1.378  0.0905 -0.4595 -0.0052
  733SOL     OW 2929   2.358   2.758   3.014 -0.1910 -0.0770 -0.3505
  733SOL    HW1 2930   2.269   2.793   2.999  0.6772  0.6237 -0.0362
  733SOL    HW2 2931   2.345   2.662   3.005  1.6014 -0.7359 -1.6160
  733SOL     MW 2932   2.344   2.750   3.011  0.1601 -0.0715 -0.4760
  734SOL     OW 2933   1.435   0.346   2.449 -0.3417 -1.2114  0.4201
  734SOL    HW1 2934   1.433   0.298   2.531  0.8143 -0.2114 -0.4006
  734SOL    HW2 2935   1.487   0.287   2.390 -0.6463 -2.7251  1.3080
  734SOL     MW 2936   1.442   0.332   2.452 -0.2293 -1.2792  0.4290
  735SOL     OW 2937   2.926   0.894   2.625 -0.3164  0.6270  0.1937
  735SOL    HW1 2938   2.926   0.796   2.604  0.6360 -3.0440  0.8480
  735SOL    HW2 2939   2.951   0.906   2.718  1.1331  2.0828 -0.1108
  735SOL     MW 2940   2.930   0.882   2.634  0.0005  0.3347  0.2398
  736SOL     OW 2941   0.084   0.580   2.487  0.1957 -0.0028  0.4683
  736SOL    HW1 2942   0.126   0.662   2.461 -1.7382 -1.8195  1.9921
  736SOL    HW2 2943   0.075   0.527   2.407  0.0051  0.4344  0.9814
  736SOL     MW 2944   0.088   0.584   2.473 -0.0846 -0.1848  0.7370
  737SOL     OW 2945   2.925   0.627   2.566 -0.3115  0.1567  0.1128
  737SOL    HW1 2946   2.855   0.591   2.509  1.9667  0.7956  0.1965
  737SOL    HW2 2947   3.016   0.605   2.522  0.0941 -0.7696  0.0290
  737SOL     MW 2948   2.928   0.619   2.553  0.0426  0.1188  0.1128
  738SOL     OW 2949   0.149   0.603   1.894 -0.2411 -0.9102  0.2224
  738SOL    HW1 2950   0.219   0.669   1.892 -0.6265  1.4031 -2.2860
  738SOL    HW2 2951   0.189   0.522   1.865 -0.8415 -1.2373  0.5582
  738SOL     MW 2952   0.164   0.601   1.890 -0.3712 -0.6481 -0.0643
  739SOL     OW 2953   2.464   1.012   2.057  0.1509 -0.2409  0.1114
  739SOL    HW1 2954   2.376   0.989   2.034 -0.5021 -0.9641  0.4166
  739SOL    HW2 2955   2.501   1.004   1.970  2.8222  0.6853  0.2835
  739SOL     MW 2956   2.457   1.008   2.043  0.4172 -0.2141  0.1744
  740SOL     OW 2957   0.270   1.732   2.938 -0.2124 -0.7616  0.0647
  740SOL    HW1 2958   0.194   1.671   2.946 -1.4099  0.0555  1.0880
  740SOL    HW2 2959   0.341   1.698   2.988 -1.6290  0.6917 -0.2426
  740SOL     MW 2960   0.269   1.719   2.946 -0.5573 -0.4621  0.1591
  741SOL     OW 2961   2.231   1.158   2.745  0.0654 -0.3026 -0.0299
  741SOL    HW1 2962   2.148   1.208   2.715 -4.3291 -2.7815  3.1851
  741SOL    HW2 2963   2.256   1.211   2.826  2.1563 -0.0237  1.8988
  741SOL     MW 2964   2.223   1.172   2.752 -0.2386 -0.5929  0.6487
  742SOL     OW 2965   1.493   1.234   2.216  0.0999  0.1509  0.3237
  742SOL    HW1 2966   1.511   1.142   2.184 -3.0552 -0.3233  0.1151
  742SOL    HW2 2967   1.532   1.242   2.301 -0.7738  2.5598 -0.3789
  742SOL     MW 2968   1.501   1.223   2.223 -0.4317  0.4061  0.2035
  743SOL     OW 2969   2.476   1.311   2.710 -0.9058 -0.1115 -0.4161
  743SOL    HW1 2970   2.391   1.278   2.697 -1.8302 -1.3317 -0.5587
  743SOL    HW2 2971   2.525   1.226   2.736 -2.9744  0.3001  1.3118
  743SOL     MW 2972   2.471   1.295   2.712 -1.3007 -0.2182 -0.2070
  744SOL     OW 2973   2.768   0.972   1.777  0.0637  0.4174  0.1874
  744SOL    HW1 2974   2.762   1.063   1.789 -0.0419 -0.7766  0.8161
  744SOL    HW2 2975   2.728   0.956   1.693 -0.2834  1.8261 -1.1889
  744SOL     MW 2976   2.762   0.982   1.767  0.0040  0.4458  0.0887
  745SOL     OW 2977   1.692   0.457   2.476 -0.0850  0.0634 -0.2571
  745SOL    HW1 2978   1.686   0.452   2.382 -0.2447  0.5377 -2.8340
  745SOL    HW2 2979   1.611   0.420   2.515 -1.1815  2.7224  1.0477
  745SOL     MW 2980   1.681   0.452   2.469 -0.2508  0.4768 -0.4249
  746SOL     OW 2981   1.580   1.435   1.572  0.1072  0.0563 -0.6207
  746SOL    HW1 2982   1.674   1.450   1.594  2.2114 -0.2605 -1.2278
  746SOL    HW2 2983   1.547   1.371   1.633  1.3018 -1.2559  0.1366
  746SOL     MW 2984   1.588   1.429   1.583  0.5424 -0.1586 -0.6009
  747SOL     OW 2985   2.534   1.173   1.795 -0.1495  0.2615  0.2994
  747SOL    HW1 2986   2.442   1.162   1.760 -1.1271 -0.9133 -1.5162
  747SOL    HW2 2987   2.547   1.238   1.868  2.8416  0.3398 -2.6518
  747SOL     MW 2988   2.524   1.180   1.800  0.1162  0.1168 -0.3295
  748SOL     OW 2989   0.137   0.024   1.805 -0.2621 -0.2231  0.3819
  748SOL    HW1 2990   0.227  -0.011   1.815 -0.2856  1.7988 -1.0870
  748SOL    HW2 2991   0.108   0.059   1.891 -0.0600 -1.5163 -1.8098
  748SOL     MW 2992   0.145   0.024   1.818 -0.2386 -0.1270 -0.1011
  749SOL     OW 2993   2.428   0.547   2.770 -0.2664 -0.0016 -1.0338
  749SOL    HW1 2994   2.410   0.603   2.692 -0.5475 -1.1222 -0.1517
  749SOL    HW2 2995   2.436   0.608   2.851  1.3320  1.5733 -3.9280
  749SOL     MW 2996   2.427   0.562   2.770 -0.0926  0.0583 -1.2993
  750SOL     OW 2997   2.042   0.004   1.980 -0.0904  0.2716  0.2574
  750SOL    HW1 2998   2.100   0.084   1.972  0.7625  1.5950  1.7213
  750SOL    HW2 2999   2.096  -0.074   1.982 -3.6667  0.3490 -1.9978
  750SOL     MW 3000   2.057   0.005   1.979 -0.4497  0.4564  0.1530
  751SOL     OW 3001   0.044   0.385   2.285  0.0732 -0.4187  0.3753
  751SOL    HW1 3002  -0.021   0.332   2.339  1.1931  0.1994 -2.7030
  751SOL    HW2 3003   0.121   0.324   2.298  0.5506  0.8042  0.7755
  751SOL     MW 3004   0.045   0.370   2.294  0.2840 -0.1758  0.0220
  752SOL     OW 3005   2.139   0.821   2.657  0.1642 -0.0134 -0.4212
  752SOL    HW1 3006   2.215   0.876   2.632 -1.5303  0.7656 -0.2451
  752SOL    HW2 3007   2.127   0.820   2.751  1.1891 -1.0121  0.8206
  752SOL     MW 3008   2.147   0.828   2.666  0.0759 -0.0424 -0.2341
  753SOL     OW 3009   2.931   0.261   2.398  0.1932  0.4960  0.1608
  753SOL    HW1 3010   2.884   0.210   2.332 -1.4545  0.5066 -1.6436
  753SOL    HW2 3011   2.876   0.338   2.409  3.1613  3.4693 -0.5663
  753SOL     MW 3012   2.918   0.264   2.391  0.3674  0.8897 -0.1732
  754SOL     OW 3013   2.235   2.995   2.626 -0.2489  0.1738 -0.7751
  754SOL    HW1 3014   2.252   2.978   2.535  1.1282  0.7988 -0.7961
  754SOL    HW2 3015   2.296   2.942   2.677  1.4688 -0.6557  0.8602
  754SOL     MW 3016   2.245   2.986   2.621  0.1594  0.1469 -0.5621
  755SOL     OW 3017   2.725   1.564   2.478 -0.2653 -1.1460 -0.5148
  755SOL    HW1 3018   2.734   1.476   2.522 -0.7390 -1.0855 -1.0110
  755SOL    HW2 3019   2.795   1.606   2.529  1.6574 -2.3381  1.2428
  755SOL     MW 3020   2.735   1.558   2.491 -0.0741 -1.2953 -0.3484
  756SOL     OW 3021   2.257   1.343   2.951 -0.2636 -0.3734  0.3375
  756SOL    HW1 3022   2.326   1.404   2.989  0.1333  0.2489 -0.6390
  756SOL    HW2 3023   2.277   1.260   2.996 -0.0446 -0.9433  1.8710
  756SOL     MW 3024   2.268   1.340   2.962 -0.1823 -0.3665  0.4110
  757SOL     OW 3025   2.120   0.952   1.611  0.6428 -0.1869 -0.7265
  757SOL    HW1 3026   2.151   0.858   1.603  1.7878 -0.6789  0.0184
  757SOL    HW2 3027   2.024   0.952   1.576  0.1077 -0.2206  1.0173
  757SOL     MW 3028   2.111   0.939   1.605  0.7233 -0.2563 -0.3981
  758SOL     OW 3029   2.191   1.772   2.609 -0.0538 -0.3192 -0.1823
  758SOL    HW1 3030   2.179   1.760   2.515 -0.2815 -0.4944  1.1885
  758SOL    HW2 3031   2.284   1.762   2.620 -1.1603  1.5479 -1.0304
  758SOL     MW 3032   2.201   1.769   2.598 -0.2298 -0.0959 -0.1133
  759SOL     OW 3033   1.613   1.352   2.719  0.2374 -0.1042 -0.3727
  759SOL    HW1 3034   1.612   1.441   2.676  3.5918 -1.4353 -0.8034
  759SOL    HW2 3035   1.669   1.360   2.798 -1.3460  0.9677  3.4574
  759SOL     MW 3036   1.621   1.364   2.724  0.4711 -0.1384  0.0758
  760SOL     OW 3037   2.536   1.999   2.689 -0.2634  0.3245  0.1299
  760SOL    HW1 3038   2.520   1.903   2.658  2.7082  2.1029  1.4559
  760SOL    HW2 3039   2.556   2.065   2.613  0.1284  0.8976  1.4855
  760SOL     MW 3040   2.536   1.995   2.675  0.1804  0.6348  0.4837
  761SOL     OW 3041   2.130   0.418   2.479  0.1203 -0.1992  0.4581
  761SOL    HW1 3042   2.042   0.372   2.473  0.1487  1.7008 -2.8064
  761SOL    HW2 3043   2.134   0.443   2.571 -1.9838  0.6976  2.5277
  761SOL     MW 3044   2.119   0.415   2.490 -0.1536  0.1698  0.3005
  762SOL     OW 3045   3.084   0.133   1.997 -0.0034 -0.0869  0.1306
  762SOL    HW1 3046   3.087   0.082   2.076  0.4361  1.0078  1.0135
  762SOL    HW2 3047   3.026   0.208   2.013  2.2381  0.8955  0.5267
  762SOL     MW 3048   3.077   0.136   2.010  0.3503  0.1872  0.2994
  763SOL     OW 3049   2.426   1.073   2.333  0.2150 -0.2422 -0.3080
  763SOL    HW1 3050   2.469   1.051   2.245  1.1837 -0.1175 -0.5271
  763SOL    HW2 3051   2.471   1.155   2.354  0.0552 -0.2068  1.1294
  763SOL     MW 3052   2.438   1.081   2.324  0.3217 -0.2211 -0.1473
  764SOL     OW 3053   0.461   0.247   2.770  0.2346  0.5614 -0.2361
  764SOL    HW1 3054   0.370   0.247   2.745  1.3630 -0.9081  2.1335
  764SOL    HW2 3055   0.470   0.332   2.808  0.3423  0.6443  0.3037
  764SOL     MW 3056   0.450   0.258   2.772  0.3977  0.3784  0.1478
  765SOL     OW 3057   2.736   0.094   2.278  0.4723  0.0311  0.2886
  765SOL    HW1 3058   2.661   0.074   2.215 -0.7973  1.1307  1.4903
  765SOL    HW2 3059   2.782   0.007   2.290 -0.5283 -2.5186 -1.0501
  765SOL     MW 3060   2.732   0.080   2.271  0.1728 -0.1602  0.2705
  766SOL     OW 3061   1.844   3.019   2.195 -0.3031 -0.1612  0.2985
  766SOL    HW1 3062   1.875   3.087   2.139 -1.9961 -1.1358 -0.5057
  766SOL    HW2 3063   1.800   2.945   2.145  1.6592 -1.6173  2.9232
  766SOL     MW 3064   1.842   3.018   2.181 -0.2676 -0.4819  0.5387
  767SOL     OW 3065   2.647   0.615   1.946 -0.2673 -0.4063 -0.1984
  767SOL    HW1 3066   2.680   0.702   1.973 -1.0477 -0.6090  1.2461
  767SOL    HW2 3067   2.552   0.618   1.967 -0.2796 -0.0789  0.7452
  767SOL     MW 3068   2.639   0.627   1.953 -0.3719 -0.3899  0.1167
  768SOL     OW 3069   0.019   1.561   2.998 -0.1713  0.1723  0.2989
  768SOL    HW1 3070   0.008   1.517   3.080  2.4370 -0.3723 -0.2502
  768SOL    HW2 3071   0.057   1.501   2.928  1.0958 -1.1436  0.8123
  768SOL     MW 3072   0.022   1.547   2.999  0.3400 -0.0732  0.2942
  769SOL     OW 3073   2.354   0.709   2.293 -0.0360  0.6492  0.3079
  769SOL    HW1 3074   2.259   0.683   2.288 -2.1741 -0.5829  1.5695
  769SOL    HW2 3075   2.394   0.668   2.220 -0.2187 -1.5991  0.9205
  769SOL     MW 3076   2.346   0.700   2.282 -0.3422  0.1900  0.5552
  770SOL     OW 3077   0.093   1.652   2.631 -0.2974  0.4734 -0.1958
  770SOL    HW1 3078  -0.007   1.656   2.637 -0.3120 -2.4504  0.0651
  770SOL    HW2 3079   0.103   1.567   2.676  2.3841 -3.1855 -0.5116
  770SOL     MW 3080   0.081   1.641   2.638  0.0545 -0.3951 -0.2031
  771SOL     OW 3081   2.978   0.639   1.928 -0.8364  0.0102 -0.4888
  771SOL    HW1 3082   2.944   0.625   1.841  0.1819 -0.0875  2.5123
  771SOL    HW2 3083   3.071   0.620   1.920  0.1293  1.0655 -1.6022
  771SOL     MW 3084   2.986   0.635   1.916 -0.5746  0.1366 -0.2397
  772SOL     OW 3085   3.073   3.102   2.234  0.2355 -0.5234  0.0720
  772SOL    HW1 3086   3.003   3.065   2.279  0.8684  1.4673 -3.1906
  772SOL    HW2 3087   3.148   3.050   2.255 -2.9006 -0.4561  0.3132
  772SOL     MW 3088   3.074   3.090   2.243 -0.0948 -0.2519 -0.3266
  773SOL     OW 3089   2.435   2.818   2.747  0.3130 -0.0710  0.1760
  773SOL    HW1 3090   2.421   2.736   2.698 -0.1350  1.0290  0.4173
  773SOL    HW2 3091   2.390   2.792   2.832  0.5794  1.7448  2.6678
  773SOL     MW 3092   2.427   2.804   2.752  0.2890  0.3137  0.5366
  774SOL     OW 3093   2.277   1.141   1.735  0.2282 -0.1218 -0.4416
  774SOL    HW1 3094   2.280   1.200   1.659  0.1560  2.8998  1.5496
  774SOL    HW2 3095   2.236   1.058   1.712 -1.3717 -2.1501  0.9488
  774SOL     MW 3096   2.272   1.138   1.722  0.0076  0.0093  0.0046
  775SOL     OW 3097   2.312   2.929   2.356  0.7605 -0.2163 -0.9784
  775SOL    HW1 3098   2.313   3.000   2.295  0.7400 -0.3449  1.4037
  775SOL    HW2 3099   2.392   2.879   2.352  0.1956 -3.9882  1.6581
  775SOL     MW 3100   2.323   2.931   2.348  0.6833 -0.7310 -0.3162
  776SOL     OW 3101   0.039   1.421   0.135 -0.4361  0.0617 -0.7156
  776SOL    HW1 3102   0.124   1.403   0.158 -3.7458  1.0640 -0.1994
  776SOL    HW2 3103  -0.000   1.335   0.110 -0.2508 -1.6691 -0.4906
  776SOL     MW 3104   0.045   1.407   0.135 -0.8483 -0.0344 -0.6178
  777SOL     OW 3105   3.002   1.090   1.731  0.2750 -0.2542  0.4699
  777SOL    HW1 3106   2.971   1.183   1.734 -2.2091 -0.1259  1.1653
  777SOL    HW2 3107   2.928   1.026   1.751 -0.0183 -1.5331 -0.5879
  777SOL     MW 3108   2.988   1.094   1.734 -0.0915 -0.4060  0.4221
  778SOL     OW 3109   2.906   0.427   2.742  0.1365 -0.4707  0.0246
  778SOL    HW1 3110   2.839   0.460   2.808  0.1096 -2.0534  0.4986
  778SOL    HW2 3111   2.910   0.488   2.672  0.6106 -1.0684  2.0183
  778SOL     MW 3112   2.897   0.440   2.742  0.1955 -0.7584  0.3502
  779SOL     OW 3113   2.088   0.616   2.282 -0.3890  0.4737 -0.0636
  779SOL    HW1 3114   2.015   0.661   2.320  2.8612 -0.5092  1.1034
  779SOL    HW2 3115   2.119   0.558   2.365  1.5460 -3.0383 -0.0349
  779SOL     MW 3116   2.083   0.615   2.298  0.2952 -0.1194  0.0942
  780SOL     OW 3117   0.158   0.186   2.756  0.7704 -0.2545 -0.3462
  780SOL    HW1 3118   0.136   0.230   2.837  0.4678  0.2777 -3.0494
  780SOL    HW2 3119   0.080   0.185   2.703  1.3213 -1.3247 -1.0462
  780SOL     MW 3120   0.145   0.192   2.759  0.8031 -0.3255 -0.7952
  781SOL     OW 3121   3.039   1.322   2.503 -0.2352  0.0588 -0.1106
  781SOL    HW1 3122   2.999   1.358   2.422 -1.4058  1.1100  0.6351
  781SOL    HW2 3123   3.065   1.228   2.488  2.2071 -3.2020 -1.7519
  781SOL     MW 3124   3.037   1.315   2.491 -0.0674 -0.2327 -0.2287
  782SOL     OW 3125   0.754   1.500   3.045  0.4081  0.0331 -0.5320
  782SOL    HW1 3126   0.666   1.542   3.028 -0.1783 -1.3622  1.9865
  782SOL    HW2 3127   0.767   1.512   3.143 -0.8327 -1.4464  2.1653
  782SOL     MW 3128   0.744   1.507   3.055  0.1670 -0.3462  0.1562
  783SOL     OW 3129   2.771   0.469   2.412 -0.5023 -0.2842  0.3812
  783SOL    HW1 3130   2.724   0.480   2.329  1.9586  1.9425 -1.3985
  783SOL    HW2 3131   2.712   0.420   2.472  0.7641 -1.3074 -1.2299
  783SOL     MW 3132   2.757   0.464   2.409 -0.0106 -0.1254 -0.0662
  784SOL     OW 3133   0.225   0.839   2.872  0.3137  0.4030 -0.2427
  784SOL    HW1 3134   0.187   0.901   2.930  4.6284 -0.9305 -0.9355
  784SOL    HW2 3135   0.260   0.891   2.804  1.9449 -0.0855  1.8905
  784SOL     MW 3136   0.225   0.854   2.870  1.0982  0.1626 -0.0527
  785SOL     OW 3137   0.419   0.480   2.204  0.2079  0.0083 -0.1460
  785SOL    HW1 3138   0.413   0.531   2.123 -0.0803 -0.3497 -0.1293
  785SOL    HW2 3139   0.369   0.393   2.197  2.1510 -2.3146 -1.3681
  785SOL     MW 3140   0.412   0.475   2.193  0.4262 -0.3454 -0.3050
  786SOL     OW 3141   1.974   0.444   2.944 -0.0416  0.7379  0.1280
  786SOL    HW1 3142   2.031   0.428   3.011 -2.9059  1.1417 -2.0437
  786SOL    HW2 3143   2.041   0.454   2.867 -0.3447 -0.5445 -0.3844
  786SOL     MW 3144   1.990   0.443   2.942 -0.4595  0.6220 -0.2261
  787SOL     OW 3145   2.431   0.162   2.916 -0.2198  0.1159  0.4526
  787SOL    HW1 3146   2.498   0.107   2.854 -1.0046 -1.1247  1.2194
  787SOL    HW2 3147   2.479   0.231   2.964 -2.2931  1.1977 -1.1517
  787SOL     MW 3148   2.446   0.164   2.914 -0.5969  0.0949  0.3421
  788SOL     OW 3149   2.877   2.977   2.390  0.2548 -0.4508 -0.5635
  788SOL    HW1 3150   2.887   2.997   2.479  3.4914  0.4391 -2.7801
  788SOL    HW2 3151   2.913   2.888   2.366 -0.4975  0.6996 -0.7129
  788SOL     MW 3152   2.883   2.968   2.399  0.5826 -0.1816 -0.8757
  789SOL     OW 3153   0.055   0.298   2.978 -0.5602  0.0865 -0.6826
  789SOL    HW1 3154  -0.025   0.254   3.002  0.0508 -0.8268  2.3828
  789SOL    HW2 3155   0.041   0.398   2.976  1.9422  3.6269 -0.9041
  789SOL     MW 3156   0.042   0.306   2.981 -0.1494  0.4331 -0.3074
  790SOL     OW 3157   3.049   1.047   2.441 -0.8685  0.2770 -0.4757
  790SOL    HW1 3158   3.014   0.977   2.508  0.9758 -1.2878 -0.0850
  790SOL    HW2 3159   2.995   1.029   2.356 -0.3559 -1.6834 -2.7939
  790SOL     MW 3160   3.037   1.036   2.438 -0.5575 -0.1881 -0.7300
  791SOL     OW 3161   2.620   0.365   2.622 -0.4964 -0.6641 -0.0316
  791SOL    HW1 3162   2.543   0.420   2.651  1.2876  0.4807  0.8786
  791SOL    HW2 3163   2.690   0.377   2.685  0.0496 -0.6089  1.1979
  791SOL     MW 3164   2.619   0.373   2.634 -0.1889 -0.5058  0.2507
  792SOL     OW 3165   2.351   0.279   2.408  0.4749 -0.5048 -0.0459
  792SOL    HW1 3166   2.275   0.335   2.412  0.0359 -0.7134 -0.4718
  792SOL    HW2 3167   2.355   0.243   2.503 -0.6095 -1.6825  1.6318
  792SOL     MW 3168   2.342   0.282   2.421  0.2739 -0.6877  0.1193
  793SOL     OW 3169   1.852   1.035   1.968  0.1948  0.6414 -0.1747
  793SOL    HW1 3170   1.813   1.064   1.887 -3.3995  0.0205 -1.0508
  793SOL    HW2 3171   1.903   0.956   1.942  0.7961 -3.1591  0.0053
  793SOL     MW 3172   1.854   1.028   1.954 -0.2001  0.0580 -0.2665
  794SOL     OW 3173   1.409   2.283   0.180  0.6213  0.2128 -0.3028
  794SOL    HW1 3174   1.425   2.355   0.111  0.8543 -0.5299  0.4882
  794SOL    HW2 3175   1.467   2.300   0.253 -3.1120  0.7264 -0.9435
  794SOL     MW 3176   1.419   2.295   0.181  0.1595  0.1825 -0.2829
  795SOL     OW 3177   2.354   0.967   2.577  0.4175  0.0720 -1.1364
  795SOL    HW1 3178   2.326   1.041   2.632 -2.4474 -1.5292 -1.6620
  795SOL    HW2 3179   2.385   1.007   2.491 -1.6506 -0.6600 -0.3411
  795SOL     MW 3180   2.354   0.982   2.573 -0.2334 -0.2358 -1.1009
  796SOL     OW 3181   0.253   0.599   2.747  0.1921 -0.1003 -0.2031
  796SOL    HW1 3182   0.240   0.688   2.772  0.7652 -1.1580 -0.1651
  796SOL    HW2 3183   0.187   0.583   2.679 -2.0189  1.8018 -0.8992
  796SOL     MW 3184   0.243   0.609   2.742 -0.0240  0.0111 -0.2899
  797SOL     OW 3185   2.566   0.106   2.499  0.0878  0.3115 -0.5459
  797SOL    HW1 3186   2.570   0.199   2.548 -0.8775 -0.5342 -0.0019
  797SOL    HW2 3187   2.633   0.113   2.430 -0.7737  1.1196  2.7698
  797SOL     MW 3188   2.575   0.119   2.497 -0.1533  0.3065 -0.0367
  798SOL     OW 3189   2.308   0.068   2.218  0.5356 -0.1329  0.0381
  798SOL    HW1 3190   2.334   0.120   2.299 -0.7538  0.6085 -0.1794
  798SOL    HW2 3191   2.395   0.049   2.163 -0.7189 -0.7694 -2.7844
  798SOL     MW 3192   2.323   0.072   2.221  0.1999 -0.1191 -0.3630
  799SOL     OW 3193   2.475   2.946   0.090 -0.2249 -0.2301  0.8316
  799SOL    HW1 3194   2.449   2.881   0.025 -0.3584 -1.4374  0.1212
  799SOL    HW2 3195   2.421   3.020   0.075 -0.3453 -2.8113 -0.6297
  799SOL     MW 3196   2.464   2.947   0.079 -0.2584 -0.7300  0.5451
  800SOL     OW 3197   1.884   0.028   1.757 -0.0787 -0.0836  0.3077
  800SOL    HW1 3198   1.826  -0.047   1.772  0.0918 -0.4118  1.1370
  800SOL    HW2 3199   1.931   0.034   1.838  0.5704  0.3580  0.2856
  800SOL     MW 3200   1.882   0.019   1.770  0.0295 -0.0687  0.4142
  801SOL     OW 3201   2.786   1.282   2.574  0.6326  0.0528  0.2231
  801SOL    HW1 3202   2.769   1.182   2.557  1.6857 -1.5763  0.5797
  801SOL    HW2 3203   2.879   1.299   2.559 -1.4322 -0.6447  2.0735
  801SOL     MW 3204   2.796   1.271   2.569  0.4992 -0.2542  0.5143
  802SOL     OW 3205   2.602   1.530   2.797 -0.3721 -0.0435  0.9585
  802SOL    HW1 3206   2.575   1.441   2.761 -0.6817  0.3763 -0.7338
  802SOL    HW2 3207   2.695   1.555   2.775  0.5659 -0.2805  1.6414
  802SOL     MW 3208   2.611   1.522   2.790 -0.2892 -0.0194  0.8253
  803SOL     OW 3209   2.309   1.417   2.002  0.6365  0.1175 -0.0778
  803SOL    HW1 3210   2.289   1.346   2.055 -1.1230  1.4554 -0.2213
  803SOL    HW2 3211   2.311   1.386   1.913 -1.4706 -0.8474 -1.3203
  803SOL     MW 3212   2.307   1.404   1.997  0.1263  0.1667 -0.2607
  804SOL     OW 3213   2.296   0.066   0.021  0.1026  0.0700  0.2049
  804SOL    HW1 3214   2.210   0.112   0.025 -0.2392  0.7302  0.0243
  804SOL    HW2 3215   2.349   0.105  -0.052  2.0368 -2.4538  0.5584
  804SOL     MW 3216   2.292   0.077   0.012  0.3127 -0.1759  0.2278
  805SOL     OW 3217   2.679   0.998   2.558 -0.1001 -0.2792  0.0810
  805SOL    HW1 3218   2.664   0.969   2.468 -0.6173  1.5879 -0.4217
  805SOL    HW2 3219   2.761   0.948   2.580  0.5892 -0.1643 -0.9455
  805SOL     MW 3220   2.688   0.987   2.549 -0.0774 -0.0177 -0.1208
  806SOL     OW 3221   2.530   0.424   2.246  0.1918 -0.5062 -0.6133
  806SOL    HW1 3222   2.484   0.366   2.307 -0.6853 -0.7927 -2.2565
  806SOL    HW2 3223   2.468   0.434   2.176 -0.1845 -2.7649  1.1690
  806SOL     MW 3224   2.516   0.417   2.245  0.0264 -0.8420 -0.5949
  807SOL     OW 3225   0.103   1.156   2.085  0.4080  0.6020  0.1431
  807SOL    HW1 3226   0.122   1.065   2.066 -2.9096  0.0034  1.5514
  807SOL    HW2 3227   0.014   1.144   2.097  0.2982  2.1541  2.8586
  807SOL     MW 3228   0.094   1.143   2.084 -0.0442  0.7278  0.6872
  808SOL     OW 3229   2.536   3.075   2.726  0.7416 -0.0866  0.3082
  808SOL    HW1 3230   2.493   2.991   2.708 -0.4099  1.6894 -1.8967
  808SOL    HW2 3231   2.549   3.113   2.635 -2.3933 -0.2277 -2.2324
  808SOL     MW 3232   2.532   3.069   2.712  0.1761  0.1291 -0.3179
  809SOL     OW 3233   2.557   1.283   2.426  0.7769 -0.0281  0.7911
  809SOL    HW1 3234   2.602   1.295   2.505 -2.4534  2.5814 -0.3601
  809SOL    HW2 3235   2.620   1.277   2.355  1.1827 -0.4786 -1.5144
  809SOL     MW 3236   2.571   1.283   2.427  0.4042  0.2567  0.3350
  810SOL     OW 3237   2.239   1.246   2.252 -0.0223  0.2040 -0.1364
  810SOL    HW1 3238   2.308   1.185   2.275  0.3826 -2.7815  0.9480
  810SOL    HW2 3239   2.153   1.196   2.246 -1.6930 -1.9092  0.6199
  810SOL     MW 3240   2.237   1.231   2.254 -0.1893 -0.4687  0.1065
  811SOL     OW 3241   1.541   0.170   2.294 -0.4039  0.4856 -0.0603
  811SOL    HW1 3242   1.602   0.106   2.337  0.3784 -3.8253  0.8915
  811SOL    HW2 3243   1.549   0.168   2.196 -0.4581  2.0719 -2.1336
  811SOL     MW 3244   1.550   0.161   2.287 -0.3078  0.1261 -0.2083
  812SOL     OW 3245   1.471   2.854   2.138 -0.4065  0.1796  0.3757
  812SOL    HW1 3246   1.569   2.852   2.117  2.2712 -3.2419  2.8100
  812SOL    HW2 3247   1.469   2.817   2.228 -2.4767 -1.4235 -1.4494
  812SOL     MW 3248   1.484   2.849   2.147 -0.3264 -0.4833  0.4561
  813SOL     OW 3249   1.825   0.753   2.179  0.0789  0.2332  0.3128
  813SOL    HW1 3250   1.817   0.659   2.201  2.7555 -0.2997  0.2530
  813SOL    HW2 3251   1.853   0.794   2.261  0.4488 -1.1511 -0.4676
  813SOL     MW 3252   1.828   0.746   2.193  0.4809 -0.0197  0.2019
  814SOL     OW 3253   2.759   1.262   1.626 -0.0370  0.1003  0.4775
  814SOL    HW1 3254   2.689   1.234   1.682  0.9563 -3.1857  0.0262
  814SOL    HW2 3255   2.744   1.210   1.550 -2.0916 -0.5784  0.3223
  814SOL     MW 3256   2.748   1.252   1.624 -0.1771 -0.4228  0.3975
  815SOL     OW 3257   2.480   1.669   2.394  0.2033 -0.1606  0.2904
  815SOL    HW1 3258   2.405   1.606   2.390 -3.6714 -0.4388  0.1343
  815SOL    HW2 3259   2.561   1.611   2.409  2.4904 -2.7969  3.0443
  815SOL     MW 3260   2.481   1.653   2.396 -0.0062 -0.5451  0.6332
  816SOL     OW 3261   0.778   0.678   2.724 -0.2013 -0.8388  0.0829
  816SOL    HW1 3262   0.794   0.603   2.784 -0.8989  1.7145  0.3845
  816SOL    HW2 3263   0.689   0.713   2.734 -2.1103 -0.2076  0.1672
  816SOL     MW 3264   0.769   0.673   2.733 -0.5452 -0.4186  0.1338
  817SOL     OW 3265   3.046   1.290   1.456 -0.0059 -0.2410 -0.6539
  817SOL    HW1 3266   3.117   1.229   1.445 -0.3213 -0.3188 -0.6936
  817SOL    HW2 3267   3.057   1.371   1.401  0.5197  0.8298 -0.9223
  817SOL     MW 3268   3.057   1.293   1.447  0.0218 -0.1100 -0.6945
  818SOL     OW 3269   1.940   1.074   2.690  0.0368 -0.1283 -0.1176
  818SOL    HW1 3270   1.894   1.102   2.608 -2.3276  0.2516  0.3069
  818SOL    HW2 3271   2.001   1.005   2.668  1.0520  0.5068 -0.9662
  818SOL     MW 3272   1.942   1.069   2.676 -0.1412  0.0056 -0.1736
  819SOL     OW 3273   1.885   0.254   2.450  0.5755  0.9664  0.2779
  819SOL    HW1 3274   1.819   0.324   2.470 -2.4271 -4.6564  0.2376
  819SOL    HW2 3275   1.928   0.232   2.533  0.9468 -0.7212 -1.8823
  819SOL     MW 3276   1.882   0.260   2.464  0.2283  0.0019 -0.0124
  820SOL     OW 3277   2.455   1.738   2.665 -0.2231  0.0224  0.5332
  820SOL    HW1 3278   2.498   1.665   2.716  0.9026  2.3331 -0.5429
  820SOL    HW2 3279   2.484   1.722   2.570  2.1499  0.2368  2.1245
  820SOL     MW 3280   2.464   1.726   2.659  0.2385  0.3556  0.6012
  821SOL     OW 3281   2.580   1.358   1.999 -0.0086 -0.0305  0.4032
  821SOL    HW1 3282   2.634   1.419   1.954 -1.0018 -0.2095  2.5930
  821SOL    HW2 3283   2.507   1.419   2.026 -0.3212  1.4706 -0.3861
  821SOL     MW 3284   2.577   1.374   1.997 -0.1809  0.1439  0.5880
  822SOL     OW 3285   2.808   2.586   1.483  0.4286  0.2710  0.0306
  822SOL    HW1 3286   2.834   2.638   1.561 -0.4567  0.8231 -0.9689
  822SOL    HW2 3287   2.739   2.637   1.442 -0.7837  1.1447 -2.8912
  822SOL     MW 3288   2.803   2.600   1.488  0.1519  0.4591 -0.4868
  823SOL     OW 3289   2.251   0.453   1.752 -0.1069  0.1029  0.2021
  823SOL    HW1 3290   2.323   0.392   1.741  1.6901  1.2375  0.6115
  823SOL    HW2 3291   2.165   0.404   1.741 -0.3033  1.8901  0.3634
  823SOL     MW 3292   2.249   0.439   1.749  0.1043  0.4884  0.2774
  824SOL     OW 3293   2.074   1.330   2.613  0.0481  0.0931 -0.0881
  824SOL    HW1 3294   2.160   1.334   2.570  0.8320 -3.3930 -1.2846
  824SOL    HW2 3295   2.061   1.411   2.664  0.3589  3.3093  0.2945
  824SOL     MW 3296   2.084   1.341   2.614  0.1926  0.0575 -0.1955
  825SOL     OW 3297   2.044   2.574   0.299  0.1100  0.5263 -0.4786
  825SOL    HW1 3298   2.022   2.516   0.370  0.1217 -1.4228 -1.0091
  825SOL    HW2 3299   2.120   2.527   0.267  0.4467  0.8890 -1.9344
  825SOL     MW 3300   2.051   2.560   0.304  0.1560  0.3170 -0.7407
  826SOL     OW 3301   1.919   2.396   0.522  0.1432 -0.6242  0.2880
  826SOL    HW1 3302   1.866   2.324   0.568 -0.5525 -1.7633  0.9259
  826SOL    HW2 3303   1.888   2.471   0.574 -0.6725  0.3567  0.7309
  826SOL     MW 3304   1.908   2.397   0.535 -0.0562 -0.6451  0.4306
  827SOL     OW 3305   1.941   2.201   0.874 -0.5966 -0.7683 -0.5475
  827SOL    HW1 3306   1.901   2.287   0.885  1.2543 -1.1233 -1.5914
  827SOL    HW2 3307   1.871   2.138   0.898  0.8366  2.2782 -1.4350
  827SOL     MW 3308   1.927   2.204   0.878 -0.1633 -0.4131 -0.8024
  828SOL     OW 3309   0.058   2.694   0.618  0.3858 -0.1715 -0.8537
  828SOL    HW1 3310   0.134   2.641   0.601 -0.7168 -1.5491  2.6573
  828SOL    HW2 3311   0.040   2.743   0.542  1.9197 -1.2275 -0.0245
  828SOL     MW 3312   0.065   2.693   0.606  0.4427 -0.4926 -0.2810
  829SOL     OW 3313   2.963   2.920   1.272 -0.2064  0.1406 -0.0853
  829SOL    HW1 3314   2.893   2.922   1.211  1.4226 -0.8582 -0.4983
  829SOL    HW2 3315   3.001   2.837   1.248  2.2127  0.1832  1.0041
  829SOL     MW 3316   2.959   2.909   1.261  0.3277  0.0144  0.0039
  830SOL     OW 3317   2.490   2.834   2.033  0.4133 -0.3170  0.6724
  830SOL    HW1 3318   2.396   2.841   2.004 -0.5589  1.1372 -0.0788
  830SOL    HW2 3319   2.543   2.827   1.954 -3.2883 -1.0071  0.0963
  830SOL     MW 3320   2.485   2.834   2.019 -0.2034 -0.2162  0.4973
  831SOL     OW 3321   2.422   2.393   1.272  0.1573  0.2741 -0.2878
  831SOL    HW1 3322   2.372   2.336   1.336  0.0349 -0.5557  1.2023
  831SOL    HW2 3323   2.518   2.374   1.279 -1.3119  1.8450  1.1040
  831SOL     MW 3324   2.428   2.383   1.281 -0.0527  0.3719  0.0925
  832SOL     OW 3325   2.453   2.234   1.899 -0.2514  0.1151 -0.3610
  832SOL    HW1 3326   2.458   2.336   1.919 -0.2640  0.8093 -1.3734
  832SOL    HW2 3327   2.544   2.203   1.880  0.2158  2.6249 -0.9705
  832SOL     MW 3328   2.465   2.243   1.899 -0.1914  0.5379 -0.5750
  833SOL     OW 3329   1.768   2.433   0.906 -0.1759 -0.4136  0.6406
  833SOL    HW1 3330   1.680   2.399   0.909 -0.0800  2.5251  1.7306
  833SOL    HW2 3331   1.781   2.503   0.970 -1.0887  3.6100  0.1166
  833SOL     MW 3332   1.758   2.438   0.915 -0.2837  0.5050  0.7153
  834SOL     OW 3333   2.229   2.464   0.549  0.0828 -0.5454 -0.1149
  834SOL    HW1 3334   2.159   2.402   0.575 -3.0643 -0.1892 -0.7585
  834SOL    HW2 3335   2.282   2.442   0.472  2.2549 -0.1824 -1.2491
  834SOL     MW 3336   2.226   2.453   0.542 -0.0459 -0.4505 -0.3495
  835SOL     OW 3337   1.787   2.587   0.696  0.9226 -0.8121 -0.0123
  835SOL    HW1 3338   1.778   2.519   0.778  0.6099  2.8340 -2.5336
  835SOL    HW2 3339   1.854   2.658   0.711 -0.6547 -0.0344 -1.2645
  835SOL     MW 3340   1.794   2.588   0.709  0.6733 -0.2284 -0.5102
  836SOL     OW 3341   1.965   2.121   1.628 -0.4317 -0.2294  0.4077
  836SOL    HW1 3342   2.052   2.106   1.667  0.1942  0.7470  0.7276
  836SOL    HW2 3343   1.926   2.201   1.659 -0.4050 -0.1219  0.2949
  836SOL     MW 3344   1.971   2.130   1.637 -0.3456 -0.0864  0.4350
  837SOL     OW 3345   2.083   0.189   0.688  0.0356 -0.1356  0.0485
  837SOL    HW1 3346   1.998   0.216   0.642 -1.3148  0.9104 -2.3806
  837SOL    HW2 3347   2.120   0.142   0.608 -2.6563 -0.7455 -2.9411
  837SOL     MW 3348   2.077   0.186   0.671 -0.4977 -0.0781 -0.6665
  838SOL     OW 3349   2.938   2.050   0.908 -0.5399 -0.7859  0.4660
  838SOL    HW1 3350   2.855   2.022   0.946 -0.3879  1.2543 -0.7266
  838SOL    HW2 3351   2.963   1.985   0.837 -1.6167 -1.6671  0.2843
  838SOL     MW 3352   2.930   2.038   0.904 -0.6619 -0.6329  0.2847
  839SOL     OW 3353   1.516   2.352   0.922 -0.1314 -0.2721  0.4432
  839SOL    HW1 3354   1.474   2.428   0.962 -1.2086 -1.8467 -1.6409
  839SOL    HW2 3355   1.536   2.282   0.988  0.2985 -0.6445 -1.1003
  839SOL     MW 3356   1.513   2.353   0.936 -0.2168 -0.5290 -0.0354
  840SOL     OW 3357   2.318   2.096   2.407 -0.2943  0.0013 -0.1356
  840SOL    HW1 3358   2.255   2.162   2.369  0.7416 -0.4677 -0.3550
  840SOL    HW2 3359   2.377   2.143   2.463 -1.6034 -0.4887 -2.8262
  840SOL     MW 3360   2.317   2.111   2.409 -0.3304 -0.1253 -0.5195
  841SOL     OW 3361   2.213   2.414   0.109  0.1807  0.1291 -0.2904
  841SOL    HW1 3362   2.275   2.405   0.036 -1.9392  1.3671  0.4822
  841SOL    HW2 3363   2.135   2.375   0.073 -2.5020 -0.5744  0.5119
  841SOL     MW 3364   2.211   2.408   0.095 -0.4530  0.1996 -0.0826
  842SOL     OW 3365   2.658   1.994   1.577 -0.0192 -0.5332  0.1106
  842SOL    HW1 3366   2.624   1.903   1.578  2.3558  2.3209  2.1009
  842SOL    HW2 3367   2.611   2.034   1.510  1.2781  2.4942 -0.5897
  842SOL     MW 3368   2.648   1.987   1.568  0.4653  0.2428  0.2808
  843SOL     OW 3369   2.672   2.828   1.796  0.1768 -0.0594  0.3351
  843SOL    HW1 3370   2.745   2.766   1.791 -0.9272  2.5052 -2.2874
  843SOL    HW2 3371   2.598   2.783   1.756  2.2359  0.8064 -0.3781
  843SOL     MW 3372   2.672   2.814   1.790  0.3028  0.3932 -0.1050
  844SOL     OW 3373   2.677   2.312   1.215 -0.0155  0.3633  0.1727
  844SOL    HW1 3374   2.707   2.371   1.144 -1.0592 -0.4975  1.7082
  844SOL    HW2 3375   2.739   2.321   1.282 -1.6606 -1.0815  0.3970
  844SOL     MW 3376   2.689   2.321   1.215 -0.3703  0.0591  0.4049
  845SOL     OW 3377   2.842   2.462   0.278  0.2055  0.2866  0.2601
  845SOL    HW1 3378   2.770   2.392   0.280  2.1258  0.1314  0.4615
  845SOL    HW2 3379   2.870   2.481   0.366 -0.6700 -0.3805 -0.6867
  845SOL     MW 3380   2.836   2.456   0.290  0.3434  0.1781  0.1618
  846SOL     OW 3381   1.518   2.852   0.826  0.0646  0.1156  0.2570
  846SOL    HW1 3382   1.603   2.897   0.820  0.4573 -3.3450  0.6230
  846SOL    HW2 3383   1.452   2.917   0.836  1.6860  1.5957  1.1010
  846SOL     MW 3384   1.520   2.867   0.826  0.3303 -0.1457  0.4166
  847SOL     OW 3385   2.520   1.949   0.169 -0.1985  0.2091 -0.4691
  847SOL    HW1 3386   2.525   1.877   0.238  1.3437  0.6170  1.1961
  847SOL    HW2 3387   2.445   1.914   0.125  2.2315  2.4891  2.8786
  847SOL     MW 3388   2.511   1.935   0.172  0.3256  0.5637  0.1923
  848SOL     OW 3389   2.538   2.085   1.337  0.4644  0.8109 -0.2684
  848SOL    HW1 3390   2.582   2.145   1.282  0.5513 -2.3024  2.5135
  848SOL    HW2 3391   2.497   2.023   1.276  0.5214 -0.8094 -0.4606
  848SOL     MW 3392   2.539   2.085   1.322  0.4834  0.1864  0.0733
  849SOL     OW 3393   2.003   2.776   0.756  0.4175  0.6405 -0.0873
  849SOL    HW1 3394   2.033   2.715   0.825  0.0762  1.9320  2.5393
  849SOL    HW2 3395   2.062   2.773   0.682 -2.0177  2.5050 -0.2246
  849SOL     MW 3396   2.015   2.767   0.756  0.0512  1.0569  0.2411
  850SOL     OW 3397   2.288   1.923   1.723 -0.1797 -0.2423 -0.2102
  850SOL    HW1 3398   2.203   1.886   1.682  1.7457 -0.3617 -2.0542
  850SOL    HW2 3399   2.266   2.018   1.726 -1.9391 -0.9742  1.1858
  850SOL     MW 3400   2.274   1.931   1.718 -0.1578 -0.3546 -0.2693
  851SOL     OW 3401   2.368   2.376   0.318  0.1549 -0.4586 -0.7031
  851SOL    HW1 3402   2.313   2.396   0.242  0.2292  1.1720  1.3818
  851SOL    HW2 3403   2.448   2.416   0.296 -1.5102 -0.7458  2.2302
  851SOL     MW 3404   2.372   2.384   0.305 -0.0550 -0.2813 -0.0410
  852SOL     OW 3405   2.337   2.093   0.329  0.3053 -0.3275  0.6935
  852SOL    HW1 3406   2.339   2.187   0.316 -1.4521 -1.2422  0.5382
  852SOL    HW2 3407   2.407   2.054   0.271 -1.4590 -0.2848 -1.0794
  852SOL     MW 3408   2.347   2.100   0.320 -0.1593 -0.4425  0.4391
  853SOL     OW 3409   2.465   2.502   1.972  0.4722  0.5091 -0.1322
  853SOL    HW1 3410   2.453   2.554   1.893 -2.2189 -2.5534 -3.1218
  853SOL    HW2 3411   2.558   2.490   1.984 -1.2810 -1.9280 -1.8850
  853SOL     MW 3412   2.475   2.507   1.963 -0.1142 -0.2166 -0.7579
  854SOL     OW 3413   2.878   2.303   0.786  0.4052 -0.5028 -0.2106
  854SOL    HW1 3414   2.794   2.271   0.751 -0.8542 -1.3523  0.9633
  854SOL    HW2 3415   2.901   2.220   0.837 -0.4360 -0.3625 -2.0414
  854SOL     MW 3416   2.870   2.288   0.788  0.1281 -0.5964 -0.2973
  855SOL     OW 3417   2.675   2.278   0.360  0.1562  0.1830 -0.2452
  855SOL    HW1 3418   2.648   2.318   0.438  1.5352  1.8159 -0.2860
  855SOL    HW2 3419   2.749   2.223   0.379 -1.5963 -1.6524  1.5046
  855SOL     MW 3420   2.681   2.276   0.373  0.1069  0.1563 -0.0197
  856SOL     OW 3421   2.139   1.881   0.169  0.0375  0.1071  0.4329
  856SOL    HW1 3422   2.058   1.884   0.215  2.6383 -0.0688 -0.5205
  856SOL    HW2 3423   2.185   1.947   0.217 -0.7921 -0.3931 -1.7344
  856SOL     MW 3424   2.134   1.890   0.181  0.2712  0.0179  0.0211
  857SOL     OW 3425   2.498   1.982   0.522  0.0066  0.1516  0.3202
  857SOL    HW1 3426   2.437   2.029   0.458 -3.9310  2.1157 -3.3799
  857SOL    HW2 3427   2.462   1.905   0.561  2.2995 -1.6993  0.6407
  857SOL     MW 3428   2.486   1.978   0.519 -0.2104  0.1665 -0.1257
  858SOL     OW 3429   2.869   2.657   1.768 -0.2582  0.1909  0.1600
  858SOL    HW1 3430   2.968   2.663   1.763  2.2030 -0.2086  1.8510
  858SOL    HW2 3431   2.858   2.568   1.799 -3.1099  1.3464 -1.8437
  858SOL     MW 3432   2.881   2.646   1.771 -0.3097  0.2906  0.1188
  859SOL     OW 3433   2.109   2.566   0.941  0.4584 -0.4364 -0.2105
  859SOL    HW1 3434   2.072   2.493   0.995  0.5904 -0.5464  0.8673
  859SOL    HW2 3435   2.205   2.559   0.948 -0.0370  0.3824 -0.7560
  859SOL     MW 3436   2.117   2.556   0.949  0.4104 -0.3428 -0.1403
  860SOL     OW 3437   2.667   2.608   0.118 -0.0971  0.6156  0.0653
  860SOL    HW1 3438   2.728   2.542   0.166 -1.5675  0.2785 -1.5843
  860SOL    HW2 3439   2.714   2.691   0.101 -1.7113 -1.9801 -0.4053
  860SOL     MW 3440   2.681   2.610   0.122 -0.5041  0.2287 -0.2144
  861SOL     OW 3441   1.577   2.128   1.111 -0.2979  0.3849 -0.5600
  861SOL    HW1 3442   1.627   2.188   1.162  1.0320 -1.2135 -0.2628
  861SOL    HW2 3443   1.509   2.084   1.167  0.7680 -0.9952 -0.5529
  861SOL     MW 3444   1.575   2.130   1.125  0.0182 -0.0081 -0.5199
  862SOL     OW 3445   2.471   1.796   1.566  0.1849  0.0362 -0.3734
  862SOL    HW1 3446   2.422   1.833   1.637  1.2446  1.3873 -0.8584
  862SOL    HW2 3447   2.439   1.842   1.489 -0.6855  2.3142  1.5235
  862SOL     MW 3448   2.461   1.807   1.565  0.2099  0.5150 -0.1871
  863SOL     OW 3449   3.014   1.802   1.018  0.0677 -0.5065  0.1587
  863SOL    HW1 3450   3.087   1.787   1.082 -1.6264  2.2406 -0.1304
  863SOL    HW2 3451   2.976   1.884   1.046 -0.5578 -0.8733  1.3947
  863SOL     MW 3452   3.019   1.811   1.030 -0.2384 -0.1924  0.2836
  864SOL     OW 3453   3.045   1.844   0.746 -0.0853 -0.1653 -0.5963
  864SOL    HW1 3454   3.043   1.808   0.834  0.2474  0.8587  1.3337
  864SOL    HW2 3455   3.002   1.773   0.689 -2.3495 -1.7880 -1.4109
  864SOL     MW 3456   3.039   1.830   0.750 -0.3402 -0.2443 -0.4491
  865SOL     OW 3457   2.493   2.199   0.002 -0.4060  0.0705 -0.0159
  865SOL    HW1 3458   2.528   2.139   0.068 -2.5445 -0.8669  1.4269
  865SOL    HW2 3459   2.442   2.141  -0.051 -1.4591 -0.1420  0.2618
  865SOL     MW 3460   2.491   2.183   0.004 -0.8271 -0.0812  0.2111
  866SOL     OW 3461   2.660   2.374   1.696 -0.0383 -0.2121  0.3425
  866SOL    HW1 3462   2.663   2.285   1.735 -1.8040 -1.0664 -0.9940
  866SOL    HW2 3463   2.684   2.360   1.600  1.2763  0.3972 -0.5784
  866SOL     MW 3464   2.664   2.360   1.689 -0.0978 -0.2444  0.0447
  867SOL     OW 3465   0.030   2.732   1.793  0.1657 -0.5276 -0.2052
  867SOL    HW1 3466   0.024   2.750   1.894  0.6714  0.1955 -1.5898
  867SOL    HW2 3467   0.019   2.821   1.751 -1.3163 -1.8965 -2.5079
  867SOL     MW 3468   0.028   2.746   1.800  0.0369 -0.6128 -0.6917
  868SOL     OW 3469   2.810   2.608   0.543 -0.7688  0.2664 -0.0963
  868SOL    HW1 3470   2.726   2.563   0.547 -0.8568 -1.2621  0.2104
  868SOL    HW2 3471   2.810   2.673   0.472 -0.0980 -0.4457 -2.5004
  868SOL     MW 3472   2.799   2.611   0.534 -0.6919 -0.0292 -0.3730
  869SOL     OW 3473   2.061   2.329   1.107  0.3906 -0.1844 -0.0304
  869SOL    HW1 3474   2.144   2.307   1.071 -1.4951 -0.2537 -1.3208
  869SOL    HW2 3475   2.008   2.284   1.040 -0.0446  1.4232  0.2452
  869SOL     MW 3476   2.065   2.320   1.093  0.0844  0.0186 -0.1643
  870SOL     OW 3477   2.139   0.058   0.454 -0.0150  0.1713 -0.3633
  870SOL    HW1 3478   2.223   0.086   0.410 -1.6248  0.3807  2.4143
  870SOL    HW2 3479   2.157  -0.029   0.484  1.8073  2.1539 -0.7316
  870SOL     MW 3480   2.153   0.051   0.452  0.0130  0.4605 -0.0454
  871SOL     OW 3481   2.508   2.073   0.971 -0.0999 -0.7254  0.0697
  871SOL    HW1 3482   2.449   2.026   0.908  1.2615  0.5881 -3.1885
  871SOL    HW2 3483   2.473   2.156   1.004 -1.0751 -2.0941  1.8327
  871SOL     MW 3484   2.496   2.078   0.967 -0.0490 -0.7327 -0.1276
  872SOL     OW 3485   2.018   2.536   1.555  0.0861 -0.2212  0.3663
  872SOL    HW1 3486   1.992   2.572   1.643 -1.0486 -2.5495  1.0834
  872SOL    HW2 3487   1.960   2.467   1.530  0.5398 -0.5657  0.0975
  872SOL     MW 3488   2.007   2.532   1.563 -0.0037 -0.5739  0.4254
  873SOL     OW 3489   2.917   2.008   1.968  0.1919  0.3076  0.1827
  873SOL    HW1 3490   2.904   2.077   2.039 -1.2389  0.7802  1.1527
  873SOL    HW2 3491   2.999   2.026   1.930 -1.9986 -2.6445 -0.6926
  873SOL     MW 3492   2.926   2.020   1.972 -0.2859 -0.0196  0.1952
  874SOL     OW 3493   2.303   1.435   2.464  0.3447 -0.0128  0.0084
  874SOL    HW1 3494   2.281   1.386   2.377 -2.8426  1.4672 -0.3981
  874SOL    HW2 3495   2.378   1.388   2.502 -0.2180 -1.4027  1.8005
  874SOL     MW 3496   2.310   1.422   2.458 -0.1501 -0.0009  0.1912
  875SOL     OW 3497   2.345   2.274   1.039 -0.3779  0.0651 -0.6905
  875SOL    HW1 3498   2.375   2.336   0.972  1.6326  0.6185  0.5131
  875SOL    HW2 3499   2.370   2.321   1.120  0.7824 -0.2945 -0.8509
  875SOL     MW 3500   2.352   2.288   1.041  0.0404  0.0907 -0.5529
  876SOL     OW 3501   3.052   2.281   1.291  0.1943 -0.0475  0.3592
  876SOL    HW1 3502   3.118   2.293   1.217  2.8903  0.1217  0.5352
  876SOL    HW2 3503   3.106   2.297   1.370  0.0349  3.0221  0.4157
  876SOL     MW 3504   3.068   2.285   1.292  0.5290  0.3798  0.3899
  877SOL     OW 3505   0.001   2.750   0.316  0.4635  0.3881 -0.0258
  877SOL    HW1 3506   0.068   2.821   0.314 -0.8225  0.9475 -2.8684
  877SOL    HW2 3507  -0.008   2.721   0.225 -2.5733  1.5665 -0.9416
  877SOL     MW 3508   0.009   2.756   0.304 -0.1068  0.6174 -0.5217
  878SOL     OW 3509   2.384   1.819   1.313  0.3745 -0.0228  0.0897
  878SOL    HW1 3510   2.309   1.751   1.314 -3.0945  0.8981  0.7666
  878SOL    HW2 3511   2.470   1.782   1.281  2.8380 -1.1324 -2.0963
  878SOL     MW 3512   2.386   1.805   1.309  0.2419 -0.0477 -0.1094
  879SOL     OW 3513   2.718   2.434   0.975  0.6958 -0.0305 -0.0182
  879SOL    HW1 3514   2.749   2.528   0.981 -1.4589 -0.6059 -0.7448
  879SOL    HW2 3515   2.772   2.386   0.916 -1.0412  1.7516  0.2836
  879SOL     MW 3516   2.729   2.440   0.968  0.1823  0.1287 -0.0743
  880SOL     OW 3517   2.617   2.163   0.729 -0.2303 -0.1353  0.4584
  880SOL    HW1 3518   2.593   2.125   0.808  0.0442 -0.4867  2.2958
  880SOL    HW2 3519   2.557   2.126   0.665  1.0544 -0.1818 -1.9954
  880SOL     MW 3520   2.606   2.153   0.731 -0.0246 -0.1878  0.3771
  881SOL     OW 3521   2.902   2.737   0.762  0.0982  0.3916  0.3184
  881SOL    HW1 3522   2.864   2.687   0.686 -0.3684 -1.6774 -1.9264
  881SOL    HW2 3523   3.001   2.720   0.753  1.3363  0.1160 -0.7013
  881SOL     MW 3524   2.910   2.728   0.751  0.2000  0.0823 -0.1123
  882SOL     OW 3525   2.230   2.894   1.954 -0.2393  0.3212 -0.1308
  882SOL    HW1 3526   2.221   2.888   1.851  0.6996  0.6106  1.5768
  882SOL    HW2 3527   2.182   2.812   1.991  2.2569 -5.1690  1.5764
  882SOL     MW 3528   2.222   2.882   1.945  0.2139 -0.3650  0.3198
  883SOL     OW 3529   2.307   2.208   1.445 -0.0551  0.0315  0.0381
  883SOL    HW1 3530   2.384   2.153   1.419 -1.6681 -0.3822 -1.1188
  883SOL    HW2 3531   2.238   2.166   1.392  0.6667  0.3530 -0.8332
  883SOL     MW 3532   2.308   2.195   1.435 -0.1727  0.0194 -0.2295
  884SOL     OW 3533   1.946   1.748   1.053 -0.0936  0.0373  0.0624
  884SOL    HW1 3534   1.894   1.823   1.035 -0.4036 -2.3684 -0.8838
  884SOL    HW2 3535   2.036   1.786   1.070 -1.6431 -2.2288 -1.2910
  884SOL     MW 3536   1.951   1.763   1.053 -0.3389 -0.5791 -0.2410
  885SOL     OW 3537   2.891   2.371   1.850 -0.0477 -0.0869 -0.0160
  885SOL    HW1 3538   2.970   2.350   1.806  0.0472  2.2446 -0.3117
  885SOL    HW2 3539   2.829   2.356   1.783  0.9111  1.0622  0.3595
  885SOL     MW 3540   2.893   2.366   1.835  0.0913  0.3723 -0.0055
  886SOL     OW 3541   2.819   2.313   1.450 -0.3658 -0.4688  0.1234
  886SOL    HW1 3542   2.898   2.276   1.410 -3.1799 -0.2857  0.8867
  886SOL    HW2 3543   2.842   2.408   1.443  0.7130 -0.7458  0.4359
  886SOL     MW 3544   2.832   2.321   1.444 -0.5948 -0.4812  0.2653
  887SOL     OW 3545   2.284   2.616   1.560  0.0935 -0.1187  0.5597
  887SOL    HW1 3546   2.298   2.677   1.486 -0.4045  1.9912 -0.1237
  887SOL    HW2 3547   2.198   2.578   1.540  0.3276  1.7309  0.5642
  887SOL     MW 3548   2.275   2.619   1.547  0.0587  0.4037  0.4701
  888SOL     OW 3549   1.869   2.066   1.386  0.5760  0.7264 -0.1236
  888SOL    HW1 3550   1.945   2.053   1.330  1.8203  0.7791  1.1360
  888SOL    HW2 3551   1.897   2.078   1.477  0.3230  1.8298  0.3851
  888SOL     MW 3552   1.883   2.066   1.390  0.7068  0.8789  0.1097
  889SOL     OW 3553   2.296   2.049   2.064 -0.2302  0.1399 -0.0680
  889SOL    HW1 3554   2.338   2.017   2.143  2.1756 -1.7404  0.7184
  889SOL    HW2 3555   2.364   2.096   2.014  1.9462 -1.4529 -0.3912
  889SOL     MW 3556   2.310   2.051   2.068  0.3744 -0.3183 -0.0069
  890SOL     OW 3557   0.068   2.370   0.126 -0.1590 -0.2685  0.6486
  890SOL    HW1 3558   0.012   2.450   0.129  0.8236 -0.7506  0.9927
  890SOL    HW2 3559   0.048   2.330   0.211 -1.3637  0.0754 -0.6680
  890SOL     MW 3560   0.058   2.375   0.137 -0.1883 -0.2867  0.5203
  891SOL     OW 3561   3.023   2.005   1.297 -0.0832  0.2633  0.3187
  891SOL    HW1 3562   3.109   1.972   1.307 -0.8355  4.0497  0.8511
  891SOL    HW2 3563   3.017   2.102   1.292  0.0561 -3.1250 -1.6664
  891SOL     MW 3564   3.034   2.014   1.298 -0.1641  0.3158  0.1270
  892SOL     OW 3565   2.441   2.320   2.749  0.5089 -0.0355  0.2861
  892SOL    HW1 3566   2.440   2.236   2.796 -3.3050  0.0799 -0.1275
  892SOL    HW2 3567   2.533   2.354   2.780  2.5120 -0.6441 -0.2610
  892SOL     MW 3568   2.453   2.314   2.759  0.2700 -0.1006  0.1594
  893SOL     OW 3569   1.618   2.393   1.237 -0.1045  0.6428  0.1342
  893SOL    HW1 3570   1.550   2.439   1.292 -1.0925 -0.4106 -1.2782
  893SOL    HW2 3571   1.704   2.423   1.266  0.0956  0.6772 -1.5765
  893SOL     MW 3572   1.620   2.403   1.248 -0.2084  0.5084 -0.2778
  894SOL     OW 3573   2.743   1.902   0.445 -0.9124 -0.1844 -0.3752
  894SOL    HW1 3574   2.648   1.917   0.465  1.5475 -3.1249  2.2453
  894SOL    HW2 3575   2.749   1.850   0.357 -1.4171  0.4859 -3.9463
  894SOL     MW 3576   2.732   1.897   0.436 -0.6544 -0.4839 -0.5007
  895SOL     OW 3577   2.124   2.084   1.224 -0.3101  0.2159  0.1203
  895SOL    HW1 3578   2.118   2.170   1.170  1.5988 -0.4136 -1.3305
  895SOL    HW2 3579   2.147   2.012   1.164 -1.5964  1.6662  1.3715
  895SOL     MW 3580   2.126   2.086   1.209 -0.2280  0.3242  0.0940
  896SOL     OW 3581   2.266   2.795   1.084  1.1234  0.3154  0.4565
  896SOL    HW1 3582   2.315   2.747   1.144  0.7946 -0.1313 -1.9468
  896SOL    HW2 3583   2.196   2.742   1.032 -1.4631 -0.2635 -1.8157
  896SOL     MW 3584   2.263   2.782   1.085  0.7388  0.1801 -0.1604
  897SOL     OW 3585   3.017   2.976   0.034  0.5301  1.0254 -0.8407
  897SOL    HW1 3586   3.087   2.929  -0.013  4.2516 -0.6974 -2.4758
  897SOL    HW2 3587   2.938   2.926   0.028 -1.0255  1.1919  0.1711
  897SOL     MW 3588   3.016   2.963   0.027  0.8159  0.8200 -0.9230
  898SOL     OW 3589   2.093   0.207   1.448  0.0095 -0.2868  0.2947
  898SOL    HW1 3590   2.097   0.117   1.489  0.6623  0.1299  2.4124
  898SOL    HW2 3591   2.121   0.197   1.354 -0.0321 -0.9761  0.1040
  898SOL     MW 3592   2.097   0.194   1.441  0.0902 -0.3227  0.5489
  899SOL     OW 3593   2.895   2.984   0.643  0.2559 -0.0896 -0.1910
  899SOL    HW1 3594   2.889   2.902   0.699 -1.1491 -1.5782  0.8799
  899SOL    HW2 3595   2.801   3.020   0.646 -1.2701 -3.1350 -0.8294
  899SOL     MW 3596   2.882   2.978   0.651 -0.1308 -0.6878 -0.1339
  900SOL     OW 3597   0.115   2.404   1.102  0.1504  0.5587 -0.3507
  900SOL    HW1 3598   0.070   2.487   1.120  0.1554 -1.1576 -0.9280
  900SOL    HW2 3599   0.071   2.365   1.026  1.1960 -0.6720 -0.3741
  900SOL     MW 3600   0.104   2.410   1.094  0.2890  0.1699 -0.4300
  901SOL     OW 3601   1.741   2.830   1.775 -0.6669  0.1536  0.0143
  901SOL    HW1 3602   1.822   2.768   1.770  0.2490  0.0495  0.4329
  901SOL    HW2 3603   1.698   2.829   1.689  1.1253 -1.9030 -1.0507
  901SOL     MW 3604   1.746   2.822   1.763 -0.3096 -0.1315 -0.0710
  902SOL     OW 3605   2.688   2.132   1.833  0.0767  0.3281 -0.2631
  902SOL    HW1 3606   2.684   2.070   1.764 -0.3189  0.7476  0.1538
  902SOL    HW2 3607   2.767   2.102   1.879  1.6748 -0.9908 -1.9087
  902SOL     MW 3608   2.698   2.120   1.830  0.2354  0.2094 -0.4252
  903SOL     OW 3609   1.600   2.741   0.560 -0.4000 -0.4074  0.1582
  903SOL    HW1 3610   1.672   2.680   0.593  1.0084  0.1459 -0.4360
  903SOL    HW2 3611   1.559   2.786   0.630  2.2986 -1.1035  0.7300
  903SOL     MW 3612   1.604   2.739   0.573  0.1419 -0.4262  0.1552
  904SOL     OW 3613   2.515   2.641   1.716  0.7427 -0.7259  0.1058
  904SOL    HW1 3614   2.429   2.634   1.672  0.6967 -0.8467 -2.7173
  904SOL    HW2 3615   2.551   2.558   1.699 -2.3947  0.4828  0.3975
  904SOL     MW 3616   2.508   2.629   1.708  0.3227 -0.5824 -0.2282
  905SOL     OW 3617   2.295   2.551   2.175 -0.2435 -0.0009 -0.1550
  905SOL    HW1 3618   2.344   2.526   2.094  0.0688 -0.0268  1.0931
  905SOL    HW2 3619   2.266   2.469   2.218 -0.4635  0.1845  3.2703
  905SOL     MW 3620   2.298   2.537   2.170 -0.2313  0.0201  0.4616
  906SOL     OW 3621   2.440   2.486   0.867 -0.3854 -0.3780 -0.4652
  906SOL    HW1 3622   2.535   2.479   0.885 -1.9659  3.8367 -0.0391
  906SOL    HW2 3623   2.434   2.565   0.806  1.1904 -2.9824  3.1429
  906SOL     MW 3624   2.451   2.496   0.861 -0.3860 -0.1655  0.0671
  907SOL     OW 3625   2.624   2.785   1.347 -0.0223  0.1275  0.4839
  907SOL    HW1 3626   2.672   2.842   1.404 -0.5456  0.4780  0.6099
  907SOL    HW2 3627   2.647   2.826   1.262 -0.8325  0.7760  0.0834
  907SOL     MW 3628   2.633   2.798   1.344 -0.1983  0.2593  0.4477
  908SOL     OW 3629   2.744   2.343   3.077 -0.7932 -0.2977 -0.5611
  908SOL    HW1 3630   2.659   2.310   3.064  1.2021  1.2089  2.8754
  908SOL    HW2 3631   2.737   2.431   3.112  0.8414  0.0023 -1.0581
  908SOL     MW 3632   2.732   2.350   3.080 -0.3143 -0.0593 -0.1733
  909SOL     OW 3633   1.715   0.100   1.166  0.1168 -0.3319  0.1572
  909SOL    HW1 3634   1.708   0.157   1.085  0.2957 -2.0355 -0.7905
  909SOL    HW2 3635   1.693   0.150   1.241  1.5842  0.0167  3.5693
  909SOL     MW 3636   1.711   0.114   1.165  0.3340 -0.5107  0.4823
  910SOL     OW 3637   2.302   1.748   0.451 -0.7045  0.2986 -0.4303
  910SOL    HW1 3638   2.255   1.664   0.460 -0.9255 -0.4098  0.8571
  910SOL    HW2 3639   2.235   1.806   0.425 -0.3828 -1.3909 -1.6941
  910SOL     MW 3640   2.287   1.744   0.449 -0.6912 -0.0178 -0.4272
  911SOL     OW 3641   2.240   2.190   1.712  0.5422 -0.2578 -0.4584
  911SOL    HW1 3642   2.312   2.205   1.775  1.6823  0.7397  0.3197
  911SOL    HW2 3643   2.275   2.209   1.623  1.2495  1.4947  0.0005
  911SOL     MW 3644   2.254   2.194   1.709  0.7860  0.1051 -0.2952
  912SOL     OW 3645   2.949   1.931   1.537 -0.1568  0.0805 -0.2872
  912SOL    HW1 3646   2.971   1.953   1.448  0.7879 -3.1234  2.5144
  912SOL    HW2 3647   2.854   1.950   1.543 -0.0096  0.3325 -0.8956
  912SOL     MW 3648   2.939   1.936   1.526 -0.0127 -0.3090  0.0022
  913SOL     OW 3649   2.629   3.038   0.365 -0.1106 -0.1744 -0.1273
  913SOL    HW1 3650   2.706   2.980   0.356  1.4770  2.4834 -0.5036
  913SOL    HW2 3651   2.543   2.994   0.341  1.4343  1.1211  1.9604
  913SOL     MW 3652   2.628   3.024   0.361  0.3027  0.3472  0.0985
  914SOL     OW 3653   2.719   1.753   3.083  0.2751 -0.4026 -0.3501
  914SOL    HW1 3654   2.736   1.813   3.005 -0.5851  1.5759 -1.5229
  914SOL    HW2 3655   2.626   1.782   3.104 -2.1838  1.1928 -0.3294
  914SOL     MW 3656   2.709   1.765   3.075 -0.1629  0.0690 -0.5021
  915SOL     OW 3657   1.688   0.235   0.240  0.7350 -0.2918 -0.0943
  915SOL    HW1 3658   1.755   0.180   0.291  3.0222  1.2783  2.0282
  915SOL    HW2 3659   1.599   0.193   0.254  0.0398  1.6542 -2.1342
  915SOL     MW 3660   1.685   0.223   0.248  0.9450  0.1721 -0.0834
  916SOL     OW 3661   1.810   2.104   1.896 -0.4637  0.2848 -0.0713
  916SOL    HW1 3662   1.850   2.191   1.886  0.6213 -2.4232  2.0540
  916SOL    HW2 3663   1.842   2.058   1.820  0.7437  2.7201 -1.1065
  916SOL     MW 3664   1.819   2.110   1.885 -0.1613  0.2488  0.0725
  917SOL     OW 3665   2.549   2.201   2.501 -0.1434  0.4427 -0.4618
  917SOL    HW1 3666   2.514   2.260   2.566  0.2895  0.5111  1.2934
  917SOL    HW2 3667   2.628   2.250   2.475  0.4680  1.9229  0.2206
  917SOL     MW 3668   2.555   2.215   2.506 -0.0056  0.6471 -0.1402
  918SOL     OW 3669   2.000   1.612   2.713  0.0065  0.0678  0.2044
  918SOL    HW1 3670   1.923   1.643   2.661  1.2031  2.0868  1.8762
  918SOL    HW2 3671   2.067   1.671   2.678  0.7869 -1.3547  2.4867
  918SOL     MW 3672   1.998   1.624   2.701  0.2673  0.1465  0.7261
  919SOL     OW 3673   3.087   2.342   2.277 -0.1637  0.0552 -0.1532
  919SOL    HW1 3674   3.028   2.272   2.250  1.5489 -0.9025  0.0040
  919SOL    HW2 3675   3.131   2.361   2.196 -0.5985 -0.0776 -1.7107
  919SOL     MW 3676   3.085   2.335   2.263  0.0049 -0.0887 -0.3379
  920SOL     OW 3677   2.715   2.853   3.099 -0.6317 -0.3308  0.3283
  920SOL    HW1 3678   2.640   2.901   3.134  0.3357  2.5841 -2.4014
  920SOL    HW2 3679   2.693   2.781   3.037  1.0832 -1.1932  1.5093
  920SOL     MW 3680   2.702   2.850   3.096 -0.2778 -0.0600  0.1239
  921SOL     OW 3681   2.453   2.579   2.611 -0.7360 -0.3883 -0.3942
  921SOL    HW1 3682   2.536   2.600   2.563  4.4565 -0.0634  1.0665
  921SOL    HW2 3683   2.455   2.488   2.656  1.8715  0.0081  0.4261
  921SOL     MW 3684   2.464   2.570   2.611  0.2932 -0.2931 -0.0933
  922SOL     OW 3685   2.054   2.867   0.304  0.0769 -0.4406 -0.3158
  922SOL    HW1 3686   2.050   2.892   0.211 -1.6114  0.5699  0.7316
  922SOL    HW2 3687   2.044   2.773   0.302 -0.2031  1.7872  2.9048
  922SOL     MW 3688   2.052   2.858   0.291 -0.1828 -0.0133  0.2473
  923SOL     OW 3689   2.147   2.824   1.706 -0.2686 -0.0139  0.0557
  923SOL    HW1 3690   2.215   2.765   1.675 -1.5166  0.9099 -1.2495
  923SOL    HW2 3691   2.141   2.903   1.656 -0.4002  0.4570  0.3603
  923SOL     MW 3692   2.155   2.827   1.696 -0.4506  0.1701 -0.0763
  924SOL     OW 3693   1.169   2.642   2.518 -0.4740  0.7343  0.3621
  924SOL    HW1 3694   1.240   2.707   2.523  2.2534  1.1475 -0.0767
  924SOL    HW2 3695   1.165   2.602   2.604  1.9330  3.9378 -0.0478
  924SOL     MW 3696   1.178   2.646   2.530  0.2034  1.2115  0.2501
  925SOL     OW 3697   3.010   0.191   2.648  0.8562 -0.0502  0.1486
  925SOL    HW1 3698   2.969   0.194   2.555  0.7857 -0.7158  0.1454
  925SOL    HW2 3699   2.980   0.270   2.690 -2.3562  0.9141  0.5622
  925SOL     MW 3700   3.001   0.202   2.641  0.4231 -0.0108  0.2028
  926SOL     OW 3701   2.730   2.391   2.070 -0.1179  0.4081 -0.2940
  926SOL    HW1 3702   2.773   2.451   2.131  2.1872 -1.8095 -0.9427
  926SOL    HW2 3703   2.774   2.400   1.983 -2.7187 -0.1389 -3.9140
  926SOL     MW 3704   2.741   2.401   2.067 -0.1569  0.0433 -0.8572
  927SOL     OW 3705   2.336   0.132   0.273  0.0898 -0.3869  0.7909
  927SOL    HW1 3706   2.428   0.165   0.278 -2.2932 -1.8802  0.4828
  927SOL    HW2 3707   2.325   0.104   0.181 -0.3199 -0.3438 -1.2462
  927SOL     MW 3708   2.346   0.133   0.262 -0.2787 -0.5783  0.4815
  928SOL     OW 3709   2.170   2.428   1.853  0.0098 -0.3981 -1.3839
  928SOL    HW1 3710   2.177   2.384   1.934 -2.3247 -0.8315  0.5931
  928SOL    HW2 3711   2.194   2.360   1.789  1.6372  0.3979  0.5877
  928SOL     MW 3712   2.174   2.413   1.855 -0.0835 -0.3502 -0.8629
  929SOL     OW 3713   2.755   2.398   2.444 -0.3008  0.0023  0.2113
  929SOL    HW1 3714   2.808   2.401   2.369  1.3650 -2.0946  0.9422
  929SOL    HW2 3715   2.812   2.362   2.512  0.2748  0.5205 -0.9412
  929SOL     MW 3716   2.769   2.394   2.443 -0.0051 -0.2060  0.1556
  930SOL     OW 3717   2.016   2.882   2.710 -0.4641  0.1141  0.8049
  930SOL    HW1 3718   2.041   2.822   2.781  1.9305 -0.5980  3.0971
  930SOL    HW2 3719   2.089   2.941   2.695 -0.6277  0.2931 -0.9594
  930SOL     MW 3720   2.029   2.882   2.718 -0.1698  0.0438  0.8746
  931SOL     OW 3721   3.017   2.741   2.336 -0.1124 -0.0643  0.0876
  931SOL    HW1 3722   3.068   2.762   2.414  0.5323 -1.5131 -0.4078
  931SOL    HW2 3723   3.091   2.728   2.275  2.7013  0.2371 -0.7533
  931SOL     MW 3724   3.033   2.742   2.338  0.3439 -0.2157 -0.0887
  932SOL     OW 3725   2.868   1.962   2.560  0.4508  0.2128  0.0678
  932SOL    HW1 3726   2.956   1.999   2.535  0.0888 -0.9945 -0.1756
  932SOL    HW2 3727   2.807   1.989   2.491  1.0730  1.7184 -1.3169
  932SOL     MW 3728   2.872   1.971   2.548  0.4851  0.2522 -0.1470
  933SOL     OW 3729   2.053   2.850   2.273  0.6309 -0.5582 -0.1419
  933SOL    HW1 3730   2.143   2.871   2.303  0.7809 -2.4234  1.0808
  933SOL    HW2 3731   2.009   2.934   2.252 -1.0873  2.2502 -0.7526
  933SOL     MW 3732   2.059   2.863   2.275  0.4240 -0.4338 -0.0612
  934SOL     OW 3733   2.026   2.702   2.490  0.2371  0.4112  0.0507
  934SOL    HW1 3734   2.030   2.754   2.571 -0.8553 -1.1804  1.4704
  934SOL    HW2 3735   2.018   2.767   2.414 -0.3445 -2.1475 -0.2693
  934SOL     MW 3736   2.025   2.718   2.491  0.0162 -0.1364  0.1958
  935SOL     OW 3737   2.680   1.522   1.795 -0.0350 -0.3727  0.6231
  935SOL    HW1 3738   2.775   1.508   1.768  0.7301  1.1646 -4.4938
  935SOL    HW2 3739   2.628   1.519   1.721 -0.3553 -0.4577  1.8932
  935SOL     MW 3740   2.686   1.520   1.782  0.0237 -0.1811  0.1156
  936SOL     OW 3741   2.986   2.217   3.050  0.4423 -0.3245  0.0245
  936SOL    HW1 3742   3.039   2.269   3.109  1.3067 -1.1436  0.2677
  936SOL    HW2 3743   2.905   2.264   3.064  0.0196  0.5264  0.6795
  936SOL     MW 3744   2.982   2.230   3.059  0.5006 -0.3203  0.1430
  937SOL     OW 3745   1.939   2.133   2.616  0.5622 -0.0730  0.0557
  937SOL    HW1 3746   2.026   2.104   2.644 -0.7508  1.4756 -1.3649
  937SOL    HW2 3747   1.931   2.097   2.529  1.0891 -0.5430 -0.4169
  937SOL     MW 3748   1.949   2.124   2.608  0.4585  0.0693 -0.1941
  938SOL     OW 3749   2.275   1.776   1.968  0.3376 -0.3229  0.3702
  938SOL    HW1 3750   2.284   1.807   1.877 -0.6177 -0.5521  0.0119
  938SOL    HW2 3751   2.281   1.860   2.009 -0.1456  1.5937 -0.7607
  938SOL     MW 3752   2.277   1.791   1.961  0.1478 -0.1003  0.1737
  939SOL     OW 3753   2.734   1.976   2.331  0.2114  0.0763 -0.4036
  939SOL    HW1 3754   2.769   1.908   2.269 -1.4382 -0.7534  1.7159
  939SOL    HW2 3755   2.636   1.957   2.308 -2.9705 -1.5342 -3.2286
  939SOL     MW 3756   2.726   1.965   2.320 -0.4260 -0.2457 -0.4967
  940SOL     OW 3757   2.284   0.168   2.642 -0.2603  0.4726  0.6405
  940SOL    HW1 3758   2.265   0.071   2.641  1.6484 -0.1005 -1.0703
  940SOL    HW2 3759   2.313   0.170   2.738 -0.4332 -2.6557  3.5506
  940SOL     MW 3760   2.285   0.155   2.655 -0.0313 -0.0158  0.7987
  941SOL     OW 3761   0.128   2.442   2.065 -0.0381  0.1666  0.1570
  941SOL    HW1 3762   0.226   2.440   2.051 -2.8041  0.5000 -0.1303
  941SOL    HW2 3763   0.098   2.407   1.987  1.6139 -0.3925  2.2795
  941SOL     MW 3764   0.137   2.437   2.053 -0.1851  0.1368  0.3991
  942SOL     OW 3765   2.852   2.169   2.178 -0.1412  0.5799 -0.1733
  942SOL    HW1 3766   2.776   2.222   2.156 -0.4937 -0.4287  3.3623
  942SOL    HW2 3767   2.822   2.104   2.237  1.0686  0.5627 -1.5671
  942SOL     MW 3768   2.838   2.167   2.183 -0.0281  0.4446  0.1093
  943SOL     OW 3769   0.316   2.117   2.267 -0.0817  0.3775 -0.2858
  943SOL    HW1 3770   0.293   2.179   2.333 -1.4946 -1.6499 -0.0394
  943SOL    HW2 3771   0.400   2.079   2.304  0.9259 -1.0104 -1.2793
  943SOL     MW 3772   0.324   2.120   2.281 -0.1352 -0.0731 -0.3844
  944SOL     OW 3773   2.096   2.697   2.062 -0.1927 -0.4986 -1.1971
  944SOL    HW1 3774   2.174   2.640   2.086  2.0117 -1.9899  0.7522
  944SOL    HW2 3775   2.061   2.748   2.143 -0.9156  1.5789  1.1470
  944SOL     MW 3776   2.101   2.696   2.076  0.0028 -0.4213 -0.6306
  945SOL     OW 3777   2.668   2.692   2.891  0.4824 -0.1217  0.3125
  945SOL    HW1 3778   2.663   2.604   2.860  0.3948  0.1518  1.9144
  945SOL    HW2 3779   2.612   2.739   2.830  0.2811 -0.1014 -1.2075
  945SOL     MW 3780   2.660   2.687   2.879  0.4443 -0.0830  0.3233
  946SOL     OW 3781   2.478   2.716   2.289 -0.1038 -0.2768 -0.7131
  946SOL    HW1 3782   2.495   2.763   2.208 -3.8939 -3.1723  1.5381
  946SOL    HW2 3783   2.411   2.648   2.270 -0.9948 -3.4349 -0.6488
  946SOL     MW 3784   2.471   2.713   2.276 -0.7214 -1.0755 -0.4076
  947SOL     OW 3785   1.910   0.073   0.315  0.0055 -0.0350 -0.2986
  947SOL    HW1 3786   1.878  -0.019   0.318 -1.3045  4.2145 -0.1523
  947SOL    HW2 3787   1.996   0.077   0.364  0.5324  1.7128 -0.2884
  947SOL     MW 3788   1.917   0.062   0.322 -0.0978  0.7563 -0.2779
  948SOL     OW 3789   1.812   3.055   2.684 -0.6418 -0.5506 -0.0786
  948SOL    HW1 3790   1.893   3.002   2.691  0.0162 -1.2144 -1.1979
  948SOL    HW2 3791   1.787   3.055   2.587 -1.1021  0.7688  0.5515
  948SOL     MW 3792   1.819   3.048   2.672 -0.6157 -0.4641 -0.1432
  949SOL     OW 3793   2.471   1.924   2.276  0.0977  0.1719  0.2474
  949SOL    HW1 3794   2.475   1.837   2.317  1.2506  1.4528 -0.9695
  949SOL    HW2 3795   2.424   1.991   2.334 -2.9747 -0.2980 -1.6405
  949SOL     MW 3796   2.465   1.922   2.289 -0.1555  0.2789 -0.1622
  950SOL     OW 3797   2.273   2.452   2.951  0.5110  0.2134 -0.4259
  950SOL    HW1 3798   2.327   2.415   2.879  1.4846 -0.0742 -1.8320
  950SOL    HW2 3799   2.208   2.511   2.906 -1.8669  0.3461 -1.6573
  950SOL     MW 3800   2.271   2.455   2.936  0.3257  0.1930 -0.7739
  951SOL     OW 3801   3.010   2.073   2.806 -0.0214 -0.2730  0.1954
  951SOL    HW1 3802   3.004   2.111   2.896 -1.4148 -0.2980  1.9997
  951SOL    HW2 3803   3.089   2.021   2.800  1.2173  0.0812 -0.6637
  951SOL     MW 3804   3.020   2.071   2.817 -0.0418 -0.2296  0.3201
  952SOL     OW 3805   3.033   1.655   2.148  0.0623  0.5597  0.3081
  952SOL    HW1 3806   2.974   1.722   2.109  0.6321  0.1938 -0.0993
  952SOL    HW2 3807   3.100   1.704   2.192 -0.6868 -0.5787  1.2664
  952SOL     MW 3808   3.034   1.671   2.149  0.0386  0.3612  0.3808
  953SOL     OW 3809   1.871   1.779   2.887  0.2106  0.1220 -0.4121
  953SOL    HW1 3810   1.799   1.730   2.934  2.5751 -1.6277 -1.5293
  953SOL    HW2 3811   1.922   1.709   2.832 -1.5248 -1.4085 -0.0960
  953SOL     MW 3812   1.868   1.763   2.886  0.2936 -0.3108 -0.5178
  954SOL     OW 3813   2.369   2.072   2.881  0.3920 -0.0550 -0.4335
  954SOL    HW1 3814   2.292   2.083   2.830  0.1018 -1.9278  1.9751
  954SOL    HW2 3815   2.435   2.015   2.831 -1.3480 -0.9979 -0.7273
  954SOL     MW 3816   2.368   2.066   2.868  0.1241 -0.4265 -0.1544
  955SOL     OW 3817   1.550   1.573   2.577 -0.2037 -0.0384 -0.0973
  955SOL    HW1 3818   1.532   1.602   2.483  0.6649 -0.6016 -1.6183
  955SOL    HW2 3819   1.638   1.617   2.590 -0.6186 -1.4940  0.6407
  955SOL     MW 3820   1.559   1.583   2.566 -0.1438 -0.3048 -0.2006
  956SOL     OW 3821   2.675   2.427   2.837  0.1973 -0.3585  0.0898
  956SOL    HW1 3822   2.713   2.382   2.910 -0.9086  2.0588 -0.2556
  956SOL    HW2 3823   2.742   2.394   2.771 -0.8483 -1.0721 -3.1553
  956SOL     MW 3824   2.688   2.416   2.838 -0.0866 -0.1337 -0.3840
  957SOL     OW 3825   2.320   2.828   0.356 -0.1229 -0.2189 -0.0323
  957SOL    HW1 3826   2.237   2.834   0.312  1.0101  1.0170 -0.4216
  957SOL    HW2 3827   2.298   2.805   0.454  2.6497  0.3916  2.3317
  957SOL     MW 3828   2.306   2.826   0.363  0.3924  0.0247  0.2283
  958SOL     OW 3829   2.104   2.626   2.831 -0.1749  0.0336  0.1145
  958SOL    HW1 3830   2.074   2.575   2.755 -0.7267  0.9221  1.8480
  958SOL    HW2 3831   2.026   2.620   2.881  0.4627 -0.0712 -2.3361
  958SOL     MW 3832   2.089   2.618   2.827 -0.1636  0.1370  0.0199
  959SOL     OW 3833   2.506   2.624   0.337  0.3375  0.5623 -0.0266
  959SOL    HW1 3834   2.544   2.630   0.255  0.3555  1.6890 -0.2514
  959SOL    HW2 3835   2.439   2.698   0.335  0.0504  1.5277 -0.2219
  959SOL     MW 3836   2.502   2.635   0.326  0.3020  0.8383 -0.0820
  960SOL     OW 3837   1.932   2.294   2.254  0.2290  0.3175  0.4868
  960SOL    HW1 3838   1.936   2.196   2.254 -1.7057  1.4285 -0.4721
  960SOL    HW2 3839   1.860   2.318   2.312  2.0960  0.3108 -0.3128
  960SOL     MW 3840   1.923   2.284   2.262  0.2201  0.4632  0.2548
  961SOL     OW 3841   2.194   2.316   2.273 -0.0193  0.0022  0.3590
  961SOL    HW1 3842   2.101   2.334   2.265  0.3777 -1.3355  1.5182
  961SOL    HW2 3843   2.206   2.376   2.353  0.7626 -1.1936  5.1002
  961SOL     MW 3844   2.183   2.326   2.283  0.1362 -0.3321  1.1375
  962SOL     OW 3845   2.152   2.029   2.751 -0.4102 -0.2004 -0.1054
  962SOL    HW1 3846   2.105   2.009   2.828  0.7563  2.0079  3.0991
  962SOL    HW2 3847   2.187   1.944   2.716  0.7092 -0.8672  0.8729
  962SOL     MW 3848   2.150   2.015   2.756 -0.1086  0.0030  0.4465
  963SOL     OW 3849   1.803   2.546   2.084 -0.1622 -0.1805 -0.1577
  963SOL    HW1 3850   1.896   2.549   2.104  1.3669 -0.3089  3.4064
  963SOL    HW2 3851   1.796   2.465   2.034  1.0537  0.8045  0.2899
  963SOL     MW 3852   1.814   2.536   2.080  0.2000 -0.0675  0.3716
  964SOL     OW 3853   1.755   1.962   2.742  0.0350 -0.0706 -0.5141
  964SOL    HW1 3854   1.832   2.013   2.717 -0.1109 -3.0104  0.7140
  964SOL    HW2 3855   1.797   1.898   2.808  0.0408 -0.3012 -0.8476
  964SOL     MW 3856   1.770   1.961   2.747  0.0165 -0.4889 -0.3961
  965SOL     OW 3857   2.233   2.744   0.617  0.1318 -0.2416  0.6026
  965SOL    HW1 3858   2.224   2.648   0.609  0.8713  0.8449 -0.4718
  965SOL    HW2 3859   2.279   2.762   0.703  1.1889 -0.2844  0.2585
  965SOL     MW 3860   2.238   2.734   0.627  0.3689 -0.1039  0.4154
  966SOL     OW 3861   2.660   2.651   2.476 -0.5135 -0.6492 -0.1637
  966SOL    HW1 3862   2.606   2.669   2.400 -2.2791 -1.2349  0.9765
  966SOL    HW2 3863   2.681   2.560   2.452 -2.3789 -0.9078 -0.5834
  966SOL     MW 3864   2.656   2.641   2.463 -0.9926 -0.7606 -0.0686
  967SOL     OW 3865   2.763   3.051   2.887  0.1840  0.2512  0.3720
  967SOL    HW1 3866   2.739   2.988   2.953  0.0705  0.9257 -0.0432
  967SOL    HW2 3867   2.676   3.055   2.840 -0.5114  2.3903 -0.5952
  967SOL     MW 3868   2.749   3.043   2.889  0.0773  0.6224  0.1896
  968SOL     OW 3869   2.959   2.621   2.895 -0.4863  0.1348  0.1004
  968SOL    HW1 3870   2.876   2.646   2.866  1.7116 -0.9556 -1.1427
  968SOL    HW2 3871   2.999   2.584   2.817 -0.6644  1.3612 -1.3242
  968SOL     MW 3872   2.953   2.619   2.881 -0.2198  0.1528 -0.2516
  969SOL     OW 3873   1.622   2.159   1.636 -0.2041  0.2340  0.1306
  969SOL    HW1 3874   1.690   2.097   1.646  2.3477  0.7208 -0.5303
  969SOL    HW2 3875   1.579   2.169   1.722  0.3268  0.7230 -2.1591
  969SOL     MW 3876   1.625   2.152   1.648  0.2027  0.3628 -0.2587
  970SOL     OW 3877   1.690   1.798   1.957  0.3059  0.0293  0.2935
  970SOL    HW1 3878   1.726   1.710   1.988  0.2266 -2.3387  1.5517
  970SOL    HW2 3879   1.604   1.766   1.915  0.2504 -2.1463  0.1949
  970SOL     MW 3880   1.683   1.782   1.956  0.2881 -0.5701  0.4465
  971SOL     OW 3881   1.742  -0.000   2.427  0.2043 -0.2327  0.5880
  971SOL    HW1 3882   1.768  -0.038   2.346  0.6955  1.8199  0.5457
  971SOL    HW2 3883   1.790   0.086   2.423 -1.4881 -1.5430  1.6766
  971SOL     MW 3884   1.751   0.006   2.416  0.0458 -0.1347  0.7260
  972SOL     OW 3885   0.279   2.881   2.460 -0.1562  0.6467 -0.4198
  972SOL    HW1 3886   0.350   2.819   2.478  0.3807  2.0810  0.3342
  972SOL    HW2 3887   0.319   2.970   2.452  1.1222  0.2796  2.0377
  972SOL     MW 3888   0.293   2.885   2.461  0.0833  0.7875  0.0039
  973SOL     OW 3889   2.537   0.013   2.101 -0.0901  0.4378 -0.0964
  973SOL    HW1 3890   2.541  -0.085   2.099  1.0210 -2.0493 -1.6432
  973SOL    HW2 3891   2.565   0.036   2.009 -2.0365  0.0352  0.6379
  973SOL     MW 3892   2.541   0.003   2.088 -0.2003  0.0565 -0.2036
  974SOL     OW 3893   2.015   0.234   2.682  0.3245  0.5816 -0.5068
  974SOL    HW1 3894   2.103   0.202   2.673 -1.7176 -2.2368  1.5823
  974SOL    HW2 3895   1.983   0.192   2.762 -1.2398  2.8725  1.4569
  974SOL     MW 3896   2.023   0.224   2.691 -0.1513  0.5120  0.0279
  975SOL     OW 3897   2.215   2.489   2.507  0.3592  0.2195  0.0723
  975SOL    HW1 3898   2.305   2.513   2.528  1.5530 -0.2672 -2.6162
  975SOL    HW2 3899   2.173   2.575   2.503  0.6363  1.4650 -0.3571
  975SOL     MW 3900   2.221   2.503   2.509  0.5533  0.3196 -0.3390
  976SOL     OW 3901   0.227   0.366   1.766  0.1263  0.2101  0.6005
  976SOL    HW1 3902   0.288   0.288   1.770 -1.2664  1.0028 -0.9652
  976SOL    HW2 3903   0.139   0.331   1.731 -1.6118 -0.4825  0.3387
  976SOL     MW 3904   0.223   0.351   1.762 -0.2868  0.2233  0.3593
  977SOL     OW 3905   1.747   2.657   2.557 -0.0752  0.6109  0.7849
  977SOL    HW1 3906   1.753   2.560   2.542 -0.9441  2.1933 -1.4654
  977SOL    HW2 3907   1.832   2.693   2.547  1.1132 -1.6541 -1.2713
  977SOL     MW 3908   1.759   2.649   2.554 -0.0331  0.5208  0.2167
   3.10000   3.10000   3.10000
