977 TIP4P/2005f water molecules t=   2.00000 step= 2000
 3908
    1SOL     OW    1   0.447   0.731   0.175 -0.0443  0.1730  0.0438
    1SOL    HW1    2   0.368   0.697   0.135  0.5788  2.3691 -0.3238
    1SOL    HW2    3   0.489   0.664   0.231  0.9984 -1.2230  0.6878
    1SOL     MW    4   0.442   0.718   0.177  0.1755  0.2786  0.0803
    2SOL     OW    5   0.281   2.983   1.131  0.1024  0.3637 -0.5587
    2SOL    HW1    6   0.303   3.056   1.072  1.9507 -2.3587 -1.7427
    2SOL    HW2    7   0.187   2.994   1.142  0.4860 -0.3114 -0.9023
    2SOL     MW    8   0.272   2.994   1.125  0.3969 -0.0846 -0.7602
    3SOL     OW    9   2.686   0.332   0.868 -0.2017 -0.4863  0.3642
    3SOL    HW1   10   2.718   0.418   0.832 -0.0888  1.4673 -1.3168
    3SOL    HW2   11   2.664   0.358   0.964 -1.4358 -3.2650 -2.1107
    3SOL     MW   12   2.687   0.347   0.876 -0.3496 -0.5951 -0.1842
    4SOL     OW   13   2.936   1.704   0.556  0.3193  0.1491 -0.3351
    4SOL    HW1   14   2.878   1.779   0.553  0.5468  0.0030  0.2532
    4SOL    HW2   15   2.991   1.713   0.466 -0.3990  2.0873 -3.2868
    4SOL     MW   16   2.936   1.715   0.544  0.2545  0.3856 -0.6469
    5SOL     OW   17   1.620   1.497   0.642  0.1205  0.9920  0.2291
    5SOL    HW1   18   1.646   1.462   0.731 -0.3287  1.6022  0.5958
    5SOL    HW2   19   1.529   1.516   0.649  2.5153 -0.4691 -0.2956
    5SOL     MW   20   1.612   1.495   0.655  0.3772  0.8797  0.2082
    6SOL     OW   21   0.737   1.444   0.621 -0.3787 -0.1326 -0.2825
    6SOL    HW1   22   0.639   1.448   0.615 -2.6239  1.0619 -0.5498
    6SOL    HW2   23   0.767   1.362   0.656 -3.5598  1.0232 -1.5333
    6SOL     MW   24   0.728   1.434   0.625 -1.0946  0.1775 -0.4828
    7SOL     OW   25   1.959   1.012   0.059 -0.5794 -0.5180 -0.0197
    7SOL    HW1   26   2.032   1.078   0.075 -0.3826  0.6084 -1.6332
    7SOL    HW2   27   1.926   0.998   0.156  0.1421  1.6773  2.2972
    7SOL     MW   28   1.964   1.019   0.074 -0.4583 -0.0797  0.0731
    8SOL     OW   29   0.875   1.401   0.995 -0.1587 -0.3022  0.3368
    8SOL    HW1   30   0.904   1.471   1.052 -3.0618  2.5634 -1.7702
    8SOL    HW2   31   0.910   1.318   1.034  0.5324 -0.8253 -2.8152
    8SOL     MW   32   0.883   1.399   1.008 -0.4506  0.0068 -0.3570
    9SOL     OW   33   0.903   0.543   1.315  0.7370 -0.0435  0.4636
    9SOL    HW1   34   0.858   0.463   1.300  1.7098  1.9004 -0.5105
    9SOL    HW2   35   0.980   0.517   1.364  0.8434 -1.7816 -0.8587
    9SOL     MW   36   0.907   0.529   1.320  0.8794 -0.0163  0.1606
   10SOL     OW   37   0.332   0.851   0.486  0.3844  0.4778 -0.2222
   10SOL    HW1   38   0.424   0.882   0.478  1.7483  0.6919 -0.5590
   10SOL    HW2   39   0.301   0.895   0.565  0.0572  0.1177  0.1042
   10SOL     MW   40   0.340   0.861   0.495  0.5212  0.4585 -0.2236
   11SOL     OW   41   0.735   1.065   1.450  0.1558 -0.6771 -0.2776
   11SOL    HW1   42   0.778   1.090   1.531  0.2683 -0.8359 -1.2374
   11SOL    HW2   43   0.776   0.987   1.417 -1.0282 -0.5951  1.5336
   11SOL     MW   44   0.746   1.058   1.456  0.0144 -0.6873 -0.1653
   12SOL     OW   45   0.005   1.098   0.904  0.3789  0.4907  0.0850
   12SOL    HW1   46   0.010   1.182   0.948 -0.6163  3.0089  0.0051
   12SOL    HW2   47  -0.001   1.116   0.813 -1.6876  0.5286  0.0412
   12SOL     MW   48   0.005   1.111   0.897 -0.0251  0.8280  0.0687
   13SOL     OW   49   1.877   1.402   1.273 -0.0576 -0.1782 -0.7182
   13SOL    HW1   50   1.916   1.328   1.224  0.2211  2.7296 -3.4440
   13SOL    HW2   51   1.928   1.483   1.258 -1.6923  2.5396 -1.4339
   13SOL     MW   52   1.889   1.403   1.265 -0.2365  0.5640 -1.1723
   14SOL     OW   53   0.548   0.247   1.871 -0.3989 -0.0452  0.0232
   14SOL    HW1   54   0.590   0.181   1.812  1.4665  2.3152  2.6028
   14SOL    HW2   55   0.576   0.329   1.834 -0.4542  1.4184  1.6510
   14SOL     MW   56   0.557   0.249   1.858 -0.1600  0.4593  0.5783
   15SOL     OW   57   1.979   0.404   0.976  0.1875 -0.5257 -0.1322
   15SOL    HW1   58   1.993   0.488   1.019 -2.5181  2.8647  2.0228
   15SOL    HW2   59   2.045   0.417   0.907 -1.4379 -1.4086 -0.1116
   15SOL     MW   60   1.990   0.417   0.973 -0.3840 -0.1949  0.1548
   16SOL     OW   61   0.211   1.838   0.295  0.6472  0.8247  0.9478
   16SOL    HW1   62   0.301   1.792   0.276 -2.2348  0.0461 -0.7040
   16SOL    HW2   63   0.234   1.926   0.336  2.6206  0.5595  2.4532
   16SOL     MW   64   0.226   1.844   0.298  0.5273  0.6870  0.9285
   17SOL     OW   65   1.127   0.813   1.387  0.2154  0.1288  0.8669
   17SOL    HW1   66   1.143   0.797   1.480  0.4634 -0.5401  0.2109
   17SOL    HW2   67   1.038   0.834   1.387 -1.0142 -2.0231 -0.3125
   17SOL     MW   68   1.117   0.814   1.399  0.0859 -0.2433  0.6248
   18SOL     OW   69   0.005   1.685   0.346 -0.4305  0.1027 -0.1852
   18SOL    HW1   70   0.082   1.744   0.329 -2.9586  2.0506  0.1016
   18SOL    HW2   71  -0.006   1.634   0.267 -0.6373  0.0245  0.3402
   18SOL     MW   72   0.014   1.686   0.333 -0.7913  0.3494 -0.0780
   19SOL     OW   73   0.049   1.365   0.936 -0.7542 -0.7126 -0.2524
   19SOL    HW1   74   0.080   1.389   0.851 -1.6659 -1.2446 -1.8813
   19SOL    HW2   75  -0.050   1.382   0.939 -1.0212 -0.5357 -0.0183
   19SOL     MW   76   0.040   1.371   0.925 -0.9097 -0.7594 -0.4364
   20SOL     OW   77   0.476   2.135   1.264  0.2215  0.0021 -0.5769
   20SOL    HW1   78   0.459   2.059   1.210 -0.1347  2.5705  0.1379
   20SOL    HW2   79   0.402   2.143   1.329 -0.6135 -0.2580  4.1785
   20SOL     MW   80   0.464   2.126   1.265  0.0643  0.3067  0.1449
   21SOL     OW   81   0.592   0.955   0.463  0.2507  0.1536 -0.2107
   21SOL    HW1   82   0.638   0.890   0.521 -5.0023 -1.5593  2.6022
   21SOL    HW2   83   0.619   0.934   0.376 -2.2598 -0.2666  1.6936
   21SOL     MW   84   0.602   0.943   0.459 -0.7736 -0.1279  0.4117
   22SOL     OW   85   1.534   0.773   0.937 -0.4345 -0.1197  0.2265
   22SOL    HW1   86   1.532   0.697   0.881  0.9527 -0.7122 -0.3961
   22SOL    HW2   87   1.449   0.810   0.941  0.5018  0.2567 -3.7994
   22SOL     MW   88   1.522   0.768   0.930 -0.1279 -0.1482 -0.3868
   23SOL     OW   89   3.073   0.823   0.714 -0.5095 -0.2750  0.0474
   23SOL    HW1   90   3.095   0.742   0.759  0.2497  0.9402  0.3514
   23SOL    HW2   91   3.155   0.888   0.715  0.6725  2.3829  3.2181
   23SOL     MW   92   3.087   0.821   0.720 -0.2534  0.2360  0.5059
   24SOL     OW   93   2.019   2.163   0.015 -0.3085 -0.5203 -0.2802
   24SOL    HW1   94   1.993   2.138   0.113 -1.5818 -0.1458 -0.3781
   24SOL    HW2   95   2.048   2.076  -0.023 -2.7876 -0.7640  0.6627
   24SOL     MW   96   2.019   2.148   0.023 -0.8036 -0.5030 -0.1687
   25SOL     OW   97   0.229   1.522   0.380  0.3007  0.8940 -0.6378
   25SOL    HW1   98   0.159   1.568   0.417  3.6774 -2.6831  0.3219
   25SOL    HW2   99   0.239   1.518   0.282  0.4923 -3.0957 -2.8305
   25SOL     MW  100   0.221   1.528   0.372  0.7715 -0.1043 -0.8005
   26SOL     OW  101   1.974   1.027   0.345  0.7047  0.3686  0.3300
   26SOL    HW1  102   1.923   1.088   0.402  0.2119 -1.0241 -0.7671
   26SOL    HW2  103   2.050   1.081   0.316 -1.5225  0.7414  1.6312
   26SOL     MW  104   1.977   1.042   0.349  0.3458  0.2340  0.3569
   27SOL     OW  105   1.842   1.330   0.169 -0.9547 -0.1200 -0.2161
   27SOL    HW1  106   1.788   1.408   0.202 -0.0564 -0.6801  1.3273
   27SOL    HW2  107   1.901   1.314   0.244  1.0583  0.8384 -0.3337
   27SOL     MW  108   1.843   1.338   0.183 -0.5706 -0.0675 -0.0280
   28SOL     OW  109   0.413   0.895   2.051 -0.7711 -0.4018  0.0295
   28SOL    HW1  110   0.451   0.911   2.135 -0.0962  0.7985  1.8591
   28SOL    HW2  111   0.314   0.884   2.052 -0.4219 -1.0753 -0.2507
   28SOL     MW  112   0.405   0.895   2.062 -0.6360 -0.3323  0.2339
   29SOL     OW  113   0.198   1.443   0.682 -0.0252  0.3295 -0.2979
   29SOL    HW1  114   0.196   1.538   0.673 -0.5351 -0.5723  3.7266
   29SOL    HW2  115   0.149   1.405   0.610 -0.2912  0.0035 -0.9795
   29SOL     MW  116   0.192   1.450   0.671 -0.1276  0.1675  0.1432
   30SOL     OW  117   0.712   1.239   1.224 -0.7436 -0.4774 -0.7515
   30SOL    HW1  118   0.619   1.256   1.225 -0.7050 -0.4102  1.9230
   30SOL    HW2  119   0.728   1.180   1.305 -0.9545  1.3194  0.1743
   30SOL     MW  120   0.702   1.234   1.235 -0.7664 -0.2315 -0.2765
   31SOL     OW  121   0.428   0.268   0.216 -0.3086  0.4281  0.5470
   31SOL    HW1  122   0.456   0.212   0.284 -0.5723 -2.4621  1.0063
   31SOL    HW2  123   0.447   0.219   0.136 -0.9873  1.9767  2.5702
   31SOL     MW  124   0.434   0.254   0.214 -0.4329  0.2511  0.8745
   32SOL     OW  125   2.721   0.959   1.052  0.0292 -0.2272  0.2197
   32SOL    HW1  126   2.646   0.898   1.065 -1.4983  1.1331  1.5494
   32SOL    HW2  127   2.749   0.968   1.135  0.4895 -1.0932 -1.5084
   32SOL     MW  128   2.715   0.952   1.065 -0.1116 -0.1620  0.1671
   33SOL     OW  129   1.653   1.350   0.405  0.4741 -0.0232  0.4116
   33SOL    HW1  130   1.678   1.265   0.445  2.1893 -1.4192  0.2319
   33SOL    HW2  131   1.621   1.405   0.477  0.4817  0.0666 -0.7602
   33SOL     MW  132   1.652   1.346   0.419  0.7014 -0.1955  0.2333
   34SOL     OW  133   1.165   1.963   1.174  0.1545 -0.4951  0.0525
   34SOL    HW1  134   1.101   2.005   1.233 -0.5455  1.4040 -0.8591
   34SOL    HW2  135   1.248   1.959   1.235  1.2613 -3.3005  2.4179
   34SOL     MW  136   1.167   1.968   1.190  0.2082 -0.6147  0.2443
   35SOL     OW  137   0.344   0.114   1.665 -0.2798  0.3191 -0.1377
   35SOL    HW1  138   0.370   0.090   1.755  1.3505 -0.4218 -1.3010
   35SOL    HW2  139   0.285   0.036   1.643 -1.2926  0.7260  0.3986
   35SOL     MW  140   0.340   0.100   1.674 -0.1983  0.2750 -0.2204
   36SOL     OW  141   1.903   2.025   0.606 -0.8539  0.4292 -0.1899
   36SOL    HW1  142   1.833   2.002   0.546  0.3414 -1.4870  1.3266
   36SOL    HW2  143   1.933   1.937   0.628 -1.3273  2.5792 -0.1333
   36SOL     MW  144   1.898   2.010   0.601 -0.7586  0.4600  0.0176
   37SOL     OW  145   1.699   2.015   0.966 -0.4027 -0.5212  0.6156
   37SOL    HW1  146   1.637   1.977   0.904 -0.3563  0.4462  0.8312
   37SOL    HW2  147   1.650   2.058   1.034  1.4301 -0.0192 -0.1148
   37SOL     MW  148   1.684   2.016   0.967 -0.1548 -0.3273  0.5477
   38SOL     OW  149   2.846   0.981   0.094  0.4138 -0.4083  0.2217
   38SOL    HW1  150   2.884   0.945   0.171 -0.8023 -0.0110  1.3567
   38SOL    HW2  151   2.903   0.975   0.015 -0.4128  0.7883  3.5814
   38SOL     MW  152   2.858   0.976   0.094  0.1443 -0.1980  0.8147
   39SOL     OW  153   1.482   0.561   0.664 -0.7472  0.0569  0.3710
   39SOL    HW1  154   1.492   0.510   0.744 -1.3055 -0.0784 -1.6018
   39SOL    HW2  155   1.406   0.613   0.666 -1.6855 -1.0157 -1.7856
   39SOL     MW  156   1.473   0.561   0.675 -0.9447 -0.1025 -0.1738
   40SOL     OW  157   1.254   1.864   0.223 -0.0468  0.0751 -0.2616
   40SOL    HW1  158   1.323   1.814   0.265  1.2114  1.1431  0.5946
   40SOL    HW2  159   1.210   1.911   0.296 -0.0265 -0.2211 -1.6859
   40SOL     MW  160   1.257   1.864   0.238  0.1219  0.1769 -0.3365
   41SOL     OW  161   0.492   0.501   1.534 -0.3491 -0.5019 -0.0644
   41SOL    HW1  162   0.581   0.546   1.514 -0.8854  1.6043  1.8822
   41SOL    HW2  163   0.419   0.544   1.487  2.3083  2.4945 -0.5426
   41SOL     MW  164   0.494   0.513   1.525 -0.0693  0.1714  0.1293
   42SOL     OW  165   1.314   2.930   1.982  0.6213  0.9408 -0.1446
   42SOL    HW1  166   1.239   2.973   2.012  0.2899 -0.3604  1.5636
   42SOL    HW2  167   1.343   2.878   2.061  3.3630 -0.9616  1.5564
   42SOL     MW  168   1.308   2.929   1.996  0.9393  0.5181  0.3052
   43SOL     OW  169   1.420   0.163   1.688  0.1319  0.3392 -0.1501
   43SOL    HW1  170   1.479   0.103   1.642  2.3173 -2.1834  2.2444
   43SOL    HW2  171   1.336   0.134   1.653  1.6800  0.5848 -4.2972
   43SOL     MW  172   1.417   0.151   1.677  0.6245  0.0388 -0.3814
   44SOL     OW  173   1.193   0.848   0.949  0.3879 -0.1940 -0.2552
   44SOL    HW1  174   1.171   0.938   0.966  1.5208 -0.9125 -0.7212
   44SOL    HW2  175   1.139   0.794   1.012 -0.4369 -2.3613 -0.4815
   44SOL     MW  176   1.183   0.853   0.960  0.4286 -0.5747 -0.3465
   45SOL     OW  177   1.276   0.783   0.693 -0.8250 -0.3478 -0.2198
   45SOL    HW1  178   1.239   0.807   0.777 -0.7709  0.7723  1.3572
   45SOL    HW2  179   1.205   0.742   0.638  2.4971 -2.2950 -0.2724
   45SOL     MW  180   1.262   0.781   0.697 -0.3796 -0.4569 -0.0187
   46SOL     OW  181   0.452   1.136   0.687  0.2145  0.2039 -0.1438
   46SOL    HW1  182   0.480   1.178   0.607 -0.1367  0.9624 -4.2689
   46SOL    HW2  183   0.454   1.208   0.758  0.9242  0.1328  1.3357
   46SOL     MW  184   0.456   1.151   0.686  0.2618  0.2946 -0.4929
   47SOL     OW  185   0.126   2.027   1.949 -0.1051  0.1710  0.0840
   47SOL    HW1  186   0.139   1.942   1.898 -1.7426 -1.5581  0.1352
   47SOL    HW2  187   0.146   2.004   2.039  3.1833  0.5550  2.6200
   47SOL     MW  188   0.131   2.013   1.954  0.1128 -0.0065  0.4254
   48SOL     OW  189   1.283   0.534   1.053 -0.0213  0.1233  0.3603
   48SOL    HW1  190   1.234   0.487   0.991  0.0722  1.3574  2.3590
   48SOL    HW2  191   1.218   0.595   1.092 -1.1354  1.4190  0.1757
   48SOL     MW  192   1.268   0.536   1.050 -0.1559  0.4571  0.5996
   49SOL     OW  193   1.787   0.698   1.521  0.1988 -0.3678 -0.2345
   49SOL    HW1  194   1.823   0.637   1.583  0.0637  0.6909  0.9193
   49SOL    HW2  195   1.813   0.660   1.434  0.5291 -1.0112 -1.5073
   49SOL     MW  196   1.795   0.685   1.518  0.2246 -0.3130 -0.2502
   50SOL     OW  197   1.242   1.267   0.594 -0.6818  0.4552 -0.6556
   50SOL    HW1  198   1.172   1.261   0.665  0.2639  3.0492 -1.7467
   50SOL    HW2  199   1.285   1.178   0.594  0.1553 -0.9163 -0.6217
   50SOL     MW  200   1.239   1.255   0.603 -0.4466  0.6165 -0.7951
   51SOL     OW  201   0.320   2.892   0.878  0.1056  0.0005  0.2487
   51SOL    HW1  202   0.411   2.863   0.875 -0.4877  1.2841  0.6715
   51SOL    HW2  203   0.314   2.913   0.972  0.7768  0.0676 -0.3748
   51SOL     MW  204   0.331   2.891   0.890  0.1159  0.1787  0.2222
   52SOL     OW  205   0.798   1.850   0.467 -0.1064 -0.0381  0.2520
   52SOL    HW1  206   0.786   1.944   0.482  0.9835  0.0480 -1.0508
   52SOL    HW2  207   0.793   1.828   0.372 -2.7721  2.2992 -0.8058
   52SOL     MW  208   0.796   1.859   0.457 -0.3143  0.2816 -0.0594
   53SOL     OW  209   0.448   2.153   0.630 -0.1256 -0.1313 -0.8223
   53SOL    HW1  210   0.447   2.122   0.542 -1.7366  1.9071  0.8380
   53SOL    HW2  211   0.457   2.247   0.623 -0.0068 -0.5691 -0.4521
   53SOL     MW  212   0.449   2.161   0.618 -0.3225  0.0799 -0.5544
   54SOL     OW  213   2.000   0.954   0.674 -0.6335 -0.4524 -0.1075
   54SOL    HW1  214   2.045   0.926   0.598 -0.9071 -0.3662 -0.5308
   54SOL    HW2  215   1.952   0.884   0.714 -0.5998  0.5253 -1.0375
   54SOL     MW  216   1.999   0.941   0.669 -0.6651 -0.3120 -0.2860
   55SOL     OW  217   0.427   1.525   1.738 -0.2979 -0.2107 -0.0064
   55SOL    HW1  218   0.386   1.568   1.661  1.1071 -0.4145  0.3559
   55SOL    HW2  219   0.506   1.483   1.700  2.2937  0.2713  0.5355
   55SOL     MW  220   0.432   1.525   1.723  0.2294 -0.1740  0.1129
   56SOL     OW  221   0.685   0.896   0.213 -0.7135 -0.4911 -0.0201
   56SOL    HW1  222   0.713   0.968   0.155 -0.9944 -0.7121  2.1741
   56SOL    HW2  223   0.604   0.868   0.171  2.2266 -1.5684 -0.2271
   56SOL     MW  224   0.678   0.902   0.200 -0.3627 -0.6624  0.2421
   57SOL     OW  225   1.089   1.340   1.198  0.7867  0.0163 -0.1612
   57SOL    HW1  226   1.183   1.347   1.204 -1.9200  0.7540  1.8794
   57SOL    HW2  227   1.067   1.267   1.259  0.4047  1.4657  0.8257
   57SOL     MW  228   1.099   1.331   1.207  0.3792  0.3048  0.2383
   58SOL     OW  229   0.417   1.244   1.283  0.1143  0.0219 -0.7521
   58SOL    HW1  230   0.411   1.343   1.303 -0.4357 -0.1917 -0.7560
   58SOL    HW2  231   0.424   1.216   1.375 -0.4402  1.5616  1.4181
   58SOL     MW  232   0.417   1.254   1.298 -0.0315  0.1968 -0.4663
   59SOL     OW  233   1.488   1.682   0.401 -0.3801  0.2822  0.1659
   59SOL    HW1  234   1.547   1.743   0.440  0.0307  1.5707 -0.5417
   59SOL    HW2  235   1.405   1.689   0.450  3.1227 -1.6559 -1.0109
   59SOL     MW  236   1.484   1.691   0.413  0.1362  0.1965 -0.0827
   60SOL     OW  237   3.049   0.156   1.590 -0.0954  0.3452 -0.1576
   60SOL    HW1  238   2.960   0.188   1.596  2.1400 -1.7053  0.6778
   60SOL    HW2  239   3.084   0.149   1.677  2.6401  2.1693 -0.8405
   60SOL     MW  240   3.042   0.160   1.603  0.5605  0.3154 -0.1374
   61SOL     OW  241   1.988   1.386   3.023  0.1072  0.5260  0.2920
   61SOL    HW1  242   1.968   1.398   3.113  2.4962 -1.3368 -1.5614
   61SOL    HW2  243   2.039   1.300   3.015 -0.8440 -2.6021 -0.8032
   61SOL     MW  244   1.992   1.376   3.034  0.2969 -0.1325 -0.0970
   62SOL     OW  245   0.536   1.800   0.517 -0.0089 -0.0537  0.0785
   62SOL    HW1  246   0.632   1.808   0.512  2.8102  0.1126  0.7952
   62SOL    HW2  247   0.515   1.706   0.527  0.1456  1.6233 -0.4526
   62SOL     MW  248   0.546   1.789   0.518  0.3835  0.1895  0.1030
   63SOL     OW  249   1.692   0.656   0.498 -0.2359 -0.1201 -0.3236
   63SOL    HW1  250   1.667   0.744   0.469  1.0238  1.0033  1.1922
   63SOL    HW2  251   1.609   0.634   0.547 -0.2268 -0.8258 -2.3414
   63SOL     MW  252   1.678   0.665   0.501 -0.0685 -0.0650 -0.3898
   64SOL     OW  253   0.184   1.726   0.639 -0.3121  0.3769  0.2375
   64SOL    HW1  254   0.257   1.790   0.660  1.6243 -1.6365  0.3096
   64SOL    HW2  255   0.114   1.773   0.694  1.5300  2.8580  1.3847
   64SOL     MW  256   0.185   1.740   0.649  0.1864  0.4386  0.3983
   65SOL     OW  257   1.568   2.318   0.385 -0.1235 -0.1279 -0.5286
   65SOL    HW1  258   1.645   2.368   0.392  0.9028 -1.9673  0.0188
   65SOL    HW2  259   1.508   2.356   0.445  1.5303 -1.4405 -3.0492
   65SOL     MW  260   1.570   2.330   0.394  0.2301 -0.5438 -0.7889
   66SOL     OW  261   0.387   0.588   0.517 -0.1528 -0.1383 -0.3937
   66SOL    HW1  262   0.445   0.567   0.445  1.6009  0.7903  1.6499
   66SOL    HW2  263   0.355   0.682   0.513 -0.6542 -0.3671 -1.5096
   66SOL     MW  264   0.390   0.598   0.507  0.0124 -0.0460 -0.2713
   67SOL     OW  265   1.367   0.100   1.948  0.6541 -0.1202  0.3781
   67SOL    HW1  266   1.394   0.122   1.860 -1.4159 -0.5917  1.4113
   67SOL    HW2  267   1.366   0.006   1.959 -0.3919 -0.6355  1.8112
   67SOL     MW  268   1.370   0.090   1.938  0.2430 -0.2504  0.7035
   68SOL     OW  269   0.811   0.121   2.847  0.0195  0.4593  0.3024
   68SOL    HW1  270   0.788   0.203   2.806  0.5791  1.0401 -0.6477
   68SOL    HW2  271   0.893   0.137   2.897  0.4961 -0.1450  0.1838
   68SOL     MW  272   0.819   0.134   2.848  0.1562  0.4562  0.1614
   69SOL     OW  273   1.076   0.276   1.965 -0.2945  0.7103  0.2951
   69SOL    HW1  274   1.162   0.309   2.003 -0.1975  1.3944 -1.1119
   69SOL    HW2  275   1.035   0.205   2.025  0.4802  0.6865 -0.1862
   69SOL     MW  276   1.082   0.271   1.978 -0.1795  0.7974  0.0459
   70SOL     OW  277   0.558   1.657   1.144  0.3436  0.5417  0.1481
   70SOL    HW1  278   0.618   1.721   1.110 -3.9308 -0.4985 -3.0782
   70SOL    HW2  279   0.577   1.594   1.078  2.1003 -1.2851  1.2566
   70SOL     MW  280   0.568   1.657   1.131  0.0114  0.1634 -0.1313
   71SOL     OW  281   1.563   0.656   1.227  0.4190 -0.0806 -0.2843
   71SOL    HW1  282   1.511   0.717   1.280 -1.8695  0.1411  1.3815
   71SOL    HW2  283   1.522   0.676   1.140 -3.4291 -0.9620 -2.9537
   71SOL     MW  284   1.551   0.666   1.223 -0.3907 -0.1677 -0.4167
   72SOL     OW  285   0.786   1.813   1.091  0.4478 -0.0929  0.1933
   72SOL    HW1  286   0.785   1.893   1.036 -2.2973 -0.3105  0.2570
   72SOL    HW2  287   0.877   1.788   1.093  0.8983  1.8921  0.7796
   72SOL     MW  288   0.798   1.820   1.084  0.1450  0.1403  0.2791
   73SOL     OW  289   1.081   0.704   1.159 -0.3015 -0.0756  0.0647
   73SOL    HW1  290   0.997   0.667   1.185 -1.7194  1.7822 -1.2466
   73SOL    HW2  291   1.109   0.751   1.246  1.2360 -0.9870  0.9702
   73SOL     MW  292   1.074   0.706   1.174 -0.2857  0.0492  0.0111
   74SOL     OW  293   2.817   0.136   0.987  0.3786  0.4205  0.2218
   74SOL    HW1  294   2.904   0.122   0.951  0.0990  0.8609 -2.2313
   74SOL    HW2  295   2.783   0.211   0.937 -1.9110  0.5732  3.0532
   74SOL     MW  296   2.824   0.144   0.976  0.0396  0.4987  0.2717
   75SOL     OW  297   1.466   1.299   0.202  0.2244 -0.3093  0.0939
   75SOL    HW1  298   1.514   1.267   0.128 -0.5301 -2.4640  4.1505
   75SOL    HW2  299   1.534   1.320   0.266 -1.3814  3.6773 -1.0472
   75SOL     MW  300   1.481   1.298   0.201 -0.0870 -0.0676  0.4786
   76SOL     OW  301   3.030   0.683   0.441  0.5488  0.1971  0.3620
   76SOL    HW1  302   3.058   0.745   0.509  0.3564  0.3579  0.0664
   76SOL    HW2  303   3.105   0.618   0.432 -0.3700  0.9368 -0.7364
   76SOL     MW  304   3.044   0.682   0.449  0.4022  0.3159  0.1781
   77SOL     OW  305   0.870   0.602   0.437  0.1373  0.1217 -0.5096
   77SOL    HW1  306   0.848   0.631   0.349  1.1760 -1.2373 -0.6894
   77SOL    HW2  307   0.839   0.506   0.430 -1.0904 -0.1701  0.9538
   77SOL     MW  308   0.863   0.593   0.424  0.1124 -0.0961 -0.3402
   78SOL     OW  309   0.748   0.866   1.121  0.1930 -0.0280  0.4354
   78SOL    HW1  310   0.754   0.946   1.070  0.7110  0.0041 -1.3056
   78SOL    HW2  311   0.654   0.859   1.152  0.1887  1.4087 -0.6253
   78SOL     MW  312   0.737   0.876   1.118  0.2608  0.1658  0.0658
   79SOL     OW  313   1.945   1.504   0.593  0.4830  0.1084 -0.2335
   79SOL    HW1  314   1.847   1.497   0.601  1.7897 -0.0356  0.7849
   79SOL    HW2  315   1.978   1.472   0.675 -1.2231  0.6229 -1.1900
   79SOL     MW  316   1.936   1.499   0.605  0.4303  0.1573 -0.2253
   80SOL     OW  317   0.232   0.973   0.245 -0.0455 -0.5316 -0.8407
   80SOL    HW1  318   0.144   0.942   0.211 -0.4327  0.6538 -0.0762
   80SOL    HW2  319   0.254   0.919   0.324  0.4974  1.8112 -0.0835
   80SOL     MW  320   0.223   0.962   0.251 -0.0249 -0.0661 -0.6399
   81SOL     OW  321   1.769   1.829   0.246  0.4923  0.0377 -0.3606
   81SOL    HW1  322   1.719   1.743   0.233 -0.2178  0.7690 -0.8640
   81SOL    HW2  323   1.722   1.894   0.189 -1.7191  1.2946 -1.6446
   81SOL     MW  324   1.756   1.827   0.237  0.1069  0.3000 -0.5964
   82SOL     OW  325   0.921   1.033   0.524 -0.4560 -0.0025 -0.1339
   82SOL    HW1  326   0.868   1.093   0.464  2.0046  0.3903 -1.6852
   82SOL    HW2  327   0.865   0.958   0.550 -0.8437  0.3669 -0.2984
   82SOL     MW  328   0.907   1.031   0.519 -0.1825  0.0981 -0.3603
   83SOL     OW  329   0.001   0.759   1.455 -0.6959  0.2572 -0.1686
   83SOL    HW1  330   0.002   0.820   1.383 -1.7577  1.2320  2.1095
   83SOL    HW2  331   0.057   0.685   1.433  0.9012  1.7175  0.4519
   83SOL     MW  332   0.009   0.758   1.442 -0.6253  0.5785  0.2138
   84SOL     OW  333   0.004   0.175   0.918  0.0432 -0.3967 -0.4209
   84SOL    HW1  334   0.021   0.263   0.957 -1.3590  0.2937 -0.4086
   84SOL    HW2  335   0.014   0.114   0.994  2.4967 -2.1882  1.8847
   84SOL     MW  336   0.008   0.179   0.933  0.1819 -0.5420 -0.1151
   85SOL     OW  337   0.417   0.480   0.758  1.0543  0.5358  0.1371
   85SOL    HW1  338   0.409   0.514   0.667  2.2630  0.8704 -1.9040
   85SOL    HW2  339   0.385   0.388   0.758  1.2355 -1.3858 -0.4584
   85SOL     MW  340   0.412   0.473   0.746  1.2377  0.3264 -0.2108
   86SOL     OW  341   1.294   0.223   1.205  0.3804 -0.2809 -0.0641
   86SOL    HW1  342   1.244   0.300   1.178  0.8330 -1.2993  2.2350
   86SOL    HW2  343   1.383   0.259   1.230 -0.9742  1.1023 -0.1855
   86SOL     MW  344   1.299   0.238   1.205  0.2614 -0.2327  0.2232
   87SOL     OW  345   0.948   1.572   1.204  0.4093 -0.3876  0.6342
   87SOL    HW1  346   1.027   1.623   1.171 -2.4362 -0.9055 -2.2715
   87SOL    HW2  347   0.981   1.481   1.212  0.4601 -0.3690 -1.5525
   87SOL     MW  348   0.963   1.567   1.201  0.0405 -0.4534 -0.0377
   88SOL     OW  349   1.203   1.121   1.034 -0.0007  0.2920  0.4745
   88SOL    HW1  350   1.288   1.128   0.994 -0.7215 -0.4803 -3.0719
   88SOL    HW2  351   1.192   1.176   1.110  1.3747  0.1165  0.0489
   88SOL     MW  352   1.213   1.129   1.039  0.0857  0.1670 -0.0496
   89SOL     OW  353   1.788   0.711   0.225 -0.1263 -0.2795 -0.0568
   89SOL    HW1  354   1.733   0.638   0.263 -1.5545 -0.4704 -1.2855
   89SOL    HW2  355   1.874   0.716   0.279 -0.2031 -2.3484  1.8067
   89SOL     MW  356   1.792   0.702   0.237 -0.3249 -0.5777  0.0269
   90SOL     OW  357   0.726   1.179   2.753 -0.1368  0.2489 -0.4220
   90SOL    HW1  358   0.740   1.090   2.782  2.1700 -0.5412  1.7870
   90SOL    HW2  359   0.772   1.216   2.824 -0.9120  1.2196 -0.8476
   90SOL     MW  360   0.734   1.172   2.766  0.0653  0.2727 -0.1867
   91SOL     OW  361   2.224   0.622   0.544 -0.0751 -0.1082  0.2864
   91SOL    HW1  362   2.257   0.709   0.529 -3.2647  1.4386  1.0648
   91SOL    HW2  363   2.268   0.555   0.493 -1.3789 -0.7341  0.8489
   91SOL     MW  364   2.234   0.624   0.535 -0.6680  0.0133  0.4633
   92SOL     OW  365   1.634   0.939   0.492 -0.6681 -0.1746 -0.5572
   92SOL    HW1  366   1.556   0.967   0.542  0.6650 -0.2951  1.2317
   92SOL    HW2  367   1.613   0.968   0.399 -2.3373 -0.2853 -0.0398
   92SOL     MW  368   1.621   0.946   0.486 -0.7124 -0.2051 -0.2529
   93SOL     OW  369   1.105   0.210   0.386  0.4236 -0.4074 -0.0598
   93SOL    HW1  370   1.026   0.247   0.422 -0.3573  0.6346  0.5260
   93SOL    HW2  371   1.119   0.262   0.308 -2.8336  1.8166  1.4751
   93SOL     MW  372   1.096   0.222   0.381 -0.1092  0.0235  0.2200
   94SOL     OW  373   1.886   1.370   1.538 -0.4663 -0.3299  0.1933
   94SOL    HW1  374   1.883   1.368   1.441  0.9378 -0.8406 -1.8442
   94SOL    HW2  375   1.840   1.285   1.571  0.2240 -1.8729  0.0937
   94SOL     MW  376   1.880   1.359   1.530 -0.1900 -0.6009 -0.0886
   95SOL     OW  377   0.629   1.500   0.921  0.2233  0.2498 -0.2682
   95SOL    HW1  378   0.705   1.454   0.959  1.0825 -3.1045  2.5080
   95SOL    HW2  379   0.568   1.434   0.884 -0.5099  2.2367  0.8182
   95SOL     MW  380   0.631   1.486   0.921  0.2400  0.0694  0.2414
   96SOL     OW  381   1.300   1.807   1.751  0.4206 -0.5777  0.3053
   96SOL    HW1  382   1.228   1.830   1.812 -2.7881 -1.3869 -0.4859
   96SOL    HW2  383   1.278   1.721   1.715  0.9442 -1.4245 -0.0988
   96SOL     MW  384   1.288   1.799   1.755  0.0663 -0.7962  0.1476
   97SOL     OW  385   1.095   1.553   0.845  1.1393  0.0318 -0.1314
   97SOL    HW1  386   1.101   1.614   0.914 -0.6496 -0.9333 -0.1585
   97SOL    HW2  387   0.999   1.563   0.832  0.3022  2.5119  1.3822
   97SOL     MW  388   1.083   1.562   0.852  0.7928  0.2317  0.0648
   98SOL     OW  389   1.377   1.415   1.221 -0.0933  0.0033 -0.0869
   98SOL    HW1  390   1.447   1.444   1.277  1.1233  0.9200  0.4235
   98SOL    HW2  391   1.398   1.433   1.131 -1.4508  1.6700  1.0894
   98SOL     MW  392   1.389   1.422   1.217 -0.1119  0.3441  0.1356
   99SOL     OW  393   1.545   0.350   1.292 -0.6102  0.2868  0.1656
   99SOL    HW1  394   1.569   0.438   1.273  1.9186  1.0100  1.4709
   99SOL    HW2  395   1.489   0.370   1.366  1.3336 -1.2410 -0.6439
   99SOL     MW  396   1.541   0.364   1.299 -0.0201  0.1807  0.2310
  100SOL     OW  397   1.060   1.128   1.377 -0.1982 -0.2436 -0.4126
  100SOL    HW1  398   1.065   1.185   1.452  0.2596 -2.4434 -0.3556
  100SOL    HW2  399   1.024   1.050   1.406 -2.3111 -0.0093 -0.7012
  100SOL     MW  400   1.056   1.126   1.391 -0.4166 -0.5029 -0.4431
  101SOL     OW  401   0.559   1.264   0.464 -0.0057  0.4415 -0.2744
  101SOL    HW1  402   0.519   1.200   0.405  0.2456  1.1031 -2.4232
  101SOL    HW2  403   0.643   1.228   0.461  0.5933 -0.1851 -0.6251
  101SOL     MW  404   0.565   1.251   0.456  0.1065  0.4461 -0.6042
  102SOL     OW  405   2.914   0.597   1.023  0.4507 -0.3578  0.0230
  102SOL    HW1  406   2.956   0.690   1.027 -0.4355  3.5597 -0.4378
  102SOL    HW2  407   2.854   0.600   1.098  0.8969 -0.3290 -3.0282
  102SOL     MW  408   2.911   0.610   1.033  0.3926  0.1629 -0.4404
  103SOL     OW  409   1.889   0.280   1.799 -0.0912  0.2875  0.6247
  103SOL    HW1  410   1.880   0.188   1.776 -0.4322  0.5492 -2.6234
  103SOL    HW2  411   1.866   0.292   1.889  0.6167 -0.9113  0.0889
  103SOL     MW  412   1.885   0.270   1.808 -0.0428  0.1639  0.1255
  104SOL     OW  413   0.061   1.541   1.680  0.0099 -0.2316  0.4811
  104SOL    HW1  414   0.114   1.464   1.704  3.5693 -0.3449 -0.8644
  104SOL    HW2  415  -0.026   1.507   1.681 -1.5098 -0.0775  0.3219
  104SOL     MW  416   0.057   1.526   1.684  0.2790 -0.2262  0.2826
  105SOL     OW  417   0.150   1.207   0.453  0.4821  0.2934  0.6495
  105SOL    HW1  418   0.179   1.136   0.396  0.5712 -1.5112  0.0787
  105SOL    HW2  419   0.176   1.280   0.395 -0.8158  0.1133 -0.9582
  105SOL     MW  420   0.158   1.208   0.438  0.3226  0.0315  0.3621
  106SOL     OW  421   0.843   0.258   0.888 -0.7856  0.8482  0.2469
  106SOL    HW1  422   0.786   0.336   0.864  1.0288  1.7894 -0.3239
  106SOL    HW2  423   0.936   0.282   0.893 -1.7586 -0.6663  2.9440
  106SOL     MW  424   0.848   0.271   0.885 -0.6746  0.7726  0.5275
  107SOL     OW  425   0.811   2.129   2.893  0.3165 -0.9401  0.1488
  107SOL    HW1  426   0.713   2.116   2.889 -1.0039  1.9600 -0.1516
  107SOL    HW2  427   0.835   2.097   2.984 -0.7694 -0.9553  2.7218
  107SOL     MW  428   0.802   2.123   2.904 -0.0010 -0.5594  0.4486
  108SOL     OW  429   1.313   1.539   1.677 -0.1859  0.1514  0.7246
  108SOL    HW1  430   1.293   1.512   1.591 -3.6971 -0.9791 -1.6249
  108SOL    HW2  431   1.406   1.562   1.671  1.1052  3.0059  3.5764
  108SOL     MW  432   1.322   1.539   1.665 -0.4789  0.3789  0.7909
  109SOL     OW  433   2.026   0.752   0.352  0.3412  0.2441 -0.5901
  109SOL    HW1  434   2.003   0.842   0.363 -1.7143 -1.6036 -1.8539
  109SOL    HW2  435   2.030   0.710   0.440  2.2239 -0.5628 -0.0640
  109SOL     MW  436   2.024   0.758   0.365  0.3184 -0.1062 -0.6874
  110SOL     OW  437   0.382   1.909   0.707 -0.5485 -0.1945 -0.6092
  110SOL    HW1  438   0.447   1.867   0.648 -1.6255  1.6849  0.0682
  110SOL    HW2  439   0.393   2.001   0.686  1.7652 -1.2364  0.1136
  110SOL     MW  440   0.392   1.916   0.696 -0.3853 -0.0840 -0.4244
  111SOL     OW  441   0.852   0.851   1.367  0.4369  0.1375 -0.0448
  111SOL    HW1  442   0.803   0.831   1.285 -2.6854  1.0640  0.5867
  111SOL    HW2  443   0.796   0.799   1.426  1.3330 -0.1112  0.3312
  111SOL     MW  444   0.838   0.841   1.364  0.1432  0.2270  0.0881
  112SOL     OW  445   1.302   1.182   1.664  0.5055  0.4375  0.3196
  112SOL    HW1  446   1.229   1.244   1.651  0.0174  3.4575 -0.9812
  112SOL    HW2  447   1.275   1.095   1.632 -0.1119  0.0193 -0.7141
  112SOL     MW  448   1.288   1.179   1.658  0.3596  0.7808  0.0116
  113SOL     OW  449   1.254   3.002   1.709  0.2091  0.3035 -0.0205
  113SOL    HW1  450   1.271   2.943   1.785 -2.1140 -1.2222 -0.7490
  113SOL    HW2  451   1.195   2.948   1.652 -1.6510  0.5845  0.8621
  113SOL     MW  452   1.248   2.987   1.712 -0.3428  0.1392 -0.0002
  114SOL     OW  453   0.325   2.881   1.841  0.0553 -0.2982  0.1505
  114SOL    HW1  454   0.422   2.890   1.838  0.9041  1.5695 -0.2872
  114SOL    HW2  455   0.303   2.915   1.924 -2.7346  0.2314 -1.1220
  114SOL     MW  456   0.335   2.887   1.852 -0.2008  0.0181 -0.0751
  115SOL     OW  457   0.484   0.849   1.163 -0.8827 -0.3758  0.1669
  115SOL    HW1  458   0.468   0.758   1.131  0.4358 -1.0178  2.4503
  115SOL    HW2  459   0.431   0.859   1.242  2.7986 -3.3358 -0.7138
  115SOL     MW  460   0.475   0.838   1.169 -0.2230 -0.8511  0.3520
  116SOL     OW  461   0.741   1.104   0.978  0.4495  0.0708  0.0535
  116SOL    HW1  462   0.770   1.156   0.901  1.1673  1.2052  0.0422
  116SOL    HW2  463   0.734   1.170   1.052 -1.5478  1.4871 -0.2922
  116SOL     MW  464   0.744   1.119   0.977  0.2807  0.4074  0.0064
  117SOL     OW  465   1.075   1.280   0.820 -0.0255  0.1580  0.3330
  117SOL    HW1  466   1.109   1.242   0.899 -1.7922  1.1490  2.6303
  117SOL    HW2  467   1.091   1.372   0.834 -1.1505 -0.5532  1.8592
  117SOL     MW  468   1.082   1.287   0.833 -0.4070  0.1949  0.8375
  118SOL     OW  469   3.049   2.918   1.862 -0.5581 -0.2308  0.6161
  118SOL    HW1  470   3.088   2.987   1.926  2.4279  1.9188  0.3111
  118SOL    HW2  471   2.984   2.968   1.808  0.5061 -0.4911 -2.0794
  118SOL     MW  472   3.046   2.934   1.863 -0.0238  0.0185  0.2202
  119SOL     OW  473   0.387   1.507   1.291 -0.3430 -0.2333  0.5480
  119SOL    HW1  474   0.449   1.566   1.243  2.1449 -2.6976 -0.4871
  119SOL    HW2  475   0.299   1.498   1.249 -0.4977  0.1431 -1.6183
  119SOL     MW  476   0.383   1.513   1.279 -0.0352 -0.5088  0.1256
  120SOL     OW  477   0.280   0.833   0.969 -0.5853 -1.0647  0.1740
  120SOL    HW1  478   0.296   0.885   1.045 -0.2916 -0.2371  0.2742
  120SOL    HW2  479   0.370   0.846   0.938 -0.9353  0.3414 -0.1104
  120SOL     MW  480   0.294   0.841   0.975 -0.5928 -0.7699  0.1497
  121SOL     OW  481   1.746   1.151   1.625 -0.1169 -0.1037  0.2561
  121SOL    HW1  482   1.676   1.163   1.559 -1.2122  1.7734 -0.5430
  121SOL    HW2  483   1.810   1.096   1.577 -1.4121 -0.1848 -1.8237
  121SOL     MW  484   1.745   1.145   1.610 -0.4323  0.1333 -0.1237
  122SOL     OW  485   0.182   0.634   0.805  0.3631  0.2566  0.2165
  122SOL    HW1  486   0.263   0.578   0.801 -0.8903 -1.6846 -1.1154
  122SOL    HW2  487   0.203   0.706   0.865 -0.8388  1.5470  1.0182
  122SOL     MW  488   0.195   0.636   0.812  0.0391  0.1707  0.1466
  123SOL     OW  489   1.820   1.132   0.546  0.0111  0.0758 -0.3155
  123SOL    HW1  490   1.748   1.070   0.535 -0.9061 -0.5359 -0.7295
  123SOL    HW2  491   1.890   1.084   0.601  0.6366  4.3990  1.9980
  123SOL     MW  492   1.820   1.118   0.552 -0.0274  0.5655 -0.0649
  124SOL     OW  493   0.688   0.478   0.817  0.4700 -0.2522  0.3692
  124SOL    HW1  494   0.596   0.477   0.795 -1.3594 -1.3027 -0.3369
  124SOL    HW2  495   0.719   0.570   0.828 -0.7672  0.4129  2.5071
  124SOL     MW  496   0.680   0.490   0.816  0.0654 -0.3031  0.5581
  125SOL     OW  497   0.634   1.765   1.754 -0.6055  0.1288  0.5698
  125SOL    HW1  498   0.640   1.743   1.662 -1.5690 -0.3581 -0.3775
  125SOL    HW2  499   0.598   1.856   1.747 -0.9281 -0.9499  2.6169
  125SOL     MW  500   0.630   1.774   1.741 -0.7752 -0.0778  0.7149
  126SOL     OW  501   2.092   1.567   1.837 -0.0400 -0.3859 -0.6219
  126SOL    HW1  502   2.137   1.657   1.847  1.9714  0.0155 -1.4800
  126SOL    HW2  503   2.151   1.511   1.888  0.6391 -0.4977 -1.3001
  126SOL     MW  504   2.106   1.571   1.845  0.3150 -0.3477 -0.8246
  127SOL     OW  505   0.559   0.792   1.850  0.8726 -0.2866  0.0023
  127SOL    HW1  506   0.650   0.769   1.871 -3.2856 -2.4471  0.3591
  127SOL    HW2  507   0.538   0.830   1.935  1.1730  0.4060  1.4875
  127SOL     MW  508   0.568   0.794   1.864  0.3636 -0.4803  0.2454
  128SOL     OW  509   1.734   0.735   2.871 -0.3805 -0.1101  0.1655
  128SOL    HW1  510   1.785   0.727   2.793 -2.2056  0.4754 -0.2402
  128SOL    HW2  511   1.739   0.833   2.885 -1.6576  0.4595 -0.0343
  128SOL     MW  512   1.741   0.747   2.863 -0.7898  0.0423  0.0856
  129SOL     OW  513   1.621   0.945   0.198 -0.4400 -0.1612  0.8503
  129SOL    HW1  514   1.558   0.874   0.192 -0.1103 -1.8094 -0.5596
  129SOL    HW2  515   1.702   0.897   0.202  1.9987  0.1856  1.9141
  129SOL     MW  516   1.624   0.929   0.198 -0.0748 -0.3329  0.8046
  130SOL     OW  517   0.872   1.467   0.386 -0.2838  0.3197 -0.0621
  130SOL    HW1  518   0.816   1.479   0.463 -0.6189  2.5881  0.1886
  130SOL    HW2  519   0.966   1.485   0.411  2.1523  1.7948  2.3440
  130SOL     MW  520   0.877   1.471   0.400 -0.0066  0.8136  0.2884
  131SOL     OW  521   0.046   0.836   0.067  0.1111 -0.2475  0.3913
  131SOL    HW1  522   0.019   0.825  -0.026 -2.3730 -2.3931 -0.1548
  131SOL    HW2  523   0.118   0.773   0.077 -0.2924  3.5836 -0.0163
  131SOL     MW  524   0.052   0.826   0.056 -0.2699 -0.0251  0.2655
  132SOL     OW  525   2.684   0.091   1.223 -0.0313  0.3259 -0.4589
  132SOL    HW1  526   2.740   0.104   1.143  0.1872  3.0347 -0.2083
  132SOL    HW2  527   2.600   0.041   1.200 -0.3132  1.7450  0.8633
  132SOL     MW  528   2.681   0.086   1.210 -0.0396  0.8705 -0.2514
  133SOL     OW  529   1.088   0.140   1.730  0.0831  0.0361 -0.2643
  133SOL    HW1  530   1.147   0.061   1.733 -0.0136 -0.2058 -1.2022
  133SOL    HW2  531   1.095   0.179   1.818 -1.7422 -1.6697 -0.9932
  133SOL     MW  532   1.097   0.135   1.742 -0.1705 -0.2209 -0.4842
  134SOL     OW  533   1.392   2.466   1.484 -0.3026 -0.2961  0.0478
  134SOL    HW1  534   1.344   2.548   1.456 -1.0880 -0.2086  1.1969
  134SOL    HW2  535   1.427   2.496   1.572  1.5427  0.6245  4.5505
  134SOL     MW  536   1.390   2.481   1.492 -0.1628 -0.1631  0.7935
  135SOL     OW  537   2.970   1.003   2.905 -0.3018  0.1209 -0.2045
  135SOL    HW1  538   3.041   1.054   2.934 -2.7944 -0.1529 -1.0556
  135SOL    HW2  539   2.894   1.065   2.905  1.9264  0.7846 -0.9123
  135SOL     MW  540   2.970   1.018   2.909 -0.3367  0.1724 -0.4101
  136SOL     OW  541   0.147   1.990   0.834 -0.0476  0.0292  0.1176
  136SOL    HW1  542   0.087   1.918   0.817  2.0235 -1.2861 -2.7167
  136SOL    HW2  543   0.231   1.967   0.801  1.1274  2.5905  0.4673
  136SOL     MW  544   0.150   1.977   0.828  0.3807  0.1936 -0.2102
  137SOL     OW  545   0.730   2.092   0.642 -0.5268 -0.2175  0.1603
  137SOL    HW1  546   0.747   2.051   0.729  1.3692 -1.2972  1.0960
  137SOL    HW2  547   0.637   2.120   0.643  0.7473 -0.6243  1.5398
  137SOL     MW  548   0.720   2.090   0.654 -0.1085 -0.4136  0.4658
  138SOL     OW  549   0.522   0.605   1.028 -0.3148 -0.2855  0.0101
  138SOL    HW1  550   0.444   0.565   0.992  0.2081  0.2581 -1.7345
  138SOL    HW2  551   0.591   0.572   0.977 -0.0035 -2.5960 -3.3289
  138SOL     MW  552   0.521   0.595   1.017 -0.2047 -0.5187 -0.6607
  139SOL     OW  553   2.799   0.476   1.308 -0.5478  0.2025 -0.3599
  139SOL    HW1  554   2.896   0.446   1.301  1.6470 -2.1012 -0.8251
  139SOL    HW2  555   2.803   0.540   1.382 -2.8003  0.0158 -0.6728
  139SOL     MW  556   2.812   0.480   1.317 -0.5554 -0.1261 -0.4625
  140SOL     OW  557   0.874   0.468   1.971 -0.1314 -0.3264  0.2739
  140SOL    HW1  558   0.948   0.410   1.945 -0.1401 -1.9396 -0.1225
  140SOL    HW2  559   0.857   0.449   2.062  0.8324 -0.7065  3.9667
  140SOL     MW  560   0.881   0.458   1.980 -0.0054 -0.5894  0.7088
  141SOL     OW  561   1.133   0.676   1.720 -0.0137 -0.3354  0.0632
  141SOL    HW1  562   1.152   0.621   1.637  1.1550  1.1083 -0.3653
  141SOL    HW2  563   1.209   0.655   1.784  1.7225 -0.9131  1.2003
  141SOL     MW  564   1.146   0.666   1.718  0.3696 -0.2212  0.1567
  142SOL     OW  565   0.836   1.207   0.735  0.4989  0.1708  0.4919
  142SOL    HW1  566   0.844   1.139   0.668  2.6981 -2.6283 -0.2905
  142SOL    HW2  567   0.926   1.242   0.755 -0.7739  2.3301  1.0786
  142SOL     MW  568   0.849   1.203   0.728  0.6211  0.0864  0.4661
  143SOL     OW  569   1.791   0.855   0.992 -0.3377  0.9177 -0.9195
  143SOL    HW1  570   1.839   0.791   0.942  0.0591 -0.7615 -3.9711
  143SOL    HW2  571   1.698   0.846   0.967 -2.8764 -1.5951 -0.1565
  143SOL     MW  572   1.785   0.845   0.982 -0.6203  0.3646 -1.2215
  144SOL     OW  573   0.224   1.333   1.746 -0.5679 -0.0527  0.0116
  144SOL    HW1  574   0.303   1.381   1.755 -0.7440 -2.0752 -4.2754
  144SOL    HW2  575   0.196   1.312   1.834 -0.2593 -2.9162  2.0180
  144SOL     MW  576   0.231   1.336   1.759 -0.5504 -0.6974 -0.2893
  145SOL     OW  577   0.247   0.476   1.190  0.8283 -0.1383 -0.3363
  145SOL    HW1  578   0.278   0.386   1.208 -1.2711  0.1021 -0.8225
  145SOL    HW2  579   0.175   0.462   1.126 -0.0066 -1.8815 -0.8256
  145SOL     MW  580   0.242   0.462   1.184  0.4411 -0.3366 -0.4650
  146SOL     OW  581   0.814   1.968   1.528  0.9964  0.1552 -1.1317
  146SOL    HW1  582   0.872   1.986   1.450 -0.3933 -1.0145 -0.7308
  146SOL    HW2  583   0.759   1.891   1.508 -0.3197  2.1023 -0.4006
  146SOL     MW  584   0.815   1.960   1.515  0.6394  0.2578 -0.9824
  147SOL     OW  585   0.385   0.531   3.001 -0.3927  0.8891 -0.0132
  147SOL    HW1  586   0.302   0.505   3.050  0.3303 -0.7090 -0.0453
  147SOL    HW2  587   0.349   0.591   2.931  0.0799 -0.5645 -0.8776
  147SOL     MW  588   0.369   0.536   2.998 -0.2350  0.4865 -0.1315
  148SOL     OW  589   0.056   0.930   1.263  0.3678  1.1078 -0.5833
  148SOL    HW1  590   0.142   0.910   1.299  1.2221  1.6406  1.6620
  148SOL    HW2  591   0.044   1.022   1.285  1.2634 -1.2119 -0.3193
  148SOL     MW  592   0.066   0.939   1.271  0.5987  0.8720 -0.2522
  149SOL     OW  593   1.543   1.185   1.460  0.2034  0.1628 -0.0663
  149SOL    HW1  594   1.478   1.178   1.535 -2.3631 -1.2885  3.4885
  149SOL    HW2  595   1.551   1.278   1.432  1.1872  1.2983  0.1451
  149SOL     MW  596   1.535   1.196   1.466 -0.0054  0.1211  0.4306
  150SOL     OW  597   1.712   1.412   0.876 -0.5419 -0.6263 -0.2638
  150SOL    HW1  598   1.760   1.327   0.882  1.7592 -1.2187  0.6988
  150SOL    HW2  599   1.778   1.483   0.883  1.8982 -2.0970  4.4693
  150SOL     MW  600   1.727   1.410   0.878  0.0837 -0.8985  0.4877
  151SOL     OW  601   1.600   1.821   0.780 -0.0229 -0.1281 -0.8159
  151SOL    HW1  602   1.611   1.844   0.690  2.9624 -3.6000 -0.4989
  151SOL    HW2  603   1.513   1.782   0.791 -3.2075  0.8070  2.3593
  151SOL     MW  604   1.590   1.819   0.769 -0.0492 -0.4628 -0.3551
  152SOL     OW  605   0.643   1.396   1.629  0.1888  0.2349 -0.2404
  152SOL    HW1  606   0.672   1.411   1.534 -0.9812  0.9178 -0.1294
  152SOL    HW2  607   0.591   1.317   1.616 -1.3586  3.7537  3.2813
  152SOL     MW  608   0.640   1.387   1.615 -0.1697  0.7893  0.2389
  153SOL     OW  609   2.639   1.247   0.717  0.5828  0.2664 -0.0392
  153SOL    HW1  610   2.713   1.195   0.694 -0.4489  2.2888  1.8559
  153SOL    HW2  611   2.571   1.176   0.740  1.9575  1.4976 -0.2853
  153SOL     MW  612   2.640   1.230   0.717  0.6280  0.6957  0.1784
  154SOL     OW  613   0.159   1.796   1.785  0.0144  0.0349  0.1243
  154SOL    HW1  614   0.107   1.714   1.756  1.0485 -0.4906 -0.7897
  154SOL    HW2  615   0.251   1.782   1.803 -2.6144 -1.8171 -1.8357
  154SOL     MW  616   0.164   1.783   1.783 -0.1960 -0.2788 -0.2549
  155SOL     OW  617   1.177   0.722   0.285  0.8929 -0.2299  0.2210
  155SOL    HW1  618   1.171   0.675   0.363 -1.6407  0.2329 -3.7173
  155SOL    HW2  619   1.141   0.813   0.303 -0.9651  1.8923  0.6509
  155SOL     MW  620   1.171   0.728   0.298  0.3135  0.1111 -0.2419
  156SOL     OW  621   1.583   3.087   1.106  0.0116 -0.0490 -0.3777
  156SOL    HW1  622   1.630   3.144   1.177  2.3475  1.4418  0.3551
  156SOL    HW2  623   1.623   3.004   1.123  0.8267  1.3685 -0.7402
  156SOL     MW  624   1.594   3.084   1.118  0.4274  0.3347 -0.3288
  157SOL     OW  625   1.303   1.086   0.183  0.5633 -0.4019  0.4556
  157SOL    HW1  626   1.266   1.034   0.255  0.4142 -0.6703 -0.5615
  157SOL    HW2  627   1.361   1.159   0.206  0.3370 -1.5551 -0.7439
  157SOL     MW  628   1.306   1.089   0.196  0.5138 -0.5895  0.1631
  158SOL     OW  629   0.279   1.611   2.362 -0.5632 -0.1563  0.2284
  158SOL    HW1  630   0.254   1.590   2.275  3.9989 -1.8399 -0.1128
  158SOL    HW2  631   0.278   1.704   2.379  2.8173 -0.0336 -0.6974
  158SOL     MW  632   0.276   1.621   2.353  0.4847 -0.3622  0.0613
  159SOL     OW  633   1.231   1.723   0.486 -0.0879 -0.1081 -0.0598
  159SOL    HW1  634   1.195   1.661   0.417  1.4861 -0.6652 -1.6230
  159SOL    HW2  635   1.146   1.745   0.531 -1.4940  1.7415 -0.5566
  159SOL     MW  636   1.215   1.718   0.483 -0.0657  0.0625 -0.3316
  160SOL     OW  637   0.496   1.158   1.538 -0.0696 -0.6949 -0.4127
  160SOL    HW1  638   0.456   1.092   1.595 -1.3611  2.1871 -0.8244
  160SOL    HW2  639   0.574   1.116   1.506  2.4603 -0.0993  0.8726
  160SOL     MW  640   0.501   1.144   1.542  0.0938 -0.2360 -0.2975
  161SOL     OW  641   0.510   2.301   2.666  0.2176  0.5607 -0.1381
  161SOL    HW1  642   0.419   2.305   2.650  0.9348  4.5690  2.3092
  161SOL    HW2  643   0.549   2.236   2.603  2.2934 -1.6739 -3.5109
  161SOL     MW  644   0.503   2.293   2.655  0.5861  0.7947 -0.2602
  162SOL     OW  645   1.063   1.798   1.901 -0.6329  0.1309  0.8505
  162SOL    HW1  646   1.100   1.876   1.937 -1.8999 -0.9271  3.0430
  162SOL    HW2  647   0.976   1.776   1.934  1.2591 -2.9291  0.9716
  162SOL     MW  648   1.057   1.806   1.910 -0.5504 -0.4125  1.1558
  163SOL     OW  649   2.047   3.079   0.835 -0.3263  0.6527  0.2835
  163SOL    HW1  650   2.036   3.146   0.769  0.8466 -1.9426  1.8203
  163SOL    HW2  651   1.970   3.028   0.823  2.3425  0.4864 -0.4731
  163SOL     MW  652   2.035   3.081   0.825  0.1806  0.2883  0.3865
  164SOL     OW  653   0.261   0.227   0.798  0.0761 -0.1159 -0.5203
  164SOL    HW1  654   0.169   0.205   0.814  1.8879 -1.6258  2.3423
  164SOL    HW2  655   0.289   0.153   0.742  0.6479  0.5211 -1.7389
  164SOL     MW  656   0.252   0.214   0.793  0.3906 -0.2311 -0.3034
  165SOL     OW  657   1.104   1.257   0.300 -0.1765  0.4454 -0.0539
  165SOL    HW1  658   1.102   1.244   0.396  0.1328 -1.1655 -1.3234
  165SOL    HW2  659   1.153   1.194   0.247  1.6127  0.9013 -3.9157
  165SOL     MW  660   1.110   1.247   0.305  0.1003  0.2930 -0.7309
  166SOL     OW  661   0.341   1.168   1.025  0.1950 -0.3998 -0.3626
  166SOL    HW1  662   0.347   1.171   1.123  0.2486  2.6404 -0.5590
  166SOL    HW2  663   0.242   1.165   1.014 -1.2576  2.7540 -0.5258
  166SOL     MW  664   0.328   1.168   1.037  0.0104  0.4175 -0.4100
  167SOL     OW  665   0.819   1.207   0.355  0.2922  0.6569 -0.5031
  167SOL    HW1  666   0.837   1.301   0.345 -0.4322  4.4825  1.0110
  167SOL    HW2  667   0.870   1.158   0.290  0.0719 -0.1496 -0.5372
  167SOL     MW  668   0.828   1.213   0.345  0.1675  1.0552 -0.3078
  168SOL     OW  669   1.723   1.661   3.045  0.1595  0.6133 -0.3410
  168SOL    HW1  670   1.646   1.699   3.005 -0.4911 -2.4612 -0.0622
  168SOL    HW2  671   1.721   1.569   3.004  0.6636 -1.0860  2.2742
  168SOL     MW  672   1.712   1.654   3.034  0.1402 -0.0166  0.0408
  169SOL     OW  673   0.286   0.844   1.403  0.1643 -0.5129  0.5097
  169SOL    HW1  674   0.258   0.762   1.433  3.3412  2.0832  3.7536
  169SOL    HW2  675   0.299   0.911   1.469 -1.5156 -0.1036  1.8289
  169SOL     MW  676   0.284   0.842   1.415  0.3618 -0.1164  1.1117
  170SOL     OW  677   1.049   1.553   1.488 -0.0630 -0.9557  0.3898
  170SOL    HW1  678   1.013   1.630   1.543  0.0472 -0.1886 -1.8400
  170SOL    HW2  679   1.009   1.576   1.406 -0.8584  1.2996 -1.5087
  170SOL     MW  680   1.039   1.566   1.485 -0.1534 -0.5569 -0.1549
  171SOL     OW  681   0.450   1.556   0.545 -0.4500  0.1640  0.7158
  171SOL    HW1  682   0.373   1.543   0.486  2.3707 -0.2588  1.5255
  171SOL    HW2  683   0.410   1.504   0.617 -1.0330 -1.4880  2.2668
  171SOL     MW  684   0.435   1.548   0.547 -0.1548 -0.1097  1.0272
  172SOL     OW  685   0.765   0.286   1.275 -1.0614  0.0388 -0.7933
  172SOL    HW1  686   0.789   0.253   1.192  0.4550  3.7707 -1.2694
  172SOL    HW2  687   0.795   0.221   1.340  0.2530 -1.2761 -0.1223
  172SOL     MW  688   0.772   0.273   1.272 -0.6879  0.3577 -0.7676
  173SOL     OW  689   0.469   1.766   0.265 -0.1822 -0.1521 -0.4845
  173SOL    HW1  690   0.508   1.678   0.265 -1.9578 -0.3917  0.4955
  173SOL    HW2  691   0.502   1.798   0.352  1.9067 -0.6319 -1.2195
  173SOL     MW  692   0.478   1.759   0.276 -0.1409 -0.2470 -0.4522
  174SOL     OW  693   1.876   0.947   1.499 -0.5764  0.3810  0.5606
  174SOL    HW1  694   1.862   0.852   1.507  0.8904 -1.8991 -0.5813
  174SOL    HW2  695   1.821   0.956   1.420 -3.4930  0.2381  1.2256
  174SOL     MW  696   1.867   0.936   1.490 -0.7677  0.0613  0.4977
  175SOL     OW  697   0.586   1.518   0.253 -0.3087  0.1793  0.4407
  175SOL    HW1  698   0.588   1.435   0.290 -1.5158  1.1519 -2.4418
  175SOL    HW2  699   0.676   1.534   0.238 -0.6065  0.1178  0.2328
  175SOL     MW  700   0.598   1.509   0.256 -0.5073  0.2995  0.0330
  176SOL     OW  701   0.119   1.495   1.161 -0.1710  0.0965  0.0107
  176SOL    HW1  702   0.098   1.447   1.079 -1.6396  1.1909  1.1766
  176SOL    HW2  703   0.050   1.481   1.222 -0.6243 -1.2937  1.0960
  176SOL     MW  704   0.107   1.487   1.158 -0.4246  0.0575  0.3077
  177SOL     OW  705   0.543   0.245   1.435  0.2302 -0.0557 -0.3357
  177SOL    HW1  706   0.612   0.261   1.374  0.3886 -0.9313  1.3356
  177SOL    HW2  707   0.523   0.330   1.474  2.7823 -0.2563 -1.0874
  177SOL     MW  708   0.550   0.258   1.432  0.5878 -0.1977 -0.2144
  178SOL     OW  709   0.024   0.697   2.895  0.4336 -0.1883  0.0198
  178SOL    HW1  710  -0.035   0.663   2.832  1.2809 -0.1499  1.9008
  178SOL    HW2  711   0.112   0.683   2.853 -3.6970  1.0248  1.5976
  178SOL     MW  712   0.028   0.690   2.881  0.0004 -0.0232  0.4762
  179SOL     OW  713   1.585   1.464   1.412 -0.3035 -0.0342  0.1914
  179SOL    HW1  714   1.616   1.476   1.501  2.1541 -0.6292  0.9102
  179SOL    HW2  715   1.664   1.482   1.363  2.7885 -2.5917  2.2762
  179SOL     MW  716   1.599   1.468   1.417  0.4287 -0.4501  0.5613
  180SOL     OW  717   3.097   0.205   0.387 -0.2972 -0.2355 -0.4349
  180SOL    HW1  718   3.027   0.239   0.324 -1.4877 -1.1831 -1.7356
  180SOL    HW2  719   3.110   0.269   0.456  1.2526 -0.1719  2.2773
  180SOL     MW  720   3.089   0.218   0.388 -0.2498 -0.3521 -0.2487
  181SOL     OW  721   1.033   1.345   3.098 -0.4358  0.4800 -0.2480
  181SOL    HW1  722   1.088   1.414   3.140  0.6633  0.5004  2.8180
  181SOL    HW2  723   1.090   1.280   3.061  1.1473 -1.1980 -0.8694
  181SOL     MW  724   1.048   1.345   3.099 -0.0819  0.2613  0.0745
  182SOL     OW  725   0.403   0.973   1.719  0.4962  0.0032  0.0922
  182SOL    HW1  726   0.314   0.966   1.740  1.4543  3.6049  0.8169
  182SOL    HW2  727   0.455   0.904   1.768  0.3275  1.0947 -0.9564
  182SOL     MW  728   0.398   0.963   1.728  0.6004  0.6224  0.0495
  183SOL     OW  729   1.538   1.726   1.240  0.2008 -0.0049 -0.1297
  183SOL    HW1  730   1.624   1.762   1.254  0.3217 -0.2103  0.6603
  183SOL    HW2  731   1.511   1.692   1.333  0.6375 -1.3394  1.9695
  183SOL     MW  732   1.545   1.726   1.254  0.2743 -0.2080  0.2515
  184SOL     OW  733   0.847   0.634   1.729 -0.6672 -0.0808  0.2864
  184SOL    HW1  734   0.939   0.663   1.732  1.5538 -3.1584  0.9390
  184SOL    HW2  735   0.844   0.585   1.810  1.8078  0.1974  0.4173
  184SOL     MW  736   0.859   0.631   1.740 -0.0476 -0.4501  0.3897
  185SOL     OW  737   1.074   0.964   1.823 -0.1772  0.5614 -0.3267
  185SOL    HW1  738   1.072   0.868   1.852  1.5407 -2.1782  1.5765
  185SOL    HW2  739   1.122   1.007   1.894 -1.5039 -1.5602 -0.5872
  185SOL     MW  740   1.080   0.957   1.836 -0.1256 -0.0800 -0.1100
  186SOL     OW  741   0.264   1.634   1.523  0.0551  0.0469 -0.1482
  186SOL    HW1  742   0.271   1.577   1.452  1.0922 -1.1355  0.4024
  186SOL    HW2  743   0.178   1.618   1.564  0.1197 -1.0656 -1.1271
  186SOL     MW  744   0.254   1.625   1.519  0.2005 -0.2559 -0.2047
  187SOL     OW  745   1.422   0.867   1.323 -0.0620  0.2175 -0.2784
  187SOL    HW1  746   1.463   0.886   1.405 -0.0758  0.1347 -2.0296
  187SOL    HW2  747   1.330   0.880   1.332 -2.2182 -0.1163 -0.2914
  187SOL     MW  748   1.415   0.872   1.335 -0.3483  0.1625 -0.5112
  188SOL     OW  749   1.869   1.183   0.919 -0.2089 -0.5522 -0.4642
  188SOL    HW1  750   1.905   1.190   1.009  2.9271 -0.7975 -1.2511
  188SOL    HW2  751   1.818   1.105   0.918  1.0013 -0.6842 -1.4014
  188SOL     MW  752   1.867   1.174   0.931  0.3645 -0.6019 -0.6917
  189SOL     OW  753   0.743   0.745   0.878 -0.2907 -0.4578  0.0601
  189SOL    HW1  754   0.672   0.812   0.869  1.0906  0.8400  1.9737
  189SOL    HW2  755   0.766   0.762   0.966 -0.9354 -1.0386 -0.2682
  189SOL     MW  756   0.736   0.756   0.889 -0.1935 -0.3632  0.2693
  190SOL     OW  757   1.844   0.338   2.084  0.3149  0.3762  0.3638
  190SOL    HW1  758   1.866   0.270   2.153  0.9255 -0.3949 -0.4268
  190SOL    HW2  759   1.929   0.380   2.073 -1.4005 -3.2030  1.7973
  190SOL     MW  760   1.858   0.335   2.091  0.1692 -0.1978  0.4487
  191SOL     OW  761   1.522   1.090   1.195  0.3659  0.1338 -0.0834
  191SOL    HW1  762   1.549   1.133   1.280  0.2275  0.2142 -0.6691
  191SOL    HW2  763   1.485   1.003   1.221 -1.8808 -0.6840  2.0614
  191SOL     MW  764   1.521   1.084   1.209  0.0512  0.0365  0.1223
  192SOL     OW  765   0.534   2.193   2.935 -0.2270 -0.2989  0.0764
  192SOL    HW1  766   0.519   2.247   2.857 -0.9984 -0.3989  2.1315
  192SOL    HW2  767   0.505   2.105   2.916  2.4100 -1.8170 -0.8438
  192SOL     MW  768   0.528   2.188   2.923  0.0192 -0.5124  0.2262
  193SOL     OW  769   0.843   1.642   0.773  0.0211 -0.0509  0.2256
  193SOL    HW1  770   0.776   1.635   0.849 -0.5042 -0.8732 -2.5297
  193SOL    HW2  771   0.830   1.563   0.713  0.2899  0.2504 -1.5345
  193SOL     MW  772   0.833   1.630   0.775 -0.0128 -0.1197 -0.3702
  194SOL     OW  773   0.400   1.361   0.852  0.3954 -0.0544  0.7966
  194SOL    HW1  774   0.382   1.299   0.931 -0.7076 -0.1507 -0.2778
  194SOL    HW2  775   0.321   1.359   0.796 -0.2080 -1.0520 -0.7194
  194SOL     MW  776   0.387   1.352   0.855  0.1703 -0.1987  0.4548
  195SOL     OW  777   1.224   1.146   3.009  0.0785 -0.3455 -0.2109
  195SOL    HW1  778   1.279   1.102   3.078  2.0143  1.9720  3.0793
  195SOL    HW2  779   1.150   1.088   2.989 -0.7668  1.9531 -1.0668
  195SOL     MW  780   1.222   1.132   3.016  0.2224  0.2635  0.1103
  196SOL     OW  781   2.282   0.955   0.540  0.1844 -0.5455 -0.3343
  196SOL    HW1  782   2.328   0.936   0.464  0.0358 -1.3142  1.8363
  196SOL    HW2  783   2.240   1.046   0.531 -0.1622 -0.9805  0.0745
  196SOL     MW  784   2.283   0.965   0.529  0.1190 -0.7043  0.0060
  197SOL     OW  785   0.656   1.251   2.262 -0.3705  0.4771  0.7697
  197SOL    HW1  786   0.682   1.183   2.203  0.2800  2.5723  1.2240
  197SOL    HW2  787   0.701   1.332   2.231 -0.2437  1.8701  0.7634
  197SOL     MW  788   0.665   1.253   2.250 -0.2680  0.9373  0.8288
  198SOL     OW  789   2.895   1.370   1.061 -0.0915  0.0302  0.0920
  198SOL    HW1  790   2.890   1.462   1.056  3.5063  0.9808  1.0056
  198SOL    HW2  791   2.801   1.330   1.051 -2.5449 -0.4471 -0.8712
  198SOL     MW  792   2.882   1.377   1.059  0.0595  0.0926  0.0855
  199SOL     OW  793   0.669   1.195   1.824  0.8407  0.5064 -1.0928
  199SOL    HW1  794   0.575   1.165   1.853 -3.2053 -0.0987  0.7279
  199SOL    HW2  795   0.653   1.284   1.793  1.1646 -3.8151  0.2231
  199SOL     MW  796   0.655   1.203   1.824  0.3496 -0.1436 -0.6790
  200SOL     OW  797   1.916   2.992   1.308  0.1055  0.8105 -0.1482
  200SOL    HW1  798   1.974   3.000   1.224 -1.2353  2.4031 -1.9438
  200SOL    HW2  799   1.855   3.069   1.308 -1.3695 -1.2417 -1.4385
  200SOL     MW  800   1.915   3.003   1.297 -0.2660  0.7498 -0.5554
  201SOL     OW  801   1.233   0.342   0.837  0.4195  0.0893  0.1810
  201SOL    HW1  802   1.179   0.265   0.824  0.1572  2.1042  0.4160
  201SOL    HW2  803   1.320   0.320   0.873  0.0125  2.9751 -0.7826
  201SOL     MW  804   1.238   0.329   0.840  0.3312  0.7359  0.0849
  202SOL     OW  805   1.389   1.693   0.985  0.1498  0.5165 -0.1605
  202SOL    HW1  806   1.401   1.597   0.967 -0.7886 -2.8533  1.2794
  202SOL    HW2  807   1.440   1.717   1.062 -0.2295  0.1101 -0.0943
  202SOL     MW  808   1.397   1.683   0.993 -0.0240  0.0183  0.0382
  203SOL     OW  809   3.067   0.437   1.314 -0.5466 -0.0820 -0.3285
  203SOL    HW1  810   3.087   0.336   1.309  1.3061 -1.9635 -2.3476
  203SOL    HW2  811   3.101   0.463   1.228 -1.4938 -2.2003 -0.6143
  203SOL     MW  812   3.074   0.427   1.302 -0.4272 -0.6097 -0.6326
  204SOL     OW  813   1.003   1.825   0.632 -0.6120  0.3207  0.2258
  204SOL    HW1  814   0.964   1.756   0.691 -1.4084 -4.3287 -0.9315
  204SOL    HW2  815   0.934   1.845   0.569 -0.8962  0.8669  0.5677
  204SOL     MW  816   0.989   1.818   0.631 -0.7546 -0.2206  0.1182
  205SOL     OW  817   1.367   2.992   1.375  0.5270 -0.2820  0.0755
  205SOL    HW1  818   1.401   3.036   1.295 -0.9062  1.8484 -0.5041
  205SOL    HW2  819   1.311   3.051   1.418  0.9857 -0.3550 -1.9568
  205SOL     MW  820   1.364   3.006   1.370  0.3985 -0.0105 -0.2691
  206SOL     OW  821   0.323   2.874   1.401  0.0970  0.0789  0.2869
  206SOL    HW1  822   0.324   2.902   1.309 -1.7706  0.9641  0.3387
  206SOL    HW2  823   0.414   2.874   1.433  1.3623 -0.3599  0.9334
  206SOL     MW  824   0.335   2.878   1.393  0.0176  0.1378  0.3790
  207SOL     OW  825   0.827   1.691   0.226  0.2347 -0.4653  0.1442
  207SOL    HW1  826   0.907   1.726   0.183 -0.3474 -1.4930 -1.0740
  207SOL    HW2  827   0.849   1.612   0.273  0.1945 -0.7175 -0.6168
  207SOL     MW  828   0.840   1.686   0.226  0.1526 -0.6342 -0.1169
  208SOL     OW  829   0.730   1.488   1.366 -0.7230 -0.6546 -0.1360
  208SOL    HW1  830   0.803   1.543   1.323  0.7363  0.0378 -0.0214
  208SOL    HW2  831   0.741   1.408   1.325  0.3714 -0.5201  5.1115
  208SOL     MW  832   0.741   1.485   1.355 -0.3861 -0.5455  0.5715
  209SOL     OW  833   1.615   0.458   2.805  0.4834 -0.7096  0.0020
  209SOL    HW1  834   1.651   0.539   2.771 -1.7967  2.3995  0.6084
  209SOL    HW2  835   1.681   0.414   2.854  0.7396  1.1877 -2.2647
  209SOL     MW  836   1.629   0.463   2.807  0.2164 -0.0491 -0.2170
  210SOL     OW  837   1.448   1.400   0.914 -0.0372 -0.3905  0.5769
  210SOL    HW1  838   1.546   1.410   0.896  1.8899 -2.1587  1.3585
  210SOL    HW2  839   1.405   1.442   0.840 -0.0054 -0.5935 -1.1229
  210SOL     MW  840   1.455   1.407   0.901  0.2213 -0.6506  0.4558
  211SOL     OW  841   1.773   0.278   0.868  0.7819 -0.3175 -0.2241
  211SOL    HW1  842   1.785   0.309   0.785  2.0580 -0.6246  3.5579
  211SOL    HW2  843   1.857   0.319   0.898  2.3129  0.5932  1.0855
  211SOL     MW  844   1.785   0.287   0.861  1.1523 -0.2379  0.4477
  212SOL     OW  845   0.406   1.192   0.222  0.0785 -0.0600  0.2332
  212SOL    HW1  846   0.346   1.123   0.205 -0.6400  0.9607 -0.3591
  212SOL    HW2  847   0.478   1.171   0.175  0.7287  0.7971 -1.9729
  212SOL     MW  848   0.407   1.180   0.214  0.0695  0.1878 -0.1360
  213SOL     OW  849   0.429   1.775   3.079  0.5998 -0.6848  0.3348
  213SOL    HW1  850   0.445   1.772   3.174  1.0018 -1.7132 -0.7424
  213SOL    HW2  851   0.484   1.844   3.035 -1.8068 -0.0433 -1.0782
  213SOL     MW  852   0.438   1.784   3.086  0.3353 -0.7358  0.0062
  214SOL     OW  853   0.595   0.323   2.150 -0.0772 -0.1916  0.1611
  214SOL    HW1  854   0.522   0.386   2.174 -0.8091  0.1684  0.5911
  214SOL    HW2  855   0.586   0.289   2.058  0.1908 -0.5580  3.5892
  214SOL     MW  856   0.584   0.327   2.141 -0.1384 -0.1924  0.6702
  215SOL     OW  857   0.623   0.597   2.528  0.5767  0.4315  0.7945
  215SOL    HW1  858   0.549   0.617   2.467 -0.8870  0.7761 -0.4917
  215SOL    HW2  859   0.611   0.522   2.590  3.4293 -0.8563  0.0217
  215SOL     MW  860   0.612   0.590   2.528  0.7599  0.3071  0.5228
  216SOL     OW  861   2.899   3.051   2.809 -0.2321 -0.0570  0.1353
  216SOL    HW1  862   2.804   3.033   2.797  1.8567  1.7864  0.5953
  216SOL    HW2  863   2.917   3.126   2.755  0.1312 -1.2567 -0.3517
  216SOL     MW  864   2.889   3.058   2.800  0.0914  0.0280  0.1317
  217SOL     OW  865   0.933   1.102   0.121  0.6194  0.2420 -0.3866
  217SOL    HW1  866   0.978   1.045   0.059 -0.0069 -5.0525 -0.0097
  217SOL    HW2  867   0.966   1.191   0.101 -0.2849 -0.5918  1.2853
  217SOL     MW  868   0.943   1.106   0.111  0.4174 -0.5666 -0.1163
  218SOL     OW  869   0.819   1.436   2.600 -0.0712 -0.0607  0.4133
  218SOL    HW1  870   0.768   1.373   2.654 -1.6015  1.9366  1.2335
  218SOL    HW2  871   0.894   1.468   2.662  0.9267 -0.0738  1.5097
  218SOL     MW  872   0.822   1.432   2.615 -0.1414  0.2011  0.6662
  219SOL     OW  873   1.051   0.419   2.493 -0.4699 -0.2778  0.0182
  219SOL    HW1  874   1.116   0.401   2.418  2.0457  0.6103  0.9893
  219SOL    HW2  875   1.004   0.500   2.478  0.2338  0.3020  0.3559
  219SOL     MW  876   1.054   0.427   2.481 -0.0452 -0.0841  0.1909
  220SOL     OW  877   1.647   0.497   2.188  0.4190  0.1768  0.4410
  220SOL    HW1  878   1.577   0.530   2.137 -0.6863  0.0169  0.9037
  220SOL    HW2  879   1.706   0.442   2.134  1.5812  1.3524 -1.5763
  220SOL     MW  880   1.645   0.494   2.174  0.4265  0.3108  0.2359
  221SOL     OW  881   0.320   1.373   2.929 -0.5247 -0.4672 -0.0416
  221SOL    HW1  882   0.360   1.291   2.910 -0.8895  0.7264 -0.8166
  221SOL    HW2  883   0.369   1.444   2.884 -1.3300  2.0686 -1.7802
  221SOL     MW  884   0.332   1.371   2.921 -0.6791  0.0249 -0.3733
  222SOL     OW  885   0.505   0.923   2.688  0.0168  0.7881 -0.4035
  222SOL    HW1  886   0.419   0.913   2.649 -0.2132 -0.1357  1.8446
  222SOL    HW2  887   0.534   0.838   2.719 -1.4817  0.0212  1.0240
  222SOL     MW  888   0.497   0.911   2.687 -0.2113  0.5650  0.0815
  223SOL     OW  889   3.029   2.059   2.564  0.2217 -0.4504  0.0783
  223SOL    HW1  890   3.035   2.017   2.652 -1.9415  2.7279  1.3391
  223SOL    HW2  891   3.098   2.126   2.545  0.0952  0.8835 -1.9332
  223SOL     MW  892   3.039   2.062   2.573 -0.0804  0.1449 -0.0208
  224SOL     OW  893   1.438   0.545   2.435 -0.0945 -0.7097  0.2906
  224SOL    HW1  894   1.528   0.528   2.471 -0.7509 -1.5062 -0.8841
  224SOL    HW2  895   1.433   0.643   2.437 -0.5745  0.6062 -0.6896
  224SOL     MW  896   1.449   0.556   2.440 -0.2445 -0.6412  0.0063
  225SOL     OW  897   2.908   1.483   2.179  0.1095 -0.2979  0.3297
  225SOL    HW1  898   2.968   1.549   2.146 -0.0252 -2.0544  0.3355
  225SOL    HW2  899   2.851   1.534   2.244  0.0827 -1.3330  1.6216
  225SOL     MW  900   2.908   1.499   2.183  0.0882 -0.6662  0.5009
  226SOL     OW  901   0.432   1.547   2.753 -0.1093  0.0252 -0.3235
  226SOL    HW1  902   0.512   1.570   2.708 -0.4350  1.3787 -1.4946
  226SOL    HW2  903   0.387   1.633   2.755  0.8724  2.1136  0.0503
  226SOL     MW  904   0.436   1.561   2.747 -0.0227  0.4793 -0.4287
  227SOL     OW  905   0.492   1.155   2.897 -0.6671 -0.0495  0.7212
  227SOL    HW1  906   0.567   1.186   2.840  0.7123 -1.2770 -0.8787
  227SOL    HW2  907   0.469   1.071   2.846 -1.9373 -0.4383  1.8026
  227SOL     MW  908   0.499   1.148   2.883 -0.6527 -0.2628  0.6528
  228SOL     OW  909   0.798   1.127   2.057  0.4791 -0.2180  0.8406
  228SOL    HW1  910   0.739   1.161   1.985  1.2120  1.1578  0.6108
  228SOL    HW2  911   0.874   1.182   2.043 -0.2772 -1.9314 -1.7966
  228SOL     MW  912   0.800   1.139   2.045  0.4760 -0.2625  0.4623
  229SOL     OW  913   0.126   0.573   0.034 -0.0564  0.2857 -0.4271
  229SOL    HW1  914   0.083   0.583  -0.053 -0.1209 -0.8903  1.2471
  229SOL    HW2  915   0.079   0.505   0.087 -2.0635 -0.6008 -0.2316
  229SOL     MW  916   0.114   0.565   0.030 -0.3297  0.0136 -0.1804
  230SOL     OW  917   1.709   1.377   2.204 -0.7114 -0.5629  0.4030
  230SOL    HW1  918   1.658   1.356   2.286 -0.2207 -2.5871  1.6929
  230SOL    HW2  919   1.720   1.287   2.182 -3.4980 -1.3758 -2.0995
  230SOL     MW  920   1.704   1.363   2.212 -1.0143 -0.9373  0.2430
  231SOL     OW  921   2.738   1.220   2.178  0.3156  0.3576 -0.5046
  231SOL    HW1  922   2.775   1.301   2.143  1.1470  0.2965  1.1963
  231SOL    HW2  923   2.664   1.208   2.121  0.5494 -0.9599  0.5789
  231SOL     MW  924   2.733   1.229   2.166  0.4561  0.1757 -0.1372
  232SOL     OW  925   2.275   0.857   1.998 -0.3290 -0.5109 -0.0623
  232SOL    HW1  926   2.190   0.876   1.948  0.6612 -0.2400 -2.9353
  232SOL    HW2  927   2.250   0.801   2.069  0.4255  1.3802  1.4423
  232SOL     MW  928   2.261   0.852   2.000 -0.0988 -0.2257 -0.2428
  233SOL     OW  929   2.109   0.451   2.022 -0.0899 -0.6297  0.4427
  233SOL    HW1  930   2.144   0.365   2.020  2.7154 -3.4977 -0.5147
  233SOL    HW2  931   2.127   0.491   2.109  0.5654  1.9801 -0.5457
  233SOL     MW  932   2.116   0.445   2.033  0.3667 -0.6638  0.1859
  234SOL     OW  933   0.248   1.043   2.622  0.0613  0.6337 -0.3312
  234SOL    HW1  934   0.188   1.023   2.549  0.8821 -4.3643  1.9039
  234SOL    HW2  935   0.275   1.130   2.612  0.2059 -1.2761 -1.0821
  234SOL     MW  936   0.244   1.052   2.611  0.1887 -0.2777 -0.1354
  235SOL     OW  937   1.151   0.054   2.808  0.3028  0.0592 -0.1897
  235SOL    HW1  938   1.167   0.047   2.906 -0.0571 -1.8166 -1.1123
  235SOL    HW2  939   1.108   0.136   2.784  0.5347 -0.6028  2.2862
  235SOL     MW  940   1.148   0.064   2.818  0.2859 -0.2756  0.0152
  236SOL     OW  941   2.977   0.616   0.178 -0.1705 -0.3391  0.3727
  236SOL    HW1  942   2.992   0.648   0.272  0.4190 -1.5274  1.2322
  236SOL    HW2  943   3.037   0.668   0.130 -2.2307  0.1040  2.3297
  236SOL     MW  944   2.987   0.627   0.184 -0.3646 -0.4375  0.7443
  237SOL     OW  945   1.926   1.129   2.153 -0.3512  0.3648  0.1009
  237SOL    HW1  946   1.870   1.109   2.084 -0.3379 -2.3612  0.5796
  237SOL    HW2  947   1.998   1.172   2.116  0.8589  3.5762  1.9534
  237SOL     MW  948   1.928   1.132   2.139 -0.1898  0.4289  0.4084
  238SOL     OW  949   1.137   1.694   2.951  0.5294 -0.3083  0.9304
  238SOL    HW1  950   1.086   1.624   2.901  1.1850  2.1609 -0.8534
  238SOL    HW2  951   1.219   1.649   2.966  1.5183 -0.1710 -2.1042
  238SOL     MW  952   1.141   1.678   2.947  0.7464  0.0356  0.2947
  239SOL     OW  953   1.211   1.301   2.394  0.7743  0.4131 -0.2574
  239SOL    HW1  954   1.135   1.361   2.389  0.5834  2.2250 -2.2813
  239SOL    HW2  955   1.218   1.285   2.488 -0.5178 -1.3923 -1.9402
  239SOL     MW  956   1.202   1.307   2.405  0.5786  0.4140 -0.7465
  240SOL     OW  957   0.595   0.863   2.277 -0.2101  0.4267 -1.0780
  240SOL    HW1  958   0.638   0.901   2.359 -2.1491 -0.0364 -0.7148
  240SOL    HW2  959   0.660   0.834   2.215  0.7248  0.2170  0.2648
  240SOL     MW  960   0.610   0.864   2.279 -0.3425  0.3379 -0.8529
  241SOL     OW  961   0.646   0.454   3.090 -0.5066  0.3542 -0.3549
  241SOL    HW1  962   0.682   0.541   3.126  0.9712  1.1316 -0.6433
  241SOL    HW2  963   0.557   0.479   3.063 -3.1238 -1.7209 -1.0507
  241SOL     MW  964   0.639   0.469   3.091 -0.6569  0.1830 -0.4848
  242SOL     OW  965   1.488   1.627   2.288  0.1536  0.4130 -0.5779
  242SOL    HW1  966   1.439   1.694   2.334  1.3368 -2.5729  1.5636
  242SOL    HW2  967   1.421   1.578   2.241 -1.7948  0.4659 -0.0055
  242SOL     MW  968   1.473   1.629   2.288  0.0527  0.0260 -0.2198
  243SOL     OW  969   0.953   0.175   2.462 -0.3474 -0.2900 -0.2328
  243SOL    HW1  970   1.022   0.137   2.410 -0.3400  2.7170  0.8442
  243SOL    HW2  971   0.985   0.258   2.487 -0.3395 -1.4975 -1.8829
  243SOL     MW  972   0.966   0.181   2.459 -0.3454 -0.0526 -0.3084
  244SOL     OW  973   0.099   0.722   2.323  0.0998 -0.4346 -0.7642
  244SOL    HW1  974   0.088   0.817   2.336  0.9248  1.5071  0.9959
  244SOL    HW2  975   0.190   0.722   2.318  1.0148 -0.0545 -1.7209
  244SOL     MW  976   0.110   0.735   2.324  0.3294 -0.1283 -0.6582
  245SOL     OW  977   1.218   0.108   2.377  0.5235 -0.1038 -0.3786
  245SOL    HW1  978   1.300   0.068   2.339  1.1591  0.4673 -1.4119
  245SOL    HW2  979   1.201   0.063   2.453 -0.1285  2.2359 -1.6726
  245SOL     MW  980   1.227   0.097   2.382  0.5213  0.2803 -0.6857
  246SOL     OW  981   1.195   1.038   2.126  0.6233 -0.6328  0.3010
  246SOL    HW1  982   1.120   1.010   2.177  2.3438 -0.3694  2.3668
  246SOL    HW2  983   1.268   1.015   2.184  1.5722  2.1334 -0.1834
  246SOL     MW  984   1.194   1.032   2.140  0.9755 -0.2331  0.5097
  247SOL     OW  985   0.777   0.652   0.167  0.3526 -0.5528  0.4491
  247SOL    HW1  986   0.756   0.752   0.177 -0.4049  1.3318  0.6571
  247SOL    HW2  987   0.864   0.646   0.118 -2.3027 -1.5612  0.4455
  247SOL     MW  988   0.785   0.664   0.162 -0.0977 -0.4372  0.4761
  248SOL     OW  989   0.361   1.292   2.607 -0.1431 -0.2548  0.4785
  248SOL    HW1  990   0.377   1.321   2.518 -0.2055 -1.6876  0.6412
  248SOL    HW2  991   0.383   1.370   2.661  0.5332 -0.5780  1.4332
  248SOL     MW  992   0.366   1.306   2.603 -0.0621 -0.4865  0.6260
  249SOL     OW  993   3.034   1.853   2.788  0.2506  0.1171  0.0821
  249SOL    HW1  994   2.974   1.800   2.844  0.3874 -2.1992 -1.6099
  249SOL    HW2  995   3.106   1.847   2.846 -0.6220 -0.5734  1.7851
  249SOL     MW  996   3.036   1.845   2.803  0.1535 -0.2796  0.0836
  250SOL     OW  997   2.314   0.709   2.256  0.5097  0.3697  0.2460
  250SOL    HW1  998   2.293   0.616   2.282 -1.1581 -0.2455  2.0016
  250SOL    HW2  999   2.278   0.767   2.329 -1.9081 -0.5539  3.1711
  250SOL     MW 1000   2.306   0.704   2.269 -0.0294  0.1667  0.8636
  251SOL     OW 1001   0.121   0.863   1.960 -0.1641 -1.0492  0.2250
  251SOL    HW1 1002   0.062   0.790   1.952  1.2081  2.2570 -1.6620
  251SOL    HW2 1003   0.146   0.873   1.866 -1.0744 -2.4092  1.2280
  251SOL     MW 1004   0.116   0.855   1.947 -0.1032 -0.7924  0.1084
  252SOL     OW 1005   1.759   0.994   2.901  0.6665 -0.1760 -0.1054
  252SOL    HW1 1006   1.728   1.042   2.978 -0.0474 -1.8027 -0.8999
  252SOL    HW2 1007   1.835   1.040   2.864 -2.3618 -1.4345 -0.1283
  252SOL     MW 1008   1.765   1.006   2.906  0.1727 -0.5567 -0.2133
  253SOL     OW 1009   1.114   1.665   2.542  0.2524 -0.5395 -0.8945
  253SOL    HW1 1010   1.071   1.604   2.479 -0.6080 -0.5665 -0.5716
  253SOL    HW2 1011   1.062   1.760   2.535 -1.2028 -0.4938  1.8647
  253SOL     MW 1012   1.101   1.670   2.533 -0.0531 -0.5370 -0.4878
  254SOL     OW 1013   0.955   0.971   2.264 -0.5626 -0.6108 -0.0842
  254SOL    HW1 1014   0.885   0.950   2.205  0.4212  0.8075  1.4773
  254SOL    HW2 1015   0.936   1.055   2.305  1.6503 -1.1472 -0.1477
  254SOL     MW 1016   0.944   0.979   2.262 -0.1408 -0.4945  0.1135
  255SOL     OW 1017   0.869   2.436   2.133 -0.1224  0.2173 -0.4974
  255SOL    HW1 1018   0.787   2.386   2.138  2.6430  1.0314  1.9475
  255SOL    HW2 1019   0.938   2.394   2.194 -0.5199 -0.7513 -0.5563
  255SOL     MW 1020   0.868   2.424   2.142  0.1900  0.1969 -0.1826
  256SOL     OW 1021   1.313   2.787   3.076 -0.1922 -0.1143  0.1085
  256SOL    HW1 1022   1.319   2.695   3.104 -4.6098 -0.4354  1.1226
  256SOL    HW2 1023   1.359   2.788   2.987 -1.2139  1.2954 -1.7548
  256SOL     MW 1024   1.319   2.775   3.068 -0.9099  0.0293 -0.0036
  257SOL     OW 1025   0.097   1.949   0.053 -0.3467 -0.1518 -0.2521
  257SOL    HW1 1026   0.144   1.915   0.134  3.1897  1.7607 -0.7691
  257SOL    HW2 1027   0.133   1.889  -0.016 -0.8287 -0.4177  0.3183
  257SOL     MW 1028   0.108   1.937   0.055  0.0563  0.0655 -0.2450
  258SOL     OW 1029   0.717   0.953   2.531  0.2110 -0.1035  0.1430
  258SOL    HW1 1030   0.758   1.042   2.531  0.2435 -2.7511 -1.9264
  258SOL    HW2 1031   0.647   0.959   2.592 -0.5323 -2.9084 -0.9691
  258SOL     MW 1032   0.713   0.965   2.539  0.1172 -0.8229 -0.2768
  259SOL     OW 1033   0.817   0.457   2.256  0.4139  0.2153 -0.1989
  259SOL    HW1 1034   0.735   0.412   2.238  0.5590  0.5365 -0.5730
  259SOL    HW2 1035   0.875   0.391   2.298  0.1396  2.4008  0.8741
  259SOL     MW 1036   0.814   0.443   2.259  0.3968  0.5460 -0.1067
  260SOL     OW 1037   0.668   0.102   1.658  0.1857  0.5245 -0.0619
  260SOL    HW1 1038   0.607   0.142   1.598 -0.6842  0.7862 -2.8588
  260SOL    HW2 1039   0.750   0.152   1.642  2.1543  1.5033  2.5096
  260SOL     MW 1040   0.670   0.114   1.648  0.3306  0.6881 -0.0916
  261SOL     OW 1041   1.029   0.740   2.022  0.6961  0.4712 -0.1529
  261SOL    HW1 1042   1.111   0.751   2.069  1.6218  0.8437 -0.8782
  261SOL    HW2 1043   1.013   0.643   2.035 -1.5870 -0.7884  0.0978
  261SOL     MW 1044   1.037   0.729   2.030  0.5170  0.3541 -0.2155
  262SOL     OW 1045   1.125   0.342   0.146 -0.2426  0.5490 -0.3809
  262SOL    HW1 1046   1.208   0.340   0.096 -2.8699 -1.2683 -1.9281
  262SOL    HW2 1047   1.063   0.325   0.075 -1.8961  0.4960 -0.7057
  262SOL     MW 1048   1.128   0.339   0.130 -0.8074  0.3023 -0.6279
  263SOL     OW 1049   0.365   0.038   2.453  0.0362  0.2922  0.1986
  263SOL    HW1 1050   0.304   0.112   2.449 -0.3481  0.0463 -0.2503
  263SOL    HW2 1051   0.408   0.052   2.359  0.7501 -0.7734 -2.7243
  263SOL     MW 1052   0.363   0.049   2.440  0.0797  0.1192 -0.2463
  264SOL     OW 1053   1.541   1.485   1.991  0.0238 -0.0968  0.3592
  264SOL    HW1 1054   1.495   1.402   1.978 -0.7783 -0.2101 -0.3117
  264SOL    HW2 1055   1.583   1.473   2.074 -0.9291  1.9079 -2.5838
  264SOL     MW 1056   1.540   1.473   2.000 -0.2077  0.1527 -0.1176
  265SOL     OW 1057   0.699   2.782   2.317  0.0891  0.4577  0.0362
  265SOL    HW1 1058   0.790   2.752   2.299  1.1499 -0.6036 -2.5442
  265SOL    HW2 1059   0.683   2.808   2.410  0.5290 -0.3064  2.3513
  265SOL     MW 1060   0.709   2.781   2.327  0.2871  0.2168  0.0012
  266SOL     OW 1061   0.794   0.851   2.088 -0.1876  0.0133 -0.6523
  266SOL    HW1 1062   0.805   0.937   2.046 -0.3691 -1.1125  0.5142
  266SOL    HW2 1063   0.880   0.802   2.068  0.2451  0.6149  0.5306
  266SOL     MW 1064   0.807   0.856   2.080 -0.1545 -0.0558 -0.3423
  267SOL     OW 1065   1.330   1.765   2.692 -0.0311  0.0848 -0.5717
  267SOL    HW1 1066   1.399   1.711   2.652 -0.1485  1.4157 -1.2483
  267SOL    HW2 1067   1.251   1.730   2.652  3.3996 -0.5285  0.5168
  267SOL     MW 1068   1.329   1.753   2.681  0.4060  0.1795 -0.5173
  268SOL     OW 1069   0.083   0.878   1.694 -0.0367  0.1479  0.0954
  268SOL    HW1 1070  -0.003   0.919   1.722 -0.4816 -1.0886  0.2053
  268SOL    HW2 1071   0.055   0.840   1.605 -1.3595  0.3365 -1.8785
  268SOL     MW 1072   0.068   0.879   1.686 -0.2699  0.0097 -0.1506
  269SOL     OW 1073   1.305   1.804   2.392 -0.4731  0.5000  0.1807
  269SOL    HW1 1074   1.315   1.832   2.482 -1.0689  0.4316 -0.1690
  269SOL    HW2 1075   1.227   1.753   2.400  0.1146 -4.4584 -2.9972
  269SOL     MW 1076   1.296   1.801   2.405 -0.4742 -0.1632 -0.2847
  270SOL     OW 1077   1.104   0.476   1.517 -0.3646 -0.1523 -0.4439
  270SOL    HW1 1078   1.047   0.407   1.552  0.1921 -1.0177 -1.9560
  270SOL    HW2 1079   1.191   0.435   1.511 -2.8216  0.9096  0.7530
  270SOL     MW 1080   1.108   0.461   1.521 -0.6153 -0.1264 -0.4855
  271SOL     OW 1081   0.707   0.110   2.539  0.0761  0.1410  0.3721
  271SOL    HW1 1082   0.698   0.036   2.599 -3.8373 -0.3351 -0.2129
  271SOL    HW2 1083   0.805   0.131   2.524 -0.5471 -1.3529 -1.6714
  271SOL     MW 1084   0.719   0.103   2.545 -0.5224 -0.1190  0.0253
  272SOL     OW 1085   1.475   2.792   2.845  0.4921  0.1574  0.4549
  272SOL    HW1 1086   1.444   2.761   2.757 -2.1730 -0.3255 -3.5972
  272SOL    HW2 1087   1.531   2.865   2.831 -0.7556 -1.3151 -0.3870
  272SOL     MW 1088   1.478   2.797   2.832 -0.0242 -0.1006 -0.1908
  273SOL     OW 1089   1.421   0.810   2.849  0.0299  0.7835  0.2116
  273SOL    HW1 1090   1.515   0.808   2.843  0.9326 -0.1960 -0.9156
  273SOL    HW2 1091   1.405   0.902   2.835 -2.1557 -0.8469 -1.4020
  273SOL     MW 1092   1.431   0.822   2.846 -0.1394  0.4391 -0.1500
  274SOL     OW 1093   1.438   0.739   0.173  0.3088  1.3103  0.3726
  274SOL    HW1 1094   1.463   0.647   0.176  1.1361  3.4062 -0.1591
  274SOL    HW2 1095   1.347   0.743   0.223  0.1476  0.4511 -0.6461
  274SOL     MW 1096   1.429   0.727   0.180  0.3967  1.4734  0.1681
  275SOL     OW 1097   1.909   0.530   1.707  0.1672 -0.6236 -0.3376
  275SOL    HW1 1098   1.922   0.588   1.782  0.3272  4.2133 -1.0233
  275SOL    HW2 1099   1.883   0.440   1.732  0.7379  0.3007  1.9397
  275SOL     MW 1100   1.907   0.525   1.720  0.2636  0.1365 -0.1276
  276SOL     OW 1101   0.431   1.157   1.961 -0.6522 -0.0336  0.4308
  276SOL    HW1 1102   0.405   1.071   1.984 -1.9137  1.1399  1.6433
  276SOL    HW2 1103   0.364   1.210   2.009  1.2636  0.8724  0.9085
  276SOL     MW 1104   0.418   1.152   1.970 -0.5659  0.2408  0.6538
  277SOL     OW 1105   2.012   1.166   2.438  0.7150  0.0695  0.1830
  277SOL    HW1 1106   2.024   1.253   2.476 -2.5200  2.1429  0.2528
  277SOL    HW2 1107   1.933   1.167   2.382 -1.4523 -2.9430 -0.7309
  277SOL     MW 1108   2.003   1.178   2.435  0.0022 -0.0544  0.0716
  278SOL     OW 1109   1.484   0.653   1.609  0.7034  0.6792 -0.0574
  278SOL    HW1 1110   1.460   0.641   1.710 -1.7695  1.0516  2.4658
  278SOL    HW2 1111   1.579   0.666   1.610  0.9300 -1.2215 -0.4546
  278SOL     MW 1112   1.494   0.653   1.622  0.4070  0.4775  0.2231
  279SOL     OW 1113   0.495   0.083   2.231 -0.4060  0.2628  0.0640
  279SOL    HW1 1114   0.580   0.047   2.277  1.6182  1.7101 -3.8941
  279SOL    HW2 1115   0.512   0.170   2.198 -1.9938  1.5919  0.6321
  279SOL     MW 1116   0.508   0.089   2.233 -0.3484  0.6291 -0.3833
  280SOL     OW 1117   1.454   1.004   2.249  0.3713  0.4360  0.0583
  280SOL    HW1 1118   1.547   1.007   2.228 -0.0477 -1.0690 -0.7355
  280SOL    HW2 1119   1.461   0.942   2.322 -2.1937 -1.3991  0.3404
  280SOL     MW 1120   1.467   0.997   2.255 -0.0224 -0.0047 -0.0092
  281SOL     OW 1121   1.379   1.083   2.811 -0.3736  0.1157  0.7944
  281SOL    HW1 1122   1.461   1.124   2.787  0.2829 -0.4281 -1.5199
  281SOL    HW2 1123   1.337   1.119   2.887  2.0966  0.9242 -0.9919
  281SOL     MW 1124   1.384   1.093   2.818  0.0389  0.1506  0.2533
  282SOL     OW 1125   1.068   1.306   1.618 -0.0137 -0.1933 -0.1259
  282SOL    HW1 1126   1.048   1.382   1.567  1.4156  0.2982 -3.4092
  282SOL    HW2 1127   0.991   1.261   1.646  0.1179  1.3898  1.5821
  282SOL     MW 1128   1.056   1.310   1.615  0.1922  0.0804 -0.3337
  283SOL     OW 1129   0.764   1.303   3.030 -0.6110  0.0281  0.4746
  283SOL    HW1 1130   0.858   1.325   3.036 -1.3573  0.2812 -1.2399
  283SOL    HW2 1131   0.721   1.385   3.037  1.5898  0.9983 -1.3135
  283SOL     MW 1132   0.771   1.316   3.032 -0.4191  0.1895  0.0125
  284SOL     OW 1133   0.370   0.714   2.353 -0.1988 -0.0233 -0.4183
  284SOL    HW1 1134   0.454   0.767   2.343  1.0387 -1.9575  2.5876
  284SOL    HW2 1135   0.371   0.654   2.280 -1.0778 -0.1683 -0.2931
  284SOL     MW 1136   0.381   0.713   2.342 -0.1515 -0.2976 -0.0052
  285SOL     OW 1137   0.884   0.924   2.774  0.5363  0.5992  0.6164
  285SOL    HW1 1138   0.924   0.956   2.693  0.3010 -1.5402  1.0915
  285SOL    HW2 1139   0.832   0.840   2.747  1.3400 -2.6549 -2.5211
  285SOL     MW 1140   0.882   0.917   2.760  0.6113 -0.1124  0.2651
  286SOL     OW 1141   1.054   1.495   2.745 -0.2259 -0.3910  0.2560
  286SOL    HW1 1142   1.094   1.411   2.721  0.5978 -1.7962 -1.1596
  286SOL    HW2 1143   1.083   1.560   2.672 -1.1675 -1.4066  1.0759
  286SOL     MW 1144   1.063   1.492   2.732 -0.2415 -0.7104  0.1774
  287SOL     OW 1145   1.095   0.969   0.330 -0.3117  0.3609 -0.0028
  287SOL    HW1 1146   1.064   1.007   0.409  0.7052  0.1764 -0.1719
  287SOL    HW2 1147   1.024   0.980   0.267  0.4605  0.9227 -0.0906
  287SOL     MW 1148   1.082   0.975   0.332 -0.0756  0.4107 -0.0367
  288SOL     OW 1149   1.500   0.724   2.085 -0.4233  0.0000  0.1616
  288SOL    HW1 1150   1.422   0.723   2.133  1.7697 -0.2108 -4.7154
  288SOL    HW2 1151   1.546   0.806   2.112  1.2252  0.2092  2.8661
  288SOL     MW 1152   1.495   0.735   2.095  0.0835 -0.0002 -0.1251
  289SOL     OW 1153   1.049   1.031   2.562  0.4553  0.5103  0.2345
  289SOL    HW1 1154   1.085   0.943   2.535 -0.7625 -1.1083 -1.9471
  289SOL    HW2 1155   0.981   1.053   2.491 -0.1762  2.7163 -1.2974
  289SOL     MW 1156   1.045   1.022   2.549  0.2113  0.5878 -0.2554
  290SOL     OW 1157   0.706   0.656   1.486  0.5186 -0.3697  0.6980
  290SOL    HW1 1158   0.748   0.605   1.417  2.7920  1.7892  1.8768
  290SOL    HW2 1159   0.763   0.647   1.565  0.6391  2.1487 -2.7523
  290SOL     MW 1160   0.719   0.648   1.487  0.8345  0.2475  0.3983
  291SOL     OW 1161   0.164   0.358   0.210 -0.0947  0.2054  0.3539
  291SOL    HW1 1162   0.249   0.321   0.232  1.7145  0.4743  1.5948
  291SOL    HW2 1163   0.102   0.297   0.246  0.8946 -1.7547 -1.4242
  291SOL     MW 1164   0.167   0.345   0.217  0.2745 -0.0177  0.2830
  292SOL     OW 1165   1.032   0.598   0.084  0.3168 -0.3832 -0.2089
  292SOL    HW1 1166   1.093   0.647   0.140 -1.4440  1.2639 -0.3824
  292SOL    HW2 1167   1.047   0.502   0.108 -1.9220 -0.0978 -1.3681
  292SOL     MW 1168   1.042   0.592   0.095 -0.2109 -0.1283 -0.3847
  293SOL     OW 1169   0.085   0.142   2.483  0.3164  0.6999 -0.7852
  293SOL    HW1 1170   0.063   0.076   2.414 -1.0023 -1.0734 -0.4195
  293SOL    HW2 1171   0.006   0.138   2.542  1.5307 -2.1232 -1.9936
  293SOL     MW 1172   0.072   0.133   2.482  0.3026  0.0934 -0.8964
  294SOL     OW 1173   1.253   0.392   2.286  0.4120 -0.8063  0.5245
  294SOL    HW1 1174   1.318   0.445   2.340 -2.0283 -1.0900 -0.4139
  294SOL    HW2 1175   1.241   0.300   2.318 -0.4642 -0.7916  1.3819
  294SOL     MW 1176   1.260   0.387   2.297 -0.0256 -0.8418  0.5138
  295SOL     OW 1177   0.908   0.634   2.444 -0.0048 -0.0455 -0.9697
  295SOL    HW1 1178   0.869   0.585   2.370  1.2376  1.2474 -0.3062
  295SOL    HW2 1179   0.835   0.680   2.484 -0.9096 -2.4058  0.1215
  295SOL     MW 1180   0.893   0.634   2.440  0.0397 -0.1863 -0.7382
  296SOL     OW 1181   1.351   0.357   2.043 -0.5446  0.0427 -0.3447
  296SOL    HW1 1182   1.355   0.264   2.014 -0.9339 -1.8653 -2.1394
  296SOL    HW2 1183   1.328   0.365   2.135  0.2813 -1.0550 -0.2112
  296SOL     MW 1184   1.349   0.346   2.051 -0.4870 -0.3539 -0.5639
  297SOL     OW 1185   1.361   0.377   1.532  0.6931  0.4351 -0.4538
  297SOL    HW1 1186   1.390   0.454   1.580 -1.3177 -0.3969  0.7488
  297SOL    HW2 1187   1.405   0.303   1.584 -0.3165  2.8675 -1.3459
  297SOL     MW 1188   1.371   0.377   1.545  0.2946  0.6463 -0.4128
  298SOL     OW 1189   1.692   0.932   2.119 -0.1461  0.7129 -0.7461
  298SOL    HW1 1190   1.722   0.954   2.028  4.6169  0.0726 -2.0202
  298SOL    HW2 1191   1.751   0.860   2.144  1.2242  0.8631  0.2812
  298SOL     MW 1192   1.704   0.925   2.111  0.6632  0.6482 -0.7787
  299SOL     OW 1193   0.605   1.125   0.047 -0.4624 -0.5616 -0.4449
  299SOL    HW1 1194   0.559   1.137  -0.035  0.7440 -0.9874  1.8351
  299SOL    HW2 1195   0.686   1.170   0.016 -1.4029  1.9563  0.0871
  299SOL     MW 1196   0.609   1.132   0.032 -0.4273 -0.2856 -0.0739
  300SOL     OW 1197   1.199   1.259   2.660 -0.2264 -0.0475  0.3562
  300SOL    HW1 1198   1.147   1.185   2.646  1.5793  1.2316 -0.9766
  300SOL    HW2 1199   1.275   1.227   2.707  0.2106  2.7941  0.8777
  300SOL     MW 1200   1.202   1.245   2.665  0.0695  0.4962  0.2492
  301SOL     OW 1201   1.421   1.010   0.646 -0.3272 -0.3590 -0.4805
  301SOL    HW1 1202   1.420   1.046   0.733 -0.0726  1.6144  1.6859
  301SOL    HW2 1203   1.384   0.923   0.647 -0.0009 -1.9211 -1.2385
  301SOL     MW 1204   1.416   1.003   0.658 -0.2505 -0.3047 -0.2947
  302SOL     OW 1205   0.247   1.592   2.091  0.1145 -0.0058 -0.2333
  302SOL    HW1 1206   0.242   1.502   2.058  2.5679 -0.8930 -2.9726
  302SOL    HW2 1207   0.161   1.633   2.068  0.4534 -0.6534  0.0772
  302SOL     MW 1208   0.235   1.585   2.083  0.4830 -0.2083 -0.5538
  303SOL     OW 1209   0.336   1.834   2.689  0.0576  0.0954 -0.1048
  303SOL    HW1 1210   0.279   1.826   2.607 -0.1846  0.4745 -1.8654
  303SOL    HW2 1211   0.274   1.827   2.763  1.6259 -1.6979 -1.1028
  303SOL     MW 1212   0.320   1.832   2.688  0.2326 -0.0912 -0.4688
  304SOL     OW 1213   0.574   2.134   2.458  0.1893  0.0814  0.1120
  304SOL    HW1 1214   0.614   2.217   2.419 -0.7034 -0.9021 -0.7707
  304SOL    HW2 1215   0.635   2.061   2.444  1.0196  1.1074  1.7780
  304SOL     MW 1216   0.587   2.135   2.451  0.1811  0.0870  0.2154
  305SOL     OW 1217   1.140   0.595   0.528  0.7104  0.0645  0.2867
  305SOL    HW1 1218   1.047   0.602   0.506  0.8939  0.8914 -1.4085
  305SOL    HW2 1219   1.153   0.493   0.540 -1.8823 -3.4507 -0.5997
  305SOL     MW 1220   1.130   0.583   0.527  0.3925 -0.2902 -0.0539
  306SOL     OW 1221   1.130   1.533   0.308 -0.2695 -0.0704  0.3098
  306SOL    HW1 1222   1.124   1.435   0.307  1.9814  0.1083 -1.7676
  306SOL    HW2 1223   1.206   1.559   0.253  0.4965 -1.9811 -0.8300
  306SOL     MW 1224   1.140   1.523   0.301  0.1286 -0.2989 -0.1147
  307SOL     OW 1225   1.391   0.614   1.865 -0.9778  0.6288 -0.2891
  307SOL    HW1 1226   1.378   0.520   1.884 -0.5155  1.2884 -1.1103
  307SOL    HW2 1227   1.443   0.644   1.943 -0.9857  0.0652 -2.6882
  307SOL     MW 1228   1.396   0.605   1.878 -0.9178  0.6414 -0.7140
  308SOL     OW 1229   2.257   0.582   2.702  0.0114 -0.1628 -0.6063
  308SOL    HW1 1230   2.350   0.610   2.722  1.6014  0.3326  0.2020
  308SOL    HW2 1231   2.209   0.665   2.697  1.2727  1.9066  0.0999
  308SOL     MW 1232   2.263   0.597   2.704  0.3876  0.1756 -0.4065
  309SOL     OW 1233   0.566   0.492   0.302 -0.1443 -0.2980  0.5733
  309SOL    HW1 1234   0.647   0.526   0.260  2.6848 -4.8195 -1.9251
  309SOL    HW2 1235   0.522   0.414   0.256 -0.3008  0.7691 -4.0471
  309SOL     MW 1236   0.571   0.486   0.290  0.2083 -0.7538 -0.3659
  310SOL     OW 1237   0.421   0.553   1.835  0.6474  0.1931  0.1578
  310SOL    HW1 1238   0.421   0.533   1.741  0.8579  1.1925  0.4266
  310SOL    HW2 1239   0.469   0.638   1.831 -1.5315  1.7357 -1.7498
  310SOL     MW 1240   0.428   0.562   1.822  0.3877  0.5285 -0.0584
  311SOL     OW 1241   2.016   0.680   1.931  0.2203  0.1671  0.3571
  311SOL    HW1 1242   1.951   0.679   2.002 -0.9346 -1.8507 -0.9240
  311SOL    HW2 1243   2.062   0.595   1.946  0.8541 -1.5630 -0.1492
  311SOL     MW 1244   2.013   0.669   1.942  0.1516 -0.3274  0.1213
  312SOL     OW 1245   1.787   2.373   0.193  0.5538 -0.4032  0.4186
  312SOL    HW1 1246   1.839   2.402   0.270 -1.3637  0.4086  0.5747
  312SOL    HW2 1247   1.706   2.428   0.185  1.9665 -1.7531  0.5875
  312SOL     MW 1248   1.783   2.384   0.202  0.4872 -0.4742  0.4615
  313SOL     OW 1249   0.066   1.179   3.029 -0.1483  0.5207 -0.6351
  313SOL    HW1 1250   0.064   1.219   3.114  2.0943  0.1818 -1.1950
  313SOL    HW2 1251   0.059   1.249   2.966  0.3125 -0.9918  0.4781
  313SOL     MW 1252   0.064   1.194   3.032  0.2084  0.2764 -0.5621
  314SOL     OW 1253   2.216   2.851   3.066 -0.1998  0.0160  0.1716
  314SOL    HW1 1254   2.138   2.891   3.017  0.1503 -3.0709  3.7196
  314SOL    HW2 1255   2.269   2.921   3.088 -0.2654  0.8226  0.2534
  314SOL     MW 1256   2.212   2.866   3.063 -0.1622 -0.2848  0.6505
  315SOL     OW 1257   1.509   1.870   3.032  0.3062  0.5473  0.0066
  315SOL    HW1 1258   1.455   1.936   3.082 -1.1794  2.4709 -0.3685
  315SOL    HW2 1259   1.540   1.919   2.960  0.1827 -0.9788  0.0867
  315SOL     MW 1260   1.506   1.886   3.029  0.0939  0.5997 -0.0323
  316SOL     OW 1261   1.228   0.682   2.686 -0.0411 -0.2709 -0.3789
  316SOL    HW1 1262   1.294   0.728   2.735  2.1126 -0.3673  2.7295
  316SOL    HW2 1263   1.162   0.666   2.753  0.1791  1.1640  2.2902
  316SOL     MW 1264   1.228   0.686   2.701  0.2721 -0.0943  0.3834
  317SOL     OW 1265   0.645   1.623   2.538 -0.2956 -0.5357  0.1314
  317SOL    HW1 1266   0.721   1.567   2.559 -0.6433 -0.1950  1.2921
  317SOL    HW2 1267   0.627   1.612   2.446  0.5708 -0.6027 -3.4673
  317SOL     MW 1268   0.652   1.614   2.529 -0.2271 -0.4996 -0.1903
  318SOL     OW 1269   1.341   0.367   2.859 -0.4131 -0.3019 -0.1324
  318SOL    HW1 1270   1.264   0.426   2.842  0.6324 -1.0238  0.7878
  318SOL    HW2 1271   1.413   0.405   2.806 -2.6346 -1.1231 -0.1773
  318SOL     MW 1272   1.341   0.380   2.850 -0.5683 -0.5055 -0.0169
  319SOL     OW 1273   0.807   0.507   2.874 -0.2873  0.2273  0.1622
  319SOL    HW1 1274   0.781   0.457   2.801  0.1415  3.3748  5.0843
  319SOL    HW2 1275   0.742   0.472   2.933 -1.1814  0.2368  0.3527
  319SOL     MW 1276   0.795   0.496   2.872 -0.3487  0.6439  0.8368
  320SOL     OW 1277   1.007   1.313   2.056 -0.1597  0.5477  0.5462
  320SOL    HW1 1278   1.067   1.251   2.096 -0.0636  0.9925  0.5207
  320SOL    HW2 1279   1.070   1.374   2.012  0.1989  0.1451 -1.1618
  320SOL     MW 1280   1.023   1.313   2.056 -0.0997  0.5533  0.3175
  321SOL     OW 1281   1.015   0.939   3.027  0.0228 -0.1927 -0.3389
  321SOL    HW1 1282   0.978   0.898   2.940 -2.9512  0.5907 -1.5534
  321SOL    HW2 1283   1.105   0.893   3.045  4.0386  2.3777  1.7903
  321SOL     MW 1284   1.022   0.928   3.018  0.1602  0.2498 -0.2182
  322SOL     OW 1285   1.303   0.898   1.613 -0.4201  0.1963 -0.5901
  322SOL    HW1 1286   1.358   0.824   1.630  0.5531  0.1617 -0.4560
  322SOL    HW2 1287   1.243   0.894   1.686 -0.5992 -1.7340 -0.3909
  322SOL     MW 1288   1.302   0.888   1.625 -0.3154 -0.0630 -0.5461
  323SOL     OW 1289   1.124   1.515   1.903 -0.2667  0.2553  0.0369
  323SOL    HW1 1290   1.138   1.506   1.809  1.2415 -0.1454 -0.6087
  323SOL    HW2 1291   1.082   1.598   1.917  1.2713 -0.0084 -2.7350
  323SOL     MW 1292   1.120   1.525   1.892  0.1352  0.1677 -0.4140
  324SOL     OW 1293   1.428   0.827   2.464  0.0448 -0.1955 -0.5684
  324SOL    HW1 1294   1.331   0.822   2.478  4.0009 -0.2517  0.9422
  324SOL    HW2 1295   1.484   0.859   2.533  0.6934 -0.4474  1.1230
  324SOL     MW 1296   1.422   0.830   2.475  0.6523 -0.2361 -0.1460
  325SOL     OW 1297   1.080   0.539   2.899 -0.2697  0.0726 -0.1602
  325SOL    HW1 1298   1.097   0.568   2.991  3.2877 -1.1296 -0.1047
  325SOL    HW2 1299   0.985   0.544   2.899 -1.0109  1.0827  2.0634
  325SOL     MW 1300   1.070   0.543   2.911  0.1019  0.0473  0.1405
  326SOL     OW 1301   0.399   1.352   2.336  0.5560 -0.2601 -0.4347
  326SOL    HW1 1302   0.486   1.321   2.309 -1.5629  2.0768 -2.6133
  326SOL    HW2 1303   0.403   1.445   2.321  0.5810  0.8405  1.2497
  326SOL     MW 1304   0.411   1.360   2.330  0.2798  0.1934 -0.4999
  327SOL     OW 1305   1.956   0.732   2.416  0.3257  0.0120 -0.4576
  327SOL    HW1 1306   1.929   0.687   2.496 -0.8778 -1.2081  0.2194
  327SOL    HW2 1307   1.954   0.825   2.442 -1.8652 -0.3330  0.5018
  327SOL     MW 1308   1.952   0.739   2.430 -0.1222 -0.1945 -0.2417
  328SOL     OW 1309   0.246   1.297   2.116 -0.5952 -0.3788  0.1425
  328SOL    HW1 1310   0.187   1.230   2.129 -0.4275  1.1152 -0.9463
  328SOL    HW2 1311   0.284   1.318   2.200  0.2247 -2.5907 -0.9445
  328SOL     MW 1312   0.244   1.291   2.129 -0.4649 -0.4735 -0.1446
  329SOL     OW 1313   0.045   0.175   1.334  0.3358  0.5418 -0.4043
  329SOL    HW1 1314   0.003   0.150   1.426  1.7820 -1.9285  0.5525
  329SOL    HW2 1315   0.133   0.207   1.358  2.8604 -1.1421 -1.4274
  329SOL     MW 1316   0.051   0.176   1.350  0.8597 -0.0063 -0.4131
  330SOL     OW 1317   0.343   0.097   1.941  0.5781  0.1791  0.0810
  330SOL    HW1 1318   0.410   0.167   1.918 -0.1873  1.2333 -1.0225
  330SOL    HW2 1319   0.377   0.037   2.005 -1.4124 -2.2730 -1.5695
  330SOL     MW 1320   0.357   0.099   1.947  0.2145 -0.0053 -0.2824
  331SOL     OW 1321   0.842   1.192   2.448  0.7654 -0.2728  0.6431
  331SOL    HW1 1322   0.775   1.230   2.396  0.8337 -0.9226 -5.3840
  331SOL    HW2 1323   0.836   1.254   2.518  3.4930 -1.7728 -0.1346
  331SOL     MW 1324   0.832   1.205   2.451  1.1343 -0.5565 -0.2547
  332SOL     OW 1325   1.396   1.626   2.969 -0.1488 -0.1201  0.0760
  332SOL    HW1 1326   1.417   1.627   2.875  3.8213 -1.7533 -0.1834
  332SOL    HW2 1327   1.417   1.716   3.000  0.7920  0.6458 -0.4388
  332SOL     MW 1328   1.402   1.638   2.961  0.4991 -0.2346 -0.0261
  333SOL     OW 1329   1.705   1.437   2.910 -0.1130  0.1774 -0.0590
  333SOL    HW1 1330   1.799   1.419   2.882  0.2141 -0.2094 -0.2797
  333SOL    HW2 1331   1.682   1.377   2.982  0.4655  2.5698 -0.5688
  333SOL     MW 1332   1.715   1.426   2.916  0.0065  0.4420 -0.1554
  334SOL     OW 1333   1.269   3.054   2.600 -0.3748 -0.0233 -0.5255
  334SOL    HW1 1334   1.208   3.101   2.660 -2.6215  2.9470 -0.5552
  334SOL    HW2 1335   1.348   3.100   2.623 -1.7424 -1.1271  0.3092
  334SOL     MW 1336   1.271   3.066   2.611 -0.8516  0.2230 -0.4193
  335SOL     OW 1337   1.258   0.808   3.068 -0.2512  0.0178  0.7456
  335SOL    HW1 1338   1.319   0.792   3.138  1.5100 -0.1218 -2.8920
  335SOL    HW2 1339   1.316   0.807   2.983  3.3558 -0.7625 -0.7668
  335SOL     MW 1340   1.274   0.806   3.066  0.4571 -0.1036  0.0661
  336SOL     OW 1341   0.898   1.112   1.659  0.5026 -0.3681 -0.3438
  336SOL    HW1 1342   0.826   1.144   1.714 -0.9375  0.8568  1.9085
  336SOL    HW2 1343   0.962   1.068   1.722  1.1654  0.2661  1.3494
  336SOL     MW 1344   0.897   1.110   1.674  0.4000 -0.1228  0.1768
  337SOL     OW 1345   0.525   1.922   2.855  0.3505  0.2246 -0.1419
  337SOL    HW1 1346   0.466   1.912   2.780 -1.5768  0.6478  0.4761
  337SOL    HW2 1347   0.607   1.873   2.837  0.7244 -2.1837 -0.1620
  337SOL     MW 1348   0.528   1.914   2.843  0.1455 -0.0373 -0.0630
  338SOL     OW 1349   1.143   0.802   2.455  0.2255 -0.2112  0.3571
  338SOL    HW1 1350   1.055   0.771   2.427  2.4432  2.4320 -1.7435
  338SOL    HW2 1351   1.160   0.748   2.539 -0.1236  0.3078  0.8750
  338SOL     MW 1352   1.134   0.791   2.462  0.4720  0.2060  0.1483
  339SOL     OW 1353   1.305   1.261   1.978  0.0689  0.1784  0.1704
  339SOL    HW1 1354   1.326   1.216   1.899 -1.5016  1.8481 -0.1138
  339SOL    HW2 1355   1.271   1.193   2.033  3.0143 -0.2205  1.8219
  339SOL     MW 1356   1.303   1.246   1.975  0.2503  0.3461  0.3508
  340SOL     OW 1357   1.326   1.552   0.133 -0.1148  0.0325  0.1434
  340SOL    HW1 1358   1.355   1.573   0.039 -1.2212  2.9428  1.5448
  340SOL    HW2 1359   1.375   1.471   0.156  1.7419 -1.0291 -0.2060
  340SOL     MW 1360   1.336   1.544   0.124 -0.0158  0.2764  0.2822
  341SOL     OW 1361   0.066   1.391   2.839 -0.0645 -0.2922 -0.1469
  341SOL    HW1 1362   0.162   1.385   2.873  3.3661  3.9367  0.3701
  341SOL    HW2 1363   0.065   1.369   2.746 -1.7834 -2.3384  1.3101
  341SOL     MW 1364   0.078   1.387   2.831  0.1613 -0.0042  0.1135
  342SOL     OW 1365   1.383   0.343   0.021  0.1438 -0.3719 -0.1123
  342SOL    HW1 1366   1.455   0.386   0.063  0.7223  1.7393 -1.4926
  342SOL    HW2 1367   1.390   0.354  -0.074 -1.1657 -3.4586 -0.8879
  342SOL     MW 1368   1.393   0.350   0.014  0.0474 -0.5006 -0.3967
  343SOL     OW 1369   0.257   0.305   2.122 -0.0103  0.1965  0.4660
  343SOL    HW1 1370   0.276   0.246   2.050  1.5266 -0.1031 -0.8315
  343SOL    HW2 1371   0.160   0.295   2.126 -0.8562  0.9453 -3.1232
  343SOL     MW 1372   0.247   0.296   2.113  0.0808  0.2558 -0.1787
  344SOL     OW 1373   1.656   2.110   0.194 -0.1700  0.4595  0.6266
  344SOL    HW1 1374   1.671   2.137   0.102  1.4765  1.1351 -2.3334
  344SOL    HW2 1375   1.627   2.198   0.241 -0.0491  1.2422 -0.2078
  344SOL     MW 1376   1.654   2.125   0.188  0.0632  0.6519  0.1259
  345SOL     OW 1377   0.596   1.585   2.257 -0.1466 -0.0381 -0.3533
  345SOL    HW1 1378   0.534   1.635   2.208 -0.7842  2.9200  1.2654
  345SOL    HW2 1379   0.671   1.576   2.202 -2.4850 -0.7999 -1.5853
  345SOL     MW 1380   0.598   1.591   2.244 -0.5393  0.2516 -0.3023
  346SOL     OW 1381   1.650   1.183   0.019  0.3805  0.0416  0.1634
  346SOL    HW1 1382   1.717   1.225   0.069 -0.5354 -1.2186 -2.4337
  346SOL    HW2 1383   1.635   1.104   0.066 -1.2585 -1.3311 -1.1093
  346SOL     MW 1384   1.657   1.178   0.032  0.0434 -0.3057 -0.3472
  347SOL     OW 1385   1.229   0.733   2.206 -0.2206 -0.4748  0.2961
  347SOL    HW1 1386   1.225   0.639   2.223 -1.5420  0.2493 -2.2902
  347SOL    HW2 1387   1.210   0.770   2.292 -0.5131 -1.8338 -1.1687
  347SOL     MW 1388   1.226   0.726   2.220 -0.4335 -0.5586 -0.2384
  348SOL     OW 1389   1.295   2.540   1.958  0.4094 -0.1204  0.2598
  348SOL    HW1 1390   1.327   2.466   2.015 -1.0035 -0.1189  1.2152
  348SOL    HW2 1391   1.354   2.611   1.987  3.0366  1.9591  1.0258
  348SOL     MW 1392   1.307   2.539   1.969  0.5696  0.1542  0.4869
  349SOL     OW 1393   1.465   0.118   2.765  0.3068  0.1133 -0.1222
  349SOL    HW1 1394   1.390   0.169   2.790  3.4805 -1.2065  1.4276
  349SOL    HW2 1395   1.523   0.116   2.844  0.1503  0.4626 -0.6915
  349SOL     MW 1396   1.463   0.125   2.779  0.7049 -0.0148  0.0072
  350SOL     OW 1397   1.865   0.620   2.648 -0.4432 -0.2935 -0.1458
  350SOL    HW1 1398   1.824   0.554   2.589 -0.7833 -1.7685 -3.6189
  350SOL    HW2 1399   1.927   0.568   2.704  0.2662 -0.7384  0.4335
  350SOL     MW 1400   1.868   0.605   2.647 -0.3945 -0.5468 -0.5276
  351SOL     OW 1401   0.188   1.102   1.551  0.6316 -0.0439 -0.1280
  351SOL    HW1 1402   0.156   1.039   1.617 -0.4511  0.1705  0.5201
  351SOL    HW2 1403   0.218   1.177   1.602 -0.3822  2.3713 -3.1884
  351SOL     MW 1404   0.187   1.103   1.566  0.3550  0.3030 -0.4463
  352SOL     OW 1405   0.754   1.775   2.809 -0.5174 -0.5365 -0.2142
  352SOL    HW1 1406   0.774   1.708   2.878 -0.6940  2.1124  3.1349
  352SOL    HW2 1407   0.742   1.733   2.725 -1.3172 -1.3161 -1.0274
  352SOL     MW 1408   0.755   1.760   2.807 -0.6462 -0.2899  0.1204
  353SOL     OW 1409  -0.005   2.508   2.669  0.3514 -0.4730 -0.1270
  353SOL    HW1 1410   0.071   2.452   2.668  0.5250 -0.2951  0.1699
  353SOL    HW2 1411   0.022   2.582   2.609  0.2645  0.7846 -0.2518
  353SOL     MW 1412   0.009   2.511   2.661  0.3629 -0.2836 -0.1043
  354SOL     OW 1413   0.341   2.459   0.811 -0.5453  0.4439 -0.3452
  354SOL    HW1 1414   0.404   2.423   0.881  2.6173  1.5758 -0.3920
  354SOL    HW2 1415   0.263   2.404   0.810 -0.0006  0.8086  1.5259
  354SOL     MW 1416   0.339   2.447   0.820 -0.0561  0.6413 -0.1045
  355SOL     OW 1417   0.087   2.301   0.364 -0.6823  0.5094 -0.0033
  355SOL    HW1 1418   0.032   2.231   0.377  2.2481 -0.0648  2.4577
  355SOL    HW2 1419   0.088   2.338   0.453 -0.0651 -0.1143  2.6469
  355SOL     MW 1420   0.080   2.297   0.377 -0.2142  0.3514  0.6711
  356SOL     OW 1421   0.770   2.945   1.011 -0.0535 -0.0793 -0.2653
  356SOL    HW1 1422   0.837   2.962   0.945 -0.5634  3.5931  2.1936
  356SOL    HW2 1423   0.699   2.899   0.971  1.2711 -3.1891  0.0757
  356SOL     MW 1424   0.769   2.941   0.997  0.0540 -0.0050  0.1041
  357SOL     OW 1425   1.898   2.805   0.451  0.4285 -0.4838  0.3178
  357SOL    HW1 1426   1.856   2.755   0.523  0.7611 -0.2363  1.0412
  357SOL    HW2 1427   1.984   2.761   0.448 -0.0582 -2.1048 -0.4976
  357SOL     MW 1428   1.904   2.792   0.460  0.4081 -0.6650  0.3057
  358SOL     OW 1429   0.378   0.124   1.031  0.5357 -0.0632  1.1375
  358SOL    HW1 1430   0.478   0.112   1.017  1.5905 -1.5470  1.1682
  358SOL    HW2 1431   0.343   0.180   0.960 -1.1809 -1.1900 -1.7002
  358SOL     MW 1432   0.387   0.130   1.019  0.4484 -0.4077  0.7672
  359SOL     OW 1433   0.867   2.956   1.929 -0.6631  0.3036  0.5390
  359SOL    HW1 1434   0.858   2.865   1.971 -0.8705 -0.8040  1.0794
  359SOL    HW2 1435   0.868   2.929   1.834 -0.8361  0.9168  2.9830
  359SOL     MW 1436   0.866   2.940   1.922 -0.7133  0.2384  0.9328
  360SOL     OW 1437   0.566   2.782   0.898  0.1608  0.3414  0.3484
  360SOL    HW1 1438   0.622   2.774   0.821 -0.1332  3.3870  1.8663
  360SOL    HW2 1439   0.566   2.692   0.933 -0.8795 -1.6985  0.4397
  360SOL     MW 1440   0.574   2.769   0.893 -0.0153  0.4741  0.5607
  361SOL     OW 1441   0.089   2.713   1.318 -0.2825 -0.2630 -0.4585
  361SOL    HW1 1442  -0.001   2.728   1.358  0.3118 -1.5809 -0.5972
  361SOL    HW2 1443   0.153   2.746   1.386  1.6253  1.0419  0.4899
  361SOL     MW 1444   0.086   2.719   1.332  0.0476 -0.2647 -0.3517
  362SOL     OW 1445   1.414   2.435   0.584  0.3616  0.1658  0.1131
  362SOL    HW1 1446   1.464   2.373   0.640  0.5345 -0.9105  1.8946
  362SOL    HW2 1447   1.472   2.512   0.571  0.5655  0.9020 -0.5880
  362SOL     MW 1448   1.428   2.437   0.590  0.4113  0.1209  0.2556
  363SOL     OW 1449   0.335   3.078   0.665 -0.2963 -0.1618  0.3410
  363SOL    HW1 1450   0.331   3.015   0.733  0.1396 -1.5812  1.0166
  363SOL    HW2 1451   0.260   3.056   0.616  0.3516  1.1150 -2.4811
  363SOL     MW 1452   0.324   3.067   0.668 -0.1533 -0.1806  0.0578
  364SOL     OW 1453   0.798   0.262   0.131  0.0907  0.1361  0.1778
  364SOL    HW1 1454   0.742   0.182   0.149 -0.7456 -2.3299 -2.3220
  364SOL    HW2 1455   0.744   0.328   0.089  2.1060 -0.4312  2.4068
  364SOL     MW 1456   0.783   0.260   0.128  0.2463 -0.2641  0.1421
  365SOL     OW 1457   0.921   2.020   1.282  0.1778 -0.1347  0.1034
  365SOL    HW1 1458   0.875   2.100   1.234  1.1985 -0.5405 -3.2117
  365SOL    HW2 1459   0.893   1.949   1.228  0.6961  3.4031  1.2720
  365SOL     MW 1460   0.912   2.021   1.269  0.3809  0.2785 -0.1798
  366SOL     OW 1461   2.856   2.633   0.952 -0.3954 -0.0543  0.7996
  366SOL    HW1 1462   2.940   2.606   0.997  0.2715  0.5765 -3.5195
  366SOL    HW2 1463   2.887   2.650   0.863  0.5317 -1.2658  1.8959
  366SOL     MW 1464   2.871   2.632   0.946 -0.1851 -0.1309  0.3744
  367SOL     OW 1465   1.315   3.077   0.989  0.5109  0.1241 -0.2798
  367SOL    HW1 1466   1.401   3.073   1.022  0.1952 -0.5803 -0.5343
  367SOL    HW2 1467   1.331   3.088   0.900 -0.3368  1.5508  1.9040
  367SOL     MW 1468   1.329   3.078   0.981  0.3574  0.2194 -0.0253
  368SOL     OW 1469   1.773   0.410   0.579  0.3051  0.1859  0.0201
  368SOL    HW1 1470   1.822   0.360   0.522  0.0702  2.4463 -0.3041
  368SOL    HW2 1471   1.752   0.496   0.534  0.1969  3.5957 -0.8477
  368SOL     MW 1472   1.776   0.415   0.565  0.2598  0.9341 -0.1371
  369SOL     OW 1473   0.174   2.482   1.749 -0.5648  0.4622 -0.8653
  369SOL    HW1 1474   0.269   2.487   1.743 -1.0735 -0.9169 -3.0632
  369SOL    HW2 1475   0.142   2.574   1.727 -1.0241 -0.4482  0.8992
  369SOL     MW 1476   0.183   2.495   1.746 -0.6925  0.1601 -0.9225
  370SOL     OW 1477   0.654   0.101   1.037 -0.3645 -0.5218 -0.2888
  370SOL    HW1 1478   0.713   0.133   0.969  1.1129 -1.0021  2.2518
  370SOL    HW2 1479   0.695   0.015   1.063  2.4815  0.1859 -0.4036
  370SOL     MW 1480   0.667   0.094   1.031  0.2059 -0.4918  0.0313
  371SOL     OW 1481   1.097   2.895   1.484 -0.3653  0.0079  0.2960
  371SOL    HW1 1482   1.152   2.826   1.446  0.6378  0.3608  2.1616
  371SOL    HW2 1483   1.096   2.967   1.420 -2.5934 -0.8048  0.6289
  371SOL     MW 1484   1.104   2.895   1.471 -0.5269 -0.0527  0.5860
  372SOL     OW 1485   0.829   2.286   0.463 -0.3066 -0.3107  0.0341
  372SOL    HW1 1486   0.783   2.213   0.507 -0.1856  0.9047 -0.0736
  372SOL    HW2 1487   0.858   2.261   0.372 -1.6082  0.8175 -0.2822
  372SOL     MW 1488   0.826   2.273   0.457 -0.4624 -0.0014 -0.0219
  373SOL     OW 1489   2.812   2.968   1.405 -0.0800  0.2956 -0.1825
  373SOL    HW1 1490   2.864   2.947   1.327 -2.3548 -1.9679  2.1159
  373SOL    HW2 1491   2.778   3.055   1.385  1.0807  1.1360 -0.7176
  373SOL     MW 1492   2.814   2.977   1.392 -0.2270  0.1078  0.0501
  374SOL     OW 1493   1.561   0.454   0.206  0.0072  0.4213  0.2694
  374SOL    HW1 1494   1.647   0.426   0.173 -2.7452  0.8669 -1.4793
  374SOL    HW2 1495   1.546   0.415   0.286  3.0190  0.7011 -0.3311
  374SOL     MW 1496   1.570   0.445   0.212  0.0414  0.5170 -0.0406
  375SOL     OW 1497   1.090   1.980   2.186 -0.4286 -0.7090 -0.3150
  375SOL    HW1 1498   1.125   1.994   2.274 -0.8305  2.6862 -2.4154
  375SOL    HW2 1499   0.993   1.968   2.194  1.0717  1.9437  1.0964
  375SOL     MW 1500   1.082   1.980   2.199 -0.2837  0.0889 -0.4059
  376SOL     OW 1501   0.803   2.533   0.104 -0.7091  0.0289 -0.1341
  376SOL    HW1 1502   0.739   2.471   0.149 -1.9524 -3.8308  2.1598
  376SOL    HW2 1503   0.807   2.491   0.022  1.2139 -3.1743 -0.4729
  376SOL     MW 1504   0.795   2.519   0.099 -0.6194 -0.9030  0.1239
  377SOL     OW 1505   1.318   2.060   0.955  0.0901 -0.8202 -0.4547
  377SOL    HW1 1506   1.239   2.042   0.905 -2.5110  1.0471 -3.0617
  377SOL    HW2 1507   1.284   2.036   1.043  1.5874  2.7936 -0.2079
  377SOL     MW 1508   1.303   2.055   0.960 -0.0555 -0.0970 -0.7661
  378SOL     OW 1509   0.869   2.874   1.666  0.1680 -0.0051  0.1052
  378SOL    HW1 1510   0.865   2.780   1.671  1.8923  1.3691  3.7093
  378SOL    HW2 1511   0.949   2.901   1.612 -0.0369 -1.5950 -0.9894
  378SOL     MW 1512   0.879   2.865   1.659  0.3684 -0.0335  0.4363
  379SOL     OW 1513   1.026   1.519   2.343 -0.0943 -0.3109 -0.3415
  379SOL    HW1 1514   0.974   1.532   2.266  0.4266 -2.3440  1.1214
  379SOL    HW2 1515   1.103   1.516   2.292 -2.7515 -1.2304 -2.1541
  379SOL     MW 1516   1.030   1.520   2.326 -0.3762 -0.7005 -0.3876
  380SOL     OW 1517   0.914   0.194   1.495  0.2034 -0.3377  0.1257
  380SOL    HW1 1518   0.905   0.109   1.452 -0.8060  0.8237 -0.7099
  380SOL    HW2 1519   0.957   0.164   1.571 -1.3871 -2.3972  0.8588
  380SOL     MW 1520   0.919   0.179   1.499 -0.1396 -0.4562  0.1122
  381SOL     OW 1521   0.817   2.022   0.918 -0.0464 -0.4478  0.5161
  381SOL    HW1 1522   0.901   1.998   0.882 -0.9464 -0.3895 -0.1352
  381SOL    HW2 1523   0.824   2.104   0.970  0.9747  0.1635  0.4322
  381SOL     MW 1524   0.829   2.030   0.920 -0.0304 -0.3595  0.4191
  382SOL     OW 1525   0.844   0.118   0.640  0.1566  0.4330 -0.2221
  382SOL    HW1 1526   0.835   0.173   0.715  3.3022  1.3170 -0.3570
  382SOL    HW2 1527   0.794   0.034   0.665 -0.7331 -1.0389  1.4675
  382SOL     MW 1528   0.836   0.114   0.653  0.4542  0.3555 -0.0170
  383SOL     OW 1529   0.660   0.038   0.199 -0.1747  0.0664 -0.4192
  383SOL    HW1 1530   0.711  -0.037   0.157 -2.3077 -0.2058 -2.1454
  383SOL    HW2 1531   0.605  -0.000   0.263  0.3072  1.5463 -4.7675
  383SOL     MW 1532   0.660   0.023   0.202 -0.3926  0.2257 -1.2207
  384SOL     OW 1533   0.835   2.930   0.678  0.6987  0.0992  0.4202
  384SOL    HW1 1534   0.915   2.956   0.724 -0.8074  0.9964 -0.6218
  384SOL    HW2 1535   0.829   2.833   0.682  0.6559 -0.7415 -0.1908
  384SOL     MW 1536   0.845   2.921   0.685  0.4944  0.1067  0.2021
  385SOL     OW 1537   1.386   2.006   1.575  0.8924 -0.8961 -0.0364
  385SOL    HW1 1538   1.459   2.040   1.630  3.1204 -0.6762  1.2898
  385SOL    HW2 1539   1.350   1.936   1.628 -2.5061 -0.6907  0.1496
  385SOL     MW 1540   1.391   2.001   1.589  0.7380 -0.8400  0.1631
  386SOL     OW 1541   1.506   0.407   0.900  0.2012 -0.0738  0.2882
  386SOL    HW1 1542   1.463   0.437   0.980  0.3292  1.2681 -1.4439
  386SOL    HW2 1543   1.573   0.341   0.915 -1.4810  0.2708 -1.8951
  386SOL     MW 1544   1.509   0.402   0.913 -0.0039  0.1487 -0.2284
  387SOL     OW 1545   0.821   2.253   1.574  0.0513 -0.9638  0.3943
  387SOL    HW1 1546   0.895   2.317   1.539  0.7624  2.0002 -0.7318
  387SOL    HW2 1547   0.836   2.173   1.530 -0.2352 -0.3639  0.7169
  387SOL     MW 1548   0.833   2.250   1.563  0.1073 -0.4936  0.2883
  388SOL     OW 1549   1.504   2.791   1.518 -0.0093  0.3813 -0.4779
  388SOL    HW1 1550   1.441   2.837   1.459 -0.0808 -0.2032  0.3455
  388SOL    HW2 1551   1.547   2.726   1.461  0.4609 -1.2526 -0.1455
  388SOL     MW 1552   1.502   2.788   1.503  0.0433  0.0886 -0.3254
  389SOL     OW 1553   0.394   0.131   3.076 -0.2829  0.5379  0.3429
  389SOL    HW1 1554   0.466   0.067   3.056  1.4824 -2.3635 -0.4850
  389SOL    HW2 1555   0.402   0.206   3.014  1.9886  0.9080  0.9043
  389SOL     MW 1556   0.405   0.133   3.065  0.2497  0.2039  0.3077
  390SOL     OW 1557   1.360   3.092   0.706 -0.1826  0.1738  0.1734
  390SOL    HW1 1558   1.345   3.049   0.620  1.9940  0.1667  1.9043
  390SOL    HW2 1559   1.432   3.158   0.700  3.4304  1.7740  2.6225
  390SOL     MW 1560   1.367   3.095   0.694  0.5813  0.3840  0.7249
  391SOL     OW 1561   0.337   2.235   1.475  0.3574  0.6694 -0.7867
  391SOL    HW1 1562   0.296   2.220   1.560 -1.3408  0.4849 -0.3963
  391SOL    HW2 1563   0.288   2.316   1.445 -0.3015 -1.0515  1.3140
  391SOL     MW 1564   0.325   2.244   1.482  0.0464  0.4180 -0.4581
  392SOL     OW 1565   1.928   2.114   0.268 -0.2709  0.2818 -0.7113
  392SOL    HW1 1566   1.962   2.188   0.325  0.5340  0.1192 -2.0920
  392SOL    HW2 1567   1.838   2.138   0.242 -1.5542 -1.0569  3.3102
  392SOL     MW 1568   1.921   2.127   0.272 -0.3340  0.0837 -0.3628
  393SOL     OW 1569   0.245   2.993   2.777 -0.3156  0.9654 -0.3680
  393SOL    HW1 1570   0.331   2.992   2.742  0.3293  0.0988  0.9669
  393SOL    HW2 1571   0.230   3.088   2.775  2.0701  0.1067  1.0097
  393SOL     MW 1572   0.255   3.006   2.772  0.0843  0.7377 -0.0101
  394SOL     OW 1573   0.974   1.767   1.640  0.1183  0.4155  0.2136
  394SOL    HW1 1574   0.996   1.772   1.738 -0.9137 -0.1257  2.3909
  394SOL    HW2 1575   0.928   1.851   1.622 -0.4085  2.1411  1.7900
  394SOL     MW 1576   0.971   1.779   1.651 -0.0873  0.5718  0.7089
  395SOL     OW 1577   0.929   2.935   2.697 -0.4721  0.2651 -0.0860
  395SOL    HW1 1578   0.968   3.009   2.737 -1.0245 -4.0571 -0.9142
  395SOL    HW2 1579   0.998   2.873   2.673 -0.1445 -0.1729  0.1848
  395SOL     MW 1580   0.943   2.936   2.699 -0.5018 -0.3629 -0.1595
  396SOL     OW 1581   0.712   1.877   2.451 -0.6876 -0.0375  0.1308
  396SOL    HW1 1582   0.803   1.890   2.476 -0.5720  1.1472  0.0211
  396SOL    HW2 1583   0.691   1.790   2.486  2.8853 -0.7612  1.8803
  396SOL     MW 1584   0.721   1.867   2.459 -0.2009  0.0233  0.3471
  397SOL     OW 1585   1.052   2.329   1.438  0.0919  0.1352  0.6718
  397SOL    HW1 1586   1.074   2.352   1.348 -1.4670  3.5841  0.4971
  397SOL    HW2 1587   1.131   2.293   1.465 -2.9450  0.1916 -0.8343
  397SOL     MW 1588   1.065   2.327   1.430 -0.5145  0.5977  0.4500
  398SOL     OW 1589   0.716   2.657   0.700 -0.2526 -0.4780 -0.0557
  398SOL    HW1 1590   0.683   2.660   0.613 -2.3029 -2.3269  0.5271
  398SOL    HW2 1591   0.776   2.581   0.706 -0.6383  1.0937 -2.2471
  398SOL     MW 1592   0.720   2.647   0.689 -0.5740 -0.5146 -0.2679
  399SOL     OW 1593   0.339   2.113   0.351  0.2581 -0.1078 -0.1189
  399SOL    HW1 1594   0.274   2.175   0.377 -0.0405  1.4114  0.2431
  399SOL    HW2 1595   0.377   2.154   0.277  1.3066  1.2887  0.4963
  399SOL     MW 1596   0.335   2.126   0.345  0.3571  0.2769  0.0101
  400SOL     OW 1597   0.639   1.965   0.143  0.4254  0.4689 -0.2385
  400SOL    HW1 1598   0.577   2.031   0.162  2.4366  0.5699  1.3130
  400SOL    HW2 1599   0.593   1.894   0.183  1.6519 -2.2339  0.0761
  400SOL     MW 1600   0.625   1.964   0.151  0.8526  0.1256  0.0077
  401SOL     OW 1601   0.875   2.048   0.043  1.1222  0.2837  0.1403
  401SOL    HW1 1602   0.937   1.977   0.071  0.5436 -3.5418  0.7740
  401SOL    HW2 1603   0.793   2.001   0.054 -0.9714 -1.5428  0.1770
  401SOL     MW 1604   0.873   2.033   0.048  0.7696 -0.4620  0.2288
  402SOL     OW 1605   0.579   3.023   1.865 -0.0588 -0.9107  0.1390
  402SOL    HW1 1606   0.660   3.061   1.902 -0.7917 -1.4649 -0.9717
  402SOL    HW2 1607   0.577   3.056   1.778  0.1172  4.1273  2.9650
  402SOL     MW 1608   0.589   3.032   1.859 -0.1323 -0.3191  0.3653
  403SOL     OW 1609   0.136   0.511   0.440 -0.1150 -0.2689 -0.1380
  403SOL    HW1 1610   0.216   0.535   0.484 -3.5434  2.0290 -2.3979
  403SOL    HW2 1611   0.156   0.458   0.360 -0.8779  0.7458 -2.9318
  403SOL     MW 1612   0.149   0.507   0.435 -0.6680  0.1682 -0.8048
  404SOL     OW 1613   1.031   2.994   0.854  0.0759 -0.0901  0.8842
  404SOL    HW1 1614   1.092   2.923   0.834  2.4837  0.2688 -0.6338
  404SOL    HW2 1615   1.078   3.076   0.823  3.9888 -0.4715 -0.3929
  404SOL     MW 1616   1.045   2.995   0.848  0.9098 -0.0930  0.5154
  405SOL     OW 1617   0.476   2.499   1.465 -0.5630 -0.0351 -0.5738
  405SOL    HW1 1618   0.506   2.583   1.426  1.6315  1.6680  1.4149
  405SOL    HW2 1619   0.521   2.430   1.423 -1.5044  1.3795  0.3341
  405SOL     MW 1620   0.486   2.501   1.454 -0.3976  0.3762 -0.1916
  406SOL     OW 1621   0.425   2.336   1.056 -0.2364  0.3060  0.0847
  406SOL    HW1 1622   0.330   2.361   1.060  0.6464  0.2206  3.5355
  406SOL    HW2 1623   0.440   2.273   1.126 -0.4550 -1.2103  1.4402
  406SOL     MW 1624   0.415   2.331   1.065 -0.1488  0.0947  0.7189
  407SOL     OW 1625   0.018   2.643   1.069 -0.3014  0.7498  0.3271
  407SOL    HW1 1626   0.065   2.673   1.149  0.1480  1.8217  2.5879
  407SOL    HW2 1627   0.060   2.670   0.987  0.2363  1.0213  0.9603
  407SOL     MW 1628   0.030   2.651   1.069 -0.1712  0.9271  0.7089
  408SOL     OW 1629   2.092   2.203   0.732 -0.3166 -0.3186  0.1707
  408SOL    HW1 1630   2.036   2.241   0.800  0.8670  1.3180 -1.2823
  408SOL    HW2 1631   2.032   2.142   0.682 -2.4938 -1.2472  0.4503
  408SOL     MW 1632   2.077   2.200   0.734 -0.4477 -0.2252  0.0159
  409SOL     OW 1633   1.611   0.069   0.828 -1.0415 -0.7301  0.3930
  409SOL    HW1 1634   1.670   0.146   0.840 -2.1533 -0.7906 -0.1505
  409SOL    HW2 1635   1.598   0.037   0.920  1.5584 -1.5959 -1.9256
  409SOL     MW 1636   1.617   0.075   0.842 -0.8452 -0.8523  0.0153
  410SOL     OW 1637   1.098   2.486   1.181  0.0125  0.6385 -0.0217
  410SOL    HW1 1638   1.037   2.509   1.107 -0.4336  0.0275 -2.1330
  410SOL    HW2 1639   1.174   2.441   1.146 -2.6320  1.0378  0.5524
  410SOL     MW 1640   1.100   2.483   1.167 -0.3953  0.6106 -0.2245
  411SOL     OW 1641   1.991   2.940   2.935  0.1427  0.0226 -0.1450
  411SOL    HW1 1642   1.949   2.923   2.855  0.2571 -0.1405  0.8482
  411SOL    HW2 1643   1.969   3.033   2.962 -0.9250 -0.0789 -1.0627
  411SOL     MW 1644   1.982   2.950   2.928  0.0169 -0.0123 -0.1351
  412SOL     OW 1645   1.101   2.220   0.632 -0.2084 -0.5172 -0.7328
  412SOL    HW1 1646   1.106   2.308   0.665 -0.5048 -0.3421  0.1387
  412SOL    HW2 1647   1.021   2.226   0.585  2.9125  0.5091 -0.4708
  412SOL     MW 1648   1.091   2.232   0.630  0.1643 -0.3587 -0.5832
  413SOL     OW 1649   0.566   2.669   0.061  0.5888  0.4674 -0.3655
  413SOL    HW1 1650   0.631   2.615   0.096 -1.6524  0.7969 -2.4496
  413SOL    HW2 1651   0.566   2.650  -0.034  1.2055 -1.5335 -0.5449
  413SOL     MW 1652   0.574   2.659   0.053  0.3745  0.2469 -0.6642
  414SOL     OW 1653   2.082   3.052   1.103 -0.0012  0.4141  0.5903
  414SOL    HW1 1654   2.178   3.064   1.104  2.2382  1.7549  0.2410
  414SOL    HW2 1655   2.063   3.071   1.011 -0.4821  2.6155  1.4352
  414SOL     MW 1656   2.092   3.056   1.091  0.2308  0.8814  0.6557
  415SOL     OW 1657   1.667   2.860   1.220  0.7425  0.8369  0.6323
  415SOL    HW1 1658   1.707   2.838   1.303 -0.1810 -1.4419 -1.6432
  415SOL    HW2 1659   1.707   2.797   1.153  0.8353  0.9759 -2.3326
  415SOL     MW 1660   1.677   2.849   1.222  0.6329  0.5545 -0.0591
  416SOL     OW 1661   0.658   1.750   1.483 -1.0695 -0.2697  0.2790
  416SOL    HW1 1662   0.573   1.779   1.467  2.8722 -0.2406  3.9848
  416SOL    HW2 1663   0.680   1.663   1.440 -1.6679 -1.6334  0.3479
  416SOL     MW 1664   0.650   1.742   1.475 -0.6284 -0.4458  0.7770
  417SOL     OW 1665   0.931   0.055   2.110 -0.1765 -0.8204  0.3990
  417SOL    HW1 1666   0.877   0.034   2.189  0.3122 -1.3214  1.6487
  417SOL    HW2 1667   0.900  -0.023   2.056 -2.6862 -1.8663 -1.7145
  417SOL     MW 1668   0.920   0.042   2.113 -0.4432 -1.0245  0.2850
  418SOL     OW 1669   0.762   2.890   0.143  0.2110  0.9996 -0.4830
  418SOL    HW1 1670   0.841   2.873   0.089 -1.0466 -2.8715  0.7370
  418SOL    HW2 1671   0.706   2.830   0.098  0.5379 -1.5639  0.2574
  418SOL     MW 1672   0.765   2.880   0.130  0.0882  0.1506 -0.2244
  419SOL     OW 1673   0.613   2.713   1.280 -0.0547  0.2430 -0.7235
  419SOL    HW1 1674   0.598   2.802   1.315 -2.1043 -0.1813  0.2394
  419SOL    HW2 1675   0.695   2.685   1.313  0.6253 -4.0319 -0.8777
  419SOL     MW 1676   0.622   2.721   1.289 -0.2354 -0.3770 -0.6168
  420SOL     OW 1677   0.820   2.239   1.135 -0.2789  0.2036 -0.3518
  420SOL    HW1 1678   0.758   2.269   1.198  0.3950 -0.5709  0.4224
  420SOL    HW2 1679   0.842   2.318   1.087 -1.3648  0.0687 -0.7399
  420SOL     MW 1680   0.815   2.253   1.137 -0.3333  0.0836 -0.3008
  421SOL     OW 1681   2.916   0.129   0.027 -0.2906  0.0743 -0.7232
  421SOL    HW1 1682   2.827   0.102   0.007  1.4237  2.1361 -0.3628
  421SOL    HW2 1683   2.973   0.059   0.055  2.9669 -1.3729  0.6170
  421SOL     MW 1684   2.912   0.116   0.028  0.3654  0.1554 -0.4988
  422SOL     OW 1685   0.871   2.452   0.987 -0.0841  0.0239  0.4423
  422SOL    HW1 1686   0.784   2.489   0.990 -1.0422  1.1796 -1.1360
  422SOL    HW2 1687   0.886   2.429   0.897  1.4090  0.1299 -0.9813
  422SOL     MW 1688   0.861   2.454   0.976 -0.0135  0.1904  0.0462
  423SOL     OW 1689   1.565   0.060   0.449 -0.2656  0.0916 -0.5195
  423SOL    HW1 1690   1.573   0.023   0.358 -2.3199 -4.2026  0.2470
  423SOL    HW2 1691   1.559   0.154   0.457 -0.2163  0.7109 -0.1882
  423SOL     MW 1692   1.565   0.068   0.438 -0.5302 -0.3933 -0.3747
  424SOL     OW 1693   0.645   2.323   1.341 -0.0690  0.1920 -0.4013
  424SOL    HW1 1694   0.576   2.257   1.334  2.0426 -0.7125 -2.4915
  424SOL    HW2 1695   0.696   2.300   1.423  1.2838 -0.8792  0.1599
  424SOL     MW 1696   0.643   2.311   1.351  0.3881 -0.0687 -0.6030
  425SOL     OW 1697   1.763   2.795   2.039 -0.2067 -0.0693 -0.1062
  425SOL    HW1 1698   1.764   2.826   1.947  1.3223 -1.4208  1.5977
  425SOL    HW2 1699   1.795   2.705   2.030  0.2394 -0.6551  0.4964
  425SOL     MW 1700   1.767   2.787   2.025  0.0539 -0.3249  0.1981
  426SOL     OW 1701   0.807   1.752   1.978  0.1841  0.0884  0.8081
  426SOL    HW1 1702   0.744   1.785   1.907  0.9189 -0.9803 -0.4717
  426SOL    HW2 1703   0.811   1.832   2.034  1.0881  2.5047  0.5968
  426SOL     MW 1704   0.799   1.767   1.976  0.4004  0.2662  0.6113
  427SOL     OW 1705   0.392   1.763   1.903  0.1217 -0.3340  1.0381
  427SOL    HW1 1706   0.425   1.694   1.853  0.3526 -1.9179 -0.9053
  427SOL    HW2 1707   0.356   1.718   1.981  0.4862 -0.0076  0.6910
  427SOL     MW 1708   0.392   1.748   1.907  0.2003 -0.4999  0.7359
  428SOL     OW 1709   0.606   2.534   1.044 -0.4819  0.3353  0.4210
  428SOL    HW1 1710   0.535   2.472   1.041 -0.3392  0.0438 -0.2046
  428SOL    HW2 1711   0.582   2.610   1.098 -0.1627 -0.9622 -1.8245
  428SOL     MW 1712   0.594   2.536   1.051 -0.4210  0.1256  0.0422
  429SOL     OW 1713   1.232   2.813   1.073 -0.6170 -0.1377  0.0504
  429SOL    HW1 1714   1.145   2.818   1.117 -3.3443  2.2804 -1.5197
  429SOL    HW2 1715   1.257   2.907   1.048 -2.5680 -1.3150 -0.0752
  429SOL     MW 1716   1.224   2.826   1.076 -1.2343  0.0260 -0.1733
  430SOL     OW 1717   1.203   2.786   0.782 -0.1864 -0.4494  0.0577
  430SOL    HW1 1718   1.190   2.718   0.850  2.3380  0.8154  0.7434
  430SOL    HW2 1719   1.173   2.735   0.701  0.7427 -0.8781 -4.1373
  430SOL     MW 1720   1.197   2.771   0.780  0.2692 -0.3391 -0.4053
  431SOL     OW 1721   0.380   1.876   1.091  0.5915  0.0030 -0.3942
  431SOL    HW1 1722   0.422   1.790   1.101 -1.3386  0.5218 -2.1426
  431SOL    HW2 1723   0.401   1.885   0.995  2.9962  0.2840 -1.6767
  431SOL     MW 1724   0.388   1.866   1.079  0.6541  0.1085 -0.7941
  432SOL     OW 1725   0.023   3.081   1.115 -0.1915 -0.3064  0.1309
  432SOL    HW1 1726   0.028   3.130   1.205 -0.7473  2.4063  1.4982
  432SOL    HW2 1727  -0.063   3.049   1.127  2.9364  1.5304 -1.1045
  432SOL     MW 1728   0.012   3.083   1.128  0.1478  0.2938  0.1483
  433SOL     OW 1729   0.612   2.951   1.480 -0.3836  0.2204 -0.1076
  433SOL    HW1 1730   0.612   3.045   1.505 -1.1882  0.1722  0.0310
  433SOL    HW2 1731   0.681   2.910   1.524 -1.6982 -0.0921 -0.8569
  433SOL     MW 1732   0.621   2.958   1.489 -0.6632  0.1728 -0.1882
  434SOL     OW 1733   1.505   2.803   1.806  0.2063 -0.5024  0.1001
  434SOL    HW1 1734   1.465   2.832   1.885 -0.0520 -0.4507 -0.8546
  434SOL    HW2 1735   1.449   2.839   1.739 -0.7241 -1.0067 -2.0429
  434SOL     MW 1736   1.492   2.811   1.807  0.0495 -0.5621 -0.3086
  435SOL     OW 1737   2.748   1.832   0.315  0.4257  0.6314  0.4794
  435SOL    HW1 1738   2.808   1.825   0.236  1.2445 -1.6491 -1.1910
  435SOL    HW2 1739   2.663   1.828   0.270 -0.6244  2.7801 -2.6565
  435SOL     MW 1740   2.745   1.830   0.299  0.3952  0.6140 -0.1547
  436SOL     OW 1741   1.422   2.759   0.336  1.1386 -1.0369  0.1236
  436SOL    HW1 1742   1.484   2.751   0.405 -1.7339 -1.1552 -5.2854
  436SOL    HW2 1743   1.385   2.848   0.339  2.4027  0.7097 -1.2273
  436SOL     MW 1744   1.425   2.770   0.346  0.9264 -0.8221 -0.7683
  437SOL     OW 1745   0.882   3.088   1.309  0.4430 -0.0677 -0.0485
  437SOL    HW1 1746   0.942   3.125   1.239 -0.6194  0.7190 -1.2492
  437SOL    HW2 1747   0.889   2.993   1.292  0.6840 -3.1448  1.7143
  437SOL     MW 1748   0.891   3.081   1.297  0.3346 -0.3699  0.0257
  438SOL     OW 1749   0.823   2.693   2.042 -0.2444  0.4273  0.0969
  438SOL    HW1 1750   0.852   2.630   2.109 -1.4030  1.0429 -0.2984
  438SOL    HW2 1751   0.768   2.632   1.981  1.1795 -2.2257 -1.8506
  438SOL     MW 1752   0.820   2.677   2.043 -0.2094  0.1585 -0.2122
  439SOL     OW 1753   1.213   2.085   0.401  0.4260  0.2579 -0.2120
  439SOL    HW1 1754   1.191   2.102   0.494  1.5947  0.8746  1.3005
  439SOL    HW2 1755   1.193   2.168   0.362  1.3230 -1.0578  0.5914
  439SOL     MW 1756   1.207   2.098   0.408  0.6986  0.1657  0.0935
  440SOL     OW 1757   1.836   2.762   3.060  0.0019  0.5649  0.4848
  440SOL    HW1 1758   1.813   2.792   3.151  0.7767  0.0602 -2.0293
  440SOL    HW2 1759   1.907   2.812   3.026 -0.2028  0.3214 -2.1053
  440SOL     MW 1760   1.842   2.773   3.068  0.0771  0.4661 -0.1886
  441SOL     OW 1761   0.502   2.720   0.472 -0.0060  0.1997 -0.1004
  441SOL    HW1 1762   0.434   2.685   0.415 -0.1023  2.9588  1.1875
  441SOL    HW2 1763   0.503   2.821   0.455  1.6290 -0.2715  2.1364
  441SOL     MW 1764   0.493   2.729   0.463  0.1970  0.5016  0.3646
  442SOL     OW 1765   0.006   2.386   0.602 -0.2160 -1.0567 -0.3460
  442SOL    HW1 1766  -0.004   2.478   0.616 -1.9764  1.2242 -0.9943
  442SOL    HW2 1767  -0.067   2.349   0.654  0.5901 -1.2521  0.3731
  442SOL     MW 1768  -0.005   2.393   0.611 -0.3419 -0.7816 -0.3366
  443SOL     OW 1769   1.475   1.750   1.953 -0.1244 -0.2849  0.8148
  443SOL    HW1 1770   1.414   1.765   1.880  2.3382 -2.0621 -1.3969
  443SOL    HW2 1771   1.467   1.652   1.959  3.2187  2.3661 -1.6940
  443SOL     MW 1772   1.466   1.739   1.944  0.6416 -0.1696  0.1920
  444SOL     OW 1773   0.865   2.588   1.643 -0.2127  0.1626  0.3517
  444SOL    HW1 1774   0.956   2.562   1.666  0.6288  1.8647  1.7198
  444SOL    HW2 1775   0.809   2.553   1.716 -0.4558  0.0402 -0.1574
  444SOL     MW 1776   0.870   2.580   1.656 -0.1338  0.3710  0.4651
  445SOL     OW 1777   1.215   0.100   1.442  0.7504  0.5535  0.3709
  445SOL    HW1 1778   1.129   0.123   1.472  0.7669  0.8768  0.1882
  445SOL    HW2 1779   1.221   0.147   1.357 -3.1389 -1.1760 -1.5332
  445SOL     MW 1780   1.205   0.109   1.435  0.2394  0.3679  0.0956
  446SOL     OW 1781   2.674   2.813   1.031 -0.1441  0.5126 -0.5709
  446SOL    HW1 1782   2.652   2.857   0.944 -1.7671 -1.1408 -0.8743
  446SOL    HW2 1783   2.733   2.743   1.002  0.4280  0.5734 -2.7655
  446SOL     MW 1784   2.679   2.809   1.015 -0.2828  0.3025 -0.9005
  447SOL     OW 1785   0.056   1.963   1.592  0.4366  0.3076  0.5670
  447SOL    HW1 1786   0.084   1.909   1.669 -0.1544  0.5441  0.2621
  447SOL    HW2 1787  -0.014   1.916   1.546 -3.7802  0.1218 -0.5923
  447SOL     MW 1788   0.050   1.950   1.596 -0.1978  0.3143  0.3738
  448SOL     OW 1789   1.754   2.374   1.687  1.0008  0.1824  0.3092
  448SOL    HW1 1790   1.683   2.317   1.656  1.2806  0.7790 -0.9869
  448SOL    HW2 1791   1.709   2.448   1.727  0.4865 -2.5712  0.0780
  448SOL     MW 1792   1.738   2.376   1.688  0.9698 -0.1022  0.1077
  449SOL     OW 1793   0.923   2.908   0.383 -0.0734  0.1145  0.0043
  449SOL    HW1 1794   0.854   2.881   0.318 -1.7777 -0.4414  2.3743
  449SOL    HW2 1795   0.877   2.960   0.445 -0.4919 -2.8069  0.7750
  449SOL     MW 1796   0.908   2.912   0.382 -0.3535 -0.3443  0.4187
  450SOL     OW 1797   1.224   2.487   0.755  0.0626  0.3115  0.6356
  450SOL    HW1 1798   1.255   2.427   0.826  0.9472 -0.1585  1.8517
  450SOL    HW2 1799   1.296   2.473   0.684 -0.2205  1.3318 -0.5584
  450SOL     MW 1800   1.237   2.477   0.755  0.1419  0.3841  0.6385
  451SOL     OW 1801   0.580   2.027   1.655  0.0665  0.0593 -0.4071
  451SOL    HW1 1802   0.670   2.031   1.629  1.2251  0.3221  0.4436
  451SOL    HW2 1803   0.521   2.005   1.581  0.6256 -0.4623 -0.9897
  451SOL     MW 1804   0.584   2.024   1.642  0.2931  0.0252 -0.3717
  452SOL     OW 1805   0.310   2.635   0.008 -0.4957  0.1601  0.0886
  452SOL    HW1 1806   0.405   2.655   0.025 -0.0686 -0.8182  1.5277
  452SOL    HW2 1807   0.254   2.701  -0.022 -2.9821 -1.6884  2.5969
  452SOL     MW 1808   0.315   2.646   0.006 -0.7674 -0.2129  0.6094
  453SOL     OW 1809   0.199   2.999   1.603 -0.0269 -0.5266  0.1543
  453SOL    HW1 1810   0.223   2.953   1.683 -0.0135  4.3526  2.6001
  453SOL    HW2 1811   0.248   2.956   1.530 -0.2578 -2.0868 -0.3643
  453SOL     MW 1812   0.209   2.987   1.604 -0.0556 -0.0887  0.4086
  454SOL     OW 1813   0.970   2.842   1.165  0.4943  0.3695  0.5096
  454SOL    HW1 1814   0.947   2.781   1.232  3.1847  1.4681 -1.2496
  454SOL    HW2 1815   0.888   2.869   1.115 -0.3519 -1.8048 -0.2186
  454SOL     MW 1816   0.956   2.838   1.167  0.7376  0.2276  0.1814
  455SOL     OW 1817   1.732   2.818   0.212 -0.4212 -0.1472  0.4571
  455SOL    HW1 1818   1.787   2.813   0.289 -2.5137 -0.8408 -1.8712
  455SOL    HW2 1819   1.664   2.752   0.218 -0.2568  1.9607 -1.3290
  455SOL     MW 1820   1.730   2.809   0.223 -0.6756  0.0394 -0.0858
  456SOL     OW 1821   2.804   0.225   1.438  0.3970 -0.0569 -0.0553
  456SOL    HW1 1822   2.771   0.207   1.347 -2.3957 -0.2892 -0.2294
  456SOL    HW2 1823   2.798   0.318   1.449  0.1332 -0.1482 -0.0601
  456SOL     MW 1824   2.799   0.235   1.428 -0.0063 -0.0996 -0.0789
  457SOL     OW 1825   0.802   1.598   3.042 -0.5078 -0.3518 -0.0793
  457SOL    HW1 1826   0.701   1.579   3.052 -1.5315 -0.7302  1.6517
  457SOL    HW2 1827   0.816   1.648   3.121  0.4797  0.1369 -0.8296
  457SOL     MW 1828   0.791   1.602   3.053 -0.5126 -0.3372  0.0501
  458SOL     OW 1829   1.344   1.517   0.681  0.3979 -0.1388 -0.1277
  458SOL    HW1 1830   1.261   1.545   0.720 -2.7017  2.1169 -0.2193
  458SOL    HW2 1831   1.311   1.425   0.650  0.5628 -1.3451  2.0394
  458SOL     MW 1832   1.329   1.509   0.682  0.0107 -0.0004  0.1461
  459SOL     OW 1833   1.595   3.048   0.200 -0.2048  0.2610 -0.5050
  459SOL    HW1 1834   1.640   2.964   0.191 -2.1346  1.3282 -1.6230
  459SOL    HW2 1835   1.541   3.075   0.122  0.3266 -0.0183  1.5739
  459SOL     MW 1836   1.594   3.041   0.188 -0.3893  0.3650 -0.3782
  460SOL     OW 1837   1.745   2.257   0.651 -0.1857  0.2518 -0.1050
  460SOL    HW1 1838   1.665   2.225   0.684  0.3461  4.3788  1.6373
  460SOL    HW2 1839   1.807   2.187   0.652 -0.0465  3.0186  0.6548
  460SOL     MW 1840   1.743   2.243   0.655 -0.0972  1.1613  0.2251
  461SOL     OW 1841   0.489   2.413   0.583  0.8215  0.2802  0.9224
  461SOL    HW1 1842   0.474   2.479   0.515 -1.1171  0.5096 -1.6873
  461SOL    HW2 1843   0.434   2.445   0.655 -2.5400  0.5662  0.7075
  461SOL     MW 1844   0.479   2.426   0.583  0.1222  0.3482  0.5497
  462SOL     OW 1845   0.334   0.244   1.263 -0.3010  0.0524 -0.6358
  462SOL    HW1 1846   0.349   0.199   1.179 -0.5871 -1.8829  2.6345
  462SOL    HW2 1847   0.408   0.236   1.322 -2.1459 -3.7590 -1.0639
  462SOL     MW 1848   0.346   0.237   1.260 -0.5822 -0.7058 -0.2608
  463SOL     OW 1849   1.109   0.119   0.729 -0.2883  0.0909  0.2998
  463SOL    HW1 1850   1.179   0.078   0.683 -0.4254  2.7457 -2.8468
  463SOL    HW2 1851   1.029   0.109   0.672 -0.6567  0.4604 -3.1649
  463SOL     MW 1852   1.107   0.112   0.715 -0.3550  0.4899 -0.5725
  464SOL     OW 1853   0.731   3.069   2.318  0.2403  0.2346 -0.2898
  464SOL    HW1 1854   0.738   2.969   2.313  3.4807  1.4287 -2.8939
  464SOL    HW2 1855   0.728   3.103   2.406  1.4273  1.2441 -0.7564
  464SOL     MW 1856   0.732   3.060   2.329  0.8245  0.5253 -0.6950
  465SOL     OW 1857   0.853   0.318   0.436 -0.5722 -0.5643  0.4293
  465SOL    HW1 1858   0.828   0.258   0.509  2.3358  1.9906  1.8318
  465SOL    HW2 1859   0.807   0.301   0.355 -2.2992  0.7584  1.9725
  465SOL     MW 1860   0.844   0.308   0.435 -0.4164 -0.0527  0.8180
  466SOL     OW 1861   1.078   2.010   0.804 -0.8449 -0.6803  0.3122
  466SOL    HW1 1862   1.055   1.919   0.763  1.1303 -1.8741 -2.5525
  466SOL    HW2 1863   1.086   2.077   0.731 -1.5635  0.0220 -2.1185
  466SOL     MW 1864   1.076   2.007   0.789 -0.6791 -0.7452 -0.3865
  467SOL     OW 1865   1.299   2.330   1.074  0.0290  0.0753  0.4739
  467SOL    HW1 1866   1.392   2.350   1.084 -1.7447  1.1261 -2.9569
  467SOL    HW2 1867   1.299   2.237   1.045 -1.1990  0.1837 -1.4875
  467SOL     MW 1868   1.312   2.320   1.072 -0.3670  0.2283 -0.2376
  468SOL     OW 1869   0.388   2.631   1.958 -0.5643 -0.2637  0.0770
  468SOL    HW1 1870   0.392   2.555   1.902  1.0503 -3.2429 -2.1626
  468SOL    HW2 1871   0.364   2.713   1.908 -1.4161  2.7819 -3.3890
  468SOL     MW 1872   0.386   2.632   1.944 -0.4637 -0.2549 -0.6758
  469SOL     OW 1873   0.353   2.177   1.771  0.8330 -0.1158 -0.3807
  469SOL    HW1 1874   0.273   2.128   1.763 -2.0742  0.2749 -0.4953
  469SOL    HW2 1875   0.425   2.113   1.758  0.0224  0.8330 -1.1904
  469SOL     MW 1876   0.352   2.162   1.768  0.3425  0.0610 -0.5027
  470SOL     OW 1877   3.065   2.614   0.105  0.6910  0.5716 -0.5517
  470SOL    HW1 1878   2.979   2.599   0.153 -2.3964 -1.6961 -1.1388
  470SOL    HW2 1879   3.050   2.587   0.015  0.3977 -1.0576 -0.3310
  470SOL     MW 1880   3.052   2.608   0.099  0.2450  0.0574 -0.6000
  471SOL     OW 1881   1.245   2.681   1.392 -0.2039  0.0596  0.3211
  471SOL    HW1 1882   1.179   2.617   1.365  2.3223 -1.1031 -1.1693
  471SOL    HW2 1883   1.309   2.685   1.320 -0.4740 -2.8787 -1.2679
  471SOL     MW 1884   1.244   2.673   1.379  0.0938 -0.4815 -0.0852
  472SOL     OW 1885   2.972   2.114   0.392  0.1346 -0.1585  0.3416
  472SOL    HW1 1886   2.965   2.073   0.303 -1.5181  1.1349 -1.0436
  472SOL    HW2 1887   2.918   2.063   0.462 -0.8963 -0.4991 -1.7277
  472SOL     MW 1888   2.964   2.102   0.389 -0.2195 -0.0328 -0.1142
  473SOL     OW 1889   0.891   2.604   1.364  0.0661  0.5120  0.1554
  473SOL    HW1 1890   0.917   2.538   1.300 -1.7748  3.3720 -2.4456
  473SOL    HW2 1891   0.876   2.557   1.449  2.0219  1.4676 -1.8777
  473SOL     MW 1892   0.893   2.589   1.367  0.0813  1.0154 -0.4560
  474SOL     OW 1893   0.806   2.254   1.864  0.2316  0.2534  0.1459
  474SOL    HW1 1894   0.899   2.264   1.901  1.9507 -1.0785 -2.2606
  474SOL    HW2 1895   0.817   2.267   1.762 -0.5935 -0.7353 -2.1231
  474SOL     MW 1896   0.820   2.257   1.855  0.3495 -0.0528 -0.4710
  475SOL     OW 1897   1.594   3.089   1.559 -0.0618 -0.3773  0.0546
  475SOL    HW1 1898   1.533   3.026   1.511 -0.6951 -2.2837  1.1964
  475SOL    HW2 1899   1.639   3.022   1.611 -0.2140  1.4128  3.1563
  475SOL     MW 1900   1.592   3.072   1.560 -0.1654 -0.3926  0.6145
  476SOL     OW 1901   1.468   2.685   1.200  0.1275  0.0394  0.0388
  476SOL    HW1 1902   1.420   2.706   1.122 -0.5633  1.8417  2.7911
  476SOL    HW2 1903   1.534   2.753   1.212 -0.6437 -1.1601 -0.1510
  476SOL     MW 1904   1.470   2.697   1.191 -0.0654  0.1190  0.3769
  477SOL     OW 1905   0.897   2.455   0.701  0.9840  0.0875  1.0620
  477SOL    HW1 1906   0.947   2.533   0.673  1.5131 -2.1692  1.3477
  477SOL    HW2 1907   0.871   2.410   0.622  2.0123 -0.9410  1.2651
  477SOL     MW 1908   0.900   2.459   0.687  1.1895 -0.3460  1.1265
  478SOL     OW 1909   0.150   2.680   0.828 -0.2763 -0.2344 -0.3344
  478SOL    HW1 1910   0.195   2.765   0.834 -0.2071  1.6407 -0.5660
  478SOL    HW2 1911   0.218   2.616   0.840 -1.5685 -0.5931 -0.3823
  478SOL     MW 1912   0.165   2.683   0.830 -0.4377 -0.0343 -0.3713
  479SOL     OW 1913   1.400   1.985   1.308  0.1731  0.0383 -0.0362
  479SOL    HW1 1914   1.412   1.992   1.405 -1.1350  0.2884 -0.7358
  479SOL    HW2 1915   1.429   1.902   1.280  1.0927  2.0140  0.9480
  479SOL     MW 1916   1.405   1.975   1.317  0.1218  0.3320  0.0014
  480SOL     OW 1917   1.901   2.456   1.337  0.2331  0.1676 -0.3239
  480SOL    HW1 1918   1.964   2.411   1.399  1.5802 -3.2929  0.8726
  480SOL    HW2 1919   1.925   2.432   1.247 -1.7364  1.5148 -0.5396
  480SOL     MW 1920   1.913   2.447   1.333  0.1510 -0.1112 -0.1945
  481SOL     OW 1921   1.041   0.062   1.099 -1.0979 -0.2746 -0.1156
  481SOL    HW1 1922   1.017   0.002   1.028 -0.8778  0.5634  0.0082
  481SOL    HW2 1923   1.138   0.056   1.102  0.3063  0.4936  0.1158
  481SOL     MW 1924   1.051   0.054   1.090 -0.8836 -0.0627 -0.0687
  482SOL     OW 1925   1.131   3.062   0.261  0.3153 -0.5224 -0.0266
  482SOL    HW1 1926   1.068   3.001   0.296  1.3017 -3.6761 -0.8400
  482SOL    HW2 1927   1.126   3.146   0.316  1.5045 -0.0181  0.6647
  482SOL     MW 1928   1.122   3.065   0.273  0.6023 -0.8720 -0.0427
  483SOL     OW 1929   0.517   3.000   0.401  0.1856 -0.3596 -0.0431
  483SOL    HW1 1930   0.439   2.985   0.346  0.7548  0.4129 -0.5259
  483SOL    HW2 1931   0.475   3.048   0.471 -1.7003 -2.7278 -1.3912
  483SOL     MW 1932   0.501   3.005   0.403  0.0118 -0.5701 -0.2847
  484SOL     OW 1933   1.891   2.036   1.466  0.2917  0.0043  0.1082
  484SOL    HW1 1934   1.932   2.122   1.456 -3.5537  0.0441 -1.4961
  484SOL    HW2 1935   1.853   2.022   1.553 -0.5987  0.3204  1.7208
  484SOL     MW 1936   1.892   2.045   1.476 -0.3331  0.0513  0.1093
  485SOL     OW 1937   0.602   2.411   0.248 -0.4422 -0.1931  0.0193
  485SOL    HW1 1938   0.650   2.387   0.323 -2.0456  1.1493  1.3674
  485SOL    HW2 1939   0.517   2.448   0.276 -0.5260 -2.7999  0.2821
  485SOL     MW 1940   0.597   2.413   0.261 -0.6648 -0.3599  0.2318
  486SOL     OW 1941   0.131   2.426   1.461 -0.4599  0.7482  0.0693
  486SOL    HW1 1942   0.098   2.489   1.395  1.6990 -0.5789 -1.2432
  486SOL    HW2 1943   0.137   2.463   1.553 -1.2281  4.0031 -0.9071
  486SOL     MW 1944   0.127   2.439   1.464 -0.2764  1.0025 -0.2327
  487SOL     OW 1945   1.116   1.739   1.056 -0.3153  0.0271 -0.1102
  487SOL    HW1 1946   1.122   1.825   1.093 -0.5274 -4.7521 -1.9534
  487SOL    HW2 1947   1.209   1.730   1.033  0.3117  2.4335 -0.2107
  487SOL     MW 1948   1.129   1.749   1.058 -0.2606 -0.2860 -0.3666
  488SOL     OW 1949   1.642   1.886   0.489  0.5603 -0.0057  0.5777
  488SOL    HW1 1950   1.690   1.871   0.402 -0.1816 -1.2777 -1.2052
  488SOL    HW2 1951   1.577   1.959   0.470  0.9705  0.3735 -0.0555
  488SOL     MW 1952   1.639   1.894   0.475  0.5165 -0.1235  0.2589
  489SOL     OW 1953   0.780   0.794   0.594  0.2040 -0.2805  0.2431
  489SOL    HW1 1954   0.825   0.721   0.548 -0.8662  2.0382 -0.0830
  489SOL    HW2 1955   0.771   0.763   0.686  1.0806  2.8198 -2.2718
  489SOL     MW 1956   0.785   0.781   0.600  0.1784  0.4345 -0.1317
  490SOL     OW 1957   1.467   2.082   0.455  0.2017 -0.0665 -0.1937
  490SOL    HW1 1958   1.522   2.150   0.417 -1.2182 -2.2394  0.2420
  490SOL    HW2 1959   1.369   2.087   0.425 -2.3497  0.0678  2.0444
  490SOL     MW 1960   1.461   2.092   0.446 -0.3222 -0.3355  0.1591
  491SOL     OW 1961   1.321   3.014   0.430  0.1487 -0.4203 -0.1069
  491SOL    HW1 1962   1.388   3.087   0.404  1.4585 -0.7586 -0.4433
  491SOL    HW2 1963   1.266   3.008   0.350  0.6266 -0.1047 -0.8854
  491SOL     MW 1964   1.323   3.023   0.416  0.3846 -0.4233 -0.2540
  492SOL     OW 1965   1.491   2.180   0.696  0.1948 -0.0416  0.0113
  492SOL    HW1 1966   1.467   2.129   0.610 -0.7852 -2.1317 -1.7224
  492SOL    HW2 1967   1.442   2.158   0.776 -0.5887  2.3139  2.0223
  492SOL     MW 1968   1.482   2.171   0.695 -0.0379 -0.0066  0.0479
  493SOL     OW 1969   0.281   2.981   0.276 -0.2885  0.7318  0.4572
  493SOL    HW1 1970   0.227   2.994   0.355 -0.5907 -2.3583 -1.2721
  493SOL    HW2 1971   0.231   3.027   0.206 -1.5263  0.0902  2.7909
  493SOL     MW 1972   0.267   2.989   0.277 -0.4917  0.2395  0.5369
  494SOL     OW 1973   0.462   2.462   1.745  0.0968  0.0146  0.3491
  494SOL    HW1 1974   0.441   2.368   1.758  2.5932  0.3815 -1.2059
  494SOL    HW2 1975   0.469   2.453   1.646  2.0099 -0.6224 -3.7262
  494SOL     MW 1976   0.460   2.448   1.734  0.6786 -0.0211 -0.3937
  495SOL     OW 1977   2.833   1.746   2.574  0.5456 -0.2059  0.2772
  495SOL    HW1 1978   2.838   1.842   2.543 -2.3148 -2.9376 -2.9460
  495SOL    HW2 1979   2.806   1.743   2.665  1.0378 -1.9542 -3.1551
  495SOL     MW 1980   2.830   1.758   2.582  0.2331 -0.7970 -0.6010
  496SOL     OW 1981   2.879   2.362   2.638 -0.3977 -0.1628  0.2732
  496SOL    HW1 1982   2.926   2.290   2.674  0.4622 -0.5843 -0.0186
  496SOL    HW2 1983   2.953   2.421   2.613 -2.3122 -0.1464 -1.6013
  496SOL     MW 1984   2.895   2.360   2.640 -0.5368 -0.2162 -0.0127
  497SOL     OW 1985   1.552   2.246   2.684  0.0016  0.0724  0.2626
  497SOL    HW1 1986   1.506   2.195   2.620 -0.5323  2.4122 -0.2857
  497SOL    HW2 1987   1.554   2.193   2.761  1.9928  1.2558  0.1472
  497SOL     MW 1988   1.546   2.232   2.686  0.1939  0.5372  0.1751
  498SOL     OW 1989   1.452   2.659   2.381 -0.0102 -0.0605  0.2150
  498SOL    HW1 1990   1.461   2.563   2.386 -1.2285  2.2736  0.5468
  498SOL    HW2 1991   1.540   2.695   2.398 -0.6255 -1.7912  0.6929
  498SOL     MW 1992   1.465   2.651   2.384 -0.2521  0.0191  0.3218
  499SOL     OW 1993   0.977   0.190   3.056 -0.0531  0.9544 -0.3514
  499SOL    HW1 1994   0.902   0.210   3.112 -0.9120  1.9443 -1.7789
  499SOL    HW2 1995   1.020   0.107   3.085 -0.4585 -3.0948 -1.1031
  499SOL     MW 1996   0.972   0.182   3.067 -0.2199  0.5508 -0.6389
  500SOL     OW 1997   1.005   2.521   2.780 -0.2165 -0.3076 -0.0695
  500SOL    HW1 1998   1.076   2.497   2.844 -1.0972  0.7388  2.2903
  500SOL    HW2 1999   0.925   2.509   2.836  0.9084 -0.6650  1.4510
  500SOL     MW 2000   1.004   2.516   2.796 -0.1843 -0.2167  0.4425
  501SOL     OW 2001   1.753   2.192   3.028 -0.0680  0.4596 -0.9751
  501SOL    HW1 2002   1.741   2.279   2.993  1.3550 -0.2187  0.1187
  501SOL    HW2 2003   1.842   2.183   3.056  1.7160 -1.4024 -1.5118
  501SOL     MW 2004   1.763   2.202   3.027  0.3551  0.1244 -0.9016
  502SOL     OW 2005   0.100   2.787   2.947 -0.2260 -0.2644  0.0180
  502SOL    HW1 2006   0.048   2.706   2.926 -0.4950 -2.6028  2.6483
  502SOL    HW2 2007   0.123   2.820   2.860  1.1906 -0.4046  2.3334
  502SOL     MW 2008   0.096   2.780   2.933 -0.0746 -0.5914  0.6705
  503SOL     OW 2009   1.105   2.939   2.178  0.3142 -0.1898 -0.1637
  503SOL    HW1 2010   1.069   2.866   2.134 -0.7500  1.4515  0.9793
  503SOL    HW2 2011   1.045   3.010   2.177  0.9780  0.0541  0.3979
  503SOL     MW 2012   1.092   2.939   2.172  0.2614  0.0589  0.0612
  504SOL     OW 2013   0.111   2.715   2.086 -0.1240  0.5664 -0.3634
  504SOL    HW1 2014   0.195   2.670   2.069  0.7439 -3.5180 -1.9746
  504SOL    HW2 2015   0.045   2.664   2.039 -1.7866 -1.8839 -2.0699
  504SOL     MW 2016   0.114   2.702   2.077 -0.2289 -0.2958 -0.8011
  505SOL     OW 2017   1.719   2.671   2.721 -0.0062 -0.0624  0.5733
  505SOL    HW1 2018   1.684   2.697   2.637  0.2934 -0.5685 -0.6775
  505SOL    HW2 2019   1.652   2.680   2.785  1.2678  2.5510 -1.4758
  505SOL     MW 2020   1.706   2.676   2.718  0.2014  0.2157  0.1379
  506SOL     OW 2021   1.696   3.024   2.849  0.1056 -0.0867 -0.2277
  506SOL    HW1 2022   1.736   2.968   2.915  0.2703  0.8001 -0.3328
  506SOL    HW2 2023   1.747   3.012   2.767  0.2450 -1.0156  0.0138
  506SOL     MW 2024   1.708   3.015   2.847  0.1457 -0.0922 -0.2097
  507SOL     OW 2025   0.779   2.879   2.913 -0.2935 -0.0808 -0.1620
  507SOL    HW1 2026   0.845   2.900   2.842  0.8605  0.2376 -1.1240
  507SOL    HW2 2027   0.712   2.941   2.899  0.4107 -1.3427  1.3505
  507SOL     MW 2028   0.779   2.890   2.902 -0.0483 -0.2053 -0.0894
  508SOL     OW 2029   1.133   2.074   2.439  0.4737  0.4308 -0.1305
  508SOL    HW1 2030   1.200   2.048   2.511  0.9442  1.6622  0.9196
  508SOL    HW2 2031   1.146   2.165   2.438  3.9451 -1.0767  1.4096
  508SOL     MW 2032   1.144   2.083   2.448  0.9938  0.3944  0.2113
  509SOL     OW 2033   0.569   2.582   2.909 -0.1236  0.2961  0.1630
  509SOL    HW1 2034   0.585   2.598   2.817 -1.3526 -1.1387  0.5047
  509SOL    HW2 2035   0.488   2.536   2.923  2.0388 -3.0744 -0.6433
  509SOL     MW 2036   0.560   2.578   2.899 -0.0005 -0.3379  0.1017
  510SOL     OW 2037   1.488   2.519   1.751  0.1346  0.8928  0.4039
  510SOL    HW1 2038   1.494   2.614   1.754  0.6554  0.0121  1.8838
  510SOL    HW2 2039   1.424   2.498   1.815  0.7471  0.2409  1.7703
  510SOL     MW 2040   1.480   2.529   1.760  0.2841  0.6906  0.7794
  511SOL     OW 2041   0.426   2.638   2.494 -0.0973  0.2395  0.4793
  511SOL    HW1 2042   0.506   2.603   2.530  1.6186  0.6035 -0.6527
  511SOL    HW2 2043   0.448   2.635   2.394  0.5281 -0.2566 -0.6835
  511SOL     MW 2044   0.439   2.633   2.486  0.2116  0.2221  0.1765
  512SOL     OW 2045   1.024   1.915   2.816  0.8639  0.1461  0.3100
  512SOL    HW1 2046   0.934   1.925   2.844  0.0977 -0.3675  0.2025
  512SOL    HW2 2047   1.058   1.842   2.870 -0.3305  1.0297  2.4898
  512SOL     MW 2048   1.016   1.907   2.827  0.6053  0.1950  0.5834
  513SOL     OW 2049   1.512   2.377   2.368  0.5984 -0.4346  0.0462
  513SOL    HW1 2050   1.591   2.404   2.418  2.9894 -1.0626 -0.7280
  513SOL    HW2 2051   1.501   2.283   2.386  2.0024 -2.3855  1.7170
  513SOL     MW 2052   1.521   2.368   2.377  1.0991 -0.7749  0.1645
  514SOL     OW 2053   0.255   2.425   2.640  0.7489  0.7196  0.2623
  514SOL    HW1 2054   0.287   2.502   2.592 -1.5952  1.2873 -1.5470
  514SOL    HW2 2055   0.259   2.453   2.731  0.0679 -1.3783 -2.1060
  514SOL     MW 2056   0.260   2.439   2.646  0.3498  0.5177 -0.2889
  515SOL     OW 2057   1.197   2.043   1.932 -0.0546 -0.4848  0.3141
  515SOL    HW1 2058   1.154   2.134   1.930 -0.3539  0.7215  1.9145
  515SOL    HW2 2059   1.219   2.020   2.027  1.1694 -1.3693 -0.4285
  515SOL     MW 2060   1.194   2.052   1.944  0.0674 -0.4423  0.4273
  516SOL     OW 2061   1.438   2.481   3.054  0.1856  0.3242  0.2973
  516SOL    HW1 2062   1.502   2.484   2.978 -0.2109 -0.3152  0.3031
  516SOL    HW2 2063   1.351   2.454   3.022  1.1276  0.4456  0.6979
  516SOL     MW 2064   1.435   2.478   3.040  0.2575  0.2559  0.3510
  517SOL     OW 2065   0.574   2.404   2.073 -0.2669 -0.2673 -0.0382
  517SOL    HW1 2066   0.594   2.468   1.996  1.7860 -0.5144 -4.4570
  517SOL    HW2 2067   0.472   2.386   2.062 -0.8124  0.4097 -2.6550
  517SOL     MW 2068   0.563   2.410   2.062 -0.0680 -0.2106 -0.9665
  518SOL     OW 2069   1.920   0.109   3.018  0.1474  0.2262 -0.5321
  518SOL    HW1 2070   1.897   0.156   2.936  0.4167  0.2503  1.5935
  518SOL    HW2 2071   1.843   0.117   3.078  1.6219  0.2910  0.4610
  518SOL     MW 2072   1.907   0.116   3.015  0.3775  0.2379 -0.1206
  519SOL     OW 2073   0.695   2.513   1.856 -0.0984 -0.1476  0.2650
  519SOL    HW1 2074   0.742   2.419   1.855 -0.8120  1.5761 -3.1212
  519SOL    HW2 2075   0.619   2.496   1.792  1.8194 -0.8314  0.3957
  519SOL     MW 2076   0.691   2.498   1.847  0.0605 -0.0104 -0.1645
  520SOL     OW 2077   1.156   2.147   2.905 -0.1523 -0.4286  0.1642
  520SOL    HW1 2078   1.097   2.079   2.876 -0.8647  0.3802  0.6655
  520SOL    HW2 2079   1.211   2.098   2.965 -0.9094  1.2932 -3.5220
  520SOL     MW 2080   1.155   2.131   2.909 -0.3462 -0.0947 -0.2560
  521SOL     OW 2081   1.789   1.961   2.239 -0.1178  0.1371  0.2069
  521SOL    HW1 2082   1.765   1.976   2.150  1.4558 -1.4389  0.2206
  521SOL    HW2 2083   1.803   1.867   2.239  0.7879  2.3307 -1.9011
  521SOL     MW 2084   1.788   1.951   2.227  0.2093  0.2186 -0.0694
  522SOL     OW 2085   2.866   2.609   2.212 -0.1404 -0.0785 -0.4838
  522SOL    HW1 2086   2.924   2.533   2.238 -1.5481  1.4385  0.5556
  522SOL    HW2 2087   2.801   2.611   2.283 -0.5761 -0.3285 -1.9226
  522SOL     MW 2088   2.865   2.599   2.225 -0.3836  0.0886 -0.5365
  523SOL     OW 2089   0.821   1.522   2.111  0.0217 -0.2255  0.8287
  523SOL    HW1 2090   0.831   1.604   2.059 -2.1185  0.4234  2.4358
  523SOL    HW2 2091   0.879   1.455   2.076  0.2726  1.3461  0.1510
  523SOL     MW 2092   0.830   1.524   2.100 -0.2276  0.0675  0.9513
  524SOL     OW 2093   0.793   2.421   2.939 -0.6748  0.0996 -0.1150
  524SOL    HW1 2094   0.722   2.482   2.906  0.6083  1.3664 -3.5899
  524SOL    HW2 2095   0.767   2.340   2.902 -2.4548  1.1873  2.1375
  524SOL     MW 2096   0.780   2.419   2.930 -0.7403  0.4102 -0.2763
  525SOL     OW 2097   0.345   2.313   2.043  0.1010  0.6323  0.8255
  525SOL    HW1 2098   0.361   2.257   2.118 -1.0898  0.0062 -1.2769
  525SOL    HW2 2099   0.389   2.275   1.962  0.2154  1.6008  0.4079
  525SOL     MW 2100   0.353   2.301   2.042 -0.0410  0.6775  0.4930
  526SOL     OW 2101   0.652   2.133   2.039 -0.4632  0.1564 -0.7664
  526SOL    HW1 2102   0.689   2.165   1.956 -0.9078 -0.0417 -0.2546
  526SOL    HW2 2103   0.619   2.214   2.077 -1.4210  0.0662  2.3793
  526SOL     MW 2104   0.653   2.148   2.033 -0.6482  0.1184 -0.2839
  527SOL     OW 2105   1.385   1.933   2.149  0.0598 -0.7339 -0.2321
  527SOL    HW1 2106   1.357   1.888   2.231  1.6024 -1.8691  0.5498
  527SOL    HW2 2107   1.415   1.861   2.095 -0.2185 -0.4943 -0.1614
  527SOL     MW 2108   1.386   1.917   2.153  0.2266 -0.8521 -0.1196
  528SOL     OW 2109   0.593   3.065   2.916  0.1841  0.1154 -0.0203
  528SOL    HW1 2110   0.664   3.131   2.905 -1.4753  0.7694 -0.0774
  528SOL    HW2 2111   0.547   3.068   2.833  1.9557 -2.6479 -0.3517
  528SOL     MW 2112   0.596   3.074   2.904  0.1989 -0.1629 -0.0715
  529SOL     OW 2113   1.062   2.283   1.929  0.4487 -0.5339 -0.2405
  529SOL    HW1 2114   1.045   2.304   2.022 -1.0845  0.4086 -2.7917
  529SOL    HW2 2115   1.071   2.365   1.877  0.8284 -1.2057 -0.0144
  529SOL     MW 2116   1.061   2.297   1.934  0.2965 -0.4982 -0.5473
  530SOL     OW 2117   1.171   2.441   2.968  0.2524 -0.3430 -0.3617
  530SOL    HW1 2118   1.131   2.472   3.056 -0.6380  2.3867 -1.0291
  530SOL    HW2 2119   1.151   2.345   2.954 -1.2457 -1.0029  1.1710
  530SOL     MW 2120   1.163   2.432   2.978 -0.0627 -0.0699 -0.2475
  531SOL     OW 2121   0.983   1.894   2.555 -0.1411  0.8619  0.3888
  531SOL    HW1 2122   1.023   1.969   2.511  0.2500 -0.6588  1.5195
  531SOL    HW2 2123   0.990   1.897   2.654  1.7325 -2.6902  3.2384
  531SOL     MW 2124   0.989   1.904   2.562  0.1577  0.1926  0.9140
  532SOL     OW 2125   1.807   0.274   2.826  0.1918  1.1786  0.2730
  532SOL    HW1 2126   1.744   0.243   2.765 -0.7512 -0.7014 -0.5317
  532SOL    HW2 2127   1.858   0.346   2.788  0.5618  1.1935  0.7282
  532SOL     MW 2128   1.806   0.279   2.813  0.1162  0.9325  0.2269
  533SOL     OW 2129   1.953   2.521   3.083 -0.5144 -0.3149  0.0912
  533SOL    HW1 2130   1.893   2.475   3.141 -0.3610 -0.2440 -0.2712
  533SOL    HW2 2131   1.914   2.609   3.084  1.4381 -0.7799  1.9013
  533SOL     MW 2132   1.940   2.527   3.091 -0.2366 -0.3669  0.2822
  534SOL     OW 2133   1.719   2.426   2.554  0.3254  0.4455 -0.3058
  534SOL    HW1 2134   1.669   2.355   2.591 -0.1104  1.2965 -2.3871
  534SOL    HW2 2135   1.803   2.441   2.595  0.4649 -0.8174  1.3655
  534SOL     MW 2136   1.724   2.418   2.565  0.2863  0.3911 -0.3599
  535SOL     OW 2137   1.868   2.321   1.928 -0.0439 -0.1212  0.5147
  535SOL    HW1 2138   1.816   2.338   1.843 -1.3745  1.8206  3.1031
  535SOL    HW2 2139   1.955   2.311   1.893 -0.6692  1.2066  2.3114
  535SOL     MW 2140   1.873   2.322   1.912 -0.3020  0.3102  1.0932
  536SOL     OW 2141   0.477   1.898   2.121  0.0328  0.2641  0.1173
  536SOL    HW1 2142   0.457   1.862   2.035  1.0172  0.2747 -1.7945
  536SOL    HW2 2143   0.506   1.986   2.098  0.6771  1.1872 -0.1181
  536SOL     MW 2144   0.478   1.905   2.106  0.2477  0.3873 -0.1660
  537SOL     OW 2145   1.045   0.301   2.745  0.0319 -0.0641 -0.5724
  537SOL    HW1 2146   1.077   0.359   2.816 -1.2263  2.9219  0.8762
  537SOL    HW2 2147   1.062   0.361   2.672  2.9171  1.2379 -2.0252
  537SOL     MW 2148   1.051   0.316   2.745  0.2466  0.5017 -0.5730
  538SOL     OW 2149   1.447   0.081   0.006  0.3128  0.2111 -0.4481
  538SOL    HW1 2150   1.430   0.166   0.044  0.8499 -1.0919  1.4641
  538SOL    HW2 2151   1.367   0.039  -0.021  0.3120 -1.7799  0.3526
  538SOL     MW 2152   1.434   0.086   0.007  0.3836 -0.2235 -0.0901
  539SOL     OW 2153   0.698   2.816   2.584 -0.6761 -0.8131  0.0957
  539SOL    HW1 2154   0.783   2.848   2.613 -0.0517 -1.9125 -0.2789
  539SOL    HW2 2155   0.690   2.716   2.600 -0.4933 -0.2621  0.1195
  539SOL     MW 2156   0.708   2.807   2.590 -0.5696 -0.8854  0.0494
  540SOL     OW 2157   0.301   2.480   2.899  0.4246 -0.0008  0.6838
  540SOL    HW1 2158   0.289   2.545   2.969 -1.9855 -1.2465  0.2594
  540SOL    HW2 2159   0.282   2.399   2.945 -2.2676  0.6745  0.8710
  540SOL     MW 2160   0.297   2.478   2.914 -0.2486 -0.0760  0.6525
  541SOL     OW 2161   0.254   2.956   2.157 -0.2950  0.1117 -0.0192
  541SOL    HW1 2162   0.212   2.870   2.153 -0.7500 -0.4992  0.7755
  541SOL    HW2 2163   0.336   2.943   2.206 -2.4518  0.7524  2.4452
  541SOL     MW 2164   0.259   2.943   2.163 -0.6396  0.1157  0.4108
  542SOL     OW 2165   0.940   2.278   2.677  0.0190  0.4843  0.0038
  542SOL    HW1 2166   0.890   2.223   2.742  0.6246 -0.0901  1.9477
  542SOL    HW2 2167   0.985   2.345   2.726 -0.0298  0.1371  1.6230
  542SOL     MW 2168   0.939   2.280   2.692  0.0925  0.3627  0.4739
  543SOL     OW 2169   1.655   2.448   2.881  0.3608 -0.9900  0.3265
  543SOL    HW1 2170   1.603   2.407   2.807 -0.9513  1.6795  1.7075
  543SOL    HW2 2171   1.721   2.497   2.830  0.5055  0.4554 -0.3995
  543SOL     MW 2172   1.657   2.449   2.865  0.2068 -0.4471  0.4129
  544SOL     OW 2173   0.684   0.329   2.693  0.3669 -0.0029 -0.6705
  544SOL    HW1 2174   0.599   0.318   2.729 -0.3235 -1.0434  0.0005
  544SOL    HW2 2175   0.688   0.259   2.628 -2.9258  0.3505  0.7732
  544SOL     MW 2176   0.673   0.318   2.689 -0.1586 -0.0936 -0.3915
  545SOL     OW 2177   1.537   2.105   2.389 -0.0577 -0.2130 -0.2007
  545SOL    HW1 2178   1.479   2.072   2.321 -2.2193 -2.3836 -0.9884
  545SOL    HW2 2179   1.615   2.047   2.372 -1.8287 -0.5048  0.2656
  545SOL     MW 2180   1.540   2.093   2.378 -0.5766 -0.5379 -0.2431
  546SOL     OW 2181   2.944   1.958   0.146  0.4197 -0.1005  0.1029
  546SOL    HW1 2182   2.911   2.026   0.092  0.6653 -0.8149  1.9296
  546SOL    HW2 2183   3.036   1.940   0.114  1.4176  0.1348 -2.1693
  546SOL     MW 2184   2.952   1.965   0.135  0.5838 -0.1637  0.0441
  547SOL     OW 2185   0.170   0.064   0.107 -0.0762 -0.2577 -0.1565
  547SOL    HW1 2186   0.261   0.075   0.072  0.2433 -0.2846  1.5926
  547SOL    HW2 2187   0.125   0.010   0.044  0.4933 -1.9928 -0.2019
  547SOL     MW 2188   0.176   0.058   0.094  0.0411 -0.4902  0.0683
  548SOL     OW 2189   0.357   2.542   0.285 -0.2990 -0.8019  0.7475
  548SOL    HW1 2190   0.342   2.578   0.194  1.0042 -0.7824  0.9806
  548SOL    HW2 2191   0.275   2.514   0.313 -1.5758  2.9101 -1.0725
  548SOL     MW 2192   0.344   2.543   0.277 -0.2956 -0.3096  0.5382
  549SOL     OW 2193   0.820   1.943   2.196  0.1573 -0.4992  0.9925
  549SOL    HW1 2194   0.750   2.000   2.160 -0.4943  1.2669 -0.3638
  549SOL    HW2 2195   0.770   1.916   2.272 -1.9062  1.8564 -0.7596
  549SOL     MW 2196   0.804   1.947   2.201 -0.2009  0.0446  0.5824
  550SOL     OW 2197   1.766   1.663   2.498 -0.2727  0.1192  0.2535
  550SOL    HW1 2198   1.777   1.671   2.396 -0.2965  2.0842 -3.6289
  550SOL    HW2 2199   1.751   1.757   2.519  1.6357 -0.6803 -0.7836
  550SOL     MW 2200   1.766   1.677   2.487 -0.0241  0.2729 -0.3956
  551SOL     OW 2201   0.918   2.223   0.228  0.0992 -0.0871 -0.0176
  551SOL    HW1 2202   1.003   2.260   0.223 -1.5949  1.2242 -0.6744
  551SOL    HW2 2203   0.912   2.154   0.155 -1.7595 -0.2882 -2.8180
  551SOL     MW 2204   0.929   2.219   0.218 -0.3696  0.0594 -0.4737
  552SOL     OW 2205   1.768   1.686   2.234 -0.4013 -0.8976 -0.0606
  552SOL    HW1 2206   1.665   1.676   2.245 -0.6258  1.9695  3.1697
  552SOL    HW2 2207   1.806   1.636   2.157 -0.4995 -0.5499  0.3200
  552SOL     MW 2208   1.759   1.678   2.225 -0.4439 -0.4734  0.4158
  553SOL     OW 2209   1.256   2.278   1.614 -0.3873  0.6730 -0.2420
  553SOL    HW1 2210   1.298   2.195   1.620 -1.3643  0.1703 -2.4408
  553SOL    HW2 2211   1.319   2.343   1.566 -0.0160  0.3205  0.8701
  553SOL     MW 2212   1.270   2.276   1.609 -0.4672  0.5602 -0.3854
  554SOL     OW 2213   0.487   3.013   2.666 -0.1337  0.3739 -0.2688
  554SOL    HW1 2214   0.453   3.032   2.575 -0.7705  1.9583 -2.1469
  554SOL    HW2 2215   0.556   2.948   2.662 -1.7903  1.6317  0.6673
  554SOL     MW 2216   0.492   3.007   2.653 -0.4363  0.7489 -0.3931
  555SOL     OW 2217   0.663   2.529   2.609 -0.2982  0.3292 -0.0880
  555SOL    HW1 2218   0.610   2.445   2.632 -1.3044 -0.7861 -0.3682
  555SOL    HW2 2219   0.739   2.492   2.569  0.0088  0.3093 -1.0440
  555SOL     MW 2220   0.666   2.513   2.607 -0.3905  0.1794 -0.2511
  556SOL     OW 2221   1.033   1.807   0.076 -0.8312 -0.1342  0.4758
  556SOL    HW1 2222   1.060   1.769  -0.011  0.3012  1.1951  0.1087
  556SOL    HW2 2223   1.117   1.820   0.117 -3.0362  2.2302  2.0799
  556SOL     MW 2224   1.048   1.804   0.070 -0.9727  0.3531  0.6390
  557SOL     OW 2225   1.030   2.690   0.557 -0.6193 -0.0571  0.0167
  557SOL    HW1 2226   1.083   2.646   0.496 -0.3834  0.7328  1.6407
  557SOL    HW2 2227   0.992   2.760   0.493  0.7153  1.8223 -0.4502
  557SOL     MW 2228   1.032   2.693   0.540 -0.4121  0.2951  0.1694
  558SOL     OW 2229   0.163   2.214   3.005 -0.2115 -0.4147 -0.3464
  558SOL    HW1 2230   0.148   2.137   3.061  4.7903  2.1983  2.9783
  558SOL    HW2 2231   0.120   2.281   3.063 -1.4822  2.3174  1.3829
  558SOL     MW 2232   0.155   2.213   3.020  0.2808  0.2906  0.3204
  559SOL     OW 2233   1.064   2.270   2.203 -0.4424 -0.2945 -0.5056
  559SOL    HW1 2234   1.157   2.284   2.195  0.2941 -0.0077  4.3392
  559SOL    HW2 2235   1.054   2.174   2.188 -0.5389 -0.2262 -1.8957
  559SOL     MW 2236   1.075   2.259   2.200 -0.3579 -0.2477 -0.0498
  560SOL     OW 2237   2.148   2.645   0.161 -0.1934  0.0468 -0.0611
  560SOL    HW1 2238   2.161   2.713   0.098 -0.0833 -2.0758  0.5419
  560SOL    HW2 2239   2.084   2.586   0.121 -0.2832  1.6271 -0.2117
  560SOL     MW 2240   2.141   2.646   0.147 -0.1907 -0.0247 -0.0014
  561SOL     OW 2241   0.467   2.196   0.132 -0.4426 -0.4125 -0.9003
  561SOL    HW1 2242   0.520   2.189   0.053  0.5137  0.9961  0.0612
  561SOL    HW2 2243   0.490   2.284   0.169 -0.3533 -1.2585  1.6666
  561SOL     MW 2244   0.477   2.207   0.127 -0.3046 -0.3383 -0.4347
  562SOL     OW 2245   0.625   2.383   2.342  0.0676  0.2484  0.7603
  562SOL    HW1 2246   0.588   2.422   2.254  0.1291  0.1259 -1.1230
  562SOL    HW2 2247   0.708   2.432   2.354 -1.9074  2.0509 -1.3739
  562SOL     MW 2248   0.631   2.395   2.332 -0.1849  0.4701  0.2302
  563SOL     OW 2249   1.250   0.356   0.559  0.3066  0.3909 -0.8202
  563SOL    HW1 2250   1.213   0.302   0.493 -1.1003 -1.0699 -1.7181
  563SOL    HW2 2251   1.249   0.325   0.653  2.7724 -1.0865 -1.3485
  563SOL     MW 2252   1.245   0.345   0.563  0.4463  0.0032 -1.0084
  564SOL     OW 2253   0.999   2.734   2.348  0.5548 -0.2801 -0.0626
  564SOL    HW1 2254   1.014   2.823   2.303  0.0100  2.4397  1.6451
  564SOL    HW2 2255   1.036   2.747   2.444 -0.3276 -0.1231 -0.8321
  564SOL     MW 2256   1.006   2.748   2.355  0.3665  0.0994  0.0612
  565SOL     OW 2257   2.795   2.721   2.612  1.0981 -0.2044  0.4108
  565SOL    HW1 2258   2.785   2.815   2.600  0.9911 -0.1645 -2.2295
  565SOL    HW2 2259   2.726   2.686   2.548 -0.4054 -0.8378 -5.0564
  565SOL     MW 2260   2.785   2.729   2.602  0.8856 -0.2827 -0.6589
  566SOL     OW 2261   2.168   1.890   2.323  0.1890 -0.2802 -0.2069
  566SOL    HW1 2262   2.140   1.891   2.229 -0.3768  1.8640 -2.8838
  566SOL    HW2 2263   2.251   1.945   2.330  0.4218 -1.3556  0.6676
  566SOL     MW 2264   2.176   1.897   2.312  0.1451 -0.1392 -0.4447
  567SOL     OW 2265   1.179   3.054   3.084  0.4400 -0.6449  0.4930
  567SOL    HW1 2266   1.159   3.059   3.178 -0.0723 -2.8676 -1.2629
  567SOL    HW2 2267   1.234   2.972   3.068  0.9020 -1.9299 -0.5967
  567SOL     MW 2268   1.183   3.044   3.095  0.4333 -1.1077  0.1175
  568SOL     OW 2269   1.631   2.025   2.838 -0.8877 -0.1701  0.0618
  568SOL    HW1 2270   1.693   2.075   2.893 -2.4479  2.7104 -0.2489
  568SOL    HW2 2271   1.683   1.992   2.760 -2.1228  1.5846  0.8609
  568SOL     MW 2272   1.646   2.027   2.835 -1.2565  0.4415  0.1263
  569SOL     OW 2273   0.093   2.245   2.439 -0.6633  0.1138  0.0909
  569SOL    HW1 2274   0.054   2.274   2.360  3.1578 -1.7946 -3.0070
  569SOL    HW2 2275   0.110   2.324   2.484 -0.9628 -1.9388  3.3640
  569SOL     MW 2276   0.090   2.259   2.434 -0.1986 -0.4088  0.1140
  570SOL     OW 2277   1.515   0.339   0.456 -0.0893  0.3366  0.3155
  570SOL    HW1 2278   1.432   0.378   0.485  0.8435  1.2864 -3.1269
  570SOL    HW2 2279   1.582   0.392   0.504  0.1751 -0.7779 -1.6206
  570SOL     MW 2280   1.513   0.351   0.466  0.0687  0.3149 -0.3941
  571SOL     OW 2281   1.331   2.315   2.135  1.0779  0.1124 -0.0563
  571SOL    HW1 2282   1.393   2.358   2.197  1.7681  0.4758 -0.5080
  571SOL    HW2 2283   1.386   2.270   2.073  0.5431  2.6402  0.1789
  571SOL     MW 2284   1.347   2.315   2.135  1.0984  0.4939 -0.0849
  572SOL     OW 2285   1.059   2.560   0.120  0.2164  0.0420 -0.2027
  572SOL    HW1 2286   1.070   2.650   0.123 -0.2581 -3.2457  2.4487
  572SOL    HW2 2287   0.958   2.554   0.124 -0.7699  1.2661 -0.9419
  572SOL     MW 2288   1.047   2.571   0.121  0.0237 -0.2303  0.0496
  573SOL     OW 2289   1.159   2.321   0.263 -0.1456 -0.5590 -0.3841
  573SOL    HW1 2290   1.245   2.294   0.219  2.3500 -0.3511  0.4175
  573SOL    HW2 2291   1.177   2.401   0.311  0.4075 -1.4798 -0.6976
  573SOL     MW 2292   1.173   2.328   0.263  0.2566 -0.6531 -0.3197
  574SOL     OW 2293   1.208   2.586   0.364  0.5317  0.3152 -0.8699
  574SOL    HW1 2294   1.286   2.638   0.354 -0.3565 -1.7856 -0.1828
  574SOL    HW2 2295   1.165   2.578   0.281  3.8235  1.1801  0.3946
  574SOL     MW 2296   1.213   2.592   0.352  0.8489  0.1521 -0.6124
  575SOL     OW 2297   0.021   2.188   1.746 -0.8878 -0.4617  0.6477
  575SOL    HW1 2298   0.025   2.119   1.682 -0.2000  3.1839 -2.1391
  575SOL    HW2 2299   0.046   2.141   1.826  0.6857 -1.7317  0.3954
  575SOL     MW 2300   0.025   2.173   1.748 -0.5895 -0.1482  0.2467
  576SOL     OW 2301   2.909   1.836   1.935  0.0131 -0.5158 -0.0367
  576SOL    HW1 2302   2.926   1.922   1.890  0.1398 -1.2706 -1.2835
  576SOL    HW2 2303   2.850   1.783   1.877  2.3174  0.6474  1.7900
  576SOL     MW 2304   2.904   1.840   1.921  0.3339 -0.4619  0.0398
  577SOL     OW 2305   2.138   0.137   0.065  0.6765 -0.1201  0.4437
  577SOL    HW1 2306   2.058   0.126   0.013 -0.5838  1.4228 -1.0405
  577SOL    HW2 2307   2.116   0.100   0.150  1.3108  0.5892 -1.9576
  577SOL     MW 2308   2.124   0.130   0.069  0.5939  0.1771 -0.0689
  578SOL     OW 2309   1.993   2.096   2.364  0.4860 -0.0225 -0.0167
  578SOL    HW1 2310   1.937   2.036   2.328 -1.3390  2.4104 -0.7265
  578SOL    HW2 2311   2.078   2.042   2.370  2.5630 -0.1763 -0.8708
  578SOL     MW 2312   1.997   2.081   2.360  0.5192  0.2782 -0.2230
  579SOL     OW 2313   0.877   2.440   2.475 -0.1127 -0.4191  0.0120
  579SOL    HW1 2314   0.903   2.375   2.545  1.1290 -2.3078  3.5176
  579SOL    HW2 2315   0.961   2.477   2.445 -1.0500  2.4280  1.8432
  579SOL     MW 2316   0.891   2.436   2.481 -0.0725 -0.2926  0.7162
  580SOL     OW 2317   0.981   2.813   0.018  0.3992  0.0606  0.2514
  580SOL    HW1 2318   1.044   2.851  -0.043  0.4242  0.0551  0.8193
  580SOL    HW2 2319   0.902   2.809  -0.054 -1.2792  1.1686 -1.1182
  580SOL     MW 2320   0.979   2.817   0.001  0.1811  0.2061  0.1456
  581SOL     OW 2321   1.119   2.490   1.730 -0.0782  0.8597 -0.1203
  581SOL    HW1 2322   1.180   2.507   1.803 -1.0356  1.2070 -0.1274
  581SOL    HW2 2323   1.145   2.410   1.681  0.4664  0.6099 -1.2437
  581SOL     MW 2324   1.131   2.482   1.733 -0.1327  0.8725 -0.2694
  582SOL     OW 2325   0.009   2.910   2.662 -0.0627 -0.2718  0.2694
  582SOL    HW1 2326  -0.047   2.968   2.711  1.9917 -2.6714 -0.2951
  582SOL    HW2 2327   0.097   2.926   2.708  1.2205 -2.5096 -0.4406
  582SOL     MW 2328   0.013   2.920   2.675  0.3777 -0.8836  0.1013
  583SOL     OW 2329   1.968   2.384   2.671  0.1170  0.2163  0.0086
  583SOL    HW1 2330   2.027   2.401   2.598 -1.7207  0.7952 -0.4452
  583SOL    HW2 2331   1.955   2.286   2.668 -0.6697 -1.0664  0.2956
  583SOL     MW 2332   1.974   2.373   2.661 -0.2293  0.1234 -0.0134
  584SOL     OW 2333   0.209   1.892   2.179 -0.3033  0.6126  0.5757
  584SOL    HW1 2334   0.177   1.899   2.264 -2.6860 -0.0786 -2.5043
  584SOL    HW2 2335   0.306   1.902   2.177  0.3163 -0.4055 -1.3380
  584SOL     MW 2336   0.218   1.894   2.190 -0.5359  0.3871 -0.0832
  585SOL     OW 2337   1.559   2.558   0.181  0.3453 -0.4237  0.0481
  585SOL    HW1 2338   1.527   2.570   0.086  0.8881 -1.0141  0.7515
  585SOL    HW2 2339   1.500   2.614   0.230  0.6097 -0.2678  0.9702
  585SOL     MW 2340   1.547   2.567   0.175  0.4518 -0.4810  0.2626
  586SOL     OW 2341   1.371   2.787   2.605 -0.0971  0.4469 -0.0908
  586SOL    HW1 2342   1.378   2.754   2.514  1.6753  0.1739  2.5954
  586SOL    HW2 2343   1.338   2.881   2.608  0.0062 -0.9325  1.7638
  586SOL     MW 2344   1.368   2.795   2.593  0.1504  0.2289  0.5083
  587SOL     OW 2345   1.251   1.512   2.149 -1.0447 -0.4529 -0.2169
  587SOL    HW1 2346   1.265   1.419   2.158  0.0245 -0.3634  2.8339
  587SOL    HW2 2347   1.234   1.526   2.051  3.5249 -1.1096 -3.3936
  587SOL     MW 2348   1.251   1.502   2.137 -0.3007 -0.5278 -0.2335
  588SOL     OW 2349   1.301   2.040   2.642  0.4096 -0.1436  0.5542
  588SOL    HW1 2350   1.347   1.972   2.686 -1.1707 -0.6781  0.2432
  588SOL    HW2 2351   1.244   2.079   2.708 -0.3058  0.7507 -0.5228
  588SOL     MW 2352   1.299   2.036   2.656  0.1067 -0.0961  0.3711
  589SOL     OW 2353   1.311   2.053   0.004 -0.2623  0.0931 -0.1373
  589SOL    HW1 2354   1.342   2.135   0.040  1.0425 -0.9471  2.5523
  589SOL    HW2 2355   1.277   2.004   0.076 -1.0269 -2.1242  0.4083
  589SOL     MW 2356   1.311   2.057   0.019 -0.1910 -0.3367  0.2895
  590SOL     OW 2357   0.471   2.663   2.234 -0.8535 -0.3696 -0.0549
  590SOL    HW1 2358   0.468   2.668   2.136 -1.9157 -2.7044  1.3308
  590SOL    HW2 2359   0.565   2.694   2.253  3.4659 -1.0349 -0.7275
  590SOL     MW 2360   0.483   2.668   2.224 -0.4237 -0.7654  0.0392
  591SOL     OW 2361   2.209   0.645   0.183  0.0122 -0.4538  0.0859
  591SOL    HW1 2362   2.139   0.675   0.234  0.6023 -2.1762 -1.6648
  591SOL    HW2 2363   2.190   0.685   0.099 -2.2032  0.8041  1.2919
  591SOL     MW 2364   2.197   0.655   0.178 -0.2022 -0.5151  0.0140
  592SOL     OW 2365   1.653   2.939   0.683  0.0249  0.4196 -0.9006
  592SOL    HW1 2366   1.633   3.029   0.706 -0.5141  0.4327  0.2680
  592SOL    HW2 2367   1.720   2.912   0.751  0.8948 -1.3948 -1.8566
  592SOL     MW 2368   1.660   2.947   0.695  0.0685  0.1820 -0.8726
  593SOL     OW 2369   1.906   0.703   0.687  0.1446 -0.6738  0.0699
  593SOL    HW1 2370   1.826   0.685   0.642  0.1489 -1.4240  2.3391
  593SOL    HW2 2371   1.937   0.618   0.709 -0.0981  2.6714  0.9447
  593SOL     MW 2372   1.900   0.689   0.684  0.1132 -0.3314  0.4847
  594SOL     OW 2373   2.827   1.107   1.369 -0.1388 -0.3224  0.2112
  594SOL    HW1 2374   2.920   1.106   1.339  0.4940 -2.2092 -0.6720
  594SOL    HW2 2375   2.796   1.202   1.352  0.4198 -0.0050  0.3385
  594SOL     MW 2376   2.835   1.120   1.363  0.0184 -0.5294  0.1114
  595SOL     OW 2377   0.532   0.930   0.861  0.2231  0.0225  0.0624
  595SOL    HW1 2378   0.511   0.978   0.777 -0.4658 -2.0019 -2.3965
  595SOL    HW2 2379   0.565   1.002   0.914  0.0254 -1.4390 -1.7218
  595SOL     MW 2380   0.533   0.946   0.857  0.1061 -0.4374 -0.4974
  596SOL     OW 2381   2.421   1.321   0.486  0.4844  0.6588 -0.2563
  596SOL    HW1 2382   2.420   1.401   0.427 -0.7757  0.5781 -1.9140
  596SOL    HW2 2383   2.450   1.350   0.574 -1.4675 -1.5743  2.3335
  596SOL     MW 2384   2.425   1.335   0.490  0.0606  0.3535 -0.1333
  597SOL     OW 2385   2.234   0.700   1.641  0.0558  0.5231 -0.1230
  597SOL    HW1 2386   2.266   0.630   1.706 -0.7354  1.3365 -0.4165
  597SOL    HW2 2387   2.173   0.651   1.585  1.0329  0.6979  3.3469
  597SOL     MW 2388   2.230   0.685   1.642  0.0803  0.6535  0.2961
  598SOL     OW 2389   2.612   1.002   2.873  0.6187  0.1183  0.2560
  598SOL    HW1 2390   2.578   0.934   2.818  1.1719  0.3900  2.3897
  598SOL    HW2 2391   2.688   1.028   2.824 -2.6628  1.8132 -1.2352
  598SOL     MW 2392   2.617   0.996   2.859  0.2588  0.3777  0.3408
  599SOL     OW 2393   3.010   0.567   2.226  0.2422  0.5572 -0.0217
  599SOL    HW1 2394   3.059   0.638   2.266 -1.2376 -2.5561 -2.3165
  599SOL    HW2 2395   3.033   0.602   2.136  1.6972  2.1688 -2.0993
  599SOL     MW 2396   3.020   0.581   2.220  0.2389  0.3591 -0.5986
  600SOL     OW 2397   1.846   1.650   0.839  0.1570  0.0233 -0.3629
  600SOL    HW1 2398   1.849   1.719   0.905  0.4892 -0.8061  1.8432
  600SOL    HW2 2399   1.776   1.682   0.781 -1.0255 -0.6027 -2.0877
  600SOL     MW 2400   1.837   1.663   0.840  0.0448 -0.1687 -0.2994
  601SOL     OW 2401   2.527   0.781   0.849 -0.5260 -0.0702 -0.3188
  601SOL    HW1 2402   2.540   0.751   0.944  1.5767  0.2624 -0.5578
  601SOL    HW2 2403   2.485   0.699   0.811  0.1650 -0.5597  0.0181
  601SOL     MW 2404   2.523   0.766   0.857 -0.1574 -0.0909 -0.3059
  602SOL     OW 2405   2.254   1.979   0.783 -0.1375  0.6697  0.2410
  602SOL    HW1 2406   2.192   1.911   0.774 -1.3869 -1.9178 -0.5814
  602SOL    HW2 2407   2.213   2.063   0.756 -0.0422 -1.4606  1.6548
  602SOL     MW 2408   2.240   1.981   0.778 -0.2898  0.0473  0.3191
  603SOL     OW 2409   3.037   1.322   1.998  0.3016 -0.5305  0.3973
  603SOL    HW1 2410   2.993   1.357   2.082 -1.8444 -0.7208 -1.3002
  603SOL    HW2 2411   3.073   1.239   2.028  2.6132  0.7987 -0.6372
  603SOL     MW 2412   3.036   1.316   2.013  0.3235 -0.3803  0.0369
  604SOL     OW 2413   2.037   1.376   0.376  0.2106  0.4082  0.5315
  604SOL    HW1 2414   2.090   1.303   0.416  0.8911  1.4916  2.7165
  604SOL    HW2 2415   1.993   1.403   0.458 -0.9621  0.0392  2.0121
  604SOL     MW 2416   2.038   1.370   0.392  0.1456  0.5025  1.0151
  605SOL     OW 2417   2.463   1.452   0.782  0.3476  0.4328 -0.6149
  605SOL    HW1 2418   2.445   1.529   0.731  0.7239  0.5347 -0.4111
  605SOL    HW2 2419   2.540   1.403   0.751 -0.5720 -0.3385  0.5024
  605SOL     MW 2420   2.471   1.456   0.771  0.2760  0.3445 -0.4406
  606SOL     OW 2421   2.685   1.800   1.764  0.1377 -0.4805  0.1950
  606SOL    HW1 2422   2.626   1.835   1.832 -0.7329  0.1968  0.1476
  606SOL    HW2 2423   2.680   1.708   1.772  0.0173  0.4392  0.0232
  606SOL     MW 2424   2.677   1.793   1.774  0.0070 -0.2698  0.1661
  607SOL     OW 2425   2.390   1.049   3.068  0.0166  0.4258 -0.6176
  607SOL    HW1 2426   2.475   1.057   3.021 -1.1450 -1.6039  1.8160
  607SOL    HW2 2427   2.417   1.030   3.159 -1.5949  2.7612 -1.8830
  607SOL     MW 2428   2.405   1.048   3.074 -0.3493  0.4661 -0.4635
  608SOL     OW 2429   1.932   0.247   0.411  0.2129  0.3327 -0.1657
  608SOL    HW1 2430   1.916   0.271   0.322 -0.5891  2.6337 -1.3178
  608SOL    HW2 2431   1.890   0.157   0.418  0.5152  0.5001  1.4413
  608SOL     MW 2432   1.924   0.238   0.400  0.1469  0.6584 -0.1057
  609SOL     OW 2433   2.090   1.904   3.064  0.0810 -0.2508 -0.0757
  609SOL    HW1 2434   2.081   1.817   3.022  0.7902 -2.8405  0.9771
  609SOL    HW2 2435   2.081   1.881   3.159 -0.6554 -2.8594 -1.7061
  609SOL     MW 2436   2.088   1.890   3.071  0.0774 -0.9366 -0.1519
  610SOL     OW 2437   1.762   0.991   1.234  0.0814  0.4397  0.3790
  610SOL    HW1 2438   1.755   0.906   1.182 -0.5935 -0.3115 -2.0193
  610SOL    HW2 2439   1.680   1.026   1.207  0.0812  0.9584 -1.7195
  610SOL     MW 2440   1.750   0.985   1.223 -0.0077  0.4090 -0.2143
  611SOL     OW 2441   2.499   1.679   0.580  0.4856  0.1999  0.3837
  611SOL    HW1 2442   2.486   1.648   0.487  0.8940 -0.6043 -0.6499
  611SOL    HW2 2443   2.470   1.772   0.579 -2.0733 -0.4293  1.6779
  611SOL     MW 2444   2.493   1.687   0.568  0.2019  0.0108  0.4181
  612SOL     OW 2445   2.923   2.881   0.354  0.6901  0.3913 -0.3360
  612SOL    HW1 2446   2.955   2.903   0.441  1.6141  1.3762 -0.7774
  612SOL    HW2 2447   3.000   2.869   0.304 -1.7704  1.6824 -1.0902
  612SOL     MW 2448   2.937   2.882   0.359  0.4874  0.6916 -0.4937
  613SOL     OW 2449   1.453   1.122   0.923  0.3222  0.3649  0.0271
  613SOL    HW1 2450   1.451   1.216   0.893 -0.0294 -0.4384 -0.8912
  613SOL    HW2 2451   1.483   1.121   1.014 -1.0495 -0.1391 -2.3845
  613SOL     MW 2452   1.457   1.134   0.931  0.0948  0.1924 -0.4123
  614SOL     OW 2453   2.116   0.554   1.459 -0.4216 -0.0838 -0.0116
  614SOL    HW1 2454   2.120   0.486   1.536 -1.2193  0.9343  2.3638
  614SOL    HW2 2455   2.030   0.580   1.451  3.2727  0.9995  1.0479
  614SOL     MW 2456   2.105   0.548   1.468 -0.0394  0.1935  0.4416
  615SOL     OW 2457   2.427   0.749   0.331  0.0408  0.5010 -0.2207
  615SOL    HW1 2458   2.501   0.682   0.324  1.3646  0.4565 -2.0126
  615SOL    HW2 2459   2.351   0.712   0.279 -0.9406 -0.9995  0.3509
  615SOL     MW 2460   2.426   0.735   0.323  0.0860  0.2972 -0.3817
  616SOL     OW 2461   2.559   0.368   1.659  0.1021  0.1296 -0.4552
  616SOL    HW1 2462   2.511   0.303   1.603 -2.6268 -0.5311 -0.3128
  616SOL    HW2 2463   2.554   0.449   1.615 -0.6740  0.6083  1.8348
  616SOL     MW 2464   2.552   0.370   1.646 -0.3603  0.1056 -0.1343
  617SOL     OW 2465   2.832   0.604   1.799  0.2849 -0.2322  0.6521
  617SOL    HW1 2466   2.761   0.593   1.858  1.8161 -1.2097 -0.9414
  617SOL    HW2 2467   2.840   0.516   1.757 -1.0296 -1.4961 -1.4109
  617SOL     MW 2468   2.824   0.591   1.801  0.3135 -0.5279  0.1697
  618SOL     OW 2469   2.839   0.197   1.989 -0.9023  0.1110 -0.4431
  618SOL    HW1 2470   2.777   0.248   2.043 -4.3872 -3.3270  2.9616
  618SOL    HW2 2471   2.920   0.230   2.026  0.7870 -2.4740  2.9919
  618SOL     MW 2472   2.841   0.208   2.001 -1.1392 -0.6836  0.4593
  619SOL     OW 2473   2.741   0.729   0.034  0.0855  0.0363 -0.2420
  619SOL    HW1 2474   2.758   0.821   0.042  0.2817  0.1117  0.1412
  619SOL    HW2 2475   2.780   0.688   0.108 -0.4587 -1.1057  2.1852
  619SOL     MW 2476   2.748   0.736   0.045  0.0396 -0.1044  0.1288
  620SOL     OW 2477   2.224   0.985   0.885 -0.1168 -0.0038  0.4098
  620SOL    HW1 2478   2.302   1.006   0.831  2.0624 -1.4939 -0.6920
  620SOL    HW2 2479   2.162   0.958   0.820  0.0551 -2.0780  1.9423
  620SOL     MW 2480   2.226   0.984   0.869  0.1934 -0.4741  0.4666
  621SOL     OW 2481   1.520   2.155   1.990  0.0487 -0.4808 -0.2317
  621SOL    HW1 2482   1.465   2.090   2.035  0.0788  0.3993  1.2908
  621SOL    HW2 2483   1.608   2.122   2.011  1.2075  0.8591 -1.9359
  621SOL     MW 2484   1.524   2.142   1.999  0.2056 -0.1879 -0.2556
  622SOL     OW 2485   2.633   0.300   0.205  0.0296 -0.0151  0.3846
  622SOL    HW1 2486   2.698   0.366   0.196 -0.5961  2.3354 -0.1315
  622SOL    HW2 2487   2.668   0.222   0.164  2.2070 -1.5299 -0.4807
  622SOL     MW 2488   2.646   0.298   0.198  0.2343  0.0951  0.2023
  623SOL     OW 2489   2.348   2.728   0.806  0.4522  0.9400 -0.0168
  623SOL    HW1 2490   2.427   2.775   0.772  2.3475  0.0233 -3.4016
  623SOL    HW2 2491   2.335   2.775   0.893 -1.6988  1.8329  4.1632
  623SOL     MW 2492   2.357   2.741   0.813  0.4185  0.9369  0.0881
  624SOL     OW 2493   2.144   1.633   3.008  0.2071  0.5134  0.1155
  624SOL    HW1 2494   2.092   1.550   3.001  3.0590 -2.7292 -1.4370
  624SOL    HW2 2495   2.164   1.638   3.100 -1.4523 -0.6530 -2.1134
  624SOL     MW 2496   2.140   1.623   3.020  0.3644 -0.0683 -0.3834
  625SOL     OW 2497   2.134   1.969   1.031  0.3002  0.0010  0.5560
  625SOL    HW1 2498   2.181   1.914   1.090  1.5683  1.2327 -0.7949
  625SOL    HW2 2499   2.185   1.982   0.951 -1.9014 -0.5851  0.3699
  625SOL     MW 2500   2.147   1.963   1.028  0.1770  0.0862  0.3532
  626SOL     OW 2501   0.113   1.850   2.478 -0.1010 -0.1091  0.0607
  626SOL    HW1 2502   0.060   1.766   2.466 -0.1861 -2.0139  1.3666
  626SOL    HW2 2503   0.061   1.926   2.516 -1.4460  0.3007  1.0250
  626SOL     MW 2504   0.099   1.849   2.482 -0.2897 -0.3063  0.3602
  627SOL     OW 2505   2.580   0.852   2.623 -0.6860 -0.2504  0.3612
  627SOL    HW1 2506   2.489   0.890   2.615 -0.8637  1.1022  0.1387
  627SOL    HW2 2507   2.582   0.791   2.543 -0.8920 -0.7340 -0.9994
  627SOL     MW 2508   2.568   0.849   2.611 -0.7366 -0.1357  0.1523
  628SOL     OW 2509   2.362   1.362   1.255 -0.0219 -0.3935  0.0025
  628SOL    HW1 2510   2.344   1.276   1.218  0.0628 -1.7541 -1.6930
  628SOL    HW2 2511   2.412   1.415   1.190  0.1772  0.9638 -1.8569
  628SOL     MW 2512   2.366   1.358   1.242  0.0155 -0.3940 -0.4666
  629SOL     OW 2513   1.855   0.584   1.259  0.0865  0.1854  0.1297
  629SOL    HW1 2514   1.923   0.606   1.192  0.4202  1.2207  1.9804
  629SOL    HW2 2515   1.768   0.606   1.227 -0.5018  0.1465  1.0087
  629SOL     MW 2516   1.853   0.590   1.246  0.0529  0.3169  0.4898
  630SOL     OW 2517   2.362   1.949   3.075  0.0915 -0.3997  0.0074
  630SOL    HW1 2518   2.388   1.985   2.989  0.8540 -0.5871  0.5470
  630SOL    HW2 2519   2.279   1.916   3.054  4.2092  0.1107 -0.1355
  630SOL     MW 2520   2.354   1.950   3.061  0.7354 -0.3571  0.0597
  631SOL     OW 2521   2.104   1.855   1.489 -0.2115 -0.7683  0.2813
  631SOL    HW1 2522   2.072   1.775   1.535  0.6054 -3.5739 -0.5677
  631SOL    HW2 2523   2.029   1.912   1.470  0.5341  0.3022 -0.5503
  631SOL     MW 2524   2.090   1.852   1.493 -0.0053 -0.9973  0.0595
  632SOL     OW 2525   0.390   1.899   1.468  0.1297  0.1945  0.0452
  632SOL    HW1 2526   0.306   1.944   1.444  0.6518 -0.9956 -0.7279
  632SOL    HW2 2527   0.347   1.811   1.465 -0.6806 -0.9128  1.5060
  632SOL     MW 2528   0.373   1.893   1.464  0.0916 -0.1086  0.1359
  633SOL     OW 2529   2.654   0.562   0.350 -0.3901 -0.3312 -0.4644
  633SOL    HW1 2530   2.723   0.538   0.414  1.9141  0.0547 -0.8902
  633SOL    HW2 2531   2.590   0.492   0.370  0.5258 -0.2541  0.8623
  633SOL     MW 2532   2.654   0.550   0.361  0.0347 -0.2701 -0.3456
  634SOL     OW 2533   2.759   0.020   0.633 -0.2130 -0.3273  0.2125
  634SOL    HW1 2534   2.782   0.114   0.613 -0.2541  0.4356 -2.0995
  634SOL    HW2 2535   2.729  -0.007   0.545 -1.8025 -0.3173  1.4275
  634SOL     MW 2536   2.758   0.029   0.619 -0.4282 -0.2254  0.0677
  635SOL     OW 2537   2.685   0.039   1.802 -0.2233 -0.1336 -0.0617
  635SOL    HW1 2538   2.739  -0.027   1.756  4.0562 -1.3705  0.0938
  635SOL    HW2 2539   2.745   0.065   1.872  0.7179 -1.7212  1.0025
  635SOL     MW 2540   2.700   0.034   1.805  0.4655 -0.5062  0.0993
  636SOL     OW 2541   2.703   1.637   0.747 -0.0002  0.4643  0.6604
  636SOL    HW1 2542   2.656   1.631   0.661  0.3275 -1.1352 -0.3185
  636SOL    HW2 2543   2.676   1.724   0.779  1.7660  0.0392  0.9372
  636SOL     MW 2544   2.693   1.648   0.740  0.2761  0.1971  0.5678
  637SOL     OW 2545   2.955   1.478   0.684 -0.1179 -0.2006  0.0083
  637SOL    HW1 2546   2.961   1.566   0.637 -3.2936  1.5355 -3.4350
  637SOL    HW2 2547   2.861   1.474   0.705  0.4343 -1.7509  3.1133
  637SOL     MW 2548   2.943   1.489   0.681 -0.4640 -0.1761 -0.0364
  638SOL     OW 2549   2.821   0.538   0.565 -0.0273  0.0790 -0.1106
  638SOL    HW1 2550   2.885   0.591   0.517 -0.8859  0.2488  1.5315
  638SOL    HW2 2551   2.802   0.574   0.655  0.9942 -0.8047 -0.9037
  638SOL     MW 2552   2.827   0.550   0.570 -0.0058 -0.0152  0.0014
  639SOL     OW 2553   1.862   3.079   0.476 -0.0544  0.0750 -0.3004
  639SOL    HW1 2554   1.772   3.061   0.474  0.4293 -2.4975  2.4379
  639SOL    HW2 2555   1.892   2.989   0.475 -2.1601  0.9330 -0.5740
  639SOL     MW 2556   1.854   3.065   0.476 -0.2684 -0.1512  0.0248
  640SOL     OW 2557   0.294   1.411   0.106 -0.0933 -0.5868 -0.0614
  640SOL    HW1 2558   0.312   1.405   0.008 -0.8532  2.0143  2.1312
  640SOL    HW2 2559   0.341   1.341   0.150 -1.6521  2.0830 -0.6819
  640SOL     MW 2560   0.302   1.401   0.099 -0.3993  0.1086  0.1460
  641SOL     OW 2561   2.376   0.410   0.414  0.1676  0.2857  0.0476
  641SOL    HW1 2562   2.359   0.353   0.336 -0.4414  0.1983 -0.4923
  641SOL    HW2 2563   2.380   0.344   0.486  2.1595 -1.0972  1.3097
  641SOL     MW 2564   2.374   0.394   0.413  0.3500  0.0917  0.1429
  642SOL     OW 2565   0.109   3.063   0.505 -0.1747  0.3926  0.5536
  642SOL    HW1 2566   0.069   3.141   0.463  2.6569  0.0359  0.1757
  642SOL    HW2 2567   0.035   3.023   0.553 -0.6271 -3.4253 -1.2372
  642SOL     MW 2568   0.094   3.068   0.506  0.1392 -0.1582  0.2675
  643SOL     OW 2569   2.144   0.351   1.638 -0.4922  0.3453  0.0165
  643SOL    HW1 2570   2.056   0.341   1.672  1.6631 -0.4499 -2.1812
  643SOL    HW2 2571   2.158   0.277   1.578  1.9604 -0.7748 -1.2310
  643SOL     MW 2572   2.134   0.340   1.635  0.1157  0.0926 -0.4381
  644SOL     OW 2573   2.691   1.873   0.934  0.0040 -0.6609 -0.0750
  644SOL    HW1 2574   2.670   1.827   1.010  0.4571  1.5030 -3.5753
  644SOL    HW2 2575   2.624   1.942   0.935  1.9678 -0.1295  2.2588
  644SOL     MW 2576   2.679   1.876   0.944  0.3229 -0.3053 -0.2289
  645SOL     OW 2577   2.809   0.935   0.782 -0.1823 -0.8687 -0.3627
  645SOL    HW1 2578   2.898   0.906   0.791 -1.1788 -3.7397  3.3566
  645SOL    HW2 2579   2.778   0.942   0.871  0.3707 -3.3363  0.3612
  645SOL     MW 2580   2.817   0.932   0.795 -0.2408 -1.5730  0.2235
  646SOL     OW 2581   0.098   2.258   0.827 -0.4026 -0.4238 -1.5263
  646SOL    HW1 2582   0.128   2.173   0.821  1.5951  2.9333  0.7186
  646SOL    HW2 2583   0.064   2.296   0.744  2.0074  1.3479  0.2516
  646SOL     MW 2584   0.097   2.252   0.815  0.1789  0.2529 -0.9956
  647SOL     OW 2585   2.753   0.414   3.046 -0.4805 -0.1181  0.4230
  647SOL    HW1 2586   2.667   0.380   3.028 -2.0673  2.0620 -0.4195
  647SOL    HW2 2587   2.729   0.501   3.067 -0.9504 -0.2460  0.8209
  647SOL     MW 2588   2.739   0.421   3.046 -0.7518  0.1527  0.3643
  648SOL     OW 2589   2.066   0.650   1.087  0.0473  0.4513 -0.0687
  648SOL    HW1 2590   2.149   0.609   1.114 -0.1975  2.2316 -0.2169
  648SOL    HW2 2591   2.092   0.741   1.075 -1.4393 -0.8130 -0.1195
  648SOL     MW 2592   2.081   0.657   1.089 -0.1811  0.5194 -0.0950
  649SOL     OW 2593   2.393   2.642   1.296 -0.0581  0.0862  0.1371
  649SOL    HW1 2594   2.482   2.677   1.318 -1.5186 -0.9103  1.9500
  649SOL    HW2 2595   2.411   2.562   1.244  0.6639 -1.1136 -0.5602
  649SOL     MW 2596   2.407   2.636   1.292 -0.1556 -0.2035  0.2843
  650SOL     OW 2597   2.792   0.268   0.532  0.3385  0.1782 -0.0808
  650SOL    HW1 2598   2.811   0.363   0.548  2.1000 -0.7573 -0.6779
  650SOL    HW2 2599   2.783   0.251   0.438 -0.3770  3.6986 -0.1779
  650SOL     MW 2600   2.793   0.278   0.522  0.4765  0.5193 -0.1724
  651SOL     OW 2601   0.051   0.464   1.003  0.5719  0.0525 -0.1947
  651SOL    HW1 2602   0.091   0.501   0.923  0.4882  1.2282 -3.7017
  651SOL    HW2 2603  -0.041   0.499   0.999 -2.9799  1.1944 -0.4883
  651SOL     MW 2604   0.044   0.473   0.992  0.0922  0.3583 -0.6961
  652SOL     OW 2605   2.355   1.438   2.914  0.1298  0.7133  0.5729
  652SOL    HW1 2606   2.441   1.451   2.874 -0.5780 -1.7722 -1.6089
  652SOL    HW2 2607   2.311   1.524   2.925 -0.2745  2.9171 -0.0698
  652SOL     MW 2608   2.361   1.451   2.910 -0.0169  0.6761  0.2002
  653SOL     OW 2609   1.813   0.396   0.153 -0.2003  0.2369 -0.7678
  653SOL    HW1 2610   1.816   0.303   0.130 -0.2319  0.9535  1.0939
  653SOL    HW2 2611   1.841   0.442   0.072  0.7566 -2.2155 -0.8142
  653SOL     MW 2612   1.817   0.389   0.140 -0.0782  0.0079 -0.5283
  654SOL     OW 2613   2.466   1.038   0.711  0.0585  0.1217  0.2502
  654SOL    HW1 2614   2.402   1.003   0.641  0.2059 -1.1578 -3.4086
  654SOL    HW2 2615   2.484   0.954   0.765 -0.8105  1.4144  1.2504
  654SOL     MW 2616   2.460   1.022   0.709 -0.0367  0.1235 -0.1006
  655SOL     OW 2617   3.040   0.940   0.359  0.4729  0.2351  0.4709
  655SOL    HW1 2618   2.984   0.982   0.427 -0.3573  0.0682  0.8821
  655SOL    HW2 2619   3.038   0.845   0.372  0.6933  0.4606 -2.5803
  655SOL     MW 2620   3.033   0.933   0.369  0.3925  0.2428  0.1225
  656SOL     OW 2621   1.742   2.667   1.423  0.0442  0.3544  0.0726
  656SOL    HW1 2622   1.745   2.670   1.518 -1.6179 -0.0661  0.5837
  656SOL    HW2 2623   1.819   2.615   1.392  0.6258 -1.0367  3.2480
  656SOL     MW 2624   1.752   2.660   1.432 -0.0983  0.1154  0.5590
  657SOL     OW 2625   0.103   1.811   1.148 -0.0139  0.0655  0.4817
  657SOL    HW1 2626   0.196   1.829   1.127  1.4437 -0.2597  1.6566
  657SOL    HW2 2627   0.102   1.714   1.152 -0.9514 -0.1540 -4.2233
  657SOL     MW 2628   0.115   1.801   1.146  0.0547 -0.0064  0.0159
  658SOL     OW 2629   2.611   1.373   0.200  0.1130  0.6139  0.1824
  658SOL    HW1 2630   2.623   1.289   0.255  1.0440  0.4534  1.7240
  658SOL    HW2 2631   2.655   1.438   0.251 -0.2672 -2.9441  0.4338
  658SOL     MW 2632   2.618   1.370   0.214  0.1857  0.1233  0.4189
  659SOL     OW 2633   2.177   1.451   0.980  0.6831  0.9400 -0.1009
  659SOL    HW1 2634   2.226   1.463   1.060 -0.4766 -1.8298 -2.3142
  659SOL    HW2 2635   2.116   1.523   0.979  0.0441 -1.5390 -1.0450
  659SOL     MW 2636   2.175   1.462   0.990  0.4458  0.2475 -0.5175
  660SOL     OW 2637   2.052   1.584   1.578  0.2520 -0.0151  0.2825
  660SOL    HW1 2638   2.066   1.579   1.672 -0.1741 -1.0403 -0.2700
  660SOL    HW2 2639   1.993   1.505   1.576 -1.7615 -0.4313 -1.4662
  660SOL     MW 2640   2.046   1.573   1.590 -0.0699 -0.2053 -0.0211
  661SOL     OW 2641   2.401   1.015   0.248  0.4268 -0.2569 -0.3160
  661SOL    HW1 2642   2.473   1.060   0.291  3.3518  1.7739 -0.2856
  661SOL    HW2 2643   2.409   0.923   0.276  0.6394 -2.8067  2.0434
  661SOL     MW 2644   2.412   1.009   0.257  0.8408 -0.3254 -0.0007
  662SOL     OW 2645   2.549   2.972   0.790  0.6386 -0.5058  0.2134
  662SOL    HW1 2646   2.490   3.044   0.781 -0.7683 -1.5680  1.3099
  662SOL    HW2 2647   2.632   3.007   0.749  0.8138 -0.4921 -1.0263
  662SOL     MW 2648   2.552   2.986   0.783  0.4761 -0.6442  0.1945
  663SOL     OW 2649   2.759   1.541   0.374  0.1891  0.3252 -0.5884
  663SOL    HW1 2650   2.749   1.633   0.375  0.5269 -1.5925  0.6086
  663SOL    HW2 2651   2.830   1.526   0.427  0.0228 -1.7563 -1.4620
  663SOL     MW 2652   2.767   1.551   0.381  0.2118 -0.2024 -0.5457
  664SOL     OW 2653   2.507   1.530   1.595 -0.2933  0.3070  0.0917
  664SOL    HW1 2654   2.509   1.610   1.538  1.3379 -0.1271 -1.4062
  664SOL    HW2 2655   2.414   1.505   1.599 -1.4214  2.6952 -1.1268
  664SOL     MW 2656   2.495   1.537   1.588 -0.2270  0.5649 -0.2667
  665SOL     OW 2657   2.811   0.795   2.183 -0.9122  0.0065 -0.3772
  665SOL    HW1 2658   2.806   0.862   2.112  1.4860  0.6138 -0.1168
  665SOL    HW2 2659   2.889   0.748   2.158 -2.9448  1.9509  1.3151
  665SOL     MW 2660   2.820   0.798   2.170 -0.8640  0.3432 -0.1196
  666SOL     OW 2661   2.854   2.958   1.688  0.1477 -0.0135 -0.5440
  666SOL    HW1 2662   2.826   2.955   1.598 -1.1172  2.1134  0.2014
  666SOL    HW2 2663   2.826   2.879   1.742  1.7484 -3.0158  1.9478
  666SOL     MW 2664   2.847   2.947   1.683  0.1920 -0.1290 -0.1169
  667SOL     OW 2665   1.947   2.674   1.736 -0.6845 -0.2678  0.7280
  667SOL    HW1 2666   1.989   2.660   1.823 -1.7660  1.8697 -0.6113
  667SOL    HW2 2667   2.021   2.729   1.685 -1.7509  0.1401 -0.8141
  667SOL     MW 2668   1.962   2.680   1.740 -0.9679  0.0680  0.3478
  668SOL     OW 2669   2.761   0.617   0.813  0.0688  0.5293  0.0941
  668SOL    HW1 2670   2.825   0.606   0.886  0.6427 -2.1587  0.0254
  668SOL    HW2 2671   2.702   0.691   0.831 -1.9232  1.5775 -1.0312
  668SOL     MW 2672   2.762   0.625   0.825 -0.1183  0.3130 -0.0634
  669SOL     OW 2673   0.236   0.977   0.721  0.1624 -0.2862 -0.6533
  669SOL    HW1 2674   0.251   0.937   0.810  0.7448  1.8713 -0.5986
  669SOL    HW2 2675   0.297   1.054   0.711 -1.3316 -0.8923  2.0062
  669SOL     MW 2676   0.246   0.982   0.731  0.0421 -0.0815 -0.2952
  670SOL     OW 2677   2.922   0.324   0.221 -0.3048 -0.0181 -0.3350
  670SOL    HW1 2678   2.915   0.266   0.137  0.2800  0.7715 -0.4832
  670SOL    HW2 2679   2.917   0.415   0.196 -3.2421 -1.4271 -0.4782
  670SOL     MW 2680   2.920   0.328   0.207 -0.6152 -0.0998 -0.3734
  671SOL     OW 2681   2.070   3.008   1.509  0.1063 -0.4670  0.4167
  671SOL    HW1 2682   2.007   2.976   1.441 -0.1224  2.1447 -0.0990
  671SOL    HW2 2683   2.010   3.038   1.575 -0.0819  1.1579 -1.4027
  671SOL     MW 2684   2.054   3.008   1.509  0.0513  0.0920  0.1086
  672SOL     OW 2685   1.791   1.809   1.292  0.2384 -0.1548  0.0700
  672SOL    HW1 2686   1.813   1.879   1.357  0.0300 -1.8611 -2.7011
  672SOL    HW2 2687   1.813   1.836   1.205 -1.0652  0.1923 -0.9214
  672SOL     MW 2688   1.797   1.822   1.289  0.0389 -0.3341 -0.4264
  673SOL     OW 2689   2.820   1.077   0.558  0.2240  0.0503  0.2178
  673SOL    HW1 2690   2.815   1.003   0.612  0.4346  0.8860  0.8179
  673SOL    HW2 2691   2.901   1.115   0.588 -0.5042 -3.5508  1.4119
  673SOL     MW 2692   2.830   1.072   0.569  0.1557 -0.3146  0.4546
  674SOL     OW 2693   2.471   3.055   1.130  0.2285  0.1927 -0.2385
  674SOL    HW1 2694   2.430   3.103   1.056 -0.4526 -2.0326 -0.8332
  674SOL    HW2 2695   2.521   2.979   1.089  1.8421  1.6377  0.1542
  674SOL     MW 2696   2.472   3.052   1.115  0.3515  0.0897 -0.2652
  675SOL     OW 2697   3.033   0.845   1.029  0.2100  0.3456 -0.0833
  675SOL    HW1 2698   3.089   0.855   1.109  4.7348  1.3012 -2.0351
  675SOL    HW2 2699   3.063   0.901   0.952  0.4129  0.8777 -2.5474
  675SOL     MW 2700   3.044   0.853   1.029  0.8338  0.5419 -0.6659
  676SOL     OW 2701   2.911   1.409   1.763  0.3246  0.9259  0.3792
  676SOL    HW1 2702   2.876   1.334   1.724 -0.6446  0.5794  1.5780
  676SOL    HW2 2703   2.951   1.373   1.840  0.0612 -0.0607 -4.5540
  676SOL     MW 2704   2.912   1.394   1.768  0.1620  0.7500 -0.1135
  677SOL     OW 2705   2.477   0.700   1.911 -0.0496 -0.7191  0.3093
  677SOL    HW1 2706   2.434   0.608   1.898 -2.6735 -1.2999 -0.7749
  677SOL    HW2 2707   2.401   0.762   1.923  4.3221  0.7482  2.3464
  677SOL     MW 2708   2.461   0.696   1.911  0.1810 -0.6021  0.4350
  678SOL     OW 2709   2.365   1.557   0.320 -0.2684 -0.0051  0.2218
  678SOL    HW1 2710   2.280   1.588   0.352  0.1783 -0.3622  0.6877
  678SOL    HW2 2711   2.348   1.508   0.236  0.5295  1.1157  0.5923
  678SOL     MW 2712   2.352   1.554   0.313 -0.1042  0.0956  0.3321
  679SOL     OW 2713   2.285   0.491   1.267 -0.3192  0.4672 -0.0774
  679SOL    HW1 2714   2.271   0.399   1.249  1.2671  2.1935 -0.0569
  679SOL    HW2 2715   2.220   0.517   1.332  0.5759  0.3879  0.1520
  679SOL     MW 2716   2.275   0.482   1.273  0.0082  0.6845 -0.0445
  680SOL     OW 2717   2.398   0.199   1.497  0.1431 -0.1046 -0.0489
  680SOL    HW1 2718   2.310   0.202   1.474  0.4960 -0.4870  0.9632
  680SOL    HW2 2719   2.428   0.128   1.436  0.8655  4.0946 -1.0904
  680SOL     MW 2720   2.390   0.190   1.486  0.2850  0.3990 -0.0528
  681SOL     OW 2721   0.237   0.564   1.436  0.2944 -0.2521  0.5118
  681SOL    HW1 2722   0.230   0.496   1.495  1.7820  0.5327  0.2759
  681SOL    HW2 2723   0.222   0.514   1.352  0.3626 -2.7733  0.3268
  681SOL     MW 2724   0.234   0.549   1.433  0.4997 -0.4812  0.4562
  682SOL     OW 2725   3.067   2.863   1.531  0.3812  0.5200 -0.9777
  682SOL    HW1 2726   3.123   2.941   1.530 -2.2094  0.0139  1.8017
  682SOL    HW2 2727   2.986   2.901   1.571  0.2982  3.0179 -0.6557
  682SOL     MW 2728   3.064   2.878   1.536  0.0284  0.7828 -0.5685
  683SOL     OW 2729   2.125   0.769   3.035  0.2522  0.2105 -0.0004
  683SOL    HW1 2730   2.031   0.735   3.056 -0.0977  2.1357  0.9055
  683SOL    HW2 2731   2.111   0.864   3.069 -1.7028 -0.7192  1.2637
  683SOL     MW 2732   2.110   0.777   3.042 -0.0519  0.3418  0.2859
  684SOL     OW 2733   2.043   1.791   0.681  0.3701  0.0900  0.3504
  684SOL    HW1 2734   2.104   1.744   0.623 -0.8129  3.1353 -1.1926
  684SOL    HW2 2735   1.985   1.720   0.716 -1.4210 -0.1078 -0.2116
  684SOL     MW 2736   2.043   1.776   0.678 -0.0223  0.4657  0.0727
  685SOL     OW 2737   2.616   1.711   1.156  0.2268 -0.5069  0.4107
  685SOL    HW1 2738   2.685   1.699   1.219  2.4783 -1.1052 -2.7005
  685SOL    HW2 2739   2.588   1.627   1.127 -0.8119 -1.9082  1.3793
  685SOL     MW 2740   2.621   1.698   1.161  0.3868 -0.7708  0.1280
  686SOL     OW 2741   2.861   0.651   1.513 -0.0068  0.4221 -0.3959
  686SOL    HW1 2742   2.857   0.644   1.606 -1.0627  0.3712  1.8966
  686SOL    HW2 2743   2.952   0.675   1.487 -1.8390 -0.2133 -0.6836
  686SOL     MW 2744   2.873   0.653   1.522 -0.3878  0.3315 -0.1314
  687SOL     OW 2745   2.195   0.246   1.167  0.2546  0.2434 -0.0690
  687SOL    HW1 2746   2.232   0.197   1.095 -3.4832  0.3672  1.1662
  687SOL    HW2 2747   2.112   0.254   1.119 -0.3411 -0.1003 -1.2438
  687SOL     MW 2748   2.189   0.240   1.151 -0.3171  0.2144 -0.0610
  688SOL     OW 2749   2.426   0.577   1.473 -0.0765 -0.1783 -0.0344
  688SOL    HW1 2750   2.385   0.533   1.396  1.0388 -1.3679 -1.5780
  688SOL    HW2 2751   2.351   0.616   1.524 -0.9740 -1.4533  0.7385
  688SOL     MW 2752   2.410   0.576   1.470 -0.0478 -0.5035 -0.1361
  689SOL     OW 2753   2.446   0.711   3.004 -0.5019 -0.6625  0.2197
  689SOL    HW1 2754   2.374   0.744   3.057 -0.4889  0.9729 -0.9783
  689SOL    HW2 2755   2.532   0.713   3.051 -0.1873 -2.2272  2.6361
  689SOL     MW 2756   2.448   0.715   3.017 -0.4587 -0.6532  0.3804
  690SOL     OW 2757   2.056   0.951   1.869  0.0997 -0.6051  0.5000
  690SOL    HW1 2758   2.051   0.855   1.870 -2.0307 -2.1369  0.1879
  690SOL    HW2 2759   2.094   0.965   1.785 -0.2448 -0.8192 -1.2578
  690SOL     MW 2760   2.061   0.940   1.858 -0.2268 -0.8355  0.2269
  691SOL     OW 2761   2.413   0.292   0.849 -0.7373  0.3331 -0.3827
  691SOL    HW1 2762   2.514   0.292   0.856 -1.2665 -0.4912 -1.0544
  691SOL    HW2 2763   2.395   0.386   0.816  0.7704  3.6857  1.4868
  691SOL     MW 2764   2.424   0.304   0.846 -0.6082  0.6667 -0.2247
  692SOL     OW 2765   2.785   1.657   1.374  0.5130  0.2009 -0.2472
  692SOL    HW1 2766   2.709   1.693   1.413 -2.6863 -1.4274 -2.0419
  692SOL    HW2 2767   2.861   1.711   1.402  3.4188 -1.0471  3.7676
  692SOL     MW 2768   2.785   1.669   1.383  0.4743 -0.1786  0.0457
  693SOL     OW 2769   2.189   0.418   3.086 -0.3202  0.1912  0.1500
  693SOL    HW1 2770   2.171   0.329   3.122 -0.8176 -3.0302  0.1588
  693SOL    HW2 2771   2.205   0.471   3.161  3.4050 -2.5899 -0.0966
  693SOL     MW 2772   2.189   0.413   3.100  0.1056 -0.6008  0.1186
  694SOL     OW 2773   1.954   1.170   1.176 -0.3497  0.0155  0.3054
  694SOL    HW1 2774   2.048   1.134   1.177 -0.3273 -1.3209  1.9149
  694SOL    HW2 2775   1.882   1.106   1.198 -0.3630  1.3603 -2.3059
  694SOL     MW 2776   1.957   1.157   1.179 -0.3485  0.0166  0.1732
  695SOL     OW 2777   2.967   1.406   1.330  1.1042 -0.3027 -0.0771
  695SOL    HW1 2778   2.923   1.395   1.243 -1.3012  0.1404 -0.2405
  695SOL    HW2 2779   2.890   1.434   1.376 -0.0290  0.6820 -0.5359
  695SOL     MW 2780   2.951   1.408   1.325  0.6373 -0.1144 -0.1592
  696SOL     OW 2781   2.071   1.315   0.776  0.0039 -0.4424  0.4596
  696SOL    HW1 2782   2.128   1.376   0.828  0.8070  0.4306 -1.0193
  696SOL    HW2 2783   2.020   1.258   0.837 -0.5404  0.2402  1.9022
  696SOL     MW 2784   2.072   1.315   0.791  0.0380 -0.2371  0.4548
  697SOL     OW 2785   2.919   1.035   2.269  0.3712 -0.0946  0.3175
  697SOL    HW1 2786   2.848   1.104   2.242 -0.7027  0.3316 -0.3247
  697SOL    HW2 2787   2.878   0.949   2.280 -0.7984  2.9299  0.3899
  697SOL     MW 2788   2.904   1.032   2.267  0.0752  0.3606  0.2423
  698SOL     OW 2789   2.475   0.383   3.067 -0.5186  0.2347 -0.2799
  698SOL    HW1 2790   2.386   0.401   3.061  1.1645 -0.5440  3.9224
  698SOL    HW2 2791   2.491   0.385   3.163 -0.9580 -0.9972 -1.9070
  698SOL     MW 2792   2.466   0.386   3.079 -0.3545 -0.0306  0.0599
  699SOL     OW 2793   1.874   1.544   2.005 -0.4815  0.1386  0.5989
  699SOL    HW1 2794   1.821   1.470   2.013 -0.5119  0.2200 -2.5902
  699SOL    HW2 2795   1.927   1.529   1.923  1.5644  1.3308 -0.3301
  699SOL     MW 2796   1.874   1.532   1.995 -0.2156  0.3067  0.0555
  700SOL     OW 2797   2.726   0.881   1.535 -0.2679 -0.2881 -0.9820
  700SOL    HW1 2798   2.758   0.965   1.511  0.6066  1.4820 -1.8390
  700SOL    HW2 2799   2.795   0.819   1.516  0.6210  0.7470 -1.6691
  700SOL     MW 2800   2.740   0.884   1.530 -0.0352  0.0820 -1.1858
  701SOL     OW 2801   1.658   1.050   2.551  0.4976 -0.1474 -0.0798
  701SOL    HW1 2802   1.740   1.023   2.585 -3.6796 -0.9658 -0.7505
  701SOL    HW2 2803   1.644   1.134   2.590  1.4470 -3.3695  1.1261
  701SOL     MW 2804   1.667   1.058   2.561  0.0717 -0.6805 -0.0092
  702SOL     OW 2805   2.080   0.471   0.728 -0.2950 -0.7110  0.2216
  702SOL    HW1 2806   2.092   0.383   0.700 -0.1898  0.4752  0.1087
  702SOL    HW2 2807   2.132   0.530   0.668  1.8128 -3.6591 -0.8288
  702SOL     MW 2808   2.089   0.467   0.716 -0.0030 -0.9435  0.0681
  703SOL     OW 2809   2.657   1.250   1.001 -0.0764 -0.0318 -0.3381
  703SOL    HW1 2810   2.657   1.259   0.904  2.0618  1.7975 -1.1517
  703SOL    HW2 2811   2.667   1.157   1.013 -2.0113  0.6724 -1.3807
  703SOL     MW 2812   2.658   1.239   0.990 -0.0496  0.3025 -0.5830
  704SOL     OW 2813   3.072   1.250   0.199 -0.7049 -0.5501 -0.1879
  704SOL    HW1 2814   2.993   1.216   0.163  0.2598 -1.7607 -0.7620
  704SOL    HW2 2815   3.079   1.202   0.277  1.8401 -1.1422 -2.4711
  704SOL     MW 2816   3.063   1.239   0.204 -0.2418 -0.7879 -0.5649
  705SOL     OW 2817   2.028   1.652   1.286 -0.4413  0.0689 -0.7815
  705SOL    HW1 2818   1.940   1.701   1.270 -0.2487 -1.1421 -0.1820
  705SOL    HW2 2819   2.055   1.666   1.381 -0.7242  3.5169  2.6263
  705SOL     MW 2820   2.020   1.661   1.297 -0.4532  0.3640 -0.2527
  706SOL     OW 2821   3.052   1.201   0.637 -0.1625  0.0230  0.2216
  706SOL    HW1 2822   3.113   1.198   0.557 -2.4926  0.4288 -3.0033
  706SOL    HW2 2823   3.038   1.294   0.650  1.0028  0.3639  1.0469
  706SOL     MW 2824   3.058   1.213   0.628 -0.3161  0.1215 -0.0950
  707SOL     OW 2825   2.299   0.049   0.935 -0.7060  0.3519 -0.3559
  707SOL    HW1 2826   2.345   0.129   0.901  1.2703 -0.7360 -0.5416
  707SOL    HW2 2827   2.224   0.043   0.878 -3.7778  3.0203 -2.0538
  707SOL     MW 2828   2.295   0.058   0.923 -0.8505  0.5605 -0.6044
  708SOL     OW 2829   2.371   1.428   0.083 -0.6416  0.1013  0.5013
  708SOL    HW1 2830   2.457   1.408   0.119 -0.6244  1.4966  1.9672
  708SOL    HW2 2831   2.378   1.411  -0.011 -0.0775  0.0427 -0.5462
  708SOL     MW 2832   2.383   1.423   0.076 -0.5649  0.2777  0.5565
  709SOL     OW 2833   1.668   1.555   0.188 -0.0251 -0.1408 -0.8423
  709SOL    HW1 2834   1.677   1.611   0.105  0.4763  1.7145 -1.8202
  709SOL    HW2 2835   1.597   1.590   0.247  2.1541 -2.6839  0.4195
  709SOL     MW 2836   1.660   1.567   0.185  0.3286 -0.2315 -0.8048
  710SOL     OW 2837   2.210   1.118   1.129 -0.3170 -0.1768 -0.4280
  710SOL    HW1 2838   2.194   1.072   1.043 -1.9433  1.7069 -3.5798
  710SOL    HW2 2839   2.260   1.065   1.184 -0.8542  0.5712  0.1219
  710SOL     MW 2840   2.214   1.105   1.125 -0.6025  0.1704 -0.7713
  711SOL     OW 2841   2.385   0.115   1.761  0.6693 -0.1368  0.0458
  711SOL    HW1 2842   2.474   0.080   1.772 -2.1683  0.6174  2.7260
  711SOL    HW2 2843   2.376   0.164   1.678 -1.4028  0.8145  0.7700
  711SOL     MW 2844   2.396   0.117   1.752  0.0215  0.0882  0.4950
  712SOL     OW 2845   1.892   0.636   3.081 -0.3151 -0.4620  0.7084
  712SOL    HW1 2846   1.830   0.659   3.013  2.6882  0.9619 -2.2290
  712SOL    HW2 2847   1.839   0.650   3.163  0.9494  0.1214 -0.7351
  712SOL     MW 2848   1.877   0.641   3.083  0.2480 -0.1971  0.1304
  713SOL     OW 2849   2.589   0.707   1.121 -0.0152  0.0516  0.1794
  713SOL    HW1 2850   2.555   0.618   1.120 -0.4713 -2.4843 -0.5614
  713SOL    HW2 2851   2.581   0.741   1.210  0.0186 -1.0652 -0.2162
  713SOL     MW 2852   2.583   0.700   1.132 -0.0710 -0.4304  0.0295
  714SOL     OW 2853   2.271   0.218   2.000 -0.3893  0.3141  0.4401
  714SOL    HW1 2854   2.304   0.158   2.068 -0.0769  3.2806  2.5747
  714SOL    HW2 2855   2.312   0.183   1.920 -4.1701 -0.9971  1.1085
  714SOL     MW 2856   2.281   0.205   1.998 -0.8469  0.5325  0.8099
  715SOL     OW 2857   1.843   1.977   1.725 -0.1746  0.1880  0.6881
  715SOL    HW1 2858   1.935   2.004   1.748  0.3413 -0.9166 -0.4272
  715SOL    HW2 2859   1.826   1.889   1.749  1.5322 -0.1356 -2.1799
  715SOL     MW 2860   1.853   1.969   1.731  0.1186 -0.0004  0.1626
  716SOL     OW 2861   2.425   0.543   0.731 -0.4580  0.3065  0.0873
  716SOL    HW1 2862   2.510   0.545   0.691  2.1999 -1.4922 -1.5258
  716SOL    HW2 2863   2.360   0.574   0.670 -0.8044 -1.1767 -3.3801
  716SOL     MW 2864   2.428   0.547   0.717 -0.1530 -0.1265 -0.5830
  717SOL     OW 2865   2.776   1.672   2.845  0.0044  0.1798  0.8128
  717SOL    HW1 2866   2.843   1.635   2.902 -1.8571  1.9169  0.5533
  717SOL    HW2 2867   2.736   1.742   2.896 -0.0359  3.8342  1.5376
  717SOL     MW 2868   2.779   1.677   2.859 -0.2465  0.8912  0.8742
  718SOL     OW 2869   2.655   1.328   1.386 -0.5521  0.5095  0.6214
  718SOL    HW1 2870   2.577   1.299   1.340  1.5035  2.5103  1.7707
  718SOL    HW2 2871   2.620   1.370   1.468 -1.2155  0.9996  1.0592
  718SOL     MW 2872   2.640   1.330   1.391 -0.3684  0.8382  0.8308
  719SOL     OW 2873   2.175   1.197   0.525 -0.4158 -0.6192  0.1754
  719SOL    HW1 2874   2.252   1.250   0.493 -0.0674 -1.8764 -1.1989
  719SOL    HW2 2875   2.137   1.244   0.609  0.4271  2.6200  0.2401
  719SOL     MW 2876   2.180   1.210   0.531 -0.2586 -0.3577  0.0026
  720SOL     OW 2877   2.801   1.246   0.064  0.1090  0.0630  0.3069
  720SOL    HW1 2878   2.781   1.148   0.082 -2.4222 -1.4108  0.0866
  720SOL    HW2 2879   2.736   1.305   0.104  0.1188  2.2444  0.8806
  720SOL     MW 2880   2.790   1.241   0.071 -0.2237  0.1564  0.3535
  721SOL     OW 2881   2.538   0.796   1.377 -0.2326  0.0751  0.5854
  721SOL    HW1 2882   2.508   0.706   1.402 -0.6298  0.3177 -2.2281
  721SOL    HW2 2883   2.611   0.830   1.430  2.2592  0.4514  1.3312
  721SOL     MW 2884   2.543   0.788   1.387  0.0437  0.1568  0.3126
  722SOL     OW 2885   2.623   1.156   0.379  0.1477  0.6147 -0.0635
  722SOL    HW1 2886   2.557   1.204   0.429 -1.3573 -0.8635 -1.4683
  722SOL    HW2 2887   2.680   1.132   0.451 -3.3066 -1.1694  1.2256
  722SOL     MW 2888   2.622   1.159   0.395 -0.5067  0.1843 -0.0788
  723SOL     OW 2889   2.266   1.406   1.542 -0.0918  0.7907 -0.3912
  723SOL    HW1 2890   2.298   1.391   1.452  4.8549  0.8026  1.9261
  723SOL    HW2 2891   2.208   1.479   1.545  1.5950  0.5842 -0.0764
  723SOL     MW 2892   2.262   1.414   1.530  0.7834  0.7651 -0.0439
  724SOL     OW 2893   2.451   0.198   0.602  0.7304 -0.6499 -0.2891
  724SOL    HW1 2894   2.451   0.239   0.691  1.4262 -0.0973  1.3805
  724SOL    HW2 2895   2.535   0.160   0.589 -1.4179 -2.9616 -2.5898
  724SOL     MW 2896   2.462   0.199   0.612  0.5387 -0.8820 -0.3723
  725SOL     OW 2897   2.623   0.382   1.125  0.1071  0.0283 -0.2516
  725SOL    HW1 2898   2.686   0.412   1.190 -2.3728  0.3838 -1.4486
  725SOL    HW2 2899   2.583   0.304   1.167 -0.6108 -0.8211 -2.3324
  725SOL     MW 2900   2.626   0.376   1.139 -0.3148 -0.0368 -0.6841
  726SOL     OW 2901   2.432   2.461   0.421 -0.7390  0.1904 -0.1367
  726SOL    HW1 2902   2.448   2.552   0.437 -0.2591 -1.5874  0.5275
  726SOL    HW2 2903   2.392   2.429   0.506 -2.5104 -2.0257  0.9503
  726SOL     MW 2904   2.429   2.469   0.434 -0.9094 -0.3365  0.0943
  727SOL     OW 2905   2.831   0.314   1.751 -0.3285  0.6359 -0.0725
  727SOL    HW1 2906   2.744   0.292   1.715 -2.0643  0.5201 -0.4409
  727SOL    HW2 2907   2.844   0.260   1.832  0.8004 -1.2889  3.0890
  727SOL     MW 2908   2.821   0.304   1.757 -0.4086  0.3666  0.2960
  728SOL     OW 2909   2.808   1.244   2.884  0.3315  0.2730  0.5176
  728SOL    HW1 2910   2.816   1.321   2.837 -0.6749 -0.6230  0.2352
  728SOL    HW2 2911   2.812   1.267   2.976 -1.3704  1.6432 -1.2292
  728SOL     MW 2912   2.810   1.257   2.890 -0.0258  0.3356  0.2498
  729SOL     OW 2913   2.468   1.488   1.055 -0.9476 -0.6268  0.0140
  729SOL    HW1 2914   2.536   1.420   1.062  1.1233  1.8929 -1.9474
  729SOL    HW2 2915   2.451   1.485   0.959 -0.6370 -0.9541 -0.2155
  729SOL     MW 2916   2.475   1.479   1.043 -0.6334 -0.3375 -0.2751
  730SOL     OW 2917   2.178   1.164   0.196  0.1347  0.0357 -0.0451
  730SOL    HW1 2918   2.262   1.113   0.186  2.4166  0.7259 -2.1026
  730SOL    HW2 2919   2.198   1.258   0.207 -0.9515 -0.0672 -0.4587
  730SOL     MW 2920   2.191   1.169   0.196  0.2925  0.1132 -0.3711
  731SOL     OW 2921   2.795   1.974   2.951  0.4438 -0.0958  0.2724
  731SOL    HW1 2922   2.758   1.973   2.861 -0.8226 -0.3847 -2.2821
  731SOL    HW2 2923   2.882   2.004   2.930 -1.4861  2.5125  0.7995
  731SOL     MW 2924   2.801   1.978   2.936  0.0221  0.2102  0.0049
  732SOL     OW 2925   2.337   0.991   1.347  0.0671 -0.2491  0.7776
  732SOL    HW1 2926   2.295   1.009   1.426  3.0220 -1.1653  0.3742
  732SOL    HW2 2927   2.402   0.925   1.371 -1.2424  0.2659  0.3631
  732SOL     MW 2928   2.340   0.984   1.361  0.2842 -0.3020  0.6696
  733SOL     OW 2929   2.416   2.689   2.962  0.3671  0.1511 -0.3387
  733SOL    HW1 2930   2.329   2.731   2.991  0.0348  0.7384 -1.3712
  733SOL    HW2 2931   2.420   2.599   2.986  1.7938 -0.2744 -1.1565
  733SOL     MW 2932   2.405   2.683   2.969  0.5115  0.1724 -0.5828
  734SOL     OW 2933   1.544   0.245   2.545  0.7221 -0.3011 -0.0234
  734SOL    HW1 2934   1.511   0.199   2.624  0.0601 -1.1105  0.1925
  734SOL    HW2 2935   1.529   0.200   2.465  0.1322 -1.0407 -0.9416
  734SOL     MW 2936   1.538   0.233   2.545  0.5569 -0.5055 -0.1161
  735SOL     OW 2937   3.025   0.887   2.658 -0.5414  0.4434  0.4333
  735SOL    HW1 2938   3.023   0.789   2.657 -2.8238 -0.1735 -0.7204
  735SOL    HW2 2939   3.055   0.912   2.746  2.0672 -1.9611  1.4023
  735SOL     MW 2940   3.029   0.877   2.669 -0.4984  0.0448  0.4089
  736SOL     OW 2941   0.163   0.576   2.554 -0.0584 -0.3544 -0.2142
  736SOL    HW1 2942   0.159   0.633   2.479  1.4458 -0.7777 -1.6614
  736SOL    HW2 2943   0.215   0.508   2.512 -2.0437 -0.0679  0.1485
  736SOL     MW 2944   0.169   0.575   2.539 -0.1219 -0.3724 -0.3573
  737SOL     OW 2945   3.001   0.613   2.664  0.4080  0.5009  0.5208
  737SOL    HW1 2946   2.943   0.632   2.587  0.2289  1.1646 -0.5719
  737SOL    HW2 2947   3.082   0.588   2.622 -0.7009  1.1240  2.2491
  737SOL     MW 2948   3.004   0.612   2.649  0.2381  0.6706  0.6046
  738SOL     OW 2949   0.147   0.452   1.844  0.0645  0.7768 -0.4438
  738SOL    HW1 2950   0.232   0.493   1.855 -0.1204  3.1192 -1.3833
  738SOL    HW2 2951   0.144   0.441   1.746 -0.0688 -2.0942  1.1612
  738SOL     MW 2952   0.158   0.456   1.833  0.0225  0.7071 -0.3560
  739SOL     OW 2953   2.511   0.958   2.130  0.2545 -0.0127  0.1654
  739SOL    HW1 2954   2.438   0.948   2.071  0.0023 -2.0239 -0.7137
  739SOL    HW2 2955   2.572   0.921   2.066  2.3865  1.0102 -0.7374
  739SOL     MW 2956   2.509   0.952   2.114  0.5025 -0.1431 -0.0697
  740SOL     OW 2957   0.180   1.798   2.944 -0.3117 -0.1031 -0.3054
  740SOL    HW1 2958   0.134   1.718   2.928 -3.3669 -0.8029 -1.3129
  740SOL    HW2 2959   0.268   1.766   2.983 -1.1649 -5.0347  3.7687
  740SOL     MW 2960   0.186   1.783   2.947 -0.8274 -0.8461  0.0992
  741SOL     OW 2961   2.299   1.179   2.698  0.0925 -0.3785 -0.3969
  741SOL    HW1 2962   2.242   1.248   2.648 -1.2888  0.5812 -1.8795
  741SOL    HW2 2963   2.268   1.183   2.790  0.2149 -1.0309 -0.5890
  741SOL     MW 2964   2.287   1.189   2.703 -0.0736 -0.3379 -0.6179
  742SOL     OW 2965   1.530   1.291   2.394 -0.2177  0.9420  0.1206
  742SOL    HW1 2966   1.450   1.288   2.339  0.3641  0.2420  1.1863
  742SOL    HW2 2967   1.540   1.199   2.423  1.9514 -0.1617 -1.4586
  742SOL     MW 2968   1.521   1.279   2.391  0.1452  0.7040  0.0529
  743SOL     OW 2969   2.572   1.260   2.681  0.2462  0.1202 -0.2160
  743SOL    HW1 2970   2.477   1.218   2.691 -1.1043 -0.0414  1.4056
  743SOL    HW2 2971   2.619   1.233   2.759 -1.2056  2.0080  0.1513
  743SOL     MW 2972   2.566   1.251   2.693 -0.1235  0.3480  0.0464
  744SOL     OW 2973   2.727   0.929   1.895  0.5239  0.0266 -0.3185
  744SOL    HW1 2974   2.672   0.987   1.839  1.6006  1.7789  0.7689
  744SOL    HW2 2975   2.692   0.841   1.874  0.4352 -0.3612 -2.3752
  744SOL     MW 2976   2.715   0.925   1.885  0.6542  0.2066 -0.4464
  745SOL     OW 2977   1.722   0.444   2.460 -0.2720 -0.0250 -0.1779
  745SOL    HW1 2978   1.697   0.434   2.367  0.3642 -1.4391 -1.3056
  745SOL    HW2 2979   1.660   0.387   2.512 -0.1596  0.5711  1.7409
  745SOL     MW 2980   1.710   0.435   2.454 -0.1733 -0.1329 -0.0735
  746SOL     OW 2981   1.609   1.561   1.677 -0.4990 -0.2789 -0.1707
  746SOL    HW1 2982   1.665   1.627   1.717 -1.0980 -3.6647 -0.2793
  746SOL    HW2 2983   1.592   1.504   1.749 -1.0181 -1.0411 -3.6406
  746SOL     MW 2984   1.614   1.562   1.692 -0.6465 -0.8262 -0.6429
  747SOL     OW 2985   2.564   1.144   1.799  0.6934  0.2845 -0.1261
  747SOL    HW1 2986   2.472   1.146   1.766  0.0784  1.2889 -0.9283
  747SOL    HW2 2987   2.550   1.181   1.882 -3.2076  3.0237 -1.4851
  747SOL     MW 2988   2.550   1.149   1.806  0.0976  0.7785 -0.4113
  748SOL     OW 2989   0.062   0.121   1.848 -0.4492 -0.1134 -0.0750
  748SOL    HW1 2990   0.149   0.079   1.865 -0.9716 -1.0167  1.5823
  748SOL    HW2 2991   0.056   0.203   1.898 -1.3782  1.1635  1.1897
  748SOL     MW 2992   0.073   0.126   1.857 -0.6407 -0.0641  0.3105
  749SOL     OW 2993   2.530   0.633   2.757 -0.9550  0.5669 -1.0924
  749SOL    HW1 2994   2.545   0.719   2.707 -1.8835  1.3800  0.1677
  749SOL    HW2 2995   2.493   0.655   2.846 -0.8494 -0.0726 -1.7236
  749SOL     MW 2996   2.527   0.647   2.762 -1.0636  0.5898 -1.0094
  750SOL     OW 2997   2.103   3.095   1.936  0.4413  0.3015 -0.0218
  750SOL    HW1 2998   2.158   3.174   1.950  1.7313 -0.2854 -0.9051
  750SOL    HW2 2999   2.168   3.025   1.930  1.5002 -0.0762 -1.7969
  750SOL     MW 3000   2.119   3.096   1.937  0.7512  0.1742 -0.3725
  751SOL     OW 3001   0.262   0.332   2.383 -0.8089 -0.3177  0.8349
  751SOL    HW1 3002   0.181   0.286   2.381  1.1630 -1.0348  2.1743
  751SOL    HW2 3003   0.290   0.329   2.286  2.8386  2.8315  0.4880
  751SOL     MW 3004   0.255   0.326   2.370 -0.0675  0.0032  0.9659
  752SOL     OW 3005   2.122   0.836   2.709 -0.6574 -0.1509 -0.2063
  752SOL    HW1 3006   2.203   0.878   2.682  1.2306 -1.1836 -0.4103
  752SOL    HW2 3007   2.128   0.827   2.807 -2.6430 -0.1313  1.0093
  752SOL     MW 3008   2.134   0.840   2.718 -0.6703 -0.2846 -0.0728
  753SOL     OW 3009   2.768   0.120   2.420 -0.2483  0.2209 -0.4932
  753SOL    HW1 3010   2.747   0.026   2.407  0.0984  1.7592  0.7953
  753SOL    HW2 3011   2.752   0.167   2.339  0.1579 -0.2801 -1.6015
  753SOL     MW 3012   2.763   0.114   2.408 -0.1490  0.3577 -0.4695
  754SOL     OW 3013   2.272   2.955   2.638  0.2088  0.2958  0.0068
  754SOL    HW1 3014   2.300   2.955   2.547 -2.9523 -3.0494  1.0672
  754SOL    HW2 3015   2.329   2.886   2.679  1.7427 -0.9726  0.1102
  754SOL     MW 3016   2.283   2.946   2.632 -0.0059 -0.3129  0.1604
  755SOL     OW 3017   2.722   1.536   2.419 -0.0361 -0.3709 -0.6190
  755SOL    HW1 3018   2.742   1.450   2.464 -0.7277 -2.9928  0.0351
  755SOL    HW2 3019   2.772   1.600   2.475 -1.3636 -3.0144  0.6617
  755SOL     MW 3020   2.731   1.533   2.432 -0.3025 -1.0656 -0.3637
  756SOL     OW 3021   2.197   1.202   2.944  0.0205  0.3847 -0.2227
  756SOL    HW1 3022   2.244   1.282   2.909  1.3768 -0.8087 -1.4142
  756SOL    HW2 3023   2.266   1.155   2.996 -0.6175 -0.4199  0.2435
  756SOL     MW 3024   2.212   1.206   2.946  0.1152  0.1211 -0.3184
  757SOL     OW 3025   2.160   0.960   1.573 -0.0500  0.2389  0.2512
  757SOL    HW1 3026   2.184   0.865   1.575 -0.6017  1.4766  1.2912
  757SOL    HW2 3027   2.070   0.974   1.535 -1.2792  0.3483 -1.6008
  757SOL     MW 3028   2.152   0.950   1.569 -0.2850  0.4167  0.1441
  758SOL     OW 3029   2.190   1.767   2.596 -0.1115 -0.1113 -0.3947
  758SOL    HW1 3030   2.177   1.801   2.504  1.7066  1.4977  0.1426
  758SOL    HW2 3031   2.282   1.764   2.611 -1.5893 -0.6980  0.1637
  758SOL     MW 3032   2.200   1.771   2.586 -0.0666  0.0236 -0.2501
  759SOL     OW 3033   1.550   1.256   2.687 -0.1116 -0.4458 -0.4683
  759SOL    HW1 3034   1.515   1.314   2.618  1.3227  0.9452  1.5740
  759SOL    HW2 3035   1.598   1.313   2.751 -2.4136 -2.2697 -0.2091
  759SOL     MW 3036   1.552   1.271   2.686 -0.2261 -0.5029 -0.1646
  760SOL     OW 3037   2.663   1.960   2.698 -0.6900  0.0376 -0.0602
  760SOL    HW1 3038   2.597   1.888   2.674  2.2376  0.3772 -0.8311
  760SOL    HW2 3039   2.696   1.999   2.617  0.6067  1.3056 -1.0242
  760SOL     MW 3040   2.659   1.956   2.684 -0.1326  0.2497 -0.2891
  761SOL     OW 3041   2.206   0.356   2.526 -0.2040 -0.1481 -0.4374
  761SOL    HW1 3042   2.137   0.306   2.578 -0.8357 -2.5784  0.7106
  761SOL    HW2 3043   2.220   0.430   2.580 -0.9941  0.7162 -2.6676
  761SOL     MW 3044   2.199   0.359   2.540 -0.3916 -0.3547 -0.5802
  762SOL     OW 3045   3.074   0.287   2.133  0.2924  0.2882  0.0507
  762SOL    HW1 3046   3.065   0.205   2.182 -0.2116  0.0428 -1.2555
  762SOL    HW2 3047   3.039   0.363   2.185 -1.4891  1.3046  0.5423
  762SOL     MW 3048   3.068   0.286   2.146 -0.0091  0.3899 -0.0568
  763SOL     OW 3049   2.371   1.039   2.351  0.3477  0.4989  0.3125
  763SOL    HW1 3050   2.418   1.000   2.281 -2.1392  1.5596  1.6497
  763SOL    HW2 3051   2.428   1.111   2.366 -3.6675  1.4577  1.3180
  763SOL     MW 3052   2.385   1.044   2.344 -0.5102  0.7653  0.6216
  764SOL     OW 3053   0.422   0.308   2.848  0.1995  0.0715 -0.5911
  764SOL    HW1 3054   0.340   0.270   2.810  0.9180 -0.1619 -0.3325
  764SOL    HW2 3055   0.391   0.389   2.889  1.3860 -1.4037  1.5633
  764SOL     MW 3056   0.407   0.314   2.848  0.4509 -0.1539 -0.2728
  765SOL     OW 3057   2.738   2.942   2.378 -0.0482  0.0668 -0.2819
  765SOL    HW1 3058   2.700   2.976   2.294  0.7566 -0.1562 -1.1301
  765SOL    HW2 3059   2.828   2.912   2.360 -1.4545 -0.9735  0.6605
  765SOL     MW 3060   2.745   2.942   2.364 -0.1276 -0.0999 -0.2695
  766SOL     OW 3061   1.909   2.999   2.129  0.1727 -0.2175 -0.2475
  766SOL    HW1 3062   1.960   3.020   2.048 -0.8574 -0.9883 -2.6449
  766SOL    HW2 3063   1.858   2.925   2.106  0.9502  4.2070 -1.2595
  766SOL     MW 3064   1.909   2.992   2.115  0.1393  0.2646 -0.6974
  767SOL     OW 3065   2.671   0.587   2.074  0.2822 -0.2696  0.0586
  767SOL    HW1 3066   2.728   0.647   2.125  1.4999 -1.5698  0.1013
  767SOL    HW2 3067   2.588   0.633   2.049 -0.0095 -1.8986 -1.5198
  767SOL     MW 3068   2.668   0.601   2.078  0.4044 -0.6561 -0.1440
  768SOL     OW 3069   2.983   1.562   2.965  0.3689 -0.0539  0.3761
  768SOL    HW1 3070   3.028   1.551   3.055  2.1786 -2.0982 -1.9400
  768SOL    HW2 3071   3.041   1.520   2.910  1.9935  2.3208  0.5134
  768SOL     MW 3072   2.997   1.555   2.970  0.8220 -0.0103  0.0886
  769SOL     OW 3073   2.534   0.632   2.442  0.2037  0.2661  0.1496
  769SOL    HW1 3074   2.526   0.657   2.355 -2.7833  0.2509 -0.9099
  769SOL    HW2 3075   2.629   0.632   2.455 -1.4529  3.5513  1.8128
  769SOL     MW 3076   2.546   0.635   2.432 -0.4090  0.6975  0.2292
  770SOL     OW 3077   3.070   1.610   2.509  0.4520  0.0256 -0.0548
  770SOL    HW1 3078   2.981   1.627   2.533  0.3032  0.3497 -3.6479
  770SOL    HW2 3079   3.079   1.511   2.488  2.5137  0.0768 -2.0077
  770SOL     MW 3080   3.060   1.599   2.509  0.7044  0.0751 -0.7865
  771SOL     OW 3081   3.056   0.644   1.940  0.1307  0.3006 -0.0930
  771SOL    HW1 3082   2.970   0.611   1.912 -1.3394  2.6529 -1.5885
  771SOL    HW2 3083   3.108   0.570   1.914 -2.9852  1.7090 -0.0355
  771SOL     MW 3084   3.052   0.630   1.933 -0.4744  0.7968 -0.2828
  772SOL     OW 3085   0.034   3.089   2.239  0.1739  0.2991 -0.5375
  772SOL    HW1 3086  -0.008   3.012   2.273 -0.5595 -0.0804  0.6089
  772SOL    HW2 3087   0.125   3.055   2.214  1.3119  0.4488  2.1799
  772SOL     MW 3088   0.040   3.074   2.240  0.2273  0.2687 -0.0277
  773SOL     OW 3089   2.490   2.800   2.710 -0.7244  0.1098 -0.8794
  773SOL    HW1 3090   2.461   2.738   2.644 -1.3652 -0.2662  3.0637
  773SOL    HW2 3091   2.467   2.762   2.794 -0.8723  0.9149 -2.7065
  773SOL     MW 3092   2.483   2.787   2.713 -0.8284  0.1664 -0.6002
  774SOL     OW 3093   2.310   1.164   1.694 -0.6748  0.5134 -0.5985
  774SOL    HW1 3094   2.303   1.240   1.632 -2.6105 -1.3669 -1.3638
  774SOL    HW2 3095   2.257   1.097   1.650 -1.2373  0.7860 -1.9247
  774SOL     MW 3096   2.302   1.165   1.680 -1.0044  0.3013 -0.8744
  775SOL     OW 3097   2.321   2.916   2.340  0.1883 -0.1700 -0.3464
  775SOL    HW1 3098   2.333   2.998   2.297  0.9762 -1.0853  1.4511
  775SOL    HW2 3099   2.395   2.860   2.313  2.8162 -3.1988 -0.1441
  775SOL     MW 3100   2.332   2.919   2.331  0.6390 -0.6904 -0.0826
  776SOL     OW 3101   0.037   1.489   0.096  0.3325 -0.0660  0.2369
  776SOL    HW1 3102   0.140   1.476   0.087  1.0574 -2.9333 -0.4438
  776SOL    HW2 3103  -0.002   1.399   0.125 -1.1371  2.3958  1.0243
  776SOL     MW 3104   0.045   1.475   0.099  0.2342 -0.1195  0.2510
  777SOL     OW 3105   2.971   1.009   1.793  0.5535  0.0905  0.1107
  777SOL    HW1 3106   2.919   1.064   1.740 -0.6586 -0.6078  3.9904
  777SOL    HW2 3107   2.914   0.939   1.812  1.0484 -0.4265 -1.4533
  777SOL     MW 3108   2.957   1.007   1.788  0.4588 -0.0698  0.4162
  778SOL     OW 3109   2.919   0.375   2.790  0.1841  0.5496  0.3920
  778SOL    HW1 3110   2.888   0.398   2.877 -1.2500  1.7164 -0.2381
  778SOL    HW2 3111   2.967   0.455   2.749  1.8459  1.9329 -0.2398
  778SOL     MW 3112   2.921   0.389   2.796  0.2141  0.8861  0.2255
  779SOL     OW 3113   2.106   0.511   2.295  0.2546 -0.0750 -0.3077
  779SOL    HW1 3114   2.036   0.574   2.319 -0.2710 -0.7380 -3.2666
  779SOL    HW2 3115   2.144   0.459   2.365  2.9191  0.0790 -1.7270
  779SOL     MW 3116   2.101   0.513   2.307  0.5368 -0.1421 -0.8854
  780SOL     OW 3117   0.199   0.172   2.797 -0.4080  0.3100 -0.1372
  780SOL    HW1 3118   0.151   0.204   2.877 -1.7503 -1.3763  0.6473
  780SOL    HW2 3119   0.142   0.195   2.726 -2.8408  1.3162  0.4275
  780SOL     MW 3120   0.185   0.179   2.798 -0.9061  0.2203  0.0408
  781SOL     OW 3121   3.069   1.338   2.370 -0.0934  0.2354 -0.0148
  781SOL    HW1 3122   3.016   1.381   2.305  3.2012 -1.3874  0.2681
  781SOL    HW2 3123   3.133   1.291   2.320  1.6678 -0.6722 -0.7501
  781SOL     MW 3124   3.070   1.338   2.355  0.5737 -0.0985 -0.0745
  782SOL     OW 3125   0.551   1.530   3.073  0.1252  0.3358  0.1207
  782SOL    HW1 3126   0.505   1.610   3.048  1.2256 -1.3991 -1.5862
  782SOL    HW2 3127   0.520   1.506   3.160 -2.0677  3.3943 -2.9389
  782SOL     MW 3128   0.541   1.537   3.081 -0.0189  0.5105 -0.5082
  783SOL     OW 3129   2.800   0.589   2.455  0.0693 -0.3390  0.3331
  783SOL    HW1 3130   2.820   0.535   2.378 -0.6752  0.1556  0.0357
  783SOL    HW2 3131   2.770   0.511   2.509  1.8983  0.8270  0.2138
  783SOL     MW 3132   2.799   0.572   2.452  0.2124 -0.1199  0.2781
  784SOL     OW 3133   0.206   0.918   2.853  0.0914  0.7973  0.0934
  784SOL    HW1 3134   0.232   0.958   2.932 -2.0628 -0.8316  0.8933
  784SOL    HW2 3135   0.216   0.980   2.779 -1.0178 -4.0102  0.2341
  784SOL     MW 3136   0.211   0.932   2.854 -0.3392 -0.0519  0.2175
  785SOL     OW 3137   0.378   0.557   2.123  0.6909  0.0714  0.0307
  785SOL    HW1 3138   0.391   0.566   2.028  1.9651 -1.1993  1.7176
  785SOL    HW2 3139   0.308   0.498   2.113  2.3739  2.6435 -3.6593
  785SOL     MW 3140   0.371   0.551   2.109  1.0811  0.2431 -0.2336
  786SOL     OW 3141   2.055   0.449   2.820  0.1187 -0.4013 -0.1411
  786SOL    HW1 3142   2.087   0.461   2.912 -0.1712  1.0197  1.0505
  786SOL    HW2 3143   2.137   0.495   2.776  2.5643  0.3553 -0.3277
  786SOL     MW 3144   2.070   0.456   2.827  0.4031 -0.1140 -0.0085
  787SOL     OW 3145   2.490   0.148   2.889  0.0198  0.2250 -0.4661
  787SOL    HW1 3146   2.511   0.149   2.795  1.3991  1.6749  1.5732
  787SOL    HW2 3147   2.478   0.242   2.921 -1.4279  0.1148  0.4465
  787SOL     MW 3148   2.491   0.161   2.881  0.0108  0.4018 -0.0766
  788SOL     OW 3149   2.983   2.847   2.302  0.4549 -1.1055  0.2850
  788SOL    HW1 3150   2.967   2.769   2.249  0.3260 -0.1020  1.8366
  788SOL    HW2 3151   3.015   2.820   2.383 -2.3260  0.1593 -3.7961
  788SOL     MW 3152   2.985   2.833   2.305  0.0710 -0.8063 -0.0487
  789SOL     OW 3153   0.083   0.275   3.018 -0.0766 -0.1759 -0.5403
  789SOL    HW1 3154  -0.009   0.252   3.022 -0.2049  0.3173 -0.9195
  789SOL    HW2 3155   0.119   0.238   3.099  1.1770 -1.6424  2.0461
  789SOL     MW 3156   0.075   0.267   3.029  0.0719 -0.3043 -0.2491
  790SOL     OW 3157   0.048   1.011   2.455  0.2577 -0.3589 -0.5621
  790SOL    HW1 3158   0.013   0.956   2.529 -0.1756  0.6877  0.0477
  790SOL    HW2 3159  -0.031   1.035   2.403 -0.7325 -0.2886 -3.6693
  790SOL     MW 3160   0.033   1.007   2.458  0.0699 -0.2115 -0.8916
  791SOL     OW 3161   2.673   0.416   2.658 -0.5073  0.1010  0.4214
  791SOL    HW1 3162   2.609   0.485   2.692  0.4421 -1.3113  0.9415
  791SOL    HW2 3163   2.729   0.401   2.730 -0.5342 -0.8331 -1.5882
  791SOL     MW 3164   2.672   0.423   2.672 -0.3856 -0.2086  0.2249
  792SOL     OW 3165   2.471   0.265   2.392 -0.0864  0.2979  0.3328
  792SOL    HW1 3166   2.412   0.334   2.408  1.8533  0.0017 -2.6831
  792SOL    HW2 3167   2.475   0.213   2.475  1.8087 -2.2258  1.8610
  792SOL     MW 3168   2.464   0.267   2.405  0.4196 -0.0741  0.1365
  793SOL     OW 3169   1.777   1.024   1.867  0.6032  0.1004 -0.1700
  793SOL    HW1 3170   1.748   1.070   1.782  1.3043  0.1750  1.3641
  793SOL    HW2 3171   1.848   0.970   1.843 -0.4732  3.5602  0.3471
  793SOL     MW 3172   1.782   1.023   1.853  0.5537  0.5667  0.1007
  794SOL     OW 3173   1.408   2.296   0.147 -0.4962 -0.4868 -0.3816
  794SOL    HW1 3174   1.428   2.359   0.072  0.1010  0.9469  1.7200
  794SOL    HW2 3175   1.466   2.322   0.222 -1.2652  0.6879 -0.2133
  794SOL     MW 3176   1.419   2.307   0.147 -0.5189 -0.1426 -0.0821
  795SOL     OW 3177   2.338   0.934   2.600 -0.3049  0.5304  0.2421
  795SOL    HW1 3178   2.312   1.023   2.620  0.2681 -0.0690  1.4877
  795SOL    HW2 3179   2.329   0.940   2.504  1.9835  0.9494  1.6176
  795SOL     MW 3180   2.333   0.947   2.590  0.0727  0.5066  0.5879
  796SOL     OW 3181   0.286   0.672   2.786  0.3081  0.1562  0.6657
  796SOL    HW1 3182   0.251   0.760   2.815 -1.3631 -1.9014  1.2211
  796SOL    HW2 3183   0.250   0.642   2.699  2.4989 -0.7238  0.4430
  796SOL     MW 3184   0.276   0.680   2.778  0.3766 -0.2314  0.7096
  797SOL     OW 3185   2.577   0.168   2.611 -0.3098  0.1420  0.4417
  797SOL    HW1 3186   2.600   0.256   2.633  1.9478  1.1604  0.6226
  797SOL    HW2 3187   2.654   0.152   2.552  0.3463 -0.7006  1.2969
  797SOL     MW 3188   2.590   0.178   2.606  0.0746  0.1652  0.5784
  798SOL     OW 3189   2.342   0.064   2.216  0.5268 -0.0665 -0.1289
  798SOL    HW1 3190   2.348   0.124   2.294 -0.8027  1.0898 -1.1692
  798SOL    HW2 3191   2.435   0.039   2.203  0.3935 -0.1104 -1.2794
  798SOL     MW 3192   2.355   0.069   2.224  0.3338  0.0803 -0.4179
  799SOL     OW 3193   2.519   2.880   0.218  0.0013  0.1759  0.6387
  799SOL    HW1 3194   2.572   2.842   0.147  0.5060  0.0551  0.1460
  799SOL    HW2 3195   2.466   2.951   0.182  0.3710 -0.3846  1.2706
  799SOL     MW 3196   2.519   2.884   0.204  0.1167  0.0860  0.6571
  800SOL     OW 3197   1.898   3.096   1.731  0.3583  0.2737  0.3044
  800SOL    HW1 3198   1.835   3.021   1.743 -1.3707  1.7226 -1.2757
  800SOL    HW2 3199   1.975   3.089   1.786  1.5786  1.4171 -0.5688
  800SOL     MW 3200   1.900   3.085   1.740  0.2912  0.6158 -0.0193
  801SOL     OW 3201   2.852   1.300   2.539  0.1920 -0.3984 -0.6339
  801SOL    HW1 3202   2.834   1.216   2.580 -0.2109 -1.0295 -1.8030
  801SOL    HW2 3203   2.941   1.295   2.501 -0.5520  1.0003  1.6341
  801SOL     MW 3204   2.861   1.289   2.540  0.0407 -0.2971 -0.4889
  802SOL     OW 3205   2.560   1.505   2.751 -0.4310  0.2495  0.0215
  802SOL    HW1 3206   2.583   1.414   2.721 -0.1982 -0.9402  0.8474
  802SOL    HW2 3207   2.646   1.533   2.794 -0.0158  2.8300 -1.2748
  802SOL     MW 3208   2.574   1.497   2.753 -0.3455  0.4330 -0.0405
  803SOL     OW 3209   2.262   1.336   1.976  0.1230  0.0646  0.3454
  803SOL    HW1 3210   2.254   1.301   2.068  0.9389  2.6438 -0.2737
  803SOL    HW2 3211   2.243   1.262   1.916 -0.4240 -0.3328 -0.9309
  803SOL     MW 3212   2.258   1.322   1.980  0.1585  0.3525  0.0953
  804SOL     OW 3213   2.356  -0.005   0.063 -0.2214  0.1173  0.3199
  804SOL    HW1 3214   2.283   0.068   0.045 -1.9660  0.1184  2.0287
  804SOL    HW2 3215   2.432   0.019   0.010  1.0860 -1.7304 -0.9134
  804SOL     MW 3216   2.356   0.008   0.054 -0.2791 -0.1264  0.3826
  805SOL     OW 3217   2.791   1.035   2.636 -0.0034  0.0731  0.0759
  805SOL    HW1 3218   2.714   0.974   2.629 -0.8911 -0.2524 -0.8643
  805SOL    HW2 3219   2.867   0.974   2.634  0.4209  1.6779  0.6336
  805SOL     MW 3220   2.791   1.019   2.635 -0.0645  0.2419  0.0254
  806SOL     OW 3221   2.675   0.330   2.192  0.4540 -0.3232  0.1967
  806SOL    HW1 3222   2.600   0.316   2.254 -0.4036  2.1316 -0.3617
  806SOL    HW2 3223   2.675   0.421   2.156  2.5365  3.2028 -1.3471
  806SOL     MW 3224   2.665   0.340   2.195  0.6156  0.4659 -0.0807
  807SOL     OW 3225   0.049   1.080   2.116 -0.3597  0.0669 -0.0991
  807SOL    HW1 3226   0.040   1.013   2.049 -1.3305  0.4403 -0.2096
  807SOL    HW2 3227  -0.021   1.064   2.184 -0.6974 -1.7072  1.3414
  807SOL     MW 3228   0.038   1.069   2.116 -0.5323 -0.1179  0.0764
  808SOL     OW 3229   2.652   3.012   2.729 -0.4050 -1.2889 -1.0523
  808SOL    HW1 3230   2.594   2.933   2.729 -1.6797 -0.9618  0.3981
  808SOL    HW2 3231   2.596   3.080   2.688  0.7994  0.2599 -0.3916
  808SOL     MW 3232   2.637   3.011   2.723 -0.4142 -1.0414 -0.7738
  809SOL     OW 3233   2.553   1.248   2.409 -0.1104  0.2914 -0.0734
  809SOL    HW1 3234   2.557   1.251   2.501  1.2620  1.6997  0.7331
  809SOL    HW2 3235   2.647   1.237   2.389  0.7986 -2.4181  0.1903
  809SOL     MW 3236   2.566   1.247   2.419  0.1906  0.1197  0.0678
  810SOL     OW 3237   2.201   1.232   2.252  0.0104 -0.3071 -0.0151
  810SOL    HW1 3238   2.270   1.157   2.263  1.8277 -0.8349 -0.5842
  810SOL    HW2 3239   2.130   1.196   2.308 -0.4127  0.0217 -1.4089
  810SOL     MW 3240   2.201   1.218   2.261  0.1943 -0.3334 -0.2741
  811SOL     OW 3241   1.484   0.058   2.268 -0.0214  0.0058  1.0051
  811SOL    HW1 3242   1.570   0.040   2.298 -1.1952 -0.9209 -0.8565
  811SOL    HW2 3243   1.510   0.062   2.173  1.3837  0.8416 -1.5401
  811SOL     MW 3244   1.499   0.056   2.259  0.0091 -0.0062  0.4237
  812SOL     OW 3245   1.484   2.731   2.104 -0.4187 -0.3775  0.0834
  812SOL    HW1 3246   1.578   2.746   2.102  1.4574 -0.2088  0.1526
  812SOL    HW2 3247   1.469   2.690   2.188  1.6236 -0.6353 -0.1441
  812SOL     MW 3248   1.494   2.728   2.115  0.0983 -0.3892  0.0625
  813SOL     OW 3249   1.843   0.724   2.168  0.0962 -0.0441  0.7670
  813SOL    HW1 3250   1.778   0.652   2.188 -1.4575 -0.4695  2.6394
  813SOL    HW2 3251   1.890   0.724   2.254 -1.6347 -0.6919  0.6525
  813SOL     MW 3252   1.841   0.715   2.182 -0.3372 -0.1857  0.9989
  814SOL     OW 3253   2.800   1.177   1.665 -0.6514  0.3288  0.0978
  814SOL    HW1 3254   2.714   1.165   1.711  0.8014 -0.0943  1.1321
  814SOL    HW2 3255   2.798   1.171   1.573 -0.2445  0.0476 -0.4701
  814SOL     MW 3256   2.789   1.175   1.659 -0.4060  0.2359  0.1593
  815SOL     OW 3257   2.490   1.670   2.368 -0.2044  0.2253  0.1825
  815SOL    HW1 3258   2.422   1.597   2.379  2.8016  0.4431  2.4412
  815SOL    HW2 3259   2.569   1.608   2.363  0.8975 -4.2645  0.0557
  815SOL     MW 3260   2.491   1.652   2.369  0.3376 -0.3383  0.4638
  816SOL     OW 3261   0.708   0.724   2.772  0.1007 -0.0738 -0.2486
  816SOL    HW1 3262   0.742   0.643   2.819 -0.4588 -1.7761  1.0974
  816SOL    HW2 3263   0.671   0.699   2.685 -0.0961  1.8304  0.7991
  816SOL     MW 3264   0.708   0.710   2.767  0.0009 -0.0471  0.0672
  817SOL     OW 3265   0.020   1.186   1.342  0.4561 -0.3476  0.3997
  817SOL    HW1 3266   0.088   1.182   1.405 -0.9802 -0.3054 -0.1556
  817SOL    HW2 3267  -0.014   1.279   1.356  2.1714  2.3242 -0.0202
  817SOL     MW 3268   0.025   1.198   1.352  0.4929  0.0105  0.2710
  818SOL     OW 3269   1.919   1.022   2.659  0.1232 -0.1391 -0.3967
  818SOL    HW1 3270   1.968   1.080   2.594  1.6121  1.0051 -0.4105
  818SOL    HW2 3271   1.983   0.951   2.682  0.5661 -0.4670  1.4343
  818SOL     MW 3272   1.934   1.020   2.653  0.3781 -0.0314 -0.1569
  819SOL     OW 3273   1.980   0.172   2.327  0.2140 -0.3131 -0.0520
  819SOL    HW1 3274   2.068   0.147   2.295 -1.4911  1.0386  1.6462
  819SOL    HW2 3275   1.985   0.190   2.422  2.3820  0.4356 -1.1162
  819SOL     MW 3276   1.992   0.171   2.335  0.2751 -0.0360  0.0316
  820SOL     OW 3277   2.470   1.738   2.633 -0.1222 -0.1173 -0.0987
  820SOL    HW1 3278   2.503   1.654   2.669 -0.2295  0.4896  0.0029
  820SOL    HW2 3279   2.492   1.731   2.539  0.0873  1.6440  0.2567
  820SOL     MW 3280   2.477   1.726   2.625 -0.1087  0.1951 -0.0384
  821SOL     OW 3281   2.537   1.317   1.999  0.6276 -0.1719 -0.1545
  821SOL    HW1 3282   2.574   1.388   1.945  0.3306  0.5906 -1.9075
  821SOL    HW2 3283   2.438   1.333   1.986  0.0592  0.2510  2.1252
  821SOL     MW 3284   2.529   1.329   1.990  0.5134 -0.0155 -0.0850
  822SOL     OW 3285   2.886   2.631   1.422 -0.5051  0.1064 -0.3714
  822SOL    HW1 3286   2.803   2.660   1.389  2.2589  0.1672  0.7671
  822SOL    HW2 3287   2.917   2.690   1.487 -1.8736  1.3759  0.4870
  822SOL     MW 3288   2.879   2.643   1.426 -0.3210  0.2819 -0.1080
  823SOL     OW 3289   2.363   0.463   1.826 -0.1652 -0.3400  0.0837
  823SOL    HW1 3290   2.430   0.423   1.768  0.1168 -1.6647 -0.8902
  823SOL    HW2 3291   2.285   0.411   1.816  1.8647  1.7540 -1.3007
  823SOL     MW 3292   2.361   0.451   1.817  0.1398 -0.2385 -0.2275
  824SOL     OW 3293   2.162   1.371   2.562  0.8222  0.5700  0.0294
  824SOL    HW1 3294   2.231   1.409   2.500  2.1109 -3.0038  2.1591
  824SOL    HW2 3295   2.114   1.439   2.616 -2.2571 -1.7724  0.7590
  824SOL     MW 3296   2.165   1.385   2.561  0.5859 -0.2106  0.4067
  825SOL     OW 3297   2.084   2.342   0.350  0.0269  0.7833 -0.4569
  825SOL    HW1 3298   2.125   2.361   0.267  1.9393 -0.7967 -1.3508
  825SOL    HW2 3299   2.160   2.304   0.397  0.6719 -1.4451  0.4108
  825SOL     MW 3300   2.099   2.340   0.345  0.3643  0.2808 -0.4604
  826SOL     OW 3301   1.842   2.436   0.462  0.3322 -0.2283  0.1551
  826SOL    HW1 3302   1.823   2.380   0.535 -1.7332 -0.4743 -0.0929
  826SOL    HW2 3303   1.939   2.423   0.449  1.2891 -3.3174 -0.7992
  826SOL     MW 3304   1.853   2.427   0.470  0.1859 -0.6683 -0.0036
  827SOL     OW 3305   1.866   2.245   0.911 -0.4218 -0.0336  0.2912
  827SOL    HW1 3306   1.815   2.288   0.841  2.8502  1.8221  0.0432
  827SOL    HW2 3307   1.809   2.168   0.938 -2.0100  1.9561 -0.0952
  827SOL     MW 3308   1.852   2.240   0.905 -0.1996  0.4738  0.2075
  828SOL     OW 3309   0.053   2.686   0.534 -0.0389  0.3950  0.6467
  828SOL    HW1 3310   0.136   2.695   0.578 -0.6553 -0.2008 -0.9063
  828SOL    HW2 3311   0.062   2.722   0.447  0.1992 -0.4717  0.6875
  828SOL     MW 3312   0.065   2.692   0.528 -0.0888  0.2021  0.4472
  829SOL     OW 3313   2.914   2.903   1.132 -0.5389 -0.1166 -0.1513
  829SOL    HW1 3314   2.837   2.883   1.076  1.4215  1.3365  1.6190
  829SOL    HW2 3315   2.973   2.827   1.128 -1.0129  3.3694  0.2735
  829SOL     MW 3316   2.912   2.891   1.124 -0.3428  0.5351  0.1383
  830SOL     OW 3317   2.523   2.889   2.012  0.5479  0.4056 -0.1123
  830SOL    HW1 3318   2.433   2.892   1.966 -1.5867  1.5535  0.3997
  830SOL    HW2 3319   2.582   2.856   1.938  1.3613  0.0813 -1.0556
  830SOL     MW 3320   2.519   2.885   1.996  0.3736  0.5143 -0.1692
  831SOL     OW 3321   2.445   2.385   1.193 -0.1875 -0.1923  0.0166
  831SOL    HW1 3322   2.439   2.347   1.278  3.4826 -0.2080  2.3397
  831SOL    HW2 3323   2.537   2.384   1.172 -0.5948  2.1514  2.7445
  831SOL     MW 3324   2.456   2.380   1.202  0.2430  0.1149  0.6830
  832SOL     OW 3325   2.417   2.120   1.868  0.2815 -0.0963 -0.3892
  832SOL    HW1 3326   2.447   2.198   1.917 -0.9585 -0.2045 -0.1741
  832SOL    HW2 3327   2.498   2.094   1.822  2.0968 -0.0996 -4.2353
  832SOL     MW 3328   2.432   2.127   1.868  0.3574 -0.1110 -0.8682
  833SOL     OW 3329   1.628   2.519   0.845  0.3312  0.6244  0.0171
  833SOL    HW1 3330   1.592   2.481   0.928  0.6458  0.7654 -2.2919
  833SOL    HW2 3331   1.570   2.593   0.820  0.8728  2.3930  2.7724
  833SOL     MW 3332   1.615   2.524   0.852  0.4442  0.8763  0.0759
  834SOL     OW 3333   2.244   2.434   0.619  0.2315  0.0809 -0.1100
  834SOL    HW1 3334   2.196   2.359   0.657  2.3366 -2.4878 -1.5673
  834SOL    HW2 3335   2.325   2.452   0.690  0.3764  0.3106  2.6264
  834SOL     MW 3336   2.248   2.427   0.633  0.5284 -0.2277  0.0588
  835SOL     OW 3337   1.879   2.619   0.709 -0.3202 -0.3170 -0.1732
  835SOL    HW1 3338   1.808   2.566   0.761 -3.0171 -0.0212  2.6819
  835SOL    HW2 3339   1.965   2.591   0.736 -2.5308  3.2927 -1.4573
  835SOL     MW 3340   1.881   2.608   0.719 -0.9677  0.1983  0.0340
  836SOL     OW 3341   2.072   2.085   1.833  0.1904  0.1259  0.3146
  836SOL    HW1 3342   2.136   2.015   1.829 -0.9315 -0.4434 -1.1381
  836SOL    HW2 3343   2.115   2.173   1.831 -1.9793  2.0203  2.4104
  836SOL     MW 3344   2.086   2.087   1.832 -0.2439  0.3007  0.3995
  837SOL     OW 3345   2.092   0.191   0.623  0.3679  0.0816 -0.5332
  837SOL    HW1 3346   2.047   0.223   0.544  0.2589  1.6781 -0.8326
  837SOL    HW2 3347   2.122   0.110   0.587  0.5801  1.3338  0.4684
  837SOL     MW 3348   2.090   0.185   0.608  0.3815  0.4575 -0.4405
  838SOL     OW 3349   2.899   2.064   0.967 -1.2566  0.3452  0.3394
  838SOL    HW1 3350   2.845   1.987   0.943  2.8088  0.9213  0.0281
  838SOL    HW2 3351   2.954   2.032   1.042 -1.2680 -1.8824 -0.2992
  838SOL     MW 3352   2.899   2.049   0.974 -0.7217  0.1273  0.2140
  839SOL     OW 3353   1.563   2.453   1.091  0.8620  0.1610 -0.1382
  839SOL    HW1 3354   1.548   2.519   1.164  0.5108 -0.9014 -2.4226
  839SOL    HW2 3355   1.583   2.362   1.127  0.8395 -4.8234  2.5094
  839SOL     MW 3356   1.564   2.449   1.106  0.8127 -0.6368 -0.0903
  840SOL     OW 3357   2.359   2.088   2.320  0.1636 -0.3332 -0.1282
  840SOL    HW1 3358   2.312   2.156   2.262 -2.6490 -0.9605 -1.2898
  840SOL    HW2 3359   2.394   2.133   2.400 -1.1895 -1.1427  0.5906
  840SOL     MW 3360   2.357   2.103   2.323 -0.3860 -0.5228 -0.1866
  841SOL     OW 3361   2.200   2.331   0.104 -0.6676  0.2123  0.1737
  841SOL    HW1 3362   2.224   2.390   0.031 -1.1450  1.8986 -0.9442
  841SOL    HW2 3363   2.124   2.281   0.067 -1.2183 -0.5127  0.7775
  841SOL     MW 3364   2.193   2.332   0.089 -0.8032  0.3391  0.1059
  842SOL     OW 3365   2.704   1.975   1.483  0.1388  0.4641 -0.2430
  842SOL    HW1 3366   2.653   1.895   1.476  1.3817  0.1727 -1.4506
  842SOL    HW2 3367   2.693   2.011   1.394 -0.8227  1.8892 -0.7471
  842SOL     MW 3368   2.696   1.969   1.470  0.1759  0.6137 -0.4688
  843SOL     OW 3369   2.744   2.744   1.823  0.0375 -0.1624 -0.0276
  843SOL    HW1 3370   2.817   2.722   1.881  2.5079 -0.2130  0.1574
  843SOL    HW2 3371   2.699   2.666   1.793  3.1857  1.1980  2.3312
  843SOL     MW 3372   2.748   2.731   1.827  0.7788  0.0104  0.3080
  844SOL     OW 3373   2.714   2.363   1.134  0.2285  0.3708 -0.1406
  844SOL    HW1 3374   2.722   2.378   1.037  1.3526  0.5271  0.2486
  844SOL    HW2 3375   2.799   2.351   1.173  2.0483 -3.9462  1.5971
  844SOL     MW 3376   2.726   2.364   1.126  0.6169 -0.1782  0.1400
  845SOL     OW 3377   2.821   2.623   0.237  0.2697  0.2998 -0.5548
  845SOL    HW1 3378   2.784   2.560   0.305 -1.6606 -0.2677  0.7274
  845SOL    HW2 3379   2.848   2.706   0.280  1.2722  1.2801  2.6675
  845SOL     MW 3380   2.820   2.626   0.251  0.1473  0.3543  0.0395
  846SOL     OW 3381   1.488   2.744   0.772  0.4411 -0.1479 -0.5724
  846SOL    HW1 3382   1.537   2.820   0.742  1.5427 -0.7010  0.8158
  846SOL    HW2 3383   1.395   2.767   0.768  1.2646 -0.1818  1.3978
  846SOL     MW 3384   1.483   2.757   0.768  0.6951 -0.2254 -0.1293
  847SOL     OW 3385   2.424   1.830   0.226  0.1482  0.3203  0.0836
  847SOL    HW1 3386   2.394   1.740   0.254 -2.9047 -3.1861  0.5121
  847SOL    HW2 3387   2.397   1.838   0.129 -0.8087 -0.3829 -1.1707
  847SOL     MW 3388   2.417   1.819   0.217 -0.3809 -0.2351 -0.0254
  848SOL     OW 3389   2.703   2.097   1.242 -0.5562 -1.0568  0.3792
  848SOL    HW1 3390   2.674   2.146   1.162 -0.6964  2.1462  2.3154
  848SOL    HW2 3391   2.793   2.076   1.209  0.3618  0.5823 -1.4815
  848SOL     MW 3392   2.711   2.101   1.227 -0.4536 -0.4180  0.3892
  849SOL     OW 3393   1.878   2.859   0.845  0.2615  0.2266  0.6155
  849SOL    HW1 3394   1.851   2.828   0.935  0.9832 -1.0406  0.7092
  849SOL    HW2 3395   1.906   2.772   0.804  1.2502  0.4447 -2.2795
  849SOL     MW 3396   1.878   2.844   0.852  0.4872  0.0882  0.2459
  850SOL     OW 3397   2.338   1.909   1.624  0.6172 -0.2616 -0.1109
  850SOL    HW1 3398   2.264   1.889   1.564 -1.1143  0.7273  1.1346
  850SOL    HW2 3399   2.326   2.005   1.637 -1.3242 -0.7476  2.0875
  850SOL     MW 3400   2.327   1.919   1.618  0.1326 -0.1952  0.3435
  851SOL     OW 3401   2.559   2.228   0.363 -0.7456  0.0484 -0.4108
  851SOL    HW1 3402   2.570   2.220   0.269 -0.8765 -2.0734 -1.3406
  851SOL    HW2 3403   2.510   2.306   0.359  2.0080 -1.4705 -0.1661
  851SOL     MW 3404   2.554   2.237   0.350 -0.3996 -0.4319 -0.5012
  852SOL     OW 3405   2.347   2.064   0.382  0.0160  0.1176 -0.4183
  852SOL    HW1 3406   2.425   2.122   0.377  1.2972  0.0508  0.0838
  852SOL    HW2 3407   2.359   2.002   0.309 -2.5105  2.5549 -1.0547
  852SOL     MW 3408   2.358   2.064   0.372 -0.1483  0.4304 -0.4360
  853SOL     OW 3409   2.521   2.398   1.929  0.3655  0.1167  0.0383
  853SOL    HW1 3410   2.525   2.432   1.839  0.2632 -1.1793 -1.5152
  853SOL    HW2 3411   2.614   2.399   1.955  1.8995  2.3446 -0.3824
  853SOL     MW 3412   2.534   2.403   1.921  0.5544  0.2396 -0.2222
  854SOL     OW 3413   2.894   2.288   0.750  0.0288 -0.1019  0.3910
  854SOL    HW1 3414   2.814   2.244   0.714  2.3662  0.0343 -0.1502
  854SOL    HW2 3415   2.933   2.221   0.807 -0.4398  0.9452 -2.5406
  854SOL     MW 3416   2.889   2.273   0.753  0.2754  0.0542 -0.0672
  855SOL     OW 3417   2.824   2.366   0.403 -0.0790 -0.4397 -0.2277
  855SOL    HW1 3418   2.758   2.299   0.405 -0.3464 -0.7034 -1.8557
  855SOL    HW2 3419   2.904   2.319   0.424  0.6192 -0.6779  0.6737
  855SOL     MW 3420   2.826   2.351   0.406 -0.0221 -0.5059 -0.3236
  856SOL     OW 3421   2.052   1.830   0.242 -0.2091  0.0516 -0.3390
  856SOL    HW1 3422   1.963   1.802   0.222 -0.1993  1.0364  1.4735
  856SOL    HW2 3423   2.040   1.917   0.281 -2.4029 -0.1964 -1.1061
  856SOL     MW 3424   2.038   1.838   0.244 -0.4973  0.1488 -0.2011
  857SOL     OW 3425   2.455   1.955   0.626 -0.2094 -0.5721  0.2762
  857SOL    HW1 3426   2.438   1.976   0.539  1.4932 -2.0947  0.3831
  857SOL    HW2 3427   2.371   1.965   0.673 -1.8633 -1.4029  2.8092
  857SOL     MW 3428   2.442   1.959   0.621 -0.2030 -0.8826  0.6245
  858SOL     OW 3429   2.978   2.670   1.930 -0.0793 -0.7110  0.2014
  858SOL    HW1 3430   3.020   2.756   1.913  0.4457  0.5638 -0.5199
  858SOL    HW2 3431   2.995   2.619   1.854  1.5865  0.6991  2.3471
  858SOL     MW 3432   2.986   2.675   1.918  0.2098 -0.3568  0.3893
  859SOL     OW 3433   1.766   2.664   1.053 -0.2522  0.6755  0.2353
  859SOL    HW1 3434   1.724   2.597   0.991  0.0008 -0.0182 -1.8897
  859SOL    HW2 3435   1.837   2.614   1.094  2.6589 -2.5945  0.7953
  859SOL     MW 3436   1.770   2.649   1.050  0.1653  0.1526  0.0289
  860SOL     OW 3437   2.642   2.553   0.030 -0.0586 -0.2876 -0.4107
  860SOL    HW1 3438   2.720   2.576   0.076 -2.5328  1.3161  0.0884
  860SOL    HW2 3439   2.625   2.609  -0.041 -0.2732  1.4410  0.8027
  860SOL     MW 3440   2.650   2.564   0.027 -0.4133  0.1521 -0.1848
  861SOL     OW 3441   1.561   2.182   1.162 -0.0657 -0.6156  0.3016
  861SOL    HW1 3442   1.585   2.229   1.245  1.1617 -0.9056  0.2359
  861SOL    HW2 3443   1.499   2.123   1.202  1.1079 -1.5951 -0.2862
  861SOL     MW 3444   1.556   2.181   1.178  0.2511 -0.7831  0.2153
  862SOL     OW 3445   2.510   1.765   1.444 -0.0498 -0.0071 -0.1995
  862SOL    HW1 3446   2.443   1.825   1.491 -0.7897 -2.7552  1.5830
  862SOL    HW2 3447   2.475   1.756   1.355 -0.2992  3.6452  0.6989
  862SOL     MW 3448   2.497   1.772   1.438 -0.1803  0.1122  0.1542
  863SOL     OW 3449   2.883   1.651   0.966 -0.1938  0.2876 -0.0251
  863SOL    HW1 3450   2.854   1.724   1.019  0.4685  2.7466 -1.0276
  863SOL    HW2 3451   2.825   1.644   0.891  0.7671 -3.4623  0.9247
  863SOL     MW 3452   2.871   1.660   0.963  0.0204  0.1173 -0.0320
  864SOL     OW 3453   3.066   1.770   0.803  0.3973 -0.2531  0.2451
  864SOL    HW1 3454   3.032   1.721   0.876  1.6226 -1.0293 -0.1096
  864SOL    HW2 3455   3.014   1.755   0.724  0.0881  2.1684  1.0221
  864SOL     MW 3456   3.055   1.762   0.802  0.5182 -0.0360  0.3008
  865SOL     OW 3457   2.427   2.189   0.109 -0.2736  0.4546  0.0238
  865SOL    HW1 3458   2.401   2.107   0.069  0.7053 -0.0152  0.3951
  865SOL    HW2 3459   2.354   2.252   0.120 -1.0685  2.2453 -2.8330
  865SOL     MW 3460   2.414   2.187   0.105 -0.2493  0.6289 -0.3041
  866SOL     OW 3461   2.719   2.338   1.547  0.4410  0.5720  0.3719
  866SOL    HW1 3462   2.694   2.261   1.603 -3.7665 -2.1908  1.7200
  866SOL    HW2 3463   2.785   2.312   1.476 -0.8281 -2.1143 -1.0403
  866SOL     MW 3464   2.725   2.324   1.545 -0.2816 -0.1470  0.3635
  867SOL     OW 3465   0.112   2.719   1.705 -0.5053  0.3215  0.5068
  867SOL    HW1 3466   0.106   2.764   1.786  2.2623  1.2182  1.4133
  867SOL    HW2 3467   0.043   2.765   1.660  0.5447  1.9633 -1.1707
  867SOL     MW 3468   0.102   2.731   1.710 -0.0016  0.6565  0.4050
  868SOL     OW 3469   2.730   2.576   0.574 -0.2907 -0.2614  0.4335
  868SOL    HW1 3470   2.739   2.497   0.522  0.0181 -1.4348 -0.3593
  868SOL    HW2 3471   2.657   2.628   0.546  0.2124  0.7748 -1.8614
  868SOL     MW 3472   2.722   2.573   0.563 -0.1836 -0.2795  0.0261
  869SOL     OW 3473   1.969   2.436   1.078  0.5085 -0.7201  0.2210
  869SOL    HW1 3474   2.054   2.478   1.058  2.2563 -0.2018  2.4300
  869SOL    HW2 3475   1.952   2.364   1.018 -1.0619  0.0209 -1.1557
  869SOL     MW 3476   1.978   2.432   1.068  0.5319 -0.5540  0.3308
  870SOL     OW 3477   2.196   3.095   0.465  0.9887  0.3862  0.7621
  870SOL    HW1 3478   2.266   3.140   0.423  0.6183  3.1640  1.5045
  870SOL    HW2 3479   2.228   3.011   0.503  0.5397  3.7153  1.6155
  870SOL     MW 3480   2.210   3.090   0.465  0.8806  1.1919  0.9726
  871SOL     OW 3481   2.491   2.070   0.911  0.0938  0.4733 -0.2928
  871SOL    HW1 3482   2.430   2.017   0.862  3.0136  1.6688  2.2322
  871SOL    HW2 3483   2.451   2.152   0.941  0.0954 -3.6939 -0.2606
  871SOL     MW 3484   2.478   2.074   0.908  0.4793  0.0812  0.0446
  872SOL     OW 3485   2.096   2.489   1.614  0.1584  0.2938 -0.2632
  872SOL    HW1 3486   2.031   2.550   1.654 -0.0927 -0.0760  1.2394
  872SOL    HW2 3487   2.050   2.412   1.578  0.0418  1.2581 -1.3390
  872SOL     MW 3488   2.081   2.487   1.615  0.1099  0.3722 -0.2069
  873SOL     OW 3489   2.885   2.110   1.832  0.3457  0.2739 -0.0793
  873SOL    HW1 3490   2.890   2.149   1.918  1.2601 -0.9817 -0.5125
  873SOL    HW2 3491   2.964   2.147   1.795  1.9607  0.3124  0.9396
  873SOL     MW 3492   2.896   2.120   1.838  0.6794  0.1133 -0.0021
  874SOL     OW 3493   2.343   1.454   2.398  0.0084 -0.0744  0.0175
  874SOL    HW1 3494   2.280   1.414   2.326  1.0669  0.8575  0.5912
  874SOL    HW2 3495   2.419   1.393   2.396 -1.7902  1.6747  0.4297
  874SOL     MW 3496   2.345   1.441   2.388 -0.0892  0.2793  0.1476
  875SOL     OW 3497   2.308   2.272   0.976 -0.0621 -0.0507 -0.3210
  875SOL    HW1 3498   2.333   2.330   0.905 -1.7727 -0.9864 -1.5022
  875SOL    HW2 3499   2.348   2.314   1.051 -2.1847 -1.9881 -1.8090
  875SOL     MW 3500   2.317   2.285   0.976 -0.5678 -0.4298 -0.6731
  876SOL     OW 3501   0.045   2.193   1.283  0.2442 -0.0186 -0.0098
  876SOL    HW1 3502   0.077   2.269   1.229 -1.2650  1.1263 -1.7244
  876SOL    HW2 3503   0.096   2.197   1.361 -0.1537  3.0260 -1.8249
  876SOL     MW 3504   0.056   2.203   1.286 -0.0074  0.5342 -0.4755
  877SOL     OW 3505   0.081   2.793   0.270 -0.3729 -0.4434  0.0062
  877SOL    HW1 3506   0.156   2.841   0.240 -1.9034 -1.5205  3.3907
  877SOL    HW2 3507   0.048   2.744   0.195  1.2759  0.1482  2.2136
  877SOL     MW 3508   0.086   2.793   0.256 -0.3573 -0.5075  0.7440
  878SOL     OW 3509   2.268   1.762   1.175 -0.4284  0.3991  0.5463
  878SOL    HW1 3510   2.184   1.716   1.202  4.0463 -0.2162  0.2696
  878SOL    HW2 3511   2.303   1.686   1.126  1.1177 -0.1290 -0.6334
  878SOL     MW 3512   2.261   1.746   1.172  0.3660  0.2483  0.3542
  879SOL     OW 3513   2.687   2.449   0.872  0.5436 -0.5539  0.2051
  879SOL    HW1 3514   2.738   2.523   0.917 -1.1058  0.7322  0.3929
  879SOL    HW2 3515   2.755   2.410   0.814  0.7431 -2.4957  0.0166
  879SOL     MW 3516   2.703   2.453   0.871  0.3523 -0.6404  0.2050
  880SOL     OW 3517   2.652   2.173   0.671  0.9198  0.1590 -0.8717
  880SOL    HW1 3518   2.617   2.116   0.747 -0.1699 -0.0295  2.7635
  880SOL    HW2 3519   2.586   2.189   0.609 -1.3810 -1.3276 -1.5904
  880SOL     MW 3520   2.639   2.168   0.673  0.4724 -0.0620 -0.4869
  881SOL     OW 3521   2.934   2.676   0.703 -0.1279  0.2534 -0.7608
  881SOL    HW1 3522   2.866   2.647   0.640  1.1651 -0.0358  2.1312
  881SOL    HW2 3523   3.019   2.688   0.646  2.3937 -1.7453 -2.7396
  881SOL     MW 3524   2.936   2.674   0.687  0.3754 -0.0485 -0.6403
  882SOL     OW 3525   2.279   2.892   1.893  0.0964 -0.4987 -0.0050
  882SOL    HW1 3526   2.256   2.876   1.801  1.3150 -2.2340 -1.3387
  882SOL    HW2 3527   2.209   2.843   1.935 -3.7415 -1.5218 -1.1357
  882SOL     MW 3528   2.267   2.884   1.886 -0.2492 -0.8626 -0.3302
  883SOL     OW 3529   2.426   2.176   1.356 -0.1422 -0.3187  0.9243
  883SOL    HW1 3530   2.494   2.137   1.300  0.4604 -1.2531 -0.7027
  883SOL    HW2 3531   2.339   2.148   1.329  0.8845 -0.8283  1.9832
  883SOL     MW 3532   2.424   2.167   1.345  0.0728 -0.5092  0.8494
  884SOL     OW 3533   1.891   1.852   1.038  0.0363  0.2284  0.3829
  884SOL    HW1 3534   1.825   1.927   1.012 -2.3415  2.5236  0.2523
  884SOL    HW2 3535   1.972   1.904   1.039 -0.5654  1.3408  1.4231
  884SOL     MW 3536   1.893   1.869   1.035 -0.3568  0.6780  0.5029
  885SOL     OW 3537   2.913   2.455   1.739  0.3916 -0.0514  0.6585
  885SOL    HW1 3538   2.989   2.409   1.711  1.2132 -0.5283  0.6839
  885SOL    HW2 3539   2.853   2.458   1.664 -0.7877 -1.0867  0.1979
  885SOL     MW 3540   2.915   2.449   1.726  0.3444 -0.2509  0.6011
  886SOL     OW 3541   2.927   2.352   1.342  0.2419 -0.0770  0.6488
  886SOL    HW1 3542   3.017   2.316   1.342 -1.3733 -2.1150  4.2231
  886SOL    HW2 3543   2.933   2.433   1.388  0.1809 -1.8058 -0.5977
  886SOL     MW 3544   2.940   2.358   1.348  0.0208 -0.5740  0.9559
  887SOL     OW 3545   2.358   2.579   1.554  0.4985 -0.2795  0.0488
  887SOL    HW1 3546   2.376   2.606   1.462  0.6791 -0.8005  1.2519
  887SOL    HW2 3547   2.279   2.529   1.549  1.3314  0.6394 -0.2014
  887SOL     MW 3548   2.350   2.576   1.541  0.6322 -0.2270  0.1746
  888SOL     OW 3549   2.071   2.263   1.461  0.2882 -0.3737  0.0246
  888SOL    HW1 3550   2.087   2.236   1.373  0.5242 -0.9890  0.1689
  888SOL    HW2 3551   2.143   2.238   1.511 -0.5286  1.3504 -1.3685
  888SOL     MW 3552   2.083   2.256   1.456  0.2116 -0.2274 -0.1401
  889SOL     OW 3553   2.310   1.945   2.045  0.2310  0.1929 -0.3433
  889SOL    HW1 3554   2.375   1.900   2.098  0.4097 -1.5365 -0.5031
  889SOL    HW2 3555   2.364   2.013   1.997  1.2767 -1.8050 -0.1922
  889SOL     MW 3556   2.326   1.948   2.046  0.3926 -0.2989 -0.3445
  890SOL     OW 3557   0.047   2.359   0.093 -0.1191  0.1643 -0.0189
  890SOL    HW1 3558   0.024   2.450   0.107 -2.3417 -0.5766  0.8194
  890SOL    HW2 3559   0.078   2.331   0.179  0.7978 -0.5634  0.1611
  890SOL     MW 3560   0.048   2.368   0.106 -0.2913 -0.0294  0.1154
  891SOL     OW 3561   3.007   1.980   1.214 -0.2034  0.5031  0.0162
  891SOL    HW1 3562   3.071   1.918   1.176  1.7442  2.5595  0.2066
  891SOL    HW2 3563   3.054   2.064   1.241 -0.5085  0.0485 -1.8559
  891SOL     MW 3564   3.022   1.983   1.213  0.0133  0.7144 -0.2057
  892SOL     OW 3565   2.421   2.347   2.770  0.0291  0.2942  0.1792
  892SOL    HW1 3566   2.427   2.257   2.812  0.8116 -1.9629  1.6095
  892SOL    HW2 3567   2.514   2.373   2.773 -0.5890 -2.7772 -0.6783
  892SOL     MW 3568   2.434   2.339   2.776  0.0508 -0.4089  0.2548
  893SOL     OW 3569   1.631   2.359   1.374 -0.1496 -0.0835 -0.2016
  893SOL    HW1 3570   1.546   2.387   1.416 -3.5242 -0.7196 -1.7284
  893SOL    HW2 3571   1.705   2.419   1.386 -0.3288  0.7319 -2.9237
  893SOL     MW 3572   1.630   2.371   1.381 -0.6185 -0.0598 -0.7622
  894SOL     OW 3573   2.790   1.981   0.537 -0.0713 -0.0634  0.3461
  894SOL    HW1 3574   2.737   2.049   0.585  1.9617 -0.8145 -1.0971
  894SOL    HW2 3575   2.728   1.943   0.470 -1.0856 -0.6590 -0.9778
  894SOL     MW 3576   2.775   1.985   0.535  0.0631 -0.2411 -0.0190
  895SOL     OW 3577   2.155   2.167   1.225 -0.6285 -0.0082  0.2426
  895SOL    HW1 3578   2.198   2.203   1.151  1.3511 -1.2646  0.1214
  895SOL    HW2 3579   2.116   2.087   1.187  2.0898  1.5102  0.7266
  895SOL     MW 3580   2.155   2.161   1.210 -0.0087  0.0264  0.2905
  896SOL     OW 3581   2.343   2.804   1.084 -0.4369 -0.6561 -0.3034
  896SOL    HW1 3582   2.372   2.769   1.170 -2.8627 -0.2480  0.4409
  896SOL    HW2 3583   2.325   2.896   1.094 -0.5641  1.1002  0.3883
  896SOL     MW 3584   2.345   2.811   1.096 -0.7738 -0.3705 -0.1139
  897SOL     OW 3585   3.097   3.033   3.017 -0.5637 -0.5328  0.1380
  897SOL    HW1 3586   3.152   2.958   2.985 -2.1974  1.3333  1.0429
  897SOL    HW2 3587   3.021   3.025   2.964  3.3758 -0.0494  0.1253
  897SOL     MW 3588   3.094   3.022   3.006 -0.2595 -0.2228  0.2557
  898SOL     OW 3589   2.131   0.174   1.414 -0.0308  0.2498  0.1655
  898SOL    HW1 3590   2.104   0.076   1.418 -0.1357 -0.8849 -3.0041
  898SOL    HW2 3591   2.138   0.192   1.317 -2.0166 -0.3172  1.4357
  898SOL     MW 3592   2.128   0.163   1.402 -0.3067  0.0253 -0.0851
  899SOL     OW 3593   2.958   2.959   0.620 -0.2718  0.0190 -0.0947
  899SOL    HW1 3594   2.958   2.893   0.683 -0.7105 -0.4589 -2.9031
  899SOL    HW2 3595   2.884   3.025   0.633  1.8135 -1.9141 -3.6541
  899SOL     MW 3596   2.948   2.959   0.630 -0.0546 -0.2991 -0.9349
  900SOL     OW 3597   0.139   2.386   1.087  0.3372 -0.3509  0.2539
  900SOL    HW1 3598   0.108   2.476   1.073  1.0152  0.1808 -1.1490
  900SOL    HW2 3599   0.115   2.339   1.008 -1.8398 -2.0763  1.8315
  900SOL     MW 3600   0.132   2.392   1.075  0.1394 -0.5084  0.2769
  901SOL     OW 3601   1.763   2.858   1.760  0.0891 -0.0982 -0.0469
  901SOL    HW1 3602   1.804   2.778   1.743 -1.9346 -0.8689 -0.1963
  901SOL    HW2 3603   1.668   2.826   1.769  0.6069  0.4874  3.1065
  901SOL     MW 3604   1.756   2.843   1.759 -0.1096 -0.1227  0.3495
  902SOL     OW 3605   2.633   2.130   1.719  0.2616  0.9417  0.2591
  902SOL    HW1 3606   2.625   2.071   1.644  0.7746 -2.0318 -0.7604
  902SOL    HW2 3607   2.721   2.109   1.752 -0.2058 -1.8376 -0.7860
  902SOL     MW 3608   2.643   2.119   1.714  0.2676  0.1827 -0.0133
  903SOL     OW 3609   1.593   2.635   0.535  0.2623 -0.1607 -0.0731
  903SOL    HW1 3610   1.682   2.600   0.543  1.1668 -0.7840  0.0578
  903SOL    HW2 3611   1.566   2.689   0.612  1.8014  2.8020  3.4345
  903SOL     MW 3612   1.601   2.637   0.546  0.5847  0.1480  0.4070
  904SOL     OW 3613   2.594   2.520   1.694  0.2640  0.0076  0.3363
  904SOL    HW1 3614   2.524   2.544   1.634 -0.4491  1.9944 -1.1354
  904SOL    HW2 3615   2.651   2.458   1.651 -0.6050 -2.1227  2.7252
  904SOL     MW 3616   2.592   2.515   1.681  0.0553 -0.0113  0.4573
  905SOL     OW 3617   2.309   2.500   2.068 -0.5205 -0.4159  0.3059
  905SOL    HW1 3618   2.381   2.449   2.032 -1.0448 -0.6366  1.0591
  905SOL    HW2 3619   2.272   2.451   2.144 -2.1213 -2.5102 -0.5875
  905SOL     MW 3620   2.314   2.487   2.073 -0.8009 -0.7213  0.2874
  906SOL     OW 3621   2.432   2.481   0.792 -0.2857 -0.2663 -0.9248
  906SOL    HW1 3622   2.527   2.455   0.790  0.8336 -1.7415  1.0854
  906SOL    HW2 3623   2.427   2.578   0.800  0.0197 -1.1644 -0.3246
  906SOL     MW 3624   2.444   2.491   0.793 -0.0977 -0.5794 -0.5804
  907SOL     OW 3625   2.644   2.738   1.320  0.1843  0.1210  0.2544
  907SOL    HW1 3626   2.673   2.810   1.366  0.4812 -3.5524  0.2838
  907SOL    HW2 3627   2.661   2.750   1.227  0.6867 -1.7337 -2.4654
  907SOL     MW 3628   2.650   2.749   1.314  0.2898 -0.6084 -0.1006
  908SOL     OW 3629   2.667   2.287   3.077 -0.3775 -0.2115  0.3907
  908SOL    HW1 3630   2.594   2.254   3.112 -1.8160  1.3161 -0.3133
  908SOL    HW2 3631   2.657   2.387   3.100 -0.2339  0.5984 -0.5498
  908SOL     MW 3632   2.656   2.296   3.085 -0.5483  0.0969  0.1737
  909SOL     OW 3633   1.715   0.098   1.345  0.1561  0.0127  0.0011
  909SOL    HW1 3634   1.657   0.175   1.338  0.0380  1.3001 -1.0984
  909SOL    HW2 3635   1.682   0.049   1.419  1.5879  3.1161 -0.3709
  909SOL     MW 3636   1.703   0.102   1.354  0.3294  0.5921 -0.1931
  910SOL     OW 3637   2.155   1.670   0.441 -0.5091  0.5331 -0.6866
  910SOL    HW1 3638   2.079   1.608   0.463  0.9831 -1.4308  0.0835
  910SOL    HW2 3639   2.118   1.725   0.370 -0.2495 -1.2083  1.9313
  910SOL     MW 3640   2.140   1.669   0.435 -0.2780  0.0442 -0.2396
  911SOL     OW 3641   2.279   2.203   1.613 -1.0874  0.1795  0.1353
  911SOL    HW1 3642   2.289   2.233   1.704 -2.1410  1.5209 -0.0444
  911SOL    HW2 3643   2.357   2.221   1.567  1.0951  0.6515 -2.3793
  911SOL     MW 3644   2.291   2.209   1.619 -0.9385  0.4187 -0.2202
  912SOL     OW 3645   2.952   1.877   1.454  0.5186 -0.1992 -0.1487
  912SOL    HW1 3646   2.987   1.914   1.369  2.1893  1.2042 -1.1758
  912SOL    HW2 3647   2.862   1.914   1.464 -0.6469 -2.7620 -1.5474
  912SOL     MW 3648   2.945   1.887   1.444  0.5852 -0.3521 -0.4687
  913SOL     OW 3649   2.707   3.042   0.377  0.1617 -0.8763  0.6131
  913SOL    HW1 3650   2.792   2.992   0.369  0.8211 -0.0248 -0.1002
  913SOL    HW2 3651   2.643   2.999   0.316 -3.1503 -1.5478 -0.4889
  913SOL     MW 3652   2.710   3.030   0.368 -0.1883 -0.8525  0.3736
  914SOL     OW 3653   2.632   1.795   3.092 -0.1877 -0.0387  0.1815
  914SOL    HW1 3654   2.698   1.862   3.087 -1.9839  1.5915  1.1238
  914SOL    HW2 3655   2.546   1.836   3.103  2.2413  2.1429 -2.0661
  914SOL     MW 3656   2.629   1.809   3.093 -0.1042  0.4642  0.0093
  915SOL     OW 3657   1.811   0.123   0.165  0.0381  0.8064 -0.4685
  915SOL    HW1 3658   1.894   0.071   0.186 -0.3839 -2.8422  0.2059
  915SOL    HW2 3659   1.738   0.064   0.176 -0.0227 -1.5696 -1.4913
  915SOL     MW 3660   1.812   0.108   0.169 -0.0256  0.0115 -0.5145
  916SOL     OW 3661   1.778   2.061   1.987 -0.2800 -0.1269  0.4232
  916SOL    HW1 3662   1.820   2.147   1.967 -0.8701 -1.2978 -0.8301
  916SOL    HW2 3663   1.806   1.998   1.921 -0.6067 -3.5569  0.9836
  916SOL     MW 3664   1.787   2.064   1.976 -0.4010 -0.7340  0.3318
  917SOL     OW 3665   2.487   2.200   2.532 -0.6045 -0.1113  0.2279
  917SOL    HW1 3666   2.471   2.267   2.601  0.3525  0.5630 -0.9645
  917SOL    HW2 3667   2.568   2.220   2.488  2.4463 -0.4745 -2.4694
  917SOL     MW 3668   2.496   2.211   2.535 -0.0757 -0.0703 -0.2853
  918SOL     OW 3669   2.002   1.574   2.663 -0.7265 -0.1802 -0.4770
  918SOL    HW1 3670   1.925   1.601   2.611 -1.8449 -0.5467  2.0735
  918SOL    HW2 3671   2.065   1.645   2.647 -0.6061 -3.5585  0.5822
  918SOL     MW 3672   2.000   1.587   2.654 -0.8582 -0.6743 -0.0007
  919SOL     OW 3673   3.051   2.371   2.233  0.6056  0.1289  0.4317
  919SOL    HW1 3674   2.974   2.315   2.229 -1.8825  1.7481  0.6987
  919SOL    HW2 3675   3.098   2.364   2.150  2.2695 -0.7778  0.4152
  919SOL     MW 3676   3.047   2.363   2.222  0.4969  0.2229  0.4647
  920SOL     OW 3677   2.645   2.846   3.051  0.4788 -0.5310  0.2795
  920SOL    HW1 3678   2.553   2.825   3.049  0.1542 -0.6114  0.4609
  920SOL    HW2 3679   2.687   2.800   2.975  1.2342  0.7955  1.3387
  920SOL     MW 3680   2.638   2.837   3.041  0.5356 -0.3666  0.4432
  921SOL     OW 3681   2.395   2.585   2.555 -0.1284 -0.2716 -0.1865
  921SOL    HW1 3682   2.475   2.614   2.503  0.2596 -1.1641 -1.5668
  921SOL    HW2 3683   2.423   2.497   2.590  2.7184 -2.5571 -0.3695
  921SOL     MW 3684   2.409   2.577   2.553  0.2984 -0.6909 -0.3928
  922SOL     OW 3685   2.135   2.640   0.448  0.0370 -0.3803  0.6515
  922SOL    HW1 3686   2.134   2.642   0.350 -2.4421  5.6942  0.8045
  922SOL    HW2 3687   2.183   2.556   0.480  3.7071 -2.2674  0.7846
  922SOL     MW 3688   2.141   2.629   0.439  0.1941  0.1722  0.6893
  923SOL     OW 3689   2.181   2.803   1.655 -0.0017 -0.0336  0.0122
  923SOL    HW1 3690   2.242   2.749   1.598 -0.3046  0.0187  2.3684
  923SOL    HW2 3691   2.160   2.884   1.605 -2.6805 -1.1704 -0.1132
  923SOL     MW 3692   2.186   2.807   1.641 -0.3951 -0.1767  0.3065
  924SOL     OW 3693   1.089   2.734   2.614  0.2956  0.3360 -0.2190
  924SOL    HW1 3694   1.186   2.735   2.627  0.3597  0.5690  1.6780
  924SOL    HW2 3695   1.059   2.674   2.676  0.9137  0.2230  1.6174
  924SOL     MW 3696   1.098   2.726   2.624  0.3856  0.3518  0.2736
  925SOL     OW 3697   2.959   0.164   2.636  0.1118 -0.0782  0.0690
  925SOL    HW1 3698   2.888   0.138   2.572 -0.2150 -0.6262 -2.1273
  925SOL    HW2 3699   2.923   0.236   2.694  0.3879 -1.5038 -0.4491
  925SOL     MW 3700   2.945   0.170   2.635  0.1051 -0.3386 -0.2892
  926SOL     OW 3701   2.788   2.443   2.007 -0.1401  0.3548  0.6744
  926SOL    HW1 3702   2.816   2.532   2.056  0.5877  3.3739  0.1515
  926SOL    HW2 3703   2.833   2.445   1.922  1.5096  0.0188  0.1122
  926SOL     MW 3704   2.797   2.455   2.002  0.1736  0.7088  0.5313
  927SOL     OW 3705   2.379   0.118   0.312  0.0997 -0.1143  0.1926
  927SOL    HW1 3706   2.464   0.137   0.343  0.0182  0.9753 -1.9620
  927SOL    HW2 3707   2.385   0.089   0.221  1.9286 -0.3003 -1.2180
  927SOL     MW 3708   2.391   0.116   0.304  0.3303  0.0049 -0.2778
  928SOL     OW 3709   2.141   2.352   1.858 -0.3189 -0.1693  0.4878
  928SOL    HW1 3710   2.142   2.396   1.771 -6.5851 -0.6702 -1.4238
  928SOL    HW2 3711   2.187   2.414   1.911 -1.1015  1.3927  1.3582
  928SOL     MW 3712   2.147   2.366   1.854 -1.2489 -0.0293  0.3504
  929SOL     OW 3713   2.703   2.352   2.424  0.3606 -0.2526 -0.0496
  929SOL    HW1 3714   2.739   2.297   2.352 -1.5767 -0.5062 -2.2435
  929SOL    HW2 3715   2.771   2.370   2.491  4.0381  0.9222 -2.5193
  929SOL     MW 3716   2.717   2.347   2.423  0.5902 -0.1310 -0.6649
  930SOL     OW 3717   2.030   2.831   2.675 -0.7838  0.0134 -0.2445
  930SOL    HW1 3718   2.044   2.754   2.732  0.3568  3.6635  0.3123
  930SOL    HW2 3719   2.119   2.862   2.651 -0.8315  0.2090  1.2348
  930SOL     MW 3720   2.044   2.825   2.679 -0.6396  0.5208  0.0241
  931SOL     OW 3721   0.022   2.716   2.493 -0.1134 -0.1730 -0.1149
  931SOL    HW1 3722  -0.004   2.787   2.548 -0.7127 -1.8306 -0.0552
  931SOL    HW2 3723   0.105   2.742   2.459 -0.5526 -2.3364  0.6852
  931SOL     MW 3724   0.030   2.728   2.496 -0.2504 -0.6771 -0.0015
  932SOL     OW 3725   2.806   2.003   2.436  0.8199 -0.1508 -0.2940
  932SOL    HW1 3726   2.883   2.039   2.480 -1.6370 -1.0092  1.3242
  932SOL    HW2 3727   2.833   2.014   2.347  1.1204  0.0902  0.4912
  932SOL     MW 3728   2.820   2.009   2.430  0.5354 -0.2322  0.0231
  933SOL     OW 3729   2.074   2.812   2.259 -0.3262  0.3161 -0.0031
  933SOL    HW1 3730   2.152   2.868   2.284 -0.3875  1.5638 -0.7757
  933SOL    HW2 3731   2.007   2.873   2.236  0.7358 -2.8773  2.9458
  933SOL     MW 3732   2.075   2.827   2.259 -0.1942  0.0594  0.2841
  934SOL     OW 3733   1.979   2.664   2.470 -0.4000  0.0899 -0.3674
  934SOL    HW1 3734   1.971   2.722   2.541 -0.8716  1.8377 -1.1955
  934SOL    HW2 3735   2.029   2.710   2.405 -2.0253 -0.2038  2.7404
  934SOL     MW 3736   1.985   2.678   2.471 -0.6767  0.2817 -0.0666
  935SOL     OW 3737   2.672   1.523   1.823  0.2364 -0.3589  0.0012
  935SOL    HW1 3738   2.763   1.492   1.803 -1.2986  0.0471 -0.8981
  935SOL    HW2 3739   2.624   1.513   1.741 -0.0282  2.0171  2.0733
  935SOL     MW 3740   2.678   1.518   1.810 -0.0010  0.0082  0.1560
  936SOL     OW 3741   2.933   2.185   3.080  0.4007 -0.1024 -0.6554
  936SOL    HW1 3742   2.984   2.236   3.137 -3.0495 -4.9025 -1.3537
  936SOL    HW2 3743   2.845   2.227   3.080  0.7467  2.6880  0.7541
  936SOL     MW 3744   2.928   2.197   3.087 -0.0089 -0.3676 -0.5616
  937SOL     OW 3745   1.924   2.110   2.628 -0.2931 -0.0355  0.2306
  937SOL    HW1 3746   1.986   2.043   2.658  1.0084  2.1176 -0.9029
  937SOL    HW2 3747   1.937   2.115   2.536  0.7292 -0.4310  1.7075
  937SOL     MW 3748   1.934   2.102   2.620  0.0135  0.1964  0.2759
  938SOL     OW 3749   2.205   1.797   1.837  0.0033  0.4356  0.4061
  938SOL    HW1 3750   2.257   1.820   1.765 -1.9477  0.3681 -0.6314
  938SOL    HW2 3751   2.243   1.831   1.924  1.6097 -1.5269 -3.6204
  938SOL     MW 3752   2.217   1.804   1.839 -0.0422  0.1677 -0.2620
  939SOL     OW 3753   2.737   2.009   2.071 -0.7563 -0.1647 -0.3011
  939SOL    HW1 3754   2.786   1.929   2.045  0.5588  0.3887  0.1816
  939SOL    HW2 3755   2.662   1.976   2.119 -2.4017  0.0895 -0.4174
  939SOL     MW 3756   2.733   1.994   2.074 -0.7999 -0.0582 -0.2528
  940SOL     OW 3757   2.214   0.082   2.779  0.1036 -0.1681 -0.1260
  940SOL    HW1 3758   2.223  -0.001   2.730  0.6263  3.6849  0.6338
  940SOL    HW2 3759   2.305   0.088   2.811  1.0014 -2.2669 -0.7591
  940SOL     MW 3760   2.227   0.072   2.777  0.2910  0.0633 -0.1093
  941SOL     OW 3761   0.095   2.377   1.993 -0.0913 -0.8510 -0.2878
  941SOL    HW1 3762   0.185   2.344   2.018 -1.0503  1.8524 -1.4093
  941SOL    HW2 3763   0.103   2.387   1.894 -0.8271 -0.4259 -2.6235
  941SOL     MW 3764   0.108   2.374   1.984 -0.3149 -0.4382 -0.7439
  942SOL     OW 3765   2.832   2.235   2.183 -0.2717 -0.1369 -0.0693
  942SOL    HW1 3766   2.800   2.311   2.121 -0.1242  0.7918  2.0566
  942SOL    HW2 3767   2.807   2.150   2.130  2.0078 -2.0620  0.9079
  942SOL     MW 3768   2.824   2.234   2.168  0.0485 -0.2683  0.3401
  943SOL     OW 3769   0.342   2.185   2.295 -0.2826 -0.4704  0.6004
  943SOL    HW1 3770   0.262   2.188   2.349 -0.4078  0.0205  1.5665
  943SOL    HW2 3771   0.412   2.170   2.359 -0.8034 -0.1336  1.2195
  943SOL     MW 3772   0.341   2.184   2.310 -0.3678 -0.3612  0.8095
  944SOL     OW 3773   2.108   2.676   1.987 -0.3733  0.6306  0.2125
  944SOL    HW1 3774   2.180   2.620   2.017  1.0749 -0.8756  0.7753
  944SOL    HW2 3775   2.067   2.703   2.064 -1.7364  1.0220 -2.6636
  944SOL     MW 3776   2.112   2.672   2.001 -0.3621  0.4835 -0.0927
  945SOL     OW 3777   2.745   2.665   2.874  0.2204  0.5457  0.0770
  945SOL    HW1 3778   2.707   2.577   2.866 -1.7985 -4.4751  0.0230
  945SOL    HW2 3779   2.765   2.687   2.783  2.2164 -0.0448 -0.1048
  945SOL     MW 3780   2.743   2.656   2.861  0.2174 -0.1947  0.0459
  946SOL     OW 3781   2.461   2.698   2.209 -0.3316  0.2058 -0.4342
  946SOL    HW1 3782   2.493   2.757   2.129 -1.1595 -0.6114  0.4706
  946SOL    HW2 3783   2.404   2.627   2.162 -0.1823  1.6753  1.3527
  946SOL     MW 3784   2.457   2.697   2.192 -0.4211  0.2919 -0.0791
  947SOL     OW 3785   2.049   3.051   0.252 -0.1075 -0.0425 -0.4237
  947SOL    HW1 3786   2.106   2.983   0.227  0.2824 -1.1739  2.0026
  947SOL    HW2 3787   2.069   3.074   0.341  2.8417 -1.0780 -1.6918
  947SOL     MW 3788   2.059   3.045   0.261  0.3330 -0.3284 -0.2709
  948SOL     OW 3789   1.847   3.025   2.629  0.6870  0.0387 -0.0752
  948SOL    HW1 3790   1.915   2.957   2.637 -0.1780  0.1427 -1.1831
  948SOL    HW2 3791   1.808   3.031   2.540  0.4643  1.1171 -0.1149
  948SOL     MW 3792   1.851   3.017   2.618  0.5435  0.1947 -0.2266
  949SOL     OW 3793   2.537   1.894   2.216 -0.1911  0.7585 -0.0088
  949SOL    HW1 3794   2.522   1.808   2.262  0.3465  0.5018  0.2783
  949SOL    HW2 3795   2.487   1.958   2.265 -0.9230 -0.4407  0.6869
  949SOL     MW 3796   2.529   1.891   2.229 -0.2167  0.5664  0.1208
  950SOL     OW 3797   2.259   2.459   2.953  0.1295  0.7289 -0.0373
  950SOL    HW1 3798   2.301   2.412   2.881  1.5534 -0.4449  0.5741
  950SOL    HW2 3799   2.185   2.511   2.913  0.3093 -1.1068 -0.8699
  950SOL     MW 3800   2.255   2.459   2.938  0.3411  0.3318 -0.0665
  951SOL     OW 3801   3.031   2.205   2.837 -0.3984 -0.3204 -0.6594
  951SOL    HW1 3802   2.988   2.216   2.922 -1.4448 -0.0462 -0.8962
  951SOL    HW2 3803   3.120   2.207   2.863  0.1426 -0.6620  1.7179
  951SOL     MW 3804   3.037   2.207   2.852 -0.4651 -0.3293 -0.3770
  952SOL     OW 3805   3.087   1.687   2.088  0.0582 -0.3403 -0.1399
  952SOL    HW1 3806   3.018   1.733   2.030  0.6247 -0.9332 -1.7549
  952SOL    HW2 3807   3.139   1.760   2.123  1.2759 -0.4045 -2.1914
  952SOL     MW 3808   3.085   1.702   2.085  0.2936 -0.4270 -0.6237
  953SOL     OW 3809   1.869   1.752   2.851  0.1570 -0.0261  0.1758
  953SOL    HW1 3810   1.814   1.717   2.922  2.5572 -0.2402  0.1011
  953SOL    HW2 3811   1.921   1.672   2.827 -1.2677 -1.9525  1.0659
  953SOL     MW 3812   1.869   1.737   2.857  0.2857 -0.3085  0.2834
  954SOL     OW 3813   2.450   2.068   2.810  0.6015 -0.0716  0.4875
  954SOL    HW1 3814   2.370   2.034   2.770 -0.3800 -1.2399  2.1694
  954SOL    HW2 3815   2.525   2.025   2.764 -0.9222 -1.1008  2.4285
  954SOL     MW 3816   2.449   2.058   2.799  0.2709 -0.3615  0.9655
  955SOL     OW 3817   1.501   1.561   2.554  0.1549  0.5123  0.5055
  955SOL    HW1 3818   1.475   1.535   2.469  2.0592 -0.7077 -2.6637
  955SOL    HW2 3819   1.591   1.580   2.537 -1.3003 -0.8977 -1.5372
  955SOL     MW 3820   1.510   1.560   2.540  0.2142  0.1653 -0.1822
  956SOL     OW 3821   2.676   2.419   2.823 -0.3218 -0.0899 -0.2952
  956SOL    HW1 3822   2.671   2.350   2.894  0.0191 -1.0926 -0.9075
  956SOL    HW2 3823   2.763   2.399   2.784  0.0499 -0.1427  3.1526
  956SOL     MW 3824   2.687   2.407   2.828 -0.2278 -0.2292  0.0789
  957SOL     OW 3825   2.282   2.857   0.545  0.4729 -0.3297  0.6283
  957SOL    HW1 3826   2.227   2.790   0.502  0.4748 -1.4566  0.1557
  957SOL    HW2 3827   2.269   2.851   0.646 -2.0469 -2.1599  2.2516
  957SOL     MW 3828   2.273   2.847   0.553  0.1407 -0.7199  0.7801
  958SOL     OW 3829   2.041   2.578   2.835  0.0999 -0.2021 -0.4579
  958SOL    HW1 3830   2.016   2.504   2.780  2.8546 -2.9071  3.7558
  958SOL    HW2 3831   2.000   2.553   2.922 -2.5897 -0.9195 -2.2516
  958SOL     MW 3832   2.032   2.565   2.839  0.1085 -0.6537 -0.1386
  959SOL     OW 3833   2.521   2.714   0.461 -0.2275 -0.8360 -0.1400
  959SOL    HW1 3834   2.540   2.730   0.371 -1.7866  0.5672  2.0651
  959SOL    HW2 3835   2.457   2.783   0.482  0.9259  2.4212 -1.0459
  959SOL     MW 3836   2.515   2.725   0.452 -0.2810 -0.2211  0.0314
  960SOL     OW 3837   1.851   2.349   2.315 -0.3425  0.0373 -0.4515
  960SOL    HW1 3838   1.920   2.284   2.329 -2.4589 -0.9387 -0.2500
  960SOL    HW2 3839   1.814   2.369   2.408  0.1830 -1.3069  3.1531
  960SOL     MW 3840   1.855   2.343   2.329 -0.5524 -0.2688  0.0507
  961SOL     OW 3841   2.204   2.304   2.228  0.1676 -0.2474 -0.3852
  961SOL    HW1 3842   2.124   2.249   2.216  0.5332 -1.1062 -0.4200
  961SOL    HW2 3843   2.192   2.366   2.307 -0.5059  0.4452  0.8590
  961SOL     MW 3844   2.192   2.305   2.237  0.1270 -0.2693 -0.2256
  962SOL     OW 3845   2.173   1.979   2.784 -0.1626 -1.5241 -0.1289
  962SOL    HW1 3846   2.144   1.958   2.875 -1.5362 -0.6912 -0.4342
  962SOL    HW2 3847   2.163   1.898   2.744  1.6902  1.8336 -0.6700
  962SOL     MW 3848   2.167   1.966   2.791 -0.0994 -0.9712 -0.2406
  963SOL     OW 3849   1.832   2.539   2.085 -0.0456 -0.6749  0.0679
  963SOL    HW1 3850   1.817   2.495   2.168 -0.6714  0.2716  0.1752
  963SOL    HW2 3851   1.849   2.462   2.028  2.6760 -1.5622  1.2700
  963SOL     MW 3852   1.832   2.523   2.089  0.2309 -0.6671  0.2407
  964SOL     OW 3853   1.764   1.908   2.644  0.0473 -0.0854 -0.2952
  964SOL    HW1 3854   1.828   1.976   2.629 -0.8514 -1.9632  3.2361
  964SOL    HW2 3855   1.805   1.850   2.715 -1.5578 -3.0621 -0.2073
  964SOL     MW 3856   1.778   1.909   2.652 -0.2831 -0.7259  0.1823
  965SOL     OW 3857   2.109   2.573   0.793 -0.0656 -0.0203 -0.6758
  965SOL    HW1 3858   2.159   2.527   0.719  1.3179  0.9529 -0.4982
  965SOL    HW2 3859   2.176   2.638   0.814  0.9669  0.8224  0.1392
  965SOL     MW 3860   2.124   2.576   0.786  0.2531  0.2193 -0.5449
  966SOL     OW 3861   2.633   2.617   2.411 -0.6234 -0.4872 -0.1532
  966SOL    HW1 3862   2.583   2.636   2.326 -1.1691 -1.9062  0.9684
  966SOL    HW2 3863   2.666   2.525   2.409  2.9567  0.6224  1.5158
  966SOL     MW 3864   2.631   2.607   2.399 -0.2230 -0.5280  0.2150
  967SOL     OW 3865   2.644   0.047   3.089  0.2550 -0.0479 -0.6302
  967SOL    HW1 3866   2.651  -0.039   3.059 -2.5754  2.4307  0.9675
  967SOL    HW2 3867   2.589   0.086   3.015 -0.8975 -1.0328  2.7489
  967SOL     MW 3868   2.637   0.041   3.076 -0.2705  0.1492  0.0264
  968SOL     OW 3869   2.994   2.574   2.942  0.1257 -0.3026  0.2029
  968SOL    HW1 3870   2.903   2.590   2.914 -2.5169 -1.1297 -2.2119
  968SOL    HW2 3871   3.031   2.570   2.850 -0.6996 -1.9211 -1.5666
  968SOL     MW 3872   2.987   2.576   2.926 -0.3318 -0.6253 -0.3491
  969SOL     OW 3873   1.585   2.155   1.722 -0.5309  0.6589  0.0026
  969SOL    HW1 3874   1.665   2.107   1.738  0.0756 -0.2892 -2.1642
  969SOL    HW2 3875   1.543   2.157   1.806  1.4683 -1.5264 -3.1178
  969SOL     MW 3876   1.590   2.149   1.735 -0.1871  0.2455 -0.6950
  970SOL     OW 3877   1.726   1.755   1.820  0.2366  0.3331  0.0288
  970SOL    HW1 3878   1.776   1.693   1.874  0.7354  1.2575  0.3065
  970SOL    HW2 3879   1.650   1.770   1.879  2.3173 -0.2934 -1.1373
  970SOL     MW 3880   1.722   1.749   1.835  0.5770  0.3724 -0.0884
  971SOL     OW 3881   1.758   3.062   2.354 -0.5213 -0.5100 -0.1085
  971SOL    HW1 3882   1.806   3.027   2.277 -1.2353  0.3674  0.1736
  971SOL    HW2 3883   1.797   3.150   2.354  0.4443  1.4994  0.8382
  971SOL     MW 3884   1.769   3.069   2.344 -0.4881 -0.1291  0.0536
  972SOL     OW 3885   0.247   2.869   2.436 -0.6044 -0.2602  0.0199
  972SOL    HW1 3886   0.317   2.810   2.467  0.6670 -0.5704  0.3306
  972SOL    HW2 3887   0.279   2.957   2.435 -0.2666 -1.9769  2.3706
  972SOL     MW 3888   0.260   2.873   2.440 -0.3921 -0.5277  0.3710
  973SOL     OW 3889   2.611   0.006   2.156 -0.3980  0.9596  0.2595
  973SOL    HW1 3890   2.585  -0.057   2.085  0.6743 -0.8336  0.6863
  973SOL    HW2 3891   2.599   0.091   2.110 -0.9592  1.8705 -0.8346
  973SOL     MW 3892   2.606   0.009   2.141 -0.3306  0.8432  0.1715
  974SOL     OW 3893   2.006   0.165   2.614  0.4215  0.0437  0.2067
  974SOL    HW1 3894   2.081   0.141   2.679 -2.7917 -1.0313  2.5726
  974SOL    HW2 3895   1.945   0.090   2.626 -1.2297  1.1007 -1.8998
  974SOL     MW 3896   2.008   0.152   2.624 -0.2203  0.0413  0.2409
  975SOL     OW 3897   2.160   2.451   2.466  0.0882  0.9092 -0.6027
  975SOL    HW1 3898   2.232   2.517   2.482  0.5977 -0.1220  0.6595
  975SOL    HW2 3899   2.093   2.511   2.436  1.2979 -2.6888  1.2628
  975SOL     MW 3900   2.161   2.468   2.464  0.3150  0.2984 -0.1900
  976SOL     OW 3901   0.171   0.336   1.592 -0.0618 -0.7938 -0.6043
  976SOL    HW1 3902   0.225   0.257   1.616  2.4374  1.6223  1.6902
  976SOL    HW2 3903   0.080   0.303   1.591  2.2250  0.9360  0.8457
  976SOL     MW 3904   0.166   0.321   1.595  0.5697 -0.2468 -0.1102
  977SOL     OW 3905   1.697   2.742   2.434 -0.3911  0.0035  0.5648
  977SOL    HW1 3906   1.777   2.691   2.464 -2.1698 -3.0245  0.9755
  977SOL    HW2 3907   1.733   2.811   2.378  1.5702  2.4397  0.7100
  977SOL     MW 3908   1.712   2.744   2.430 -0.3670 -0.0746  0.6382
   3.10000   3.10000   3.10000
