977 TIP4P/2005f water molecules t=   0.64000 step= 640
 3908
    1SOL     OW    1   0.174   0.839   0.009 -0.1329  0.0338 -0.3526
    1SOL    HW1    2   0.186   0.843  -0.083 -0.0309 -1.4166 -1.5534
    1SOL    HW2    3   0.177   0.746   0.039  0.8454 -2.2212  0.3227
    1SOL     MW    4   0.176   0.827   0.001  0.0096 -0.4551 -0.4219
    2SOL     OW    5   0.231   3.012   1.188 -0.4912 -0.4825  0.4918
    2SOL    HW1    6   0.275   3.087   1.153 -0.1903  0.0116  0.2262
    2SOL    HW2    7   0.139   3.032   1.179 -0.5203  1.0887 -1.5219
    2SOL     MW    8   0.225   3.025   1.182 -0.4553 -0.2100  0.1910
    3SOL     OW    9   2.674   0.410   0.926 -0.1892 -0.0693  0.3531
    3SOL    HW1   10   2.685   0.480   0.860  0.7512  1.6168 -3.5825
    3SOL    HW2   11   2.628   0.447   1.002  1.9823 -0.6100  0.7087
    3SOL     MW   12   2.670   0.424   0.928  0.2214  0.0818 -0.1193
    4SOL     OW   13   3.029   1.720   0.602  0.0537 -0.8632  0.1177
    4SOL    HW1   14   2.953   1.756   0.552  1.2653 -1.8309  1.6382
    4SOL    HW2   15   3.093   1.710   0.537 -1.7160  0.3058 -0.3748
    4SOL     MW   16   3.027   1.723   0.587 -0.0200 -0.8366  0.2533
    5SOL     OW   17   1.725   1.500   0.540 -0.1484 -0.5413 -0.2979
    5SOL    HW1   18   1.758   1.441   0.613 -2.0320  1.9345 -0.2726
    5SOL    HW2   19   1.632   1.492   0.537 -1.2490 -1.1277 -0.2840
    5SOL     MW   20   1.717   1.491   0.549 -0.5422 -0.2920 -0.2927
    6SOL     OW   21   0.863   1.377   0.684  0.1441  0.2197 -0.5018
    6SOL    HW1   22   0.774   1.400   0.666  1.2265  1.3153 -1.1238
    6SOL    HW2   23   0.860   1.286   0.722 -1.7251  0.8963 -0.2627
    6SOL     MW   24   0.851   1.368   0.687  0.0403  0.4536 -0.5524
    7SOL     OW   25   2.004   1.143   0.009 -0.2744 -0.7620 -0.2548
    7SOL    HW1   26   2.083   1.185  -0.013 -0.9404 -0.4735 -2.4626
    7SOL    HW2   27   1.992   1.156   0.104 -0.6150 -0.7656  1.0611
    7SOL     MW   28   2.013   1.150   0.019 -0.4072 -0.7244 -0.3725
    8SOL     OW   29   0.955   1.342   1.017  0.1118 -0.2930  0.0184
    8SOL    HW1   30   1.017   1.266   1.011  0.2115  1.2780 -0.8008
    8SOL    HW2   31   0.923   1.342   1.109 -0.0444 -1.9109 -0.1962
    8SOL     MW   32   0.959   1.332   1.028  0.1044 -0.2992 -0.1180
    9SOL     OW   33   1.064   0.451   1.359 -0.3465 -0.0464 -0.3392
    9SOL    HW1   34   0.983   0.399   1.331 -1.9714  1.7158 -2.6410
    9SOL    HW2   35   1.104   0.406   1.432  0.0776 -0.4756 -0.6596
    9SOL     MW   36   1.059   0.438   1.365 -0.5049  0.1294 -0.6852
   10SOL     OW   37   0.263   0.797   0.420  0.4078  0.3999  0.0488
   10SOL    HW1   38   0.352   0.813   0.402 -4.7953  1.7170  2.2381
   10SOL    HW2   39   0.249   0.836   0.507  0.2952  0.5039  0.5764
   10SOL     MW   40   0.273   0.805   0.429 -0.2936  0.5874  0.4073
   11SOL     OW   41   0.785   1.149   1.690  0.4229 -0.3664  0.2996
   11SOL    HW1   42   0.839   1.135   1.763 -3.0980  1.6529  0.7967
   11SOL    HW2   43   0.789   1.069   1.632 -1.9259  2.6042  1.2304
   11SOL     MW   44   0.792   1.137   1.692 -0.3516  0.2920  0.4880
   12SOL     OW   45   3.092   1.071   0.889 -0.1596 -0.1290  0.3062
   12SOL    HW1   46   3.156   1.139   0.911 -0.3302  2.8055 -4.1824
   12SOL    HW2   47   3.035   1.119   0.825  0.3773  2.3313 -0.7848
   12SOL     MW   48   3.093   1.086   0.883 -0.1113  0.5828 -0.4300
   13SOL     OW   49   1.841   1.416   1.328  0.3926  0.0592  0.2580
   13SOL    HW1   50   1.854   1.372   1.240  0.3855  0.2577 -3.3958
   13SOL    HW2   51   1.865   1.510   1.309 -0.8716 -0.4050  2.0434
   13SOL     MW   52   1.846   1.423   1.314  0.2249  0.0241  0.0115
   14SOL     OW   53   0.601   0.356   1.803  0.0530  0.6963 -0.0461
   14SOL    HW1   54   0.611   0.283   1.741  0.6256  0.0385  1.1595
   14SOL    HW2   55   0.687   0.373   1.833 -0.3195  1.1763  0.6473
   14SOL     MW   56   0.614   0.348   1.798  0.0794  0.6729  0.2044
   15SOL     OW   57   1.927   0.492   0.964  0.5954 -0.1057 -0.7869
   15SOL    HW1   58   1.930   0.515   1.059  0.6484 -1.3022  0.7796
   15SOL    HW2   59   2.014   0.473   0.928  1.5268 -2.2001  0.8616
   15SOL     MW   60   1.939   0.492   0.971  0.7253 -0.5399 -0.3627
   16SOL     OW   61   0.256   1.832   0.335 -0.3042  0.2694 -0.0198
   16SOL    HW1   62   0.318   1.770   0.376  0.2625  0.4387  1.8808
   16SOL    HW2   63   0.273   1.910   0.391 -0.2177  0.7395  3.3690
   16SOL     MW   64   0.266   1.834   0.348 -0.2180  0.3538  0.6781
   17SOL     OW   65   1.027   0.881   1.501  0.4910  0.4195  0.5274
   17SOL    HW1   66   1.075   0.860   1.580 -0.3358  0.5425  0.5816
   17SOL    HW2   67   0.941   0.898   1.534  0.1086  2.7206 -1.3537
   17SOL     MW   68   1.022   0.880   1.516  0.3315  0.7394  0.2863
   18SOL     OW   69   0.103   1.606   0.378  0.1468  0.4449 -0.0654
   18SOL    HW1   70   0.134   1.696   0.357  0.4840  0.4050  0.7006
   18SOL    HW2   71   0.088   1.566   0.295  2.2281  0.8305  0.8747
   18SOL     MW   72   0.105   1.612   0.365  0.4659  0.4905  0.1597
   19SOL     OW   73   0.078   1.302   0.990  0.6575  0.3171 -0.5679
   19SOL    HW1   74   0.133   1.353   0.931 -0.6089 -1.9916 -1.1807
   19SOL    HW2   75  -0.004   1.351   1.010 -3.8678  0.1715 -2.1039
   19SOL     MW   76   0.075   1.315   0.985 -0.1066 -0.0067 -0.8514
   20SOL     OW   77   0.404   2.137   1.223  0.0308  0.3333 -0.5363
   20SOL    HW1   78   0.374   2.051   1.187  2.0280 -2.2948  0.5278
   20SOL    HW2   79   0.351   2.160   1.302 -1.0120  0.6052  2.1592
   20SOL     MW   80   0.393   2.129   1.229  0.1567  0.0224 -0.0403
   21SOL     OW   81   0.529   0.802   0.353  0.2553  0.0528 -0.3189
   21SOL    HW1   82   0.615   0.796   0.397  0.4066 -0.5938  0.1775
   21SOL    HW2   83   0.531   0.774   0.259 -1.7641 -1.7059  1.5865
   21SOL     MW   84   0.541   0.797   0.346  0.0088 -0.2645 -0.0020
   22SOL     OW   85   1.491   0.568   1.103 -0.2192  0.5897  0.4877
   22SOL    HW1   86   1.537   0.500   1.049 -0.4417  3.2259  2.1020
   22SOL    HW2   87   1.435   0.613   1.041  1.4059 -1.4662  0.5302
   22SOL     MW   88   1.490   0.565   1.088 -0.0341  0.6662  0.7063
   23SOL     OW   89   0.007   0.773   0.653  0.4172  0.1483 -0.0409
   23SOL    HW1   90   0.057   0.712   0.711 -1.7859 -1.7047  0.9275
   23SOL    HW2   91   0.066   0.840   0.634  0.1321 -2.2670  1.4447
   23SOL     MW   92   0.021   0.774   0.658  0.0889 -0.4148  0.2829
   24SOL     OW   93   2.018   2.218   0.106  0.0979  0.2588 -0.2250
   24SOL    HW1   94   2.042   2.208   0.198 -1.3922 -0.4501 -0.7650
   24SOL    HW2   95   2.041   2.132   0.061  2.3661  0.8870  1.3831
   24SOL     MW   96   2.024   2.205   0.112  0.2006  0.2482 -0.0841
   25SOL     OW   97   0.215   1.368   0.544 -0.8609 -0.5215 -0.0545
   25SOL    HW1   98   0.183   1.453   0.512 -2.0484 -1.9170 -0.5687
   25SOL    HW2   99   0.304   1.342   0.502  1.8732  0.6458 -1.4045
   25SOL     MW  100   0.222   1.375   0.534 -0.6568 -0.5516 -0.3005
   26SOL     OW  101   2.003   0.940   0.425 -0.1807  0.6265 -0.7309
   26SOL    HW1  102   1.917   0.988   0.459 -2.0802 -0.1938 -0.1366
   26SOL    HW2  103   2.056   1.002   0.370  2.0235 -1.8757 -0.3865
   26SOL     MW  104   1.998   0.954   0.422 -0.1405  0.1882 -0.6070
   27SOL     OW  105   2.052   1.401   0.222 -0.3133  0.1214 -0.2500
   27SOL    HW1  106   1.968   1.368   0.261  0.0275 -2.1115  0.3236
   27SOL    HW2  107   2.085   1.463   0.288 -0.7770  2.2311 -1.1627
   27SOL     MW  108   2.046   1.405   0.236 -0.3295  0.1051 -0.2947
   28SOL     OW  109   0.399   1.083   1.996 -0.3975 -0.1678  0.5947
   28SOL    HW1  110   0.494   1.090   2.003 -1.6196 -4.6475  1.3677
   28SOL    HW2  111   0.374   0.995   2.018  0.9439 -0.4522 -1.6796
   28SOL     MW  112   0.408   1.072   2.000 -0.3818 -0.7963  0.3966
   29SOL     OW  113   0.233   1.450   0.816 -0.8929  0.4242 -0.2161
   29SOL    HW1  114   0.249   1.541   0.795 -1.4224  0.2683 -1.5347
   29SOL    HW2  115   0.229   1.403   0.734 -1.6072  0.5631 -1.1241
   29SOL     MW  116   0.234   1.456   0.802 -1.0570  0.4220 -0.5098
   30SOL     OW  117   0.830   1.170   1.220 -0.1259  0.3605 -0.0175
   30SOL    HW1  118   0.748   1.199   1.262 -1.3566 -0.3759 -3.2854
   30SOL    HW2  119   0.898   1.164   1.291 -1.9100  0.6305  0.4494
   30SOL     MW  120   0.828   1.173   1.235 -0.5237  0.2989 -0.3871
   31SOL     OW  121   0.381   0.184   0.147  0.2587 -0.1542  0.4909
   31SOL    HW1  122   0.401   0.122   0.214  1.6379  0.5953 -0.6524
   31SOL    HW2  123   0.358   0.138   0.067  0.6003  1.8876 -0.3855
   31SOL     MW  124   0.381   0.170   0.145  0.4858  0.2141  0.2244
   32SOL     OW  125   2.786   1.005   1.129  0.3126 -0.0148 -0.0606
   32SOL    HW1  126   2.710   0.947   1.135  0.2066 -1.9324 -0.3468
   32SOL    HW2  127   2.861   0.945   1.120 -1.6569 -0.6587  1.0776
   32SOL     MW  128   2.786   0.989   1.129  0.0387 -0.3527  0.0518
   33SOL     OW  129   1.831   1.321   0.355  0.7713  0.0325 -0.2247
   33SOL    HW1  130   1.835   1.245   0.414 -0.3792  0.8921  1.3847
   33SOL    HW2  131   1.804   1.387   0.422 -2.1411  0.1128 -1.3579
   33SOL     MW  132   1.828   1.320   0.371  0.2353  0.1565 -0.1619
   34SOL     OW  133   1.232   1.872   1.096  0.2610  0.0363 -0.5389
   34SOL    HW1  134   1.138   1.899   1.116  1.5499 -1.4555 -0.1914
   34SOL    HW2  135   1.280   1.879   1.179  1.9187  0.1140  0.3987
   34SOL     MW  136   1.226   1.877   1.109  0.6498 -0.1502 -0.3694
   35SOL     OW  137   0.377   0.145   1.863  0.5055  0.5586 -0.3419
   35SOL    HW1  138   0.345   0.098   1.937  0.7046  1.4350 -1.4568
   35SOL    HW2  139   0.413   0.072   1.809 -1.1411  0.8502  2.1860
   35SOL     MW  140   0.378   0.130   1.866  0.3145  0.7127 -0.1554
   36SOL     OW  141   1.838   1.931   0.498 -0.0576  0.2160  0.2078
   36SOL    HW1  142   1.842   1.924   0.407  0.0944  1.5624  0.0112
   36SOL    HW2  143   1.867   1.849   0.541 -0.4119  0.7196  0.2609
   36SOL     MW  144   1.842   1.919   0.492 -0.0843  0.4601  0.1889
   37SOL     OW  145   1.764   1.986   1.067  0.0731 -0.2234 -0.1453
   37SOL    HW1  146   1.713   1.949   0.991 -1.0808 -0.9135 -1.5589
   37SOL    HW2  147   1.704   2.057   1.084  1.3744 -0.8418 -1.6032
   37SOL     MW  148   1.749   1.990   1.059  0.0925 -0.3961 -0.5242
   38SOL     OW  149   2.831   0.898   0.152 -0.7273 -0.2100  0.2649
   38SOL    HW1  150   2.880   0.889   0.238 -1.4327  0.0133  0.6794
   38SOL    HW2  151   2.894   0.877   0.084  1.5350  3.3210  1.5983
   38SOL     MW  152   2.846   0.894   0.155 -0.5219  0.2854  0.4955
   39SOL     OW  153   1.400   0.639   0.783  0.2853  0.4364 -0.4105
   39SOL    HW1  154   1.374   0.546   0.802 -0.3378  0.0277  2.4854
   39SOL    HW2  155   1.314   0.681   0.785  1.5366 -1.1299  0.1736
   39SOL     MW  156   1.385   0.632   0.786  0.3682  0.1758  0.0486
   40SOL     OW  157   1.191   1.899   0.230  0.2090  0.4854 -0.6181
   40SOL    HW1  158   1.233   1.834   0.286  0.6016  1.3668  1.2532
   40SOL    HW2  159   1.140   1.955   0.291 -0.6105 -0.1814 -0.6506
   40SOL     MW  160   1.190   1.898   0.245  0.1527  0.5137 -0.3755
   41SOL     OW  161   0.620   0.467   1.556  0.3824  0.4244  0.6195
   41SOL    HW1  162   0.710   0.500   1.555  0.5338  1.0895  0.4983
   41SOL    HW2  163   0.599   0.438   1.649  0.1024  0.9265 -0.8689
   41SOL     MW  164   0.629   0.467   1.568  0.3654  0.5784  0.4071
   42SOL     OW  165   1.253   3.001   2.025  0.2051 -0.2626 -0.2162
   42SOL    HW1  166   1.162   2.976   2.038 -1.4873  1.5619 -0.6607
   42SOL    HW2  167   1.307   2.926   2.003 -2.7799 -0.5555  2.3823
   42SOL     MW  168   1.248   2.988   2.024 -0.4120 -0.0605  0.0680
   43SOL     OW  169   1.555   0.130   1.766  0.1686 -0.5676  0.0504
   43SOL    HW1  170   1.610   0.112   1.689  1.3892  2.5501 -0.1992
   43SOL    HW2  171   1.465   0.092   1.758  0.1483  2.4665  1.4339
   43SOL     MW  172   1.550   0.123   1.755  0.3269  0.2440  0.2000
   44SOL     OW  173   1.261   0.757   1.109  0.2424  0.2121 -0.1998
   44SOL    HW1  174   1.233   0.843   1.072  1.2219 -1.6276 -0.6258
   44SOL    HW2  175   1.226   0.754   1.202 -0.2605  1.1284  1.1708
   44SOL     MW  176   1.253   0.768   1.117  0.3053  0.0903 -0.0752
   45SOL     OW  177   1.133   0.702   0.756  0.2147 -0.2276 -0.1973
   45SOL    HW1  178   1.100   0.667   0.836  0.5160  1.5135  1.3883
   45SOL    HW2  179   1.096   0.658   0.683 -1.2632  1.7856 -0.3379
   45SOL     MW  180   1.124   0.692   0.757  0.0595  0.2677 -0.0067
   46SOL     OW  181   0.564   1.187   0.550  0.3315 -0.3868  0.0699
   46SOL    HW1  182   0.527   1.212   0.471 -0.4375 -1.4386  2.2642
   46SOL    HW2  183   0.658   1.177   0.541 -1.2443  0.2376 -0.5358
   46SOL     MW  184   0.572   1.189   0.538  0.0221 -0.4432  0.2795
   47SOL     OW  185   0.163   1.923   1.786 -0.0423 -0.6458 -0.3605
   47SOL    HW1  186   0.230   1.864   1.750 -1.2752  3.6030  0.9576
   47SOL    HW2  187   0.183   1.925   1.886  2.4282  0.3260 -0.7489
   47SOL     MW  188   0.174   1.916   1.794  0.1210  0.0430 -0.2379
   48SOL     OW  189   1.055   0.577   0.977  0.5229 -0.2153 -1.0029
   48SOL    HW1  190   0.986   0.535   1.032 -0.0504  1.1843 -2.1235
   48SOL    HW2  191   1.096   0.636   1.039 -0.1960  0.6763 -1.3004
   48SOL     MW  192   1.051   0.580   0.992  0.3524  0.0870 -1.1900
   49SOL     OW  193   1.811   0.758   1.565  0.0264 -0.1805  0.9052
   49SOL    HW1  194   1.769   0.714   1.642  0.5514 -1.1254 -1.6110
   49SOL    HW2  195   1.880   0.689   1.551  2.0983 -1.0280  0.0519
   49SOL     MW  196   1.815   0.743   1.573  0.3691 -0.4170  0.4606
   50SOL     OW  197   1.171   1.052   0.512  0.1834  0.5239  0.6381
   50SOL    HW1  198   1.161   1.127   0.569 -0.0068 -0.2295 -0.9999
   50SOL    HW2  199   1.239   1.005   0.559 -1.3187  1.3732  0.5353
   50SOL     MW  200   1.178   1.055   0.525 -0.0399  0.5366  0.4084
   51SOL     OW  201   0.322   2.888   0.929 -0.3669  0.0014 -0.1269
   51SOL    HW1  202   0.406   2.851   0.949  0.1501 -0.3549  3.2232
   51SOL    HW2  203   0.296   2.929   1.009 -0.7177 -1.4307  1.2771
   51SOL     MW  204   0.329   2.889   0.942 -0.3449 -0.2346  0.5003
   52SOL     OW  205   0.789   1.818   0.452 -0.4415  0.2890  0.8581
   52SOL    HW1  206   0.769   1.907   0.475  0.0334  0.2954 -2.9846
   52SOL    HW2  207   0.788   1.815   0.356  1.9515  1.2135 -0.6647
   52SOL     MW  208   0.786   1.829   0.442 -0.0631  0.4118  0.1502
   53SOL     OW  209   0.474   2.152   0.650 -0.3527 -0.2217  0.2499
   53SOL    HW1  210   0.404   2.142   0.588 -0.9506  4.8986  3.2556
   53SOL    HW2  211   0.492   2.249   0.639 -2.0554 -0.4773  1.6854
   53SOL     MW  212   0.467   2.163   0.641 -0.6563  0.4202  0.8359
   54SOL     OW  213   2.157   0.860   0.872 -0.5355  0.4163  0.4334
   54SOL    HW1  214   2.158   0.908   0.787  4.1117 -1.0107  0.3505
   54SOL    HW2  215   2.076   0.804   0.860 -0.5922 -0.6663 -0.5318
   54SOL     MW  216   2.146   0.859   0.859  0.0701  0.0852  0.2952
   55SOL     OW  217   0.588   1.525   1.604  0.4836  0.4505  0.9085
   55SOL    HW1  218   0.518   1.560   1.549  0.4662  1.2871  0.8406
   55SOL    HW2  219   0.635   1.468   1.542 -1.6222 -2.6905 -1.6825
   55SOL     MW  220   0.585   1.522   1.589  0.2035  0.1465  0.5577
   56SOL     OW  221   0.530   0.784   0.090  0.1619  0.4136 -0.3549
   56SOL    HW1  222   0.532   0.880   0.071 -1.8104  1.9945  0.5777
   56SOL    HW2  223   0.466   0.755   0.030 -0.3595 -1.3170 -1.6843
   56SOL     MW  224   0.522   0.793   0.080 -0.1671  0.3938 -0.4073
   57SOL     OW  225   1.233   1.217   1.141 -0.4176 -0.1520 -0.8633
   57SOL    HW1  226   1.323   1.252   1.109 -1.4262 -0.8568 -3.2697
   57SOL    HW2  227   1.250   1.183   1.231 -0.2586  0.1475  1.7666
   57SOL     MW  228   1.247   1.217   1.148 -0.5297 -0.2054 -0.8338
   58SOL     OW  229   0.548   1.172   1.310 -0.4778  0.1161 -0.2332
   58SOL    HW1  230   0.521   1.259   1.273 -0.6136  0.5271 -0.1275
   58SOL    HW2  231   0.539   1.192   1.411  0.6228  1.2438  0.6233
   58SOL     MW  232   0.543   1.186   1.319 -0.3505  0.3191 -0.1062
   59SOL     OW  233   1.531   1.680   0.333  0.1179  0.2737 -0.6435
   59SOL    HW1  234   1.564   1.729   0.412  2.1316 -1.0017  3.0209
   59SOL    HW2  235   1.438   1.686   0.355 -1.0345 -0.7927  1.0967
   59SOL     MW  236   1.523   1.687   0.346  0.2315 -0.0353  0.0696
   60SOL     OW  237   0.066   0.165   1.668 -0.1746 -0.5010 -0.1782
   60SOL    HW1  238  -0.026   0.186   1.648 -2.4731 -0.6417 -0.3198
   60SOL    HW2  239   0.067   0.104   1.744  1.8629 -3.5394 -0.8266
   60SOL     MW  240   0.054   0.160   1.676 -0.2090 -0.9205 -0.2824
   61SOL     OW  241   2.062   1.456   3.036  0.1632  0.0472 -0.3133
   61SOL    HW1  242   2.034   1.465   3.131  2.2563 -1.1725  0.5375
   61SOL    HW2  243   2.112   1.376   3.027 -0.2736  1.5981 -0.4826
   61SOL     MW  244   2.065   1.447   3.048  0.3817  0.0909 -0.2234
   62SOL     OW  245   0.624   1.712   0.621 -0.2196  0.0788  0.0402
   62SOL    HW1  246   0.699   1.737   0.565  2.7002  2.1883 -2.4439
   62SOL    HW2  247   0.627   1.613   0.637  0.6731 -1.2742 -0.7539
   62SOL     MW  248   0.634   1.702   0.616  0.2834  0.1786 -0.3923
   63SOL     OW  249   1.657   0.719   0.722  0.3614 -0.2704  0.6921
   63SOL    HW1  250   1.662   0.790   0.654  1.5506 -1.5875 -2.0622
   63SOL    HW2  251   1.565   0.707   0.746  0.3542  0.5834  0.3674
   63SOL     MW  252   1.646   0.727   0.716  0.5174 -0.3316  0.2858
   64SOL     OW  253   0.279   1.714   0.725 -0.1110  0.1727  0.3363
   64SOL    HW1  254   0.340   1.780   0.763 -0.5167  0.9625  0.0972
   64SOL    HW2  255   0.190   1.741   0.725  3.8952 -0.6579  0.3789
   64SOL     MW  256   0.276   1.726   0.730  0.3641  0.1673  0.3103
   65SOL     OW  257   1.551   2.352   0.380 -0.1476  0.0233  0.6784
   65SOL    HW1  258   1.643   2.338   0.401  1.1835  1.0584 -0.9755
   65SOL    HW2  259   1.523   2.394   0.465  0.3473  0.6223 -2.0467
   65SOL     MW  260   1.560   2.355   0.394  0.0933  0.2389  0.1006
   66SOL     OW  261   0.292   0.557   0.570 -0.1677 -0.1098  0.3664
   66SOL    HW1  262   0.334   0.506   0.503  0.6186 -1.2019  3.1229
   66SOL    HW2  263   0.277   0.640   0.525 -0.4630  1.6482  3.0189
   66SOL     MW  264   0.295   0.561   0.555 -0.1029 -0.0219  1.0800
   67SOL     OW  265   1.445   0.094   2.022  1.0242 -0.2989 -0.1630
   67SOL    HW1  266   1.488   0.098   1.935  0.5405  2.4531  0.0263
   67SOL    HW2  267   1.373   0.030   2.019  1.5297  1.2935  0.1572
   67SOL     MW  268   1.441   0.086   2.010  1.0271  0.2743 -0.0958
   68SOL     OW  269   0.637   0.093   2.949  0.0748 -0.5763 -0.3429
   68SOL    HW1  270   0.598   0.139   2.875  1.2698  0.0798  0.3659
   68SOL    HW2  271   0.716   0.136   2.979  0.8566  1.9053  0.1236
   68SOL     MW  272   0.642   0.104   2.943  0.3356 -0.1623 -0.1878
   69SOL     OW  273   1.000   0.175   1.984 -0.4643  0.2520 -0.2092
   69SOL    HW1  274   1.090   0.188   2.014  1.6101 -1.2674  1.9462
   69SOL    HW2  275   0.977   0.079   1.986 -1.2938 -1.6448 -2.0314
   69SOL     MW  276   1.009   0.164   1.988 -0.3000 -0.1987 -0.1653
   70SOL     OW  277   0.516   1.726   1.133 -0.0875 -0.2889 -0.2054
   70SOL    HW1  278   0.567   1.656   1.171  1.2788 -0.4214  1.3650
   70SOL    HW2  279   0.560   1.753   1.050 -1.1838  1.1290  1.8332
   70SOL     MW  280   0.528   1.720   1.127 -0.0519 -0.1193  0.2707
   71SOL     OW  281   1.655   0.549   1.342 -0.9762 -0.2073 -0.5180
   71SOL    HW1  282   1.620   0.614   1.403  0.7477  1.2401 -1.5320
   71SOL    HW2  283   1.615   0.572   1.255 -0.4693 -1.1503 -0.8221
   71SOL     MW  284   1.645   0.561   1.339 -0.6819 -0.1408 -0.6919
   72SOL     OW  285   0.788   1.772   0.973 -0.1829  0.0895  0.2889
   72SOL    HW1  286   0.753   1.820   0.897  1.7988 -1.0755  0.1768
   72SOL    HW2  287   0.750   1.683   0.980 -0.1416 -1.2987  0.5217
   72SOL     MW  288   0.778   1.767   0.964  0.0840 -0.2474  0.3049
   73SOL     OW  289   1.188   0.707   1.353 -0.1129  0.1390  0.0850
   73SOL    HW1  290   1.140   0.624   1.345  1.4068 -1.3724 -1.8601
   73SOL    HW2  291   1.134   0.759   1.415 -0.2853 -1.3282 -0.2172
   73SOL     MW  292   1.174   0.703   1.360  0.0649 -0.2540 -0.2115
   74SOL     OW  293   2.839   0.177   0.950 -0.6832 -0.0835 -0.3619
   74SOL    HW1  294   2.849   0.156   0.858 -0.0714  0.8053  1.7141
   74SOL    HW2  295   2.805   0.267   0.956 -1.4094  1.0017  1.5034
   74SOL     MW  296   2.836   0.186   0.939 -0.6983  0.1770  0.1581
   75SOL     OW  297   1.674   1.386   0.118  0.1437  0.1927 -0.5220
   75SOL    HW1  298   1.712   1.369   0.207 -0.8344 -0.6230  1.3106
   75SOL    HW2  299   1.688   1.297   0.079  1.4414 -2.0116 -2.4522
   75SOL     MW  300   1.680   1.372   0.125  0.1859 -0.2057 -0.5349
   76SOL     OW  301   2.993   0.621   0.424 -0.1158 -0.0892 -0.1481
   76SOL    HW1  302   3.019   0.675   0.501 -0.9037 -0.9625  2.1439
   76SOL    HW2  303   3.059   0.553   0.417 -0.1903  2.9117 -1.4476
   76SOL     MW  304   3.005   0.619   0.433 -0.2296  0.1915 -0.0172
   77SOL     OW  305   0.837   0.534   0.415  0.2908  0.3597  0.2144
   77SOL    HW1  306   0.810   0.531   0.323  2.1057  0.9215  1.7565
   77SOL    HW2  307   0.790   0.459   0.456 -2.8989  1.0837  0.8777
   77SOL     MW  308   0.827   0.524   0.408  0.1094  0.5294  0.5054
   78SOL     OW  309   0.754   0.879   1.269  0.0374  0.4909  0.7659
   78SOL    HW1  310   0.701   0.922   1.200 -1.3147  2.0902 -2.0211
   78SOL    HW2  311   0.830   0.838   1.227 -0.2430 -1.2861 -2.8339
   78SOL     MW  312   0.757   0.879   1.254 -0.1780  0.4674 -0.0768
   79SOL     OW  313   1.906   1.708   0.623 -0.0273  0.5201  0.0239
   79SOL    HW1  314   1.837   1.642   0.611  0.9386 -1.9675 -0.6224
   79SOL    HW2  315   1.895   1.736   0.714  3.1870 -1.7631 -3.6553
   79SOL     MW  316   1.895   1.703   0.634  0.5242 -0.1093 -0.5468
   80SOL     OW  317   0.102   0.988   0.302 -0.1805 -0.7123 -0.2051
   80SOL    HW1  318   0.013   0.959   0.343 -1.5167 -1.7954 -0.9263
   80SOL    HW2  319   0.165   0.914   0.319 -0.9868 -2.2205 -2.3713
   80SOL     MW  320   0.099   0.974   0.309 -0.4632 -1.0542 -0.5861
   81SOL     OW  321   1.912   1.913   0.220  0.0996  0.2051  0.5995
   81SOL    HW1  322   1.884   1.826   0.184 -1.5169 -1.7314  0.3420
   81SOL    HW2  323   1.837   1.970   0.208  0.6950 -2.9026  1.7012
   81SOL     MW  324   1.899   1.909   0.214 -0.0351 -0.4605  0.7109
   82SOL     OW  325   0.807   1.095   0.533  0.0346 -0.0841  0.0470
   82SOL    HW1  326   0.810   1.138   0.449 -0.4633 -0.1295 -0.2247
   82SOL    HW2  327   0.816   1.010   0.511 -2.8502 -0.2298  0.3349
   82SOL     MW  328   0.809   1.090   0.519 -0.4117 -0.1093  0.0492
   83SOL     OW  329   0.177   0.597   1.328 -0.7944 -0.5219  0.4012
   83SOL    HW1  330   0.142   0.688   1.310  0.4987  0.2886  2.4120
   83SOL    HW2  331   0.235   0.590   1.406  1.1504 -1.3020 -0.2639
   83SOL     MW  332   0.180   0.608   1.336 -0.3672 -0.5179  0.5788
   84SOL     OW  333   0.091   0.220   0.898 -0.2164  0.2120  0.2535
   84SOL    HW1  334   0.005   0.234   0.856 -1.9594  1.7629  0.0618
   84SOL    HW2  335   0.065   0.200   0.989 -0.5724  2.4666  0.3800
   84SOL     MW  336   0.076   0.219   0.905 -0.4933  0.7141  0.2449
   85SOL     OW  337   0.489   0.443   0.764  0.2179 -0.1264  0.1289
   85SOL    HW1  338   0.420   0.468   0.697  0.5654  1.5563  1.0976
   85SOL    HW2  339   0.464   0.358   0.792 -0.1125  2.0783  0.2802
   85SOL     MW  340   0.477   0.435   0.759  0.2201  0.3865  0.2767
   86SOL     OW  341   1.218   0.362   1.088  0.0909 -0.4325  0.0114
   86SOL    HW1  342   1.161   0.424   1.045  1.3261 -1.5829 -0.1711
   86SOL    HW2  343   1.245   0.401   1.171  0.3020  0.6530  1.4825
   86SOL     MW  344   1.214   0.375   1.093  0.2818 -0.4410  0.1814
   87SOL     OW  345   1.144   1.452   1.251 -0.1993 -0.1275  0.7918
   87SOL    HW1  346   1.183   1.522   1.190  1.5246 -1.4034 -1.6940
   87SOL    HW2  347   1.165   1.365   1.203 -0.2941 -1.8410  1.0961
   87SOL     MW  348   1.152   1.450   1.237  0.0157 -0.5220  0.5039
   88SOL     OW  349   1.207   1.004   0.984 -0.3653 -0.0375 -0.2169
   88SOL    HW1  350   1.303   0.992   0.971  1.2051 -2.5404 -1.8638
   88SOL    HW2  351   1.213   1.087   1.041  0.9833  0.8392 -2.9377
   88SOL     MW  352   1.221   1.014   0.990  0.0199 -0.2521 -0.7932
   89SOL     OW  353   1.759   0.676   0.311 -0.0019 -0.2307  0.7105
   89SOL    HW1  354   1.828   0.620   0.355  0.7363  0.9344 -0.8803
   89SOL    HW2  355   1.806   0.701   0.230  1.4019  0.5948  1.8316
   89SOL     MW  356   1.774   0.672   0.306  0.2807  0.0320  0.6485
   90SOL     OW  357   0.673   1.166   2.811 -0.5648 -0.0162 -0.4699
   90SOL    HW1  358   0.742   1.097   2.817  3.7452 -0.6078  2.8962
   90SOL    HW2  359   0.683   1.211   2.898  0.7311 -0.3737 -1.8837
   90SOL     MW  360   0.683   1.163   2.823  0.1748 -0.1414 -0.2124
   91SOL     OW  361   2.202   0.645   0.526 -0.2328 -0.2777 -0.2181
   91SOL    HW1  362   2.226   0.706   0.458 -1.3602 -2.8914 -0.4705
   91SOL    HW2  363   2.214   0.560   0.481 -1.5563  0.4508 -0.6560
   91SOL     MW  364   2.207   0.642   0.511 -0.5562 -0.5264 -0.3092
   92SOL     OW  365   1.630   0.872   0.495 -0.2736 -0.6880  0.4075
   92SOL    HW1  366   1.530   0.880   0.510 -1.7309 -1.3088 -0.4968
   92SOL    HW2  367   1.652   0.795   0.440  0.1084  0.8953 -1.5577
   92SOL     MW  368   1.620   0.863   0.489 -0.4155 -0.5610  0.0289
   93SOL     OW  369   1.008   0.324   0.376 -0.0188  0.0195  0.2133
   93SOL    HW1  370   0.985   0.417   0.385 -1.4115  0.6889  1.7382
   93SOL    HW2  371   1.049   0.312   0.289  0.6764  1.4075 -1.3531
   93SOL     MW  372   1.011   0.335   0.366 -0.1108  0.2910  0.2078
   94SOL     OW  373   1.885   1.368   1.611 -0.3423  0.3446  0.2935
   94SOL    HW1  374   1.872   1.359   1.520 -0.1919  1.0179  0.3641
   94SOL    HW2  375   1.859   1.283   1.647 -0.1377 -1.1725  3.4040
   94SOL     MW  376   1.880   1.355   1.603 -0.2954  0.2333  0.7132
   95SOL     OW  377   0.713   1.504   0.990  0.4677  0.0075 -0.1846
   95SOL    HW1  378   0.785   1.438   0.993 -0.2854  1.6609  2.5703
   95SOL    HW2  379   0.643   1.457   0.946 -1.3450  0.1166  2.4283
   95SOL     MW  380   0.713   1.489   0.985  0.1291  0.2400  0.5236
   96SOL     OW  381   1.234   1.828   1.595  0.2232  0.9408  1.1275
   96SOL    HW1  382   1.176   1.817   1.671  3.2907 -0.5085 -2.2090
   96SOL    HW2  383   1.266   1.744   1.569 -1.0310 -1.7219  0.5130
   96SOL     MW  384   1.231   1.815   1.602  0.4625  0.3983  0.6062
   97SOL     OW  385   1.265   1.460   0.822  0.4741 -0.5422  0.1388
   97SOL    HW1  386   1.272   1.493   0.909  1.6074 -0.7902 -0.6079
   97SOL    HW2  387   1.181   1.502   0.794  0.3023  1.5007  0.5592
   97SOL     MW  388   1.255   1.470   0.830  0.6010 -0.3054  0.0957
   98SOL     OW  389   1.479   1.311   1.055 -0.1396  0.0793  0.1344
   98SOL    HW1  390   1.494   1.380   1.115  0.2254 -2.0031 -1.8505
   98SOL    HW2  391   1.526   1.330   0.976 -0.1442 -0.2852 -0.0341
   98SOL     MW  392   1.487   1.322   1.053 -0.0920 -0.2435 -0.1497
   99SOL     OW  393   1.393   0.382   1.327 -0.6216  0.0011  0.6182
   99SOL    HW1  394   1.423   0.460   1.278 -0.9777 -0.3140  1.1359
   99SOL    HW2  395   1.430   0.387   1.416  0.2296 -1.5632 -1.7765
   99SOL     MW  396   1.402   0.393   1.332 -0.5563 -0.2468  0.3706
  100SOL     OW  397   1.037   1.142   1.410 -0.1949  0.5362 -0.9226
  100SOL    HW1  398   1.065   1.195   1.485  0.3643 -1.8117 -0.4325
  100SOL    HW2  399   1.055   1.048   1.434 -0.5723 -1.8756 -0.2620
  100SOL     MW  400   1.043   1.136   1.423 -0.1709 -0.0918 -0.7708
  101SOL     OW  401   0.540   1.073   0.272 -0.3665 -0.0642  0.1671
  101SOL    HW1  402   0.544   0.996   0.330 -2.1489  0.8282 -0.9041
  101SOL    HW2  403   0.512   1.040   0.188  0.4165  0.1050  4.9148
  101SOL     MW  404   0.537   1.058   0.268 -0.4984  0.0759  0.6522
  102SOL     OW  405   2.951   0.636   0.969  0.0088 -0.6592  0.8272
  102SOL    HW1  406   2.982   0.724   1.013  0.4023  0.3395 -0.4165
  102SOL    HW2  407   2.995   0.561   1.018 -1.3125 -0.4220  0.3946
  102SOL     MW  408   2.961   0.638   0.981 -0.1136 -0.4961  0.6060
  103SOL     OW  409   1.757   0.383   1.838  0.5321 -0.4434  0.0125
  103SOL    HW1  410   1.684   0.331   1.822 -0.0963  0.9925  1.4923
  103SOL    HW2  411   1.805   0.342   1.907 -2.6898  1.4634 -2.4144
  103SOL     MW  412   1.754   0.371   1.845  0.0241 -0.0024 -0.1124
  104SOL     OW  413   0.161   1.769   1.518  0.0112 -0.2961  0.2746
  104SOL    HW1  414   0.117   1.720   1.578  0.6942 -2.2190  2.3037
  104SOL    HW2  415   0.139   1.713   1.443 -1.4671 -1.0763  2.0425
  104SOL     MW  416   0.152   1.755   1.516 -0.0937 -0.6527  0.7756
  105SOL     OW  417   0.029   1.160   0.491  0.0009  0.0085  0.3785
  105SOL    HW1  418   0.065   1.091   0.436 -3.1421  0.8038 -1.6188
  105SOL    HW2  419   0.102   1.217   0.514  1.5022  1.3776 -3.2560
  105SOL     MW  420   0.043   1.158   0.487 -0.2157  0.2941 -0.3646
  106SOL     OW  421   0.869   0.389   1.025  0.1693 -0.3255  0.4581
  106SOL    HW1  422   0.807   0.445   0.975 -0.0261  2.2127 -0.3997
  106SOL    HW2  423   0.908   0.327   0.965  0.2391 -1.8020  1.8023
  106SOL     MW  424   0.866   0.388   1.011  0.1528 -0.1854  0.5222
  107SOL     OW  425   0.782   2.157   3.001 -0.7429  0.0530 -0.0676
  107SOL    HW1  426   0.727   2.118   2.933  1.6732  1.6938  0.2223
  107SOL    HW2  427   0.766   2.122   3.087 -0.8921 -4.2148 -1.9580
  107SOL     MW  428   0.773   2.147   3.003 -0.4438 -0.2936 -0.2787
  108SOL     OW  429   1.336   1.552   1.493 -0.4431 -0.5157  0.1789
  108SOL    HW1  430   1.310   1.490   1.432  1.0886 -0.9916  1.6056
  108SOL    HW2  431   1.382   1.499   1.566  0.6216 -0.2378  2.3752
  108SOL     MW  432   1.339   1.537   1.495 -0.1005 -0.5419  0.6569
  109SOL     OW  433   2.000   0.755   0.179 -0.0332  0.0808 -0.0635
  109SOL    HW1  434   2.043   0.831   0.153  1.3122  0.1734 -2.7874
  109SOL    HW2  435   2.002   0.767   0.271 -0.8491  0.7645 -1.3653
  109SOL     MW  436   2.006   0.767   0.187  0.0367  0.1832 -0.5947
  110SOL     OW  437   0.469   1.909   0.780 -0.7722  0.4019  0.1994
  110SOL    HW1  438   0.520   1.844   0.724 -0.0086  2.1892  0.3025
  110SOL    HW2  439   0.470   1.993   0.729 -0.9016 -3.6761 -0.2289
  110SOL     MW  440   0.476   1.911   0.766 -0.6886  0.0997  0.1564
  111SOL     OW  441   0.759   0.943   1.535 -0.1369  0.2275  0.3394
  111SOL    HW1  442   0.744   0.939   1.439  0.9278  0.7073  0.1843
  111SOL    HW2  443   0.685   0.897   1.576  0.9637  0.5772  0.1959
  111SOL     MW  444   0.747   0.936   1.528  0.1488  0.3369  0.3000
  112SOL     OW  445   1.332   1.069   1.615  0.6889 -0.2045 -0.5555
  112SOL    HW1  446   1.280   1.144   1.645 -0.5285  0.2118 -0.3291
  112SOL    HW2  447   1.272   0.998   1.625 -0.0355 -0.8335  0.0057
  112SOL     MW  448   1.317   1.070   1.620  0.4327 -0.2325 -0.4516
  113SOL     OW  449   1.268   0.028   1.748  0.1034  0.2399 -0.1709
  113SOL    HW1  450   1.244  -0.021   1.825 -2.0146  0.7809 -0.8648
  113SOL    HW2  451   1.268  -0.034   1.671  1.9951  1.7255  0.4346
  113SOL     MW  452   1.265   0.014   1.748  0.0735  0.5073 -0.1826
  114SOL     OW  453   0.416   2.849   1.937 -0.9155  0.2314  0.0682
  114SOL    HW1  454   0.399   2.924   1.994 -1.3400  0.3150 -0.0520
  114SOL    HW2  455   0.409   2.874   1.843  0.2193 -2.2368 -3.6023
  114SOL     MW  456   0.413   2.862   1.932 -0.8218 -0.0833 -0.4319
  115SOL     OW  457   0.480   0.822   1.101 -0.1860 -0.3934 -0.3418
  115SOL    HW1  458   0.511   0.733   1.121  1.7096  1.5870  3.5732
  115SOL    HW2  459   0.441   0.858   1.181  3.8193  0.0867  0.9623
  115SOL     MW  460   0.479   0.815   1.114  0.5926 -0.0688  0.3468
  116SOL     OW  461   0.784   1.002   0.994  0.2819  0.1326 -0.0797
  116SOL    HW1  462   0.840   1.050   0.928  0.8133  3.5673 -0.2047
  116SOL    HW2  463   0.812   1.040   1.079  0.4044  2.1783  1.6384
  116SOL     MW  464   0.795   1.014   0.997  0.3682  0.8556  0.1305
  117SOL     OW  465   1.182   1.190   0.753 -0.5223  0.0592 -0.4421
  117SOL    HW1  466   1.187   1.131   0.829  2.4662  3.0360 -0.5181
  117SOL    HW2  467   1.213   1.279   0.783 -1.3891  3.3363 -0.2664
  117SOL     MW  468   1.186   1.194   0.767 -0.2424  0.8843 -0.4290
  118SOL     OW  469   3.028   2.915   1.697 -0.3329  0.2295  0.1220
  118SOL    HW1  470   3.072   2.967   1.765  1.2172  2.3641 -1.5913
  118SOL    HW2  471   2.945   2.960   1.691  2.5897 -1.4469 -1.4720
  118SOL     MW  472   3.023   2.928   1.705  0.2572  0.2900 -0.3144
  119SOL     OW  473   0.458   1.422   1.222 -0.4673 -0.2789  0.0932
  119SOL    HW1  474   0.480   1.401   1.128 -1.3586 -0.0929 -0.2862
  119SOL    HW2  475   0.368   1.404   1.234  2.1290  1.4739  0.4952
  119SOL     MW  476   0.449   1.417   1.211 -0.2423 -0.0231  0.0962
  120SOL     OW  477   0.270   0.693   1.007  0.8346  0.4970 -0.2772
  120SOL    HW1  478   0.257   0.614   1.062  0.5969  1.0983 -1.6487
  120SOL    HW2  479   0.342   0.743   1.043  1.8191 -0.4249 -0.6497
  120SOL     MW  480   0.278   0.689   1.019  0.9331  0.4547 -0.5073
  121SOL     OW  481   1.806   1.120   1.701 -0.0850  1.1733  0.5126
  121SOL    HW1  482   1.722   1.082   1.720  0.2304  1.6418 -0.8799
  121SOL    HW2  483   1.837   1.071   1.620  1.0286  0.0042  0.9509
  121SOL     MW  484   1.799   1.109   1.693  0.1036  1.0809  0.3867
  122SOL     OW  485   0.141   0.596   0.795  0.3680  0.4508 -0.1015
  122SOL    HW1  486   0.208   0.592   0.726  0.6010 -0.8200  1.0001
  122SOL    HW2  487   0.183   0.649   0.861 -3.2438 -0.1514  0.4953
  122SOL     MW  488   0.155   0.602   0.795 -0.0778  0.2037  0.1226
  123SOL     OW  489   1.804   1.095   0.557 -0.0002 -0.2662  1.0462
  123SOL    HW1  490   1.736   1.027   0.540  2.5650 -0.4873 -1.5382
  123SOL    HW2  491   1.829   1.088   0.648  0.3918  1.2689  2.7207
  123SOL     MW  492   1.798   1.085   0.566  0.3900 -0.0928  0.9262
  124SOL     OW  493   0.671   0.544   0.937 -0.4713 -0.8391 -0.2511
  124SOL    HW1  494   0.611   0.501   0.870 -0.8948 -1.1901 -2.0619
  124SOL    HW2  495   0.686   0.630   0.886  0.1909 -0.1774 -1.5771
  124SOL     MW  496   0.665   0.550   0.921 -0.4398 -0.7981 -0.6649
  125SOL     OW  497   0.701   1.765   1.698 -0.1173 -0.1631  0.3274
  125SOL    HW1  498   0.653   1.689   1.657 -0.0825 -1.9571  0.2908
  125SOL    HW2  499   0.650   1.849   1.685  0.7090 -3.2432 -2.4229
  125SOL     MW  500   0.688   1.766   1.691 -0.0037 -0.8062 -0.0403
  126SOL     OW  501   2.117   1.634   1.947  0.6299 -0.3727 -0.1738
  126SOL    HW1  502   2.193   1.690   1.916  0.2367  0.0025 -0.1797
  126SOL    HW2  503   2.159   1.554   1.980 -0.1115 -2.5648 -1.7383
  126SOL     MW  504   2.133   1.631   1.947  0.4802 -0.6125 -0.3810
  127SOL     OW  505   0.678   0.757   1.873  0.4042 -0.0903 -0.1615
  127SOL    HW1  506   0.768   0.725   1.907 -0.9872 -0.0905  0.1012
  127SOL    HW2  507   0.677   0.846   1.900  1.7693 -1.2339  2.2784
  127SOL     MW  508   0.690   0.764   1.881  0.4007 -0.2412  0.1951
  128SOL     OW  509   1.834   0.790   2.868 -0.1609  0.3048  0.6453
  128SOL    HW1  510   1.798   0.750   2.786 -0.9936 -2.4017  2.4811
  128SOL    HW2  511   1.785   0.873   2.877  1.3844 -1.3499  0.8318
  128SOL     MW  512   1.823   0.796   2.858 -0.0669 -0.2707  0.9121
  129SOL     OW  513   1.605   0.922   0.182  0.4049  0.3096 -0.4835
  129SOL    HW1  514   1.529   0.861   0.196 -2.2280 -0.5827  0.7241
  129SOL    HW2  515   1.659   0.905   0.256  2.1045 -1.7765 -0.0485
  129SOL     MW  516   1.602   0.912   0.193  0.2818 -0.0834 -0.2668
  130SOL     OW  517   0.793   1.407   0.400 -0.2794 -0.1308 -0.1668
  130SOL    HW1  518   0.851   1.414   0.467 -3.8739 -1.8151  0.8077
  130SOL    HW2  519   0.839   1.443   0.324 -0.1420 -3.7940  0.0333
  130SOL     MW  520   0.807   1.412   0.399 -0.7356 -0.8363 -0.0118
  131SOL     OW  521   3.012   0.835   3.070  0.2351  0.2264 -0.7310
  131SOL    HW1  522   3.016   0.879   2.988  0.0492  0.5534 -0.3268
  131SOL    HW2  523   3.110   0.841   3.095 -0.8094 -3.2126 -0.0794
  131SOL     MW  524   3.026   0.841   3.063  0.0728 -0.1842 -0.5917
  132SOL     OW  525   2.784   0.134   1.215 -0.8090 -0.1296 -0.0743
  132SOL    HW1  526   2.812   0.141   1.125 -3.1355 -0.3336  1.0978
  132SOL    HW2  527   2.692   0.115   1.197 -0.1392  1.4076 -0.5712
  132SOL     MW  528   2.775   0.132   1.201 -1.0276  0.0463  0.0148
  133SOL     OW  529   1.052   0.170   1.722 -0.4763 -0.0898  0.5582
  133SOL    HW1  530   1.136   0.122   1.731 -1.2860 -0.6715 -1.8078
  133SOL    HW2  531   1.037   0.204   1.811 -0.2030 -1.3808  0.5636
  133SOL     MW  532   1.061   0.168   1.735 -0.5471 -0.3369  0.2468
  134SOL     OW  533   1.422   2.525   1.428 -0.1577  0.0668 -0.0621
  134SOL    HW1  534   1.355   2.592   1.400 -0.7960  1.7094 -1.6126
  134SOL    HW2  535   1.457   2.557   1.510 -0.5634  0.3588 -0.7737
  134SOL     MW  536   1.418   2.538   1.435 -0.2955  0.3220 -0.3606
  135SOL     OW  537   3.041   1.032   2.842  0.5585 -0.3282 -0.6395
  135SOL    HW1  538   3.108   1.101   2.878 -0.2162  4.2271  3.3443
  135SOL    HW2  539   2.960   1.060   2.885 -0.7360 -1.2859  0.7882
  135SOL     MW  540   3.039   1.045   2.852  0.2855  0.1465  0.0745
  136SOL     OW  541   0.259   2.054   0.881  0.1390 -0.0573  0.1406
  136SOL    HW1  542   0.169   2.025   0.856  2.0790  0.8620  2.5876
  136SOL    HW2  543   0.326   2.000   0.837  2.1833 -2.5725  1.2083
  136SOL     MW  544   0.256   2.043   0.872  0.6647 -0.2678  0.6044
  137SOL     OW  545   0.715   2.060   0.530 -0.3496  0.3423  0.2714
  137SOL    HW1  546   0.760   2.058   0.616 -0.2653  2.9667 -1.8011
  137SOL    HW2  547   0.622   2.084   0.558  0.1215  1.3611 -1.1905
  137SOL     MW  548   0.709   2.063   0.545 -0.2763  0.8229 -0.1949
  138SOL     OW  549   0.517   0.526   1.162 -0.2687 -0.5609 -0.4844
  138SOL    HW1  550   0.441   0.465   1.132 -1.3408  2.4855  0.2674
  138SOL    HW2  551   0.566   0.532   1.083 -1.2622  3.3150  0.4453
  138SOL     MW  552   0.513   0.518   1.147 -0.5412  0.3524 -0.2626
  139SOL     OW  553   2.698   0.563   1.378  1.0027  0.0764  0.0858
  139SOL    HW1  554   2.756   0.487   1.374 -0.7206  3.8831  0.2360
  139SOL    HW2  555   2.734   0.627   1.441  2.2277  1.2911  0.2408
  139SOL     MW  556   2.710   0.562   1.386  0.9369  0.7390  0.1260
  140SOL     OW  557   0.845   0.377   2.074 -0.1075 -0.1204 -0.3946
  140SOL    HW1  558   0.896   0.301   2.041  0.1815 -0.4913  0.7386
  140SOL    HW2  559   0.869   0.395   2.167 -0.3040  1.0194  0.6378
  140SOL     MW  560   0.855   0.369   2.082 -0.0953 -0.0190 -0.1088
  141SOL     OW  561   1.084   0.551   1.791  0.6500 -0.0140 -0.1513
  141SOL    HW1  562   1.126   0.490   1.730 -0.1483  2.5130  2.0388
  141SOL    HW2  563   1.124   0.638   1.780 -3.1240 -0.1768  1.3335
  141SOL     MW  564   1.095   0.554   1.781  0.0467  0.2979  0.3336
  142SOL     OW  565   0.896   1.126   0.796 -0.6116 -0.3686  0.8159
  142SOL    HW1  566   0.887   1.083   0.711 -1.3577 -0.0300  1.1428
  142SOL    HW2  567   0.986   1.169   0.791  0.9219  1.0598 -1.4597
  142SOL     MW  568   0.907   1.126   0.784 -0.5077 -0.1355  0.5588
  143SOL     OW  569   1.758   0.790   1.106 -0.2315  0.2570 -0.1386
  143SOL    HW1  570   1.816   0.771   1.033 -1.8355 -2.0978 -0.0151
  143SOL    HW2  571   1.668   0.763   1.075 -0.2311  1.6892  0.8718
  143SOL     MW  572   1.754   0.784   1.092 -0.4431  0.1353  0.0110
  144SOL     OW  573   0.198   1.236   1.531  0.2775  0.4002 -0.3776
  144SOL    HW1  574   0.290   1.239   1.513 -0.8498 -0.1976  1.1958
  144SOL    HW2  575   0.190   1.239   1.631 -1.3595 -1.0316  0.1857
  144SOL     MW  576   0.209   1.237   1.542 -0.0873  0.1324 -0.0957
  145SOL     OW  577   0.288   0.399   1.057  0.4351 -0.2529  0.6674
  145SOL    HW1  578   0.307   0.339   1.132 -0.1667  1.7945 -1.1475
  145SOL    HW2  579   0.241   0.338   0.990 -5.3177 -1.2776 -1.9716
  145SOL     MW  580   0.284   0.383   1.058 -0.4033 -0.1179  0.0797
  146SOL     OW  581   0.846   1.959   1.356 -0.0287  0.0836 -0.5528
  146SOL    HW1  582   0.896   1.960   1.269 -2.4174  1.3400  0.8741
  146SOL    HW2  583   0.751   1.943   1.335  3.3694  1.3848 -0.4278
  146SOL     MW  584   0.840   1.957   1.342  0.1045  0.4210 -0.3480
  147SOL     OW  585   0.379   0.395   2.989  0.0925  0.0818  0.3858
  147SOL    HW1  586   0.299   0.419   3.034  0.3249  1.1816  1.8445
  147SOL    HW2  587   0.379   0.447   2.907  0.2131 -1.2878  0.6053
  147SOL     MW  588   0.368   0.405   2.984  0.1391  0.0462  0.6073
  148SOL     OW  589   0.103   0.887   1.322 -0.2150  0.3861 -0.5530
  148SOL    HW1  590   0.189   0.915   1.311 -1.7311 -1.3747  0.9130
  148SOL    HW2  591   0.079   0.909   1.417 -0.4196  0.6180  0.9569
  148SOL     MW  592   0.111   0.893   1.333 -0.4420  0.1844 -0.1603
  149SOL     OW  593   1.380   1.161   1.377 -0.0682  0.1948 -0.6738
  149SOL    HW1  594   1.343   1.142   1.468 -3.0631 -0.9033 -3.0505
  149SOL    HW2  595   1.460   1.211   1.386 -0.3485  1.3902 -0.0650
  149SOL     MW  596   1.386   1.165   1.391 -0.5003  0.2076 -0.9071
  150SOL     OW  597   1.856   1.373   0.732  0.1449  0.4017 -0.1683
  150SOL    HW1  598   1.895   1.288   0.747  1.0483 -0.5180 -1.6912
  150SOL    HW2  599   1.908   1.434   0.786  0.2047  1.0691  2.2153
  150SOL     MW  600   1.868   1.370   0.741  0.2720  0.3685 -0.0548
  151SOL     OW  601   1.640   1.862   0.836 -0.2313 -0.1705  0.1451
  151SOL    HW1  602   1.607   1.887   0.749 -3.1334 -1.0728  0.2176
  151SOL    HW2  603   1.581   1.809   0.880 -0.8019 -1.7424 -1.2821
  151SOL     MW  604   1.628   1.858   0.831 -0.6895 -0.4969 -0.0337
  152SOL     OW  605   0.729   1.330   1.467  0.1100  0.5402  0.4597
  152SOL    HW1  606   0.726   1.260   1.528 -2.6909  1.5504 -0.7762
  152SOL    HW2  607   0.821   1.352   1.456 -1.0498  0.5611  0.0547
  152SOL     MW  608   0.741   1.324   1.474 -0.4126  0.6763  0.2432
  153SOL     OW  609   2.639   1.258   0.761 -0.1622 -0.2427 -0.2349
  153SOL    HW1  610   2.704   1.217   0.694 -0.3452 -3.5049  0.9865
  153SOL    HW2  611   2.560   1.205   0.764  0.4055 -0.3201 -0.8690
  153SOL     MW  612   2.637   1.245   0.752 -0.1114 -0.6833 -0.1574
  154SOL     OW  613   0.388   1.744   1.735 -0.0328  0.0059  0.2039
  154SOL    HW1  614   0.378   1.745   1.641 -0.6679 -1.0808 -0.8384
  154SOL    HW2  615   0.379   1.657   1.765 -0.5750  2.2950  0.6680
  154SOL     MW  616   0.386   1.733   1.726 -0.1882  0.1645  0.1276
  155SOL     OW  617   1.163   0.690   0.298  0.3192 -0.0096  0.6521
  155SOL    HW1  618   1.152   0.640   0.385  1.1896 -0.5564  1.2242
  155SOL    HW2  619   1.119   0.771   0.308 -0.1173 -0.5648 -0.4363
  155SOL     MW  620   1.156   0.694   0.311  0.3764 -0.1550  0.5840
  156SOL     OW  621   1.597   3.007   1.049 -0.0253  0.2518 -0.6049
  156SOL    HW1  622   1.614   3.085   1.105 -0.3809 -0.3558 -2.1298
  156SOL    HW2  623   1.576   2.936   1.104 -1.3880  0.4812 -2.0572
  156SOL     MW  624   1.597   3.008   1.064 -0.2520  0.2019 -0.9977
  157SOL     OW  625   1.415   1.140   0.123  0.5687 -0.0804 -0.0387
  157SOL    HW1  626   1.454   1.061   0.150 -3.0191  1.6496  1.1132
  157SOL    HW2  627   1.490   1.194   0.106 -0.5430 -0.2936  0.1535
  157SOL     MW  628   1.430   1.136   0.124 -0.0513  0.1197  0.1386
  158SOL     OW  629   0.441   1.637   2.230 -0.2246 -0.6265 -0.2040
  158SOL    HW1  630   0.430   1.673   2.145  1.2014 -0.5208 -0.7300
  158SOL    HW2  631   0.353   1.636   2.273 -1.6446  0.1964  0.6605
  158SOL     MW  632   0.428   1.642   2.224 -0.2238 -0.5039 -0.1593
  159SOL     OW  633   1.278   1.724   0.419 -0.6499  0.4527  0.2738
  159SOL    HW1  634   1.243   1.638   0.390  0.7468 -0.0793 -3.4131
  159SOL    HW2  635   1.219   1.761   0.493 -0.0111 -0.0435 -0.1777
  159SOL     MW  636   1.266   1.717   0.425 -0.3813  0.3171 -0.2723
  160SOL     OW  637   0.466   1.147   1.581  0.5388  0.2869  0.3741
  160SOL    HW1  638   0.486   1.057   1.590 -0.6650  0.8695  1.0192
  160SOL    HW2  639   0.483   1.177   1.666 -0.4987 -0.1907  0.9794
  160SOL     MW  640   0.471   1.139   1.593  0.2431  0.3007  0.5391
  161SOL     OW  641   0.517   2.179   2.580 -0.3999 -0.3603 -0.3602
  161SOL    HW1  642   0.429   2.177   2.543  1.6200 -0.7820 -2.0426
  161SOL    HW2  643   0.573   2.127   2.519 -1.0820  1.7721 -3.5248
  161SOL     MW  644   0.513   2.172   2.567 -0.2234 -0.1346 -0.9997
  162SOL     OW  645   1.061   1.763   1.819 -0.1003  0.4786  0.8503
  162SOL    HW1  646   1.057   1.860   1.846  1.5019  4.6139  0.6342
  162SOL    HW2  647   0.972   1.736   1.841  2.5225  1.0946  1.6085
  162SOL     MW  648   1.049   1.773   1.826  0.4571  1.1055  0.9218
  163SOL     OW  649   2.098   0.066   0.975  0.2254  0.0172  0.5649
  163SOL    HW1  650   2.092   0.103   0.892 -0.7936 -1.7438 -1.0491
  163SOL    HW2  651   2.013   0.028   0.993  0.4307  3.5250 -0.6831
  163SOL     MW  652   2.086   0.066   0.967  0.1180  0.2477  0.1873
  164SOL     OW  653   0.337   0.211   0.792  0.2009 -0.0459  0.1963
  164SOL    HW1  654   0.243   0.217   0.809  0.7283  0.0972 -0.8807
  164SOL    HW2  655   0.338   0.122   0.760  1.1699 -1.6572  0.7203
  164SOL     MW  656   0.325   0.200   0.790  0.3983 -0.2396  0.1234
  165SOL     OW  657   1.327   1.246   0.371 -0.0344 -0.2735  0.1124
  165SOL    HW1  658   1.262   1.183   0.399  2.1627 -1.0757 -3.7031
  165SOL    HW2  659   1.350   1.231   0.277  0.2124 -0.5974 -3.5657
  165SOL     MW  660   1.321   1.236   0.362  0.2880 -0.4221 -0.8763
  166SOL     OW  661   0.510   1.068   0.979  0.0679  0.5467  0.3885
  166SOL    HW1  662   0.465   0.994   1.016  1.2019 -0.8318 -1.6592
  166SOL    HW2  663   0.603   1.042   0.994 -0.8577 -0.5831  0.3048
  166SOL     MW  664   0.516   1.055   0.985  0.0954  0.2157  0.1072
  167SOL     OW  665   0.803   1.092   0.237 -0.4459 -0.6760 -0.1175
  167SOL    HW1  666   0.706   1.103   0.242  3.1619  2.2443  1.2493
  167SOL    HW2  667   0.835   1.123   0.149  1.3675 -0.1913 -0.6443
  167SOL     MW  668   0.794   1.098   0.226  0.2694 -0.2268 -0.0067
  168SOL     OW  669   1.647   1.677   2.927 -0.0166 -0.4793  0.2226
  168SOL    HW1  670   1.554   1.658   2.941  0.3030 -0.7344  1.3664
  168SOL    HW2  671   1.692   1.591   2.935 -1.6415  1.1857  1.6129
  168SOL     MW  672   1.641   1.663   2.930 -0.1888 -0.2933  0.5570
  169SOL     OW  673   0.375   0.961   1.321 -0.0007 -0.3944  0.6201
  169SOL    HW1  674   0.409   0.911   1.394  2.6891  0.1975  1.5481
  169SOL    HW2  675   0.429   1.047   1.319 -1.3360  1.2410  0.6434
  169SOL     MW  676   0.386   0.966   1.331  0.1780 -0.1005  0.7456
  170SOL     OW  677   0.994   1.444   1.498  0.1402 -0.1019  0.1700
  170SOL    HW1  678   0.939   1.526   1.502  0.1642 -0.2157 -0.0155
  170SOL    HW2  679   1.047   1.448   1.410 -2.9524 -2.0586  0.3030
  170SOL     MW  680   0.993   1.455   1.487 -0.2647 -0.3751  0.1631
  171SOL     OW  681   0.592   1.444   0.649 -0.3906 -0.1235 -0.1211
  171SOL    HW1  682   0.574   1.427   0.746  0.4262 -1.2129  0.5166
  171SOL    HW2  683   0.572   1.357   0.611  0.2222  0.1437 -0.2362
  171SOL     MW  684   0.587   1.430   0.656 -0.2020 -0.2320 -0.0522
  172SOL     OW  685   0.842   0.309   1.283 -0.2403 -0.9587  0.5035
  172SOL    HW1  686   0.849   0.335   1.187  0.2556 -0.3350 -0.5883
  172SOL    HW2  687   0.748   0.330   1.305  1.0973  4.3512 -0.6716
  172SOL     MW  688   0.830   0.315   1.273  0.0016 -0.1758  0.2044
  173SOL     OW  689   0.465   1.649   0.387 -0.4668 -0.0702 -0.2119
  173SOL    HW1  690   0.434   1.555   0.399  0.9746 -0.2365 -3.9876
  173SOL    HW2  691   0.530   1.665   0.455  0.0791 -0.0126 -0.0888
  173SOL     MW  692   0.470   1.639   0.397 -0.2046 -0.0845 -0.6938
  174SOL     OW  693   1.914   0.991   1.486 -0.5805  0.1658  0.0416
  174SOL    HW1  694   1.876   0.899   1.506 -2.7630 -3.2931 -1.7840
  174SOL    HW2  695   1.877   0.995   1.395  0.6131 -1.0659  0.5187
  174SOL     MW  696   1.904   0.979   1.477 -0.7110 -0.4531 -0.1363
  175SOL     OW  697   0.465   1.374   0.333 -0.2695  0.1451  0.2822
  175SOL    HW1  698   0.454   1.355   0.243  0.6544 -0.7767  1.2974
  175SOL    HW2  699   0.562   1.394   0.336  4.1536 -0.8378 -0.9469
  175SOL     MW  700   0.476   1.374   0.322  0.4360 -0.1062  0.2540
  176SOL     OW  701   0.185   1.358   1.238  0.5707  0.4415 -0.4488
  176SOL    HW1  702   0.141   1.331   1.157 -0.5018 -1.8977  2.3380
  176SOL    HW2  703   0.144   1.316   1.313 -1.2973 -2.1146  0.3804
  176SOL     MW  704   0.174   1.349   1.237  0.1828 -0.2043  0.0283
  177SOL     OW  705   0.562   0.333   1.335  0.2636  0.7123 -0.0801
  177SOL    HW1  706   0.556   0.404   1.266 -1.6445 -1.3348  0.2251
  177SOL    HW2  707   0.587   0.371   1.419 -0.9642 -1.4839 -1.7801
  177SOL     MW  708   0.565   0.348   1.337 -0.1501  0.1524 -0.2642
  178SOL     OW  709   3.054   0.391   2.893  0.1325  0.1766 -0.0813
  178SOL    HW1  710   3.013   0.437   2.967  2.5692 -0.4988 -1.4058
  178SOL    HW2  711   2.999   0.417   2.816 -0.6745 -1.5191 -1.3506
  178SOL     MW  712   3.041   0.401   2.892  0.3476 -0.1362 -0.4236
  179SOL     OW  713   1.590   1.362   1.427 -0.3910 -0.0486 -0.5207
  179SOL    HW1  714   1.600   1.384   1.519  2.6340 -0.4518 -0.3146
  179SOL    HW2  715   1.678   1.374   1.389 -3.2841 -1.5572 -1.6848
  179SOL     MW  716   1.603   1.367   1.434 -0.3736 -0.3009 -0.6471
  180SOL     OW  717   2.977   0.201   0.461  0.2571 -0.0326  0.2753
  180SOL    HW1  718   2.913   0.186   0.387  0.5888 -2.0915 -2.2294
  180SOL    HW2  719   3.024   0.282   0.427  0.4437 -1.5060 -1.7913
  180SOL     MW  720   2.975   0.209   0.447  0.3255 -0.4986 -0.3279
  181SOL     OW  721   1.164   1.359   3.046 -0.1285 -0.7660 -0.1809
  181SOL    HW1  722   1.228   1.404   3.101  1.4354  1.3527 -0.1319
  181SOL    HW2  723   1.213   1.278   3.017  0.9177 -1.2824  4.0409
  181SOL     MW  724   1.179   1.355   3.050  0.2159 -0.5546  0.3826
  182SOL     OW  725   0.503   0.871   1.669  0.3160  0.3201 -0.0832
  182SOL    HW1  726   0.421   0.857   1.722 -0.5446  1.6096  0.8736
  182SOL    HW2  727   0.558   0.814   1.719  0.1115 -0.0692 -2.5792
  182SOL     MW  728   0.499   0.862   1.683  0.1754  0.4389 -0.2863
  183SOL     OW  729   1.503   1.513   1.231  0.1660  0.6205 -0.6158
  183SOL    HW1  730   1.443   1.572   1.275 -1.3468 -1.0220  0.3582
  183SOL    HW2  731   1.546   1.459   1.306  1.7289 -0.9848  0.8645
  183SOL     MW  732   1.500   1.514   1.246  0.1726  0.1920 -0.2920
  184SOL     OW  733   0.892   0.617   1.962 -0.5270 -0.1275  0.2909
  184SOL    HW1  734   0.957   0.597   1.893 -0.3043  0.5334  0.8053
  184SOL    HW2  735   0.890   0.538   2.020 -1.3711 -2.1499  1.6089
  184SOL     MW  736   0.901   0.604   1.961 -0.6090 -0.3071  0.5326
  185SOL     OW  737   1.177   0.960   1.941  0.2655 -0.3488 -0.3637
  185SOL    HW1  738   1.175   0.877   1.992  3.7052  0.2818  3.2433
  185SOL    HW2  739   1.206   1.024   2.002  1.9243  3.3769 -1.9878
  185SOL     MW  740   1.180   0.958   1.956  0.9382  0.2260 -0.1021
  186SOL     OW  741   0.414   1.637   1.423 -0.5703  0.2305  0.0308
  186SOL    HW1  742   0.486   1.631   1.361 -1.9749 -0.9310 -1.9135
  186SOL    HW2  743   0.335   1.604   1.372 -1.9582  1.2007  2.4654
  186SOL     MW  744   0.413   1.632   1.408 -0.9387  0.2053  0.0955
  187SOL     OW  745   1.439   0.750   1.438 -0.3402 -0.5295 -0.3847
  187SOL    HW1  746   1.431   0.727   1.531  1.1390 -1.1214 -0.9086
  187SOL    HW2  747   1.349   0.738   1.408 -0.3652  0.2088  1.4494
  187SOL     MW  748   1.426   0.745   1.447 -0.1483 -0.5102 -0.2118
  188SOL     OW  749   1.911   1.114   0.811  0.3403  0.5600  0.5068
  188SOL    HW1  750   1.904   1.113   0.902  1.3636 -0.2903 -2.3549
  188SOL    HW2  751   2.000   1.082   0.798 -0.0408 -0.6558  0.5123
  188SOL     MW  752   1.922   1.109   0.821  0.4251  0.2874  0.1300
  189SOL     OW  753   0.728   0.779   0.798 -0.1140  0.4338 -0.0096
  189SOL    HW1  754   0.642   0.821   0.775  1.8968  3.0971 -0.9340
  189SOL    HW2  755   0.757   0.833   0.868 -3.9604  0.2333 -0.0697
  189SOL     MW  756   0.721   0.792   0.804 -0.3562  0.7587 -0.1395
  190SOL     OW  757   1.856   0.198   2.026  0.1834  0.8281 -0.2166
  190SOL    HW1  758   1.817   0.111   2.013 -3.7915 -0.2363  2.6235
  190SOL    HW2  759   1.948   0.183   2.018 -1.3478 -2.0964  0.3570
  190SOL     MW  760   1.863   0.184   2.023 -0.5431  0.3018  0.2338
  191SOL     OW  761   1.464   0.962   1.236  0.2557 -0.2561 -0.2199
  191SOL    HW1  762   1.415   1.010   1.305  0.2566  0.0200 -0.4111
  191SOL    HW2  763   1.472   0.874   1.274  1.7552  1.1010  2.0764
  191SOL     MW  764   1.458   0.957   1.250  0.4537 -0.0406  0.0578
  192SOL     OW  765   0.602   2.037   2.820 -0.4817  0.1370 -0.0965
  192SOL    HW1  766   0.563   2.077   2.746  1.9285 -2.9349  2.8136
  192SOL    HW2  767   0.593   1.942   2.810 -0.7698 -0.9150 -0.0026
  192SOL     MW  768   0.595   2.030   2.809 -0.2017 -0.4071  0.2998
  193SOL     OW  769   1.022   1.585   0.723  0.4523 -0.3416  0.2448
  193SOL    HW1  770   1.007   1.615   0.812 -0.7206  5.4855  1.8704
  193SOL    HW2  771   0.976   1.498   0.711 -0.1085  0.7451  0.8957
  193SOL     MW  772   1.014   1.578   0.733  0.2235  0.5706  0.5451
  194SOL     OW  773   0.499   1.349   0.914 -0.3098  0.1125  0.1031
  194SOL    HW1  774   0.501   1.250   0.935  4.1401  2.3266 -1.4649
  194SOL    HW2  775   0.402   1.370   0.900 -1.1964 -1.1075 -0.5982
  194SOL     MW  776   0.486   1.339   0.915  0.1603  0.2437 -0.1963
  195SOL     OW  777   1.303   1.117   2.963 -0.0210  0.8412  0.3170
  195SOL    HW1  778   1.337   1.113   3.051 -2.8260 -0.8830 -1.8491
  195SOL    HW2  779   1.221   1.070   2.954 -0.7914 -0.7703 -1.6949
  195SOL     MW  780   1.297   1.110   2.973 -0.4928  0.4011 -0.2342
  196SOL     OW  781   2.180   1.038   0.637 -0.0153  0.6023 -0.1540
  196SOL    HW1  782   2.133   0.999   0.562 -1.5146  2.4922  0.5159
  196SOL    HW2  783   2.166   1.132   0.632 -0.3757  0.0417 -0.0314
  196SOL     MW  784   2.172   1.045   0.626 -0.2606  0.7777 -0.0494
  197SOL     OW  785   0.699   1.268   2.027 -0.1603 -0.2672 -0.2201
  197SOL    HW1  786   0.739   1.186   2.016  1.5983 -1.1732 -0.6881
  197SOL    HW2  787   0.660   1.291   1.943 -0.2492  0.5401 -1.4204
  197SOL     MW  788   0.699   1.260   2.015  0.0600 -0.2802 -0.4402
  198SOL     OW  789   2.963   1.428   1.060  0.4832  0.0186  0.4079
  198SOL    HW1  790   2.941   1.523   1.054  0.6211  0.8913  0.5809
  198SOL    HW2  791   2.880   1.374   1.064 -0.4176 -2.4860  1.8644
  198SOL     MW  792   2.949   1.433   1.060  0.3825 -0.1967  0.6229
  199SOL     OW  793   0.533   1.339   1.813  0.3668 -0.1045  0.5298
  199SOL    HW1  794   0.441   1.309   1.800  0.4210 -1.2512 -1.0171
  199SOL    HW2  795   0.557   1.401   1.740  1.0217 -1.1089 -1.7591
  199SOL     MW  796   0.524   1.343   1.802  0.4603 -0.3883  0.0237
  200SOL     OW  797   1.889   3.079   1.335 -0.3499  0.1308 -0.1920
  200SOL    HW1  798   1.870   3.053   1.243  0.6073  0.1858 -3.0567
  200SOL    HW2  799   1.807   3.106   1.382  0.3249 -0.8292  3.2293
  200SOL     MW  800   1.876   3.079   1.329 -0.1345  0.0114 -0.1186
  201SOL     OW  801   0.985   0.236   0.827 -0.4843 -0.2409  0.1863
  201SOL    HW1  802   0.981   0.143   0.801 -0.9207  0.4879 -1.0442
  201SOL    HW2  803   1.030   0.280   0.753 -1.3500  2.0711 -4.0027
  201SOL     MW  804   0.990   0.230   0.813 -0.6561  0.1603 -0.5287
  202SOL     OW  805   1.514   1.635   0.977 -0.3403 -0.1996 -0.3833
  202SOL    HW1  806   1.538   1.575   0.906  0.1135 -1.2764  2.3475
  202SOL    HW2  807   1.546   1.592   1.059  3.1403 -0.3739 -0.7854
  202SOL     MW  808   1.521   1.621   0.978  0.1788 -0.3646 -0.0761
  203SOL     OW  809  -0.005   0.449   1.152 -0.0707  0.5065  0.1915
  203SOL    HW1  810   0.057   0.419   1.086  0.7652 -1.6692 -0.9873
  203SOL    HW2  811   0.055   0.492   1.211 -0.0637  0.4178 -1.8158
  203SOL     MW  812   0.011   0.451   1.151  0.0405  0.2077 -0.2289
  204SOL     OW  813   1.064   1.803   0.572  0.0948 -0.0669  0.3069
  204SOL    HW1  814   1.074   1.727   0.636  0.1781 -0.3959  2.5101
  204SOL    HW2  815   0.975   1.794   0.532 -0.7451 -1.8327 -1.0717
  204SOL     MW  816   1.053   1.792   0.575 -0.0050 -0.3433  0.4157
  205SOL     OW  817   1.356   0.103   1.338 -0.0139 -0.0338  0.3294
  205SOL    HW1  818   1.304   0.079   1.259 -2.8517  0.8038  2.3540
  205SOL    HW2  819   1.384   0.196   1.316  0.0671 -0.5831 -1.6150
  205SOL     MW  820   1.353   0.112   1.325 -0.3776  0.0043  0.3399
  206SOL     OW  821   0.420   3.065   1.411  0.0597 -0.4441 -0.6085
  206SOL    HW1  822   0.357   3.065   1.340  0.6499  0.4996  2.7862
  206SOL    HW2  823   0.471   2.975   1.410 -1.2363  1.1123  0.2134
  206SOL     MW  824   0.418   3.053   1.401 -0.0334 -0.1142 -0.0522
  207SOL     OW  825   0.957   1.522   0.216  0.0969 -0.0738  0.0484
  207SOL    HW1  826   0.958   1.614   0.193  2.9168  0.2498  1.1144
  207SOL    HW2  827   1.043   1.497   0.239  1.7437 -2.2367 -1.6557
  207SOL     MW  828   0.968   1.531   0.216  0.6862 -0.3165 -0.0358
  208SOL     OW  829   0.672   1.618   1.339 -0.1308  0.1514  0.1330
  208SOL    HW1  830   0.748   1.661   1.388 -1.5446  0.8033  0.8752
  208SOL    HW2  831   0.700   1.535   1.304  1.8038  1.0332 -2.1797
  208SOL     MW  832   0.686   1.613   1.341 -0.0621  0.3538 -0.0742
  209SOL     OW  833   1.585   0.534   2.871  0.1135 -0.4548  0.2730
  209SOL    HW1  834   1.651   0.584   2.911 -0.2564  0.2072 -0.1892
  209SOL    HW2  835   1.623   0.447   2.856 -1.5164  3.3594  3.4977
  209SOL     MW  836   1.599   0.530   2.875 -0.1504  0.1358  0.6375
  210SOL     OW  837   1.608   1.406   0.831 -0.7658 -0.4073 -0.1377
  210SOL    HW1  838   1.702   1.393   0.807  1.3319  2.3754 -3.3546
  210SOL    HW2  839   1.554   1.400   0.752 -0.5795 -2.5904 -1.2113
  210SOL     MW  840   1.613   1.403   0.818 -0.4645 -0.3282 -0.7038
  211SOL     OW  841   1.650   0.405   0.972 -0.7328 -0.0559  0.2528
  211SOL    HW1  842   1.632   0.402   0.876  0.9011  0.3142 -2.5023
  211SOL    HW2  843   1.749   0.422   0.977 -0.4697  0.1825  1.5455
  211SOL     MW  844   1.661   0.407   0.960 -0.4825  0.0244  0.0599
  212SOL     OW  845   0.239   1.126   0.116 -0.7490 -0.0174  0.1279
  212SOL    HW1  846   0.184   1.104   0.193 -1.6472 -1.4759  0.6685
  212SOL    HW2  847   0.252   1.041   0.075 -0.6948  0.1864 -0.9492
  212SOL     MW  848   0.233   1.112   0.121 -0.8603 -0.1830  0.0571
  213SOL     OW  849   0.428   1.736   3.030  0.3088 -0.8260 -0.3100
  213SOL    HW1  850   0.477   1.771   3.107  1.5183 -2.3779  0.0725
  213SOL    HW2  851   0.484   1.759   2.952  2.0706  2.8701 -0.8023
  213SOL     MW  852   0.442   1.743   3.029  0.7008 -0.5431 -0.3245
  214SOL     OW  853   0.598   0.297   2.223  0.2013  0.1356  0.3511
  214SOL    HW1  854   0.524   0.355   2.200 -1.0411 -0.3065 -1.1043
  214SOL    HW2  855   0.651   0.297   2.140  1.2170 -2.0394 -4.5267
  214SOL     MW  856   0.595   0.305   2.209  0.1714 -0.2097 -0.4845
  215SOL     OW  857   0.485   0.652   2.643  0.5043 -0.2270  0.1383
  215SOL    HW1  858   0.472   0.623   2.553 -2.5529 -1.4453  2.9004
  215SOL    HW2  859   0.419   0.607   2.690  1.0096  1.8890 -0.3393
  215SOL     MW  860   0.475   0.643   2.638  0.1676 -0.1086  0.4397
  216SOL     OW  861   3.032   3.089   2.666 -0.7092 -0.1024  0.0030
  216SOL    HW1  862   2.988   3.064   2.750 -1.0267  1.0764  1.3423
  216SOL    HW2  863   2.986   3.170   2.630 -2.5526  1.5631 -2.5752
  216SOL     MW  864   3.020   3.096   2.673 -0.9943  0.2729 -0.1605
  217SOL     OW  865   0.909   1.234   0.031  0.1383 -0.3879 -0.0064
  217SOL    HW1  866   0.956   1.157   0.002 -1.1989  1.0829  1.3548
  217SOL    HW2  867   0.955   1.273   0.106 -2.0735 -0.5239 -0.7377
  217SOL     MW  868   0.921   1.229   0.037 -0.3299 -0.2118  0.0767
  218SOL     OW  869   0.897   1.303   2.549 -0.1222  0.3206  0.4365
  218SOL    HW1  870   0.916   1.222   2.592 -0.2841  0.4545 -0.7674
  218SOL    HW2  871   0.965   1.371   2.565 -1.9056  0.9012 -4.4904
  218SOL     MW  872   0.908   1.301   2.557 -0.3789  0.4148 -0.3724
  219SOL     OW  873   1.088   0.476   2.570 -0.0251  0.3756  0.6696
  219SOL    HW1  874   1.159   0.531   2.599 -0.6270  1.5334 -0.7808
  219SOL    HW2  875   1.022   0.542   2.566  0.6745  1.7892 -1.1484
  219SOL     MW  876   1.089   0.492   2.573 -0.0122  0.7149  0.2383
  220SOL     OW  877   1.795   0.418   2.204  0.1860  0.3954  0.1610
  220SOL    HW1  878   1.752   0.475   2.138  0.2298 -3.0360 -3.0866
  220SOL    HW2  879   1.836   0.350   2.150  1.1391  3.0916  1.2856
  220SOL     MW  880   1.794   0.416   2.188  0.3175  0.2984 -0.1191
  221SOL     OW  881   0.382   1.356   2.900  0.0247  0.3374  0.0711
  221SOL    HW1  882   0.393   1.261   2.876  0.9116 -0.9245  2.3072
  221SOL    HW2  883   0.393   1.405   2.818 -0.5358  1.6143  1.7054
  221SOL     MW  884   0.385   1.350   2.886  0.0678  0.3394  0.5818
  222SOL     OW  885   0.319   0.895   2.642  0.1205  0.2927  0.2266
  222SOL    HW1  886   0.288   0.924   2.555  0.6442 -0.4014  2.5533
  222SOL    HW2  887   0.380   0.824   2.625 -0.0483 -0.1220  1.7914
  222SOL     MW  888   0.323   0.890   2.628  0.1673  0.1464  0.7400
  223SOL     OW  889   0.051   2.085   2.610  0.1176 -0.4251  0.1070
  223SOL    HW1  890   0.072   1.996   2.643 -2.3198 -1.4317  0.0274
  223SOL    HW2  891   0.105   2.122   2.541 -0.3541  2.2215  1.8150
  223SOL     MW  892   0.061   2.078   2.605 -0.2662 -0.2087  0.3218
  224SOL     OW  893   1.508   0.791   2.612  0.0993  0.0142  0.1035
  224SOL    HW1  894   1.502   0.832   2.701  1.8829  3.9816  2.0753
  224SOL    HW2  895   1.484   0.857   2.550 -0.3390 -0.9564 -2.0967
  224SOL     MW  896   1.504   0.805   2.616  0.2768  0.4096  0.0733
  225SOL     OW  897   2.984   1.522   2.313  0.0704 -0.2562  0.2515
  225SOL    HW1  898   3.036   1.601   2.318 -2.5732  0.2687  1.4785
  225SOL    HW2  899   2.920   1.533   2.386 -1.9357 -1.0737 -1.3966
  225SOL     MW  900   2.983   1.534   2.324 -0.5431 -0.2948  0.1959
  226SOL     OW  901   0.432   1.417   2.612  0.6015 -0.2111  0.2047
  226SOL    HW1  902   0.527   1.438   2.596  2.7783  2.6081 -2.4805
  226SOL    HW2  903   0.397   1.508   2.603  1.3718 -0.9539  0.1133
  226SOL     MW  904   0.440   1.432   2.609  0.9903  0.0628 -0.1617
  227SOL     OW  905   0.431   1.077   2.842  0.3219  0.1445 -0.0251
  227SOL    HW1  906   0.527   1.085   2.819 -1.7162 -0.1657  3.4271
  227SOL    HW2  907   0.393   1.035   2.768  0.0519  2.3843  4.3934
  227SOL     MW  908   0.439   1.072   2.830  0.0174  0.3991  1.0133
  228SOL     OW  909   0.714   0.987   2.038  0.7261  0.0493  0.3967
  228SOL    HW1  910   0.803   0.981   2.005 -0.5924  0.5318  1.8157
  228SOL    HW2  911   0.701   0.933   2.116  1.3075 -0.2498  2.8836
  228SOL     MW  912   0.724   0.979   2.044  0.6288  0.0735  0.9121
  229SOL     OW  913   0.140   0.573   3.097  0.2425  0.7193  0.4724
  229SOL    HW1  914   0.048   0.556   3.065 -0.1555 -0.9263  2.5425
  229SOL    HW2  915   0.142   0.518   3.176 -2.4313  2.5064 -1.8263
  229SOL     MW  916   0.128   0.564   3.103 -0.1628  0.7380  0.4422
  230SOL     OW  917   1.761   1.413   2.027  0.3627  0.0538 -0.3483
  230SOL    HW1  918   1.716   1.394   2.110 -1.7329  1.0606 -0.4635
  230SOL    HW2  919   1.830   1.348   2.022 -0.1942 -0.2613  1.0279
  230SOL     MW  920   1.764   1.402   2.038  0.0127  0.1450 -0.1820
  231SOL     OW  921   2.758   1.333   2.237  0.2917 -0.0966 -0.2621
  231SOL    HW1  922   2.814   1.413   2.253 -0.5432  0.7653  0.1343
  231SOL    HW2  923   2.681   1.362   2.181 -1.9120  1.7595 -0.4166
  231SOL     MW  924   2.755   1.348   2.231 -0.1092  0.2620 -0.2302
  232SOL     OW  925   2.254   0.828   2.159 -0.0996 -0.5015 -0.4097
  232SOL    HW1  926   2.185   0.880   2.119  1.6321 -2.1700  0.0957
  232SOL    HW2  927   2.240   0.860   2.252  2.3043  0.1764 -0.1157
  232SOL     MW  928   2.243   0.839   2.166  0.4461 -0.6322 -0.3042
  233SOL     OW  929   2.048   0.515   1.977  0.6771 -0.4005  0.1364
  233SOL    HW1  930   2.073   0.443   1.920 -1.8693 -3.7526 -0.1405
  233SOL    HW2  931   2.115   0.534   2.039 -1.0248 -1.0323  0.5770
  233SOL     MW  932   2.060   0.508   1.978  0.1166 -0.9262  0.1580
  234SOL     OW  933   0.270   1.009   2.374  0.3284 -0.1517  0.3770
  234SOL    HW1  934   0.177   1.031   2.374 -1.8148 -2.0455 -0.3724
  234SOL    HW2  935   0.329   1.087   2.393  0.5516  1.3903  1.1881
  234SOL     MW  936   0.266   1.022   2.376  0.0751 -0.1981  0.3851
  235SOL     OW  937   1.125   3.067   2.710  1.3074  0.2001 -0.0774
  235SOL    HW1  938   1.154   3.015   2.784 -0.1270  1.8473  2.8736
  235SOL    HW2  939   1.111   3.160   2.746 -1.0302  2.1327  0.8781
  235SOL     MW  940   1.127   3.073   2.724  0.8098  0.6724  0.4380
  236SOL     OW  941   2.939   0.520   0.010 -0.2016 -0.3305 -0.1895
  236SOL    HW1  942   2.844   0.503  -0.019 -1.5671  2.0835 -0.8931
  236SOL    HW2  943   2.931   0.613   0.038  2.2989  0.2124 -0.8003
  236SOL     MW  944   2.926   0.530   0.010 -0.0519  0.0596 -0.3629
  237SOL     OW  945   1.911   1.003   2.170  0.6779  0.2709  0.3859
  237SOL    HW1  946   1.898   1.090   2.142 -0.3950  0.9788 -2.1483
  237SOL    HW2  947   1.895   1.014   2.262 -0.0919  3.7150  0.2998
  237SOL     MW  948   1.907   1.016   2.178  0.4348  0.8187  0.0402
  238SOL     OW  949   1.083   1.788   3.029  0.0018 -0.3926 -0.0891
  238SOL    HW1  950   1.026   1.707   3.006  0.3704  0.2795  0.2469
  238SOL    HW2  951   1.176   1.764   3.038  0.6157 -2.4242  0.8090
  238SOL     MW  952   1.088   1.774   3.027  0.1314 -0.5720  0.0737
  239SOL     OW  953   1.275   1.383   2.353 -0.0403 -0.3489 -0.0454
  239SOL    HW1  954   1.230   1.449   2.404  0.4396  2.0779 -0.3519
  239SOL    HW2  955   1.262   1.296   2.405 -0.8148 -2.6051 -0.4718
  239SOL     MW  956   1.267   1.380   2.367 -0.0792 -0.3264 -0.1421
  240SOL     OW  957   0.738   0.826   2.258  0.4384  0.0749  0.5035
  240SOL    HW1  958   0.724   0.888   2.332  1.8034  0.2103  0.2185
  240SOL    HW2  959   0.838   0.811   2.254  0.8718  0.3846 -0.2987
  240SOL     MW  960   0.749   0.832   2.267  0.6757  0.1336  0.3601
  241SOL     OW  961   0.666   0.360   3.099  0.0329 -0.1399  0.5698
  241SOL    HW1  962   0.694   0.443   3.138  0.9976 -0.5135 -1.1420
  241SOL    HW2  963   0.575   0.380   3.076 -0.5889  0.0069 -0.2412
  241SOL     MW  964   0.657   0.374   3.101  0.0781 -0.1698  0.2369
  242SOL     OW  965   1.497   1.676   2.312  0.1996  0.2773  0.4621
  242SOL    HW1  966   1.461   1.768   2.324  0.6528 -0.1402  1.2630
  242SOL    HW2  967   1.448   1.628   2.242  2.2609 -0.9074  1.8566
  242SOL     MW  968   1.486   1.682   2.304  0.5314  0.0659  0.7517
  243SOL     OW  969   1.027   0.244   2.429  0.0356  0.1279 -0.1224
  243SOL    HW1  970   1.108   0.251   2.387  1.7495  1.5676  3.1992
  243SOL    HW2  971   1.027   0.328   2.474  1.0015 -1.5833  1.8278
  243SOL     MW  972   1.038   0.256   2.429  0.3891  0.0921  0.5732
  244SOL     OW  973   0.261   0.739   2.395 -0.2605  0.0244 -0.3082
  244SOL    HW1  974   0.272   0.834   2.373 -1.2878  0.2805 -1.6055
  244SOL    HW2  975   0.354   0.705   2.377 -1.1500 -1.5347  1.4799
  244SOL     MW  976   0.275   0.747   2.390 -0.5134 -0.1475 -0.2434
  245SOL     OW  977   1.287   0.235   2.330  0.1451 -0.0312 -0.2815
  245SOL    HW1  978   1.357   0.173   2.324 -2.2533  1.1352 -0.4283
  245SOL    HW2  979   1.322   0.292   2.394  1.4071 -0.6922 -1.9564
  245SOL     MW  980   1.301   0.235   2.338 -0.0048  0.0354 -0.5218
  246SOL     OW  981   1.184   1.225   2.141 -0.3006  0.0273  0.4458
  246SOL    HW1  982   1.132   1.161   2.192 -1.3249 -1.3730 -0.8661
  246SOL    HW2  983   1.241   1.273   2.213  1.0587 -1.0024  1.3665
  246SOL     MW  984   1.185   1.223   2.157 -0.2564 -0.2933  0.3942
  247SOL     OW  985   0.768   0.592   0.120  0.1108  0.3201 -0.3284
  247SOL    HW1  986   0.736   0.680   0.098 -1.4347  1.6232 -0.0390
  247SOL    HW2  987   0.859   0.591   0.093  2.3187 -1.2855  0.4321
  247SOL     MW  988   0.776   0.604   0.113  0.1982  0.2802 -0.1899
  248SOL     OW  989   0.463   1.183   2.464  0.0755  0.4828 -0.6317
  248SOL    HW1  990   0.493   1.221   2.379 -0.6761  0.8424  1.1720
  248SOL    HW2  991   0.458   1.255   2.527  2.5450 -0.3035 -0.2126
  248SOL     MW  992   0.466   1.197   2.461  0.3022  0.4265 -0.3384
  249SOL     OW  993   0.166   1.825   2.693 -1.0851 -0.2242 -0.2253
  249SOL    HW1  994   0.104   1.758   2.662  3.0633  2.1450 -0.5435
  249SOL    HW2  995   0.167   1.816   2.792 -0.8274 -2.5447  0.9935
  249SOL     MW  996   0.158   1.815   2.702 -0.5038 -0.2178 -0.1065
  250SOL     OW  997   2.179   0.869   2.426  0.5280 -0.2133 -0.2870
  250SOL    HW1  998   2.241   0.793   2.448  1.7680 -1.5285  2.4327
  250SOL    HW2  999   2.221   0.946   2.463 -1.9905 -0.3694  3.3768
  250SOL     MW 1000   2.193   0.869   2.434  0.3593 -0.4074  0.5553
  251SOL     OW 1001   0.176   0.900   2.051 -0.3213  1.2931  0.2244
  251SOL    HW1 1002   0.135   0.872   2.136 -1.2486  2.7951  1.4687
  251SOL    HW2 1003   0.194   0.833   1.987  0.7173  1.9025 -2.8553
  251SOL     MW 1004   0.173   0.887   2.054 -0.3066  1.5717 -0.0178
  252SOL     OW 1005   1.679   1.005   2.914  0.0672 -0.2291  0.1619
  252SOL    HW1 1006   1.682   1.061   2.997  2.2817  0.1913  0.8576
  252SOL    HW2 1007   1.700   1.070   2.848  2.0910 -2.0617 -0.0475
  252SOL     MW 1008   1.683   1.021   2.916  0.6264 -0.4154  0.2261
  253SOL     OW 1009   1.164   1.762   2.567  0.1137  0.7956  0.0779
  253SOL    HW1 1010   1.166   1.787   2.474  1.1324 -0.0027 -2.4894
  253SOL    HW2 1011   1.124   1.831   2.613  1.5780 -2.7976 -0.4576
  253SOL     MW 1012   1.159   1.774   2.560  0.4413  0.2162 -0.3315
  254SOL     OW 1013   1.026   1.049   2.255  0.4065 -0.1272  0.0904
  254SOL    HW1 1014   1.013   0.964   2.208  0.7622 -0.8073  0.3745
  254SOL    HW2 1015   0.933   1.089   2.245  0.6974  0.1593  0.9129
  254SOL     MW 1016   1.012   1.043   2.248  0.4918 -0.1791  0.2364
  255SOL     OW 1017   0.833   2.541   2.215  0.0613  0.0735 -0.0064
  255SOL    HW1 1018   0.764   2.484   2.251 -0.8668  0.4770 -0.8561
  255SOL    HW2 1019   0.906   2.542   2.277  0.4736  3.3832 -2.4977
  255SOL     MW 1020   0.834   2.534   2.228 -0.0067  0.5634 -0.4472
  256SOL     OW 1021   1.202   2.832   2.844  0.0153 -0.0838 -0.4114
  256SOL    HW1 1022   1.191   2.749   2.804  1.1681 -2.6442 -0.7027
  256SOL    HW2 1023   1.292   2.865   2.817  1.8472 -2.8075 -1.8054
  256SOL     MW 1024   1.212   2.825   2.835  0.4091 -0.7810 -0.6338
  257SOL     OW 1025   0.124   1.920   0.095 -0.6952  0.1357  0.2367
  257SOL    HW1 1026   0.151   1.866   0.173  0.0245  3.1871  1.1606
  257SOL    HW2 1027   0.125   1.862   0.018  1.8045  0.2560 -0.5873
  257SOL     MW 1028   0.128   1.905   0.095 -0.2704  0.5542  0.2499
  258SOL     OW 1029   0.715   1.006   2.439 -0.0981 -0.4015 -0.4749
  258SOL    HW1 1030   0.732   1.074   2.374  2.2358  0.6551 -1.9102
  258SOL    HW2 1031   0.644   1.041   2.500  0.7919  0.7597 -0.7631
  258SOL     MW 1032   0.708   1.020   2.439  0.3273 -0.1089 -0.7023
  259SOL     OW 1033   0.743   0.502   2.339 -0.6635 -0.2039 -0.0747
  259SOL    HW1 1034   0.671   0.564   2.326  1.2108 -1.5211  1.7510
  259SOL    HW2 1035   0.707   0.412   2.326  0.6165 -0.4661  1.1534
  259SOL     MW 1036   0.729   0.498   2.336 -0.2473 -0.4123  0.3282
  260SOL     OW 1037   0.583   0.156   1.570 -0.2510 -0.3303  0.1204
  260SOL    HW1 1038   0.518   0.126   1.506 -0.0325 -0.2733 -0.7872
  260SOL    HW2 1039   0.671   0.117   1.547  1.4345 -3.5400  2.2380
  260SOL     MW 1040   0.586   0.147   1.559  0.0002 -0.7463  0.2800
  261SOL     OW 1041   1.244   0.700   2.024  0.6395  0.6187 -0.4034
  261SOL    HW1 1042   1.272   0.722   2.115 -0.8009  0.5097 -0.9045
  261SOL    HW2 1043   1.308   0.633   1.986 -0.4890 -1.3300 -1.5344
  261SOL     MW 1044   1.256   0.694   2.031  0.3006  0.3472 -0.6187
  262SOL     OW 1045   1.138   0.272   0.140 -0.7887 -0.3723  0.1485
  262SOL    HW1 1046   1.232   0.281   0.125 -0.8596  0.4451 -0.3417
  262SOL    HW2 1047   1.104   0.211   0.080  1.4843  0.9994  2.2353
  262SOL     MW 1048   1.146   0.265   0.130 -0.4982 -0.0835  0.3591
  263SOL     OW 1049   0.425   3.056   2.500  0.4036 -0.3282  0.5133
  263SOL    HW1 1050   0.342   3.107   2.497  0.7881 -0.8884  1.2592
  263SOL    HW2 1051   0.459   3.065   2.408 -2.6358 -0.4727  0.8204
  263SOL     MW 1052   0.418   3.064   2.488  0.0533 -0.4212  0.6523
  264SOL     OW 1053   1.517   1.316   1.914  0.3695  0.2449  0.3439
  264SOL    HW1 1054   1.507   1.254   1.986 -1.6193 -0.5524  1.0440
  264SOL    HW2 1055   1.591   1.373   1.941 -1.2780 -0.6361  1.0243
  264SOL     MW 1056   1.526   1.315   1.927 -0.1103  0.0235  0.5260
  265SOL     OW 1057   0.688   2.770   2.242  0.0783  0.3016  0.3197
  265SOL    HW1 1058   0.736   2.692   2.226 -1.4058  0.4571  0.5315
  265SOL    HW2 1059   0.705   2.792   2.335  0.6428 -1.5996 -2.6149
  265SOL     MW 1060   0.697   2.763   2.252 -0.0430  0.0713 -0.0396
  266SOL     OW 1061   0.988   0.797   2.182 -0.0788 -0.2853  1.0260
  266SOL    HW1 1062   0.960   0.730   2.117  0.2967  0.1875 -3.1085
  266SOL    HW2 1063   1.051   0.763   2.243 -0.8091  1.2717 -1.6298
  266SOL     MW 1064   0.993   0.783   2.182 -0.1256 -0.0175  0.1301
  267SOL     OW 1065   1.376   1.652   2.715  0.1467  0.0922  0.4903
  267SOL    HW1 1066   1.452   1.662   2.654 -3.1375 -1.0799  0.0341
  267SOL    HW2 1067   1.298   1.683   2.664 -0.7401 -1.0144 -1.9536
  267SOL     MW 1068   1.376   1.657   2.700 -0.4036 -0.2084  0.1076
  268SOL     OW 1069   0.271   0.807   1.798  0.2200  0.6439 -1.0474
  268SOL    HW1 1070   0.202   0.849   1.737  1.0142  1.2230 -3.3147
  268SOL    HW2 1071   0.283   0.718   1.766 -0.8640 -1.0073  2.4010
  268SOL     MW 1072   0.264   0.801   1.786  0.1818  0.5024 -0.8916
  269SOL     OW 1073   1.389   1.931   2.368 -0.0266  0.5061 -0.0504
  269SOL    HW1 1074   1.416   2.008   2.320  1.4126  0.9782  1.6638
  269SOL    HW2 1075   1.340   1.969   2.437  2.3706 -2.9103 -1.7063
  269SOL     MW 1076   1.386   1.946   2.371  0.4796  0.1176 -0.0427
  270SOL     OW 1077   1.177   0.376   1.612 -0.0279 -0.0022 -0.1555
  270SOL    HW1 1078   1.126   0.303   1.657  0.5064 -0.0907 -0.0961
  270SOL    HW2 1079   1.269   0.357   1.645  1.2217  1.4502  0.8078
  270SOL     MW 1080   1.183   0.364   1.622  0.2075  0.1777 -0.0205
  271SOL     OW 1081   0.903   3.096   2.477 -0.0261  0.0612  0.6889
  271SOL    HW1 1082   0.961   3.058   2.538  0.9840 -2.2779 -0.4430
  271SOL    HW2 1083   0.938   3.185   2.444 -0.4171 -1.2854 -0.2623
  271SOL     MW 1084   0.915   3.103   2.481  0.0556 -0.4251  0.4141
  272SOL     OW 1085   1.479   2.886   2.770  0.0286  0.1449 -0.0123
  272SOL    HW1 1086   1.477   2.979   2.734 -0.6995 -2.1142 -0.0277
  272SOL    HW2 1087   1.517   2.899   2.862  0.2568  1.3093  2.2401
  272SOL     MW 1088   1.484   2.900   2.777 -0.0373  0.0005  0.2829
  273SOL     OW 1089   1.430   0.888   2.878  0.1616  0.0035 -0.0553
  273SOL    HW1 1090   1.514   0.927   2.906 -2.6073  1.3427  0.3981
  273SOL    HW2 1091   1.363   0.949   2.892  0.0010 -1.4449 -1.4005
  273SOL     MW 1092   1.433   0.901   2.883 -0.2249 -0.0109 -0.1730
  274SOL     OW 1093   1.415   0.753   0.198  1.2728  0.3663  0.1229
  274SOL    HW1 1094   1.446   0.662   0.192  2.5929  2.3251  1.0308
  274SOL    HW2 1095   1.340   0.749   0.263 -1.2986 -0.1299  0.1797
  274SOL     MW 1096   1.409   0.740   0.206  1.1077  0.5593  0.2502
  275SOL     OW 1097   1.687   0.644   1.792 -0.0901  0.0813 -0.3673
  275SOL    HW1 1098   1.748   0.688   1.849 -1.8703  0.3502 -0.9759
  275SOL    HW2 1099   1.708   0.550   1.814  1.7745 -1.8067 -0.7266
  275SOL     MW 1100   1.698   0.638   1.802 -0.0790 -0.1323 -0.4950
  276SOL     OW 1101   0.261   1.238   1.803  0.3826 -0.4990 -0.1628
  276SOL    HW1 1102   0.298   1.173   1.866 -0.5175  0.2363  0.1913
  276SOL    HW2 1103   0.185   1.287   1.845  1.0841  2.2041  0.6214
  276SOL     MW 1104   0.256   1.236   1.817  0.3564 -0.0454 -0.0126
  277SOL     OW 1105   1.884   1.275   2.521 -0.2988  0.1316 -0.9287
  277SOL    HW1 1106   1.947   1.344   2.532  2.1466  2.4730 -1.7468
  277SOL    HW2 1107   1.903   1.210   2.589 -1.3499  0.3356 -0.6457
  277SOL     MW 1108   1.895   1.275   2.531 -0.1148  0.4675 -0.9993
  278SOL     OW 1109   1.420   0.643   1.711  0.4592 -0.4287  0.1510
  278SOL    HW1 1110   1.391   0.575   1.780 -0.3220 -2.8662  1.0614
  278SOL    HW2 1111   1.507   0.673   1.739  1.7881 -1.7561  2.0057
  278SOL     MW 1112   1.428   0.638   1.723  0.5315 -0.9254  0.5158
  279SOL     OW 1113   0.508   0.024   2.270 -0.3163 -0.2527 -0.1653
  279SOL    HW1 1114   0.594  -0.019   2.249  1.0983  2.1283 -0.8822
  279SOL    HW2 1115   0.534   0.114   2.296 -1.7382  2.4965 -3.4417
  279SOL     MW 1116   0.523   0.030   2.270 -0.3173  0.4242 -0.6922
  280SOL     OW 1117   1.522   1.092   2.169 -0.1728 -0.7034 -0.3562
  280SOL    HW1 1118   1.572   1.014   2.138 -0.5687 -0.3540 -2.0857
  280SOL    HW2 1119   1.475   1.071   2.251  0.1132 -0.7277  0.8407
  280SOL     MW 1120   1.522   1.079   2.176 -0.1873 -0.6605 -0.4265
  281SOL     OW 1121   1.303   1.273   2.736 -0.1165  0.0347  0.2388
  281SOL    HW1 1122   1.374   1.339   2.762  0.7250 -0.4691 -2.4673
  281SOL    HW2 1123   1.305   1.202   2.802  1.2188  0.7686 -1.6090
  281SOL     MW 1124   1.312   1.273   2.748  0.1707  0.0650 -0.3620
  282SOL     OW 1125   1.125   1.297   1.666 -0.6468  0.4228 -0.5418
  282SOL    HW1 1126   1.067   1.359   1.623  3.6538  0.2187  3.1563
  282SOL    HW2 1127   1.105   1.291   1.759 -0.0175  0.9086 -0.0900
  282SOL     MW 1128   1.115   1.305   1.673  0.0036  0.4600  0.0057
  283SOL     OW 1129   0.654   1.312   3.068 -0.1085 -0.6268 -0.5926
  283SOL    HW1 1130   0.738   1.304   3.115 -1.0147  1.9549  2.9214
  283SOL    HW2 1131   0.620   1.397   3.089 -0.3302  1.2388  0.5357
  283SOL     MW 1132   0.660   1.322   3.077 -0.2573 -0.0400  0.0199
  284SOL     OW 1133   0.515   0.662   2.362  0.7979 -0.1049  0.4655
  284SOL    HW1 1134   0.577   0.727   2.324  1.5877  0.4903  0.3745
  284SOL    HW2 1135   0.483   0.615   2.278  0.0704  1.4706 -0.2314
  284SOL     MW 1136   0.519   0.664   2.346  0.8061  0.1815  0.3615
  285SOL     OW 1137   0.857   0.946   2.849  0.2385  0.0541 -0.1817
  285SOL    HW1 1138   0.926   0.960   2.777  1.9659 -0.6824  1.1900
  285SOL    HW2 1139   0.819   0.858   2.823  1.6234 -0.4374  0.2157
  285SOL     MW 1140   0.861   0.936   2.836  0.6491 -0.1079  0.0517
  286SOL     OW 1141   1.093   1.483   2.588  0.6342  0.2892 -0.2667
  286SOL    HW1 1142   1.139   1.468   2.671 -1.3960 -1.4962  2.0877
  286SOL    HW2 1143   1.092   1.577   2.571  0.7312 -0.5311  0.3217
  286SOL     MW 1144   1.099   1.494   2.597  0.3792 -0.0546  0.1216
  287SOL     OW 1145   1.041   0.949   0.304  0.1039  0.5418 -0.3901
  287SOL    HW1 1146   1.073   0.991   0.388 -0.5368  0.8631  1.2639
  287SOL    HW2 1147   0.956   0.989   0.282  1.2449 -2.2115 -1.6587
  287SOL     MW 1148   1.034   0.960   0.312  0.1699  0.2210 -0.3393
  288SOL     OW 1149   1.598   0.627   2.123  0.2449  0.5878 -0.0329
  288SOL    HW1 1150   1.588   0.635   2.221 -0.9189 -2.0607  0.5129
  288SOL    HW2 1151   1.598   0.720   2.091  1.0081  0.5971 -1.8620
  288SOL     MW 1152   1.596   0.640   2.132  0.1921  0.2396 -0.2022
  289SOL     OW 1153   0.966   1.037   2.619 -0.0295 -0.6042 -0.6009
  289SOL    HW1 1154   1.023   0.963   2.593 -0.5124  2.4993  1.9933
  289SOL    HW2 1155   0.883   1.025   2.576  0.5490 -0.2697 -2.0888
  289SOL     MW 1156   0.963   1.025   2.610 -0.0169 -0.1506 -0.4549
  290SOL     OW 1157   0.883   0.540   1.581 -0.3722  0.1271 -0.0640
  290SOL    HW1 1158   0.938   0.540   1.505 -0.6304 -2.0113 -0.0074
  290SOL    HW2 1159   0.943   0.545   1.651 -1.4252  1.5021 -1.1917
  290SOL     MW 1160   0.898   0.541   1.580 -0.5452  0.0264 -0.2053
  291SOL     OW 1161   0.166   0.325   0.151  0.2942 -0.1065 -0.2653
  291SOL    HW1 1162   0.252   0.287   0.167 -1.7342  0.3999  1.3358
  291SOL    HW2 1163   0.130   0.279   0.071  2.0806  0.0788  2.3353
  291SOL     MW 1164   0.173   0.314   0.143  0.2623 -0.0152  0.2891
  292SOL     OW 1165   1.051   0.556   0.083  0.0441 -0.0512 -0.0405
  292SOL    HW1 1166   1.074   0.614   0.158 -0.8730  1.4349  1.6093
  292SOL    HW2 1167   1.098   0.469   0.090  0.4661 -1.1414  0.6864
  292SOL     MW 1168   1.060   0.552   0.094 -0.0212  0.0010  0.2731
  293SOL     OW 1169   0.234   0.147   2.457  0.3051 -0.0183 -0.2919
  293SOL    HW1 1170   0.149   0.100   2.456  0.2172 -1.1869  0.8935
  293SOL    HW2 1171   0.227   0.216   2.522  1.8325  0.2893 -2.3557
  293SOL     MW 1172   0.222   0.150   2.466  0.4950 -0.1319 -0.4078
  294SOL     OW 1173   1.503   0.626   2.386 -0.4758 -0.2098  0.4449
  294SOL    HW1 1174   1.520   0.669   2.469  3.6401 -0.4766 -0.5981
  294SOL    HW2 1175   1.494   0.536   2.416  1.7305  4.0319 -0.4814
  294SOL     MW 1176   1.504   0.620   2.401  0.3584  0.3146  0.1851
  295SOL     OW 1177   0.914   0.678   2.505 -0.2705 -0.0548  0.1417
  295SOL    HW1 1178   0.867   0.628   2.433 -0.1821  0.0555  5.0989
  295SOL    HW2 1179   0.849   0.700   2.575  3.0427  0.0097  2.2168
  295SOL     MW 1180   0.899   0.674   2.505  0.1783 -0.0317  1.0695
  296SOL     OW 1181   1.258   0.277   2.056  0.0970  0.4285  0.3118
  296SOL    HW1 1182   1.331   0.210   2.030 -0.1114 -2.2522 -1.0621
  296SOL    HW2 1183   1.264   0.262   2.154  1.3289  1.7712  0.5109
  296SOL     MW 1184   1.269   0.266   2.066  0.2321  0.2520  0.1568
  297SOL     OW 1185   1.475   0.362   1.610  0.5864 -0.3353 -0.2360
  297SOL    HW1 1186   1.528   0.439   1.624 -1.4473  0.4366 -0.8243
  297SOL    HW2 1187   1.516   0.288   1.659 -2.8042 -0.8880  1.4054
  297SOL     MW 1188   1.487   0.363   1.619 -0.1293 -0.3064 -0.0970
  298SOL     OW 1189   1.638   0.904   2.035  0.0270 -0.0652  0.1132
  298SOL    HW1 1190   1.609   0.958   1.961  0.5328  0.5318 -1.9638
  298SOL    HW2 1191   1.732   0.898   2.014  0.2162  0.1247 -1.8370
  298SOL     MW 1192   1.647   0.910   2.022  0.1187  0.0386 -0.4181
  299SOL     OW 1193   0.551   1.034   3.096  0.5095 -0.0704  0.5365
  299SOL    HW1 1194   0.565   1.129   3.096 -0.0739 -0.4697 -0.0733
  299SOL    HW2 1195   0.506   1.023   3.015  4.2423  0.9606 -0.0441
  299SOL     MW 1196   0.547   1.045   3.086  0.9250  0.0129  0.3794
  300SOL     OW 1197   1.208   1.158   2.499 -0.8785  0.0092  0.3871
  300SOL    HW1 1198   1.112   1.161   2.490 -2.6011 -1.9886 -1.6676
  300SOL    HW2 1199   1.248   1.205   2.571 -1.5024 -4.0758 -0.3692
  300SOL     MW 1200   1.201   1.164   2.507 -1.1881 -0.7934  0.0162
  301SOL     OW 1201   1.374   0.914   0.631  0.1229  0.1178  0.8423
  301SOL    HW1 1202   1.371   0.965   0.710  1.6064  0.9354  2.8313
  301SOL    HW2 1203   1.334   0.832   0.657 -0.3792 -2.3124  0.5875
  301SOL     MW 1204   1.369   0.910   0.645  0.2524 -0.0950  1.0711
  302SOL     OW 1205   0.075   1.497   2.044  0.2771  0.2168 -0.3784
  302SOL    HW1 1206   0.113   1.424   2.101 -0.5194 -1.5004  1.7970
  302SOL    HW2 1207   0.049   1.570   2.104 -0.6925  0.4858 -1.2824
  302SOL     MW 1208   0.076   1.497   2.060  0.0441  0.0258 -0.2107
  303SOL     OW 1209   0.364   1.687   2.599 -0.1103 -0.1691  0.0849
  303SOL    HW1 1210   0.376   1.726   2.514  2.1477  1.1754  1.2513
  303SOL    HW2 1211   0.286   1.732   2.644  1.6271  1.9891  2.0045
  303SOL     MW 1212   0.355   1.698   2.594  0.4168  0.2931  0.4920
  304SOL     OW 1213   0.683   2.051   2.368 -0.0973  0.5189 -0.3724
  304SOL    HW1 1214   0.719   2.108   2.299 -2.3472 -0.2041 -1.3183
  304SOL    HW2 1215   0.751   1.985   2.372  0.7684  1.8532 -0.6056
  304SOL     MW 1216   0.697   2.050   2.359 -0.2800  0.5995 -0.5279
  305SOL     OW 1217   1.077   0.570   0.516  0.0629  0.3250 -0.7044
  305SOL    HW1 1218   0.981   0.576   0.486  2.3424 -0.4632  0.4739
  305SOL    HW2 1219   1.097   0.477   0.546 -1.1029  0.0521  1.4964
  305SOL     MW 1220   1.067   0.559   0.516  0.2099  0.1850 -0.2586
  306SOL     OW 1221   1.231   1.489   0.288 -0.2331 -0.1708 -0.5520
  306SOL    HW1 1222   1.258   1.416   0.339 -1.2941 -0.8313 -2.4868
  306SOL    HW2 1223   1.286   1.491   0.207 -0.2105  1.4552  1.4751
  306SOL     MW 1224   1.242   1.480   0.284 -0.3701 -0.0434 -0.5398
  307SOL     OW 1225   1.394   0.493   1.936 -0.3250  0.1875 -0.2630
  307SOL    HW1 1226   1.337   0.419   1.984 -0.8597 -2.1044 -1.5952
  307SOL    HW2 1227   1.469   0.520   1.989  1.7099 -0.9438  1.5590
  307SOL     MW 1228   1.397   0.487   1.949 -0.1270 -0.2642 -0.1984
  308SOL     OW 1229   2.161   0.607   2.690  0.1135 -0.4408  0.1596
  308SOL    HW1 1230   2.253   0.576   2.717  1.7640 -1.5274  1.0563
  308SOL    HW2 1231   2.158   0.705   2.716 -0.3789 -0.4203 -1.3290
  308SOL     MW 1232   2.173   0.616   2.697  0.2663 -0.5815  0.0815
  309SOL     OW 1233   0.430   0.367   0.396 -0.5615  0.1019  0.3428
  309SOL    HW1 1234   0.521   0.363   0.420 -0.6504  0.2656  0.3448
  309SOL    HW2 1235   0.417   0.300   0.330  0.5259  0.4988 -1.9505
  309SOL     MW 1236   0.440   0.358   0.390 -0.4297  0.1758  0.0405
  310SOL     OW 1237   0.469   0.595   1.923  0.6995  0.3463 -0.1639
  310SOL    HW1 1238   0.494   0.513   1.875  0.6216  1.7140 -2.1283
  310SOL    HW2 1239   0.553   0.642   1.916  2.9283 -0.2786  1.4727
  310SOL     MW 1240   0.483   0.590   1.916  0.9833  0.4443 -0.2072
  311SOL     OW 1241   1.883   0.742   1.966  0.1424  0.0007  0.3085
  311SOL    HW1 1242   1.884   0.747   2.065  0.1318 -1.5358  1.9357
  311SOL    HW2 1243   1.942   0.663   1.946  0.5677 -2.3053 -2.9236
  311SOL     MW 1244   1.891   0.732   1.976  0.1971 -0.5063  0.0967
  312SOL     OW 1245   1.668   2.501   0.090  0.2895  0.1195  0.7704
  312SOL    HW1 1246   1.727   2.506   0.166 -1.5142  1.0201  3.3237
  312SOL    HW2 1247   1.599   2.563   0.107 -0.4003 -0.1850  3.1002
  312SOL     MW 1248   1.667   2.510   0.102 -0.0395  0.1981  1.4146
  313SOL     OW 1249   0.094   1.235   2.960 -0.1531 -0.1765  0.1145
  313SOL    HW1 1250   0.121   1.207   3.047  1.3357  1.3645  0.2927
  313SOL    HW2 1251   0.173   1.268   2.913 -2.0714 -1.4880  0.9060
  313SOL     MW 1252   0.108   1.235   2.965 -0.2098 -0.1462  0.2425
  314SOL     OW 1253   2.143   2.974   3.020 -0.3452  0.0928 -0.1986
  314SOL    HW1 1254   2.096   3.002   2.943  0.9758  1.3751 -0.3459
  314SOL    HW2 1255   2.156   3.051   3.071  1.1793 -0.9228  0.9030
  314SOL     MW 1256   2.139   2.988   3.017  0.0302  0.1280 -0.0727
  315SOL     OW 1257   1.490   1.873   0.032  0.4846  0.3292  0.8398
  315SOL    HW1 1258   1.420   1.945   0.040 -1.5965  1.2670  1.1422
  315SOL    HW2 1259   1.537   1.904  -0.049 -0.2331  1.1594  0.2621
  315SOL     MW 1260   1.487   1.886   0.022  0.1153  0.5625  0.8035
  316SOL     OW 1261   1.279   0.662   2.676  0.4664  0.4618  0.4889
  316SOL    HW1 1262   1.366   0.704   2.665 -1.1226  2.5811 -3.3973
  316SOL    HW2 1263   1.252   0.633   2.764  1.9347 -0.7239 -2.2363
  316SOL     MW 1264   1.287   0.663   2.686  0.4505  0.5850 -0.3834
  317SOL     OW 1265   0.710   1.486   2.551  0.1825  0.2022 -0.7955
  317SOL    HW1 1266   0.772   1.412   2.535  0.9082  1.0948  0.3962
  317SOL    HW2 1267   0.717   1.540   2.464  0.6524  0.0334 -0.4708
  317SOL     MW 1268   0.719   1.483   2.538  0.3403  0.2977 -0.5955
  318SOL     OW 1269   1.351   0.412   2.937  0.0105 -0.2466  0.0993
  318SOL    HW1 1270   1.272   0.464   2.947 -1.0409  3.5461 -0.7999
  318SOL    HW2 1271   1.419   0.478   2.912 -0.3084  0.6581 -0.9593
  318SOL     MW 1272   1.349   0.428   2.935 -0.1703  0.3732 -0.1590
  319SOL     OW 1273   0.777   0.410   2.858 -0.1986  0.0678  0.3188
  319SOL    HW1 1274   0.743   0.356   2.787 -0.6736  3.1688 -1.1184
  319SOL    HW2 1275   0.737   0.375   2.940 -1.5585 -2.6009  0.6808
  319SOL     MW 1276   0.767   0.398   2.860 -0.4407  0.1248  0.1769
  320SOL     OW 1277   1.019   1.338   1.934  0.4010 -0.4900 -0.5654
  320SOL    HW1 1278   1.072   1.308   2.012 -2.1306  2.1524  0.0228
  320SOL    HW2 1279   1.073   1.412   1.905  0.7785 -0.1261 -0.3780
  320SOL     MW 1280   1.033   1.344   1.940  0.1168 -0.0933 -0.4631
  321SOL     OW 1281   1.028   0.993   3.049 -0.2491  0.1178 -0.0970
  321SOL    HW1 1282   0.964   0.948   2.990 -2.5880 -1.2416 -0.3282
  321SOL    HW2 1283   1.100   0.937   3.076 -0.0799 -0.8348 -2.7138
  321SOL     MW 1284   1.029   0.979   3.045 -0.5354 -0.1872 -0.4727
  322SOL     OW 1285   1.182   0.804   1.717  0.0325 -0.0181  0.0965
  322SOL    HW1 1286   1.265   0.760   1.719  1.0575 -1.5429 -1.4501
  322SOL    HW2 1287   1.185   0.866   1.793  0.8126 -3.1265  3.1444
  322SOL     MW 1288   1.193   0.806   1.728  0.2706 -0.6294  0.2946
  323SOL     OW 1289   1.209   1.536   1.880  0.0909 -0.0611  0.3967
  323SOL    HW1 1290   1.215   1.497   1.791 -0.1112 -1.6593 -0.9546
  323SOL    HW2 1291   1.143   1.605   1.875 -0.1315 -0.9174  4.0614
  323SOL     MW 1292   1.201   1.540   1.868  0.0349 -0.3850  0.7019
  324SOL     OW 1293   1.447   1.016   2.445  0.9359 -0.3643 -0.4160
  324SOL    HW1 1294   1.355   1.041   2.486 -0.8474 -1.0157  3.4313
  324SOL    HW2 1295   1.509   1.074   2.486 -2.3038 -1.1095 -1.9852
  324SOL     MW 1296   1.443   1.027   2.456  0.2732 -0.5486 -0.1154
  325SOL     OW 1297   1.093   0.522   2.896 -0.1097 -0.1843 -0.3248
  325SOL    HW1 1298   1.082   0.556   2.986 -0.7070  1.6957 -0.1920
  325SOL    HW2 1299   1.001   0.490   2.874  0.4372  0.0500  2.5878
  325SOL     MW 1300   1.079   0.523   2.905 -0.1164  0.0947  0.0770
  326SOL     OW 1301   0.484   1.369   2.209  0.0570  0.2878  0.3111
  326SOL    HW1 1302   0.540   1.357   2.137 -2.0789 -1.5744  0.0481
  326SOL    HW2 1303   0.466   1.466   2.220 -1.1877 -0.0077 -2.6117
  326SOL     MW 1304   0.489   1.380   2.201 -0.3890  0.0031 -0.1092
  327SOL     OW 1305   1.875   0.884   2.461  0.0434 -0.4394 -0.0488
  327SOL    HW1 1306   1.847   0.799   2.507  2.2863  1.4580  0.3305
  327SOL    HW2 1307   1.971   0.885   2.474  1.4933  0.0074 -0.7157
  327SOL     MW 1308   1.884   0.873   2.469  0.5306 -0.1301 -0.0868
  328SOL     OW 1309   0.186   1.315   2.245  0.1616 -1.1692 -0.7384
  328SOL    HW1 1310   0.142   1.249   2.184 -1.0577 -1.9085  1.2925
  328SOL    HW2 1311   0.276   1.307   2.223 -2.9236 -0.9004 -2.6088
  328SOL     MW 1312   0.192   1.305   2.234 -0.4063 -1.2313 -0.7172
  329SOL     OW 1313   0.123   0.106   1.407  0.3392 -0.4932 -0.7142
  329SOL    HW1 1314   0.106   0.135   1.499  1.3187 -2.2191  2.0325
  329SOL    HW2 1315   0.182   0.173   1.372 -0.0641  2.8895 -1.0610
  329SOL     MW 1316   0.129   0.118   1.415  0.4152 -0.2746 -0.3976
  330SOL     OW 1317   0.321   3.088   2.078  0.0624  0.2838  0.7338
  330SOL    HW1 1318   0.398   3.131   2.124  0.7390  0.2001  0.6898
  330SOL    HW2 1319   0.267   3.050   2.139 -0.6078  1.1919 -3.5743
  330SOL     MW 1320   0.324   3.088   2.092  0.0632  0.3926  0.1596
  331SOL     OW 1321   0.770   1.218   2.277  0.1011 -0.2231  0.2296
  331SOL    HW1 1322   0.722   1.254   2.199 -0.0783 -0.5762  0.1759
  331SOL    HW2 1323   0.815   1.287   2.322  0.5059 -1.8047 -2.2416
  331SOL     MW 1324   0.770   1.232   2.272  0.1309 -0.4784 -0.1035
  332SOL     OW 1325   1.350   1.694   2.986 -0.2080 -0.2149 -0.1289
  332SOL    HW1 1326   1.368   1.694   2.895  0.4359  0.1660  1.3450
  332SOL    HW2 1327   1.401   1.764   3.025  3.2945 -1.0810  0.8368
  332SOL     MW 1328   1.359   1.703   2.979  0.3391 -0.2789  0.1930
  333SOL     OW 1329   1.795   1.452   2.980  0.4042  0.0886  0.0379
  333SOL    HW1 1330   1.891   1.466   2.994  0.8786  1.0202 -0.9688
  333SOL    HW2 1331   1.759   1.452   3.069  0.1818 -0.3727 -4.3573
  333SOL     MW 1332   1.803   1.454   2.994  0.4374  0.1506 -0.6748
  334SOL     OW 1333   1.372   3.082   2.600 -0.0801 -0.0455 -0.5760
  334SOL    HW1 1334   1.279   3.070   2.631  0.5011 -0.1038  1.4052
  334SOL    HW2 1335   1.371   3.175   2.598 -2.0204  0.7616  2.3640
  334SOL     MW 1336   1.360   3.093   2.604 -0.2594  0.0533  0.0733
  335SOL     OW 1337   1.241   0.783   3.052  0.5787 -0.1475 -0.9728
  335SOL    HW1 1338   1.280   0.761   3.137 -0.0810  0.8614  0.1404
  335SOL    HW2 1339   1.318   0.806   2.998 -2.2390 -0.9245 -2.1593
  335SOL     MW 1340   1.257   0.783   3.056  0.1199 -0.1169 -0.9825
  336SOL     OW 1341   0.938   1.073   1.897  0.1155  0.5292 -0.3954
  336SOL    HW1 1342   0.961   1.165   1.911 -2.0700  3.5914 -1.5335
  336SOL    HW2 1343   1.019   1.025   1.886 -1.1314  0.8889 -2.3480
  336SOL     MW 1344   0.952   1.078   1.897 -0.3374  0.9807 -0.8032
  337SOL     OW 1345   0.584   1.761   2.818  0.7714  0.4683  0.5180
  337SOL    HW1 1346   0.515   1.716   2.759 -2.7348 -0.0651  2.6115
  337SOL    HW2 1347   0.665   1.707   2.817  1.5329  0.8380  2.1803
  337SOL     MW 1348   0.586   1.748   2.810  0.4092  0.4467  1.0135
  338SOL     OW 1349   1.132   0.830   2.544  0.2490  0.0401 -0.3399
  338SOL    HW1 1350   1.051   0.781   2.519  1.6336 -1.2438 -1.1863
  338SOL    HW2 1351   1.184   0.769   2.598 -0.5405 -1.9046  0.0628
  338SOL     MW 1352   1.128   0.815   2.548  0.3275 -0.3859 -0.3985
  339SOL     OW 1353   1.549   1.039   1.790 -0.0482 -0.2603  0.0168
  339SOL    HW1 1354   1.473   1.028   1.732 -2.1244 -1.1798 -2.8249
  339SOL    HW2 1355   1.547   1.136   1.804 -0.7757  0.8532  0.1659
  339SOL     MW 1356   1.539   1.050   1.784 -0.4181 -0.2347 -0.3384
  340SOL     OW 1357   1.386   1.481   0.062  0.1211 -0.3902 -0.2518
  340SOL    HW1 1358   1.377   1.549  -0.000 -0.1194  0.8796  2.1496
  340SOL    HW2 1359   1.480   1.483   0.080 -0.6643 -0.3264  0.5457
  340SOL     MW 1360   1.397   1.490   0.056 -0.0143 -0.2142  0.1703
  341SOL     OW 1361   0.118   1.376   2.680 -0.7905  0.6933  0.0587
  341SOL    HW1 1362   0.207   1.349   2.659  0.5382  1.5942 -0.1265
  341SOL    HW2 1363   0.064   1.323   2.620  1.9746  0.7660  1.8628
  341SOL     MW 1364   0.123   1.365   2.669 -0.2504  0.8218  0.2723
  342SOL     OW 1365   1.411   0.299   0.098 -0.3752 -0.0718 -0.0304
  342SOL    HW1 1366   1.441   0.389   0.123 -2.3687 -1.8728  2.1956
  342SOL    HW2 1367   1.395   0.307   0.003 -2.2532  0.5142 -0.3175
  342SOL     MW 1368   1.413   0.312   0.089 -0.8860 -0.2321  0.2254
  343SOL     OW 1369   0.209   0.315   2.213 -0.1480  0.0211  0.0225
  343SOL    HW1 1370   0.240   0.243   2.277  0.7648 -1.3811  0.3551
  343SOL    HW2 1371   0.160   0.274   2.138  0.7935  0.1885 -0.6496
  343SOL     MW 1372   0.207   0.300   2.212  0.0967 -0.1418 -0.0223
  344SOL     OW 1373   1.672   2.073   0.205 -0.2482 -0.2671 -0.4465
  344SOL    HW1 1374   1.682   2.132   0.129  1.3090  1.4916 -0.9845
  344SOL    HW2 1375   1.598   2.020   0.185  2.6852  1.3468  1.6112
  344SOL     MW 1376   1.664   2.074   0.193  0.3443  0.1779 -0.2460
  345SOL     OW 1377   0.733   1.638   2.318  0.5218 -0.3981 -0.1478
  345SOL    HW1 1378   0.640   1.637   2.291 -3.1608 -0.0714  1.0604
  345SOL    HW2 1379   0.783   1.600   2.244  1.8597 -0.8158  1.9145
  345SOL     MW 1380   0.727   1.633   2.305  0.2125 -0.4101  0.2837
  346SOL     OW 1381   1.724   1.127   0.043  0.2588 -0.7675  0.1869
  346SOL    HW1 1382   1.819   1.132   0.020  0.1135  1.4133  0.2488
  346SOL    HW2 1383   1.705   1.046   0.090 -0.0352 -3.2285 -3.2394
  346SOL     MW 1384   1.734   1.117   0.046  0.2008 -0.8044 -0.2570
  347SOL     OW 1385   1.281   0.742   2.288 -0.1021  0.6030  0.3724
  347SOL    HW1 1386   1.355   0.704   2.333  0.1691  0.7192  1.0790
  347SOL    HW2 1387   1.291   0.836   2.312  1.5940 -1.3785 -0.3572
  347SOL     MW 1388   1.292   0.750   2.297  0.1575  0.3569  0.3694
  348SOL     OW 1389   1.320   2.580   1.868 -0.1650  0.1489  0.0551
  348SOL    HW1 1390   1.381   2.526   1.914 -0.8074  2.2162  0.1817
  348SOL    HW2 1391   1.347   2.664   1.902  0.6364  0.9378 -3.5239
  348SOL     MW 1392   1.332   2.584   1.878 -0.1440  0.5257 -0.4004
  349SOL     OW 1393   1.425   0.243   2.709 -0.1426  0.5063 -0.5915
  349SOL    HW1 1394   1.390   0.317   2.763 -1.0836  2.1143  0.2909
  349SOL    HW2 1395   1.503   0.223   2.759 -1.9266  0.3853 -0.0232
  349SOL     MW 1396   1.431   0.250   2.723 -0.5021  0.7025 -0.4001
  350SOL     OW 1397   1.876   0.651   2.614  0.2170 -0.0471 -0.3041
  350SOL    HW1 1398   1.825   0.570   2.583  0.8187  0.0521 -2.3082
  350SOL    HW2 1399   1.966   0.628   2.626  1.1694  0.4358  2.6962
  350SOL     MW 1400   1.881   0.637   2.612  0.4221  0.0297 -0.1727
  351SOL     OW 1401   0.124   0.947   1.605 -0.3919 -0.6768 -0.2845
  351SOL    HW1 1402   0.040   0.968   1.644 -0.8497 -2.1588 -0.5463
  351SOL    HW2 1403   0.170   1.027   1.569  3.3820  0.8499  2.1312
  351SOL     MW 1404   0.119   0.960   1.605  0.0457 -0.6709 -0.0003
  352SOL     OW 1405   0.836   1.645   2.738  0.4763  0.3298 -0.5113
  352SOL    HW1 1406   0.868   1.603   2.824  1.7553 -1.1291 -0.7188
  352SOL    HW2 1407   0.800   1.570   2.686 -1.4276  1.0271 -0.0930
  352SOL     MW 1408   0.835   1.629   2.742  0.3939  0.2293 -0.4835
  353SOL     OW 1409   3.048   2.470   2.687  0.0436  0.2521  0.9237
  353SOL    HW1 1410   3.128   2.418   2.658 -1.8271 -2.2670 -0.6864
  353SOL    HW2 1411   3.023   2.535   2.625  2.0806 -2.3067 -2.4461
  353SOL     MW 1412   3.055   2.471   2.675  0.0656 -0.4179  0.2666
  354SOL     OW 1413   0.384   2.471   0.846 -0.1448 -0.0807  0.4756
  354SOL    HW1 1414   0.390   2.428   0.934  1.1726 -0.1979 -0.1219
  354SOL    HW2 1415   0.308   2.415   0.811 -0.1121  2.7613  1.1703
  354SOL     MW 1416   0.375   2.458   0.853  0.0333  0.2788  0.4884
  355SOL     OW 1417   0.030   2.202   0.415 -0.2766  0.3050 -0.2947
  355SOL    HW1 1418  -0.046   2.150   0.384  0.1584  0.3301 -1.0539
  355SOL    HW2 1419   0.008   2.265   0.482 -0.1990 -0.2327 -2.3095
  355SOL     MW 1420   0.017   2.203   0.420 -0.2090  0.2374 -0.6607
  356SOL     OW 1421   0.882   2.878   1.065 -0.0430  0.1988  0.3036
  356SOL    HW1 1422   0.906   2.869   0.967 -0.1446  2.4065 -2.0390
  356SOL    HW2 1423   0.788   2.876   1.073  3.0586 -1.2012 -0.6732
  356SOL     MW 1424   0.873   2.876   1.053  0.3528  0.3054 -0.1344
  357SOL     OW 1425   1.766   2.936   0.363  0.7679  0.1485  0.6023
  357SOL    HW1 1426   1.729   2.869   0.428 -1.3606 -2.1836  0.2921
  357SOL    HW2 1427   1.842   2.886   0.352 -1.6804  3.0790 -0.0740
  357SOL     MW 1428   1.771   2.920   0.370  0.1640  0.2275  0.4722
  358SOL     OW 1429   0.407   0.084   1.072  1.0616 -0.6160  0.0255
  358SOL    HW1 1430   0.502   0.080   1.081  0.6536  3.0320  1.0131
  358SOL    HW2 1431   0.397   0.116   0.982  1.0235 -0.1039  0.2448
  358SOL     MW 1432   0.418   0.088   1.061  1.0028 -0.0671  0.1847
  359SOL     OW 1433   0.898   2.866   1.812 -0.1389 -0.6808  0.9743
  359SOL    HW1 1434   0.895   2.775   1.856  3.1819  0.8111  0.9066
  359SOL    HW2 1435   0.935   2.855   1.728  2.0852 -1.5965  1.1658
  359SOL     MW 1436   0.903   2.852   1.807  0.5927 -0.6048  0.9907
  360SOL     OW 1437   0.591   2.788   1.024 -0.1713  0.3210 -0.1989
  360SOL    HW1 1438   0.615   2.735   0.943 -0.9200  0.5894 -0.9865
  360SOL    HW2 1439   0.574   2.708   1.080  0.4985  0.0640 -0.7441
  360SOL     MW 1440   0.592   2.770   1.021 -0.1817  0.3225 -0.3747
  361SOL     OW 1441   0.209   2.704   1.329 -0.6274  0.4914  0.2211
  361SOL    HW1 1442   0.180   2.786   1.366 -0.3083 -1.4372  2.2208
  361SOL    HW2 1443   0.290   2.674   1.366 -0.5198 -0.5116 -1.4372
  361SOL     MW 1444   0.216   2.711   1.339 -0.5711  0.1046  0.2662
  362SOL     OW 1445   1.452   2.432   0.661 -0.2811  0.1929  0.0680
  362SOL    HW1 1446   1.470   2.339   0.688  1.3497  2.4919  0.0577
  362SOL    HW2 1447   1.474   2.492   0.736 -3.8494  0.8300 -0.2810
  362SOL     MW 1448   1.457   2.428   0.675 -0.5368  0.5803  0.0206
  363SOL     OW 1449   0.312   3.053   0.681  0.0066  0.4446 -0.2682
  363SOL    HW1 1450   0.283   2.999   0.761 -2.2379  1.3898 -1.0618
  363SOL    HW2 1451   0.224   3.062   0.639  1.4865  0.8908  0.7326
  363SOL     MW 1452   0.296   3.047   0.686 -0.0943  0.6282 -0.2408
  364SOL     OW 1453   0.745   0.212   0.241 -0.5580  0.6345 -0.3191
  364SOL    HW1 1454   0.689   0.137   0.277 -2.6610 -0.4164 -1.4079
  364SOL    HW2 1455   0.692   0.256   0.174  0.2605  0.9814  0.9239
  364SOL     MW 1456   0.731   0.208   0.237 -0.7275  0.5416 -0.2987
  365SOL     OW 1457   0.945   1.951   1.097 -0.0397  0.4440 -0.1688
  365SOL    HW1 1458   0.900   2.030   1.052 -0.1734  1.1155  0.6150
  365SOL    HW2 1459   0.884   1.877   1.072 -1.3938 -1.3712  1.7760
  365SOL     MW 1460   0.931   1.951   1.088 -0.2360  0.2931  0.1912
  366SOL     OW 1461   2.876   2.619   1.038 -0.3977  0.0528  1.2084
  366SOL    HW1 1462   2.935   2.645   1.112  1.4788 -0.6416  2.6238
  366SOL    HW2 1463   2.925   2.624   0.955  2.2671 -1.9879  1.0302
  366SOL     MW 1464   2.891   2.623   1.037  0.2014 -0.3081  1.3717
  367SOL     OW 1465   1.234   2.828   0.892  0.4872  0.8288  0.1946
  367SOL    HW1 1466   1.140   2.841   0.904 -2.7756  0.1941 -0.5154
  367SOL    HW2 1467   1.237   2.802   0.799  0.0074 -0.0285  1.3234
  367SOL     MW 1468   1.222   2.826   0.881 -0.0066  0.6319  0.2498
  368SOL     OW 1469   1.674   0.441   0.682  0.2787 -0.5910 -0.5546
  368SOL    HW1 1470   1.762   0.424   0.648 -1.1439  2.2176 -0.2693
  368SOL    HW2 1471   1.676   0.536   0.712 -3.1156  2.2667 -1.2215
  368SOL     MW 1472   1.686   0.451   0.682 -0.3568  0.1566 -0.6049
  369SOL     OW 1473   0.173   2.449   1.676  0.1689 -0.0817 -0.2761
  369SOL    HW1 1474   0.270   2.444   1.680 -0.6007  0.7491 -0.0206
  369SOL    HW2 1475   0.145   2.515   1.738 -1.1180 -0.2130 -0.6818
  369SOL     MW 1476   0.182   2.457   1.685 -0.1024  0.0106 -0.2959
  370SOL     OW 1477   0.757   0.071   1.007  0.0800 -0.1069  0.0229
  370SOL    HW1 1478   0.802   0.150   1.041 -0.5503  0.3644 -0.2242
  370SOL    HW2 1479   0.818  -0.001   1.036 -1.7356 -1.5100  1.8832
  370SOL     MW 1480   0.771   0.072   1.016 -0.2428 -0.2298  0.2358
  371SOL     OW 1481   1.335   2.995   1.510 -0.1444  0.4324 -0.0624
  371SOL    HW1 1482   1.283   2.935   1.457 -1.2366 -0.1878 -0.5547
  371SOL    HW2 1483   1.344   3.076   1.463  1.1395  0.3514  2.2488
  371SOL     MW 1484   1.329   2.998   1.497 -0.1191  0.3399  0.1776
  372SOL     OW 1485   0.788   2.319   0.483 -0.4193 -0.2507  0.4012
  372SOL    HW1 1486   0.743   2.232   0.485  0.1411  0.4798 -2.1653
  372SOL    HW2 1487   0.809   2.321   0.385 -0.9514  1.3094  0.0928
  372SOL     MW 1488   0.785   2.308   0.470 -0.4156  0.0515  0.0219
  373SOL     OW 1489   2.794   3.028   1.379  0.1125  0.4584 -0.3408
  373SOL    HW1 1490   2.859   2.979   1.328 -0.8629 -0.3072 -3.1065
  373SOL    HW2 1491   2.784   3.112   1.327  1.1863 -0.2097  0.2751
  373SOL     MW 1492   2.801   3.032   1.365  0.1255  0.2692 -0.6245
  374SOL     OW 1493   1.543   0.523   0.207  0.0388 -0.2378  0.0954
  374SOL    HW1 1494   1.614   0.578   0.226  0.1435 -0.2755 -1.6997
  374SOL    HW2 1495   1.511   0.496   0.292 -1.2425 -0.9961 -1.9176
  374SOL     MW 1496   1.548   0.526   0.220 -0.1165 -0.3428 -0.4070
  375SOL     OW 1497   1.118   2.086   2.281 -0.3143  0.1927  0.3102
  375SOL    HW1 1498   1.160   2.116   2.359 -1.0952  0.7104 -2.8254
  375SOL    HW2 1499   1.152   1.998   2.266  1.1533  1.2414 -1.1923
  375SOL     MW 1500   1.128   2.078   2.289 -0.2237  0.3994 -0.3018
  376SOL     OW 1501   0.692   2.516   0.052 -0.6603  0.0505  0.2813
  376SOL    HW1 1502   0.735   2.452   0.104 -2.3393 -1.8980  0.2699
  376SOL    HW2 1503   0.649   2.465  -0.027  0.4572  0.9958 -0.5413
  376SOL     MW 1504   0.692   2.501   0.049 -0.7344 -0.0819  0.1713
  377SOL     OW 1505   1.314   1.989   0.853  0.0205 -0.1067  0.3015
  377SOL    HW1 1506   1.220   1.987   0.824  0.7128 -2.1096 -1.2823
  377SOL    HW2 1507   1.309   1.930   0.930  2.3846 -0.2274  0.0147
  377SOL     MW 1508   1.301   1.981   0.859  0.4238 -0.3869  0.0547
  378SOL     OW 1509   1.035   2.823   1.556 -0.2639  0.4758 -0.2612
  378SOL    HW1 1510   0.995   2.733   1.552  0.5011 -0.1471  0.3408
  378SOL    HW2 1511   1.000   2.867   1.479  1.0267 -1.2370 -0.9704
  378SOL     MW 1512   1.025   2.817   1.546  0.0073  0.1676 -0.2753
  379SOL     OW 1513   1.128   1.789   2.288 -0.0020 -0.7753  0.1476
  379SOL    HW1 1514   1.032   1.792   2.299 -0.9064  0.0261 -1.2455
  379SOL    HW2 1515   1.161   1.713   2.241  0.6716 -2.6354  1.1302
  379SOL     MW 1516   1.120   1.779   2.283 -0.0325 -0.9150  0.0934
  380SOL     OW 1517   0.846   0.066   1.556 -0.5878  0.5131  0.6941
  380SOL    HW1 1518   0.881   0.065   1.466 -0.7167 -0.7510 -2.7988
  380SOL    HW2 1519   0.918   0.096   1.620  1.2588  0.0673  0.7101
  380SOL     MW 1520   0.860   0.070   1.553 -0.3611  0.2875  0.2353
  381SOL     OW 1521   0.809   1.991   0.770  0.3734  0.5501 -0.1678
  381SOL    HW1 1522   0.906   2.003   0.774  0.3927 -0.4877  1.8361
  381SOL    HW2 1523   0.772   2.035   0.843 -2.7339 -1.0584  0.2178
  381SOL     MW 1524   0.817   1.998   0.780 -0.0340  0.2009  0.1474
  382SOL     OW 1525   0.692   0.083   0.725 -0.5982  0.3806 -0.4714
  382SOL    HW1 1526   0.698   0.061   0.821  2.2611  2.4303  2.8774
  382SOL    HW2 1527   0.644   0.007   0.690 -1.3463  0.4898  2.4451
  382SOL     MW 1528   0.686   0.070   0.733 -0.3196  0.6654  0.3553
  383SOL     OW 1529   0.481   0.027   0.359  0.4098 -0.3866  0.1604
  383SOL    HW1 1530   0.506  -0.035   0.295  1.8700 -0.9973  1.3419
  383SOL    HW2 1531   0.423  -0.018   0.419 -2.1831  1.2084  1.3074
  383SOL     MW 1532   0.477   0.013   0.358  0.2604 -0.2567  0.4676
  384SOL     OW 1533   0.641   2.913   0.636 -0.3921  0.0780  0.0653
  384SOL    HW1 1534   0.649   2.843   0.710  2.8804 -1.8026  1.2290
  384SOL    HW2 1535   0.557   2.892   0.599  0.8892  0.6909  1.6418
  384SOL     MW 1536   0.631   2.901   0.641  0.2087 -0.0893  0.4268
  385SOL     OW 1537   1.332   2.063   1.500  0.3088 -0.0243  0.3639
  385SOL    HW1 1538   1.398   2.082   1.568 -0.3233  0.5880  0.4934
  385SOL    HW2 1539   1.294   1.974   1.537  0.0096  0.9950 -1.5695
  385SOL     MW 1540   1.335   2.053   1.514  0.1859  0.1909  0.1259
  386SOL     OW 1541   1.375   0.363   0.838 -0.9106  0.3910  0.3429
  386SOL    HW1 1542   1.327   0.345   0.764  2.4720 -0.4264 -0.3920
  386SOL    HW2 1543   1.312   0.345   0.911 -0.7665  0.9626  0.3414
  386SOL     MW 1544   1.360   0.358   0.838 -0.4453  0.3586  0.2457
  387SOL     OW 1545   0.839   2.214   1.442  0.3622 -0.0029 -0.3401
  387SOL    HW1 1546   0.915   2.264   1.410 -0.3704  1.6468 -0.0307
  387SOL    HW2 1547   0.850   2.123   1.406  0.9682  0.3633 -1.0033
  387SOL     MW 1548   0.850   2.209   1.433  0.3455  0.2631 -0.3868
  388SOL     OW 1549   1.567   2.774   1.233  0.0218 -0.6249  0.0578
  388SOL    HW1 1550   1.478   2.742   1.224 -0.5602  1.4777 -0.6516
  388SOL    HW2 1551   1.621   2.716   1.173  0.5760  0.1150 -0.8182
  388SOL     MW 1552   1.563   2.762   1.224  0.0182 -0.2498 -0.1514
  389SOL     OW 1553   0.353   0.004   3.041  0.0978 -0.7537 -0.0763
  389SOL    HW1 1554   0.446   0.020   3.030 -1.1125 -1.9845  1.1507
  389SOL    HW2 1555   0.313   0.049   2.976  0.4431 -2.4234  2.4975
  389SOL     MW 1556   0.360   0.012   3.031 -0.0164 -1.1364  0.4252
  390SOL     OW 1557   1.292   0.066   0.643  0.5085  0.5578  0.6369
  390SOL    HW1 1558   1.379   0.080   0.606  0.4729 -2.1316 -1.7081
  390SOL    HW2 1559   1.299   0.019   0.729 -2.0020 -3.5552 -2.2633
  390SOL     MW 1560   1.304   0.061   0.650  0.1726 -0.3397 -0.0551
  391SOL     OW 1561   0.269   2.239   1.431 -0.0143  0.1411 -0.5408
  391SOL    HW1 1562   0.215   2.163   1.463 -0.8411 -1.7467 -1.4958
  391SOL    HW2 1563   0.206   2.313   1.417 -1.0528 -0.9378  0.5334
  391SOL     MW 1564   0.254   2.239   1.433 -0.2604 -0.2503 -0.5251
  392SOL     OW 1565   2.070   2.133   0.376  0.0785 -0.2954  0.4164
  392SOL    HW1 1566   2.144   2.147   0.434  1.4175 -2.9050 -0.9717
  392SOL    HW2 1567   2.010   2.096   0.443 -1.0922  1.0219  1.9631
  392SOL     MW 1568   2.072   2.130   0.392  0.1007 -0.4659  0.4373
  393SOL     OW 1569   0.172   3.030   2.742  0.0265 -0.1421 -0.6400
  393SOL    HW1 1570   0.216   3.108   2.780  1.5258 -0.1860  2.4054
  393SOL    HW2 1571   0.083   3.067   2.704  0.8061  1.6957 -5.1060
  393SOL     MW 1572   0.166   3.045   2.742  0.3272  0.0946 -0.8275
  394SOL     OW 1573   0.870   1.688   1.507  0.1190  0.1879  0.0353
  394SOL    HW1 1574   0.816   1.713   1.583 -0.1144 -1.1130  2.3625
  394SOL    HW2 1575   0.874   1.778   1.467  1.0523  2.4397 -1.3980
  394SOL     MW 1576   0.864   1.703   1.512  0.2114  0.3134  0.1533
  395SOL     OW 1577   0.977   2.855   2.647  0.3687 -1.1476  0.1448
  395SOL    HW1 1578   1.019   2.940   2.672 -0.2614  1.1326  0.4007
  395SOL    HW2 1579   1.053   2.803   2.607  0.4314 -0.4780  1.4219
  395SOL     MW 1580   0.993   2.859   2.645  0.2939 -0.7584  0.3471
  396SOL     OW 1581   0.874   1.863   2.373  0.1282  0.1078  0.3190
  396SOL    HW1 1582   0.911   1.875   2.463 -0.5135  1.5824 -0.5167
  396SOL    HW2 1583   0.829   1.774   2.372  0.0436  2.6894 -0.4620
  396SOL     MW 1584   0.873   1.853   2.385  0.0324  0.6430  0.1057
  397SOL     OW 1585   1.054   2.371   1.322 -0.0067 -0.2521 -0.7700
  397SOL    HW1 1586   1.094   2.334   1.243  1.4517 -0.1219 -0.4707
  397SOL    HW2 1587   1.127   2.362   1.391  1.3656 -2.3000 -1.5647
  397SOL     MW 1588   1.069   2.365   1.321  0.3668 -0.5051 -0.8354
  398SOL     OW 1589   0.630   2.658   0.783 -0.5102  0.2188 -0.1510
  398SOL    HW1 1590   0.566   2.602   0.748 -0.5122 -3.0045  1.8197
  398SOL    HW2 1591   0.712   2.619   0.747 -1.0743  1.4306 -2.5692
  398SOL     MW 1592   0.632   2.645   0.774 -0.5849 -0.0466 -0.2101
  399SOL     OW 1593   0.272   2.079   0.453 -0.0894 -0.3140  0.0373
  399SOL    HW1 1594   0.191   2.137   0.449 -1.2859 -0.2556 -1.0460
  399SOL    HW2 1595   0.326   2.095   0.370  0.3251  5.0058  0.7881
  399SOL     MW 1596   0.268   2.089   0.442 -0.1926  0.3956 -0.0066
  400SOL     OW 1597   0.563   1.788   0.163  0.2251 -0.3223 -0.1606
  400SOL    HW1 1598   0.544   1.876   0.188  1.2073  0.9610 -1.7416
  400SOL    HW2 1599   0.510   1.738   0.216  1.9031  2.8965 -2.1869
  400SOL     MW 1600   0.553   1.793   0.173  0.5761  0.2717 -0.6365
  401SOL     OW 1601   0.919   2.079   0.140 -0.2206  0.6041 -0.4855
  401SOL    HW1 1602   0.895   1.984   0.146  0.8485 -0.7803  0.2094
  401SOL    HW2 1603   0.982   2.091   0.214  1.9363  2.1572  2.1661
  401SOL     MW 1604   0.924   2.068   0.150  0.2051  0.6264 -0.0440
  402SOL     OW 1605   0.674   2.942   1.675  0.0360  0.2273  0.1916
  402SOL    HW1 1606   0.745   2.909   1.737 -0.1226 -0.1308  2.2535
  402SOL    HW2 1607   0.712   3.015   1.629  0.7457  0.2263 -0.5873
  402SOL     MW 1608   0.689   2.947   1.677  0.1087  0.1799  0.3609
  403SOL     OW 1609   0.076   0.410   0.404  0.4346  0.0712  0.0875
  403SOL    HW1 1610   0.150   0.418   0.459  1.5739  1.5916 -1.3728
  403SOL    HW2 1611   0.107   0.388   0.318 -1.6580  3.4035  1.3514
  403SOL     MW 1612   0.090   0.408   0.400  0.3088  0.7114  0.0616
  404SOL     OW 1613   0.957   2.824   0.816 -0.6425 -0.1339 -0.0397
  404SOL    HW1 1614   1.019   2.766   0.774 -2.7924  0.7494 -1.4779
  404SOL    HW2 1615   0.974   2.912   0.779 -2.1800 -0.7274 -2.5251
  404SOL     MW 1616   0.967   2.828   0.805 -1.1290 -0.0957 -0.5574
  405SOL     OW 1617   0.514   2.392   1.525 -0.6502 -0.8452 -0.2404
  405SOL    HW1 1618   0.504   2.469   1.472 -0.8349 -1.6548 -1.2644
  405SOL    HW2 1619   0.431   2.343   1.502  3.7866  0.3544 -0.7759
  405SOL     MW 1620   0.502   2.395   1.515 -0.0892 -0.7937 -0.4461
  406SOL     OW 1621   0.350   2.372   1.101 -0.0692  0.7430 -0.3900
  406SOL    HW1 1622   0.254   2.400   1.082 -2.4820  1.4471 -0.4622
  406SOL    HW2 1623   0.342   2.279   1.120 -0.5210  2.2117 -0.1644
  406SOL     MW 1624   0.336   2.363   1.101 -0.4472  1.0297 -0.3698
  407SOL     OW 1625   0.025   2.759   1.116 -0.2224  0.0406  0.2428
  407SOL    HW1 1626   0.070   2.746   1.197 -0.3488 -2.0666  2.3109
  407SOL    HW2 1627   0.091   2.724   1.047 -0.0860 -1.1744  1.1485
  407SOL     MW 1628   0.040   2.753   1.118 -0.2211 -0.3977  0.6352
  408SOL     OW 1629   2.075   2.056   0.705 -0.1879 -0.1195  0.7153
  408SOL    HW1 1630   2.012   2.126   0.723  2.2631  0.2356  0.5495
  408SOL    HW2 1631   2.041   2.007   0.637  0.8479  0.1309 -1.5155
  408SOL     MW 1632   2.062   2.059   0.699  0.2721 -0.0396  0.3991
  409SOL     OW 1633   1.377   3.096   0.909 -0.2991  0.1028  0.2475
  409SOL    HW1 1634   1.410   3.182   0.882 -0.6890  2.0731  0.6792
  409SOL    HW2 1635   1.433   3.069   0.984  1.7162 -3.5690  0.3629
  409SOL     MW 1636   1.389   3.104   0.915 -0.0846 -0.1217  0.3197
  410SOL     OW 1637   1.119   2.404   1.058  0.0685  0.2092  0.3825
  410SOL    HW1 1638   1.035   2.433   1.014 -2.3544  0.9858  1.6436
  410SOL    HW2 1639   1.168   2.356   0.995 -0.0825 -0.1148  2.2538
  410SOL     MW 1640   1.114   2.402   1.044 -0.2711  0.2689  0.7958
  411SOL     OW 1641   1.969   0.037   2.858 -0.3201 -0.1025  0.0337
  411SOL    HW1 1642   1.910  -0.003   2.792  1.8566 -0.4632  1.5378
  411SOL    HW2 1643   1.913   0.030   2.941 -0.2674 -3.0760  1.5322
  411SOL     MW 1644   1.954   0.031   2.860 -0.0259 -0.5424  0.4298
  412SOL     OW 1645   1.046   2.234   0.598 -0.5327  0.5091  0.1107
  412SOL    HW1 1646   1.095   2.319   0.616  1.2034 -2.2366  0.8155
  412SOL    HW2 1647   0.955   2.256   0.575 -1.8714 -1.1472  1.9815
  412SOL     MW 1648   1.041   2.248   0.597 -0.4803 -0.0717  0.4505
  413SOL     OW 1649   0.553   2.756   0.023  0.5684 -0.4042 -0.0428
  413SOL    HW1 1650   0.583   2.665   0.037 -0.7261 -0.1825  0.8903
  413SOL    HW2 1651   0.605   2.808  -0.045 -1.4847 -1.1275  1.7278
  413SOL     MW 1652   0.564   2.751   0.016  0.1267 -0.4704  0.3140
  414SOL     OW 1653   1.895   2.989   1.087 -0.0155  0.0602 -0.1178
  414SOL    HW1 1654   1.838   2.980   1.007 -0.1977 -1.4682 -0.6708
  414SOL    HW2 1655   1.978   2.948   1.069 -0.7198  1.7302  1.9416
  414SOL     MW 1656   1.899   2.982   1.074 -0.1324  0.0789  0.0810
  415SOL     OW 1657   1.733   2.573   1.132 -0.3158  0.0893 -0.3767
  415SOL    HW1 1658   1.694   2.498   1.187  1.1853  0.6360  1.1665
  415SOL    HW2 1659   1.802   2.622   1.183 -0.2644 -1.1412  2.5502
  415SOL     MW 1660   1.737   2.570   1.146 -0.1110 -0.0009  0.2131
  416SOL     OW 1661   0.585   1.938   1.376 -0.3567  0.2956  0.2737
  416SOL    HW1 1662   0.540   2.005   1.323 -0.8913 -0.5409  3.0831
  416SOL    HW2 1663   0.549   1.853   1.338  0.7924 -0.5606  0.5673
  416SOL     MW 1664   0.575   1.936   1.364 -0.2756  0.0723  0.6831
  417SOL     OW 1665   0.962   3.007   2.029 -0.3334 -0.3228  0.0751
  417SOL    HW1 1666   0.892   3.012   2.097 -1.4515 -0.7558  0.2595
  417SOL    HW2 1667   0.928   2.958   1.947 -2.8393 -2.3608 -0.1871
  417SOL     MW 1668   0.948   3.001   2.027 -0.8115 -0.6488  0.0648
  418SOL     OW 1669   0.606   2.971   0.178 -0.5631 -0.7969 -0.4422
  418SOL    HW1 1670   0.704   2.978   0.166  1.2538 -0.8648  1.2120
  418SOL    HW2 1671   0.573   2.898   0.127  0.8572  1.1228  2.8896
  418SOL     MW 1672   0.614   2.962   0.170 -0.1360 -0.5526  0.2156
  419SOL     OW 1673   0.457   2.635   1.402 -0.0345 -0.1348  0.5908
  419SOL    HW1 1674   0.504   2.717   1.431  1.3162  1.0578 -1.9024
  419SOL    HW2 1675   0.485   2.613   1.310  1.0490  3.1352 -1.5169
  419SOL     MW 1676   0.467   2.643   1.394  0.2867  0.4540 -0.0162
  420SOL     OW 1677   0.811   2.167   0.991  0.5565  0.2890  0.4938
  420SOL    HW1 1678   0.750   2.196   1.057  0.6973 -2.0229 -1.9545
  420SOL    HW2 1679   0.853   2.249   0.971  0.0910 -1.7093  1.0902
  420SOL     MW 1680   0.808   2.182   0.997  0.5137 -0.2797  0.2494
  421SOL     OW 1681   2.938   0.070   0.045  0.0103  0.4169 -0.5641
  421SOL    HW1 1682   2.885   0.038  -0.026 -0.6777 -0.0652  0.3001
  421SOL    HW2 1683   2.980  -0.008   0.088  1.8461 -1.0278  0.3146
  421SOL     MW 1684   2.937   0.056   0.041  0.1617  0.1627 -0.3341
  422SOL     OW 1685   0.876   2.415   0.931  0.4599  0.0023 -0.5663
  422SOL    HW1 1686   0.791   2.421   0.975  0.7242 -0.3625  1.4876
  422SOL    HW2 1687   0.856   2.443   0.845  1.1493 -1.6356 -0.3831
  422SOL     MW 1688   0.862   2.420   0.925  0.5857 -0.2619 -0.2712
  423SOL     OW 1689   1.517   0.151   0.496  0.2928  0.4632 -0.0983
  423SOL    HW1 1690   1.522   0.140   0.402  2.3016  1.7540  1.1679
  423SOL    HW2 1691   1.536   0.247   0.491 -2.2176 -0.5003  3.3271
  423SOL     MW 1692   1.520   0.163   0.483  0.2266  0.5064  0.5207
  424SOL     OW 1693   0.655   2.232   1.221  1.0091  0.3143 -0.3545
  424SOL    HW1 1694   0.562   2.206   1.219 -1.1468 -0.1049 -3.0594
  424SOL    HW2 1695   0.680   2.248   1.309 -1.4427  1.6205  0.5025
  424SOL     MW 1696   0.646   2.230   1.232  0.4012  0.4314 -0.5983
  425SOL     OW 1697   1.706   2.838   1.933 -0.1164  0.3060  0.8125
  425SOL    HW1 1698   1.747   2.853   1.843  0.0956  2.5395 -2.6141
  425SOL    HW2 1699   1.757   2.758   1.965  0.5052  0.0201  0.7756
  425SOL     MW 1700   1.718   2.829   1.926 -0.0064  0.5630  0.3555
  426SOL     OW 1701   0.806   1.659   1.931  0.0686  0.5216 -0.2648
  426SOL    HW1 1702   0.757   1.666   1.852  1.5070  0.1467 -0.4441
  426SOL    HW2 1703   0.783   1.748   1.961  0.3379 -2.1283 -2.5164
  426SOL     MW 1704   0.797   1.672   1.925  0.2939  0.1225 -0.5855
  427SOL     OW 1705   0.355   1.532   1.903 -0.0173 -0.1285 -0.0045
  427SOL    HW1 1706   0.418   1.461   1.898 -1.9194  2.3973 -0.3358
  427SOL    HW2 1707   0.262   1.504   1.922 -0.7251  0.0968  2.1267
  427SOL     MW 1708   0.351   1.519   1.905 -0.3617  0.2344  0.2330
  428SOL     OW 1709   0.566   2.541   1.156  0.5551 -0.2023  0.5216
  428SOL    HW1 1710   0.635   2.508   1.214  0.8763 -0.2287  0.7638
  428SOL    HW2 1711   0.501   2.471   1.137  0.0108  0.2518 -0.7873
  428SOL     MW 1712   0.567   2.527   1.161  0.5257 -0.1459  0.3808
  429SOL     OW 1713   1.307   2.630   1.062 -0.1119 -0.0923  0.3119
  429SOL    HW1 1714   1.244   2.560   1.063  0.3296 -1.0593  1.0291
  429SOL    HW2 1715   1.273   2.694   0.991 -0.8128 -0.3472 -1.8860
  429SOL     MW 1716   1.294   2.629   1.053 -0.1461 -0.2535  0.1166
  430SOL     OW 1717   1.147   2.705   0.668  0.2759  0.3248  0.0440
  430SOL    HW1 1718   1.160   2.609   0.685  2.3190  0.2716  0.3239
  430SOL    HW2 1719   1.092   2.712   0.592  1.5371  1.8870  1.8575
  430SOL     MW 1720   1.141   2.693   0.660  0.7119  0.5239  0.3202
  431SOL     OW 1721   0.319   1.893   1.132 -0.6982 -0.5701 -0.1636
  431SOL    HW1 1722   0.394   1.824   1.128 -0.9375 -0.8939 -0.8424
  431SOL    HW2 1723   0.309   1.903   1.036 -1.0421 -1.2692 -0.2570
  431SOL     MW 1724   0.328   1.885   1.118 -0.7751 -0.7051 -0.2655
  432SOL     OW 1725   0.015   0.099   1.151 -0.2853 -0.8156 -0.5617
  432SOL    HW1 1726   0.029   0.122   1.249  3.7041 -1.3534  0.4571
  432SOL    HW2 1727  -0.049   0.024   1.142 -0.9468  0.9173  0.8138
  432SOL     MW 1728   0.009   0.092   1.163  0.1538 -0.6579 -0.2458
  433SOL     OW 1729   0.606   2.861   1.428  0.2948 -0.2406 -0.4819
  433SOL    HW1 1730   0.633   2.856   1.526  0.2586 -1.9253 -0.9348
  433SOL    HW2 1731   0.694   2.877   1.395  0.4638 -2.9625  0.2328
  433SOL     MW 1732   0.621   2.862   1.437  0.3124 -0.8220 -0.4473
  434SOL     OW 1733   1.584   2.835   1.508  0.1219  0.3715 -0.8502
  434SOL    HW1 1734   1.506   2.895   1.512 -1.2696  0.2084 -1.3795
  434SOL    HW2 1735   1.587   2.789   1.425  0.1275 -3.9607 -0.4617
  434SOL     MW 1736   1.574   2.837   1.497 -0.0610 -0.2216 -0.8688
  435SOL     OW 1737   2.831   1.774   0.178 -0.5197  0.1660  0.3423
  435SOL    HW1 1738   2.890   1.844   0.150 -1.1710  0.1183  0.9583
  435SOL    HW2 1739   2.826   1.716   0.099  2.2839 -0.9695 -1.8991
  435SOL     MW 1740   2.838   1.776   0.164 -0.2357  0.0099  0.1278
  436SOL     OW 1741   1.304   2.736   0.299 -0.7521  0.1553 -0.0606
  436SOL    HW1 1742   1.353   2.694   0.370 -0.6865  0.8410 -0.1716
  436SOL    HW2 1743   1.278   2.824   0.334  0.0024  2.0206  2.0165
  436SOL     MW 1744   1.307   2.742   0.313 -0.6439  0.4919  0.1988
  437SOL     OW 1745   0.883   2.897   1.348 -0.1173 -0.0546  0.0134
  437SOL    HW1 1746   0.898   2.985   1.310  2.3294 -0.5447  0.0588
  437SOL    HW2 1747   0.934   2.830   1.300 -0.4355 -1.5200 -0.7425
  437SOL     MW 1748   0.891   2.900   1.337  0.1636 -0.3126 -0.0804
  438SOL     OW 1749   0.899   2.620   1.936 -0.4073 -0.2720  0.5543
  438SOL    HW1 1750   0.871   2.598   2.022 -0.0901  1.3573 -0.6879
  438SOL    HW2 1751   0.842   2.592   1.863 -0.2511 -2.2151  0.4702
  438SOL     MW 1752   0.888   2.613   1.938 -0.3448 -0.3134  0.3793
  439SOL     OW 1753   1.101   2.124   0.357 -0.4709 -0.2499  0.2297
  439SOL    HW1 1754   1.087   2.160   0.445  2.8199 -0.8409 -0.9911
  439SOL    HW2 1755   1.118   2.212   0.318  1.1430 -0.3446 -1.9882
  439SOL     MW 1756   1.101   2.141   0.364  0.1762 -0.3404 -0.2240
  440SOL     OW 1757   1.629   2.896   3.040  0.8994  0.2025  0.1595
  440SOL    HW1 1758   1.596   2.907   3.126 -0.3287  0.2315 -0.2109
  440SOL    HW2 1759   1.673   2.809   3.044  1.3243 -2.8410 -0.1027
  440SOL     MW 1760   1.630   2.886   3.052  0.7934 -0.1953  0.0760
  441SOL     OW 1761   0.335   2.613   0.527  0.3793 -0.0412 -0.1190
  441SOL    HW1 1762   0.313   2.597   0.430  0.8744 -1.9581  0.1172
  441SOL    HW2 1763   0.374   2.697   0.534  2.0288  0.2354  0.1945
  441SOL     MW 1764   0.337   2.622   0.515  0.6623 -0.2576 -0.0465
  442SOL     OW 1765   3.053   2.341   0.618  0.0951  0.0081  0.1510
  442SOL    HW1 1766   3.074   2.438   0.619  0.2394  0.0924  1.4502
  442SOL    HW2 1767   2.965   2.326   0.650  0.0804  1.6034 -0.7290
  442SOL     MW 1768   3.044   2.352   0.622  0.1122  0.2297  0.2063
  443SOL     OW 1769   1.400   1.774   1.844 -1.4123 -0.1268  0.4774
  443SOL    HW1 1770   1.368   1.835   1.777 -0.5662  1.1958 -1.1485
  443SOL    HW2 1771   1.340   1.705   1.857  0.2190 -0.3927 -1.6846
  443SOL     MW 1772   1.388   1.773   1.837 -1.0855  0.0126 -0.0224
  444SOL     OW 1773   0.913   2.584   1.554  0.1083 -0.4955 -0.1756
  444SOL    HW1 1774   0.963   2.518   1.516  1.3481  1.2970  1.1836
  444SOL    HW2 1775   0.836   2.550   1.604 -0.4925  0.4257 -0.9226
  444SOL     MW 1776   0.910   2.571   1.556  0.1926 -0.1375 -0.0948
  445SOL     OW 1777   0.933   0.065   1.279  0.2062 -0.0686 -0.7217
  445SOL    HW1 1778   0.882   0.150   1.266 -1.3687  2.6395  1.4881
  445SOL    HW2 1779   1.017   0.079   1.230  1.2275  1.6237  0.3672
  445SOL     MW 1780   0.937   0.078   1.271  0.1331  0.5120 -0.2865
  446SOL     OW 1781   2.683   2.824   1.084 -0.0120  0.6972 -0.1218
  446SOL    HW1 1782   2.654   2.872   1.002 -1.1820  1.8819 -0.1276
  446SOL    HW2 1783   2.718   2.735   1.059  1.2681  1.3021 -0.8145
  446SOL     MW 1784   2.684   2.818   1.070  0.0025  0.9333 -0.2140
  447SOL     OW 1785   3.023   2.056   1.679 -0.2259  0.4101 -0.7140
  447SOL    HW1 1786   3.088   1.997   1.724 -0.8929  0.1158  0.5188
  447SOL    HW2 1787   2.946   2.013   1.639  0.7589  0.1384 -0.1217
  447SOL     MW 1788   3.022   2.043   1.679 -0.1840  0.3354 -0.4732
  448SOL     OW 1789   1.686   2.376   1.690 -0.7357 -0.2116 -0.4794
  448SOL    HW1 1790   1.615   2.316   1.664 -1.1625  0.4971 -2.4378
  448SOL    HW2 1791   1.642   2.463   1.692  4.3154 -2.5785 -1.1671
  448SOL     MW 1792   1.671   2.379   1.687 -0.1256 -0.4303 -0.8285
  449SOL     OW 1793   0.769   2.910   0.401 -0.2310 -1.2115 -0.7172
  449SOL    HW1 1794   0.696   2.889   0.341  0.6167 -0.9391 -1.0497
  449SOL    HW2 1795   0.725   2.919   0.488  2.8931 -0.8511 -1.7230
  449SOL     MW 1796   0.754   2.908   0.405  0.2931 -1.1280 -0.8938
  450SOL     OW 1797   1.183   2.435   0.707  0.2600 -0.3604 -0.1009
  450SOL    HW1 1798   1.192   2.366   0.776 -0.2126  1.2644 -0.9084
  450SOL    HW2 1799   1.275   2.427   0.671 -1.6002  1.1236  0.9194
  450SOL     MW 1800   1.196   2.425   0.711 -0.0478  0.0498 -0.0728
  451SOL     OW 1801   0.588   2.009   1.641  0.6266  0.2201 -0.4483
  451SOL    HW1 1802   0.647   2.078   1.629  0.2705  0.3956  1.0406
  451SOL    HW2 1803   0.576   1.975   1.551 -2.5437 -0.3584 -0.7773
  451SOL     MW 1804   0.594   2.014   1.628  0.1613  0.1669 -0.2953
  452SOL     OW 1805   0.278   2.744   0.060  0.1127  0.1035 -0.0754
  452SOL    HW1 1806   0.367   2.764   0.043 -4.3367  0.1427 -2.7587
  452SOL    HW2 1807   0.246   2.746  -0.034  1.4286 -0.6198 -1.3192
  452SOL     MW 1808   0.286   2.747   0.045 -0.3007  0.0132 -0.5936
  453SOL     OW 1809   0.410   3.007   1.715 -0.8308  0.0362  0.6409
  453SOL    HW1 1810   0.506   2.987   1.695  2.0357  2.8488  0.0406
  453SOL    HW2 1811   0.382   3.026   1.625 -0.3826  1.9942 -0.6314
  453SOL     MW 1812   0.419   3.007   1.701 -0.3935  0.6656  0.3938
  454SOL     OW 1813   1.024   2.700   1.222  0.5090 -0.2289  0.6200
  454SOL    HW1 1814   0.966   2.626   1.227  1.3833 -0.5800 -0.6057
  454SOL    HW2 1815   0.991   2.759   1.154  1.4273 -0.3447 -0.9863
  454SOL     MW 1816   1.012   2.698   1.214  0.7455 -0.2905  0.2464
  455SOL     OW 1817   1.529   2.928   0.207 -0.2136 -0.2708 -0.5741
  455SOL    HW1 1818   1.597   2.906   0.270 -1.5526 -0.7306  1.4640
  455SOL    HW2 1819   1.453   2.872   0.225 -2.8064 -1.0469  1.3056
  455SOL     MW 1820   1.528   2.917   0.218 -0.7324 -0.4339 -0.0572
  456SOL     OW 1821   2.878   0.367   1.323  0.4329 -0.0845  0.2849
  456SOL    HW1 1822   2.837   0.298   1.267 -1.2122 -1.0405 -0.5136
  456SOL    HW2 1823   2.951   0.386   1.264 -0.0952 -2.3188 -0.5565
  456SOL     MW 1824   2.882   0.360   1.308  0.1462 -0.5054  0.0686
  457SOL     OW 1825   0.920   1.576   2.997  0.1126 -0.0655  0.4310
  457SOL    HW1 1826   0.848   1.567   3.059  2.6200  1.7506  0.2837
  457SOL    HW2 1827   0.979   1.495   3.006  0.9133  1.3816 -1.5987
  457SOL     MW 1828   0.918   1.564   3.006  0.5490  0.3651  0.1437
  458SOL     OW 1829   1.463   1.410   0.609  0.2532 -0.1422 -0.6321
  458SOL    HW1 1830   1.389   1.463   0.641 -1.7609 -0.4331 -0.5116
  458SOL    HW2 1831   1.436   1.377   0.517  0.6834  0.5199 -0.6224
  458SOL     MW 1832   1.450   1.413   0.601  0.0442 -0.0932 -0.6149
  459SOL     OW 1833   1.557   0.117   0.232 -0.0315  0.1410  0.0312
  459SOL    HW1 1834   1.544   0.023   0.218 -0.2519 -0.3518 -1.6458
  459SOL    HW2 1835   1.500   0.173   0.171  0.2830 -2.4172 -1.4047
  459SOL     MW 1836   1.548   0.112   0.222 -0.0191 -0.2615 -0.3795
  460SOL     OW 1837   1.791   2.146   0.655  0.3303 -0.0173  0.0645
  460SOL    HW1 1838   1.696   2.173   0.667  2.4344 -2.5677  0.2426
  460SOL    HW2 1839   1.786   2.059   0.617 -0.3572 -0.8160  0.0995
  460SOL     MW 1840   1.778   2.138   0.652  0.5172 -0.4592  0.0926
  461SOL     OW 1841   0.513   2.427   0.622 -0.5885  0.0447  0.1043
  461SOL    HW1 1842   0.448   2.483   0.575  0.1775 -0.6025 -0.7192
  461SOL    HW2 1843   0.475   2.422   0.713 -1.8436  4.1705 -1.8194
  461SOL     MW 1844   0.500   2.434   0.628 -0.6530  0.5036 -0.2582
  462SOL     OW 1845   0.330   0.246   1.272  0.1111  0.2289  0.2405
  462SOL    HW1 1846   0.363   0.164   1.213  0.7288 -2.8943  0.0489
  462SOL    HW2 1847   0.409   0.279   1.311 -3.8198  0.5202 -1.1631
  462SOL     MW 1848   0.345   0.239   1.269 -0.3261 -0.1447  0.0301
  463SOL     OW 1849   0.944   3.096   0.679 -0.4520 -0.1193 -0.0249
  463SOL    HW1 1850   0.961   3.092   0.585 -1.7905 -1.8846 -1.0524
  463SOL    HW2 1851   0.857   3.130   0.683  1.6738 -1.1336  0.1170
  463SOL     MW 1852   0.934   3.100   0.667 -0.3481 -0.4860 -0.1418
  464SOL     OW 1853   0.763   3.028   2.227  0.5928  0.5460  0.2063
  464SOL    HW1 1854   0.752   2.920   2.228 -1.2105 -0.4630 -2.0001
  464SOL    HW2 1855   0.782   3.053   2.317 -2.6055  1.4357  2.3626
  464SOL     MW 1856   0.764   3.017   2.239 -0.0671  0.5303  0.1997
  465SOL     OW 1857   0.675   0.306   0.513 -0.5540 -0.2414 -0.4024
  465SOL    HW1 1858   0.660   0.268   0.601 -1.8809  0.4820  0.6065
  465SOL    HW2 1859   0.719   0.241   0.460 -0.3262 -0.6459 -2.2368
  465SOL     MW 1860   0.679   0.292   0.518 -0.6990 -0.1993 -0.5113
  466SOL     OW 1861   1.080   2.018   0.741  0.1457  0.4615  0.3935
  466SOL    HW1 1862   1.080   1.949   0.675 -0.8386  0.1632 -0.0053
  466SOL    HW2 1863   1.070   2.103   0.690 -1.8496 -0.3388 -1.7323
  466SOL     MW 1864   1.079   2.020   0.725 -0.2475  0.3166  0.0604
  467SOL     OW 1865   1.260   2.253   0.897  0.3907  0.0371 -0.4515
  467SOL    HW1 1866   1.347   2.303   0.908  1.5379  0.0926 -3.0682
  467SOL    HW2 1867   1.293   2.167   0.879 -2.2185 -0.6055 -1.2766
  467SOL     MW 1868   1.276   2.248   0.896  0.1978 -0.0404 -0.9056
  468SOL     OW 1869   0.359   2.584   2.011  0.0859 -0.0030 -0.2460
  468SOL    HW1 1870   0.387   2.533   1.929  1.6942  2.4302 -1.4801
  468SOL    HW2 1871   0.372   2.681   1.990  1.0567 -1.3692  0.6038
  468SOL     MW 1872   0.364   2.590   1.997  0.4262  0.1378 -0.2967
  469SOL     OW 1873   0.386   2.128   1.779  0.0722  0.1202 -0.1984
  469SOL    HW1 1874   0.315   2.060   1.780 -0.6626 -1.2863  0.6926
  469SOL    HW2 1875   0.451   2.089   1.721 -1.8599  0.8880 -2.2479
  469SOL     MW 1876   0.385   2.114   1.771 -0.2796  0.0359 -0.3513
  470SOL     OW 1877   3.059   2.615   0.138  0.3067  0.3641  0.1296
  470SOL    HW1 1878   2.980   2.584   0.181  0.5492  1.3077  2.7655
  470SOL    HW2 1879   3.037   2.616   0.045  0.8339 -1.4383 -1.0674
  470SOL     MW 1880   3.046   2.611   0.131  0.4083  0.2508  0.3194
  471SOL     OW 1881   1.227   2.720   1.392 -0.3345 -0.0111 -0.3114
  471SOL    HW1 1882   1.176   2.734   1.471 -0.6442 -2.2817  0.7098
  471SOL    HW2 1883   1.156   2.713   1.325 -2.0051  0.6721 -1.5159
  471SOL     MW 1884   1.211   2.721   1.393 -0.5958 -0.2206 -0.3356
  472SOL     OW 1885   2.886   2.060   0.380  0.6148 -0.1693 -0.2014
  472SOL    HW1 1886   2.914   2.035   0.284 -0.0201 -2.0493  0.7720
  472SOL    HW2 1887   2.846   1.989   0.432 -1.6035  0.1357  0.8471
  472SOL     MW 1888   2.884   2.047   0.374  0.2384 -0.3771  0.0653
  473SOL     OW 1889   0.788   2.496   1.301 -0.4775 -0.7837  0.7650
  473SOL    HW1 1890   0.861   2.432   1.288  2.6172 -0.3431  3.8880
  473SOL    HW2 1891   0.777   2.516   1.396 -0.1173 -1.7368 -2.7607
  473SOL     MW 1892   0.796   2.490   1.312 -0.0217 -0.8513  0.7119
  474SOL     OW 1893   0.769   2.266   1.697  0.2363  0.3579 -0.4643
  474SOL    HW1 1894   0.836   2.260   1.764  0.0657  0.6300  0.7792
  474SOL    HW2 1895   0.809   2.255   1.616  1.4387 -1.8389  1.7603
  474SOL     MW 1896   0.783   2.264   1.695  0.3724  0.1040 -0.0067
  475SOL     OW 1897   1.615   0.059   1.466  0.1672  0.1764  0.3842
  475SOL    HW1 1898   1.548   0.080   1.404 -2.9287 -1.4886  1.3040
  475SOL    HW2 1899   1.605  -0.033   1.481  1.2819 -0.3856 -1.7165
  475SOL     MW 1900   1.605   0.050   1.460 -0.0942 -0.1174  0.2284
  476SOL     OW 1901   1.501   2.634   0.856  0.1455 -0.4622  0.1695
  476SOL    HW1 1902   1.439   2.645   0.936 -2.4271 -2.8076  2.1794
  476SOL    HW2 1903   1.505   2.725   0.824  1.2206  1.5528  0.8035
  476SOL     MW 1904   1.493   2.648   0.863 -0.0521 -0.5058  0.5184
  477SOL     OW 1905   0.825   2.505   0.676 -0.3818  0.0159 -0.3678
  477SOL    HW1 1906   0.865   2.572   0.610  2.4871  2.4826 -1.7585
  477SOL    HW2 1907   0.790   2.443   0.610 -1.9087  1.0054 -1.5374
  477SOL     MW 1908   0.826   2.506   0.658 -0.2048  0.4719 -0.7056
  478SOL     OW 1909   0.184   2.641   0.896 -0.4811 -0.0080 -0.1242
  478SOL    HW1 1910   0.203   2.732   0.876  1.3105  2.3026 -0.6697
  478SOL    HW2 1911   0.244   2.578   0.869  0.3152  1.6812 -0.9581
  478SOL     MW 1912   0.195   2.645   0.890 -0.1397  0.5198 -0.3062
  479SOL     OW 1913   1.437   1.922   1.300 -0.2461 -0.4393 -0.0890
  479SOL    HW1 1914   1.399   1.980   1.367 -0.1724  0.1468 -0.5193
  479SOL    HW2 1915   1.522   1.900   1.337 -2.6796  0.4899  1.5360
  479SOL     MW 1916   1.443   1.927   1.314 -0.5575 -0.2394  0.0687
  480SOL     OW 1917   1.848   2.385   1.380 -0.4112 -0.0053  0.0793
  480SOL    HW1 1918   1.869   2.304   1.428  0.5888 -0.4299  0.6599
  480SOL    HW2 1919   1.892   2.381   1.298  2.4502  0.4569  2.1206
  480SOL     MW 1920   1.856   2.374   1.376  0.0983 -0.0003  0.4252
  481SOL     OW 1921   1.179   0.094   1.105 -0.0470 -0.5834 -0.3364
  481SOL    HW1 1922   1.221   0.052   1.033 -0.3483 -1.5274  2.6021
  481SOL    HW2 1923   1.183   0.191   1.094  0.0358  1.6862  0.4520
  481SOL     MW 1924   1.185   0.102   1.094 -0.0758 -0.4085  0.1553
  482SOL     OW 1925   0.964   0.021   0.403  0.1386 -0.1464  0.1462
  482SOL    HW1 1926   0.893  -0.037   0.385 -0.2844  0.2663 -1.3007
  482SOL    HW2 1927   0.960   0.094   0.342 -0.5524 -0.4420  0.1346
  482SOL     MW 1928   0.954   0.023   0.392 -0.0084 -0.1309 -0.0462
  483SOL     OW 1929   0.413   2.875   0.517 -0.3731  0.6858 -0.0687
  483SOL    HW1 1930   0.348   2.880   0.444 -1.1575  0.3825 -0.8400
  483SOL    HW2 1931   0.377   2.939   0.588 -0.0768 -0.8728 -0.2842
  483SOL     MW 1932   0.400   2.884   0.517 -0.4375  0.4402 -0.1989
  484SOL     OW 1933   1.684   1.886   1.418 -0.2503 -0.5254 -0.3255
  484SOL    HW1 1934   1.749   1.952   1.399 -0.6440  0.3217 -0.7749
  484SOL    HW2 1935   1.678   1.883   1.513  0.3304 -0.7543 -0.9655
  484SOL     MW 1936   1.692   1.895   1.428 -0.2257 -0.4438 -0.4692
  485SOL     OW 1937   0.560   2.339   0.296  0.0859  0.6215 -0.6753
  485SOL    HW1 1938   0.601   2.368   0.370  2.5862  1.0381 -1.6375
  485SOL    HW2 1939   0.483   2.392   0.309 -4.8042 -1.6258  1.7057
  485SOL     MW 1940   0.555   2.350   0.308 -0.2294  0.3799 -0.4881
  486SOL     OW 1941   0.097   2.467   1.401  0.6613 -0.0190 -0.4007
  486SOL    HW1 1942   0.144   2.546   1.379 -3.4761 -0.4499 -1.1807
  486SOL    HW2 1943   0.098   2.475   1.494 -1.1246  2.2797 -2.5693
  486SOL     MW 1944   0.103   2.478   1.410 -0.1202  0.2274 -0.7898
  487SOL     OW 1945   1.265   1.596   1.058  0.0691  0.0067  0.8281
  487SOL    HW1 1946   1.215   1.679   1.084  0.6093  1.3779  2.1642
  487SOL    HW2 1947   1.357   1.632   1.037  2.9307 -0.5006  0.8902
  487SOL     MW 1948   1.271   1.612   1.058  0.5180  0.1207  1.0126
  488SOL     OW 1949   1.565   1.856   0.574  0.7866  0.0509  0.2597
  488SOL    HW1 1950   1.652   1.867   0.538 -0.7041 -1.2132 -0.7811
  488SOL    HW2 1951   1.524   1.940   0.562  2.8655  0.5525  1.3793
  488SOL     MW 1952   1.571   1.868   0.568  0.8642 -0.0497  0.2701
  489SOL     OW 1953   0.772   0.800   0.489 -0.0962  0.1275  0.1395
  489SOL    HW1 1954   0.806   0.716   0.456  2.3185 -1.2557  1.1949
  489SOL    HW2 1955   0.754   0.777   0.577  0.5627  0.1578  0.0099
  489SOL     MW 1956   0.774   0.786   0.496  0.3094 -0.0510  0.2616
  490SOL     OW 1957   1.406   2.108   0.431 -0.0811 -0.2393 -0.2097
  490SOL    HW1 1958   1.457   2.190   0.411  1.4943  1.3412 -0.4895
  490SOL    HW2 1959   1.312   2.125   0.414  1.7152  2.2759  2.2816
  490SOL     MW 1960   1.400   2.121   0.426  0.3638  0.3011  0.0821
  491SOL     OW 1961   1.204   2.966   0.414 -0.5457  0.3154  0.2097
  491SOL    HW1 1962   1.252   3.012   0.485 -0.3131 -0.4197  0.8081
  491SOL    HW2 1963   1.136   3.027   0.405  0.7442  1.4493  0.4842
  491SOL     MW 1964   1.202   2.980   0.423 -0.3448  0.3680  0.3249
  492SOL     OW 1965   1.488   2.138   0.688  0.8771 -0.0495  0.7118
  492SOL    HW1 1966   1.469   2.117   0.593 -0.9695  0.2885 -1.5340
  492SOL    HW2 1967   1.434   2.081   0.748  0.7057 -1.5716  0.4136
  492SOL     MW 1968   1.478   2.127   0.684  0.6108 -0.2057  0.3761
  493SOL     OW 1969   0.162   2.934   0.411 -0.3816 -0.3855 -0.8670
  493SOL    HW1 1970   0.108   2.995   0.464  1.3863 -0.8829  0.0852
  493SOL    HW2 1971   0.159   2.967   0.316  0.8719  0.8896 -0.8867
  493SOL     MW 1972   0.154   2.947   0.406  0.0171 -0.2829 -0.7440
  494SOL     OW 1973   0.437   2.409   1.788  0.5007  0.0319 -0.2346
  494SOL    HW1 1974   0.405   2.316   1.809 -1.0993 -0.9228  0.4364
  494SOL    HW2 1975   0.494   2.404   1.716 -1.2202  1.7159  1.7763
  494SOL     MW 1976   0.441   2.396   1.781  0.0625  0.1281  0.1193
  495SOL     OW 1977   2.924   1.639   2.725 -0.1297  0.3742 -0.3955
  495SOL    HW1 1978   2.901   1.715   2.774  1.4212 -0.3123  0.4148
  495SOL    HW2 1979   2.916   1.559   2.776 -1.8974  0.1725 -2.0863
  495SOL     MW 1980   2.920   1.639   2.738 -0.1583  0.2570 -0.5117
  496SOL     OW 1981   2.814   2.293   2.642  0.6722  0.1022  0.0681
  496SOL    HW1 1982   2.822   2.210   2.687  2.7672 -1.7559 -1.6232
  496SOL    HW2 1983   2.891   2.343   2.670  0.5293  0.7996  2.3290
  496SOL     MW 1984   2.825   2.289   2.652  0.9297 -0.0510  0.1433
  497SOL     OW 1985   1.498   2.301   2.493  0.0149 -0.1171 -0.2027
  497SOL    HW1 1986   1.497   2.257   2.408 -0.4328  0.3783  0.9211
  497SOL    HW2 1987   1.424   2.254   2.542  0.0203  0.0633  1.9368
  497SOL     MW 1988   1.488   2.289   2.488 -0.0434 -0.0280  0.2278
  498SOL     OW 1989   1.596   2.750   2.228  0.1831 -0.1024  0.5410
  498SOL    HW1 1990   1.617   2.663   2.189  0.4274 -1.6761 -3.3838
  498SOL    HW2 1991   1.648   2.750   2.310 -0.0022 -2.5779 -2.3056
  498SOL     MW 1992   1.606   2.739   2.234  0.1909 -0.6367 -0.3524
  499SOL     OW 1993   0.923   0.149   0.010  0.4480  0.0994 -0.3244
  499SOL    HW1 1994   0.879   0.172   0.093 -0.8133  0.8092  0.6006
  499SOL    HW2 1995   0.923   0.056   0.014  1.5323 -1.1100 -0.6044
  499SOL     MW 1996   0.917   0.140   0.022  0.4246  0.0335 -0.2393
  500SOL     OW 1997   1.038   2.452   2.793 -0.2449 -0.2967  0.2298
  500SOL    HW1 1998   1.080   2.453   2.882  1.2342  2.8585 -0.8696
  500SOL    HW2 1999   0.961   2.502   2.813 -0.4339 -2.6798  0.1164
  500SOL     MW 2000   1.034   2.459   2.808 -0.0747 -0.1949  0.0698
  501SOL     OW 2001   1.729   2.221   3.079  0.2962 -0.0800 -0.5515
  501SOL    HW1 2002   1.679   2.299   3.106 -0.2201 -0.9005 -1.3039
  501SOL    HW2 2003   1.820   2.233   3.108 -0.7931  1.4461  1.4661
  501SOL     MW 2004   1.734   2.233   3.086  0.0844  0.0131 -0.3846
  502SOL     OW 2005   0.140   2.785   2.924 -0.2771  0.2346  0.2246
  502SOL    HW1 2006   0.076   2.717   2.906 -1.8386  0.9657  1.1533
  502SOL    HW2 2007   0.125   2.851   2.858 -1.7578 -0.5535 -2.1829
  502SOL     MW 2008   0.129   2.785   2.913 -0.6785  0.2271  0.0295
  503SOL     OW 2009   1.157   2.609   2.090 -0.3685  0.1290 -0.5183
  503SOL    HW1 2010   1.225   2.597   2.015  1.2150 -1.7348 -1.0461
  503SOL    HW2 2011   1.077   2.622   2.039 -1.0397  0.3456  1.9122
  503SOL     MW 2012   1.156   2.609   2.073 -0.2481 -0.0884 -0.2673
  504SOL     OW 2013   0.085   2.649   2.069  0.0547 -0.0788 -0.3698
  504SOL    HW1 2014   0.172   2.619   2.047  0.9007 -0.1257  1.7120
  504SOL    HW2 2015   0.046   2.578   2.120 -2.8279  1.0071  1.1951
  504SOL     MW 2016   0.091   2.635   2.073 -0.2140  0.0583  0.1114
  505SOL     OW 2017   1.645   2.675   2.739 -0.3189  0.3619  0.0227
  505SOL    HW1 2018   1.687   2.699   2.650 -1.8720  0.2873 -2.4118
  505SOL    HW2 2019   1.584   2.749   2.752  0.7083 -0.9971  0.9396
  505SOL     MW 2020   1.643   2.688   2.729 -0.3883  0.1727 -0.1775
  506SOL     OW 2021   1.583   0.034   2.847  0.3902  0.5961 -0.2488
  506SOL    HW1 2022   1.614  -0.027   2.916 -0.3975 -3.0452  1.3503
  506SOL    HW2 2023   1.632  -0.003   2.772  2.1039 -0.7041 -0.9667
  506SOL     MW 2024   1.594   0.021   2.846  0.5124 -0.0559 -0.1326
  507SOL     OW 2025   0.870   2.683   2.848  0.1179  0.3492 -0.1916
  507SOL    HW1 2026   0.907   2.750   2.792 -2.2486  0.2729  0.2915
  507SOL    HW2 2027   0.773   2.687   2.847 -0.0622 -1.9809  3.6033
  507SOL     MW 2028   0.862   2.692   2.841 -0.2181  0.0317  0.3729
  508SOL     OW 2029   1.243   2.119   2.535  0.2827 -0.2905 -0.5928
  508SOL    HW1 2030   1.302   2.117   2.613  1.3591  1.0260  2.0460
  508SOL    HW2 2031   1.152   2.134   2.564  3.5306  2.4974 -1.9342
  508SOL     MW 2032   1.239   2.121   2.549  0.8532  0.2511 -0.4216
  509SOL     OW 2033   0.602   2.616   2.813  0.5223  0.2511 -0.2539
  509SOL    HW1 2034   0.592   2.562   2.739  1.4833  0.0172  1.1775
  509SOL    HW2 2035   0.567   2.702   2.789 -1.9403  0.5205 -3.3512
  509SOL     MW 2036   0.596   2.620   2.800  0.3242  0.2558 -0.4737
  510SOL     OW 2037   1.537   2.603   1.667  1.2201 -0.2837 -0.0763
  510SOL    HW1 2038   1.564   2.691   1.617  0.7009  0.9003  1.0339
  510SOL    HW2 2039   1.457   2.624   1.718 -3.8902 -0.3519 -0.8681
  510SOL     MW 2040   1.530   2.617   1.667  0.4773 -0.1365 -0.0342
  511SOL     OW 2041   0.339   2.589   2.549  0.9356  0.4111 -0.1393
  511SOL    HW1 2042   0.427   2.553   2.576 -1.1344  1.4923  0.6912
  511SOL    HW2 2043   0.332   2.560   2.456 -0.0649 -1.6224  0.2119
  511SOL     MW 2044   0.350   2.580   2.540  0.5305  0.2855  0.0166
  512SOL     OW 2045   1.012   2.019   2.888  0.1072  0.4339 -0.1463
  512SOL    HW1 2046   0.947   2.048   2.951  1.2308 -0.0288  2.2081
  512SOL    HW2 2047   1.045   1.931   2.910 -0.0703  0.0697 -1.4509
  512SOL     MW 2048   1.008   2.011   2.899  0.2320  0.3248 -0.0078
  513SOL     OW 2049   1.692   2.468   2.190  0.3725 -0.4419  0.4548
  513SOL    HW1 2050   1.770   2.513   2.141  4.1166  1.9083 -0.7285
  513SOL    HW2 2051   1.711   2.444   2.283 -0.4513 -0.0314  2.7030
  513SOL     MW 2052   1.705   2.471   2.196  0.7578 -0.0777  0.5953
  514SOL     OW 2053   0.209   2.373   2.656  0.5309  0.4606 -0.1348
  514SOL    HW1 2054   0.251   2.464   2.645  3.7744  0.6318  0.6150
  514SOL    HW2 2055   0.259   2.337   2.727 -0.2237 -0.0794  0.9288
  514SOL     MW 2056   0.221   2.380   2.664  0.8593  0.4119  0.1045
  515SOL     OW 2057   1.077   2.002   1.911 -0.0245  0.1574  0.1209
  515SOL    HW1 2058   1.040   2.087   1.905 -3.0603  0.7169  1.5201
  515SOL    HW2 2059   1.129   2.002   1.994 -1.2345  2.1268 -0.5419
  515SOL     MW 2060   1.079   2.013   1.921 -0.5847  0.4911  0.2181
  516SOL     OW 2061   1.390   2.515   2.956  0.5346 -0.3202 -0.1443
  516SOL    HW1 2062   1.410   2.497   2.862  1.2848  1.0632 -1.1199
  516SOL    HW2 2063   1.297   2.490   2.960 -0.7334  4.5201  1.5906
  516SOL     MW 2064   1.381   2.509   2.944  0.4663  0.5010 -0.0441
  517SOL     OW 2065   0.621   2.371   2.263 -0.2843  0.4005 -0.1854
  517SOL    HW1 2066   0.536   2.413   2.295  0.4662  2.9797  1.0914
  517SOL    HW2 2067   0.595   2.298   2.198  0.3807 -5.5869  0.1490
  517SOL     MW 2068   0.606   2.367   2.258 -0.0975 -0.0492  0.0272
  518SOL     OW 2069   1.804   0.025   3.093  0.8445  0.2410 -0.1324
  518SOL    HW1 2070   1.759   0.091   3.145 -2.1903 -0.9219  1.5243
  518SOL    HW2 2071   1.753  -0.053   3.107  0.1546  1.3933  3.8108
  518SOL     MW 2072   1.791   0.023   3.102  0.3530  0.2396  0.6065
  519SOL     OW 2073   0.716   2.551   1.732 -0.0909  0.1341 -0.4094
  519SOL    HW1 2074   0.723   2.452   1.730 -1.1775 -2.5292  1.2497
  519SOL    HW2 2075   0.640   2.561   1.793 -0.2960  0.4271  0.4725
  519SOL     MW 2076   0.707   2.539   1.740 -0.2614 -0.1787 -0.0741
  520SOL     OW 2077   1.217   2.204   2.946 -0.2642  0.0347  0.0450
  520SOL    HW1 2078   1.134   2.148   2.926 -1.2767  0.1837  1.8305
  520SOL    HW2 2079   1.258   2.167   3.030 -0.5336  0.6572  0.3847
  520SOL     MW 2080   1.212   2.192   2.954 -0.4333  0.1365  0.3254
  521SOL     OW 2081   1.767   2.063   2.246  0.2024  0.0471  0.2601
  521SOL    HW1 2082   1.762   2.049   2.150  0.7006 -1.3347 -1.2665
  521SOL    HW2 2083   1.767   1.974   2.288 -3.2312 -1.4061 -0.9977
  521SOL     MW 2084   1.766   2.049   2.239 -0.1849 -0.3269 -0.1073
  522SOL     OW 2085   2.907   2.519   2.272 -0.1219  0.4319 -0.0587
  522SOL    HW1 2086   2.993   2.492   2.285  1.3143 -0.8609 -0.8747
  522SOL    HW2 2087   2.918   2.611   2.259 -0.1080 -0.5923  0.0002
  522SOL     MW 2088   2.920   2.528   2.272  0.0694  0.1262 -0.1586
  523SOL     OW 2089   0.903   1.517   2.142  0.2524  0.1576  0.1473
  523SOL    HW1 2090   0.870   1.572   2.063 -0.7348 -1.1654 -1.0431
  523SOL    HW2 2091   0.895   1.435   2.092 -1.6336 -2.1817  2.2838
  523SOL     MW 2092   0.898   1.514   2.125 -0.1267 -0.3256  0.2721
  524SOL     OW 2093   0.604   2.373   2.942  0.1749  0.3657 -0.0487
  524SOL    HW1 2094   0.607   2.454   2.891  1.0760  1.1524 -0.3041
  524SOL    HW2 2095   0.688   2.335   2.933  0.2900  3.3085 -0.3229
  524SOL     MW 2096   0.616   2.379   2.934  0.3090  0.8578 -0.1185
  525SOL     OW 2097   0.466   2.193   2.119  0.3756  0.2078  0.0551
  525SOL    HW1 2098   0.429   2.111   2.164 -0.0366 -2.6316  2.0501
  525SOL    HW2 2099   0.533   2.165   2.051 -0.2116 -0.9059  3.1252
  525SOL     MW 2100   0.470   2.178   2.116  0.2437 -0.3137  0.7234
  526SOL     OW 2101   0.693   2.152   1.979 -0.0300 -0.4469  0.7011
  526SOL    HW1 2102   0.700   2.188   1.884  1.1347 -0.1046 -1.4707
  526SOL    HW2 2103   0.772   2.183   2.034 -2.0750  0.3532 -1.6552
  526SOL     MW 2104   0.705   2.161   1.974 -0.1461 -0.2962  0.1037
  527SOL     OW 2105   1.295   1.911   2.057  0.3658  0.0060  0.3697
  527SOL    HW1 2106   1.273   1.855   2.134  1.1539 -0.0610  0.6588
  527SOL    HW2 2107   1.338   1.862   1.990  1.7516  0.3160 -1.7654
  527SOL     MW 2108   1.298   1.898   2.058  0.6526  0.0381  0.1261
  528SOL     OW 2109   0.652   2.929   2.933  0.4913  0.6631 -0.1842
  528SOL    HW1 2110   0.644   3.025   2.940  0.7352  0.7098 -0.7967
  528SOL    HW2 2111   0.617   2.912   2.841 -1.8489  0.5425 -0.8280
  528SOL     MW 2112   0.647   2.939   2.922  0.2147  0.6533 -0.3500
  529SOL     OW 2113   0.956   2.295   1.898 -0.8082  0.7632 -0.3333
  529SOL    HW1 2114   1.017   2.313   1.970 -1.4955 -0.2230 -2.5950
  529SOL    HW2 2115   1.006   2.352   1.830  0.4374  2.7199  1.5963
  529SOL     MW 2116   0.971   2.305   1.898 -0.7345  0.8912 -0.3771
  530SOL     OW 2117   1.140   2.452   3.029 -0.1832 -0.7085  0.2722
  530SOL    HW1 2118   1.102   2.486   3.105  0.3873  0.7212 -2.7224
  530SOL    HW2 2119   1.131   2.355   3.039 -1.7257 -0.1997  2.0366
  530SOL     MW 2120   1.134   2.444   3.040 -0.3114 -0.4527  0.1099
  531SOL     OW 2121   0.926   1.904   2.653  0.9720  0.2929  0.0519
  531SOL    HW1 2122   0.971   1.959   2.720  0.9627  1.2838 -1.1523
  531SOL    HW2 2123   0.874   1.832   2.693 -0.7075 -2.3044 -0.7830
  531SOL     MW 2124   0.925   1.902   2.667  0.7492  0.0810 -0.2171
  532SOL     OW 2125   1.699   0.284   2.819  0.0169 -0.3491  0.1734
  532SOL    HW1 2126   1.667   0.199   2.842  0.3590  2.4115 -1.5206
  532SOL    HW2 2127   1.763   0.299   2.896 -0.2461 -1.3889  1.8840
  532SOL     MW 2128   1.703   0.275   2.832  0.0273 -0.1221  0.1756
  533SOL     OW 2129   1.787   2.650   2.982  0.8898  0.4023  0.2234
  533SOL    HW1 2130   1.787   2.573   3.043  0.6530  1.7184  2.1256
  533SOL    HW2 2131   1.720   2.630   2.916 -0.0153 -3.3957 -0.1268
  533SOL     MW 2132   1.778   2.637   2.981  0.7391  0.0748  0.4282
  534SOL     OW 2133   1.747   2.412   2.477  0.1184 -0.6667 -0.2721
  534SOL    HW1 2134   1.660   2.380   2.494 -0.8166  1.0641  0.7510
  534SOL    HW2 2135   1.784   2.411   2.572  1.6497 -0.0640 -2.1093
  534SOL     MW 2136   1.741   2.407   2.491  0.1971 -0.3588 -0.3795
  535SOL     OW 2137   1.825   2.338   1.911  0.1074 -0.1577  0.8192
  535SOL    HW1 2138   1.789   2.361   1.824 -0.5000 -0.4321  2.2723
  535SOL    HW2 2139   1.922   2.353   1.906  2.1020 -0.0808  0.4167
  535SOL     MW 2140   1.833   2.343   1.899  0.2904 -0.1838  0.9578
  536SOL     OW 2141   0.458   1.796   2.003  0.0751  0.6373  0.3665
  536SOL    HW1 2142   0.453   1.785   1.908  4.3192  1.8890  1.7040
  536SOL    HW2 2143   0.545   1.834   2.023 -1.4805  0.1457  3.5286
  536SOL     MW 2144   0.469   1.799   1.993  0.4298  0.7376  0.9602
  537SOL     OW 2145   1.092   0.188   2.898  0.6265 -0.4639 -0.0781
  537SOL    HW1 2146   1.025   0.178   2.964 -0.3236  0.9366 -0.5723
  537SOL    HW2 2147   1.097   0.275   2.875 -1.4401 -2.1005  0.8532
  537SOL     MW 2148   1.084   0.198   2.904  0.2284 -0.4950 -0.0204
  538SOL     OW 2149   1.316   0.013   2.978  0.1804  0.1972 -0.0529
  538SOL    HW1 2150   1.281   0.086   2.928 -0.8087  2.1519  0.0767
  538SOL    HW2 2151   1.402   0.001   2.944 -0.1826  1.0947  0.9325
  538SOL     MW 2152   1.322   0.021   2.967  0.0020  0.5735  0.0942
  539SOL     OW 2153   0.781   2.735   2.500  0.0247  0.3614  0.1184
  539SOL    HW1 2154   0.841   2.801   2.531  0.6326  0.0738 -1.6961
  539SOL    HW2 2155   0.820   2.652   2.508 -2.4856 -0.7563  0.2854
  539SOL     MW 2156   0.794   2.732   2.505 -0.2263  0.1760 -0.0989
  540SOL     OW 2157   0.341   2.251   2.890  0.1900 -0.2250  0.6195
  540SOL    HW1 2158   0.431   2.266   2.920  0.8952  0.1015 -0.4933
  540SOL    HW2 2159   0.292   2.224   2.966 -0.7457  2.7002 -0.6411
  540SOL     MW 2160   0.346   2.250   2.904  0.1596  0.2041  0.3064
  541SOL     OW 2161   0.146   2.897   2.188 -0.1521  0.2675  0.4517
  541SOL    HW1 2162   0.143   2.816   2.135  0.7629  1.4262 -0.4432
  541SOL    HW2 2163   0.202   2.870   2.267  1.5242  0.1619 -0.2769
  541SOL     MW 2164   0.153   2.883   2.192  0.1898  0.4064  0.2375
  542SOL     OW 2165   0.974   2.222   2.634  0.7279  0.5606 -0.8863
  542SOL    HW1 2166   0.940   2.151   2.696  0.1123 -1.5826  0.7209
  542SOL    HW2 2167   1.015   2.288   2.692 -0.7320  1.5028  1.9217
  542SOL     MW 2168   0.975   2.221   2.650  0.4541  0.4021 -0.3037
  543SOL     OW 2169   1.433   2.508   2.673 -0.3436 -0.0733  0.1566
  543SOL    HW1 2170   1.461   2.446   2.608  2.8393 -0.5286 -1.0207
  543SOL    HW2 2171   1.509   2.565   2.695  0.5922  0.2428  1.5984
  543SOL     MW 2172   1.447   2.507   2.668  0.1998 -0.0917  0.1915
  544SOL     OW 2173   0.570   0.221   2.729  0.0067 -0.0381 -0.2501
  544SOL    HW1 2174   0.479   0.174   2.718 -0.8799  2.6294 -1.4993
  544SOL    HW2 2175   0.610   0.194   2.646 -1.5372  0.8534 -0.2191
  544SOL     MW 2176   0.563   0.211   2.716 -0.3140  0.4315 -0.4108
  545SOL     OW 2177   1.504   2.165   2.254  0.0000  0.0180  0.0291
  545SOL    HW1 2178   1.467   2.183   2.166 -1.1801  2.2856  0.6276
  545SOL    HW2 2179   1.599   2.128   2.251  1.6627 -0.2546  0.7496
  545SOL     MW 2180   1.512   2.162   2.242  0.0637  0.2812  0.2032
  546SOL     OW 2181   2.971   2.012   0.112  0.2043  0.6828  0.2870
  546SOL    HW1 2182   2.973   2.089   0.057 -2.0022  1.8521 -1.1288
  546SOL    HW2 2183   3.064   1.999   0.131 -0.6915 -1.4972  0.7418
  546SOL     MW 2184   2.984   2.021   0.108 -0.2050  0.5495  0.1602
  547SOL     OW 2185   0.192   3.008   0.172  0.4361 -0.1042  0.3027
  547SOL    HW1 2186   0.243   3.050   0.101 -1.2627 -1.1292  1.9267
  547SOL    HW2 2187   0.208   2.915   0.149 -1.3186 -2.5448  0.2402
  547SOL     MW 2188   0.201   3.001   0.160 -0.0195 -0.5615  0.5088
  548SOL     OW 2189   0.312   2.533   0.277 -0.4747  0.2267 -0.2570
  548SOL    HW1 2190   0.325   2.592   0.202  2.4019 -1.9863  1.1768
  548SOL    HW2 2191   0.247   2.474   0.248  0.9518  1.8168  0.7764
  548SOL     MW 2192   0.306   2.533   0.263  0.0930  0.1445  0.0685
  549SOL     OW 2193   0.712   1.888   2.082  0.3102 -0.0512 -0.3589
  549SOL    HW1 2194   0.709   1.976   2.049 -0.8929 -2.1984  0.7201
  549SOL    HW2 2195   0.714   1.889   2.175 -2.4349 -2.4878  0.7338
  549SOL     MW 2196   0.711   1.899   2.090 -0.2107 -0.6560 -0.0724
  550SOL     OW 2197   1.839   1.766   2.536 -0.2028  0.0121 -0.1879
  550SOL    HW1 2198   1.842   1.745   2.441 -2.0720 -1.2643  0.7258
  550SOL    HW2 2199   1.856   1.860   2.534 -1.5828 -3.2760 -0.5849
  550SOL     MW 2200   1.842   1.775   2.523 -0.6315 -0.5901 -0.1198
  551SOL     OW 2201   0.870   2.343   0.193 -0.0462  0.0440 -0.0563
  551SOL    HW1 2202   0.959   2.359   0.213 -2.3453  0.2181 -1.4287
  551SOL    HW2 2203   0.861   2.248   0.170 -1.3058  0.1635 -0.2996
  551SOL     MW 2204   0.880   2.332   0.193 -0.5157  0.0828 -0.2695
  552SOL     OW 2205   1.749   1.763   2.261 -0.8279 -0.2632 -0.4094
  552SOL    HW1 2206   1.659   1.720   2.271  0.2933 -2.2118 -0.9535
  552SOL    HW2 2207   1.776   1.741   2.161  0.1786 -0.7351 -4.3750
  552SOL     MW 2208   1.741   1.755   2.249 -0.5472 -0.5825 -1.0044
  553SOL     OW 2209   1.249   2.324   1.508 -0.1809 -0.5415 -0.3418
  553SOL    HW1 2210   1.276   2.230   1.505  0.7138 -0.5633  0.2462
  553SOL    HW2 2211   1.324   2.381   1.476 -1.9225  4.6575 -0.7482
  553SOL     MW 2212   1.263   2.319   1.504 -0.2927  0.1416 -0.3178
  554SOL     OW 2213   0.595   2.859   2.668 -0.2656  0.3018  0.2211
  554SOL    HW1 2214   0.553   2.928   2.610 -0.0572 -0.0746  1.3739
  554SOL    HW2 2215   0.649   2.800   2.611  0.3871 -0.0346  1.2620
  554SOL     MW 2216   0.596   2.860   2.653 -0.1520  0.2078  0.5105
  555SOL     OW 2217   0.589   2.463   2.587 -0.0361  0.9719  0.0298
  555SOL    HW1 2218   0.576   2.370   2.605  2.7187 -2.7240 -2.6634
  555SOL    HW2 2219   0.668   2.459   2.535  3.0349 -1.8332 -1.2339
  555SOL     MW 2220   0.598   2.450   2.583  0.7326  0.1142 -0.4923
  556SOL     OW 2221   0.940   1.806   0.168 -0.4536 -0.7501 -0.1087
  556SOL    HW1 2222   0.951   1.819   0.074 -2.2400  0.7292 -1.0178
  556SOL    HW2 2223   1.033   1.816   0.202  0.5109  0.7745  0.5539
  556SOL     MW 2224   0.954   1.809   0.160 -0.5621 -0.3538 -0.1412
  557SOL     OW 2225   0.910   2.684   0.508  0.2964 -0.0074  0.1523
  557SOL    HW1 2226   0.951   2.636   0.435  2.3360  0.1275 -0.6788
  557SOL    HW2 2227   0.870   2.761   0.466 -1.8167  3.8360 -0.4105
  557SOL     MW 2228   0.910   2.688   0.493  0.2867  0.5175 -0.0316
  558SOL     OW 2229   0.258   2.202   0.058 -0.2406 -0.1452 -0.0405
  558SOL    HW1 2230   0.218   2.119   0.045  2.1933 -0.3021  0.2932
  558SOL    HW2 2231   0.183   2.256   0.071 -1.2882 -1.2743 -2.5724
  558SOL     MW 2232   0.243   2.198   0.058 -0.0577 -0.3149 -0.3305
  559SOL     OW 2233   1.142   2.299   2.108 -0.2121  0.2674  0.0017
  559SOL    HW1 2234   1.188   2.376   2.131  0.6421  0.2687 -1.4037
  559SOL    HW2 2235   1.156   2.227   2.170 -1.7985 -3.6664  1.1050
  559SOL     MW 2236   1.150   2.300   2.119 -0.3087 -0.2514 -0.0381
  560SOL     OW 2237   1.937   2.809   0.052 -0.7058  0.1982  0.1382
  560SOL    HW1 2238   1.977   2.856  -0.018  1.7059  1.1337 -0.1797
  560SOL    HW2 2239   1.888   2.734   0.018  0.3696 -1.4241  0.8258
  560SOL     MW 2240   1.936   2.805   0.038 -0.2457  0.1076  0.1870
  561SOL     OW 2241   0.451   2.102   0.245  0.1922  0.7922 -0.0321
  561SOL    HW1 2242   0.385   2.125   0.177  0.8880 -0.2403 -1.6185
  561SOL    HW2 2243   0.509   2.181   0.245 -2.7744 -4.3611 -0.9963
  561SOL     MW 2244   0.450   2.115   0.236 -0.1074 -0.0240 -0.3686
  562SOL     OW 2245   0.838   2.208   2.209 -0.2202 -0.4667  0.6097
  562SOL    HW1 2246   0.845   2.298   2.231 -0.9771 -1.5438  1.1983
  562SOL    HW2 2247   0.922   2.165   2.224  1.2394 -1.4006  0.0977
  562SOL     MW 2248   0.850   2.214   2.214 -0.1275 -0.7320  0.6198
  563SOL     OW 2249   1.169   0.315   0.601 -0.5267  0.2606  0.3966
  563SOL    HW1 2250   1.110   0.300   0.527 -0.7064  1.1043  0.0102
  563SOL    HW2 2251   1.202   0.229   0.626 -1.2194  0.4048 -0.1013
  563SOL     MW 2252   1.166   0.302   0.595 -0.6418  0.3909  0.2800
  564SOL     OW 2253   1.095   2.538   2.342  0.1429 -0.1443 -0.3708
  564SOL    HW1 2254   1.128   2.576   2.254  0.7340 -0.5607 -0.5747
  564SOL    HW2 2255   1.140   2.589   2.417 -0.8772  0.4961 -0.3048
  564SOL     MW 2256   1.105   2.550   2.340  0.0863 -0.1147 -0.3890
  565SOL     OW 2257   2.883   2.654   2.585 -0.3594  0.0732 -0.0400
  565SOL    HW1 2258   2.955   2.710   2.540  3.4252 -0.8188  1.2457
  565SOL    HW2 2259   2.804   2.650   2.533  0.6756 -0.6887  3.0759
  565SOL     MW 2260   2.882   2.661   2.572  0.2765 -0.1450  0.5408
  566SOL     OW 2261   2.185   1.880   2.403 -0.4686 -0.5443  0.2759
  566SOL    HW1 2262   2.189   1.827   2.325 -3.0190 -1.8170  0.8595
  566SOL    HW2 2263   2.258   1.949   2.399 -0.3877 -0.3624 -2.1375
  566SOL     MW 2264   2.195   1.882   2.393 -0.7945 -0.6882  0.0345
  567SOL     OW 2265   1.130   2.941   3.077  0.4193  0.7197 -0.7004
  567SOL    HW1 2266   1.199   3.005   3.082 -0.0998 -2.3635 -0.5144
  567SOL    HW2 2267   1.148   2.885   2.999  1.5723 -1.5470 -0.0362
  567SOL     MW 2268   1.142   2.942   3.068  0.5030  0.0138 -0.5882
  568SOL     OW 2269   1.609   2.018   2.925 -0.8028  0.3459  0.3854
  568SOL    HW1 2270   1.664   2.087   2.963 -1.4988  0.0599 -0.5210
  568SOL    HW2 2271   1.675   1.987   2.859  1.5230 -0.5810 -1.3875
  568SOL     MW 2272   1.625   2.023   2.921 -0.5878  0.1859  0.0319
  569SOL     OW 2273   0.223   2.216   2.433 -0.2602  0.4090  0.3290
  569SOL    HW1 2274   0.158   2.271   2.375 -0.3627  0.4214 -0.9108
  569SOL    HW2 2275   0.219   2.268   2.517  1.2257  0.9002 -0.5363
  569SOL     MW 2276   0.214   2.230   2.436 -0.0777  0.4754  0.0513
  570SOL     OW 2277   1.477   0.445   0.488  0.1177 -0.6136 -0.3412
  570SOL    HW1 2278   1.400   0.434   0.542  2.6058  2.3418  0.8667
  570SOL    HW2 2279   1.558   0.443   0.548  0.7175 -0.1111  0.8052
  570SOL     MW 2280   1.478   0.443   0.503  0.5251 -0.1574 -0.0306
  571SOL     OW 2281   1.490   2.427   1.998 -0.0496 -0.2971 -0.1161
  571SOL    HW1 2282   1.558   2.438   2.061 -0.4670  2.8885  0.2010
  571SOL    HW2 2283   1.484   2.333   1.980  1.3539  1.0274  2.7435
  571SOL     MW 2284   1.498   2.416   2.004  0.0805  0.2980  0.3030
  572SOL     OW 2285   0.920   2.665   0.068  0.5833 -0.3138 -0.3772
  572SOL    HW1 2286   0.916   2.711  -0.018  0.0794  0.8134 -0.8777
  572SOL    HW2 2287   0.846   2.604   0.061 -0.0686 -0.9969  1.5039
  572SOL     MW 2288   0.910   2.663   0.056  0.4308 -0.2552 -0.1950
  573SOL     OW 2289   1.148   2.369   0.255  0.3598  0.0710  0.3501
  573SOL    HW1 2290   1.236   2.382   0.209 -1.5349  0.5053  1.1451
  573SOL    HW2 2291   1.113   2.462   0.277 -1.1628  2.8487 -1.7919
  573SOL     MW 2292   1.155   2.383   0.252 -0.0911  0.4948  0.1724
  574SOL     OW 2293   1.057   2.609   0.297 -0.4572 -0.1144 -0.1703
  574SOL    HW1 2294   1.141   2.662   0.273  0.7681  0.8714 -0.7197
  574SOL    HW2 2295   0.997   2.624   0.222 -0.3841 -1.2497 -0.0920
  574SOL     MW 2296   1.060   2.618   0.284 -0.2859 -0.1341 -0.2324
  575SOL     OW 2297   3.074   2.296   1.796 -0.0022  0.5630  0.0903
  575SOL    HW1 2298   3.074   2.221   1.738 -0.4345 -1.1495 -0.3168
  575SOL    HW2 2299   3.147   2.348   1.758 -1.1542  0.3592  0.1568
  575SOL     MW 2300   3.084   2.293   1.783 -0.2112  0.3101  0.0453
  576SOL     OW 2301   2.813   1.834   2.014  0.3045 -1.0845  0.0818
  576SOL    HW1 2302   2.839   1.914   1.966 -0.8220  1.0884 -0.4807
  576SOL    HW2 2303   2.721   1.832   1.978 -1.1480  3.0738  0.3738
  576SOL     MW 2304   2.804   1.844   2.003 -0.0357 -0.2492  0.0461
  577SOL     OW 2305   2.107   0.312   0.078  0.8296  0.0782  0.0973
  577SOL    HW1 2306   2.032   0.311   0.018  1.5531 -2.8956  1.4063
  577SOL    HW2 2307   2.093   0.244   0.144 -1.4964 -1.9171  1.8613
  577SOL     MW 2308   2.095   0.303   0.079  0.6181 -0.5774  0.5028
  578SOL     OW 2309   1.968   2.016   2.469 -0.8300  0.2699 -0.4383
  578SOL    HW1 2310   1.925   2.057   2.392  0.6380 -1.1951  0.4835
  578SOL    HW2 2311   2.048   1.972   2.436  0.2446  3.1002  0.9474
  578SOL     MW 2312   1.973   2.016   2.455 -0.4946  0.4500 -0.1339
  579SOL     OW 2313   0.880   2.469   2.495 -0.3325  0.3741  0.4145
  579SOL    HW1 2314   0.896   2.393   2.550 -3.3867 -0.6355 -0.1245
  579SOL    HW2 2315   0.969   2.480   2.453 -0.6353 -1.5588 -2.2458
  579SOL     MW 2316   0.894   2.460   2.496 -0.7754 -0.0142 -0.0076
  580SOL     OW 2317   0.865   2.984   0.029 -0.0617  0.3241 -0.5029
  580SOL    HW1 2318   0.956   2.954   0.004  0.6400  1.5014 -2.7344
  580SOL    HW2 2319   0.817   2.942  -0.047 -2.8805  0.9091 -0.0212
  580SOL     MW 2320   0.871   2.974   0.016 -0.3410  0.5566 -0.7337
  581SOL     OW 2321   1.118   2.435   1.752  0.8741  0.3624 -0.0159
  581SOL    HW1 2322   1.194   2.469   1.803 -0.1345  1.3203  0.6095
  581SOL    HW2 2323   1.155   2.416   1.666 -1.5813  1.8622 -0.0681
  581SOL     MW 2324   1.133   2.437   1.747  0.4171  0.6867  0.0597
  582SOL     OW 2325   3.092   2.840   2.513  0.3766  1.0505  0.1869
  582SOL    HW1 2326   3.062   2.925   2.559  2.5550  1.2906  1.0004
  582SOL    HW2 2327   3.185   2.830   2.520 -0.5741 -1.9635 -0.7283
  582SOL     MW 2328   3.100   2.850   2.520  0.5386  0.6845  0.1735
  583SOL     OW 2329   1.948   2.419   2.653  0.7302 -0.3530  0.8741
  583SOL    HW1 2330   2.020   2.457   2.601 -1.0955 -2.3750 -2.5839
  583SOL    HW2 2331   1.964   2.321   2.667  1.9812  0.9641  0.2368
  583SOL     MW 2332   1.960   2.411   2.648  0.6544 -0.4460  0.3338
  584SOL     OW 2333   0.212   1.898   2.046  0.3940  0.3296  0.6341
  584SOL    HW1 2334   0.299   1.856   2.040  1.3034 -2.9321 -0.6551
  584SOL    HW2 2335   0.208   1.902   2.139 -1.4109 -2.2156  2.3257
  584SOL     MW 2336   0.223   1.893   2.058  0.2759 -0.4366  0.6872
  585SOL     OW 2337   1.461   2.672   0.072 -0.6066 -0.0246  0.6063
  585SOL    HW1 2338   1.436   2.631  -0.009  2.1617 -2.0697 -2.5207
  585SOL    HW2 2339   1.385   2.694   0.125  0.8855 -0.3921 -1.0669
  585SOL     MW 2340   1.448   2.669   0.068 -0.0445 -0.3429 -0.0270
  586SOL     OW 2341   1.377   2.829   2.429  0.2310 -0.1635  0.6631
  586SOL    HW1 2342   1.440   2.811   2.356  1.0298  1.7282  0.6052
  586SOL    HW2 2343   1.406   2.907   2.465  0.9559 -0.4528  3.2252
  586SOL     MW 2344   1.389   2.837   2.424  0.4321  0.0479  0.9935
  587SOL     OW 2345   1.285   1.573   2.139  0.1031  0.5865  0.4007
  587SOL    HW1 2346   1.281   1.484   2.184 -1.0385 -0.2113 -0.3146
  587SOL    HW2 2347   1.250   1.553   2.050  1.9625  1.8001  1.5541
  587SOL     MW 2348   1.280   1.559   2.133  0.1978  0.6413  0.4585
  588SOL     OW 2349   1.410   2.163   2.751  0.0207 -0.2634  0.0601
  588SOL    HW1 2350   1.472   2.120   2.809 -1.6485 -2.7698  1.1835
  588SOL    HW2 2351   1.342   2.190   2.813  1.4613 -0.5568  4.7270
  588SOL     MW 2352   1.409   2.161   2.767 -0.0095 -0.6328  0.8241
  589SOL     OW 2353   1.335   2.097   0.070 -0.8554 -0.6294  0.0989
  589SOL    HW1 2354   1.365   2.182   0.101 -1.3352 -1.4308  0.7771
  589SOL    HW2 2355   1.298   2.054   0.148  0.3234 -0.1347 -0.1598
  589SOL     MW 2356   1.334   2.102   0.084 -0.7632 -0.6698  0.1543
  590SOL     OW 2357   0.420   2.572   2.277  0.0485  0.6292 -0.0728
  590SOL    HW1 2358   0.390   2.546   2.184 -0.4875  1.4095 -0.4538
  590SOL    HW2 2359   0.486   2.636   2.251 -0.4129  0.6466 -0.8708
  590SOL     MW 2360   0.425   2.577   2.261 -0.0831  0.7344 -0.2284
  591SOL     OW 2361   2.280   0.714   3.095  0.0214  0.2987 -0.6541
  591SOL    HW1 2362   2.217   0.756   3.037 -1.4506  4.7307  0.4667
  591SOL    HW2 2363   2.364   0.739   3.068 -3.9993  2.1683 -1.8410
  591SOL     MW 2364   2.282   0.723   3.084 -0.7033  1.1302 -0.6628
  592SOL     OW 2365   1.849   2.973   0.807 -0.4754 -0.7233  0.6251
  592SOL    HW1 2366   1.840   3.031   0.733 -2.9375 -0.1003  1.4480
  592SOL    HW2 2367   1.901   2.895   0.780 -3.4434  0.1379  1.5778
  592SOL     MW 2368   1.855   2.970   0.794 -1.1919 -0.5275  0.8594
  593SOL     OW 2369   1.909   0.752   0.854 -0.4080 -0.5520 -0.0279
  593SOL    HW1 2370   1.836   0.767   0.794 -1.2399 -0.2955 -1.0127
  593SOL    HW2 2371   1.922   0.657   0.866 -0.3608 -0.4487  3.6492
  593SOL     MW 2372   1.901   0.742   0.847 -0.5116 -0.5045  0.3274
  594SOL     OW 2373   2.764   1.153   1.396 -0.0203  0.3354 -0.4558
  594SOL    HW1 2374   2.857   1.182   1.411  0.1906 -1.8470 -0.9363
  594SOL    HW2 2375   2.753   1.132   1.304 -0.3656  1.2626 -0.5705
  594SOL     MW 2376   2.775   1.154   1.386 -0.0380  0.1698 -0.5343
  595SOL     OW 2377   0.497   0.930   0.740  0.4444  0.1056  0.1324
  595SOL    HW1 2378   0.511   1.000   0.676 -0.2058  0.3302  2.7609
  595SOL    HW2 2379   0.500   0.972   0.827 -1.0292 -0.7751  1.6565
  595SOL     MW 2380   0.499   0.945   0.743  0.1642  0.0190  0.6803
  596SOL     OW 2381   2.483   1.353   0.507  0.9514 -0.2028 -0.0764
  596SOL    HW1 2382   2.503   1.442   0.479  0.0376 -3.3224 -0.8291
  596SOL    HW2 2383   2.535   1.329   0.582  0.0414 -1.9159 -1.4160
  596SOL     MW 2384   2.493   1.361   0.513  0.7108 -0.8405 -0.3525
  597SOL     OW 2385   2.180   0.682   1.614 -0.1822  0.1000 -0.1530
  597SOL    HW1 2386   2.215   0.630   1.685  1.4130  0.2439 -2.8343
  597SOL    HW2 2387   2.106   0.627   1.580 -1.4415  0.4702 -2.2190
  597SOL     MW 2388   2.175   0.668   1.619 -0.1379  0.1679 -0.7794
  598SOL     OW 2389   2.604   0.996   2.903 -0.5351 -0.6317 -0.4753
  598SOL    HW1 2390   2.610   0.989   2.810 -1.0242  1.2621  3.6556
  598SOL    HW2 2391   2.668   1.059   2.936  2.1391 -0.3706  0.6585
  598SOL     MW 2392   2.613   1.004   2.895 -0.2468 -0.3474  0.2194
  599SOL     OW 2393   2.915   0.395   2.079 -0.3666  0.5132  0.1539
  599SOL    HW1 2394   2.884   0.418   2.166 -0.2135 -0.7208 -0.6619
  599SOL    HW2 2395   2.959   0.483   2.051  1.0148  1.6821  1.2984
  599SOL     MW 2396   2.917   0.410   2.087 -0.1642  0.5046  0.1973
  600SOL     OW 2397   1.905   1.766   0.882  0.1478 -0.0296 -0.2160
  600SOL    HW1 2398   1.932   1.776   0.976 -1.4480  0.5254  1.1518
  600SOL    HW2 2399   1.811   1.798   0.880  2.8450  0.7759  0.8843
  600SOL     MW 2400   1.896   1.772   0.894  0.2931  0.1499  0.1096
  601SOL     OW 2401   2.513   0.802   0.831 -0.1918  0.1326  0.3565
  601SOL    HW1 2402   2.526   0.816   0.929  0.4044  2.9283  1.8840
  601SOL    HW2 2403   2.439   0.732   0.823 -1.4830 -0.0586  0.1500
  601SOL     MW 2404   2.505   0.794   0.843 -0.2835  0.4762  0.5308
  602SOL     OW 2405   2.310   1.963   0.838 -0.0126  0.6593  0.0187
  602SOL    HW1 2406   2.292   1.873   0.872 -0.0376 -0.9135  0.0838
  602SOL    HW2 2407   2.225   1.992   0.802 -1.7549  1.0249 -2.3496
  602SOL     MW 2408   2.297   1.955   0.838 -0.2457  0.5000 -0.2852
  603SOL     OW 2409   3.090   1.380   1.791 -0.6130 -0.0458  0.3354
  603SOL    HW1 2410   3.125   1.431   1.867 -0.6781 -0.1592 -0.0872
  603SOL    HW2 2411   3.058   1.299   1.824  2.8237 -1.5343  1.4127
  603SOL     MW 2412   3.091   1.376   1.806 -0.1682 -0.2571  0.4218
  604SOL     OW 2413   2.102   1.554   0.458  0.1690 -0.3885  0.3280
  604SOL    HW1 2414   2.139   1.493   0.520 -0.4153  2.7027  0.8780
  604SOL    HW2 2415   2.037   1.599   0.514  3.4732 -1.3625 -3.2704
  604SOL     MW 2416   2.099   1.552   0.474  0.5279 -0.1092 -0.0742
  605SOL     OW 2417   2.651   1.531   0.845 -0.1469 -0.0858 -0.2468
  605SOL    HW1 2418   2.591   1.601   0.815  0.4500  0.3285 -1.0271
  605SOL    HW2 2419   2.611   1.443   0.829  3.0147 -1.3205  0.1076
  605SOL     MW 2420   2.638   1.528   0.839  0.3490 -0.1941 -0.3030
  606SOL     OW 2421   2.578   1.841   1.894 -0.0795  0.4400  0.7524
  606SOL    HW1 2422   2.483   1.842   1.908 -0.6413  1.8965 -2.2561
  606SOL    HW2 2423   2.600   1.750   1.863 -0.0787  0.5081 -1.8904
  606SOL     MW 2424   2.569   1.829   1.891 -0.1535  0.6411  0.0068
  607SOL     OW 2425   2.364   1.038   3.044 -0.7697  0.3966  0.1387
  607SOL    HW1 2426   2.450   1.019   3.003  0.5296  0.8411  2.2605
  607SOL    HW2 2427   2.379   1.040   3.144  1.5669 -1.0874 -0.3200
  607SOL     MW 2428   2.378   1.036   3.051 -0.2900  0.2594  0.3581
  608SOL     OW 2429   1.911   0.301   0.611 -0.4447 -0.3234  0.3879
  608SOL    HW1 2430   1.965   0.332   0.536  1.0697  0.0452  1.5054
  608SOL    HW2 2431   1.853   0.229   0.578  2.3350  0.5014 -0.0926
  608SOL     MW 2432   1.910   0.296   0.596  0.1219 -0.1659  0.4719
  609SOL     OW 2433   2.097   1.978   3.043 -0.2455  0.5811  0.0525
  609SOL    HW1 2434   2.015   1.928   3.029 -0.9614  1.4138 -1.5037
  609SOL    HW2 2435   2.125   1.950   3.133 -1.3226  1.8151  0.9581
  609SOL     MW 2436   2.090   1.968   3.053 -0.4821  0.8538 -0.0333
  610SOL     OW 2437   1.790   1.028   1.241 -0.1890 -0.2670  0.2383
  610SOL    HW1 2438   1.794   0.962   1.173  0.4834 -1.1682  2.8189
  610SOL    HW2 2439   1.692   1.023   1.256  0.1525 -0.8132 -0.1288
  610SOL     MW 2440   1.778   1.018   1.234 -0.0552 -0.4580  0.5304
  611SOL     OW 2441   2.494   1.737   0.703  0.4942  0.5229  0.0024
  611SOL    HW1 2442   2.431   1.800   0.678  2.1670 -0.7468 -1.3038
  611SOL    HW2 2443   2.538   1.726   0.623 -4.6014  1.9593 -0.2606
  611SOL     MW 2444   2.491   1.744   0.689  0.0426  0.5449 -0.2046
  612SOL     OW 2445   2.809   2.841   0.403  0.1043 -0.1489 -0.3007
  612SOL    HW1 2446   2.854   2.863   0.488 -1.7732  1.5315  0.4935
  612SOL    HW2 2447   2.880   2.832   0.339  1.6755  1.5917 -0.5096
  612SOL     MW 2448   2.824   2.843   0.406  0.0639  0.3024 -0.2235
  613SOL     OW 2449   1.482   0.986   0.957  0.0247  0.1657 -0.4090
  613SOL    HW1 2450   1.542   1.057   0.956 -0.7878 -0.0403 -1.5203
  613SOL    HW2 2451   1.480   0.962   1.056  1.9304 -1.3525  0.2134
  613SOL     MW 2452   1.489   0.992   0.970  0.1689 -0.0618 -0.4735
  614SOL     OW 2453   1.969   0.541   1.505  0.0103 -0.1596 -0.1665
  614SOL    HW1 2454   1.981   0.465   1.567  0.6678 -0.8710 -0.8434
  614SOL    HW2 2455   1.975   0.518   1.411 -1.9989 -0.2459 -0.7903
  614SOL     MW 2456   1.972   0.528   1.501 -0.1680 -0.2648 -0.3381
  615SOL     OW 2457   2.343   0.750   0.287  0.9834  0.2351  0.0629
  615SOL    HW1 2458   2.409   0.706   0.340  1.8390 -0.2906 -0.2367
  615SOL    HW2 2459   2.339   0.709   0.199  0.3459  0.9780  0.3247
  615SOL     MW 2460   2.351   0.739   0.282  1.0122  0.2637  0.0579
  616SOL     OW 2461   2.533   0.396   1.586 -0.1676  0.6306  0.1239
  616SOL    HW1 2462   2.478   0.342   1.532 -0.3895  3.3598  1.6332
  616SOL    HW2 2463   2.543   0.472   1.529 -0.0638 -0.0162  0.3599
  616SOL     MW 2464   2.527   0.399   1.571 -0.1832  0.9054  0.3542
  617SOL     OW 2465   2.934   0.565   1.731  0.2932 -0.1549 -0.0284
  617SOL    HW1 2466   2.838   0.571   1.758 -0.0118 -0.8519  0.8473
  617SOL    HW2 2467   2.940   0.489   1.676 -0.4861 -2.2002  1.8589
  617SOL     MW 2468   2.922   0.556   1.728  0.1501 -0.5167  0.3362
  618SOL     OW 2469   2.673   0.320   1.973  0.4911 -0.0856 -0.2893
  618SOL    HW1 2470   2.651   0.411   1.943  1.1619  1.2105  0.6579
  618SOL    HW2 2471   2.767   0.327   2.004 -0.0029 -0.7441 -1.8936
  618SOL     MW 2472   2.682   0.333   1.973  0.5144 -0.0015 -0.3760
  619SOL     OW 2473   2.665   0.681   0.141  0.0528 -0.6609 -0.2124
  619SOL    HW1 2474   2.706   0.756   0.177 -0.3485 -1.1467 -3.1279
  619SOL    HW2 2475   2.615   0.640   0.213 -0.4778  0.9354  2.0320
  619SOL     MW 2476   2.664   0.685   0.155 -0.0701 -0.5143 -0.3009
  620SOL     OW 2477   2.333   1.035   0.981  0.0103 -0.2433 -0.2301
  620SOL    HW1 2478   2.397   1.067   0.920 -1.8730 -0.2078 -1.1222
  620SOL    HW2 2479   2.291   0.970   0.920  0.0399  0.0294 -0.5632
  620SOL     MW 2480   2.336   1.031   0.965 -0.2343 -0.2027 -0.3917
  621SOL     OW 2481   1.459   2.151   1.965 -0.1624 -0.0804 -0.9991
  621SOL    HW1 2482   1.395   2.093   1.993  2.8002 -1.1446 -1.0626
  621SOL    HW2 2483   1.542   2.106   1.968  0.1276 -0.5290 -1.0752
  621SOL     MW 2484   1.462   2.137   1.969  0.2668 -0.2800 -1.0176
  622SOL     OW 2485   2.596   0.165   0.274 -0.0425  0.3552 -0.3315
  622SOL    HW1 2486   2.685   0.198   0.292 -1.1612 -0.1296  3.2729
  622SOL    HW2 2487   2.610   0.076   0.311  0.4199  0.5811 -1.0167
  622SOL     MW 2488   2.610   0.158   0.281 -0.1291  0.3210  0.0537
  623SOL     OW 2489   2.343   2.789   0.870 -0.1587  0.4697 -0.2021
  623SOL    HW1 2490   2.414   2.855   0.869  1.6390  0.8717 -0.5296
  623SOL    HW2 2491   2.290   2.817   0.944  1.2852  2.4192 -2.2023
  623SOL     MW 2492   2.346   2.801   0.879  0.2690  0.7799 -0.5092
  624SOL     OW 2493   2.203   1.680   3.008 -0.4467  0.2387  0.0695
  624SOL    HW1 2494   2.143   1.602   3.009 -0.0338 -1.0245  0.3077
  624SOL    HW2 2495   2.134   1.743   2.990  2.4659 -0.5329  0.9351
  624SOL     MW 2496   2.186   1.678   3.006 -0.0080 -0.0298  0.2151
  625SOL     OW 2497   2.193   2.032   1.129 -0.0692  0.2379  0.2754
  625SOL    HW1 2498   2.283   1.997   1.120 -0.1611  2.6413  0.8596
  625SOL    HW2 2499   2.172   2.097   1.064  1.6490 -0.8816 -0.8749
  625SOL     MW 2500   2.202   2.036   1.119  0.1453  0.4073  0.2007
  626SOL     OW 2501   0.215   1.573   2.349  0.1369  0.6637  0.4761
  626SOL    HW1 2502   0.208   1.476   2.348  1.3787  2.0760  1.3997
  626SOL    HW2 2503   0.141   1.613   2.402  0.2455  1.4011  0.9399
  626SOL     MW 2504   0.205   1.565   2.356  0.3151  0.9473  0.6592
  627SOL     OW 2505   2.455   0.797   2.635 -0.1209 -0.2016 -0.0162
  627SOL    HW1 2506   2.433   0.886   2.611 -0.2026 -0.1857 -1.3057
  627SOL    HW2 2507   2.419   0.731   2.568 -2.5509 -1.3110  0.0221
  627SOL     MW 2508   2.447   0.800   2.623 -0.4523 -0.3459 -0.1812
  628SOL     OW 2509   2.240   1.351   1.380  0.4091  0.2142 -0.5690
  628SOL    HW1 2510   2.201   1.299   1.306  0.2008 -1.2367 -0.6876
  628SOL    HW2 2511   2.332   1.350   1.352 -2.3090  0.6842 -0.3060
  628SOL     MW 2512   2.247   1.344   1.367  0.0230  0.0848 -0.5500
  629SOL     OW 2513   1.937   0.547   1.237 -0.5934  0.1355 -0.0349
  629SOL    HW1 2514   1.957   0.633   1.198 -3.1273  0.5298 -0.3955
  629SOL    HW2 2515   1.852   0.553   1.276 -0.4350  0.1057  1.5083
  629SOL     MW 2516   1.928   0.559   1.237 -0.9068  0.1836  0.1212
  630SOL     OW 2517   2.434   1.819   3.078  0.1503  0.1306 -0.2209
  630SOL    HW1 2518   2.462   1.883   3.014 -2.7741 -2.6910  0.1767
  630SOL    HW2 2519   2.341   1.818   3.085 -0.2162  0.2756  1.9933
  630SOL     MW 2520   2.426   1.827   3.071 -0.2839 -0.2226  0.1237
  631SOL     OW 2521   1.955   1.827   1.577  0.1534  0.1400  0.1350
  631SOL    HW1 2522   1.988   1.747   1.625 -0.4140 -0.9192  0.3260
  631SOL    HW2 2523   1.934   1.790   1.493  0.3669  0.2284  2.2955
  631SOL     MW 2524   1.957   1.812   1.572  0.1067  0.0119  0.4453
  632SOL     OW 2525   0.107   2.037   1.476  0.4494 -0.1162 -0.0915
  632SOL    HW1 2526   0.053   2.058   1.555 -2.5019  1.0104  0.7731
  632SOL    HW2 2527   0.129   1.942   1.489 -2.3283  2.4328 -1.5984
  632SOL     MW 2528   0.103   2.027   1.488 -0.3065  0.3687 -0.1762
  633SOL     OW 2529   2.558   0.605   0.390  0.2481 -0.3516 -0.5380
  633SOL    HW1 2530   2.648   0.612   0.410  0.3920 -0.7932  2.0831
  633SOL    HW2 2531   2.531   0.544   0.462  1.5535 -2.2605  1.2420
  633SOL     MW 2532   2.567   0.598   0.402  0.4393 -0.6617  0.0427
  634SOL     OW 2533   2.666   3.037   0.628  0.1066 -0.0286 -0.6282
  634SOL    HW1 2534   2.717   3.123   0.632  2.1402  1.7427 -0.1930
  634SOL    HW2 2535   2.626   3.028   0.542 -0.7112  3.2135 -0.0342
  634SOL     MW 2536   2.667   3.047   0.617  0.2670  0.6329 -0.4924
  635SOL     OW 2537   2.605   0.068   1.868  0.2425  0.0961 -0.1057
  635SOL    HW1 2538   2.654   0.039   1.795 -1.1061 -1.7941  1.3377
  635SOL    HW2 2539   2.660   0.146   1.901  1.6153  2.6169  0.6585
  635SOL     MW 2540   2.618   0.075   1.863  0.2457  0.1793  0.1856
  636SOL     OW 2541   2.953   1.707   1.095  0.5999 -0.7364  0.3366
  636SOL    HW1 2542   2.874   1.738   1.133 -1.2893 -3.0912  0.4456
  636SOL    HW2 2543   3.013   1.782   1.098 -1.2792  1.8010 -1.9518
  636SOL     MW 2544   2.950   1.721   1.100  0.1027 -0.7123  0.0490
  637SOL     OW 2545   2.906   1.493   0.634 -0.1589  0.0832  0.4714
  637SOL    HW1 2546   2.957   1.571   0.613 -0.5597 -1.5261 -0.9478
  637SOL    HW2 2547   2.842   1.521   0.701 -2.0425  2.0446 -0.4006
  637SOL     MW 2548   2.904   1.507   0.640 -0.4603  0.1296  0.1691
  638SOL     OW 2549   2.784   0.512   0.538  0.2966 -0.2853  0.2928
  638SOL    HW1 2550   2.866   0.520   0.492  0.5521  0.4643  1.0241
  638SOL    HW2 2551   2.799   0.553   0.619  1.5674 -1.9130 -0.3011
  638SOL     MW 2552   2.797   0.519   0.542  0.4980 -0.4011  0.3109
  639SOL     OW 2553   1.767   0.061   0.567 -0.1854  0.2731 -0.0905
  639SOL    HW1 2554   1.669   0.087   0.566 -1.9851 -2.0392 -0.9205
  639SOL    HW2 2555   1.780  -0.007   0.497  2.7390  2.3854 -1.8869
  639SOL     MW 2556   1.756   0.055   0.557 -0.0370  0.2467 -0.4371
  640SOL     OW 2557   0.373   1.359   0.073 -0.0720 -0.1283  0.4794
  640SOL    HW1 2558   0.379   1.364  -0.024 -1.0553 -2.1002  0.6858
  640SOL    HW2 2559   0.330   1.276   0.108  0.9073 -0.9582  0.1305
  640SOL     MW 2560   0.368   1.349   0.065 -0.0725 -0.4980  0.4606
  641SOL     OW 2561   2.243   0.431   0.367 -0.2041  0.1412 -0.0471
  641SOL    HW1 2562   2.303   0.485   0.319  1.3373  0.5512  0.5972
  641SOL    HW2 2563   2.273   0.343   0.343  1.0694  1.9943  1.4531
  641SOL     MW 2564   2.255   0.427   0.357  0.1673  0.4398  0.2358
  642SOL     OW 2565   0.032   0.003   0.602  0.2937  0.1721 -0.3232
  642SOL    HW1 2566   0.005   0.071   0.540  1.3871  0.4718  0.5679
  642SOL    HW2 2567  -0.046  -0.041   0.629 -0.2453  1.2193  2.3139
  642SOL     MW 2568   0.018   0.006   0.597  0.3669  0.3498  0.1423
  643SOL     OW 2569   2.102   0.315   1.703  0.0997 -0.0283 -0.2099
  643SOL    HW1 2570   2.068   0.256   1.766  0.5359 -0.5268  0.3209
  643SOL    HW2 2571   2.088   0.267   1.622  1.1774  2.9401 -3.2105
  643SOL     MW 2572   2.095   0.301   1.701  0.2994  0.2976 -0.5358
  644SOL     OW 2573   2.744   1.968   1.060  0.4393  0.3771 -0.0566
  644SOL    HW1 2574   2.722   1.909   1.137 -0.8651 -1.1667 -1.8872
  644SOL    HW2 2575   2.663   2.020   1.039 -2.0285 -0.3778 -1.7885
  644SOL     MW 2576   2.730   1.967   1.068 -0.0584  0.0738 -0.5266
  645SOL     OW 2577   2.839   0.865   0.682  0.4925 -0.0047 -0.2960
  645SOL    HW1 2578   2.928   0.847   0.699 -0.2509 -1.1148  0.0135
  645SOL    HW2 2579   2.794   0.793   0.727 -2.0713  1.5005  0.9935
  645SOL     MW 2580   2.845   0.853   0.690  0.0562  0.0475 -0.0850
  646SOL     OW 2581   0.173   2.292   0.770 -0.4068  0.6701 -0.1798
  646SOL    HW1 2582   0.204   2.200   0.790 -0.6368 -4.7070  2.0576
  646SOL    HW2 2583   0.105   2.280   0.704  1.5473  1.0580  0.1401
  646SOL     MW 2584   0.168   2.278   0.764 -0.1794  0.0119  0.1576
  647SOL     OW 2585   2.708   0.504   2.980 -0.3563 -0.3589  0.3168
  647SOL    HW1 2586   2.643   0.444   3.024 -1.5433 -0.7920 -2.5318
  647SOL    HW2 2587   2.652   0.588   2.981  0.9689 -1.8658 -2.7141
  647SOL     MW 2588   2.692   0.507   2.986 -0.3380 -0.6149 -0.4589
  648SOL     OW 2589   2.132   0.727   1.099 -0.3709  0.0487  0.1672
  648SOL    HW1 2590   2.157   0.787   1.029  0.7417  0.6912 -1.3087
  648SOL    HW2 2591   2.171   0.764   1.180  2.5408  1.2002  1.5352
  648SOL     MW 2592   2.140   0.739   1.101  0.1601  0.2854  0.1529
  649SOL     OW 2593   2.313   2.747   1.294 -0.5947 -0.1533  0.1548
  649SOL    HW1 2594   2.399   2.791   1.313 -0.5201  1.5595 -0.5410
  649SOL    HW2 2595   2.340   2.653   1.284 -2.3379 -1.6601 -0.1306
  649SOL     MW 2596   2.328   2.741   1.295 -0.8149 -0.1261  0.0253
  650SOL     OW 2597   2.807   0.168   0.671 -0.2935  0.2052  0.2846
  650SOL    HW1 2598   2.801   0.259   0.694 -1.0937 -0.6158 -2.0044
  650SOL    HW2 2599   2.870   0.182   0.600 -2.3551  1.9090 -1.1648
  650SOL     MW 2600   2.814   0.182   0.665 -0.6711  0.3217 -0.2086
  651SOL     OW 2601   2.989   0.415   0.750 -0.3414 -0.2126 -0.1114
  651SOL    HW1 2602   3.078   0.444   0.738  2.0937  0.7329  1.1437
  651SOL    HW2 2603   2.950   0.480   0.811 -1.0386 -2.9029  1.7936
  651SOL     MW 2604   2.996   0.427   0.757 -0.1121 -0.4428  0.3055
  652SOL     OW 2605   2.408   1.505   3.020  0.2274  0.5279  0.0147
  652SOL    HW1 2606   2.472   1.514   2.948  0.7958 -1.5300 -2.7151
  652SOL    HW2 2607   2.348   1.574   3.013 -0.8533 -1.5620 -2.5814
  652SOL     MW 2608   2.409   1.515   3.010  0.1598 -0.0194 -0.6880
  653SOL     OW 2609   1.921   0.450   0.358 -0.6963 -0.1465  0.0269
  653SOL    HW1 2610   1.866   0.404   0.300 -0.1633  0.6164  0.2426
  653SOL    HW2 2611   2.007   0.465   0.316  2.1251 -0.4714 -1.3446
  653SOL     MW 2612   1.925   0.446   0.345 -0.2538 -0.0887 -0.1256
  654SOL     OW 2613   2.450   1.065   0.748 -0.1174 -0.3765  0.5096
  654SOL    HW1 2614   2.405   1.056   0.663  1.0764  1.4276 -0.2565
  654SOL    HW2 2615   2.482   0.975   0.779  1.4439 -0.0202 -0.2299
  654SOL     MW 2616   2.448   1.052   0.741  0.2461 -0.0914  0.3109
  655SOL     OW 2617   2.953   0.882   0.396 -0.3305 -0.0032 -0.0826
  655SOL    HW1 2618   2.899   0.900   0.475  1.4613 -1.5399  1.4853
  655SOL    HW2 2619   2.974   0.786   0.401  0.3462  0.3614  0.0216
  655SOL     MW 2620   2.949   0.871   0.407 -0.0048 -0.1579  0.1380
  656SOL     OW 2621   1.931   2.738   1.268 -0.5355  0.2829  0.5825
  656SOL    HW1 2622   1.909   2.832   1.285 -0.1777  1.5284  1.4271
  656SOL    HW2 2623   1.979   2.703   1.339 -0.3594  1.7567 -1.1431
  656SOL     MW 2624   1.934   2.746   1.279 -0.4651  0.6417  0.4663
  657SOL     OW 2625   0.164   1.625   1.299  0.1895  0.7585 -0.2804
  657SOL    HW1 2626   0.092   1.670   1.256  0.9699 -2.0524 -1.0378
  657SOL    HW2 2627   0.141   1.532   1.284 -1.7457  0.9888  1.1149
  657SOL     MW 2628   0.151   1.619   1.291  0.0371  0.4180 -0.1963
  658SOL     OW 2629   2.689   1.304   0.203  0.0204 -0.2072  0.4790
  658SOL    HW1 2630   2.661   1.231   0.261  0.8123 -0.0162 -0.4331
  658SOL    HW2 2631   2.726   1.373   0.258  0.2475 -1.0520 -0.8776
  658SOL     MW 2632   2.690   1.303   0.218  0.1549 -0.2935  0.1797
  659SOL     OW 2633   2.285   1.499   1.059 -0.2136 -0.3978  0.4449
  659SOL    HW1 2634   2.376   1.509   1.082 -3.5203 -0.1809  4.1445
  659SOL    HW2 2635   2.237   1.546   1.125 -2.1001 -0.1175 -0.5107
  659SOL     MW 2636   2.291   1.506   1.071 -0.8988 -0.3322  0.8069
  660SOL     OW 2637   2.040   1.588   1.694 -0.2173  0.0598  0.3538
  660SOL    HW1 2638   2.053   1.604   1.788  1.9763 -0.2048 -2.4413
  660SOL    HW2 2639   1.964   1.527   1.680 -1.0303  2.9088 -0.7171
  660SOL     MW 2640   2.031   1.582   1.705 -0.0351  0.4008 -0.1563
  661SOL     OW 2641   2.371   1.008   0.199  0.1918 -0.2200  0.7439
  661SOL    HW1 2642   2.446   1.045   0.260  0.6506 -0.9863  0.8751
  661SOL    HW2 2643   2.366   0.911   0.208  2.2426  0.5799 -0.1136
  661SOL     MW 2644   2.380   1.000   0.208  0.5229 -0.2156  0.6481
  662SOL     OW 2645   2.587   2.974   0.891  0.6218  0.1389  0.1786
  662SOL    HW1 2646   2.516   3.032   0.915  3.2578 -1.4724  0.5242
  662SOL    HW2 2647   2.606   2.993   0.798  1.4434 -0.2697 -0.2617
  662SOL     MW 2648   2.580   2.984   0.882  1.0780 -0.1276  0.1661
  663SOL     OW 2649   2.793   1.499   0.367 -1.1641  0.0343  0.4264
  663SOL    HW1 2650   2.754   1.583   0.374  2.1057  2.9267 -0.2855
  663SOL    HW2 2651   2.827   1.488   0.458 -0.1394  1.3678  1.9217
  663SOL     MW 2652   2.792   1.509   0.380 -0.5975  0.5919  0.5298
  664SOL     OW 2653   2.498   1.495   1.613  0.5674  0.1613 -0.0625
  664SOL    HW1 2654   2.473   1.585   1.583  2.0430 -0.3451  2.3046
  664SOL    HW2 2655   2.411   1.461   1.640 -0.7513  2.5933  0.4710
  664SOL     MW 2656   2.483   1.502   1.612  0.5881  0.4153  0.3202
  665SOL     OW 2657   2.882   0.857   2.020 -0.5286  0.6450 -0.2934
  665SOL    HW1 2658   2.863   0.885   1.931  0.2394 -0.2810  1.4470
  665SOL    HW2 2659   2.944   0.789   1.992  0.7841  0.8236 -2.0314
  665SOL     MW 2660   2.888   0.852   2.005 -0.2540  0.5464 -0.2931
  666SOL     OW 2661   2.779   3.015   1.670  0.5862  0.0599  0.3535
  666SOL    HW1 2662   2.789   2.997   1.575  0.8062 -0.8979 -0.1216
  666SOL    HW2 2663   2.731   2.932   1.694  0.5071 -2.0017  4.2148
  666SOL     MW 2664   2.774   3.002   1.661  0.6048 -0.3384  0.8003
  667SOL     OW 2665   1.992   2.641   1.703 -0.2092 -0.3519  0.6001
  667SOL    HW1 2666   2.007   2.562   1.757 -0.9427 -3.0926 -0.9591
  667SOL    HW2 2667   2.066   2.702   1.716 -0.1990  1.4124  0.3554
  667SOL     MW 2668   2.004   2.639   1.712 -0.3047 -0.4807  0.3621
  668SOL     OW 2669   2.730   0.639   0.795 -0.1753 -0.5723 -0.6821
  668SOL    HW1 2670   2.793   0.653   0.867  0.8728  0.5445  0.5571
  668SOL    HW2 2671   2.657   0.702   0.794  3.0225 -1.0507 -0.0969
  668SOL     MW 2672   2.729   0.649   0.804  0.3849 -0.4881 -0.4414
  669SOL     OW 2673   0.238   0.939   0.666  0.5324 -0.1148  0.0290
  669SOL    HW1 2674   0.196   1.000   0.736 -2.5540  2.3605  2.6434
  669SOL    HW2 2675   0.329   0.921   0.698  2.0080 -2.6033  0.5837
  669SOL     MW 2676   0.244   0.944   0.679  0.3198 -0.1165  0.4471
  670SOL     OW 2677   2.860   0.274   0.222 -0.6892 -0.7712  0.1994
  670SOL    HW1 2678   2.869   0.215   0.143 -0.0235  0.3414  0.8153
  670SOL    HW2 2679   2.893   0.355   0.187 -1.3127 -0.5008  0.2888
  670SOL     MW 2680   2.865   0.277   0.207 -0.6836 -0.5887  0.2925
  671SOL     OW 2681   2.090   2.951   1.515 -0.0454 -0.5690 -0.6609
  671SOL    HW1 2682   2.064   2.995   1.437  1.6940 -1.8731  2.2461
  671SOL    HW2 2683   2.037   3.001   1.576 -2.4840 -0.3413 -2.9301
  671SOL     MW 2684   2.080   2.964   1.513 -0.1376 -0.7110 -0.5768
  672SOL     OW 2685   1.880   1.704   1.341  0.5415 -0.3223  0.4795
  672SOL    HW1 2686   1.799   1.738   1.379  0.1112  0.4215  2.5296
  672SOL    HW2 2687   1.909   1.767   1.268 -1.5284  0.3621 -0.1609
  672SOL     MW 2688   1.873   1.717   1.336  0.2116 -0.1339  0.6655
  673SOL     OW 2689   2.760   1.095   0.572 -0.1374 -0.1085  0.5642
  673SOL    HW1 2690   2.770   1.003   0.602  0.4477 -1.8716 -1.8160
  673SOL    HW2 2691   2.839   1.139   0.600 -3.1085  2.5780  1.1682
  673SOL     MW 2692   2.772   1.088   0.580 -0.4522  0.0134  0.3298
  674SOL     OW 2693   2.519   0.085   1.214 -0.1836  0.0234 -0.1598
  674SOL    HW1 2694   2.475   0.084   1.124  0.7534  1.6744 -0.1023
  674SOL    HW2 2695   2.491   0.005   1.256 -2.8534  0.1952 -0.1718
  674SOL     MW 2696   2.509   0.074   1.208 -0.4122  0.2639 -0.1538
  675SOL     OW 2697   3.028   0.867   1.067  0.0251 -0.4080 -0.3186
  675SOL    HW1 2698   3.101   0.856   1.127 -1.1299  2.4895 -0.6604
  675SOL    HW2 2699   3.034   0.939   1.004 -0.8614 -0.1481  0.6195
  675SOL     MW 2700   3.038   0.875   1.067 -0.2443  0.0086 -0.2399
  676SOL     OW 2701   2.868   1.480   1.654 -0.0361 -0.0296  0.0633
  676SOL    HW1 2702   2.813   1.395   1.645  0.0511  0.9414  3.3367
  676SOL    HW2 2703   2.951   1.455   1.697 -0.6944 -1.9544  0.8354
  676SOL     MW 2704   2.872   1.465   1.659 -0.1115 -0.1555  0.5971
  677SOL     OW 2705   2.407   0.663   1.974  0.2036 -0.4537 -0.3949
  677SOL    HW1 2706   2.372   0.573   1.953 -1.6185 -2.5970  2.5970
  677SOL    HW2 2707   2.331   0.693   2.015  0.3265  0.4939  1.9595
  677SOL     MW 2708   2.393   0.655   1.977 -0.0206 -0.6114  0.3105
  678SOL     OW 2709   2.541   1.643   0.400  0.0181 -0.0425 -0.4073
  678SOL    HW1 2710   2.472   1.716   0.414 -1.7812  1.9215 -0.8283
  678SOL    HW2 2711   2.537   1.623   0.301 -0.4221 -2.4901 -2.7765
  678SOL     MW 2712   2.532   1.650   0.389 -0.2774 -0.1063 -0.7754
  679SOL     OW 2713   2.284   0.499   1.178 -0.5487 -1.2138 -0.5775
  679SOL    HW1 2714   2.236   0.426   1.147  1.3251  0.0960 -1.1807
  679SOL    HW2 2715   2.245   0.576   1.140 -0.9341 -0.8941  1.8034
  679SOL     MW 2716   2.272   0.499   1.169 -0.3523 -0.9988 -0.3429
  680SOL     OW 2717   2.350   0.178   1.454  0.2539 -0.9672  0.7389
  680SOL    HW1 2718   2.255   0.210   1.428 -3.2022  1.0812  0.3797
  680SOL    HW2 2719   2.402   0.152   1.379 -1.8792 -1.2955 -2.9085
  680SOL     MW 2720   2.344   0.178   1.441 -0.4835 -0.7402  0.2103
  681SOL     OW 2721   0.338   0.582   1.544  0.0112 -0.0396  0.0781
  681SOL    HW1 2722   0.318   0.511   1.611  2.0000  2.1259  2.1719
  681SOL    HW2 2723   0.433   0.577   1.537 -0.5594 -1.3240 -2.6791
  681SOL     MW 2724   0.348   0.572   1.552  0.1983  0.0767 -0.0094
  682SOL     OW 2725   0.107   2.916   1.473 -0.6115 -0.6483  0.3039
  682SOL    HW1 2726   0.111   2.999   1.422 -0.0497  3.1456 -1.0120
  682SOL    HW2 2727   0.024   2.928   1.517  1.9102  1.9401 -0.1927
  682SOL     MW 2728   0.097   2.929   1.472 -0.2047  0.1938  0.0647
  683SOL     OW 2729   2.051   0.884   3.030  0.2874  0.6830  0.0213
  683SOL    HW1 2730   1.986   0.847   2.970  0.4653  1.5657  1.3033
  683SOL    HW2 2731   2.027   0.975   3.050 -0.7127  1.3859  1.2071
  683SOL     MW 2732   2.039   0.891   3.025  0.1789  0.8922  0.3469
  684SOL     OW 2733   2.196   1.727   0.934  0.5022 -0.5607 -0.0698
  684SOL    HW1 2734   2.121   1.705   0.877 -1.3755 -0.2403 -0.0646
  684SOL    HW2 2735   2.221   1.656   0.992 -3.5871  1.8684 -0.7801
  684SOL     MW 2736   2.189   1.715   0.934 -0.2851 -0.1979 -0.1629
  685SOL     OW 2737   2.674   1.740   1.234  0.0340 -0.2463  0.1919
  685SOL    HW1 2738   2.741   1.696   1.291  1.2480 -0.0379  0.1558
  685SOL    HW2 2739   2.631   1.677   1.172 -1.4780 -0.4594 -0.7158
  685SOL     MW 2740   2.677   1.726   1.233 -0.0053 -0.2469  0.0674
  686SOL     OW 2741   2.911   0.734   1.522  0.0288  0.1473  0.3909
  686SOL    HW1 2742   2.917   0.676   1.603 -3.1770  1.0192 -1.5392
  686SOL    HW2 2743   2.990   0.714   1.467  3.0646  0.1041  0.6717
  686SOL     MW 2744   2.922   0.723   1.526  0.0064  0.2566  0.1733
  687SOL     OW 2745   2.068   0.308   1.139  0.0320 -0.5635 -0.5212
  687SOL    HW1 2746   2.090   0.230   1.093 -0.9559  0.3988  0.9853
  687SOL    HW2 2747   1.979   0.333   1.111 -0.7629  0.5149  0.2316
  687SOL     MW 2748   2.059   0.301   1.129 -0.2032 -0.2943 -0.2231
  688SOL     OW 2749   2.370   0.645   1.425  0.4645  0.3858 -0.0270
  688SOL    HW1 2750   2.346   0.583   1.354  2.7153  0.6680 -1.1282
  688SOL    HW2 2751   2.303   0.643   1.497 -0.6179  1.3691 -2.4481
  688SOL     MW 2752   2.358   0.637   1.425  0.6187  0.5528 -0.4917
  689SOL     OW 2753   2.543   0.713   2.994  0.1619  0.3617  0.0118
  689SOL    HW1 2754   2.548   0.798   2.948 -0.6658  0.4667  2.4271
  689SOL    HW2 2755   2.589   0.731   3.075 -2.1896  0.7886  0.0037
  689SOL     MW 2756   2.550   0.726   2.998 -0.2575  0.4318  0.3294
  690SOL     OW 2757   2.082   0.939   1.928 -0.5864  0.2099  0.8469
  690SOL    HW1 2758   2.013   0.876   1.946 -0.1529 -0.2312  0.9944
  690SOL    HW2 2759   2.102   0.931   1.836  1.7206  0.8164  0.9137
  690SOL     MW 2760   2.075   0.930   1.918 -0.2248  0.2317  0.8752
  691SOL     OW 2761   2.463   0.258   0.796 -0.5811 -0.0441  0.1686
  691SOL    HW1 2762   2.522   0.295   0.863 -1.7305 -4.3683  3.5944
  691SOL    HW2 2763   2.372   0.298   0.810  1.5927  0.7692 -0.5894
  691SOL     MW 2764   2.459   0.268   0.806 -0.4459 -0.5073  0.5206
  692SOL     OW 2765   2.828   1.644   1.443 -0.0527  0.6738  0.6031
  692SOL    HW1 2766   2.836   1.585   1.520  0.8757  1.9274 -3.0709
  692SOL    HW2 2767   2.832   1.738   1.476 -1.0888 -1.5596  1.8277
  692SOL     MW 2768   2.830   1.649   1.457 -0.0669  0.5446  0.2799
  693SOL     OW 2769   2.337   0.470   0.101 -0.5076  0.5643 -0.6297
  693SOL    HW1 2770   2.260   0.415   0.112  1.7212 -1.8457 -2.6804
  693SOL    HW2 2771   2.306   0.538   0.048  1.6467 -0.6564  4.0699
  693SOL     MW 2772   2.323   0.472   0.096  0.0707  0.0853 -0.2802
  694SOL     OW 2773   1.914   1.219   1.109  0.2231 -0.4749 -0.1621
  694SOL    HW1 2774   2.005   1.190   1.136 -0.1284  1.3403 -0.8227
  694SOL    HW2 2775   1.858   1.150   1.148  0.0642  1.8920 -0.1095
  694SOL     MW 2776   1.919   1.206   1.118  0.1558  0.0769 -0.2423
  695SOL     OW 2777   3.026   1.460   1.319  0.0080  0.0636  0.0677
  695SOL    HW1 2778   2.998   1.459   1.225 -1.5166 -1.7658 -2.0951
  695SOL    HW2 2779   2.956   1.515   1.362  3.6499  0.4554 -0.0816
  695SOL     MW 2780   3.013   1.467   1.312  0.2873 -0.1261 -0.2374
  696SOL     OW 2781   2.110   1.382   0.883  0.1756 -0.0440 -0.1444
  696SOL    HW1 2782   2.178   1.420   0.945  1.1463 -2.8049 -4.0365
  696SOL    HW2 2783   2.063   1.316   0.931  0.8053  1.0337  0.4087
  696SOL     MW 2784   2.113   1.379   0.897  0.3867 -0.2660 -0.5849
  697SOL     OW 2785   2.920   1.096   2.155  0.1552  0.4202  0.4749
  697SOL    HW1 2786   2.853   1.160   2.167 -0.3337 -3.7248  0.6476
  697SOL    HW2 2787   2.887   1.017   2.100  1.1840 -1.5628 -0.1986
  697SOL     MW 2788   2.907   1.094   2.150  0.2264 -0.3883  0.4088
  698SOL     OW 2789   2.559   0.331   0.040  0.2135 -0.3929  0.2558
  698SOL    HW1 2790   2.480   0.382   0.073 -1.9372  0.3637 -1.3009
  698SOL    HW2 2791   2.575   0.264   0.098  0.4585 -0.4386  0.1776
  698SOL     MW 2792   2.551   0.329   0.052 -0.0379 -0.2991  0.0401
  699SOL     OW 2793   1.825   1.664   2.015 -0.6165 -0.1710 -0.6919
  699SOL    HW1 2794   1.811   1.570   2.047 -2.8952 -1.1693  1.7739
  699SOL    HW2 2795   1.920   1.666   1.992  2.4252  0.2061 -1.7154
  699SOL     MW 2796   1.836   1.652   2.016 -0.5158 -0.2530 -0.5016
  700SOL     OW 2797   2.714   0.919   1.536  0.0749 -0.1911 -0.6632
  700SOL    HW1 2798   2.725   1.009   1.506 -5.4139 -0.3221  3.3454
  700SOL    HW2 2799   2.803   0.885   1.524 -1.2962  1.3058  0.9477
  700SOL     MW 2800   2.727   0.926   1.530 -0.8302 -0.0109  0.0782
  701SOL     OW 2801   1.598   1.262   2.527 -0.3839 -0.4719 -0.1031
  701SOL    HW1 2802   1.692   1.270   2.520 -0.7651 -0.5757 -0.6887
  701SOL    HW2 2803   1.575   1.329   2.590  3.2826  1.1070  1.4779
  701SOL     MW 2804   1.607   1.272   2.535  0.0495 -0.2772  0.0282
  702SOL     OW 2805   2.203   0.389   0.868  0.0329 -0.2642 -0.2018
  702SOL    HW1 2806   2.157   0.324   0.811  0.4621 -0.4943  1.8082
  702SOL    HW2 2807   2.242   0.466   0.825 -0.6676  1.1343  1.1812
  702SOL     MW 2808   2.202   0.390   0.854 -0.0029 -0.1100  0.2459
  703SOL     OW 2809   2.746   1.275   1.035  0.0528 -0.6433 -0.4408
  703SOL    HW1 2810   2.737   1.266   0.940  0.8675  1.6215  2.2253
  703SOL    HW2 2811   2.766   1.181   1.052  1.4337  1.5397 -0.9620
  703SOL     MW 2812   2.747   1.261   1.024  0.3425 -0.0564 -0.1578
  704SOL     OW 2813   0.006   1.319   0.254  0.7183 -0.0414 -0.2258
  704SOL    HW1 2814  -0.040   1.263   0.195 -1.0787  0.1000 -0.3337
  704SOL    HW2 2815   0.021   1.274   0.345  1.6762  0.9609  0.6573
  704SOL     MW 2816   0.002   1.306   0.258  0.6076  0.1095 -0.1235
  705SOL     OW 2817   2.231   1.610   1.304  0.0776 -0.2723  0.0965
  705SOL    HW1 2818   2.152   1.668   1.335  1.6926 -2.5738  1.3714
  705SOL    HW2 2819   2.218   1.524   1.337  1.3543 -1.0668  0.3375
  705SOL     MW 2820   2.219   1.606   1.313  0.4591 -0.6808  0.2965
  706SOL     OW 2821   2.950   1.232   0.695 -0.0592 -0.1728 -0.0217
  706SOL    HW1 2822   3.010   1.213   0.628 -0.6677  1.3049  1.4950
  706SOL    HW2 2823   2.942   1.326   0.681  0.1181 -0.9123  1.3306
  706SOL     MW 2824   2.957   1.242   0.685 -0.1161 -0.0754  0.3568
  707SOL     OW 2825   2.390   0.058   0.966 -0.0183  0.0798  0.4898
  707SOL    HW1 2826   2.418   0.125   0.895  1.1037  2.7981 -1.1020
  707SOL    HW2 2827   2.298   0.078   0.980 -0.4546 -0.5123 -0.3068
  707SOL     MW 2828   2.381   0.070   0.958  0.0722  0.3603  0.1747
  708SOL     OW 2829   2.577   1.559   0.142  0.1045 -0.3340 -0.2658
  708SOL    HW1 2830   2.629   1.481   0.146 -0.0873 -0.1091  2.2676
  708SOL    HW2 2831   2.490   1.546   0.099 -0.0632 -0.4632  0.4230
  708SOL     MW 2832   2.572   1.547   0.137  0.0571 -0.3214  0.1593
  709SOL     OW 2833   1.724   1.713   0.139 -0.1075 -0.3068 -0.5956
  709SOL    HW1 2834   1.665   1.772   0.085  0.2640  2.9350 -0.6350
  709SOL    HW2 2835   1.669   1.665   0.199 -2.4562 -0.0359  0.4074
  709SOL     MW 2836   1.709   1.715   0.140 -0.3684  0.1567 -0.4685
  710SOL     OW 2837   2.162   1.168   1.174  0.0832 -0.2595  0.3472
  710SOL    HW1 2838   2.217   1.139   1.099 -1.3604  0.2768  1.4379
  710SOL    HW2 2839   2.165   1.095   1.236  2.7103 -1.1960  0.7276
  710SOL     MW 2840   2.170   1.155   1.172  0.2394 -0.3123  0.5413
  711SOL     OW 2841   2.337   0.133   1.750  0.1553  0.0806 -0.0741
  711SOL    HW1 2842   2.431   0.114   1.779 -0.0642  1.2672 -1.5655
  711SOL    HW2 2843   2.345   0.155   1.654 -0.1373 -1.3537 -1.9817
  711SOL     MW 2844   2.351   0.133   1.741  0.0877  0.0479 -0.5226
  712SOL     OW 2845   1.880   0.600   3.085  0.3819 -0.9097  0.0408
  712SOL    HW1 2846   1.876   0.654   3.006  1.9253  0.0154 -0.9531
  712SOL    HW2 2847   1.933   0.644   3.145  0.0190 -0.7267 -1.1301
  712SOL     MW 2848   1.886   0.613   3.083  0.5377 -0.7635 -0.2448
  713SOL     OW 2849   2.559   0.800   1.093 -0.1489  0.2324 -0.0602
  713SOL    HW1 2850   2.563   0.700   1.095 -1.9448  1.8721 -2.6189
  713SOL    HW2 2851   2.538   0.834   1.184  2.4878 -0.3966  0.7197
  713SOL     MW 2852   2.557   0.791   1.105 -0.0379  0.3657 -0.2949
  714SOL     OW 2853   2.160   0.215   1.969 -0.1633 -0.2719 -0.2551
  714SOL    HW1 2854   2.217   0.190   2.049 -0.8472 -0.0612 -1.1659
  714SOL    HW2 2855   2.228   0.204   1.904  0.7996 -1.0353  3.0065
  714SOL     MW 2856   2.176   0.210   1.971 -0.1265 -0.3448  0.0551
  715SOL     OW 2857   1.730   1.903   1.681  0.2994  0.3467 -0.5474
  715SOL    HW1 2858   1.817   1.880   1.652 -2.9992 -3.3747  0.2649
  715SOL    HW2 2859   1.699   1.823   1.728 -0.5005 -1.2398  0.8483
  715SOL     MW 2860   1.737   1.889   1.684 -0.2414 -0.3537 -0.2561
  716SOL     OW 2861   2.375   0.572   0.759 -0.1166  0.3131 -0.0006
  716SOL    HW1 2862   2.435   0.518   0.711 -0.5088  1.1978 -0.8800
  716SOL    HW2 2863   2.330   0.620   0.689 -1.5849  0.7933 -0.4022
  716SOL     MW 2864   2.377   0.571   0.743 -0.3620  0.4932 -0.1696
  717SOL     OW 2865   2.868   1.423   2.902  0.5274 -0.3970  0.1490
  717SOL    HW1 2866   2.961   1.432   2.930  0.2025 -1.1806 -0.7396
  717SOL    HW2 2867   2.826   1.488   2.956  0.2515  0.1553  1.5840
  717SOL     MW 2868   2.875   1.433   2.913  0.4482 -0.4275  0.2211
  718SOL     OW 2869   2.525   1.375   1.347  0.3554  0.0960 -0.3984
  718SOL    HW1 2870   2.521   1.436   1.426 -0.1403 -2.1420 -0.8977
  718SOL    HW2 2871   2.601   1.316   1.357  0.6904  0.9434  0.2136
  718SOL     MW 2872   2.534   1.375   1.358  0.3342 -0.0875 -0.3836
  719SOL     OW 2873   2.217   1.331   0.619  0.0573 -0.3142  1.0495
  719SOL    HW1 2874   2.308   1.344   0.597 -0.0455 -3.1811 -1.7916
  719SOL    HW2 2875   2.205   1.368   0.706  1.4461  0.4291 -0.5790
  719SOL     MW 2876   2.227   1.337   0.628  0.2269 -0.5944  0.4598
  720SOL     OW 2877   2.927   1.166   0.115  0.1233 -0.1157 -0.3024
  720SOL    HW1 2878   2.901   1.079   0.151  4.3025 -0.8389 -0.8418
  720SOL    HW2 2879   2.856   1.230   0.157 -1.1874  0.0271  3.6074
  720SOL     MW 2880   2.915   1.163   0.125  0.5018 -0.1923  0.1423
  721SOL     OW 2881   2.505   0.894   1.350 -0.1283  0.1503  0.2223
  721SOL    HW1 2882   2.456   0.822   1.387 -1.5548  1.3028 -1.5105
  721SOL    HW2 2883   2.582   0.922   1.407 -0.6365  2.9125  0.5511
  721SOL     MW 2884   2.509   0.888   1.362 -0.3836  0.6668  0.0370
  722SOL     OW 2885   2.562   1.133   0.372 -0.4319 -0.0336 -0.1986
  722SOL    HW1 2886   2.539   1.213   0.422  0.2597 -1.5343 -1.2088
  722SOL    HW2 2887   2.628   1.085   0.423  1.8866 -3.0363  1.1817
  722SOL     MW 2888   2.568   1.138   0.385 -0.0348 -0.6277 -0.1498
  723SOL     OW 2889   2.222   1.409   1.657 -0.2933 -0.2136  0.6040
  723SOL    HW1 2890   2.186   1.379   1.577  1.1728  2.0086  0.4760
  723SOL    HW2 2891   2.155   1.472   1.690 -0.7130  0.8930 -0.8552
  723SOL     MW 2892   2.208   1.413   1.651 -0.1552  0.2256  0.3946
  724SOL     OW 2893   2.528   0.413   0.590  0.0387 -0.1024  0.6751
  724SOL    HW1 2894   2.504   0.329   0.638 -0.2703 -0.7462 -1.4112
  724SOL    HW2 2895   2.623   0.403   0.570  0.1862  1.3217  1.3112
  724SOL     MW 2896   2.537   0.400   0.594  0.0174  0.0006  0.4838
  725SOL     OW 2897   2.557   0.535   1.135 -0.7813 -0.7759 -0.1529
  725SOL    HW1 2898   2.602   0.561   1.214  4.1542  2.9213 -0.3945
  725SOL    HW2 2899   2.468   0.512   1.162  0.1440  2.0989  1.1222
  725SOL     MW 2900   2.551   0.535   1.149 -0.0080  0.0912 -0.0166
  726SOL     OW 2901   2.572   2.444   0.566 -0.1936  0.4443  0.0602
  726SOL    HW1 2902   2.529   2.517   0.519 -2.5887  1.8374 -0.0519
  726SOL    HW2 2903   2.509   2.394   0.614 -0.7507 -2.7774  0.6581
  726SOL     MW 2904   2.558   2.447   0.566 -0.5831  0.2030  0.1243
  727SOL     OW 2905   2.944   0.255   1.568  0.0995  0.3084 -0.5270
  727SOL    HW1 2906   2.945   0.286   1.479 -1.8132 -2.1785  0.8585
  727SOL    HW2 2907   2.865   0.202   1.575 -1.0166  1.2345  3.3637
  727SOL     MW 2908   2.934   0.252   1.558 -0.3001  0.1025  0.1691
  728SOL     OW 2909   2.819   1.158   2.961  0.2802 -0.0872 -0.6823
  728SOL    HW1 2910   2.849   1.246   2.937 -0.2264  2.0737 -0.5840
  728SOL    HW2 2911   2.848   1.153   3.054  1.6060 -0.2502 -0.7154
  728SOL     MW 2912   2.827   1.169   2.970  0.3883  0.1764 -0.6737
  729SOL     OW 2913   2.557   1.532   1.117  0.1378  0.0666 -0.3524
  729SOL    HW1 2914   2.583   1.469   1.182 -0.2375  0.7359 -0.5282
  729SOL    HW2 2915   2.590   1.495   1.039 -2.7389  2.9339  1.0783
  729SOL     MW 2916   2.565   1.519   1.115 -0.2913  0.5333 -0.1868
  730SOL     OW 2917   2.128   1.125   0.262  0.1782  0.1839 -0.5208
  730SOL    HW1 2918   2.216   1.091   0.262 -0.2519  0.1104 -1.6778
  730SOL    HW2 2919   2.135   1.220   0.242  2.1299  1.1393  0.1136
  730SOL     MW 2920   2.140   1.133   0.260  0.3790  0.3002 -0.5898
  731SOL     OW 2921   2.831   1.859   2.879  0.4492  0.1790 -0.0465
  731SOL    HW1 2922   2.778   1.905   2.805  2.1421 -0.8988  2.2562
  731SOL    HW2 2923   2.904   1.919   2.895  1.1843 -0.7045  1.6636
  731SOL     MW 2924   2.834   1.873   2.871  0.7696 -0.0798  0.4829
  732SOL     OW 2925   2.239   0.912   1.329 -0.3784  0.4037  0.0057
  732SOL    HW1 2926   2.193   0.916   1.414  1.5569  3.6785  1.9348
  732SOL    HW2 2927   2.325   0.942   1.349 -2.6366 -0.7793 -0.1997
  732SOL     MW 2928   2.244   0.916   1.343 -0.4210  0.6797  0.2331
  733SOL     OW 2929   2.372   2.814   3.012 -0.5576 -0.0522 -0.3524
  733SOL    HW1 2930   2.294   2.872   3.018 -1.2311 -1.0879  0.1112
  733SOL    HW2 2931   2.325   2.731   2.997 -2.0045 -0.9509  0.0154
  733SOL     MW 2932   2.355   2.811   3.011 -0.8374 -0.3074 -0.2427
  734SOL     OW 2933   1.505   0.351   2.473 -0.1632  0.0858  0.2972
  734SOL    HW1 2934   1.479   0.314   2.564 -0.4266 -1.7430  2.4073
  734SOL    HW2 2935   1.524   0.273   2.411 -1.3394 -0.1023 -0.9506
  734SOL     MW 2936   1.504   0.335   2.477 -0.3532 -0.1803  0.4110
  735SOL     OW 2937   2.985   0.939   2.563  0.0789  0.3524  0.1745
  735SOL    HW1 2938   2.952   0.848   2.559  1.6327  0.1606 -2.3395
  735SOL    HW2 2939   2.993   0.967   2.655 -1.7195  0.5573 -1.3302
  735SOL     MW 2940   2.982   0.931   2.575  0.0466  0.3541 -0.3557
  736SOL     OW 2941   0.080   0.610   2.551 -0.0492  0.2286  0.1730
  736SOL    HW1 2942   0.136   0.667   2.499 -1.3909  2.5807 -1.2260
  736SOL    HW2 2943   0.081   0.524   2.501  0.2563 -0.0278  2.5428
  736SOL     MW 2944   0.088   0.606   2.538 -0.1859  0.5051  0.3011
  737SOL     OW 2945   2.925   0.682   2.609  0.6350  0.2957 -0.2070
  737SOL    HW1 2946   2.862   0.675   2.533  1.3216 -0.6001 -0.5905
  737SOL    HW2 2947   3.016   0.660   2.583  0.2262  0.9190  0.3291
  737SOL     MW 2948   2.928   0.678   2.596  0.6716  0.2597 -0.1868
  738SOL     OW 2949   0.189   0.523   1.948  0.0312 -0.2309 -0.1548
  738SOL    HW1 2950   0.268   0.585   1.953  1.6783  0.5133 -4.1074
  738SOL    HW2 2951   0.205   0.478   1.867  2.7329  0.6393 -0.1896
  738SOL     MW 2952   0.202   0.525   1.938  0.6050 -0.0179 -0.6809
  739SOL     OW 2953   2.489   1.001   2.132 -0.6427  0.4239 -0.5014
  739SOL    HW1 2954   2.436   0.925   2.115  0.7198 -0.5289  0.4413
  739SOL    HW2 2955   2.499   1.051   2.051 -1.0566  0.7367  0.8408
  739SOL     MW 2956   2.484   0.998   2.119 -0.5176  0.3394 -0.1999
  740SOL     OW 2957   0.147   1.765   2.956  0.4175  0.1666 -0.0321
  740SOL    HW1 2958   0.089   1.685   2.957  1.5872 -3.4071 -2.0119
  740SOL    HW2 2959   0.231   1.725   2.981  0.0665 -1.7005  0.7622
  740SOL     MW 2960   0.150   1.749   2.960  0.5255 -0.5513 -0.1885
  741SOL     OW 2961   2.251   1.273   2.708  0.6480  0.0149  1.1338
  741SOL    HW1 2962   2.219   1.353   2.658  1.4403  0.9132  2.7038
  741SOL    HW2 2963   2.224   1.284   2.801 -2.2255  2.4491 -0.4441
  741SOL     MW 2964   2.243   1.285   2.714  0.3734  0.4546  1.1328
  742SOL     OW 2965   1.589   1.339   2.238 -0.3783 -0.3685 -0.4454
  742SOL    HW1 2966   1.573   1.247   2.218 -0.2366 -0.1085 -0.5498
  742SOL    HW2 2967   1.565   1.346   2.333 -1.0434  1.1844  0.9756
  742SOL     MW 2968   1.584   1.328   2.248 -0.4473 -0.1293 -0.2717
  743SOL     OW 2969   2.522   1.226   2.751  0.0983  0.2047  0.4134
  743SOL    HW1 2970   2.433   1.231   2.733 -1.0953 -0.6802 -1.8939
  743SOL    HW2 2971   2.537   1.147   2.811 -0.3620 -2.9793  2.5402
  743SOL     MW 2972   2.512   1.216   2.757 -0.1199 -0.3322  0.3896
  744SOL     OW 2973   2.749   0.991   1.797 -0.2100 -0.4071 -0.2993
  744SOL    HW1 2974   2.688   1.055   1.835  0.1668 -0.3605  0.0272
  744SOL    HW2 2975   2.713   0.955   1.710 -0.9707  0.4669 -1.3441
  744SOL     MW 2976   2.736   0.995   1.790 -0.2607 -0.2856 -0.3941
  745SOL     OW 2977   1.760   0.413   2.481  0.1794 -0.0013  0.7397
  745SOL    HW1 2978   1.767   0.414   2.384 -2.2865 -0.8170 -0.2704
  745SOL    HW2 2979   1.670   0.388   2.496  0.3457  0.0923  1.5635
  745SOL     MW 2980   1.749   0.410   2.470 -0.1240 -0.0966  0.7151
  746SOL     OW 2981   1.491   1.457   1.692 -0.0762  0.1826  0.7089
  746SOL    HW1 2982   1.559   1.520   1.714  0.6064 -0.6255  1.6768
  746SOL    HW2 2983   1.498   1.390   1.764 -0.9916 -0.3449 -1.8938
  746SOL     MW 2984   1.501   1.456   1.704 -0.1069  0.0064  0.4932
  747SOL     OW 2985   2.569   1.168   1.921 -0.1215  0.5356  0.1652
  747SOL    HW1 2986   2.500   1.160   1.854  1.1446  1.7868  2.2306
  747SOL    HW2 2987   2.552   1.254   1.956 -0.9084 -0.5863 -0.2383
  747SOL     MW 2988   2.558   1.178   1.917 -0.0583  0.5527  0.3845
  748SOL     OW 2989   0.076   3.068   1.862  0.1368  0.4615 -0.8779
  748SOL    HW1 2990   0.160   3.041   1.829  0.9473  1.3129  0.1786
  748SOL    HW2 2991   0.094   3.137   1.928 -1.8217  1.7824  2.0496
  748SOL     MW 2992   0.090   3.074   1.866 -0.0147  0.7481 -0.3522
  749SOL     OW 2993   2.423   0.556   2.775 -0.7683 -0.4504 -0.6694
  749SOL    HW1 2994   2.456   0.634   2.729  0.1908  1.6451 -0.2035
  749SOL    HW2 2995   2.444   0.583   2.869 -1.3818  1.7788  3.6892
  749SOL     MW 2996   2.430   0.570   2.782 -0.7227  0.1202 -0.0329
  750SOL     OW 2997   2.052   3.069   1.939 -0.5922  0.4149  0.3243
  750SOL    HW1 2998   2.097   3.151   1.924  0.3910 -2.0253  3.3934
  750SOL    HW2 2999   2.126   2.997   1.938  1.3856 -2.7387 -1.2089
  750SOL     MW 3000   2.068   3.070   1.937 -0.2015 -0.3231  0.5269
  751SOL     OW 3001   0.035   0.392   2.422 -0.1002  0.1037 -0.0978
  751SOL    HW1 3002  -0.050   0.410   2.387  2.2764  3.0648 -5.1505
  751SOL    HW2 3003   0.087   0.361   2.349 -1.2366  0.0727  0.8004
  751SOL     MW 3004   0.031   0.390   2.408  0.0634  0.4903 -0.6459
  752SOL     OW 3005   2.144   0.896   2.743  0.0552  0.0661 -0.2653
  752SOL    HW1 3006   2.205   0.951   2.693  0.8012  1.6136  1.5749
  752SOL    HW2 3007   2.165   0.906   2.833 -0.1570 -0.7674 -0.3563
  752SOL     MW 3008   2.154   0.905   2.748  0.1256  0.1603 -0.0345
  753SOL     OW 3009   2.854   0.401   2.350 -0.2799 -0.6745 -0.0027
  753SOL    HW1 3010   2.797   0.325   2.328  1.5849 -1.0854 -3.3361
  753SOL    HW2 3011   2.797   0.475   2.367  1.9061 -1.5603  1.2387
  753SOL     MW 3012   2.839   0.400   2.350  0.2546 -0.8456 -0.2787
  754SOL     OW 3013   2.220   3.023   2.595 -0.7189  0.4506 -0.0371
  754SOL    HW1 3014   2.259   3.003   2.507 -0.4093 -1.0686  0.2824
  754SOL    HW2 3015   2.275   2.967   2.649 -1.6939 -0.4156  0.6269
  754SOL     MW 3016   2.232   3.013   2.591 -0.8067  0.1358  0.0927
  755SOL     OW 3017   2.793   1.576   2.492 -0.2979  0.1050  0.2460
  755SOL    HW1 3018   2.742   1.499   2.514 -1.2070  1.5762  1.1566
  755SOL    HW2 3019   2.831   1.611   2.571  1.8111 -0.4884 -1.2511
  755SOL     MW 3020   2.791   1.570   2.505 -0.1396  0.2208  0.1686
  756SOL     OW 3021   2.232   1.253   2.971 -0.0805 -0.1449 -0.2121
  756SOL    HW1 3022   2.295   1.318   2.998 -2.9856 -0.3982  0.5390
  756SOL    HW2 3023   2.286   1.175   2.996 -0.8837  0.6779 -2.2259
  756SOL     MW 3024   2.248   1.251   2.978 -0.5698 -0.0697 -0.3787
  757SOL     OW 3025   2.166   0.961   1.637 -0.6379  0.5479 -0.0652
  757SOL    HW1 3026   2.172   0.865   1.636 -0.1389  0.7719 -2.0626
  757SOL    HW2 3027   2.080   0.973   1.604 -0.6940 -1.3626 -0.1524
  757SOL     MW 3028   2.155   0.950   1.632 -0.5794  0.3253 -0.3402
  758SOL     OW 3029   2.256   1.736   2.659 -0.4206 -0.3179  0.1743
  758SOL    HW1 3030   2.245   1.765   2.571 -0.2153  0.4178  3.0436
  758SOL    HW2 3031   2.347   1.746   2.691  0.1302  0.4168  3.0721
  758SOL     MW 3032   2.267   1.741   2.652 -0.3208 -0.1239  0.9352
  759SOL     OW 3033   1.545   1.399   2.788  0.0147 -0.3399 -0.4695
  759SOL    HW1 3034   1.554   1.481   2.749  0.1765 -0.8388  0.0889
  759SOL    HW2 3035   1.624   1.351   2.758 -1.1245 -0.7660  1.7164
  759SOL     MW 3036   1.557   1.403   2.779 -0.1143 -0.4619 -0.1074
  760SOL     OW 3037   2.683   1.992   2.673 -0.3657  0.0270  0.2302
  760SOL    HW1 3038   2.639   1.910   2.680  1.3170 -1.2969 -1.5479
  760SOL    HW2 3039   2.748   1.991   2.598 -2.6144 -2.0551 -0.0651
  760SOL     MW 3040   2.685   1.981   2.664 -0.4404 -0.4224 -0.0434
  761SOL     OW 3041   2.131   0.404   2.470 -0.2307 -0.0454  0.0860
  761SOL    HW1 3042   2.066   0.332   2.443 -2.3714 -4.7428  1.4519
  761SOL    HW2 3043   2.119   0.403   2.564 -2.0579 -2.4326 -2.6093
  761SOL     MW 3044   2.121   0.395   2.478 -0.7542 -0.9801 -0.0894
  762SOL     OW 3045   0.026   0.163   2.075  0.0302  0.1648 -0.5077
  762SOL    HW1 3046   0.025   0.111   2.154 -1.6352  0.8818 -0.3335
  762SOL    HW2 3047  -0.054   0.217   2.085 -1.9002 -2.0414  1.7441
  762SOL     MW 3048   0.015   0.163   2.087 -0.4442 -0.0317 -0.1876
  763SOL     OW 3049   2.423   1.165   2.357 -0.1463  0.4826 -0.5552
  763SOL    HW1 3050   2.452   1.104   2.283  1.1886  0.1539  1.1990
  763SOL    HW2 3051   2.497   1.226   2.375 -0.4314  1.8894  0.0413
  763SOL     MW 3052   2.436   1.165   2.349 -0.0078  0.6248 -0.2451
  764SOL     OW 3053   0.306   0.168   2.807  0.1935  0.4224  0.0375
  764SOL    HW1 3054   0.231   0.213   2.761  0.2461 -2.1200 -1.0112
  764SOL    HW2 3055   0.354   0.226   2.865  1.4765 -1.9439 -1.3582
  764SOL     MW 3056   0.302   0.181   2.809  0.3697 -0.2252 -0.2850
  765SOL     OW 3057   2.723   0.152   2.316 -0.7274  0.0181  0.1293
  765SOL    HW1 3058   2.676   0.133   2.237 -0.1370  3.1480  0.5036
  765SOL    HW2 3059   2.775   0.070   2.328  0.1200  0.7899  0.1123
  765SOL     MW 3060   2.724   0.138   2.307 -0.5377  0.5329  0.1764
  766SOL     OW 3061   1.861   3.014   2.108  0.4422  0.0067 -0.3126
  766SOL    HW1 3062   1.932   3.043   2.046  0.9852  2.3051  2.1776
  766SOL    HW2 3063   1.796   2.955   2.066 -0.1571 -1.1045  1.2074
  766SOL     MW 3064   1.862   3.010   2.094  0.4348  0.1633  0.2165
  767SOL     OW 3065   2.670   0.607   1.861 -0.1015 -0.1752 -0.2526
  767SOL    HW1 3066   2.718   0.649   1.929 -1.1789  0.3790 -1.1625
  767SOL    HW2 3067   2.584   0.648   1.863 -0.2423  1.8899 -0.2270
  767SOL     MW 3068   2.665   0.618   1.871 -0.2622  0.1704 -0.3693
  768SOL     OW 3069   0.025   1.529   2.918  0.3864  0.4774 -0.2515
  768SOL    HW1 3070   0.054   1.485   3.000 -1.3057 -2.2034 -0.6668
  768SOL    HW2 3071   0.068   1.486   2.842  2.0716 -1.1286 -0.5480
  768SOL     MW 3072   0.035   1.517   2.919  0.3855 -0.0882 -0.3454
  769SOL     OW 3073   2.364   0.636   2.425 -0.1874  0.7591 -0.0849
  769SOL    HW1 3074   2.307   0.569   2.451  0.2589 -0.0665 -3.2411
  769SOL    HW2 3075   2.405   0.606   2.341 -0.5945  0.5108 -1.4576
  769SOL     MW 3076   2.362   0.624   2.417 -0.1822  0.6174 -0.6825
  770SOL     OW 3077   0.043   1.624   2.572 -0.1618  0.1680  0.2234
  770SOL    HW1 3078  -0.047   1.632   2.613 -0.2817 -2.3990  0.1212
  770SOL    HW2 3079   0.071   1.536   2.591  0.4317  2.5270 -0.5284
  770SOL     MW 3080   0.035   1.613   2.580 -0.0993  0.1406  0.1107
  771SOL     OW 3081   3.034   0.622   1.984  0.9997 -0.0462  0.1353
  771SOL    HW1 3082   3.027   0.604   1.887 -1.4568  1.5708 -1.5962
  771SOL    HW2 3083   3.127   0.607   1.991 -3.1866 -0.9701  1.0491
  771SOL     MW 3084   3.046   0.618   1.973  0.1233  0.0453  0.0274
  772SOL     OW 3085   0.017   0.009   2.340 -0.5021  0.1366  0.2046
  772SOL    HW1 3086  -0.072  -0.019   2.362  1.3722 -0.6784  0.9390
  772SOL    HW2 3087   0.049  -0.072   2.299 -2.2359  0.2996 -2.4670
  772SOL     MW 3088   0.010  -0.006   2.337 -0.4836  0.0505 -0.0510
  773SOL     OW 3089   2.411   2.899   2.761  0.4193 -0.0282  0.0961
  773SOL    HW1 3090   2.417   2.811   2.729 -1.3663 -2.0240 -1.4014
  773SOL    HW2 3091   2.412   2.888   2.854  0.5380  0.8228 -0.8678
  773SOL     MW 3092   2.412   2.886   2.769  0.1993 -0.1792 -0.2286
  774SOL     OW 3093   2.302   1.178   1.787  0.2146  0.2249 -0.0038
  774SOL    HW1 3094   2.284   1.258   1.732 -0.3310 -1.7511 -2.4175
  774SOL    HW2 3095   2.279   1.105   1.737  0.1973  0.6517 -2.0783
  774SOL     MW 3096   2.296   1.179   1.773  0.1404  0.0205 -0.5960
  775SOL     OW 3097   2.330   2.965   2.351 -0.4132  0.2854  0.3833
  775SOL    HW1 3098   2.317   3.038   2.294 -0.6893 -2.3294  0.1044
  775SOL    HW2 3099   2.372   2.903   2.293 -0.4157  1.4599 -0.6103
  775SOL     MW 3100   2.334   2.966   2.336 -0.4499  0.0954  0.2154
  776SOL     OW 3101   0.123   1.504   0.089  0.3881 -0.1682 -0.1742
  776SOL    HW1 3102   0.219   1.495   0.097 -1.1668 -0.9066  2.6881
  776SOL    HW2 3103   0.087   1.429   0.136  1.3880 -1.4099  1.5458
  776SOL     MW 3104   0.131   1.493   0.096  0.3149 -0.4294  0.4304
  777SOL     OW 3105   3.012   1.107   1.720 -0.0775 -0.0033  0.2286
  777SOL    HW1 3106   3.003   1.175   1.652 -0.0500  2.5684 -0.0582
  777SOL    HW2 3107   2.928   1.076   1.740  1.3005 -0.9657 -1.8657
  777SOL     MW 3108   3.000   1.112   1.714  0.1080  0.2090 -0.0856
  778SOL     OW 3109   2.837   0.445   2.739  0.4023 -0.8138  1.1613
  778SOL    HW1 3110   2.795   0.471   2.825  1.7146  0.6201  0.4747
  778SOL    HW2 3111   2.872   0.526   2.696  2.4800  0.1689 -0.8854
  778SOL     MW 3112   2.836   0.459   2.745  0.8496 -0.4949  0.8007
  779SOL     OW 3113   2.216   0.546   2.187 -1.0452 -0.0845 -0.1114
  779SOL    HW1 3114   2.218   0.640   2.184 -0.7337  1.2306 -2.5294
  779SOL    HW2 3115   2.175   0.526   2.276 -2.7916 -0.2719  0.4845
  779SOL     MW 3116   2.211   0.556   2.198 -1.2345  0.0643 -0.3518
  780SOL     OW 3117   0.129   0.295   2.660 -0.8976 -0.1253  0.0755
  780SOL    HW1 3118   0.100   0.359   2.723  3.2226  0.1894 -0.6699
  780SOL    HW2 3119   0.065   0.297   2.593  0.3868 -1.3847 -0.9326
  780SOL     MW 3120   0.116   0.304   2.660 -0.1845 -0.2499 -0.1559
  781SOL     OW 3121   3.040   1.302   2.467  0.0349  0.0746  0.1541
  781SOL    HW1 3122   3.051   1.370   2.399 -0.2106 -0.1554 -1.0775
  781SOL    HW2 3123   3.061   1.223   2.420  0.4527 -0.5544 -0.7633
  781SOL     MW 3124   3.044   1.301   2.452  0.0576 -0.0388 -0.1295
  782SOL     OW 3125   0.651   1.594   0.010 -0.1316  0.2523 -0.6070
  782SOL    HW1 3126   0.573   1.623  -0.044  1.0408  0.9646  2.4837
  782SOL    HW2 3127   0.644   1.658   0.087 -1.0249 -0.6734  3.7058
  782SOL     MW 3128   0.640   1.606   0.013 -0.0947  0.2241  0.3698
  783SOL     OW 3129   2.724   0.621   2.440  0.2731 -0.4168 -0.3939
  783SOL    HW1 3130   2.656   0.639   2.375 -0.3983 -2.0825 -0.8120
  783SOL    HW2 3131   2.667   0.567   2.502 -2.0365  1.1522  0.0565
  783SOL     MW 3132   2.707   0.616   2.440 -0.1202 -0.4295 -0.3897
  784SOL     OW 3133   0.115   0.807   2.840  0.1839  0.2110 -0.6053
  784SOL    HW1 3134   0.046   0.882   2.836 -0.0231  2.5995 -0.8297
  784SOL    HW2 3135   0.174   0.821   2.765 -0.5543 -0.2923 -1.4957
  784SOL     MW 3136   0.114   0.819   2.829  0.0592  0.4597 -0.7524
  785SOL     OW 3137   0.422   0.489   2.176 -0.4489  0.1893  0.0178
  785SOL    HW1 3138   0.420   0.512   2.077  2.5211 -1.5187 -0.5735
  785SOL    HW2 3139   0.346   0.425   2.188  1.3192  0.4260  3.8928
  785SOL     MW 3140   0.411   0.484   2.164  0.1762 -0.0048  0.4511
  786SOL     OW 3141   1.930   0.350   2.954 -0.0349  0.3060  0.1513
  786SOL    HW1 3142   1.920   0.438   2.979 -0.9288 -2.9310 -0.7350
  786SOL    HW2 3143   1.956   0.350   2.858 -0.3758 -2.2599 -1.8928
  786SOL     MW 3144   1.932   0.362   2.944 -0.1978 -0.4596 -0.2353
  787SOL     OW 3145   2.473   0.132   2.944 -0.0241  0.8365 -0.2767
  787SOL    HW1 3146   2.529   0.068   2.898 -3.0650  1.6657 -0.9430
  787SOL    HW2 3147   2.529   0.203   2.978 -1.8915  0.1156 -1.6444
  787SOL     MW 3148   2.488   0.133   2.942 -0.6717  0.8508 -0.5451
  788SOL     OW 3149   2.871   3.024   2.367  0.0975 -0.3428 -0.7971
  788SOL    HW1 3150   2.799   3.003   2.430 -1.6738  0.5158  1.3815
  788SOL    HW2 3151   2.887   2.946   2.317 -0.2047 -0.8048 -1.8175
  788SOL     MW 3152   2.864   3.011   2.369 -0.1761 -0.2905 -0.6443
  789SOL     OW 3153   0.076   0.205   3.020 -0.2162 -0.4524  0.4456
  789SOL    HW1 3154   0.018   0.142   3.058  0.3514 -2.9065 -2.9539
  789SOL    HW2 3155   0.018   0.260   2.966  1.8666  0.5280 -0.8492
  789SOL     MW 3156   0.061   0.204   3.018  0.1335 -0.6469 -0.1738
  790SOL     OW 3157   3.098   1.048   2.354 -0.4199  0.2095  0.6767
  790SOL    HW1 3158   3.051   1.003   2.424 -2.2106 -1.8457  0.1981
  790SOL    HW2 3159   3.038   1.055   2.278 -2.3261 -0.2243 -0.9911
  790SOL     MW 3160   3.084   1.043   2.353 -0.9077 -0.1189  0.3935
  791SOL     OW 3161   2.609   0.405   2.595 -0.5221 -0.2716 -0.0686
  791SOL    HW1 3162   2.531   0.416   2.650  0.9773 -0.3725  0.1391
  791SOL    HW2 3163   2.680   0.422   2.655 -0.0052  3.0313  3.4198
  791SOL     MW 3164   2.608   0.409   2.610 -0.2561  0.1509  0.4191
  792SOL     OW 3165   2.342   0.251   2.424 -0.0584  0.8686 -0.0293
  792SOL    HW1 3166   2.270   0.319   2.429  0.1755  1.4592 -0.4099
  792SOL    HW2 3167   2.357   0.196   2.500  2.0712  0.6149  0.2443
  792SOL     MW 3168   2.334   0.253   2.434  0.2534  0.9131 -0.0434
  793SOL     OW 3169   1.963   1.201   1.943 -0.2425 -0.2508 -0.4818
  793SOL    HW1 3170   1.925   1.178   1.853  0.6952 -1.8257 -1.4503
  793SOL    HW2 3171   2.014   1.120   1.955 -3.4622 -0.6705 -2.4634
  793SOL     MW 3172   1.964   1.187   1.933 -0.5436 -0.5139 -0.8711
  794SOL     OW 3173   1.406   2.365   0.118 -0.2387 -0.3409  0.2318
  794SOL    HW1 3174   1.420   2.437   0.047 -0.5458  0.2823 -3.3581
  794SOL    HW2 3175   1.481   2.376   0.181 -0.7982  1.5703  1.0747
  794SOL     MW 3176   1.418   2.376   0.117 -0.3530 -0.0065 -0.1307
  795SOL     OW 3177   2.325   1.037   2.579  0.4220  0.1073  0.8121
  795SOL    HW1 3178   2.284   1.117   2.623 -2.2719 -1.0131  2.8758
  795SOL    HW2 3179   2.378   1.070   2.508  0.3265 -2.6484  0.7685
  795SOL     MW 3180   2.326   1.052   2.576  0.0540 -0.4041  1.0786
  796SOL     OW 3181   0.241   0.548   2.789  0.6995  0.0819  0.2333
  796SOL    HW1 3182   0.203   0.620   2.845 -0.7230 -0.9670 -0.7683
  796SOL    HW2 3183   0.183   0.546   2.709 -0.2548  0.6477 -1.4596
  796SOL     MW 3184   0.228   0.557   2.786  0.3859  0.0181 -0.1222
  797SOL     OW 3185   2.638   0.104   2.592  0.8108 -0.5159  0.0545
  797SOL    HW1 3186   2.607   0.188   2.635 -2.0360 -0.8078 -1.2808
  797SOL    HW2 3187   2.644   0.120   2.493 -2.8852  1.6521 -1.9335
  797SOL     MW 3188   2.635   0.117   2.585 -0.0524 -0.2684 -0.3840
  798SOL     OW 3189   2.303   0.109   2.179  0.1737  0.0426  0.7216
  798SOL    HW1 3190   2.308   0.158   2.260 -0.0586  1.4458  0.6716
  798SOL    HW2 3191   2.399   0.088   2.154 -0.2747 -2.3798 -4.1230
  798SOL     MW 3192   2.317   0.113   2.186  0.0839 -0.0919  0.0758
  799SOL     OW 3193   2.553   2.925   0.099  0.2169  0.2177 -0.4187
  799SOL    HW1 3194   2.475   2.885   0.058  0.8096 -2.3824  0.1856
  799SOL    HW2 3195   2.519   2.962   0.182 -0.6444  0.3001 -1.6046
  799SOL     MW 3196   2.538   2.925   0.104  0.1814 -0.1145 -0.4954
  800SOL     OW 3197   1.954   3.086   1.701  0.1390 -0.2248  0.2557
  800SOL    HW1 3198   1.897   3.009   1.704 -0.2597  0.9425  2.4879
  800SOL    HW2 3199   1.998   3.075   1.787 -2.2027  1.0260 -1.7653
  800SOL     MW 3200   1.952   3.074   1.713 -0.2225  0.0942  0.2835
  801SOL     OW 3201   2.815   1.273   2.604 -0.1677  0.2198  0.5360
  801SOL    HW1 3202   2.779   1.191   2.577 -0.3716  1.2822 -2.8860
  801SOL    HW2 3203   2.893   1.274   2.550 -1.2415  0.9540 -1.9674
  801SOL     MW 3204   2.820   1.263   2.593 -0.3363  0.4569 -0.2458
  802SOL     OW 3205   2.627   1.475   2.779  0.1201 -0.3052 -0.3786
  802SOL    HW1 3206   2.582   1.387   2.761  0.9985 -0.6398  2.7919
  802SOL    HW2 3207   2.702   1.440   2.824 -1.9876 -0.8517 -1.6462
  802SOL     MW 3208   2.631   1.459   2.783 -0.0421 -0.4215 -0.1275
  803SOL     OW 3209   2.299   1.404   2.007  0.3704 -0.1604 -0.1672
  803SOL    HW1 3210   2.250   1.364   2.082  3.0224  1.0927  1.3929
  803SOL    HW2 3211   2.306   1.342   1.934  2.7713  2.2574 -1.8661
  803SOL     MW 3212   2.294   1.391   2.008  1.0371  0.3239 -0.1855
  804SOL     OW 3213   2.255   0.069   0.055  0.4946 -0.1041 -0.5228
  804SOL    HW1 3214   2.215   0.154   0.029 -1.3059 -1.8818  2.5736
  804SOL    HW2 3215   2.322   0.067  -0.013  0.1797 -1.6539  0.0201
  804SOL     MW 3216   2.259   0.080   0.042  0.2155 -0.5431 -0.0426
  805SOL     OW 3217   2.728   1.016   2.568 -0.1274  0.1077 -0.1674
  805SOL    HW1 3218   2.675   0.998   2.491 -0.8883  2.9476 -0.3431
  805SOL    HW2 3219   2.820   0.987   2.542 -0.9757  0.2997 -2.7311
  805SOL     MW 3220   2.733   1.010   2.554 -0.3397  0.5078 -0.5289
  806SOL     OW 3221   2.561   0.622   2.200 -0.0267 -0.6810 -0.0862
  806SOL    HW1 3222   2.583   0.529   2.180  0.4050  1.4595 -2.6556
  806SOL    HW2 3223   2.515   0.658   2.126  0.1904  0.1140  0.0890
  806SOL     MW 3224   2.558   0.614   2.188  0.0589 -0.2937 -0.4021
  807SOL     OW 3225   0.067   1.169   2.033  0.1296  0.2739 -0.5990
  807SOL    HW1 3226   0.111   1.092   1.994 -0.0308 -1.2827 -0.6346
  807SOL    HW2 3227  -0.017   1.136   2.053 -2.8558  0.6014  1.1114
  807SOL     MW 3228   0.061   1.154   2.031 -0.2854  0.1117 -0.3780
  808SOL     OW 3229   2.641   3.058   2.816 -0.2365  0.2445 -0.0680
  808SOL    HW1 3230   2.578   2.986   2.788 -1.0851  1.4864  0.4698
  808SOL    HW2 3231   2.651   3.111   2.740 -0.0154  0.1172  1.0705
  808SOL     MW 3232   2.634   3.055   2.802 -0.3193  0.3916  0.1532
  809SOL     OW 3233   2.599   1.369   2.476 -0.1264 -0.2619 -0.5778
  809SOL    HW1 3234   2.642   1.341   2.555  0.6399  0.8963  1.0068
  809SOL    HW2 3235   2.653   1.361   2.399  1.0279 -3.2248 -0.2463
  809SOL     MW 3236   2.612   1.365   2.476  0.1270 -0.5000 -0.3250
  810SOL     OW 3237   2.226   1.309   2.253 -0.3763 -0.5776 -0.6258
  810SOL    HW1 3238   2.295   1.245   2.272  1.6427 -0.5984  0.2611
  810SOL    HW2 3239   2.166   1.313   2.331 -0.3193 -0.0085 -0.2728
  810SOL     MW 3240   2.227   1.301   2.266 -0.1024 -0.5052 -0.4622
  811SOL     OW 3241   1.546   0.138   2.287  0.1222 -0.1670 -0.3138
  811SOL    HW1 3242   1.617   0.078   2.325  1.6565  0.0539  0.9578
  811SOL    HW2 3243   1.553   0.141   2.192 -0.7574 -0.6734  0.7526
  811SOL     MW 3244   1.556   0.130   2.280  0.2086 -0.2047 -0.0053
  812SOL     OW 3245   1.440   2.798   1.978  0.1446  0.5189 -0.2125
  812SOL    HW1 3246   1.530   2.822   1.953 -1.4653  1.5029 -0.5572
  812SOL    HW2 3247   1.451   2.771   2.068 -2.0860 -0.0301  1.0387
  812SOL     MW 3248   1.453   2.798   1.986 -0.3621  0.5763 -0.0929
  813SOL     OW 3249   1.906   0.704   2.242 -0.7982 -0.0278 -0.5979
  813SOL    HW1 3250   1.899   0.618   2.271  0.8746  0.0298  1.5756
  813SOL    HW2 3251   1.896   0.767   2.318 -1.5952 -1.1075  2.0358
  813SOL     MW 3252   1.904   0.701   2.256 -0.6826 -0.1626  0.0364
  814SOL     OW 3253   2.685   1.235   1.641  0.0393 -0.0204 -0.2097
  814SOL    HW1 3254   2.627   1.167   1.680 -0.4726 -3.4433  2.2488
  814SOL    HW2 3255   2.708   1.197   1.557  0.1056 -2.4693 -1.5852
  814SOL     MW 3256   2.680   1.221   1.635 -0.0195 -0.7951 -0.0668
  815SOL     OW 3257   2.537   1.750   2.420 -0.2900  0.0021 -0.7815
  815SOL    HW1 3258   2.481   1.689   2.388  3.7510  0.4364  1.0817
  815SOL    HW2 3259   2.622   1.703   2.423  0.8179 -0.6994 -2.6360
  815SOL     MW 3260   2.541   1.736   2.416  0.3893 -0.0332 -0.7804
  816SOL     OW 3261   0.766   0.692   2.749  0.3454 -1.1404  0.2410
  816SOL    HW1 3262   0.759   0.605   2.786 -1.8506 -0.1217 -1.3970
  816SOL    HW2 3263   0.673   0.681   2.714 -1.0414 -0.4310 -5.1715
  816SOL     MW 3264   0.753   0.679   2.749 -0.1273 -0.9124 -0.6892
  817SOL     OW 3265   3.029   1.226   1.459  0.4861  0.3494  0.3406
  817SOL    HW1 3266   3.119   1.211   1.479  1.1998 -0.0132 -1.1961
  817SOL    HW2 3267   3.035   1.315   1.417  3.6120  2.8990 -0.4587
  817SOL     MW 3268   3.042   1.236   1.457  0.9927  0.6379  0.0324
  818SOL     OW 3269   1.873   1.041   2.701 -0.0732 -0.9819 -0.1540
  818SOL    HW1 3270   1.862   0.967   2.636 -0.1924  0.5091  0.4837
  818SOL    HW2 3271   1.962   1.027   2.733  0.2563  0.4722 -0.8178
  818SOL     MW 3272   1.884   1.030   2.697 -0.0454 -0.5933 -0.1575
  819SOL     OW 3273   1.946   0.205   2.441 -0.0959 -0.1513 -0.8073
  819SOL    HW1 3274   1.888   0.283   2.442 -1.5883 -2.5470 -1.7996
  819SOL    HW2 3275   1.974   0.193   2.535 -2.6668  0.3369  2.6134
  819SOL     MW 3276   1.942   0.213   2.453 -0.6320 -0.4030 -0.4869
  820SOL     OW 3277   2.530   1.753   2.689 -0.2422  0.6220 -0.1431
  820SOL    HW1 3278   2.561   1.662   2.713  1.3510 -1.6528  1.0235
  820SOL    HW2 3279   2.543   1.760   2.594 -1.2863 -2.7699  1.4788
  820SOL     MW 3280   2.536   1.742   2.680 -0.1698 -0.1257  0.2248
  821SOL     OW 3281   2.572   1.411   2.052 -0.5270 -0.4026 -0.0542
  821SOL    HW1 3282   2.591   1.491   2.008 -2.8998  1.9145  3.8144
  821SOL    HW2 3283   2.475   1.422   2.074 -0.8664  1.1477  0.5518
  821SOL     MW 3284   2.562   1.423   2.049 -0.8849  0.1077  0.5362
  822SOL     OW 3285   2.737   2.649   1.396 -0.3567 -0.2167 -0.3572
  822SOL    HW1 3286   2.777   2.665   1.480 -1.9610 -0.8536 -1.6543
  822SOL    HW2 3287   2.668   2.714   1.386  1.2099 -1.8890 -1.7370
  822SOL     MW 3288   2.733   2.659   1.406 -0.3617 -0.5214 -0.7104
  823SOL     OW 3289   2.326   0.463   1.784 -0.6380  0.0592  0.1468
  823SOL    HW1 3290   2.402   0.446   1.729 -3.8343 -2.7382 -0.2155
  823SOL    HW2 3291   2.253   0.415   1.740  1.7186  0.6196 -1.7860
  823SOL     MW 3292   2.327   0.454   1.771 -0.7488 -0.2359 -0.1560
  824SOL     OW 3293   2.132   1.466   2.547 -0.5382  0.0802 -0.7234
  824SOL    HW1 3294   2.209   1.519   2.535  0.6366 -1.2363 -0.1034
  824SOL    HW2 3295   2.072   1.525   2.598  1.3477 -0.5407 -1.0670
  824SOL     MW 3296   2.134   1.480   2.552 -0.1343 -0.1754 -0.6869
  825SOL     OW 3297   1.852   2.535   0.304  0.0404  0.4288 -0.6099
  825SOL    HW1 3298   1.873   2.477   0.383  0.2693 -0.5406 -0.2139
  825SOL    HW2 3299   1.921   2.508   0.242 -0.2813  1.4167 -0.6180
  825SOL     MW 3300   1.864   2.523   0.306  0.0282  0.4313 -0.5587
  826SOL     OW 3301   1.871   2.371   0.528  0.3504 -0.5660  0.4229
  826SOL    HW1 3302   1.875   2.278   0.560  1.1278 -2.3497  0.5037
  826SOL    HW2 3303   1.820   2.425   0.589 -1.4793 -1.2492 -2.8253
  826SOL     MW 3304   1.865   2.366   0.540  0.2116 -0.8915  0.0050
  827SOL     OW 3305   1.946   2.203   0.930 -0.3583  0.2977  0.5493
  827SOL    HW1 3306   1.872   2.259   0.904  1.4848 -2.1679 -0.8758
  827SOL    HW2 3307   1.910   2.121   0.955 -1.0161 -0.4538 -2.5925
  827SOL     MW 3308   1.932   2.199   0.930 -0.2019 -0.1268 -0.0532
  828SOL     OW 3309   0.065   2.600   0.597  0.2076  0.6601 -0.3113
  828SOL    HW1 3310   0.156   2.599   0.565 -1.7324  4.2275 -2.3195
  828SOL    HW2 3311   0.031   2.632   0.508  2.2053  1.7238 -1.5876
  828SOL     MW 3312   0.072   2.604   0.581  0.2152  1.2711 -0.7446
  829SOL     OW 3313   2.945   2.961   1.140 -0.6871  0.0133 -0.1033
  829SOL    HW1 3314   2.873   2.917   1.094  1.5269 -1.0934  0.4669
  829SOL    HW2 3315   3.015   2.895   1.128  1.2923 -0.7237  1.0688
  829SOL     MW 3316   2.945   2.946   1.132 -0.1338 -0.2300  0.1266
  830SOL     OW 3317   2.502   2.882   2.019  0.1718  0.1697  0.1630
  830SOL    HW1 3318   2.410   2.896   1.986 -0.2237 -0.2440 -0.7050
  830SOL    HW2 3319   2.557   2.842   1.954 -0.9009  1.0599 -1.9695
  830SOL     MW 3320   2.497   2.879   2.006 -0.0219  0.2326 -0.2329
  831SOL     OW 3321   2.394   2.487   1.251 -0.0275 -0.5269  0.1174
  831SOL    HW1 3322   2.368   2.437   1.336 -0.9840 -1.4169  1.1413
  831SOL    HW2 3323   2.478   2.441   1.226 -1.4656  0.1013  0.4450
  831SOL     MW 3324   2.402   2.475   1.259 -0.3435 -0.5615  0.2957
  832SOL     OW 3325   2.381   2.185   1.921  0.8280 -0.2349 -0.1702
  832SOL    HW1 3326   2.413   2.272   1.954 -0.4550  1.0681  0.2131
  832SOL    HW2 3327   2.468   2.151   1.893 -0.2839 -1.6413  1.0402
  832SOL     MW 3328   2.396   2.192   1.922  0.5120 -0.2486  0.0401
  833SOL     OW 3329   1.764   2.407   0.867  0.0066 -0.3870 -0.3539
  833SOL    HW1 3330   1.679   2.366   0.888  2.2154  0.6788 -2.3536
  833SOL    HW2 3331   1.756   2.463   0.936 -0.2252  0.1007  1.3764
  833SOL     MW 3332   1.752   2.409   0.879  0.2675 -0.1820 -0.3895
  834SOL     OW 3333   2.138   2.490   0.588 -0.0619 -0.1357 -0.2160
  834SOL    HW1 3334   2.045   2.477   0.563 -1.3455 -0.5388  2.9286
  834SOL    HW2 3335   2.174   2.440   0.518  3.9962 -1.2170 -1.8079
  834SOL     MW 3336   2.130   2.482   0.576  0.3042 -0.3315 -0.0111
  835SOL     OW 3337   1.783   2.607   0.665  0.5029  0.0116  0.3182
  835SOL    HW1 3338   1.748   2.546   0.736  1.1379 -0.3158 -0.5756
  835SOL    HW2 3339   1.850   2.657   0.705  1.7069  1.3322 -1.1078
  835SOL     MW 3340   1.787   2.606   0.679  0.7456  0.1427  0.0121
  836SOL     OW 3341   1.894   2.198   1.613  0.0516  0.0270  0.1034
  836SOL    HW1 3342   1.985   2.208   1.640 -0.5407  1.5313  2.2617
  836SOL    HW2 3343   1.845   2.267   1.657  1.8517  0.5665  0.1463
  836SOL     MW 3344   1.900   2.208   1.622  0.2109  0.2966  0.3938
  837SOL     OW 3345   2.115   0.155   0.721  0.6929  0.6061  0.1114
  837SOL    HW1 3346   2.051   0.215   0.676  2.0132  0.2029 -2.8531
  837SOL    HW2 3347   2.136   0.090   0.645 -0.6261 -0.2623 -1.5847
  837SOL     MW 3348   2.109   0.154   0.705  0.6931  0.4383 -0.5035
  838SOL     OW 3349   2.948   2.104   0.937  0.4385  0.6881 -0.1986
  838SOL    HW1 3350   2.880   2.052   0.983 -0.2531 -1.2035 -1.1671
  838SOL    HW2 3351   3.021   2.046   0.925 -0.4364  1.0273  1.6888
  838SOL     MW 3352   2.948   2.089   0.941  0.2318  0.4833 -0.0774
  839SOL     OW 3353   1.504   2.353   0.950  0.0962  0.4973 -0.0537
  839SOL    HW1 3354   1.474   2.415   1.014  1.0229 -1.5165  0.6298
  839SOL    HW2 3355   1.525   2.281   1.012  1.8178  0.8901  0.8853
  839SOL     MW 3356   1.503   2.352   0.967  0.4456  0.2834  0.1604
  840SOL     OW 3357   2.351   2.094   2.418 -0.3569  0.1331 -0.2063
  840SOL    HW1 3358   2.300   2.151   2.368  1.7318 -4.2122  1.2042
  840SOL    HW2 3359   2.392   2.159   2.477  1.3793 -2.3878  1.2696
  840SOL     MW 3360   2.350   2.110   2.419  0.1477 -0.7728  0.1745
  841SOL     OW 3361   2.079   2.491   0.136 -0.0043 -0.2141  0.0893
  841SOL    HW1 3362   2.128   2.514   0.053 -0.1347 -0.2247 -0.1618
  841SOL    HW2 3363   2.072   2.393   0.125  0.6578 -1.7383  1.0950
  841SOL     MW 3364   2.085   2.481   0.124  0.0658 -0.4166  0.1889
  842SOL     OW 3365   2.584   2.006   1.555  0.5672 -1.3138  0.3021
  842SOL    HW1 3366   2.523   1.937   1.568 -1.2802  2.6361  1.7209
  842SOL    HW2 3367   2.554   2.057   1.481 -0.2294  0.2213 -1.3032
  842SOL     MW 3368   2.572   2.004   1.547  0.2183 -0.5901  0.2775
  843SOL     OW 3369   2.632   2.768   1.794 -0.9084 -0.1413  0.3543
  843SOL    HW1 3370   2.714   2.723   1.757  5.0254 -0.8322  0.6929
  843SOL    HW2 3371   2.559   2.705   1.783  2.3608  0.4546  0.4918
  843SOL     MW 3372   2.633   2.754   1.788  0.3058 -0.1539  0.4171
  844SOL     OW 3373   2.593   2.315   1.181  0.2491 -0.2961 -0.0884
  844SOL    HW1 3374   2.612   2.356   1.096 -2.6411 -0.9718  1.8039
  844SOL    HW2 3375   2.673   2.357   1.228  0.7896 -0.5142  1.4953
  844SOL     MW 3376   2.606   2.326   1.176 -0.0609 -0.4141  0.3702
  845SOL     OW 3377   2.850   2.487   0.277 -0.1726 -0.0867 -0.4961
  845SOL    HW1 3378   2.806   2.402   0.276  2.4564 -0.3578  0.9078
  845SOL    HW2 3379   2.837   2.523   0.367 -1.5579 -2.4088 -0.4003
  845SOL     MW 3380   2.842   2.481   0.289 -0.0085 -0.4289 -0.2983
  846SOL     OW 3381   1.513   2.909   0.769  0.5034 -0.2620 -0.0939
  846SOL    HW1 3382   1.598   2.945   0.795  2.5998  1.1423  0.4311
  846SOL    HW2 3383   1.448   2.959   0.820 -1.4022 -0.2004  2.1118
  846SOL     MW 3384   1.516   2.920   0.779  0.5286 -0.0686  0.2664
  847SOL     OW 3385   2.584   1.930   0.163 -0.5721 -0.2025 -0.0384
  847SOL    HW1 3386   2.672   1.879   0.150  0.6188 -0.5708 -2.1432
  847SOL    HW2 3387   2.526   1.889   0.091  0.5530 -0.6756  0.2497
  847SOL     MW 3388   2.588   1.918   0.151 -0.2665 -0.3135 -0.2781
  848SOL     OW 3389   2.477   2.117   1.321  0.8818  0.1753  0.9731
  848SOL    HW1 3390   2.536   2.158   1.254 -0.9743  0.5003 -1.4120
  848SOL    HW2 3391   2.460   2.026   1.296  0.2301 -1.1370  0.1915
  848SOL     MW 3392   2.482   2.110   1.309  0.5509  0.0450  0.5553
  849SOL     OW 3393   1.996   2.746   0.748 -0.3911 -0.2946  0.2055
  849SOL    HW1 3394   2.029   2.693   0.821  1.3010  0.4056 -4.4527
  849SOL    HW2 3395   2.065   2.733   0.683  2.7501  0.9942 -1.0782
  849SOL     MW 3396   2.009   2.737   0.749  0.2466 -0.0322 -0.5784
  850SOL     OW 3397   2.192   1.959   1.683 -0.5134 -0.5419 -1.1779
  850SOL    HW1 3398   2.116   1.937   1.633 -2.1222  2.1860  1.3169
  850SOL    HW2 3399   2.180   2.056   1.705  1.7835  1.0228 -0.0319
  850SOL     MW 3400   2.181   1.969   1.679 -0.4226  0.0245 -0.6975
  851SOL     OW 3401   2.248   2.417   0.339  0.0712 -0.2297 -0.1749
  851SOL    HW1 3402   2.182   2.456   0.275 -0.0462 -0.8546  0.5231
  851SOL    HW2 3403   2.311   2.489   0.370 -0.0219  2.4510 -0.3451
  851SOL     MW 3404   2.248   2.432   0.335  0.0434  0.0415 -0.1052
  852SOL     OW 3405   2.350   2.168   0.234  0.1245  0.0164  0.3907
  852SOL    HW1 3406   2.322   2.261   0.243  0.6163  0.6943 -1.8706
  852SOL    HW2 3407   2.445   2.171   0.213  5.1377 -1.0487  0.2723
  852SOL     MW 3408   2.359   2.181   0.232  0.8508 -0.0347  0.0767
  853SOL     OW 3409   2.484   2.441   2.006  0.5541 -0.2547  0.5124
  853SOL    HW1 3410   2.511   2.451   1.918  0.1990 -2.3511  0.1774
  853SOL    HW2 3411   2.565   2.424   2.051  0.1929 -1.2251  2.3925
  853SOL     MW 3412   2.498   2.440   2.000  0.4596 -0.6593  0.7162
  854SOL     OW 3413   2.803   2.274   0.777 -0.1060 -0.2880 -0.0238
  854SOL    HW1 3414   2.727   2.220   0.747 -0.8424  1.0700 -2.2572
  854SOL    HW2 3415   2.858   2.206   0.822 -0.9106 -0.8032  0.1320
  854SOL     MW 3416   2.800   2.258   0.779 -0.3093 -0.1768 -0.2979
  855SOL     OW 3417   2.697   2.263   0.359  0.0078 -0.0044 -0.1601
  855SOL    HW1 3418   2.656   2.296   0.440  1.9549  0.2549 -0.7613
  855SOL    HW2 3419   2.776   2.215   0.376  1.7957  1.0578  1.1682
  855SOL     MW 3420   2.702   2.261   0.372  0.5006  0.1699 -0.0641
  856SOL     OW 3421   2.211   1.913   0.195 -0.0169  0.0688  0.0543
  856SOL    HW1 3422   2.119   1.909   0.233 -0.3851  0.1225  1.0102
  856SOL    HW2 3423   2.257   1.998   0.209  1.8256  0.1322 -0.8672
  856SOL     MW 3424   2.205   1.924   0.202  0.1776  0.0843  0.0589
  857SOL     OW 3425   2.578   1.974   0.448 -0.1387 -0.1809 -0.1525
  857SOL    HW1 3426   2.592   2.065   0.412  0.5110 -1.3042  1.4961
  857SOL    HW2 3427   2.525   1.926   0.385 -0.4926 -3.6313 -2.5249
  857SOL     MW 3428   2.573   1.980   0.435 -0.0997 -0.7843 -0.2480
  858SOL     OW 3429   2.829   2.657   1.646 -0.3908  0.2438  0.3987
  858SOL    HW1 3430   2.915   2.702   1.648 -0.7678  1.2762  0.4666
  858SOL    HW2 3431   2.846   2.575   1.693 -0.9587 -3.8581 -3.3124
  858SOL     MW 3432   2.843   2.652   1.653 -0.5155 -0.1612 -0.0820
  859SOL     OW 3433   2.113   2.539   0.887  0.1111 -0.0686  0.4488
  859SOL    HW1 3434   2.106   2.510   0.799  1.5940 -1.4128  0.9188
  859SOL    HW2 3435   2.206   2.569   0.894  3.1363 -2.8165 -0.1398
  859SOL     MW 3436   2.124   2.539   0.876  0.7059 -0.6085  0.4331
  860SOL     OW 3437   2.621   2.592   0.138 -0.1951 -0.0642  0.4789
  860SOL    HW1 3438   2.693   2.561   0.189 -1.0686  0.6852  0.4668
  860SOL    HW2 3439   2.652   2.666   0.089 -1.3043 -0.1708 -0.8882
  860SOL     MW 3440   2.635   2.597   0.138 -0.4567  0.0206  0.2969
  861SOL     OW 3441   1.542   2.127   1.135  0.1109  0.2247 -0.5331
  861SOL    HW1 3442   1.581   2.181   1.215  0.1880 -1.2050  1.8792
  861SOL    HW2 3443   1.491   2.060   1.168  1.8389  1.2349 -2.6155
  861SOL     MW 3444   1.540   2.125   1.150  0.3491  0.1694 -0.4896
  862SOL     OW 3445   2.421   1.772   1.560 -0.1313 -0.1229  0.1134
  862SOL    HW1 3446   2.350   1.801   1.619 -2.1713 -1.8763 -0.6725
  862SOL    HW2 3447   2.398   1.812   1.474  1.2440 -1.0913 -3.7039
  862SOL     MW 3448   2.409   1.781   1.557 -0.2190 -0.4820 -0.4939
  863SOL     OW 3449   0.022   1.909   1.126 -0.6106 -0.1676 -0.5644
  863SOL    HW1 3450   0.110   1.924   1.148 -0.6237  1.9902  0.6092
  863SOL    HW2 3451  -0.039   1.956   1.191 -3.1805  0.7674 -0.9968
  863SOL     MW 3452   0.025   1.917   1.137 -0.9514  0.2405 -0.4666
  864SOL     OW 3453   0.030   1.913   0.857 -0.2635  0.4118 -0.0404
  864SOL    HW1 3454   0.021   1.881   0.949  1.6170  0.4955 -0.0878
  864SOL    HW2 3455  -0.032   1.865   0.811  1.0034  1.1665 -1.3276
  864SOL     MW 3456   0.021   1.902   0.863  0.1518  0.5224 -0.2165
  865SOL     OW 3457   2.616   2.155   0.009 -0.0007 -0.3663 -0.5022
  865SOL    HW1 3458   2.610   2.079   0.072 -2.2852 -0.5359 -0.1123
  865SOL    HW2 3459   2.595   2.114  -0.074 -0.6050 -1.7925  0.1126
  865SOL     MW 3460   2.612   2.139   0.006 -0.3818 -0.5768 -0.3697
  866SOL     OW 3461   2.684   2.312   1.602  0.4071  0.0156 -0.2427
  866SOL    HW1 3462   2.667   2.223   1.625  2.9228 -0.0471  0.2036
  866SOL    HW2 3463   2.727   2.312   1.514 -3.2896  1.8235 -0.5748
  866SOL     MW 3464   2.687   2.300   1.594  0.2513  0.2459 -0.2276
  867SOL     OW 3465   0.006   2.662   1.791 -0.3063 -0.1174 -0.1680
  867SOL    HW1 3466  -0.006   2.670   1.885  1.5416 -0.3333 -2.1774
  867SOL    HW2 3467  -0.019   2.745   1.754  1.6408  2.2544  1.1202
  867SOL     MW 3468   0.001   2.674   1.799  0.1944  0.1670 -0.2632
  868SOL     OW 3469   2.828   2.582   0.534  0.1744 -0.1108  0.0679
  868SOL    HW1 3470   2.743   2.537   0.547 -0.5711  3.0902 -1.3127
  868SOL    HW2 3471   2.808   2.664   0.491 -1.3480  0.6956  0.3693
  868SOL     MW 3472   2.814   2.587   0.530 -0.1248  0.4179 -0.0745
  869SOL     OW 3473   1.997   2.383   1.124 -0.0959 -0.0185  0.7229
  869SOL    HW1 3474   2.050   2.442   1.069  1.9044 -0.4339  2.2049
  869SOL    HW2 3475   1.966   2.325   1.048  0.0107 -0.6348 -3.2200
  869SOL     MW 3476   2.000   2.383   1.107  0.1821 -0.1547  0.3982
  870SOL     OW 3477   2.154   0.042   0.474  0.0623  0.4143  0.8185
  870SOL    HW1 3478   2.224   0.111   0.441  1.4235 -1.1509 -1.2626
  870SOL    HW2 3479   2.189  -0.046   0.443 -1.3286  0.2247  0.5508
  870SOL     MW 3480   2.168   0.040   0.465  0.0584  0.1827  0.5086
  871SOL     OW 3481   2.470   2.129   0.951 -0.1765 -0.4599 -0.2898
  871SOL    HW1 3482   2.415   2.058   0.916  1.7459 -0.4408 -0.2954
  871SOL    HW2 3483   2.417   2.179   1.016 -1.0346  0.2174 -1.1284
  871SOL     MW 3484   2.456   2.126   0.955 -0.0360 -0.3680 -0.4012
  872SOL     OW 3485   2.038   2.557   1.438 -0.2821 -0.2126  0.3101
  872SOL    HW1 3486   2.032   2.588   1.531  0.7180  0.7016  0.4496
  872SOL    HW2 3487   1.961   2.500   1.419 -0.9928 -0.4634 -0.4597
  872SOL     MW 3488   2.027   2.553   1.448 -0.2439 -0.1251  0.2269
  873SOL     OW 3489   2.911   2.067   1.931  0.2825  0.3454 -0.0809
  873SOL    HW1 3490   2.916   2.141   1.996  0.7954  2.0281 -0.3189
  873SOL    HW2 3491   2.963   2.077   1.847 -0.7422  3.9379 -1.5633
  873SOL     MW 3492   2.919   2.078   1.928  0.2150  1.0414 -0.3079
  874SOL     OW 3493   2.397   1.503   2.369  0.1504  0.1835  0.0142
  874SOL    HW1 3494   2.344   1.439   2.322  0.6666  3.2531 -0.3122
  874SOL    HW2 3495   2.461   1.462   2.428  1.6249 -1.5263  1.2790
  874SOL     MW 3496   2.398   1.489   2.371  0.4130  0.3629  0.1380
  875SOL     OW 3497   2.279   2.315   1.072  0.2119  1.2098  0.2602
  875SOL    HW1 3498   2.324   2.369   1.006 -1.3538  1.0249  0.5993
  875SOL    HW2 3499   2.288   2.366   1.155 -2.0004 -1.1206  0.2763
  875SOL     MW 3500   2.286   2.328   1.074 -0.2865  0.8779  0.3070
  876SOL     OW 3501   3.048   2.309   1.236  0.1139  0.2369 -0.0718
  876SOL    HW1 3502   3.090   2.349   1.153  0.4798  1.1885 -0.6951
  876SOL    HW2 3503   3.112   2.335   1.306  1.0821  1.4726  1.8144
  876SOL     MW 3504   3.062   2.318   1.235  0.2899  0.5255  0.0948
  877SOL     OW 3505   3.088   2.720   0.373 -0.0483 -0.8906 -0.3425
  877SOL    HW1 3506   3.147   2.797   0.381  0.0127  0.9550 -0.0989
  877SOL    HW2 3507   3.089   2.687   0.283  0.2702  1.4439 -1.7464
  877SOL     MW 3508   3.096   2.726   0.362  0.0017 -0.3391 -0.4956
  878SOL     OW 3509   2.414   1.845   1.265  0.0777  0.5630  0.5012
  878SOL    HW1 3510   2.358   1.770   1.251 -1.2800  1.3600 -2.3135
  878SOL    HW2 3511   2.501   1.808   1.268  2.0418  0.2161  1.6960
  878SOL     MW 3512   2.418   1.830   1.264  0.1577  0.6224  0.2875
  879SOL     OW 3513   2.675   2.426   0.954 -0.0914 -0.2288  0.4388
  879SOL    HW1 3514   2.743   2.485   0.982  0.1297  0.7672  0.0120
  879SOL    HW2 3515   2.712   2.368   0.880 -0.0242 -0.7298 -0.5267
  879SOL     MW 3516   2.689   2.426   0.948 -0.0534 -0.1635  0.2551
  880SOL     OW 3517   2.521   2.162   0.679 -0.0716 -0.0519 -0.0578
  880SOL    HW1 3518   2.477   2.142   0.758 -2.3564  1.6309  2.8580
  880SOL    HW2 3519   2.534   2.079   0.630  2.0133 -0.3901  0.4239
  880SOL     MW 3520   2.517   2.149   0.683 -0.0979  0.1255  0.3904
  881SOL     OW 3521   2.959   2.656   0.772  0.2162 -0.0229  0.1360
  881SOL    HW1 3522   2.895   2.612   0.716  0.8293 -1.4942 -2.3105
  881SOL    HW2 3523   3.036   2.650   0.712  0.9700  0.4628 -0.4230
  881SOL     MW 3524   2.961   2.649   0.757  0.3965 -0.1530 -0.2605
  882SOL     OW 3525   2.251   2.875   1.960 -0.2625  0.3619  0.4584
  882SOL    HW1 3526   2.264   2.857   1.866 -1.9133  1.6599 -0.9553
  882SOL    HW2 3527   2.202   2.796   1.994  0.5632  0.2020  0.6179
  882SOL     MW 3528   2.246   2.862   1.952 -0.3714  0.5120  0.2930
  883SOL     OW 3529   2.307   2.312   1.448 -0.3673 -0.3028  0.5005
  883SOL    HW1 3530   2.372   2.242   1.418  1.9202 -2.0698 -1.4203
  883SOL    HW2 3531   2.225   2.273   1.406  0.1422 -0.9262 -0.3697
  883SOL     MW 3532   2.305   2.297   1.438  0.0018 -0.6182  0.1322
  884SOL     OW 3533   1.985   1.851   1.144 -0.5894 -0.0557  0.3622
  884SOL    HW1 3534   1.919   1.919   1.138 -1.7278  0.4284 -0.5349
  884SOL    HW2 3535   2.070   1.888   1.148 -1.6413 -0.4343  4.4102
  884SOL     MW 3536   1.988   1.865   1.144 -0.8784 -0.0417  0.7779
  885SOL     OW 3537   2.823   2.435   1.796  0.0895 -0.2655 -0.1792
  885SOL    HW1 3538   2.910   2.386   1.804  1.7226  1.3228  0.7108
  885SOL    HW2 3539   2.768   2.379   1.730  0.1389 -0.8407 -1.5661
  885SOL     MW 3540   2.827   2.421   1.788  0.3115 -0.1319 -0.2448
  886SOL     OW 3541   2.795   2.379   1.356 -0.1551  0.3597  0.3329
  886SOL    HW1 3542   2.885   2.364   1.331  0.4223  0.7404  1.8318
  886SOL    HW2 3543   2.795   2.469   1.396 -0.6879  0.9466  0.7635
  886SOL     MW 3544   2.807   2.389   1.358 -0.1492  0.4874  0.5875
  887SOL     OW 3545   2.294   2.605   1.532  0.3286  0.0225 -0.0906
  887SOL    HW1 3546   2.314   2.672   1.458 -1.1726 -0.8859 -1.2126
  887SOL    HW2 3547   2.241   2.537   1.487 -1.6056  0.0086 -0.4592
  887SOL     MW 3548   2.289   2.605   1.516 -0.1247 -0.0992 -0.2873
  888SOL     OW 3549   1.842   2.106   1.363 -0.1171  0.9618 -0.8144
  888SOL    HW1 3550   1.931   2.127   1.345 -0.8083  0.8634 -0.5337
  888SOL    HW2 3551   1.824   2.118   1.455 -0.4994 -0.1221 -0.1528
  888SOL     MW 3552   1.852   2.110   1.373 -0.2587  0.8058 -0.6901
  889SOL     OW 3553   2.329   1.969   2.101  0.5350 -0.2033 -0.0862
  889SOL    HW1 3554   2.413   1.956   2.144  0.6290 -0.9782 -1.9599
  889SOL    HW2 3555   2.336   2.045   2.042  0.0393  0.1959 -0.9371
  889SOL     MW 3556   2.341   1.977   2.099  0.4820 -0.2529 -0.4456
  890SOL     OW 3557   0.099   2.389   0.188  0.2653 -0.1753 -0.3862
  890SOL    HW1 3558   0.050   2.470   0.189  1.7610  2.6397 -0.5593
  890SOL    HW2 3559   0.089   2.349   0.272  0.8587  2.7848 -0.2809
  890SOL     MW 3560   0.091   2.394   0.199  0.5410  0.5866 -0.3952
  891SOL     OW 3561   2.987   2.052   1.315  0.4087 -0.5351  0.7530
  891SOL    HW1 3562   3.063   2.049   1.379  0.1290 -1.5365  0.1451
  891SOL    HW2 3563   3.003   2.140   1.276 -1.3501  0.0865  3.0062
  891SOL     MW 3564   3.000   2.063   1.318  0.1398 -0.5852  0.9701
  892SOL     OW 3565   2.436   2.361   2.849  0.0279  0.0356  0.1280
  892SOL    HW1 3566   2.432   2.273   2.882 -0.7447 -1.2235 -2.1633
  892SOL    HW2 3567   2.522   2.397   2.868 -0.1075 -1.4189 -1.5924
  892SOL     MW 3568   2.447   2.354   2.856 -0.0919 -0.3224 -0.4013
  893SOL     OW 3569   1.600   2.346   1.284  0.5988 -0.7846  0.3824
  893SOL    HW1 3570   1.547   2.415   1.331 -0.6220  0.0117  1.3264
  893SOL    HW2 3571   1.683   2.355   1.329 -0.8396 -1.1987  0.5494
  893SOL     MW 3572   1.604   2.357   1.296  0.2479 -0.7342  0.5290
  894SOL     OW 3573   2.812   1.799   0.444  0.0187 -0.5370  0.2705
  894SOL    HW1 3574   2.724   1.847   0.468 -5.5895  0.6465  0.1509
  894SOL    HW2 3575   2.816   1.783   0.351  1.0490 -0.4390  3.0819
  894SOL     MW 3576   2.801   1.803   0.435 -0.5853 -0.3680  0.6257
  895SOL     OW 3577   2.104   2.212   1.311  0.8830 -0.6667 -0.2877
  895SOL    HW1 3578   2.095   2.289   1.259  2.2198 -0.6618  2.8051
  895SOL    HW2 3579   2.136   2.146   1.245  1.1337  1.0790  1.5422
  895SOL     MW 3580   2.107   2.213   1.296  1.0925 -0.4357  0.3618
  896SOL     OW 3581   2.141   2.819   1.085 -0.0149 -0.2662  0.0367
  896SOL    HW1 3582   2.212   2.803   1.147  1.0544 -2.1875  0.8899
  896SOL    HW2 3583   2.070   2.777   1.138  0.5671 -0.0228 -3.4748
  896SOL     MW 3584   2.141   2.811   1.100  0.2030 -0.4876 -0.3140
  897SOL     OW 3585   3.012   2.920   0.100  0.4895 -0.2260  0.1853
  897SOL    HW1 3586   3.094   2.887   0.073 -0.2940 -1.8823  4.2081
  897SOL    HW2 3587   2.943   2.856   0.098 -1.7002 -2.3871 -0.8116
  897SOL     MW 3588   3.013   2.907   0.096  0.0972 -0.7297  0.5845
  898SOL     OW 3589   2.075   0.256   1.401 -0.5339  0.1234 -0.2584
  898SOL    HW1 3590   2.028   0.171   1.385 -1.0560 -0.0727 -0.5703
  898SOL    HW2 3591   2.073   0.294   1.315  2.2974  1.2332 -0.5530
  898SOL     MW 3592   2.069   0.249   1.387 -0.2292  0.2440 -0.3385
  899SOL     OW 3593   2.912   2.891   0.640  0.2895  0.1060 -0.2180
  899SOL    HW1 3594   2.926   2.805   0.683  0.4208  1.2155 -0.5551
  899SOL    HW2 3595   2.831   2.933   0.675  0.7839  0.1222 -1.0052
  899SOL     MW 3596   2.903   2.885   0.650  0.3721  0.2545 -0.3663
  900SOL     OW 3597   0.085   2.398   1.009 -0.2716  0.2136 -0.5795
  900SOL    HW1 3598   0.082   2.492   0.985  0.4269  2.3438 -2.8456
  900SOL    HW2 3599   0.101   2.356   0.924  0.4839 -2.5286 -0.1818
  900SOL     MW 3600   0.087   2.405   0.995 -0.0798  0.1328 -0.8260
  901SOL     OW 3601   1.813   2.860   1.686  0.5652  0.1077 -0.1455
  901SOL    HW1 3602   1.876   2.792   1.673  0.6398 -1.0844  2.9672
  901SOL    HW2 3603   1.753   2.861   1.609 -0.4811 -0.0296 -0.4551
  901SOL     MW 3604   1.813   2.851   1.674  0.4370 -0.0677  0.2244
  902SOL     OW 3605   2.649   2.116   1.860 -0.0144  0.6810 -0.1082
  902SOL    HW1 3606   2.652   2.023   1.833 -2.1398 -1.3089 -0.4762
  902SOL    HW2 3607   2.742   2.137   1.867 -1.4640  0.8669  0.3222
  902SOL     MW 3608   2.662   2.106   1.857 -0.4861  0.4430 -0.1000
  903SOL     OW 3609   1.609   2.779   0.528 -0.3584  0.4251 -0.1045
  903SOL    HW1 3610   1.660   2.713   0.580 -0.5865  0.2477 -0.0275
  903SOL    HW2 3611   1.561   2.828   0.599 -0.6928 -1.0431  3.4626
  903SOL     MW 3612   1.609   2.777   0.545 -0.4326  0.2079  0.3763
  904SOL     OW 3613   2.507   2.514   1.719  0.1749 -0.4212 -0.2899
  904SOL    HW1 3614   2.448   2.529   1.647  1.3138 -1.2896  0.3619
  904SOL    HW2 3615   2.574   2.461   1.683 -0.2408  0.3393  2.4551
  904SOL     MW 3616   2.508   2.509   1.705  0.2703 -0.4354  0.1583
  905SOL     OW 3617   2.304   2.536   2.195 -0.1730  0.1529 -0.2691
  905SOL    HW1 3618   2.379   2.496   2.144  1.2529 -0.0055 -0.8072
  905SOL    HW2 3619   2.279   2.457   2.258  0.7373  0.4003 -0.2206
  905SOL     MW 3620   2.311   2.520   2.197  0.1352  0.1647 -0.3337
  906SOL     OW 3621   2.406   2.508   0.909  0.1877 -0.0063  0.5222
  906SOL    HW1 3622   2.498   2.479   0.922  0.1636 -1.8350  1.9464
  906SOL    HW2 3623   2.395   2.605   0.909 -1.1999  1.5282  0.8142
  906SOL     MW 3624   2.417   2.517   0.911  0.0015 -0.0451  0.7486
  907SOL     OW 3625   2.549   2.891   1.320  0.3391 -0.3017  0.4904
  907SOL    HW1 3626   2.613   2.953   1.359 -1.1737 -1.3256  1.9096
  907SOL    HW2 3627   2.599   2.866   1.234  1.3174 -1.5579  1.0239
  907SOL     MW 3628   2.564   2.896   1.314  0.2686 -0.6026  0.7480
  908SOL     OW 3629   2.769   2.368   0.007  0.4374  0.2170  0.1627
  908SOL    HW1 3630   2.708   2.295   0.039 -2.1821 -1.5189  2.3367
  908SOL    HW2 3631   2.723   2.444   0.049  0.7476  2.7537 -0.7092
  908SOL     MW 3632   2.755   2.368   0.017  0.1327  0.3226  0.3345
  909SOL     OW 3633   1.605   0.176   1.163  0.3881 -0.0020  0.6312
  909SOL    HW1 3634   1.590   0.245   1.100  2.6672  1.0112 -0.7658
  909SOL    HW2 3635   1.583   0.216   1.242 -0.5544 -0.8175  0.9110
  909SOL     MW 3636   1.600   0.190   1.165  0.5644  0.0241  0.4838
  910SOL     OW 3637   2.317   1.789   0.442  0.1846  0.6751  0.0342
  910SOL    HW1 3638   2.251   1.722   0.464 -1.2554 -0.6396 -0.5509
  910SOL    HW2 3639   2.280   1.843   0.369 -0.0190 -0.3630 -0.9865
  910SOL     MW 3640   2.304   1.787   0.435 -0.0323  0.3647 -0.1777
  911SOL     OW 3641   2.213   2.247   1.704  0.0300 -0.2712 -0.3301
  911SOL    HW1 3642   2.285   2.234   1.771 -0.7526  0.7108  0.0205
  911SOL    HW2 3643   2.261   2.265   1.618  0.9479 -0.8291  0.3588
  911SOL     MW 3644   2.229   2.248   1.702  0.0478 -0.2152 -0.1929
  912SOL     OW 3645   2.843   1.926   1.501  0.1314 -0.8031 -0.5811
  912SOL    HW1 3646   2.865   1.979   1.419 -0.9530  0.8628 -3.0451
  912SOL    HW2 3647   2.753   1.956   1.518  0.1437  1.6863  0.5833
  912SOL     MW 3648   2.834   1.937   1.493 -0.0100 -0.2548 -0.7526
  913SOL     OW 3649   2.579   2.994   0.362  0.2576  0.4396 -0.2178
  913SOL    HW1 3650   2.648   2.927   0.355  0.4923 -0.7148  0.9282
  913SOL    HW2 3651   2.496   2.944   0.367  0.1677 -0.6206  0.5228
  913SOL     MW 3652   2.577   2.979   0.362  0.2767  0.1474  0.0311
  914SOL     OW 3653   2.755   1.646   3.039 -0.1650  0.6983  0.3389
  914SOL    HW1 3654   2.750   1.727   2.993 -0.7637  1.6491 -1.0322
  914SOL    HW2 3655   2.680   1.624   3.102 -0.8195  3.0267 -0.1903
  914SOL     MW 3656   2.744   1.654   3.041 -0.3304  1.1310  0.0882
  915SOL     OW 3657   1.806   0.255   0.187 -0.2968 -0.3801  0.6724
  915SOL    HW1 3658   1.886   0.206   0.197 -0.3331  1.3139  0.3239
  915SOL    HW2 3659   1.743   0.196   0.227 -0.3155 -0.5518 -0.0708
  915SOL     MW 3660   1.808   0.240   0.194 -0.3040 -0.1792  0.5283
  916SOL     OW 3661   1.711   2.064   1.936  0.1892 -0.3503  0.1060
  916SOL    HW1 3662   1.744   2.155   1.918 -2.5571  0.3820  0.0323
  916SOL    HW2 3663   1.770   2.011   1.880 -0.5703 -1.2594 -0.2982
  916SOL     MW 3664   1.723   2.069   1.926 -0.2733 -0.3737  0.0430
  917SOL     OW 3665   2.422   2.325   2.573 -0.0821  0.0788 -0.4740
  917SOL    HW1 3666   2.430   2.331   2.671  0.7359 -0.8496 -0.6976
  917SOL    HW2 3667   2.512   2.322   2.537 -0.4918  1.3055 -2.1403
  917SOL     MW 3668   2.435   2.325   2.582 -0.0282  0.1181 -0.7233
  918SOL     OW 3669   2.006   1.638   2.707 -0.3312 -0.1381  0.1326
  918SOL    HW1 3670   1.948   1.695   2.648  0.9785  1.9794  2.2704
  918SOL    HW2 3671   2.095   1.676   2.692  0.7119  1.7013 -1.3263
  918SOL     MW 3672   2.010   1.650   2.697 -0.0208  0.3840  0.2222
  919SOL     OW 3673   0.055   2.351   2.247  0.0602 -0.0629 -0.5923
  919SOL    HW1 3674  -0.029   2.308   2.211 -2.7038 -2.0290  0.3862
  919SOL    HW2 3675   0.108   2.326   2.167  0.8928  1.2238 -1.4409
  919SOL     MW 3676   0.051   2.342   2.232 -0.1947 -0.1526 -0.5752
  920SOL     OW 3677   2.766   2.782   0.008  0.5607  0.0207  0.6664
  920SOL    HW1 3678   2.699   2.851   0.038 -0.9289  1.4891 -1.8248
  920SOL    HW2 3679   2.723   2.751  -0.080 -2.2707 -2.8307  1.4855
  920SOL     MW 3680   2.751   2.787   0.000 -0.0094 -0.1618  0.4458
  921SOL     OW 3681   2.411   2.640   2.690 -0.6959  0.2671 -0.5564
  921SOL    HW1 3682   2.472   2.612   2.625  2.0806 -1.9677  4.3599
  921SOL    HW2 3683   2.415   2.569   2.757  0.4434  1.4401 -0.9334
  921SOL     MW 3684   2.420   2.627   2.690 -0.1792  0.1270  0.0425
  922SOL     OW 3685   2.005   2.775   0.297  0.0213  0.0719 -0.4500
  922SOL    HW1 3686   1.999   2.794   0.203  0.6045  0.1747  1.0497
  922SOL    HW2 3687   1.947   2.704   0.305 -1.7123 -0.6767  0.2458
  922SOL     MW 3688   1.996   2.768   0.286 -0.1305 -0.0133 -0.1603
  923SOL     OW 3689   2.209   2.792   1.707 -0.0706 -0.1548 -0.7866
  923SOL    HW1 3690   2.257   2.716   1.667 -1.5344 -0.6622 -1.9169
  923SOL    HW2 3691   2.178   2.852   1.639  0.1511  1.7089  0.5314
  923SOL     MW 3692   2.211   2.790   1.693 -0.2345  0.0242 -0.7618
  924SOL     OW 3693   1.195   2.685   2.558  0.1671 -0.4590  0.2189
  924SOL    HW1 3694   1.268   2.738   2.512  0.1106  0.3759 -3.4034
  924SOL    HW2 3695   1.236   2.628   2.629 -0.7182 -0.3563  0.9871
  924SOL     MW 3696   1.210   2.685   2.561  0.0428 -0.3353 -0.1577
  925SOL     OW 3697   2.954   0.229   2.596 -0.3202  0.3826  0.0040
  925SOL    HW1 3698   2.953   0.258   2.504 -3.0521 -2.0582  2.5425
  925SOL    HW2 3699   2.882   0.277   2.645 -0.1157  1.0076  1.6689
  925SOL     MW 3700   2.944   0.240   2.590 -0.6537  0.1430  0.5586
  926SOL     OW 3701   2.739   2.404   2.089 -0.3263  0.0073  0.4117
  926SOL    HW1 3702   2.786   2.473   2.140  2.2758  0.2470 -0.2104
  926SOL    HW2 3703   2.775   2.419   2.001  1.0815  2.4117  1.0257
  926SOL     MW 3704   2.750   2.415   2.084  0.2028  0.3562  0.4106
  927SOL     OW 3705   2.327   0.187   0.302  0.0105 -0.2276  0.2781
  927SOL    HW1 3706   2.422   0.172   0.299  2.0677 -2.2811 -1.5041
  927SOL    HW2 3707   2.290   0.150   0.217 -2.7148 -2.6379 -0.8654
  927SOL     MW 3708   2.334   0.180   0.291 -0.0777 -0.8166 -0.1079
  928SOL     OW 3709   2.074   2.443   1.862 -0.0422  0.3754  0.2056
  928SOL    HW1 3710   2.132   2.388   1.809  0.6537 -1.1794  0.8795
  928SOL    HW2 3711   2.128   2.493   1.920 -0.9350 -1.3818  0.0308
  928SOL     MW 3712   2.089   2.442   1.863 -0.0682 -0.0616  0.2714
  929SOL     OW 3713   2.661   2.365   2.423 -0.1515  0.2860 -0.4150
  929SOL    HW1 3714   2.703   2.386   2.343  0.6068 -0.8515  0.1032
  929SOL    HW2 3715   2.736   2.332   2.474 -2.1249  0.5246 -2.3007
  929SOL     MW 3716   2.677   2.363   2.419 -0.3118  0.1674 -0.5954
  930SOL     OW 3717   2.007   2.850   2.676 -0.0647 -0.3783 -0.0850
  930SOL    HW1 3718   2.033   2.791   2.753 -1.8498  0.8048  1.7652
  930SOL    HW2 3719   2.071   2.916   2.666  1.1293 -1.4019 -1.0195
  930SOL     MW 3720   2.019   2.851   2.685 -0.1427 -0.3572  0.0358
  931SOL     OW 3721   2.966   2.784   2.267  0.1738 -0.9046  0.0521
  931SOL    HW1 3722   3.018   2.795   2.351  1.7979  0.3352  0.3587
  931SOL    HW2 3723   3.020   2.821   2.204  0.9622  0.7101  1.0549
  931SOL     MW 3724   2.980   2.790   2.270  0.4921 -0.5280  0.2248
  932SOL     OW 3725   2.912   1.974   2.496  0.0953  0.2792 -0.3240
  932SOL    HW1 3726   2.993   2.024   2.509 -2.7052  0.7336  2.5809
  932SOL    HW2 3727   2.900   1.958   2.400 -0.2694  0.3748 -0.4871
  932SOL     MW 3728   2.921   1.979   2.485 -0.3223  0.3518  0.0377
  933SOL     OW 3729   2.080   2.886   2.247  0.1083 -0.1974  0.0992
  933SOL    HW1 3730   2.142   2.944   2.288 -0.9663  0.9459  1.0924
  933SOL    HW2 3731   2.014   2.941   2.202 -1.2509  0.1406  0.4145
  933SOL     MW 3732   2.080   2.901   2.246 -0.2128 -0.0020  0.2719
  934SOL     OW 3733   1.998   2.722   2.440  0.1647 -0.3760  0.4553
  934SOL    HW1 3734   1.992   2.781   2.516 -0.1615  0.3267 -0.0379
  934SOL    HW2 3735   2.036   2.776   2.371  1.5689  0.4595  0.4441
  934SOL     MW 3736   2.002   2.737   2.441  0.3069 -0.1731  0.3888
  935SOL     OW 3737   2.634   1.580   1.826  0.5973  0.5074  0.1274
  935SOL    HW1 3738   2.725   1.580   1.792 -0.5560 -0.1393  0.0148
  935SOL    HW2 3739   2.581   1.533   1.759 -2.2990 -1.8002 -1.5773
  935SOL     MW 3740   2.639   1.574   1.813  0.0630  0.1176 -0.1123
  936SOL     OW 3741   3.027   2.266   3.069  0.0589  0.3198 -0.1209
  936SOL    HW1 3742   3.083   2.324   3.120  1.6546  0.6674  0.1313
  936SOL    HW2 3743   2.934   2.292   3.076  1.4346  1.6648  1.9165
  936SOL     MW 3744   3.022   2.277   3.077  0.4509  0.5431  0.1812
  937SOL     OW 3745   2.006   2.163   2.701 -0.4776 -0.2432  0.1726
  937SOL    HW1 3746   2.084   2.137   2.755  3.8454  2.9350  3.6432
  937SOL    HW2 3747   2.028   2.119   2.619  0.9785 -0.9676 -1.0076
  937SOL     MW 3748   2.019   2.154   2.697  0.2849  0.0806  0.4748
  938SOL     OW 3749   2.316   1.809   1.901  0.7106  0.1940  0.5559
  938SOL    HW1 3750   2.261   1.852   1.831 -0.1575  0.4787 -0.2438
  938SOL    HW2 3751   2.321   1.869   1.977 -4.3245  1.4630  0.1391
  938SOL     MW 3752   2.309   1.822   1.902 -0.0682  0.3990  0.3954
  939SOL     OW 3753   2.826   1.985   2.238 -0.4199 -0.0562 -0.1817
  939SOL    HW1 3754   2.839   1.931   2.158 -3.3742 -1.7828 -1.5737
  939SOL    HW2 3755   2.734   1.984   2.257 -0.4125  0.8948 -1.9946
  939SOL     MW 3756   2.816   1.978   2.230 -0.8087 -0.1585 -0.6045
  940SOL     OW 3757   2.324   0.162   2.696  0.5020 -0.0555  0.5425
  940SOL    HW1 3758   2.284   0.077   2.672 -1.4681 -1.5187 -0.3365
  940SOL    HW2 3759   2.373   0.146   2.773 -2.7685  1.4331 -0.4905
  940SOL     MW 3760   2.325   0.149   2.703 -0.1895 -0.0522  0.2903
  941SOL     OW 3761   0.200   2.271   2.040 -0.3897  0.0742  0.4512
  941SOL    HW1 3762   0.290   2.231   2.067 -2.4404 -1.1427 -2.7735
  941SOL    HW2 3763   0.154   2.207   1.985 -2.1009 -1.5925 -4.3620
  941SOL     MW 3764   0.206   2.257   2.036 -0.8861 -0.3062 -0.6093
  942SOL     OW 3765   2.932   2.235   2.146  0.0797 -0.3855 -0.5794
  942SOL    HW1 3766   2.856   2.302   2.131 -0.0642  2.1934 -0.4291
  942SOL    HW2 3767   2.886   2.153   2.179 -0.0500  1.1149 -1.0622
  942SOL     MW 3768   2.916   2.233   2.148  0.0436  0.1527 -0.6233
  943SOL     OW 3769   0.365   2.014   2.327 -0.2078  0.0177 -0.1536
  943SOL    HW1 3770   0.313   2.075   2.377  1.2709  0.5822  1.8257
  943SOL    HW2 3771   0.446   2.015   2.372 -1.9644  1.0632 -0.9791
  943SOL     MW 3772   0.368   2.022   2.340 -0.2445  0.2301 -0.0014
  944SOL     OW 3773   2.103   2.667   2.071  0.1511  0.2836 -0.3302
  944SOL    HW1 3774   2.183   2.633   2.118  0.4123  2.2431  0.6297
  944SOL    HW2 3775   2.072   2.734   2.134  0.2610  2.1226 -1.1872
  944SOL     MW 3776   2.110   2.672   2.086  0.2001  0.7848 -0.3166
  945SOL     OW 3777   2.750   2.711   2.836 -0.3172 -0.0873 -0.4501
  945SOL    HW1 3778   2.727   2.615   2.833 -0.6258 -1.6367 -0.9136
  945SOL    HW2 3779   2.780   2.732   2.747 -0.4488  0.9418  0.2783
  945SOL     MW 3780   2.751   2.701   2.824 -0.3753 -0.1559 -0.4151
  946SOL     OW 3781   2.475   2.748   2.253  0.5445 -0.0551 -0.0999
  946SOL    HW1 3782   2.481   2.788   2.166 -0.6777 -3.1957 -1.0424
  946SOL    HW2 3783   2.422   2.672   2.232  0.1238  3.7488 -0.7822
  946SOL     MW 3784   2.469   2.743   2.239  0.3277  0.0324 -0.3143
  947SOL     OW 3785   2.024   0.105   0.237 -0.5303  0.4380  0.0274
  947SOL    HW1 3786   2.011   0.024   0.191 -2.1512 -2.8939 -1.8024
  947SOL    HW2 3787   2.067   0.082   0.327 -0.0601  0.8677 -1.7262
  947SOL     MW 3788   2.028   0.091   0.243 -0.6821  0.0551 -0.4454
  948SOL     OW 3789   1.790   3.027   2.675 -0.3956 -0.5815  0.0819
  948SOL    HW1 3790   1.837   2.941   2.670  0.4733  2.4586  1.7788
  948SOL    HW2 3791   1.774   3.056   2.577  1.6061  0.7924 -1.5048
  948SOL     MW 3792   1.794   3.020   2.661 -0.0168  0.0009  0.0964
  949SOL     OW 3793   2.545   1.973   2.262 -0.0187 -0.0187 -0.1005
  949SOL    HW1 3794   2.538   1.891   2.309 -2.0234 -1.6442  0.2034
  949SOL    HW2 3795   2.492   2.030   2.319  1.1795 -1.1455 -0.4859
  949SOL     MW 3796   2.537   1.970   2.276 -0.1251 -0.3819 -0.1113
  950SOL     OW 3797   2.222   2.537   3.000 -0.0742  0.0635 -0.5659
  950SOL    HW1 3798   2.262   2.462   2.959 -0.3792  1.7529  0.3735
  950SOL    HW2 3799   2.154   2.573   2.929  0.1889 -1.5462 -1.7899
  950SOL     MW 3800   2.219   2.532   2.985 -0.0798  0.0740 -0.6035
  951SOL     OW 3801   2.946   2.123   2.830 -0.1355  0.2110 -0.1906
  951SOL    HW1 3802   2.975   2.169   2.912 -0.4955  0.4909 -2.0945
  951SOL    HW2 3803   3.025   2.136   2.777  0.3495  0.2544  1.4457
  951SOL     MW 3804   2.960   2.130   2.834 -0.1190  0.2537 -0.2259
  952SOL     OW 3805   3.090   1.746   2.173  0.0262 -0.4951  0.0190
  952SOL    HW1 3806   3.008   1.746   2.127 -0.8906 -1.3464  2.5956
  952SOL    HW2 3807   3.161   1.776   2.121  1.0875 -0.5152  1.3271
  952SOL     MW 3808   3.088   1.750   2.160  0.0452 -0.6101  0.5315
  953SOL     OW 3809   1.927   1.797   2.932 -0.5123 -0.2057  0.3331
  953SOL    HW1 3810   1.831   1.780   2.961  0.3264  0.2093 -2.7184
  953SOL    HW2 3811   1.948   1.740   2.863 -0.3953  0.5640 -0.6682
  953SOL     MW 3812   1.917   1.787   2.926 -0.3862 -0.0494 -0.2016
  954SOL     OW 3813   2.499   2.053   2.876 -0.0481 -0.1776 -0.0138
  954SOL    HW1 3814   2.412   2.049   2.831  1.8037  0.2965  0.1260
  954SOL    HW2 3815   2.560   2.019   2.805 -2.2437  1.8655 -1.7688
  954SOL     MW 3816   2.496   2.048   2.860 -0.0935  0.1545 -0.2269
  955SOL     OW 3817   1.598   1.628   2.549  0.0802 -0.0096  0.2978
  955SOL    HW1 3818   1.553   1.652   2.459  1.7965 -2.5444  2.1239
  955SOL    HW2 3819   1.669   1.685   2.564  0.0439 -2.1001  0.1622
  955SOL     MW 3820   1.601   1.638   2.539  0.3019 -0.6198  0.5209
  956SOL     OW 3821   2.700   2.437   2.848  0.3781 -0.2215  0.3283
  956SOL    HW1 3822   2.737   2.403   2.934  1.1327 -0.6190  1.8602
  956SOL    HW2 3823   2.727   2.377   2.780  4.1857  0.2862 -2.9680
  956SOL     MW 3824   2.709   2.425   2.851  0.9800 -0.2070  0.0955
  957SOL     OW 3825   2.261   2.887   0.390  0.5029 -0.3934  0.3951
  957SOL    HW1 3826   2.191   2.843   0.341  0.9506  0.1553 -0.8308
  957SOL    HW2 3827   2.262   2.852   0.477 -1.5702  2.0608  0.5825
  957SOL     MW 3828   2.252   2.877   0.395  0.2884  0.0028  0.2581
  958SOL     OW 3829   2.036   2.601   2.837  0.5244 -0.6785  0.4101
  958SOL    HW1 3830   2.000   2.542   2.773 -0.7822 -0.8051 -0.6524
  958SOL    HW2 3831   1.958   2.594   2.895 -1.5077 -3.9501 -1.2608
  958SOL     MW 3832   2.021   2.592   2.836  0.0839 -1.1268  0.0495
  959SOL     OW 3833   2.441   2.632   0.366 -0.1668  0.0396  0.4465
  959SOL    HW1 3834   2.503   2.631   0.289  2.8192 -0.3659 -2.7942
  959SOL    HW2 3835   2.407   2.721   0.378 -0.1331  2.7028  0.6346
  959SOL     MW 3836   2.445   2.644   0.357  0.2316  0.3375  0.0437
  960SOL     OW 3837   1.956   2.321   2.250  0.6455 -0.2810  0.1899
  960SOL    HW1 3838   1.886   2.265   2.222 -2.3662  1.1055  1.7468
  960SOL    HW2 3839   1.917   2.356   2.331  1.0152 -1.4402 -0.0930
  960SOL     MW 3840   1.941   2.318   2.257  0.2969 -0.2510  0.3580
  961SOL     OW 3841   2.213   2.306   2.320  0.2661  0.2178 -0.6063
  961SOL    HW1 3842   2.124   2.305   2.289  0.9060 -1.3894 -2.7813
  961SOL    HW2 3843   2.220   2.358   2.405  0.7729  0.3230 -2.4493
  961SOL     MW 3844   2.202   2.313   2.327  0.4174  0.0196 -1.1364
  962SOL     OW 3845   2.226   2.015   2.794  0.2161  0.2265 -0.1146
  962SOL    HW1 3846   2.174   2.012   2.875  3.0958  0.0772  0.4416
  962SOL    HW2 3847   2.209   1.936   2.745 -2.1584  1.2306  0.3809
  962SOL     MW 3848   2.217   2.004   2.798  0.2827  0.3393  0.0242
  963SOL     OW 3849   1.851   2.601   2.002 -0.2977  0.2091  0.2936
  963SOL    HW1 3850   1.942   2.618   2.044  1.9192  4.9336 -0.0360
  963SOL    HW2 3851   1.858   2.515   1.951  0.8383 -3.0445  0.1135
  963SOL     MW 3852   1.864   2.592   2.001  0.1447  0.4032  0.2264
  964SOL     OW 3853   1.814   1.975   2.751 -0.4132 -0.3863 -0.3407
  964SOL    HW1 3854   1.870   2.062   2.741  0.4930  2.0142 -0.2648
  964SOL    HW2 3855   1.864   1.921   2.810 -0.0664  0.9089  2.6447
  964SOL     MW 3856   1.828   1.979   2.757 -0.2479  0.1013  0.0632
  965SOL     OW 3857   2.248   2.736   0.618  0.1641  0.5217 -0.3502
  965SOL    HW1 3858   2.240   2.637   0.616  0.8660  1.4114 -2.7090
  965SOL    HW2 3859   2.284   2.757   0.707 -0.9786  1.6764 -0.4585
  965SOL     MW 3860   2.251   2.726   0.630  0.1059  0.7914 -0.6757
  966SOL     OW 3861   2.611   2.630   2.469 -0.1359 -0.1936  0.5057
  966SOL    HW1 3862   2.575   2.667   2.390 -0.0849 -1.9660 -0.1839
  966SOL    HW2 3863   2.632   2.529   2.445  1.6784 -2.8375  2.0195
  966SOL     MW 3864   2.609   2.622   2.455  0.1102 -0.7763  0.6144
  967SOL     OW 3865   2.915   3.008   2.896 -0.3555 -0.0485 -0.0991
  967SOL    HW1 3866   2.917   2.946   2.966 -1.1894  0.4011  1.5038
  967SOL    HW2 3867   2.825   3.017   2.864 -1.4823 -0.2729  0.1470
  967SOL     MW 3868   2.903   3.001   2.901 -0.6142 -0.0188  0.1448
  968SOL     OW 3869   2.992   2.601   2.954  0.0074 -0.0561 -0.4200
  968SOL    HW1 3870   2.910   2.634   2.911  0.7081 -0.0569  0.3301
  968SOL    HW2 3871   3.020   2.542   2.879  1.3477 -0.9033 -2.8440
  968SOL     MW 3872   2.985   2.597   2.939  0.2767 -0.1680 -0.6408
  969SOL     OW 3873   1.529   2.117   1.698  0.1961  0.0615  0.3635
  969SOL    HW1 3874   1.599   2.059   1.685 -2.0189  0.7919 -3.0525
  969SOL    HW2 3875   1.495   2.096   1.784  0.3300  1.8292 -2.1113
  969SOL     MW 3876   1.534   2.106   1.708 -0.0785  0.3911 -0.4137
  970SOL     OW 3877   1.652   1.671   1.801  0.3430  0.1828 -0.2807
  970SOL    HW1 3878   1.713   1.672   1.877  3.1732  0.4618  1.6247
  970SOL    HW2 3879   1.561   1.682   1.838  0.3433 -3.1783 -2.4723
  970SOL     MW 3880   1.648   1.673   1.816  0.7165 -0.2239 -0.3184
  971SOL     OW 3881   1.788   0.000   2.387  0.1119 -0.2417 -0.1138
  971SOL    HW1 3882   1.808   0.008   2.294 -3.1539  0.3027  2.5817
  971SOL    HW2 3883   1.867   0.064   2.412  1.9843 -0.1247  1.7466
  971SOL     MW 3884   1.801   0.010   2.378 -0.0720 -0.1544  0.4873
  972SOL     OW 3885   0.272   2.835   2.446 -0.1336  0.4137 -0.0659
  972SOL    HW1 3886   0.304   2.756   2.492 -3.7866  0.6794 -0.0138
  972SOL    HW2 3887   0.328   2.904   2.486  0.9054 -2.3494 -2.4302
  972SOL     MW 3888   0.283   2.833   2.457 -0.4785  0.0842 -0.3710
  973SOL     OW 3889   2.545   0.033   2.136 -0.3667  0.1132  0.6344
  973SOL    HW1 3890   2.547  -0.061   2.130 -1.0474 -0.2500 -0.7082
  973SOL    HW2 3891   2.570   0.048   2.046  0.5017  1.1275 -0.6049
  973SOL     MW 3892   2.549   0.023   2.123 -0.3420  0.1991  0.2937
  974SOL     OW 3893   2.060   0.256   2.706 -0.1733 -0.3131 -0.6455
  974SOL    HW1 3894   2.156   0.247   2.716  3.2156 -0.5247 -0.7081
  974SOL    HW2 3895   2.027   0.185   2.769  0.0831  0.5976  0.5237
  974SOL     MW 3896   2.068   0.246   2.716  0.3076 -0.2209 -0.4995
  975SOL     OW 3897   2.185   2.517   2.537 -0.4696 -0.0568 -0.1615
  975SOL    HW1 3898   2.282   2.527   2.554  2.1319 -1.0440  2.6038
  975SOL    HW2 3899   2.154   2.599   2.500  1.2027  1.1106  0.9484
  975SOL     MW 3900   2.194   2.529   2.535  0.0943 -0.0330  0.3498
  976SOL     OW 3901   0.271   0.368   1.714  0.1182 -0.6197 -0.1495
  976SOL    HW1 3902   0.331   0.299   1.761 -0.5759 -2.1518  3.0618
  976SOL    HW2 3903   0.200   0.308   1.688 -1.8822 -2.4773  3.2830
  976SOL     MW 3904   0.270   0.351   1.717 -0.2373 -1.0669  0.7271
  977SOL     OW 3905   1.736   2.705   2.471  0.2645 -0.3708 -0.2844
  977SOL    HW1 3906   1.717   2.612   2.470  2.1219 -1.1106  2.2807
  977SOL    HW2 3907   1.828   2.717   2.448  1.2015 -0.1661 -1.5053
  977SOL     MW 3908   1.746   2.694   2.468  0.6332 -0.4414 -0.1071
   3.10000   3.10000   3.10000
