977 TIP4P/2005f water molecules t=   1.34000 step= 1340
 3908
    1SOL     OW    1   0.366   0.848   0.034  0.4719 -0.0018 -0.0834
    1SOL    HW1    2   0.362   0.881  -0.059 -2.5484  0.8173 -1.3175
    1SOL    HW2    3   0.293   0.780   0.036  0.1542  0.2740  2.0735
    1SOL     MW    4   0.356   0.843   0.022  0.0315  0.1427  0.0383
    2SOL     OW    5   0.345   3.040   1.160 -0.3229 -0.2324 -0.6513
    2SOL    HW1    6   0.386   3.108   1.099  1.9567 -0.2581  0.0518
    2SOL    HW2    7   0.251   3.069   1.180  0.7983 -0.7372  0.5147
    2SOL     MW    8   0.338   3.053   1.154  0.1258 -0.3024 -0.4047
    3SOL     OW    9   2.610   0.337   0.962  0.3550  0.0217 -0.8860
    3SOL    HW1   10   2.643   0.404   0.912 -1.2037 -0.2369 -0.0794
    3SOL    HW2   11   2.580   0.388   1.046 -2.8457  4.1509  2.9357
    3SOL     MW   12   2.610   0.353   0.966 -0.2729  0.5323 -0.2753
    4SOL     OW   13   3.060   1.742   0.579 -0.2168 -0.1432  0.3655
    4SOL    HW1   14   3.004   1.815   0.547  1.5193  2.0380 -0.0657
    4SOL    HW2   15   3.123   1.726   0.507 -0.7557 -1.4489 -1.0339
    4SOL     MW   16   3.061   1.749   0.565 -0.0589 -0.0277  0.1240
    5SOL     OW   17   1.657   1.528   0.582 -0.0144 -0.0685  0.7715
    5SOL    HW1   18   1.706   1.489   0.655  0.0470  2.1246 -0.4645
    5SOL    HW2   19   1.556   1.510   0.600 -4.0026  0.7152  1.3396
    5SOL     MW   20   1.650   1.521   0.594 -0.5325  0.3243  0.6834
    6SOL     OW   21   0.834   1.386   0.577 -0.7164  0.2692  0.2921
    6SOL    HW1   22   0.749   1.416   0.541 -0.9951  1.6177 -1.8828
    6SOL    HW2   23   0.829   1.305   0.632  0.1638  0.8181  0.0843
    6SOL     MW   24   0.822   1.379   0.579 -0.6371  0.5195 -0.0223
    7SOL     OW   25   2.002   1.056   0.006 -0.3070 -0.3630 -0.1906
    7SOL    HW1   26   2.080   1.104  -0.012 -0.2279  0.6596 -0.8138
    7SOL    HW2   27   1.996   1.046   0.103 -0.7460 -0.7022  3.2942
    7SOL     MW   28   2.011   1.061   0.016 -0.3545 -0.2728  0.1870
    8SOL     OW   29   0.814   1.541   1.186 -0.7933 -0.4055 -0.3144
    8SOL    HW1   30   0.900   1.570   1.170 -1.2445  0.9156 -0.5210
    8SOL    HW2   31   0.818   1.447   1.205 -1.4979  1.7640  2.3844
    8SOL     MW   32   0.826   1.533   1.186 -0.9458  0.0550  0.0144
    9SOL     OW   33   1.023   0.512   1.332  0.2440 -0.2935 -0.0496
    9SOL    HW1   34   0.990   0.421   1.311 -0.3911  0.5721 -0.3608
    9SOL    HW2   35   1.062   0.494   1.421  0.8839  2.3571  1.0110
    9SOL     MW   36   1.024   0.498   1.341  0.2446  0.1704  0.0493
   10SOL     OW   37   0.258   0.786   0.528 -0.3711  0.0465 -0.0212
   10SOL    HW1   38   0.338   0.825   0.484  0.0481  0.3385  0.6603
   10SOL    HW2   39   0.243   0.822   0.618  0.0916  0.3356  1.7627
   10SOL     MW   40   0.267   0.796   0.534 -0.2547  0.1232  0.3041
   11SOL     OW   41   0.738   1.140   1.588  0.0977  0.1992 -0.2183
   11SOL    HW1   42   0.800   1.146   1.658 -0.8914  2.1428  0.0669
   11SOL    HW2   43   0.721   1.045   1.564 -0.7192  1.9184 -1.3131
   11SOL     MW   44   0.744   1.128   1.594 -0.1406  0.6825 -0.3251
   12SOL     OW   45   3.049   1.138   0.880 -0.3681  0.1431 -0.4727
   12SOL    HW1   46   3.118   1.203   0.907 -1.0212  2.6277 -1.2544
   12SOL    HW2   47   3.004   1.182   0.812 -2.0394  1.5800  0.4336
   12SOL     MW   48   3.052   1.153   0.875 -0.6747  0.6605 -0.4563
   13SOL     OW   49   1.855   1.421   1.325 -0.1088  0.1904 -0.5878
   13SOL    HW1   50   1.923   1.372   1.286 -2.4759  2.1345  0.8811
   13SOL    HW2   51   1.866   1.513   1.293 -1.3853  0.7633 -2.8283
   13SOL     MW   52   1.866   1.426   1.316 -0.5896  0.5225 -0.6896
   14SOL     OW   53   0.549   0.313   1.868  0.1448 -0.2647 -1.0829
   14SOL    HW1   54   0.482   0.251   1.857  2.6511 -1.2165  1.1349
   14SOL    HW2   55   0.606   0.309   1.794 -0.0292  0.7267  1.2048
   14SOL     MW   56   0.548   0.304   1.857  0.4525 -0.2595 -0.4884
   15SOL     OW   57   1.987   0.342   1.046 -0.1530 -0.2902  0.1693
   15SOL    HW1   58   1.968   0.409   1.112  0.7310 -0.2734 -0.7447
   15SOL    HW2   59   2.035   0.383   0.971  1.8920  0.8494  0.3858
   15SOL     MW   60   1.991   0.357   1.045  0.2335 -0.1376  0.0773
   16SOL     OW   61   0.226   1.826   0.305  0.2340 -0.2340 -0.0934
   16SOL    HW1   62   0.322   1.810   0.288  1.0892  0.7647 -1.6449
   16SOL    HW2   63   0.219   1.920   0.320  1.1545 -1.2505  1.6810
   16SOL     MW   64   0.238   1.836   0.305  0.4683 -0.2363 -0.0640
   17SOL     OW   65   1.042   0.894   1.419  0.0233  0.0084  0.2310
   17SOL    HW1   66   1.072   0.874   1.512  0.1696 -1.1156 -0.0906
   17SOL    HW2   67   0.947   0.877   1.431  1.0525 -0.3740  1.7518
   17SOL     MW   68   1.034   0.889   1.433  0.1784 -0.1903  0.3892
   18SOL     OW   69   0.111   1.592   0.363  0.5556 -0.0723  0.0498
   18SOL    HW1   70   0.148   1.682   0.342  1.7710  0.0480 -0.5846
   18SOL    HW2   71   0.109   1.563   0.275  1.6887  1.7883 -0.6123
   18SOL     MW   72   0.115   1.600   0.348  0.8655  0.1891 -0.1212
   19SOL     OW   73   0.107   1.353   0.965  0.1803  0.6547 -0.2909
   19SOL    HW1   74   0.142   1.376   0.880  0.9732 -0.2821  2.2711
   19SOL    HW2   75   0.015   1.384   0.966  1.9021 -0.6273 -0.8575
   19SOL     MW   76   0.100   1.360   0.954  0.5121  0.3619 -0.0276
   20SOL     OW   77   0.413   2.166   1.202  0.1697 -0.1294 -0.4049
   20SOL    HW1   78   0.373   2.087   1.168 -2.0451  0.4236  0.2323
   20SOL    HW2   79   0.403   2.161   1.299 -0.3457 -0.1962  0.5027
   20SOL     MW   80   0.407   2.155   1.211 -0.1905 -0.0652 -0.2011
   21SOL     OW   81   0.485   0.869   0.401 -0.1204  0.5472 -0.2643
   21SOL    HW1   82   0.548   0.841   0.469  1.5419  0.3739 -0.1344
   21SOL    HW2   83   0.529   0.876   0.316  0.8868  0.0816  1.8450
   21SOL     MW   84   0.499   0.866   0.399  0.2318  0.4629  0.0312
   22SOL     OW   85   1.531   0.701   0.968 -0.1743 -0.0943 -0.1030
   22SOL    HW1   86   1.509   0.666   0.885  0.4250 -1.3759 -1.6356
   22SOL    HW2   87   1.452   0.743   1.007 -0.3808 -0.7678 -1.4437
   22SOL     MW   88   1.518   0.702   0.962 -0.1225 -0.3523 -0.4821
   23SOL     OW   89   3.075   0.685   0.671 -0.0929  0.4141 -0.1993
   23SOL    HW1   90   3.126   0.619   0.721 -0.7815 -0.9446 -0.5839
   23SOL    HW2   91   3.114   0.771   0.693  0.5126  1.6136  1.1824
   23SOL     MW   92   3.087   0.688   0.681 -0.1038  0.3931 -0.0678
   24SOL     OW   93   2.046   2.222  -0.003  0.1201 -0.3305 -0.8292
   24SOL    HW1   94   2.033   2.214   0.092 -2.0266 -0.1981  0.5948
   24SOL    HW2   95   2.059   2.130  -0.027 -0.0802 -2.0752 -2.5899
   24SOL     MW   96   2.046   2.209   0.006 -0.1895 -0.5432 -0.8736
   25SOL     OW   97   0.248   1.350   0.449  0.3792 -0.4693 -0.9020
   25SOL    HW1   98   0.183   1.415   0.407  0.4635  1.3959 -1.5501
   25SOL    HW2   99   0.313   1.324   0.386 -0.0043 -0.0084  2.5292
   25SOL     MW  100   0.248   1.356   0.435  0.3397 -0.1624 -0.5348
   26SOL     OW  101   2.059   1.040   0.288 -0.0892 -0.0967 -0.3632
   26SOL    HW1  102   1.999   1.087   0.346  2.6293 -0.5987  2.5063
   26SOL    HW2  103   2.144   1.089   0.283  1.2649  3.4631 -0.5150
   26SOL     MW  104   2.062   1.053   0.295  0.4482  0.3067 -0.0047
   27SOL     OW  105   1.946   1.435   0.209 -0.6425 -0.4567 -0.0424
   27SOL    HW1  106   1.872   1.499   0.218 -0.4824  0.3416  1.2678
   27SOL    HW2  107   1.987   1.435   0.296 -0.6260 -2.3380  0.8960
   27SOL     MW  108   1.941   1.444   0.221 -0.6192 -0.5996  0.2543
   28SOL     OW  109   0.440   1.004   1.997  0.2545  0.0275  0.0344
   28SOL    HW1  110   0.482   0.997   2.089 -0.7441  0.3440  2.0913
   28SOL    HW2  111   0.347   0.968   1.997 -0.5058  3.1012  2.4108
   28SOL     MW  112   0.434   0.998   2.009  0.0225  0.4748  0.6193
   29SOL     OW  113   0.250   1.431   0.738 -0.1227 -0.0050 -0.5992
   29SOL    HW1  114   0.261   1.533   0.733  1.4709  0.0159 -2.2593
   29SOL    HW2  115   0.256   1.403   0.650  2.5583 -0.0464 -0.8000
   29SOL     MW  116   0.252   1.441   0.726  0.4413 -0.0077 -0.8447
   30SOL     OW  117   0.843   1.266   1.238 -0.2499  0.1054 -0.1475
   30SOL    HW1  118   0.765   1.243   1.285  1.9672  1.0440 -0.8140
   30SOL    HW2  119   0.911   1.223   1.298  0.7990 -0.3291 -1.9206
   30SOL     MW  120   0.841   1.257   1.252  0.1810  0.1719 -0.4694
   31SOL     OW  121   0.423   0.251   0.187  0.0348  0.4373 -0.0066
   31SOL    HW1  122   0.439   0.180   0.247  1.7866 -0.6666 -2.4735
   31SOL    HW2  123   0.422   0.201   0.104  1.5220  0.9137  1.7273
   31SOL     MW  124   0.425   0.235   0.184  0.4622  0.3545 -0.1033
   32SOL     OW  125   2.680   0.992   1.135 -0.5137  0.0988 -0.3830
   32SOL    HW1  126   2.628   0.920   1.119  1.5505  2.2047 -0.2824
   32SOL    HW2  127   2.768   0.957   1.114 -1.7284  0.8405 -0.0816
   32SOL     MW  128   2.685   0.978   1.130 -0.4017  0.4745 -0.3299
   33SOL     OW  129   1.619   1.335   0.384 -0.1074 -0.0974 -0.1508
   33SOL    HW1  130   1.681   1.259   0.386 -0.9378 -0.2312  0.2489
   33SOL    HW2  131   1.655   1.400   0.445 -0.3559  0.9616 -0.0621
   33SOL     MW  132   1.632   1.334   0.392 -0.2497  0.0246 -0.0864
   34SOL     OW  133   1.253   1.937   1.109  0.2420  0.1912  0.8443
   34SOL    HW1  134   1.174   1.968   1.146  0.9201 -1.6805 -1.5339
   34SOL    HW2  135   1.321   1.974   1.162  0.4858  1.8804  1.2947
   34SOL     MW  136   1.252   1.946   1.121  0.3637  0.1671  0.5900
   35SOL     OW  137   0.363   0.121   1.805 -0.5680  0.0529  0.2190
   35SOL    HW1  138   0.392   0.056   1.869  1.8534  1.2222 -0.1213
   35SOL    HW2  139   0.350   0.068   1.720 -2.3558  0.9370 -0.7517
   35SOL     MW  140   0.365   0.105   1.802 -0.4844  0.3238  0.0460
   36SOL     OW  141   1.940   1.904   0.571 -0.1982  0.2935 -0.1789
   36SOL    HW1  142   1.914   1.910   0.479 -0.0052  0.7027  0.6038
   36SOL    HW2  143   1.926   1.812   0.585  0.2155 -1.5525 -0.1056
   36SOL     MW  144   1.935   1.893   0.561 -0.1182  0.1040 -0.0660
   37SOL     OW  145   1.804   2.005   0.973  0.1254 -0.0203  0.3382
   37SOL    HW1  146   1.747   1.967   0.911  2.5157 -1.2960  0.0855
   37SOL    HW2  147   1.760   2.066   1.026  2.1013  1.3305 -1.6734
   37SOL     MW  148   1.791   2.008   0.972  0.7014 -0.0104  0.0395
   38SOL     OW  149   2.816   0.947   0.121 -0.3556 -0.4792 -0.0492
   38SOL    HW1  150   2.852   0.925   0.209  0.0419 -2.6021 -2.9305
   38SOL    HW2  151   2.890   0.920   0.065 -0.9487 -0.2126  2.0354
   38SOL     MW  152   2.830   0.941   0.125 -0.3814 -0.7241 -0.1543
   39SOL     OW  153   1.453   0.564   0.744  0.4843 -0.4640 -0.1516
   39SOL    HW1  154   1.404   0.493   0.788  1.3821 -0.7531  2.2605
   39SOL    HW2  155   1.388   0.636   0.735 -0.1280  0.1243  0.7948
   39SOL     MW  156   1.438   0.564   0.749  0.5220 -0.4245  0.2915
   40SOL     OW  157   1.228   1.875   0.213  0.7277 -0.0825 -0.6264
   40SOL    HW1  158   1.282   1.813   0.262  1.9460  0.8664  1.8194
   40SOL    HW2  159   1.211   1.948   0.272  0.2616 -0.7904 -1.9050
   40SOL     MW  160   1.233   1.877   0.228  0.8270 -0.0507 -0.4724
   41SOL     OW  161   0.566   0.479   1.629  0.3343  0.1792  0.6537
   41SOL    HW1  162   0.635   0.515   1.577  1.0157  0.3441  0.1265
   41SOL    HW2  163   0.501   0.547   1.641 -3.1060  3.3802  0.6731
   41SOL     MW  164   0.566   0.493   1.623 -0.0297  0.6233  0.5867
   42SOL     OW  165   1.298   3.008   1.955 -0.4175  0.0185 -0.5190
   42SOL    HW1  166   1.215   2.991   1.992 -0.3631  1.6143 -1.2391
   42SOL    HW2  167   1.347   2.933   1.994 -0.2194 -0.8925 -1.1103
   42SOL     MW  168   1.294   2.996   1.965 -0.3842  0.1089 -0.6920
   43SOL     OW  169   1.465   0.132   1.635 -0.6421 -0.2864  0.5820
   43SOL    HW1  170   1.547   0.086   1.611  0.0405 -1.0337 -0.3438
   43SOL    HW2  171   1.391   0.073   1.636 -1.0755  3.4940 -1.2750
   43SOL     MW  172   1.466   0.119   1.632 -0.6092  0.1138  0.2148
   44SOL     OW  173   1.278   0.762   1.058  0.9734  0.2827  0.0650
   44SOL    HW1  174   1.238   0.850   1.038 -0.9119  0.5998  1.0890
   44SOL    HW2  175   1.258   0.747   1.155 -2.1479  2.2611  0.8578
   44SOL     MW  176   1.270   0.771   1.068  0.3128  0.5855  0.3047
   45SOL     OW  177   1.268   0.756   0.744 -0.0346  0.0491  0.3382
   45SOL    HW1  178   1.233   0.768   0.831 -0.6002 -0.0311 -0.5344
   45SOL    HW2  179   1.192   0.711   0.703  1.1161  2.9507  1.4745
   45SOL     MW  180   1.253   0.752   0.750  0.0426  0.4213  0.3730
   46SOL     OW  181   0.567   1.089   0.593 -0.7887  0.3569  0.2256
   46SOL    HW1  182   0.526   1.072   0.509  1.7968 -0.1559  1.8576
   46SOL    HW2  183   0.655   1.059   0.571  0.6522  1.6053  0.6636
   46SOL     MW  184   0.573   1.082   0.579 -0.2574  0.4540  0.4987
   47SOL     OW  185   0.206   1.945   1.951 -0.4881  0.4712 -0.1066
   47SOL    HW1  186   0.281   1.894   1.987  1.1303 -1.6860 -1.0823
   47SOL    HW2  187   0.147   1.934   2.023 -1.3320  0.4446  1.6108
   47SOL     MW  188   0.208   1.937   1.965 -0.3859  0.1830 -0.0088
   48SOL     OW  189   1.109   0.509   1.024  0.7226 -0.1573  0.2481
   48SOL    HW1  190   1.015   0.509   1.052 -1.1353  1.7647 -1.1099
   48SOL    HW2  191   1.149   0.586   1.061 -2.5810 -0.9209  0.1539
   48SOL     MW  192   1.102   0.519   1.032  0.0416 -0.0045  0.0565
   49SOL     OW  193   1.713   0.653   1.521  0.0202 -0.1159  0.1047
   49SOL    HW1  194   1.705   0.614   1.609  0.2093 -0.8620  0.0538
   49SOL    HW2  195   1.762   0.588   1.468 -1.5863 -1.1545 -0.9469
   49SOL     MW  196   1.719   0.639   1.526 -0.1668 -0.3514 -0.0408
   50SOL     OW  197   1.247   1.144   0.557  0.3260  0.2648  0.1039
   50SOL    HW1  198   1.201   1.156   0.641 -1.5640 -1.1939 -0.0015
   50SOL    HW2  199   1.323   1.081   0.576 -1.3117 -1.9849  0.5402
   50SOL     MW  200   1.251   1.137   0.570 -0.1395 -0.2245  0.1475
   51SOL     OW  201   0.311   2.931   0.909 -0.1041  0.2266 -0.2843
   51SOL    HW1  202   0.391   2.882   0.888 -1.8133  1.5906 -0.1006
   51SOL    HW2  203   0.314   2.955   1.002  0.3235 -2.7231  1.4225
   51SOL     MW  204   0.322   2.928   0.918 -0.2732  0.0174 -0.0348
   52SOL     OW  205   0.799   1.793   0.469 -0.1917  0.0232  0.0138
   52SOL    HW1  206   0.760   1.882   0.460 -0.4482  1.1690  1.9837
   52SOL    HW2  207   0.794   1.746   0.387  0.8157  0.0179 -1.0140
   52SOL     MW  208   0.793   1.798   0.457 -0.0926  0.1737  0.1381
   53SOL     OW  209   0.420   2.125   0.494  0.0327  0.1571  0.4600
   53SOL    HW1  210   0.338   2.120   0.448  2.0510  0.3530  2.1930
   53SOL    HW2  211   0.432   2.218   0.518 -0.4904 -0.2744  3.2893
   53SOL     MW  212   0.411   2.137   0.491  0.2300  0.1260  1.0620
   54SOL     OW  213   2.082   0.937   0.762  0.2644  0.0647 -0.1297
   54SOL    HW1  214   2.135   0.938   0.679  1.0093 -0.5705  1.5987
   54SOL    HW2  215   2.051   0.846   0.777 -0.9419 -0.2905  1.2830
   54SOL     MW  216   2.085   0.925   0.753  0.2035 -0.0660  0.2847
   55SOL     OW  217   0.537   1.600   1.667  0.0469 -0.2878  0.2863
   55SOL    HW1  218   0.505   1.600   1.574  0.0474  0.4999 -3.4886
   55SOL    HW2  219   0.563   1.510   1.673 -1.1899  0.7790  1.7884
   55SOL     MW  220   0.536   1.588   1.655 -0.1162 -0.0431 -0.0136
   56SOL     OW  221   0.620   0.871   0.147 -0.6717  0.1783 -0.2766
   56SOL    HW1  222   0.643   0.954   0.108  0.2070 -1.3596  1.5092
   56SOL    HW2  223   0.536   0.852   0.103 -0.8966  2.1667 -3.8542
   56SOL     MW  224   0.612   0.880   0.136 -0.5855  0.2378 -0.5130
   57SOL     OW  225   1.192   1.210   1.177 -0.2077  0.0086 -0.0575
   57SOL    HW1  226   1.284   1.206   1.199  1.1218  0.7262 -0.6207
   57SOL    HW2  227   1.144   1.191   1.262 -2.1991  0.0503  2.0792
   57SOL     MW  228   1.198   1.207   1.191 -0.2950  0.1088  0.1501
   58SOL     OW  229   0.519   1.217   1.296  0.2281  0.4353 -0.1139
   58SOL    HW1  230   0.477   1.300   1.276 -0.4878  1.1643 -0.8213
   58SOL    HW2  231   0.527   1.217   1.392 -2.2594  1.0978 -0.7032
   58SOL     MW  232   0.515   1.228   1.306 -0.1946  0.6189 -0.2850
   59SOL     OW  233   1.513   1.688   0.312  0.1487 -0.0622  0.0658
   59SOL    HW1  234   1.550   1.736   0.385 -0.7454  0.9695  1.4295
   59SOL    HW2  235   1.430   1.650   0.340 -0.8574 -0.3681  2.2966
   59SOL     MW  236   1.507   1.689   0.325 -0.1020  0.0336  0.5400
   60SOL     OW  237   3.092   0.223   1.680 -0.2189 -0.4942  0.0895
   60SOL    HW1  238   3.014   0.268   1.732 -0.9350  3.1901  3.1071
   60SOL    HW2  239   3.107   0.152   1.741  1.1902 -1.2901  3.0345
   60SOL     MW  240   3.083   0.219   1.695 -0.1275 -0.1131  0.8762
   61SOL     OW  241   1.976   1.379   3.062  0.0778  0.4670 -0.4909
   61SOL    HW1  242   1.962   1.400   3.161 -2.3980  2.8955 -1.9023
   61SOL    HW2  243   2.028   1.293   3.054  0.9393  1.5203 -0.3919
   61SOL     MW  244   1.981   1.371   3.074 -0.1352  0.9264 -0.6640
   62SOL     OW  245   0.542   1.709   0.521 -0.2742  0.2952 -0.0144
   62SOL    HW1  246   0.640   1.720   0.515  4.7154 -1.0213 -2.2516
   62SOL    HW2  247   0.538   1.622   0.553  3.4465 -0.0399  0.0796
   62SOL     MW  248   0.554   1.699   0.524  0.8751  0.0773 -0.2972
   63SOL     OW  249   1.706   0.644   0.690 -0.1505  0.1645 -0.3752
   63SOL    HW1  250   1.719   0.737   0.666 -1.3089 -0.0812  0.6084
   63SOL    HW2  251   1.610   0.635   0.692 -0.7708  0.7519 -2.2115
   63SOL     MW  252   1.695   0.655   0.687 -0.3852  0.2096 -0.4877
   64SOL     OW  253   0.312   1.693   0.766 -0.0549 -0.2496 -0.0955
   64SOL    HW1  254   0.344   1.760   0.700  0.6540 -2.0994 -1.2365
   64SOL    HW2  255   0.227   1.727   0.794 -1.7954 -0.1415 -4.1936
   64SOL     MW  256   0.305   1.707   0.761 -0.1910 -0.4794 -0.7868
   65SOL     OW  257   1.579   2.331   0.404 -0.0857 -0.1192 -0.3166
   65SOL    HW1  258   1.664   2.375   0.416 -0.4468  1.6930  2.5196
   65SOL    HW2  259   1.521   2.373   0.471 -1.0819  0.4801 -0.1879
   65SOL     MW  260   1.583   2.342   0.415 -0.2647  0.1990  0.0746
   66SOL     OW  261   0.336   0.530   0.473  0.2396 -0.2888  0.1268
   66SOL    HW1  262   0.368   0.543   0.383 -2.7872  0.4565 -0.8734
   66SOL    HW2  263   0.302   0.624   0.489  0.2023  0.7096  0.2293
   66SOL     MW  264   0.336   0.544   0.463 -0.1647 -0.0587  0.0084
   67SOL     OW  265   1.465   0.141   1.993 -0.0836  0.0984  0.0896
   67SOL    HW1  266   1.484   0.185   1.914 -1.3648  1.3543 -0.4991
   67SOL    HW2  267   1.400   0.073   1.978  0.3916  0.6602 -1.6776
   67SOL     MW  268   1.459   0.138   1.981 -0.1900  0.3382 -0.2213
   68SOL     OW  269   0.784   0.044   2.942  0.5051 -0.4634 -0.1113
   68SOL    HW1  270   0.769   0.103   2.870  0.4951 -0.6563 -1.7873
   68SOL    HW2  271   0.844   0.073   3.010 -0.2024  1.4113  3.7233
   68SOL     MW  272   0.790   0.055   2.941  0.4104 -0.2415  0.1735
   69SOL     OW  273   0.959   0.199   1.955  0.1749  0.1139  0.0056
   69SOL    HW1  274   1.041   0.191   2.006 -1.8039  2.8411  1.7684
   69SOL    HW2  275   0.909   0.115   1.961 -0.6414 -1.1022 -0.1154
   69SOL     MW  276   0.963   0.187   1.962 -0.1939  0.3133  0.2222
   70SOL     OW  277   0.516   1.710   1.116 -0.7520 -0.1574 -0.6299
   70SOL    HW1  278   0.581   1.744   1.174 -0.2422 -1.0356 -1.2596
   70SOL    HW2  279   0.566   1.667   1.044  1.8931  0.1532  0.5754
   70SOL     MW  280   0.531   1.709   1.114 -0.3357 -0.2323 -0.5540
   71SOL     OW  281   1.552   0.531   1.161 -0.0025  0.4267 -0.4872
   71SOL    HW1  282   1.544   0.605   1.220  2.0038 -0.7680 -0.7494
   71SOL    HW2  283   1.543   0.573   1.076  0.6869  0.2120 -1.7618
   71SOL     MW  284   1.550   0.546   1.157  0.3531  0.2407 -0.6900
   72SOL     OW  285   0.791   1.849   0.993 -0.3521 -0.0606 -0.2008
   72SOL    HW1  286   0.757   1.913   0.928  1.0506  2.5318  1.9832
   72SOL    HW2  287   0.770   1.763   0.955 -0.6810 -0.6279 -2.4321
   72SOL     MW  288   0.784   1.846   0.979 -0.2104  0.2066 -0.2071
   73SOL     OW  289   1.219   0.699   1.309  0.9001 -0.6693 -0.0495
   73SOL    HW1  290   1.176   0.618   1.308  1.0509 -0.1235  1.3164
   73SOL    HW2  291   1.155   0.761   1.348 -2.7194 -1.3473 -0.5253
   73SOL     MW  292   1.205   0.696   1.314  0.4424 -0.6868  0.0679
   74SOL     OW  293   2.856   0.267   1.102  0.5733 -0.4812 -0.7299
   74SOL    HW1  294   2.907   0.351   1.104  1.7589  0.4876  1.3435
   74SOL    HW2  295   2.786   0.281   1.042 -0.6662  0.0561  0.4009
   74SOL     MW  296   2.854   0.280   1.095  0.5662 -0.2825 -0.3071
   75SOL     OW  297   1.588   1.355   0.104 -0.1937 -0.3670  0.2202
   75SOL    HW1  298   1.661   1.297   0.071 -2.0383 -1.2125  0.0433
   75SOL    HW2  299   1.603   1.366   0.200 -1.5855 -0.9994 -0.8344
   75SOL     MW  300   1.599   1.349   0.112 -0.6207 -0.5620  0.0577
   76SOL     OW  301   2.969   0.607   0.442  0.0158  0.0030  0.2005
   76SOL    HW1  302   2.995   0.638   0.532  1.4582 -0.0385  0.2459
   76SOL    HW2  303   3.044   0.557   0.413  0.4755  1.4047  1.3338
   76SOL     MW  304   2.982   0.605   0.450  0.2668  0.1824  0.3560
   77SOL     OW  305   0.846   0.551   0.467  0.5533 -0.2538 -0.4430
   77SOL    HW1  306   0.838   0.569   0.371  3.5081 -0.3132 -0.5668
   77SOL    HW2  307   0.854   0.452   0.463  1.8044 -0.2568 -0.4842
   77SOL     MW  308   0.846   0.540   0.454  1.1082 -0.2620 -0.4648
   78SOL     OW  309   0.746   0.834   1.176  1.0300  0.2422 -0.1358
   78SOL    HW1  310   0.758   0.897   1.110 -2.2187  0.8903 -0.0531
   78SOL    HW2  311   0.648   0.810   1.157 -0.8102 -0.2042 -0.9805
   78SOL     MW  312   0.734   0.839   1.165  0.3586  0.2688 -0.2363
   79SOL     OW  313   1.897   1.625   0.629  0.3120  0.1942 -0.1972
   79SOL    HW1  314   1.801   1.631   0.613  1.6167 -2.6954 -0.2166
   79SOL    HW2  315   1.893   1.627   0.728 -2.1392 -2.5763  0.4788
   79SOL     MW  316   1.884   1.626   0.640  0.1608 -0.5526 -0.1105
   80SOL     OW  317   0.081   0.946   0.357  0.2350  0.3307  0.1010
   80SOL    HW1  318  -0.015   0.935   0.364 -1.0133  0.7091 -0.7886
   80SOL    HW2  319   0.116   0.906   0.433  0.2371  1.8766  0.3547
   80SOL     MW  320   0.073   0.939   0.368  0.0706  0.5846  0.0171
   81SOL     OW  321   1.858   1.905   0.317  0.1223 -0.7444  0.3287
   81SOL    HW1  322   1.822   1.814   0.282 -1.0505 -0.9556  2.0481
   81SOL    HW2  323   1.791   1.968   0.276  2.0817 -2.1501 -0.6806
   81SOL     MW  324   1.845   1.901   0.307  0.2261 -0.9578  0.4224
   82SOL     OW  325   0.828   1.023   0.498  0.5897  0.2090 -0.0119
   82SOL    HW1  326   0.840   1.050   0.404  0.3562 -0.5706  0.1136
   82SOL    HW2  327   0.804   0.927   0.509  1.7220 -2.2719  1.7602
   82SOL     MW  328   0.827   1.014   0.487  0.7083 -0.2212  0.2384
   83SOL     OW  329   0.044   0.749   1.497 -0.1184  0.0589  0.6496
   83SOL    HW1  330   0.068   0.775   1.407  0.6483 -0.8103  1.1755
   83SOL    HW2  331   0.125   0.704   1.530  2.7441 -0.9550 -2.7076
   83SOL     MW  332   0.057   0.746   1.490  0.3605 -0.1895  0.2760
   84SOL     OW  333   0.035   0.192   0.899  0.1475  0.4136 -0.0202
   84SOL    HW1  334   0.007   0.271   0.940 -1.0822  0.1900  2.3349
   84SOL    HW2  335   0.043   0.130   0.972  1.5547 -2.2402 -1.0639
   84SOL     MW  336   0.033   0.194   0.914  0.1709  0.0340  0.1528
   85SOL     OW  337   0.415   0.450   0.706 -0.3116 -0.2074  0.1933
   85SOL    HW1  338   0.395   0.467   0.618  0.9584  0.3015  1.9017
   85SOL    HW2  339   0.389   0.357   0.727 -2.3315 -0.3485 -0.5226
   85SOL     MW  340   0.409   0.440   0.697 -0.4105 -0.1588  0.3243
   86SOL     OW  341   1.208   0.249   1.123 -0.4066  0.3127  0.0332
   86SOL    HW1  342   1.177   0.333   1.147 -0.4811 -1.5499  2.7089
   86SOL    HW2  343   1.301   0.250   1.158 -0.4140 -0.2553 -6.0067
   86SOL     MW  344   1.216   0.260   1.131 -0.4174 -0.0080 -0.4107
   87SOL     OW  345   1.118   1.483   1.213 -0.7665 -0.3236 -0.1815
   87SOL    HW1  346   1.148   1.539   1.137  0.5035 -0.0907  1.0146
   87SOL    HW2  347   1.140   1.398   1.186  1.2110  3.3451  0.7504
   87SOL     MW  348   1.125   1.479   1.199 -0.3380  0.1912  0.0993
   88SOL     OW  349   1.203   1.013   0.996  0.7517 -0.6993  0.1293
   88SOL    HW1  350   1.296   1.006   0.967  0.6545 -1.9884 -0.3514
   88SOL    HW2  351   1.194   1.084   1.070 -1.0476 -0.3807  2.3532
   88SOL     MW  352   1.214   1.022   1.002  0.5014 -0.8273  0.3593
   89SOL     OW  353   1.741   0.734   0.336  0.1568 -0.2090  0.5264
   89SOL    HW1  354   1.738   0.641   0.359  0.8631 -0.6104  1.4194
   89SOL    HW2  355   1.829   0.746   0.297  1.1631 -0.6011 -2.0940
   89SOL     MW  356   1.752   0.723   0.334  0.3828 -0.3137  0.2985
   90SOL     OW  357   0.819   1.157   2.879 -0.2635  0.2647  0.3421
   90SOL    HW1  358   0.805   1.063   2.880  3.1659 -0.7973  1.2732
   90SOL    HW2  359   0.831   1.187   2.973 -0.3919  0.9396  0.2486
   90SOL     MW  360   0.819   1.149   2.891  0.1720  0.2136  0.4526
   91SOL     OW  361   2.169   0.676   0.516 -0.0207 -0.6181 -0.5123
   91SOL    HW1  362   2.229   0.730   0.460  1.0682  0.8879 -3.5964
   91SOL    HW2  363   2.168   0.582   0.477  0.0413 -2.5771 -1.4757
   91SOL     MW  364   2.177   0.671   0.504  0.1312 -0.6779 -1.0464
   92SOL     OW  365   1.710   0.895   0.591 -0.9465  0.2043  0.1045
   92SOL    HW1  366   1.617   0.919   0.603 -2.0020 -0.2740 -1.8570
   92SOL    HW2  367   1.708   0.843   0.507  0.8968 -0.0921  0.3533
   92SOL     MW  368   1.697   0.891   0.581 -0.8426  0.1021 -0.1215
   93SOL     OW  369   1.134   0.160   0.427 -0.2413  0.0345  0.3863
   93SOL    HW1  370   1.051   0.207   0.416 -1.6947 -0.0731 -1.8079
   93SOL    HW2  371   1.192   0.193   0.359  1.0723 -1.6545  1.0110
   93SOL     MW  372   1.130   0.170   0.416 -0.2597 -0.2025  0.1792
   94SOL     OW  373   1.871   1.378   1.586 -0.2246 -0.2438 -0.0909
   94SOL    HW1  374   1.866   1.392   1.488 -0.8723 -0.1692  1.7577
   94SOL    HW2  375   1.815   1.300   1.600  0.5170  0.5399 -1.7747
   94SOL     MW  376   1.863   1.369   1.575 -0.2122 -0.1306 -0.0692
   95SOL     OW  377   0.699   1.600   0.936 -0.0122  0.4085  0.0207
   95SOL    HW1  378   0.735   1.563   1.018 -1.8442  0.5602  0.1002
   95SOL    HW2  379   0.635   1.538   0.897  1.5191  0.2258  0.1360
   95SOL     MW  380   0.695   1.587   0.942 -0.0519  0.4044  0.0464
   96SOL     OW  381   1.330   1.886   1.728 -0.1149 -0.6342  0.0067
   96SOL    HW1  382   1.234   1.868   1.750 -1.4986  0.0800  1.5547
   96SOL    HW2  383   1.369   1.805   1.711 -1.6259  0.8983  0.0358
   96SOL     MW  384   1.322   1.873   1.729 -0.4969 -0.3378  0.2148
   97SOL     OW  385   1.103   1.468   0.847 -0.2883  0.0322 -0.2643
   97SOL    HW1  386   1.144   1.539   0.898  1.8144 -0.7306 -2.2825
   97SOL    HW2  387   1.024   1.511   0.808  2.3147 -0.0250 -0.5857
   97SOL     MW  388   1.098   1.483   0.849  0.3326 -0.0760 -0.5730
   98SOL     OW  389   1.466   1.303   1.158 -0.2781  0.6427 -0.0498
   98SOL    HW1  390   1.477   1.368   1.226  2.3269 -1.9347 -0.6055
   98SOL    HW2  391   1.456   1.355   1.074  0.0024 -0.8940  1.6984
   98SOL     MW  392   1.466   1.319   1.156  0.1026  0.0999  0.1075
   99SOL     OW  393   1.456   0.284   1.250  0.2824 -0.2616 -0.0638
   99SOL    HW1  394   1.476   0.373   1.220 -1.3195 -0.3260  0.4820
   99SOL    HW2  395   1.477   0.295   1.347 -1.4693  1.3720  1.9869
   99SOL     MW  396   1.461   0.297   1.258 -0.1601 -0.0545  0.2788
  100SOL     OW  397   1.057   1.158   1.397 -0.2908 -0.0328  0.3580
  100SOL    HW1  398   1.072   1.179   1.488 -0.2035 -0.6355  1.6892
  100SOL    HW2  399   1.064   1.062   1.402 -0.9572 -0.6663 -0.6253
  100SOL     MW  400   1.060   1.148   1.410 -0.3672 -0.1959  0.4039
  101SOL     OW  401   0.474   1.219   0.340  0.6246 -0.2005  0.8041
  101SOL    HW1  402   0.427   1.144   0.299 -1.5742  0.0769 -0.0615
  101SOL    HW2  403   0.547   1.213   0.286  0.7865 -1.7455  0.2185
  101SOL     MW  404   0.478   1.208   0.327  0.3558 -0.3678  0.6126
  102SOL     OW  405   2.899   0.630   0.987  0.4220  0.5240  0.6058
  102SOL    HW1  406   2.915   0.722   0.981 -2.8379  0.4798 -3.0140
  102SOL    HW2  407   2.876   0.603   1.083 -0.9835  1.5824  0.4272
  102SOL     MW  408   2.898   0.639   0.999 -0.1936  0.6578  0.1046
  103SOL     OW  409   1.818   0.275   1.890  0.3386 -0.3995  0.1271
  103SOL    HW1  410   1.805   0.185   1.876  3.1174  1.5047 -0.2936
  103SOL    HW2  411   1.811   0.281   1.982  1.1620 -1.8803 -0.0257
  103SOL     MW  412   1.816   0.264   1.900  0.8139 -0.3436  0.0515
  104SOL     OW  413   0.105   1.510   1.586 -0.1285  0.0771  0.1446
  104SOL    HW1  414   0.166   1.454   1.625 -1.8485  1.5736  0.5738
  104SOL    HW2  415   0.023   1.473   1.610  2.5231 -1.3412  0.1805
  104SOL     MW  416   0.102   1.497   1.595 -0.0056  0.0874  0.2059
  105SOL     OW  417   0.003   1.208   0.422 -0.1453  0.0705  0.3526
  105SOL    HW1  418   0.029   1.118   0.395  1.9449 -1.6525 -3.2296
  105SOL    HW2  419   0.084   1.242   0.452 -1.0144  1.1126 -1.6707
  105SOL     MW  420   0.017   1.200   0.423  0.0158 -0.0194 -0.3870
  106SOL     OW  421   0.804   0.423   0.931 -0.1598 -0.0813 -0.9874
  106SOL    HW1  422   0.740   0.478   0.891  1.1473  0.4623  0.1429
  106SOL    HW2  423   0.875   0.416   0.863 -0.5127 -1.9857 -1.5056
  106SOL     MW  424   0.805   0.429   0.917 -0.0339 -0.2608 -0.9066
  107SOL     OW  425   0.815   2.119   2.908 -0.4524 -0.4057  0.2295
  107SOL    HW1  426   0.728   2.122   2.865  1.5199  2.7286 -2.6595
  107SOL    HW2  427   0.801   2.151   2.996 -0.0414 -1.5509 -1.6558
  107SOL     MW  428   0.802   2.124   2.914 -0.1380 -0.1432 -0.4004
  108SOL     OW  429   1.346   1.625   1.643  0.4781  0.2606  0.3674
  108SOL    HW1  430   1.276   1.593   1.586 -4.7303  1.5701 -3.1525
  108SOL    HW2  431   1.430   1.583   1.617 -0.2345 -0.6391  2.7501
  108SOL     MW  432   1.348   1.615   1.632 -0.3031  0.3146  0.2174
  109SOL     OW  433   1.982   0.771   0.259 -0.2875 -0.5051 -0.3148
  109SOL    HW1  434   2.006   0.864   0.261 -0.4773 -0.5533  2.8143
  109SOL    HW2  435   2.012   0.735   0.344 -1.0446 -0.1917  0.6271
  109SOL     MW  436   1.989   0.778   0.270 -0.4124 -0.4701  0.2223
  110SOL     OW  437   0.415   1.908   0.655 -0.1253  0.5620  0.4338
  110SOL    HW1  438   0.477   1.841   0.614 -1.7125  2.2230 -0.4057
  110SOL    HW2  439   0.417   1.977   0.587  1.1594  0.2957 -0.5916
  110SOL     MW  440   0.423   1.909   0.641 -0.1652  0.7460  0.1877
  111SOL     OW  441   0.775   0.870   1.441  0.3732  0.3190 -0.1781
  111SOL    HW1  442   0.760   0.860   1.344 -1.2522 -0.4565  2.3079
  111SOL    HW2  443   0.780   0.778   1.463 -0.6706  0.7674  1.4650
  111SOL     MW  444   0.774   0.856   1.431  0.0210  0.2759  0.3667
  112SOL     OW  445   1.340   1.064   1.619 -0.4447 -0.0053 -0.1465
  112SOL    HW1  446   1.288   1.141   1.633  0.3346  2.4909  1.6628
  112SOL    HW2  447   1.273   0.994   1.622  0.7573 -1.9654 -1.3962
  112SOL     MW  448   1.324   1.065   1.621 -0.1833  0.0654 -0.0726
  113SOL     OW  449   1.246   3.070   1.699  0.6125  0.5769 -0.2785
  113SOL    HW1  450   1.275   3.038   1.791  1.4294 -0.0227  0.8514
  113SOL    HW2  451   1.247   2.989   1.644 -3.9328 -0.2698  0.4059
  113SOL     MW  452   1.250   3.055   1.704  0.1206  0.3860 -0.0391
  114SOL     OW  453   0.263   2.876   1.881 -0.2275 -0.0939 -0.1718
  114SOL    HW1  454   0.338   2.914   1.926  2.1079 -0.1060  1.6397
  114SOL    HW2  455   0.198   2.944   1.902  3.7104 -2.0948 -0.2081
  114SOL     MW  456   0.264   2.890   1.890  0.6002 -0.3595  0.0624
  115SOL     OW  457   0.466   0.813   1.150 -0.4394 -0.3535  0.0112
  115SOL    HW1  458   0.469   0.714   1.164 -2.9806  0.2933 -3.5890
  115SOL    HW2  459   0.433   0.852   1.237  0.4806  3.7246  0.6525
  115SOL     MW  460   0.462   0.805   1.163 -0.6533  0.2699 -0.3792
  116SOL     OW  461   0.814   1.060   0.989  0.4870  0.4347 -0.2067
  116SOL    HW1  462   0.835   1.091   0.898 -1.1963  2.7983 -2.1048
  116SOL    HW2  463   0.865   1.114   1.051 -0.6785 -0.0331 -2.8597
  116SOL     MW  464   0.824   1.071   0.985  0.1112  0.6848 -0.8071
  117SOL     OW  465   1.098   1.200   0.802  0.2755 -0.2752  0.3360
  117SOL    HW1  466   1.160   1.153   0.863 -1.5694  0.6644 -1.1675
  117SOL    HW2  467   1.102   1.298   0.819 -0.7964 -2.2549  2.0563
  117SOL     MW  468   1.107   1.206   0.812 -0.1094 -0.4124  0.3646
  118SOL     OW  469   3.056   2.956   1.679 -0.2387  0.2790  0.3852
  118SOL    HW1  470   3.073   3.003   1.759 -0.4563  1.3732  1.4072
  118SOL    HW2  471   2.967   2.979   1.654 -3.0168 -0.2965 -0.0849
  118SOL     MW  472   3.047   2.966   1.686 -0.6340  0.3475  0.4580
  119SOL     OW  473   0.440   1.494   1.266 -0.3672  0.1052  0.5068
  119SOL    HW1  474   0.476   1.570   1.212 -2.2548 -1.0854 -1.1249
  119SOL    HW2  475   0.345   1.496   1.257 -0.7866  1.1249  1.5560
  119SOL     MW  476   0.432   1.504   1.258 -0.6716  0.0826  0.4300
  120SOL     OW  477   0.214   0.739   1.024 -0.4977  0.0316 -0.2095
  120SOL    HW1  478   0.190   0.731   1.117 -4.3873  1.5077  0.1412
  120SOL    HW2  479   0.311   0.759   1.035 -2.4492 -0.1260  0.2941
  120SOL     MW  480   0.224   0.741   1.038 -1.2684  0.2055 -0.0968
  121SOL     OW  481   1.746   1.088   1.671  0.3844  0.1085 -0.1231
  121SOL    HW1  482   1.662   1.101   1.716  3.7732  0.8091 -0.0634
  121SOL    HW2  483   1.743   1.002   1.622  0.0815 -0.7567 -3.4742
  121SOL     MW  484   1.735   1.078   1.671  0.7915  0.0868 -0.5574
  122SOL     OW  485   0.193   0.543   0.837 -0.0134  0.7515  0.5590
  122SOL    HW1  486   0.264   0.505   0.785  0.5233  0.5692  0.6772
  122SOL    HW2  487   0.233   0.602   0.896 -0.2618 -1.3630  0.3993
  122SOL     MW  488   0.207   0.546   0.838  0.0247  0.4485  0.5535
  123SOL     OW  489   1.853   1.112   0.448 -0.0149 -0.5292  0.2082
  123SOL    HW1  490   1.799   1.047   0.493 -0.6612  1.7613 -1.8939
  123SOL    HW2  491   1.864   1.176   0.521 -2.7451 -1.7273 -0.5160
  123SOL     MW  492   1.847   1.112   0.464 -0.4604 -0.3851 -0.1647
  124SOL     OW  493   0.559   0.554   0.926 -1.0683  0.5891 -0.4764
  124SOL    HW1  494   0.512   0.526   0.846 -2.6986 -1.3941 -1.0349
  124SOL    HW2  495   0.610   0.632   0.899 -1.3346 -0.1979  1.3141
  124SOL     MW  496   0.559   0.560   0.912 -1.3186  0.2236 -0.3139
  125SOL     OW  497   0.719   1.772   1.716  0.2583 -0.2469 -0.3878
  125SOL    HW1  498   0.660   1.696   1.695  2.0523  0.3563 -3.7717
  125SOL    HW2  499   0.669   1.853   1.702 -0.0082  2.7171  0.7307
  125SOL     MW  500   0.705   1.773   1.712  0.4598  0.2238 -0.6867
  126SOL     OW  501   2.141   1.558   1.977 -0.5123  0.4936 -0.2691
  126SOL    HW1  502   2.206   1.631   1.962  0.2554 -2.1292  0.0840
  126SOL    HW2  503   2.194   1.482   2.004 -1.4599 -0.8646  1.3047
  126SOL     MW  504   2.157   1.557   1.979 -0.5361 -0.0316 -0.0149
  127SOL     OW  505   0.569   0.841   1.810  0.3228  0.5202 -0.5329
  127SOL    HW1  506   0.660   0.814   1.825 -1.1464 -0.7938  1.6580
  127SOL    HW2  507   0.541   0.886   1.894  0.1220  1.9259  0.5137
  127SOL     MW  508   0.577   0.843   1.823  0.1024  0.5323 -0.1057
  128SOL     OW  509   1.686   0.723   2.916 -0.3791 -0.1324 -0.0201
  128SOL    HW1  510   1.736   0.726   2.832 -1.3687  3.6178 -1.3614
  128SOL    HW2  511   1.668   0.816   2.932 -1.0399  0.2198 -1.2734
  128SOL     MW  512   1.690   0.736   2.907 -0.5969  0.4089 -0.3624
  129SOL     OW  513   1.636   0.920   0.152 -0.2006  0.4542 -0.2391
  129SOL    HW1  514   1.546   0.893   0.138 -2.3264  0.8103  1.7773
  129SOL    HW2  515   1.674   0.864   0.215 -0.1091  1.2112  0.7058
  129SOL     MW  516   1.629   0.909   0.159 -0.4690  0.6010  0.1516
  130SOL     OW  517   0.811   1.372   0.316 -0.1270 -0.2381  0.8020
  130SOL    HW1  518   0.852   1.378   0.406  1.4511  0.6034 -0.0743
  130SOL    HW2  519   0.813   1.465   0.285  1.4478  0.6105 -2.0581
  130SOL     MW  520   0.817   1.385   0.324  0.2890 -0.0151  0.3090
  131SOL     OW  521   3.034   0.834   3.096  0.1698 -0.3445  0.0370
  131SOL    HW1  522   3.035   0.894   3.016 -0.6592  2.8893 -1.0869
  131SOL    HW2  523   3.118   0.779   3.093  1.5923 -0.2901 -1.0736
  131SOL     MW  524   3.045   0.834   3.085  0.2481  0.0893 -0.2578
  132SOL     OW  525   2.719   0.140   1.306  0.0107  0.0565 -0.1530
  132SOL    HW1  526   2.764   0.175   1.229  2.5262  1.3969  1.3416
  132SOL    HW2  527   2.630   0.114   1.281  3.4838  1.4392 -2.1319
  132SOL     MW  528   2.713   0.141   1.293  0.8008  0.4158 -0.2169
  133SOL     OW  529   1.037   0.140   1.701  0.1067  0.0357 -0.6210
  133SOL    HW1  530   1.119   0.089   1.713  0.3440  1.7853 -0.1047
  133SOL    HW2  531   1.007   0.153   1.791  0.9457  1.3216 -1.2156
  133SOL     MW  532   1.044   0.135   1.715  0.2487  0.4362 -0.6313
  134SOL     OW  533   1.415   2.488   1.423 -0.0013 -0.7002 -0.0154
  134SOL    HW1  534   1.349   2.546   1.401 -0.6606 -2.8112  0.4012
  134SOL    HW2  535   1.441   2.517   1.511  0.3099  1.8423 -0.5809
  134SOL     MW  536   1.409   2.500   1.432 -0.0472 -0.6433 -0.0350
  135SOL     OW  537   3.035   0.971   2.843  0.5120  0.4358  0.6275
  135SOL    HW1  538   3.107   1.024   2.879 -2.4065 -0.7113 -1.0545
  135SOL    HW2  539   2.961   1.026   2.865 -1.7654 -1.5633 -2.5138
  135SOL     MW  540   3.035   0.985   2.850 -0.1735  0.0207 -0.0089
  136SOL     OW  541   0.214   2.069   0.828  0.1341  0.4513  0.7119
  136SOL    HW1  542   0.154   1.990   0.815  1.6287 -2.8093  0.6663
  136SOL    HW2  543   0.293   2.059   0.769 -2.4209 -1.9767  2.3005
  136SOL     MW  544   0.217   2.058   0.818 -0.0058 -0.2992  0.9155
  137SOL     OW  545   0.696   2.049   0.548 -0.0150  0.5617  0.8203
  137SOL    HW1  546   0.689   2.048   0.646  0.6234 -1.1212 -0.8444
  137SOL    HW2  547   0.607   2.067   0.518 -0.0755 -3.0188  1.9590
  137SOL     MW  548   0.684   2.051   0.557  0.0612 -0.1328  0.7509
  138SOL     OW  549   0.509   0.547   1.199 -0.3190 -0.5070  0.1899
  138SOL    HW1  550   0.416   0.514   1.196  1.8386 -0.1295 -2.3592
  138SOL    HW2  551   0.531   0.531   1.103  0.5416 -1.7643 -0.4942
  138SOL     MW  552   0.499   0.541   1.186  0.0792 -0.6231 -0.2367
  139SOL     OW  553   2.875   0.531   1.259 -0.4836  0.2654  0.2880
  139SOL    HW1  554   2.917   0.483   1.326 -1.5751 -1.0000 -1.5903
  139SOL    HW2  555   2.859   0.617   1.302  1.2979  1.0514  0.7864
  139SOL     MW  556   2.878   0.536   1.273 -0.3925  0.2021  0.1060
  140SOL     OW  557   0.943   0.485   2.013 -0.4708 -0.3761 -0.0033
  140SOL    HW1  558   0.926   0.390   1.986  1.1704 -1.2883 -0.4411
  140SOL    HW2  559   0.932   0.483   2.113 -3.9382  0.7482 -0.5778
  140SOL     MW  560   0.939   0.472   2.022 -0.7117 -0.3481 -0.1369
  141SOL     OW  561   0.997   0.634   1.698 -0.2383 -0.4264 -0.3860
  141SOL    HW1  562   1.059   0.560   1.680  0.4155  1.5028  1.6980
  141SOL    HW2  563   1.047   0.709   1.683 -2.6098  0.7924  0.1675
  141SOL     MW  564   1.012   0.634   1.694 -0.4649 -0.0110 -0.0380
  142SOL     OW  565   0.839   1.171   0.734 -0.6114  0.1200 -0.0117
  142SOL    HW1  566   0.838   1.116   0.650 -1.2704  0.7299 -0.0397
  142SOL    HW2  567   0.933   1.174   0.746  0.0249  2.1356  2.0435
  142SOL     MW  568   0.851   1.164   0.724 -0.6144  0.4664  0.2558
  143SOL     OW  569   1.813   0.678   1.089  0.2773 -0.0280 -0.3948
  143SOL    HW1  570   1.864   0.695   1.008  1.3757 -1.4823  0.2318
  143SOL    HW2  571   1.721   0.655   1.066 -0.5855 -2.0538  1.1762
  143SOL     MW  572   1.807   0.677   1.075  0.3084 -0.4871 -0.1049
  144SOL     OW  573   0.286   1.357   1.700 -0.2850  0.2159  0.0525
  144SOL    HW1  574   0.357   1.322   1.642  1.6033  0.6557  0.9261
  144SOL    HW2  575   0.330   1.354   1.791  1.8431  0.6953 -0.0147
  144SOL     MW  576   0.301   1.352   1.705  0.2449  0.3372  0.1589
  145SOL     OW  577   0.192   0.497   1.225 -0.5862  0.0853  0.6352
  145SOL    HW1  578   0.238   0.409   1.219 -2.8050 -0.6242 -0.0770
  145SOL    HW2  579   0.126   0.471   1.162 -0.2338  0.2638 -3.2363
  145SOL     MW  580   0.189   0.482   1.216 -0.8325  0.0152  0.0304
  146SOL     OW  581   0.852   1.967   1.402  1.0347 -0.1240 -0.3193
  146SOL    HW1  582   0.903   1.968   1.323  0.8595 -2.3934 -2.8112
  146SOL    HW2  583   0.758   1.976   1.378  2.2943 -2.8756  0.2773
  146SOL     MW  584   0.846   1.968   1.388  1.1778 -0.7865 -0.5694
  147SOL     OW  585   0.398   0.516   2.961  0.1130  0.2410 -0.3580
  147SOL    HW1  586   0.396   0.570   3.037  2.8901 -1.2141 -1.9227
  147SOL    HW2  587   0.347   0.567   2.897 -0.2951 -0.0061  0.5014
  147SOL     MW  588   0.391   0.530   2.962  0.4256  0.0164 -0.4511
  148SOL     OW  589   0.067   0.886   1.256 -0.7775 -0.8593 -1.1203
  148SOL    HW1  590   0.167   0.907   1.259  3.4437 -0.4882  3.9695
  148SOL    HW2  591   0.032   0.965   1.292  1.7396 -0.5304 -1.5333
  148SOL     MW  592   0.076   0.899   1.261  0.1115 -0.7670 -0.5032
  149SOL     OW  593   1.540   1.151   1.401  0.7895  0.2765  0.1590
  149SOL    HW1  594   1.474   1.136   1.470  0.6385  0.8057  1.1373
  149SOL    HW2  595   1.537   1.246   1.383  2.7037  0.3866 -2.7496
  149SOL     MW  596   1.531   1.161   1.408  1.0221  0.3608 -0.0957
  150SOL     OW  597   1.729   1.390   0.838 -0.1210  0.0395  0.6968
  150SOL    HW1  598   1.796   1.330   0.802 -2.4269 -2.6453 -1.5371
  150SOL    HW2  599   1.778   1.463   0.879  2.4360  2.3578  0.0435
  150SOL     MW  600   1.745   1.392   0.839 -0.0879 -0.0089  0.3159
  151SOL     OW  601   1.676   1.831   0.798  0.2555  0.3393  0.0487
  151SOL    HW1  602   1.649   1.846   0.704 -3.0956 -2.7747  0.7243
  151SOL    HW2  603   1.599   1.823   0.855 -0.8584  1.8402  2.5135
  151SOL     MW  604   1.662   1.832   0.793 -0.3336  0.1265  0.4631
  152SOL     OW  605   0.778   1.422   1.652  0.1301  0.0859 -0.3664
  152SOL    HW1  606   0.782   1.496   1.593 -2.7979 -0.4015 -0.9989
  152SOL    HW2  607   0.800   1.341   1.601 -0.9790 -3.0293  0.1043
  152SOL     MW  608   0.782   1.421   1.637 -0.4026 -0.3895 -0.3878
  153SOL     OW  609   2.569   1.232   0.769  0.1034  0.2365  0.0752
  153SOL    HW1  610   2.654   1.189   0.749 -0.8407 -0.5979 -1.5051
  153SOL    HW2  611   2.510   1.153   0.763  0.7506 -2.8998 -1.4414
  153SOL     MW  612   2.573   1.216   0.766  0.0642 -0.2874 -0.3334
  154SOL     OW  613   0.124   1.744   1.710 -0.0576  0.0207  0.0342
  154SOL    HW1  614   0.117   1.664   1.653 -0.9264 -2.4214 -0.7094
  154SOL    HW2  615   0.200   1.741   1.763 -1.5567  2.6935  0.6800
  154SOL     MW  616   0.133   1.733   1.709 -0.3700  0.0511  0.0213
  155SOL     OW  617   1.173   0.720   0.310 -0.0443 -0.2914  0.2163
  155SOL    HW1  618   1.134   0.681   0.395 -1.9407 -0.3195  2.0664
  155SOL    HW2  619   1.184   0.813   0.333 -0.0276 -0.0649 -0.2794
  155SOL     MW  620   1.169   0.727   0.325 -0.2923 -0.2652  0.3950
  156SOL     OW  621   1.564   3.018   1.072  0.1926  0.5560  0.4819
  156SOL    HW1  622   1.638   3.067   1.111  0.7836 -0.5442  2.0608
  156SOL    HW2  623   1.596   2.925   1.081 -0.4198 -0.7753 -0.2455
  156SOL     MW  624   1.578   3.012   1.078  0.1898  0.2352  0.5943
  157SOL     OW  625   1.373   1.132   0.122 -0.2548 -0.1145  0.4880
  157SOL    HW1  626   1.368   1.067   0.203 -1.8864 -0.6204 -0.8987
  157SOL    HW2  627   1.440   1.192   0.154 -0.0526 -0.2007 -1.2077
  157SOL     MW  628   1.381   1.131   0.137 -0.4434 -0.1926  0.0813
  158SOL     OW  629   0.389   1.648   2.309  0.3505 -0.2678  0.5740
  158SOL    HW1  630   0.418   1.708   2.239  1.4030 -1.1589  1.8849
  158SOL    HW2  631   0.324   1.700   2.354  0.0750  0.6806 -1.9407
  158SOL     MW  632   0.384   1.663   2.306  0.4530 -0.2602  0.4152
  159SOL     OW  633   1.234   1.690   0.466 -0.0921 -0.4970 -0.2448
  159SOL    HW1  634   1.182   1.659   0.392 -0.4209 -0.7067 -0.5025
  159SOL    HW2  635   1.181   1.750   0.515  1.9540 -2.1483  0.3147
  159SOL     MW  636   1.220   1.694   0.463  0.1345 -0.7426 -0.2050
  160SOL     OW  637   0.477   1.239   1.564 -0.3160  0.0817  0.0359
  160SOL    HW1  638   0.446   1.148   1.564  0.6701  1.0079  1.3514
  160SOL    HW2  639   0.572   1.229   1.575  2.3264 -0.0131  1.7331
  160SOL     MW  640   0.485   1.226   1.565  0.1627  0.1914  0.4334
  161SOL     OW  641   0.457   2.203   2.555  0.0443 -0.5793  0.3098
  161SOL    HW1  642   0.367   2.219   2.560 -2.5017 -0.4980  1.6661
  161SOL    HW2  643   0.470   2.135   2.493  1.1927 -1.6309  0.0598
  161SOL     MW  644   0.447   2.196   2.547 -0.1401 -0.7073  0.4558
  162SOL     OW  645   1.081   1.825   1.843 -0.2328  0.9202 -0.0091
  162SOL    HW1  646   1.081   1.916   1.888  0.7698  1.3821 -2.4478
  162SOL    HW2  647   1.003   1.789   1.885 -0.2152  1.4036  0.4821
  162SOL     MW  648   1.070   1.833   1.855 -0.0982  1.0449 -0.2661
  163SOL     OW  649   2.043   3.053   0.897  0.0961 -0.5593  0.1003
  163SOL    HW1  650   2.024   3.126   0.841  1.3500 -1.7461  1.7827
  163SOL    HW2  651   2.046   2.970   0.840 -0.8752 -1.6788  1.4308
  163SOL     MW  652   2.041   3.052   0.882  0.1334 -0.8636  0.4978
  164SOL     OW  653   0.306   0.221   0.811 -0.1009  0.1806  0.0689
  164SOL    HW1  654   0.207   0.231   0.839  0.5170  3.1419  0.6248
  164SOL    HW2  655   0.309   0.135   0.767 -0.4021  1.1175 -0.3284
  164SOL     MW  656   0.293   0.211   0.809 -0.0591  0.6949  0.0898
  165SOL     OW  657   1.235   1.317   0.333 -0.5446  0.2748  0.2737
  165SOL    HW1  658   1.226   1.264   0.418  0.5615 -0.2012 -0.8397
  165SOL    HW2  659   1.304   1.272   0.279 -1.6054 -2.2165 -0.5384
  165SOL     MW  660   1.243   1.304   0.337 -0.5386 -0.1167  0.0196
  166SOL     OW  661   0.536   1.152   1.013  0.0944 -0.0751 -0.0866
  166SOL    HW1  662   0.532   1.138   1.111 -0.4521 -1.0263  2.9866
  166SOL    HW2  663   0.627   1.126   0.991  0.9595 -2.7007  1.6155
  166SOL     MW  664   0.548   1.146   1.023  0.1364 -0.5470  0.5434
  167SOL     OW  665   0.818   1.108   0.238  0.1826  0.4499 -0.2713
  167SOL    HW1  666   0.821   1.199   0.281  1.7370 -1.7575 -1.4740
  167SOL    HW2  667   0.895   1.093   0.180 -0.4225  0.6312  1.5893
  167SOL     MW  668   0.829   1.118   0.236  0.3079  0.1826 -0.1845
  168SOL     OW  669   1.746   1.648   3.049 -0.2154 -0.0590 -0.9614
  168SOL    HW1  670   1.674   1.703   3.014  2.5307  1.7765 -1.7788
  168SOL    HW2  671   1.736   1.556   3.011  4.1405 -0.5445  0.2834
  168SOL     MW  672   1.735   1.643   3.040  0.7217  0.1191 -0.9050
  169SOL     OW  673   0.336   0.992   1.316 -0.1629 -0.1371  0.2667
  169SOL    HW1  674   0.365   0.972   1.405  0.2998 -0.9040 -0.4122
  169SOL    HW2  675   0.392   1.063   1.282 -1.9897  1.4902 -1.9670
  169SOL     MW  676   0.347   0.999   1.323 -0.3428 -0.0236 -0.1176
  170SOL     OW  677   1.128   1.529   1.492  0.3452 -0.6195 -0.1328
  170SOL    HW1  678   1.080   1.604   1.513  0.1283  1.2393  1.5430
  170SOL    HW2  679   1.092   1.505   1.405  0.5584 -1.2922  0.0454
  170SOL     MW  680   1.117   1.536   1.483  0.3447 -0.4630  0.1118
  171SOL     OW  681   0.547   1.425   0.536 -0.4142 -0.3755 -0.2722
  171SOL    HW1  682   0.519   1.404   0.622  3.3096  2.1130 -2.1005
  171SOL    HW2  683   0.532   1.350   0.481  2.2744  1.0571 -1.2337
  171SOL     MW  684   0.542   1.412   0.540  0.4319  0.1418 -0.6403
  172SOL     OW  685   0.883   0.301   1.278 -0.0788 -0.4255 -0.0047
  172SOL    HW1  686   0.793   0.323   1.263  2.6453  3.1567  1.9566
  172SOL    HW2  687   0.883   0.235   1.345 -1.3671  1.0109 -3.1818
  172SOL     MW  688   0.871   0.295   1.285  0.1106  0.2367 -0.1651
  173SOL     OW  689   0.500   1.775   0.262 -0.1081  0.0003  0.2841
  173SOL    HW1  690   0.505   1.683   0.227  2.1742 -0.2066  2.8536
  173SOL    HW2  691   0.518   1.761   0.356 -0.2872  1.0538 -1.1483
  173SOL     MW  692   0.503   1.761   0.270  0.1694  0.1120  0.4341
  174SOL     OW  693   1.842   0.892   1.515 -0.5569  0.0313 -0.1483
  174SOL    HW1  694   1.799   0.808   1.506 -1.9562  2.0017 -0.9273
  174SOL    HW2  695   1.841   0.920   1.425 -0.8153 -0.2614  0.3118
  174SOL     MW  696   1.836   0.885   1.502 -0.7756  0.2526 -0.1904
  175SOL     OW  697   0.495   1.508   0.244  0.2431  0.8993 -0.8343
  175SOL    HW1  698   0.467   1.424   0.215  1.7956  1.1136  0.2723
  175SOL    HW2  699   0.509   1.499   0.340  0.8417 -0.2825  2.4548
  175SOL     MW  700   0.493   1.496   0.253  0.5269  0.7717 -0.2543
  176SOL     OW  701   0.147   1.492   1.194 -0.2286  0.1924 -0.1076
  176SOL    HW1  702   0.146   1.455   1.108  1.5430  2.7431  1.2399
  176SOL    HW2  703   0.071   1.471   1.250  2.5267  2.7662  2.0536
  176SOL     MW  704   0.137   1.484   1.190  0.3687  0.8685  0.3553
  177SOL     OW  705   0.549   0.345   1.365  0.0333 -0.4542  0.8541
  177SOL    HW1  706   0.561   0.423   1.306  1.8538 -3.6804 -0.1225
  177SOL    HW2  707   0.545   0.375   1.460  0.3806 -0.3094  0.3233
  177SOL     MW  708   0.550   0.359   1.369  0.3193 -0.8608  0.6552
  178SOL     OW  709   3.095   0.528   2.969  0.0703 -0.2071  0.0339
  178SOL    HW1  710   3.041   0.550   3.042 -0.4057  0.0638  2.0833
  178SOL    HW2  711   3.035   0.482   2.903  0.4508 -1.1856 -2.0354
  178SOL     MW  712   3.080   0.525   2.970  0.0577 -0.3004  0.0313
  179SOL     OW  713   1.554   1.443   1.388 -0.0705  0.1908  0.1432
  179SOL    HW1  714   1.559   1.465   1.478  1.9789  0.2373  1.0869
  179SOL    HW2  715   1.647   1.436   1.371  1.1030  0.5161  1.5103
  179SOL     MW  716   1.567   1.445   1.398  0.3547  0.2398  0.4481
  180SOL     OW  717   3.016   0.238   0.496  0.0262  0.2351  0.1980
  180SOL    HW1  718   2.974   0.260   0.415  0.6731  2.7624  0.1727
  180SOL    HW2  719   3.097   0.297   0.491 -0.5740 -0.0363 -1.0085
  180SOL     MW  720   3.021   0.249   0.484  0.0324  0.5328  0.0355
  181SOL     OW  721   1.146   1.347   3.062  0.1160  0.0017  0.0000
  181SOL    HW1  722   1.213   1.400   3.107  0.8430 -0.3437  0.8140
  181SOL    HW2  723   1.190   1.282   3.002  0.4802 -4.3879  0.5331
  181SOL     MW  724   1.160   1.346   3.060  0.2600 -0.6231  0.1778
  182SOL     OW  725   0.407   0.968   1.584 -0.5532  1.0923  0.1581
  182SOL    HW1  726   0.320   0.974   1.621 -0.5499  3.2268 -0.1618
  182SOL    HW2  727   0.447   0.914   1.651  1.1113  0.5219  1.0139
  182SOL     MW  728   0.401   0.962   1.598 -0.3332  1.2987  0.2288
  183SOL     OW  729   1.549   1.715   1.215 -0.8172 -0.5104  0.0616
  183SOL    HW1  730   1.643   1.692   1.235  2.7296  1.2067 -0.3362
  183SOL    HW2  731   1.501   1.642   1.254 -2.5145  1.4030 -0.0645
  183SOL     MW  732   1.555   1.702   1.223 -0.5732 -0.0314 -0.0075
  184SOL     OW  733   0.824   0.725   1.889  0.1571  0.0106 -0.1696
  184SOL    HW1  734   0.886   0.677   1.839 -0.3564 -0.6478 -1.0908
  184SOL    HW2  735   0.828   0.675   1.972 -1.3239 -1.9081 -0.3701
  184SOL     MW  736   0.833   0.712   1.894 -0.1061 -0.3295 -0.3176
  185SOL     OW  737   1.111   0.956   1.914  0.1394  0.4495 -0.4842
  185SOL    HW1  738   1.107   0.869   1.955 -0.4909  0.3513 -2.1540
  185SOL    HW2  739   1.142   1.015   1.979 -0.8692 -0.3929  0.5008
  185SOL     MW  740   1.115   0.952   1.928 -0.0768  0.3254 -0.5746
  186SOL     OW  741   0.364   1.691   1.440 -0.3457 -0.5078  0.1476
  186SOL    HW1  742   0.396   1.641   1.362 -1.9155  2.9179 -0.8952
  186SOL    HW2  743   0.278   1.664   1.437  0.5291  1.4354 -3.0657
  186SOL     MW  744   0.357   1.681   1.429 -0.4374  0.2006 -0.4140
  187SOL     OW  745   1.500   0.714   1.361 -0.0509  0.6469  0.2259
  187SOL    HW1  746   1.547   0.685   1.438 -3.8920 -1.5961  0.5170
  187SOL    HW2  747   1.410   0.725   1.381 -1.7089 -3.9493 -0.0953
  187SOL     MW  748   1.495   0.712   1.374 -0.7764 -0.2555  0.2219
  188SOL     OW  749   1.913   1.155   0.781  0.4018  0.0969 -0.2681
  188SOL    HW1  750   1.924   1.149   0.876  0.0190 -1.1152 -4.8001
  188SOL    HW2  751   1.959   1.077   0.748 -0.6604 -0.4034 -2.7744
  188SOL     MW  752   1.921   1.144   0.789  0.2112 -0.1290 -1.1967
  189SOL     OW  753   0.687   0.783   0.849 -0.2440 -0.2252 -0.1324
  189SOL    HW1  754   0.614   0.840   0.851  0.8040 -3.0028  1.4915
  189SOL    HW2  755   0.763   0.812   0.892 -0.7811 -1.7720  0.4428
  189SOL     MW  756   0.687   0.794   0.855 -0.1766 -0.7957  0.1578
  190SOL     OW  757   1.836   0.290   2.160  0.0283  0.2884 -0.8366
  190SOL    HW1  758   1.876   0.249   2.232 -0.8749  1.3723 -0.2607
  190SOL    HW2  759   1.906   0.349   2.135 -2.2624 -2.1239 -2.7271
  190SOL     MW  760   1.850   0.293   2.166 -0.3931  0.1132 -1.0100
  191SOL     OW  761   1.535   0.960   1.200 -0.1685  0.2151  0.7668
  191SOL    HW1  762   1.548   1.042   1.247  0.2070  0.1204 -1.8183
  191SOL    HW2  763   1.521   0.896   1.267 -0.0389  0.9791  1.2116
  191SOL     MW  764   1.535   0.962   1.215 -0.1018  0.3034  0.4844
  192SOL     OW  765   0.568   2.102   2.795 -0.1011  0.1515  0.4344
  192SOL    HW1  766   0.521   2.124   2.715  1.1588 -2.0480  1.4395
  192SOL    HW2  767   0.587   2.005   2.789  4.5303  1.8037  0.3719
  192SOL     MW  768   0.564   2.092   2.784  0.6762  0.0793  0.5588
  193SOL     OW  769   0.903   1.582   0.733 -0.8397  0.0018 -0.1693
  193SOL    HW1  770   0.822   1.580   0.785  0.8214 -0.8702 -2.6005
  193SOL    HW2  771   0.888   1.485   0.686  0.8027 -2.3997 -0.9793
  193SOL     MW  772   0.891   1.569   0.734 -0.4038 -0.4301 -0.5969
  194SOL     OW  773   0.500   1.393   0.874 -0.1281 -1.1561 -0.4641
  194SOL    HW1  774   0.504   1.303   0.921  2.7584 -4.7434 -3.4055
  194SOL    HW2  775   0.407   1.409   0.860 -1.7566  0.5880  1.1112
  194SOL     MW  776   0.488   1.383   0.878  0.0379 -1.3993 -0.6443
  195SOL     OW  777   1.271   1.134   2.962 -0.0283 -0.1413  0.1108
  195SOL    HW1  778   1.308   1.125   3.051 -1.7565 -0.7755  0.4302
  195SOL    HW2  779   1.222   1.057   2.956 -0.3069 -0.1480 -0.3389
  195SOL     MW  780   1.269   1.123   2.973 -0.2930 -0.2259  0.0936
  196SOL     OW  781   2.198   0.971   0.524  0.3271 -0.6639  0.2723
  196SOL    HW1  782   2.137   0.968   0.445 -1.2283  0.1156 -3.0736
  196SOL    HW2  783   2.206   1.067   0.546  0.1950 -0.7937  1.4509
  196SOL     MW  784   2.191   0.984   0.516  0.1045 -0.5782 -0.0136
  197SOL     OW  785   0.617   1.325   2.186 -0.2411 -0.3907  0.8646
  197SOL    HW1  786   0.646   1.230   2.163 -0.0630 -3.7041 -1.9066
  197SOL    HW2  787   0.657   1.385   2.120  1.7760 -0.0477  1.9494
  197SOL     MW  788   0.626   1.321   2.174  0.0485 -0.7826  0.6421
  198SOL     OW  789   2.926   1.412   1.000  0.1443  0.1067  0.2751
  198SOL    HW1  790   2.885   1.494   0.963 -2.1515 -0.2284 -0.2993
  198SOL    HW2  791   2.854   1.351   1.002  0.0764 -2.3555  1.9922
  198SOL     MW  792   2.911   1.415   0.995 -0.1676 -0.2624  0.4258
  199SOL     OW  793   0.725   1.361   1.933  0.9222 -0.1253  0.7254
  199SOL    HW1  794   0.632   1.330   1.929  2.0744 -1.1735  0.1252
  199SOL    HW2  795   0.753   1.386   1.844  0.7225  0.5675  3.0719
  199SOL     MW  796   0.716   1.360   1.921  1.0479 -0.1722  0.9558
  200SOL     OW  797   1.856   2.905   1.378 -0.2982 -0.1088 -0.3505
  200SOL    HW1  798   1.900   2.950   1.310  0.6973 -0.2451 -1.6837
  200SOL    HW2  799   1.778   2.965   1.384 -0.0745 -0.7830  2.6537
  200SOL     MW  800   1.852   2.919   1.370 -0.1373 -0.2157 -0.1300
  201SOL     OW  801   0.984   0.360   0.746  0.3409  0.3383  0.0083
  201SOL    HW1  802   0.991   0.270   0.719 -0.3755 -0.1751  0.9040
  201SOL    HW2  803   1.055   0.365   0.811 -2.6604  1.2069 -0.9971
  201SOL     MW  804   0.995   0.349   0.751 -0.1496  0.3852 -0.0062
  202SOL     OW  805   1.489   1.731   0.964  0.3535  0.7755  0.3762
  202SOL    HW1  806   1.510   1.641   0.933  1.9220 -0.4657 -2.2114
  202SOL    HW2  807   1.517   1.726   1.053  0.2174 -0.6567  0.0773
  202SOL     MW  808   1.495   1.718   0.971  0.5425  0.4228 -0.0047
  203SOL     OW  809   2.998   0.425   1.480 -0.7897 -0.3935  0.4504
  203SOL    HW1  810   3.055   0.351   1.467 -1.3617  0.7547 -0.3821
  203SOL    HW2  811   3.063   0.493   1.485 -0.2687 -3.1117  0.4125
  203SOL     MW  812   3.014   0.424   1.479 -0.7964 -0.6007  0.3356
  204SOL     OW  813   1.015   1.798   0.625 -0.0949  0.4158  0.2527
  204SOL    HW1  814   0.990   1.715   0.673 -0.1836 -2.4062  1.2502
  204SOL    HW2  815   0.950   1.795   0.551  0.7537  0.6757 -0.2564
  204SOL     MW  816   1.003   1.787   0.621  0.0054  0.0778  0.3171
  205SOL     OW  817   1.382   3.069   1.314 -1.0072 -0.5044  0.3492
  205SOL    HW1  818   1.410   3.074   1.225 -0.1839  1.1171  1.0504
  205SOL    HW2  819   1.302   3.122   1.325 -0.4414  0.5024 -0.5717
  205SOL     MW  820   1.375   3.077   1.304 -0.8239 -0.1576  0.3202
  206SOL     OW  821   0.492   3.084   1.390 -0.5896  0.0424  0.1014
  206SOL    HW1  822   0.439   3.082   1.309  0.3917 -3.4768 -0.4250
  206SOL    HW2  823   0.532   2.996   1.397  0.9960  0.3926  0.4957
  206SOL     MW  824   0.490   3.072   1.380 -0.2509 -0.3757  0.0840
  207SOL     OW  825   0.905   1.641   0.243  0.0079  0.4058  0.0359
  207SOL    HW1  826   0.929   1.724   0.218 -1.9049 -1.2222  0.7748
  207SOL    HW2  827   0.994   1.607   0.251 -0.9125  1.3120  0.6896
  207SOL     MW  828   0.920   1.647   0.240 -0.3659  0.3105  0.2196
  208SOL     OW  829   0.672   1.688   1.391  0.5158 -0.6215  0.7426
  208SOL    HW1  830   0.744   1.705   1.451 -2.1017 -2.0729  0.3414
  208SOL    HW2  831   0.707   1.626   1.331  1.2812  0.5135 -1.6403
  208SOL     MW  832   0.686   1.682   1.391  0.2715 -0.6632  0.3753
  209SOL     OW  833   1.518   0.524   2.776 -0.1241 -0.5302 -0.1287
  209SOL    HW1  834   1.559   0.593   2.823 -1.4570 -0.0637 -2.3380
  209SOL    HW2  835   1.591   0.472   2.747  0.3924 -0.4410  0.7443
  209SOL     MW  836   1.533   0.526   2.778 -0.2318 -0.4569 -0.3050
  210SOL     OW  837   1.464   1.430   0.921  0.2007  1.1614  0.5202
  210SOL    HW1  838   1.561   1.425   0.892 -0.1262  0.0247  1.1772
  210SOL    HW2  839   1.410   1.450   0.846  1.3134  2.8313  3.3812
  210SOL     MW  840   1.470   1.432   0.907  0.3044  1.2318  0.9844
  211SOL     OW  841   1.710   0.286   1.005  0.2203  0.4447  0.0280
  211SOL    HW1  842   1.692   0.273   0.913 -0.2917 -1.6968  0.0472
  211SOL    HW2  843   1.803   0.301   1.015  2.4373 -0.9995 -1.7940
  211SOL     MW  844   1.720   0.287   0.994  0.4452 -0.0284 -0.2099
  212SOL     OW  845   0.304   1.086   0.189 -0.8925  0.4065  0.6894
  212SOL    HW1  846   0.239   1.023   0.227 -0.2931 -1.1052  1.5900
  212SOL    HW2  847   0.355   1.026   0.136  2.4791  2.6563 -2.3031
  212SOL     MW  848   0.302   1.070   0.187 -0.3686  0.5039  0.4134
  213SOL     OW  849   0.491   1.753   2.986  0.1763  0.0715  0.4625
  213SOL    HW1  850   0.515   1.832   3.036 -0.4193 -0.4416 -1.1611
  213SOL    HW2  851   0.533   1.776   2.906 -2.2396 -1.3917  1.6924
  213SOL     MW  852   0.500   1.766   2.982 -0.2210 -0.1893  0.4105
  214SOL     OW  853   0.631   0.349   2.122  0.0354 -0.4260  0.1031
  214SOL    HW1  854   0.585   0.422   2.155 -0.5426  0.1855 -0.3146
  214SOL    HW2  855   0.611   0.343   2.029 -1.9300 -1.0510 -1.3692
  214SOL     MW  856   0.623   0.358   2.114 -0.3002 -0.4278 -0.1463
  215SOL     OW  857   0.480   0.644   2.645  0.6895 -0.0618  0.1414
  215SOL    HW1  858   0.451   0.672   2.558 -1.8475  0.7791 -0.4494
  215SOL    HW2  859   0.401   0.617   2.689  0.3415 -0.7347 -3.0062
  215SOL     MW  860   0.466   0.644   2.640  0.3088 -0.0396 -0.3518
  216SOL     OW  861   2.997   3.043   2.730  0.6187 -0.4475 -0.7514
  216SOL    HW1  862   2.921   3.045   2.789  1.0287 -1.3737  1.1759
  216SOL    HW2  863   3.013   3.131   2.712 -0.6046 -2.2063  0.1272
  216SOL     MW  864   2.989   3.055   2.735  0.5114 -0.8017 -0.3812
  217SOL     OW  865   1.051   1.106   0.087  0.0707 -0.2075  0.0753
  217SOL    HW1  866   1.072   1.032   0.025 -1.0762 -2.4738  0.8765
  217SOL    HW2  867   1.094   1.192   0.063  1.4735 -0.5765  1.4147
  217SOL     MW  868   1.059   1.108   0.076  0.1045 -0.5552  0.3577
  218SOL     OW  869   0.876   1.352   2.687 -0.1198 -0.1021  0.7281
  218SOL    HW1  870   0.854   1.285   2.754 -1.9522 -1.5579  0.1001
  218SOL    HW2  871   0.968   1.360   2.684 -1.1431  0.4888  2.0253
  218SOL     MW  872   0.885   1.344   2.696 -0.4966 -0.2163  0.8164
  219SOL     OW  873   1.130   0.332   2.608 -0.4015  0.1554  0.2554
  219SOL    HW1  874   1.204   0.399   2.633  0.3973 -1.9473  0.2644
  219SOL    HW2  875   1.057   0.389   2.607  1.3873  1.3823 -0.5704
  219SOL     MW  876   1.130   0.348   2.611 -0.0601  0.0398  0.1476
  220SOL     OW  877   1.662   0.466   2.251 -0.0048  0.6868  0.5426
  220SOL    HW1  878   1.580   0.483   2.204 -0.0404  2.8433 -1.4082
  220SOL    HW2  879   1.710   0.392   2.209 -0.9850  0.1642  0.3132
  220SOL     MW  880   1.657   0.459   2.240 -0.1388  0.9023  0.2549
  221SOL     OW  881   0.345   1.283   2.893  0.1005 -0.4073 -0.3726
  221SOL    HW1  882   0.429   1.240   2.880  1.1673 -1.2837  0.2611
  221SOL    HW2  883   0.362   1.370   2.847  0.6373  2.6946  1.4318
  221SOL     MW  884   0.358   1.289   2.885  0.3121 -0.1137 -0.0509
  222SOL     OW  885   0.483   0.945   2.639  0.5611 -0.3368  0.3407
  222SOL    HW1  886   0.394   0.960   2.617  2.3662  0.3576  1.5977
  222SOL    HW2  887   0.488   0.852   2.641  1.9049 -2.5703  2.3011
  222SOL     MW  888   0.472   0.935   2.636  0.9766 -0.5399  0.7652
  223SOL     OW  889   0.084   2.013   2.540 -0.7584 -0.0880  0.7974
  223SOL    HW1  890   0.076   1.989   2.635 -1.1385  2.3886  0.6630
  223SOL    HW2  891   0.105   2.106   2.534 -3.2835 -2.9413  1.1965
  223SOL     MW  892   0.086   2.022   2.552 -1.1417 -0.1377  0.8324
  224SOL     OW  893   1.504   0.770   2.495 -0.8224  0.0174 -0.6961
  224SOL    HW1  894   1.513   0.775   2.587 -3.9528  0.1554 -1.3193
  224SOL    HW2  895   1.489   0.858   2.461  2.4953  0.3029  0.6212
  224SOL     MW  896   1.503   0.782   2.503 -0.7977  0.0733 -0.6045
  225SOL     OW  897   2.932   1.445   2.250  0.4927 -0.0154  0.2933
  225SOL    HW1  898   2.958   1.523   2.202  0.3362  0.0747 -2.3681
  225SOL    HW2  899   2.866   1.476   2.310  1.4258  0.1298 -1.9646
  225SOL     MW  900   2.926   1.459   2.251  0.5951  0.0157 -0.3558
  226SOL     OW  901   0.407   1.518   2.702 -0.8545  0.5439  0.2985
  226SOL    HW1  902   0.504   1.516   2.689 -0.4441 -3.0886 -2.7288
  226SOL    HW2  903   0.400   1.612   2.705 -1.7312  2.3736 -0.9580
  226SOL     MW  904   0.419   1.530   2.700 -0.9160  0.3061 -0.2667
  227SOL     OW  905   0.545   1.124   2.840  0.2178 -0.1242  0.0945
  227SOL    HW1  906   0.636   1.152   2.845 -0.1837 -4.5561  0.5149
  227SOL    HW2  907   0.550   1.074   2.760 -0.8482  1.5285 -0.5737
  227SOL     MW  908   0.558   1.121   2.830  0.0242 -0.4909  0.0618
  228SOL     OW  909   0.742   1.121   2.052 -0.3019 -0.6033 -0.1300
  228SOL    HW1  910   0.725   1.198   1.994 -0.5586  1.2788 -0.5840
  228SOL    HW2  911   0.829   1.139   2.092 -0.4300  0.6125 -0.2378
  228SOL     MW  912   0.751   1.133   2.050 -0.3527 -0.1946 -0.2041
  229SOL     OW  913   0.170   0.663   0.014  0.7053  0.0516 -0.1880
  229SOL    HW1  914   0.128   0.614  -0.058  1.1713  0.7144 -0.3017
  229SOL    HW2  915   0.177   0.592   0.075  0.7085 -2.4939  0.2699
  229SOL     MW  916   0.165   0.647   0.012  0.7672 -0.1968 -0.1426
  230SOL     OW  917   1.796   1.350   2.027  0.0652  0.3378  0.1059
  230SOL    HW1  918   1.741   1.313   2.102  1.9609  2.7641 -1.2484
  230SOL    HW2  919   1.816   1.268   1.989  0.3624  0.1854  1.4515
  230SOL     MW  920   1.792   1.334   2.032  0.3545  0.6378  0.1047
  231SOL     OW  921   2.746   1.255   2.173 -0.2618 -0.3183 -0.8075
  231SOL    HW1  922   2.815   1.323   2.187  1.6492 -0.2751  3.1785
  231SOL    HW2  923   2.687   1.270   2.093 -2.1978 -1.4956  1.4653
  231SOL     MW  924   2.747   1.266   2.164 -0.2651 -0.4679  0.0183
  232SOL     OW  925   2.275   0.837   1.994  0.4088 -0.2054  0.1213
  232SOL    HW1  926   2.212   0.884   1.946  1.3335  0.7265  1.8298
  232SOL    HW2  927   2.217   0.817   2.070  0.1057 -3.7382 -2.2871
  232SOL     MW  928   2.259   0.840   1.998  0.4908 -0.5485  0.0290
  233SOL     OW  929   2.056   0.426   2.075  0.1347  0.5466  0.0844
  233SOL    HW1  930   2.101   0.362   2.011  2.3796  0.3246  1.2653
  233SOL    HW2  931   2.122   0.484   2.108  0.7667  1.4288  1.4638
  233SOL     MW  932   2.071   0.425   2.071  0.5143  0.6337  0.4222
  234SOL     OW  933   0.247   1.057   2.606  0.6624  0.0660  0.9038
  234SOL    HW1  934   0.184   1.044   2.538  0.1909 -0.9376  1.4502
  234SOL    HW2  935   0.290   1.148   2.591  0.0154  1.0104 -0.4127
  234SOL     MW  936   0.245   1.067   2.595  0.5148  0.0582  0.8022
  235SOL     OW  937   1.063   3.049   2.781 -0.7839 -0.3913  0.0063
  235SOL    HW1  938   1.096   3.006   2.861  1.7439 -0.0944  2.4278
  235SOL    HW2  939   1.073   3.149   2.802 -3.1328 -0.9169  2.5593
  235SOL     MW  940   1.069   3.057   2.794 -0.7603 -0.4215  0.6626
  236SOL     OW  941   2.960   0.603   0.137 -0.1371 -0.2066  0.0233
  236SOL    HW1  942   2.869   0.622   0.140  1.5634 -0.0061  2.0556
  236SOL    HW2  943   2.998   0.693   0.121  1.5619 -0.0803 -0.1996
  236SOL     MW  944   2.953   0.617   0.135  0.3114 -0.1635  0.2621
  237SOL     OW  945   1.969   1.120   2.191 -0.2226 -0.9199 -0.1090
  237SOL    HW1  946   1.901   1.096   2.126 -0.4435 -0.4324  2.8231
  237SOL    HW2  947   2.018   1.042   2.216  0.5638  1.8882  0.3737
  237SOL     MW  948   1.967   1.107   2.186 -0.1480 -0.4851  0.3415
  238SOL     OW  949   1.096   1.773   2.944  0.6443  0.1386  0.5187
  238SOL    HW1  950   1.046   1.693   2.936 -2.4785  0.9508 -1.4863
  238SOL    HW2  951   1.187   1.745   2.929  0.8651 -1.4798  0.4213
  238SOL     MW  952   1.101   1.759   2.941  0.2614  0.0322  0.2413
  239SOL     OW  953   1.219   1.386   2.330 -0.2051 -0.4063 -0.6652
  239SOL    HW1  954   1.147   1.435   2.364 -1.6245 -2.4787 -1.7662
  239SOL    HW2  955   1.213   1.292   2.361 -1.4811 -3.9872 -1.1244
  239SOL     MW  956   1.209   1.380   2.339 -0.5607 -1.1522 -0.8711
  240SOL     OW  957   0.623   0.921   2.282 -0.4749 -0.2826 -0.7524
  240SOL    HW1  958   0.696   0.942   2.348  1.8237  1.5680  1.0694
  240SOL    HW2  959   0.661   0.875   2.207 -0.3675 -0.6440 -1.6554
  240SOL     MW  960   0.638   0.917   2.281 -0.1574 -0.0861 -0.6312
  241SOL     OW  961   0.659   0.433   0.018  0.0638  0.4226 -0.3815
  241SOL    HW1  962   0.662   0.512   0.076 -1.0692 -0.7008  0.9333
  241SOL    HW2  963   0.564   0.430  -0.016  0.9446  1.2618 -1.4909
  241SOL     MW  964   0.647   0.443   0.021  0.0305  0.3851 -0.3544
  242SOL     OW  965   1.492   1.718   2.285 -0.0044  0.1983 -0.7284
  242SOL    HW1  966   1.430   1.789   2.309  1.1516  2.7490 -3.7339
  242SOL    HW2  967   1.451   1.640   2.244 -0.0572 -1.4332 -2.0543
  242SOL     MW  968   1.478   1.717   2.283  0.1412  0.3196 -1.2999
  243SOL     OW  969   0.992   0.239   2.388 -0.4268  0.8810 -0.0475
  243SOL    HW1  970   1.050   0.182   2.338  2.0196 -1.9805  0.5832
  243SOL    HW2  971   1.051   0.266   2.458  0.5809 -2.1948 -0.5908
  243SOL     MW  972   1.008   0.235   2.391  0.0290  0.0977 -0.0360
  244SOL     OW  973   0.144   0.801   2.347 -0.2565  0.1127 -0.2224
  244SOL    HW1  974   0.090   0.875   2.372 -0.8721  1.6006  1.5739
  244SOL    HW2  975   0.240   0.822   2.343 -0.0853 -1.5161  0.8344
  244SOL     MW  976   0.150   0.813   2.350 -0.3151  0.0941  0.1541
  245SOL     OW  977   1.265   0.194   2.300  0.9060 -0.5224 -0.3122
  245SOL    HW1  978   1.270   0.098   2.302  0.7106  0.8221  0.3593
  245SOL    HW2  979   1.330   0.231   2.365  0.3725  1.3856  0.4896
  245SOL     MW  980   1.274   0.186   2.309  0.8098 -0.0933 -0.1178
  246SOL     OW  981   1.177   1.137   2.102 -0.4498 -0.1988 -0.7268
  246SOL    HW1  982   1.115   1.119   2.179  1.6465  2.2498  0.8047
  246SOL    HW2  983   1.263   1.096   2.134  0.8193 -0.5821  0.1228
  246SOL     MW  984   1.180   1.129   2.116 -0.0058  0.0737 -0.4127
  247SOL     OW  985   0.760   0.623   0.197  0.3351  0.5071 -0.3874
  247SOL    HW1  986   0.728   0.710   0.186  0.0983 -1.9260 -2.3910
  247SOL    HW2  987   0.844   0.615   0.144 -0.0362 -2.5647 -1.5108
  247SOL     MW  988   0.767   0.633   0.189  0.2549 -0.2192 -0.7999
  248SOL     OW  989   0.339   1.301   2.568  0.0190 -0.3220  0.7609
  248SOL    HW1  990   0.339   1.335   2.473 -0.2814 -1.1510  0.4518
  248SOL    HW2  991   0.352   1.381   2.619  1.2177 -0.0703 -1.8168
  248SOL     MW  992   0.341   1.316   2.562  0.1375 -0.3982  0.3800
  249SOL     OW  993   0.003   1.895   2.787 -0.8588  0.5319  0.5055
  249SOL    HW1  994  -0.091   1.875   2.787 -0.4185  0.0594 -0.9908
  249SOL    HW2  995   0.042   1.819   2.836  1.0635  1.0429  0.4575
  249SOL     MW  996  -0.004   1.882   2.794 -0.5471  0.5370  0.3017
  250SOL     OW  997   2.146   0.920   2.262  0.2265  0.4005 -0.5278
  250SOL    HW1  998   2.169   0.836   2.301 -0.2325 -1.3335  0.2540
  250SOL    HW2  999   2.232   0.960   2.272  0.9243 -1.7090  3.2787
  250SOL     MW 1000   2.160   0.914   2.269  0.2580 -0.1066  0.0776
  251SOL     OW 1001   0.194   0.911   1.975  0.2176  0.1823  0.6669
  251SOL    HW1 1002   0.198   0.815   2.001  0.8206 -0.5181  1.7813
  251SOL    HW2 1003   0.194   0.919   1.878 -0.4683  0.8790  2.6582
  251SOL     MW 1004   0.195   0.899   1.966  0.2067  0.1818  1.0767
  252SOL     OW 1005   1.673   1.009   2.905 -0.3430  0.5314 -0.8482
  252SOL    HW1 1006   1.688   1.073   2.975  1.6829 -1.2256  2.4562
  252SOL    HW2 1007   1.752   1.005   2.855 -0.5215  0.4447  1.7818
  252SOL     MW 1008   1.685   1.017   2.908 -0.0993  0.2881 -0.0652
  253SOL     OW 1009   1.126   1.710   2.464 -0.1905 -0.4083 -0.2651
  253SOL    HW1 1010   1.111   1.681   2.365  0.5986 -1.0596 -2.0352
  253SOL    HW2 1011   1.068   1.791   2.482  1.2976  1.7545 -2.3620
  253SOL     MW 1012   1.116   1.717   2.453  0.1099 -0.2089 -0.7753
  254SOL     OW 1013   0.958   1.100   2.244  0.4450  0.7262  0.3158
  254SOL    HW1 1014   0.923   1.006   2.253 -3.2488  1.2161 -1.8892
  254SOL    HW2 1015   0.932   1.154   2.317  1.1013 -1.4903 -0.8967
  254SOL     MW 1016   0.950   1.095   2.255  0.0442  0.4984 -0.1351
  255SOL     OW 1017   0.850   2.505   2.173  0.3865  0.1527 -0.7598
  255SOL    HW1 1018   0.751   2.473   2.178 -2.0547  0.4454 -1.1982
  255SOL    HW2 1019   0.919   2.442   2.206  0.1368 -0.6886 -0.9724
  255SOL     MW 1020   0.846   2.492   2.178  0.0315  0.0803 -0.8457
  256SOL     OW 1021   1.231   2.754   2.973 -0.5321  0.7294  0.1424
  256SOL    HW1 1022   1.200   2.685   2.913 -0.5637 -1.9188 -0.5652
  256SOL    HW2 1023   1.320   2.785   2.948  0.5197  2.5610 -1.1480
  256SOL     MW 1024   1.238   2.749   2.962 -0.3975  0.6217 -0.1212
  257SOL     OW 1025   0.059   1.907   3.095 -0.4896  0.0598 -0.2899
  257SOL    HW1 1026   0.132   1.950   3.127 -0.2712 -1.6644  1.2646
  257SOL    HW2 1027   0.102   1.828   3.052 -1.3216 -2.3707 -0.5161
  257SOL     MW 1028   0.075   1.903   3.094 -0.5705 -0.4883 -0.1146
  258SOL     OW 1029   0.755   0.982   2.528 -1.6625 -0.1645  0.4066
  258SOL    HW1 1030   0.743   1.073   2.504  2.3762  0.9869  0.0418
  258SOL    HW2 1031   0.665   0.968   2.565 -0.6312  0.5408 -1.0110
  258SOL     MW 1032   0.742   0.992   2.530 -0.9935  0.0805  0.1714
  259SOL     OW 1033   0.860   0.435   2.272 -0.6095  0.7785 -0.1745
  259SOL    HW1 1034   0.799   0.404   2.203  1.3843  1.3582 -1.3158
  259SOL    HW2 1035   0.898   0.351   2.309  0.2792  1.6383  0.7497
  259SOL     MW 1036   0.857   0.420   2.268 -0.2292  0.9684 -0.2031
  260SOL     OW 1037   0.659   0.113   1.630  0.3608  0.0686 -0.0398
  260SOL    HW1 1038   0.598   0.102   1.559 -0.6920  0.1378 -1.5784
  260SOL    HW2 1039   0.749   0.112   1.599  0.3323 -2.9960  0.3516
  260SOL     MW 1040   0.663   0.112   1.617  0.2181 -0.3266 -0.1912
  261SOL     OW 1041   1.118   0.702   2.021 -0.1789 -0.6352 -0.5948
  261SOL    HW1 1042   1.102   0.701   2.120 -2.2829 -1.0332 -1.9777
  261SOL    HW2 1043   1.065   0.627   1.989 -0.6937 -3.2645 -1.9725
  261SOL     MW 1044   1.109   0.692   2.030 -0.5244 -1.0346 -0.9591
  262SOL     OW 1045   1.095   0.344   0.184  0.6330  0.1898 -0.3771
  262SOL    HW1 1046   1.187   0.347   0.157 -1.5387 -2.2486  1.7147
  262SOL    HW2 1047   1.054   0.295   0.113  0.6330  1.6038 -0.9050
  262SOL     MW 1048   1.101   0.338   0.171  0.3465  0.0546 -0.1707
  263SOL     OW 1049   0.383   0.041   2.481 -0.8326 -0.2061 -0.0063
  263SOL    HW1 1050   0.321   0.117   2.488 -2.6610  0.7898 -2.3611
  263SOL    HW2 1051   0.453   0.073   2.423 -1.2852  0.8316  0.9310
  263SOL     MW 1052   0.384   0.055   2.474 -1.1336  0.0622 -0.1933
  264SOL     OW 1053   1.559   1.354   1.883 -0.1183  0.6118 -0.1450
  264SOL    HW1 1054   1.529   1.264   1.887  0.3843  0.0334 -0.7167
  264SOL    HW2 1055   1.639   1.358   1.938  2.1636 -1.2443 -1.0588
  264SOL     MW 1056   1.565   1.342   1.891  0.2491  0.2906 -0.3410
  265SOL     OW 1057   0.775   2.742   2.270 -0.0146  0.3971  1.0220
  265SOL    HW1 1058   0.811   2.654   2.245 -1.4985 -0.6993 -0.6758
  265SOL    HW2 1059   0.795   2.762   2.364 -2.3249 -0.4824  3.9528
  265SOL     MW 1060   0.782   2.733   2.279 -0.5152  0.1364  1.1847
  266SOL     OW 1061   0.907   0.846   2.179 -0.0069 -0.6183 -0.5154
  266SOL    HW1 1062   0.916   0.840   2.086  3.8288  1.8157  1.0324
  266SOL    HW2 1063   0.976   0.793   2.214  1.1490  3.5944 -1.4401
  266SOL     MW 1064   0.917   0.838   2.171  0.6517  0.2586 -0.4332
  267SOL     OW 1065   1.336   1.760   2.642 -0.1332  0.1156 -0.5218
  267SOL    HW1 1066   1.396   1.710   2.582  0.0912  0.5535  0.2515
  267SOL    HW2 1067   1.247   1.747   2.610  2.3935 -2.6381  2.1004
  267SOL     MW 1068   1.332   1.752   2.630  0.2298 -0.1900 -0.0738
  268SOL     OW 1069   0.144   0.928   1.688 -0.4554 -0.4179 -0.1414
  268SOL    HW1 1070   0.114   1.025   1.670 -0.2225  0.1717 -2.3867
  268SOL    HW2 1071   0.091   0.870   1.639 -1.1061  1.6295  0.5299
  268SOL     MW 1072   0.133   0.933   1.679 -0.5105 -0.0699 -0.3491
  269SOL     OW 1073   1.348   1.962   2.315  0.4081 -0.6857 -0.3895
  269SOL    HW1 1074   1.404   2.028   2.349 -0.0893  0.4748  0.2053
  269SOL    HW2 1075   1.259   1.998   2.339 -0.0519  1.6228 -1.0696
  269SOL     MW 1076   1.344   1.976   2.323  0.2817 -0.2280 -0.4007
  270SOL     OW 1077   1.148   0.433   1.603 -0.4083  0.1778 -0.1165
  270SOL    HW1 1078   1.120   0.348   1.642 -1.2526 -1.1987  1.5355
  270SOL    HW2 1079   1.244   0.427   1.588 -1.0238  1.2416 -0.0826
  270SOL     MW 1080   1.157   0.421   1.606 -0.6009  0.1366  0.1060
  271SOL     OW 1081   0.774   0.058   2.485 -0.2263  0.0187 -0.6397
  271SOL    HW1 1082   0.825  -0.011   2.520  0.9917  3.3676 -1.1174
  271SOL    HW2 1083   0.850   0.112   2.455  3.3325  0.2129  0.0807
  271SOL     MW 1084   0.791   0.056   2.486  0.4040  0.4862 -0.6077
  272SOL     OW 1085   1.478   2.826   2.858 -0.5298 -0.0668  0.5303
  272SOL    HW1 1086   1.475   2.794   2.764 -2.1737  0.9313  2.0056
  272SOL    HW2 1087   1.500   2.918   2.837 -1.0662  1.4366 -2.0897
  272SOL     MW 1088   1.480   2.834   2.843 -0.8175  0.2632  0.3793
  273SOL     OW 1089   1.444   0.907   2.784 -0.2502  0.2236 -0.5763
  273SOL    HW1 1090   1.521   0.947   2.816 -2.3497 -1.9648 -0.4933
  273SOL    HW2 1091   1.394   0.963   2.726 -1.1542 -0.3351 -0.1091
  273SOL     MW 1092   1.447   0.920   2.781 -0.6465 -0.1389 -0.5037
  274SOL     OW 1093   1.398   0.771   0.140  0.2678  0.2919  0.2876
  274SOL    HW1 1094   1.425   0.687   0.173 -0.8962 -0.2993 -1.0771
  274SOL    HW2 1095   1.312   0.790   0.186 -0.7428 -0.9512  1.9627
  274SOL     MW 1096   1.390   0.762   0.150 -0.0191  0.0498  0.3285
  275SOL     OW 1097   1.704   0.516   1.754  0.2924  0.0011  0.0816
  275SOL    HW1 1098   1.743   0.571   1.823 -0.4724 -0.5313  1.3417
  275SOL    HW2 1099   1.737   0.428   1.770 -0.7702  1.3295  0.3755
  275SOL     MW 1100   1.713   0.512   1.765  0.0513  0.1061  0.2866
  276SOL     OW 1101   0.419   1.279   1.942  0.3073 -0.9186 -0.1868
  276SOL    HW1 1102   0.443   1.187   1.918  0.9743  0.9485 -1.7530
  276SOL    HW2 1103   0.354   1.283   2.014  1.0390  1.8317  0.1577
  276SOL     MW 1104   0.414   1.268   1.948  0.4918 -0.3094 -0.3480
  277SOL     OW 1105   1.982   1.139   2.486  0.0264 -1.1034 -0.4006
  277SOL    HW1 1106   2.016   1.229   2.479 -0.0874 -1.3040 -0.4714
  277SOL    HW2 1107   1.968   1.122   2.395  1.0696 -0.4636  0.3584
  277SOL     MW 1108   1.985   1.149   2.473  0.1490 -1.0455 -0.3098
  278SOL     OW 1109   1.364   0.676   1.713  0.2645 -0.0661  0.9479
  278SOL    HW1 1110   1.332   0.599   1.766  0.2892 -1.6266  4.4078
  278SOL    HW2 1111   1.433   0.715   1.768 -1.7264 -0.3449 -0.1621
  278SOL     MW 1112   1.369   0.671   1.727  0.0051 -0.3087  1.2579
  279SOL     OW 1113   0.539   0.087   2.227  0.7513  0.2010  1.0503
  279SOL    HW1 1114   0.617   0.031   2.222 -1.3579 -1.9749 -1.7118
  279SOL    HW2 1115   0.564   0.172   2.191  0.6880 -0.1319  2.4701
  279SOL     MW 1116   0.553   0.091   2.222  0.4647 -0.1300  0.8732
  280SOL     OW 1117   1.430   1.035   2.155  0.2336  1.1112 -0.0025
  280SOL    HW1 1118   1.480   0.956   2.124  1.2982  2.8907  2.7043
  280SOL    HW2 1119   1.448   1.015   2.253 -0.4032 -1.5607  0.6505
  280SOL     MW 1120   1.439   1.022   2.164  0.2900  0.9935  0.4408
  281SOL     OW 1121   1.396   1.188   2.692  0.6549 -0.8686  0.2457
  281SOL    HW1 1122   1.481   1.228   2.700 -1.9820 -0.0095 -1.5870
  281SOL    HW2 1123   1.362   1.185   2.783 -0.9268  1.1367 -1.3328
  281SOL     MW 1124   1.403   1.193   2.705  0.0983 -0.4906 -0.2044
  282SOL     OW 1125   1.130   1.264   1.638  0.4864  0.0075 -0.0845
  282SOL    HW1 1126   1.109   1.355   1.609 -0.1463 -0.1400 -0.4809
  282SOL    HW2 1127   1.081   1.239   1.715  0.5191  2.7606 -0.7889
  282SOL     MW 1128   1.121   1.273   1.644  0.4072  0.3512 -0.2297
  283SOL     OW 1129   0.835   1.314  -0.000  0.4893 -0.2835  0.6376
  283SOL    HW1 1130   0.909   1.278   0.040 -0.9575  0.6092 -0.8068
  283SOL    HW2 1131   0.847   1.409  -0.020 -1.2803 -1.2407  0.9048
  283SOL     MW 1132   0.847   1.322   0.002  0.0649 -0.2920  0.4823
  284SOL     OW 1133   0.420   0.758   2.378  0.0016 -0.3454 -0.3733
  284SOL    HW1 1134   0.468   0.841   2.355 -0.2623 -0.5034 -0.7460
  284SOL    HW2 1135   0.426   0.695   2.305  0.1456  1.4779  0.3954
  284SOL     MW 1136   0.427   0.761   2.365 -0.0142 -0.1257 -0.3211
  285SOL     OW 1137   0.894   0.893   2.801  0.1865 -0.1852  0.1370
  285SOL    HW1 1138   0.950   0.921   2.729 -0.2105 -0.5552 -0.5176
  285SOL    HW2 1139   0.859   0.814   2.770  1.9207  1.7666 -0.8428
  285SOL     MW 1140   0.897   0.887   2.787  0.3629  0.0235 -0.0787
  286SOL     OW 1141   1.121   1.477   2.610  0.3980  0.4806 -0.0394
  286SOL    HW1 1142   1.198   1.463   2.657 -0.8625 -0.8827 -1.2072
  286SOL    HW2 1143   1.120   1.569   2.586  0.1810  1.3778 -0.6989
  286SOL     MW 1144   1.131   1.487   2.613  0.2031  0.4191 -0.2805
  287SOL     OW 1145   1.221   1.017   0.318  0.3196  1.0269 -0.7700
  287SOL    HW1 1146   1.216   1.050   0.411  2.8534 -0.7213 -2.1956
  287SOL    HW2 1147   1.154   1.063   0.277 -0.4432  1.7110  1.9249
  287SOL     MW 1148   1.212   1.028   0.325  0.5533  0.8865 -0.6026
  288SOL     OW 1149   1.485   0.605   2.059 -0.6025  0.0987  0.0695
  288SOL    HW1 1150   1.422   0.633   2.126  1.5149  2.3843 -2.5834
  288SOL    HW2 1151   1.515   0.690   2.046 -0.9575 -2.9048  1.4369
  288SOL     MW 1152   1.481   0.620   2.066 -0.3699  0.0040 -0.1001
  289SOL     OW 1153   1.019   0.977   2.573 -0.6663  0.2539  0.5543
  289SOL    HW1 1154   1.049   0.880   2.565 -0.1088 -0.8774  3.3163
  289SOL    HW2 1155   0.927   0.971   2.557  0.1936 -1.1355  1.7937
  289SOL     MW 1156   1.011   0.964   2.570 -0.4793 -0.0787  1.0822
  290SOL     OW 1157   0.804   0.606   1.494  0.1009 -0.1217 -0.1345
  290SOL    HW1 1158   0.865   0.574   1.426  0.9987  1.8640 -0.9222
  290SOL    HW2 1159   0.855   0.615   1.575  1.4547 -2.3879 -1.1176
  290SOL     MW 1160   0.819   0.603   1.496  0.3980 -0.1587 -0.3681
  291SOL     OW 1161   0.193   0.391   0.128  0.3487 -0.2521 -0.1716
  291SOL    HW1 1162   0.267   0.354   0.183  2.1007 -1.2756 -0.9523
  291SOL    HW2 1163   0.184   0.320   0.060  2.3207 -2.1600 -0.2508
  291SOL     MW 1164   0.202   0.377   0.126  0.8401 -0.6389 -0.2850
  292SOL     OW 1165   1.036   0.599   0.105 -0.0388 -0.1381  0.9536
  292SOL    HW1 1166   1.077   0.664   0.164  1.4413  3.0891  1.0717
  292SOL    HW2 1167   1.057   0.521   0.152  1.4059  1.5907 -0.9314
  292SOL     MW 1168   1.044   0.597   0.119  0.3471  0.5158  0.7204
  293SOL     OW 1169   0.133   0.193   2.484  0.0073  0.2199  0.1803
  293SOL    HW1 1170   0.076   0.120   2.452  0.2751 -1.1956  0.8168
  293SOL    HW2 1171   0.096   0.218   2.566 -0.9542  1.8535 -0.2974
  293SOL     MW 1172   0.121   0.187   2.490 -0.0843  0.2486  0.2013
  294SOL     OW 1173   1.376   0.567   2.313 -0.6042  0.6821 -0.0664
  294SOL    HW1 1174   1.433   0.622   2.369  0.3253 -1.8488  0.5388
  294SOL    HW2 1175   1.387   0.474   2.338 -0.4246 -1.5951 -0.4220
  294SOL     MW 1176   1.385   0.562   2.324 -0.4579  0.0477 -0.0335
  295SOL     OW 1177   0.930   0.539   2.549 -0.8572 -0.0007  0.2271
  295SOL    HW1 1178   0.880   0.496   2.475 -2.6435  1.6329  0.6320
  295SOL    HW2 1179   0.867   0.567   2.615  2.9573  0.3397 -0.0679
  295SOL     MW 1180   0.915   0.537   2.548 -0.5896  0.2597  0.2416
  296SOL     OW 1181   1.212   0.246   2.035  0.0632 -0.5732 -0.4081
  296SOL    HW1 1182   1.298   0.212   2.004  0.1659  1.4142  0.2579
  296SOL    HW2 1183   1.222   0.255   2.128 -2.2379  0.7758 -2.4033
  296SOL     MW 1184   1.224   0.242   2.043 -0.2268 -0.1330 -0.5835
  297SOL     OW 1185   1.424   0.397   1.545 -0.0541 -0.4605 -0.1296
  297SOL    HW1 1186   1.447   0.453   1.614 -2.4110 -0.8747 -1.7654
  297SOL    HW2 1187   1.450   0.318   1.586 -0.4754 -0.6874  0.9834
  297SOL     MW 1188   1.430   0.394   1.559 -0.4206 -0.5451 -0.1986
  298SOL     OW 1189   1.603   0.849   2.054 -0.1714  0.0602  0.3468
  298SOL    HW1 1190   1.652   0.905   1.996 -0.3944 -0.0564  0.9825
  298SOL    HW2 1191   1.659   0.823   2.124 -0.2295 -1.7447  0.0769
  298SOL     MW 1192   1.616   0.853   2.056 -0.2084 -0.1933  0.3951
  299SOL     OW 1193   0.616   1.115   0.006 -0.3439  0.2483 -0.3361
  299SOL    HW1 1194   0.602   1.110  -0.094  0.2956 -2.9642 -2.7168
  299SOL    HW2 1195   0.648   1.207   0.026  1.2404  0.9680  0.3119
  299SOL     MW 1196   0.618   1.126  -0.005 -0.0505 -0.0806 -0.5647
  300SOL     OW 1197   1.238   1.132   2.458 -0.5148 -0.2202  0.1853
  300SOL    HW1 1198   1.169   1.065   2.467 -1.3532  2.6704 -1.6282
  300SOL    HW2 1199   1.257   1.166   2.545 -1.5231  0.5330 -0.6134
  300SOL     MW 1200   1.232   1.128   2.471 -0.7585  0.2606 -0.1594
  301SOL     OW 1201   1.431   0.950   0.669  0.1017 -0.0044  0.2819
  301SOL    HW1 1202   1.456   0.971   0.757 -0.1706 -0.7023  0.3805
  301SOL    HW2 1203   1.373   0.880   0.685 -1.3570  2.5458 -0.9422
  301SOL     MW 1204   1.426   0.943   0.683 -0.1267  0.2400  0.1334
  302SOL     OW 1205   0.212   1.551   2.036  0.2109  0.2372  0.1141
  302SOL    HW1 1206   0.222   1.460   2.063 -0.3227 -0.1235  0.2589
  302SOL    HW2 1207   0.137   1.590   2.080 -1.1939  0.8403 -2.0931
  302SOL     MW 1208   0.204   1.544   2.045 -0.0449  0.2692 -0.1580
  303SOL     OW 1209   0.355   1.790   2.702 -0.2099 -0.3744  0.0925
  303SOL    HW1 1210   0.308   1.786   2.618  0.4157 -2.1022 -1.9450
  303SOL    HW2 1211   0.278   1.784   2.763 -0.2866 -0.5215  3.8130
  303SOL     MW 1212   0.339   1.789   2.699 -0.1374 -0.6218  0.3145
  304SOL     OW 1213   0.493   2.046   2.318  0.0606  0.3099 -0.1391
  304SOL    HW1 1214   0.547   2.130   2.299 -1.6404  0.3057 -0.6895
  304SOL    HW2 1215   0.547   1.970   2.329 -0.0449 -0.7054  2.1107
  304SOL     MW 1216   0.507   2.047   2.317 -0.1777  0.1754  0.0851
  305SOL     OW 1217   1.107   0.631   0.561  0.5152  0.8776  0.2868
  305SOL    HW1 1218   1.017   0.605   0.548  0.8669  0.3994 -0.2681
  305SOL    HW2 1219   1.148   0.543   0.578 -2.0537  1.4203  0.7534
  305SOL     MW 1220   1.100   0.616   0.561  0.2226  0.8861  0.2751
  306SOL     OW 1221   1.164   1.566   0.239 -0.4595  0.0272 -0.2600
  306SOL    HW1 1222   1.170   1.474   0.281 -0.5357 -1.0583  0.0381
  306SOL    HW2 1223   1.217   1.546   0.160 -2.6981 -1.3908 -3.1134
  306SOL     MW 1224   1.172   1.552   0.234 -0.7650 -0.3031 -0.5971
  307SOL     OW 1225   1.327   0.443   1.874 -0.1414  0.0312  0.0962
  307SOL    HW1 1226   1.269   0.397   1.931  1.6122 -0.6114  0.2603
  307SOL    HW2 1227   1.376   0.497   1.941  0.7486  3.0853 -0.0456
  307SOL     MW 1228   1.326   0.444   1.891  0.2074  0.3494  0.0991
  308SOL     OW 1229   2.234   0.509   2.674  0.6162 -0.3547 -0.1168
  308SOL    HW1 1230   2.329   0.525   2.693 -1.2968  0.9817 -2.7952
  308SOL    HW2 1231   2.195   0.601   2.688 -0.2214 -0.7907  0.0781
  308SOL     MW 1232   2.241   0.523   2.679  0.2533 -0.2359 -0.4445
  309SOL     OW 1233   0.474   0.554   0.222  0.1589  0.0373 -0.1665
  309SOL    HW1 1234   0.562   0.584   0.245 -1.0964  1.0015  5.2610
  309SOL    HW2 1235   0.475   0.459   0.229  0.0783  1.1099 -2.8620
  309SOL     MW 1236   0.486   0.546   0.226 -0.0174  0.3060  0.1939
  310SOL     OW 1237   0.472   0.583   1.890  0.3084  0.1697  0.2541
  310SOL    HW1 1238   0.506   0.501   1.866 -1.7558  3.5608  0.1574
  310SOL    HW2 1239   0.516   0.660   1.852  1.6681  0.5589 -0.5756
  310SOL     MW 1240   0.482   0.582   1.881  0.2155  0.6685  0.1319
  311SOL     OW 1241   1.902   0.652   1.946  0.5726 -0.2025 -0.3466
  311SOL    HW1 1242   1.852   0.674   2.028  0.3954  4.1431 -1.1296
  311SOL    HW2 1243   1.958   0.577   1.958  0.4369  1.4731 -2.1380
  311SOL     MW 1244   1.903   0.645   1.958  0.5313  0.5920 -0.6863
  312SOL     OW 1245   1.818   2.464   0.185 -0.1546  0.2195 -0.4099
  312SOL    HW1 1246   1.848   2.430   0.268 -1.4793 -0.3377 -1.8199
  312SOL    HW2 1247   1.729   2.487   0.210 -0.4373 -0.6133  0.6571
  312SOL     MW 1248   1.810   2.463   0.199 -0.3667  0.0361 -0.4551
  313SOL     OW 1249   0.102   1.105   3.019 -0.4030  0.2858  0.6040
  313SOL    HW1 1250   0.069   1.140   3.102  2.2621  1.9327 -1.3987
  313SOL    HW2 1251   0.141   1.181   2.966  0.7781 -0.0093  2.5232
  313SOL     MW 1252   0.103   1.120   3.023  0.1045  0.4641  0.5930
  314SOL     OW 1253   2.163   2.977   2.987  0.5234 -0.2529  0.7212
  314SOL    HW1 1254   2.093   3.029   2.934  1.9510 -3.1110 -1.4587
  314SOL    HW2 1255   2.215   3.053   3.014 -2.1801 -2.3688 -0.6285
  314SOL     MW 1256   2.160   2.994   2.984  0.3551 -0.9091  0.2555
  315SOL     OW 1257   1.538   1.827   3.003  0.1956 -0.4609 -0.7382
  315SOL    HW1 1258   1.489   1.863   3.086 -0.3704 -1.1655  0.2476
  315SOL    HW2 1259   1.570   1.911   2.964 -1.1079 -1.3950  2.9544
  315SOL     MW 1260   1.536   1.843   3.009 -0.0510 -0.6771 -0.1209
  316SOL     OW 1261   1.261   0.550   2.718 -0.6713  0.0277 -0.0760
  316SOL    HW1 1262   1.355   0.551   2.747  1.8516  0.0654  0.3080
  316SOL    HW2 1263   1.212   0.545   2.802  0.0706 -0.1622 -1.6782
  316SOL     MW 1264   1.267   0.550   2.733 -0.2406  0.0076 -0.2367
  317SOL     OW 1265   0.665   1.545   2.654  0.2290  0.7089 -0.2600
  317SOL    HW1 1266   0.706   1.463   2.682  1.0288 -1.6638  0.9132
  317SOL    HW2 1267   0.665   1.557   2.559  1.5428  0.4891  1.0763
  317SOL     MW 1268   0.670   1.536   2.645  0.5079  0.3668  0.0711
  318SOL     OW 1269   1.355   0.338   2.943 -0.0468  0.5620 -0.2402
  318SOL    HW1 1270   1.262   0.355   2.929 -1.2404 -1.7031  2.7250
  318SOL    HW2 1271   1.398   0.406   2.883  1.3363 -0.1925  0.2735
  318SOL     MW 1272   1.348   0.350   2.933 -0.0218  0.1636  0.2188
  319SOL     OW 1273   0.859   0.338   2.912  0.4242 -0.2931  0.0376
  319SOL    HW1 1274   0.805   0.293   2.849  1.7872  2.3338  0.0012
  319SOL    HW2 1275   0.800   0.350   2.990 -4.5862 -2.3392 -0.8523
  319SOL     MW 1276   0.845   0.333   2.914 -0.0571 -0.2165 -0.0846
  320SOL     OW 1277   1.068   1.380   2.001  0.3024 -0.0839  0.2581
  320SOL    HW1 1278   1.125   1.305   2.027 -0.4851 -0.6733 -0.6554
  320SOL    HW2 1279   1.116   1.457   1.961  0.7318  0.1424 -2.8968
  320SOL     MW 1280   1.082   1.381   1.999  0.2551 -0.1318 -0.2786
  321SOL     OW 1281   1.100   0.914   2.999 -0.7996 -0.0808 -1.0743
  321SOL    HW1 1282   1.028   0.910   2.938  0.4882  1.4564  0.5562
  321SOL    HW2 1283   1.167   0.844   2.993 -0.7304 -1.2886  2.6618
  321SOL     MW 1284   1.099   0.904   2.990 -0.6206 -0.0374 -0.3662
  322SOL     OW 1285   1.164   0.852   1.657  0.2685  0.1228  0.2342
  322SOL    HW1 1286   1.231   0.786   1.668 -0.2455  0.9520 -2.4025
  322SOL    HW2 1287   1.128   0.884   1.742 -1.2001 -1.1666 -0.4714
  322SOL     MW 1288   1.168   0.847   1.670  0.0069  0.0621 -0.2068
  323SOL     OW 1289   1.237   1.589   1.886  0.3921  0.5717  0.2156
  323SOL    HW1 1290   1.270   1.575   1.796 -1.7034 -2.0115 -0.2643
  323SOL    HW2 1291   1.202   1.682   1.873 -1.3166 -0.8756 -0.2193
  323SOL     MW 1292   1.237   1.600   1.872 -0.1098  0.0399  0.0949
  324SOL     OW 1293   1.469   1.016   2.426  0.3494 -0.7468 -0.2535
  324SOL    HW1 1294   1.389   1.063   2.421 -1.8482 -2.7985  1.2069
  324SOL    HW2 1295   1.536   1.070   2.463  1.8327 -1.0133  0.1307
  324SOL     MW 1296   1.467   1.029   2.430  0.2552 -1.0527 -0.0101
  325SOL     OW 1297   1.107   0.496   2.949 -0.2458 -0.3953  0.1022
  325SOL    HW1 1298   1.111   0.544   3.028  1.3644 -2.2443  0.9280
  325SOL    HW2 1299   1.014   0.461   2.955 -0.2834 -0.6165  0.7862
  325SOL     MW 1300   1.095   0.497   2.960 -0.0383 -0.6684  0.3014
  326SOL     OW 1301   0.376   1.377   2.320 -0.4698  0.9169 -0.8533
  326SOL    HW1 1302   0.466   1.342   2.300  2.3852 -1.1900  1.5230
  326SOL    HW2 1303   0.376   1.472   2.298 -0.2200 -1.4649  1.3087
  326SOL     MW 1304   0.388   1.385   2.314 -0.0602  0.3247 -0.2545
  327SOL     OW 1305   1.918   0.778   2.441 -0.3372 -0.2858 -0.0575
  327SOL    HW1 1306   1.872   0.737   2.516 -0.5685 -0.1580 -1.9516
  327SOL    HW2 1307   1.923   0.868   2.478 -0.6969  0.3883  2.5924
  327SOL     MW 1308   1.913   0.784   2.456 -0.4152 -0.1800  0.0422
  328SOL     OW 1309   0.204   1.274   2.113 -0.0073 -0.7838 -0.9936
  328SOL    HW1 1310   0.117   1.233   2.119 -0.9737  0.0025 -0.3228
  328SOL    HW2 1311   0.247   1.267   2.197 -1.0200 -3.5090 -0.0640
  328SOL     MW 1312   0.198   1.268   2.125 -0.2684 -1.0396 -0.7825
  329SOL     OW 1313   0.023   0.177   1.386  0.3985 -0.2623 -0.6032
  329SOL    HW1 1314   0.019   0.108   1.452  0.7341 -2.4854 -0.3995
  329SOL    HW2 1315   0.104   0.228   1.377  0.8476 -1.0972 -1.0144
  329SOL     MW 1316   0.033   0.175   1.393  0.5020 -0.6657 -0.6306
  330SOL     OW 1317   0.391   3.048   2.043 -0.1832 -0.0195 -0.3639
  330SOL    HW1 1318   0.459   3.088   2.099  0.3137 -0.7052  0.4442
  330SOL    HW2 1319   0.364   2.978   2.105  0.0318  2.9345 -0.7608
  330SOL     MW 1320   0.396   3.044   2.058 -0.0893  0.2798 -0.3096
  331SOL     OW 1321   0.794   1.259   2.425 -0.8323 -0.2971 -0.2940
  331SOL    HW1 1322   0.761   1.338   2.379  0.3878  2.0634  1.3709
  331SOL    HW2 1323   0.826   1.289   2.509  0.7476  0.9080 -0.1958
  331SOL     MW 1324   0.794   1.273   2.430 -0.4629  0.1733 -0.0614
  332SOL     OW 1325   1.344   1.648   2.893 -0.2170  0.4578  0.5289
  332SOL    HW1 1326   1.349   1.679   2.800  2.7888 -1.7291  0.6566
  332SOL    HW2 1327   1.407   1.703   2.938  1.1840 -0.7800 -1.8241
  332SOL     MW 1328   1.353   1.660   2.887  0.3645  0.0059  0.2353
  333SOL     OW 1329   1.745   1.396   2.906 -0.5665  0.7005 -0.2959
  333SOL    HW1 1330   1.833   1.364   2.945  2.7401 -1.8504 -1.2930
  333SOL    HW2 1331   1.680   1.341   2.941  0.1124 -0.6107 -2.3208
  333SOL     MW 1332   1.748   1.385   2.916 -0.0406  0.1909 -0.6946
  334SOL     OW 1333   1.257   3.062   2.565  0.0294 -0.2370  0.4402
  334SOL    HW1 1334   1.186   3.043   2.629 -2.8879  1.4312 -0.0225
  334SOL    HW2 1335   1.312   3.136   2.603  3.4550 -0.0690  1.9295
  334SOL     MW 1336   1.255   3.069   2.579  0.0964  0.0053  0.5756
  335SOL     OW 1337   1.326   0.732   2.978  0.0156 -0.2629  0.4920
  335SOL    HW1 1338   1.368   0.743   3.065 -0.4739 -1.6668  3.4493
  335SOL    HW2 1339   1.378   0.793   2.916  2.1438  1.3296 -3.6228
  335SOL     MW 1340   1.339   0.741   2.981  0.2318 -0.2380  0.3393
  336SOL     OW 1341   0.959   1.160   1.822 -0.0103  0.1259 -0.5167
  336SOL    HW1 1342   0.982   1.240   1.881 -0.6898  0.5615  2.3718
  336SOL    HW2 1343   0.993   1.086   1.872 -0.6509  0.0985 -1.2415
  336SOL     MW 1344   0.966   1.161   1.836 -0.1845  0.1797 -0.2312
  337SOL     OW 1345   0.618   1.846   2.772 -0.4969 -0.0789 -0.1755
  337SOL    HW1 1346   0.539   1.825   2.716 -0.7893 -2.0340  0.3189
  337SOL    HW2 1347   0.687   1.783   2.743 -1.0543 -0.4712  0.5455
  337SOL     MW 1348   0.616   1.835   2.760 -0.6090 -0.3886 -0.0152
  338SOL     OW 1349   1.130   0.740   2.558 -0.4301  0.1431  0.0189
  338SOL    HW1 1350   1.072   0.666   2.529  0.2650 -0.1576 -0.9058
  338SOL    HW2 1351   1.187   0.700   2.619 -2.1979  1.7812 -1.7434
  338SOL     MW 1352   1.130   0.725   2.563 -0.5716  0.3196 -0.3356
  339SOL     OW 1353   1.510   1.065   1.839 -0.5154 -0.0403  0.6942
  339SOL    HW1 1354   1.435   1.052   1.780 -0.8386 -0.0812 -0.0162
  339SOL    HW2 1355   1.487   1.029   1.924  0.6421  1.1931  1.4977
  339SOL     MW 1356   1.497   1.058   1.842 -0.4053  0.1170  0.7065
  340SOL     OW 1357   1.360   1.501   0.028  0.8723 -0.2475 -0.0293
  340SOL    HW1 1358   1.360   1.526  -0.063  1.8415 -1.5732 -0.7045
  340SOL    HW2 1359   1.424   1.437   0.040 -1.0010  1.3762 -0.3812
  340SOL     MW 1360   1.368   1.496   0.018  0.7530 -0.2082 -0.1648
  341SOL     OW 1361   0.102   1.342   2.746 -0.4264 -0.0418 -0.3161
  341SOL    HW1 1362   0.173   1.291   2.709 -3.2386 -2.0497  1.5538
  341SOL    HW2 1363   0.035   1.330   2.679 -1.0205  0.0666  3.6185
  341SOL     MW 1364   0.102   1.334   2.732 -0.8758 -0.2924  0.4497
  342SOL     OW 1365   1.359   0.361   0.156 -0.1660 -0.1657 -0.2676
  342SOL    HW1 1366   1.398   0.435   0.211  1.1987  3.1050  0.6048
  342SOL    HW2 1367   1.377   0.390   0.066  0.0649  0.5296  1.2307
  342SOL     MW 1368   1.367   0.375   0.151  0.0445  0.3576  0.0452
  343SOL     OW 1369   0.299   0.308   2.219  0.2326  0.2048  0.3601
  343SOL    HW1 1370   0.335   0.226   2.260  2.5326 -2.7706 -0.8773
  343SOL    HW2 1371   0.239   0.280   2.151  0.9341 -1.4619 -0.5979
  343SOL     MW 1372   0.296   0.293   2.215  0.6286 -0.4077  0.0705
  344SOL     OW 1373   1.669   2.043   0.201 -0.0855  0.1958 -0.0263
  344SOL    HW1 1374   1.714   2.122   0.168  0.1681 -0.0474 -1.6003
  344SOL    HW2 1375   1.605   2.019   0.144  1.7327  0.3433 -1.2916
  344SOL     MW 1376   1.666   2.050   0.189  0.1879  0.1832 -0.4009
  345SOL     OW 1377   0.701   1.554   2.365 -0.0403  0.2050 -0.7156
  345SOL    HW1 1378   0.627   1.515   2.324 -2.2835 -1.6578  1.0019
  345SOL    HW2 1379   0.758   1.553   2.286 -0.4286 -1.0204  0.8468
  345SOL     MW 1380   0.698   1.549   2.349 -0.3875 -0.2024 -0.2829
  346SOL     OW 1381   1.753   1.155   0.018 -0.2072 -0.5200 -0.2330
  346SOL    HW1 1382   1.849   1.135   0.004 -1.7183  0.5601 -0.6734
  346SOL    HW2 1383   1.712   1.083   0.074  1.2569 -1.1940 -1.2388
  346SOL     MW 1384   1.760   1.143   0.024 -0.2134 -0.4664 -0.4238
  347SOL     OW 1385   1.143   0.722   2.297  0.1296  0.4951 -0.0157
  347SOL    HW1 1386   1.219   0.664   2.285  2.1035 -1.4631  0.1409
  347SOL    HW2 1387   1.144   0.735   2.387  1.3518 -1.5509  0.5892
  347SOL     MW 1388   1.153   0.716   2.307  0.5513 -0.0332  0.0848
  348SOL     OW 1389   1.318   2.585   1.883  0.2794 -0.7611  0.2345
  348SOL    HW1 1390   1.320   2.508   1.941  1.6009 -1.3157  1.7550
  348SOL    HW2 1391   1.350   2.658   1.946  0.3195 -0.9877  2.0020
  348SOL     MW 1392   1.322   2.585   1.899  0.4590 -0.8642  0.6683
  349SOL     OW 1393   1.405   0.176   2.716 -0.2438 -1.0110  0.1480
  349SOL    HW1 1394   1.384   0.245   2.783  0.1009  1.7273  0.2386
  349SOL    HW2 1395   1.456   0.116   2.775  1.2131  1.1545 -0.7589
  349SOL     MW 1396   1.409   0.177   2.732 -0.0061 -0.3640  0.0403
  350SOL     OW 1397   1.808   0.647   2.665  0.1652  0.5112  0.1154
  350SOL    HW1 1398   1.753   0.587   2.602 -1.4502  0.6500 -1.6866
  350SOL    HW2 1399   1.872   0.585   2.710 -3.6143  2.3907  1.2289
  350SOL     MW 1400   1.809   0.631   2.663 -0.5466  0.7775  0.0245
  351SOL     OW 1401   0.083   1.184   1.626  0.0206  0.7371  0.5283
  351SOL    HW1 1402  -0.000   1.186   1.669  2.8385 -0.2472 -0.0160
  351SOL    HW2 1403   0.151   1.256   1.655 -0.3824  1.0547  0.0130
  351SOL     MW 1404   0.081   1.194   1.635  0.3392  0.6491  0.3885
  352SOL     OW 1405   0.853   1.697   2.775 -0.4663  0.8507  0.7525
  352SOL    HW1 1406   0.861   1.659   2.864  0.2166  0.6838 -2.9471
  352SOL    HW2 1407   0.813   1.631   2.720 -0.3004  1.1036 -0.7703
  352SOL     MW 1408   0.849   1.683   2.779 -0.3543  0.8621  0.0635
  353SOL     OW 1409   0.040   2.515   2.753 -0.2824  0.2359  0.4612
  353SOL    HW1 1410   0.137   2.508   2.744  1.5462 -1.4722 -0.2075
  353SOL    HW2 1411   0.013   2.605   2.748  0.9844 -0.6396 -0.6043
  353SOL     MW 1412   0.049   2.526   2.751  0.1260 -0.1050  0.2324
  354SOL     OW 1413   0.306   2.443   0.815 -0.1180 -0.1511  0.1063
  354SOL    HW1 1414   0.311   2.417   0.909 -0.9711 -2.2629 -1.7979
  354SOL    HW2 1415   0.224   2.408   0.796  2.7746  0.7432 -0.9890
  354SOL     MW 1416   0.296   2.435   0.825  0.1511 -0.3117 -0.2895
  355SOL     OW 1417   3.067   2.221   0.337  0.5196  0.1665  0.2643
  355SOL    HW1 1418   2.981   2.167   0.346 -2.4253  0.0149  1.5707
  355SOL    HW2 1419   3.075   2.257   0.428 -2.8887  0.7213  0.5324
  355SOL     MW 1420   3.056   2.219   0.350 -0.3186  0.2197  0.4720
  356SOL     OW 1421   0.838   2.767   0.934 -0.2503 -0.8897  0.0179
  356SOL    HW1 1422   0.886   2.825   0.875  0.5484  0.4157  0.0631
  356SOL    HW2 1423   0.739   2.785   0.921 -1.9752 -2.2302 -0.1115
  356SOL     MW 1424   0.831   2.777   0.925 -0.3725 -0.8943  0.0068
  357SOL     OW 1425   1.786   2.855   0.425  0.1541 -0.4337  0.5990
  357SOL    HW1 1426   1.755   2.806   0.501  0.5824  1.2684  0.6559
  357SOL    HW2 1427   1.871   2.824   0.392  0.5296 -2.9372 -0.5815
  357SOL     MW 1428   1.793   2.845   0.431  0.2601 -0.5395  0.4507
  358SOL     OW 1429   0.467   0.141   1.017  0.3305  0.3934 -0.6103
  358SOL    HW1 1430   0.561   0.155   0.999  2.5733 -0.2974  0.6871
  358SOL    HW2 1431   0.416   0.151   0.934 -1.2224 -0.1563  0.9131
  358SOL     MW 1432   0.473   0.144   1.004  0.4216  0.2297 -0.2381
  359SOL     OW 1433   0.802   2.895   1.865 -0.0049  0.5782 -0.2172
  359SOL    HW1 1434   0.784   2.804   1.887  0.9025 -1.0545 -1.2810
  359SOL    HW2 1435   0.846   2.885   1.779  1.7916 -1.4804 -0.6047
  359SOL     MW 1436   0.805   2.881   1.857  0.3518  0.0912 -0.4087
  360SOL     OW 1437   0.570   2.806   0.885 -0.0759 -0.1518 -0.5269
  360SOL    HW1 1438   0.594   2.789   0.792  0.8804 -0.9110  0.6115
  360SOL    HW2 1439   0.562   2.715   0.922  0.0126 -0.2626  0.2935
  360SOL     MW 1440   0.572   2.792   0.877  0.0620 -0.2666 -0.2685
  361SOL     OW 1441   0.244   2.625   1.346  0.4542  0.0753  0.1317
  361SOL    HW1 1442   0.209   2.695   1.401  1.3213 -1.0608  0.3747
  361SOL    HW2 1443   0.340   2.639   1.344 -2.1855 -1.1813 -1.3255
  361SOL     MW 1444   0.252   2.636   1.353  0.2203 -0.2404 -0.0285
  362SOL     OW 1445   1.446   2.388   0.640 -0.0457 -0.5866 -0.3045
  362SOL    HW1 1446   1.476   2.331   0.710 -1.8878  1.0967 -1.8505
  362SOL    HW2 1447   1.482   2.482   0.652  0.0785 -1.0705 -0.5327
  362SOL     MW 1448   1.455   2.393   0.651 -0.2723 -0.4284 -0.5386
  363SOL     OW 1449   0.298   3.079   0.661  0.1976 -0.6637  0.1995
  363SOL    HW1 1450   0.276   3.021   0.736  2.2761 -2.7408  2.9662
  363SOL    HW2 1451   0.215   3.104   0.613 -0.5182 -1.6105  0.3986
  363SOL     MW 1452   0.284   3.075   0.665  0.3774 -1.0627  0.5908
  364SOL     OW 1453   0.724   0.241   0.209  0.0297  0.0835 -0.6870
  364SOL    HW1 1454   0.642   0.195   0.233 -1.4091 -1.0044  0.0342
  364SOL    HW2 1455   0.696   0.304   0.140 -2.1405  1.6682  0.0285
  364SOL     MW 1456   0.709   0.243   0.203 -0.4465  0.1491 -0.4975
  365SOL     OW 1457   0.984   1.995   1.161 -0.5457  0.8145 -0.2009
  365SOL    HW1 1458   0.968   2.086   1.143 -1.4850 -1.6156  0.8841
  365SOL    HW2 1459   0.935   1.958   1.086  1.0111 -0.7319  0.6714
  365SOL     MW 1460   0.976   2.002   1.149 -0.4642  0.2898  0.0573
  366SOL     OW 1461   2.954   2.667   0.939 -0.5389 -0.3869 -0.7523
  366SOL    HW1 1462   3.031   2.674   0.993 -0.3966 -0.7131 -0.1570
  366SOL    HW2 1463   2.978   2.693   0.847 -2.1727 -1.3277  0.5935
  366SOL     MW 1464   2.967   2.671   0.934 -0.7357 -0.5541 -0.4962
  367SOL     OW 1465   1.241   2.904   0.867 -0.1618  0.1009 -0.1793
  367SOL    HW1 1466   1.252   2.987   0.826 -2.1133 -0.2020  1.6933
  367SOL    HW2 1467   1.222   2.844   0.796 -3.8819  0.3270 -0.4329
  367SOL     MW 1468   1.240   2.907   0.852 -0.9101  0.0907  0.0343
  368SOL     OW 1469   1.680   0.338   0.745  0.3109  0.2090 -0.4352
  368SOL    HW1 1470   1.734   0.323   0.668 -0.4337 -1.0622 -0.0202
  368SOL    HW2 1471   1.660   0.432   0.746 -1.5095  0.4130  1.6049
  368SOL     MW 1472   1.685   0.348   0.735 -0.0275  0.0682 -0.1113
  369SOL     OW 1473   0.136   2.416   1.770 -0.2560  0.5788 -0.3724
  369SOL    HW1 1474   0.236   2.410   1.771  1.9282  1.0049  0.6296
  369SOL    HW2 1475   0.099   2.505   1.785  0.1579  1.4667 -0.0895
  369SOL     MW 1476   0.144   2.427   1.772  0.0868  0.7522 -0.2029
  370SOL     OW 1477   0.750   0.151   0.916 -0.5025 -0.1589  0.5478
  370SOL    HW1 1478   0.765   0.242   0.939  1.0992 -0.5837  0.2893
  370SOL    HW2 1479   0.816   0.110   0.969  3.5172  0.2707  2.3403
  370SOL     MW 1480   0.761   0.157   0.926  0.2392 -0.1583  0.7502
  371SOL     OW 1481   1.292   2.880   1.497  0.1341 -0.0077 -0.3558
  371SOL    HW1 1482   1.240   2.809   1.460 -0.2641  2.1172 -1.1747
  371SOL    HW2 1483   1.320   2.937   1.419  2.1043  1.4631  1.7081
  371SOL     MW 1484   1.289   2.878   1.481  0.3415  0.4667 -0.1915
  372SOL     OW 1485   0.809   2.307   0.475  0.0085 -0.1104  0.7726
  372SOL    HW1 1486   0.764   2.234   0.515  0.5904  0.4623 -0.1306
  372SOL    HW2 1487   0.859   2.289   0.386  2.7335  1.2202 -0.7715
  372SOL     MW 1488   0.809   2.295   0.469  0.4448  0.1407  0.4497
  373SOL     OW 1489   2.820   3.021   1.452  0.5304 -0.0021 -0.6431
  373SOL    HW1 1490   2.909   3.012   1.425  0.3962  0.0374  2.8050
  373SOL    HW2 1491   2.790   3.101   1.395 -1.2487  0.1556 -1.2791
  373SOL     MW 1492   2.828   3.030   1.441  0.2780  0.0239 -0.2720
  374SOL     OW 1493   1.511   0.546   0.301  0.0171 -0.3377 -0.0978
  374SOL    HW1 1494   1.594   0.529   0.260  1.8054 -0.4431 -0.7896
  374SOL    HW2 1495   1.521   0.508   0.388  2.7051 -1.3823  0.8721
  374SOL     MW 1496   1.523   0.539   0.307  0.6077 -0.4894 -0.0611
  375SOL     OW 1497   0.989   2.104   2.272 -0.2556 -0.1116  0.8766
  375SOL    HW1 1498   1.033   2.094   2.353 -0.9951 -0.1353 -2.6159
  375SOL    HW2 1499   0.959   2.018   2.261  2.6642  1.3307  1.6359
  375SOL     MW 1500   0.991   2.091   2.281  0.0321  0.0756  0.5160
  376SOL     OW 1501   0.723   2.506   0.053 -0.4755 -0.9018 -0.0340
  376SOL    HW1 1502   0.704   2.440   0.120 -0.4836 -0.9064  3.6147
  376SOL    HW2 1503   0.715   2.475  -0.044 -1.9553  1.4576 -0.6144
  376SOL     MW 1504   0.719   2.493   0.049 -0.6718 -0.5911  0.3708
  377SOL     OW 1505   1.248   2.058   0.859  0.4272  0.4963 -0.4290
  377SOL    HW1 1506   1.149   2.052   0.836  0.5239  0.3402  0.4632
  377SOL    HW2 1507   1.255   2.015   0.948  1.5943  2.1051  3.0804
  377SOL     MW 1508   1.236   2.052   0.868  0.5939  0.6880  0.1517
  378SOL     OW 1509   0.909   2.855   1.618 -0.0086  0.5396  0.6671
  378SOL    HW1 1510   0.914   2.761   1.601 -2.1517 -1.5289  0.5555
  378SOL    HW2 1511   0.970   2.896   1.560 -0.8515 -1.4417  1.9656
  378SOL     MW 1512   0.917   2.848   1.608 -0.4026  0.0052  0.8237
  379SOL     OW 1513   1.132   1.685   2.174  0.2002 -0.4414 -0.3078
  379SOL    HW1 1514   1.048   1.671   2.127  0.1104 -0.1106 -2.4643
  379SOL    HW2 1515   1.203   1.632   2.134  1.8774 -1.2705 -2.0616
  379SOL     MW 1516   1.130   1.676   2.163  0.4096 -0.5072 -0.8238
  380SOL     OW 1517   0.892   0.137   1.493  0.1931 -0.0102 -0.1516
  380SOL    HW1 1518   0.885   0.043   1.464  0.8986  1.3395  2.2260
  380SOL    HW2 1519   0.956   0.141   1.560 -0.9079  1.2961 -0.3544
  380SOL     MW 1520   0.899   0.125   1.498  0.1409  0.3402  0.1353
  381SOL     OW 1521   0.720   2.070   0.830 -0.2086  0.2522 -0.3585
  381SOL    HW1 1522   0.814   2.044   0.822  1.0201  1.9694 -1.4107
  381SOL    HW2 1523   0.723   2.118   0.909  1.9041  0.1671 -3.9274
  381SOL     MW 1524   0.733   2.073   0.840  0.2323  0.4676 -0.9682
  382SOL     OW 1525   0.702   0.141   0.635 -0.1757  0.0994 -0.4348
  382SOL    HW1 1526   0.721   0.140   0.731  1.5027 -0.3667  0.0134
  382SOL    HW2 1527   0.668   0.054   0.622  0.5851  1.9593 -1.1887
  382SOL     MW 1528   0.700   0.130   0.646  0.1461  0.2833 -0.4751
  383SOL     OW 1529   0.562   0.022   0.277  0.0465  0.5674 -0.2737
  383SOL    HW1 1530   0.630  -0.047   0.260  0.1993 -0.4671 -0.5378
  383SOL    HW2 1531   0.494  -0.021   0.332  0.7745  0.2502 -0.4176
  383SOL     MW 1532   0.562   0.008   0.282  0.1627  0.3890 -0.3275
  384SOL     OW 1533   0.749   2.961   0.561 -0.0929  0.1279 -0.0467
  384SOL    HW1 1534   0.808   2.930   0.630  2.6200 -0.9757  1.5097
  384SOL    HW2 1535   0.687   2.885   0.555  1.4524  1.8735  0.5593
  384SOL     MW 1536   0.749   2.947   0.569  0.4690  0.2126  0.2386
  385SOL     OW 1537   1.416   2.059   1.523  0.6443 -0.3096  0.0640
  385SOL    HW1 1538   1.495   2.089   1.568 -0.1048 -0.3602  0.7538
  385SOL    HW2 1539   1.359   2.000   1.579 -0.5145  0.1830  0.4342
  385SOL     MW 1540   1.419   2.055   1.536  0.3926 -0.2513  0.2038
  386SOL     OW 1541   1.268   0.372   0.859  0.9243 -0.8128 -0.3257
  386SOL    HW1 1542   1.209   0.419   0.926  1.5564  1.3361  0.5958
  386SOL    HW2 1543   1.314   0.313   0.917 -1.0852 -0.1419  1.8834
  386SOL     MW 1544   1.266   0.371   0.876  0.7426 -0.4408  0.0874
  387SOL     OW 1545   0.820   2.203   1.513 -0.1283 -0.7543  0.2905
  387SOL    HW1 1546   0.896   2.267   1.482  0.3976 -1.0076 -0.2654
  387SOL    HW2 1547   0.861   2.118   1.483  1.1953 -0.5227 -1.5612
  387SOL     MW 1548   0.836   2.200   1.505  0.1158 -0.7572 -0.0271
  388SOL     OW 1549   1.491   2.786   1.253  0.4722 -0.4593  0.1053
  388SOL    HW1 1550   1.412   2.799   1.204 -0.6393 -1.4114 -2.5419
  388SOL    HW2 1551   1.508   2.695   1.240 -1.7160 -2.1258 -3.4930
  388SOL     MW 1552   1.483   2.776   1.245  0.0369 -0.8048 -0.7187
  389SOL     OW 1553   0.503   0.179   3.039  0.7835 -0.3326  0.1601
  389SOL    HW1 1554   0.589   0.133   3.049  1.2649  0.2653  4.3137
  389SOL    HW2 1555   0.491   0.221   2.953 -0.5199  3.6970 -1.3687
  389SOL     MW 1556   0.513   0.179   3.029  0.6750  0.2780  0.5064
  390SOL     OW 1557   1.328   0.037   0.720 -0.3649 -0.3587 -0.0634
  390SOL    HW1 1558   1.381   0.064   0.645  2.5412  2.1352 -0.2060
  390SOL    HW2 1559   1.359   0.082   0.797 -2.2740  1.6896 -1.1847
  390SOL     MW 1560   1.339   0.046   0.721 -0.2333  0.2406 -0.2302
  391SOL     OW 1561   0.384   2.176   1.471  0.5124 -0.2966  0.7280
  391SOL    HW1 1562   0.340   2.089   1.464 -2.2150  1.2742  2.0916
  391SOL    HW2 1563   0.315   2.242   1.467  0.1906  0.7289  2.1375
  391SOL     MW 1564   0.369   2.173   1.470  0.1101  0.0460  1.0939
  392SOL     OW 1565   2.079   2.223   0.314 -0.0863  0.3364  0.3512
  392SOL    HW1 1566   2.159   2.174   0.345  2.0649 -0.2594 -0.0002
  392SOL    HW2 1567   2.036   2.255   0.394  2.2670 -0.4455  0.0727
  392SOL     MW 1568   2.084   2.220   0.329  0.5080  0.1546  0.2681
  393SOL     OW 1569   0.279   2.908   2.787  0.0632 -0.3113  0.7000
  393SOL    HW1 1570   0.346   2.924   2.720  0.0055  2.2319 -0.8541
  393SOL    HW2 1571   0.258   2.993   2.821  0.9140 -1.0353  0.1142
  393SOL     MW 1572   0.285   2.921   2.783  0.1679 -0.0713  0.4177
  394SOL     OW 1573   0.933   1.737   1.537  0.3349 -0.1564 -0.0861
  394SOL    HW1 1574   0.892   1.750   1.620  0.0650 -3.7522 -2.5619
  394SOL    HW2 1575   0.916   1.821   1.492 -2.2774 -0.1888  3.8693
  394SOL     MW 1576   0.925   1.750   1.542 -0.0454 -0.6351  0.1091
  395SOL     OW 1577   0.949   2.960   2.563  0.2950  0.1129 -0.0654
  395SOL    HW1 1578   0.975   3.004   2.645  1.0810  1.4676 -0.8475
  395SOL    HW2 1579   1.030   2.911   2.538  1.1795  0.0632 -2.1741
  395SOL     MW 1580   0.963   2.959   2.570  0.5154  0.2851 -0.4468
  396SOL     OW 1581   0.698   1.834   2.417  0.3625 -0.2314  0.2062
  396SOL    HW1 1582   0.761   1.869   2.478 -0.4677  0.3954 -2.1348
  396SOL    HW2 1583   0.726   1.740   2.405  0.2698 -2.6214 -0.6162
  396SOL     MW 1584   0.710   1.826   2.423  0.2408 -0.4641 -0.2112
  397SOL     OW 1585   1.037   2.346   1.443  0.0554 -0.4243  0.0775
  397SOL    HW1 1586   1.049   2.375   1.349  0.6483  1.9734 -0.6023
  397SOL    HW2 1587   1.122   2.310   1.477  0.1915 -1.1100  1.5961
  397SOL     MW 1588   1.050   2.345   1.435  0.1516 -0.1984  0.1882
  398SOL     OW 1589   0.623   2.699   0.625 -0.1432  0.9421 -0.2723
  398SOL    HW1 1590   0.545   2.668   0.588  2.1826 -2.2348 -0.0525
  398SOL    HW2 1591   0.680   2.625   0.639  0.0348  0.4360 -1.3347
  398SOL     MW 1592   0.620   2.685   0.622  0.1872  0.4562 -0.3835
  399SOL     OW 1593   0.220   2.109   0.324 -0.7656 -0.4676  0.1791
  399SOL    HW1 1594   0.127   2.133   0.338  2.3247 -0.0679  0.3100
  399SOL    HW2 1595   0.249   2.117   0.234  2.9871  1.8238  0.2171
  399SOL     MW 1596   0.211   2.113   0.314  0.1373 -0.1125  0.2014
  400SOL     OW 1597   0.564   1.965   0.026 -0.0706  0.1767 -0.1147
  400SOL    HW1 1598   0.498   2.027   0.014  0.7148 -0.3406  1.5751
  400SOL    HW2 1599   0.531   1.912   0.094  1.8463 -0.3900 -0.5974
  400SOL     MW 1600   0.551   1.966   0.033  0.2859  0.0337  0.0446
  401SOL     OW 1601   0.815   2.096   0.089  0.3584 -0.0893 -0.2568
  401SOL    HW1 1602   0.864   2.015   0.089  0.8793  1.1473  2.2630
  401SOL    HW2 1603   0.725   2.064   0.075 -1.7732  2.3435  0.8735
  401SOL     MW 1604   0.810   2.081   0.088  0.1458  0.3949  0.2248
  402SOL     OW 1605   0.578   2.985   1.741  0.1416 -0.3128 -0.3227
  402SOL    HW1 1606   0.665   2.957   1.785  0.6528 -1.2378 -1.9121
  402SOL    HW2 1607   0.599   3.069   1.706  0.0842 -1.6586  1.4523
  402SOL     MW 1608   0.592   2.993   1.742  0.2015 -0.6124 -0.2982
  403SOL     OW 1609   0.097   0.399   0.415  0.1220  0.2966  0.1039
  403SOL    HW1 1610   0.171   0.447   0.450  1.7807  1.2186 -1.6107
  403SOL    HW2 1611   0.097   0.403   0.316 -0.1082  0.8839 -0.7638
  403SOL     MW 1612   0.107   0.406   0.407  0.3105  0.4957 -0.2368
  404SOL     OW 1613   0.941   2.927   0.753  0.3602 -0.5995  0.3589
  404SOL    HW1 1614   1.022   2.889   0.730 -1.2770 -0.1279 -0.4149
  404SOL    HW2 1615   0.957   3.023   0.756  1.1624  1.2797  1.6945
  404SOL     MW 1616   0.954   2.935   0.750  0.2500 -0.2894  0.4331
  405SOL     OW 1617   0.515   2.424   1.529 -0.1594  0.7996 -0.1544
  405SOL    HW1 1618   0.498   2.477   1.452  0.5819 -1.7683 -2.5736
  405SOL    HW2 1619   0.464   2.343   1.502 -0.3478  0.4642 -0.6507
  405SOL     MW 1620   0.506   2.420   1.515 -0.0865  0.4165 -0.5390
  406SOL     OW 1621   0.330   2.413   1.086 -0.3023  0.0417  0.1451
  406SOL    HW1 1622   0.236   2.412   1.092  0.5903  0.6839 -1.5742
  406SOL    HW2 1623   0.365   2.328   1.117  0.4918 -0.4526  2.9005
  406SOL     MW 1624   0.322   2.402   1.091 -0.0798  0.0612  0.2818
  407SOL     OW 1625   0.039   2.694   1.159  0.6046  0.0429 -0.1378
  407SOL    HW1 1626   0.107   2.664   1.227  2.4186 -2.2820  1.0675
  407SOL    HW2 1627   0.097   2.723   1.090  1.2177 -1.2049  2.8652
  407SOL     MW 1628   0.056   2.694   1.159  0.9248 -0.4285  0.4174
  408SOL     OW 1629   2.136   2.105   0.631 -0.3060 -0.3873  0.8248
  408SOL    HW1 1630   2.082   2.111   0.711  1.9022 -1.1689  0.7063
  408SOL    HW2 1631   2.101   2.017   0.604 -0.1999  0.0162  3.3705
  408SOL     MW 1632   2.124   2.094   0.638 -0.0007 -0.4372  1.1450
  409SOL     OW 1633   1.448   0.151   0.969  0.1983  0.1492 -0.3184
  409SOL    HW1 1634   1.503   0.216   1.014 -1.9405 -1.3561 -0.6275
  409SOL    HW2 1635   1.495   0.068   0.983 -1.4976 -0.2806 -1.1117
  409SOL     MW 1636   1.461   0.148   0.977 -0.3076 -0.1061 -0.4639
  410SOL     OW 1637   1.087   2.410   1.168 -0.2793 -0.3577  0.6125
  410SOL    HW1 1638   1.002   2.442   1.132 -1.3709  1.0044 -0.9873
  410SOL    HW2 1639   1.128   2.388   1.087 -1.2814  1.4891 -1.3006
  410SOL     MW 1640   1.081   2.411   1.153 -0.5556  0.0657  0.1490
  411SOL     OW 1641   1.921   0.013   2.902 -0.0207 -0.0704  0.2737
  411SOL    HW1 1642   1.864  -0.018   2.832  0.3835 -0.4430  0.8421
  411SOL    HW2 1643   1.867   0.076   2.950 -0.1918 -1.9152  1.5465
  411SOL     MW 1644   1.907   0.017   2.899  0.0100 -0.3630  0.5166
  412SOL     OW 1645   1.035   2.223   0.618 -0.5173 -0.2065  0.2394
  412SOL    HW1 1646   1.093   2.283   0.668 -2.1120 -0.9963  0.2033
  412SOL    HW2 1647   0.966   2.272   0.578 -0.5626  1.3846 -0.5786
  412SOL     MW 1648   1.033   2.238   0.619 -0.7337 -0.1007  0.1267
  413SOL     OW 1649   0.554   2.723   0.042  0.1236 -0.0081  0.1398
  413SOL    HW1 1650   0.606   2.632   0.020 -0.0146  0.7864 -1.3903
  413SOL    HW2 1651   0.573   2.774  -0.034 -1.5270  1.4284 -0.0334
  413SOL     MW 1652   0.563   2.718   0.029 -0.1124  0.2863 -0.0850
  414SOL     OW 1653   2.028   3.007   1.164  0.3932 -0.5188 -0.1032
  414SOL    HW1 1654   1.992   3.095   1.190  1.5234  2.6494  1.8497
  414SOL    HW2 1655   2.032   3.032   1.071 -0.8811  0.3952 -0.1817
  414SOL     MW 1656   2.024   3.022   1.155  0.3742  0.0198  0.1441
  415SOL     OW 1657   1.768   2.791   1.081 -0.5143  0.4316 -0.1935
  415SOL    HW1 1658   1.765   2.746   1.166 -1.6926 -0.9069 -1.6359
  415SOL    HW2 1659   1.862   2.811   1.073  1.3598 -1.6014  0.7262
  415SOL     MW 1660   1.780   2.788   1.091 -0.4225 -0.0132 -0.2625
  416SOL     OW 1661   0.583   1.945   1.359 -0.6101 -0.5144  0.2397
  416SOL    HW1 1662   0.491   1.941   1.353  0.4524 -1.6533  3.3741
  416SOL    HW2 1663   0.614   1.849   1.356  1.0934  2.2138  2.7307
  416SOL     MW 1664   0.575   1.932   1.358 -0.2451 -0.3047  0.9819
  417SOL     OW 1665   0.996   2.984   2.050 -0.3144 -0.1701 -0.1752
  417SOL    HW1 1666   0.946   3.007   2.123 -2.3963 -1.3864 -0.0666
  417SOL    HW2 1667   0.933   2.967   1.979  0.8745  1.7345 -0.1820
  417SOL     MW 1668   0.981   2.985   2.051 -0.4322 -0.0793 -0.1617
  418SOL     OW 1669   0.691   2.909   0.165  0.1276 -0.2899  0.1580
  418SOL    HW1 1670   0.776   2.899   0.118  0.3380  3.3751 -2.0615
  418SOL    HW2 1671   0.630   2.842   0.126 -0.1416  0.4596  0.6751
  418SOL     MW 1672   0.694   2.899   0.153  0.1199  0.2925 -0.0666
  419SOL     OW 1673   0.508   2.631   1.329 -0.1454  0.0429  0.5421
  419SOL    HW1 1674   0.569   2.703   1.356  1.1177  0.0159  2.4952
  419SOL    HW2 1675   0.505   2.656   1.237 -0.7656 -1.4523 -0.5638
  419SOL     MW 1676   0.515   2.644   1.320 -0.0606 -0.1579  0.6539
  420SOL     OW 1677   0.793   2.210   1.066  0.0024 -0.2389  0.3641
  420SOL    HW1 1678   0.743   2.217   1.149  0.6293  0.6879  0.7971
  420SOL    HW2 1679   0.806   2.306   1.047 -1.4673  1.4857  0.7845
  420SOL     MW 1680   0.788   2.223   1.075 -0.1088  0.1109  0.4767
  421SOL     OW 1681   2.973   0.201   3.082  0.2163 -0.4289 -0.2123
  421SOL    HW1 1682   2.898   0.201   3.021 -1.9387 -0.9003 -0.9820
  421SOL    HW2 1683   2.988   0.109   3.095  0.8190  0.6043 -0.7352
  421SOL     MW 1684   2.965   0.189   3.076  0.0115 -0.3548 -0.3828
  422SOL     OW 1685   0.836   2.480   0.954 -0.6293  0.5156 -0.3948
  422SOL    HW1 1686   0.844   2.572   0.954  2.2812  0.2748 -1.2532
  422SOL    HW2 1687   0.811   2.471   0.861 -0.5020 -0.3292 -1.7125
  422SOL     MW 1688   0.834   2.491   0.941 -0.2285  0.3724 -0.6820
  423SOL     OW 1689   1.484   0.074   0.489  0.2080 -0.5716 -0.4922
  423SOL    HW1 1690   1.472   0.052   0.396 -1.7873  0.7581  0.2442
  423SOL    HW2 1691   1.500   0.175   0.494  1.8113 -2.4620  2.7530
  423SOL     MW 1692   1.484   0.084   0.478  0.1563 -0.6456  0.0332
  424SOL     OW 1693   0.674   2.280   1.303  0.1705  0.2963 -0.1160
  424SOL    HW1 1694   0.602   2.218   1.307 -2.1329 -0.3586  1.6168
  424SOL    HW2 1695   0.733   2.259   1.378  0.5115 -0.7037 -1.6890
  424SOL     MW 1696   0.672   2.269   1.314 -0.0884  0.0779 -0.0949
  425SOL     OW 1697   1.730   2.746   2.056  0.1373  0.3900 -0.5597
  425SOL    HW1 1698   1.761   2.756   1.963 -0.5077 -1.5590 -0.1564
  425SOL    HW2 1699   1.759   2.653   2.083  0.1077 -3.7412  0.2316
  425SOL     MW 1700   1.738   2.735   2.047  0.0483 -0.4122 -0.4021
  426SOL     OW 1701   0.839   1.692   1.963 -0.3046  0.3450  0.3452
  426SOL    HW1 1702   0.792   1.702   1.873  2.0299 -1.8031  0.4675
  426SOL    HW2 1703   0.811   1.767   2.024 -0.3079  0.2478  2.0053
  426SOL     MW 1704   0.829   1.703   1.959  0.0030  0.0488  0.5804
  427SOL     OW 1705   0.376   1.693   1.852 -0.1599 -0.8096 -0.1863
  427SOL    HW1 1706   0.412   1.640   1.787 -0.5444 -0.1981 -1.9638
  427SOL    HW2 1707   0.328   1.643   1.919 -0.3764 -1.7793  0.3718
  427SOL     MW 1708   0.374   1.679   1.852 -0.2392 -0.8569 -0.3472
  428SOL     OW 1709   0.574   2.577   1.040  0.6730  0.1740  0.5727
  428SOL    HW1 1710   0.634   2.506   1.053 -0.9501  1.9594  0.3092
  428SOL    HW2 1711   0.485   2.530   1.053 -0.7280 -0.8008  1.1654
  428SOL     MW 1712   0.570   2.562   1.043  0.2740  0.2810  0.6162
  429SOL     OW 1713   1.236   2.830   1.123 -0.1745 -0.2379  0.0754
  429SOL    HW1 1714   1.149   2.808   1.159 -1.3079  2.9311 -0.4736
  429SOL    HW2 1715   1.227   2.863   1.034  1.9553  0.1267  0.3952
  429SOL     MW 1716   1.223   2.831   1.116 -0.0431  0.2283  0.0452
  430SOL     OW 1717   1.158   2.726   0.688  0.4893  0.2596  0.5357
  430SOL    HW1 1718   1.195   2.653   0.738  1.1177  2.3842  1.1276
  430SOL    HW2 1719   1.099   2.691   0.614 -1.9216 -0.6166 -0.8026
  430SOL     MW 1720   1.155   2.712   0.685  0.2541  0.4243  0.4372
  431SOL     OW 1721   0.324   1.956   1.054  0.5076 -0.3708  0.2487
  431SOL    HW1 1722   0.384   1.890   1.024 -1.8824  0.5355  0.1885
  431SOL    HW2 1723   0.291   1.997   0.972  2.8982 -2.3863 -0.8207
  431SOL     MW 1724   0.328   1.953   1.039  0.5077 -0.5171  0.0997
  432SOL     OW 1725   0.080   0.038   1.143 -0.7571 -0.2856 -0.6627
  432SOL    HW1 1726   0.053   0.104   1.208  0.7254  3.2154 -1.8420
  432SOL    HW2 1727   0.020  -0.033   1.157  0.3665  0.2802  0.4502
  432SOL     MW 1728   0.069   0.038   1.154 -0.4133  0.2510 -0.6714
  433SOL     OW 1729   0.623   2.856   1.481  0.1921  0.1030  0.3269
  433SOL    HW1 1730   0.625   2.847   1.579  0.9082 -1.9139  0.7453
  433SOL    HW2 1731   0.708   2.900   1.459  2.7378  3.2167 -0.2445
  433SOL     MW 1732   0.634   2.860   1.491  0.6225  0.2477  0.3067
  434SOL     OW 1733   1.567   2.790   1.592 -0.4558  0.7502  0.5181
  434SOL    HW1 1734   1.486   2.811   1.545  0.9383 -0.7673 -0.2864
  434SOL    HW2 1735   1.627   2.754   1.527  0.7112  1.8598  1.6690
  434SOL     MW 1736   1.565   2.788   1.577 -0.1179  0.6964  0.5638
  435SOL     OW 1737   2.761   1.772   0.178 -0.6084 -0.2472 -0.0293
  435SOL    HW1 1738   2.841   1.818   0.166 -2.5504 -0.7932  1.3283
  435SOL    HW2 1739   2.729   1.768   0.093 -1.3134 -1.6898 -0.0778
  435SOL     MW 1740   2.767   1.777   0.165 -0.9576 -0.5096  0.1434
  436SOL     OW 1741   1.392   2.684   0.391 -0.7956  0.4628 -0.7599
  436SOL    HW1 1742   1.443   2.676   0.474 -0.7139 -1.1333 -0.6960
  436SOL    HW2 1743   1.372   2.781   0.376 -1.5876 -1.6782 -2.4999
  436SOL     MW 1744   1.396   2.696   0.400 -0.8893 -0.0302 -0.9811
  437SOL     OW 1745   0.920   2.974   1.359  0.5286 -0.3698  0.0148
  437SOL    HW1 1746   1.001   3.010   1.327  1.1996  0.0027  2.3166
  437SOL    HW2 1747   0.886   2.907   1.302  1.1172 -0.8525 -1.1033
  437SOL     MW 1748   0.926   2.970   1.347  0.6948 -0.3843  0.1710
  438SOL     OW 1749   0.803   2.612   1.910  0.0658  0.3289  0.2549
  438SOL    HW1 1750   0.826   2.559   1.987 -3.5147  0.9150 -1.0538
  438SOL    HW2 1751   0.769   2.547   1.850  1.0912  0.0001  0.9272
  438SOL     MW 1752   0.801   2.596   1.912 -0.2713  0.3628  0.1709
  439SOL     OW 1753   1.202   2.087   0.397 -0.5407 -0.2866  0.5584
  439SOL    HW1 1754   1.156   2.111   0.476 -0.6507  0.0892 -2.1442
  439SOL    HW2 1755   1.194   2.167   0.341 -1.4644  2.0764  1.9525
  439SOL     MW 1756   1.195   2.101   0.400 -0.6771  0.0747  0.3858
  440SOL     OW 1757   1.686   2.965   3.079 -0.9185 -0.4574  0.5832
  440SOL    HW1 1758   1.662   2.905   3.151  0.5601  0.0274 -0.0748
  440SOL    HW2 1759   1.777   2.994   3.093 -0.0620  2.2614 -1.0847
  440SOL     MW 1760   1.694   2.961   3.090 -0.6104 -0.0347  0.2764
  441SOL     OW 1761   0.378   2.685   0.502 -0.0744 -0.5118  0.4954
  441SOL    HW1 1762   0.357   2.621   0.424  0.5993 -0.9290 -2.0109
  441SOL    HW2 1763   0.392   2.770   0.465 -0.3239 -2.2023  2.5876
  441SOL     MW 1764   0.377   2.688   0.487 -0.0184 -0.7899  0.4408
  442SOL     OW 1765   3.067   2.353   0.596  0.6931 -0.0070  0.0468
  442SOL    HW1 1766   3.074   2.442   0.600  0.1690 -3.1768  1.2921
  442SOL    HW2 1767   2.981   2.315   0.633 -1.0670 -0.6318 -2.3701
  442SOL     MW 1768   3.057   2.360   0.601  0.3917 -0.5077 -0.1078
  443SOL     OW 1769   1.491   1.755   1.977  0.1409 -0.5369  0.8799
  443SOL    HW1 1770   1.436   1.695   1.925  1.8212  0.6331 -1.2567
  443SOL    HW2 1771   1.482   1.752   2.069  0.4225 -0.9259 -1.1246
  443SOL     MW 1772   1.482   1.747   1.983  0.3997 -0.4338  0.3336
  444SOL     OW 1773   0.872   2.573   1.574 -0.2555  0.1101  0.2867
  444SOL    HW1 1774   0.958   2.528   1.586  1.8203  0.3916  1.1259
  444SOL    HW2 1775   0.805   2.522   1.623  2.6810 -3.0082  3.0636
  444SOL     MW 1776   0.874   2.561   1.582  0.4058 -0.2642  0.7638
  445SOL     OW 1777   1.140   0.117   1.360  0.7401  0.5128  0.4564
  445SOL    HW1 1778   1.061   0.156   1.394 -1.0424  0.4657  4.0469
  445SOL    HW2 1779   1.157   0.174   1.284  0.0721 -1.9142 -2.3581
  445SOL     MW 1780   1.132   0.130   1.354  0.4168  0.1863  0.5588
  446SOL     OW 1781   2.787   2.852   1.043  0.3527 -0.2354 -0.0825
  446SOL    HW1 1782   2.727   2.883   0.975  0.2884  1.2720 -2.2056
  446SOL    HW2 1783   2.842   2.788   0.992 -0.4702  0.3424 -1.8357
  446SOL     MW 1784   2.787   2.848   1.027  0.2357  0.0397 -0.5939
  447SOL     OW 1785   0.046   1.999   1.642 -0.6173  0.0558 -0.3887
  447SOL    HW1 1786   0.065   1.916   1.691  0.1187  0.8364  3.9194
  447SOL    HW2 1787  -0.036   1.979   1.587  1.7508 -0.5630 -1.5818
  447SOL     MW 1788   0.038   1.986   1.641 -0.2078  0.0772  0.0223
  448SOL     OW 1789   1.743   2.415   1.665  0.0298 -0.1949  0.0275
  448SOL    HW1 1790   1.706   2.331   1.642  2.2642 -1.6446  1.4755
  448SOL    HW2 1791   1.661   2.464   1.695 -0.9464  2.7003  1.8217
  448SOL     MW 1792   1.727   2.411   1.666  0.1958 -0.0042  0.4553
  449SOL     OW 1793   0.873   2.861   0.352 -0.4137  0.4539 -0.0803
  449SOL    HW1 1794   0.796   2.863   0.289 -0.1048  0.4620  1.6969
  449SOL    HW2 1795   0.829   2.915   0.423  3.3520 -0.1132 -1.3306
  449SOL     MW 1796   0.857   2.868   0.353  0.1239  0.3802 -0.0108
  450SOL     OW 1797   1.198   2.451   0.736  0.3573 -0.1664  0.6520
  450SOL    HW1 1798   1.213   2.411   0.824  3.1518  2.4904  1.1387
  450SOL    HW2 1799   1.282   2.442   0.689  3.2911  0.3510 -1.3518
  450SOL     MW 1800   1.211   2.445   0.742  1.1131  0.2524  0.4518
  451SOL     OW 1801   0.566   2.002   1.668 -0.2411  0.3976  0.0774
  451SOL    HW1 1802   0.619   2.075   1.698  1.0493 -0.3671  0.8459
  451SOL    HW2 1803   0.553   2.012   1.570  1.7495  2.3540 -1.3941
  451SOL     MW 1804   0.571   2.013   1.659  0.1918  0.5548 -0.0153
  452SOL     OW 1805   0.298   2.651   0.066  0.6048 -0.2412 -0.0782
  452SOL    HW1 1806   0.385   2.690   0.079  2.6728 -0.5651 -0.0274
  452SOL    HW2 1807   0.253   2.717   0.007  0.2152  2.6901  0.5773
  452SOL     MW 1808   0.304   2.665   0.060  0.8262  0.1028  0.0149
  453SOL     OW 1809   0.321   3.038   1.604  0.0576  0.3588 -0.7245
  453SOL    HW1 1810   0.384   3.003   1.666 -0.8567  3.9604  0.4785
  453SOL    HW2 1811   0.368   3.060   1.515 -0.1356 -0.1080 -0.3973
  453SOL     MW 1812   0.335   3.036   1.600 -0.0885  0.7724 -0.5226
  454SOL     OW 1813   0.959   2.723   1.184 -0.0953 -0.1818 -0.3309
  454SOL    HW1 1814   0.901   2.669   1.237  0.6356 -3.5236 -6.1644
  454SOL    HW2 1815   0.924   2.720   1.095  0.2669  0.9360 -3.3188
  454SOL     MW 1816   0.946   2.715   1.179  0.0489 -0.4752 -1.4948
  455SOL     OW 1817   1.609   2.839   0.219  0.5486  0.0468  0.2516
  455SOL    HW1 1818   1.675   2.840   0.288 -2.4088  0.7361  0.2146
  455SOL    HW2 1819   1.598   2.742   0.213  0.7714  0.2811 -1.7527
  455SOL     MW 1820   1.616   2.826   0.227  0.1878  0.1687 -0.0177
  456SOL     OW 1821   2.740   0.303   1.539  0.2487  0.1545 -0.0668
  456SOL    HW1 1822   2.720   0.265   1.452  0.5089 -0.5964 -2.1519
  456SOL    HW2 1823   2.826   0.352   1.517 -0.1810  0.1640  0.4433
  456SOL     MW 1824   2.749   0.305   1.524  0.2264  0.0567 -0.2746
  457SOL     OW 1825   0.851   1.579   3.042 -1.1059 -0.0370 -0.4637
  457SOL    HW1 1826   0.760   1.548   3.032 -0.9100  0.2196  1.3964
  457SOL    HW2 1827   0.842   1.623   3.127  1.1180  0.9045 -2.4742
  457SOL     MW 1828   0.838   1.581   3.052 -0.7866  0.1211 -0.4836
  458SOL     OW 1829   1.388   1.438   0.602 -0.1510 -0.0424  0.4238
  458SOL    HW1 1830   1.328   1.512   0.585 -0.5235  1.9993  1.2563
  458SOL    HW2 1831   1.348   1.365   0.558 -1.3212 -1.5132  1.1941
  458SOL     MW 1832   1.375   1.438   0.594 -0.3546  0.0329  0.6353
  459SOL     OW 1833   1.527   0.031   0.206  0.4602 -0.0934 -0.2090
  459SOL    HW1 1834   1.544  -0.062   0.216  0.6339  0.0225  0.9192
  459SOL    HW2 1835   1.462   0.035   0.132 -2.3700  0.5190  0.5071
  459SOL     MW 1836   1.521   0.019   0.198  0.1097  0.0027  0.0343
  460SOL     OW 1837   1.758   2.146   0.639 -0.4369  0.0185  0.1609
  460SOL    HW1 1838   1.674   2.149   0.687 -0.6924 -2.2136 -2.2687
  460SOL    HW2 1839   1.773   2.051   0.626 -1.9111 -1.1812  0.1826
  460SOL     MW 1840   1.749   2.133   0.644 -0.6651 -0.4343 -0.1568
  461SOL     OW 1841   0.443   2.394   0.568  0.1494 -0.0686  0.3020
  461SOL    HW1 1842   0.434   2.478   0.534  2.3351 -0.9614 -1.0444
  461SOL    HW2 1843   0.398   2.409   0.655  1.4950  1.0862  0.6209
  461SOL     MW 1844   0.436   2.407   0.575  0.6153 -0.0341  0.1664
  462SOL     OW 1845   0.335   0.256   1.236 -0.2245 -0.0944 -0.2852
  462SOL    HW1 1846   0.365   0.195   1.162  1.6492 -1.2412 -1.1486
  462SOL    HW2 1847   0.422   0.273   1.282  1.4122  0.1130  1.6400
  462SOL     MW 1848   0.350   0.250   1.232  0.2387 -0.2184 -0.1451
  463SOL     OW 1849   0.986   0.085   0.674  0.3592 -0.2236 -0.3511
  463SOL    HW1 1850   1.059   0.066   0.618 -1.6523 -1.5418  0.4882
  463SOL    HW2 1851   0.908   0.114   0.615  0.7965  1.5491 -1.3502
  463SOL     MW 1852   0.985   0.086   0.659  0.1515 -0.1637 -0.3722
  464SOL     OW 1853   0.767   3.031   2.205  0.0604 -0.1990 -0.1786
  464SOL    HW1 1854   0.771   2.935   2.211 -0.5018 -0.7969 -1.4956
  464SOL    HW2 1855   0.772   3.065   2.293  0.7464  3.0034 -0.7040
  464SOL     MW 1856   0.769   3.023   2.218  0.0767  0.1446 -0.4217
  465SOL     OW 1857   0.852   0.260   0.444  0.7000 -0.3043 -0.0595
  465SOL    HW1 1858   0.783   0.225   0.505  1.6301  1.7324  1.0867
  465SOL    HW2 1859   0.814   0.239   0.358 -0.0215  1.6322 -1.8332
  465SOL     MW 1860   0.838   0.253   0.441  0.7275  0.2199 -0.1423
  466SOL     OW 1861   0.985   2.027   0.792 -0.6549  0.0937  0.4496
  466SOL    HW1 1862   1.011   1.948   0.747  0.7932 -0.4506  1.4100
  466SOL    HW2 1863   0.980   2.099   0.720 -0.0062 -0.2794 -0.6839
  466SOL     MW 1864   0.988   2.026   0.777 -0.3782 -0.0274  0.4268
  467SOL     OW 1865   1.254   2.316   0.959  0.1524  1.0509  0.2056
  467SOL    HW1 1866   1.347   2.342   0.960  0.6592  1.4076 -0.3423
  467SOL    HW2 1867   1.250   2.220   0.925 -0.2114 -1.5818  1.3686
  467SOL     MW 1868   1.266   2.307   0.955  0.1713  0.7506  0.2868
  468SOL     OW 1869   0.465   2.658   1.934  0.5812  0.2748 -0.4901
  468SOL    HW1 1870   0.475   2.607   1.852  0.0073 -1.2057  0.1866
  468SOL    HW2 1871   0.376   2.683   1.934  2.3452  1.2280  1.1674
  468SOL     MW 1872   0.455   2.654   1.923  0.7382  0.2052 -0.1821
  469SOL     OW 1873   0.389   2.130   1.836  0.2340  0.5794 -0.2945
  469SOL    HW1 1874   0.318   2.070   1.857  0.7634  0.0131 -0.3792
  469SOL    HW2 1875   0.431   2.086   1.756  1.4966 -1.7983 -1.7420
  469SOL     MW 1876   0.385   2.117   1.828  0.4704  0.1910 -0.4966
  470SOL     OW 1877   3.040   2.586   0.164  0.4476 -0.7121 -0.5687
  470SOL    HW1 1878   2.964   2.563   0.229 -0.7772 -0.0479 -0.2323
  470SOL    HW2 1879   2.999   2.609   0.079 -0.9241  0.1171 -0.5070
  470SOL     MW 1880   3.025   2.586   0.161  0.1050 -0.5151 -0.5162
  471SOL     OW 1881   1.159   2.644   1.411  0.0671 -0.0654 -0.3423
  471SOL    HW1 1882   1.151   2.573   1.479  1.8887 -1.3664 -1.0984
  471SOL    HW2 1883   1.143   2.601   1.325 -1.7608 -2.8399  0.1372
  471SOL     MW 1884   1.156   2.629   1.408  0.0663 -0.6032 -0.3788
  472SOL     OW 1885   2.834   2.104   0.346 -0.4360 -0.0546  0.2040
  472SOL    HW1 1886   2.851   2.073   0.257 -4.0562  4.2846 -0.9071
  472SOL    HW2 1887   2.797   2.028   0.396 -1.4673 -2.3391  2.7717
  472SOL     MW 1888   2.831   2.090   0.341 -1.0498  0.2165  0.3962
  473SOL     OW 1889   0.788   2.568   1.318 -0.8421 -0.0739  0.2487
  473SOL    HW1 1890   0.722   2.497   1.316 -0.2739  0.2670  1.5238
  473SOL    HW2 1891   0.833   2.553   1.402  1.0035  1.7399 -1.4370
  473SOL     MW 1892   0.785   2.557   1.329 -0.5236  0.2104  0.1946
  474SOL     OW 1893   0.825   2.166   1.782 -0.8133  1.5851 -0.6094
  474SOL    HW1 1894   0.904   2.216   1.821 -1.0182  0.1736 -0.8170
  474SOL    HW2 1895   0.844   2.159   1.686  2.4996  3.4641 -0.2415
  474SOL     MW 1896   0.838   2.172   1.774 -0.4032  1.6468 -0.5883
  475SOL     OW 1897   1.631   3.043   1.476  0.2560 -0.7298 -0.2207
  475SOL    HW1 1898   1.559   3.078   1.427  2.7354 -2.7185  1.2505
  475SOL    HW2 1899   1.596   2.961   1.510  0.8146 -1.1197  2.4816
  475SOL     MW 1900   1.617   3.037   1.474  0.6568 -1.0436  0.3299
  476SOL     OW 1901   1.390   2.619   1.042 -0.1989 -0.3197  0.3392
  476SOL    HW1 1902   1.311   2.668   1.069 -1.2465  1.2812  1.0236
  476SOL    HW2 1903   1.427   2.677   0.981 -1.9332  1.7455  1.4226
  476SOL     MW 1904   1.384   2.633   1.038 -0.5660  0.1640  0.5725
  477SOL     OW 1905   0.806   2.497   0.665  0.6407  0.3496  0.2822
  477SOL    HW1 1906   0.880   2.541   0.621 -0.9033  0.8406  0.1616
  477SOL    HW2 1907   0.794   2.432   0.596 -1.2912 -0.0060 -0.4318
  477SOL     MW 1908   0.814   2.494   0.650  0.1821  0.3674  0.1721
  478SOL     OW 1909   0.174   2.703   0.911 -0.2294  0.2358 -0.0400
  478SOL    HW1 1910   0.227   2.786   0.893  2.9800  0.0797 -0.2157
  478SOL    HW2 1911   0.226   2.658   0.848  2.4258 -0.1266  0.6892
  478SOL     MW 1912   0.188   2.708   0.900  0.5444  0.1674  0.0330
  479SOL     OW 1913   1.475   2.008   1.258 -0.2103  0.1473  0.0564
  479SOL    HW1 1914   1.464   2.032   1.354 -0.7216  4.4846  0.7119
  479SOL    HW2 1915   1.513   1.922   1.253  0.9530  2.9998  1.1349
  479SOL     MW 1916   1.479   2.000   1.270 -0.1242  1.0959  0.2852
  480SOL     OW 1917   1.946   2.434   1.273 -0.2631  0.6551 -0.4530
  480SOL    HW1 1918   1.865   2.390   1.244  0.5243  1.7089  0.7505
  480SOL    HW2 1919   1.989   2.474   1.198  0.3909 -0.4996 -1.5396
  480SOL     MW 1920   1.941   2.433   1.259 -0.0729  0.6418 -0.4376
  481SOL     OW 1921   1.048   3.097   1.064  0.2381  0.1942  0.4580
  481SOL    HW1 1922   1.080   3.020   1.017 -0.0329 -0.7284  0.1824
  481SOL    HW2 1923   1.104   3.170   1.053 -1.2495 -1.0429  1.5646
  481SOL     MW 1924   1.060   3.097   1.056  0.0061 -0.0908  0.5676
  482SOL     OW 1925   1.090   3.041   0.262  0.1074  0.4376 -0.3520
  482SOL    HW1 1926   1.030   2.988   0.312 -0.1381  1.6978  2.6183
  482SOL    HW2 1927   1.112   3.116   0.320  1.0739 -1.1633  0.2919
  482SOL     MW 1928   1.085   3.044   0.276  0.2025  0.3926  0.1249
  483SOL     OW 1929   0.425   2.955   0.436 -0.7623  0.1829  0.0821
  483SOL    HW1 1930   0.346   2.963   0.382 -0.4556  1.5009 -0.7433
  483SOL    HW2 1931   0.388   2.984   0.520 -0.1766 -0.5898  1.3202
  483SOL     MW 1932   0.410   2.960   0.440 -0.6446  0.2548  0.1365
  484SOL     OW 1933   1.826   1.910   1.471  0.2347 -0.1553  0.8290
  484SOL    HW1 1934   1.838   2.003   1.437  2.1350  0.7116 -2.2301
  484SOL    HW2 1935   1.825   1.920   1.568  0.6349 -0.3574  0.8416
  484SOL     MW 1936   1.828   1.923   1.479  0.5382 -0.0676  0.4270
  485SOL     OW 1937   0.472   2.323   0.202  0.3598  0.5981 -0.3809
  485SOL    HW1 1938   0.536   2.304   0.266 -0.9136  3.3734 -2.4603
  485SOL    HW2 1939   0.414   2.394   0.243 -1.5868  1.2077 -0.6433
  485SOL     MW 1940   0.473   2.330   0.216 -0.0650  1.0447 -0.6899
  486SOL     OW 1941   0.187   2.372   1.484 -0.2996 -0.2537  0.2094
  486SOL    HW1 1942   0.196   2.455   1.438  0.2204 -1.4267  0.9320
  486SOL    HW2 1943   0.183   2.386   1.576 -2.7381 -2.9322  0.2163
  486SOL     MW 1944   0.188   2.384   1.490 -0.5528 -0.7619  0.3056
  487SOL     OW 1945   1.215   1.661   1.012 -0.4429 -0.0035  0.3581
  487SOL    HW1 1946   1.190   1.747   1.047 -1.8096  2.4230  1.6693
  487SOL    HW2 1947   1.309   1.684   1.003  1.1736 -0.3226  0.8481
  487SOL     MW 1948   1.224   1.675   1.015 -0.4100  0.2746  0.5958
  488SOL     OW 1949   1.662   1.870   0.525 -0.0358 -0.1979 -0.4594
  488SOL    HW1 1950   1.726   1.892   0.453 -2.4328 -1.4609  0.5918
  488SOL    HW2 1951   1.589   1.936   0.515 -2.8747 -0.1422 -1.2001
  488SOL     MW 1952   1.661   1.881   0.515 -0.7266 -0.3572 -0.4184
  489SOL     OW 1953   0.748   0.775   0.562  0.6157  0.1392  0.0948
  489SOL    HW1 1954   0.773   0.683   0.529  0.0655 -0.8116 -1.1947
  489SOL    HW2 1955   0.693   0.759   0.635 -2.1066  0.5408  0.0873
  489SOL     MW 1956   0.744   0.761   0.567  0.1839  0.0667 -0.0763
  490SOL     OW 1957   1.458   2.063   0.474 -0.5782  0.0928  0.3747
  490SOL    HW1 1958   1.504   2.150   0.455  0.2402  3.7488 -1.8186
  490SOL    HW2 1959   1.368   2.067   0.439  1.5121  1.2400 -0.1254
  490SOL     MW 1960   1.452   2.075   0.467 -0.1944  0.7265  0.0193
  491SOL     OW 1961   1.352   2.932   0.350  0.2740 -0.0034 -0.1132
  491SOL    HW1 1962   1.356   2.971   0.436 -0.6538  1.9171 -0.2796
  491SOL    HW2 1963   1.270   2.970   0.307 -1.0516 -1.0520  3.1779
  491SOL     MW 1964   1.342   2.942   0.356 -0.0233  0.1116  0.2991
  492SOL     OW 1965   1.504   2.100   0.737 -0.0172  0.6477 -0.3623
  492SOL    HW1 1966   1.466   2.083   0.651  0.6037  1.3095  1.9820
  492SOL    HW2 1967   1.432   2.085   0.801 -2.0093 -0.3600  0.0491
  492SOL     MW 1968   1.489   2.096   0.734 -0.1982  0.6020  0.0013
  493SOL     OW 1969   0.197   2.997   0.270 -0.0916 -0.4108  0.1922
  493SOL    HW1 1970   0.148   3.052   0.331  0.9942  1.6756 -1.3620
  493SOL    HW2 1971   0.212   3.058   0.197 -0.9225  0.7652 -0.6292
  493SOL     MW 1972   0.192   3.012   0.268 -0.0580  0.0197 -0.1212
  494SOL     OW 1973   0.393   2.399   1.768 -0.2665 -0.8382  0.1814
  494SOL    HW1 1974   0.407   2.307   1.786  0.1782  0.2533 -2.4031
  494SOL    HW2 1975   0.458   2.416   1.698 -1.1589 -1.5265  3.3397
  494SOL     MW 1976   0.404   2.389   1.761 -0.3256 -0.7850  0.2571
  495SOL     OW 1977   2.921   1.640   2.636 -0.5097 -0.3947  0.1959
  495SOL    HW1 1978   2.911   1.725   2.597 -0.4579  0.5496  1.9666
  495SOL    HW2 1979   2.891   1.641   2.726  1.1655  0.0014 -1.9109
  495SOL     MW 1980   2.916   1.652   2.643 -0.2818 -0.2178  0.1515
  496SOL     OW 1981   2.945   2.335   2.686 -0.2436  0.3853 -0.2739
  496SOL    HW1 1982   2.993   2.273   2.737  0.9886  0.2838  2.1349
  496SOL    HW2 1983   3.014   2.398   2.660  0.5745  2.6523 -1.5598
  496SOL     MW 1984   2.961   2.335   2.690  0.0269  0.6710 -0.1257
  497SOL     OW 1985   1.528   2.290   2.653  0.3368 -0.1245  0.2570
  497SOL    HW1 1986   1.475   2.255   2.580  0.0344 -1.1086 -0.3009
  497SOL    HW2 1987   1.532   2.222   2.720  1.5952 -0.5309  0.9425
  497SOL     MW 1988   1.521   2.276   2.652  0.4629 -0.3079  0.2738
  498SOL     OW 1989   1.496   2.743   2.332 -0.5497 -0.3520 -0.6047
  498SOL    HW1 1990   1.474   2.647   2.334  2.0841  1.1715 -0.8334
  498SOL    HW2 1991   1.575   2.746   2.387 -1.2189  0.3337  2.1291
  498SOL     MW 1992   1.504   2.731   2.340 -0.2905 -0.0605 -0.2742
  499SOL     OW 1993   0.929   0.109   0.086  0.2926  0.6793 -0.1822
  499SOL    HW1 1994   0.867   0.153   0.141  4.5218 -1.7844 -0.7319
  499SOL    HW2 1995   0.974   0.035   0.124 -1.8622  2.1388  0.1481
  499SOL     MW 1996   0.927   0.105   0.099  0.5663  0.5468 -0.2112
  500SOL     OW 1997   1.081   2.561   2.815 -0.0128  0.3965 -0.1957
  500SOL    HW1 1998   1.125   2.512   2.888 -2.8984  2.1442  0.4445
  500SOL    HW2 1999   1.005   2.610   2.844 -2.5521 -2.6142 -0.4642
  500SOL     MW 2000   1.077   2.561   2.828 -0.7286  0.2299 -0.1466
  501SOL     OW 2001   1.775   2.222   3.085  0.1620 -1.1342 -0.6888
  501SOL    HW1 2002   1.761   2.300   3.022 -2.5479 -3.5143 -0.3685
  501SOL    HW2 2003   1.873   2.222   3.090  0.0195  1.5824 -1.0089
  501SOL     MW 2004   1.786   2.232   3.077 -0.2144 -1.0898 -0.6888
  502SOL     OW 2005   0.147   2.828   3.012  0.2487  0.1063  0.0910
  502SOL    HW1 2006   0.069   2.767   3.003  1.0538 -0.9856  0.6621
  502SOL    HW2 2007   0.184   2.843   2.923  0.8802  1.4409 -0.3783
  502SOL     MW 2008   0.142   2.822   2.999  0.4382  0.1383  0.1044
  503SOL     OW 2009   1.132   2.758   2.136 -0.2200  0.3712 -0.0463
  503SOL    HW1 2010   1.111   2.720   2.054  1.0255  2.9309  1.4823
  503SOL    HW2 2011   1.104   2.846   2.124  3.0260  0.6581 -1.0304
  503SOL     MW 2012   1.126   2.764   2.124  0.3726  0.7468  0.0255
  504SOL     OW 2013   0.094   2.707   2.124  0.3913 -0.0581  0.2045
  504SOL    HW1 2014   0.120   2.616   2.112 -0.0821  0.0738 -1.0625
  504SOL    HW2 2015  -0.001   2.705   2.136  2.6767 -2.3653  1.6458
  504SOL     MW 2016   0.085   2.695   2.124  0.6304 -0.3451  0.2275
  505SOL     OW 2017   1.717   2.721   2.812 -0.4243 -0.3978 -0.5567
  505SOL    HW1 2018   1.732   2.737   2.721  0.0308 -0.6519 -1.4339
  505SOL    HW2 2019   1.635   2.774   2.827 -2.0135  0.2738  1.6730
  505SOL     MW 2020   1.708   2.730   2.802 -0.5739 -0.3427 -0.3783
  506SOL     OW 2021   1.566   3.089   2.846  0.2664 -0.0487 -0.0700
  506SOL    HW1 2022   1.595   3.064   2.936 -2.6188  0.9604  0.3985
  506SOL    HW2 2023   1.638   3.063   2.787 -0.6928  0.6486 -0.1472
  506SOL     MW 2024   1.579   3.082   2.850 -0.2408  0.1764 -0.0183
  507SOL     OW 2025   0.910   2.760   2.866 -0.3295  0.0011 -0.0800
  507SOL    HW1 2026   0.950   2.838   2.848  2.6510 -1.1456 -0.9006
  507SOL    HW2 2027   0.815   2.772   2.881 -2.6411 -0.7086 -0.3183
  507SOL     MW 2028   0.903   2.772   2.866 -0.2413 -0.2439 -0.2197
  508SOL     OW 2029   1.152   2.098   2.512  0.1225 -0.0638  0.3536
  508SOL    HW1 2030   1.233   2.085   2.562 -0.6257 -1.0474  1.3798
  508SOL    HW2 2031   1.119   2.173   2.550 -2.8204 -0.3826  1.3453
  508SOL     MW 2032   1.158   2.106   2.523 -0.3645 -0.2356  0.6199
  509SOL     OW 2033   0.695   2.573   2.729 -0.1072  0.1742  0.1817
  509SOL    HW1 2034   0.669   2.515   2.659 -1.3949  2.2980  3.0113
  509SOL    HW2 2035   0.619   2.597   2.776  1.7814 -1.6101  4.1244
  509SOL     MW 2036   0.682   2.568   2.726 -0.0279  0.2190  1.0753
  510SOL     OW 2037   1.498   2.542   1.684  0.8029  0.4482  0.3014
  510SOL    HW1 2038   1.520   2.624   1.650  1.0429 -1.7625 -2.4179
  510SOL    HW2 2039   1.433   2.547   1.758 -2.1418  0.1529  0.6828
  510SOL     MW 2040   1.492   2.553   1.689  0.4460  0.1175 -0.0071
  511SOL     OW 2041   0.404   2.656   2.435  0.0866 -0.4213  0.6754
  511SOL    HW1 2042   0.482   2.610   2.448 -3.1425  0.2651 -1.7306
  511SOL    HW2 2043   0.420   2.714   2.360 -0.5819  2.5082 -2.4024
  511SOL     MW 2044   0.417   2.658   2.427 -0.4276  0.0558 -0.0482
  512SOL     OW 2045   1.040   2.031   2.821  0.1975 -0.2225 -0.2091
  512SOL    HW1 2046   0.956   2.070   2.854  0.4936 -1.0729 -0.6605
  512SOL    HW2 2047   1.038   1.942   2.858  1.4619 -0.1773  1.1505
  512SOL     MW 2048   1.028   2.024   2.831  0.4034 -0.3287 -0.0893
  513SOL     OW 2049   1.527   2.433   2.291 -0.2546 -0.3119 -0.4767
  513SOL    HW1 2050   1.598   2.431   2.228 -0.8842 -4.1588  1.1331
  513SOL    HW2 2051   1.551   2.454   2.382  0.6883 -1.2309 -0.1364
  513SOL     MW 2052   1.540   2.435   2.295 -0.2132 -0.9407 -0.2194
  514SOL     OW 2053   0.290   2.489   2.624 -0.3547  0.2309 -0.7716
  514SOL    HW1 2054   0.343   2.548   2.566  0.3185  2.2338 -1.6310
  514SOL    HW2 2055   0.328   2.495   2.713  2.7848  1.4744 -0.9376
  514SOL     MW 2056   0.302   2.498   2.628  0.1483  0.6592 -0.9069
  515SOL     OW 2057   1.149   2.065   1.905  0.6595  0.2274 -0.8652
  515SOL    HW1 2058   1.150   2.154   1.870 -1.2758  0.2476 -0.1984
  515SOL    HW2 2059   1.230   2.055   1.954  0.3622  0.8589  0.3171
  515SOL     MW 2060   1.159   2.076   1.907  0.3650  0.3134 -0.6213
  516SOL     OW 2061   1.453   2.492   3.077  0.3935 -0.4041  0.0981
  516SOL    HW1 2062   1.504   2.499   3.001 -0.8838 -0.5381  2.0826
  516SOL    HW2 2063   1.360   2.460   3.061 -1.7219  1.2789  1.3653
  516SOL     MW 2064   1.447   2.489   3.065 -0.0541 -0.1998  0.5271
  517SOL     OW 2065   0.588   2.470   2.135  0.5758  0.4466  0.4203
  517SOL    HW1 2066   0.582   2.543   2.070  1.0474  0.0346 -0.5474
  517SOL    HW2 2067   0.506   2.408   2.113 -0.5083 -0.8951  0.0629
  517SOL     MW 2068   0.576   2.472   2.124  0.4950  0.2152  0.2454
  518SOL     OW 2069   1.828   0.228   3.063  0.6111 -0.2039 -0.5026
  518SOL    HW1 2070   1.775   0.263   2.990 -0.7803  1.2540 -1.4532
  518SOL    HW2 2071   1.772   0.240   3.137 -0.3516 -2.5631 -0.7591
  518SOL     MW 2072   1.813   0.234   3.063  0.3005 -0.3228 -0.6619
  519SOL     OW 2073   0.705   2.422   1.731  0.2158  0.5812 -0.5467
  519SOL    HW1 2074   0.748   2.337   1.760 -0.0135  1.6574  0.3004
  519SOL    HW2 2075   0.655   2.424   1.651  1.5196  1.4230  1.1383
  519SOL     MW 2076   0.704   2.411   1.725  0.3575  0.8342 -0.2126
  520SOL     OW 2077   1.272   2.148   2.947  0.2083 -0.4406 -0.3011
  520SOL    HW1 2078   1.204   2.076   2.927 -0.1459 -0.0734 -1.7544
  520SOL    HW2 2079   1.330   2.110   3.012 -2.2953  0.7523 -1.4277
  520SOL     MW 2080   1.271   2.134   2.953 -0.1687 -0.2347 -0.6415
  521SOL     OW 2081   1.705   2.061   2.214 -0.2726  0.4314  0.8579
  521SOL    HW1 2082   1.753   2.088   2.135  0.0340 -0.3930  0.3720
  521SOL    HW2 2083   1.698   1.965   2.202  1.9055  1.0673 -0.1634
  521SOL     MW 2084   1.710   2.052   2.202  0.0553  0.4065  0.6590
  522SOL     OW 2085   2.840   2.570   2.214 -0.5210 -0.2507 -0.6415
  522SOL    HW1 2086   2.914   2.523   2.248 -1.6926 -0.6132 -1.4603
  522SOL    HW2 2087   2.787   2.582   2.290  1.0180 -1.2569 -1.2336
  522SOL     MW 2088   2.843   2.565   2.229 -0.4725 -0.4313 -0.8276
  523SOL     OW 2089   0.866   1.491   2.155 -0.5842  0.1650 -0.1211
  523SOL    HW1 2090   0.843   1.545   2.079  0.9876  1.9055  1.5849
  523SOL    HW2 2091   0.936   1.438   2.120  0.1696 -0.8803  1.1993
  523SOL     MW 2092   0.872   1.491   2.140 -0.2774  0.2567  0.2782
  524SOL     OW 2093   0.708   2.382   2.920  0.6664  0.3676  0.1374
  524SOL    HW1 2094   0.708   2.426   2.834  0.0911  2.4184 -1.5482
  524SOL    HW2 2095   0.749   2.299   2.908 -1.4795 -0.8628  0.7484
  524SOL     MW 2096   0.713   2.377   2.907  0.3074  0.4759 -0.0044
  525SOL     OW 2097   0.391   2.293   2.077  0.7679 -0.2958 -0.3879
  525SOL    HW1 2098   0.323   2.243   2.131  0.3936 -2.2264 -0.8941
  525SOL    HW2 2099   0.405   2.236   2.004  1.0290  0.6832  1.5110
  525SOL     MW 2100   0.384   2.279   2.074  0.7530 -0.4214 -0.2041
  526SOL     OW 2101   0.655   2.099   2.031 -0.3176  0.0259  0.3364
  526SOL    HW1 2102   0.712   2.109   1.956  1.7137  3.1912  0.0710
  526SOL    HW2 2103   0.685   2.166   2.092 -2.1840  0.0521 -2.0897
  526SOL     MW 2104   0.666   2.109   2.029 -0.2958  0.4470 -0.0187
  527SOL     OW 2105   1.385   2.014   2.019 -1.2473 -0.2315 -0.6241
  527SOL    HW1 2106   1.379   2.002   2.113 -0.4634  1.5805  1.3292
  527SOL    HW2 2107   1.435   1.939   1.984  1.0707  2.7630  0.0565
  527SOL     MW 2108   1.391   2.002   2.027 -0.8381  0.4027 -0.2766
  528SOL     OW 2109   0.623   2.904   2.919  0.2289 -0.4852  0.6180
  528SOL    HW1 2110   0.665   2.983   2.946 -5.3440 -1.8683  1.3289
  528SOL    HW2 2111   0.581   2.921   2.833 -1.8784 -1.1921  0.4101
  528SOL     MW 2112   0.623   2.917   2.911 -0.7845 -0.7609  0.6844
  529SOL     OW 2113   1.022   2.329   1.864 -0.5354  0.2575 -0.2160
  529SOL    HW1 2114   1.044   2.349   1.960  1.7626 -1.9369  1.8636
  529SOL    HW2 2115   1.058   2.398   1.811 -4.1622  0.7512  4.5338
  529SOL     MW 2116   1.029   2.341   1.869 -0.7108  0.0331  0.6851
  530SOL     OW 2117   1.205   2.384   3.006  0.1767  0.3528  0.5052
  530SOL    HW1 2118   1.172   2.360   3.095 -1.0448 -0.1328  3.2306
  530SOL    HW2 2119   1.244   2.299   2.978  1.4616  1.3799 -0.3138
  530SOL     MW 2120   1.206   2.370   3.014  0.1851  0.4243  0.7567
  531SOL     OW 2121   0.932   1.890   2.576  0.5446  0.2029 -0.0921
  531SOL    HW1 2122   1.002   1.956   2.607 -1.3253 -1.4550  0.2963
  531SOL    HW2 2123   0.906   1.844   2.662 -0.6936 -0.2479  0.7466
  531SOL     MW 2124   0.938   1.893   2.591  0.1345 -0.0753  0.0698
  532SOL     OW 2125   1.746   0.298   2.801 -0.3493  0.5032 -0.3335
  532SOL    HW1 2126   1.775   0.224   2.747  0.4639 -1.0824  1.0685
  532SOL    HW2 2127   1.818   0.358   2.802  1.1728 -1.7759 -3.9169
  532SOL     MW 2128   1.759   0.296   2.794 -0.0412 -0.0067 -0.6213
  533SOL     OW 2129   1.884   2.633   3.071 -0.1438 -0.4570  0.1160
  533SOL    HW1 2130   1.876   2.578   3.154 -1.7305  1.6806 -1.4427
  533SOL    HW2 2131   1.805   2.611   3.020 -0.5387 -1.9385 -1.6616
  533SOL     MW 2132   1.872   2.623   3.075 -0.4053 -0.3705 -0.3242
  534SOL     OW 2133   1.765   2.427   2.523  0.6675  0.5832 -0.6565
  534SOL    HW1 2134   1.708   2.363   2.568  0.9035 -1.2262 -1.7251
  534SOL    HW2 2135   1.838   2.447   2.587 -1.4304  2.3135 -0.3903
  534SOL     MW 2136   1.767   2.421   2.538  0.4218  0.5727 -0.7624
  535SOL     OW 2137   1.935   2.353   1.894  0.1347  0.1019  0.1194
  535SOL    HW1 2138   1.862   2.376   1.835 -2.2186 -1.3595 -0.9032
  535SOL    HW2 2139   2.010   2.397   1.849 -0.3561  2.5448 -0.5077
  535SOL     MW 2140   1.935   2.362   1.880 -0.2405  0.2314 -0.0983
  536SOL     OW 2141   0.450   1.830   2.082  0.2254  0.1306  0.0216
  536SOL    HW1 2142   0.472   1.783   2.001  0.4622 -1.1911 -0.5185
  536SOL    HW2 2143   0.515   1.901   2.083  0.5667  2.4573 -2.9476
  536SOL     MW 2144   0.461   1.833   2.071  0.3017  0.2632 -0.4414
  537SOL     OW 2145   1.101   0.209   2.854  0.0290  0.1881  0.0873
  537SOL    HW1 2146   1.023   0.252   2.882 -0.9491 -1.8765 -1.1496
  537SOL    HW2 2147   1.109   0.245   2.765 -0.1414  1.2150  1.0694
  537SOL     MW 2148   1.091   0.219   2.846 -0.1225  0.0512  0.0537
  538SOL     OW 2149   1.370   0.044   3.078  0.5959 -0.0736 -0.3334
  538SOL    HW1 2150   1.348   0.136   3.051 -0.7689 -1.6447  1.6997
  538SOL    HW2 2151   1.365  -0.008   2.999 -1.7490  0.4174 -2.4095
  538SOL     MW 2152   1.366   0.050   3.064  0.1065 -0.2161 -0.3391
  539SOL     OW 2153   0.769   2.768   2.551  0.6581 -0.0246  0.5592
  539SOL    HW1 2154   0.841   2.823   2.579 -0.2100 -0.4353 -1.5046
  539SOL    HW2 2155   0.752   2.701   2.620 -1.8330  1.6169  0.0797
  539SOL     MW 2156   0.776   2.767   2.564  0.2149  0.1378  0.2236
  540SOL     OW 2157   0.392   2.507   2.904 -0.2953  0.3326  0.3631
  540SOL    HW1 2158   0.383   2.568   2.976 -0.4325 -0.2353  1.0785
  540SOL    HW2 2159   0.349   2.431   2.934  1.7046  1.6791 -0.5187
  540SOL     MW 2160   0.385   2.505   2.918 -0.0495  0.4354  0.3412
  541SOL     OW 2161   0.198   2.940   2.216  0.0434  0.1110 -0.1361
  541SOL    HW1 2162   0.166   2.856   2.187  1.1881  2.2932  2.3017
  541SOL    HW2 2163   0.229   2.918   2.305  0.5659 -0.0368 -4.0042
  541SOL     MW 2164   0.198   2.926   2.224  0.2633  0.3794 -0.3248
  542SOL     OW 2165   1.071   2.319   2.670  0.1977  0.2120  0.2822
  542SOL    HW1 2166   1.047   2.257   2.738  1.5690 -0.7092  0.6473
  542SOL    HW2 2167   1.073   2.405   2.715  0.7600 -1.5765 -0.6040
  542SOL     MW 2168   1.068   2.322   2.685  0.4528 -0.1455  0.2134
  543SOL     OW 2169   1.661   2.451   2.858  0.3718  0.1530 -0.8221
  543SOL    HW1 2170   1.602   2.413   2.793  1.5587  1.6298 -0.6939
  543SOL    HW2 2171   1.657   2.545   2.830  2.6045  2.9451  0.7982
  543SOL     MW 2172   1.653   2.458   2.846  0.8230  0.7163 -0.5914
  544SOL     OW 2173   0.703   0.233   2.724 -0.0622 -0.3170 -0.0157
  544SOL    HW1 2174   0.609   0.251   2.713 -0.1717  0.2097  0.2753
  544SOL    HW2 2175   0.713   0.185   2.643  1.1986 -1.3276 -0.4797
  544SOL     MW 2176   0.692   0.229   2.712  0.0897 -0.3809 -0.0385
  545SOL     OW 2177   1.514   2.176   2.372 -0.4767  0.3002  0.5080
  545SOL    HW1 2178   1.501   2.257   2.323 -0.0144  1.0341 -0.8840
  545SOL    HW2 2179   1.582   2.132   2.304 -1.6627  1.8051 -1.6199
  545SOL     MW 2180   1.521   2.181   2.356 -0.5722  0.5956  0.0436
  546SOL     OW 2181   2.925   2.016   0.107 -0.6043  0.2834 -0.3841
  546SOL    HW1 2182   2.919   2.095   0.050 -1.6123 -2.2066 -1.0783
  546SOL    HW2 2183   3.005   1.967   0.079 -0.5860 -0.2008 -1.1062
  546SOL     MW 2184   2.935   2.020   0.096 -0.7349 -0.1090 -0.5710
  547SOL     OW 2185   0.173   0.095   0.055 -0.3808  0.4784  0.3436
  547SOL    HW1 2186   0.205   0.094  -0.032 -1.3194  1.4019  3.9994
  547SOL    HW2 2187   0.093   0.040   0.042  0.5934  0.4598 -0.4415
  547SOL     MW 2188   0.167   0.087   0.042 -0.3761  0.5978  0.7224
  548SOL     OW 2189   0.311   2.529   0.295 -0.0224 -0.2904  0.4911
  548SOL    HW1 2190   0.307   2.594   0.213  0.0024 -3.0121 -0.8079
  548SOL    HW2 2191   0.231   2.479   0.278  1.9146 -0.7244 -2.8204
  548SOL     MW 2192   0.300   2.531   0.282  0.2364 -0.7067 -0.1172
  549SOL     OW 2193   0.798   1.887   2.161  0.4886 -0.3671  1.2098
  549SOL    HW1 2194   0.755   1.952   2.100  0.2496  0.4245 -1.4091
  549SOL    HW2 2195   0.735   1.859   2.227 -1.8771  0.2620  0.5909
  549SOL     MW 2196   0.784   1.892   2.161  0.1449 -0.1796  0.7826
  550SOL     OW 2197   1.802   1.735   2.529  0.3698 -0.5467 -0.1690
  550SOL    HW1 2198   1.809   1.746   2.434 -1.5330 -1.5384 -1.0966
  550SOL    HW2 2199   1.799   1.825   2.565 -0.7772  0.0418  1.4049
  550SOL     MW 2200   1.802   1.748   2.521 -0.0326 -0.5999 -0.0837
  551SOL     OW 2201   0.921   2.311   0.218 -0.2046  0.2245 -0.5507
  551SOL    HW1 2202   1.016   2.288   0.215 -0.7080  1.2962 -0.8265
  551SOL    HW2 2203   0.891   2.244   0.156  2.0325  4.2727 -1.7253
  551SOL     MW 2204   0.930   2.299   0.210  0.0242  0.9000 -0.7421
  552SOL     OW 2205   1.766   1.757   2.263  0.1095  0.1843  0.0976
  552SOL    HW1 2206   1.675   1.717   2.265 -1.4832 -3.8721 -2.3165
  552SOL    HW2 2207   1.799   1.718   2.186 -0.5325  5.1518 -0.4954
  552SOL     MW 2208   1.758   1.747   2.253 -0.1853  0.3045 -0.2992
  553SOL     OW 2209   1.277   2.279   1.566 -0.1014 -0.3794 -0.3344
  553SOL    HW1 2210   1.319   2.196   1.549  0.7966  0.5302 -4.3803
  553SOL    HW2 2211   1.335   2.326   1.513 -1.5770  0.6896  0.0439
  553SOL     MW 2212   1.290   2.275   1.557 -0.1777 -0.1183 -0.8183
  554SOL     OW 2213   0.537   2.953   2.645 -0.2326  0.2315 -0.3283
  554SOL    HW1 2214   0.508   3.028   2.590  0.5878 -0.3779  1.2693
  554SOL    HW2 2215   0.579   2.894   2.583  1.7712 -1.9930  1.5523
  554SOL     MW 2216   0.539   2.955   2.630  0.1400 -0.1424  0.1306
  555SOL     OW 2217   0.625   2.439   2.503  0.0250 -0.0965 -0.0323
  555SOL    HW1 2218   0.573   2.358   2.510 -1.3727  0.6446  1.2328
  555SOL    HW2 2219   0.717   2.411   2.484  4.2094 -1.5332  0.7630
  555SOL     MW 2220   0.630   2.425   2.501  0.3927 -0.1883  0.2395
  556SOL     OW 2221   0.984   1.876   0.093  0.5966  0.7428  0.1086
  556SOL    HW1 2222   1.011   1.844   0.006 -0.3573  1.3242 -2.1913
  556SOL    HW2 2223   1.062   1.877   0.144 -2.5056 -1.5852 -0.1490
  556SOL     MW 2224   0.998   1.872   0.089  0.0614  0.5124 -0.2288
  557SOL     OW 2225   0.976   2.643   0.489 -0.5195 -0.6334  0.1872
  557SOL    HW1 2226   1.052   2.617   0.429 -2.8612 -3.1965  1.8901
  557SOL    HW2 2227   0.918   2.695   0.432 -0.5126 -3.7199  2.2670
  557SOL     MW 2228   0.978   2.647   0.473 -0.8276 -1.3788  0.6863
  558SOL     OW 2229   0.211   2.313   3.004 -0.2895 -0.2467 -0.4115
  558SOL    HW1 2230   0.129   2.303   2.953 -0.6631  1.6259 -1.9715
  558SOL    HW2 2231   0.183   2.336   3.090  1.8940 -1.9346  2.1267
  558SOL     MW 2232   0.197   2.315   3.008 -0.0507 -0.2223 -0.2824
  559SOL     OW 2233   1.074   2.329   2.129  0.2907  0.1215  0.0384
  559SOL    HW1 2234   1.162   2.359   2.107 -0.9907  2.5427  2.1708
  559SOL    HW2 2235   1.091   2.243   2.164  2.2386 -0.1756 -2.4559
  559SOL     MW 2236   1.088   2.322   2.130  0.3787  0.4018 -0.0093
  560SOL     OW 2237   1.959   2.890   0.043 -0.3501  0.3943  0.6121
  560SOL    HW1 2238   2.028   2.911  -0.018 -0.6896  1.1524  1.9712
  560SOL    HW2 2239   1.924   2.803   0.019  0.3626 -0.9806  0.7091
  560SOL     MW 2240   1.963   2.881   0.032 -0.3009  0.3129  0.8042
  561SOL     OW 2241   0.329   2.131   0.070 -0.3048 -0.1665  0.3272
  561SOL    HW1 2242   0.290   2.184  -0.001 -0.0454  3.0803  2.0524
  561SOL    HW2 2243   0.376   2.206   0.115 -0.4342  0.7496  0.2970
  561SOL     MW 2244   0.330   2.148   0.067 -0.2876  0.3828  0.5509
  562SOL     OW 2245   0.699   2.233   2.304 -0.4030 -0.2356 -0.2340
  562SOL    HW1 2246   0.662   2.320   2.295  1.6683 -1.1152  1.4906
  562SOL    HW2 2247   0.796   2.231   2.296  2.6749  1.0966  0.4870
  562SOL     MW 2248   0.707   2.244   2.302  0.2764 -0.1759  0.0887
  563SOL     OW 2249   1.242   0.399   0.578  0.3896  0.8298 -0.2996
  563SOL    HW1 2250   1.188   0.331   0.542  0.2075  1.9954 -1.0850
  563SOL    HW2 2251   1.240   0.380   0.670 -1.9917 -0.7970 -2.9359
  563SOL     MW 2252   1.235   0.388   0.586  0.0514  0.7690 -0.7510
  564SOL     OW 2253   1.158   2.613   2.365 -0.1474  0.6405  0.0832
  564SOL    HW1 2254   1.149   2.661   2.283  0.6911 -2.5248  2.1399
  564SOL    HW2 2255   1.158   2.666   2.439  2.6703  0.5743 -0.8036
  564SOL     MW 2256   1.157   2.626   2.364  0.3350  0.2141  0.2376
  565SOL     OW 2257   2.744   2.745   2.625 -0.3560 -0.1496 -0.5427
  565SOL    HW1 2258   2.786   2.822   2.587 -1.3334 -0.9957 -1.1908
  565SOL    HW2 2259   2.742   2.684   2.552 -3.5232  0.7324  1.1091
  565SOL     MW 2260   2.749   2.747   2.610 -0.9029 -0.1449 -0.4103
  566SOL     OW 2261   2.128   1.847   2.432 -0.2527  0.2140 -0.0377
  566SOL    HW1 2262   2.139   1.800   2.350 -0.6667  0.2220 -0.7068
  566SOL    HW2 2263   2.185   1.930   2.428  0.8327  1.8348  2.9112
  566SOL     MW 2264   2.137   1.852   2.421 -0.1641  0.4289  0.2631
  567SOL     OW 2265   1.128   2.982   3.059  0.4107  0.0167 -0.5671
  567SOL    HW1 2266   1.195   3.012   3.115 -1.1398 -0.5021  0.2510
  567SOL    HW2 2267   1.150   2.890   3.041 -0.6172 -2.0950 -2.2161
  567SOL     MW 2268   1.140   2.974   3.064  0.0705 -0.3304 -0.6767
  568SOL     OW 2269   1.617   2.076   2.888 -0.0069  0.0254  0.3545
  568SOL    HW1 2270   1.650   2.104   2.969  0.1807 -0.0532  0.2237
  568SOL    HW2 2271   1.690   2.040   2.836  2.9450 -0.7485  0.2912
  568SOL     MW 2272   1.631   2.075   2.892  0.4073 -0.0871  0.3289
  569SOL     OW 2273   0.166   2.261   2.508  0.3376  0.5454  0.2470
  569SOL    HW1 2274   0.093   2.311   2.472  1.7310  0.5843 -1.3491
  569SOL    HW2 2275   0.217   2.335   2.547 -0.3160  1.4593  1.3262
  569SOL     MW 2276   0.163   2.277   2.509  0.4352  0.6711  0.1788
  570SOL     OW 2277   1.499   0.336   0.535  0.0762  0.5596  0.5806
  570SOL    HW1 2278   1.406   0.356   0.563 -2.9792 -0.6012  0.5263
  570SOL    HW2 2279   1.550   0.349   0.616  1.4882  1.0433 -0.7782
  570SOL     MW 2280   1.494   0.340   0.549 -0.1407  0.4703  0.3942
  571SOL     OW 2281   1.342   2.388   2.084 -0.4999 -0.3527  0.7371
  571SOL    HW1 2282   1.373   2.406   2.174 -0.6429 -1.4775  1.9466
  571SOL    HW2 2283   1.416   2.353   2.029  0.8190 -2.8989 -0.8030
  571SOL     MW 2284   1.356   2.386   2.088 -0.3448 -0.8370  0.6935
  572SOL     OW 2285   1.045   2.596   0.089 -0.7025 -0.9068 -0.0803
  572SOL    HW1 2286   0.997   2.681   0.076 -0.2685  0.9248  0.2260
  572SOL    HW2 2287   0.969   2.539   0.111  0.3423  2.7235 -0.5621
  572SOL     MW 2288   1.029   2.600   0.090 -0.5074 -0.1861 -0.1035
  573SOL     OW 2289   1.206   2.307   0.204  0.3267  0.1957 -0.2531
  573SOL    HW1 2290   1.298   2.297   0.179  0.7412 -2.4026 -0.8689
  573SOL    HW2 2291   1.215   2.386   0.260  2.3526  0.0141 -5.2047
  573SOL     MW 2292   1.219   2.316   0.208  0.6487 -0.1711 -0.9877
  574SOL     OW 2293   1.165   2.547   0.332  0.3882  0.5568 -0.2305
  574SOL    HW1 2294   1.245   2.603   0.352 -1.4795  0.2664 -1.1065
  574SOL    HW2 2295   1.130   2.578   0.249  1.8094  1.1478  0.4190
  574SOL     MW 2296   1.171   2.558   0.324  0.3293  0.5965 -0.2604
  575SOL     OW 2297   3.040   2.225   1.762  0.1258 -0.1397 -0.7199
  575SOL    HW1 2298   3.074   2.172   1.687  0.6078 -0.9275 -1.3526
  575SOL    HW2 2299   3.115   2.285   1.765 -2.9727 -0.3203  0.9519
  575SOL     MW 2300   3.055   2.226   1.752 -0.2194 -0.2674 -0.5828
  576SOL     OW 2301   2.823   1.825   2.021  0.0377 -0.2266 -0.1196
  576SOL    HW1 2302   2.817   1.915   1.988  1.2452  0.3170 -2.6381
  576SOL    HW2 2303   2.729   1.805   2.029  2.8343 -0.0084  1.0162
  576SOL     MW 2304   2.810   1.834   2.018  0.5660 -0.1261 -0.3020
  577SOL     OW 2305   2.065   0.227   0.103  0.6703  0.4010  0.2155
  577SOL    HW1 2306   1.989   0.228   0.040 -0.4569  1.5726  2.3563
  577SOL    HW2 2307   2.037   0.219   0.196  0.8919  1.4927  2.3529
  577SOL     MW 2308   2.051   0.226   0.107  0.5508  0.6996  0.7799
  578SOL     OW 2309   1.926   2.053   2.402  0.1299 -0.5907  0.3953
  578SOL    HW1 2310   1.858   2.017   2.341  1.5379  1.6994  0.8253
  578SOL    HW2 2311   2.001   1.994   2.408 -2.4245 -0.5611  0.5486
  578SOL     MW 2312   1.927   2.041   2.395 -0.0213 -0.2846  0.4722
  579SOL     OW 2313   0.944   2.433   2.452 -0.2042 -0.0760 -0.0284
  579SOL    HW1 2314   0.987   2.393   2.531  2.1589  0.5800  3.0874
  579SOL    HW2 2315   1.006   2.497   2.430 -4.0783 -1.5003  0.7303
  579SOL     MW 2316   0.958   2.436   2.460 -0.4036 -0.1774  0.4828
  580SOL     OW 2317   0.910   2.829   0.030  0.6709  0.4471  0.0613
  580SOL    HW1 2318   0.979   2.892   0.045  0.3803  0.1484  0.5937
  580SOL    HW2 2319   0.923   2.793  -0.057  0.1381  0.3066 -1.1671
  580SOL     MW 2320   0.921   2.833   0.021  0.5623  0.3892 -0.0306
  581SOL     OW 2321   1.148   2.502   1.679 -0.1160 -0.2793  0.2997
  581SOL    HW1 2322   1.200   2.555   1.734 -0.1952 -2.0445 -3.1746
  581SOL    HW2 2323   1.208   2.430   1.652  2.7882 -1.5058 -0.7768
  581SOL     MW 2324   1.163   2.499   1.683  0.2568 -0.6740 -0.3007
  582SOL     OW 2325   0.036   2.798   2.708 -0.4063  0.9217  0.2975
  582SOL    HW1 2326  -0.038   2.865   2.712 -1.1080 -0.0441 -1.1261
  582SOL    HW2 2327   0.115   2.846   2.686 -0.5737  0.8092  1.9428
  582SOL     MW 2328   0.037   2.813   2.706 -0.5210  0.7794  0.3267
  583SOL     OW 2329   1.991   2.436   2.675  0.1914 -0.1385  0.2947
  583SOL    HW1 2330   2.066   2.461   2.620  1.1920 -1.0427  3.2980
  583SOL    HW2 2331   2.004   2.347   2.691 -2.0152  3.3615  0.5046
  583SOL     MW 2332   2.003   2.427   2.670  0.0323  0.2040  0.7186
  584SOL     OW 2333   0.068   1.901   2.214 -0.7056 -0.0487  0.2279
  584SOL    HW1 2334   0.132   1.864   2.269 -0.5782 -1.4698  0.5035
  584SOL    HW2 2335   0.073   1.997   2.232 -0.9692  0.0556 -1.6286
  584SOL     MW 2336   0.077   1.909   2.224 -0.7236 -0.2224  0.0193
  585SOL     OW 2337   1.563   2.576   0.216  0.3739  0.3990 -0.8780
  585SOL    HW1 2338   1.511   2.571   0.129 -1.1045  0.8219 -3.8246
  585SOL    HW2 2339   1.495   2.604   0.281 -3.7309 -0.7275 -0.8423
  585SOL     MW 2340   1.547   2.579   0.213 -0.3627  0.3062 -1.2621
  586SOL     OW 2341   1.421   2.821   2.591  0.1062 -0.3297  0.0657
  586SOL    HW1 2342   1.413   2.795   2.502 -0.3771  0.0008 -0.8229
  586SOL    HW2 2343   1.392   2.909   2.592  0.1821  1.4371  0.0939
  586SOL     MW 2344   1.416   2.829   2.579  0.0524 -0.0530 -0.0478
  587SOL     OW 2345   1.377   1.516   2.156  0.1660  0.1537  0.0127
  587SOL    HW1 2346   1.322   1.457   2.215 -3.1293  0.1560 -1.0168
  587SOL    HW2 2347   1.398   1.465   2.082  0.9237 -0.2953  0.3210
  587SOL     MW 2348   1.372   1.502   2.154 -0.1688  0.0948 -0.0824
  588SOL     OW 2349   1.356   2.043   2.692  0.0832 -0.4777 -0.0077
  588SOL    HW1 2350   1.355   1.950   2.681  1.5005  1.2777 -1.0589
  588SOL    HW2 2351   1.335   2.063   2.783 -0.8452  1.8818 -0.0303
  588SOL     MW 2352   1.354   2.033   2.703  0.1477  0.0652 -0.1494
  589SOL     OW 2353   1.394   2.013   0.053 -0.2839  0.0398 -0.0010
  589SOL    HW1 2354   1.413   2.093   0.099 -0.2850  0.7149 -0.9738
  589SOL    HW2 2355   1.332   1.967   0.109  1.6960  0.2509 -0.6802
  589SOL     MW 2356   1.388   2.018   0.066 -0.0228  0.1567 -0.2189
  590SOL     OW 2357   0.495   2.775   2.208 -0.4520 -0.0786 -0.3429
  590SOL    HW1 2358   0.499   2.760   2.114  2.6647  0.7563 -1.3947
  590SOL    HW2 2359   0.590   2.769   2.224 -0.8285 -0.8855 -2.3813
  590SOL     MW 2360   0.508   2.772   2.198 -0.0904 -0.0749 -0.7506
  591SOL     OW 2361   2.278   0.681   0.026 -0.1523 -0.0195 -0.5765
  591SOL    HW1 2362   2.222   0.751  -0.003  1.4722 -0.9486  2.8949
  591SOL    HW2 2363   2.338   0.670  -0.051  2.6883 -2.8765  2.2812
  591SOL     MW 2364   2.279   0.689   0.012  0.4368 -0.5191  0.2586
  592SOL     OW 2365   1.746   2.945   0.753 -0.0317  0.1663 -0.4676
  592SOL    HW1 2366   1.756   3.006   0.681  2.7583  0.8441 -0.4025
  592SOL    HW2 2367   1.822   2.959   0.803 -0.9173  1.0879 -0.6526
  592SOL     MW 2368   1.757   2.955   0.750  0.2195  0.3773 -0.4834
  593SOL     OW 2369   1.954   0.664   0.857  0.0007  0.7105 -0.2299
  593SOL    HW1 2370   1.867   0.641   0.824  0.2910 -2.0294 -0.9155
  593SOL    HW2 2371   2.016   0.602   0.823  0.4763  0.2847  1.7501
  593SOL     MW 2372   1.951   0.653   0.848  0.1018  0.2928 -0.0591
  594SOL     OW 2373   2.788   1.118   1.399 -0.2039 -0.4525  0.7484
  594SOL    HW1 2374   2.880   1.131   1.382  1.8097  1.8478 -1.1969
  594SOL    HW2 2375   2.740   1.096   1.319 -0.3864 -1.2336 -0.7014
  594SOL     MW 2376   2.793   1.117   1.386  0.0377 -0.2521  0.3004
  595SOL     OW 2377   0.479   0.950   0.828 -0.2234 -0.7591 -0.0470
  595SOL    HW1 2378   0.489   1.028   0.771 -1.1806 -1.2225 -0.4250
  595SOL    HW2 2379   0.457   0.988   0.918  1.7741  2.3312  0.5975
  595SOL     MW 2380   0.477   0.965   0.833 -0.0861 -0.4125 -0.0118
  596SOL     OW 2381   2.457   1.335   0.542  0.4834  0.0461 -0.5930
  596SOL    HW1 2382   2.530   1.388   0.512  1.2691 -2.2275 -0.0421
  596SOL    HW2 2383   2.486   1.298   0.624  1.0006 -0.6841 -4.6842
  596SOL     MW 2384   2.471   1.337   0.549  0.6553 -0.3502 -1.0601
  597SOL     OW 2385   2.164   0.674   1.611 -0.4973 -0.5288 -0.0876
  597SOL    HW1 2386   2.206   0.622   1.678  1.8071  1.9858 -1.2012
  597SOL    HW2 2387   2.099   0.611   1.562 -1.4661 -0.8416 -2.9133
  597SOL     MW 2388   2.161   0.659   1.613 -0.3211 -0.2383 -0.6074
  598SOL     OW 2389   2.565   1.037   2.843  0.1748  0.3160  0.2660
  598SOL    HW1 2390   2.594   0.979   2.774  0.0666  0.0661  2.1352
  598SOL    HW2 2391   2.645   1.083   2.868  1.3714  0.5782  0.8084
  598SOL     MW 2392   2.580   1.035   2.837  0.3184  0.3176  0.5842
  599SOL     OW 2393   2.982   0.401   2.108  0.0728  0.4183  1.1177
  599SOL    HW1 2394   3.022   0.427   2.189 -0.2854 -0.3509 -0.2960
  599SOL    HW2 2395   2.997   0.479   2.053 -0.8672 -0.8467 -1.1890
  599SOL     MW 2396   2.990   0.415   2.112 -0.0985  0.1499  0.6268
  600SOL     OW 2397   1.822   1.633   0.894  0.2863 -0.4296  0.2565
  600SOL    HW1 2398   1.871   1.676   0.966  2.0208 -0.2115 -0.8095
  600SOL    HW2 2399   1.781   1.703   0.845  0.4495  0.5341  0.8254
  600SOL     MW 2400   1.823   1.648   0.897  0.5367 -0.2737  0.1909
  601SOL     OW 2401   2.538   0.734   0.811 -0.4162 -0.5346 -0.0922
  601SOL    HW1 2402   2.533   0.755   0.908  0.9520  1.1084 -0.5656
  601SOL    HW2 2403   2.461   0.671   0.791 -1.6797 -2.2771 -1.6265
  601SOL     MW 2404   2.527   0.728   0.821 -0.4024 -0.5478 -0.3571
  602SOL     OW 2405   2.307   1.931   0.760  0.5919  0.2907  0.5674
  602SOL    HW1 2406   2.254   1.848   0.752  1.0687 -1.6737  1.8560
  602SOL    HW2 2407   2.246   2.005   0.749 -1.2479  1.2365 -2.2882
  602SOL     MW 2408   2.292   1.930   0.758  0.4121  0.1563  0.3607
  603SOL     OW 2409   3.014   1.391   1.955 -0.6815 -0.3769  0.1285
  603SOL    HW1 2410   3.086   1.444   1.987 -2.8333 -0.5590 -2.7721
  603SOL    HW2 2411   3.006   1.319   2.020 -2.9181  1.0020  0.0381
  603SOL     MW 2412   3.023   1.388   1.968 -1.2605 -0.2190 -0.2661
  604SOL     OW 2413   2.052   1.489   0.463 -0.9071 -0.4988  0.2620
  604SOL    HW1 2414   2.071   1.390   0.488  1.8403 -1.9592 -0.0010
  604SOL    HW2 2415   2.000   1.528   0.531 -0.7370  1.2270 -2.1890
  604SOL     MW 2416   2.048   1.481   0.475 -0.5222 -0.4638 -0.0961
  605SOL     OW 2417   2.530   1.470   0.888 -0.2251  0.4403 -0.3376
  605SOL    HW1 2418   2.502   1.531   0.818 -3.2459 -2.2136  2.2275
  605SOL    HW2 2419   2.554   1.390   0.845 -0.0036 -0.8401  3.0999
  605SOL     MW 2420   2.530   1.467   0.873 -0.5945 -0.0788  0.4544
  606SOL     OW 2421   2.539   1.790   2.000  0.4452  0.5924 -0.6155
  606SOL    HW1 2422   2.450   1.793   1.969  1.2235  0.1759 -0.3513
  606SOL    HW2 2423   2.587   1.739   1.936  1.0332 -0.5569 -0.2122
  606SOL     MW 2424   2.534   1.784   1.988  0.6255  0.3858 -0.5274
  607SOL     OW 2425   2.385   0.959   3.035 -0.6965 -0.4381 -0.2932
  607SOL    HW1 2426   2.453   0.983   2.975  0.8924  0.1840  1.0764
  607SOL    HW2 2427   2.428   0.971   3.121  1.7501  0.8956 -0.8566
  607SOL     MW 2428   2.399   0.964   3.038 -0.1640 -0.1801 -0.1868
  608SOL     OW 2429   1.850   0.260   0.547 -0.3246  0.0295 -0.3627
  608SOL    HW1 2430   1.827   0.296   0.467 -0.6957 -1.9727 -0.8270
  608SOL    HW2 2431   1.834   0.168   0.529  0.2679 -3.3671 -1.5847
  608SOL     MW 2432   1.845   0.252   0.534 -0.2954 -0.6828 -0.5852
  609SOL     OW 2433   2.131   1.923   3.021  0.2001 -0.2402 -0.2931
  609SOL    HW1 2434   2.067   1.852   2.986 -1.2532 -0.7217  0.0006
  609SOL    HW2 2435   2.142   1.892   3.112  0.1349 -2.3567  0.9020
  609SOL     MW 2436   2.124   1.909   3.028 -0.0002 -0.5830 -0.0966
  610SOL     OW 2437   1.808   0.944   1.235 -0.6070  0.2325  0.2672
  610SOL    HW1 2438   1.844   0.870   1.189 -0.5359 -1.4229  0.2796
  610SOL    HW2 2439   1.714   0.931   1.230  2.0774  1.3831 -1.2042
  610SOL     MW 2440   1.800   0.933   1.228 -0.2435  0.1659  0.0747
  611SOL     OW 2441   2.491   1.655   0.688 -0.3563  0.0806  0.1139
  611SOL    HW1 2442   2.549   1.690   0.625 -0.2822 -1.1497  1.9977
  611SOL    HW2 2443   2.402   1.667   0.655 -0.6357  0.3217 -0.7435
  611SOL     MW 2444   2.487   1.661   0.675 -0.3834 -0.0499  0.2493
  612SOL     OW 2445   2.839   2.937   0.385  0.3803  0.5261  0.0051
  612SOL    HW1 2446   2.883   2.964   0.471  0.6260  0.5370  2.2755
  612SOL    HW2 2447   2.897   2.876   0.336 -1.0200  0.0490 -0.1905
  612SOL     MW 2448   2.852   2.933   0.390  0.2279  0.4646  0.2788
  613SOL     OW 2449   1.471   1.042   0.935  0.4072 -0.1313  0.2235
  613SOL    HW1 2450   1.468   1.136   0.932  0.2005 -1.7507 -0.2502
  613SOL    HW2 2451   1.505   1.017   1.019 -1.2632  2.6496 -0.6351
  613SOL     MW 2452   1.475   1.051   0.946  0.1595  0.0220  0.0477
  614SOL     OW 2453   2.002   0.498   1.493  0.2542  0.9131 -0.7789
  614SOL    HW1 2454   1.993   0.431   1.573 -0.7434  1.1994  0.0423
  614SOL    HW2 2455   1.951   0.456   1.419 -1.6204 -0.6714  1.3565
  614SOL     MW 2456   1.994   0.483   1.494 -0.1247  0.7418 -0.3888
  615SOL     OW 2457   2.368   0.724   0.289  0.7740  0.0419  0.2445
  615SOL    HW1 2458   2.432   0.654   0.286  2.2975 -0.7184  1.7301
  615SOL    HW2 2459   2.327   0.716   0.197 -0.0605 -2.6745 -2.4693
  615SOL     MW 2460   2.371   0.714   0.277  0.8649 -0.4168  0.0825
  616SOL     OW 2461   2.498   0.452   1.655  0.0247  0.1679 -0.4688
  616SOL    HW1 2462   2.582   0.412   1.640  0.3493 -2.5556 -0.1655
  616SOL    HW2 2463   2.479   0.510   1.581  0.4004 -1.7472  0.6017
  616SOL     MW 2464   2.507   0.454   1.643  0.1171 -0.4441 -0.2876
  617SOL     OW 2465   2.846   0.608   1.707 -0.1585 -0.1466  0.6671
  617SOL    HW1 2466   2.765   0.622   1.757 -2.1902 -1.5998  1.8795
  617SOL    HW2 2467   2.871   0.517   1.721  3.4269  3.0300 -1.6383
  617SOL     MW 2468   2.839   0.597   1.715  0.0465  0.0808  0.5229
  618SOL     OW 2469   2.727   0.387   2.010 -0.2172 -0.1928  0.6582
  618SOL    HW1 2470   2.704   0.472   1.977  0.3794 -2.8950  1.1449
  618SOL    HW2 2471   2.808   0.390   2.062  1.7841  1.0131 -1.4017
  618SOL     MW 2472   2.735   0.399   2.012  0.1255 -0.3902  0.4506
  619SOL     OW 2473   2.652   0.707   0.065 -0.5183 -0.0406  0.4245
  619SOL    HW1 2474   2.693   0.787   0.098  0.8224  0.8512  2.0485
  619SOL    HW2 2475   2.629   0.662   0.146 -0.3383 -1.5299 -2.5675
  619SOL     MW 2476   2.654   0.711   0.080 -0.3176 -0.1194  0.2440
  620SOL     OW 2477   2.246   1.088   0.943  0.0789  0.0400 -0.2891
  620SOL    HW1 2478   2.327   1.047   0.909 -2.0187 -2.7986 -2.5199
  620SOL    HW2 2479   2.187   1.046   0.884  0.7700  1.8479  0.6845
  620SOL     MW 2480   2.249   1.077   0.931 -0.1067 -0.0960 -0.4550
  621SOL     OW 2481   1.540   2.236   1.941 -0.7571  0.0604  0.0179
  621SOL    HW1 2482   1.495   2.158   1.966  1.8229 -2.0339  1.2166
  621SOL    HW2 2483   1.632   2.211   1.964 -0.3373  2.3911  2.9154
  621SOL     MW 2484   1.546   2.223   1.947 -0.3613  0.0916  0.5583
  622SOL     OW 2485   2.638   0.241   0.264 -0.8519  0.0102  0.5666
  622SOL    HW1 2486   2.734   0.246   0.234  0.6667  2.8252  0.5303
  622SOL    HW2 2487   2.623   0.149   0.286  1.4181 -0.7626  0.0874
  622SOL     MW 2488   2.649   0.229   0.263 -0.3520  0.2797  0.4986
  623SOL     OW 2489   2.438   2.750   0.869  0.1907  0.0260  0.4888
  623SOL    HW1 2490   2.488   2.828   0.863 -1.1833 -1.2921 -0.8546
  623SOL    HW2 2491   2.402   2.766   0.953  0.4245 -1.0172 -3.1069
  623SOL     MW 2492   2.440   2.762   0.879  0.0403 -0.2855 -0.1629
  624SOL     OW 2493   2.137   1.613   3.031 -0.5962 -0.2365  0.0420
  624SOL    HW1 2494   2.075   1.541   3.056  1.9888  2.5854  2.7861
  624SOL    HW2 2495   2.079   1.672   2.990 -2.2689  2.2363 -0.3329
  624SOL     MW 2496   2.121   1.611   3.029 -0.4758  0.4621  0.3546
  625SOL     OW 2497   2.220   1.936   1.108  0.8400 -0.7720 -0.2832
  625SOL    HW1 2498   2.273   1.881   1.169  1.0556 -0.8932  0.2493
  625SOL    HW2 2499   2.273   1.966   1.032  0.4042 -1.5148 -1.9457
  625SOL     MW 2500   2.234   1.933   1.106  0.8109 -0.8860 -0.4323
  626SOL     OW 2501   0.226   1.787   2.471 -0.0896  0.2852 -0.5603
  626SOL    HW1 2502   0.175   1.711   2.501  0.3990 -0.7999 -2.3389
  626SOL    HW2 2503   0.169   1.869   2.479  0.3119 -0.2979  1.0750
  626SOL     MW 2504   0.212   1.788   2.476  0.0278  0.0651 -0.5792
  627SOL     OW 2505   2.539   0.784   2.571 -0.1852  0.1795 -0.1125
  627SOL    HW1 2506   2.452   0.814   2.597  0.4661 -1.1969  0.7921
  627SOL    HW2 2507   2.527   0.724   2.498  0.7596  0.3679  1.3236
  627SOL     MW 2508   2.526   0.780   2.565  0.0253  0.0227  0.1964
  628SOL     OW 2509   2.246   1.343   1.310 -0.1542  0.7810  0.9253
  628SOL    HW1 2510   2.226   1.257   1.275  1.1204  0.0692  0.2077
  628SOL    HW2 2511   2.317   1.386   1.250  2.4904  1.7703 -0.5058
  628SOL     MW 2512   2.253   1.338   1.298  0.3629  0.8176  0.6418
  629SOL     OW 2513   1.822   0.464   1.277 -0.9116 -0.1510  0.5847
  629SOL    HW1 2514   1.826   0.541   1.214 -1.5329  1.5856 -1.7161
  629SOL    HW2 2515   1.753   0.416   1.234 -1.0889 -1.3881 -0.3748
  629SOL     MW 2516   1.814   0.468   1.263 -1.0170 -0.0851  0.1546
  630SOL     OW 2517   2.415   1.857   2.995  0.5335 -0.2999 -0.2770
  630SOL    HW1 2518   2.419   1.949   2.959  1.5041  3.1544  1.3087
  630SOL    HW2 2519   2.319   1.839   2.987 -1.4134 -0.3306 -1.5491
  630SOL     MW 2520   2.403   1.867   2.989  0.4047  0.1518 -0.2357
  631SOL     OW 2521   2.043   1.677   1.550  1.1477 -0.0641 -0.2314
  631SOL    HW1 2522   2.052   1.591   1.601  0.2969 -0.8995 -1.3042
  631SOL    HW2 2523   1.963   1.721   1.583 -1.1134  1.2515  3.7021
  631SOL     MW 2524   2.034   1.672   1.561  0.7371 -0.0008  0.1461
  632SOL     OW 2525   0.255   1.946   1.479 -0.2965 -0.0092  0.5218
  632SOL    HW1 2526   0.173   1.978   1.530  1.4610 -1.1501 -1.4487
  632SOL    HW2 2527   0.287   1.868   1.529 -0.8366 -1.4733  1.3546
  632SOL     MW 2528   0.249   1.940   1.492 -0.1359 -0.3529  0.3717
  633SOL     OW 2529   2.582   0.530   0.288  0.8369  0.1617  0.1877
  633SOL    HW1 2530   2.608   0.555   0.377  2.9179  0.1257 -1.8162
  633SOL    HW2 2531   2.596   0.437   0.295  1.1029 -2.2323 -2.5774
  633SOL     MW 2532   2.587   0.521   0.301  1.1466 -0.1589 -0.4415
  634SOL     OW 2533   2.711   3.046   0.629 -0.3559 -0.2343  0.1018
  634SOL    HW1 2534   2.726   3.137   0.644 -1.1269 -3.3663 -0.8022
  634SOL    HW2 2535   2.651   3.047   0.553 -0.6496  0.6109 -1.0180
  634SOL     MW 2536   2.705   3.058   0.621 -0.4964 -0.5360 -0.1652
  635SOL     OW 2537   2.581   0.123   1.853 -0.1769  0.1045  0.0347
  635SOL    HW1 2538   2.645   0.082   1.793  0.9357 -0.2766 -0.4654
  635SOL    HW2 2539   2.611   0.208   1.857  1.3187 -2.2943  1.0320
  635SOL     MW 2540   2.594   0.129   1.846  0.1673 -0.2623  0.1003
  636SOL     OW 2541   2.782   1.604   0.868 -0.2661  0.6934  0.2209
  636SOL    HW1 2542   2.689   1.587   0.849  1.4207  2.7445 -0.1938
  636SOL    HW2 2543   2.779   1.688   0.912 -1.6903  0.1084  2.6606
  636SOL     MW 2544   2.770   1.613   0.871 -0.2315  0.8869  0.4881
  637SOL     OW 2545   2.885   1.530   0.630 -0.1302  0.1081  0.1217
  637SOL    HW1 2546   2.968   1.576   0.606  1.1870  1.0643  1.9505
  637SOL    HW2 2547   2.854   1.565   0.714  0.6371  1.4065 -1.9599
  637SOL     MW 2548   2.892   1.541   0.638  0.1448  0.4056  0.0883
  638SOL     OW 2549   2.707   0.511   0.535 -0.0302 -0.2450  0.2152
  638SOL    HW1 2550   2.796   0.540   0.516  0.3372 -0.9185  0.1015
  638SOL    HW2 2551   2.709   0.516   0.636 -0.5040  1.6378  1.8453
  638SOL     MW 2552   2.719   0.515   0.546 -0.0443 -0.0855  0.4153
  639SOL     OW 2553   1.759   0.004   0.521  0.0443 -0.6704  0.6374
  639SOL    HW1 2554   1.660   0.013   0.512  1.5092  2.2256 -1.0869
  639SOL    HW2 2555   1.790  -0.079   0.472  2.9110 -0.5260 -0.7826
  639SOL     MW 2556   1.750  -0.006   0.513  0.6158 -0.2693  0.2225
  640SOL     OW 2557   0.320   1.328   0.085  0.1647  0.3285  0.0716
  640SOL    HW1 2558   0.343   1.320  -0.009  2.1482 -1.2491 -0.4260
  640SOL    HW2 2559   0.322   1.236   0.118  1.3951 -1.1551 -3.1599
  640SOL     MW 2560   0.323   1.315   0.077  0.5887 -0.0754 -0.4204
  641SOL     OW 2561   2.220   0.423   0.390  0.0804  0.2264 -0.3401
  641SOL    HW1 2562   2.250   0.402   0.306 -0.0069  0.2871  0.1087
  641SOL    HW2 2563   2.285   0.394   0.454 -3.1425 -1.4202 -1.0783
  641SOL     MW 2564   2.233   0.417   0.387 -0.3564  0.0172 -0.3783
  642SOL     OW 2565   0.083   0.032   0.492  0.0441  0.7976  0.1017
  642SOL    HW1 2566   0.040   0.119   0.459  0.8317 -0.9173 -1.6657
  642SOL    HW2 2567   0.020  -0.009   0.551  0.1927 -3.0577 -0.4336
  642SOL     MW 2568   0.069   0.038   0.495  0.1676  0.0627 -0.2021
  643SOL     OW 2569   2.022   0.323   1.706  0.4269 -0.2671  0.1786
  643SOL    HW1 2570   1.948   0.286   1.757  1.8454 -0.2061 -1.9050
  643SOL    HW2 2571   2.042   0.267   1.625  1.2498 -2.1134  0.0140
  643SOL     MW 2572   2.015   0.311   1.702  0.7226 -0.5026 -0.1181
  644SOL     OW 2573   2.680   1.840   0.988 -0.0939 -0.4842 -0.2050
  644SOL    HW1 2574   2.697   1.799   1.073 -2.0753  1.2565 -0.9639
  644SOL    HW2 2575   2.586   1.853   0.977  1.9051  0.8149  0.3093
  644SOL     MW 2576   2.670   1.836   0.998 -0.0916 -0.0831 -0.2373
  645SOL     OW 2577   2.841   0.820   0.751  0.5191 -0.4723  0.2061
  645SOL    HW1 2578   2.919   0.774   0.732 -0.5734  2.4424  3.3131
  645SOL    HW2 2579   2.775   0.753   0.772  2.1260 -4.0115  0.5826
  645SOL     MW 2580   2.842   0.805   0.751  0.5870 -0.5547  0.6657
  646SOL     OW 2581   0.072   2.311   0.856 -0.1348  0.2653 -0.8464
  646SOL    HW1 2582   0.114   2.224   0.850 -2.6553 -0.6750  0.4172
  646SOL    HW2 2583   0.016   2.310   0.773  0.6927  1.3103 -2.1244
  646SOL     MW 2584   0.070   2.299   0.844 -0.3582  0.2791 -0.8483
  647SOL     OW 2585   2.708   0.494   2.992 -0.1053  0.1724  0.1931
  647SOL    HW1 2586   2.649   0.448   3.048 -0.2288 -1.7136 -0.8492
  647SOL    HW2 2587   2.689   0.586   3.011  0.3067  0.3613  0.7794
  647SOL     MW 2588   2.697   0.500   3.002 -0.0672 -0.0515  0.1330
  648SOL     OW 2589   2.265   0.741   1.127 -0.3949  0.2896  0.4128
  648SOL    HW1 2590   2.192   0.720   1.074 -1.6201 -0.6763  0.0405
  648SOL    HW2 2591   2.228   0.780   1.204  0.3309 -0.0004  0.7437
  648SOL     MW 2592   2.251   0.743   1.130 -0.4608  0.1239  0.4073
  649SOL     OW 2593   2.408   2.706   1.307  0.2607  0.6005 -0.3267
  649SOL    HW1 2594   2.501   2.730   1.305  0.5181 -2.6264  1.0359
  649SOL    HW2 2595   2.405   2.608   1.278  0.7932 -1.0380 -1.3107
  649SOL     MW 2596   2.419   2.696   1.303  0.3649 -0.0415 -0.2767
  650SOL     OW 2597   2.773   0.223   0.642 -0.3085  0.0450 -0.3653
  650SOL    HW1 2598   2.838   0.219   0.712 -1.2382 -3.0029  0.4056
  650SOL    HW2 2599   2.832   0.239   0.566  2.0371 -2.2005 -0.6111
  650SOL     MW 2600   2.789   0.225   0.641 -0.1217 -0.6534 -0.2960
  651SOL     OW 2601   0.007   0.454   1.006  0.2870  0.0696 -0.6133
  651SOL    HW1 2602   0.069   0.482   0.933 -3.1374 -2.0077 -2.1345
  651SOL    HW2 2603  -0.067   0.512   1.000  1.8303 -0.1033 -1.7768
  651SOL     MW 2604   0.006   0.466   0.995  0.0388 -0.2273 -0.9675
  652SOL     OW 2605   2.387   1.472   3.027  0.4313 -0.6059  0.0839
  652SOL    HW1 2606   2.450   1.501   2.962 -3.0161 -1.0966 -0.8522
  652SOL    HW2 2607   2.308   1.526   3.019  1.4690 -4.7750  0.4534
  652SOL     MW 2608   2.385   1.483   3.017  0.1134 -1.2207  0.0091
  653SOL     OW 2609   1.821   0.437   0.322 -0.2543 -0.5337 -0.0157
  653SOL    HW1 2610   1.789   0.357   0.274 -1.4760 -3.5915  1.3638
  653SOL    HW2 2611   1.907   0.467   0.294 -1.2348  3.6618 -1.5797
  653SOL     MW 2612   1.828   0.430   0.312 -0.5449 -0.3836 -0.0401
  654SOL     OW 2613   2.438   0.991   0.740  0.0012 -0.4107  0.1782
  654SOL    HW1 2614   2.374   0.953   0.680 -1.6427 -1.8102 -0.0486
  654SOL    HW2 2615   2.503   0.909   0.756  0.6619  1.0122  1.0878
  654SOL     MW 2616   2.438   0.975   0.734 -0.1285 -0.4076  0.2683
  655SOL     OW 2617   2.883   0.854   0.391 -0.0522  0.1797  0.1818
  655SOL    HW1 2618   2.818   0.864   0.462  1.7387  1.3528  1.0707
  655SOL    HW2 2619   2.928   0.773   0.411  0.1376  2.9883  1.2092
  655SOL     MW 2620   2.880   0.845   0.403  0.2091  0.7050  0.4346
  656SOL     OW 2621   1.788   2.648   1.372 -0.0791 -0.1296 -0.0591
  656SOL    HW1 2622   1.823   2.733   1.398 -1.4331 -0.2865  2.9148
  656SOL    HW2 2623   1.856   2.584   1.366 -1.3262  0.2582 -0.7548
  656SOL     MW 2624   1.801   2.651   1.375 -0.4223 -0.0991  0.2415
  657SOL     OW 2625   0.119   1.748   1.140 -0.4570 -0.3363  0.3663
  657SOL    HW1 2626   0.198   1.802   1.112 -1.5479 -0.5534 -1.2510
  657SOL    HW2 2627   0.145   1.658   1.159  0.4774 -1.9203  0.9051
  657SOL     MW 2628   0.133   1.743   1.139 -0.4777 -0.5740  0.2240
  658SOL     OW 2629   2.653   1.303   0.240  0.2720  0.4731 -0.2027
  658SOL    HW1 2630   2.629   1.223   0.291  1.2604  3.2653 -1.8118
  658SOL    HW2 2631   2.696   1.365   0.299  2.2542 -0.5390  0.0265
  658SOL     MW 2632   2.655   1.300   0.254  0.6640  0.7080 -0.3848
  659SOL     OW 2633   2.205   1.559   0.997  0.0339 -0.1725  0.7052
  659SOL    HW1 2634   2.299   1.561   0.977  0.0256  0.8110 -3.0020
  659SOL    HW2 2635   2.197   1.632   1.063  0.0856  0.8035 -2.9033
  659SOL     MW 2636   2.217   1.569   1.003  0.0397  0.0860 -0.2600
  660SOL     OW 2637   2.098   1.456   1.719  0.0096  0.1030 -0.4585
  660SOL    HW1 2638   2.094   1.513   1.796  0.9775  0.6049  2.2280
  660SOL    HW2 2639   2.008   1.431   1.685 -1.6417 -0.7780  0.2658
  660SOL     MW 2640   2.086   1.460   1.725 -0.0806  0.0530 -0.0085
  661SOL     OW 2641   2.488   0.981   0.196 -0.3617 -0.1681  0.2992
  661SOL    HW1 2642   2.546   1.003   0.271  4.0126 -0.2253  0.0358
  661SOL    HW2 2643   2.423   0.920   0.233 -4.3911 -0.3748  1.3342
  661SOL     MW 2644   2.487   0.976   0.211 -0.3162 -0.2029  0.4010
  662SOL     OW 2645   2.595   2.965   0.869  0.1197  0.0436 -0.8475
  662SOL    HW1 2646   2.544   3.037   0.902 -1.4727  0.8975  0.4828
  662SOL    HW2 2647   2.638   2.999   0.787  2.0408 -2.1590  0.0069
  662SOL     MW 2648   2.594   2.979   0.863  0.1630 -0.1343 -0.5593
  663SOL     OW 2649   2.674   1.480   0.457  0.1339  0.3491  0.1186
  663SOL    HW1 2650   2.666   1.552   0.398  0.3019 -0.5905 -3.3264
  663SOL    HW2 2651   2.735   1.515   0.527  3.3943 -0.7730  1.1880
  663SOL     MW 2652   2.681   1.494   0.459  0.5862  0.0771 -0.1948
  664SOL     OW 2653   2.571   1.492   1.619 -0.6541 -0.2175  0.4256
  664SOL    HW1 2654   2.574   1.585   1.595 -0.6022 -2.3328 -2.7306
  664SOL    HW2 2655   2.484   1.466   1.609 -2.1606  2.4677 -2.3272
  664SOL     MW 2656   2.560   1.501   1.614 -0.8461 -0.1423 -0.3540
  665SOL     OW 2657   2.775   0.768   2.107 -0.0027  0.0169 -0.0431
  665SOL    HW1 2658   2.737   0.844   2.057  1.0583  0.4750  0.2655
  665SOL    HW2 2659   2.861   0.763   2.065 -0.7493  1.4347  0.7470
  665SOL     MW 2660   2.781   0.777   2.095  0.0388  0.2644  0.1019
  666SOL     OW 2661   2.766   3.056   1.719  0.3795 -0.1339 -0.2956
  666SOL    HW1 2662   2.777   3.044   1.622  1.0139  3.0171  0.2814
  666SOL    HW2 2663   2.739   2.968   1.751 -0.6938 -0.0345 -0.6080
  666SOL     MW 2664   2.764   3.043   1.711  0.3216  0.2950 -0.2607
  667SOL     OW 2665   1.998   2.711   1.711 -0.0188 -0.3526  0.2994
  667SOL    HW1 2666   2.041   2.661   1.781  1.0974  2.5253  3.0397
  667SOL    HW2 2667   2.066   2.775   1.685  2.0754  0.3720 -1.4297
  667SOL     MW 2668   2.013   2.713   1.717  0.4048  0.1227  0.4328
  668SOL     OW 2669   2.714   0.534   0.802  0.2886 -0.3232 -0.0525
  668SOL    HW1 2670   2.801   0.544   0.847  1.4369  0.6892  0.1024
  668SOL    HW2 2671   2.670   0.617   0.818  2.2743 -1.8463 -1.6234
  668SOL     MW 2672   2.720   0.546   0.810  0.7021 -0.3906 -0.2393
  669SOL     OW 2673   0.140   0.892   0.776  0.2904 -0.2433  0.2299
  669SOL    HW1 2674   0.100   0.953   0.831  2.2731  0.7679  2.0594
  669SOL    HW2 2675   0.175   0.838   0.848 -1.0683 -2.4707 -0.5894
  669SOL     MW 2676   0.140   0.893   0.793  0.3727 -0.4038  0.3632
  670SOL     OW 2677   2.896   0.314   0.223  0.0898  0.0853  0.7505
  670SOL    HW1 2678   2.933   0.271   0.140  1.3759 -0.1161 -0.4289
  670SOL    HW2 2679   2.941   0.396   0.234 -0.4408  0.8307  1.5616
  670SOL     MW 2680   2.907   0.319   0.214  0.1895  0.1570  0.7019
  671SOL     OW 2681   2.007   3.039   1.565  0.0885 -0.1033  0.0081
  671SOL    HW1 2682   1.962   2.985   1.500 -0.3130  0.5050 -2.5071
  671SOL    HW2 2683   1.941   3.041   1.637  1.1291 -1.5050  0.9376
  671SOL     MW 2684   1.992   3.032   1.566  0.1728 -0.2080 -0.2011
  672SOL     OW 2685   1.838   1.698   1.277 -0.3659 -0.1281  0.0102
  672SOL    HW1 2686   1.851   1.767   1.345  0.4381 -1.0999 -2.4028
  672SOL    HW2 2687   1.885   1.730   1.201  2.7522 -2.5553  0.4438
  672SOL     MW 2688   1.846   1.711   1.276  0.1516 -0.5765 -0.2510
  673SOL     OW 2689   2.757   1.072   0.651 -0.5950  0.2373 -0.4665
  673SOL    HW1 2690   2.801   1.012   0.705 -1.3542  0.2759 -1.0897
  673SOL    HW2 2691   2.825   1.124   0.619 -1.1043 -1.3472  1.7836
  673SOL     MW 2692   2.772   1.071   0.654 -0.7624  0.0333 -0.2519
  674SOL     OW 2693   2.468   3.094   1.297 -0.0158 -0.1578 -0.0912
  674SOL    HW1 2694   2.420   3.103   1.215 -3.1501 -1.5631 -0.6046
  674SOL    HW2 2695   2.521   3.016   1.294 -0.5041 -0.6715  0.8764
  674SOL     MW 2696   2.468   3.085   1.286 -0.4937 -0.4110 -0.0313
  675SOL     OW 2697   2.952   0.906   1.025 -0.7015 -0.1960 -0.2894
  675SOL    HW1 2698   3.017   0.895   1.100  0.3218 -2.1479  2.1293
  675SOL    HW2 2699   2.991   0.974   0.964  0.7238  0.9246 -1.3207
  675SOL     MW 2700   2.965   0.914   1.027 -0.3784 -0.3057 -0.1063
  676SOL     OW 2701   2.957   1.426   1.696 -0.1266 -0.2769  0.4711
  676SOL    HW1 2702   2.893   1.347   1.682  0.9534 -4.3124  1.7115
  676SOL    HW2 2703   3.001   1.401   1.776 -0.6445  0.4807  0.5376
  676SOL     MW 2704   2.954   1.412   1.705 -0.0525 -0.7094  0.6435
  677SOL     OW 2705   2.355   0.561   2.046 -0.0974 -0.8816 -0.2779
  677SOL    HW1 2706   2.346   0.493   1.974 -2.1820  2.6376  0.3943
  677SOL    HW2 2707   2.350   0.644   2.002 -0.6561  0.3654 -0.3050
  677SOL     MW 2708   2.354   0.563   2.031 -0.4462 -0.2528 -0.1928
  678SOL     OW 2709   2.465   1.663   0.329 -0.4067 -0.0892 -0.2210
  678SOL    HW1 2710   2.380   1.690   0.363  0.2468  2.5794  0.5740
  678SOL    HW2 2711   2.453   1.581   0.285  1.6568 -1.6350  0.1324
  678SOL     MW 2712   2.452   1.655   0.328 -0.0482  0.0589 -0.0695
  679SOL     OW 2713   2.215   0.475   1.292  0.7327  0.2502  0.2385
  679SOL    HW1 2714   2.241   0.386   1.268  1.0632  1.9758 -2.4843
  679SOL    HW2 2715   2.153   0.465   1.364 -1.5688  0.2679 -1.9618
  679SOL     MW 2716   2.210   0.462   1.299  0.4727  0.4802 -0.4111
  680SOL     OW 2717   2.323   0.172   1.494  0.0000 -0.3534 -0.1712
  680SOL    HW1 2718   2.227   0.173   1.476 -1.6884  2.6417 -1.5404
  680SOL    HW2 2719   2.349   0.097   1.448 -3.6215  1.3174  4.1857
  680SOL     MW 2720   2.314   0.162   1.485 -0.7006  0.2622  0.2230
  681SOL     OW 2721   0.254   0.579   1.576 -0.6984 -0.9754 -0.1221
  681SOL    HW1 2722   0.227   0.504   1.634  1.4530  0.9440 -1.5334
  681SOL    HW2 2723   0.286   0.539   1.498  1.0142 -0.1587  1.3219
  681SOL     MW 2724   0.255   0.564   1.573 -0.1886 -0.6144 -0.1178
  682SOL     OW 2725   0.161   2.813   1.526  0.5092  0.2756  0.3577
  682SOL    HW1 2726   0.217   2.882   1.561 -0.9368  0.9738  1.3159
  682SOL    HW2 2727   0.076   2.838   1.567 -1.5221  2.3056 -0.0599
  682SOL     MW 2728   0.157   2.826   1.536  0.0504  0.6355  0.4291
  683SOL     OW 2729   2.077   0.831   2.974  0.5478  0.3715  0.0812
  683SOL    HW1 2730   2.013   0.769   3.012  1.3582 -0.8703 -1.1820
  683SOL    HW2 2731   2.045   0.918   3.019 -2.4266  2.6081  1.4609
  683SOL     MW 2732   2.064   0.835   2.985  0.2623  0.5027  0.0966
  684SOL     OW 2733   2.204   1.693   0.685 -0.4848  0.0782  0.2107
  684SOL    HW1 2734   2.193   1.695   0.583 -0.0472 -1.2122 -0.1248
  684SOL    HW2 2735   2.162   1.611   0.718 -1.6536  1.5164  1.1141
  684SOL     MW 2736   2.197   1.682   0.676 -0.5813  0.0977  0.2856
  685SOL     OW 2737   2.702   1.672   1.212  0.4243 -0.0026 -0.5684
  685SOL    HW1 2738   2.744   1.689   1.297 -0.8948  0.2395 -2.6023
  685SOL    HW2 2739   2.710   1.579   1.214  0.2342 -0.6076  1.1042
  685SOL     MW 2740   2.709   1.662   1.223  0.2252 -0.0505 -0.6161
  686SOL     OW 2741   2.856   0.724   1.461 -0.1035  0.3632  0.4831
  686SOL    HW1 2742   2.840   0.652   1.530  2.1944  2.0587  2.0347
  686SOL    HW2 2743   2.945   0.736   1.486  0.3394  0.0847  0.3121
  686SOL     MW 2744   2.866   0.716   1.474  0.2581  0.5502  0.6653
  687SOL     OW 2745   2.142   0.169   1.228 -0.1256 -0.4004 -0.3318
  687SOL    HW1 2746   2.193   0.106   1.173 -1.5059 -0.3166 -0.3620
  687SOL    HW2 2747   2.105   0.230   1.157 -1.4169 -2.2039  0.0078
  687SOL     MW 2748   2.144   0.169   1.211 -0.4781 -0.6273 -0.2910
  688SOL     OW 2749   2.394   0.622   1.444 -0.1668  0.1072 -0.8338
  688SOL    HW1 2750   2.344   0.586   1.370  3.1778  2.0651 -0.5067
  688SOL    HW2 2751   2.331   0.670   1.497 -0.4593 -2.1520 -0.6662
  688SOL     MW 2752   2.379   0.624   1.441  0.2359  0.0675 -0.7685
  689SOL     OW 2753   2.435   0.723   2.920  0.2692 -0.0283  0.7923
  689SOL    HW1 2754   2.395   0.810   2.900  1.7834  2.1258  0.3184
  689SOL    HW2 2755   2.481   0.741   3.004  0.6936 -0.8980 -1.5951
  689SOL     MW 2756   2.436   0.737   2.928  0.5249  0.1411  0.4148
  690SOL     OW 2757   2.048   0.912   1.844  0.0282 -0.0763 -0.1842
  690SOL    HW1 2758   2.003   0.827   1.844  2.9157  0.5818  0.7329
  690SOL    HW2 2759   2.060   0.940   1.750  0.8894  0.1748 -1.4847
  690SOL     MW 2760   2.044   0.905   1.831  0.5228  0.0436 -0.2348
  691SOL     OW 2761   2.389   0.227   0.838  0.6812  0.1611  0.0517
  691SOL    HW1 2762   2.464   0.267   0.880  2.1973 -2.3542 -1.2012
  691SOL    HW2 2763   2.318   0.293   0.850 -0.0552 -0.7730  1.1011
  691SOL     MW 2764   2.389   0.241   0.845  0.7841 -0.2940  0.0249
  692SOL     OW 2765   2.924   1.614   1.504  0.1538 -0.5253 -0.5421
  692SOL    HW1 2766   2.947   1.567   1.583 -0.0173  1.0656 -1.5629
  692SOL    HW2 2767   2.931   1.712   1.524  2.0435  1.2813  0.4837
  692SOL     MW 2768   2.928   1.621   1.517  0.3806 -0.0770 -0.5414
  693SOL     OW 2769   2.252   0.405   0.080  0.2091  0.5215  0.4550
  693SOL    HW1 2770   2.177   0.349   0.098  0.1129 -0.6610 -2.5381
  693SOL    HW2 2771   2.220   0.494   0.067 -0.4721  0.2415  1.7338
  693SOL     MW 2772   2.238   0.410   0.081  0.1065  0.3286  0.2289
  694SOL     OW 2773   1.930   1.165   1.070 -0.5336 -0.5240 -0.1447
  694SOL    HW1 2774   2.013   1.147   1.125  2.2690  0.0680  0.2942
  694SOL    HW2 2775   1.871   1.097   1.102  0.5209  0.8504 -1.3799
  694SOL     MW 2776   1.933   1.153   1.081 -0.0247 -0.2645 -0.2498
  695SOL     OW 2777   2.990   1.435   1.311 -0.4272 -0.0621 -0.5579
  695SOL    HW1 2778   2.948   1.469   1.232 -0.6411  1.8757 -0.0685
  695SOL    HW2 2779   2.971   1.502   1.387  0.1885 -0.4429 -0.5391
  695SOL     MW 2780   2.982   1.448   1.311 -0.3742  0.1433 -0.4909
  696SOL     OW 2781   2.093   1.381   0.766  0.2228  0.7513 -0.0816
  696SOL    HW1 2782   2.141   1.403   0.842  0.4181  1.4552  0.6660
  696SOL    HW2 2783   2.045   1.301   0.793 -0.8592 -2.8024  1.0898
  696SOL     MW 2784   2.093   1.373   0.780  0.1058  0.3753  0.1716
  697SOL     OW 2785   2.877   1.018   2.215  0.3744 -0.2035  0.3100
  697SOL    HW1 2786   2.803   1.072   2.183  0.1485  4.8402  0.9597
  697SOL    HW2 2787   2.852   0.930   2.239 -0.2529  0.1732  0.2452
  697SOL     MW 2788   2.864   1.014   2.214  0.2618  0.5117  0.3871
  698SOL     OW 2789   2.535   0.329   0.025  0.2582  0.1331 -0.2289
  698SOL    HW1 2790   2.442   0.357   0.034  0.5953 -2.1422  0.1010
  698SOL    HW2 2791   2.561   0.300   0.108 -4.6373  0.3957 -1.7466
  698SOL     MW 2792   2.526   0.329   0.038 -0.3432 -0.1325 -0.3856
  699SOL     OW 2793   1.897   1.624   2.042  0.5871 -0.1322  0.1021
  699SOL    HW1 2794   1.843   1.545   2.026  3.4969  2.0413  0.2526
  699SOL    HW2 2795   1.996   1.599   2.046 -1.4482 -1.6562  1.0194
  699SOL     MW 2796   1.903   1.610   2.041  0.7025 -0.0465  0.2430
  700SOL     OW 2797   2.720   0.918   1.600 -0.3962 -0.0565 -0.0989
  700SOL    HW1 2798   2.739   0.998   1.559 -0.2647 -1.5692  3.1578
  700SOL    HW2 2799   2.767   0.848   1.550 -1.2338 -1.8618  0.1933
  700SOL     MW 2800   2.729   0.919   1.588 -0.4893 -0.4942  0.3693
  701SOL     OW 2801   1.697   1.177   2.482 -0.2590  0.3598 -0.1284
  701SOL    HW1 2802   1.788   1.157   2.508  1.4913 -0.2577  0.7492
  701SOL    HW2 2803   1.656   1.249   2.542  0.4188 -0.0985 -0.1526
  701SOL     MW 2804   1.704   1.184   2.493  0.0614  0.2178 -0.0158
  702SOL     OW 2805   2.145   0.401   0.832  0.0577  0.3633 -0.0430
  702SOL    HW1 2806   2.112   0.332   0.781  1.4108  1.2439  0.1599
  702SOL    HW2 2807   2.207   0.451   0.777  0.2902  1.9655  0.5743
  702SOL     MW 2808   2.149   0.399   0.818  0.2669  0.6909  0.0652
  703SOL     OW 2809   2.693   1.243   1.044  0.2654 -0.1780 -0.2021
  703SOL    HW1 2810   2.624   1.239   0.983 -1.2732  1.6102  0.9915
  703SOL    HW2 2811   2.706   1.150   1.076  1.6617 -2.6950 -0.8544
  703SOL     MW 2812   2.686   1.230   1.040  0.2466 -0.2742 -0.1307
  704SOL     OW 2813   3.078   1.230   0.139 -0.7238  0.5747 -0.7064
  704SOL    HW1 2814   2.988   1.235   0.109  0.1437 -0.5933  1.1764
  704SOL    HW2 2815   3.068   1.245   0.231 -0.4165 -0.3769  0.4852
  704SOL     MW 2816   3.065   1.232   0.147 -0.5688  0.2950 -0.3008
  705SOL     OW 2817   2.194   1.638   1.301 -0.2823 -0.4915  0.5208
  705SOL    HW1 2818   2.119   1.675   1.346 -0.6665 -0.5603  2.7564
  705SOL    HW2 2819   2.176   1.544   1.306  0.8425 -0.3620 -2.6011
  705SOL     MW 2820   2.181   1.631   1.308 -0.1845 -0.4835  0.4039
  706SOL     OW 2821   2.943   1.264   0.641 -0.4053  0.2849  0.2775
  706SOL    HW1 2822   2.988   1.249   0.563 -0.3218 -0.4569 -0.5265
  706SOL    HW2 2823   2.918   1.359   0.629 -0.4162 -0.4955 -1.9367
  706SOL     MW 2824   2.946   1.275   0.629 -0.3957  0.0841 -0.1207
  707SOL     OW 2825   2.319   0.043   1.023  0.2829  0.1390 -0.1537
  707SOL    HW1 2826   2.356   0.087   0.946  0.7173 -1.5655  2.2834
  707SOL    HW2 2827   2.263  -0.021   0.984  0.5605 -1.5506  1.3100
  707SOL     MW 2828   2.316   0.040   1.008  0.3768 -0.3088  0.3610
  708SOL     OW 2829   2.423   1.434   0.183  0.6096 -0.8189 -0.2398
  708SOL    HW1 2830   2.510   1.395   0.191  1.0685 -0.2604 -0.3740
  708SOL    HW2 2831   2.405   1.450   0.086 -1.8892  0.5354 -0.3250
  708SOL     MW 2832   2.432   1.431   0.171  0.3404 -0.5665 -0.2688
  709SOL     OW 2833   1.768   1.655   0.209  0.1248  0.3141  0.6224
  709SOL    HW1 2834   1.755   1.659   0.112  1.4282  1.7808 -0.3848
  709SOL    HW2 2835   1.677   1.641   0.234 -0.7354 -1.1817  0.7469
  709SOL     MW 2836   1.754   1.654   0.200  0.1833  0.3103  0.5059
  710SOL     OW 2837   2.173   1.115   1.199 -0.1942 -0.4744  0.6174
  710SOL    HW1 2838   2.235   1.115   1.119 -0.0978  1.9701 -0.2212
  710SOL    HW2 2839   2.199   1.037   1.248  3.0586 -1.4789  0.3621
  710SOL     MW 2840   2.184   1.105   1.195  0.2477 -0.2844  0.4731
  711SOL     OW 2841   2.331   0.091   1.765  0.2868 -0.2442 -0.2958
  711SOL    HW1 2842   2.428   0.109   1.793  2.0831  0.0727 -1.2990
  711SOL    HW2 2843   2.323   0.130   1.677  1.5376 -0.4060  1.3356
  711SOL     MW 2844   2.342   0.099   1.757  0.6888 -0.2237 -0.2129
  712SOL     OW 2845   1.929   0.630   3.088  0.4961 -0.2414 -0.1979
  712SOL    HW1 2846   1.847   0.665   3.044 -0.5200  0.6290 -1.1532
  712SOL    HW2 2847   1.932   0.671   3.172  0.5574 -0.4456 -0.5390
  712SOL     MW 2848   1.918   0.640   3.093  0.3701 -0.1535 -0.3689
  713SOL     OW 2849   2.541   0.743   1.085  0.8049  0.0288 -0.3380
  713SOL    HW1 2850   2.565   0.686   1.158  2.0682 -0.8410  1.1158
  713SOL    HW2 2851   2.454   0.770   1.113 -1.9980 -2.6335  0.6446
  713SOL     MW 2852   2.532   0.739   1.099  0.6017 -0.4372 -0.0166
  714SOL     OW 2853   2.195   0.146   1.993 -0.1818 -0.1356  0.2935
  714SOL    HW1 2854   2.265   0.118   2.059 -2.0911  0.5508  3.6558
  714SOL    HW2 2855   2.241   0.133   1.905 -0.0669 -2.2341 -0.3435
  714SOL     MW 2856   2.210   0.141   1.990 -0.4186 -0.3219  0.6531
  715SOL     OW 2857   1.839   2.022   1.743  0.0698  0.1889 -0.0657
  715SOL    HW1 2858   1.930   2.065   1.733  1.0150  0.1803  1.0322
  715SOL    HW2 2859   1.837   1.939   1.798 -1.2424 -0.2579  0.7812
  715SOL     MW 2860   1.851   2.017   1.749  0.0214  0.1288  0.1909
  716SOL     OW 2861   2.347   0.563   0.700  0.8657  0.2029  0.6309
  716SOL    HW1 2862   2.379   0.494   0.644 -2.3183 -0.0152 -1.0697
  716SOL    HW2 2863   2.286   0.604   0.641  0.1547  0.5838  0.3920
  716SOL     MW 2864   2.343   0.559   0.685  0.3518  0.2244  0.3750
  717SOL     OW 2865   2.834   1.626   2.882 -0.4856  1.0619  0.2728
  717SOL    HW1 2866   2.909   1.594   2.939 -2.8469 -1.2522  0.0908
  717SOL    HW2 2867   2.783   1.702   2.921 -2.8604  1.1993  0.0913
  717SOL     MW 2868   2.837   1.632   2.895 -1.1105  0.7747  0.2249
  718SOL     OW 2869   2.682   1.422   1.347  0.2777 -0.2643 -0.4569
  718SOL    HW1 2870   2.680   1.459   1.437  1.1483 -0.0795  0.3884
  718SOL    HW2 2871   2.725   1.338   1.351 -0.9248  0.7023 -0.2475
  718SOL     MW 2872   2.688   1.416   1.360  0.2339 -0.1124 -0.3178
  719SOL     OW 2873   2.178   1.263   0.545 -0.6200 -0.0820 -0.1046
  719SOL    HW1 2874   2.272   1.298   0.525  0.5452  1.8786 -0.9689
  719SOL    HW2 2875   2.167   1.297   0.635 -0.5909  0.8667  0.2879
  719SOL     MW 2876   2.189   1.272   0.554 -0.4624  0.3019 -0.1669
  720SOL     OW 2877   2.803   1.208   0.047 -0.2935 -0.2224 -0.0867
  720SOL    HW1 2878   2.780   1.119   0.071  1.0440 -1.2762 -0.3857
  720SOL    HW2 2879   2.750   1.257   0.113 -2.4468 -1.3312  0.5603
  720SOL     MW 2880   2.793   1.202   0.059 -0.4011 -0.5077 -0.0408
  721SOL     OW 2881   2.476   0.889   1.402  0.0899 -0.4464  0.3522
  721SOL    HW1 2882   2.478   0.800   1.436  0.2779  0.9978  1.4451
  721SOL    HW2 2883   2.539   0.933   1.462 -1.6819  2.3866 -1.2702
  721SOL     MW 2884   2.485   0.883   1.414 -0.1191  0.1180  0.2824
  722SOL     OW 2885   2.595   1.109   0.403  0.1876  0.1449  0.0715
  722SOL    HW1 2886   2.520   1.174   0.434 -1.5370  3.5379  2.5987
  722SOL    HW2 2887   2.638   1.081   0.486  0.7548 -0.6737  1.3947
  722SOL     MW 2888   2.591   1.114   0.418  0.0349  0.4846  0.5795
  723SOL     OW 2889   2.324   1.385   1.578  0.3601 -0.5053  0.3800
  723SOL    HW1 2890   2.306   1.398   1.483  1.0810 -0.9571 -1.4292
  723SOL    HW2 2891   2.238   1.415   1.618 -0.3033 -0.0983 -0.3309
  723SOL     MW 2892   2.310   1.391   1.571  0.3677 -0.5113  0.0475
  724SOL     OW 2893   2.454   0.362   0.563 -0.1907 -0.4512 -0.0804
  724SOL    HW1 2894   2.481   0.287   0.617  1.6606 -0.9664  0.6546
  724SOL    HW2 2895   2.530   0.424   0.554  1.0742 -0.3643 -2.0986
  724SOL     MW 2896   2.467   0.361   0.569  0.2205 -0.5077 -0.2497
  725SOL     OW 2897   2.582   0.463   1.203  0.0257 -0.8453  0.6648
  725SOL    HW1 2898   2.671   0.477   1.234  1.6811 -1.9663 -0.0287
  725SOL    HW2 2899   2.548   0.399   1.268 -2.2085 -1.5932  0.0837
  725SOL     MW 2900   2.589   0.456   1.215 -0.0507 -1.0919  0.4966
  726SOL     OW 2901   2.546   2.515   0.524 -0.8348  0.0811 -0.4801
  726SOL    HW1 2902   2.479   2.573   0.487 -0.5775 -1.6086  0.9189
  726SOL    HW2 2903   2.504   2.480   0.600 -0.8025 -2.6922 -2.1517
  726SOL     MW 2904   2.532   2.518   0.529 -0.7966 -0.5077 -0.5160
  727SOL     OW 2905   2.859   0.351   1.784  0.0612  0.1281 -0.2409
  727SOL    HW1 2906   2.821   0.292   1.717 -0.0265  1.6261  0.6325
  727SOL    HW2 2907   2.800   0.359   1.866  0.2032 -0.2028  1.1557
  727SOL     MW 2908   2.847   0.345   1.786  0.0684  0.2821  0.0586
  728SOL     OW 2909   2.822   1.134   2.878  0.5673  0.2696  0.2433
  728SOL    HW1 2910   2.817   1.209   2.815 -0.1674  0.5397  1.7703
  728SOL    HW2 2911   2.821   1.174   2.962  1.1464  0.7364 -1.9015
  728SOL     MW 2912   2.821   1.150   2.881  0.5468  0.3668  0.1618
  729SOL     OW 2913   2.439   1.449   1.186 -0.7462  0.3628 -0.7543
  729SOL    HW1 2914   2.524   1.445   1.232 -2.0207 -1.2620  1.4229
  729SOL    HW2 2915   2.461   1.427   1.096 -0.8449 -1.5054 -0.2528
  729SOL     MW 2916   2.453   1.446   1.180 -0.9274 -0.0981 -0.4009
  730SOL     OW 2917   2.289   1.180   0.274 -0.3482  0.2589  0.6731
  730SOL    HW1 2918   2.362   1.152   0.228  0.7522  1.0998 -0.8434
  730SOL    HW2 2919   2.257   1.257   0.232 -0.6136 -0.4505 -0.4819
  730SOL     MW 2920   2.294   1.187   0.262 -0.2380  0.2762  0.3206
  731SOL     OW 2921   2.804   2.060   2.915 -0.1053  0.1506 -0.2028
  731SOL    HW1 2922   2.758   2.033   2.837  1.2251  0.4797 -1.8693
  731SOL    HW2 2923   2.883   2.098   2.888 -1.2106  0.7661 -1.0837
  731SOL     MW 2924   2.809   2.061   2.901 -0.0756  0.2752 -0.5389
  732SOL     OW 2925   2.210   0.880   1.347 -0.3356  0.2467 -0.0528
  732SOL    HW1 2926   2.182   0.908   1.437  2.4838  1.3388 -0.9230
  732SOL    HW2 2927   2.313   0.885   1.362  0.2723  0.6502 -0.4746
  732SOL     MW 2928   2.220   0.884   1.361  0.1166  0.4440 -0.2233
  733SOL     OW 2929   2.393   2.825   2.996  0.2983 -0.1618 -0.6970
  733SOL    HW1 2930   2.312   2.878   3.005  1.0348  1.1902 -0.2799
  733SOL    HW2 2931   2.373   2.730   2.982 -0.2585  1.2316  1.5063
  733SOL     MW 2932   2.380   2.819   2.996  0.3220  0.2004 -0.3512
  734SOL     OW 2933   1.463   0.296   2.459  0.5646  0.2223  0.9438
  734SOL    HW1 2934   1.454   0.258   2.544  0.5137  1.4646  2.4334
  734SOL    HW2 2935   1.510   0.227   2.410 -0.3386  0.7275  0.5349
  734SOL     MW 2936   1.468   0.282   2.464  0.4387  0.4529  1.0864
  735SOL     OW 2937   2.913   0.881   2.618 -0.1916  0.1647  0.1990
  735SOL    HW1 2938   2.893   0.788   2.626  0.7695  0.3792 -1.4082
  735SOL    HW2 2939   2.965   0.913   2.692  1.8057  2.6774 -3.9513
  735SOL     MW 2940   2.917   0.873   2.629  0.1988  0.5245 -0.5607
  736SOL     OW 2941   0.084   0.629   2.550 -0.3224 -0.6741 -0.1051
  736SOL    HW1 2942   0.099   0.700   2.489 -0.9055 -1.5822 -0.1238
  736SOL    HW2 2943   0.089   0.557   2.490  0.0537  2.6796 -0.7961
  736SOL     MW 2944   0.087   0.629   2.534 -0.3497 -0.3514 -0.1987
  737SOL     OW 2945   2.937   0.599   2.639  0.1203  0.0769  0.3396
  737SOL    HW1 2946   2.878   0.579   2.568  0.3321 -1.3030 -0.7950
  737SOL    HW2 2947   3.027   0.598   2.600  1.9056  0.4857  3.7901
  737SOL     MW 2948   2.941   0.596   2.625  0.3838 -0.0512  0.6452
  738SOL     OW 2949   0.203   0.589   1.952  0.0438 -0.4972 -0.6174
  738SOL    HW1 2950   0.288   0.611   1.920  0.0344 -0.2083 -0.7448
  738SOL    HW2 2951   0.167   0.530   1.885 -0.3344  0.0271 -1.0966
  738SOL     MW 2952   0.210   0.584   1.939 -0.0073 -0.3899 -0.6974
  739SOL     OW 2953   2.489   0.990   2.061 -0.1465  0.3569  0.8627
  739SOL    HW1 2954   2.428   0.918   2.032 -3.8613  0.5041 -3.0806
  739SOL    HW2 2955   2.504   1.034   1.982 -1.1472  0.8126  2.2962
  739SOL     MW 2956   2.483   0.987   2.047 -0.7687  0.4364  0.5315
  740SOL     OW 2957   0.206   1.743   2.933 -0.3937  0.1437 -0.4204
  740SOL    HW1 2958   0.181   1.650   2.935 -0.9958 -2.8627 -2.4526
  740SOL    HW2 2959   0.300   1.747   2.956 -0.1590 -0.1582  0.2209
  740SOL     MW 2960   0.215   1.731   2.937 -0.4422 -0.2928 -0.6039
  741SOL     OW 2961   2.205   1.198   2.691 -0.3927  0.9546 -0.6014
  741SOL    HW1 2962   2.173   1.278   2.648  1.3359  2.4851  2.2090
  741SOL    HW2 2963   2.157   1.202   2.774 -2.5086  0.3787 -2.4819
  741SOL     MW 2964   2.195   1.209   2.696 -0.4438  1.0806 -0.4787
  742SOL     OW 2965   1.635   1.247   2.212  0.6569  0.0282  0.4905
  742SOL    HW1 2966   1.562   1.189   2.187  0.5345 -2.8441  0.6676
  742SOL    HW2 2967   1.668   1.226   2.301  1.1557 -0.7941  0.1069
  742SOL     MW 2968   1.630   1.237   2.220  0.7066 -0.4593  0.4633
  743SOL     OW 2969   2.445   1.313   2.723  0.1130 -0.8715  0.0131
  743SOL    HW1 2970   2.354   1.275   2.704 -2.9099 -0.8421  2.2307
  743SOL    HW2 2971   2.499   1.249   2.754 -1.7556  2.7866 -0.6741
  743SOL     MW 2972   2.440   1.299   2.725 -0.5324 -0.3850  0.2150
  744SOL     OW 2973   2.742   0.924   1.887 -0.1404  0.1309  0.0687
  744SOL    HW1 2974   2.696   1.012   1.885 -0.7317 -0.0984  0.7778
  744SOL    HW2 2975   2.718   0.880   1.803 -1.3736  1.6650 -1.0582
  744SOL     MW 2976   2.733   0.930   1.876 -0.3811  0.3031  0.0135
  745SOL     OW 2977   1.744   0.422   2.498  0.2647 -0.4171  0.1522
  745SOL    HW1 2978   1.720   0.470   2.416 -1.0658  1.0632  2.2780
  745SOL    HW2 2979   1.664   0.370   2.510 -0.4608  0.0179 -1.0582
  745SOL     MW 2980   1.730   0.422   2.489 -0.0066 -0.1644  0.2730
  746SOL     OW 2981   1.588   1.487   1.646  0.6112 -0.5624  0.6417
  746SOL    HW1 2982   1.667   1.531   1.666 -2.1878  1.1779 -0.3080
  746SOL    HW2 2983   1.571   1.439   1.729 -2.5343 -0.9557  0.6298
  746SOL     MW 2984   1.596   1.486   1.660 -0.1731 -0.3847  0.5148
  747SOL     OW 2985   2.557   1.145   1.795  0.3886 -0.5131 -0.3959
  747SOL    HW1 2986   2.460   1.136   1.781 -1.3086  1.4208 -4.3727
  747SOL    HW2 2987   2.561   1.228   1.849  0.6648  1.1482 -0.2300
  747SOL     MW 2988   2.544   1.155   1.801  0.2011 -0.0388 -0.8987
  748SOL     OW 2989   0.103   0.038   1.868  0.0152 -0.2301  0.5346
  748SOL    HW1 2990   0.197   0.050   1.849  1.5985 -0.2228  0.7470
  748SOL    HW2 2991   0.084   0.090   1.945  1.0865  1.9466  0.3605
  748SOL     MW 2992   0.113   0.046   1.876  0.3654  0.0581  0.5396
  749SOL     OW 2993   2.497   0.550   2.719 -0.1468  0.4331  0.1194
  749SOL    HW1 2994   2.533   0.623   2.667  1.3696 -0.1659 -0.5261
  749SOL    HW2 2995   2.472   0.587   2.809  1.2608  0.6631  1.4987
  749SOL     MW 2996   2.498   0.565   2.724  0.2390  0.3844  0.2162
  750SOL     OW 2997   2.037   3.021   1.985  0.2077  0.0993 -0.3819
  750SOL    HW1 2998   2.083   3.111   1.990  0.1140 -0.1726  1.3681
  750SOL    HW2 2999   2.111   2.957   1.989  1.9137 -1.4080 -0.6675
  750SOL     MW 3000   2.053   3.025   1.986  0.4204 -0.1355 -0.1887
  751SOL     OW 3001   0.073   0.419   2.345 -0.7437  0.4564  0.5003
  751SOL    HW1 3002   0.055   0.342   2.393  0.6268 -0.1595 -0.3755
  751SOL    HW2 3003   0.142   0.384   2.285  0.6667  0.8142  2.7215
  751SOL     MW 3004   0.080   0.404   2.344 -0.3768  0.4224  0.6778
  752SOL     OW 3005   2.139   0.770   2.709 -0.1944 -0.0344  0.3079
  752SOL    HW1 3006   2.200   0.838   2.686  0.6945 -0.9787  1.6544
  752SOL    HW2 3007   2.120   0.782   2.803  1.9938 -0.8853  0.7870
  752SOL     MW 3008   2.145   0.780   2.718  0.2116 -0.2713  0.5487
  753SOL     OW 3009   2.926   0.272   2.449 -0.3243  0.0451  0.2418
  753SOL    HW1 3010   2.875   0.217   2.400  1.5236  1.6908 -0.0535
  753SOL    HW2 3011   2.870   0.348   2.438  1.8074  0.4457 -0.6128
  753SOL     MW 3012   2.912   0.275   2.441  0.2008  0.3151  0.0901
  754SOL     OW 3013   2.255   2.954   2.591 -0.1218  0.2224 -0.3271
  754SOL    HW1 3014   2.268   2.948   2.499 -1.6395  4.1652  1.0771
  754SOL    HW2 3015   2.320   2.902   2.638  0.5233 -1.2289  3.1905
  754SOL     MW 3016   2.265   2.946   2.585 -0.2369  0.5511  0.3223
  755SOL     OW 3017   2.730   1.522   2.503  0.1183  0.5248 -0.0637
  755SOL    HW1 3018   2.741   1.436   2.543  1.8106  3.1084 -0.9002
  755SOL    HW2 3019   2.795   1.570   2.561 -0.8861 -0.5218  1.2504
  755SOL     MW 3020   2.740   1.517   2.516  0.2091  0.7276 -0.0007
  756SOL     OW 3021   2.221   1.219   3.012 -0.2990 -0.5156 -0.3253
  756SOL    HW1 3022   2.279   1.294   2.992  0.8905  0.2382  1.1942
  756SOL    HW2 3023   2.288   1.148   3.016  0.8393 -2.5387  2.3282
  756SOL     MW 3024   2.237   1.219   3.010  0.0081 -0.6831  0.2253
  757SOL     OW 3025   2.118   0.935   1.582  0.5417  0.2004 -0.5487
  757SOL    HW1 3026   2.133   0.842   1.607  0.9223  0.4835 -1.2866
  757SOL    HW2 3027   2.026   0.942   1.547  0.8048  0.2421 -1.1896
  757SOL     MW 3028   2.108   0.924   1.581  0.6266  0.2432 -0.7307
  758SOL     OW 3029   2.211   1.715   2.659  0.2786  0.3006  0.0657
  758SOL    HW1 3030   2.186   1.760   2.581  0.8208  0.5174 -1.0048
  758SOL    HW2 3031   2.303   1.736   2.648 -1.9592  1.5190 -0.9941
  758SOL     MW 3032   2.220   1.724   2.647  0.0548  0.4900 -0.2154
  759SOL     OW 3033   1.625   1.369   2.652 -0.2045 -0.5720  0.3952
  759SOL    HW1 3034   1.617   1.459   2.626  2.6117 -0.6890 -1.2877
  759SOL    HW2 3035   1.684   1.374   2.728 -0.1240  0.0070  0.7625
  759SOL     MW 3036   1.632   1.382   2.659  0.1777 -0.5110  0.2216
  760SOL     OW 3037   2.621   1.989   2.716 -0.0059 -0.4124  0.1405
  760SOL    HW1 3038   2.588   1.904   2.691 -1.0309 -1.4495  1.4527
  760SOL    HW2 3039   2.605   2.048   2.638  1.0301  3.0019 -0.7297
  760SOL     MW 3040   2.615   1.986   2.702 -0.0045 -0.0988  0.1988
  761SOL     OW 3041   2.191   0.378   2.445 -0.2265 -0.7528  0.0834
  761SOL    HW1 3042   2.120   0.318   2.465 -0.3512 -0.7836 -1.3761
  761SOL    HW2 3043   2.229   0.414   2.523  0.3535 -3.3808  0.3108
  761SOL     MW 3044   2.187   0.375   2.458 -0.1664 -1.1036 -0.0792
  762SOL     OW 3045   0.033   0.177   2.097  0.5494 -0.0052  0.0460
  762SOL    HW1 3046   0.006   0.127   2.170  1.7007 -1.8608  0.8494
  762SOL    HW2 3047  -0.011   0.259   2.113 -0.3970  2.3599 -2.1285
  762SOL     MW 3048   0.024   0.181   2.109  0.5764  0.0620 -0.1349
  763SOL     OW 3049   2.372   1.060   2.298 -0.0244 -0.3621 -0.3980
  763SOL    HW1 3050   2.428   1.012   2.232  2.0327 -3.8615  0.9658
  763SOL    HW2 3051   2.444   1.121   2.335  0.7165 -1.9198  0.8244
  763SOL     MW 3052   2.389   1.061   2.294  0.3447 -1.0293 -0.0568
  764SOL     OW 3053   0.443   0.284   2.781 -0.1738 -0.3555 -0.1097
  764SOL    HW1 3054   0.375   0.225   2.787  2.3598 -1.5431 -0.5874
  764SOL    HW2 3055   0.423   0.359   2.840  0.4684 -1.4071 -0.6472
  764SOL     MW 3056   0.432   0.286   2.790  0.2452 -0.6509 -0.2437
  765SOL     OW 3057   2.765   0.066   2.317 -0.0848 -0.5496  0.2136
  765SOL    HW1 3058   2.720   0.050   2.230  0.4913 -1.6305  0.2730
  765SOL    HW2 3059   2.800  -0.020   2.334 -2.5281  0.4887 -1.5609
  765SOL     MW 3060   2.764   0.053   2.308 -0.3311 -0.5552 -0.0127
  766SOL     OW 3061   1.815   2.977   2.174  0.4031  0.1667 -0.1225
  766SOL    HW1 3062   1.867   3.005   2.100  0.6477  0.8980  1.3118
  766SOL    HW2 3063   1.778   2.886   2.145  0.6415 -2.4068 -1.0370
  766SOL     MW 3064   1.817   2.969   2.160  0.4669 -0.0763 -0.0539
  767SOL     OW 3065   2.648   0.622   1.899  0.0524 -0.4794 -0.0558
  767SOL    HW1 3066   2.680   0.677   1.968  0.2395 -0.3131 -1.2673
  767SOL    HW2 3067   2.553   0.618   1.902 -0.0933 -0.0762  3.0854
  767SOL     MW 3068   2.640   0.629   1.908  0.0578 -0.4042  0.1988
  768SOL     OW 3069  -0.000   1.552   2.952  0.1951  0.3322 -0.0851
  768SOL    HW1 3070   0.017   1.540   3.050 -0.6491 -2.9571  3.2297
  768SOL    HW2 3071   0.021   1.470   2.903 -0.0830  1.1278  2.2738
  768SOL     MW 3072   0.005   1.540   2.958  0.0470  0.0032  0.6635
  769SOL     OW 3073   2.436   0.657   2.329  0.4838 -0.3175 -0.2462
  769SOL    HW1 3074   2.350   0.647   2.294  3.8840 -1.5380  1.4779
  769SOL    HW2 3075   2.473   0.578   2.294 -0.1203  1.9831  0.6595
  769SOL     MW 3076   2.430   0.645   2.320  0.8527 -0.1750  0.1008
  770SOL     OW 3077   0.109   1.599   2.604 -0.0250 -0.1519  0.2419
  770SOL    HW1 3078   0.017   1.625   2.632  0.1606 -0.5015  0.4376
  770SOL    HW2 3079   0.137   1.521   2.651 -0.3999  1.7606  0.0287
  770SOL     MW 3080   0.101   1.592   2.614 -0.0500  0.0543  0.2396
  771SOL     OW 3081   3.011   0.635   1.959  1.0260  0.4055  0.6611
  771SOL    HW1 3082   2.967   0.642   1.871  1.8994 -0.0781  2.0752
  771SOL    HW2 3083   3.097   0.679   1.960  0.5649 -1.1035  0.2365
  771SOL     MW 3084   3.016   0.642   1.947  1.0804  0.1426  0.7917
  772SOL     OW 3085   3.085   3.101   2.318 -0.2185  0.2309  0.7292
  772SOL    HW1 3086   3.010   3.043   2.334 -2.0843  1.5597 -1.6284
  772SOL    HW2 3087   3.165   3.052   2.296 -2.1196 -0.2326  1.5741
  772SOL     MW 3088   3.086   3.087   2.317 -0.7155  0.3451  0.5296
  773SOL     OW 3089   2.468   2.846   2.741  0.1146 -0.0757  0.5423
  773SOL    HW1 3090   2.482   2.761   2.697  0.3057  1.4894  0.3100
  773SOL    HW2 3091   2.436   2.823   2.829  0.0344 -2.6295 -0.1439
  773SOL     MW 3092   2.466   2.832   2.747  0.1292 -0.2062  0.4211
  774SOL     OW 3093   2.309   1.120   1.711  0.6336  0.0288  0.3221
  774SOL    HW1 3094   2.309   1.177   1.632  0.6986  0.6202 -0.8179
  774SOL    HW2 3095   2.273   1.033   1.678  0.4919  2.2426 -0.7335
  774SOL     MW 3096   2.304   1.116   1.696  0.6235  0.3989  0.0324
  775SOL     OW 3097   2.273   2.911   2.324 -0.2339 -0.2601 -0.1366
  775SOL    HW1 3098   2.299   2.982   2.263  1.0538 -1.8720 -3.2753
  775SOL    HW2 3099   2.340   2.841   2.304  0.8634 -1.2082 -2.8746
  775SOL     MW 3100   2.286   2.911   2.313  0.0808 -0.5979 -0.9119
  776SOL     OW 3101   0.095   1.486   0.088  0.6604 -0.3364 -0.2677
  776SOL    HW1 3102   0.179   1.455   0.099 -2.1431  1.8056  0.9233
  776SOL    HW2 3103   0.044   1.420   0.133  0.3819 -0.6262  2.4020
  776SOL     MW 3104   0.099   1.473   0.095  0.2537 -0.0920  0.2417
  777SOL     OW 3105   2.959   1.077   1.773 -0.0014  0.3281  0.0721
  777SOL    HW1 3106   2.897   1.147   1.782 -0.1728 -0.6534 -1.9083
  777SOL    HW2 3107   2.918   1.008   1.815 -0.3172  1.1077  1.2140
  777SOL     MW 3108   2.946   1.077   1.780 -0.0657  0.3015 -0.0385
  778SOL     OW 3109   2.905   0.399   2.825 -0.2016 -0.0331  0.5731
  778SOL    HW1 3110   2.847   0.434   2.890  0.7964  2.1956  0.4040
  778SOL    HW2 3111   2.931   0.474   2.766  0.5732 -0.9659  2.4646
  778SOL     MW 3112   2.901   0.414   2.825  0.0323  0.1379  0.8003
  779SOL     OW 3113   2.139   0.612   2.338  0.1803  0.0718  0.0793
  779SOL    HW1 3114   2.078   0.656   2.408  3.0722 -0.3772  0.3988
  779SOL    HW2 3115   2.159   0.524   2.360 -1.2950 -0.1734  0.1615
  779SOL     MW 3116   2.134   0.606   2.350  0.3672 -0.0198  0.1323
  780SOL     OW 3117   0.232   0.087   2.791  0.0358 -0.2268 -0.5955
  780SOL    HW1 3118   0.172   0.149   2.837 -2.1155 -0.3686 -1.8402
  780SOL    HW2 3119   0.183   0.054   2.717  1.4617  1.9163 -0.1879
  780SOL     MW 3120   0.217   0.091   2.787 -0.0599  0.0373 -0.7060
  781SOL     OW 3121   3.015   1.299   2.490  0.6650 -0.3044 -0.1942
  781SOL    HW1 3122   3.006   1.345   2.409 -0.1389  0.6778 -0.1877
  781SOL    HW2 3123   3.053   1.218   2.463  1.6567 -0.4600  0.1314
  781SOL     MW 3124   3.019   1.294   2.476  0.6898 -0.1954 -0.1504
  782SOL     OW 3125   0.592   1.511   3.061 -0.5575 -0.0604 -0.0711
  782SOL    HW1 3126   0.546   1.590   3.028  0.7853  3.7621 -2.6435
  782SOL    HW2 3127   0.568   1.498   3.153 -0.8704  0.3368 -3.2883
  782SOL     MW 3128   0.583   1.520   3.069 -0.4217  0.4963 -0.8350
  783SOL     OW 3129   2.737   0.505   2.459  0.8872 -0.3149 -0.0882
  783SOL    HW1 3130   2.686   0.474   2.381  0.1556  1.9902 -1.0989
  783SOL    HW2 3131   2.698   0.449   2.528 -0.5246  1.4637 -0.4150
  783SOL     MW 3132   2.725   0.493   2.458  0.6044  0.2239 -0.2647
  784SOL     OW 3133   0.290   0.923   2.886  0.4612  0.3421  0.1767
  784SOL    HW1 3134   0.257   1.001   2.932  1.2362 -1.6215 -2.3496
  784SOL    HW2 3135   0.325   0.961   2.801  0.7541  3.3368 -3.1389
  784SOL     MW 3136   0.290   0.938   2.881  0.6021  0.4781 -0.5941
  785SOL     OW 3137   0.440   0.554   2.176  0.0459 -0.2955  0.3111
  785SOL    HW1 3138   0.436   0.590   2.082 -0.6585  0.1219  0.2106
  785SOL    HW2 3139   0.349   0.517   2.183 -1.8499  2.4935 -1.9953
  785SOL     MW 3140   0.427   0.554   2.164 -0.2972  0.1275 -0.0065
  786SOL     OW 3141   1.976   0.468   2.827  0.5245  0.0692 -0.0800
  786SOL    HW1 3142   1.965   0.516   2.914  0.5540 -2.0735 -0.2653
  786SOL    HW2 3143   2.060   0.432   2.815  3.2888 -0.8763 -2.3225
  786SOL     MW 3144   1.986   0.470   2.837  0.8931 -0.3383 -0.4003
  787SOL     OW 3145   2.433   0.148   2.950  0.2823 -0.0466 -0.5032
  787SOL    HW1 3146   2.503   0.101   2.898 -1.6204 -2.8310 -3.0317
  787SOL    HW2 3147   2.475   0.218   3.000 -1.7369  1.5620 -1.8386
  787SOL     MW 3148   2.448   0.151   2.950 -0.2351 -0.2017 -1.0130
  788SOL     OW 3149   2.857   2.919   2.379  0.3462 -0.3767 -0.3195
  788SOL    HW1 3150   2.805   2.867   2.312 -0.8595 -2.6680 -0.7481
  788SOL    HW2 3151   2.919   2.854   2.400 -0.8946 -0.1603  1.3190
  788SOL     MW 3152   2.858   2.903   2.373  0.0234 -0.6505 -0.1599
  789SOL     OW 3153   0.120   0.270   2.945 -0.2386 -0.1125  0.2586
  789SOL    HW1 3154   0.056   0.242   3.007 -1.1649  1.8116 -2.0121
  789SOL    HW2 3155   0.126   0.369   2.939 -0.5418  0.7831 -0.1394
  789SOL     MW 3156   0.112   0.280   2.953 -0.4008  0.2596 -0.0935
  790SOL     OW 3157   3.065   1.024   2.415 -0.0230  0.4924 -0.2466
  790SOL    HW1 3158   3.007   0.987   2.486 -2.5844 -0.3117 -0.9385
  790SOL    HW2 3159   3.000   1.040   2.345  1.0841 -2.7081  2.6819
  790SOL     MW 3160   3.048   1.021   2.415 -0.2149 -0.0360  0.0485
  791SOL     OW 3161   2.688   0.334   2.665 -0.7651  0.6263  0.4071
  791SOL    HW1 3162   2.617   0.386   2.710 -1.5583  1.5161  1.5658
  791SOL    HW2 3163   2.763   0.358   2.721 -0.4192  1.3566  1.2266
  791SOL     MW 3164   2.689   0.344   2.678 -0.8241  0.8401  0.6681
  792SOL     OW 3165   2.397   0.228   2.341  0.1359  0.3666 -0.2190
  792SOL    HW1 3166   2.316   0.261   2.377 -0.2012  0.2583 -2.4492
  792SOL    HW2 3167   2.444   0.182   2.408 -0.1654 -1.4798  3.0284
  792SOL     MW 3168   2.392   0.226   2.355  0.0516  0.1087 -0.0848
  793SOL     OW 3169   1.839   1.063   1.945 -0.5173 -0.0852 -0.1401
  793SOL    HW1 3170   1.847   1.069   1.848  0.7542 -1.4131 -2.6229
  793SOL    HW2 3171   1.913   1.005   1.961 -3.6606  1.8085 -0.1365
  793SOL     MW 3172   1.850   1.056   1.934 -0.7642 -0.0105 -0.4672
  794SOL     OW 3173   1.454   2.255   0.173  0.1422 -0.5681 -0.3610
  794SOL    HW1 3174   1.481   2.324   0.107 -0.0731 -0.8091 -0.5856
  794SOL    HW2 3175   1.500   2.289   0.253  2.2772  2.3130 -2.1752
  794SOL     MW 3176   1.464   2.269   0.175  0.3955 -0.2198 -0.6300
  795SOL     OW 3177   2.322   0.952   2.597 -0.5346 -0.4941  0.4390
  795SOL    HW1 3178   2.283   1.024   2.643  2.0818 -0.2684  1.1360
  795SOL    HW2 3179   2.323   0.996   2.516  1.4889  1.1255  0.2881
  795SOL     MW 3180   2.317   0.967   2.592  0.0776 -0.2506  0.5110
  796SOL     OW 3181   0.249   0.649   2.766  0.2591 -0.1044 -0.1437
  796SOL    HW1 3182   0.258   0.741   2.785  0.3645 -0.3893  1.8875
  796SOL    HW2 3183   0.191   0.630   2.690  0.2699 -1.4106 -0.1693
  796SOL     MW 3184   0.243   0.659   2.758  0.2744 -0.3143  0.1209
  797SOL     OW 3185   2.595   0.118   2.536  0.2779  0.1735 -0.4062
  797SOL    HW1 3186   2.627   0.194   2.581  3.3745  1.7715  1.8108
  797SOL    HW2 3187   2.664   0.109   2.467  0.1926 -1.3864  0.1196
  797SOL     MW 3188   2.609   0.127   2.533  0.6752  0.1785 -0.0443
  798SOL     OW 3189   2.366   0.028   2.180 -0.0901 -0.1813  0.1538
  798SOL    HW1 3190   2.354   0.112   2.232  0.6444 -1.4707  2.4989
  798SOL    HW2 3191   2.459   0.022   2.147  3.2884  0.9548  2.6721
  798SOL     MW 3192   2.376   0.038   2.182  0.4526 -0.2015  0.7955
  799SOL     OW 3193   2.453   2.937   0.167 -0.1758  0.2951  0.1965
  799SOL    HW1 3194   2.430   2.872   0.103  0.8453  0.8986  1.1587
  799SOL    HW2 3195   2.392   3.004   0.141  1.4100 -0.4947 -1.5525
  799SOL     MW 3196   2.442   2.937   0.155  0.1681  0.2705  0.0927
  800SOL     OW 3197   1.834   3.080   1.785  0.0333 -0.1155  0.1684
  800SOL    HW1 3198   1.788   2.997   1.787  0.0993 -0.1379  2.4869
  800SOL    HW2 3199   1.921   3.057   1.826  0.7574 -0.1492 -2.1143
  800SOL     MW 3200   1.839   3.066   1.791  0.1375 -0.1229  0.1731
  801SOL     OW 3201   2.791   1.284   2.647  0.1575 -0.9987 -0.1895
  801SOL    HW1 3202   2.755   1.203   2.602 -1.2692  2.9634 -0.9767
  801SOL    HW2 3203   2.884   1.288   2.613 -2.2782  0.6176  1.0649
  801SOL     MW 3204   2.798   1.274   2.636 -0.3521 -0.2627 -0.1279
  802SOL     OW 3205   2.556   1.548   2.809  0.0128 -0.0958  0.0767
  802SOL    HW1 3206   2.513   1.477   2.757 -0.6105  0.0269 -3.0726
  802SOL    HW2 3207   2.653   1.524   2.834  2.1233 -1.6793 -1.0675
  802SOL     MW 3208   2.563   1.536   2.806  0.2091 -0.2885 -0.4898
  803SOL     OW 3209   2.320   1.324   1.969  0.2863 -0.9271  0.0211
  803SOL    HW1 3210   2.288   1.273   2.039  0.3494  0.0576  1.7310
  803SOL    HW2 3211   2.286   1.294   1.883 -1.3720  0.1717  0.3284
  803SOL     MW 3212   2.312   1.313   1.967  0.0758 -0.6522  0.2872
  804SOL     OW 3213   2.304   0.041   0.080  0.1753  0.2569 -0.0608
  804SOL    HW1 3214   2.228   0.103   0.072  0.3745  0.0752 -0.3983
  804SOL    HW2 3215   2.364   0.088   0.019  1.5311 -0.9763  2.1677
  804SOL     MW 3216   2.302   0.056   0.071  0.3805  0.0702  0.1887
  805SOL     OW 3217   2.704   1.039   2.531 -0.4639  0.5287  0.2645
  805SOL    HW1 3218   2.648   0.962   2.519 -0.5257  0.4264  5.0452
  805SOL    HW2 3219   2.783   0.988   2.556  1.4608 -0.2391 -2.5607
  805SOL     MW 3220   2.707   1.022   2.533 -0.2181  0.4139  0.5225
  806SOL     OW 3221   2.572   0.407   2.241 -0.2375  0.0900  0.0068
  806SOL    HW1 3222   2.502   0.341   2.275  1.1981 -0.6694 -0.0716
  806SOL    HW2 3223   2.601   0.374   2.154 -1.9201  3.0158 -2.7125
  806SOL     MW 3224   2.566   0.394   2.234 -0.2701  0.3759 -0.3624
  807SOL     OW 3225   3.085   1.111   2.082  0.1338 -0.2603  1.0057
  807SOL    HW1 3226   3.146   1.041   2.065 -2.1961  2.3658  0.6943
  807SOL    HW2 3227   3.007   1.067   2.137 -2.3707  0.4436 -1.5432
  807SOL     MW 3228   3.082   1.096   2.087 -0.5041  0.1791  0.6283
  808SOL     OW 3229   2.581   3.099   2.784 -0.3817 -0.5001  0.5773
  808SOL    HW1 3230   2.565   3.007   2.773  2.2017  0.3220 -0.9837
  808SOL    HW2 3231   2.586   3.134   2.698  1.7326 -0.7432 -0.7398
  808SOL     MW 3232   2.579   3.092   2.771  0.2381 -0.4237  0.1976
  809SOL     OW 3233   2.546   1.234   2.389 -0.4058 -0.5704  0.6869
  809SOL    HW1 3234   2.608   1.184   2.434 -1.4220  2.7478 -1.1486
  809SOL    HW2 3235   2.582   1.257   2.303  0.3312 -1.0886 -0.3386
  809SOL     MW 3236   2.559   1.231   2.384 -0.4427 -0.2010  0.3094
  810SOL     OW 3237   2.208   1.254   2.218 -0.3704 -0.4508 -0.5027
  810SOL    HW1 3238   2.251   1.174   2.250 -2.1921  0.0231  0.5600
  810SOL    HW2 3239   2.111   1.232   2.220  1.2915  1.6371  0.9548
  810SOL     MW 3240   2.201   1.241   2.223 -0.3915 -0.1128 -0.1702
  811SOL     OW 3241   1.518   0.093   2.302 -0.4867 -0.1577  0.2297
  811SOL    HW1 3242   1.586   0.035   2.279  2.7034  0.0888 -2.5801
  811SOL    HW2 3243   1.498   0.132   2.215  2.0384 -1.3351 -3.7372
  811SOL     MW 3244   1.524   0.091   2.287  0.2673 -0.2805 -0.6644
  812SOL     OW 3245   1.449   2.773   2.043 -0.0728  0.1053  0.1172
  812SOL    HW1 3246   1.540   2.757   2.015  1.4469  0.6284  2.0523
  812SOL    HW2 3247   1.463   2.775   2.140  1.1202  1.8870 -0.1342
  812SOL     MW 3248   1.463   2.771   2.052  0.2851  0.4094  0.3393
  813SOL     OW 3249   1.799   0.709   2.204 -0.2494  0.0834  0.7850
  813SOL    HW1 3250   1.760   0.621   2.217  2.7447  0.6537  1.1252
  813SOL    HW2 3251   1.847   0.717   2.287  0.4257 -2.9964 -1.6968
  813SOL     MW 3252   1.800   0.698   2.217  0.2347 -0.2477  0.5024
  814SOL     OW 3253   2.757   1.247   1.633 -0.5700  0.3499 -0.2046
  814SOL    HW1 3254   2.663   1.244   1.661 -2.5750  0.8794 -1.4557
  814SOL    HW2 3255   2.760   1.196   1.553  2.1752 -1.2707 -0.1658
  814SOL     MW 3256   2.745   1.240   1.626 -0.4723  0.2060 -0.3645
  815SOL     OW 3257   2.506   1.664   2.393 -0.2225  0.0143 -0.0133
  815SOL    HW1 3258   2.463   1.584   2.366  0.1907  2.3574  1.4366
  815SOL    HW2 3259   2.599   1.641   2.388  2.3730  0.7875 -0.3875
  815SOL     MW 3260   2.513   1.650   2.389  0.1744  0.4254  0.1286
  816SOL     OW 3261   0.756   0.645   2.758 -0.1981  0.2795 -0.3851
  816SOL    HW1 3262   0.750   0.602   2.843  2.8207  2.2389 -1.2587
  816SOL    HW2 3263   0.669   0.642   2.720 -0.2752  0.8051 -2.3464
  816SOL     MW 3264   0.744   0.639   2.764  0.1900  0.6073 -0.7592
  817SOL     OW 3265   3.054   1.168   1.372  0.1521 -0.2243 -0.0547
  817SOL    HW1 3266   3.117   1.177   1.446 -2.0451 -0.6726  1.6607
  817SOL    HW2 3267   3.033   1.255   1.334 -2.3298 -1.6931 -0.0929
  817SOL     MW 3268   3.059   1.180   1.377 -0.4653 -0.4773  0.1666
  818SOL     OW 3269   1.908   1.018   2.736 -0.1739  0.4538 -0.7215
  818SOL    HW1 3270   1.940   1.056   2.655 -0.3996  3.9521  1.1939
  818SOL    HW2 3271   1.984   0.977   2.782  0.6380 -0.7590 -0.7615
  818SOL     MW 3272   1.922   1.018   2.731 -0.0966  0.7553 -0.4740
  819SOL     OW 3273   1.961   0.238   2.481  0.5643  0.0066 -0.2749
  819SOL    HW1 3274   1.904   0.313   2.486  3.3662 -1.7443  1.3229
  819SOL    HW2 3275   1.977   0.215   2.574 -0.5532  1.6258 -0.7704
  819SOL     MW 3276   1.955   0.245   2.494  0.7865 -0.0108 -0.1294
  820SOL     OW 3277   2.479   1.746   2.651  0.0079 -0.2906 -0.2887
  820SOL    HW1 3278   2.515   1.672   2.702  1.2912  0.4200  3.0772
  820SOL    HW2 3279   2.487   1.716   2.564 -0.8439  2.3343  1.4635
  820SOL     MW 3280   2.485   1.732   2.646  0.0648  0.1495  0.3866
  821SOL     OW 3281   2.594   1.348   1.975  0.1469  0.0316 -0.2781
  821SOL    HW1 3282   2.644   1.432   1.970  1.4937 -0.3944  1.4922
  821SOL    HW2 3283   2.499   1.367   1.978  1.3123 -1.1378  0.0161
  821SOL     MW 3284   2.588   1.362   1.975  0.4783 -0.1789 -0.0057
  822SOL     OW 3285   2.837   2.684   1.467  0.0844 -0.0285 -0.3717
  822SOL    HW1 3286   2.922   2.711   1.505 -1.3584 -0.3391  0.0614
  822SOL    HW2 3287   2.792   2.759   1.433  1.7195 -0.8061  0.9269
  822SOL     MW 3288   2.842   2.698   1.467  0.1098 -0.1721 -0.1432
  823SOL     OW 3289   2.258   0.452   1.788  0.3156 -0.0586  0.9830
  823SOL    HW1 3290   2.338   0.420   1.740  0.3027  2.3106 -2.4135
  823SOL    HW2 3291   2.183   0.409   1.736  1.6226 -0.9233 -0.5601
  823SOL     MW 3292   2.259   0.442   1.775  0.4863  0.1399  0.3313
  824SOL     OW 3293   2.085   1.402   2.494  0.3525  0.0716  0.1947
  824SOL    HW1 3294   2.171   1.432   2.484  1.7639 -1.3182  1.3075
  824SOL    HW2 3295   2.035   1.440   2.565 -1.8901  0.7458 -0.4659
  824SOL     MW 3296   2.090   1.411   2.502  0.2429 -0.0228  0.2544
  825SOL     OW 3297   2.074   2.549   0.354  0.2309 -0.2323  0.6113
  825SOL    HW1 3298   2.024   2.495   0.416  0.3697  1.8264 -0.8093
  825SOL    HW2 3299   2.101   2.495   0.284  4.0072  0.8925 -0.2162
  825SOL     MW 3300   2.071   2.535   0.353  0.7475  0.1878  0.3147
  826SOL     OW 3301   1.879   2.381   0.478 -0.9537  0.4820 -0.2410
  826SOL    HW1 3302   1.878   2.308   0.540  2.3556 -0.2528 -0.3539
  826SOL    HW2 3303   1.900   2.455   0.540 -2.2530 -0.9301 -2.8792
  826SOL     MW 3304   1.881   2.381   0.494 -0.6885  0.1987 -0.6040
  827SOL     OW 3305   1.954   2.174   0.839 -0.0926 -0.5564  0.3589
  827SOL    HW1 3306   1.899   2.167   0.756  2.3368  1.6114 -1.8725
  827SOL    HW2 3307   1.902   2.110   0.891  0.3118  0.8082 -1.3407
  827SOL     MW 3308   1.940   2.164   0.835  0.2813 -0.0903 -0.1598
  828SOL     OW 3309   0.047   2.621   0.504  0.0668 -0.1143 -0.0090
  828SOL    HW1 3310   0.142   2.621   0.511 -2.3045  0.4266 -0.0971
  828SOL    HW2 3311   0.023   2.690   0.438  1.5234  1.7557  0.9452
  828SOL     MW 3312   0.057   2.630   0.496 -0.0539  0.2038  0.1053
  829SOL     OW 3313   3.005   2.934   1.209 -0.2282 -0.3182  0.0553
  829SOL    HW1 3314   2.931   2.913   1.157  1.1458 -0.9588 -1.0634
  829SOL    HW2 3315   3.065   2.856   1.200  1.8668 -2.1361 -1.5831
  829SOL     MW 3316   3.003   2.921   1.201  0.2295 -0.6426 -0.3085
  830SOL     OW 3317   2.514   2.852   2.033 -0.0682 -0.1269 -0.4873
  830SOL    HW1 3318   2.411   2.861   2.024 -1.8988 -0.9221  2.3200
  830SOL    HW2 3319   2.548   2.833   1.946 -2.3223  0.8272  0.7996
  830SOL     MW 3320   2.505   2.850   2.020 -0.6071 -0.1059  0.0529
  831SOL     OW 3321   2.414   2.447   1.237  0.2101  0.0914  0.1165
  831SOL    HW1 3322   2.370   2.380   1.292  0.6527 -1.2824 -5.0020
  831SOL    HW2 3323   2.504   2.410   1.228  1.3477 -2.0266 -0.8763
  831SOL     MW 3324   2.420   2.433   1.243  0.4185 -0.3693 -0.6899
  832SOL     OW 3325   2.379   2.125   1.807  0.1492 -0.1084 -0.7699
  832SOL    HW1 3326   2.400   2.217   1.829  1.3572  1.3081 -0.2956
  832SOL    HW2 3327   2.466   2.094   1.799 -0.5192 -0.4528 -1.0238
  832SOL     MW 3328   2.393   2.133   1.809  0.2204  0.0331 -0.7408
  833SOL     OW 3329   1.781   2.497   0.925  0.0139  0.4951 -0.0162
  833SOL    HW1 3330   1.684   2.456   0.922 -3.0381  5.0605  0.9731
  833SOL    HW2 3331   1.775   2.577   0.975 -5.1231 -2.6818  1.9763
  833SOL     MW 3332   1.768   2.502   0.931 -1.0666  0.6783  0.3772
  834SOL     OW 3333   2.244   2.414   0.569  0.3577 -0.8360  0.4345
  834SOL    HW1 3334   2.206   2.330   0.601 -3.2965 -0.6605 -0.8096
  834SOL    HW2 3335   2.276   2.404   0.473  1.3626 -1.7634  1.1628
  834SOL     MW 3336   2.243   2.402   0.560  0.0082 -0.9352  0.3664
  835SOL     OW 3337   1.845   2.589   0.674 -0.3422 -0.3205 -0.1787
  835SOL    HW1 3338   1.829   2.546   0.763 -2.1248  0.0672 -0.1806
  835SOL    HW2 3339   1.904   2.664   0.697 -4.4272  1.0162  0.8277
  835SOL     MW 3340   1.851   2.593   0.689 -1.1163 -0.0930 -0.0462
  836SOL     OW 3341   2.035   2.201   1.627  0.5691  0.3843 -0.6155
  836SOL    HW1 3342   2.117   2.155   1.605  0.8912  1.4499 -0.7379
  836SOL    HW2 3343   2.063   2.276   1.681  1.8179 -2.5336  4.2021
  836SOL     MW 3344   2.049   2.205   1.631  0.7764  0.1399  0.0040
  837SOL     OW 3345   2.039   0.158   0.715  0.2098 -0.0779 -0.4358
  837SOL    HW1 3346   1.953   0.173   0.665  0.6926 -0.2768 -1.4975
  837SOL    HW2 3347   2.095   0.143   0.640 -0.2453  0.3108  2.3982
  837SOL     MW 3348   2.035   0.158   0.698  0.2135 -0.0528 -0.2020
  838SOL     OW 3349   2.863   2.055   0.943 -0.0283 -0.0196  0.5722
  838SOL    HW1 3350   2.817   1.972   0.933  2.3411  0.3764  1.3307
  838SOL    HW2 3351   2.937   2.037   1.001  0.1862  1.4974 -1.4844
  838SOL     MW 3352   2.866   2.042   0.950  0.3127  0.2328  0.4009
  839SOL     OW 3353   1.529   2.399   0.949  0.3393  0.2187  0.1316
  839SOL    HW1 3354   1.475   2.462   0.996 -2.7217 -1.9418 -0.0642
  839SOL    HW2 3355   1.559   2.333   1.013  2.1854  0.6475 -0.2928
  839SOL     MW 3356   1.526   2.399   0.963  0.1790 -0.0098  0.0498
  840SOL     OW 3357   2.254   2.082   2.423  0.1319  0.5736  0.5037
  840SOL    HW1 3358   2.210   2.159   2.374 -1.3054  3.9017 -3.8644
  840SOL    HW2 3359   2.340   2.118   2.445  0.4101  1.4370  0.6597
  840SOL     MW 3360   2.260   2.097   2.419 -0.0210  1.1267 -0.0521
  841SOL     OW 3361   2.258   2.435   0.051  0.7330  0.0390  0.0797
  841SOL    HW1 3362   2.269   2.494  -0.020  1.0985 -0.3172  4.2839
  841SOL    HW2 3363   2.199   2.366   0.020  0.0770  1.9878 -1.9751
  841SOL     MW 3364   2.251   2.433   0.038  0.6947  0.2491  0.3633
  842SOL     OW 3365   2.666   2.013   1.484  0.0498  0.2612 -0.5662
  842SOL    HW1 3366   2.615   1.934   1.486  1.2147 -2.6613 -1.3602
  842SOL    HW2 3367   2.646   2.054   1.399 -1.0562 -4.2343  1.7575
  842SOL     MW 3368   2.656   2.008   1.473  0.0576 -0.7176 -0.3644
  843SOL     OW 3369   2.626   2.795   1.787 -0.1877 -0.2987  0.1346
  843SOL    HW1 3370   2.716   2.769   1.804  0.0203  1.4289  1.5720
  843SOL    HW2 3371   2.587   2.721   1.743  0.2386 -1.7617 -1.3505
  843SOL     MW 3372   2.632   2.782   1.784 -0.1040 -0.2638  0.1283
  844SOL     OW 3373   2.661   2.348   1.191  1.0046  0.0390 -0.6062
  844SOL    HW1 3374   2.691   2.374   1.104  1.3721 -0.9010 -0.2167
  844SOL    HW2 3375   2.730   2.392   1.247 -0.3545 -2.0380  0.0667
  844SOL     MW 3376   2.674   2.357   1.187  0.8738 -0.3591 -0.4660
  845SOL     OW 3377   2.857   2.573   0.356  0.4136  0.5342  0.0053
  845SOL    HW1 3378   2.817   2.491   0.345  1.1602  1.7535 -0.5284
  845SOL    HW2 3379   2.844   2.604   0.444 -1.5561  1.2136 -0.4281
  845SOL     MW 3380   2.850   2.566   0.366  0.2522  0.7847 -0.1223
  846SOL     OW 3381   1.499   2.799   0.830  0.4185 -0.1765 -0.2172
  846SOL    HW1 3382   1.580   2.853   0.817  1.2058  2.5983  0.0220
  846SOL    HW2 3383   1.431   2.854   0.866  0.2466  2.0786 -0.3187
  846SOL     MW 3384   1.501   2.813   0.833  0.4997  0.4871 -0.1991
  847SOL     OW 3385   2.465   1.908   0.184  0.0139  0.1316  0.3001
  847SOL    HW1 3386   2.462   1.828   0.244 -0.2928  0.1350 -0.3346
  847SOL    HW2 3387   2.420   1.865   0.110 -2.2081 -0.3322 -0.1746
  847SOL     MW 3388   2.459   1.892   0.182 -0.3197  0.0709  0.1537
  848SOL     OW 3389   2.562   2.097   1.207 -0.6649  0.2538 -1.1674
  848SOL    HW1 3390   2.609   2.180   1.203  1.2983 -0.1452 -2.5991
  848SOL    HW2 3391   2.545   2.070   1.118  0.5101 -0.8135 -0.3705
  848SOL     MW 3392   2.566   2.104   1.195 -0.2509  0.0604 -1.2511
  849SOL     OW 3393   2.058   2.803   0.797 -0.4356  0.5112  0.4392
  849SOL    HW1 3394   2.047   2.733   0.860  1.4418  0.6564 -1.4053
  849SOL    HW2 3395   2.138   2.778   0.744 -0.0324 -0.8449 -1.1213
  849SOL     MW 3396   2.067   2.791   0.798 -0.1347  0.3515 -0.0101
  850SOL     OW 3397   2.259   1.797   1.637  0.1855 -0.1243 -0.2734
  850SOL    HW1 3398   2.190   1.748   1.596  0.8195  0.7852 -4.9601
  850SOL    HW2 3399   2.242   1.892   1.609 -1.9273  0.1041  0.4825
  850SOL     MW 3400   2.248   1.803   1.628 -0.0096  0.0258 -0.7920
  851SOL     OW 3401   2.389   2.350   0.294 -0.6380  0.0946 -0.2895
  851SOL    HW1 3402   2.373   2.405   0.218 -0.4609 -0.3166 -0.9553
  851SOL    HW2 3403   2.481   2.367   0.322  1.2240 -0.6530 -0.1798
  851SOL     MW 3404   2.399   2.360   0.287 -0.3689 -0.0583 -0.3629
  852SOL     OW 3405   2.336   2.094   0.339  0.5764 -0.7810 -0.3010
  852SOL    HW1 3406   2.352   2.189   0.335 -0.7929  0.4635 -0.2280
  852SOL    HW2 3407   2.390   2.043   0.276 -0.2887 -1.3905 -1.4827
  852SOL     MW 3408   2.345   2.100   0.330  0.2816 -0.6972 -0.4472
  853SOL     OW 3409   2.459   2.397   1.886  0.0685 -0.9949 -0.1968
  853SOL    HW1 3410   2.459   2.465   1.817 -0.5243 -0.7743  2.3183
  853SOL    HW2 3411   2.551   2.372   1.908 -0.3880  1.8854  0.5404
  853SOL     MW 3412   2.471   2.403   1.880 -0.0699 -0.5857  0.2323
  854SOL     OW 3413   2.851   2.249   0.736 -0.2001 -0.5678 -0.4767
  854SOL    HW1 3414   2.764   2.216   0.698 -0.7932 -0.3986  2.2785
  854SOL    HW2 3415   2.872   2.183   0.806 -0.7217 -0.2114 -0.8883
  854SOL     MW 3416   2.842   2.236   0.740 -0.3472 -0.4985 -0.1675
  855SOL     OW 3417   2.690   2.357   0.342  0.5428 -0.1649  0.3407
  855SOL    HW1 3418   2.638   2.410   0.408 -0.7407  1.0963  1.3043
  855SOL    HW2 3419   2.718   2.276   0.386  0.8509  0.2586 -0.4222
  855SOL     MW 3420   2.687   2.353   0.356  0.4141  0.0574  0.3672
  856SOL     OW 3421   2.149   1.917   0.244 -0.0272 -0.4449 -0.0684
  856SOL    HW1 3422   2.056   1.940   0.256  1.4542  1.9274  1.7259
  856SOL    HW2 3423   2.188   2.000   0.266 -1.5797 -1.5639  1.9797
  856SOL     MW 3424   2.142   1.931   0.249 -0.0366 -0.2795  0.4386
  857SOL     OW 3425   2.470   1.966   0.533 -0.1209 -0.2235 -0.4074
  857SOL    HW1 3426   2.413   2.020   0.471 -1.8503  0.3318  0.4096
  857SOL    HW2 3427   2.404   1.916   0.592 -1.8235 -1.0858 -0.6936
  857SOL     MW 3428   2.454   1.966   0.533 -0.5737 -0.2640 -0.3373
  858SOL     OW 3429   2.901   2.683   1.782  0.4475 -0.5090  0.2045
  858SOL    HW1 3430   2.996   2.701   1.759  0.1837  0.4178 -1.0537
  858SOL    HW2 3431   2.893   2.588   1.785  1.9109 -1.0097  1.3953
  858SOL     MW 3432   2.912   2.673   1.780  0.6058 -0.4528  0.1956
  859SOL     OW 3433   2.082   2.637   1.043 -0.7266  0.6216  0.9829
  859SOL    HW1 3434   2.117   2.553   1.016 -3.2178 -1.6633  0.8614
  859SOL    HW2 3435   2.154   2.705   1.050 -0.9576  1.8095  1.6348
  859SOL     MW 3436   2.096   2.635   1.041 -1.0858  0.4768  1.0529
  860SOL     OW 3437   2.686   2.639   0.127 -0.4813  0.2542  0.0285
  860SOL    HW1 3438   2.737   2.616   0.214  1.7436  1.9769  2.9268
  860SOL    HW2 3439   2.715   2.731   0.095 -0.6520 -0.2207 -1.7104
  860SOL     MW 3440   2.696   2.648   0.134 -0.2103  0.4189  0.1815
  861SOL     OW 3441   1.630   2.172   1.103  0.0417 -0.0341  0.3921
  861SOL    HW1 3442   1.674   2.231   1.162  0.7226 -1.4230 -0.0322
  861SOL    HW2 3443   1.562   2.127   1.156 -1.4716  0.3852  0.8891
  861SOL     MW 3444   1.627   2.174   1.118 -0.0681 -0.1620  0.4017
  862SOL     OW 3445   2.512   1.769   1.489 -0.1455  0.0950 -0.5225
  862SOL    HW1 3446   2.433   1.780   1.538 -0.1891  0.2176  2.1414
  862SOL    HW2 3447   2.487   1.770   1.397  1.3544  0.5192 -0.5411
  862SOL     MW 3448   2.498   1.770   1.483  0.0467  0.1672 -0.1735
  863SOL     OW 3449   2.978   1.777   1.037  0.2607  0.0016 -0.3053
  863SOL    HW1 3450   3.055   1.742   1.079 -1.2702  0.7896 -0.5192
  863SOL    HW2 3451   2.971   1.856   1.094  1.3852 -0.0079  0.2806
  863SOL     MW 3452   2.987   1.783   1.050  0.2071  0.1043 -0.2562
  864SOL     OW 3453   0.063   1.830   0.834 -0.1090  0.1224 -0.3334
  864SOL    HW1 3454  -0.009   1.812   0.892  4.0541 -1.0158  0.8064
  864SOL    HW2 3455   0.017   1.815   0.751 -1.6188 -0.8801  4.2348
  864SOL     MW 3456   0.047   1.826   0.830  0.2411 -0.1600  0.4197
  865SOL     OW 3457   2.563   2.155   0.029  0.9645 -0.0346 -0.0707
  865SOL    HW1 3458   2.569   2.070   0.067  2.6703 -0.4929  1.3351
  865SOL    HW2 3459   2.546   2.131  -0.064 -1.6331  1.2191 -1.9855
  865SOL     MW 3460   2.562   2.141   0.022  0.8468  0.0704 -0.1378
  866SOL     OW 3461   2.664   2.337   1.594 -0.4655 -0.4298 -0.1699
  866SOL    HW1 3462   2.649   2.244   1.597  0.3300  0.2781  1.4835
  866SOL    HW2 3463   2.732   2.353   1.523 -0.1046 -1.9156  0.8400
  866SOL     MW 3464   2.671   2.327   1.585 -0.3130 -0.5324  0.1815
  867SOL     OW 3465   0.086   2.688   1.768 -0.2540 -0.3125 -0.3811
  867SOL    HW1 3466   0.137   2.757   1.817 -1.6144  1.2087 -2.1012
  867SOL    HW2 3467   0.096   2.720   1.676  0.0679  0.3456 -1.6661
  867SOL     MW 3468   0.094   2.701   1.763 -0.3910 -0.0249 -0.7776
  868SOL     OW 3469   2.755   2.696   0.588  0.7313  0.0987 -0.1597
  868SOL    HW1 3470   2.681   2.631   0.577 -3.0995 -0.3097  0.9587
  868SOL    HW2 3471   2.727   2.771   0.536 -1.1720 -1.0981  3.1744
  868SOL     MW 3472   2.742   2.697   0.579 -0.0253 -0.1131  0.4277
  869SOL     OW 3473   2.082   2.356   1.037  0.1633  0.6009  0.1915
  869SOL    HW1 3474   2.179   2.353   1.032  1.4297  0.6561 -0.0128
  869SOL    HW2 3475   2.039   2.296   0.971  0.4327  3.2145 -2.4165
  869SOL     MW 3476   2.089   2.348   1.028  0.3660  0.9530 -0.1796
  870SOL     OW 3477   2.162   0.061   0.476  0.2541  0.3612 -0.0127
  870SOL    HW1 3478   2.223   0.110   0.414  3.1519  1.4847  0.3150
  870SOL    HW2 3479   2.192  -0.028   0.486 -2.1502  1.5709  1.8697
  870SOL     MW 3480   2.174   0.056   0.469  0.3192  0.6690  0.2789
  871SOL     OW 3481   2.454   2.077   0.926 -0.0220 -0.1598  0.1806
  871SOL    HW1 3482   2.431   2.028   0.844 -1.7719  0.4618 -2.1699
  871SOL    HW2 3483   2.422   2.168   0.915 -1.6439 -2.0890 -0.0506
  871SOL     MW 3484   2.447   2.083   0.914 -0.4669 -0.3323 -0.1600
  872SOL     OW 3485   2.057   2.515   1.502 -0.1621  0.4968  0.2417
  872SOL    HW1 3486   1.986   2.560   1.547  1.5996  0.2841 -1.9079
  872SOL    HW2 3487   2.014   2.473   1.422  0.0168  0.4457  0.8456
  872SOL     MW 3488   2.042   2.516   1.497  0.0940  0.4620  0.0378
  873SOL     OW 3489   2.849   2.098   1.965 -0.4813  0.6932 -0.5370
  873SOL    HW1 3490   2.863   2.140   2.049  0.2405 -0.1240 -3.1198
  873SOL    HW2 3491   2.923   2.116   1.908  0.1967  0.2012 -0.4519
  873SOL     MW 3492   2.861   2.106   1.969 -0.2966  0.5204 -0.8666
  874SOL     OW 3493   2.338   1.428   2.401 -0.0833 -0.1439 -0.6468
  874SOL    HW1 3494   2.276   1.387   2.339 -1.1991  2.5824 -0.6804
  874SOL    HW2 3495   2.412   1.370   2.413  0.1646 -2.7391 -0.7380
  874SOL     MW 3496   2.340   1.415   2.394 -0.1978 -0.1266 -0.6633
  875SOL     OW 3497   2.358   2.343   0.974  0.3822 -0.0962 -0.4570
  875SOL    HW1 3498   2.411   2.394   0.914  0.9456  1.7982  1.0920
  875SOL    HW2 3499   2.390   2.373   1.058  0.5222  0.7898  0.5232
  875SOL     MW 3500   2.369   2.353   0.977  0.4750  0.2707 -0.1233
  876SOL     OW 3501   3.078   2.269   1.360  0.4247 -0.3516 -0.4210
  876SOL    HW1 3502   3.095   2.301   1.274 -5.3463  0.1785 -0.7774
  876SOL    HW2 3503   3.160   2.292   1.403 -0.5834  0.3707  0.1987
  876SOL     MW 3504   3.091   2.276   1.354 -0.4698 -0.1863 -0.3862
  877SOL     OW 3505   0.000   2.799   0.313  0.4902  0.1174  0.4896
  877SOL    HW1 3506   0.064   2.859   0.284 -1.0753  0.8891  0.0562
  877SOL    HW2 3507   0.003   2.725   0.255  1.3587  2.0562 -0.4067
  877SOL     MW 3508   0.009   2.797   0.302  0.3983  0.4751  0.3141
  878SOL     OW 3509   2.429   1.767   1.222  0.2950 -0.3278 -0.1411
  878SOL    HW1 3510   2.365   1.697   1.242 -2.4730  1.9440  0.7871
  878SOL    HW2 3511   2.520   1.728   1.217  0.1004  0.9227  0.2823
  878SOL     MW 3512   2.432   1.753   1.224 -0.0959  0.1369  0.0372
  879SOL     OW 3513   2.770   2.428   0.955 -0.5082  0.3902 -0.1580
  879SOL    HW1 3514   2.843   2.490   0.950  1.3896  0.9413  1.4420
  879SOL    HW2 3515   2.779   2.368   0.879  0.5147 -2.2597 -2.5044
  879SOL     MW 3516   2.781   2.428   0.944 -0.1229  0.1133 -0.2564
  880SOL     OW 3517   2.595   2.178   0.670  0.1486  0.8065 -0.0650
  880SOL    HW1 3518   2.559   2.158   0.753  0.4168  0.9497 -0.4340
  880SOL    HW2 3519   2.578   2.106   0.612 -1.4654 -2.2726 -3.6017
  880SOL     MW 3520   2.588   2.166   0.673 -0.0289  0.4192 -0.5803
  881SOL     OW 3521   2.996   2.731   0.691  0.2405  0.3687 -0.0242
  881SOL    HW1 3522   2.907   2.721   0.654 -0.1446  1.7984  3.1756
  881SOL    HW2 3523   3.067   2.692   0.627 -0.2332 -1.9458 -2.5798
  881SOL     MW 3524   2.994   2.725   0.678  0.1272  0.2519  0.0608
  882SOL     OW 3525   2.255   2.847   1.958  0.2459 -0.4254 -0.0146
  882SOL    HW1 3526   2.260   2.871   1.860  0.2048  1.0667  0.6989
  882SOL    HW2 3527   2.208   2.757   1.951  1.0076 -0.5398 -1.7225
  882SOL     MW 3528   2.250   2.838   1.944  0.3409 -0.2436 -0.1458
  883SOL     OW 3529   2.349   2.201   1.356  0.2306 -0.1428 -0.4317
  883SOL    HW1 3530   2.410   2.150   1.298 -2.8182  0.9767  2.7680
  883SOL    HW2 3531   2.262   2.192   1.315  0.0655  1.2346  3.8300
  883SOL     MW 3532   2.346   2.193   1.343 -0.1934  0.1867  0.5527
  884SOL     OW 3533   1.963   1.805   1.066  0.1351 -0.1890 -0.4663
  884SOL    HW1 3534   1.905   1.879   1.047 -0.4782  1.4203 -0.5904
  884SOL    HW2 3535   2.051   1.841   1.065 -0.8922 -1.5458  1.5431
  884SOL     MW 3536   1.967   1.820   1.063 -0.0814 -0.1556 -0.2176
  885SOL     OW 3537   2.840   2.398   1.790 -0.3851 -0.2168 -0.3282
  885SOL    HW1 3538   2.912   2.328   1.778  0.1826 -0.8695  0.3859
  885SOL    HW2 3539   2.784   2.376   1.715  2.9910 -0.8104  0.8739
  885SOL     MW 3540   2.842   2.386   1.778  0.1352 -0.3812 -0.0753
  886SOL     OW 3541   2.828   2.417   1.392  0.3063  0.7254  0.2205
  886SOL    HW1 3542   2.906   2.378   1.412 -1.7699  0.9754 -1.4963
  886SOL    HW2 3543   2.835   2.509   1.416  3.1514  2.3584 -2.7012
  886SOL     MW 3544   2.839   2.424   1.398  0.4078  0.9739 -0.3915
  887SOL     OW 3545   2.277   2.674   1.539  0.5111  0.3065 -0.0981
  887SOL    HW1 3546   2.329   2.668   1.455  2.8910 -2.2119 -0.2122
  887SOL    HW2 3547   2.196   2.623   1.533  0.2137 -1.2054  3.5025
  887SOL     MW 3548   2.273   2.667   1.527  0.7859 -0.2253  0.3619
  888SOL     OW 3549   1.885   2.159   1.402  0.4967  0.4531 -0.0823
  888SOL    HW1 3550   1.961   2.181   1.345  0.8958  1.7920 -0.0375
  888SOL    HW2 3551   1.917   2.195   1.490  1.2430  1.7893 -1.1286
  888SOL     MW 3552   1.900   2.167   1.406  0.6478  0.8061 -0.2144
  889SOL     OW 3553   2.350   2.003   2.066 -0.0329 -0.4189 -0.1218
  889SOL    HW1 3554   2.430   1.957   2.083 -0.9490 -2.4119 -2.2005
  889SOL    HW2 3555   2.371   2.061   1.993 -1.0735 -0.9031 -1.7256
  889SOL     MW 3556   2.364   2.005   2.059 -0.2911 -0.7457 -0.6077
  890SOL     OW 3557   0.109   2.388   0.150  0.5612  0.1587  0.0600
  890SOL    HW1 3558   0.063   2.474   0.138  1.7476 -1.4667 -0.4287
  890SOL    HW2 3559   0.054   2.345   0.224 -0.7263  0.9884 -1.3383
  890SOL     MW 3560   0.095   2.393   0.159  0.5479  0.0537 -0.1890
  891SOL     OW 3561   3.049   1.974   1.243 -0.7785 -0.0996 -0.5564
  891SOL    HW1 3562   3.139   1.926   1.234  0.5370  1.0521  2.3420
  891SOL    HW2 3563   3.061   2.056   1.294  1.2429 -0.5978 -0.2006
  891SOL     MW 3564   3.062   1.978   1.248 -0.3382 -0.0134 -0.1270
  892SOL     OW 3565   2.460   2.383   2.752 -0.2007 -0.4222 -0.0779
  892SOL    HW1 3566   2.421   2.319   2.813  1.7076  2.5081 -0.2920
  892SOL    HW2 3567   2.553   2.382   2.769  1.3563 -0.5772  1.3329
  892SOL     MW 3568   2.467   2.375   2.762  0.2565 -0.0560  0.0800
  893SOL     OW 3569   1.635   2.435   1.237  0.4617 -0.2372  0.8616
  893SOL    HW1 3570   1.557   2.424   1.294 -0.8164 -0.5913  1.7890
  893SOL    HW2 3571   1.692   2.498   1.278  1.1725 -0.0880  0.8133
  893SOL     MW 3572   1.632   2.442   1.250  0.3869 -0.2642  0.9776
  894SOL     OW 3573   2.721   1.876   0.472  0.5069 -0.7206  0.1216
  894SOL    HW1 3574   2.632   1.900   0.494 -2.6390  1.2394 -0.2606
  894SOL    HW2 3575   2.722   1.845   0.385 -1.5456 -0.5615  1.9091
  894SOL     MW 3576   2.710   1.875   0.463 -0.1790 -0.4410  0.3070
  895SOL     OW 3577   2.124   2.169   1.216 -0.0507  0.8922  0.1551
  895SOL    HW1 3578   2.092   2.232   1.151  1.0939 -1.0606 -1.8015
  895SOL    HW2 3579   2.148   2.078   1.183  0.5307  0.1615  1.0914
  895SOL     MW 3580   2.123   2.165   1.203  0.1770  0.5382  0.0205
  896SOL     OW 3581   2.260   2.830   1.100 -1.3771  0.5279 -0.1822
  896SOL    HW1 3582   2.308   2.822   1.184 -0.9613  0.2048 -0.1208
  896SOL    HW2 3583   2.196   2.903   1.111  3.2007 -0.7304  2.1070
  896SOL     MW 3584   2.258   2.839   1.113 -0.7183  0.3192  0.1279
  897SOL     OW 3585   3.074   3.028   3.049 -0.0611 -0.3992 -0.0797
  897SOL    HW1 3586   3.133   2.946   3.031  0.4983  1.4961  2.0428
  897SOL    HW2 3587   3.008   3.012   2.976 -0.5994  1.4310 -1.6993
  897SOL     MW 3588   3.073   3.015   3.037 -0.0583  0.0923 -0.0133
  898SOL     OW 3589   2.048   0.181   1.481 -0.5099 -0.2072 -0.5970
  898SOL    HW1 3590   2.036   0.087   1.512 -0.8411  0.3172  0.0757
  898SOL    HW2 3591   2.054   0.178   1.387  2.4568  0.0754 -0.4270
  898SOL     MW 3592   2.048   0.168   1.473 -0.1622 -0.1007 -0.4858
  899SOL     OW 3593   2.972   2.982   0.614 -0.1896 -0.2402  0.0285
  899SOL    HW1 3594   2.990   2.887   0.650 -0.7536 -0.4956 -0.1807
  899SOL    HW2 3595   2.878   3.000   0.630 -0.4144  1.1640 -1.4598
  899SOL     MW 3596   2.962   2.972   0.621 -0.2937 -0.0886 -0.1955
  900SOL     OW 3597   0.025   2.410   1.103  0.2127  0.2538 -0.3959
  900SOL    HW1 3598   0.001   2.502   1.118  0.4038  2.3866 -0.4729
  900SOL    HW2 3599   0.039   2.390   1.007  1.6017 -0.7263 -0.2084
  900SOL     MW 3600   0.023   2.419   1.092  0.4212  0.4059 -0.3813
  901SOL     OW 3601   1.752   2.792   1.801 -0.1573 -0.5666  0.0561
  901SOL    HW1 3602   1.823   2.759   1.751  1.2227  0.7756 -2.5324
  901SOL    HW2 3603   1.677   2.799   1.738 -1.7974 -1.8940  0.8614
  901SOL     MW 3604   1.751   2.789   1.786 -0.1916 -0.5647 -0.1792
  902SOL     OW 3605   2.657   2.081   1.760 -0.0400  0.2936 -0.3201
  902SOL    HW1 3606   2.691   2.062   1.668 -0.6980  1.4841 -4.7118
  902SOL    HW2 3607   2.724   2.101   1.826 -0.4586  0.0587 -0.5601
  902SOL     MW 3608   2.670   2.081   1.756 -0.1821  0.4197 -0.9312
  903SOL     OW 3609   1.555   2.630   0.633  0.6077 -0.2262  0.4772
  903SOL    HW1 3610   1.645   2.602   0.643  2.1082  1.3031 -1.6861
  903SOL    HW2 3611   1.519   2.697   0.695 -1.1188  0.0024  1.2118
  903SOL     MW 3612   1.562   2.635   0.643  0.5779  0.0057  0.2887
  904SOL     OW 3613   2.480   2.569   1.681 -0.6740  0.0672 -0.0249
  904SOL    HW1 3614   2.399   2.592   1.629 -1.0621  2.8694 -1.4880
  904SOL    HW2 3615   2.546   2.526   1.626 -1.8328 -0.3452  2.7126
  904SOL     MW 3616   2.478   2.566   1.667 -0.8781  0.3825  0.1432
  905SOL     OW 3617   2.328   2.493   2.112 -0.1173 -0.0545 -0.5514
  905SOL    HW1 3618   2.365   2.463   2.035  2.5846 -2.2087  0.1605
  905SOL    HW2 3619   2.272   2.420   2.147  0.3890  0.3808  2.0625
  905SOL     MW 3620   2.325   2.479   2.107  0.3060 -0.2813 -0.1126
  906SOL     OW 3621   2.533   2.469   0.810  0.0445 -0.0676  0.4326
  906SOL    HW1 3622   2.623   2.456   0.842 -0.4026  2.9258  0.6852
  906SOL    HW2 3623   2.513   2.562   0.826  3.4780 -2.4842  1.4684
  906SOL     MW 3624   2.542   2.480   0.817  0.4385  0.0085  0.6026
  907SOL     OW 3625   2.662   2.882   1.302 -0.0925  0.1081 -0.3347
  907SOL    HW1 3626   2.723   2.935   1.363 -0.6025  1.6470  1.1765
  907SOL    HW2 3627   2.711   2.854   1.218  1.7364  2.4942 -0.1220
  907SOL     MW 3628   2.676   2.885   1.299  0.0815  0.6260 -0.1072
  908SOL     OW 3629   2.736   2.393   0.010 -0.5607  0.3556 -0.0694
  908SOL    HW1 3630   2.680   2.321   0.043 -1.7954 -0.1162  1.6255
  908SOL    HW2 3631   2.705   2.465   0.068  1.3869  0.8169  0.8156
  908SOL     MW 3632   2.725   2.393   0.022 -0.4666  0.3542  0.2710
  909SOL     OW 3633   1.781   0.092   1.169 -0.1769  0.1988 -0.0965
  909SOL    HW1 3634   1.765   0.146   1.094 -0.4514 -0.0936  0.4690
  909SOL    HW2 3635   1.726   0.121   1.246 -1.7812  1.1879  1.2226
  909SOL     MW 3636   1.772   0.103   1.169 -0.4248  0.2907  0.1522
  910SOL     OW 3637   2.210   1.699   0.416  0.6052  0.3049 -0.4977
  910SOL    HW1 3638   2.156   1.613   0.419 -0.2677  1.2397  0.6239
  910SOL    HW2 3639   2.168   1.758   0.351  1.3081  0.0950  0.2152
  910SOL     MW 3640   2.197   1.695   0.408  0.5828  0.4005 -0.2556
  911SOL     OW 3641   2.260   2.060   1.567  0.2494 -0.4045 -0.1040
  911SOL    HW1 3642   2.303   2.091   1.645  1.3717  0.2987  1.1783
  911SOL    HW2 3643   2.302   2.104   1.491 -1.2541 -0.8105  2.5844
  911SOL     MW 3644   2.271   2.070   1.567  0.1991 -0.3653  0.4199
  912SOL     OW 3645   2.921   1.901   1.481  0.1300  0.1731  0.2736
  912SOL    HW1 3646   2.955   1.936   1.391 -2.9857  0.8620  0.9470
  912SOL    HW2 3647   2.831   1.940   1.496  1.1733 -0.8634  1.6620
  912SOL     MW 3648   2.914   1.910   1.471 -0.1434  0.1272  0.5456
  913SOL     OW 3649   2.600   3.087   0.360  0.3962  0.4530  0.2853
  913SOL    HW1 3650   2.672   3.023   0.362  1.3785 -1.3799 -0.4366
  913SOL    HW2 3651   2.529   3.035   0.318 -1.9583 -1.0689 -1.8384
  913SOL     MW 3652   2.600   3.072   0.355  0.2151  0.0104 -0.0902
  914SOL     OW 3653   2.689   1.825   3.017 -0.2153  0.3001  0.1444
  914SOL    HW1 3654   2.739   1.900   2.991 -0.3704 -0.3238 -0.6511
  914SOL    HW2 3655   2.597   1.855   3.012  1.6081  0.1377  0.5314
  914SOL     MW 3656   2.684   1.839   3.013  0.0048  0.1964  0.0905
  915SOL     OW 3657   1.745   0.194   0.234  0.5897 -0.1511 -0.0340
  915SOL    HW1 3658   1.824   0.132   0.241 -0.8685  2.2519  0.4412
  915SOL    HW2 3659   1.669   0.132   0.225  0.3112 -2.2947  0.9083
  915SOL     MW 3660   1.746   0.177   0.234  0.3606 -0.1168  0.1531
  916SOL     OW 3661   1.794   2.147   1.985 -0.6079  0.1071  0.2126
  916SOL    HW1 3662   1.860   2.220   1.980 -0.5421  0.4931  0.1890
  916SOL    HW2 3663   1.808   2.091   1.905 -1.8983  1.6681 -2.1356
  916SOL     MW 3664   1.805   2.149   1.974 -0.7695  0.3640 -0.1004
  917SOL     OW 3665   2.499   2.194   2.562  0.1984  0.3083 -0.3595
  917SOL    HW1 3666   2.475   2.253   2.632  1.0205  1.0139  1.1113
  917SOL    HW2 3667   2.568   2.241   2.519 -0.4557  1.4479 -1.7557
  917SOL     MW 3668   2.505   2.208   2.565  0.2206  0.5517 -0.3497
  918SOL     OW 3669   1.963   1.577   2.694  0.4910  0.2419 -0.0687
  918SOL    HW1 3670   1.906   1.627   2.630 -2.9988 -2.6141 -0.9177
  918SOL    HW2 3671   2.052   1.617   2.691  2.2209  4.0805  3.5652
  918SOL     MW 3672   1.967   1.589   2.685  0.2588  0.3716  0.2987
  919SOL     OW 3673   3.067   2.397   2.325 -0.4063  0.4695  0.2239
  919SOL    HW1 3674   3.016   2.324   2.282 -1.1784  0.9498 -1.4470
  919SOL    HW2 3675   3.136   2.404   2.255  1.6301  1.0134 -3.5752
  919SOL     MW 3676   3.069   2.388   2.310 -0.2395  0.6046 -0.4978
  920SOL     OW 3677   2.703   2.867   3.081 -0.1952  0.2480 -0.1097
  920SOL    HW1 3678   2.614   2.883   3.107  0.7752 -0.2314 -1.1681
  920SOL    HW2 3679   2.707   2.792   3.017  0.4260 -2.8865 -0.4611
  920SOL     MW 3680   2.692   2.859   3.076  0.0148 -0.2288 -0.2957
  921SOL     OW 3681   2.463   2.597   2.584  0.0823  0.0066  0.5304
  921SOL    HW1 3682   2.543   2.595   2.532 -0.7063 -1.7441 -1.0308
  921SOL    HW2 3683   2.470   2.527   2.642  1.0126  1.4030 -2.0118
  921SOL     MW 3684   2.474   2.588   2.585  0.1010 -0.0402 -0.0110
  922SOL     OW 3685   2.013   2.806   0.293 -0.2165  0.0312  0.5231
  922SOL    HW1 3686   2.001   2.836   0.199 -0.5261  0.7979  0.2989
  922SOL    HW2 3687   2.058   2.715   0.302  2.6996  1.1362  1.3759
  922SOL     MW 3688   2.017   2.798   0.282  0.1274  0.2781  0.6060
  923SOL     OW 3689   2.202   2.881   1.680  0.2903 -0.2151  0.3833
  923SOL    HW1 3690   2.238   2.817   1.615 -0.6806 -0.8796  1.1111
  923SOL    HW2 3691   2.152   2.940   1.625  0.9824 -2.4806 -0.4249
  923SOL     MW 3692   2.200   2.880   1.664  0.2535 -0.6017  0.3727
  924SOL     OW 3693   1.150   2.756   2.616 -0.4320  0.4053  0.7962
  924SOL    HW1 3694   1.247   2.761   2.617  0.9756 -2.7964 -0.0706
  924SOL    HW2 3695   1.117   2.697   2.682  1.8067  0.4251 -0.6946
  924SOL     MW 3696   1.159   2.749   2.625  0.0491 -0.0145  0.4852
  925SOL     OW 3697   3.032   0.208   2.683  0.1128  0.5561  0.0571
  925SOL    HW1 3698   2.995   0.239   2.595 -0.1802 -0.1522  0.8598
  925SOL    HW2 3699   2.999   0.269   2.755  2.3423 -0.3971  1.0940
  925SOL     MW 3700   3.022   0.220   2.681  0.3683  0.3369  0.2998
  926SOL     OW 3701   2.710   2.391   2.023 -0.0355 -0.2195 -0.1009
  926SOL    HW1 3702   2.738   2.468   2.082 -1.0869  2.2685  1.8617
  926SOL    HW2 3703   2.771   2.393   1.943  0.4202  0.6560 -0.7407
  926SOL     MW 3704   2.721   2.401   2.020 -0.1141  0.2243  0.0737
  927SOL     OW 3705   2.358   0.173   0.321  0.3186  0.4413 -0.1970
  927SOL    HW1 3706   2.444   0.217   0.328 -0.8814 -0.4225 -2.0371
  927SOL    HW2 3707   2.361   0.120   0.236  0.0475  0.1742 -2.7336
  927SOL     MW 3708   2.370   0.172   0.311  0.1245  0.2921 -0.7745
  928SOL     OW 3709   2.142   2.440   1.742  0.0824  0.3634 -0.2257
  928SOL    HW1 3710   2.126   2.465   1.649 -0.0654  1.1360  2.1610
  928SOL    HW2 3711   2.233   2.457   1.765 -1.6873  0.1429  3.1126
  928SOL     MW 3712   2.152   2.446   1.733 -0.1706  0.4362  0.5296
  929SOL     OW 3713   2.717   2.338   2.472  0.0741  0.2730  0.0782
  929SOL    HW1 3714   2.775   2.311   2.394 -1.9004  1.0717 -1.1598
  929SOL    HW2 3715   2.776   2.349   2.549  0.2076 -0.4006  3.2025
  929SOL     MW 3716   2.732   2.336   2.472 -0.1688  0.2895  0.3271
  930SOL     OW 3717   2.028   2.835   2.651  0.3595 -0.1656 -0.3819
  930SOL    HW1 3718   2.041   2.787   2.738 -0.0989 -0.3465 -1.9295
  930SOL    HW2 3719   2.108   2.886   2.632 -0.2397  1.0562  0.1595
  930SOL     MW 3720   2.040   2.835   2.660  0.2199 -0.0283 -0.5147
  931SOL     OW 3721   3.040   2.743   2.464  0.1827  0.5240  0.8159
  931SOL    HW1 3722   3.098   2.766   2.537  1.7302  0.9393  0.4728
  931SOL    HW2 3723   3.080   2.673   2.420  1.0793 -1.0569 -2.0624
  931SOL     MW 3724   3.053   2.737   2.468  0.5051  0.3702  0.3908
  932SOL     OW 3725   2.923   1.872   2.485 -0.3613 -0.4544 -0.0126
  932SOL    HW1 3726   3.015   1.884   2.463 -0.2176 -1.4509  1.3039
  932SOL    HW2 3727   2.873   1.900   2.412 -0.6090 -1.4285  0.2455
  932SOL     MW 3728   2.929   1.878   2.473 -0.3750 -0.7144  0.1952
  933SOL     OW 3729   2.049   2.813   2.209 -0.1054  0.3210 -0.2295
  933SOL    HW1 3730   2.123   2.854   2.249 -3.9210  2.0410  0.9404
  933SOL    HW2 3731   1.994   2.884   2.190 -0.9418  1.5862  0.8672
  933SOL     MW 3732   2.051   2.828   2.212 -0.7192  0.7149  0.0695
  934SOL     OW 3733   1.996   2.666   2.438 -0.1236 -1.0217 -0.3261
  934SOL    HW1 3734   2.011   2.734   2.510  1.1974  2.2638  0.0445
  934SOL    HW2 3735   2.017   2.714   2.357  1.1979 -2.3938  0.8785
  934SOL     MW 3736   2.001   2.681   2.437  0.2251 -0.7692 -0.1183
  935SOL     OW 3737   2.673   1.594   1.865  0.0480  0.5119  0.1061
  935SOL    HW1 3738   2.750   1.636   1.830 -1.0966 -1.2030 -1.4396
  935SOL    HW2 3739   2.634   1.542   1.800 -0.6021 -1.0421 -1.8569
  935SOL     MW 3740   2.678   1.593   1.852 -0.1888  0.0806 -0.3569
  936SOL     OW 3741   2.974   2.272   3.087  0.6643 -0.1323  0.1016
  936SOL    HW1 3742   3.039   2.328   3.138 -1.4990  0.0725  1.2431
  936SOL    HW2 3743   2.891   2.319   3.097 -0.2699 -2.2233  0.0419
  936SOL     MW 3744   2.971   2.285   3.095  0.2556 -0.3811  0.2444
  937SOL     OW 3745   2.006   2.155   2.635  0.5722  0.4985  0.7421
  937SOL    HW1 3746   2.075   2.101   2.661  0.9339 -0.0626 -3.5016
  937SOL    HW2 3747   1.976   2.135   2.540 -1.1273  0.4081 -1.6710
  937SOL     MW 3748   2.011   2.145   2.626  0.3957  0.4126 -0.1362
  938SOL     OW 3749   2.283   1.777   1.920 -0.4477 -0.2619  0.0924
  938SOL    HW1 3750   2.262   1.789   1.828  1.6077  1.5940  1.1759
  938SOL    HW2 3751   2.284   1.863   1.964 -0.4608 -1.5181  0.9164
  938SOL     MW 3752   2.280   1.790   1.914 -0.1782 -0.1828  0.3441
  939SOL     OW 3753   2.792   1.959   2.258 -0.1672 -0.0581  0.0709
  939SOL    HW1 3754   2.822   1.914   2.181  1.1187  2.4574 -0.2407
  939SOL    HW2 3755   2.713   1.927   2.291  1.6284 -0.2988 -2.2896
  939SOL     MW 3756   2.785   1.949   2.252  0.2393  0.2420 -0.2817
  940SOL     OW 3757   2.303   0.146   2.720 -0.2538 -0.2916  0.5968
  940SOL    HW1 3758   2.322   0.051   2.693 -1.0221 -0.2711 -1.7310
  940SOL    HW2 3759   2.336   0.155   2.810 -1.8058 -0.9084 -0.6661
  940SOL     MW 3760   2.310   0.134   2.728 -0.5600 -0.3703  0.1230
  941SOL     OW 3761   0.142   2.420   2.082  0.2211 -0.1143  0.0217
  941SOL    HW1 3762   0.236   2.401   2.061 -4.0447  0.1747 -0.5178
  941SOL    HW2 3763   0.102   2.426   1.995  1.7198  0.9805 -2.3116
  941SOL     MW 3764   0.149   2.418   2.068 -0.1440  0.0683 -0.3573
  942SOL     OW 3765   2.828   2.236   2.216 -0.0742 -0.1768  0.6832
  942SOL    HW1 3766   2.773   2.282   2.154  2.0633  0.6292  2.8863
  942SOL    HW2 3767   2.811   2.140   2.229  1.1646  0.5577  1.1501
  942SOL     MW 3768   2.818   2.229   2.209  0.3712  0.0264  1.0355
  943SOL     OW 3769   0.226   2.141   2.260 -0.3287 -0.1912  0.6405
  943SOL    HW1 3770   0.226   2.182   2.349 -0.1922  1.2805 -0.8754
  943SOL    HW2 3771   0.309   2.086   2.267  1.7830 -0.7322  0.3760
  943SOL     MW 3772   0.237   2.139   2.273 -0.0321 -0.0684  0.4056
  944SOL     OW 3773   2.102   2.640   1.977  0.4458 -0.0501  0.1617
  944SOL    HW1 3774   2.169   2.580   2.017  1.5431  1.9706 -0.7201
  944SOL    HW2 3775   2.078   2.694   2.050 -0.5198 -0.6757  2.0055
  944SOL     MW 3776   2.107   2.639   1.992  0.4632  0.1340  0.2886
  945SOL     OW 3777   2.777   2.673   2.905  0.6439 -0.0691 -0.0210
  945SOL    HW1 3778   2.752   2.584   2.895  1.9144  2.2176  1.8365
  945SOL    HW2 3779   2.766   2.710   2.817  1.4668 -0.0440 -2.7553
  945SOL     MW 3780   2.772   2.666   2.892  0.9201  0.2359 -0.1367
  946SOL     OW 3781   2.448   2.700   2.248  0.0636  0.3098  0.6137
  946SOL    HW1 3782   2.488   2.736   2.174  0.3071  1.4874 -0.2039
  946SOL    HW2 3783   2.384   2.631   2.222 -1.3081 -3.2742 -2.1995
  946SOL     MW 3784   2.445   2.696   2.235 -0.0852 -0.0077  0.1346
  947SOL     OW 3785   1.971   0.028   0.271  0.1871 -1.0095 -0.4510
  947SOL    HW1 3786   2.003  -0.035   0.209 -2.1531  1.8621  1.5259
  947SOL    HW2 3787   2.028   0.025   0.352  0.5753  0.9088  0.3711
  947SOL     MW 3788   1.982   0.019   0.273 -0.0705 -0.3775 -0.0817
  948SOL     OW 3789   1.790   3.004   2.657 -0.3161  0.0649  0.2403
  948SOL    HW1 3790   1.853   2.938   2.660  0.8608  1.4018  0.8404
  948SOL    HW2 3791   1.796   3.025   2.561 -1.5548  3.0185  1.6757
  948SOL     MW 3792   1.799   2.998   2.645 -0.3243  0.6310  0.5089
  949SOL     OW 3793   2.518   1.923   2.345  0.2939  0.3538 -0.1662
  949SOL    HW1 3794   2.494   1.830   2.351  1.0471 -0.6533  2.1452
  949SOL    HW2 3795   2.434   1.966   2.338 -1.1889  0.4947  1.9428
  949SOL     MW 3796   2.503   1.916   2.345  0.1976  0.2395  0.4170
  950SOL     OW 3797   2.305   2.578   2.926 -0.8828  0.3753  0.4113
  950SOL    HW1 3798   2.356   2.528   2.861  0.1492 -0.9841  1.6853
  950SOL    HW2 3799   2.222   2.614   2.892  2.4132  1.0382 -0.1496
  950SOL     MW 3800   2.301   2.576   2.913 -0.3117  0.2834  0.5054
  951SOL     OW 3801   3.058   2.159   2.862  0.2340  0.3942 -0.2065
  951SOL    HW1 3802   3.015   2.198   2.942  1.9841 -0.8549 -1.2765
  951SOL    HW2 3803   3.083   2.067   2.878 -0.6568 -0.3821  0.5633
  951SOL     MW 3804   3.056   2.152   2.874  0.3473  0.1269 -0.2461
  952SOL     OW 3805   3.069   1.658   2.116  0.3965 -0.4051 -0.2033
  952SOL    HW1 3806   3.005   1.709   2.068 -0.4222  1.0495 -0.9132
  952SOL    HW2 3807   3.110   1.734   2.155  2.2134 -1.3499  1.3760
  952SOL     MW 3808   3.066   1.675   2.115  0.5282 -0.3379 -0.0886
  953SOL     OW 3809   1.946   1.757   2.918  0.0856  0.3674  0.0688
  953SOL    HW1 3810   1.868   1.716   2.966 -1.7895 -1.6860  0.7343
  953SOL    HW2 3811   1.944   1.694   2.849  0.0329  0.8905 -1.6149
  953SOL     MW 3812   1.935   1.743   2.915 -0.1688  0.1655 -0.0656
  954SOL     OW 3813   2.456   2.126   2.881 -0.5516 -0.1763  0.0217
  954SOL    HW1 3814   2.365   2.116   2.845  1.5855  4.2029  3.5422
  954SOL    HW2 3815   2.522   2.091   2.819  1.4173 -1.3955  0.9194
  954SOL     MW 3816   2.453   2.120   2.868 -0.0098  0.2406  0.6046
  955SOL     OW 3817   1.541   1.618   2.534 -0.4507  0.3165 -0.2086
  955SOL    HW1 3818   1.513   1.587   2.449 -1.4160  1.9652  1.4432
  955SOL    HW2 3819   1.624   1.679   2.525  4.6328 -0.1450  0.0091
  955SOL     MW 3820   1.548   1.622   2.522  0.0927  0.4731  0.0380
  956SOL     OW 3821   2.719   2.398   2.835  0.4648  0.4420 -0.1631
  956SOL    HW1 3822   2.719   2.364   2.919 -3.6407  1.1712 -3.1502
  956SOL    HW2 3823   2.807   2.377   2.811  0.4924  1.7616 -1.0039
  956SOL     MW 3824   2.731   2.391   2.843 -0.0732  0.7123 -0.6681
  957SOL     OW 3825   2.222   2.897   0.465  0.1627  0.6915 -0.1457
  957SOL    HW1 3826   2.166   2.859   0.402 -1.0422 -1.6536  4.4465
  957SOL    HW2 3827   2.225   2.824   0.526 -3.6963  1.9891 -1.5863
  957SOL     MW 3828   2.215   2.882   0.464 -0.5055  0.5532  0.2701
  958SOL     OW 3829   2.054   2.639   2.854 -0.4259  0.3853 -0.1607
  958SOL    HW1 3830   2.025   2.568   2.806  1.7298  2.8647 -0.1763
  958SOL    HW2 3831   2.016   2.635   2.944  1.3648 -1.2997 -2.2570
  958SOL     MW 3832   2.045   2.629   2.860  0.0948  0.4901 -0.4393
  959SOL     OW 3833   2.497   2.755   0.402  0.4525  0.3700  0.2326
  959SOL    HW1 3834   2.529   2.801   0.329 -0.7838  0.4210  3.4941
  959SOL    HW2 3835   2.427   2.810   0.435  1.1168 -0.7195 -1.8637
  959SOL     MW 3836   2.492   2.769   0.397  0.3770  0.2330  0.3863
  960SOL     OW 3837   1.885   2.316   2.309  0.4755  0.1697  0.2970
  960SOL    HW1 3838   1.905   2.225   2.339 -0.6941 -0.1819 -1.5074
  960SOL    HW2 3839   1.850   2.350   2.391 -0.8045 -0.3925  0.4074
  960SOL     MW 3840   1.883   2.308   2.323  0.1523  0.0491  0.0735
  961SOL     OW 3841   2.169   2.332   2.267  0.1023 -0.0292  0.0347
  961SOL    HW1 3842   2.073   2.325   2.243  0.2495  1.0790 -1.3418
  961SOL    HW2 3843   2.167   2.389   2.341 -1.8179  1.8448 -2.8710
  961SOL     MW 3844   2.156   2.338   2.274 -0.1316  0.3643 -0.5303
  962SOL     OW 3845   2.209   2.016   2.780  0.9086  0.2930 -0.1384
  962SOL    HW1 3846   2.185   1.978   2.868 -0.5308 -0.0777 -1.0608
  962SOL    HW2 3847   2.242   1.945   2.717  2.4842 -0.7215  2.9520
  962SOL     MW 3848   2.210   2.002   2.784  0.9266  0.1103  0.1476
  963SOL     OW 3849   1.799   2.492   2.133  0.1746 -0.4064  0.9178
  963SOL    HW1 3850   1.824   2.438   2.208 -1.7904 -2.5905 -0.6987
  963SOL    HW2 3851   1.854   2.463   2.059  0.7848  0.6742  0.2636
  963SOL     MW 3852   1.809   2.481   2.133 -0.0041 -0.5520  0.6182
  964SOL     OW 3853   1.807   1.947   2.719  0.1367  0.6306  0.2873
  964SOL    HW1 3854   1.856   2.027   2.698 -0.7339 -1.0931  1.8267
  964SOL    HW2 3855   1.858   1.882   2.775 -1.5387 -0.5582 -0.7519
  964SOL     MW 3856   1.820   1.949   2.724 -0.1992  0.2463  0.3533
  965SOL     OW 3857   2.281   2.703   0.637 -0.1535  0.6643 -0.2356
  965SOL    HW1 3858   2.271   2.607   0.640  0.2147  0.9118  0.1676
  965SOL    HW2 3859   2.330   2.716   0.719 -1.5949  1.3434  0.0286
  965SOL     MW 3860   2.286   2.692   0.648 -0.2951  0.7866 -0.1475
  966SOL     OW 3861   2.662   2.593   2.399  0.3504  0.1099 -0.6733
  966SOL    HW1 3862   2.579   2.609   2.339 -0.1112  0.8249 -2.8843
  966SOL    HW2 3863   2.649   2.499   2.427  0.1715 -0.8134  0.4919
  966SOL     MW 3864   2.649   2.583   2.395  0.2659  0.0824 -0.8113
  967SOL     OW 3865   2.812   3.074   2.927 -0.0555 -0.2704  0.6386
  967SOL    HW1 3866   2.794   2.989   2.977  4.6524 -0.8518  1.2552
  967SOL    HW2 3867   2.733   3.101   2.885  0.5599 -0.6797 -2.3103
  967SOL     MW 3868   2.800   3.067   2.928  0.6469 -0.4011  0.3308
  968SOL     OW 3869   3.027   2.625   2.989 -0.2616 -0.3636  0.4273
  968SOL    HW1 3870   2.940   2.643   2.947 -1.2593  1.9096  2.0309
  968SOL    HW2 3871   3.069   2.568   2.916 -0.0192 -0.7100 -0.2865
  968SOL     MW 3872   3.021   2.620   2.974 -0.3612 -0.1093  0.5447
  969SOL     OW 3873   1.614   2.171   1.678  0.0158  0.5148 -0.1422
  969SOL    HW1 3874   1.694   2.125   1.699 -0.0025  1.0992 -0.4122
  969SOL    HW2 3875   1.583   2.205   1.767 -1.7873 -1.2972  1.9593
  969SOL     MW 3876   1.620   2.169   1.693 -0.2245  0.3528  0.0995
  970SOL     OW 3877   1.776   1.830   1.913  0.4594  0.1986 -0.0121
  970SOL    HW1 3878   1.829   1.762   1.951 -2.1552  0.4915 -2.7242
  970SOL    HW2 3879   1.694   1.792   1.932  2.1569 -1.4287 -0.0626
  970SOL     MW 3880   1.773   1.816   1.921  0.3384  0.0225 -0.3766
  971SOL     OW 3881   1.788  -0.001   2.413 -0.3120 -1.0322 -0.0930
  971SOL    HW1 3882   1.806  -0.028   2.319  0.2267  1.0481 -3.2251
  971SOL    HW2 3883   1.846   0.078   2.430 -2.0566 -0.6987  1.6206
  971SOL     MW 3884   1.798   0.006   2.403 -0.4711 -0.7137 -0.2802
  972SOL     OW 3885   0.256   2.892   2.479  0.2492 -0.5112  0.0247
  972SOL    HW1 3886   0.311   2.812   2.493 -0.6849 -0.4629  0.8467
  972SOL    HW2 3887   0.315   2.972   2.492  0.0875  2.7412  2.1185
  972SOL     MW 3888   0.271   2.892   2.482  0.1046 -0.0757  0.4094
  973SOL     OW 3889   2.616   0.005   2.079 -0.3642 -0.8199  0.4088
  973SOL    HW1 3890   2.589  -0.089   2.062  1.7587  0.9415 -0.5567
  973SOL    HW2 3891   2.614   0.051   1.993  0.5390 -0.7320  2.7645
  973SOL     MW 3892   2.612  -0.001   2.066  0.0351 -0.5759  0.5922
  974SOL     OW 3893   2.042   0.177   2.721  0.1338 -0.4300 -0.6122
  974SOL    HW1 3894   2.137   0.162   2.708 -1.2304  1.3693 -1.0334
  974SOL    HW2 3895   2.015   0.121   2.790 -0.1616 -2.6691 -1.3566
  974SOL     MW 3896   2.051   0.168   2.728 -0.0852 -0.4881 -0.7660
  975SOL     OW 3897   2.197   2.496   2.506 -0.1708 -0.5122 -0.3112
  975SOL    HW1 3898   2.280   2.543   2.522 -1.4263  1.1261 -0.1315
  975SOL    HW2 3899   2.142   2.566   2.463  0.5124 -0.3919  0.0300
  975SOL     MW 3900   2.200   2.511   2.503 -0.2463 -0.2802 -0.2424
  976SOL     OW 3901   0.168   0.393   1.759 -0.5950  0.7707 -0.4896
  976SOL    HW1 3902   0.238   0.331   1.797  1.9079 -0.7333 -1.1195
  976SOL    HW2 3903   0.094   0.327   1.733 -2.9135 -0.3662  2.5643
  976SOL     MW 3904   0.167   0.376   1.760 -0.5707  0.4223 -0.1698
  977SOL     OW 3905   1.715   2.693   2.517 -0.6443 -0.1395 -0.2224
  977SOL    HW1 3906   1.718   2.599   2.552  0.4743 -0.3758  2.6316
  977SOL    HW2 3907   1.807   2.706   2.489  0.5016  1.3116 -2.6185
  977SOL     MW 3908   1.727   2.682   2.518 -0.3455  0.0207 -0.1620
   3.10000   3.10000   3.10000
