1000 SPC/Fw water molecules
 3000
    1SOL     OW    1   1.537   3.417   0.308 -0.4564  0.7679  0.5383
    1SOL    HW1    2   1.490   3.507   0.293 -0.7893  0.8713 -0.2266
    1SOL    HW2    3   1.490   3.366   0.385  0.4784 -1.4190  1.3336
    2SOL     OW    4   1.810   0.854   1.780 -0.0157 -1.1461 -0.1718
    2SOL    HW1    5   1.897   0.830   1.728 -1.2889 -2.1704  1.4164
    2SOL    HW2    6   1.821   0.935   1.844 -2.4415 -1.1101  1.9294
    3SOL     OW    7   0.772   0.096   2.840  0.1858  0.2163  0.1972
    3SOL    HW1    8   0.778   0.195   2.866  0.9255  0.2802  0.6663
    3SOL    HW2    9   0.722   0.039   2.909  1.5733 -0.2942  1.8810
    4SOL     OW   10   1.889   2.022   3.511  0.6328  0.2180 -0.4571
    4SOL    HW1   11   1.929   2.113   3.481 -1.8385 -3.1582 -0.7003
    4SOL    HW2   12   1.847   2.035   3.604  3.9244 -0.2245  2.7366
    5SOL     OW   13   0.949   1.496   2.420 -0.2169  0.1291 -0.3808
    5SOL    HW1   14   0.965   1.395   2.437 -0.5108  0.6104 -0.1073
    5SOL    HW2   15   1.040   1.544   2.413 -1.6037  0.4761 -1.4353
    6SOL     OW   16   2.806   1.162   2.638  0.1930  0.4113  0.6654
    6SOL    HW1   17   2.865   1.108   2.702  2.7002 -2.2605  2.5262
    6SOL    HW2   18   2.760   1.099   2.572  0.5298 -0.0391  0.6011
    7SOL     OW   19   0.006   1.046   1.585 -0.2556  0.3176 -0.3443
    7SOL    HW1   20  -0.041   1.134   1.611  3.6959  1.7691  0.2902
    7SOL    HW2   21   0.097   1.060   1.541 -0.1044 -1.9648  0.4667
    8SOL     OW   22   2.681   3.017   2.347 -0.0847 -0.6292  0.2261
    8SOL    HW1   23   2.667   3.037   2.247  0.2656  1.1536 -2.2075
    8SOL    HW2   24   2.693   3.104   2.401  1.9045 -0.6542 -3.3622
    9SOL     OW   25   0.120   3.151   0.387 -0.3488  0.3734 -0.4936
    9SOL    HW1   26   0.056   3.111   0.456 -1.2629  1.5985  0.3442
    9SOL    HW2   27   0.202   3.090   0.370 -0.1787 -3.0232 -0.6902
   10SOL     OW   28   0.104   2.889   2.963  0.6340  0.2251  0.0841
   10SOL    HW1   29   0.148   2.973   2.922 -2.6766  3.0458 -1.2514
   10SOL    HW2   30   0.163   2.806   2.947  0.4182  2.9580  0.8744
   11SOL     OW   31   0.204   2.152   0.141 -0.3666 -0.7087 -0.4142
   11SOL    HW1   32   0.280   2.082   0.148 -1.0895  2.2004  0.8543
   11SOL    HW2   33   0.162   2.164   0.235  1.6195 -2.8190 -3.3769
   12SOL     OW   34   2.742   3.496   0.511  0.6328 -0.2113  0.1972
   12SOL    HW1   35   2.826   3.551   0.490 -0.3162  0.9704  1.3570
   12SOL    HW2   36   2.721   3.439   0.428 -1.8399  1.2844 -2.1660
   13SOL     OW   37   0.296   0.534   3.082 -0.1292 -0.6444  0.4577
   13SOL    HW1   38   0.214   0.471   3.077 -0.1152  0.9882  0.0702
   13SOL    HW2   39   0.263   0.631   3.078  2.5025 -2.2345 -1.3122
   14SOL     OW   40   1.568   0.857   1.625 -0.0246 -0.5472  0.0465
   14SOL    HW1   41   1.652   0.850   1.683 -0.7961 -1.1218  2.0033
   14SOL    HW2   42   1.593   0.841   1.527 -3.6388 -0.1163 -0.2557
   15SOL     OW   43   0.756   1.633   2.604  0.5195  0.2817  0.0192
   15SOL    HW1   44   0.702   1.702   2.550  0.2493  1.3582  2.2871
   15SOL    HW2   45   0.831   1.595   2.545 -0.0281  3.3188 -0.8638
   16SOL     OW   46   2.109   1.009   3.283 -0.6233 -0.1655  0.4252
   16SOL    HW1   47   2.008   1.018   3.298  0.5799 -1.0990  1.7048
   16SOL    HW2   48   2.128   1.013   3.180 -1.6122  0.1668  0.4585
   17SOL     OW   49   0.164   2.849   2.467  0.4565  0.0551  0.5660
   17SOL    HW1   50   0.125   2.929   2.518 -0.8565  3.0068 -0.5653
   17SOL    HW2   51   0.096   2.813   2.400 -0.9989 -1.3529  1.0320
   18SOL     OW   52   1.755   1.402   1.008 -0.3714 -0.1734  0.3650
   18SOL    HW1   53   1.795   1.310   0.982 -1.7455 -1.2795 -0.8945
   18SOL    HW2   54   1.656   1.411   0.979 -2.5677 -0.9323 -1.5810
   19SOL     OW   55   0.162   1.288   1.982 -0.0892  0.5656  0.1394
   19SOL    HW1   56   0.238   1.344   1.941  0.9387  0.9325  1.3473
   19SOL    HW2   57   0.201   1.239   2.066 -0.3893 -0.1601  1.0028
   20SOL     OW   58   2.127   2.447   3.134 -0.2837 -0.3521  1.0716
   20SOL    HW1   59   2.100   2.533   3.084  0.0639 -1.1557 -1.5155
   20SOL    HW2   60   2.165   2.461   3.229 -1.6150 -1.3564 -1.8759
   21SOL     OW   61   1.981   1.923   1.221  0.2798  0.1691  0.9284
   21SOL    HW1   62   2.052   1.988   1.259  1.4350 -1.3554 -1.2166
   21SOL    HW2   63   2.009   1.826   1.239  1.9907  0.2401 -2.8228
   22SOL     OW   64   2.322   2.660   1.655 -0.5506  0.0096 -0.2501
   22SOL    HW1   65   2.233   2.612   1.676 -1.4677 -2.9584  0.0275
   22SOL    HW2   66   2.313   2.716   1.568 -1.0548 -1.0820 -0.9957
   23SOL     OW   67   3.119   1.285   1.555  0.1303  0.4633 -0.1440
   23SOL    HW1   68   3.146   1.190   1.580  0.8796 -1.8621  1.2682
   23SOL    HW2   69   3.080   1.288   1.459  1.9907 -0.7745  0.6456
   24SOL     OW   70   2.369   1.709   1.998 -0.1765 -0.0148  0.3390
   24SOL    HW1   71   2.306   1.783   2.030  1.6993 -1.1444  0.7052
   24SOL    HW2   72   2.436   1.684   2.073 -0.8638  0.7732 -1.7899
   25SOL     OW   73   2.057   3.438   3.039  0.1513  0.4960 -0.7854
   25SOL    HW1   74   2.127   3.514   3.051  2.4388  3.4790  3.6031
   25SOL    HW2   75   1.998   3.458   2.958 -0.4536 -0.0619  0.1472
   26SOL     OW   76   0.434   3.164   0.754  0.0482  0.2064  0.1066
   26SOL    HW1   77   0.520   3.197   0.800  1.6743 -0.8541  1.5335
   26SOL    HW2   78   0.453   3.088   0.685  0.9405  2.8440 -1.5931
   27SOL     OW   79   1.416   1.450   0.888  0.5621  0.1871  0.5947
   27SOL    HW1   80   1.407   1.403   0.979 -1.0599 -2.6770  0.3732
   27SOL    HW2   81   1.327   1.488   0.856 -2.2385 -2.7105  2.5376
   28SOL     OW   82   2.268   2.813   1.402 -0.7287  0.4402  0.0455
   28SOL    HW1   83   2.346   2.820   1.333  0.2427 -2.5076  0.5770
   28SOL    HW2   84   2.172   2.805   1.359  1.4579 -0.0039  0.8649
   29SOL     OW   85   2.559   3.276   2.739 -0.0830 -0.6988 -0.5676
   29SOL    HW1   86   2.641   3.249   2.795  0.5432 -2.5696 -2.4361
   29SOL    HW2   87   2.474   3.243   2.788  1.4164 -2.0841  0.6519
   30SOL     OW   88   0.111   3.246   2.196  0.2996  0.1170 -1.0619
   30SOL    HW1   89   0.013   3.219   2.210  0.1393 -0.4649  1.0046
   30SOL    HW2   90   0.126   3.334   2.248  0.1861 -0.2828 -0.2747
   31SOL     OW   91   3.496   2.110   2.784  0.1311 -0.0056  0.1543
   31SOL    HW1   92   3.566   2.157   2.843 -2.2679  1.1004  0.9081
   31SOL    HW2   93   3.536   2.074   2.696  0.4956 -0.7785  0.6148
   32SOL     OW   94   1.211   2.909   2.636  0.0113 -0.2328 -1.0694
   32SOL    HW1   95   1.134   2.893   2.702 -0.7305  0.8735  2.2464
   32SOL    HW2   96   1.300   2.877   2.674  0.9387 -1.1582  1.1364
   33SOL     OW   97   0.027   0.595   0.019  0.1759 -0.1287 -0.8962
   33SOL    HW1   98   0.048   0.690  -0.013  1.3941  0.1350 -1.0706
   33SOL    HW2   99   0.109   0.536   0.006 -1.7380 -0.9401 -0.4188
   34SOL     OW  100   3.216   0.197   0.099 -0.1993  0.3722  0.3025
   34SOL    HW1  101   3.291   0.144   0.144 -0.2782 -0.0161  1.1185
   34SOL    HW2  102   3.147   0.138   0.050  0.2173  0.8243  1.0181
   35SOL     OW  103   3.355   3.214   1.946  0.1953  0.2806 -0.0075
   35SOL    HW1  104   3.394   3.186   2.037 -2.1083  1.3627  0.4077
   35SOL    HW2  105   3.397   3.305   1.917  0.7898  1.6981 -1.3153
   36SOL     OW  106   2.684   3.603   3.167  0.1667  0.1312 -0.2262
   36SOL    HW1  107   2.598   3.551   3.186 -1.2153  0.6213 -2.3537
   36SOL    HW2  108   2.756   3.533   3.143 -0.4581  0.4045 -0.4990
   37SOL     OW  109   2.110   3.025   0.099 -0.4291 -0.1812  0.7121
   37SOL    HW1  110   2.091   3.005   0.001  0.9339  1.8421 -0.4420
   37SOL    HW2  111   2.038   3.083   0.146  0.4704  1.9923 -0.1720
   38SOL     OW  112   0.543   0.206   0.819  0.3348  0.0969 -0.2257
   38SOL    HW1  113   0.505   0.292   0.774  2.5069 -2.6300  0.6981
   38SOL    HW2  114   0.606   0.160   0.750  1.2010  2.2998  0.4612
   39SOL     OW  115   1.298   2.147   2.530 -0.2446  0.0399  0.6324
   39SOL    HW1  116   1.218   2.149   2.595  1.8544 -0.0981 -0.6523
   39SOL    HW2  117   1.339   2.240   2.510 -0.0451  0.8831 -1.4873
   40SOL     OW  118   3.625   1.144   0.223  0.6421 -0.3461  0.2598
   40SOL    HW1  119   3.537   1.173   0.270  1.6435  0.2661 -2.3331
   40SOL    HW2  120   3.663   1.218   0.163  2.4420 -1.1061 -0.9539
   41SOL     OW  121   1.934   0.067   2.509  0.1360  0.5610  0.7216
   41SOL    HW1  122   1.846   0.115   2.535 -2.6201  1.2333 -1.6436
   41SOL    HW2  123   1.918   0.004   2.428 -1.8523 -1.7833  0.4435
   42SOL     OW  124   2.876   0.145   1.296 -0.5425  0.1783 -0.3714
   42SOL    HW1  125   2.973   0.149   1.259 -0.9493  1.3460  0.8638
   42SOL    HW2  126   2.860   0.055   1.344  0.8438 -0.4616  1.2501
   43SOL     OW  127   1.821   0.289   1.395  0.2445  0.1488 -0.0799
   43SOL    HW1  128   1.878   0.267   1.479  2.6906  1.0595 -0.6757
   43SOL    HW2  129   1.839   0.219   1.320 -2.4740 -0.9793 -1.5082
   44SOL     OW  130   0.354   1.043   3.583  0.7265  0.0270 -0.0447
   44SOL    HW1  131   0.440   0.989   3.571 -2.0610 -1.2477  0.6991
   44SOL    HW2  132   0.357   1.108   3.662  1.7349 -0.6067 -0.2859
   45SOL     OW  133   0.749   1.782   2.028 -0.2199  1.0786  0.2440
   45SOL    HW1  134   0.782   1.769   1.931  0.7095  0.9489 -0.5243
   45SOL    HW2  135   0.746   1.696   2.082 -0.4205  1.9409 -1.1614
   46SOL     OW  136   2.628   2.669   2.013  0.4197  0.4335  0.1927
   46SOL    HW1  137   2.583   2.582   2.051  1.3948  1.0197 -3.3221
   46SOL    HW2  138   2.731   2.678   2.026  0.8569 -1.2059  1.3974
   47SOL     OW  139   0.434   2.149   1.675  0.1716  0.3020 -0.3697
   47SOL    HW1  140   0.438   2.174   1.574 -4.3293 -2.5372 -0.3853
   47SOL    HW2  141   0.389   2.220   1.734  1.4200  0.5885  2.1880
   48SOL     OW  142   1.288   3.265   3.162  0.2906 -0.1419  0.3128
   48SOL    HW1  143   1.261   3.187   3.099 -0.3213  1.7953  0.9728
   48SOL    HW2  144   1.205   3.310   3.199 -0.5274 -0.4887 -2.5956
   49SOL     OW  145   3.225   1.968   2.222 -0.0988 -0.1133  0.2221
   49SOL    HW1  146   3.189   2.021   2.141  0.7395 -1.4378 -0.5792
   49SOL    HW2  147   3.221   1.866   2.206  1.2218  0.0095  1.2308
   50SOL     OW  148   1.072   3.393   0.413 -0.7998  0.2853  0.2682
   50SOL    HW1  149   1.135   3.414   0.492 -0.5840 -0.8230  1.6732
   50SOL    HW2  150   1.043   3.485   0.372  0.9198 -0.5008 -0.7988
   51SOL     OW  151   1.351   0.217   1.070 -0.2948 -0.2960  0.1740
   51SOL    HW1  152   1.402   0.250   0.988 -0.8292  0.0270 -0.9580
   51SOL    HW2  153   1.391   0.129   1.104 -0.5673 -2.4111  0.0026
   52SOL     OW  154   0.186   0.969   0.750 -0.3859  0.3238 -0.3034
   52SOL    HW1  155   0.144   0.957   0.656 -2.3351  0.1615  1.2406
   52SOL    HW2  156   0.243   1.054   0.750  0.9996 -2.7331 -0.9275
   53SOL     OW  157   1.173   0.203   3.304  0.3908 -0.2144  0.2744
   53SOL    HW1  158   1.246   0.155   3.358  1.2185  0.2386 -1.2919
   53SOL    HW2  159   1.133   0.139   3.235 -1.0159  0.6228  1.3247
   54SOL     OW  160   2.495   0.585   2.523 -0.7866  0.1881 -0.1621
   54SOL    HW1  161   2.530   0.592   2.619 -1.2689  0.6694  0.3776
   54SOL    HW2  162   2.461   0.489   2.506  1.8104 -1.6278  1.1243
   55SOL     OW  163   2.973   0.016   0.435  0.3096 -0.3593 -0.4380
   55SOL    HW1  164   3.049  -0.012   0.500 -0.9536 -1.2068 -2.4410
   55SOL    HW2  165   3.007   0.011   0.337 -0.4051 -0.5240 -0.4876
   56SOL     OW  166   0.943   0.429   2.616 -0.0783  0.0868  0.3691
   56SOL    HW1  167   0.870   0.419   2.546  2.1703  1.2747 -0.2686
   56SOL    HW2  168   1.001   0.344   2.616 -0.2806  1.2643  1.0421
   57SOL     OW  169   2.035   1.166   2.720  0.6624  0.0022 -0.6012
   57SOL    HW1  170   2.003   1.264   2.721  0.0414 -0.9715  1.1561
   57SOL    HW2  171   2.092   1.149   2.636  3.1620 -1.2171  1.8776
   58SOL     OW  172   0.284   1.034   2.300 -0.1091 -0.5346  0.9421
   58SOL    HW1  173   0.323   1.120   2.340  2.6283 -2.0249 -0.9295
   58SOL    HW2  174   0.270   0.969   2.380 -0.5806  0.1837  0.6280
   59SOL     OW  175   1.028   3.177   2.227  0.4059  0.1658  0.1577
   59SOL    HW1  176   0.929   3.170   2.256  0.6264  0.8786  2.7792
   59SOL    HW2  177   1.084   3.169   2.313 -3.1271 -0.3274 -0.4342
   60SOL     OW  178   2.558   3.073   0.366 -0.1806 -0.3592 -0.9459
   60SOL    HW1  179   2.476   3.093   0.424 -3.8196 -0.1274 -0.1130
   60SOL    HW2  180   2.567   2.974   0.338  1.6109 -3.6722  2.9798
   61SOL     OW  181   1.707   3.120   0.425 -0.0023 -0.8529 -0.1949
   61SOL    HW1  182   1.621   3.163   0.462  0.0905  2.4695 -1.2797
   61SOL    HW2  183   1.721   3.023   0.456  0.7229 -2.5399  0.2486
   62SOL     OW  184   2.604   3.056   3.505  0.5136  0.4830  0.0402
   62SOL    HW1  185   2.622   2.956   3.518 -1.2596  1.0629 -0.3725
   62SOL    HW2  186   2.535   3.087   3.575  1.1712  1.6201 -1.0883
   63SOL     OW  187   3.075   1.102   0.724 -0.2548 -0.7695 -0.3583
   63SOL    HW1  188   3.062   1.084   0.623  0.4920 -1.1432  0.7734
   63SOL    HW2  189   3.175   1.088   0.750  0.7403  1.0215 -2.1914
   64SOL     OW  190   1.872   1.187   0.093  0.1114 -0.3193  0.1375
   64SOL    HW1  191   1.884   1.285   0.118 -1.9096  1.0635 -0.0804
   64SOL    HW2  192   1.772   1.162   0.093  1.3962 -1.0372  1.2243
   65SOL     OW  193   0.515   2.887   2.014 -0.0094 -0.8320  0.0641
   65SOL    HW1  194   0.496   2.946   1.929  0.2904 -1.9543 -1.6390
   65SOL    HW2  195   0.458   2.927   2.090 -0.7997  0.9645 -0.4964
   66SOL     OW  196   1.185   1.501   1.535 -0.3647 -0.2048  0.3080
   66SOL    HW1  197   1.216   1.404   1.529 -0.9637 -1.9832 -2.9814
   66SOL    HW2  198   1.194   1.550   1.444 -1.3084  0.8365  0.3818
   67SOL     OW  199   2.937   2.213   2.310 -0.7052  0.0257  0.2368
   67SOL    HW1  200   3.005   2.200   2.232 -1.7349  1.2008  1.6906
   67SOL    HW2  201   2.938   2.137   2.379  2.5867 -0.5051 -1.3177
   68SOL     OW  202   1.405   2.020   2.064  0.3045  0.3276 -0.0564
   68SOL    HW1  203   1.402   1.951   1.989  0.3939 -0.3679 -0.3673
   68SOL    HW2  204   1.352   1.991   2.147 -0.2993 -1.4295  0.6631
   69SOL     OW  205   3.167   0.479   0.090  0.1782 -0.2725 -0.4239
   69SOL    HW1  206   3.077   0.489   0.038 -1.6338 -2.8698 -0.2740
   69SOL    HW2  207   3.190   0.379   0.104  0.9503  2.7501 -0.1961
   70SOL     OW  208   2.568   1.360   2.661  0.1361 -0.3542 -0.5041
   70SOL    HW1  209   2.650   1.298   2.658  0.8838 -0.2621  1.7468
   70SOL    HW2  210   2.517   1.343   2.749  1.7880  5.4055 -0.5352
   71SOL     OW  211   1.234   2.490   0.811  0.2262 -0.0007 -0.0671
   71SOL    HW1  212   1.301   2.448   0.745 -1.4632 -0.0310 -0.6989
   71SOL    HW2  213   1.282   2.562   0.867 -2.8498 -0.6728  1.1909
   72SOL     OW  214   2.650   2.075   0.725  0.8690 -0.3523 -0.5395
   72SOL    HW1  215   2.717   2.153   0.731 -0.8491  0.0167  0.6757
   72SOL    HW2  216   2.595   2.062   0.810  1.4124  1.1992 -0.3930
   73SOL     OW  217   1.262   1.084   0.650  0.1097  0.3735 -0.2916
   73SOL    HW1  218   1.189   1.137   0.697 -3.5814 -0.0823 -0.9722
   73SOL    HW2  219   1.222   1.011   0.591  1.1939 -0.2425 -2.2226
   74SOL     OW  220   3.119   2.505   2.581 -0.3254 -0.6653  0.3608
   74SOL    HW1  221   3.145   2.406   2.603  2.4315 -2.2484 -0.1496
   74SOL    HW2  222   3.133   2.533   2.483 -1.3804  0.2439  0.0620
   75SOL     OW  223   1.986   1.940   2.314  0.0749  0.1996 -0.0187
   75SOL    HW1  224   1.891   1.910   2.289  0.3293  2.3823  1.2402
   75SOL    HW2  225   2.021   1.882   2.391 -1.8687  0.1748  0.7371
   76SOL     OW  226   1.448   1.835   1.329 -0.3773  0.0435  0.9381
   76SOL    HW1  227   1.368   1.788   1.281 -0.6309  1.1047 -1.1188
   76SOL    HW2  228   1.495   1.900   1.262  1.2922  3.6138  1.1132
   77SOL     OW  229   2.769   1.050   2.003  0.5539 -0.0816  0.2271
   77SOL    HW1  230   2.697   1.083   2.067  1.5138  0.1454  2.1259
   77SOL    HW2  231   2.789   0.949   2.012 -2.9540 -0.2209 -2.7387
   78SOL     OW  232   1.957   0.742   0.359 -0.3217 -0.4756 -0.4259
   78SOL    HW1  233   1.976   0.803   0.278  1.8095  0.2938 -3.5038
   78SOL    HW2  234   1.865   0.764   0.402  1.1374 -2.4300  1.7669
   79SOL     OW  235   1.225   1.944   2.317  0.2862 -0.4411  0.0562
   79SOL    HW1  236   1.249   2.006   2.396 -1.1849  0.5661  0.7826
   79SOL    HW2  237   1.128   1.953   2.284 -0.9078  1.0284 -0.5367
   80SOL     OW  238   1.155   0.443   1.673 -0.6937 -0.5305  0.2619
   80SOL    HW1  239   1.179   0.543   1.666 -1.2862 -0.4556 -0.0346
   80SOL    HW2  240   1.161   0.414   1.770  0.0735 -0.7823 -2.5100
   81SOL     OW  241   0.350   2.962   0.288  0.3033  0.1527  0.6713
   81SOL    HW1  242   0.420   2.967   0.211 -1.3319  0.2624 -0.2774
   81SOL    HW2  243   0.400   2.935   0.374  0.0291  0.2653 -3.3407
   82SOL     OW  244   1.250   0.314   2.021  0.0738  0.0051  0.3011
   82SOL    HW1  245   1.252   0.336   2.122 -0.5853 -0.4551 -1.1046
   82SOL    HW2  246   1.343   0.327   1.981  1.3485 -3.2929  0.0445
   83SOL     OW  247   0.508   2.642   1.173  0.3006  0.4197 -0.0830
   83SOL    HW1  248   0.437   2.713   1.154 -1.1509 -1.9256  0.0361
   83SOL    HW2  249   0.463   2.550   1.188  1.6641  1.3603  0.1059
   84SOL     OW  250   2.939   1.435   1.112  0.2816 -0.6311 -0.1103
   84SOL    HW1  251   2.959   1.362   1.181 -0.7310  1.4758  0.2186
   84SOL    HW2  252   2.995   1.418   1.028 -2.2524 -1.8651  1.2053
   85SOL     OW  253   2.633   2.238   1.336 -0.0770 -0.1358  0.5543
   85SOL    HW1  254   2.579   2.202   1.415  0.9013 -0.9561 -0.1188
   85SOL    HW2  255   2.706   2.169   1.314  0.8247 -0.7060 -2.0825
   86SOL     OW  256   1.439   2.509   2.546  0.4872  0.4618 -0.2799
   86SOL    HW1  257   1.370   2.568   2.501  1.3153 -0.0835 -3.2153
   86SOL    HW2  258   1.532   2.505   2.501  1.1122  1.6454 -0.0446
   87SOL     OW  259   2.686   1.518   1.012 -0.1451  0.1275  0.1752
   87SOL    HW1  260   2.696   1.585   0.934  1.0714  0.6770 -1.7028
   87SOL    HW2  261   2.776   1.487   1.051 -0.4766 -1.7156 -1.2375
   88SOL     OW  262   0.546   3.415   1.146 -0.5947  0.1008 -0.4639
   88SOL    HW1  263   0.485   3.482   1.097 -0.8040 -1.9312 -1.1501
   88SOL    HW2  264   0.594   3.456   1.227 -0.1001 -0.3216  0.6744
   89SOL     OW  265   0.652   1.366   1.768 -0.1198  0.0503  0.1940
   89SOL    HW1  266   0.752   1.362   1.795 -1.0524  0.4854  1.4063
   89SOL    HW2  267   0.631   1.301   1.689 -3.4628 -0.4669  2.8324
   90SOL     OW  268   3.162   2.106   0.436  0.2281  0.1751 -0.3781
   90SOL    HW1  269   3.137   2.201   0.465 -0.7535  0.8492  0.0364
   90SOL    HW2  270   3.265   2.096   0.427 -0.7812  0.8163  0.8328
   91SOL     OW  271   0.899   2.271   1.142 -0.3966 -0.5174  0.4011
   91SOL    HW1  272   0.857   2.364   1.154  1.1362  0.1372 -0.9493
   91SOL    HW2  273   0.861   2.206   1.213 -0.6645  2.3069  0.2389
   92SOL     OW  274   2.509   3.519   2.256  0.4210  0.0385 -0.0765
   92SOL    HW1  275   2.600   3.553   2.292 -2.9143  0.7349 -1.1542
   92SOL    HW2  276   2.440   3.492   2.329 -1.2250 -2.3595  3.9690
   93SOL     OW  277   0.715   2.282   3.291  0.1730 -0.5604 -0.0621
   93SOL    HW1  278   0.743   2.276   3.390 -0.1188 -0.1228 -0.2745
   93SOL    HW2  279   0.621   2.246   3.275  0.6783  2.1667  1.7261
   94SOL     OW  280   2.787   3.595   2.404 -0.3254 -0.0304 -0.4456
   94SOL    HW1  281   2.787   3.668   2.477 -0.4626 -0.7065  2.1146
   94SOL    HW2  282   2.835   3.625   2.319  0.9436  0.9806  0.6796
   95SOL     OW  283   2.249   0.046   2.071  0.0417 -0.2904 -0.5609
   95SOL    HW1  284   2.265   0.149   2.069  1.0566  0.6665  1.4421
   95SOL    HW2  285   2.318  -0.009   2.123  0.0478 -0.6016  1.9361
   96SOL     OW  286   0.813   0.897   2.523 -0.2882 -0.6138 -0.4658
   96SOL    HW1  287   0.760   0.911   2.611 -0.3495 -0.0216  0.5334
   96SOL    HW2  288   0.819   0.985   2.470 -0.0933 -4.2189 -0.9215
   97SOL     OW  289   2.353   3.446   1.731  0.3234  0.0073 -0.1051
   97SOL    HW1  290   2.267   3.484   1.773  1.4222 -2.3865 -1.7059
   97SOL    HW2  291   2.336   3.359   1.680 -0.0322  0.8051 -1.0914
   98SOL     OW  292   1.994   2.608   1.869  0.2269 -0.0472 -0.1246
   98SOL    HW1  293   2.021   2.659   1.956  0.6936 -1.0777 -1.8369
   98SOL    HW2  294   1.981   2.507   1.887 -0.7076  0.5841 -2.5546
   99SOL     OW  295   0.441   0.843   1.267  0.4723  0.3912  0.0568
   99SOL    HW1  296   0.385   0.930   1.255 -0.2730  0.6952 -2.0480
   99SOL    HW2  297   0.495   0.828   1.181  0.8305  2.7093 -0.2300
  100SOL     OW  298   3.496   2.353   2.312 -0.1705  0.4018  0.3560
  100SOL    HW1  299   3.449   2.264   2.333  1.8573  1.3768 -1.9165
  100SOL    HW2  300   3.576   2.365   2.376 -1.0396 -2.3918  0.4090
  101SOL     OW  301   1.283   0.404   0.043 -0.6260 -0.1018 -0.0256
  101SOL    HW1  302   1.379   0.370   0.052  0.7934  1.9107 -0.5615
  101SOL    HW2  303   1.266   0.452  -0.049 -0.9939  0.2309 -3.9545
  102SOL     OW  304   3.317   0.141   1.465 -0.3514 -0.1367 -0.3191
  102SOL    HW1  305   3.401   0.201   1.464 -0.4170  0.3163 -2.5205
  102SOL    HW2  306   3.250   0.174   1.537 -1.5905  0.8980 -1.4730
  103SOL     OW  307   0.176   3.480   2.990  0.1150  0.5554  0.0498
  103SOL    HW1  308   0.192   3.573   2.947 -1.0762 -0.4960 -1.9160
  103SOL    HW2  309   0.077   3.466   3.012  0.5351 -1.6468  1.0146
  104SOL     OW  310   0.180   2.853   1.416 -0.5073  0.5301  0.1281
  104SOL    HW1  311   0.103   2.912   1.449  2.4991 -1.5574 -0.1710
  104SOL    HW2  312   0.271   2.895   1.441  0.4561  0.6037  1.2275
  105SOL     OW  313   0.588   1.787   2.405  0.1531 -0.1171 -0.2683
  105SOL    HW1  314   0.535   1.704   2.375  1.2861  2.1499 -1.7633
  105SOL    HW2  315   0.536   1.871   2.376  1.5046 -0.6825 -0.1448
  106SOL     OW  316   3.125   3.252   0.642  0.6735  0.1989  0.7498
  106SOL    HW1  317   3.107   3.227   0.741 -0.9884 -0.5048  1.1769
  106SOL    HW2  318   3.144   3.352   0.635 -1.5881 -0.2350  2.7689
  107SOL     OW  319   0.804   1.350   1.097 -0.3098  0.1017 -0.7967
  107SOL    HW1  320   0.760   1.358   1.190 -3.1133  1.8811 -0.1518
  107SOL    HW2  321   0.887   1.289   1.102 -0.6679 -2.7342 -1.1385
  108SOL     OW  322   3.446   1.327   2.554  0.5076 -0.0737 -0.1097
  108SOL    HW1  323   3.405   1.423   2.559 -2.4216  1.6275  1.6808
  108SOL    HW2  324   3.550   1.326   2.551 -1.2563 -3.5565 -3.3407
  109SOL     OW  325   2.417   3.109   0.091 -0.1673 -0.4916 -0.2148
  109SOL    HW1  326   2.316   3.084   0.090  0.9027  1.1236  1.8577
  109SOL    HW2  327   2.460   3.101   0.185 -0.8507 -0.6117 -1.9717
  110SOL     OW  328   0.291   2.572   0.080 -0.2265  0.0484 -0.2257
  110SOL    HW1  329   0.244   2.493   0.034  2.7633  0.0827  0.8875
  110SOL    HW2  330   0.225   2.639   0.124  1.4409  0.1866 -1.7015
  111SOL     OW  331   3.160   1.133   3.203  0.7346 -0.5944  0.0620
  111SOL    HW1  332   3.149   1.174   3.108  0.4614 -1.6035 -1.7968
  111SOL    HW2  333   3.066   1.125   3.244 -1.3254  0.0126  0.7839
  112SOL     OW  334   2.641   3.091   2.073  0.2863 -0.0141 -0.0682
  112SOL    HW1  335   2.626   3.190   2.048 -2.5320 -0.5106  1.8785
  112SOL    HW2  336   2.574   3.026   2.030 -1.9298 -1.9679 -0.4223
  113SOL     OW  337   2.594   2.226   3.127  0.1054  0.0550 -0.7977
  113SOL    HW1  338   2.604   2.130   3.163  0.4789 -2.2491 -1.8057
  113SOL    HW2  339   2.642   2.231   3.037  0.0598 -1.4320 -0.7754
  114SOL     OW  340   0.757   3.606   0.661 -0.0223  0.1588 -0.3964
  114SOL    HW1  341   0.747   3.517   0.713 -3.9703  1.1273  2.1140
  114SOL    HW2  342   0.837   3.658   0.697  0.6528  0.1112  0.6582
  115SOL     OW  343   0.143   1.997   3.418  0.4435  0.3741 -0.5899
  115SOL    HW1  344   0.118   2.088   3.464  1.4291  0.9651  0.3046
  115SOL    HW2  345   0.242   1.976   3.433  0.2333  2.4269  0.2130
  116SOL     OW  346   3.385   1.575   1.966  0.1921 -0.3574  0.0628
  116SOL    HW1  347   3.424   1.482   1.949  0.2321 -1.0747  2.2591
  116SOL    HW2  348   3.453   1.634   2.017 -3.4413 -1.1692  2.4055
  117SOL     OW  349   2.461   0.247   1.744  0.0894  0.1294  0.0766
  117SOL    HW1  350   2.502   0.159   1.708  0.8296 -3.1438 -1.8317
  117SOL    HW2  351   2.370   0.272   1.701  0.9581 -1.8925  1.7477
  118SOL     OW  352   3.250   2.588   2.846  0.0072  0.2870  0.0174
  118SOL    HW1  353   3.200   2.554   2.762 -1.0762 -0.9950  0.8940
  118SOL    HW2  354   3.323   2.656   2.819 -0.7866  2.3256 -1.4581
  119SOL     OW  355   0.455   1.901   2.023  0.1157 -0.3414 -0.4459
  119SOL    HW1  356   0.444   1.962   1.938 -0.6470 -1.0351 -1.0441
  119SOL    HW2  357   0.549   1.861   2.025 -1.0248  2.5941 -2.6386
  120SOL     OW  358   0.269   1.675   2.064 -0.1574 -0.2131  0.0527
  120SOL    HW1  359   0.294   1.601   1.994 -1.7946 -1.7375 -1.9298
  120SOL    HW2  360   0.332   1.756   2.050  0.3667  2.3566  0.5023
  121SOL     OW  361   1.835   1.150   0.909  0.1058  0.7161 -0.2783
  121SOL    HW1  362   1.759   1.085   0.883  0.2785  1.1701  0.8627
  121SOL    HW2  363   1.924   1.119   0.867  1.2986 -1.0669 -1.7399
  122SOL     OW  364   2.908   2.752   3.168 -0.3756 -0.0215  0.5556
  122SOL    HW1  365   2.851   2.827   3.123 -1.3626 -0.0396 -1.6579
  122SOL    HW2  366   2.842   2.680   3.202  2.3179  1.5852  0.2259
  123SOL     OW  367   3.547   0.502   0.541 -0.3720  0.3771  0.5196
  123SOL    HW1  368   3.521   0.515   0.640 -0.2786 -1.2514  0.6238
  123SOL    HW2  369   3.532   0.405   0.507 -0.9623  1.0026  3.7317
  124SOL     OW  370   1.908   1.480   0.190  0.6743  0.4356 -0.0586
  124SOL    HW1  371   1.948   1.475   0.286 -2.4560  1.0352  1.9062
  124SOL    HW2  372   1.970   1.538   0.131  0.7098  1.3218  1.2350
  125SOL     OW  373   3.610   0.947   2.713  0.0717  0.8137 -0.0234
  125SOL    HW1  374   3.671   0.978   2.791  1.3710  3.2067 -0.2048
  125SOL    HW2  375   3.667   0.899   2.641 -1.0343 -2.4755 -0.6544
  126SOL     OW  376   3.268   3.323   0.203 -0.0717  0.6822 -0.1862
  126SOL    HW1  377   3.262   3.284   0.108  1.4346 -0.5331 -2.1927
  126SOL    HW2  378   3.265   3.247   0.273  0.2274  1.1969 -1.5155
  127SOL     OW  379   3.263   2.155   3.616  0.6930 -0.1729  0.2866
  127SOL    HW1  380   3.166   2.184   3.638  2.5670  1.9885 -1.3280
  127SOL    HW2  381   3.274   2.053   3.630  0.5188 -0.9258 -0.3194
  128SOL     OW  382   1.057   1.213   0.779 -0.2060  0.0026  0.2478
  128SOL    HW1  383   0.961   1.234   0.749  1.2036  2.5289 -2.5583
  128SOL    HW2  384   1.066   1.218   0.882 -2.0112 -0.4131  0.9041
  129SOL     OW  385   2.481   2.347   1.123  0.0148 -0.0406  0.2825
  129SOL    HW1  386   2.536   2.308   1.201 -0.0794  0.9695 -0.7261
  129SOL    HW2  387   2.437   2.437   1.150  0.0982 -3.0561 -0.1282
  130SOL     OW  388   2.218   1.062   0.240  0.2300  0.3159  0.1522
  130SOL    HW1  389   2.309   1.020   0.216  1.1884 -0.6655  0.6034
  130SOL    HW2  390   2.137   1.011   0.202 -2.5723 -0.7305  0.4662
  131SOL     OW  391   0.063   1.976   3.095 -0.0250  0.5768  0.4072
  131SOL    HW1  392  -0.033   1.943   3.079 -0.3566 -1.6821 -2.5365
  131SOL    HW2  393   0.092   1.975   3.194 -1.6950  1.2248  2.3301
  132SOL     OW  394   1.499   1.373   2.125  0.9873 -0.2328 -0.0139
  132SOL    HW1  395   1.489   1.283   2.075 -0.7537 -0.3755  0.2775
  132SOL    HW2  396   1.409   1.425   2.119  1.5857 -0.1344  0.3354
  133SOL     OW  397   0.476   1.288   1.001 -0.1124  0.0300  0.4121
  133SOL    HW1  398   0.578   1.279   1.007  0.9633 -0.3120 -0.8563
  133SOL    HW2  399   0.443   1.373   1.049  0.4536  1.3627  0.1499
  134SOL     OW  400   0.055   1.620   0.156  0.1535  0.1791 -0.2564
  134SOL    HW1  401   0.057   1.521   0.131 -1.6662 -3.8852  3.3117
  134SOL    HW2  402   0.013   1.675   0.080  0.7494  0.9145 -0.0825
  135SOL     OW  403   1.985   0.930   0.118 -0.1319 -0.5160  0.8248
  135SOL    HW1  404   1.942   1.023   0.111 -3.4256 -1.3440  1.8206
  135SOL    HW2  405   1.948   0.865   0.048  0.3519 -2.7212 -1.6196
  136SOL     OW  406   2.537   2.435   1.689 -0.0231  0.5624 -0.3986
  136SOL    HW1  407   2.567   2.418   1.786  2.8824 -1.3220  0.1853
  136SOL    HW2  408   2.471   2.515   1.682 -1.3776 -2.4485  1.3172
  137SOL     OW  409   2.699   2.903   0.822  0.3496 -0.2274  0.4020
  137SOL    HW1  410   2.680   2.983   0.884  0.2345 -2.1611  0.9961
  137SOL    HW2  411   2.736   2.934   0.731  2.4219  1.1214 -0.5012
  138SOL     OW  412   2.826   0.362   2.106 -0.3904  0.3587  0.0744
  138SOL    HW1  413   2.852   0.263   2.097 -0.1342 -0.5179  0.1083
  138SOL    HW2  414   2.771   0.394   2.025 -0.8377 -2.0320 -1.7443
  139SOL     OW  415   3.267   3.108   3.191 -0.1024  0.4726  0.9303
  139SOL    HW1  416   3.195   3.061   3.249 -0.4793  1.0707  0.4627
  139SOL    HW2  417   3.243   3.097   3.090 -0.2328  0.3494 -0.4268
  140SOL     OW  418   1.739   2.215   3.083  0.2324  0.4518 -0.6028
  140SOL    HW1  419   1.743   2.316   3.062  3.4566 -0.7921  1.4399
  140SOL    HW2  420   1.795   2.160   3.016 -1.3678 -0.6639  2.3180
  141SOL     OW  421   1.713   1.667   2.930  0.0269  0.3659  0.6177
  141SOL    HW1  422   1.671   1.585   2.885 -0.8610 -3.5628 -2.1277
  141SOL    HW2  423   1.754   1.638   3.021  0.5410 -0.4235  0.7991
  142SOL     OW  424   2.433   2.795   2.406 -0.0976 -0.0016  0.0954
  142SOL    HW1  425   2.431   2.700   2.364 -0.7959 -1.5314  0.4333
  142SOL    HW2  426   2.523   2.844   2.394  0.9284 -0.1286  1.1405
  143SOL     OW  427   1.187   2.989   0.579  0.3786  0.7168  0.5231
  143SOL    HW1  428   1.246   2.963   0.659 -1.8504 -0.4897  1.5439
  143SOL    HW2  429   1.149   2.911   0.525 -1.7066  0.3298 -1.4537
  144SOL     OW  430   0.984   3.161   0.659  0.4994 -0.3012 -0.3078
  144SOL    HW1  431   0.971   3.235   0.589  1.7102  0.6518  1.8066
  144SOL    HW2  432   1.066   3.104   0.634  0.0994  0.3931  2.5922
  145SOL     OW  433   2.128   2.623   3.589  0.2308 -0.0508 -0.3359
  145SOL    HW1  434   2.026   2.611   3.576 -1.6171 -0.4809  2.0987
  145SOL    HW2  435   2.159   2.723   3.584  1.3555 -1.1918 -1.0522
  146SOL     OW  436   2.072   2.785   0.358 -0.0799  0.2740  0.3621
  146SOL    HW1  437   2.089   2.855   0.284 -0.8652  0.9844  0.3550
  146SOL    HW2  438   2.094   2.688   0.332  1.1690 -3.2425 -2.3560
  147SOL     OW  439   0.436   2.003   2.296 -0.1177  0.1745 -0.4032
  147SOL    HW1  440   0.427   1.970   2.199 -0.2391  2.5148  2.2477
  147SOL    HW2  441   0.474   2.099   2.298 -3.0228 -0.4782  0.1528
  148SOL     OW  442   1.422   0.030   0.261  0.2030  0.0077 -0.8422
  148SOL    HW1  443   1.464   0.119   0.228  0.5840  1.3139  2.2142
  148SOL    HW2  444   1.343  -0.003   0.203 -0.0284  3.3120  3.4453
  149SOL     OW  445   0.554   2.455   0.219 -0.1841  0.2982  0.1688
  149SOL    HW1  446   0.638   2.478   0.165  0.9133 -0.2067  1.2570
  149SOL    HW2  447   0.469   2.487   0.171 -0.5297 -0.9366  0.3771
  150SOL     OW  448   0.456   3.002   1.455 -0.4548  0.2574  0.3715
  150SOL    HW1  449   0.559   2.987   1.458  1.1231  1.8581 -1.1182
  150SOL    HW2  450   0.437   3.069   1.379  1.7221 -3.2425 -0.3863
  151SOL     OW  451   0.420   1.954   3.450 -0.5644  0.5856 -0.1752
  151SOL    HW1  452   0.468   1.877   3.402 -0.1577 -2.7233  2.2266
  151SOL    HW2  453   0.433   1.947   3.552  0.0176  0.2185 -2.3840
  152SOL     OW  454   3.542   2.275   1.089 -0.3354 -0.0968 -0.1529
  152SOL    HW1  455   3.578   2.220   1.009  2.6718 -1.2986 -1.9038
  152SOL    HW2  456   3.439   2.269   1.099  0.7199 -0.0564  3.4140
  153SOL     OW  457   1.830   2.731   0.781  0.3973 -0.4381 -0.2760
  153SOL    HW1  458   1.924   2.689   0.775 -0.2093 -0.5202  0.0615
  153SOL    HW2  459   1.763   2.658   0.809 -0.6952  2.3410 -0.3449
  154SOL     OW  460   0.990   3.564   1.714 -0.1283 -0.2838  0.2878
  154SOL    HW1  461   1.021   3.466   1.709  0.8032  1.0400 -0.1299
  154SOL    HW2  462   0.888   3.568   1.720  2.4601 -0.6202  0.5061
  155SOL     OW  463   3.113   2.393   0.519  0.6063 -0.5456 -0.5285
  155SOL    HW1  464   3.190   2.448   0.562  2.9890 -0.3950  0.0903
  155SOL    HW2  465   3.062   2.451   0.452 -0.6311  0.6101  1.7095
  156SOL     OW  466   2.945   2.374   0.114  0.0477  0.0696  0.3392
  156SOL    HW1  467   2.902   2.422   0.033  1.2257 -2.8736 -2.1869
  156SOL    HW2  468   2.948   2.440   0.194 -0.6978  0.3911  2.2954
  157SOL     OW  469   0.618   0.188   2.276 -0.0002  0.2236 -0.1654
  157SOL    HW1  470   0.656   0.277   2.314  1.0542  1.6500 -2.1554
  157SOL    HW2  471   0.574   0.135   2.354  3.2633  1.0823 -1.2770
  158SOL     OW  472   1.168   0.713   1.343 -0.3628  0.4674 -0.5128
  158SOL    HW1  473   1.234   0.655   1.290  0.0706  1.2333  0.1059
  158SOL    HW2  474   1.203   0.713   1.440  0.2473  0.1680  1.5416
  159SOL     OW  475   2.291   1.192   3.454 -0.1500 -0.4468  0.0765
  159SOL    HW1  476   2.236   1.130   3.392  0.5535 -1.6336 -1.3129
  159SOL    HW2  477   2.230   1.217   3.535 -1.8239 -2.4897  3.3162
  160SOL     OW  478   1.547   2.054   0.634  0.2167 -0.3343  0.3189
  160SOL    HW1  479   1.617   1.986   0.602  1.5417 -1.6736  1.7035
  160SOL    HW2  480   1.454   2.026   0.599 -0.0533 -0.4739 -3.3868
  161SOL     OW  481   3.280   2.065   3.230  0.2030 -0.1640 -0.2746
  161SOL    HW1  482   3.279   2.144   3.164 -0.1944 -2.6339  3.7523
  161SOL    HW2  483   3.287   2.101   3.327 -2.7068 -0.1823 -1.2454
  162SOL     OW  484   3.599   2.658   1.317  0.3552  0.2161  0.2470
  162SOL    HW1  485   3.674   2.716   1.361 -1.6767  0.4826  0.2807
  162SOL    HW2  486   3.630   2.559   1.319  0.1287 -0.4215 -1.1422
  163SOL     OW  487   0.681   0.977   3.083 -0.0348  0.4424 -0.5232
  163SOL    HW1  488   0.770   1.024   3.109 -2.3094  0.4060  3.4780
  163SOL    HW2  489   0.669   0.893   3.142 -3.6146  2.2650  0.8898
  164SOL     OW  490   0.443   3.087   3.215  0.4694  0.3890  0.1322
  164SOL    HW1  491   0.383   3.056   3.292 -0.2185  0.6434 -1.9303
  164SOL    HW2  492   0.426   3.186   3.190  3.3560  1.4039 -1.0908
  165SOL     OW  493   2.764   1.191   1.726 -0.5091 -0.5177  0.2839
  165SOL    HW1  494   2.778   1.143   1.816  1.7982 -0.2687 -3.9202
  165SOL    HW2  495   2.820   1.278   1.722 -1.3549  1.6287 -1.3464
  166SOL     OW  496   2.486   2.173   1.579 -0.0649  0.3982  0.5553
  166SOL    HW1  497   2.502   2.263   1.624 -0.0806 -0.4250 -0.3575
  166SOL    HW2  498   2.525   2.096   1.634  0.6481 -0.6794 -1.4644
  167SOL     OW  499   0.091   0.922   3.584  0.0691  0.2348  0.1063
  167SOL    HW1  500   0.043   0.967   3.664  0.0771 -1.5878 -2.0435
  167SOL    HW2  501   0.188   0.956   3.582 -0.2304 -1.4862 -0.1327
  168SOL     OW  502   2.588   0.511   3.120  0.1240 -0.5749 -0.8151
  168SOL    HW1  503   2.500   0.508   3.069  2.7340 -1.0618  0.2380
  168SOL    HW2  504   2.604   0.423   3.171  0.0593  1.1075  0.5576
  169SOL     OW  505   0.633   1.449   0.020 -0.0560  0.2432 -0.5051
  169SOL    HW1  506   0.606   1.504   0.103  1.2834  0.2054 -0.6552
  169SOL    HW2  507   0.567   1.454  -0.057 -2.0004 -0.2175 -0.1706
  170SOL     OW  508   1.446   1.074   1.752  0.6405  0.2879  0.5371
  170SOL    HW1  509   1.483   0.991   1.705 -0.1279  0.5020  1.4901
  170SOL    HW2  510   1.514   1.151   1.746 -0.0197 -0.8803 -0.4540
  171SOL     OW  511   1.901   3.192   1.240 -0.5003  0.1833  0.6125
  171SOL    HW1  512   1.875   3.138   1.324 -0.9730  1.6131  0.1181
  171SOL    HW2  513   1.871   3.153   1.150 -1.8716 -0.7073 -0.1104
  172SOL     OW  514   1.189   0.077   2.358  0.0366  0.6904 -0.5791
  172SOL    HW1  515   1.106   0.046   2.305  1.3274 -0.6212 -0.3187
  172SOL    HW2  516   1.265   0.006   2.350 -1.3036  1.6449 -0.1778
  173SOL     OW  517   0.965   2.982   1.155 -0.9572 -0.4828  0.0065
  173SOL    HW1  518   0.977   3.064   1.093 -3.8879 -0.4079 -0.7865
  173SOL    HW2  519   0.867   2.952   1.152 -2.2933 -0.5043  0.6397
  174SOL     OW  520   2.492   0.167   0.306  0.1069 -0.1708 -0.3876
  174SOL    HW1  521   2.395   0.191   0.334 -1.6674  1.0641  1.5607
  174SOL    HW2  522   2.498   0.073   0.266 -1.5718  1.2587  3.7000
  175SOL     OW  523   1.116   1.630   0.812 -0.2006  0.3848 -0.2299
  175SOL    HW1  524   1.145   1.729   0.817 -1.5945  1.2176 -0.4487
  175SOL    HW2  525   1.027   1.616   0.861  0.1861 -0.7411 -0.9714
  176SOL     OW  526   1.140   2.152   1.187 -0.0598 -0.6435  0.0759
  176SOL    HW1  527   1.222   2.212   1.214 -0.2188 -5.0486  0.9070
  176SOL    HW2  528   1.056   2.204   1.159  1.5354  3.8734  2.3237
  177SOL     OW  529   1.524   1.128   1.329  0.4237 -0.1391 -0.7808
  177SOL    HW1  530   1.537   1.025   1.317 -1.1878 -0.3096 -1.0734
  177SOL    HW2  531   1.606   1.168   1.377 -1.0065 -2.1458  1.4856
  178SOL     OW  532   2.731   1.719   0.776  0.0945  0.1398  0.6282
  178SOL    HW1  533   2.712   1.820   0.763 -0.9270 -2.5993  0.1913
  178SOL    HW2  534   2.713   1.669   0.689  0.4676  0.0431 -1.4956
  179SOL     OW  535   1.169   3.324   3.552  0.8408 -0.3781 -0.3403
  179SOL    HW1  536   1.129   3.276   3.634 -2.9841  0.1584  2.0071
  179SOL    HW2  537   1.256   3.282   3.518 -0.8218  1.5373  1.0163
  180SOL     OW  538   2.033   1.402   1.929  0.6679  0.2635 -0.6290
  180SOL    HW1  539   1.974   1.483   1.904 -0.8649  3.5231  0.4164
  180SOL    HW2  540   2.132   1.432   1.942  1.3027 -0.8134 -2.8131
  181SOL     OW  541   0.956   1.134   1.848 -0.1092  0.4309  0.0567
  181SOL    HW1  542   0.941   1.034   1.863  1.1039  1.2517 -0.0458
  181SOL    HW2  543   1.015   1.175   1.923  0.2444  1.0927  0.0898
  182SOL     OW  544   3.331   1.202   0.035  0.0289  0.8005  0.1533
  182SOL    HW1  545   3.394   1.215  -0.047 -2.1700 -0.7361  2.4936
  182SOL    HW2  546   3.281   1.284   0.068  2.1258  3.3757 -0.4412
  183SOL     OW  547   2.245   0.094   2.566 -0.8586 -0.3804 -0.0580
  183SOL    HW1  548   2.282   0.000   2.555 -2.6011  1.3453  0.8303
  183SOL    HW2  549   2.144   0.097   2.550 -2.4045  1.4205  2.4321
  184SOL     OW  550   1.151   0.928   1.082 -0.5949 -0.1916 -0.8156
  184SOL    HW1  551   1.108   0.866   1.011 -1.5264 -0.5910 -0.5931
  184SOL    HW2  552   1.159   0.879   1.172  2.7866  1.5780  1.0193
  185SOL     OW  553   2.418   1.334   0.603 -0.0201 -0.1172  0.4661
  185SOL    HW1  554   2.458   1.312   0.694  0.6809  0.7553  1.3822
  185SOL    HW2  555   2.364   1.421   0.606  0.6598  1.5428  0.0148
  186SOL     OW  556   0.343   2.613   0.527 -0.4771 -0.0790  0.0825
  186SOL    HW1  557   0.361   2.552   0.608  0.3576  0.8761 -0.1674
  186SOL    HW2  558   0.376   2.570   0.437  1.3133  0.2872  0.3769
  187SOL     OW  559   2.014   1.923   3.199 -0.2568  0.2427 -0.3841
  187SOL    HW1  560   2.007   1.984   3.114  0.0462 -2.0221 -1.8099
  187SOL    HW2  561   1.992   1.976   3.285  4.6605 -1.6398 -0.8057
  188SOL     OW  562   1.585   3.464   1.662 -0.6393  0.0656 -0.2760
  188SOL    HW1  563   1.554   3.561   1.668  1.2378  1.0156 -0.3189
  188SOL    HW2  564   1.512   3.397   1.686 -0.0329 -1.8320  1.3312
  189SOL     OW  565   3.367   1.655   2.871 -0.2806  0.4913  0.2774
  189SOL    HW1  566   3.380   1.744   2.922 -0.2292 -1.9368 -0.2324
  189SOL    HW2  567   3.289   1.601   2.913  0.7298  0.4348  1.5591
  190SOL     OW  568   1.202   3.162   2.505 -0.1502  0.1326 -0.8504
  190SOL    HW1  569   1.201   3.069   2.547 -2.0292  1.0174 -0.8649
  190SOL    HW2  570   1.299   3.200   2.501 -2.1472 -1.6229  0.5223
  191SOL     OW  571   2.793   1.039   1.461 -0.3784 -0.4780  0.2479
  191SOL    HW1  572   2.694   1.012   1.446 -1.5861 -3.1021  0.2520
  191SOL    HW2  573   2.803   1.095   1.547 -1.3981 -1.2553  1.0433
  192SOL     OW  574   2.328   0.621   1.276 -0.4631  0.0856  0.4257
  192SOL    HW1  575   2.423   0.583   1.262  0.4386  0.6889  0.2948
  192SOL    HW2  576   2.258   0.571   1.217  0.8602 -0.5486  1.2249
  193SOL     OW  577   1.025   0.060   0.286 -0.4186  0.2966  0.1944
  193SOL    HW1  578   1.029   0.134   0.215 -2.2156 -0.5232 -0.4695
  193SOL    HW2  579   0.981   0.097   0.371  1.7651 -3.3562  1.0184
  194SOL     OW  580   1.985   2.760   1.173 -0.0894  0.3454  0.0954
  194SOL    HW1  581   1.939   2.831   1.113 -1.1118  1.0887 -0.8761
  194SOL    HW2  582   1.916   2.713   1.234 -2.3607  5.1309  0.0937
  195SOL     OW  583   2.823   1.004   0.864  0.0998  0.2091 -0.5247
  195SOL    HW1  584   2.903   1.045   0.813 -1.7265 -0.2330 -3.3062
  195SOL    HW2  585   2.749   1.074   0.879 -2.4447  0.7955  2.4203
  196SOL     OW  586   1.184   2.812   2.091  0.1217 -0.1292 -0.6372
  196SOL    HW1  587   1.203   2.776   1.997 -1.0471  1.1329 -0.9192
  196SOL    HW2  588   1.084   2.827   2.116 -1.2163  0.6931  0.1429
  197SOL     OW  589   3.142   0.342   2.819  0.3303  0.2206  0.3404
  197SOL    HW1  590   3.084   0.426   2.811  0.1456  0.2066 -1.5560
  197SOL    HW2  591   3.079   0.260   2.813 -0.0274  0.8431 -1.1748
  198SOL     OW  592   2.559   1.773   0.339 -0.5298  0.7123 -0.0222
  198SOL    HW1  593   2.637   1.795   0.277 -0.7299 -2.7676  1.5193
  198SOL    HW2  594   2.487   1.715   0.295 -2.6435 -1.0209  0.2557
  199SOL     OW  595   2.796   0.772   2.054 -0.1924  0.3797  0.4260
  199SOL    HW1  596   2.772   0.732   2.148  0.2938 -0.6101 -0.4763
  199SOL    HW2  597   2.783   0.700   1.981 -1.1217  1.3592 -1.4522
  200SOL     OW  598   2.108   3.404   3.502 -0.3340 -0.1057 -0.4970
  200SOL    HW1  599   2.057   3.469   3.565 -1.5164 -0.1741  2.7735
  200SOL    HW2  600   2.209   3.407   3.522  1.8647 -0.7108  0.2401
  201SOL     OW  601   3.143   0.265   1.673 -0.5383 -0.2352  0.3977
  201SOL    HW1  602   3.060   0.219   1.710 -1.2338  1.8301  2.1374
  201SOL    HW2  603   3.113   0.355   1.632  0.5239 -0.8843  2.2175
  202SOL     OW  604   3.215   3.553   0.638  0.2149 -0.1794 -0.7194
  202SOL    HW1  605   3.181   3.620   0.708 -1.1628  2.1985  1.3202
  202SOL    HW2  606   3.317   3.541   0.646 -1.5691  0.7751  1.0888
  203SOL     OW  607   1.747   1.839   0.545 -0.2306 -0.3174  0.2792
  203SOL    HW1  608   1.774   1.769   0.616 -0.3453  1.7160  1.6036
  203SOL    HW2  609   1.815   1.918   0.537 -2.2564 -0.0844  1.9947
  204SOL     OW  610   0.162   2.072   2.580  0.1475 -0.3345  0.4212
  204SOL    HW1  611   0.140   2.170   2.557 -0.2577 -1.4411  0.8505
  204SOL    HW2  612   0.225   2.030   2.508 -1.5937 -1.7410 -2.9368
  205SOL     OW  613   0.572   0.784   1.014  0.2329 -0.0268  0.0206
  205SOL    HW1  614   0.655   0.722   1.022 -0.1337  1.3394  0.9725
  205SOL    HW2  615   0.492   0.739   0.966 -3.0524 -0.1418 -0.4071
  206SOL     OW  616   0.434   1.171   3.065  0.1882 -0.4534  0.4976
  206SOL    HW1  617   0.454   1.256   3.010 -0.0696  1.0860 -0.7264
  206SOL    HW2  618   0.517   1.109   3.075 -1.1798  2.0364  0.2312
  207SOL     OW  619   1.602   2.725   1.790 -0.2927 -0.0272  0.6165
  207SOL    HW1  620   1.639   2.739   1.885 -0.8485 -0.8243 -0.1998
  207SOL    HW2  621   1.556   2.632   1.782  0.5688 -1.7348 -0.5998
  208SOL     OW  622   2.690   0.366   1.196  0.1058  0.2349 -0.2325
  208SOL    HW1  623   2.751   0.299   1.245 -1.0801  0.5301  1.6411
  208SOL    HW2  624   2.634   0.325   1.120  1.1817  1.4351  2.4735
  209SOL     OW  625   2.256   1.169   0.993  0.7321 -0.2354 -0.2184
  209SOL    HW1  626   2.245   1.102   1.071 -0.9539 -2.0107 -1.1043
  209SOL    HW2  627   2.192   1.140   0.916  1.4164 -0.8983 -1.7628
  210SOL     OW  628   2.514   1.272   0.876 -0.7584 -0.1582  0.0667
  210SOL    HW1  629   2.434   1.239   0.933  0.7443  1.4546 -2.2206
  210SOL    HW2  630   2.565   1.346   0.927 -1.3182 -3.1402 -2.5491
  211SOL     OW  631   1.054   3.360   3.274  0.0980 -0.1035 -0.1489
  211SOL    HW1  632   0.978   3.294   3.249 -2.1237  0.6762 -3.2458
  211SOL    HW2  633   1.082   3.355   3.372 -0.1985  0.5038  0.7294
  212SOL     OW  634   2.178   2.048   0.738 -0.3605 -0.1396 -0.3882
  212SOL    HW1  635   2.222   2.103   0.812 -3.0003  0.6262  2.0323
  212SOL    HW2  636   2.246   2.030   0.663 -2.8648 -0.5695  4.3845
  213SOL     OW  637   2.685   3.349   0.268  0.7148 -0.0721  0.1611
  213SOL    HW1  638   2.660   3.251   0.289  1.4171  0.4658 -0.4743
  213SOL    HW2  639   2.734   3.362   0.177  1.8428  1.6711 -1.3911
  214SOL     OW  640   1.465   2.797   2.729 -0.3892 -0.7865 -0.1001
  214SOL    HW1  641   1.562   2.832   2.712  0.5863 -1.8487 -0.0351
  214SOL    HW2  642   1.463   2.703   2.683 -2.0470 -2.8672  1.7859
  215SOL     OW  643   0.397   1.531   1.151 -0.3709  0.0499  0.3624
  215SOL    HW1  644   0.303   1.539   1.191 -0.1188 -1.1664 -0.0605
  215SOL    HW2  645   0.427   1.621   1.111  1.0766 -1.9564 -0.5334
  216SOL     OW  646   0.127   0.104   2.830 -0.0636 -0.3538 -0.8135
  216SOL    HW1  647   0.182   0.168   2.769 -1.3984 -2.4088 -1.5075
  216SOL    HW2  648   0.064   0.042   2.775  0.9016  0.5582  0.7685
  217SOL     OW  649   3.417   1.765   1.725  0.2600  0.1699  0.6127
  217SOL    HW1  650   3.513   1.750   1.692 -0.4456 -0.8845  1.5010
  217SOL    HW2  651   3.393   1.700   1.802  0.5532 -1.4306  1.5951
  218SOL     OW  652   0.810   2.813   2.021 -0.4411  0.3155  0.1189
  218SOL    HW1  653   0.713   2.845   2.025  1.2787 -2.8957 -2.8228
  218SOL    HW2  654   0.829   2.736   2.086 -0.5523 -2.8634 -0.5073
  219SOL     OW  655   2.523   2.261   3.429 -0.3987  0.0605 -0.0965
  219SOL    HW1  656   2.546   2.257   3.328  0.4254  0.7167 -2.5100
  219SOL    HW2  657   2.541   2.170   3.477  0.8046 -1.0301  0.2926
  220SOL     OW  658   2.146   0.255   0.069  0.1838  0.2136  0.4164
  220SOL    HW1  659   2.218   0.233  -0.002  0.7074  2.3946 -1.0477
  220SOL    HW2  660   2.109   0.348   0.048  0.5280 -0.2081 -0.2959
  221SOL     OW  661   3.355   1.248   0.365 -1.0153  0.1517  0.3744
  221SOL    HW1  662   3.330   1.154   0.332 -0.0408  0.2729 -0.9632
  221SOL    HW2  663   3.320   1.317   0.298 -2.0655  0.5036  1.0178
  222SOL     OW  664   1.855   1.647   0.763 -0.3241 -0.3620  0.0621
  222SOL    HW1  665   1.832   1.575   0.833  0.3036 -1.8530 -0.0010
  222SOL    HW2  666   1.924   1.713   0.803  0.6233 -1.3550  0.0102
  223SOL     OW  667   0.944   0.307   3.463 -0.2463  0.4905 -0.8550
  223SOL    HW1  668   1.018   0.266   3.404  2.6605  0.6649 -0.9272
  223SOL    HW2  669   0.931   0.405   3.435  2.1095  0.2241  0.0759
  224SOL     OW  670   1.174   3.387   1.340 -0.2188 -0.1834 -0.3738
  224SOL    HW1  671   1.167   3.487   1.363  1.3717 -0.0346  0.1658
  224SOL    HW2  672   1.094   3.335   1.381 -0.0514 -1.1867 -0.2947
  225SOL     OW  673   1.071   0.170   2.615  0.1343 -0.5924 -0.1776
  225SOL    HW1  674   1.113   0.127   2.531  0.6129  0.3578 -2.6139
  225SOL    HW2  675   1.010   0.099   2.661  1.6456  0.7344  1.0305
  226SOL     OW  676   1.484   1.851   0.944  0.2759 -0.4273  0.5141
  226SOL    HW1  677   1.559   1.922   0.948  4.1135  1.3857 -1.5430
  226SOL    HW2  678   1.531   1.759   0.931  0.8374  0.5841 -0.0238
  227SOL     OW  679   0.188   2.676   1.733  0.3344 -0.2105 -0.3461
  227SOL    HW1  680   0.207   2.693   1.631  0.1415  2.6429  0.5622
  227SOL    HW2  681   0.221   2.583   1.761 -2.5595  0.5053  0.2005
  228SOL     OW  682   0.097   2.209   0.402  0.0184 -0.1169  0.5496
  228SOL    HW1  683   0.068   2.301   0.366 -1.7832 -0.1149  1.0264
  228SOL    HW2  684   0.164   2.218   0.478 -1.2842 -1.0310  0.7486
  229SOL     OW  685   2.860   0.277   3.491  0.2894 -0.2212  0.2051
  229SOL    HW1  686   2.926   0.305   3.417 -2.3518 -1.8704  1.3111
  229SOL    HW2  687   2.896   0.198   3.546 -1.7683  4.3596 -4.0497
  230SOL     OW  688   3.064   1.018   0.449  0.6702 -0.4216  0.0357
  230SOL    HW1  689   3.136   1.008   0.375  2.0203 -0.1775 -1.4926
  230SOL    HW2  690   2.984   1.069   0.407  0.4754 -0.7745 -3.0397
  231SOL     OW  691   1.930   2.084   0.550  0.4533 -0.7407  0.7665
  231SOL    HW1  692   2.010   2.071   0.614 -3.5376 -0.2687 -0.0250
  231SOL    HW2  693   1.929   2.181   0.513  0.6132 -0.6746  1.5744
  232SOL     OW  694   2.102   2.369   1.204  0.4792  0.3224  0.3865
  232SOL    HW1  695   2.155   2.445   1.163  1.6872  2.6192  0.4747
  232SOL    HW2  696   2.150   2.279   1.191  1.3506  0.0692 -0.5949
  233SOL     OW  697   0.687   3.377   2.188  0.0559  0.3095 -0.2717
  233SOL    HW1  698   0.741   3.464   2.198 -2.0559  0.4112 -0.5276
  233SOL    HW2  699   0.674   3.364   2.086 -1.1909 -0.5954  0.0088
  234SOL     OW  700   0.801   0.420   2.865 -0.1506 -0.2699  0.5853
  234SOL    HW1  701   0.855   0.424   2.777 -2.0182 -0.0513  0.7618
  234SOL    HW2  702   0.857   0.465   2.940 -0.4808  0.0186 -0.2791
  235SOL     OW  703   3.077   1.252   2.280 -0.2241  0.2550  0.4295
  235SOL    HW1  704   3.167   1.209   2.307  0.0169  2.8144  0.1891
  235SOL    HW2  705   3.020   1.188   2.222 -0.9860  1.3722 -0.5648
  236SOL     OW  706   1.922   3.256   1.629  0.4474 -0.0041 -0.0154
  236SOL    HW1  707   1.993   3.291   1.563  2.7362  2.1152 -2.5564
  236SOL    HW2  708   1.854   3.331   1.651 -1.5877 -2.2123 -2.3250
  237SOL     OW  709   0.504   1.989   3.009 -0.6159 -0.3188  0.2322
  237SOL    HW1  710   0.578   2.033   2.954  0.4499 -2.6060  0.4206
  237SOL    HW2  711   0.428   1.949   2.951  0.3817  1.0493  0.4355
  238SOL     OW  712   1.397   1.112   2.543  0.2237  0.1990  0.1001
  238SOL    HW1  713   1.458   1.164   2.479 -0.6965  1.4917 -0.4931
  238SOL    HW2  714   1.335   1.047   2.492  0.9025  0.3034 -0.2191
  239SOL     OW  715   0.990   1.987   2.921  0.3564  0.6224  0.2174
  239SOL    HW1  716   0.982   2.020   3.018 -0.6642 -0.7068 -1.4919
  239SOL    HW2  717   1.020   2.061   2.856 -4.2490  0.1403  2.0865
  240SOL     OW  718   2.804   3.037   0.555 -0.5238 -0.2517  0.7623
  240SOL    HW1  719   2.724   3.063   0.495 -0.2996 -1.7570 -0.3863
  240SOL    HW2  720   2.860   3.121   0.581  0.3879  0.6379 -0.0279
  241SOL     OW  721   0.382   1.218   0.161 -0.7024 -0.2267  0.3061
  241SOL    HW1  722   0.382   1.184   0.259  0.4799 -0.4749 -2.4632
  241SOL    HW2  723   0.454   1.291   0.146  1.8710 -0.7818 -0.4312
  242SOL     OW  724   1.800   3.430   1.962  0.1464  0.2681  0.8695
  242SOL    HW1  725   1.729   3.449   1.888 -0.2932 -2.8826  0.2019
  242SOL    HW2  726   1.826   3.331   1.964  1.4240  0.8758  0.0546
  243SOL     OW  727   1.426   3.041   2.132 -0.3950  0.3202  0.3427
  243SOL    HW1  728   1.378   3.131   2.119 -2.8229 -0.4879  0.2894
  243SOL    HW2  729   1.357   2.962   2.128  0.3497 -2.0376  3.4808
  244SOL     OW  730   2.744   0.671   2.942 -0.0651 -0.0156  0.1153
  244SOL    HW1  731   2.715   0.771   2.944 -0.7185 -0.8257  3.0574
  244SOL    HW2  732   2.696   0.613   3.011  0.7835 -1.5629 -1.8848
  245SOL     OW  733   1.791   2.645   1.356 -0.4361 -0.9783 -0.1491
  245SOL    HW1  734   1.812   2.665   1.454 -2.5506 -3.1209  0.8251
  245SOL    HW2  735   1.736   2.558   1.350 -2.4617  1.9409  1.2334
  246SOL     OW  736   1.546   0.309   0.028 -0.5915 -0.3741  0.3141
  246SOL    HW1  737   1.614   0.337   0.099 -0.2570 -3.4767 -1.1360
  246SOL    HW2  738   1.591   0.308  -0.063 -0.5236  1.0841  0.2360
  247SOL     OW  739   2.008   0.408   2.251  0.3692  0.2523 -0.5852
  247SOL    HW1  740   2.083   0.411   2.179  1.2303 -1.5954 -1.2838
  247SOL    HW2  741   2.010   0.327   2.316 -1.6478  2.2426 -0.0108
  248SOL     OW  742   0.015   2.818   1.904  0.6263  0.3696 -0.6430
  248SOL    HW1  743   0.057   2.913   1.909  1.7225  2.4229 -1.3242
  248SOL    HW2  744   0.065   2.753   1.842 -1.0947 -1.5031 -0.8249
  249SOL     OW  745   0.645   0.286   0.445 -0.6131  0.3237 -0.2039
  249SOL    HW1  746   0.545   0.304   0.456  0.9454  2.9065 -2.7331
  249SOL    HW2  747   0.657   0.193   0.404 -0.5541 -0.3328  1.9412
  250SOL     OW  748   2.819   0.208   2.607 -0.0264  0.4767  0.0117
  250SOL    HW1  749   2.742   0.243   2.664 -1.9001  0.3112  2.6120
  250SOL    HW2  750   2.852   0.275   2.537  0.4479 -1.0076  1.8263
  251SOL     OW  751   1.575   0.795   3.627 -0.0610 -0.4105 -0.0376
  251SOL    HW1  752   1.563   0.743   3.716 -1.0533  0.0990 -2.1145
  251SOL    HW2  753   1.500   0.779   3.559 -2.7771 -4.1515 -0.6976
  252SOL     OW  754   1.849   2.921   2.653  0.1338 -0.2851 -0.6576
  252SOL    HW1  755   1.936   2.949   2.704  1.2864  2.5568  0.4149
  252SOL    HW2  756   1.822   2.992   2.582 -0.6876 -1.0177 -0.7646
  253SOL     OW  757   3.280   3.095   0.439  0.2833  0.0120  0.6785
  253SOL    HW1  758   3.217   3.140   0.506  0.5193 -0.6186  1.0406
  253SOL    HW2  759   3.371   3.074   0.482  1.5542  0.9317  0.0210
  254SOL     OW  760   2.494   1.171   1.659 -0.1275  0.3272 -0.1176
  254SOL    HW1  761   2.455   1.261   1.629 -2.0810 -0.6498  1.6460
  254SOL    HW2  762   2.593   1.185   1.683  0.8546 -0.0765  0.6678
  255SOL     OW  763   1.053   3.286   1.718  0.0912  0.1759  0.9862
  255SOL    HW1  764   1.001   3.274   1.630  1.1881  0.7702 -1.9834
  255SOL    HW2  765   1.010   3.224   1.787  0.7462  2.2319 -0.7170
  256SOL     OW  766   2.778   1.953   1.990 -0.2931 -0.1109  0.7505
  256SOL    HW1  767   2.723   1.943   1.903 -1.7997  0.5228 -3.0429
  256SOL    HW2  768   2.868   2.001   1.976 -0.4121  0.9929 -0.3619
  257SOL     OW  769   0.534   2.842   3.066  0.6163  0.5490 -0.1443
  257SOL    HW1  770   0.582   2.783   3.135 -2.4287  0.7648 -1.3436
  257SOL    HW2  771   0.491   2.927   3.105 -0.0694 -2.6740 -2.1308
  258SOL     OW  772   0.691   2.917   1.172  0.0805  0.0531  0.3330
  258SOL    HW1  773   0.623   2.991   1.144  1.5809 -0.0585 -0.8224
  258SOL    HW2  774   0.648   2.821   1.167 -0.3360  1.1720 -0.6465
  259SOL     OW  775   1.708   0.515   3.155 -0.1759  0.2943 -0.0513
  259SOL    HW1  776   1.806   0.513   3.183  1.8447 -0.1551 -2.0024
  259SOL    HW2  777   1.682   0.607   3.118 -1.5245 -0.8731  0.1643
  260SOL     OW  778   0.373   0.406   1.540  0.0945 -0.1657 -0.0223
  260SOL    HW1  779   0.470   0.443   1.551  4.2043  1.1568  0.0929
  260SOL    HW2  780   0.358   0.368   1.443 -0.3522  3.2575  0.8507
  261SOL     OW  781   1.457   0.046   2.782  0.2386  0.1233  0.2110
  261SOL    HW1  782   1.421  -0.051   2.794  2.1984 -1.9816 -0.2419
  261SOL    HW2  783   1.379   0.114   2.784 -0.1097  2.1554 -0.0996
  262SOL     OW  784   1.407   3.470   2.306 -0.0416  0.2818  0.5828
  262SOL    HW1  785   1.428   3.405   2.384 -0.0751 -3.6051  1.1287
  262SOL    HW2  786   1.363   3.423   2.226 -0.7441  1.5756 -1.7098
  263SOL     OW  787   0.775   2.522   0.053 -0.1911  0.6049 -0.6081
  263SOL    HW1  788   0.850   2.591   0.032  0.4744 -0.5810  2.1230
  263SOL    HW2  789   0.789   2.432   0.005 -0.4658  0.3232 -1.1338
  264SOL     OW  790   1.685   2.094   1.199 -0.1139  0.9279 -0.2124
  264SOL    HW1  791   1.772   2.045   1.229  0.5232  1.5581  4.0641
  264SOL    HW2  792   1.677   2.093   1.098 -1.6670  1.0574 -0.7274
  265SOL     OW  793   1.079   2.760   0.435 -0.2494 -0.0044 -0.0020
  265SOL    HW1  794   1.156   2.701   0.397 -2.3431 -4.2558  2.2544
  265SOL    HW2  795   1.006   2.698   0.475  1.2140  0.9721 -0.5370
  266SOL     OW  796   3.228   1.043   1.209 -0.4940 -0.1924  0.3935
  266SOL    HW1  797   3.176   0.979   1.149  1.7908  3.1797 -0.5707
  266SOL    HW2  798   3.282   0.996   1.283 -2.2034  0.3745 -1.3776
  267SOL     OW  799   0.293   1.689   0.328  0.3514 -0.5494  0.3113
  267SOL    HW1  800   0.256   1.704   0.423  1.8799  1.6571 -0.7846
  267SOL    HW2  801   0.215   1.671   0.263 -0.0305 -2.1385 -1.8563
  268SOL     OW  802   1.552   0.650   0.268 -0.6643 -0.1090 -0.4347
  268SOL    HW1  803   1.450   0.643   0.285  1.9929 -0.3181  0.2812
  268SOL    HW2  804   1.590   0.713   0.340 -2.4716  0.2435  0.8320
  269SOL     OW  805   3.033   0.814   2.613 -0.0227 -0.4764 -0.5852
  269SOL    HW1  806   3.044   0.886   2.685  1.1484  0.9457 -0.3395
  269SOL    HW2  807   3.110   0.829   2.545 -1.1521  1.2008  2.3215
  270SOL     OW  808   3.088   1.373   0.865 -0.1494  0.6890  0.1626
  270SOL    HW1  809   3.087   1.449   0.793  0.6308 -2.6003 -2.0211
  270SOL    HW2  810   3.069   1.283   0.816 -0.9450  1.6516 -1.3374
  271SOL     OW  811   0.230   1.385   2.651 -0.1405 -0.2035  0.2936
  271SOL    HW1  812   0.288   1.349   2.575 -2.9346  0.4738 -0.2198
  271SOL    HW2  813   0.201   1.481   2.627 -2.4256  2.2547  0.4609
  272SOL     OW  814   2.963   2.673   2.126  0.0053  0.0637 -0.5141
  272SOL    HW1  815   2.907   2.701   2.208  1.2730  0.8265 -0.0257
  272SOL    HW2  816   3.046   2.620   2.158  3.4650 -0.2573  1.4711
  273SOL     OW  817   0.256   2.971   3.434  0.2876 -0.6805 -0.1488
  273SOL    HW1  818   0.319   2.893   3.457  0.6460 -2.1199  2.0999
  273SOL    HW2  819   0.175   2.943   3.378 -0.8968  2.4103  2.4282
  274SOL     OW  820   0.966   2.620   0.871 -0.0161 -0.8750  0.0467
  274SOL    HW1  821   0.983   2.659   0.965 -0.9433 -2.6791  1.3657
  274SOL    HW2  822   1.052   2.573   0.834 -1.6001 -2.4428 -0.9731
  275SOL     OW  823   1.713   2.509   2.933  0.0874  0.4165 -0.4186
  275SOL    HW1  824   1.749   2.551   2.846  0.0901  1.5234 -2.9874
  275SOL    HW2  825   1.610   2.493   2.930 -1.2244  3.0735  0.7068
  276SOL     OW  826   3.370   2.106   2.413  0.1629 -0.9043 -0.3413
  276SOL    HW1  827   3.314   2.050   2.347 -4.4904 -1.8035  0.4837
  276SOL    HW2  828   3.311   2.140   2.489 -3.0733 -0.1772 -0.7835
  277SOL     OW  829   2.552   0.231   0.985 -0.2755  0.1450 -0.0295
  277SOL    HW1  830   2.625   0.228   0.911 -1.1986  2.9353 -1.1191
  277SOL    HW2  831   2.457   0.243   0.946  0.0634 -0.9561 -0.7349
  278SOL     OW  832   1.677   0.006   2.957  0.2534 -0.5464  0.0805
  278SOL    HW1  833   1.597   0.031   2.897  0.7890  1.2637  0.5775
  278SOL    HW2  834   1.649  -0.004   3.056 -4.2978  0.4884 -2.6690
  279SOL     OW  835   1.377   3.190   1.209  0.3227  0.7227  0.4200
  279SOL    HW1  836   1.375   3.101   1.261 -0.5986  1.5952 -1.8010
  279SOL    HW2  837   1.313   3.261   1.249 -0.8010  0.8260  1.2818
  280SOL     OW  838   1.454   1.283   0.569  0.0688  0.7507  0.1431
  280SOL    HW1  839   1.389   1.205   0.590  0.5298 -0.1440  1.9474
  280SOL    HW2  840   1.470   1.335   0.657  0.3793  1.6287  1.3463
  281SOL     OW  841   2.435   2.021   0.541  0.0240 -0.5048 -0.1903
  281SOL    HW1  842   2.513   2.043   0.605  0.5450  0.8345  0.6731
  281SOL    HW2  843   2.464   1.944   0.477  0.2035  0.7699  0.3109
  282SOL     OW  844   3.350   1.686   0.656  0.1723  0.0257  0.2158
  282SOL    HW1  845   3.256   1.716   0.626  1.0809  0.9199 -0.5438
  282SOL    HW2  846   3.423   1.705   0.588 -1.4998 -1.2689  1.1077
  283SOL     OW  847   2.046   2.983   3.452  0.1763  0.0260 -0.4503
  283SOL    HW1  848   1.978   2.920   3.406  2.7175  2.7256 -0.1841
  283SOL    HW2  849   2.069   3.065   3.393  1.2690  0.7261  0.0263
  284SOL     OW  850   0.496   0.502   2.844 -0.3986 -0.1625  0.0787
  284SOL    HW1  851   0.594   0.476   2.863  2.2838 -0.4947 -0.7980
  284SOL    HW2  852   0.440   0.500   2.932 -1.0696  1.5323  1.2049
  285SOL     OW  853   2.363   1.615   0.224  0.0574 -0.1792 -0.1652
  285SOL    HW1  854   2.336   1.629   0.125  0.1875  0.5177  1.2468
  285SOL    HW2  855   2.345   1.519   0.254 -3.1184  0.5664 -1.4207
  286SOL     OW  856   1.179   2.277   1.960  0.1706  0.1543 -0.6351
  286SOL    HW1  857   1.249   2.207   1.987 -0.3335  2.3314  0.4637
  286SOL    HW2  858   1.207   2.326   1.872  0.7977  1.6025 -1.7274
  287SOL     OW  859   2.082   3.348   1.411  0.3155 -0.4169  0.4888
  287SOL    HW1  860   2.023   3.303   1.339 -0.3394 -1.7243 -2.6101
  287SOL    HW2  861   2.116   3.440   1.380 -0.4879 -1.0215  0.1316
  288SOL     OW  862   0.648   3.107   2.280  0.4850  0.2533  0.4625
  288SOL    HW1  863   0.668   3.205   2.260 -1.8648 -0.1900  0.4318
  288SOL    HW2  864   0.548   3.083   2.265  2.7925 -1.9945 -0.1200
  289SOL     OW  865   3.601   2.083   0.867 -0.1649 -0.0169 -0.1801
  289SOL    HW1  866   3.558   1.991   0.882 -0.6632  1.8469  1.2527
  289SOL    HW2  867   3.543   2.142   0.805  1.9929 -1.7086 -0.2879
  290SOL     OW  868   0.859   2.567   2.206  0.2004  0.0785 -0.0290
  290SOL    HW1  869   0.893   2.476   2.170  0.9013  0.9785  0.2963
  290SOL    HW2  870   0.861   2.570   2.308 -1.6021 -0.9645 -1.9899
  291SOL     OW  871   2.216   0.236   0.351  0.1005 -0.7554  0.4940
  291SOL    HW1  872   2.174   0.323   0.390 -0.3869  0.0894 -1.9048
  291SOL    HW2  873   2.190   0.230   0.252 -2.4154  1.6563  1.6703
  292SOL     OW  874   0.725   0.388   1.835  0.8335 -0.3082  0.6367
  292SOL    HW1  875   0.645   0.328   1.864 -1.0539 -0.0276 -1.3146
  292SOL    HW2  876   0.805   0.378   1.899  1.9131 -2.8262 -1.6415
  293SOL     OW  877   2.570   1.592   1.313 -0.2422 -0.1746  0.1752
  293SOL    HW1  878   2.658   1.623   1.358 -1.0313  0.1471 -0.6065
  293SOL    HW2  879   2.583   1.560   1.215 -0.2060 -0.6613  3.4808
  294SOL     OW  880   0.470   0.381   2.584 -0.0231  0.2974 -0.1750
  294SOL    HW1  881   0.390   0.416   2.532  2.3958 -0.9805  0.8251
  294SOL    HW2  882   0.470   0.422   2.678 -2.0036  0.4311  1.7508
  295SOL     OW  883   1.194   1.697   0.362  0.4696 -0.0042 -0.4814
  295SOL    HW1  884   1.264   1.625   0.341 -2.8610 -1.0165 -0.8043
  295SOL    HW2  885   1.124   1.653   0.424 -2.0199 -3.1473  0.2232
  296SOL     OW  886   2.188   1.287   1.379  0.3446 -0.0040  0.2852
  296SOL    HW1  887   2.187   1.332   1.285  0.6849 -1.6427  0.1400
  296SOL    HW2  888   2.255   1.336   1.441 -1.0236  1.0629  0.2595
  297SOL     OW  889   2.129   0.981   2.915  0.0966  0.4227  0.0447
  297SOL    HW1  890   2.231   0.978   2.904  0.1076 -0.3832  2.2544
  297SOL    HW2  891   2.092   1.052   2.851 -0.0293 -0.0856  1.0418
  298SOL     OW  892   1.053   0.602   3.055  1.0444 -0.3233 -0.3354
  298SOL    HW1  893   1.113   0.555   3.123 -2.8712  0.1550 -1.7116
  298SOL    HW2  894   1.101   0.651   2.977 -0.5971  0.3595 -1.2153
  299SOL     OW  895   1.562   0.420   2.409 -0.4422 -0.5734  0.1285
  299SOL    HW1  896   1.465   0.406   2.379 -0.2192  1.6246 -1.7724
  299SOL    HW2  897   1.569   0.485   2.488 -0.7910 -2.6577  0.2960
  300SOL     OW  898   2.937   0.049   2.153 -0.8967  0.2936  0.8026
  300SOL    HW1  899   2.921  -0.018   2.077 -0.0449 -0.8706 -1.0850
  300SOL    HW2  900   3.032   0.089   2.149  3.3780  1.6521 -2.1679
  301SOL     OW  901   2.154   0.988   1.978 -0.0853  0.3509  0.2569
  301SOL    HW1  902   2.075   1.051   1.962  1.5503  0.2432  0.0294
  301SOL    HW2  903   2.178   0.988   2.078 -0.6907  0.3148  2.7919
  302SOL     OW  904   0.802   3.313   2.915  0.2716  0.5912  0.5227
  302SOL    HW1  905   0.729   3.284   2.848 -0.2670 -0.5557  0.5362
  302SOL    HW2  906   0.894   3.317   2.867 -0.8841 -0.4307 -0.3086
  303SOL     OW  907   1.937   2.267   1.971 -0.5951 -0.3474 -0.1633
  303SOL    HW1  908   1.996   2.253   1.889 -2.3839  1.7318 -0.3838
  303SOL    HW2  909   1.839   2.250   1.949 -3.8336 -0.5306 -0.2623
  304SOL     OW  910   0.240   3.355   0.814  0.5307  0.6002 -0.0021
  304SOL    HW1  911   0.308   3.285   0.785 -0.6776  1.8683 -0.4017
  304SOL    HW2  912   0.151   3.310   0.841 -0.7793  1.5269  2.2618
  305SOL     OW  913   1.670   0.820   0.472 -0.0139  0.3396  0.6023
  305SOL    HW1  914   1.680   0.921   0.453  3.2301 -2.7105 -1.8958
  305SOL    HW2  915   1.647   0.801   0.570 -0.6899  1.7637  0.9194
  306SOL     OW  916   0.441   1.935   0.152 -0.8175 -0.1920  0.2989
  306SOL    HW1  917   0.536   1.955   0.190 -3.0964  1.3142  1.3111
  306SOL    HW2  918   0.390   1.861   0.203  0.6640 -0.0777 -0.9921
  307SOL     OW  919   0.665   1.192   2.115 -0.3595  0.2563  0.2197
  307SOL    HW1  920   0.666   1.228   2.017 -0.3157 -1.4136 -2.0322
  307SOL    HW2  921   0.633   1.093   2.111  1.3572  1.2320  0.9328
  308SOL     OW  922   0.830   0.201   1.341 -0.1738  0.2706  0.2804
  308SOL    HW1  923   0.776   0.238   1.262 -1.8094 -0.2660  0.8794
  308SOL    HW2  924   0.845   0.274   1.411 -0.5594  0.7231  2.4702
  309SOL     OW  925   2.488   0.913   0.115 -0.0606 -0.1785  0.0652
  309SOL    HW1  926   2.577   0.866   0.134  0.2381  2.9695  1.1277
  309SOL    HW2  927   2.508   0.985   0.045  3.3093 -0.7478 -1.3527
  310SOL     OW  928   1.372   1.257   0.098  0.9304  0.2081 -1.0010
  310SOL    HW1  929   1.306   1.287   0.025 -1.7764  0.8086 -1.0492
  310SOL    HW2  930   1.374   1.330   0.171  0.6238  1.7443  0.1824
  311SOL     OW  931   2.038   2.692   2.986  0.4572 -0.4130 -0.1770
  311SOL    HW1  932   1.961   2.663   2.921 -1.1868 -1.0012 -0.1116
  311SOL    HW2  933   2.094   2.766   2.935  1.2898  0.2381  1.3720
  312SOL     OW  934   2.439   3.539   3.538 -0.0915  0.1980  0.5776
  312SOL    HW1  935   2.410   3.636   3.519 -1.6611  2.3739  0.7826
  312SOL    HW2  936   2.451   3.528   3.639  0.1651  0.3998 -1.5659
  313SOL     OW  937   0.436   0.479   0.704 -0.5052 -0.2127  0.3078
  313SOL    HW1  938   0.382   0.535   0.771 -1.8648  2.6944  1.1797
  313SOL    HW2  939   0.506   0.535   0.651  0.8891  0.8517 -0.2036
  314SOL     OW  940   3.034   1.553   3.439 -0.5981  0.0592  0.0823
  314SOL    HW1  941   3.059   1.489   3.361 -0.3617 -1.8680  0.0584
  314SOL    HW2  942   3.077   1.645   3.423  0.7162 -0.0506 -2.8878
  315SOL     OW  943   2.220   1.001   2.272  0.1363 -0.0128 -0.5916
  315SOL    HW1  944   2.230   0.927   2.343 -0.9134 -2.0096  0.8996
  315SOL    HW2  945   2.190   1.090   2.314  1.9518 -1.3756  1.6407
  316SOL     OW  946   0.058   1.033   1.039  0.5643  0.4087 -0.2072
  316SOL    HW1  947  -0.023   1.096   1.039 -0.0380 -0.8301 -3.3017
  316SOL    HW2  948   0.090   1.017   0.942  1.5523  1.7833 -0.6654
  317SOL     OW  949   0.483   0.345   0.100  0.2715 -0.6522 -0.2178
  317SOL    HW1  950   0.470   0.316   0.199  0.1076 -1.3006  1.5431
  317SOL    HW2  951   0.559   0.291   0.055  1.7913  0.4623  0.4933
  318SOL     OW  952   3.101   3.322   1.596 -0.0468 -0.1685 -0.3481
  318SOL    HW1  953   3.095   3.238   1.538 -0.2981  2.8180 -1.6608
  318SOL    HW2  954   3.080   3.303   1.696  1.3064 -0.1327  3.6735
  319SOL     OW  955   1.452   2.072   0.230 -0.0137 -0.3624 -0.2427
  319SOL    HW1  956   1.420   2.164   0.198 -0.1638  0.5841  0.1720
  319SOL    HW2  957   1.403   2.046   0.316  0.5277  1.7129  0.7427
  320SOL     OW  958   0.764   2.505   1.244  0.0827  0.1226 -0.1139
  320SOL    HW1  959   0.782   2.525   1.343 -0.0432  0.4831 -0.1368
  320SOL    HW2  960   0.684   2.562   1.213  0.4767  3.5541  4.0506
  321SOL     OW  961   2.594   2.713   2.897 -0.3288  0.4799 -0.9121
  321SOL    HW1  962   2.510   2.738   2.844 -0.5873  2.0596  0.4070
  321SOL    HW2  963   2.670   2.695   2.830  0.5054 -1.7099 -1.7376
  322SOL     OW  964   3.455   2.946   2.753  0.0293 -0.1428  0.0464
  322SOL    HW1  965   3.510   2.917   2.836  1.1923  2.6849 -2.4808
  322SOL    HW2  966   3.376   3.001   2.792 -3.4992 -1.3809 -3.4891
  323SOL     OW  967   3.239   0.419   1.020  0.1594  0.0985  0.4878
  323SOL    HW1  968   3.318   0.464   0.972  1.5749 -0.0322  0.0016
  323SOL    HW2  969   3.150   0.448   0.976  1.7696 -0.8714  0.8571
  324SOL     OW  970   2.970   2.091   2.763  0.2448 -0.2308  0.2035
  324SOL    HW1  971   2.952   2.051   2.669  1.1962  0.5931 -1.8475
  324SOL    HW2  972   2.956   2.019   2.836  0.6449  2.5688  0.7406
  325SOL     OW  973   1.923   0.529   2.747 -0.5401  0.0836 -0.3968
  325SOL    HW1  974   1.936   0.600   2.820 -0.0847  1.3091  0.1602
  325SOL    HW2  975   1.958   0.555   2.655 -0.5062  0.3305 -0.1930
  326SOL     OW  976   3.369   2.541   0.682  0.1300 -0.6738  0.0316
  326SOL    HW1  977   3.333   2.585   0.768  2.5244  3.6138 -1.4775
  326SOL    HW2  978   3.452   2.593   0.650 -0.9640  0.1256 -2.5768
  327SOL     OW  979   3.024   0.003   3.625 -0.0036  0.0592  0.5971
  327SOL    HW1  980   2.951  -0.070   3.639 -2.4193 -1.1348  0.1016
  327SOL    HW2  981   3.098  -0.033   3.565 -0.3637 -0.4894 -2.0866
  328SOL     OW  982   1.034   0.731   0.894  0.0159 -0.0629 -0.0950
  328SOL    HW1  983   0.984   0.755   0.808  2.9801 -0.8697 -1.2075
  328SOL    HW2  984   1.123   0.688   0.869 -0.7137 -0.9945  0.7945
  329SOL     OW  985   2.412   0.944   1.836 -0.0469 -0.2199 -0.0064
  329SOL    HW1  986   2.327   0.963   1.892 -1.4926 -0.2166 -0.1494
  329SOL    HW2  987   2.439   1.025   1.778 -1.7402 -1.0399 -2.8265
  330SOL     OW  988   1.547   0.290   0.711  0.2723 -0.1681 -0.0609
  330SOL    HW1  989   1.508   0.385   0.726 -1.5718  0.8696 -1.0737
  330SOL    HW2  990   1.638   0.304   0.666  0.7296 -2.1899  2.0699
  331SOL     OW  991   0.613   2.307   2.308  0.3439  0.0996 -0.4569
  331SOL    HW1  992   0.687   2.319   2.235  1.0343  3.0785  2.6825
  331SOL    HW2  993   0.570   2.394   2.343 -0.0813  0.2178  1.9072
  332SOL     OW  994   2.621   2.334   1.976  0.2653  0.1731  0.1436
  332SOL    HW1  995   2.584   2.260   2.039  1.8180 -1.7674  0.6267
  332SOL    HW2  996   2.725   2.328   1.981  0.0721 -3.8750  2.1780
  333SOL     OW  997   3.408   3.593   1.080  0.2894  0.7759 -0.7943
  333SOL    HW1  998   3.334   3.651   1.124 -0.5181 -0.0808 -1.8597
  333SOL    HW2  999   3.450   3.643   1.002 -0.5267  0.1885 -0.4555
  334SOL     OW 1000   3.389   1.902   1.223  0.3093  0.3477  0.6320
  334SOL    HW1 1001   3.484   1.906   1.265  1.3388  0.1509 -1.3695
  334SOL    HW2 1002   3.394   1.858   1.130  0.8363 -1.0387  1.0894
  335SOL     OW 1003   0.641   3.532   3.027  0.0630  0.3653 -0.2394
  335SOL    HW1 1004   0.557   3.493   3.068 -1.6499  1.4770  0.3663
  335SOL    HW2 1005   0.701   3.457   2.988  0.1627 -1.6018 -0.4128
  336SOL     OW 1006   0.186   3.169   1.867 -0.0920  0.1361 -0.2329
  336SOL    HW1 1007   0.123   3.207   1.795 -1.2966 -2.8839  0.2880
  336SOL    HW2 1008   0.162   3.205   1.961  0.6981 -0.5018  0.2916
  337SOL     OW 1009   1.030   2.213   2.722 -0.1290  0.3031  0.1141
  337SOL    HW1 1010   1.041   2.295   2.783  1.2610  2.3656  1.4261
  337SOL    HW2 1011   0.948   2.224   2.660 -0.6148  1.7519  0.6293
  338SOL     OW 1012   1.376   3.395   2.863 -0.2218 -0.2691 -0.0839
  338SOL    HW1 1013   1.470   3.358   2.843 -3.0228 -2.5162  1.3494
  338SOL    HW2 1014   1.351   3.378   2.962 -0.9884 -1.7247 -0.6831
  339SOL     OW 1015   3.591   1.755   3.547 -0.0300  0.2787  0.5956
  339SOL    HW1 1016   3.584   1.689   3.468  1.5503  2.0191 -1.5746
  339SOL    HW2 1017   3.643   1.839   3.520  0.9955 -0.6907  3.0479
  340SOL     OW 1018   2.294   0.643   1.570  0.3979 -0.0539  0.3486
  340SOL    HW1 1019   2.312   0.634   1.469  1.7274  1.2567  0.6241
  340SOL    HW2 1020   2.383   0.656   1.621 -0.4934 -0.7457  1.4659
  341SOL     OW 1021   2.214   1.441   1.106  0.1330  0.2125  0.2312
  341SOL    HW1 1022   2.249   1.509   1.038 -0.5533 -2.1385 -2.6169
  341SOL    HW2 1023   2.221   1.346   1.067 -0.8830 -2.4590  0.8202
  342SOL     OW 1024   2.591   2.571   3.148 -0.1881  0.3539 -0.4350
  342SOL    HW1 1025   2.599   2.470   3.135 -0.7063 -2.1092 -3.3129
  342SOL    HW2 1026   2.596   2.616   3.056  1.8194  1.3871 -1.0432
  343SOL     OW 1027   3.524   3.100   1.250 -0.2022  0.7457  0.1842
  343SOL    HW1 1028   3.508   3.012   1.199  1.4863 -0.0372  0.1552
  343SOL    HW2 1029   3.543   3.080   1.348  0.7621  0.4196  0.2817
  344SOL     OW 1030   3.082   3.196   0.971  0.1271 -0.2066 -0.0994
  344SOL    HW1 1031   3.007   3.229   1.034  2.6302 -0.3460  0.9818
  344SOL    HW2 1032   3.175   3.230   1.000  2.9669 -0.5749  0.6086
  345SOL     OW 1033   2.928   2.569   0.351 -0.1218  0.4443 -0.0281
  345SOL    HW1 1034   2.826   2.557   0.362  0.2243 -1.1413  0.6024
  345SOL    HW2 1035   2.955   2.668   0.343 -1.3515 -0.8323  2.0033
  346SOL     OW 1036   1.269   2.698   2.416  0.1932  0.3046  0.5699
  346SOL    HW1 1037   1.236   2.774   2.479 -0.4431 -0.7975 -1.5048
  346SOL    HW2 1038   1.250   2.720   2.317 -0.8485  1.5130  0.4006
  347SOL     OW 1039   1.999   2.277   2.653  0.4298 -0.0260 -0.0304
  347SOL    HW1 1040   1.970   2.375   2.676  0.3911  0.3879 -1.2557
  347SOL    HW2 1041   1.991   2.260   2.552 -0.8830 -4.7175 -0.2884
  348SOL     OW 1042   0.472   2.194   1.378 -0.0082  0.6346  0.2055
  348SOL    HW1 1043   0.427   2.270   1.326  1.0781  1.3467  0.6094
  348SOL    HW2 1044   0.574   2.201   1.365  0.3163  2.6997 -0.1416
  349SOL     OW 1045   1.870   1.617   1.855  0.3718 -0.8235  0.3195
  349SOL    HW1 1046   1.923   1.698   1.820 -0.8029 -1.2422  0.2992
  349SOL    HW2 1047   1.785   1.600   1.801 -0.1977  1.4480 -1.8597
  350SOL     OW 1048   2.621   2.573   0.708  0.2617 -1.0094  0.1156
  350SOL    HW1 1049   2.524   2.557   0.737 -0.8016 -0.2364  1.1886
  350SOL    HW2 1050   2.652   2.662   0.751 -1.0298 -0.7193 -1.1834
  351SOL     OW 1051   0.511   0.184   1.987 -0.5179  0.1392 -0.0802
  351SOL    HW1 1052   0.547   0.178   2.083  1.6654  0.8654  0.9858
  351SOL    HW2 1053   0.409   0.170   1.990  2.3143 -2.6041 -0.1101
  352SOL     OW 1054   0.671   1.294   0.380 -0.0495  0.1771  0.1152
  352SOL    HW1 1055   0.635   1.388   0.362  1.4420  0.3701  0.8289
  352SOL    HW2 1056   0.720   1.252   0.300 -1.3053 -0.5677  0.6075
  353SOL     OW 1057   0.860   1.677   3.268  0.0546  0.6263  0.0698
  353SOL    HW1 1058   0.905   1.765   3.238 -1.5460 -1.8680 -2.8825
  353SOL    HW2 1059   0.877   1.594   3.208 -1.0124  0.6091 -0.3248
  354SOL     OW 1060   2.068   2.728   2.135 -0.2467  0.4684 -0.1278
  354SOL    HW1 1061   2.099   2.823   2.108  0.3679  1.4498 -1.2182
  354SOL    HW2 1062   2.141   2.679   2.191 -2.3272 -0.8491 -0.5088
  355SOL     OW 1063   2.672   0.963   3.304 -0.6586  0.0014  0.3046
  355SOL    HW1 1064   2.676   0.864   3.333 -1.2250  0.6659  1.4337
  355SOL    HW2 1065   2.631   0.972   3.209 -0.7251  0.7764  2.2175
  356SOL     OW 1066   0.831   2.528   1.575 -0.3640  0.3042  0.2792
  356SOL    HW1 1067   0.872   2.617   1.609  0.5216  0.2537  1.7082
  356SOL    HW2 1068   0.777   2.483   1.649  0.6598 -0.8043  1.4268
  357SOL     OW 1069   0.194   0.180   2.048 -0.4073  0.6916  0.0130
  357SOL    HW1 1070   0.146   0.138   2.129  0.3131 -0.9773  2.0484
  357SOL    HW2 1071   0.188   0.284   2.042 -0.3817 -1.3862  3.1068
  358SOL     OW 1072   3.023   2.309   1.762 -0.2413 -0.1603  0.3155
  358SOL    HW1 1073   3.022   2.242   1.684 -1.2364 -0.0422 -3.6159
  358SOL    HW2 1074   3.021   2.406   1.727  0.7489  0.9380 -0.8767
  359SOL     OW 1075   2.566   2.189   2.595  0.3244 -0.0343  0.8059
  359SOL    HW1 1076   2.478   2.213   2.640  2.1478 -2.2497  0.4060
  359SOL    HW2 1077   2.599   2.268   2.535 -0.8805 -3.2305  0.0838
  360SOL     OW 1078   1.548   3.192   0.985  0.0402 -0.4517  0.4924
  360SOL    HW1 1079   1.487   3.188   1.067  1.3003 -0.0626 -1.0819
  360SOL    HW2 1080   1.567   3.289   0.956 -0.7449  1.7537  2.2378
  361SOL     OW 1081   2.459   3.493   0.192 -0.1333  0.2830 -0.5893
  361SOL    HW1 1082   2.375   3.441   0.221  1.3044 -0.2536 -1.3010
  361SOL    HW2 1083   2.546   3.449   0.223  0.2156 -0.6024 -1.8217
  362SOL     OW 1084   2.100   0.845   1.668  0.0433  0.1963 -0.4028
  362SOL    HW1 1085   2.139   0.881   1.756 -1.1158  0.0241 -1.2075
  362SOL    HW2 1086   2.157   0.767   1.634 -0.1751 -0.7696  1.8076
  363SOL     OW 1087   2.050   1.765   2.560 -0.1845 -0.2634  0.1186
  363SOL    HW1 1088   1.973   1.791   2.622  0.9405 -2.2686 -0.8393
  363SOL    HW2 1089   2.140   1.765   2.612 -1.4751  2.8452 -0.9918
  364SOL     OW 1090   0.691   0.698   1.791  0.1255  0.9483 -0.3069
  364SOL    HW1 1091   0.692   0.597   1.804 -1.5519 -1.9569 -0.5810
  364SOL    HW2 1092   0.657   0.725   1.698 -2.0161 -4.6959  2.9611
  365SOL     OW 1093   1.099   0.881   3.283  0.0507  0.1923  0.0912
  365SOL    HW1 1094   1.074   0.844   3.190 -1.3247 -1.8118 -1.0564
  365SOL    HW2 1095   1.075   0.982   3.290  1.2513 -2.8957  0.3459
  366SOL     OW 1096   2.647   1.355   3.145  0.0221 -0.0946 -0.5030
  366SOL    HW1 1097   2.722   1.309   3.199  1.9885  2.4504 -0.6119
  366SOL    HW2 1098   2.577   1.389   3.212 -2.9183  2.7018 -0.5530
  367SOL     OW 1099   0.020   3.081   2.618  0.3218  0.6154  0.1921
  367SOL    HW1 1100  -0.054   3.030   2.669  1.0233  1.4936 -0.8619
  367SOL    HW2 1101  -0.022   3.147   2.549 -3.2955  0.5101  1.2259
  368SOL     OW 1102   3.533   1.294   1.649 -1.0730 -0.0277 -0.1172
  368SOL    HW1 1103   3.440   1.315   1.611  1.9450  1.2623  1.3463
  368SOL    HW2 1104   3.529   1.290   1.752  1.6452 -1.4944  1.5587
  369SOL     OW 1105   0.476   3.466   2.516 -0.0130 -0.0916 -0.3282
  369SOL    HW1 1106   0.528   3.434   2.432  1.1734 -2.7386  2.4008
  369SOL    HW2 1107   0.507   3.557   2.550  0.6830 -1.2665 -1.9743
  370SOL     OW 1108   3.253   0.285   0.636 -0.2184 -0.3057 -0.5493
  370SOL    HW1 1109   3.195   0.368   0.614  0.7397 -0.0140 -0.6070
  370SOL    HW2 1110   3.207   0.219   0.701  1.7619  2.0838  0.3619
  371SOL     OW 1111   0.924   2.757   1.716  0.3495 -0.2569 -1.2299
  371SOL    HW1 1112   1.025   2.746   1.731 -1.6350  0.8899 -1.3260
  371SOL    HW2 1113   0.872   2.775   1.803  0.3815 -1.9368  1.3727
  372SOL     OW 1114   2.630   0.311   2.782  0.2828 -0.2695 -0.0316
  372SOL    HW1 1115   2.648   0.386   2.854  0.7648 -0.4736  3.5899
  372SOL    HW2 1116   2.529   0.286   2.794 -2.9526 -0.8672  0.9211
  373SOL     OW 1117   0.195   2.643   0.926  0.3202  0.0351  0.0253
  373SOL    HW1 1118   0.236   2.707   0.998 -1.0668  0.3058  1.0063
  373SOL    HW2 1119   0.114   2.597   0.969  1.3061 -0.9720  0.7438
  374SOL     OW 1120   3.397   0.395   2.638 -0.3861  0.2085 -0.0685
  374SOL    HW1 1121   3.312   0.366   2.688  1.3667  0.5990 -0.8764
  374SOL    HW2 1122   3.459   0.436   2.708  0.2651 -1.6439 -0.9395
  375SOL     OW 1123   0.696   0.722   3.303  0.7128 -0.3699 -0.2470
  375SOL    HW1 1124   0.635   0.639   3.289  0.5588  0.2410 -1.5101
  375SOL    HW2 1125   0.785   0.698   3.346 -1.6784  1.5557 -0.3282
  376SOL     OW 1126   3.404   2.748   2.049 -0.3346 -0.2070 -0.2535
  376SOL    HW1 1127   3.490   2.757   1.993  1.6055  3.5231 -0.9072
  376SOL    HW2 1128   3.318   2.771   1.997 -1.2124 -0.7650  0.5203
  377SOL     OW 1129   1.256   0.483   3.220  0.3926  0.1688  0.9332
  377SOL    HW1 1130   1.229   0.389   3.249 -0.7262  1.4736  2.6949
  377SOL    HW2 1131   1.323   0.480   3.143 -1.1909 -0.4967  0.8791
  378SOL     OW 1132   3.529   1.274   3.355  0.2500 -0.3813  0.2987
  378SOL    HW1 1133   3.614   1.220   3.329  2.0946  2.0392  0.2564
  378SOL    HW2 1134   3.445   1.230   3.311  0.1018 -0.7997 -1.0649
  379SOL     OW 1135   1.635   0.773   3.038 -0.2407 -0.4554 -0.0592
  379SOL    HW1 1136   1.570   0.758   2.957  0.3581  1.3183  1.3226
  379SOL    HW2 1137   1.601   0.847   3.102  2.4076  0.8961 -0.4422
  380SOL     OW 1138   0.282   2.406   1.866  0.4658  0.4316  0.0683
  380SOL    HW1 1139   0.343   2.463   1.928  1.3951 -0.4427  0.7815
  380SOL    HW2 1140   0.188   2.402   1.905  1.6452  1.3064  3.7236
  381SOL     OW 1141   3.604   1.579   3.316 -0.2646 -0.1158  0.2876
  381SOL    HW1 1142   3.640   1.594   3.221 -0.7858  1.5924  2.6382
  381SOL    HW2 1143   3.573   1.480   3.328 -1.1961 -0.1147 -0.5558
  382SOL     OW 1144   2.319   2.558   0.793  0.1571  0.4011 -0.3997
  382SOL    HW1 1145   2.235   2.508   0.756  2.7318 -0.5721  2.6571
  382SOL    HW2 1146   2.307   2.566   0.896  3.2719 -0.6815 -1.1232
  383SOL     OW 1147   0.722   1.978   0.264 -0.1261  0.1484 -0.0402
  383SOL    HW1 1148   0.806   1.992   0.207 -3.6423 -1.5164  1.4060
  383SOL    HW2 1149   0.745   1.908   0.336  0.4356 -0.1854  1.8025
  384SOL     OW 1150   0.972   2.862   2.845 -0.5929 -0.2035 -0.4208
  384SOL    HW1 1151   0.877   2.891   2.816 -1.4307 -1.0969 -1.2468
  384SOL    HW2 1152   0.969   2.761   2.865 -3.4850 -0.7524 -0.1525
  385SOL     OW 1153   2.831   2.312   0.742 -0.0252 -0.2344  0.7062
  385SOL    HW1 1154   2.770   2.397   0.738 -1.4181 -1.8330  1.9310
  385SOL    HW2 1155   2.917   2.323   0.686 -1.7832 -2.4872 -0.9784
  386SOL     OW 1156   2.821   0.649   1.158  0.1610 -0.0512 -0.2548
  386SOL    HW1 1157   2.787   0.555   1.185 -1.9051  0.3475 -0.3101
  386SOL    HW2 1158   2.784   0.680   1.066 -3.2392  0.2651  1.4567
  387SOL     OW 1159   0.779   1.152   2.383 -0.2023  0.1964 -0.5138
  387SOL    HW1 1160   0.718   1.185   2.458  1.5103 -1.2165 -2.5537
  387SOL    HW2 1161   0.736   1.171   2.292 -0.2527 -1.0969  0.1299
  388SOL     OW 1162   1.230   1.745   2.918 -0.5235  0.2214 -0.2811
  388SOL    HW1 1163   1.147   1.804   2.914  0.5709  0.3654  1.4021
  388SOL    HW2 1164   1.319   1.795   2.911 -1.8272  0.9317 -1.0339
  389SOL     OW 1165   1.235   1.475   2.092 -0.1395 -0.4397 -0.1917
  389SOL    HW1 1166   1.189   1.383   2.091 -2.2809 -1.2616  1.8080
  389SOL    HW2 1167   1.210   1.535   2.012 -1.0180 -2.2605 -2.8022
  390SOL     OW 1168   0.035   3.605   1.225  0.4847 -0.1022  0.1808
  390SOL    HW1 1169  -0.061   3.592   1.189  1.5491 -0.8381 -0.3779
  390SOL    HW2 1170   0.088   3.670   1.167  2.6332 -0.4852  1.3532
  391SOL     OW 1171   1.809   1.480   1.281 -0.2924 -0.7151 -0.2076
  391SOL    HW1 1172   1.787   1.451   1.185 -1.2511  1.4546 -0.4193
  391SOL    HW2 1173   1.894   1.537   1.293 -1.2696  1.3293 -1.8695
  392SOL     OW 1174   3.405   3.618   0.237  0.1093  0.6201  0.6096
  392SOL    HW1 1175   3.494   3.598   0.190  2.4029  1.0289 -1.2398
  392SOL    HW2 1176   3.348   3.532   0.246 -0.0555 -0.4524  2.6006
  393SOL     OW 1177   1.850   2.572   3.533  0.2782 -0.1467 -0.2215
  393SOL    HW1 1178   1.856   2.472   3.505 -0.4354  0.0170  0.0330
  393SOL    HW2 1179   1.773   2.580   3.603 -0.4329 -3.3851  0.2916
  394SOL     OW 1180   0.034   2.894   3.265  0.6241 -0.3007  0.1467
  394SOL    HW1 1181   0.052   2.888   3.163  2.3674 -0.8447  0.8210
  394SOL    HW2 1182  -0.039   2.825   3.290 -1.3885 -2.0123 -0.3442
  395SOL     OW 1183   0.173   0.156   1.053  0.1068  0.7495  0.3852
  395SOL    HW1 1184   0.224   0.239   1.088  3.5675  0.2357  1.3329
  395SOL    HW2 1185   0.239   0.084   1.023 -0.6663  0.1473  0.7334
  396SOL     OW 1186   2.586   0.678   0.578  0.5623 -0.4124  0.2789
  396SOL    HW1 1187   2.501   0.646   0.527  0.1095 -2.6843  2.3985
  396SOL    HW2 1188   2.670   0.636   0.537 -1.5794 -2.8262  0.2683
  397SOL     OW 1189   0.184   0.828   3.053 -0.1641  0.0812  0.0135
  397SOL    HW1 1190   0.130   0.844   3.140  2.0557 -0.0950 -1.1783
  397SOL    HW2 1191   0.178   0.912   2.993  0.9462  1.5327  1.6365
  398SOL     OW 1192   0.699   0.170   3.555  0.2419  0.1032  0.0971
  398SOL    HW1 1193   0.631   0.172   3.477 -2.6726 -0.4681 -2.5187
  398SOL    HW2 1194   0.790   0.213   3.532  1.5974 -0.7137  1.8090
  399SOL     OW 1195   2.411   0.323   2.476  0.0773  0.3093  0.1468
  399SOL    HW1 1196   2.352   0.246   2.512 -1.0853  1.9934 -1.7592
  399SOL    HW2 1197   2.448   0.299   2.381  3.0072 -3.4025 -4.7754
  400SOL     OW 1198   1.154   2.554   3.401 -0.0930  0.0307  0.1546
  400SOL    HW1 1199   1.168   2.571   3.300 -0.1469  0.4084 -1.4998
  400SOL    HW2 1200   1.128   2.642   3.450 -1.4788  1.9757 -0.5172
  401SOL     OW 1201   0.392   1.427   2.887 -0.2389  0.1349 -0.4469
  401SOL    HW1 1202   0.339   1.407   2.801  1.5893 -0.1075 -0.7333
  401SOL    HW2 1203   0.332   1.479   2.953  0.3825 -1.4466 -0.3984
  402SOL     OW 1204   0.142   0.085   0.449  0.4820 -0.1084 -0.6705
  402SOL    HW1 1205   0.139  -0.007   0.497 -0.2313  1.0970 -1.5147
  402SOL    HW2 1206   0.051   0.133   0.460  1.4988  1.1307 -0.4136
  403SOL     OW 1207   0.369   1.426   1.844 -0.5511 -0.3148  0.1410
  403SOL    HW1 1208   0.471   1.413   1.834 -0.8032  0.3452 -0.4163
  403SOL    HW2 1209   0.322   1.437   1.753  1.2851 -2.6638 -0.0854
  404SOL     OW 1210   2.691   2.958   3.052  0.2652 -0.2917  0.4872
  404SOL    HW1 1211   2.628   3.004   3.118  2.5034 -1.0156 -2.0278
  404SOL    HW2 1212   2.642   2.880   3.004  1.3475 -1.5775  1.3380
  405SOL     OW 1213   0.248   0.504   2.410  0.2251 -0.2891 -0.2143
  405SOL    HW1 1214   0.177   0.435   2.435  1.3823 -0.3152  2.7023
  405SOL    HW2 1215   0.254   0.513   2.308  1.1153  2.2352  0.3848
  406SOL     OW 1216   1.472   1.793   3.399  1.5992  0.3534 -0.1265
  406SOL    HW1 1217   1.543   1.858   3.365 -0.8518 -1.1972  0.1314
  406SOL    HW2 1218   1.467   1.798   3.501  0.9975 -0.6781 -1.2056
  407SOL     OW 1219   2.363   0.485   2.954 -0.1509  0.6455  0.2225
  407SOL    HW1 1220   2.333   0.392   2.921 -0.8682  0.3354 -1.0997
  407SOL    HW2 1221   2.285   0.554   2.949  0.1388  1.7372 -1.6968
  408SOL     OW 1222   0.513   3.215   2.730 -0.1621  0.4876  0.0517
  408SOL    HW1 1223   0.419   3.189   2.766 -1.8099  1.6588 -1.4794
  408SOL    HW2 1224   0.507   3.291   2.661  0.5655 -2.0998  0.1853
  409SOL     OW 1225   3.572   3.025   1.522  0.0848  0.4367  0.0698
  409SOL    HW1 1226   3.597   3.116   1.563  2.3368  2.1224 -1.9786
  409SOL    HW2 1227   3.500   2.978   1.579 -3.4102 -2.7953  2.1931
  410SOL     OW 1228   3.477   2.053   0.461  0.5559 -0.3697  0.8848
  410SOL    HW1 1229   3.560   2.103   0.425 -0.8744  0.3482 -0.6083
  410SOL    HW2 1230   3.495   1.952   0.460  1.0851  0.9521 -0.5931
  411SOL     OW 1231   2.913   0.143   1.809 -0.2578 -0.5449  0.3396
  411SOL    HW1 1232   2.821   0.189   1.795 -0.8802  0.2734 -0.5179
  411SOL    HW2 1233   2.902   0.049   1.850  0.2103  4.3596 -2.7856
  412SOL     OW 1234   2.645   0.455   1.842 -0.0227 -0.6433  0.1533
  412SOL    HW1 1235   2.580   0.381   1.811  0.0318  2.8891  2.9429
  412SOL    HW2 1236   2.615   0.545   1.804  1.4575 -1.7998 -1.8094
  413SOL     OW 1237   3.559   0.500   2.845 -0.0720 -0.1149  0.3117
  413SOL    HW1 1238   3.581   0.601   2.863  0.1364  0.1218 -2.9326
  413SOL    HW2 1239   3.595   0.442   2.923 -1.0974 -1.6307  2.1248
  414SOL     OW 1240   3.179   1.646   0.349  0.6208  0.0786 -0.0488
  414SOL    HW1 1241   3.137   1.564   0.395 -2.9797  0.5459  0.4117
  414SOL    HW2 1242   3.150   1.730   0.401 -0.8527  0.6032 -0.4540
  415SOL     OW 1243   0.960   2.952   0.180  0.1957  0.1076  0.2764
  415SOL    HW1 1244   1.001   3.046   0.179 -2.3003 -0.8544 -0.7719
  415SOL    HW2 1245   0.977   2.905   0.271 -0.4381  1.7479 -0.1896
  416SOL     OW 1246   1.725   3.156   3.066  0.3472 -0.2431  0.0968
  416SOL    HW1 1247   1.677   3.088   3.126 -0.1457 -0.6181 -1.0770
  416SOL    HW2 1248   1.819   3.187   3.101 -1.4896 -0.8938  0.3322
  417SOL     OW 1249   0.305   1.173   1.462  0.5290  0.9704 -0.1522
  417SOL    HW1 1250   0.290   1.143   1.363  0.0327  2.1468 -1.4091
  417SOL    HW2 1251   0.398   1.151   1.499 -0.9834  0.7543 -0.0334
  418SOL     OW 1252   3.105   0.098   0.820  0.3862  0.5897 -0.1297
  418SOL    HW1 1253   3.012   0.057   0.818 -1.0337 -0.9352  2.1995
  418SOL    HW2 1254   3.132   0.125   0.917 -0.4106 -0.8139 -0.4602
  419SOL     OW 1255   0.311   0.020   0.224 -0.3521 -0.1576  0.4221
  419SOL    HW1 1256   0.251   0.054   0.300  1.9019 -3.2610  0.3231
  419SOL    HW2 1257   0.409   0.004   0.254  0.3817 -0.0410 -0.4181
  420SOL     OW 1258   0.141   1.406   1.546 -0.0049  0.0514  0.3531
  420SOL    HW1 1259   0.200   1.329   1.512 -1.6478 -1.9993  0.0455
  420SOL    HW2 1260   0.053   1.368   1.584  0.8940  1.0532 -0.1494
  421SOL     OW 1261   2.090   3.074   0.779  0.3216  0.0267  0.5100
  421SOL    HW1 1262   2.123   2.990   0.731  0.1304 -2.3462 -3.0334
  421SOL    HW2 1263   2.003   3.057   0.831 -2.3222  0.5368  1.9158
  422SOL     OW 1264   0.219   0.458   1.781 -0.3117  0.2962 -0.3850
  422SOL    HW1 1265   0.282   0.439   1.702  1.2010  0.8010 -1.6394
  422SOL    HW2 1266   0.149   0.526   1.754  2.2252  0.4366  0.5114
  423SOL     OW 1267   1.213   1.623   2.368 -0.6535 -0.0540  0.1751
  423SOL    HW1 1268   1.232   1.574   2.279  3.3488  2.2935  2.9683
  423SOL    HW2 1269   1.218   1.725   2.358 -2.2464 -1.2308  1.4214
  424SOL     OW 1270   2.048   2.452   0.715 -0.4189 -0.4942 -0.5144
  424SOL    HW1 1271   2.013   2.427   0.622  0.1066 -0.8975 -1.1863
  424SOL    HW2 1272   1.994   2.406   0.791 -2.6736 -1.8870 -0.8795
  425SOL     OW 1273   3.362   3.383   2.397  0.3557  0.3062 -0.0046
  425SOL    HW1 1274   3.268   3.375   2.439 -2.5650  2.3671 -3.2928
  425SOL    HW2 1275   3.376   3.467   2.340 -0.3753 -2.3166  1.5128
  426SOL     OW 1276   0.388   3.392   3.176  0.4270  0.1049 -0.4464
  426SOL    HW1 1277   0.356   3.398   3.273 -0.3394  2.3256 -2.4208
  426SOL    HW2 1278   0.316   3.429   3.114  0.1871 -1.0492  1.3946
  427SOL     OW 1279   1.218   3.580   0.093  0.7648  0.3646  0.5507
  427SOL    HW1 1280   1.139   3.617   0.148 -1.8755 -0.4782 -2.7556
  427SOL    HW2 1281   1.188   3.501   0.034  3.0544  1.0707  1.3710
  428SOL     OW 1282   3.318   0.581   1.795 -0.3798  0.6148  0.6055
  428SOL    HW1 1283   3.334   0.484   1.826  0.1989 -2.0858 -0.8959
  428SOL    HW2 1284   3.255   0.581   1.714  2.7418  2.2466  1.9936
  429SOL     OW 1285   2.437   3.467   0.631 -0.1112 -0.4397  0.4171
  429SOL    HW1 1286   2.394   3.383   0.588  1.1671 -0.7326 -2.8339
  429SOL    HW2 1287   2.533   3.484   0.598 -1.8243 -0.9988  0.3094
  430SOL     OW 1288   1.286   1.610   3.218 -0.1026  0.0304 -0.3964
  430SOL    HW1 1289   1.346   1.671   3.277 -1.3917  0.7521  1.2986
  430SOL    HW2 1290   1.269   1.653   3.125 -1.3151  1.9414  0.7853
  431SOL     OW 1291   3.221   2.640   1.393  0.2979  0.5548 -0.3339
  431SOL    HW1 1292   3.321   2.666   1.381  0.2663  0.3073  1.0745
  431SOL    HW2 1293   3.189   2.601   1.303 -0.0813 -1.7065  2.6343
  432SOL     OW 1294   1.861   2.789   3.312  0.2658  0.4378  0.4704
  432SOL    HW1 1295   1.898   2.755   3.222  1.2885 -0.5030  1.4898
  432SOL    HW2 1296   1.850   2.715   3.384 -0.7321 -1.5629  0.2464
  433SOL     OW 1297   1.434   0.469   3.012 -0.2879 -0.1552 -0.2948
  433SOL    HW1 1298   1.425   0.501   2.913 -1.5306  1.8479  0.3973
  433SOL    HW2 1299   1.530   0.469   3.052  0.7578  0.8517 -1.0113
  434SOL     OW 1300   1.488   3.264   2.510  0.0899  0.6131 -0.5405
  434SOL    HW1 1301   1.518   3.280   2.609  2.7153 -1.0132 -0.5400
  434SOL    HW2 1302   1.573   3.227   2.462 -1.9706  0.8265 -0.7088
  435SOL     OW 1303   0.316   0.050   3.527 -0.1505 -0.1380  0.4669
  435SOL    HW1 1304   0.335   0.050   3.629  1.5149  1.3978  0.7015
  435SOL    HW2 1305   0.233   0.109   3.505 -0.8627 -1.9934  1.5197
  436SOL     OW 1306   0.701   1.484   2.845 -0.3004  0.5097 -0.0616
  436SOL    HW1 1307   0.600   1.480   2.866 -2.0276  1.9714  1.6589
  436SOL    HW2 1308   0.724   1.550   2.770 -1.3917  1.2435 -2.2643
  437SOL     OW 1309   1.376   2.860   2.994 -0.0984  0.5702 -0.0799
  437SOL    HW1 1310   1.419   2.840   2.902  2.3237 -1.1046 -4.2426
  437SOL    HW2 1311   1.316   2.943   2.991  0.7627  0.0160  1.9143
  438SOL     OW 1312   0.708   1.018   0.784  0.2189 -0.4511 -0.6149
  438SOL    HW1 1313   0.655   0.977   0.863 -2.4447 -0.3331 -2.9174
  438SOL    HW2 1314   0.772   0.947   0.745  0.9468 -0.8329  0.7534
  439SOL     OW 1315   3.563   1.751   2.465  0.3636  0.2655  0.5804
  439SOL    HW1 1316   3.489   1.694   2.507 -0.2011 -0.2908 -0.5538
  439SOL    HW2 1317   3.537   1.851   2.453 -1.4013 -2.8659  2.0473
  440SOL     OW 1318   3.337   0.921   3.242 -0.0753 -0.4055 -0.1202
  440SOL    HW1 1319   3.312   0.848   3.175  1.0153 -0.2502  1.5288
  440SOL    HW2 1320   3.278   1.004   3.235 -2.1712  1.0523 -0.4642
  441SOL     OW 1321   0.734   2.133   1.682 -0.3089  0.6294  0.3978
  441SOL    HW1 1322   0.631   2.124   1.680 -1.7157  1.0203  0.8889
  441SOL    HW2 1323   0.757   2.224   1.728  1.9529 -0.7227 -0.6086
  442SOL     OW 1324   2.276   1.696   0.870  0.1409 -0.0020  0.3502
  442SOL    HW1 1325   2.280   1.651   0.778  0.0370  0.6127 -2.0588
  442SOL    HW2 1326   2.187   1.744   0.886  0.2522 -1.3094 -0.7221
  443SOL     OW 1327   2.830   2.503   3.508 -0.5111 -0.6122  0.4195
  443SOL    HW1 1328   2.772   2.431   3.462 -1.3529 -0.2168  0.6027
  443SOL    HW2 1329   2.924   2.511   3.466  1.8208 -0.6681  0.6902
  444SOL     OW 1330   2.033   1.713   3.476  0.8787  0.7174  0.2185
  444SOL    HW1 1331   1.983   1.801   3.498 -1.9076  3.5866 -1.1154
  444SOL    HW2 1332   2.014   1.677   3.382 -0.5804 -1.4754  0.1405
  445SOL     OW 1333   0.493   2.557   2.357  0.6412  0.2176  0.2905
  445SOL    HW1 1334   0.562   2.629   2.385  1.5347 -0.3593  1.6872
  445SOL    HW2 1335   0.410   2.561   2.420 -1.4625  0.7290  1.9531
  446SOL     OW 1336   1.133   1.211   2.083  0.3284 -0.3942 -0.0803
  446SOL    HW1 1337   1.219   1.159   2.063  2.9078  0.5091  0.1045
  446SOL    HW2 1338   1.082   1.171   2.164  1.5099 -2.1679  0.2603
  447SOL     OW 1339   0.873   0.797   0.652 -0.3087  0.1253 -0.4777
  447SOL    HW1 1340   0.795   0.740   0.615 -0.9433 -0.2752 -0.2889
  447SOL    HW2 1341   0.947   0.817   0.584  1.0796 -1.7814 -2.0435
  448SOL     OW 1342   1.578   1.229   2.359 -0.3570  0.5066  0.0326
  448SOL    HW1 1343   1.543   1.292   2.286 -0.4921  0.0863  1.0830
  448SOL    HW2 1344   1.670   1.189   2.334  0.8252  1.2144 -0.2419
  449SOL     OW 1345   0.193   1.890   2.841 -0.6864  0.3550  0.0935
  449SOL    HW1 1346   0.157   1.931   2.929 -2.6153  0.6965  1.0769
  449SOL    HW2 1347   0.186   1.959   2.765 -1.1431 -1.2902 -0.2584
  450SOL     OW 1348   2.583   1.651   2.242  0.0204  0.0374  0.4933
  450SOL    HW1 1349   2.575   1.717   2.322  1.0934 -1.1661  0.4470
  450SOL    HW2 1350   2.678   1.650   2.199 -1.4874 -0.9195  1.3536
  451SOL     OW 1351   2.781   1.710   1.599  0.4642 -0.5159 -0.1648
  451SOL    HW1 1352   2.816   1.628   1.651  3.1151 -3.5691 -0.7101
  451SOL    HW2 1353   2.834   1.727   1.512 -0.2998  1.0860  1.7837
  452SOL     OW 1354   0.891   1.154   1.579 -0.1075 -0.2972  0.1333
  452SOL    HW1 1355   0.916   1.150   1.678  1.8246  0.4811 -0.6746
  452SOL    HW2 1356   0.976   1.176   1.523  1.5861  0.1601 -0.3759
  453SOL     OW 1357   0.337   2.388   1.202  0.7910 -0.3676 -0.2063
  453SOL    HW1 1358   0.245   2.392   1.248  2.0958 -0.0286  1.2540
  453SOL    HW2 1359   0.340   2.366   1.101  0.5752  0.2639 -1.5082
  454SOL     OW 1360   1.411   1.476   0.334 -0.2240 -0.3562  0.5338
  454SOL    HW1 1361   1.494   1.535   0.319 -0.2981  0.8913 -0.3792
  454SOL    HW2 1362   1.427   1.412   0.413 -0.0281 -0.4832  1.8080
  455SOL     OW 1363   2.112   0.529   0.958 -0.8241  0.0867  0.0450
  455SOL    HW1 1364   2.122   0.431   0.927 -1.5203  1.0617  0.2058
  455SOL    HW2 1365   2.144   0.598   0.888 -0.8065 -0.9994  0.0376
  456SOL     OW 1366   2.141   3.351   0.302 -0.0068 -0.2568 -0.0585
  456SOL    HW1 1367   2.066   3.282   0.279 -2.3511  2.1711 -3.1468
  456SOL    HW2 1368   2.111   3.451   0.293 -0.1493  1.3669 -2.9146
  457SOL     OW 1369   2.443   1.351   2.382 -0.3082 -0.2452  0.1950
  457SOL    HW1 1370   2.475   1.434   2.328 -2.0215 -0.3598 -0.8216
  457SOL    HW2 1371   2.483   1.350   2.476  1.2939 -3.2631 -0.2341
  458SOL     OW 1372   2.979   0.600   2.799  0.1449  0.2618  0.3154
  458SOL    HW1 1373   2.892   0.624   2.849 -0.4593  0.5838 -2.9639
  458SOL    HW2 1374   2.994   0.667   2.722  1.3809 -0.2563  0.7427
  459SOL     OW 1375   2.891   1.839   3.041  0.4613 -0.4238  0.1001
  459SOL    HW1 1376   2.968   1.851   3.108  0.9685 -0.7071  3.3207
  459SOL    HW2 1377   2.887   1.743   3.004  0.9275  1.1317 -2.6899
  460SOL     OW 1378   1.157   1.056   2.948  0.2294 -0.3157  0.2119
  460SOL    HW1 1379   1.181   1.123   2.871  0.2316  1.7341 -3.4362
  460SOL    HW2 1380   1.189   1.094   3.039 -0.0679 -1.5084  2.4927
  461SOL     OW 1381   0.108   2.747   0.213 -0.2416  0.1814 -0.5419
  461SOL    HW1 1382   0.178   2.813   0.250 -0.0013 -2.1630  0.4765
  461SOL    HW2 1383   0.020   2.795   0.189  1.5610 -2.4237  1.5162
  462SOL     OW 1384   1.641   3.297   2.816  0.1277 -0.4090  0.6535
  462SOL    HW1 1385   1.663   3.238   2.898 -0.5396  3.3443  0.8688
  462SOL    HW2 1386   1.715   3.366   2.799  0.6036 -0.2168  1.8404
  463SOL     OW 1387   2.465   2.509   2.302  0.4118 -0.6816 -0.5139
  463SOL    HW1 1388   2.397   2.432   2.307  1.1014  2.7741  0.3857
  463SOL    HW2 1389   2.559   2.474   2.323 -1.6653 -2.4444 -1.4199
  464SOL     OW 1390   3.055   2.893   0.918 -0.1127 -0.2896  0.4134
  464SOL    HW1 1391   2.956   2.870   0.899  2.0016  1.3003 -0.3866
  464SOL    HW2 1392   3.073   2.993   0.931  1.7982 -0.6503 -0.4811
  465SOL     OW 1393   0.006   0.165   1.710 -0.4421  0.1462  0.8908
  465SOL    HW1 1394   0.046   0.109   1.634  0.5596 -0.7505 -2.3749
  465SOL    HW2 1395   0.079   0.193   1.777  0.9422 -1.3526  0.6287
  466SOL     OW 1396   1.622   2.959   3.244 -0.3632 -0.4418  0.1658
  466SOL    HW1 1397   1.703   2.903   3.275  0.1805 -0.2175  0.1347
  466SOL    HW2 1398   1.549   2.910   3.189  2.4283  0.2965 -0.7288
  467SOL     OW 1399   0.009   2.453   0.298  0.3482 -0.5073 -0.8459
  467SOL    HW1 1400  -0.059   2.427   0.225 -1.1767 -0.2628  0.2824
  467SOL    HW2 1401   0.041   2.550   0.284  2.0638  2.2386 -0.0533
  468SOL     OW 1402   2.457   2.715   3.342 -0.3392  0.0927  0.4007
  468SOL    HW1 1403   2.512   2.665   3.270  2.3705 -0.9657 -1.1347
  468SOL    HW2 1404   2.377   2.765   3.298  1.0275  1.9972 -1.4956
  469SOL     OW 1405   1.027   2.208   0.846  0.0548  0.1398  0.1763
  469SOL    HW1 1406   0.976   2.226   0.934 -1.0399  0.8249  2.2878
  469SOL    HW2 1407   1.083   2.289   0.815  1.5046  1.2157 -0.3750
  470SOL     OW 1408   2.306   0.815   0.782 -0.2185 -0.4943  0.3307
  470SOL    HW1 1409   2.373   0.773   0.715  1.3374 -0.3164 -1.1844
  470SOL    HW2 1410   2.340   0.833   0.879  0.0200 -1.4528 -0.0989
  471SOL     OW 1411   0.369   2.202   0.628  0.2672  0.5021 -0.5869
  471SOL    HW1 1412   0.445   2.201   0.559 -0.7626  0.6280 -2.4089
  471SOL    HW2 1413   0.369   2.293   0.679 -0.9299 -1.3700 -2.0440
  472SOL     OW 1414   3.087   2.523   3.403  0.7562 -0.1374 -0.2212
  472SOL    HW1 1415   3.150   2.561   3.475 -1.4091 -1.1332 -0.4171
  472SOL    HW2 1416   3.118   2.547   3.308  0.8841  2.3249  0.1821
  473SOL     OW 1417   1.687   2.096   0.913  0.2208 -0.1950  0.1635
  473SOL    HW1 1418   1.765   2.163   0.908  3.1382 -2.0875  0.1463
  473SOL    HW2 1419   1.644   2.088   0.820  1.2878 -1.9079 -0.6314
  474SOL     OW 1420   3.340   0.538   1.381 -0.2575 -0.8689  0.0088
  474SOL    HW1 1421   3.324   0.519   1.280  1.1610 -1.4646 -1.2898
  474SOL    HW2 1422   3.412   0.476   1.419  0.5047 -1.1295  1.4099
  475SOL     OW 1423   3.425   3.616   2.177 -0.2529  0.2181  0.3892
  475SOL    HW1 1424   3.429   3.572   2.085  3.1239  0.1707  1.9505
  475SOL    HW2 1425   3.356   3.692   2.171 -1.5687  0.9128 -1.4411
  476SOL     OW 1426   0.653   0.338   1.084  0.2971 -0.6520 -0.6411
  476SOL    HW1 1427   0.708   0.423   1.064 -0.5824 -0.3559  2.9798
  476SOL    HW2 1428   0.635   0.286   0.996  2.1952 -1.8777 -1.7274
  477SOL     OW 1429   1.409   2.912   1.365  0.3219 -0.4204  0.2654
  477SOL    HW1 1430   1.399   2.907   1.468 -0.0646 -1.1794  0.0284
  477SOL    HW2 1431   1.508   2.888   1.345  2.0823 -1.0847 -0.4243
  478SOL     OW 1432   1.383   3.169   0.113  0.3416 -0.7731 -0.4626
  478SOL    HW1 1433   1.403   3.177   0.012  2.7553  1.0942 -1.0935
  478SOL    HW2 1434   1.444   3.230   0.169 -1.1615  0.3122 -1.7182
  479SOL     OW 1435   2.996   1.367   2.530  0.2232  0.4576  0.5147
  479SOL    HW1 1436   2.921   1.306   2.566  0.4092 -1.8439  1.9097
  479SOL    HW2 1437   3.031   1.336   2.438 -1.3914 -0.0602  1.0406
  480SOL     OW 1438   3.171   2.633   3.146 -0.0118 -0.0439  0.1993
  480SOL    HW1 1439   3.198   2.619   3.047 -1.2508  2.3656 -2.0837
  480SOL    HW2 1440   3.082   2.684   3.150  0.3467  0.2459  0.0270
  481SOL     OW 1441   1.898   3.117   1.948  0.6027  0.2638  0.1687
  481SOL    HW1 1442   1.980   3.073   1.993  0.4544  0.1687  2.0339
  481SOL    HW2 1443   1.909   3.130   1.845 -0.7084  2.5856 -0.0487
  482SOL     OW 1444   1.815   2.636   2.681  0.2155 -0.3667 -0.0659
  482SOL    HW1 1445   1.783   2.595   2.593  3.2762 -1.1529 -0.2577
  482SOL    HW2 1446   1.836   2.736   2.672 -0.2434 -0.1029  3.4013
  483SOL     OW 1447   1.414   3.185   3.441  0.1139  0.2073 -0.5208
  483SOL    HW1 1448   1.379   3.220   3.350  2.2460 -1.4444  0.5824
  483SOL    HW2 1449   1.490   3.116   3.418 -0.1727  0.4668  1.6056
  484SOL     OW 1450   2.880   3.494   1.948  0.2290  0.4152 -0.5276
  484SOL    HW1 1451   2.787   3.452   1.961 -2.8448  0.2037  0.5230
  484SOL    HW2 1452   2.948   3.418   1.933 -0.5783 -1.1165  0.4134
  485SOL     OW 1453   2.344   0.614   0.410  0.0831 -0.3714  0.5044
  485SOL    HW1 1454   2.318   0.705   0.368  1.0484  2.1882  2.2531
  485SOL    HW2 1455   2.260   0.561   0.438  2.2023 -1.1566  3.0169
  486SOL     OW 1456   2.771   3.190   2.902  0.4306  0.5636 -0.9828
  486SOL    HW1 1457   2.815   3.262   2.962  1.6868  1.4516  0.0603
  486SOL    HW2 1458   2.744   3.105   2.951 -0.5533  2.1050 -0.2010
  487SOL     OW 1459   1.439   0.991   0.849 -0.1227 -1.0349 -0.7234
  487SOL    HW1 1460   1.384   1.033   0.774 -1.2956 -1.6460 -1.0459
  487SOL    HW2 1461   1.382   0.991   0.936 -0.0965  1.6271  3.0495
  488SOL     OW 1462   3.147   3.414   2.767  0.1739 -0.8204 -0.4210
  488SOL    HW1 1463   3.126   3.393   2.669 -0.1510 -0.8978 -2.3360
  488SOL    HW2 1464   3.109   3.508   2.787 -0.5120 -1.3641  1.5029
  489SOL     OW 1465   1.402   3.241   0.524 -0.3052  0.5458  0.1667
  489SOL    HW1 1466   1.358   3.315   0.580 -1.9354 -1.8515  0.3385
  489SOL    HW2 1467   1.338   3.159   0.522 -0.3401 -2.1193  0.8081
  490SOL     OW 1468   1.847   0.782   3.544  0.1252  0.0492 -0.4007
  490SOL    HW1 1469   1.861   0.831   3.454 -0.8716 -0.1091 -0.2044
  490SOL    HW2 1470   1.749   0.783   3.578 -2.1638  0.5309  1.7764
  491SOL     OW 1471   1.072   0.052   1.442 -0.0449  0.3447  0.1564
  491SOL    HW1 1472   0.988   0.097   1.400  0.2028  0.6148 -3.1880
  491SOL    HW2 1473   1.054   0.015   1.536 -1.5841  0.0114  0.5522
  492SOL     OW 1474   1.907   3.201   0.237 -0.1762 -0.3069 -0.0666
  492SOL    HW1 1475   1.838   3.173   0.308  0.2885 -1.3000 -2.6376
  492SOL    HW2 1476   1.852   3.264   0.174  0.0862  1.7372  0.3028
  493SOL     OW 1477   1.202   2.302   3.518 -0.4651  0.1956 -0.4422
  493SOL    HW1 1478   1.220   2.237   3.440 -0.4250  1.1047  0.3973
  493SOL    HW2 1479   1.181   2.394   3.480 -2.5714 -0.3353 -0.2356
  494SOL     OW 1480   0.881   0.330   0.593  0.2124  0.2714 -0.0797
  494SOL    HW1 1481   0.792   0.314   0.543  0.5845 -1.0790  1.6610
  494SOL    HW2 1482   0.928   0.417   0.559 -0.7583 -0.3040 -0.4522
  495SOL     OW 1483   3.246   0.202   2.149 -0.1402  0.3005 -0.0995
  495SOL    HW1 1484   3.267   0.246   2.058 -1.9690 -2.3857 -1.1722
  495SOL    HW2 1485   3.243   0.275   2.223 -0.2219  1.3652 -0.2837
  496SOL     OW 1486   2.720   2.235   2.872  0.4898 -0.1969  0.4074
  496SOL    HW1 1487   2.660   2.219   2.789 -1.8499 -0.4766  1.3602
  496SOL    HW2 1488   2.814   2.201   2.847  1.1465  3.3234  0.5230
  497SOL     OW 1489   1.837   1.384   3.191  0.0821 -0.1518 -0.1054
  497SOL    HW1 1490   1.919   1.445   3.174  1.1849  1.2670  0.6891
  497SOL    HW2 1491   1.775   1.423   3.264  2.0410 -0.6602  0.5069
  498SOL     OW 1492   0.896   3.270   1.491 -0.2103 -0.3413  0.5883
  498SOL    HW1 1493   0.824   3.336   1.456 -0.4131 -5.0934  1.4574
  498SOL    HW2 1494   0.860   3.174   1.492  0.6402 -1.0633  0.1280
  499SOL     OW 1495   0.067   2.356   1.299 -0.2443 -0.1284 -0.0264
  499SOL    HW1 1496   0.019   2.324   1.214 -0.1609 -0.9076  3.7440
  499SOL    HW2 1497   0.044   2.289   1.373 -1.6809  0.0450 -2.3567
  500SOL     OW 1498   0.826   3.180   3.165  0.0631  0.1837  0.5963
  500SOL    HW1 1499   0.733   3.139   3.186 -2.0914  0.2943 -0.3184
  500SOL    HW2 1500   0.827   3.226   3.072  0.9773 -2.5093 -1.2454
  501SOL     OW 1501   1.976   3.617   0.049  0.0622  0.5445 -0.2682
  501SOL    HW1 1502   2.030   3.705   0.059  0.0685 -1.6576 -1.4305
  501SOL    HW2 1503   1.918   3.595   0.131  0.3467  1.2176  2.3244
  502SOL     OW 1504   3.554   0.132   0.881 -0.1467 -0.1762  0.0135
  502SOL    HW1 1505   3.517   0.222   0.844 -1.7791  3.1759 -0.0485
  502SOL    HW2 1506   3.642   0.147   0.934 -0.1739 -0.5450 -0.8846
  503SOL     OW 1507   2.323   3.446   2.545 -0.0648  0.0064 -0.2204
  503SOL    HW1 1508   2.398   3.405   2.601  2.9439 -1.6295  0.8447
  503SOL    HW2 1509   2.237   3.390   2.557 -0.0655  0.2471  1.4272
  504SOL     OW 1510   2.850   1.701   2.137 -0.1856 -0.5902 -0.1445
  504SOL    HW1 1511   2.826   1.790   2.092  0.7467  1.6575  0.6352
  504SOL    HW2 1512   2.920   1.644   2.087  0.7293  0.2376 -1.0426
  505SOL     OW 1513   2.022   3.284   2.617 -0.4744  0.2608 -0.1961
  505SOL    HW1 1514   1.975   3.351   2.680  2.2824 -0.1729 -1.3298
  505SOL    HW2 1515   1.962   3.260   2.536  1.1741 -2.0409 -1.0603
  506SOL     OW 1516   0.247   0.816   2.532  0.4264  0.5075 -0.1591
  506SOL    HW1 1517   0.243   0.721   2.493  0.8616  0.4638  0.5339
  506SOL    HW2 1518   0.308   0.810   2.614 -2.5311 -0.4089  2.8711
  507SOL     OW 1519   2.080   0.497   0.448 -0.1702  0.0810 -0.0098
  507SOL    HW1 1520   2.039   0.582   0.410  0.2690 -1.4572 -0.3592
  507SOL    HW2 1521   2.012   0.453   0.512  2.7110  2.0010  0.0371
  508SOL     OW 1522   2.448   0.562   2.130  0.6428  0.1073  0.6406
  508SOL    HW1 1523   2.429   0.645   2.072  2.5333 -3.8262 -0.9278
  508SOL    HW2 1524   2.531   0.576   2.192  0.8491  0.9692 -1.5560
  509SOL     OW 1525   0.788   2.250   3.587  0.4577  0.0533  0.1310
  509SOL    HW1 1526   0.870   2.204   3.631  0.6575  1.3655 -0.9490
  509SOL    HW2 1527   0.704   2.215   3.638 -0.2287  0.9394  3.0900
  510SOL     OW 1528   0.293   1.089   1.190  0.1659  0.3196  0.2922
  510SOL    HW1 1529   0.207   1.066   1.139  1.7927 -1.8699  1.0949
  510SOL    HW2 1530   0.354   1.142   1.126 -1.3988  0.7231  0.3104
  511SOL     OW 1531   1.768   1.224   1.437  0.4492  0.3309 -0.4973
  511SOL    HW1 1532   1.849   1.161   1.432  0.3007 -1.1886 -0.4620
  511SOL    HW2 1533   1.783   1.315   1.393 -0.0545  2.3566  0.8780
  512SOL     OW 1534   0.406   2.457   0.757  0.1025 -0.7203  0.1893
  512SOL    HW1 1535   0.349   2.515   0.818 -1.1198  0.7146  0.4945
  512SOL    HW2 1536   0.506   2.476   0.767 -2.1303  0.7306  1.0943
  513SOL     OW 1537   0.293   2.823   1.141 -0.1345 -0.0286 -0.1432
  513SOL    HW1 1538   0.245   2.822   1.233 -0.8931  0.1671  0.8577
  513SOL    HW2 1539   0.303   2.920   1.107  1.1843  0.7594  0.7826
  514SOL     OW 1540   0.704   2.505   0.761  0.3178  0.5523  0.1971
  514SOL    HW1 1541   0.772   2.550   0.824 -0.3554 -1.1551  0.0548
  514SOL    HW2 1542   0.750   2.467   0.676  0.0500  1.1304 -1.2620
  515SOL     OW 1543   3.514   0.360   3.516  0.0144  0.5964 -0.5201
  515SOL    HW1 1544   3.425   0.335   3.563  0.4055  0.7605 -0.9998
  515SOL    HW2 1545   3.564   0.441   3.561  1.1652 -0.9950  0.3690
  516SOL     OW 1546   2.540   3.596   1.585 -0.0909  0.0057  0.3336
  516SOL    HW1 1547   2.482   3.533   1.640 -2.8399 -1.0298 -0.2906
  516SOL    HW2 1548   2.507   3.596   1.487  2.5905 -3.3261 -0.0600
  517SOL     OW 1549   2.039   1.842   0.890 -0.1365 -0.1981  0.1337
  517SOL    HW1 1550   2.076   1.917   0.830  0.9261 -1.6497  0.2474
  517SOL    HW2 1551   2.009   1.875   0.984 -0.1753  1.1439 -1.3869
  518SOL     OW 1552   2.123   3.321   0.963 -0.2210 -0.1425 -0.0971
  518SOL    HW1 1553   2.088   3.283   1.054 -0.0763 -2.5497 -0.1998
  518SOL    HW2 1554   2.120   3.248   0.891 -1.1344 -3.4466  0.5772
  519SOL     OW 1555   3.426   2.933   0.140  0.1651 -0.2306  0.1175
  519SOL    HW1 1556   3.387   2.959   0.233 -0.1565 -0.3834 -0.0948
  519SOL    HW2 1557   3.447   3.017   0.080 -3.3952  0.4353 -1.9558
  520SOL     OW 1558   2.654   1.926   2.524  0.3565  0.1375  0.3278
  520SOL    HW1 1559   2.619   2.018   2.554  1.1014  0.1509 -2.2467
  520SOL    HW2 1560   2.621   1.852   2.586 -3.6283 -1.4941 -1.0585
  521SOL     OW 1561   1.743   3.449   2.251 -0.1507  0.0830  0.6521
  521SOL    HW1 1562   1.766   3.452   2.150 -1.0286  0.7851  0.0071
  521SOL    HW2 1563   1.647   3.485   2.267  0.0258 -0.4998 -0.1188
  522SOL     OW 1564   0.365   3.034   2.227 -0.1854 -0.3721 -0.0749
  522SOL    HW1 1565   0.322   2.973   2.299 -3.5561  0.0268  0.8934
  522SOL    HW2 1566   0.297   3.107   2.202 -1.7005 -0.5527  1.1302
  523SOL     OW 1567   0.691   2.821   2.506 -0.4243 -0.1818 -0.4846
  523SOL    HW1 1568   0.688   2.864   2.600 -2.1148  0.5154  0.2921
  523SOL    HW2 1569   0.698   2.897   2.437 -2.9625 -0.2468 -3.4863
  524SOL     OW 1570   2.646   2.542   0.427 -0.1035 -0.1010 -0.0841
  524SOL    HW1 1571   2.579   2.472   0.393 -0.6480 -1.6919  1.4763
  524SOL    HW2 1572   2.631   2.562   0.527 -1.4174  0.4189  0.7433
  525SOL     OW 1573   3.120   0.762   3.032 -0.5268  0.3796  0.2560
  525SOL    HW1 1574   3.092   0.697   2.956  0.3173  0.8828 -2.0106
  525SOL    HW2 1575   3.076   0.733   3.120  0.2452  0.6351  0.2778
  526SOL     OW 1576   0.489   2.885   0.524  0.3676  0.2807 -0.3485
  526SOL    HW1 1577   0.583   2.887   0.567  2.3050 -0.7742  0.0680
  526SOL    HW2 1578   0.443   2.795   0.541  1.8010 -1.7459  1.3911
  527SOL     OW 1579   3.404   1.271   1.072  0.2293  0.8196  0.1581
  527SOL    HW1 1580   3.334   1.311   1.007  1.0224 -1.3711  1.1151
  527SOL    HW2 1581   3.358   1.201   1.132 -0.8507  0.0851 -2.2226
  528SOL     OW 1582   1.326   1.548   2.690 -0.1046 -0.4152  0.2507
  528SOL    HW1 1583   1.295   1.573   2.594 -1.9748 -1.1526  0.3687
  528SOL    HW2 1584   1.283   1.613   2.757 -0.8188 -0.1693 -0.0029
  529SOL     OW 1585   1.003   1.585   0.545  0.2325  1.0387  0.4063
  529SOL    HW1 1586   1.053   1.597   0.635  0.1198  2.7445 -2.8591
  529SOL    HW2 1587   0.974   1.485   0.540 -1.2652  1.3687 -3.9604
  530SOL     OW 1588   1.629   0.641   1.980  0.0482  0.0620  0.0252
  530SOL    HW1 1589   1.695   0.691   1.921 -2.0047 -1.1601 -0.1838
  530SOL    HW2 1590   1.676   0.574   2.043 -0.0150 -0.8175 -0.8482
  531SOL     OW 1591   1.300   2.624   0.303  0.4314 -0.3511  0.0842
  531SOL    HW1 1592   1.308   2.702   0.237  0.8608 -0.0600 -0.7789
  531SOL    HW2 1593   1.385   2.619   0.361  0.7983  1.3768 -1.2082
  532SOL     OW 1594   3.092   0.984   2.818  0.3257  0.1300  0.5005
  532SOL    HW1 1595   3.106   0.928   2.903  0.0447  0.0875 -3.4920
  532SOL    HW2 1596   3.175   1.045   2.803  4.7030  0.8205  3.1686
  533SOL     OW 1597   0.045   0.317   2.471 -0.6424  0.2144  0.0161
  533SOL    HW1 1598  -0.045   0.334   2.519  2.1571  2.5459 -3.4255
  533SOL    HW2 1599   0.042   0.239   2.403 -2.7490  1.1969 -2.1691
  534SOL     OW 1600   2.633   0.235   3.277  0.1529  0.0770 -0.2875
  534SOL    HW1 1601   2.706   0.248   3.348  2.5661  1.8411  1.6732
  534SOL    HW2 1602   2.646   0.145   3.230 -1.7719  0.1240 -0.6132
  535SOL     OW 1603   0.257   0.437   3.598 -0.4212 -0.0638  0.3007
  535SOL    HW1 1604   0.335   0.404   3.657 -0.1536 -1.8969 -0.4843
  535SOL    HW2 1605   0.288   0.451   3.500 -1.6586 -2.7665  0.2022
  536SOL     OW 1606   1.288   2.418   1.327  0.0896 -0.6837 -0.0712
  536SOL    HW1 1607   1.209   2.403   1.391 -0.8861  1.2693  1.3267
  536SOL    HW2 1608   1.282   2.510   1.277  0.0891 -3.1691  1.4174
  537SOL     OW 1609   3.256   2.987   1.723  0.2015 -0.6983 -0.2537
  537SOL    HW1 1610   3.290   3.057   1.790 -1.7759 -1.3876 -3.2884
  537SOL    HW2 1611   3.196   2.918   1.773  2.4372  2.5139  1.0368
  538SOL     OW 1612   0.752   2.897   0.652  0.3515  0.5471  0.2691
  538SOL    HW1 1613   0.788   2.816   0.706 -1.1710 -0.5136 -1.7055
  538SOL    HW2 1614   0.811   2.982   0.657  0.5085  0.9205 -0.3062
  539SOL     OW 1615   2.149   1.524   2.899  0.2343 -0.2390 -0.5340
  539SOL    HW1 1616   2.077   1.490   2.833 -1.5601  2.1176 -1.5611
  539SOL    HW2 1617   2.204   1.602   2.863  1.0215 -2.2948  0.6968
  540SOL     OW 1618   2.196   0.721   3.372  0.0731 -0.3429 -0.3032
  540SOL    HW1 1619   2.248   0.703   3.460 -1.3449  0.1348  2.4117
  540SOL    HW2 1620   2.178   0.821   3.352  2.1355 -0.6070 -0.2664
  541SOL     OW 1621   1.295   1.274   2.782  0.1463  0.2357  0.4257
  541SOL    HW1 1622   1.331   1.213   2.708  0.5133  0.3190 -1.6073
  541SOL    HW2 1623   1.299   1.373   2.753 -0.0291  1.2787 -3.0024
  542SOL     OW 1624   1.716   3.017   2.165 -0.5935  0.2227 -0.1421
  542SOL    HW1 1625   1.615   3.020   2.152 -0.3792  1.4743  0.9157
  542SOL    HW2 1626   1.768   3.051   2.083 -0.9846  1.4469  1.4381
  543SOL     OW 1627   0.584   3.299   3.566 -0.3797 -0.2512  0.0949
  543SOL    HW1 1628   0.643   3.285   3.482 -1.8981 -3.2108  0.3449
  543SOL    HW2 1629   0.490   3.331   3.537  0.3021  1.7578 -0.5413
  544SOL     OW 1630   0.068   2.391   2.523  0.1498 -1.0225  0.1159
  544SOL    HW1 1631   0.011   2.386   2.609  0.0025  0.7440 -0.7732
  544SOL    HW2 1632   0.135   2.469   2.540 -2.0695  1.7578 -2.4089
  545SOL     OW 1633   1.655   2.205   1.909 -0.2299 -0.4065 -0.2696
  545SOL    HW1 1634   1.614   2.219   1.814 -2.7829  0.4395 -0.5487
  545SOL    HW2 1635   1.589   2.157   1.975 -1.5260 -1.1095  2.0551
  546SOL     OW 1636   3.253   0.281   3.074 -0.4884  0.2167  0.1526
  546SOL    HW1 1637   3.217   0.304   2.981 -0.0159 -0.2422  1.4312
  546SOL    HW2 1638   3.351   0.316   3.081 -2.4439 -1.0200 -0.6817
  547SOL     OW 1639   1.894   3.549   0.937 -0.0472 -0.7606  0.2314
  547SOL    HW1 1640   1.890   3.590   1.032 -1.0714  1.8056 -0.3116
  547SOL    HW2 1641   1.968   3.477   0.936  2.1209 -0.4684  2.2968
  548SOL     OW 1642   1.599   2.569   0.102 -0.0373 -0.9387 -0.7184
  548SOL    HW1 1643   1.546   2.481   0.102 -1.2759  1.5860  0.3175
  548SOL    HW2 1644   1.541   2.651   0.079  1.7843  2.4071 -2.0966
  549SOL     OW 1645   2.328   0.673   0.031 -0.0823  0.5071 -0.2962
  549SOL    HW1 1646   2.382   0.593   0.069 -0.0030 -0.7020  2.4457
  549SOL    HW2 1647   2.374   0.762   0.054 -1.3121  3.3303 -0.3994
  550SOL     OW 1648   3.019   2.149   1.003  0.1330 -0.0221  0.2550
  550SOL    HW1 1649   2.945   2.207   0.963 -2.4749 -1.2702 -3.9908
  550SOL    HW2 1650   3.084   2.123   0.929 -2.3741 -0.3615  1.5493
  551SOL     OW 1651   1.337   0.289   1.507 -0.6509 -0.7428 -0.4134
  551SOL    HW1 1652   1.273   0.343   1.565 -1.4643 -2.0794  0.7417
  551SOL    HW2 1653   1.282   0.219   1.453 -1.7226 -1.4342 -0.8010
  552SOL     OW 1654   0.448   2.159   3.229 -0.1083  0.6339 -0.8855
  552SOL    HW1 1655   0.467   2.101   3.146  0.1801  1.5716  0.5195
  552SOL    HW2 1656   0.430   2.100   3.312  1.5511 -0.4571  2.7247
  553SOL     OW 1657   2.990   2.847   0.022  0.1225 -0.2901 -0.2906
  553SOL    HW1 1658   2.899   2.804  -0.002  1.7058 -0.3532 -0.8266
  553SOL    HW2 1659   2.991   2.869   0.123  1.3876  0.2614 -0.2745
  554SOL     OW 1660   2.325   1.726   1.713  0.0721 -0.6856  0.4271
  554SOL    HW1 1661   2.352   1.695   1.807 -0.1094  1.1713 -1.0522
  554SOL    HW2 1662   2.238   1.781   1.722  1.8974  2.4334  0.7529
  555SOL     OW 1663   0.661   2.941   2.771 -0.5647  0.1112 -0.2079
  555SOL    HW1 1664   0.617   2.900   2.854 -1.5742  0.4032  1.0202
  555SOL    HW2 1665   0.616   3.032   2.752 -0.1200 -0.7347  0.8585
  556SOL     OW 1666   1.663   1.263   1.726 -0.0118  0.1892 -0.1316
  556SOL    HW1 1667   1.700   1.244   1.632  0.1379  1.5884  0.5834
  556SOL    HW2 1668   1.646   1.364   1.741 -1.4049 -0.7553  4.1449
  557SOL     OW 1669   1.718   3.464   1.363  0.1403 -0.2640 -0.2501
  557SOL    HW1 1670   1.737   3.368   1.327  1.6236 -0.6904 -1.2215
  557SOL    HW2 1671   1.671   3.463   1.455  0.8330 -0.8921 -0.6086
  558SOL     OW 1672   0.631   0.975   2.764  0.2150 -0.0351 -0.5720
  558SOL    HW1 1673   0.555   0.907   2.756  1.6481 -0.5346  3.9749
  558SOL    HW2 1674   0.665   0.975   2.861  0.9811 -0.7869 -0.7208
  559SOL     OW 1675   1.112   3.205   0.178  0.0698 -0.0509 -0.1985
  559SOL    HW1 1676   1.093   3.265   0.260 -2.3122 -1.8174 -0.1044
  559SOL    HW2 1677   1.212   3.186   0.162  1.5519  1.7363 -2.6680
  560SOL     OW 1678   1.933   2.386   0.445 -0.5544 -0.4878 -0.3682
  560SOL    HW1 1679   2.002   2.423   0.379  0.2821 -0.5184 -2.5537
  560SOL    HW2 1680   1.842   2.433   0.435  1.4792  2.8630 -1.8563
  561SOL     OW 1681   1.269   3.447   0.668 -0.6422 -0.2046  0.4267
  561SOL    HW1 1682   1.332   3.527   0.660 -0.8046  1.0747 -2.9452
  561SOL    HW2 1683   1.225   3.451   0.761  0.5125 -0.9435 -1.8260
  562SOL     OW 1684   0.626   1.232   2.613 -0.0439  0.2859 -0.3859
  562SOL    HW1 1685   0.658   1.303   2.682 -0.8265 -2.3067  0.7623
  562SOL    HW2 1686   0.626   1.143   2.666  0.9621  1.0111 -0.8302
  563SOL     OW 1687   1.434   2.433   2.892 -1.0638  0.7625 -0.2893
  563SOL    HW1 1688   1.424   2.427   2.790 -0.2168  1.8173 -4.8015
  563SOL    HW2 1689   1.428   2.339   2.933  1.5304 -0.9406 -1.6175
  564SOL     OW 1690   2.920   0.777   1.426  0.6121 -0.5415 -0.2581
  564SOL    HW1 1691   2.884   0.733   1.341 -0.6148 -0.3049  0.0352
  564SOL    HW2 1692   2.878   0.871   1.439  1.2553  2.1333  1.3473
  565SOL     OW 1693   1.710   1.110   0.399  0.1240  0.1358 -0.1760
  565SOL    HW1 1694   1.682   1.100   0.300 -0.1833 -0.5275  2.0001
  565SOL    HW2 1695   1.647   1.171   0.454  1.9336 -2.1642  0.3300
  566SOL     OW 1696   2.847   3.216   3.409 -0.4187  0.4423  0.4960
  566SOL    HW1 1697   2.921   3.146   3.395 -2.2345 -2.0852  2.6461
  566SOL    HW2 1698   2.761   3.165   3.430 -0.4758 -1.4244 -1.2670
  567SOL     OW 1699   2.229   0.910   1.214 -0.8478 -0.4027 -0.0466
  567SOL    HW1 1700   2.158   0.948   1.279 -0.9649  0.8910 -0.5431
  567SOL    HW2 1701   2.259   0.816   1.241 -2.5515  1.6864 -0.2769
  568SOL     OW 1702   1.349   1.246   3.080  0.1937  0.0542 -0.9149
  568SOL    HW1 1703   1.343   1.334   3.135  1.3859 -3.3681 -1.3593
  568SOL    HW2 1704   1.342   1.257   2.978 -0.4798  0.0203 -1.4544
  569SOL     OW 1705   2.475   1.910   0.946 -0.4786 -0.2250  0.2513
  569SOL    HW1 1706   2.405   1.841   0.915  0.9578 -1.6635  1.9968
  569SOL    HW2 1707   2.555   1.866   0.996  1.6876  0.3906 -2.3995
  570SOL     OW 1708   2.977   3.011   2.684 -0.0516  0.2573  0.3021
  570SOL    HW1 1709   2.900   3.070   2.722  1.1054 -0.0396 -0.6197
  570SOL    HW2 1710   2.993   3.035   2.586  0.0023 -1.6180 -2.9410
  571SOL     OW 1711   0.006   2.411   1.955  0.0963 -0.4923 -0.4998
  571SOL    HW1 1712  -0.066   2.414   1.882 -0.0806  2.1914 -0.5835
  571SOL    HW2 1713  -0.038   2.395   2.047 -1.0091  1.4736 -2.8931
  572SOL     OW 1714   1.244   2.602   3.031  0.1526 -0.1703  0.1255
  572SOL    HW1 1715   1.285   2.697   3.038 -0.9855 -0.6770  2.2919
  572SOL    HW2 1716   1.315   2.537   2.994 -0.5717 -1.8198  2.1575
  573SOL     OW 1717   1.834   2.711   1.630  0.1839 -0.3353  0.6352
  573SOL    HW1 1718   1.745   2.722   1.681  0.0737  2.3641  1.0394
  573SOL    HW2 1719   1.905   2.680   1.697 -0.0646  1.5385 -3.9258
  574SOL     OW 1720   1.353   3.265   1.779  0.2259  0.3902  0.7133
  574SOL    HW1 1721   1.259   3.271   1.735  0.3822 -1.0274  2.2431
  574SOL    HW2 1722   1.347   3.285   1.880  1.2666  3.1500 -0.4899
  575SOL     OW 1723   0.806   0.618   1.069 -0.2476 -0.1293 -0.3460
  575SOL    HW1 1724   0.882   0.651   1.009 -2.1363 -0.4746 -0.0511
  575SOL    HW2 1725   0.829   0.631   1.169 -0.5002 -1.7846 -1.3586
  576SOL     OW 1726   2.541   0.720   1.721 -0.7588 -0.1029 -0.1608
  576SOL    HW1 1727   2.495   0.796   1.772 -1.4285 -0.2573  1.1912
  576SOL    HW2 1728   2.603   0.761   1.648 -4.2040  1.2444 -0.2937
  577SOL     OW 1729   2.352   0.168   3.449  0.8317  0.3812  0.2538
  577SOL    HW1 1730   2.432   0.203   3.393  2.7985  2.3543  0.2375
  577SOL    HW2 1731   2.268   0.181   3.392 -0.3859  0.0846  0.6720
  578SOL     OW 1732   1.987   2.220   2.332  0.1741  0.3969 -0.0504
  578SOL    HW1 1733   1.983   2.118   2.330 -0.0104  0.2709 -0.6145
  578SOL    HW2 1734   1.963   2.256   2.238  1.1262 -1.9632 -1.3030
  579SOL     OW 1735   1.024   1.898   1.181  0.4858 -0.1371  0.8592
  579SOL    HW1 1736   1.075   1.986   1.181 -0.2151 -0.5728 -0.0626
  579SOL    HW2 1737   0.954   1.890   1.105 -1.8117  1.0079  0.2955
  580SOL     OW 1738   1.383   0.065   3.470 -0.1999 -0.3157 -0.0612
  580SOL    HW1 1739   1.330   0.016   3.545  0.0586  3.2226  1.7226
  580SOL    HW2 1740   1.451   0.136   3.505 -1.5969 -1.6010 -0.2186
  581SOL     OW 1741   1.363   1.069   2.031 -0.2055  0.2143 -0.1916
  581SOL    HW1 1742   1.404   0.992   2.086  0.6606  2.7169  1.8548
  581SOL    HW2 1743   1.390   1.063   1.932  1.1636 -0.2570  0.7015
  582SOL     OW 1744   0.363   0.386   1.125  0.2006 -0.3159  0.4973
  582SOL    HW1 1745   0.346   0.479   1.082 -1.4285  1.8722 -0.2184
  582SOL    HW2 1746   0.462   0.360   1.119  1.3164 -0.9939 -2.4105
  583SOL     OW 1747   0.935   2.307   2.097  0.3140 -0.5055 -0.2595
  583SOL    HW1 1748   0.915   2.211   2.130  1.1779  3.0222 -0.6169
  583SOL    HW2 1749   1.017   2.306   2.036  1.2530  0.0177 -0.1265
  584SOL     OW 1750   2.995   2.893   0.361  0.2340  0.4971  0.5270
  584SOL    HW1 1751   3.085   2.938   0.384  0.9790 -0.1370 -1.2310
  584SOL    HW2 1752   2.925   2.930   0.428  0.4815 -1.0735 -0.3626
  585SOL     OW 1753   2.696   0.677   3.352 -0.7803  1.2598 -0.4637
  585SOL    HW1 1754   2.684   0.627   3.441 -0.3350  2.2802 -0.1853
  585SOL    HW2 1755   2.653   0.622   3.276 -1.7183  1.3245 -0.2119
  586SOL     OW 1756   0.572   1.560   0.316  0.1089  0.7168 -0.5724
  586SOL    HW1 1757   0.632   1.632   0.359  2.2589  0.3782 -1.7797
  586SOL    HW2 1758   0.475   1.597   0.322 -2.2464 -0.1474 -1.2881
  587SOL     OW 1759   2.064   2.420   1.502  0.2572 -0.3870  0.0644
  587SOL    HW1 1760   2.080   2.390   1.404 -0.6857 -0.7685  2.7344
  587SOL    HW2 1761   1.988   2.492   1.510 -1.3654  0.9846 -3.9545
  588SOL     OW 1762   0.620   0.770   1.496 -0.0524  0.1394 -0.0025
  588SOL    HW1 1763   0.709   0.744   1.451  1.0989 -1.3495  5.6620
  588SOL    HW2 1764   0.548   0.796   1.428  1.4534 -0.8536  0.5826
  589SOL     OW 1765   2.417   3.415   0.959 -0.6316  0.4561  0.0539
  589SOL    HW1 1766   2.437   3.439   0.860 -2.0058 -1.3227  0.8828
  589SOL    HW2 1767   2.318   3.385   0.966  1.7945 -1.1825  0.2089
  590SOL     OW 1768   2.026   1.170   0.472  0.6550 -0.0599 -0.3461
  590SOL    HW1 1769   2.096   1.140   0.403 -0.8314 -0.3441 -0.1068
  590SOL    HW2 1770   1.930   1.141   0.449 -0.5130  2.4455 -1.3759
  591SOL     OW 1771   2.728   2.410   2.370 -0.0245 -0.0324  0.1777
  591SOL    HW1 1772   2.805   2.345   2.346 -1.6553 -2.5871 -0.0274
  591SOL    HW2 1773   2.771   2.502   2.381 -0.8433 -2.6668  0.3806
  592SOL     OW 1774   1.570   2.329   1.376 -0.2861  0.7617 -0.4490
  592SOL    HW1 1775   1.611   2.257   1.316 -1.3254 -1.0138 -0.5674
  592SOL    HW2 1776   1.476   2.360   1.348 -0.8596  0.6536 -2.1393
  593SOL     OW 1777   0.659   3.267   0.917 -0.1602 -0.4221  0.3508
  593SOL    HW1 1778   0.761   3.252   0.928 -2.1107  2.4753  0.6867
  593SOL    HW2 1779   0.625   3.321   0.999  2.6543 -0.6261  3.1345
  594SOL     OW 1780   3.344   1.154   2.757 -0.1426 -0.4727 -0.6622
  594SOL    HW1 1781   3.367   1.219   2.681 -1.2312  0.6421  3.5578
  594SOL    HW2 1782   3.415   1.079   2.769 -0.4294 -2.8659  0.7304
  595SOL     OW 1783   3.517   3.529   0.707  0.2462 -0.1287  0.6837
  595SOL    HW1 1784   3.594   3.512   0.641 -1.2439  2.6309  1.9771
  595SOL    HW2 1785   3.537   3.616   0.760 -1.2715  0.9852  4.3845
  596SOL     OW 1786   0.003   0.658   1.689  0.2425  0.1903 -0.4080
  596SOL    HW1 1787   0.023   0.745   1.741 -0.0416 -4.5173  0.1684
  596SOL    HW2 1788  -0.093   0.624   1.711 -0.4024  0.5393 -0.9021
  597SOL     OW 1789   3.087   1.411   0.459  0.1618 -0.0691 -0.0248
  597SOL    HW1 1790   3.158   1.335   0.459 -0.8232  0.0158  1.8514
  597SOL    HW2 1791   2.993   1.373   0.440 -0.8813  2.0241  1.8849
  598SOL     OW 1792   0.704   0.432   2.434  0.0405 -0.0818  0.4289
  598SOL    HW1 1793   0.697   0.523   2.387  3.5084 -1.4273  0.5240
  598SOL    HW2 1794   0.618   0.415   2.488 -0.6309 -0.8436  1.4304
  599SOL     OW 1795   2.961   2.071   0.215  0.3053  0.1177 -0.1908
  599SOL    HW1 1796   2.941   2.166   0.181 -1.1881 -2.4906 -0.2397
  599SOL    HW2 1797   3.028   2.079   0.294 -2.1681  0.3012  5.3334
  600SOL     OW 1798   0.994   1.003   0.186  0.2569 -0.5275 -0.8205
  600SOL    HW1 1799   1.084   1.046   0.155 -2.7501  0.9068  0.3256
  600SOL    HW2 1800   0.915   1.065   0.165 -1.9575  0.4854  0.3285
  601SOL     OW 1801   1.607   1.093   0.124 -0.0219  0.0318 -0.0122
  601SOL    HW1 1802   1.521   1.148   0.115 -1.7823  0.2241  1.7199
  601SOL    HW2 1803   1.596   1.001   0.081 -3.4935  0.7860 -0.9240
  602SOL     OW 1804   1.177   3.590   1.970  0.0733  0.0804 -0.3059
  602SOL    HW1 1805   1.214   3.685   1.985  2.2272  1.2544 -3.9314
  602SOL    HW2 1806   1.114   3.586   1.887 -1.9237 -1.6668  0.2807
  603SOL     OW 1807   1.116   3.284   2.775  0.0909  0.1158  0.3232
  603SOL    HW1 1808   1.198   3.342   2.797  1.6718 -0.5593  1.2976
  603SOL    HW2 1809   1.121   3.254   2.677 -3.2596 -1.4929  0.6725
  604SOL     OW 1810   0.035   0.079   2.301  0.3242 -0.4381  0.5368
  604SOL    HW1 1811   0.083   0.003   2.353  2.8733 -1.4672 -0.6239
  604SOL    HW2 1812  -0.052   0.048   2.257 -1.7148  0.4844  0.1523
  605SOL     OW 1813   3.067   3.252   1.908  0.2024 -0.0655  0.1606
  605SOL    HW1 1814   3.020   3.180   1.961 -1.8957  1.3751 -0.3280
  605SOL    HW2 1815   3.170   3.247   1.920  2.5773  1.8522  1.3080
  606SOL     OW 1816   0.056   2.210   2.952  0.0975  0.7704  0.1846
  606SOL    HW1 1817   0.061   2.124   3.007 -1.3882 -0.1310  0.2532
  606SOL    HW2 1818   0.117   2.284   2.992 -0.2597 -1.0923 -3.1880
  607SOL     OW 1819   0.956   0.126   0.768  0.4110  0.4567  0.5257
  607SOL    HW1 1820   0.937   0.207   0.708 -1.1894  0.4184  2.5931
  607SOL    HW2 1821   0.999   0.148   0.858  3.0448  2.1863 -1.3586
  608SOL     OW 1822   1.893   2.086   2.881  0.4344 -0.3250 -0.5717
  608SOL    HW1 1823   1.879   1.993   2.838 -1.8011  0.8323  0.1311
  608SOL    HW2 1824   1.940   2.150   2.814  1.6252 -1.8960  1.5820
  609SOL     OW 1825   3.547   0.361   1.478 -0.7434 -0.0102 -0.5719
  609SOL    HW1 1826   3.618   0.431   1.446 -1.5558  1.8678  0.4745
  609SOL    HW2 1827   3.587   0.308   1.555 -1.1322 -0.6508  1.1918
  610SOL     OW 1828   1.060   2.827   3.587  0.2916  0.1362  0.0206
  610SOL    HW1 1829   1.013   2.853   3.501  0.3350 -1.5910 -1.4430
  610SOL    HW2 1830   1.015   2.875   3.668 -0.5312  1.1093 -0.3599
  611SOL     OW 1831   2.248   1.577   0.583 -0.0058 -0.4109  0.6530
  611SOL    HW1 1832   2.286   1.640   0.510  1.0442  0.6026  0.4288
  611SOL    HW2 1833   2.158   1.547   0.539 -1.0091  2.7580 -0.5451
  612SOL     OW 1834   1.172   3.070   2.954  0.1436  0.5581  0.2899
  612SOL    HW1 1835   1.153   3.152   2.893  1.2821 -0.8511 -1.6659
  612SOL    HW2 1836   1.101   2.996   2.943  0.7743  2.0797 -0.0228
  613SOL     OW 1837   1.360   2.353   0.129  0.0036 -0.3289  0.3834
  613SOL    HW1 1838   1.306   2.419   0.187 -1.3995  3.8631 -2.4607
  613SOL    HW2 1839   1.303   2.333   0.045  0.9076 -1.0705 -1.8466
  614SOL     OW 1840   3.075   2.779   1.869  0.3450  0.1391  0.2868
  614SOL    HW1 1841   3.061   2.725   1.784  0.6633  0.1196  0.9169
  614SOL    HW2 1842   3.038   2.733   1.954  1.6290  2.2326  0.3278
  615SOL     OW 1843   2.938   1.494   0.054  0.0896 -0.3170  0.2322
  615SOL    HW1 1844   2.964   1.524  -0.041  3.6540 -1.2936 -1.2231
  615SOL    HW2 1845   2.885   1.407   0.056  2.2740 -0.1743 -0.8197
  616SOL     OW 1846   1.921   0.049   0.629 -0.2910  0.3228 -0.4049
  616SOL    HW1 1847   1.887   0.004   0.716  1.9346 -1.7424  1.9489
  616SOL    HW2 1848   2.024   0.043   0.625  2.4404  1.8023  1.4578
  617SOL     OW 1849   0.564   1.743   3.267 -0.3269 -0.1393 -0.0293
  617SOL    HW1 1850   0.546   1.799   3.182 -0.4332  0.6395 -1.3105
  617SOL    HW2 1851   0.663   1.715   3.273 -0.1303  0.8307 -2.5638
  618SOL     OW 1852   0.569   0.852   2.076 -0.0993  0.4203 -0.0304
  618SOL    HW1 1853   0.466   0.850   2.072 -0.8802 -0.9968 -1.3408
  618SOL    HW2 1854   0.605   0.811   1.989  0.4910  1.6119 -1.1956
  619SOL     OW 1855   3.314   1.132   2.367  0.3859 -0.4680 -0.9307
  619SOL    HW1 1856   3.357   1.201   2.431  1.4649  1.1226  2.3251
  619SOL    HW2 1857   3.309   1.040   2.409  1.6464 -0.8958 -0.7562
  620SOL     OW 1858   2.548   1.098   3.545 -0.0033  0.0345  0.1146
  620SOL    HW1 1859   2.597   1.052   3.468 -0.4344  0.5197 -2.3411
  620SOL    HW2 1860   2.458   1.139   3.516 -1.0774  0.2342 -0.7762
  621SOL     OW 1861   2.847   3.524   1.437 -0.0446  0.3523  0.5225
  621SOL    HW1 1862   2.924   3.484   1.492  0.2911  1.7037 -0.9554
  621SOL    HW2 1863   2.762   3.537   1.493 -1.0744 -0.4138  1.5875
  622SOL     OW 1864   1.999   0.650   2.428  0.0678 -0.1776  0.1804
  622SOL    HW1 1865   1.999   0.569   2.363  0.3615  2.8944 -0.4863
  622SOL    HW2 1866   1.916   0.707   2.403 -1.5317 -1.1360 -0.2244
  623SOL     OW 1867   1.780   1.092   2.819  0.1194 -0.3976 -0.4181
  623SOL    HW1 1868   1.874   1.112   2.777 -0.1001  0.8136  1.1592
  623SOL    HW2 1869   1.776   1.115   2.921 -0.1707  0.3834  2.9569
  624SOL     OW 1870   2.216   0.056   0.626 -0.1577  0.4749 -0.1956
  624SOL    HW1 1871   2.229   0.105   0.537  2.2637  1.8576  1.1797
  624SOL    HW2 1872   2.286  -0.019   0.640 -3.5592 -0.0029  1.0514
  625SOL     OW 1873   0.801   1.793   0.467  0.0725 -0.3055  0.6296
  625SOL    HW1 1874   0.869   1.717   0.482  0.1658  1.0171  2.1975
  625SOL    HW2 1875   0.807   1.864   0.541  0.2537  0.0555  0.0289
  626SOL     OW 1876   1.931   1.420   2.697 -0.4935  0.1249  0.1675
  626SOL    HW1 1877   1.944   1.455   2.602  0.2498 -0.0628 -1.1777
  626SOL    HW2 1878   1.832   1.442   2.724 -3.1082  1.7323 -0.9427
  627SOL     OW 1879   0.952   0.645   2.153 -0.1851  0.1775 -0.3954
  627SOL    HW1 1880   1.031   0.693   2.199 -0.0003 -1.3101  0.3011
  627SOL    HW2 1881   0.863   0.661   2.203  0.0829 -0.5212  1.5927
  628SOL     OW 1882   2.460   0.969   2.661  0.2328  0.0510  0.7109
  628SOL    HW1 1883   2.381   0.920   2.615  1.4886 -0.4889 -0.2225
  628SOL    HW2 1884   2.540   0.978   2.597  0.2919  0.2894  0.2651
  629SOL     OW 1885   0.910   1.603   3.545 -0.1456 -0.1161 -0.0125
  629SOL    HW1 1886   0.894   1.634   3.448 -1.8986  1.0717 -2.6598
  629SOL    HW2 1887   0.828   1.555   3.586 -1.4239  0.3849 -0.9574
  630SOL     OW 1888   1.610   0.587   2.640  0.8690  0.6242 -0.1370
  630SOL    HW1 1889   1.599   0.689   2.634 -0.4354  0.7567  1.4214
  630SOL    HW2 1890   1.699   0.556   2.683 -0.0612  0.6725 -0.3883
  631SOL     OW 1891   3.050   0.870   1.033  0.2738  0.4842 -0.5694
  631SOL    HW1 1892   3.008   0.792   1.087 -0.3076  0.2714  3.9808
  631SOL    HW2 1893   2.977   0.926   0.983 -0.3473 -2.0128  1.2156
  632SOL     OW 1894   3.199   2.083   0.807  0.4287 -0.1877 -0.8625
  632SOL    HW1 1895   3.188   2.005   0.742 -1.7539 -2.5188  1.2832
  632SOL    HW2 1896   3.276   2.146   0.776 -2.1768 -1.6855 -1.2186
  633SOL     OW 1897   0.830   1.535   0.888 -0.1698 -0.3229  0.3474
  633SOL    HW1 1898   0.821   1.478   0.973  1.0754 -0.9389  1.1960
  633SOL    HW2 1899   0.806   1.481   0.802 -1.9031 -3.1175  0.5960
  634SOL     OW 1900   1.812   3.562   0.299  0.2642  0.6013 -0.5270
  634SOL    HW1 1901   1.724   3.509   0.294  1.1277 -0.1905 -0.2786
  634SOL    HW2 1902   1.835   3.595   0.395 -0.5937  0.4879 -0.8139
  635SOL     OW 1903   2.330   0.318   2.044 -0.1021 -0.0444  0.9229
  635SOL    HW1 1904   2.367   0.303   1.950 -0.3728 -0.2108 -0.5694
  635SOL    HW2 1905   2.368   0.405   2.084 -1.5659 -2.0183 -2.8302
  636SOL     OW 1906   1.600   0.778   0.800  0.1112  0.3396 -0.1419
  636SOL    HW1 1907   1.543   0.860   0.822  1.8844 -1.0835  0.3129
  636SOL    HW2 1908   1.669   0.770   0.875  0.4073  1.0088 -0.5215
  637SOL     OW 1909   2.319   1.714   3.442  0.2516  0.6257 -0.5662
  637SOL    HW1 1910   2.326   1.767   3.353  1.4244 -0.9150  0.6670
  637SOL    HW2 1911   2.221   1.711   3.475  1.0650 -0.2076  3.5212
  638SOL     OW 1912   1.059   0.005   3.135 -0.1439  0.0207  0.4246
  638SOL    HW1 1913   1.060  -0.091   3.176 -0.2183  0.5289 -0.3804
  638SOL    HW2 1914   0.992   0.008   3.055 -0.4131  0.2372  1.3003
  639SOL     OW 1915   1.273   2.404   1.707  0.4452 -0.6332 -0.2162
  639SOL    HW1 1916   1.199   2.395   1.637 -0.6708 -0.8747  0.7465
  639SOL    HW2 1917   1.352   2.342   1.685  3.1168  0.8581  0.7845
  640SOL     OW 1918   0.513   0.164   3.347 -0.2660 -0.4577 -0.5762
  640SOL    HW1 1919   0.438   0.123   3.404 -1.1967 -1.2709  1.2098
  640SOL    HW2 1920   0.533   0.110   3.261 -0.0262  2.3314 -0.6220
  641SOL     OW 1921   0.431   0.787   0.359 -0.0430  0.5239  0.0720
  641SOL    HW1 1922   0.334   0.750   0.362 -2.0565 -0.5103  1.0903
  641SOL    HW2 1923   0.432   0.889   0.378  2.2901  2.6459 -1.8495
  642SOL     OW 1924   0.362   1.935   1.320 -0.8921  0.1847 -0.2844
  642SOL    HW1 1925   0.399   2.029   1.336 -1.1384  0.4435 -1.4012
  642SOL    HW2 1926   0.398   1.894   1.232  1.7461  1.4657  1.2178
  643SOL     OW 1927   0.967   2.074   3.185  0.3268  0.4134 -0.8632
  643SOL    HW1 1928   0.897   2.141   3.222 -1.2429 -1.2402  2.3024
  643SOL    HW2 1929   1.060   2.099   3.224 -0.9922  1.6433  1.5947
  644SOL     OW 1930   1.812   2.809   0.495 -0.5193  0.4443 -0.4679
  644SOL    HW1 1931   1.904   2.810   0.449  1.3360  1.2550  1.0724
  644SOL    HW2 1932   1.819   2.797   0.596 -0.7634 -1.0396  1.2098
  645SOL     OW 1933   1.205   2.717   1.791  0.5117 -0.1487 -0.8485
  645SOL    HW1 1934   1.226   2.619   1.770 -1.0227  2.3329 -1.0579
  645SOL    HW2 1935   1.266   2.785   1.744  2.5670  0.0824  0.7376
  646SOL     OW 1936   0.606   2.978   0.042  0.3628  0.2279  0.3725
  646SOL    HW1 1937   0.699   2.957   0.086  1.3085  0.7296  1.9042
  646SOL    HW2 1938   0.593   3.076   0.013  3.0593  2.4636 -2.6711
  647SOL     OW 1939   0.154   3.512   2.464  0.0559  0.1566  0.0684
  647SOL    HW1 1940   0.098   3.509   2.550  1.3415  1.9451  2.5673
  647SOL    HW2 1941   0.254   3.494   2.485 -2.0112 -1.4491 -0.4235
  648SOL     OW 1942   3.011   1.210   1.295 -0.0422 -0.0295  0.2131
  648SOL    HW1 1943   3.091   1.153   1.266  0.4661 -0.2335  0.5436
  648SOL    HW2 1944   2.938   1.154   1.339  0.8192  0.2829 -0.5484
  649SOL     OW 1945   2.517   3.112   3.231 -0.4647  0.2031 -0.2692
  649SOL    HW1 1946   2.544   3.082   3.326  0.4609  0.0395 -0.8931
  649SOL    HW2 1947   2.504   3.215   3.223  0.7483 -2.5843 -1.2966
  650SOL     OW 1948   3.253   2.565   2.241  0.1853 -0.0522 -0.5535
  650SOL    HW1 1949   3.310   2.480   2.262  0.6891  3.6207 -0.7184
  650SOL    HW2 1950   3.296   2.627   2.172 -1.8716  0.6799 -1.3565
  651SOL     OW 1951   1.245   2.111   3.279 -0.4455 -0.2254  0.6466
  651SOL    HW1 1952   1.306   2.147   3.203 -1.4769 -0.6791 -2.0514
  651SOL    HW2 1953   1.290   2.028   3.323  0.8134 -0.8575 -0.2635
  652SOL     OW 1954   0.568   0.090   2.592 -0.1611  0.0827 -0.4518
  652SOL    HW1 1955   0.533   0.187   2.590 -1.3087  1.1704  0.3331
  652SOL    HW2 1956   0.644   0.084   2.662  3.2362 -1.3806 -2.3530
  653SOL     OW 1957   2.345   2.156   0.948 -0.0689 -0.6573 -0.1006
  653SOL    HW1 1958   2.393   2.066   0.954 -1.2719 -0.3943  2.7896
  653SOL    HW2 1959   2.392   2.230   1.001 -3.4964  2.1642 -0.8128
  654SOL     OW 1960   2.702   3.284   2.499 -0.1135  0.1571  0.3111
  654SOL    HW1 1961   2.646   3.287   2.585  1.4534  2.7799 -1.8543
  654SOL    HW2 1962   2.721   3.382   2.474  1.3632 -1.1067  1.1370
  655SOL     OW 1963   2.850   2.526   1.118  0.5034 -0.6522 -0.3921
  655SOL    HW1 1964   2.808   2.614   1.153 -0.0164 -3.4851  0.6746
  655SOL    HW2 1965   2.779   2.467   1.073  0.3381 -1.6328 -0.5101
  656SOL     OW 1966   3.170   1.793   3.395  0.3246  0.0931  0.4320
  656SOL    HW1 1967   3.203   1.866   3.331  1.7363 -0.2400 -1.2212
  656SOL    HW2 1968   3.211   1.806   3.488  0.9144 -1.2778  2.4514
  657SOL     OW 1969   0.080   1.447   0.762  0.0689 -0.4423 -0.0924
  657SOL    HW1 1970   0.005   1.395   0.715 -1.2442  2.5998  2.2871
  657SOL    HW2 1971   0.055   1.482   0.856 -0.6687  1.3519  0.8546
  658SOL     OW 1972   1.366   1.960   1.570  0.1877 -0.1928 -0.0644
  658SOL    HW1 1973   1.409   1.918   1.487 -1.4688 -2.5687 -1.3904
  658SOL    HW2 1974   1.264   1.959   1.563  1.1057  3.9215  1.8717
  659SOL     OW 1975   1.493   0.111   1.686 -0.9903  0.3939 -0.2315
  659SOL    HW1 1976   1.508   0.166   1.773  2.7307 -0.7100  0.1561
  659SOL    HW2 1977   1.442   0.162   1.611 -0.5984 -1.3933  0.3808
  660SOL     OW 1978   2.980   0.527   0.826 -0.3658 -0.7598  0.1453
  660SOL    HW1 1979   2.901   0.586   0.858  0.5747  2.7300  4.1940
  660SOL    HW2 1980   3.023   0.564   0.741 -1.4383 -0.6602  1.3446
  661SOL     OW 1981   0.621   2.250   0.410  0.6292 -0.2514 -0.1060
  661SOL    HW1 1982   0.650   2.163   0.364  0.0800 -0.4171 -2.3590
  661SOL    HW2 1983   0.597   2.327   0.346 -0.1226 -2.1187 -0.4260
  662SOL     OW 1984   2.665   0.992   2.461  0.4563  0.1954  0.0526
  662SOL    HW1 1985   2.708   0.900   2.439 -1.4986 -0.3975 -0.1619
  662SOL    HW2 1986   2.619   1.031   2.378  1.0986 -1.1889 -1.3965
  663SOL     OW 1987   2.099   1.663   1.269  0.2425  0.0808  0.0632
  663SOL    HW1 1988   2.133   1.584   1.210  0.9451  0.8515 -0.2424
  663SOL    HW2 1989   2.179   1.710   1.315  1.1116  1.1514  2.1575
  664SOL     OW 1990   0.686   3.560   1.413  0.1107 -0.4210 -0.6143
  664SOL    HW1 1991   0.737   3.647   1.386 -0.2190 -0.1168 -2.0095
  664SOL    HW2 1992   0.683   3.555   1.515  2.0800 -0.0568 -1.1558
  665SOL     OW 1993   1.650   0.289   3.405 -0.1492  0.4722  0.3314
  665SOL    HW1 1994   1.723   0.217   3.392 -2.7121 -0.6862 -1.2121
  665SOL    HW2 1995   1.649   0.354   3.325 -0.3450  1.7741  2.1742
  666SOL     OW 1996   1.062   0.720   2.601 -0.1645  0.2784 -0.4051
  666SOL    HW1 1997   1.028   0.624   2.614  1.2039  0.4084 -1.3242
  666SOL    HW2 1998   0.981   0.779   2.580 -1.6416  0.6486  3.2603
  667SOL     OW 1999   1.618   1.567   1.719  0.1723  0.0082 -0.2326
  667SOL    HW1 2000   1.546   1.625   1.764 -1.7222 -0.7283  0.5205
  667SOL    HW2 2001   1.607   1.578   1.617 -2.5146 -4.0294 -0.0327
  668SOL     OW 2002   0.399   1.302   2.442 -0.2996 -0.3943 -0.2168
  668SOL    HW1 2003   0.480   1.277   2.500  1.5909  2.0224 -3.7677
  668SOL    HW2 2004   0.405   1.393   2.396 -3.9035  0.1649 -1.0468
  669SOL     OW 2005   3.051   2.985   3.378 -0.2990  0.7795 -0.2633
  669SOL    HW1 2006   3.017   2.914   3.311  0.4506  1.5455  0.0440
  669SOL    HW2 2007   3.054   2.951   3.476  1.1547 -0.7071  0.5678
  670SOL     OW 2008   3.071   1.528   2.012  0.1353 -0.3082  0.1925
  670SOL    HW1 2009   3.167   1.558   1.991 -0.9603 -1.8530  3.7778
  670SOL    HW2 2010   3.071   1.451   2.081 -2.2829 -0.1589 -1.6533
  671SOL     OW 2011   3.425   2.233   0.700  0.2131  0.1582  0.5356
  671SOL    HW1 2012   3.414   2.335   0.695  0.7066  1.5981 -0.6722
  671SOL    HW2 2013   3.443   2.190   0.609 -0.2872 -1.3735  2.1319
  672SOL     OW 2014   1.839   1.122   2.247  0.2064  0.3705  0.3955
  672SOL    HW1 2015   1.929   1.150   2.291  1.7128 -0.3394  1.0002
  672SOL    HW2 2016   1.847   1.132   2.143  1.7710  1.6964 -0.7535
  673SOL     OW 2017   3.427   2.414   1.764 -0.2090 -0.0625  0.3953
  673SOL    HW1 2018   3.360   2.493   1.773 -0.9744  0.2938 -1.3847
  673SOL    HW2 2019   3.396   2.347   1.691  3.0432 -0.0688 -0.2165
  674SOL     OW 2020   0.713   2.428   1.831  0.5897  0.4563 -0.3954
  674SOL    HW1 2021   0.784   2.417   1.907 -0.6146 -1.1918  2.2116
  674SOL    HW2 2022   0.630   2.471   1.873 -1.1751  0.1331 -4.9945
  675SOL     OW 2023   3.392   0.904   1.431 -0.4420  0.3232  0.0342
  675SOL    HW1 2024   3.476   0.943   1.476  1.1655 -0.4151 -0.1210
  675SOL    HW2 2025   3.395   0.801   1.424  0.5701  0.2033 -1.2248
  676SOL     OW 2026   3.422   1.043   2.063  0.1428 -0.6164  0.0430
  676SOL    HW1 2027   3.398   1.071   2.161 -2.4699 -0.8093 -3.0940
  676SOL    HW2 2028   3.368   0.959   2.039  1.9014 -0.8348  0.0325
  677SOL     OW 2029   2.430   1.335   2.909  0.5471 -0.3495 -0.1780
  677SOL    HW1 2030   2.336   1.378   2.919  0.0021 -2.6729  0.3796
  677SOL    HW2 2031   2.491   1.354   2.990  1.4985  1.7403 -0.0341
  678SOL     OW 2032   2.922   1.720   1.348 -0.0775 -0.2860  0.4496
  678SOL    HW1 2033   2.933   1.647   1.277 -0.6624  1.8678  0.9876
  678SOL    HW2 2034   3.014   1.754   1.381 -2.5586  1.0073 -1.5121
  679SOL     OW 2035   0.179   3.203   0.021  0.5649  0.3704 -0.1465
  679SOL    HW1 2036   0.199   3.124  -0.043 -0.7753 -0.7545 -0.3223
  679SOL    HW2 2037   0.183   3.171   0.120  1.7779  0.3708 -3.1306
  680SOL     OW 2038   0.069   1.926   1.346 -0.4746 -0.6308  0.6701
  680SOL    HW1 2039   0.169   1.933   1.326  0.3070  0.3970 -0.9915
  680SOL    HW2 2040   0.034   2.005   1.402 -1.3387 -0.1760 -1.9469
  681SOL     OW 2041   1.080   0.147   1.032 -1.0595 -0.1450 -0.3784
  681SOL    HW1 2042   1.027   0.162   1.119 -1.4983 -0.2296 -0.1920
  681SOL    HW2 2043   1.175   0.184   1.050  0.9201  2.0584  0.5099
  682SOL     OW 2044   2.413   2.825   1.910  0.7755 -0.3251 -0.0143
  682SOL    HW1 2045   2.496   2.777   1.948 -0.2309  2.3656 -1.1834
  682SOL    HW2 2046   2.390   2.778   1.821  0.5166 -0.2495  2.1995
  683SOL     OW 2047   3.129   2.110   1.983  0.8421  0.0060 -0.7764
  683SOL    HW1 2048   3.096   2.188   1.926  1.3020 -1.3081  0.2097
  683SOL    HW2 2049   3.216   2.075   1.943  0.7085  2.7008 -2.1691
  684SOL     OW 2050   3.595   1.711   2.122  0.8742  0.0278 -0.1613
  684SOL    HW1 2051   3.591   1.721   2.224  0.1304  0.9148 -1.0024
  684SOL    HW2 2052   3.694   1.701   2.093  0.1497 -1.6923  1.3404
  685SOL     OW 2053   1.637   1.643   0.294 -0.1480  0.6209 -0.4188
  685SOL    HW1 2054   1.667   1.712   0.364 -0.1922 -2.4780 -0.8227
  685SOL    HW2 2055   1.720   1.597   0.255 -1.1322  0.2534 -0.9260
  686SOL     OW 2056   3.367   0.709   2.264 -0.5568 -0.0535  0.0444
  686SOL    HW1 2057   3.468   0.689   2.252 -1.5195  1.5816 -1.1853
  686SOL    HW2 2058   3.315   0.731   2.178  0.1776  0.1035  0.4770
  687SOL     OW 2059   1.849   0.065   3.390  0.5491  0.2406 -0.0048
  687SOL    HW1 2060   1.782   0.005   3.338  1.0014 -1.9748 -1.1222
  687SOL    HW2 2061   1.880   0.023   3.479 -0.4314 -2.8634  1.9883
  688SOL     OW 2062   1.452   2.153   3.046 -0.4014 -0.0593  0.2599
  688SOL    HW1 2063   1.448   2.061   2.998 -0.7763  3.5605 -0.5856
  688SOL    HW2 2064   1.548   2.177   3.074 -0.3671 -1.0939  3.0276
  689SOL     OW 2065   2.604   1.914   1.717  0.2679 -0.4551 -0.3682
  689SOL    HW1 2066   2.512   1.866   1.729 -1.2124  0.5208  3.7565
  689SOL    HW2 2067   2.670   1.851   1.670 -2.0177 -1.7517 -0.1785
  690SOL     OW 2068   2.742   2.520   1.484  0.3749 -0.1791 -0.3419
  690SOL    HW1 2069   2.683   2.498   1.565 -0.5896  0.8442  0.9087
  690SOL    HW2 2070   2.741   2.440   1.419 -1.5687 -0.9449 -1.3377
  691SOL     OW 2071   0.243   1.969   0.787  0.1473  0.2450 -0.6288
  691SOL    HW1 2072   0.291   2.041   0.732 -1.3657  2.2043 -0.2762
  691SOL    HW2 2073   0.154   2.008   0.823 -1.6616 -0.0796 -1.2633
  692SOL     OW 2074   3.227   3.544   3.449 -0.5170  0.1747 -0.2401
  692SOL    HW1 2075   3.330   3.548   3.461 -0.5801  3.3280  2.4266
  692SOL    HW2 2076   3.206   3.593   3.362 -0.3608 -0.6733 -1.2627
  693SOL     OW 2077   0.363   1.582   2.343  0.2033 -0.0853  0.1349
  693SOL    HW1 2078   0.330   1.611   2.250  0.0824 -0.2645 -0.7446
  693SOL    HW2 2079   0.300   1.617   2.417 -2.1725 -1.2993  0.7246
  694SOL     OW 2080   2.922   0.417   2.366  0.0386  0.0471  0.3199
  694SOL    HW1 2081   3.024   0.421   2.374 -0.1214  0.3770  2.8673
  694SOL    HW2 2082   2.890   0.387   2.273 -0.4746  1.2274  1.8933
  695SOL     OW 2083   1.718   0.880   2.365 -0.0702 -0.2833  0.0877
  695SOL    HW1 2084   1.684   0.897   2.460 -0.4488  2.5441  2.4047
  695SOL    HW2 2085   1.767   0.961   2.328  1.0502 -0.1058 -0.3091
  696SOL     OW 2086   2.592   3.385   1.997  0.2782  0.3861 -0.1752
  696SOL    HW1 2087   2.556   3.431   2.082  1.8622 -0.8063 -0.5408
  696SOL    HW2 2088   2.526   3.403   1.921 -0.0622 -0.6101  1.3598
  697SOL     OW 2089   1.249   0.893   2.377 -0.1405  0.0090  0.3554
  697SOL    HW1 2090   1.216   0.822   2.444  1.0191 -1.4226  0.4425
  697SOL    HW2 2091   1.327   0.857   2.320 -2.3711  2.2004  3.0369
  698SOL     OW 2092   2.628   1.954   3.212  0.2148 -0.2260  0.5609
  698SOL    HW1 2093   2.708   1.914   3.160 -0.4843  0.6330 -0.5913
  698SOL    HW2 2094   2.625   1.925   3.311  0.4374 -0.3839 -2.4248
  699SOL     OW 2095   2.830   1.274   0.372  0.4872 -0.6170  0.3252
  699SOL    HW1 2096   2.748   1.232   0.416 -0.4317 -0.5818  0.2363
  699SOL    HW2 2097   2.822   1.265   0.270 -0.2161  0.3965  2.3615
  700SOL     OW 2098   1.473   3.606   1.131  0.1126 -0.2111  0.2141
  700SOL    HW1 2099   1.518   3.563   1.049  4.0020 -1.1598  1.6263
  700SOL    HW2 2100   1.517   3.573   1.220  1.2750  1.8464  1.6353
  701SOL     OW 2101   3.452   0.575   0.881 -0.3725  0.1153 -0.2120
  701SOL    HW1 2102   3.393   0.660   0.876  1.3636  0.3820  2.7896
  701SOL    HW2 2103   3.537   0.598   0.935 -1.7905 -1.3599  0.4505
  702SOL     OW 2104   1.842   3.049   1.465 -0.9465  0.4490 -0.5604
  702SOL    HW1 2105   1.845   2.951   1.501 -0.2214 -1.9327 -1.6963
  702SOL    HW2 2106   1.867   3.121   1.533 -1.9308  1.4834  1.9072
  703SOL     OW 2107   0.084   0.600   1.417 -0.5045 -0.5754 -0.2342
  703SOL    HW1 2108   0.054   0.630   1.510  2.8603 -0.2962  1.8104
  703SOL    HW2 2109   0.188   0.609   1.412  0.6970  2.8864 -0.6283
  704SOL     OW 2110   1.256   3.345   2.085 -0.2785  0.8116 -0.1119
  704SOL    HW1 2111   1.229   3.433   2.040  1.5733 -1.2589  1.5362
  704SOL    HW2 2112   1.174   3.295   2.122 -0.4591 -1.7160  0.8903
  705SOL     OW 2113   0.068   2.309   3.589  0.2811  0.1373  0.9784
  705SOL    HW1 2114   0.119   2.252   3.657  1.0989 -1.4082 -0.6340
  705SOL    HW2 2115  -0.025   2.336   3.623 -2.4439  1.6316 -0.8027
  706SOL     OW 2116   0.073   0.677   0.379  0.6230  0.5741 -0.3712
  706SOL    HW1 2117   0.067   0.642   0.281 -2.2424  1.8747  3.0900
  706SOL    HW2 2118   0.023   0.612   0.441 -2.9711  0.2763 -0.3199
  707SOL     OW 2119   2.315   3.034   2.285 -0.2739 -0.2756  0.6100
  707SOL    HW1 2120   2.349   2.943   2.322 -0.2988 -1.0530 -1.0264
  707SOL    HW2 2121   2.366   3.117   2.321  0.6812  1.6567 -0.4992
  708SOL     OW 2122   0.696   3.543   1.736 -0.2742 -0.5009 -0.6848
  708SOL    HW1 2123   0.693   3.452   1.784 -0.7631 -0.4837  0.2831
  708SOL    HW2 2124   0.643   3.612   1.793  0.9946 -1.4248  0.5304
  709SOL     OW 2125   0.277   0.864   2.071 -0.3305 -0.5972 -0.2332
  709SOL    HW1 2126   0.207   0.885   1.999  1.3951 -0.0255 -0.2436
  709SOL    HW2 2127   0.269   0.930   2.150 -0.1862  0.5541  0.3540
  710SOL     OW 2128   0.292   0.693   0.909 -0.8116  0.3810 -0.1508
  710SOL    HW1 2129   0.215   0.686   0.978 -2.2247  1.2484 -0.8725
  710SOL    HW2 2130   0.276   0.775   0.850  0.3389  2.1774 -2.0123
  711SOL     OW 2131   2.798   2.749   2.387 -0.3688 -0.1755 -0.1603
  711SOL    HW1 2132   2.816   2.738   2.488 -0.2692 -0.0264  1.3692
  711SOL    HW2 2133   2.760   2.842   2.372 -2.0879  0.3095  1.4171
  712SOL     OW 2134   0.213   3.162   2.815  0.2059  0.1066 -0.2948
  712SOL    HW1 2135   0.189   3.252   2.860 -2.3031 -1.3305  1.5975
  712SOL    HW2 2136   0.145   3.132   2.746 -1.8043  1.0735  0.8333
  713SOL     OW 2137   2.755   0.232   0.771 -0.4203 -0.6798  0.8372
  713SOL    HW1 2138   2.820   0.303   0.809  0.9497 -0.8166  1.8538
  713SOL    HW2 2139   2.737   0.242   0.670  0.6502 -0.5428  0.2418
  714SOL     OW 2140   2.016   1.648   3.183  0.1371  0.3944 -0.6837
  714SOL    HW1 2141   2.014   1.750   3.188  0.8180  1.0505 -0.2240
  714SOL    HW2 2142   2.074   1.619   3.103 -1.5069  0.6192  0.3239
  715SOL     OW 2143   0.066   0.705   1.094 -0.2926 -0.3325  0.2691
  715SOL    HW1 2144   0.056   0.666   1.190 -1.5703  1.7596 -2.7499
  715SOL    HW2 2145   0.051   0.807   1.095  0.0071  3.0316  0.3917
  716SOL     OW 2146   0.926   0.827   1.882  0.3622 -0.0604  0.6362
  716SOL    HW1 2147   0.839   0.793   1.839  0.5673  1.2925  0.3976
  716SOL    HW2 2148   0.946   0.775   1.968  0.6111 -1.7678  0.7240
  717SOL     OW 2149   1.625   0.944   2.628 -0.8386 -0.1192  0.1000
  717SOL    HW1 2150   1.681   0.995   2.697 -2.1484  1.1605  1.9995
  717SOL    HW2 2151   1.538   0.995   2.609  0.6067 -2.4755 -0.9583
  718SOL     OW 2152   1.455   0.029   0.616  0.1483 -0.2246  0.3821
  718SOL    HW1 2153   1.488   0.120   0.652 -0.3149 -0.0614 -1.0264
  718SOL    HW2 2154   1.454   0.042   0.514  0.7202 -0.1293  2.2279
  719SOL     OW 2155   3.511   3.238   3.220  0.0878  0.1787  0.5248
  719SOL    HW1 2156   3.418   3.198   3.212 -3.3636  0.6319  1.0276
  719SOL    HW2 2157   3.581   3.168   3.248  0.8283 -2.6174 -0.4049
  720SOL     OW 2158   1.730   0.451   2.168 -0.2546  0.2027 -0.8052
  720SOL    HW1 2159   1.672   0.437   2.252  0.0610  0.3256 -0.6923
  720SOL    HW2 2160   1.828   0.432   2.193 -0.8844 -0.0489  1.8800
  721SOL     OW 2161   0.127   3.301   1.277  0.5861  0.2623 -0.0622
  721SOL    HW1 2162   0.100   3.398   1.253  2.7429 -0.8938  0.9990
  721SOL    HW2 2163   0.046   3.238   1.260 -0.7289  2.2180  1.3640
  722SOL     OW 2164   1.023   1.214   3.263 -0.7758  0.3054  0.1959
  722SOL    HW1 2165   0.982   1.281   3.197  1.2218 -1.1230  0.8024
  722SOL    HW2 2166   1.050   1.262   3.350  1.1091  0.9616 -1.0080
  723SOL     OW 2167   2.399   1.449   1.537 -0.6680  0.0365  0.0583
  723SOL    HW1 2168   2.459   1.482   1.459 -0.2260 -0.7233  0.5284
  723SOL    HW2 2169   2.370   1.524   1.602 -0.8355  1.2881  1.9942
  724SOL     OW 2170   1.068   2.208   0.406 -0.0150 -0.6292 -0.1339
  724SOL    HW1 2171   1.126   2.132   0.448  3.5675 -1.8002  1.9531
  724SOL    HW2 2172   1.051   2.192   0.305  0.4053 -2.3011  0.2280
  725SOL     OW 2173   0.021   0.908   1.832  0.8764  0.0943 -0.2915
  725SOL    HW1 2174   0.010   0.955   1.741  0.0157  0.3141  2.0087
  725SOL    HW2 2175  -0.046   0.949   1.900  1.3597  2.2063  2.6226
  726SOL     OW 2176   2.811   1.219   0.072 -0.0295 -0.2249 -0.7725
  726SOL    HW1 2177   2.715   1.208   0.038  0.5244  1.4461 -0.9560
  726SOL    HW2 2178   2.857   1.128   0.073 -0.1209 -0.2779 -1.7055
  727SOL     OW 2179   2.585   1.006   2.968  0.5739  0.0622  0.3015
  727SOL    HW1 2180   2.588   1.109   2.986 -1.3542  0.0150 -2.3925
  727SOL    HW2 2181   2.549   0.980   2.874  0.5519  0.4465  0.8985
  728SOL     OW 2182   2.117   2.245   1.726 -0.0680 -0.3238 -0.2125
  728SOL    HW1 2183   2.219   2.226   1.720  0.3837  0.7499  1.0715
  728SOL    HW2 2184   2.089   2.301   1.644  0.3278  2.1394  1.5258
  729SOL     OW 2185   2.158   1.262   2.383  0.0676 -0.0640 -0.2236
  729SOL    HW1 2186   2.096   1.344   2.401  0.7373 -1.2579  2.8459
  729SOL    HW2 2187   2.255   1.292   2.382  2.2101 -1.4933  1.0625
  730SOL     OW 2188   1.635   0.786   1.312  0.1373 -0.3280 -0.2903
  730SOL    HW1 2189   1.616   0.686   1.328  2.0852  1.2235  1.8357
  730SOL    HW2 2190   1.699   0.793   1.232  1.0269 -2.1336 -1.4854
  731SOL     OW 2191   0.612   0.895   3.583  0.3442 -0.8902 -0.1625
  731SOL    HW1 2192   0.641   0.857   3.493  1.2293  3.0222  1.7195
  731SOL    HW2 2193   0.617   0.828   3.660  4.1613 -1.5958  2.4910
  732SOL     OW 2194   0.445   1.134   0.438 -0.4854 -0.0071  0.3370
  732SOL    HW1 2195   0.530   1.192   0.425 -0.9765 -1.5295 -1.6528
  732SOL    HW2 2196   0.402   1.152   0.530 -3.1572 -1.0483 -0.9942
  733SOL     OW 2197   1.573   1.919   2.603 -0.4417 -0.0235  0.1616
  733SOL    HW1 2198   1.503   1.993   2.587  0.0977 -0.3753 -1.1510
  733SOL    HW2 2199   1.606   1.874   2.514  0.4624  1.2607 -3.5309
  734SOL     OW 2200   0.484   2.762   3.521 -0.2563  0.3888  0.0748
  734SOL    HW1 2201   0.532   2.837   3.573 -0.4359 -1.5878  1.0496
  734SOL    HW2 2202   0.435   2.691   3.577  2.2936 -0.4482 -0.5505
  735SOL     OW 2203   3.216   0.148   1.189 -0.2903 -0.0567 -0.1912
  735SOL    HW1 2204   3.248   0.140   1.286 -1.2263  0.0138  0.9931
  735SOL    HW2 2205   3.226   0.242   1.148  2.9786  0.3834 -1.0369
  736SOL     OW 2206   2.314   1.738   2.796  0.4102  0.3304 -0.1327
  736SOL    HW1 2207   2.408   1.710   2.762  2.8514 -0.0542 -0.1983
  736SOL    HW2 2208   2.325   1.804   2.874  0.3906  2.3648 -1.9078
  737SOL     OW 2209   0.063   0.939   0.482 -0.2475 -0.0929  0.2726
  737SOL    HW1 2210   0.052   1.006   0.406  2.2016 -1.8198  0.5117
  737SOL    HW2 2211   0.068   0.843   0.444 -2.0265 -0.3539  0.3843
  738SOL     OW 2212   1.060   2.374   1.499  0.0936  0.4467  0.2212
  738SOL    HW1 2213   1.023   2.289   1.454 -0.2197 -0.6739  1.0544
  738SOL    HW2 2214   0.983   2.440   1.518  1.4750 -0.2624 -0.9309
  739SOL     OW 2215   2.138   3.028   2.778 -0.1944  0.3254  0.1156
  739SOL    HW1 2216   2.166   3.048   2.875  1.4113 -1.0360  1.2501
  739SOL    HW2 2217   2.114   3.114   2.728 -1.0405  0.3340 -0.9895
  740SOL     OW 2218   2.715   2.748   1.255  0.5452  0.4001 -0.0960
  740SOL    HW1 2219   2.719   2.699   1.346 -0.5214 -0.5570  0.6407
  740SOL    HW2 2220   2.754   2.843   1.266 -0.9109 -2.9143 -0.7478
  741SOL     OW 2221   2.736   0.740   0.131 -0.1187  0.0892 -0.0470
  741SOL    HW1 2222   2.732   0.663   0.062  0.7786  0.0589 -1.6549
  741SOL    HW2 2223   2.762   0.698   0.223 -1.5302 -0.1763 -3.6159
  742SOL     OW 2224   1.311   2.824   0.117  0.1759 -0.0236 -0.4445
  742SOL    HW1 2225   1.234   2.818   0.049  0.2607  1.4202  0.2140
  742SOL    HW2 2226   1.341   2.922   0.129 -1.6924 -2.3470  2.5158
  743SOL     OW 2227   3.047   1.638   2.447  0.0053 -0.2959 -0.2003
  743SOL    HW1 2228   2.996   1.655   2.358 -0.9407  4.5873  0.9070
  743SOL    HW2 2229   3.030   1.545   2.484 -0.2427 -0.6686  0.8918
  744SOL     OW 2230   3.475   0.194   0.470  0.0034 -0.2501  0.1256
  744SOL    HW1 2231   3.397   0.213   0.532  0.8007  1.8654 -2.8864
  744SOL    HW2 2232   3.449   0.125   0.398  1.2267 -0.3667 -2.9481
  745SOL     OW 2233   3.055   2.104   1.534  0.5388 -0.2709 -0.5216
  745SOL    HW1 2234   3.090   2.006   1.521  1.0575  2.6714  0.4470
  745SOL    HW2 2235   2.980   2.116   1.463  4.0214 -3.1618  0.6655
  746SOL     OW 2236   1.277   1.940   0.513  0.5156 -0.5946 -0.4277
  746SOL    HW1 2237   1.252   1.924   0.612  0.6899  0.5197  0.7777
  746SOL    HW2 2238   1.256   1.861   0.451  1.4769 -0.1233 -0.9041
  747SOL     OW 2239   1.378   1.824   1.831  0.6136  0.3857  0.0235
  747SOL    HW1 2240   1.398   1.874   1.742 -1.1603 -3.3778  0.0706
  747SOL    HW2 2241   1.303   1.754   1.819  1.7687 -1.3858  0.3449
  748SOL     OW 2242   0.322   3.399   3.469 -0.2626 -0.1907  0.4979
  748SOL    HW1 2243   0.264   3.339   3.531  0.2580 -1.2792 -0.4695
  748SOL    HW2 2244   0.316   3.499   3.493 -0.2289 -0.3684 -1.9298
  749SOL     OW 2245   0.298   1.243   3.334 -0.2723 -0.1993 -0.1076
  749SOL    HW1 2246   0.313   1.170   3.407 -2.1964 -0.3541 -0.7822
  749SOL    HW2 2247   0.335   1.215   3.242 -0.2699  0.4142  1.7450
  750SOL     OW 2248   1.894   1.165   1.934 -0.2216  0.6002  0.1219
  750SOL    HW1 2249   1.817   1.192   1.873  1.0526 -0.5657  1.4916
  750SOL    HW2 2250   1.956   1.246   1.940  0.5331 -1.7030  0.2375
  751SOL     OW 2251   3.404   1.054   0.727  0.1928 -0.0203 -0.0064
  751SOL    HW1 2252   3.474   1.002   0.670 -2.2332 -3.9503 -1.6972
  751SOL    HW2 2253   3.417   1.155   0.714  1.3041  0.5299 -0.8672
  752SOL     OW 2254   3.336   3.290   1.074  0.7011  0.8454  0.2979
  752SOL    HW1 2255   3.353   3.392   1.082 -1.3942 -2.0454 -0.8981
  752SOL    HW2 2256   3.389   3.236   1.144 -2.3976 -1.4495  1.2925
  753SOL     OW 2257   0.816   2.993   1.490  0.3071 -0.3446 -0.3292
  753SOL    HW1 2258   0.850   2.926   1.562 -0.2769  0.0819 -0.8686
  753SOL    HW2 2259   0.835   2.961   1.392  1.6565 -0.2967  0.7901
  754SOL     OW 2260   3.472   3.172   2.254 -0.2528 -0.1392  0.0155
  754SOL    HW1 2261   3.438   3.252   2.308  0.7066 -0.5591 -2.1448
  754SOL    HW2 2262   3.436   3.085   2.296  1.0940 -0.5056 -2.3448
  755SOL     OW 2263   2.915   0.958   0.025  0.4885  0.2201  0.0793
  755SOL    HW1 2264   2.999   0.915  -0.014 -1.3963  1.8585  0.7350
  755SOL    HW2 2265   2.855   0.883   0.063 -1.5921  0.0570  0.4233
  756SOL     OW 2266   2.143   2.517   0.266 -0.1393  0.0633 -0.0428
  756SOL    HW1 2267   2.143   2.535   0.164  0.5886  1.6938  3.0154
  756SOL    HW2 2268   2.220   2.457   0.300  2.6780  2.2089 -0.1648
  757SOL     OW 2269   3.099   0.642   0.597 -0.2349 -0.0654 -0.5833
  757SOL    HW1 2270   3.071   0.738   0.567  1.3461 -1.1113 -3.0334
  757SOL    HW2 2271   3.202   0.642   0.605  0.0263  1.5420  0.8607
  758SOL     OW 2272   2.529   1.108   2.248  0.1571 -0.2248  0.1966
  758SOL    HW1 2273   2.443   1.057   2.218  0.8810 -1.1743  2.0400
  758SOL    HW2 2274   2.503   1.200   2.285 -0.0777 -3.4520 -1.2507
  759SOL     OW 2275   3.137   0.581   1.562 -0.7233 -0.3711 -0.0497
  759SOL    HW1 2276   3.061   0.639   1.525 -2.2659 -0.1835 -2.8241
  759SOL    HW2 2277   3.213   0.566   1.495  2.2460  1.6449 -0.3167
  760SOL     OW 2278   0.664   1.716   1.688 -0.4646 -0.0191 -0.1735
  760SOL    HW1 2279   0.573   1.759   1.664  1.8549 -0.3274 -1.5356
  760SOL    HW2 2280   0.656   1.616   1.712 -1.5949 -2.1549  1.0418
  761SOL     OW 2281   0.938   0.738   0.110  0.0458 -0.9733 -0.2454
  761SOL    HW1 2282   0.839   0.717   0.130  1.1958  0.1716  1.5895
  761SOL    HW2 2283   0.962   0.834   0.140 -2.1261  0.2175  0.2802
  762SOL     OW 2284   0.836   2.101   1.365 -0.5173 -0.0549 -0.5019
  762SOL    HW1 2285   0.885   2.016   1.336  0.5267  0.5363  3.1967
  762SOL    HW2 2286   0.809   2.098   1.465  3.9957 -0.0087 -2.1338
  763SOL     OW 2287   1.489   0.826   2.191 -0.2657 -0.4136  0.0257
  763SOL    HW1 2288   1.517   0.757   2.119 -0.1318  0.4738  1.7901
  763SOL    HW2 2289   1.563   0.840   2.262  0.3753  1.4140 -1.7701
  764SOL     OW 2290   3.518   3.531   3.452 -0.6155  0.0754  0.1869
  764SOL    HW1 2291   3.565   3.524   3.543  0.2342  0.0409  0.2256
  764SOL    HW2 2292   3.538   3.445   3.397  0.2335  0.6398 -0.8318
  765SOL     OW 2293   0.838   0.047   2.187 -0.3486  0.1683  0.1309
  765SOL    HW1 2294   0.755   0.095   2.223 -0.4526 -2.2358  0.3665
  765SOL    HW2 2295   0.883   0.102   2.111  1.6100 -3.8801  0.3702
  766SOL     OW 2296   3.215   2.226   2.658 -0.0199  0.5235  0.1046
  766SOL    HW1 2297   3.128   2.184   2.696 -0.8212 -0.9235  0.6156
  766SOL    HW2 2298   3.303   2.203   2.707  1.8081  1.4550 -4.0034
  767SOL     OW 2299   1.603   1.462   2.787 -0.3517 -0.3007  0.0075
  767SOL    HW1 2300   1.599   1.359   2.804 -1.2282 -1.3869 -0.5123
  767SOL    HW2 2301   1.516   1.497   2.743  0.7852 -1.1454 -0.9854
  768SOL     OW 2302   1.745   2.068   0.164  0.1438  0.5908  0.0642
  768SOL    HW1 2303   1.643   2.064   0.182 -2.5146 -1.2755  3.6304
  768SOL    HW2 2304   1.794   2.069   0.255  0.5420  0.0117  2.6082
  769SOL     OW 2305   0.470   1.818   1.054  0.2894  0.5339  0.7689
  769SOL    HW1 2306   0.411   1.854   0.978  2.5680  0.6239  3.3670
  769SOL    HW2 2307   0.570   1.826   1.026 -1.5107 -3.2385 -0.3172
  770SOL     OW 2308   1.947   0.739   2.937 -0.5355 -0.1154 -0.0844
  770SOL    HW1 2309   2.008   0.823   2.927 -0.6736 -0.5959  0.4787
  770SOL    HW2 2310   1.852   0.765   2.969 -0.7888 -1.0009 -0.6968
  771SOL     OW 2311   2.968   0.106   2.818 -0.0733 -0.0981 -0.4491
  771SOL    HW1 2312   2.919   0.149   2.737  0.0351  1.5483  0.5208
  771SOL    HW2 2313   2.904   0.084   2.897  2.0175  0.6374  0.1937
  772SOL     OW 2314   2.925   1.973   2.506 -0.0846  0.1976 -0.4330
  772SOL    HW1 2315   2.824   1.957   2.501 -1.2073  0.3612  0.5248
  772SOL    HW2 2316   2.980   1.888   2.483  0.9627 -1.6319 -1.1633
  773SOL     OW 2317   1.156   1.664   1.767 -0.0431 -0.3013 -0.1147
  773SOL    HW1 2318   1.167   1.597   1.690  2.5933 -2.5714  1.4114
  773SOL    HW2 2319   1.072   1.721   1.754 -0.3372  0.6200  3.2582
  774SOL     OW 2320   1.330   0.744   3.357  0.1218  0.5734  0.2129
  774SOL    HW1 2321   1.318   0.650   3.315  2.3804  1.7381 -1.9834
  774SOL    HW2 2322   1.246   0.801   3.343 -0.7766  0.4440  4.2571
  775SOL     OW 2323   1.672   2.575   0.403  0.4915 -0.5392 -0.4569
  775SOL    HW1 2324   1.706   2.667   0.432  1.4758  0.0306 -3.0755
  775SOL    HW2 2325   1.658   2.582   0.301  1.3966  2.8465  0.1877
  776SOL     OW 2326   3.525   1.290   1.927  0.4797 -0.5447  0.0524
  776SOL    HW1 2327   3.625   1.299   1.949 -1.4747  0.0901  0.7227
  776SOL    HW2 2328   3.482   1.208   1.970 -1.2822  2.9857 -1.9658
  777SOL     OW 2329   2.875   2.718   2.657  0.1340 -1.0331 -0.2082
  777SOL    HW1 2330   2.916   2.809   2.682 -1.4994 -0.2328  0.0464
  777SOL    HW2 2331   2.947   2.644   2.653 -0.9933 -2.6679  0.7502
  778SOL     OW 2332   1.976   1.516   2.439  0.4182 -0.1087  0.0223
  778SOL    HW1 2333   1.914   1.527   2.356 -4.6018  0.5157  1.4670
  778SOL    HW2 2334   2.012   1.605   2.475  1.0790  4.0719  1.5839
  779SOL     OW 2335   3.448   1.330   0.636  0.5277  0.1533 -0.2226
  779SOL    HW1 2336   3.407   1.422   0.655  0.3652  0.9308 -1.4896
  779SOL    HW2 2337   3.426   1.299   0.539 -3.0077 -0.8241  2.0478
  780SOL     OW 2338   2.454   3.465   3.255  0.7180  0.2111  0.4143
  780SOL    HW1 2339   2.373   3.504   3.205 -1.9796 -1.1243 -2.7963
  780SOL    HW2 2340   2.447   3.478   3.356 -2.5824  1.1130  4.2113
  781SOL     OW 2341   3.186   1.838   1.439 -0.4157  0.1191 -0.0003
  781SOL    HW1 2342   3.253   1.863   1.365  2.8668  1.5820 -0.6820
  781SOL    HW2 2343   3.239   1.803   1.521  0.6522 -0.2108 -0.3666
  782SOL     OW 2344   3.427   2.675   3.346 -0.5531 -0.5303 -0.0919
  782SOL    HW1 2345   3.383   2.703   3.435  0.9937  1.2657 -0.8756
  782SOL    HW2 2346   3.358   2.665   3.270 -1.9207  0.0067  2.3962
  783SOL     OW 2347   0.807   1.821   0.935  0.1778 -0.4019 -0.1835
  783SOL    HW1 2348   0.800   1.720   0.914  1.0726  0.1934  0.4129
  783SOL    HW2 2349   0.811   1.879   0.851  2.1984 -0.3810  0.2326
  784SOL     OW 2350   2.688   1.608   0.528  0.1248 -0.0452 -1.0181
  784SOL    HW1 2351   2.713   1.519   0.481  1.9661  1.0313 -0.0552
  784SOL    HW2 2352   2.642   1.670   0.458 -0.7334 -1.2969 -1.5806
  785SOL     OW 2353   2.299   3.234   0.506  0.1353 -0.0615  0.0868
  785SOL    HW1 2354   2.243   3.274   0.430  0.0569  0.9558 -1.8988
  785SOL    HW2 2355   2.237   3.185   0.573  0.3941 -1.5372  1.5859
  786SOL     OW 2356   0.810   2.344   3.007 -0.3193 -0.5604 -0.6480
  786SOL    HW1 2357   0.767   2.267   2.953 -1.2739  3.2681 -2.3941
  786SOL    HW2 2358   0.782   2.334   3.106 -0.5257 -0.5273  1.2168
  787SOL     OW 2359   1.568   0.465   1.356  0.2813 -0.6718 -0.0345
  787SOL    HW1 2360   1.660   0.420   1.358  1.2159 -1.4605  0.4048
  787SOL    HW2 2361   1.503   0.409   1.412 -0.4576 -1.2665 -2.3419
  788SOL     OW 2362   0.769   1.170   0.096 -0.9095  0.1088  0.4030
  788SOL    HW1 2363   0.720   1.093   0.046  0.4386 -0.6602  3.6132
  788SOL    HW2 2364   0.745   1.262   0.056 -0.1334 -1.0018 -2.4524
  789SOL     OW 2365   3.329   2.232   1.522 -0.1112  0.3752  0.2622
  789SOL    HW1 2366   3.243   2.185   1.554  1.3770 -0.7015  0.4587
  789SOL    HW2 2367   3.318   2.274   1.428 -0.6587  0.2831 -0.9685
  790SOL     OW 2368   1.676   0.156   2.582  0.0424  0.0305 -0.6674
  790SOL    HW1 2369   1.601   0.119   2.644 -0.9092 -1.1911 -0.3008
  790SOL    HW2 2370   1.637   0.236   2.530  3.4820 -0.5949 -1.1451
  791SOL     OW 2371   1.174   0.630   0.239 -0.0890  0.1765  0.0063
  791SOL    HW1 2372   1.211   0.545   0.192  2.7878  1.0415 -0.9118
  791SOL    HW2 2373   1.090   0.665   0.192  0.4112  2.4206 -0.4332
  792SOL     OW 2374   1.526   0.349   1.943 -0.1977 -0.1494  0.7115
  792SOL    HW1 2375   1.532   0.449   1.915  0.0634 -0.7026 -1.4741
  792SOL    HW2 2376   1.591   0.330   2.023 -0.5143  0.1866  2.8191
  793SOL     OW 2377   1.151   3.480   0.973 -0.1872 -0.7926 -0.0275
  793SOL    HW1 2378   1.109   3.575   0.977 -0.0272 -2.2142 -2.5100
  793SOL    HW2 2379   1.216   3.466   1.052  1.7470 -1.2191  1.4085
  794SOL     OW 2380   0.768   1.526   2.179  0.3117  0.3395  0.0555
  794SOL    HW1 2381   0.721   1.435   2.169 -0.4441 -3.6018  1.9072
  794SOL    HW2 2382   0.827   1.531   2.265 -0.4106  2.7916  1.5662
  795SOL     OW 2383   0.166   1.656   2.586 -0.3028  0.9219 -0.1886
  795SOL    HW1 2384   0.079   1.687   2.540 -1.3977 -3.8649  2.1259
  795SOL    HW2 2385   0.191   1.720   2.663 -0.4401  2.2500 -1.4040
  796SOL     OW 2386   2.200   1.933   2.063  0.0920  0.2425  0.0321
  796SOL    HW1 2387   2.269   2.009   2.076 -0.9802  0.8598 -1.6685
  796SOL    HW2 2388   2.127   1.931   2.136  0.3347  1.7434  0.6532
  797SOL     OW 2389   0.043   0.322   3.049 -0.2495  0.0654 -0.5026
  797SOL    HW1 2390   0.068   0.244   2.987  1.9907 -2.0227  0.0898
  797SOL    HW2 2391   0.017   0.289   3.141 -1.9051  1.7283 -1.0411
  798SOL     OW 2392   3.610   2.715   2.310 -0.4876  0.1407  0.1709
  798SOL    HW1 2393   3.584   2.733   2.209 -0.3832 -0.3079  1.2752
  798SOL    HW2 2394   3.603   2.613   2.332  1.0490 -0.4879  0.3474
  799SOL     OW 2395   3.261   2.736   3.599 -0.4202 -0.3120 -0.0582
  799SOL    HW1 2396   3.322   2.794   3.659 -0.6710  2.7093 -0.7296
  799SOL    HW2 2397   3.163   2.767   3.615  0.2032 -2.4042  1.3574
  800SOL     OW 2398   1.235   1.895   0.826 -0.5992 -0.5204 -0.2480
  800SOL    HW1 2399   1.189   1.983   0.854  0.1355  1.9730  1.7628
  800SOL    HW2 2400   1.327   1.882   0.871 -0.9782  1.9321  1.3595
  801SOL     OW 2401   3.296   0.809   0.862  0.8749  0.3202 -0.6500
  801SOL    HW1 2402   3.336   0.896   0.825 -2.8892 -1.5287 -0.8327
  801SOL    HW2 2403   3.213   0.822   0.922 -0.5429 -1.4746  1.5851
  802SOL     OW 2404   3.093   1.853   0.531  0.3299 -0.4997 -0.1522
  802SOL    HW1 2405   3.109   1.949   0.499  3.8024 -1.7656  0.6917
  802SOL    HW2 2406   2.993   1.841   0.553 -4.5844  0.1261  0.3803
  803SOL     OW 2407   2.004   2.257   3.398  0.5781 -0.2699  0.1253
  803SOL    HW1 2408   1.976   2.275   3.300 -1.2902 -1.8544  0.1263
  803SOL    HW2 2409   2.095   2.303   3.413 -0.0801 -1.7742 -1.3194
  804SOL     OW 2410   2.374   2.301   0.345  0.2939 -0.1250  0.2348
  804SOL    HW1 2411   2.371   2.239   0.429  1.9676 -1.1946  1.4604
  804SOL    HW2 2412   2.407   2.247   0.262  1.0245  3.6172  0.7201
  805SOL     OW 2413   3.420   1.924   3.010 -0.4107 -0.5376  0.3606
  805SOL    HW1 2414   3.365   1.963   3.087 -2.6838 -1.5978 -1.7551
  805SOL    HW2 2415   3.428   1.990   2.932  0.6295  0.7237  0.9789
  806SOL     OW 2416   0.377   0.326   0.473  0.1116 -0.9546 -0.2139
  806SOL    HW1 2417   0.378   0.381   0.561 -1.7257 -0.9042  0.8968
  806SOL    HW2 2418   0.298   0.260   0.468  0.8544 -2.8082  0.9856
  807SOL     OW 2419   2.882   1.567   2.957  0.1218 -0.0611  0.2201
  807SOL    HW1 2420   2.813   1.506   3.006  1.0590 -1.4367  0.5256
  807SOL    HW2 2421   2.960   1.513   2.918  0.8982 -1.5810 -1.7633
  808SOL     OW 2422   0.159   1.707   0.604  0.3927 -0.2325  0.7642
  808SOL    HW1 2423   0.141   1.619   0.656  0.6915 -1.5115  0.3354
  808SOL    HW2 2424   0.189   1.786   0.662  1.2094 -2.5284 -1.2277
  809SOL     OW 2425   2.992   0.643   3.343  0.3133 -0.1962 -0.2559
  809SOL    HW1 2426   3.046   0.703   3.407  1.1926 -0.1604  1.2107
  809SOL    HW2 2427   2.891   0.663   3.346 -1.5203 -0.6495  0.8881
  810SOL     OW 2428   1.077   0.853   0.441  0.1620  0.5899 -0.1844
  810SOL    HW1 2429   1.121   0.767   0.403  1.6825  2.2167 -0.3157
  810SOL    HW2 2430   1.036   0.912   0.367 -0.1092  1.0952 -0.7624
  811SOL     OW 2431   1.833   3.001   0.935  0.0530  0.3038 -0.3697
  811SOL    HW1 2432   1.744   3.052   0.938 -0.6066  0.9556 -2.4353
  811SOL    HW2 2433   1.822   2.912   0.882  0.5865 -0.7012  1.7988
  812SOL     OW 2434   0.911   3.121   1.948 -0.7931 -0.3572  0.6726
  812SOL    HW1 2435   0.880   3.023   1.954  1.0272  0.2304  0.0318
  812SOL    HW2 2436   0.960   3.148   2.035  1.2717  2.5078  0.6498
  813SOL     OW 2437   1.267   0.342   2.305 -0.8200 -0.5239  0.4979
  813SOL    HW1 2438   1.248   0.246   2.333  1.3692 -1.9533 -2.9595
  813SOL    HW2 2439   1.204   0.409   2.354  0.1796  0.4490  1.4815
  814SOL     OW 2440   1.564   3.585   3.247  0.1725  0.1061  0.5610
  814SOL    HW1 2441   1.506   3.634   3.317 -1.2603 -0.5129  0.5061
  814SOL    HW2 2442   1.535   3.487   3.230 -1.0068 -0.5775  3.1872
  815SOL     OW 2443   0.728   0.715   2.304 -0.1507  0.0573  1.6151
  815SOL    HW1 2444   0.665   0.762   2.238  4.6605  0.2648 -0.1703
  815SOL    HW2 2445   0.747   0.779   2.381  0.7554 -3.8649  2.2968
  816SOL     OW 2446   2.687   0.509   3.598  0.1159  0.7110 -0.1661
  816SOL    HW1 2447   2.615   0.480   3.666 -1.0150 -1.1829 -0.5848
  816SOL    HW2 2448   2.749   0.432   3.570 -0.1825  1.0026  0.3542
  817SOL     OW 2449   2.104   0.211   3.306  0.2630  0.2158  0.0662
  817SOL    HW1 2450   2.090   0.309   3.280 -0.5498 -0.0926  0.4880
  817SOL    HW2 2451   2.020   0.162   3.337  1.4427 -0.3384  0.1477
  818SOL     OW 2452   2.477   0.461   0.186  0.2506 -0.3899 -0.1080
  818SOL    HW1 2453   2.493   0.361   0.210  2.4494 -0.0710 -1.5671
  818SOL    HW2 2454   2.446   0.512   0.271 -1.2722  0.7648 -1.6528
  819SOL     OW 2455   2.782   1.818   0.152 -0.1605  0.0569 -0.5513
  819SOL    HW1 2456   2.841   1.899   0.174  1.4005 -3.1004  1.1611
  819SOL    HW2 2457   2.839   1.734   0.136  2.4044  0.0251 -1.3833
  820SOL     OW 2458   3.450   2.375   0.050  0.4582  0.4804 -0.4683
  820SOL    HW1 2459   3.395   2.462   0.034 -1.7553 -1.8875 -0.2371
  820SOL    HW2 2460   3.390   2.293   0.030  0.9356  0.3175 -2.3092
  821SOL     OW 2461   0.455   3.090   1.802  0.2496  0.0344  0.2645
  821SOL    HW1 2462   0.361   3.124   1.823  1.3377 -2.2632  1.1464
  821SOL    HW2 2463   0.456   3.065   1.702 -0.3392 -0.3235  0.1626
  822SOL     OW 2464   3.219   3.117   2.830 -0.2607  0.0620 -0.7100
  822SOL    HW1 2465   3.212   3.218   2.820  0.8402  0.0050  2.2431
  822SOL    HW2 2466   3.140   3.067   2.785 -0.7877 -1.7490  2.0478
  823SOL     OW 2467   1.856   3.513   2.787 -0.7758 -0.0643 -0.7228
  823SOL    HW1 2468   1.883   3.581   2.715 -0.1813 -1.7947 -1.3095
  823SOL    HW2 2469   1.801   3.567   2.855 -0.1980  1.8767  1.8404
  824SOL     OW 2470   2.862   2.052   1.271 -0.4970  0.0365  0.0431
  824SOL    HW1 2471   2.909   2.080   1.184 -0.8024 -1.1289 -0.4161
  824SOL    HW2 2472   2.861   1.949   1.283  2.2319 -1.1696 -0.3750
  825SOL     OW 2473   3.318   2.275   3.049  0.1300 -0.2750  0.1379
  825SOL    HW1 2474   3.269   2.350   2.995 -2.1907 -1.7000  2.1295
  825SOL    HW2 2475   3.420   2.297   3.035  0.8338 -0.6122  0.8557
  826SOL     OW 2476   3.353   1.612   2.590  0.1075  0.3107 -0.0496
  826SOL    HW1 2477   3.258   1.626   2.553 -1.2590  2.7905  3.3815
  826SOL    HW2 2478   3.359   1.625   2.692  0.0097 -0.3955  2.1692
  827SOL     OW 2479   2.934   3.044   2.047  0.4278 -0.1037  0.0014
  827SOL    HW1 2480   2.960   2.951   2.005 -3.5196 -0.6339  4.9360
  827SOL    HW2 2481   2.832   3.051   2.064  1.3823 -0.5739  1.2156
  828SOL     OW 2482   3.466   3.505   1.868  0.3850  0.2693 -0.1164
  828SOL    HW1 2483   3.425   3.489   1.775  2.1233 -1.6389  0.4805
  828SOL    HW2 2484   3.543   3.573   1.858 -2.6211 -2.4018  0.5039
  829SOL     OW 2485   2.326   2.242   2.724  0.1883  0.8466 -0.0011
  829SOL    HW1 2486   2.230   2.259   2.692  2.6970  0.0158 -4.7270
  829SOL    HW2 2487   2.333   2.247   2.827  2.3735  0.3988 -2.3772
  830SOL     OW 2488   1.832   0.775   1.053 -0.2019 -0.2433 -0.0993
  830SOL    HW1 2489   1.888   0.688   1.043  1.7574 -1.7710  0.8923
  830SOL    HW2 2490   1.895   0.857   1.070 -0.0948  0.8376 -0.7476
  831SOL     OW 2491   3.467   1.773   0.924  0.3524 -0.0229 -0.7661
  831SOL    HW1 2492   3.523   1.694   0.960 -0.6413  1.4333 -1.7208
  831SOL    HW2 2493   3.423   1.745   0.834 -2.0085  1.2108 -0.9493
  832SOL     OW 2494   1.793   2.728   2.204  0.2743  0.5004 -0.1636
  832SOL    HW1 2495   1.760   2.825   2.196 -1.5013  0.5918  1.3240
  832SOL    HW2 2496   1.892   2.724   2.175 -2.2912 -0.7758  0.0385
  833SOL     OW 2497   3.603   3.514   2.692 -0.0348 -0.5004  0.5696
  833SOL    HW1 2498   3.520   3.508   2.630  0.6256  0.7344  2.0614
  833SOL    HW2 2499   3.589   3.474   2.786  1.3047 -1.5838  0.7475
  834SOL     OW 2500   1.281   1.221   1.512  0.2379  0.1989  0.2843
  834SOL    HW1 2501   1.307   1.182   1.604 -1.0844 -1.0286 -1.2537
  834SOL    HW2 2502   1.354   1.194   1.442 -0.8663 -2.2001 -2.3741
  835SOL     OW 2503   0.014   0.887   3.293  0.3319 -0.2652 -0.1445
  835SOL    HW1 2504  -0.089   0.893   3.279  0.6360  1.0490 -0.1118
  835SOL    HW2 2505   0.039   0.892   3.393  1.2101 -1.0717 -0.2735
  836SOL     OW 2506   1.221   2.782   1.199 -0.3183 -0.2280 -0.3870
  836SOL    HW1 2507   1.132   2.837   1.196 -2.4576 -0.6867  0.6423
  836SOL    HW2 2508   1.283   2.821   1.271  1.5633  1.4472 -2.0942
  837SOL     OW 2509   2.521   0.978   1.462 -0.2223  1.2312  0.5022
  837SOL    HW1 2510   2.440   0.970   1.398 -3.1536 -0.4250  2.1307
  837SOL    HW2 2511   2.495   1.040   1.541  1.4571  1.1105 -2.3988
  838SOL     OW 2512   1.674   1.988   3.323  0.3291  0.5451 -0.0953
  838SOL    HW1 2513   1.751   1.995   3.392 -1.9217 -0.2105  1.5389
  838SOL    HW2 2514   1.693   2.058   3.249 -1.1499  0.1127  0.1841
  839SOL     OW 2515   0.658   2.710   3.295 -0.4195  0.4087 -0.0017
  839SOL    HW1 2516   0.682   2.610   3.288 -1.2060 -0.9636 -2.8167
  839SOL    HW2 2517   0.598   2.734   3.375  0.8471 -1.5395  1.3429
  840SOL     OW 2518   0.901   2.880   3.342  0.3925 -0.1764  0.1157
  840SOL    HW1 2519   0.817   2.823   3.324  3.3780  1.9482 -1.3583
  840SOL    HW2 2520   0.906   2.961   3.279  2.1952  1.7655 -2.0161
  841SOL     OW 2521   2.234   2.415   3.423 -0.1948  0.3669 -0.2334
  841SOL    HW1 2522   2.329   2.377   3.437 -2.4311 -0.7945 -1.7050
  841SOL    HW2 2523   2.214   2.488   3.492  0.2432  0.4226  0.2360
  842SOL     OW 2524   1.821   1.035   3.299  0.3423  0.4873 -0.3139
  842SOL    HW1 2525   1.831   1.139   3.293  1.2146  0.6112  0.3892
  842SOL    HW2 2526   1.728   1.000   3.269  3.2001 -0.4402 -0.6135
  843SOL     OW 2527   1.608   3.493   0.912 -0.3840 -0.0221  0.3983
  843SOL    HW1 2528   1.709   3.512   0.919 -0.0039  0.3965 -0.0821
  843SOL    HW2 2529   1.571   3.527   0.822 -1.5406  1.5222 -0.4452
  844SOL     OW 2530   2.896   3.388   3.142  0.2026  0.3774 -0.3171
  844SOL    HW1 2531   2.875   3.334   3.227 -4.0321  0.0328  1.2081
  844SOL    HW2 2532   2.994   3.423   3.135 -2.3193  1.1666  1.9072
  845SOL     OW 2533   3.376   3.454   1.605  0.1505 -0.1391 -0.3310
  845SOL    HW1 2534   3.376   3.541   1.549  2.1435  0.6455  1.2842
  845SOL    HW2 2535   3.283   3.409   1.605  1.6945  2.7245 -0.3732
  846SOL     OW 2536   0.250   2.610   2.591  0.3040  0.2303 -0.2305
  846SOL    HW1 2537   0.227   2.700   2.549 -1.8380  1.4036 -0.5666
  846SOL    HW2 2538   0.275   2.623   2.690  4.0214  1.3115 -2.1710
  847SOL     OW 2539   1.976   0.177   1.697 -0.0570 -0.0475 -0.5726
  847SOL    HW1 2540   1.882   0.203   1.731 -0.0986  0.3514 -0.5779
  847SOL    HW2 2541   2.012   0.099   1.755 -0.9582  1.0023 -2.4665
  848SOL     OW 2542   3.326   0.706   0.098 -0.8696  0.5380 -0.3635
  848SOL    HW1 2543   3.426   0.683   0.093 -0.1594 -0.3468 -1.4987
  848SOL    HW2 2544   3.268   0.623   0.114 -0.4553 -1.2184  2.7907
  849SOL     OW 2545   0.612   0.702   0.154 -0.0849  0.1541 -0.2708
  849SOL    HW1 2546   0.545   0.740   0.222  1.9518 -0.8000 -0.6249
  849SOL    HW2 2547   0.586   0.606   0.125  1.4449  0.8755 -0.4475
  850SOL     OW 2548   0.393   3.183   1.249  0.4334  0.8646 -0.3968
  850SOL    HW1 2549   0.296   3.216   1.253 -2.3243  0.8207  0.4832
  850SOL    HW2 2550   0.450   3.256   1.203 -0.0835 -0.8675 -1.8076
  851SOL     OW 2551   2.272   0.233   2.842  0.4343 -0.0669 -0.7544
  851SOL    HW1 2552   2.176   0.254   2.863 -1.1195 -1.8315  1.1383
  851SOL    HW2 2553   2.279   0.182   2.752  1.6646 -1.6652  0.8898
  852SOL     OW 2554   1.823   1.837   2.740  0.4439 -0.4453  0.4103
  852SOL    HW1 2555   1.796   1.771   2.812  0.2376 -1.0417 -0.7559
  852SOL    HW2 2556   1.739   1.871   2.688 -0.3531  1.8762 -0.5889
  853SOL     OW 2557   0.113   3.452   0.555 -0.0357  0.4432  0.5791
  853SOL    HW1 2558   0.111   3.372   0.488  0.2330  0.0383  0.1829
  853SOL    HW2 2559   0.169   3.426   0.637 -2.8362  2.8340 -2.8502
  854SOL     OW 2560   2.856   3.612   0.808  0.7350 -0.4917 -0.7773
  854SOL    HW1 2561   2.805   3.701   0.802 -1.6898  0.3637  1.9350
  854SOL    HW2 2562   2.814   3.547   0.740 -1.3612 -0.8164  0.3934
  855SOL     OW 2563   1.651   2.520   0.865  0.0580  0.0606  0.3277
  855SOL    HW1 2564   1.611   2.465   0.789 -0.5360  0.2105  3.6625
  855SOL    HW2 2565   1.578   2.564   0.923  0.1798 -0.1748  1.7517
  856SOL     OW 2566   2.805   0.551   0.437 -0.5579 -0.1914 -0.3083
  856SOL    HW1 2567   2.783   0.450   0.440 -0.0147 -1.6418 -0.8669
  856SOL    HW2 2568   2.903   0.567   0.466  2.3546 -1.6205 -0.3258
  857SOL     OW 2569   2.179   2.967   2.055  0.0813 -1.1729  0.5166
  857SOL    HW1 2570   2.221   3.001   2.143 -2.3059  4.3714  1.3522
  857SOL    HW2 2571   2.251   2.932   1.993  2.4939 -0.5872 -1.4109
  858SOL     OW 2572   3.032   2.615   1.615  0.1081  0.1287 -0.1731
  858SOL    HW1 2573   3.102   2.632   1.543 -0.8245 -1.3725  0.2201
  858SOL    HW2 2574   2.938   2.597   1.576 -0.5470 -0.2023 -0.3940
  859SOL     OW 2575   1.360   2.993   0.882  0.0513 -0.5051  0.2032
  859SOL    HW1 2576   1.273   3.027   0.929  0.3497  4.5209 -1.4178
  859SOL    HW2 2577   1.438   3.057   0.907  1.8949  1.3383  0.9260
  860SOL     OW 2578   2.587   2.804   0.271 -0.4091 -0.0297  0.1311
  860SOL    HW1 2579   2.607   2.718   0.324  0.4125  1.3290 -3.0889
  860SOL    HW2 2580   2.589   2.784   0.169 -2.3416  0.5444 -1.1310
  861SOL     OW 2581   2.470   2.774   1.096 -0.2601  0.2243 -0.3590
  861SOL    HW1 2582   2.492   2.826   1.009  0.9327 -0.6132  0.6104
  861SOL    HW2 2583   2.554   2.761   1.154  0.7727 -0.7241 -0.8897
  862SOL     OW 2584   2.080   3.256   3.248 -0.4711  0.6919  0.8031
  862SOL    HW1 2585   2.067   3.320   3.169 -0.7869 -1.0599  1.8669
  862SOL    HW2 2586   2.087   3.308   3.336  0.9503 -0.4081 -1.6008
  863SOL     OW 2587   0.651   0.023   0.354  0.5750 -0.6061 -0.0919
  863SOL    HW1 2588   0.685  -0.025   0.438 -2.6249 -1.5333  0.4065
  863SOL    HW2 2589   0.684  -0.019   0.266 -5.8676  0.6762 -0.3570
  864SOL     OW 2590   3.071   3.080   2.395  0.4657  0.0586  0.4199
  864SOL    HW1 2591   3.160   3.029   2.389  2.0911 -1.3700 -2.6139
  864SOL    HW2 2592   3.015   3.066   2.309  1.9424  2.5192  1.4078
  865SOL     OW 2593   0.016   2.429   3.313 -0.2219 -0.0163  0.5186
  865SOL    HW1 2594   0.037   2.387   3.404  0.0272  1.2986 -0.3018
  865SOL    HW2 2595  -0.052   2.506   3.323  0.5448 -1.2772  1.8746
  866SOL     OW 2596   3.040   0.356   3.295 -0.3250 -0.1736  0.0827
  866SOL    HW1 2597   3.112   0.334   3.225  0.3704  4.1894  1.6560
  866SOL    HW2 2598   3.028   0.458   3.303 -2.0701  0.1021 -0.4758
  867SOL     OW 2599   3.544   3.438   3.029 -0.3844 -0.0062  0.1955
  867SOL    HW1 2600   3.463   3.501   3.035 -0.5901  2.4269 -0.0279
  867SOL    HW2 2601   3.528   3.359   3.094 -0.6441 -0.9107  0.4976
  868SOL     OW 2602   0.980   3.222   0.942  0.3313 -0.1922  0.2829
  868SOL    HW1 2603   1.033   3.309   0.959 -0.4934  2.5922  1.0125
  868SOL    HW2 2604   0.981   3.198   0.842 -1.3155 -1.7602 -1.6710
  869SOL     OW 2605   1.584   1.592   1.440 -0.4768  0.2050  0.3055
  869SOL    HW1 2606   1.542   1.679   1.403 -2.7110 -2.3382  1.9350
  869SOL    HW2 2607   1.658   1.553   1.383 -1.2560  0.4149 -1.5834
  870SOL     OW 2608   2.238   2.058   1.341  0.8675 -0.9387 -0.2277
  870SOL    HW1 2609   2.272   1.960   1.345 -1.3165  1.2540 -0.8888
  870SOL    HW2 2610   2.289   2.125   1.401 -2.5232  2.8984 -0.5217
  871SOL     OW 2611   1.212   1.694   1.221 -0.7841  0.7384 -0.1129
  871SOL    HW1 2612   1.206   1.633   1.137  0.0016 -0.5762  0.3742
  871SOL    HW2 2613   1.139   1.767   1.218 -2.0481 -1.6821 -1.1605
  872SOL     OW 2614   1.345   0.625   0.884 -0.4789  0.9162  0.2937
  872SOL    HW1 2615   1.426   0.673   0.844 -0.0770  2.0054 -0.8624
  872SOL    HW2 2616   1.349   0.610   0.987 -0.6947  0.8747  0.5701
  873SOL     OW 2617   2.030   0.542   3.219 -0.3366 -0.4933 -0.0150
  873SOL    HW1 2618   2.091   0.598   3.282  0.3502  2.3034 -1.3780
  873SOL    HW2 2619   2.026   0.587   3.126  1.2123  2.5818 -0.8956
  874SOL     OW 2620   0.620   1.442   1.350 -0.1118  0.3479 -0.4187
  874SOL    HW1 2621   0.651   1.525   1.406 -2.0741 -0.5316 -0.6976
  874SOL    HW2 2622   0.536   1.462   1.291  0.1499  1.6267 -1.5754
  875SOL     OW 2623   3.252   3.235   3.563 -0.3138 -0.7238  0.6639
  875SOL    HW1 2624   3.236   3.163   3.491  0.1138 -0.7666 -2.5564
  875SOL    HW2 2625   3.243   3.331   3.525 -1.1063  0.1463 -2.9668
  876SOL     OW 2626   0.943   0.665   3.440  0.0542  0.3618 -0.1349
  876SOL    HW1 2627   0.945   0.685   3.542 -2.5363 -2.9224  0.2865
  876SOL    HW2 2628   1.003   0.731   3.388 -2.4407  1.5498 -0.9496
  877SOL     OW 2629   3.630   3.279   1.617  0.6433 -0.2693  0.6157
  877SOL    HW1 2630   3.695   3.317   1.547  2.8190  2.3461 -1.0828
  877SOL    HW2 2631   3.546   3.339   1.622  2.8009 -3.3802  1.1231
  878SOL     OW 2632   2.322   2.240   3.008 -0.8272 -0.4386 -0.6581
  878SOL    HW1 2633   2.253   2.306   3.046 -1.1421 -0.5780  4.4089
  878SOL    HW2 2634   2.412   2.249   3.058 -0.9525 -0.2371  1.0101
  879SOL     OW 2635   2.580   2.063   2.155  0.2191  0.3623  0.6422
  879SOL    HW1 2636   2.603   2.056   2.256  0.8689  0.6205  2.4172
  879SOL    HW2 2637   2.649   2.016   2.094 -1.5644  1.5180 -3.7172
  880SOL     OW 2638   1.115   1.206   1.058  0.0649 -0.1432 -0.0344
  880SOL    HW1 2639   1.198   1.252   1.100 -1.3843 -1.6480 -0.1522
  880SOL    HW2 2640   1.120   1.105   1.075  0.4252 -0.7886 -1.1163
  881SOL     OW 2641   1.483   1.819   0.062 -0.1588  0.4028 -0.3818
  881SOL    HW1 2642   1.470   1.911   0.110  1.4556  1.0108 -1.6000
  881SOL    HW2 2643   1.527   1.755   0.129  0.5982  1.7090  1.0526
  882SOL     OW 2644   2.179   3.630   1.331 -0.3160 -0.0454  0.5070
  882SOL    HW1 2645   2.190   3.700   1.406  1.0894 -1.8714  0.2800
  882SOL    HW2 2646   2.263   3.623   1.272  0.6830 -0.0468  1.7805
  883SOL     OW 2647   2.255   0.791   2.481 -0.0837 -0.5483 -0.1823
  883SOL    HW1 2648   2.164   0.744   2.470  1.4962 -2.0572 -0.3094
  883SOL    HW2 2649   2.332   0.723   2.483  0.1427  1.3125  0.7631
  884SOL     OW 2650   3.162   0.820   3.526 -0.3252 -0.1642  0.1311
  884SOL    HW1 2651   3.221   0.865   3.453 -0.0722 -2.2272  0.0304
  884SOL    HW2 2652   3.221   0.785   3.603 -3.4387  1.5057 -1.0877
  885SOL     OW 2653   1.363   2.700   0.965  0.0685 -0.5818 -0.0069
  885SOL    HW1 2654   1.379   2.793   0.921  2.5726 -0.3980  1.5331
  885SOL    HW2 2655   1.317   2.715   1.055 -3.5316  2.7683 -0.4886
  886SOL     OW 2656   1.525   0.977   3.196 -0.3771 -0.2384  1.0891
  886SOL    HW1 2657   1.459   0.921   3.251 -2.1875 -0.7861  1.1715
  886SOL    HW2 2658   1.473   1.059   3.162  1.6667 -1.1012 -1.6890
  887SOL     OW 2659   2.055   3.608   1.879 -0.6179 -0.0268  0.9032
  887SOL    HW1 2660   2.123   3.637   1.950  2.6718  1.7605  0.2890
  887SOL    HW2 2661   1.979   3.551   1.916  2.1842 -0.1900 -0.3250
  888SOL     OW 2662   3.364   1.989   1.897  0.1240  0.1494 -0.0331
  888SOL    HW1 2663   3.443   1.989   1.964 -0.5620 -0.6321  0.3894
  888SOL    HW2 2664   3.376   1.914   1.826 -0.5679 -1.0462 -0.3796
  889SOL     OW 2665   3.559   3.267   0.825  0.2064  0.1483 -0.2519
  889SOL    HW1 2666   3.491   3.246   0.900  1.8114  2.2712 -0.4826
  889SOL    HW2 2667   3.537   3.357   0.779  2.0320 -1.5582  2.1386
  890SOL     OW 2668   0.791   2.286   2.572 -0.0014  0.0082 -0.3993
  890SOL    HW1 2669   0.804   2.389   2.565 -0.0737  2.8931  2.0093
  890SOL    HW2 2670   0.730   2.258   2.492 -0.3086 -2.4292 -2.2075
  891SOL     OW 2671   0.837   2.031   0.683  1.2053 -0.1349 -0.2396
  891SOL    HW1 2672   0.913   2.081   0.732 -1.3360  0.7050  0.2431
  891SOL    HW2 2673   0.771   2.098   0.637  1.2640  0.2556  1.9629
  892SOL     OW 2674   3.113   3.047   1.456  0.5565 -0.2213  0.3696
  892SOL    HW1 2675   3.153   3.015   1.546 -1.3668 -0.3704  0.8892
  892SOL    HW2 2676   3.161   3.003   1.374  1.3081  2.1406  2.5438
  893SOL     OW 2677   0.254   0.559   2.080  0.3745  0.2079 -0.1843
  893SOL    HW1 2678   0.249   0.523   1.982 -0.9858  3.1555  1.6796
  893SOL    HW2 2679   0.261   0.661   2.082 -0.6392  0.9054  0.0905
  894SOL     OW 2680   3.247   2.184   1.165 -0.4952  0.1231 -0.4486
  894SOL    HW1 2681   3.159   2.170   1.115  5.6462  1.0421  2.9513
  894SOL    HW2 2682   3.278   2.087   1.189  1.5602  0.3946  4.3172
  895SOL     OW 2683   1.415   2.915   1.672 -0.3151  0.0227 -0.0155
  895SOL    HW1 2684   1.489   2.858   1.716 -3.1219  1.0040 -0.5408
  895SOL    HW2 2685   1.410   3.011   1.710 -0.6071  1.3318  0.3623
  896SOL     OW 2686   0.886   0.402   1.563 -0.1476  0.2928 -0.4412
  896SOL    HW1 2687   0.823   0.399   1.645  0.5624 -0.0235  0.4740
  896SOL    HW2 2688   0.983   0.418   1.593  0.2107 -0.2541 -1.1160
  897SOL     OW 2689   1.405   1.337   1.156  0.2172  0.3624 -0.0665
  897SOL    HW1 2690   1.415   1.420   1.216 -0.2619 -0.5613 -0.3962
  897SOL    HW2 2691   1.451   1.254   1.197  0.7616 -1.0963  2.1944
  898SOL     OW 2692   0.953   0.377   2.024  0.3047 -0.1822  0.4794
  898SOL    HW1 2693   0.941   0.463   2.080 -0.9516 -0.4399  0.6875
  898SOL    HW2 2694   1.049   0.338   2.024  2.2740  1.3390  2.7204
  899SOL     OW 2695   1.725   0.420   0.239 -0.1264  0.0517  0.2539
  899SOL    HW1 2696   1.820   0.452   0.210 -0.1484  0.6429  0.0378
  899SOL    HW2 2697   1.663   0.501   0.255  0.6675 -2.2201 -0.3375
  900SOL     OW 2698   1.216   0.785   2.844 -0.1023  0.4388 -0.1956
  900SOL    HW1 2699   1.196   0.881   2.876  1.2690  0.1302  0.7374
  900SOL    HW2 2700   1.171   0.767   2.752 -0.6973  1.0851  1.3925
  901SOL     OW 2701   0.855   2.395   0.534 -0.4329 -0.2722  0.1068
  901SOL    HW1 2702   0.941   2.348   0.502 -1.7624 -0.3286  0.1790
  901SOL    HW2 2703   0.774   2.354   0.484  0.4364 -1.0408  2.0300
  902SOL     OW 2704   2.154   0.232   0.848  0.1809  0.2614 -0.3449
  902SOL    HW1 2705   2.184   0.171   0.770 -2.8905  1.8762 -0.0751
  902SOL    HW2 2706   2.082   0.181   0.903  2.1361  0.2965  0.6003
  903SOL     OW 2707   0.050   1.617   3.008  0.0343  0.4090  0.0686
  903SOL    HW1 2708   0.103   1.695   2.965 -0.4631  2.0070 -0.3552
  903SOL    HW2 2709  -0.037   1.602   2.953 -0.7071 -4.2952 -1.6307
  904SOL     OW 2710   1.992   1.460   0.479  0.0728 -0.0081  0.3488
  904SOL    HW1 2711   1.935   1.494   0.557 -3.4766  0.8257 -0.1489
  904SOL    HW2 2712   2.013   1.359   0.487 -0.3128  2.2069  1.8076
  905SOL     OW 2713   2.282   3.232   1.570 -0.0018 -0.3089 -0.3423
  905SOL    HW1 2714   2.216   3.269   1.499 -2.7726 -1.0762 -0.7654
  905SOL    HW2 2715   2.301   3.132   1.554  0.1793  0.6335 -0.1123
  906SOL     OW 2716   2.640   3.123   0.986  0.0368 -0.1784 -0.4999
  906SOL    HW1 2717   2.577   3.205   0.981  1.1315  1.3101  3.7735
  906SOL    HW2 2718   2.692   3.122   1.076 -3.2763 -3.2108 -0.8374
  907SOL     OW 2719   2.601   1.157   0.480  0.0033 -0.5575  0.0820
  907SOL    HW1 2720   2.569   1.060   0.494 -1.0822 -1.9302  0.1875
  907SOL    HW2 2721   2.536   1.224   0.523  0.5994  1.5985 -0.1034
  908SOL     OW 2722   2.215   0.301   1.614  0.0338 -0.0120 -0.1644
  908SOL    HW1 2723   2.205   0.402   1.600  0.9552  0.3810 -0.6187
  908SOL    HW2 2724   2.125   0.262   1.645  1.4709  1.0150 -2.0808
  909SOL     OW 2725   2.856   3.344   1.191 -0.7770  0.1130  0.8035
  909SOL    HW1 2726   2.833   3.401   1.107 -0.9322 -3.8262  1.6979
  909SOL    HW2 2727   2.852   3.401   1.278  1.7506 -2.3528 -0.9974
  910SOL     OW 2728   2.697   0.635   2.326  0.7656  0.0180  0.1134
  910SOL    HW1 2729   2.622   0.630   2.396 -0.8507  0.2071  1.5231
  910SOL    HW2 2730   2.777   0.574   2.348  0.6002 -2.2775 -1.8179
  911SOL     OW 2731   2.222   0.022   3.099 -0.0475  0.0767  0.3143
  911SOL    HW1 2732   2.188   0.085   3.174  2.0535  0.0177 -2.1486
  911SOL    HW2 2733   2.264   0.074   3.022  2.2266 -1.3739 -0.8136
  912SOL     OW 2734   0.616   1.084   1.550 -0.6464 -1.0048  0.1864
  912SOL    HW1 2735   0.714   1.114   1.546  2.8301  1.4886 -2.1786
  912SOL    HW2 2736   0.607   0.982   1.539  0.5171  2.4079 -3.6856
  913SOL     OW 2737   2.851   3.066   1.288 -0.0491 -0.3381 -0.4749
  913SOL    HW1 2738   2.848   3.165   1.259  1.0554 -0.2529 -0.2167
  913SOL    HW2 2739   2.926   3.053   1.357  1.0726 -2.4356  1.8216
  914SOL     OW 2740   1.356   0.539   1.184  0.5897 -0.6756 -0.1456
  914SOL    HW1 2741   1.443   0.523   1.237  0.6173  2.3861 -1.1479
  914SOL    HW2 2742   1.320   0.448   1.150  0.2018 -0.4198 -2.3764
  915SOL     OW 2743   0.391   1.857   1.605 -0.7258 -0.7228 -0.0504
  915SOL    HW1 2744   0.376   1.860   1.503 -0.1195 -1.1289  1.5935
  915SOL    HW2 2745   0.397   1.951   1.649 -0.5554  1.1799 -0.4260
  916SOL     OW 2746   2.233   2.617   1.095  0.2107 -0.4805  0.2577
  916SOL    HW1 2747   2.318   2.675   1.100  0.1107  1.4155  0.3678
  916SOL    HW2 2748   2.152   2.673   1.121 -0.6802 -0.1955 -1.7345
  917SOL     OW 2749   2.354   2.809   2.707  0.0749  0.2718  0.6439
  917SOL    HW1 2750   2.370   2.798   2.606  0.3909 -1.4646  1.8272
  917SOL    HW2 2751   2.279   2.878   2.723  0.3825  1.1470 -1.0859
  918SOL     OW 2752   2.376   1.931   3.015  0.0649 -0.7449 -0.5095
  918SOL    HW1 2753   2.458   1.927   3.079  0.0716 -0.0250 -2.3236
  918SOL    HW2 2754   2.341   2.028   3.006  1.2029 -1.6589  1.2612
  919SOL     OW 2755   0.887   0.642   1.355  0.1832 -0.2062 -0.5914
  919SOL    HW1 2756   0.883   0.565   1.423 -0.7259  0.1019  0.2256
  919SOL    HW2 2757   0.983   0.679   1.347 -0.1248 -1.1246 -0.8919
  920SOL     OW 2758   3.321   0.879   2.483  0.1805 -0.5640 -0.3843
  920SOL    HW1 2759   3.338   0.817   2.402 -0.8471  0.8301 -2.7891
  920SOL    HW2 2760   3.387   0.860   2.558 -1.7309 -1.9430 -1.2040
  921SOL     OW 2761   2.942   1.436   1.719 -0.4987  0.7446  0.1069
  921SOL    HW1 2762   3.014   1.396   1.656  0.6585 -1.5942 -2.6436
  921SOL    HW2 2763   2.986   1.472   1.805 -1.0491 -3.2425 -1.8029
  922SOL     OW 2764   3.256   2.688   0.955 -0.1291 -0.5583  0.2040
  922SOL    HW1 2765   3.214   2.624   1.024  0.0267 -1.5329  2.5210
  922SOL    HW2 2766   3.184   2.760   0.939 -1.0233 -3.0788  1.2162
  923SOL     OW 2767   0.045   2.722   0.652  0.0761  0.3672  0.0598
  923SOL    HW1 2768   0.086   2.708   0.747 -0.0720  0.3122 -0.5820
  923SOL    HW2 2769   0.112   2.694   0.575  1.6932  1.2797  0.4717
  924SOL     OW 2770   1.121   1.413   3.500 -0.4139 -0.0683  0.3174
  924SOL    HW1 2771   1.188   1.463   3.438  0.1146  0.7416  0.4825
  924SOL    HW2 2772   1.047   1.476   3.534  1.7475  0.9400 -1.5540
  925SOL     OW 2773   3.605   1.531   1.033  0.2152  0.4057  0.2463
  925SOL    HW1 2774   3.662   1.557   1.115 -1.5260 -1.6315 -0.5235
  925SOL    HW2 2775   3.543   1.452   1.056  0.4157  1.6066 -0.1450
  926SOL     OW 2776   0.122   0.029   1.495 -0.2134  0.5326  0.7619
  926SOL    HW1 2777   0.225   0.011   1.489 -0.2696  0.1230  0.2523
  926SOL    HW2 2778   0.082   0.006   1.402 -0.1195  1.1713  1.8669
  927SOL     OW 2779   0.718   2.110   2.841  0.4235  0.4285  0.0383
  927SOL    HW1 2780   0.798   2.046   2.854  2.9201 -1.3557 -2.1025
  927SOL    HW2 2781   0.723   2.156   2.749  1.9907 -0.7702  2.2933
  928SOL     OW 2782   0.412   0.780   2.776  0.2316  0.0428 -0.2936
  928SOL    HW1 2783   0.451   0.685   2.791 -2.2015  1.2395  0.7529
  928SOL    HW2 2784   0.352   0.804   2.857 -0.0475  0.4395  0.9517
  929SOL     OW 2785   3.132   2.501   1.150  0.5328  0.2849  0.0908
  929SOL    HW1 2786   3.031   2.509   1.137 -2.8436 -2.2181 -1.1444
  929SOL    HW2 2787   3.160   2.401   1.149 -0.8867  2.5405 -0.3250
  930SOL     OW 2788   2.010   0.289   2.881  0.4665 -0.1981 -0.3919
  930SOL    HW1 2789   1.931   0.237   2.927  0.7846 -0.0394 -2.5966
  930SOL    HW2 2790   1.977   0.373   2.830  0.1914 -1.1357 -0.4906
  931SOL     OW 2791   2.902   1.129   3.326 -0.0385 -0.1137  0.7819
  931SOL    HW1 2792   2.916   1.145   3.428  0.1731  1.2544 -0.0701
  931SOL    HW2 2793   2.819   1.070   3.310 -3.2076 -0.4534 -0.6599
  932SOL     OW 2794   2.112   1.049   0.762  0.1945  0.5856  0.2421
  932SOL    HW1 2795   2.094   1.091   0.671  0.1538  1.4155  1.7974
  932SOL    HW2 2796   2.165   0.962   0.753  1.7894  1.4249  0.5657
  933SOL     OW 2797   2.747   0.732   0.867  0.1361 -0.2411  0.3470
  933SOL    HW1 2798   2.692   0.708   0.782  2.1490  1.8435 -0.3439
  933SOL    HW2 2799   2.775   0.830   0.864  1.2198 -2.0287  2.2484
  934SOL     OW 2800   3.114   1.395   2.823  0.0067  0.3548  0.0444
  934SOL    HW1 2801   3.189   1.322   2.826  1.4266 -0.7853 -0.1272
  934SOL    HW2 2802   3.079   1.397   2.726 -3.8777  1.4057  3.2603
  935SOL     OW 2803   0.129   1.589   1.286 -0.1161  0.5958 -0.1297
  935SOL    HW1 2804   0.099   1.684   1.313  0.5453 -1.0684  1.3394
  935SOL    HW2 2805   0.123   1.530   1.371 -0.1546  2.0191 -0.1126
  936SOL     OW 2806   0.038   3.500   0.080  0.0033  0.1330 -0.3086
  936SOL    HW1 2807   0.059   3.399   0.081  0.3586  2.3716 -0.6518
  936SOL    HW2 2808   0.115   3.551   0.126  0.6640 -2.4412  0.0215
  937SOL     OW 2809   3.359   2.936   2.402  0.6942 -0.0376 -0.1545
  937SOL    HW1 2810   3.373   2.930   2.505 -2.6828  0.1699  0.1737
  937SOL    HW2 2811   3.393   2.855   2.350 -0.3814  0.2146  3.6409
  938SOL     OW 2812   2.644   2.748   3.540 -1.0777 -0.2426 -0.4320
  938SOL    HW1 2813   2.704   2.665   3.544  2.4828 -0.0803 -1.6147
  938SOL    HW2 2814   2.564   2.730   3.478 -0.4831  0.1593  0.2525
  939SOL     OW 2815   1.233   0.712   1.658  0.2012  0.2827 -0.2080
  939SOL    HW1 2816   1.331   0.748   1.668  2.5792  1.1158 -1.8848
  939SOL    HW2 2817   1.163   0.771   1.707  2.5707  0.4231  0.6345
  940SOL     OW 2818   2.779   3.413   3.621 -0.9189 -0.2546  0.6187
  940SOL    HW1 2819   2.689   3.455   3.591  1.0708  0.5936 -1.2241
  940SOL    HW2 2820   2.814   3.343   3.553  2.7679  2.5192  2.9183
  941SOL     OW 2821   3.089   3.343   2.498 -0.1519 -0.3785  0.2322
  941SOL    HW1 2822   3.006   3.397   2.468  1.6027 -0.0955  0.6099
  941SOL    HW2 2823   3.084   3.247   2.464  2.4420 -0.9912 -0.2538
  942SOL     OW 2824   1.905   0.017   1.227  0.2473  0.5998  0.0444
  942SOL    HW1 2825   1.840  -0.049   1.272  1.2218 -0.6841 -0.1573
  942SOL    HW2 2826   2.002   0.010   1.262 -0.4444  1.0144 -0.1443
  943SOL     OW 2827   1.483   1.865   2.880 -0.4266  0.2045  0.6790
  943SOL    HW1 2828   1.558   1.807   2.924 -0.6319  1.1307 -0.2664
  943SOL    HW2 2829   1.511   1.888   2.784 -0.1758 -1.7108 -0.3272
  944SOL     OW 2830   3.180   1.017   1.579 -0.4190 -0.6044  0.4395
  944SOL    HW1 2831   3.259   0.972   1.528  3.4456 -2.3074  1.4516
  944SOL    HW2 2832   3.106   0.945   1.583 -1.3271  0.5977  0.0124
  945SOL     OW 2833   3.157   0.051   3.214 -0.0416 -0.1397 -0.7122
  945SOL    HW1 2834   3.068   0.095   3.244  0.1427  0.1827  0.1309
  945SOL    HW2 2835   3.208   0.123   3.157  0.2175  0.1822  0.1583
  946SOL     OW 2836   0.056   1.691   1.641 -0.6437  0.5107 -0.2461
  946SOL    HW1 2837   0.139   1.753   1.643  1.0295  0.4229 -0.4773
  946SOL    HW2 2838   0.084   1.594   1.620 -0.5556  2.2095 -1.1501
  947SOL     OW 2839   0.515   0.480   3.272  0.2940 -0.2252 -0.4197
  947SOL    HW1 2840   0.524   0.380   3.295 -1.2373 -0.7634 -0.9804
  947SOL    HW2 2841   0.440   0.499   3.203  1.4837  0.5679 -0.3238
  948SOL     OW 2842   2.334   1.779   1.396 -0.2834 -0.1459 -0.1197
  948SOL    HW1 2843   2.336   1.772   1.499  3.2719 -2.0493 -0.0207
  948SOL    HW2 2844   2.415   1.729   1.356  0.4681 -1.4728  1.4556
  949SOL     OW 2845   0.455   1.484   3.438  0.2468 -0.5424  0.3134
  949SOL    HW1 2846   0.467   1.563   3.372  0.3173 -0.6710  0.7771
  949SOL    HW2 2847   0.393   1.410   3.400 -1.8466 -1.2046  0.1376
  950SOL     OW 2848   0.682   3.286   1.874 -0.1850  0.2253  0.2852
  950SOL    HW1 2849   0.605   3.223   1.849  0.5247  0.5702  3.0983
  950SOL    HW2 2850   0.767   3.231   1.898 -1.2679 -0.8865 -1.5536
  951SOL     OW 2851   0.980   2.558   2.900 -0.2981  0.0295  0.0200
  951SOL    HW1 2852   0.912   2.496   2.945 -1.7061  0.3558  1.5995
  951SOL    HW2 2853   1.066   2.569   2.954 -1.4081  0.2780  0.5380
  952SOL     OW 2854   0.779   1.268   0.678  0.5592  0.2482 -0.7084
  952SOL    HW1 2855   0.750   1.181   0.722  0.3968 -1.1576 -2.6920
  952SOL    HW2 2856   0.743   1.279   0.582  0.2037  0.3465 -0.5273
  953SOL     OW 2857   2.603   1.863   3.486  0.0331  0.0490 -0.2859
  953SOL    HW1 2858   2.517   1.806   3.495 -1.3030  0.6578  0.0385
  953SOL    HW2 2859   2.666   1.852   3.568  1.1997  2.0386  0.8367
  954SOL     OW 2860   1.792   0.298   0.554  0.0005  0.1925  0.2257
  954SOL    HW1 2861   1.774   0.306   0.453 -0.8270  1.4366  1.2262
  954SOL    HW2 2862   1.837   0.207   0.573  1.8819  0.1781  0.6618
  955SOL     OW 2863   1.030   1.845   0.120  0.4716 -0.1098 -0.4396
  955SOL    HW1 2864   0.999   1.775   0.052  3.2362 -1.7929  0.4805
  955SOL    HW2 2865   1.088   1.801   0.194  1.3873  1.2196  0.8177
  956SOL     OW 2866   3.263   0.429   2.362 -0.3312  0.3779 -1.0353
  956SOL    HW1 2867   3.286   0.524   2.328 -1.4636 -0.4784  0.5109
  956SOL    HW2 2868   3.306   0.408   2.453 -1.8034  2.3271  1.6020
  957SOL     OW 2869   2.289   2.283   2.329  0.4178  0.3085  0.0542
  957SOL    HW1 2870   2.187   2.274   2.332  0.2306  0.8581 -1.0378
  957SOL    HW2 2871   2.340   2.207   2.378  3.0577 -0.2258  0.9112
  958SOL     OW 2872   2.046   1.031   1.428 -0.4267 -0.2483  0.1481
  958SOL    HW1 2873   2.097   1.119   1.420 -1.9774 -0.2959  0.4154
  958SOL    HW2 2874   2.061   0.982   1.518 -1.9591 -1.4338 -1.4058
  959SOL     OW 2875   1.707   2.519   2.416 -0.1661  0.0465 -0.1947
  959SOL    HW1 2876   1.743   2.426   2.387 -1.8581  0.8301  4.1608
  959SOL    HW2 2877   1.719   2.594   2.346  3.8356  0.4156  0.5266
  960SOL     OW 2878   0.923   1.452   3.055 -0.4339 -1.1502  0.3790
  960SOL    HW1 2879   1.012   1.473   3.004 -0.0226  0.6460 -0.1833
  960SOL    HW2 2880   0.843   1.457   2.990 -0.2570  1.4417 -1.7120
  961SOL     OW 2881   3.215   1.431   0.163  0.1740  0.1522 -0.4750
  961SOL    HW1 2882   3.228   1.518   0.220 -0.4173  1.9163  0.7500
  961SOL    HW2 2883   3.123   1.436   0.115 -0.0353 -2.8508 -0.6899
  962SOL     OW 2884   1.021   2.127   0.091  0.7768 -0.2013 -0.0774
  962SOL    HW1 2885   1.026   2.025   0.091 -1.7183 -0.7227 -1.6512
  962SOL    HW2 2886   1.093   2.172   0.033  0.1295  1.0029  1.5939
  963SOL     OW 2887   3.295   1.824   0.005 -0.1405  0.0383 -0.1568
  963SOL    HW1 2888   3.253   1.780   0.090  0.6619  2.2134 -1.9013
  963SOL    HW2 2889   3.392   1.799  -0.019 -0.6920  2.6123 -1.3311
  964SOL     OW 2890   0.826   2.574   2.545 -0.0200  0.2709  0.3515
  964SOL    HW1 2891   0.891   2.590   2.623  2.4100 -0.3291  0.1201
  964SOL    HW2 2892   0.786   2.665   2.518  0.1006  2.7147  2.4628
  965SOL     OW 2893   1.487   2.220   1.637 -0.1786  0.4570  0.4649
  965SOL    HW1 2894   1.531   2.261   1.555 -0.6058 -2.3737 -2.1660
  965SOL    HW2 2895   1.446   2.127   1.617  0.3129  0.6275 -0.7465
  966SOL     OW 2896   3.557   1.757   0.461  0.5571 -0.5200 -0.1292
  966SOL    HW1 2897   3.644   1.747   0.516  0.6168 -1.7022 -1.3051
  966SOL    HW2 2898   3.564   1.719   0.364  2.4956 -1.3478 -0.6421
  967SOL     OW 2899   2.239   3.096   3.052  0.5600 -0.3288 -0.2162
  967SOL    HW1 2900   2.176   3.146   3.116  0.5338  1.2804  1.5427
  967SOL    HW2 2901   2.330   3.082   3.099  3.3608 -1.6551 -0.3096
  968SOL     OW 2902   1.702   1.518   3.388 -0.1710  0.0705 -0.0108
  968SOL    HW1 2903   1.747   1.527   3.482 -1.4474 -1.7156  0.5685
  968SOL    HW2 2904   1.627   1.588   3.383  0.5519 -0.8309  0.9248
  969SOL     OW 2905   0.192   1.079   2.879  0.1320  0.1138  0.0074
  969SOL    HW1 2906   0.189   1.154   2.806  1.9100  0.3736  1.6652
  969SOL    HW2 2907   0.263   1.101   2.951 -1.2732  0.2685 -1.0447
  970SOL     OW 2908   2.756   0.246   0.464  0.2351 -0.3047  0.6561
  970SOL    HW1 2909   2.668   0.225   0.416 -0.7858  3.7518  0.8632
  970SOL    HW2 2910   2.832   0.177   0.451  1.9300  0.3605  1.9193
  971SOL     OW 2911   1.873   2.343   0.927 -0.1743  0.3489  0.1645
  971SOL    HW1 2912   1.798   2.412   0.914  2.6214 -0.2986  1.0967
  971SOL    HW2 2913   1.917   2.352   1.020  3.1186 -0.5670 -3.8419
  972SOL     OW 2914   0.227   2.389   3.113 -0.9518 -0.1940 -0.2893
  972SOL    HW1 2915   0.153   2.405   3.181  0.7098  0.2838  0.7475
  972SOL    HW2 2916   0.302   2.329   3.151  0.6209 -0.9275  4.7188
  973SOL     OW 2917   0.603   0.625   0.518  0.1048  0.0829 -0.2857
  973SOL    HW1 2918   0.538   0.684   0.464 -1.0753  0.1220  1.2201
  973SOL    HW2 2919   0.631   0.539   0.467  1.1131  1.1065 -1.3720
  974SOL     OW 2920   3.255   0.755   2.014  0.1130  0.2079  0.6165
  974SOL    HW1 2921   3.288   0.690   1.942 -1.0810 -2.9627  0.8018
  974SOL    HW2 2922   3.152   0.771   2.010  1.5535  1.1892 -1.7565
  975SOL     OW 2923   0.366   3.613   0.958 -0.0092 -0.0541 -0.0366
  975SOL    HW1 2924   0.329   3.537   0.899  0.4531  0.1093 -1.2677
  975SOL    HW2 2925   0.426   3.675   0.902 -1.7300 -2.7848 -2.0674
  976SOL     OW 2926   0.896   1.866   1.708 -0.1759  0.5583 -0.4340
  976SOL    HW1 2927   0.817   1.801   1.692 -0.2219 -1.7017  0.6655
  976SOL    HW2 2928   0.868   1.966   1.709  1.8452  0.9908  1.5788
  977SOL     OW 2929   1.533   2.384   0.651  0.1753  0.5226 -0.4938
  977SOL    HW1 2930   1.565   2.433   0.566  1.1057  1.2807 -1.7866
  977SOL    HW2 2931   1.536   2.281   0.641 -0.6356  1.3054 -0.5902
  978SOL     OW 2932   0.093   1.341   0.045 -0.6331  0.0910 -1.0746
  978SOL    HW1 2933   0.072   1.350  -0.056 -4.4624 -0.5438  0.2566
  978SOL    HW2 2934   0.191   1.314   0.065  1.3105 -0.5362  1.5622
  979SOL     OW 2935   2.314   1.354   0.310  0.2430 -0.4563  0.1674
  979SOL    HW1 2936   2.276   1.264   0.277 -0.0638  4.0579  2.1730
  979SOL    HW2 2937   2.353   1.342   0.407 -1.1509  0.5464 -1.0779
  980SOL     OW 2938   0.903   1.971   2.200 -0.3841  0.3837 -0.0511
  980SOL    HW1 2939   0.863   1.908   2.128  1.8607 -2.7169 -1.3266
  980SOL    HW2 2940   0.853   1.951   2.290  0.8388  0.2678 -0.4562
  981SOL     OW 2941   2.600   1.655   2.707  0.0462  0.5185 -0.1785
  981SOL    HW1 2942   2.679   1.661   2.774 -2.5452  0.5615 -1.1504
  981SOL    HW2 2943   2.593   1.554   2.681 -1.4818  1.4594 -0.1571
  982SOL     OW 2944   0.478   2.571   2.017  0.3735  0.5610 -0.0533
  982SOL    HW1 2945   0.477   2.673   1.999 -0.3330  1.3081 -1.5584
  982SOL    HW2 2946   0.478   2.557   2.119  1.4468 -0.3889 -0.6955
  983SOL     OW 2947   1.811   3.215   2.392  0.1529  0.3298 -1.3116
  983SOL    HW1 2948   1.792   3.305   2.347  0.7920 -0.4664  0.4875
  983SOL    HW2 2949   1.797   3.138   2.325  0.6902  0.8915  0.8663
  984SOL     OW 2950   3.608   0.199   3.310 -0.4983  0.9320  0.3602
  984SOL    HW1 2951   3.580   0.265   3.383 -3.1645 -0.6767 -2.7647
  984SOL    HW2 2952   3.580   0.104   3.337 -1.0298  0.4731  1.3346
  985SOL     OW 2953   1.746   1.599   2.126  0.1468  0.2848 -0.1093
  985SOL    HW1 2954   1.799   1.607   2.037 -2.6715 -2.8023  0.7874
  985SOL    HW2 2955   1.674   1.526   2.126 -0.4984 -0.1474  2.6304
  986SOL     OW 2956   2.055   0.531   0.011 -0.4933  0.0200  0.3843
  986SOL    HW1 2957   2.146   0.581   0.020  0.2272  1.4311  2.4669
  986SOL    HW2 2958   1.982   0.585  -0.038  1.0535  1.2095  2.8904
  987SOL     OW 2959   0.296   2.670   2.944 -0.2433  0.1534 -0.7987
  987SOL    HW1 2960   0.383   2.714   2.980  1.0206  1.6715  0.2237
  987SOL    HW2 2961   0.282   2.580   2.992 -2.9812  0.4087 -0.2504
  988SOL     OW 2962   3.355   0.301   1.846  0.7024 -0.1058 -0.1314
  988SOL    HW1 2963   3.443   0.253   1.819 -0.7556  3.0269 -2.8502
  988SOL    HW2 2964   3.278   0.277   1.784  1.0292 -2.0748 -1.5927
  989SOL     OW 2965   2.429   3.624   1.178 -0.4374  0.7777 -0.3706
  989SOL    HW1 2966   2.438   3.546   1.110 -0.9347  1.3321 -0.5129
  989SOL    HW2 2967   2.488   3.702   1.141  0.6347  1.8522  0.8994
  990SOL     OW 2968   3.283   1.009   0.231 -0.3309  0.0147 -0.6062
  990SOL    HW1 2969   3.298   1.074   0.153  2.8276 -1.0112 -0.6513
  990SOL    HW2 2970   3.303   0.912   0.202  0.8324 -1.6398  1.7997
  991SOL     OW 2971   0.336   1.218   0.735 -0.6791 -0.3073  0.4161
  991SOL    HW1 2972   0.264   1.292   0.730  0.2520  1.6723  1.9766
  991SOL    HW2 2973   0.390   1.227   0.822  1.8279 -0.4574 -2.3726
  992SOL     OW 2974   2.110   1.890   1.788 -0.2392  0.6457 -0.1503
  992SOL    HW1 2975   2.079   1.980   1.746  0.6098 -0.2185 -2.1187
  992SOL    HW2 2976   2.139   1.906   1.886  0.2330 -0.5275 -0.9606
  993SOL     OW 2977   3.472   2.836   1.137 -0.3884 -0.8370  0.6177
  993SOL    HW1 2978   3.511   2.768   1.205 -1.1048  0.9984  1.4905
  993SOL    HW2 2979   3.406   2.790   1.073  0.5277 -0.3544 -0.9571
  994SOL     OW 2980   3.611   2.162   1.511 -0.2478 -0.1182 -0.1797
  994SOL    HW1 2981   3.509   2.181   1.515 -0.6587 -0.3630  0.2736
  994SOL    HW2 2982   3.651   2.169   1.607 -1.3504  0.9048  0.8794
  995SOL     OW 2983   2.433   1.418   3.318  0.2576 -0.0285  0.2602
  995SOL    HW1 2984   2.383   1.339   3.362  1.4882  0.3778  0.8666
  995SOL    HW2 2985   2.406   1.509   3.357 -1.8902 -1.7566  0.0776
  996SOL     OW 2986   2.150   2.833   0.634  0.2567 -0.9546  0.2097
  996SOL    HW1 2987   2.127   2.819   0.535 -0.8369 -2.9976  0.0939
  996SOL    HW2 2988   2.209   2.759   0.674  2.9146 -0.7929 -0.0552
  997SOL     OW 2989   1.715   1.853   2.259 -0.1147 -0.3325 -0.4266
  997SOL    HW1 2990   1.647   1.908   2.205  0.1004 -1.3131  1.2409
  997SOL    HW2 2991   1.729   1.761   2.215 -2.0718  1.4054 -0.2073
  998SOL     OW 2992   3.583   3.036   0.589  0.2244  1.1303 -0.6826
  998SOL    HW1 2993   3.604   2.940   0.617  0.3726  0.7403  0.6298
  998SOL    HW2 2994   3.580   3.100   0.671 -0.4661 -1.3672 -0.9155
  999SOL     OW 2995   0.723   3.561   0.096  0.4496  0.3487  0.0957
  999SOL    HW1 2996   0.692   3.476   0.050  0.6142 -0.4482 -0.0521
  999SOL    HW2 2997   0.723   3.644   0.034 -1.3336  2.2279  0.4398
 1000SOL     OW 2998   1.045   0.256   0.089 -0.9606  0.2119  0.4942
 1000SOL    HW1 2999   1.138   0.300   0.082  0.4903  2.0341 -1.0634
 1000SOL    HW2 3000   1.002   0.265  -0.004  1.0126  0.9628  0.5960
   3.63593   3.63593   3.63593
