977 TIP4P/2005f water molecules t=   0.90000 step= 900
 3908
    1SOL     OW    1   0.356   0.810   3.068  0.5269 -0.2913  0.4417
    1SOL    HW1    2   0.335   0.835   2.974  4.9032  0.3807 -0.0509
    1SOL    HW2    3   0.305   0.736   3.092 -1.2400  2.7585 -0.8969
    1SOL     MW    4   0.347   0.803   3.059  0.8712  0.1998  0.2001
    2SOL     OW    5   0.319   3.008   1.163  0.2060  0.5373 -0.0897
    2SOL    HW1    6   0.376   3.083   1.146 -1.1479  3.6415 -1.0585
    2SOL    HW2    7   0.223   3.026   1.165 -0.4759 -0.2965 -0.0182
    2SOL     MW    8   0.314   3.020   1.161 -0.0626  0.8368 -0.2081
    3SOL     OW    9   2.639   0.422   0.948  0.1829 -0.2552 -0.5303
    3SOL    HW1   10   2.713   0.457   0.899 -3.3257 -1.0669  0.6539
    3SOL    HW2   11   2.642   0.455   1.044 -1.0095 -0.1282  4.8685
    3SOL     MW   12   2.649   0.431   0.954 -0.4373 -0.3455  0.3383
    4SOL     OW   13   2.997   1.678   0.618 -0.3725 -0.6982 -0.1089
    4SOL    HW1   14   2.939   1.731   0.556  0.1123  0.6373 -1.8865
    4SOL    HW2   15   3.054   1.638   0.549 -0.1114 -1.3200 -3.1444
    4SOL     MW   16   2.997   1.680   0.601 -0.2741 -0.6040 -0.7439
    5SOL     OW   17   1.737   1.510   0.511 -0.2579  0.1329 -0.0249
    5SOL    HW1   18   1.763   1.454   0.586  1.3537  0.5843  2.0164
    5SOL    HW2   19   1.646   1.500   0.516  1.7314 -0.6983 -1.1999
    5SOL     MW   20   1.729   1.501   0.522  0.2172  0.0828  0.0894
    6SOL     OW   21   0.808   1.443   0.606 -0.5403 -0.4548 -0.0512
    6SOL    HW1   22   0.721   1.465   0.643 -0.6487 -1.0024 -0.5550
    6SOL    HW2   23   0.818   1.358   0.646 -2.4784 -1.1889  3.8601
    6SOL     MW   24   0.798   1.435   0.616 -0.8103 -0.6239  0.3983
    7SOL     OW   25   2.047   1.125   3.050 -0.1624 -0.9541 -0.1161
    7SOL    HW1   26   2.081   1.204   3.001  0.1283 -0.2442 -1.0630
    7SOL    HW2   27   2.097   1.126   3.133  1.3700 -1.5176 -2.1373
    7SOL     MW   28   2.058   1.136   3.055  0.0781 -0.9348 -0.5077
    8SOL     OW   29   0.912   1.406   1.040 -0.2401  0.4542  0.1781
    8SOL    HW1   30   1.004   1.369   1.043  2.5653 -0.6244  2.4393
    8SOL    HW2   31   0.867   1.336   1.090  0.6831 -2.0060  1.7363
    8SOL     MW   32   0.918   1.392   1.047  0.2519 -0.0127  0.6820
    9SOL     OW   33   1.020   0.519   1.402  0.0981  0.3742  0.2090
    9SOL    HW1   34   0.958   0.455   1.367 -1.0314 -1.5418  0.5339
    9SOL    HW2   35   1.051   0.469   1.481  0.7259 -1.4866  1.8242
    9SOL     MW   36   1.016   0.504   1.408  0.0319 -0.1241  0.4650
   10SOL     OW   37   0.270   0.775   0.458 -0.2387 -0.1774 -0.2416
   10SOL    HW1   38   0.360   0.790   0.417 -0.0915 -1.3243 -2.4155
   10SOL    HW2   39   0.262   0.839   0.529 -4.1545  0.6599  0.4472
   10SOL     MW   40   0.281   0.785   0.462 -0.7359 -0.2182 -0.4375
   11SOL     OW   41   0.805   1.138   1.729  0.1180  0.2774  0.1863
   11SOL    HW1   42   0.824   1.110   1.819 -0.1727  2.0622 -0.0679
   11SOL    HW2   43   0.826   1.051   1.688 -2.2460  0.5447 -1.4214
   11SOL     MW   44   0.810   1.123   1.736 -0.2322  0.5482 -0.0593
   12SOL     OW   45   0.054   1.091   0.873  0.5332 -0.1716 -0.3635
   12SOL    HW1   46   0.090   1.168   0.933  0.2403  3.4768  1.4379
   12SOL    HW2   47   0.006   1.135   0.799  1.0250 -2.3891 -3.0338
   12SOL     MW   48   0.052   1.107   0.871  0.5594  0.0172 -0.4781
   13SOL     OW   49   1.846   1.436   1.354  0.6551  0.1815 -0.5068
   13SOL    HW1   50   1.863   1.379   1.275 -0.4321  0.6979 -0.3152
   13SOL    HW2   51   1.855   1.526   1.322  3.2280 -0.5366 -1.5043
   13SOL     MW   52   1.849   1.440   1.339  0.8511  0.1549 -0.6132
   14SOL     OW   53   0.651   0.408   1.879 -0.2915  0.6534  0.2556
   14SOL    HW1   54   0.587   0.341   1.863  1.4135 -0.9979  1.0262
   14SOL    HW2   55   0.707   0.359   1.944  0.0632  0.5315 -1.0518
   14SOL     MW   56   0.650   0.392   1.885 -0.0197  0.4195  0.1847
   15SOL     OW   57   1.954   0.374   1.014 -0.1032 -0.7193 -0.2658
   15SOL    HW1   58   1.953   0.426   1.098 -1.5924 -0.4935 -0.2227
   15SOL    HW2   59   2.029   0.408   0.961 -0.4404  0.1072 -1.3010
   15SOL     MW   60   1.964   0.385   1.018 -0.3442 -0.5805 -0.3967
   16SOL     OW   61   0.167   1.822   0.327  0.3670 -0.1088 -0.3914
   16SOL    HW1   62   0.252   1.779   0.329 -0.4818 -0.9441  3.8599
   16SOL    HW2   63   0.183   1.907   0.369 -0.6342 -0.3962 -1.4831
   16SOL     MW   64   0.181   1.827   0.333  0.1229 -0.2569  0.0254
   17SOL     OW   65   1.129   0.907   1.470  0.2932 -0.0238 -0.7953
   17SOL    HW1   66   1.171   0.878   1.547  1.4685  2.2167 -2.1488
   17SOL    HW2   67   1.033   0.898   1.495  1.3621  0.6145 -1.4212
   17SOL     MW   68   1.122   0.902   1.483  0.5893  0.3560 -1.0565
   18SOL     OW   69   0.054   1.574   0.402 -0.5849  0.2029  0.3884
   18SOL    HW1   70   0.074   1.670   0.387 -0.1278 -0.1693 -0.8513
   18SOL    HW2   71   0.068   1.529   0.323 -1.0727  0.7099  0.8039
   18SOL     MW   72   0.058   1.581   0.390 -0.5890  0.2207  0.2797
   19SOL     OW   73   0.129   1.306   1.007 -0.2648  0.0414  0.3550
   19SOL    HW1   74   0.178   1.348   0.938  3.2077 -2.7575  3.4401
   19SOL    HW2   75   0.034   1.330   1.012 -3.4735 -0.7832  3.3223
   19SOL     MW   76   0.123   1.314   0.999 -0.2300 -0.4367  1.1536
   20SOL     OW   77   0.452   2.134   1.169  0.0827 -0.5487  0.6660
   20SOL    HW1   78   0.393   2.059   1.131 -1.4072 -0.8930  1.0872
   20SOL    HW2   79   0.406   2.165   1.246  2.0069 -0.4698 -3.1060
   20SOL     MW   80   0.438   2.128   1.174  0.1400 -0.5837  0.2239
   21SOL     OW   81   0.513   0.827   0.352 -0.8789  0.2889  0.4049
   21SOL    HW1   82   0.575   0.801   0.419 -0.6735 -2.4158  1.2886
   21SOL    HW2   83   0.550   0.794   0.270  0.6564  0.6859  2.2908
   21SOL     MW   84   0.527   0.819   0.350 -0.6492 -0.0155  0.7703
   22SOL     OW   85   1.534   0.714   1.060  0.6515  0.0921  0.0167
   22SOL    HW1   86   1.470   0.703   0.982 -0.9843 -1.0475 -0.4329
   22SOL    HW2   87   1.495   0.788   1.103 -0.3070  1.7744 -0.8778
   22SOL     MW   88   1.520   0.722   1.055  0.3092  0.1637 -0.1606
   23SOL     OW   89   0.017   0.772   0.660 -0.6024  0.3036 -0.1858
   23SOL    HW1   90   0.048   0.702   0.720  3.3632  0.8254 -1.2310
   23SOL    HW2   91   0.085   0.840   0.660 -1.4334 -1.5276  1.7437
   23SOL     MW   92   0.030   0.772   0.668 -0.1889  0.1308 -0.0691
   24SOL     OW   93   1.993   2.231   0.100  0.3386  0.0644 -0.6346
   24SOL    HW1   94   2.019   2.197   0.189  2.3455  0.4063  2.4571
   24SOL    HW2   95   2.000   2.158   0.035  0.2432 -0.8555 -1.7281
   24SOL     MW   96   1.997   2.217   0.103  0.5908 -0.0118 -0.3710
   25SOL     OW   97   0.259   1.414   0.505  0.6565  0.0537  0.1248
   25SOL    HW1   98   0.201   1.482   0.471 -0.1142 -0.6566  1.4353
   25SOL    HW2   99   0.323   1.398   0.440 -0.9608 -0.3459  4.2684
   25SOL     MW  100   0.260   1.421   0.492  0.3414 -0.0928  0.8444
   26SOL     OW  101   2.034   0.985   0.350  0.1736  0.1435  0.0194
   26SOL    HW1  102   1.977   1.032   0.405 -0.5915  0.8874 -0.5930
   26SOL    HW2  103   2.061   1.057   0.295 -1.0270  1.0516 -2.2870
   26SOL     MW  104   2.030   1.001   0.350 -0.0858  0.3614 -0.3657
   27SOL     OW  105   2.048   1.416   0.267 -0.2356 -0.4129  0.0017
   27SOL    HW1  106   1.955   1.432   0.260  0.8339  2.0814 -0.3701
   27SOL    HW2  107   2.081   1.492   0.321  2.0765 -1.5806 -0.0485
   27SOL     MW  108   2.040   1.428   0.273  0.2105 -0.2379 -0.0540
   28SOL     OW  109   0.422   0.976   1.992  0.8792 -0.2010  0.0355
   28SOL    HW1  110   0.488   1.010   2.056  3.2953  2.7298 -0.6849
   28SOL    HW2  111   0.333   0.946   2.024  3.1804 -0.7393 -1.9463
   28SOL     MW  112   0.419   0.976   2.005  1.5016  0.1146 -0.3210
   29SOL     OW  113   0.254   1.434   0.807  0.6899 -0.0025 -0.0662
   29SOL    HW1  114   0.218   1.523   0.826  0.0120 -0.4174 -0.4143
   29SOL    HW2  115   0.254   1.431   0.714 -0.7571 -0.6303  1.2984
   29SOL     MW  116   0.249   1.446   0.797  0.4096 -0.1401  0.0679
   30SOL     OW  117   0.833   1.175   1.218 -0.0450  0.2101  0.0693
   30SOL    HW1  118   0.750   1.208   1.258 -0.6979 -1.8971 -1.3740
   30SOL    HW2  119   0.903   1.197   1.282  2.6792  0.3967  1.1402
   30SOL     MW  120   0.831   1.182   1.232  0.2283 -0.0433  0.0202
   31SOL     OW  121   0.401   0.139   0.193 -0.4154 -0.5445 -0.6678
   31SOL    HW1  122   0.396   0.051   0.219  1.1273  0.8972 -0.1585
   31SOL    HW2  123   0.442   0.145   0.106  0.6954 -0.9083  3.4380
   31SOL     MW  124   0.406   0.128   0.185 -0.0653 -0.4022 -0.0589
   32SOL     OW  125   2.795   0.985   1.115  0.2800 -0.3040  0.1650
   32SOL    HW1  126   2.749   0.913   1.082 -0.1723  1.5775 -1.7055
   32SOL    HW2  127   2.883   0.952   1.112  1.2403  1.7376 -0.6549
   32SOL     MW  128   2.801   0.971   1.110  0.3471  0.2136 -0.1900
   33SOL     OW  129   1.766   1.298   0.329 -0.3054 -0.4343 -0.2159
   33SOL    HW1  130   1.813   1.232   0.378  1.2195 -0.3471  1.3861
   33SOL    HW2  131   1.768   1.367   0.396 -0.1420  1.0198 -1.2979
   33SOL     MW  132   1.773   1.299   0.344 -0.0826 -0.2309 -0.1473
   34SOL     OW  133   1.237   1.858   1.068  0.1166 -0.1553  0.3267
   34SOL    HW1  134   1.148   1.887   1.079 -1.6384 -2.3744 -0.1266
   34SOL    HW2  135   1.277   1.862   1.152 -0.3876  0.6499 -2.0161
   34SOL     MW  136   1.230   1.862   1.081 -0.1814 -0.3419 -0.0422
   35SOL     OW  137   0.454   0.224   1.826 -0.6663  0.1052 -0.5535
   35SOL    HW1  138   0.445   0.149   1.886  1.0740  0.7270  0.9637
   35SOL    HW2  139   0.466   0.183   1.741 -0.3080 -4.0251 -0.6289
   35SOL     MW  140   0.454   0.209   1.823 -0.3894 -0.3577 -0.3633
   36SOL     OW  141   1.944   1.969   0.526  0.0897  0.3329 -0.1328
   36SOL    HW1  142   1.964   1.956   0.431  0.0492 -0.5548  1.8928
   36SOL    HW2  143   1.977   1.882   0.564  0.6745  0.6038  2.4739
   36SOL     MW  144   1.951   1.956   0.519  0.1615  0.2515  0.4784
   37SOL     OW  145   1.765   1.995   0.992  0.5882  0.0936 -0.1146
   37SOL    HW1  146   1.730   1.946   0.915 -0.4601 -0.8642 -2.4233
   37SOL    HW2  147   1.693   2.030   1.041  1.6576  2.8096  0.6328
   37SOL     MW  148   1.751   1.993   0.988  0.5910  0.3256 -0.3206
   38SOL     OW  149   2.815   0.909   0.112  0.6975 -0.3968  0.0282
   38SOL    HW1  150   2.854   0.892   0.197  2.6984 -0.0535 -0.3321
   38SOL    HW2  151   2.894   0.877   0.059  0.0276  1.1306 -1.2203
   38SOL     MW  152   2.831   0.902   0.116  0.8731 -0.1500 -0.1841
   39SOL     OW  153   1.446   0.617   0.795  0.1554  0.1545 -0.1520
   39SOL    HW1  154   1.415   0.528   0.810 -0.8352 -0.4144 -1.3291
   39SOL    HW2  155   1.374   0.656   0.748 -2.2898  1.5113 -0.5993
   39SOL     MW  156   1.433   0.610   0.791 -0.2979  0.2585 -0.3663
   40SOL     OW  157   1.156   1.902   0.307  0.0972  0.3649  1.2516
   40SOL    HW1  158   1.231   1.849   0.340  0.6560 -0.2521 -0.0109
   40SOL    HW2  159   1.144   1.989   0.342 -0.2318 -0.0512 -2.0482
   40SOL     MW  160   1.164   1.906   0.316  0.1275  0.2286  0.6497
   41SOL     OW  161   0.580   0.558   1.619 -0.6336  0.3821  0.8523
   41SOL    HW1  162   0.673   0.582   1.613  0.0485 -0.6734  0.0819
   41SOL    HW2  163   0.588   0.536   1.709  1.6401  1.5998 -1.8379
   41SOL     MW  164   0.593   0.558   1.630 -0.2436  0.4035  0.3957
   42SOL     OW  165   1.295   3.002   1.987 -0.1725 -0.1469  0.1823
   42SOL    HW1  166   1.206   3.035   2.017  2.5530  0.4314  2.0864
   42SOL    HW2  167   1.317   2.935   2.050 -0.9604 -1.9328  0.7770
   42SOL     MW  168   1.286   2.998   1.999  0.0832 -0.3062  0.5120
   43SOL     OW  169   1.582   0.106   1.702 -0.4210  0.0662 -0.2733
   43SOL    HW1  170   1.598   0.077   1.609 -1.1360  3.1704  0.5229
   43SOL    HW2  171   1.495   0.071   1.726 -0.0856 -0.3496 -1.0053
   43SOL     MW  172   1.573   0.098   1.693 -0.4711  0.4209 -0.2648
   44SOL     OW  173   1.049   0.790   1.011  0.2210  0.7304  0.0079
   44SOL    HW1  174   1.091   0.875   1.002 -0.7212  0.9474 -0.6973
   44SOL    HW2  175   1.043   0.775   1.104 -4.2315 -1.9193 -0.5378
   44SOL     MW  176   1.054   0.799   1.022 -0.4908  0.4094 -0.1571
   45SOL     OW  177   1.233   0.755   0.667 -0.5923  0.4464 -0.2093
   45SOL    HW1  178   1.172   0.823   0.694  0.0573  0.4427 -2.0788
   45SOL    HW2  179   1.186   0.694   0.610  2.3843 -3.4361  0.0000
   45SOL     MW  180   1.218   0.756   0.663 -0.1139 -0.0663 -0.4284
   46SOL     OW  181   0.547   1.169   0.629 -0.1877  0.2746  0.3555
   46SOL    HW1  182   0.492   1.145   0.555  1.8112 -0.2850 -0.0336
   46SOL    HW2  183   0.629   1.119   0.598 -1.9820  1.3188 -0.8230
   46SOL     MW  184   0.551   1.159   0.615 -0.1607  0.3386  0.1487
   47SOL     OW  185   0.163   1.984   1.931  0.1211 -0.3624  0.0310
   47SOL    HW1  186   0.234   1.921   1.938  0.8176  1.3158  2.7420
   47SOL    HW2  187   0.160   2.013   2.024 -0.2504 -0.5957  0.4011
   47SOL     MW  188   0.172   1.980   1.944  0.1640 -0.1717  0.4376
   48SOL     OW  189   1.090   0.496   0.960 -0.2666  0.7464  0.2756
   48SOL    HW1  190   1.001   0.471   0.987 -1.5468 -3.1422  0.6755
   48SOL    HW2  191   1.090   0.586   0.968 -1.9403 -2.3251  0.1433
   48SOL     MW  192   1.078   0.505   0.965 -0.6563 -0.1719  0.3109
   49SOL     OW  193   1.824   0.732   1.571 -0.3480 -0.1381 -0.3646
   49SOL    HW1  194   1.770   0.659   1.611  0.1003 -0.0738 -0.3109
   49SOL    HW2  195   1.886   0.681   1.523 -0.4449 -0.6572 -0.9392
   49SOL     MW  196   1.825   0.716   1.570 -0.3016 -0.1981 -0.4333
   50SOL     OW  197   1.250   1.067   0.517  0.7061 -0.2353 -0.1178
   50SOL    HW1  198   1.209   1.114   0.593 -2.8776 -1.2399  2.5521
   50SOL    HW2  199   1.328   1.032   0.556  1.1701 -1.4147 -0.2964
   50SOL     MW  200   1.255   1.068   0.532  0.2945 -0.5234  0.2109
   51SOL     OW  201   0.294   2.901   0.921  0.4524 -0.6306  0.1373
   51SOL    HW1  202   0.362   2.832   0.939 -0.4996  2.6430 -1.8975
   51SOL    HW2  203   0.298   2.944   1.011 -1.2548  0.9437 -1.5986
   51SOL     MW  204   0.303   2.897   0.936  0.1015  0.0090 -0.3602
   52SOL     OW  205   0.798   1.802   0.473 -0.5084  0.0528  0.5155
   52SOL    HW1  206   0.772   1.896   0.478  4.0750 -0.5519  1.0336
   52SOL    HW2  207   0.816   1.780   0.381 -1.9299  0.3064 -0.4862
   52SOL     MW  208   0.797   1.812   0.462 -0.0912  0.0065  0.4517
   53SOL     OW  209   0.445   2.115   0.585  0.5285 -0.3497 -0.5705
   53SOL    HW1  210   0.378   2.102   0.515 -1.6988  0.9312  1.4449
   53SOL    HW2  211   0.451   2.210   0.585 -1.0972 -0.0342 -0.6025
   53SOL     MW  212   0.437   2.126   0.576  0.0201 -0.1391 -0.3088
   54SOL     OW  213   2.063   0.949   0.814 -0.8150 -0.4318 -0.3985
   54SOL    HW1  214   2.101   0.939   0.726  0.4879  0.9923  0.4002
   54SOL    HW2  215   2.050   0.862   0.851  2.3764 -0.6109  0.2429
   54SOL     MW  216   2.066   0.936   0.807 -0.2220 -0.2676 -0.2085
   55SOL     OW  217   0.536   1.547   1.649 -0.4953  0.5061 -0.9084
   55SOL    HW1  218   0.459   1.553   1.591 -1.9005  0.1722  1.2051
   55SOL    HW2  219   0.595   1.493   1.600 -2.1861 -1.0866  1.4898
   55SOL     MW  220   0.534   1.540   1.635 -0.9038  0.2519 -0.3131
   56SOL     OW  221   0.591   0.790   0.099  0.0511 -0.1710  0.4908
   56SOL    HW1  222   0.630   0.873   0.079 -2.5128  0.9370  0.5860
   56SOL    HW2  223   0.502   0.797   0.056 -1.8809 -1.1666  0.2121
   56SOL     MW  224   0.584   0.802   0.090 -0.5421 -0.1562  0.4666
   57SOL     OW  225   1.170   1.244   1.114 -0.3736  0.5357 -0.0864
   57SOL    HW1  226   1.258   1.285   1.104  0.0169 -0.1779 -0.9908
   57SOL    HW2  227   1.187   1.190   1.189 -1.2446  1.0714 -3.4721
   57SOL     MW  228   1.184   1.242   1.122 -0.4370  0.5122 -0.6524
   58SOL     OW  229   0.546   1.166   1.332  0.4116 -0.2739 -0.1257
   58SOL    HW1  230   0.533   1.259   1.302 -0.3596  2.0221 -0.4572
   58SOL    HW2  231   0.557   1.176   1.424 -2.3091  0.3988 -0.6696
   58SOL     MW  232   0.546   1.180   1.340 -0.0491  0.1178 -0.2412
   59SOL     OW  233   1.555   1.709   0.348 -0.2331  0.0340  0.2674
   59SOL    HW1  234   1.590   1.755   0.424  1.1085  1.6613 -0.0467
   59SOL    HW2  235   1.462   1.692   0.376  1.6705  2.5357 -0.0226
   59SOL     MW  236   1.547   1.713   0.362  0.1951  0.5788  0.1877
   60SOL     OW  237   0.038   0.204   1.573  0.8225  0.5819 -0.1032
   60SOL    HW1  238  -0.046   0.243   1.594  4.8442 -1.8234  1.9466
   60SOL    HW2  239   0.057   0.144   1.643  0.0096  0.1388  1.2499
   60SOL     MW  240   0.030   0.201   1.585  1.2459  0.2061  0.3457
   61SOL     OW  241   2.030   1.509   3.089  0.2561 -0.2908 -0.3523
   61SOL    HW1  242   2.019   1.490   3.185  3.8015 -0.6375  1.4226
   61SOL    HW2  243   2.101   1.449   3.059  0.7452 -0.0372 -0.7012
   61SOL     MW  244   2.038   1.499   3.098  0.7884 -0.3031 -0.1642
   62SOL     OW  245   0.592   1.737   0.633 -0.0990 -0.2221 -0.3260
   62SOL    HW1  246   0.675   1.759   0.575  2.2345  0.2528 -1.0531
   62SOL    HW2  247   0.578   1.642   0.634  0.7806  0.6390 -0.6620
   62SOL     MW  248   0.601   1.727   0.625  0.3249 -0.0458 -0.4663
   63SOL     OW  249   1.709   0.680   0.728  0.3694  0.3192 -0.5060
   63SOL    HW1  250   1.696   0.755   0.671  0.2540 -0.4286 -1.1238
   63SOL    HW2  251   1.634   0.679   0.789 -0.0710  1.4894 -0.1483
   63SOL     MW  252   1.698   0.689   0.728  0.2961  0.3749 -0.5403
   64SOL     OW  253   0.171   1.703   0.807 -0.2077 -0.1613  0.5495
   64SOL    HW1  254   0.223   1.743   0.733  0.1769  1.1504 -1.5053
   64SOL    HW2  255   0.083   1.753   0.809  1.3556  0.2993  0.3448
   64SOL     MW  256   0.166   1.715   0.798  0.0493  0.0726  0.2514
   65SOL     OW  257   1.583   2.292   0.386  0.4964 -0.1038 -0.1626
   65SOL    HW1  258   1.671   2.258   0.394 -1.9090 -3.3063  2.1269
   65SOL    HW2  259   1.566   2.351   0.459 -0.6555  2.2857  0.2553
   65SOL     MW  260   1.592   2.295   0.397  0.0271 -0.2111  0.1946
   66SOL     OW  261   0.283   0.512   0.535 -0.4024 -0.5693 -0.6868
   66SOL    HW1  262   0.340   0.468   0.465 -3.7466 -1.5529  0.2221
   66SOL    HW2  263   0.291   0.607   0.520  1.5444  3.0683  0.6240
   66SOL     MW  264   0.291   0.518   0.524 -0.5868 -0.2191 -0.3939
   67SOL     OW  265   1.559   0.055   2.049 -0.0740  0.1497 -0.1184
   67SOL    HW1  266   1.553   0.082   1.955  0.6888 -0.5271 -1.2798
   67SOL    HW2  267   1.515  -0.033   2.053 -0.0255 -2.0865 -2.4557
   67SOL     MW  268   1.552   0.047   2.037  0.0330 -0.2346 -0.5800
   68SOL     OW  269   0.715   0.077   2.927  0.5655 -0.4830 -0.3235
   68SOL    HW1  270   0.754   0.133   2.861  1.3449  0.6444  0.1377
   68SOL    HW2  271   0.769   0.094   3.006 -2.1396 -2.6745 -0.9506
   68SOL     MW  272   0.727   0.086   2.929  0.3114 -0.6234 -0.3454
   69SOL     OW  273   1.036   0.249   1.991  0.3397  0.3080 -0.6501
   69SOL    HW1  274   1.130   0.259   1.991 -1.6158 -1.4575 -0.2849
   69SOL    HW2  275   1.018   0.172   2.045  0.9488 -1.8957  0.8425
   69SOL     MW  276   1.046   0.240   1.998  0.1620 -0.2157 -0.4050
   70SOL     OW  277   0.534   1.735   1.130  0.1287  0.0995 -0.0008
   70SOL    HW1  278   0.574   1.743   1.217  1.3617  1.9755  0.2890
   70SOL    HW2  279   0.605   1.768   1.077 -1.0921  0.8833  1.6076
   70SOL     MW  280   0.548   1.740   1.134  0.1303  0.4504  0.2496
   71SOL     OW  281   1.576   0.505   1.248  0.3750 -0.4128 -0.1599
   71SOL    HW1  282   1.530   0.558   1.312 -2.8276 -1.1149 -2.2318
   71SOL    HW2  283   1.563   0.555   1.167  1.3942 -0.3895  0.1992
   71SOL     MW  284   1.569   0.518   1.245  0.0869 -0.5024 -0.3859
   72SOL     OW  285   0.755   1.852   0.962 -0.2066 -0.3110  0.0880
   72SOL    HW1  286   0.773   1.922   0.895  0.4419 -0.6857 -1.1566
   72SOL    HW2  287   0.761   1.773   0.906  0.6343 -0.4001 -4.4992
   72SOL     MW  288   0.758   1.851   0.946 -0.0101 -0.3722 -0.6814
   73SOL     OW  289   1.177   0.721   1.279  0.3978 -0.4116 -0.6685
   73SOL    HW1  290   1.135   0.640   1.315  1.4718 -0.6403 -0.5798
   73SOL    HW2  291   1.146   0.794   1.340  3.2387  1.8590  0.6056
   73SOL     MW  292   1.168   0.720   1.292  0.9143 -0.1422 -0.4887
   74SOL     OW  293   2.715   0.138   0.973 -0.1279 -0.1158 -0.2336
   74SOL    HW1  294   2.773   0.094   0.915 -1.6231  1.3022  0.3558
   74SOL    HW2  295   2.720   0.235   0.963 -0.9851 -0.6612 -0.1839
   74SOL     MW  296   2.724   0.145   0.964 -0.4383 -0.0007 -0.1493
   75SOL     OW  297   1.612   1.364   0.113 -0.4167 -0.0138 -0.3249
   75SOL    HW1  298   1.644   1.454   0.125  0.7599  1.0899 -0.0590
   75SOL    HW2  299   1.648   1.324   0.195 -1.8139  1.9442 -1.4913
   75SOL     MW  300   1.621   1.371   0.125 -0.4458  0.3902 -0.4437
   76SOL     OW  301   3.002   0.587   0.480 -0.4453 -0.4877  0.0642
   76SOL    HW1  302   3.051   0.653   0.531 -1.2739 -1.2965  1.4717
   76SOL    HW2  303   3.066   0.514   0.469  1.9885 -1.5068 -1.4926
   76SOL     MW  304   3.017   0.586   0.485 -0.2335 -0.7289  0.0445
   77SOL     OW  305   0.815   0.521   0.465 -0.1674  0.1538  0.4753
   77SOL    HW1  306   0.792   0.526   0.369 -2.2585  1.4928 -0.4707
   77SOL    HW2  307   0.760   0.450   0.502  0.7567  1.7985 -0.5290
   77SOL     MW  308   0.805   0.512   0.457 -0.3214  0.5474  0.2180
   78SOL     OW  309   0.721   0.908   1.311  0.2385 -0.2874 -0.1805
   78SOL    HW1  310   0.736   0.997   1.285 -2.8244  0.2471  0.2355
   78SOL    HW2  311   0.677   0.866   1.235 -0.9784 -1.2591 -2.9797
   78SOL     MW  312   0.717   0.914   1.297 -0.3261 -0.3451 -0.4950
   79SOL     OW  313   1.954   1.688   0.591  0.6077 -0.3338  0.1477
   79SOL    HW1  314   1.878   1.651   0.542  0.6372  0.9901  1.0724
   79SOL    HW2  315   1.939   1.663   0.686 -2.3249  1.4544 -0.4393
   79SOL     MW  316   1.942   1.679   0.597  0.2247  0.0768  0.1922
   80SOL     OW  317   0.073   0.941   0.338  0.3636  0.0857 -0.1200
   80SOL    HW1  318  -0.018   0.905   0.318 -0.6756 -0.9545 -0.1957
   80SOL    HW2  319   0.126   0.868   0.366  0.0166 -0.7355 -1.0093
   80SOL     MW  320   0.068   0.927   0.339  0.1807 -0.1599 -0.2473
   81SOL     OW  321   1.929   1.899   0.268  0.1337 -0.5326  0.5690
   81SOL    HW1  322   1.887   1.812   0.258 -2.7025  0.2459  1.1743
   81SOL    HW2  323   1.869   1.963   0.232 -1.9551 -0.8593 -1.7522
   81SOL     MW  324   1.916   1.896   0.262 -0.5161 -0.4730  0.3426
   82SOL     OW  325   0.802   1.015   0.543 -0.2464 -0.4765  0.4272
   82SOL    HW1  326   0.797   1.037   0.442 -1.8802  1.4354 -0.0838
   82SOL    HW2  327   0.762   0.929   0.545 -1.0636  1.7393  0.8405
   82SOL     MW  328   0.796   1.006   0.530 -0.5698  0.0681  0.4143
   83SOL     OW  329   0.065   0.648   1.467  0.1654 -0.1463 -0.3856
   83SOL    HW1  330   0.088   0.710   1.390 -2.1856 -0.2758  0.9837
   83SOL    HW2  331   0.150   0.612   1.499  1.7066 -0.9785 -1.6552
   83SOL     MW  332   0.079   0.652   1.461  0.0586 -0.2732 -0.3724
   84SOL     OW  333   0.128   0.262   1.011 -0.2870 -0.5288  0.6949
   84SOL    HW1  334   0.060   0.313   0.956 -0.8160 -2.5839  1.4642
   84SOL    HW2  335   0.078   0.192   1.053  1.0139 -0.2348 -0.0289
   84SOL     MW  336   0.113   0.260   1.009 -0.1852 -0.7612  0.7009
   85SOL     OW  337   0.463   0.444   0.719  0.1708  0.2564  0.4557
   85SOL    HW1  338   0.404   0.473   0.651  0.5526  0.4564 -1.3370
   85SOL    HW2  339   0.433   0.355   0.740  0.7497 -2.7080 -0.5972
   85SOL     MW  340   0.452   0.436   0.713  0.2976 -0.1084  0.0802
   86SOL     OW  341   1.161   0.267   1.128  0.2649 -0.3582  0.0876
   86SOL    HW1  342   1.147   0.339   1.073  0.4361 -0.7615  0.3756
   86SOL    HW2  343   1.217   0.309   1.195 -2.3891  0.2302  2.6252
   86SOL     MW  344   1.167   0.282   1.130 -0.0627 -0.3338  0.4604
   87SOL     OW  345   1.262   1.470   1.336  0.7204  0.2141 -0.4299
   87SOL    HW1  346   1.270   1.509   1.249  0.0550  0.1968 -0.7620
   87SOL    HW2  347   1.237   1.378   1.316  1.2190 -0.5184 -3.3095
   87SOL     MW  348   1.260   1.463   1.322  0.6984  0.1152 -0.8537
   88SOL     OW  349   1.191   1.024   0.977 -0.3428  0.4076  0.6323
   88SOL    HW1  350   1.281   1.014   0.945 -1.3584 -0.9485 -0.7191
   88SOL    HW2  351   1.182   1.100   1.034  0.6089 -2.4173  0.4716
   88SOL     MW  352   1.202   1.033   0.980 -0.3513 -0.1441  0.4328
   89SOL     OW  353   1.763   0.699   0.372 -0.2928  0.5132 -0.4172
   89SOL    HW1  354   1.750   0.602   0.372 -0.6017 -1.4822  1.0357
   89SOL    HW2  355   1.842   0.707   0.321 -0.2607 -2.5030  1.0046
   89SOL     MW  356   1.772   0.688   0.365 -0.3293 -0.1480 -0.0379
   90SOL     OW  357   0.728   1.148   2.736  0.6608 -0.2128 -0.5557
   90SOL    HW1  358   0.793   1.085   2.718 -0.3936  1.7101 -0.2377
   90SOL    HW2  359   0.766   1.180   2.818  0.3288 -1.1024  5.3224
   90SOL     MW  360   0.742   1.144   2.745  0.4779 -0.0765  0.2618
   91SOL     OW  361   2.181   0.667   0.435  0.3400  0.2153 -0.1307
   91SOL    HW1  362   2.258   0.692   0.385  0.8000 -1.4121 -0.3103
   91SOL    HW2  363   2.160   0.578   0.412 -0.9757  1.1781  1.6127
   91SOL     MW  364   2.188   0.658   0.425  0.2271  0.1276  0.0756
   92SOL     OW  365   1.720   0.905   0.540  0.0668 -0.1845  0.3488
   92SOL    HW1  366   1.626   0.886   0.558  0.8978  1.8964  1.1169
   92SOL    HW2  367   1.747   0.834   0.484  1.0276  2.6455  1.3213
   92SOL     MW  368   1.711   0.893   0.535  0.3032  0.4635  0.5785
   93SOL     OW  369   0.956   0.239   0.400  0.7305 -0.2602 -0.2776
   93SOL    HW1  370   0.885   0.301   0.399  1.1281  0.4140 -2.0201
   93SOL    HW2  371   0.992   0.266   0.315 -0.8203  1.2773 -0.6224
   93SOL     MW  372   0.952   0.251   0.389  0.5784  0.0316 -0.5530
   94SOL     OW  373   1.800   1.436   1.644  0.6658 -0.6563  0.4257
   94SOL    HW1  374   1.797   1.421   1.554  0.6414 -1.1728  0.6239
   94SOL    HW2  375   1.781   1.342   1.680  0.8316 -2.5974 -0.1502
   94SOL     MW  376   1.797   1.421   1.637  0.6845 -0.9806  0.3759
   95SOL     OW  377   0.735   1.564   0.910  0.1411  0.3239  0.2423
   95SOL    HW1  378   0.792   1.505   0.956 -2.0319  1.1032  2.2534
   95SOL    HW2  379   0.656   1.511   0.927 -0.1712 -0.4830 -0.2817
   95SOL     MW  380   0.732   1.549   0.918 -0.1868  0.3203  0.4385
   96SOL     OW  381   1.277   1.866   1.675  0.0501 -0.0210 -1.1628
   96SOL    HW1  382   1.203   1.843   1.736 -2.6315 -0.6661  2.0335
   96SOL    HW2  383   1.312   1.792   1.641 -0.4862  4.5499  1.0150
   96SOL     MW  384   1.272   1.853   1.679 -0.3745  0.4969 -0.4538
   97SOL     OW  385   1.262   1.432   0.731  0.0633  0.3502  0.2512
   97SOL    HW1  386   1.301   1.470   0.807 -2.7097  0.4310  1.4805
   97SOL    HW2  387   1.179   1.481   0.732 -0.5087  1.2370 -0.1136
   97SOL     MW  388   1.256   1.444   0.741 -0.3780  0.4779  0.3653
   98SOL     OW  389   1.444   1.294   1.044 -0.3038 -0.3805 -0.1793
   98SOL    HW1  390   1.510   1.346   1.097  1.8632 -0.0907  2.0582
   98SOL    HW2  391   1.482   1.305   0.955  0.5639 -2.4484 -0.5348
   98SOL     MW  392   1.458   1.302   1.039  0.0966 -0.6151  0.0690
   99SOL     OW  393   1.356   0.350   1.341 -0.4784 -0.1141  0.2725
   99SOL    HW1  394   1.443   0.383   1.307 -1.2266 -3.7323 -2.3788
   99SOL    HW2  395   1.339   0.390   1.423  1.5742 -0.5155 -0.9571
   99SOL     MW  396   1.366   0.360   1.347 -0.3063 -0.6444 -0.2396
  100SOL     OW  397   1.006   1.183   1.438  0.1098 -0.1546  0.3918
  100SOL    HW1  398   1.030   1.207   1.530  1.0612  0.1447  1.0000
  100SOL    HW2  399   1.010   1.085   1.433 -2.5211 -0.2866 -0.1369
  100SOL     MW  400   1.010   1.173   1.449 -0.1118 -0.1326  0.4023
  101SOL     OW  401   0.483   1.097   0.339 -0.2732  0.3800  0.3348
  101SOL    HW1  402   0.486   1.000   0.343  1.0588 -2.7957  0.2374
  101SOL    HW2  403   0.504   1.122   0.253  1.4629 -0.0169  0.0753
  101SOL     MW  404   0.486   1.088   0.329  0.1316 -0.0914  0.2877
  102SOL     OW  405   2.931   0.642   1.081  0.2892  0.2283  0.4755
  102SOL    HW1  406   2.981   0.726   1.088 -2.1712 -0.2984 -2.7503
  102SOL    HW2  407   2.924   0.613   1.175 -1.2920  0.2147  0.2054
  102SOL     MW  408   2.937   0.650   1.094 -0.2441  0.1570  0.0142
  103SOL     OW  409   1.803   0.264   1.796  0.1276  0.0887 -0.1381
  103SOL    HW1  410   1.750   0.180   1.767 -1.7954 -0.2783 -0.4990
  103SOL    HW2  411   1.804   0.254   1.894 -1.6293  1.6196 -2.7589
  103SOL     MW  412   1.796   0.252   1.805 -0.3579  0.2423 -0.5315
  104SOL     OW  413   0.108   1.638   1.495  1.3527 -0.5816 -0.1461
  104SOL    HW1  414   0.055   1.706   1.548 -1.5054 -0.6254  0.3268
  104SOL    HW2  415   0.042   1.594   1.449 -0.8248 -2.0569  0.1393
  104SOL     MW  416   0.092   1.641   1.496  0.6883 -0.7820 -0.0460
  105SOL     OW  417   0.019   1.204   0.432  0.0768  0.4821  0.1540
  105SOL    HW1  418   0.053   1.112   0.419  0.7410 -1.2510 -0.9120
  105SOL    HW2  419   0.095   1.270   0.428  1.7922  0.4912  0.0090
  105SOL     MW  420   0.034   1.200   0.430  0.3908  0.2547 -0.0058
  106SOL     OW  421   0.851   0.364   1.004  0.0890 -0.3617 -0.3744
  106SOL    HW1  422   0.804   0.420   0.938  0.4343  1.1078  0.8313
  106SOL    HW2  423   0.907   0.300   0.955 -0.5518 -0.0145 -0.6080
  106SOL     MW  424   0.852   0.363   0.989  0.0500 -0.1220 -0.2461
  107SOL     OW  425   0.791   2.163   2.989  0.2448  0.6579  0.3412
  107SOL    HW1  426   0.733   2.133   2.916 -1.3568  0.4203  1.9418
  107SOL    HW2  427   0.775   2.097   3.061  3.5354 -0.7004  1.3895
  107SOL     MW  428   0.782   2.150   2.988  0.4677  0.4473  0.6907
  108SOL     OW  429   1.315   1.570   1.631  0.7596  0.6153  0.4997
  108SOL    HW1  430   1.259   1.574   1.549 -2.5617 -0.9623 -0.9156
  108SOL    HW2  431   1.398   1.520   1.619  0.0313 -0.2800  0.0022
  108SOL     MW  432   1.319   1.564   1.619  0.2253  0.2890  0.2473
  109SOL     OW  433   1.962   0.769   0.166  0.0680  0.6582  0.3572
  109SOL    HW1  434   1.927   0.856   0.158 -3.5086  1.8779  2.4425
  109SOL    HW2  435   2.035   0.789   0.221  1.4398 -2.1218  0.5494
  109SOL     MW  436   1.967   0.783   0.172 -0.2229  0.4524  0.6577
  110SOL     OW  437   0.391   1.904   0.732 -0.9330 -0.2506 -0.8681
  110SOL    HW1  438   0.466   1.851   0.706  0.6310  1.8624 -2.9899
  110SOL    HW2  439   0.408   1.993   0.694  0.4966  1.1596  1.7292
  110SOL     MW  440   0.403   1.909   0.723 -0.5380  0.2142 -0.8053
  111SOL     OW  441   0.862   0.935   1.541 -0.1406 -0.3993  0.2027
  111SOL    HW1  442   0.812   0.911   1.457  0.5825  0.2462 -4.3012
  111SOL    HW2  443   0.826   0.870   1.603  0.5205 -1.0017 -0.7086
  111SOL     MW  444   0.851   0.923   1.538  0.0420 -0.3936 -0.5118
  112SOL     OW  445   1.342   1.106   1.613  0.0971  0.2909 -0.1305
  112SOL    HW1  446   1.265   1.154   1.651 -1.9294  2.0868 -0.6692
  112SOL    HW2  447   1.310   1.016   1.611  2.9297 -0.5004  0.2756
  112SOL     MW  448   1.327   1.100   1.618  0.2035  0.4235 -0.1480
  113SOL     OW  449   1.287   0.035   1.721 -0.2889 -0.4931 -0.3297
  113SOL    HW1  450   1.296   0.004   1.812  3.0014  0.4604  0.9958
  113SOL    HW2  451   1.326  -0.039   1.678  0.9035 -1.1891 -2.4403
  113SOL     MW  452   1.293   0.021   1.728  0.3026 -0.4591 -0.4333
  114SOL     OW  453   0.259   2.858   1.938  0.2626 -0.1243  0.2761
  114SOL    HW1  454   0.319   2.929   1.953  1.0574  1.0848  0.9202
  114SOL    HW2  455   0.254   2.856   1.839 -0.9062 -2.4103  1.3650
  114SOL     MW  456   0.266   2.867   1.927  0.2132 -0.2664  0.5048
  115SOL     OW  457   0.488   0.843   1.108  0.3934  0.3514 -0.3136
  115SOL    HW1  458   0.511   0.750   1.084  0.4791 -0.5222 -1.6478
  115SOL    HW2  459   0.458   0.842   1.197 -2.4216 -1.2951  0.2468
  115SOL     MW  460   0.487   0.831   1.117  0.0333  0.0189 -0.4157
  116SOL     OW  461   0.776   1.069   0.935 -0.1403  0.0320 -0.5264
  116SOL    HW1  462   0.819   1.133   0.878 -0.0141  1.8607  1.4952
  116SOL    HW2  463   0.830   1.081   1.016  3.4434  1.6188  0.6970
  116SOL     MW  464   0.789   1.079   0.938  0.3492  0.4827 -0.0982
  117SOL     OW  465   1.165   1.186   0.754  0.5055  0.0449 -0.1486
  117SOL    HW1  466   1.176   1.135   0.834 -0.5856 -0.5217  0.2404
  117SOL    HW2  467   1.214   1.266   0.754  1.1458 -2.1830 -1.2060
  117SOL     MW  468   1.173   1.190   0.764  0.4461 -0.3238 -0.2368
  118SOL     OW  469   3.044   2.980   1.736  0.6545 -0.0057 -0.6728
  118SOL    HW1  470   3.111   3.046   1.767 -1.0005  2.1190 -0.8660
  118SOL    HW2  471   2.959   3.017   1.762 -0.5347  0.0833  1.4836
  118SOL     MW  472   3.042   2.994   1.744  0.2792  0.2864 -0.4138
  119SOL     OW  473   0.449   1.463   1.257 -0.8294  0.6554  0.4320
  119SOL    HW1  474   0.481   1.530   1.194  0.9763  0.0234 -0.6471
  119SOL    HW2  475   0.351   1.465   1.246 -0.9026  0.2380  4.9488
  119SOL     MW  476   0.440   1.472   1.247 -0.6008  0.5169  0.8855
  120SOL     OW  477   0.250   0.697   0.978 -0.1636 -0.3301 -0.2572
  120SOL    HW1  478   0.232   0.628   1.044 -1.3272 -0.2361 -0.8283
  120SOL    HW2  479   0.294   0.768   1.022 -1.6326  1.8723  1.1011
  120SOL     MW  480   0.254   0.697   0.992 -0.5110 -0.0271 -0.1533
  121SOL     OW  481   1.732   1.205   1.729 -0.0570 -0.2727  0.0243
  121SOL    HW1  482   1.639   1.187   1.741 -4.7075  0.5585  0.2406
  121SOL    HW2  483   1.766   1.134   1.675 -0.2153  0.1284  2.1679
  121SOL     MW  484   1.724   1.193   1.723 -0.6915 -0.1101  0.3357
  122SOL     OW  485   0.132   0.544   0.798  0.5197  0.4709  0.1741
  122SOL    HW1  486   0.201   0.518   0.738 -0.5835  1.2306 -0.3958
  122SOL    HW2  487   0.169   0.612   0.858  0.4026 -2.3759 -0.5109
  122SOL     MW  488   0.146   0.549   0.798  0.3587  0.1955  0.0085
  123SOL     OW  489   1.871   1.126   0.523  0.5793  0.0669 -0.1982
  123SOL    HW1  490   1.822   1.047   0.550 -1.3794  0.1166  1.4304
  123SOL    HW2  491   1.932   1.152   0.590  0.8485  0.6195 -3.6762
  123SOL     MW  492   1.872   1.119   0.536  0.3564  0.1464 -0.4422
  124SOL     OW  493   0.687   0.531   0.856 -0.0630  0.1752  0.4119
  124SOL    HW1  494   0.606   0.513   0.797  0.6933  0.5738 -0.4750
  124SOL    HW2  495   0.680   0.625   0.870  0.7314 -0.6247 -0.5502
  124SOL     MW  496   0.675   0.541   0.850  0.1416  0.1222  0.1679
  125SOL     OW  497   0.680   1.791   1.726 -0.5526 -0.2288 -0.5393
  125SOL    HW1  498   0.614   1.724   1.703  2.8283  0.2299 -0.4500
  125SOL    HW2  499   0.632   1.871   1.706 -1.5979  2.3106  0.7092
  125SOL     MW  500   0.665   1.792   1.720 -0.2444  0.1668 -0.3628
  126SOL     OW  501   2.086   1.583   1.937 -0.4690  0.2459  0.0163
  126SOL    HW1  502   2.148   1.656   1.941 -2.6530  1.3717  0.3369
  126SOL    HW2  503   2.142   1.508   1.953 -0.5299  1.9304 -1.9681
  126SOL     MW  504   2.102   1.583   1.939 -0.7652  0.6167 -0.2032
  127SOL     OW  505   0.701   0.784   1.840 -0.4827  0.2965 -0.3444
  127SOL    HW1  506   0.771   0.738   1.892 -0.0211 -1.8611  1.2418
  127SOL    HW2  507   0.699   0.869   1.891 -1.1120  0.7303  1.4791
  127SOL     MW  508   0.710   0.789   1.853 -0.5048  0.0691  0.1055
  128SOL     OW  509   1.794   0.727   2.942  0.3478 -0.3621 -0.1958
  128SOL    HW1  510   1.834   0.693   2.861 -0.2919 -2.3801  1.0375
  128SOL    HW2  511   1.764   0.817   2.916 -0.9258  1.1937 -1.5613
  128SOL     MW  512   1.795   0.734   2.928  0.0954 -0.4231 -0.2132
  129SOL     OW  513   1.616   0.947   0.197 -0.4297 -0.2124 -0.7087
  129SOL    HW1  514   1.564   0.876   0.167  1.2383  0.1913  1.5331
  129SOL    HW2  515   1.674   0.905   0.264 -1.1470  0.1716 -0.5086
  129SOL     MW  516   1.617   0.932   0.202 -0.3043 -0.1085 -0.3865
  130SOL     OW  517   0.757   1.360   0.354  0.2594  0.8683 -0.6644
  130SOL    HW1  518   0.759   1.383   0.449 -0.5939  0.3113  2.9743
  130SOL    HW2  519   0.808   1.436   0.329 -1.5606 -2.1738  0.8951
  130SOL     MW  520   0.764   1.373   0.363 -0.0933  0.3934  0.0215
  131SOL     OW  521   3.037   0.818   3.090 -0.0897  0.1503  0.2968
  131SOL    HW1  522   3.032   0.853   2.996 -0.4001  0.6698  1.6129
  131SOL    HW2  523   3.123   0.770   3.081  0.5987 -1.4104  0.2358
  131SOL     MW  524   3.048   0.816   3.076 -0.0398  0.0129  0.4624
  132SOL     OW  525   2.683   0.132   1.242 -0.2032 -0.5380  0.4283
  132SOL    HW1  526   2.679   0.128   1.141 -2.0388 -1.3297 -0.6923
  132SOL    HW2  527   2.588   0.120   1.263  1.4350  1.7385 -0.1079
  132SOL     MW  528   2.670   0.130   1.231 -0.2292 -0.3421  0.2097
  133SOL     OW  529   1.006   0.137   1.728  0.4823  0.4966  0.0042
  133SOL    HW1  530   1.079   0.076   1.722  0.0203 -0.2716  1.1957
  133SOL    HW2  531   1.015   0.170   1.821 -1.4870 -0.9748  0.5740
  133SOL     MW  532   1.017   0.134   1.740  0.1615  0.2011  0.2366
  134SOL     OW  533   1.377   2.519   1.459 -0.4994  0.1247  0.1428
  134SOL    HW1  534   1.308   2.585   1.462 -0.5285  0.4138 -0.7243
  134SOL    HW2  535   1.432   2.552   1.537  2.7358  0.2302 -0.8824
  134SOL     MW  536   1.375   2.532   1.470 -0.0764  0.1767 -0.1069
  135SOL     OW  537   3.018   0.966   2.875  0.1666  0.3866  0.4380
  135SOL    HW1  538   3.065   1.034   2.916 -0.9684 -1.0291 -2.0088
  135SOL    HW2  539   2.936   1.012   2.851 -2.0145 -4.9347 -1.4284
  135SOL     MW  540   3.013   0.981   2.877 -0.2710 -0.5023 -0.1311
  136SOL     OW  541   0.189   2.029   0.853  0.0103 -0.1621 -0.6640
  136SOL    HW1  542   0.107   1.975   0.850 -0.7592 -0.8530  0.7471
  136SOL    HW2  543   0.250   1.985   0.797 -0.7225  1.3374 -1.1639
  136SOL     MW  544   0.186   2.016   0.845 -0.1879 -0.0554 -0.5438
  137SOL     OW  545   0.708   2.062   0.523 -0.2544  0.2785 -0.8022
  137SOL    HW1  546   0.741   2.051   0.616 -0.7955 -1.8487 -2.5402
  137SOL    HW2  547   0.620   2.086   0.539  3.9943 -3.4145 -1.2085
  137SOL     MW  548   0.701   2.064   0.537  0.2348 -0.4894 -1.0851
  138SOL     OW  549   0.558   0.569   1.131 -0.1322 -0.1147  0.1760
  138SOL    HW1  550   0.470   0.528   1.117  0.4563  0.2074  0.3255
  138SOL    HW2  551   0.611   0.525   1.061 -1.7931  0.2494  0.9161
  138SOL     MW  552   0.554   0.558   1.120 -0.2737 -0.0242  0.2934
  139SOL     OW  553   2.781   0.597   1.350 -0.3374  0.7201  0.1118
  139SOL    HW1  554   2.791   0.499   1.355  1.2239 -2.1018  0.3870
  139SOL    HW2  555   2.844   0.636   1.410  0.0647 -1.4841 -2.2509
  139SOL     MW  556   2.791   0.589   1.359 -0.0783  0.0570 -0.1636
  140SOL     OW  557   0.833   0.389   2.084  0.2166 -0.1772 -0.2549
  140SOL    HW1  558   0.901   0.325   2.066 -0.9114  2.0305  0.0358
  140SOL    HW2  559   0.824   0.392   2.181  0.1690 -1.2904 -1.4496
  140SOL     MW  560   0.841   0.381   2.095  0.0615 -0.0328 -0.3742
  141SOL     OW  561   1.072   0.661   1.731  0.1110 -0.1426 -0.2943
  141SOL    HW1  562   1.090   0.571   1.700  1.6946 -0.0719  0.2107
  141SOL    HW2  563   1.157   0.714   1.730 -0.8746  0.8752  0.1207
  141SOL     MW  564   1.086   0.656   1.727  0.1899  0.0010 -0.1729
  142SOL     OW  565   0.885   1.215   0.713  0.7625  0.6503 -0.0350
  142SOL    HW1  566   0.865   1.146   0.645 -1.0452  0.7761  0.2464
  142SOL    HW2  567   0.980   1.217   0.730  0.5312 -1.8004 -1.4961
  142SOL     MW  568   0.895   1.206   0.706  0.4934  0.3435 -0.1907
  143SOL     OW  569   1.814   0.771   1.094  0.3096  0.7159  0.0527
  143SOL    HW1  570   1.873   0.752   1.020 -0.9480  2.5319 -0.0225
  143SOL    HW2  571   1.729   0.740   1.073  1.0989 -2.7183  2.2950
  143SOL     MW  572   1.811   0.765   1.082  0.2478  0.5024  0.3386
  144SOL     OW  573   0.231   1.170   1.584  0.4514  0.2983  0.1555
  144SOL    HW1  574   0.315   1.174   1.542 -0.9465 -0.8127 -1.3754
  144SOL    HW2  575   0.259   1.202   1.672  1.7044  0.6742  1.4576
  144SOL     MW  576   0.246   1.174   1.590  0.4323  0.2013  0.1253
  145SOL     OW  577   0.225   0.477   1.144 -0.4078  0.0691  0.7606
  145SOL    HW1  578   0.276   0.442   1.212  1.1582 -1.1977  2.7161
  145SOL    HW2  579   0.193   0.381   1.108 -0.5672 -1.2576  1.7361
  145SOL     MW  580   0.227   0.460   1.148 -0.2222 -0.2731  1.1473
  146SOL     OW  581   0.857   1.932   1.329  0.6344  0.4629 -0.0631
  146SOL    HW1  582   0.917   1.939   1.251  2.8615 -0.8183  2.9907
  146SOL    HW2  583   0.765   1.922   1.299 -0.6319 -1.7336  0.5972
  146SOL     MW  584   0.853   1.931   1.315  0.7611  0.0041  0.4269
  147SOL     OW  585   0.414   0.423   2.963  0.8385  0.2463 -0.5219
  147SOL    HW1  586   0.347   0.441   3.028  2.6398  2.3571  1.5853
  147SOL    HW2  587   0.391   0.486   2.892 -0.1571  0.2325 -1.1978
  147SOL     MW  588   0.402   0.434   2.963  0.9448  0.5230 -0.3330
  148SOL     OW  589   0.139   0.827   1.274 -0.1401 -0.3276  0.6553
  148SOL    HW1  590   0.229   0.854   1.265  0.2279  1.8320 -0.9826
  148SOL    HW2  591   0.105   0.892   1.340  1.6669  0.7507 -0.7407
  148SOL     MW  592   0.146   0.839   1.282  0.1468  0.0996  0.2550
  149SOL     OW  593   1.355   1.117   1.337 -0.8275 -0.0549  0.2148
  149SOL    HW1  594   1.352   1.088   1.431  0.7885 -1.5790  0.2503
  149SOL    HW2  595   1.422   1.185   1.330 -3.2408  1.5278 -0.3123
  149SOL     MW  596   1.364   1.122   1.348 -0.9327 -0.0471  0.1499
  150SOL     OW  597   1.843   1.361   0.731 -0.2178 -1.1190 -0.3265
  150SOL    HW1  598   1.862   1.282   0.777 -0.2152 -1.0700 -0.8359
  150SOL    HW2  599   1.873   1.427   0.795 -0.5480 -0.1146 -1.7419
  150SOL     MW  600   1.849   1.360   0.746 -0.2610 -0.9800 -0.5804
  151SOL     OW  601   1.682   1.774   0.808 -0.0760  0.6978 -0.2564
  151SOL    HW1  602   1.686   1.792   0.713 -0.9409 -2.9369 -0.4675
  151SOL    HW2  603   1.597   1.725   0.803 -4.1737 -0.2847 -3.0036
  151SOL     MW  604   1.671   1.770   0.795 -0.7307  0.0886 -0.6467
  152SOL     OW  605   0.746   1.395   1.496  0.0933 -0.7003  0.2229
  152SOL    HW1  606   0.758   1.299   1.501  0.6034 -1.0030 -3.2738
  152SOL    HW2  607   0.832   1.432   1.516 -0.3910 -1.1051  0.2399
  152SOL     MW  608   0.759   1.387   1.499  0.0967 -0.7937 -0.2362
  153SOL     OW  609   2.613   1.207   0.774  0.7769  0.3380 -0.1495
  153SOL    HW1  610   2.673   1.161   0.713 -0.2846  3.0058  0.8615
  153SOL    HW2  611   2.539   1.145   0.798 -1.4177  0.0933 -2.2706
  153SOL     MW  612   2.611   1.193   0.769  0.3473  0.6577 -0.2960
  154SOL     OW  613   0.265   1.815   1.708 -0.9930 -0.1755 -0.2256
  154SOL    HW1  614   0.339   1.827   1.648  2.4343  2.0819  0.8754
  154SOL    HW2  615   0.294   1.754   1.779 -1.4540  1.2138  2.1371
  154SOL     MW  616   0.279   1.809   1.709 -0.6016  0.3057  0.2314
  155SOL     OW  617   1.246   0.699   0.245 -0.2994 -0.1579 -0.2220
  155SOL    HW1  618   1.211   0.644   0.316 -0.3811 -3.0913  1.1211
  155SOL    HW2  619   1.206   0.787   0.269  0.8593  0.5023  0.9361
  155SOL     MW  620   1.236   0.704   0.257 -0.1573 -0.4578  0.1080
  156SOL     OW  621   1.498   3.080   1.131 -0.5416  0.0519 -0.2745
  156SOL    HW1  622   1.579   3.140   1.145 -0.7165  1.8969  1.1493
  156SOL    HW2  623   1.514   2.986   1.149 -0.6543 -1.2853 -0.2927
  156SOL     MW  624   1.511   3.076   1.135 -0.5795  0.1189 -0.0891
  157SOL     OW  625   1.446   1.163   0.098  0.0593  0.2303 -0.1665
  157SOL    HW1  626   1.504   1.090   0.144 -0.1880 -0.7325  2.3320
  157SOL    HW2  627   1.508   1.241   0.092  1.6619  0.6747 -2.2838
  157SOL     MW  628   1.462   1.164   0.103  0.2382  0.1619 -0.1162
  158SOL     OW  629   0.546   1.659   2.207 -0.0934  0.0558  0.2908
  158SOL    HW1  630   0.534   1.746   2.169 -1.9750 -1.8831 -0.6386
  158SOL    HW2  631   0.475   1.637   2.261 -0.2842 -0.2189  0.0822
  158SOL     MW  632   0.535   1.668   2.209 -0.3668 -0.2363  0.1406
  159SOL     OW  633   1.278   1.676   0.408  0.0225 -0.1511 -0.2449
  159SOL    HW1  634   1.227   1.608   0.360  1.0939 -1.0660  0.4577
  159SOL    HW2  635   1.207   1.716   0.458 -0.8899  0.9301  0.1668
  159SOL     MW  636   1.262   1.672   0.409  0.0435 -0.1292 -0.0979
  160SOL     OW  637   0.558   1.156   1.615 -0.0397 -0.9027  0.7242
  160SOL    HW1  638   0.539   1.068   1.647 -0.1598  0.8867  1.3803
  160SOL    HW2  639   0.636   1.177   1.661  0.5440  2.2048  0.9559
  160SOL     MW  640   0.566   1.147   1.625  0.0215 -0.2566  0.8413
  161SOL     OW  641   0.472   2.219   2.570  0.1556  0.6677 -0.2455
  161SOL    HW1  642   0.378   2.199   2.560  0.9258  3.1444  2.7329
  161SOL    HW2  643   0.517   2.181   2.497  1.2002 -0.3801 -3.1497
  161SOL     MW  644   0.466   2.211   2.559  0.3950  0.8562 -0.2357
  162SOL     OW  645   1.064   1.772   1.846 -0.1817 -0.6291 -0.0100
  162SOL    HW1  646   1.075   1.853   1.899 -2.8782 -1.8422  0.0033
  162SOL    HW2  647   0.972   1.748   1.864  1.7739  1.8798  1.4985
  162SOL     MW  648   1.054   1.780   1.855 -0.2795 -0.4581  0.1908
  163SOL     OW  649   2.164   3.092   0.936 -0.4035  0.0128 -0.0568
  163SOL    HW1  650   2.164   3.174   0.889 -1.6833 -0.1374 -0.6288
  163SOL    HW2  651   2.087   3.043   0.931  1.8974 -0.6450  0.2579
  163SOL     MW  652   2.154   3.097   0.929 -0.2688 -0.0938 -0.0907
  164SOL     OW  653   0.358   0.187   0.872 -0.1034 -0.4605 -0.3816
  164SOL    HW1  654   0.276   0.202   0.914 -1.2474  1.1713 -2.7347
  164SOL    HW2  655   0.347   0.114   0.813  1.3778  1.8063 -0.1989
  164SOL     MW  656   0.346   0.179   0.870 -0.0589  0.0539 -0.6680
  165SOL     OW  657   1.340   1.266   0.327 -0.0924  0.3761  0.0103
  165SOL    HW1  658   1.318   1.183   0.370  0.3122 -1.7163 -1.3508
  165SOL    HW2  659   1.359   1.233   0.236  0.1447 -1.9794  0.6856
  165SOL     MW  660   1.340   1.251   0.321 -0.0077 -0.2108 -0.0802
  166SOL     OW  661   0.544   1.162   1.042 -0.4786  0.2490  0.4196
  166SOL    HW1  662   0.532   1.087   1.099  3.5737  1.6370 -1.3464
  166SOL    HW2  663   0.627   1.131   1.005 -1.0496  0.3691 -0.5893
  166SOL     MW  664   0.554   1.148   1.045 -0.0192  0.4480  0.0535
  167SOL     OW  665   0.784   1.006   0.262  0.0537 -0.2132 -0.0265
  167SOL    HW1  666   0.710   1.061   0.250  4.0081 -1.7539  0.3705
  167SOL    HW2  667   0.850   1.039   0.203  1.9028  4.4743  2.9037
  167SOL     MW  668   0.783   1.018   0.252  0.8194  0.2020  0.4125
  168SOL     OW  669   1.719   1.659   3.029 -0.1529 -0.1460  1.0671
  168SOL    HW1  670   1.665   1.716   2.972  2.9566  0.0544 -3.0959
  168SOL    HW2  671   1.725   1.574   2.987  1.1501 -4.0418  0.0694
  168SOL     MW  672   1.713   1.655   3.016  0.4293 -0.6336  0.3862
  169SOL     OW  673   0.409   0.910   1.367  0.3588  0.6298 -0.4726
  169SOL    HW1  674   0.424   0.903   1.466 -1.0282 -1.7034 -1.4146
  169SOL    HW2  675   0.434   1.002   1.354 -1.6530 -0.1895  1.7800
  169SOL     MW  676   0.414   0.921   1.378 -0.0896  0.2138 -0.2997
  170SOL     OW  677   1.010   1.499   1.500  0.5201 -0.6284  0.0322
  170SOL    HW1  678   0.994   1.593   1.520  1.3125  1.0436  0.8732
  170SOL    HW2  679   1.095   1.485   1.465 -0.4183  2.0325 -0.3647
  170SOL     MW  680   1.019   1.509   1.498  0.5009 -0.0568  0.0908
  171SOL     OW  681   0.549   1.453   0.662 -0.1641 -0.1629 -0.9974
  171SOL    HW1  682   0.535   1.436   0.750  1.4718  1.8688 -0.0895
  171SOL    HW2  683   0.542   1.371   0.609 -0.0668  2.5656 -1.6960
  171SOL     MW  684   0.546   1.440   0.666  0.0646  0.4651 -0.9698
  172SOL     OW  685   0.857   0.331   1.279 -0.0074 -0.4145 -0.1233
  172SOL    HW1  686   0.848   0.341   1.183 -0.9797 -2.2724 -2.5455
  172SOL    HW2  687   0.786   0.386   1.324 -0.2531 -1.8415 -0.1906
  172SOL     MW  688   0.846   0.339   1.273 -0.1681 -0.8479 -0.4518
  173SOL     OW  689   0.455   1.724   0.369 -0.0170 -0.1780 -0.0797
  173SOL    HW1  690   0.484   1.641   0.332 -0.4274 -0.5677  1.3969
  173SOL    HW2  691   0.505   1.756   0.444 -0.4936  4.0414  0.6077
  173SOL     MW  692   0.465   1.717   0.374 -0.1341  0.3272  0.2058
  174SOL     OW  693   1.818   1.002   1.566 -0.3092  0.2234 -0.2304
  174SOL    HW1  694   1.788   0.911   1.582 -1.4083 -0.9855  1.0178
  174SOL    HW2  695   1.797   1.009   1.473  0.8941  0.0614  0.8125
  174SOL     MW  696   1.811   0.991   1.555 -0.2954  0.0425  0.0719
  175SOL     OW  697   0.523   1.479   0.271  0.2247 -0.0694 -0.5552
  175SOL    HW1  698   0.463   1.410   0.231  0.7594  1.1100  1.2249
  175SOL    HW2  699   0.599   1.434   0.306  1.2159 -0.2123 -0.4176
  175SOL     MW  700   0.525   1.464   0.271  0.4260  0.0673 -0.3022
  176SOL     OW  701   0.169   1.461   1.212  0.1665 -0.0268 -0.0272
  176SOL    HW1  702   0.161   1.389   1.149 -2.6769 -0.7044  0.6473
  176SOL    HW2  703   0.087   1.467   1.270 -2.4355  3.5119  1.7206
  176SOL     MW  704   0.157   1.453   1.211 -0.5519  0.3507  0.2924
  177SOL     OW  705   0.616   0.449   1.372  0.2648 -0.3068 -0.1200
  177SOL    HW1  706   0.602   0.504   1.295  2.0454 -0.2541  2.2400
  177SOL    HW2  707   0.582   0.508   1.447 -1.7265  1.8990 -0.3083
  177SOL     MW  708   0.610   0.464   1.372  0.2370 -0.0088  0.1665
  178SOL     OW  709   3.074   0.478   2.946 -0.5790  0.8805  0.2296
  178SOL    HW1  710   3.018   0.491   3.024  0.9268 -2.3502  1.4478
  178SOL    HW2  711   3.022   0.493   2.864 -1.2930  1.3531 -1.1179
  178SOL     MW  712   3.060   0.482   2.945 -0.4745  0.5166  0.2125
  179SOL     OW  713   1.592   1.340   1.361 -0.0517 -0.0370 -0.2414
  179SOL    HW1  714   1.560   1.359   1.453  0.3645 -0.5347  0.1920
  179SOL    HW2  715   1.685   1.372   1.365 -0.1938  0.4100 -0.0033
  179SOL     MW  716   1.600   1.347   1.374 -0.0155 -0.0436 -0.1528
  180SOL     OW  717   3.077   0.190   0.440  0.0101  0.1340  0.0520
  180SOL    HW1  718   3.010   0.189   0.366 -0.4274  2.4866 -0.6730
  180SOL    HW2  719   3.121   0.272   0.414 -1.0435 -0.3085 -1.2794
  180SOL     MW  720   3.074   0.201   0.427 -0.1866  0.3860 -0.2193
  181SOL     OW  721   1.121   1.334   3.086 -0.0820 -0.7512 -0.2145
  181SOL    HW1  722   1.212   1.375   3.109  0.4014 -1.8873 -1.3855
  181SOL    HW2  723   1.150   1.251   3.041  1.4817 -1.6682  1.2602
  181SOL     MW  724   1.137   1.328   3.083  0.1881 -1.0221 -0.1744
  182SOL     OW  725   0.457   0.872   1.655  0.1152  0.2060 -0.1666
  182SOL    HW1  726   0.366   0.835   1.649  0.7627  0.6828 -2.8917
  182SOL    HW2  727   0.500   0.841   1.731 -2.1093  2.7045 -0.4153
  182SOL     MW  728   0.451   0.863   1.664 -0.0929  0.5985 -0.5590
  183SOL     OW  729   1.580   1.504   1.158  0.2798  0.1315 -0.6606
  183SOL    HW1  730   1.569   1.586   1.203 -0.8191 -1.9682  0.6517
  183SOL    HW2  731   1.582   1.440   1.236 -1.0146  0.7818 -2.4124
  183SOL     MW  732   1.579   1.506   1.174 -0.0359 -0.0598 -0.7186
  184SOL     OW  733   0.921   0.631   1.964 -0.2135  0.1472 -0.1483
  184SOL    HW1  734   0.978   0.645   1.891 -2.2680 -1.0228 -0.0610
  184SOL    HW2  735   0.874   0.550   1.951 -0.9663 -0.1017 -0.6461
  184SOL     MW  736   0.923   0.622   1.953 -0.5839 -0.0400 -0.2025
  185SOL     OW  737   1.256   1.028   1.921 -0.4924 -0.1313  0.8576
  185SOL    HW1  738   1.279   0.941   1.962 -0.5746 -2.5449 -0.1231
  185SOL    HW2  739   1.259   1.083   2.005  0.4688  1.4223 -0.8207
  185SOL     MW  740   1.259   1.024   1.937 -0.3764 -0.2448  0.5067
  186SOL     OW  741   0.377   1.687   1.432 -0.1470  0.1642  0.3006
  186SOL    HW1  742   0.409   1.621   1.374  0.6900 -0.3052  0.9773
  186SOL    HW2  743   0.286   1.660   1.453  0.7956 -1.0253 -1.6191
  186SOL     MW  744   0.369   1.675   1.427  0.0878 -0.0546  0.1366
  187SOL     OW  745   1.444   0.703   1.407 -0.0629 -0.0664  0.0197
  187SOL    HW1  746   1.421   0.691   1.498 -0.6969 -1.1815 -0.4621
  187SOL    HW2  747   1.361   0.706   1.363 -0.4621  0.5937  0.1497
  187SOL     MW  748   1.430   0.702   1.414 -0.1992 -0.1264 -0.0268
  188SOL     OW  749   1.901   1.163   0.886 -0.3083  0.3226  0.7207
  188SOL    HW1  750   1.895   1.160   0.988  1.6986 -1.5282  0.5740
  188SOL    HW2  751   1.933   1.074   0.861  0.1333 -0.0797 -0.5078
  188SOL     MW  752   1.905   1.151   0.896  0.0147  0.0253  0.5393
  189SOL     OW  753   0.658   0.827   0.863 -0.2770  0.1087 -0.3234
  189SOL    HW1  754   0.572   0.866   0.853 -0.5741  1.2957  1.8109
  189SOL    HW2  755   0.701   0.890   0.919 -1.6270  1.7022  2.3429
  189SOL     MW  756   0.652   0.841   0.869 -0.4943  0.4756  0.3099
  190SOL     OW  757   1.858   0.266   2.111  0.4471  0.2929  0.8875
  190SOL    HW1  758   1.870   0.216   2.193  0.2073 -1.0985  0.0710
  190SOL    HW2  759   1.940   0.314   2.092  0.9543  0.9187  1.3759
  190SOL     MW  760   1.870   0.266   2.119  0.4824  0.1919  0.8442
  191SOL     OW  761   1.511   0.933   1.237  0.3908  0.1995  0.0461
  191SOL    HW1  762   1.452   0.993   1.290  1.3297 -1.4907  1.9613
  191SOL    HW2  763   1.509   0.855   1.297 -0.5066  0.3775 -0.3798
  191SOL     MW  764   1.503   0.931   1.252  0.3963 -0.0000  0.2426
  192SOL     OW  765   0.608   2.098   2.802  0.0709  0.3218 -0.1469
  192SOL    HW1  766   0.536   2.132   2.746  0.6526 -0.6845 -0.9666
  192SOL    HW2  767   0.597   2.004   2.816 -1.3179 -1.9673  1.2950
  192SOL     MW  768   0.597   2.090   2.797 -0.0356 -0.1130 -0.0648
  193SOL     OW  769   0.996   1.574   0.754  0.1786  0.1306 -0.7871
  193SOL    HW1  770   0.952   1.581   0.839 -2.9725  0.2930  2.7471
  193SOL    HW2  771   0.925   1.530   0.702 -0.2848 -0.1669  0.5951
  193SOL     MW  772   0.981   1.569   0.759 -0.2983  0.1128 -0.1385
  194SOL     OW  773   0.510   1.421   0.948  0.4028  0.5344 -0.1817
  194SOL    HW1  774   0.489   1.337   0.988 -0.5114 -0.2258  0.2305
  194SOL    HW2  775   0.423   1.452   0.909 -0.2648  2.2350  2.2663
  194SOL     MW  776   0.496   1.414   0.948  0.1941  0.6585  0.1956
  195SOL     OW  777   1.281   1.144   2.981  0.6583  0.4363  0.2284
  195SOL    HW1  778   1.349   1.152   3.053 -0.3133 -0.3350 -0.6443
  195SOL    HW2  779   1.232   1.057   2.991 -1.8618 -2.4469  0.6105
  195SOL     MW  780   1.284   1.134   2.991  0.1976 -0.0459  0.1637
  196SOL     OW  781   2.197   1.008   0.578  0.1684 -0.5139  0.0189
  196SOL    HW1  782   2.149   0.983   0.494  1.2074  1.5479 -3.1581
  196SOL    HW2  783   2.193   1.103   0.573 -0.2396  0.5190 -0.8529
  196SOL     MW  784   2.190   1.017   0.566  0.2516 -0.1056 -0.5153
  197SOL     OW  785   0.683   1.228   2.077 -0.7499 -0.2202  0.7439
  197SOL    HW1  786   0.675   1.133   2.072  0.9001  1.7571 -0.4288
  197SOL    HW2  787   0.635   1.254   2.001 -0.2089 -0.2876 -3.1394
  197SOL     MW  788   0.675   1.219   2.066 -0.4608  0.0318  0.0768
  198SOL     OW  789   2.958   1.370   1.112 -0.4866  0.0028 -0.4416
  198SOL    HW1  790   2.912   1.457   1.096  0.4335  4.0988  0.7138
  198SOL    HW2  791   2.910   1.301   1.065  0.9595  2.6370 -1.1884
  198SOL     MW  792   2.945   1.372   1.104 -0.1744  0.8908 -0.3877
  199SOL     OW  793   0.535   1.372   1.894  0.3738 -0.0014  0.2300
  199SOL    HW1  794   0.457   1.315   1.881  1.8248  1.6692 -0.5980
  199SOL    HW2  795   0.552   1.413   1.814  1.4368  2.8336  2.7216
  199SOL     MW  796   0.527   1.370   1.881  0.7055  0.5930  0.4495
  200SOL     OW  797   1.868   3.035   1.304  0.1330 -0.6434  0.1207
  200SOL    HW1  798   1.862   2.987   1.218  0.4197  0.6590  0.4315
  200SOL    HW2  799   1.785   3.078   1.323  2.9850 -2.3094  2.7219
  200SOL     MW  800   1.857   3.035   1.295  0.5471 -0.6913  0.5049
  201SOL     OW  801   1.010   0.196   0.848  0.4412 -0.1750 -0.3148
  201SOL    HW1  802   0.980   0.139   0.771 -0.9426 -0.1171 -2.0617
  201SOL    HW2  803   1.089   0.246   0.819 -0.4773 -1.8613  0.4050
  201SOL     MW  804   1.016   0.195   0.834  0.1374 -0.3898 -0.4503
  202SOL     OW  805   1.516   1.554   0.891 -0.1875  0.0580 -0.3611
  202SOL    HW1  806   1.532   1.463   0.858 -0.6229 -1.8150 -0.0439
  202SOL    HW2  807   1.562   1.544   0.974  2.2167  0.0058 -1.9845
  202SOL     MW  808   1.524   1.541   0.897  0.0723 -0.1960 -0.5334
  203SOL     OW  809   3.065   0.472   1.275  0.6340 -0.6137  0.1669
  203SOL    HW1  810   3.130   0.448   1.217 -1.4272 -0.0593 -1.6605
  203SOL    HW2  811   3.109   0.514   1.351 -1.7343  0.0066  0.2146
  203SOL     MW  812   3.080   0.474   1.278  0.0495 -0.4587 -0.0679
  204SOL     OW  813   1.058   1.744   0.553 -0.2043 -0.1173 -0.3216
  204SOL    HW1  814   1.044   1.670   0.618 -2.3216  2.1353 -3.1813
  204SOL    HW2  815   0.966   1.762   0.522 -0.3660 -3.9252 -2.5859
  204SOL     MW  816   1.044   1.737   0.558 -0.5050 -0.3225 -0.9977
  205SOL     OW  817   1.359   0.058   1.368 -0.1397 -0.3156  0.1292
  205SOL    HW1  818   1.386   0.024   1.285  2.8481 -1.1549  1.7171
  205SOL    HW2  819   1.354   0.155   1.367 -2.4423  1.0145  0.6902
  205SOL     MW  820   1.362   0.067   1.357 -0.0493 -0.2508  0.4128
  206SOL     OW  821   0.411   3.009   1.442  0.3072 -0.4308  0.0756
  206SOL    HW1  822   0.416   2.985   1.344  2.3025  1.6223 -0.6398
  206SOL    HW2  823   0.490   2.966   1.469  1.9141 -0.3052 -1.7714
  206SOL     MW  824   0.422   3.000   1.433  0.7825 -0.1433 -0.2624
  207SOL     OW  825   0.919   1.524   0.194 -0.1215 -0.0891  0.3522
  207SOL    HW1  826   0.903   1.619   0.210  2.6542  1.9433  0.5681
  207SOL    HW2  827   1.011   1.505   0.209  1.8430  0.0773 -2.6283
  207SOL     MW  828   0.929   1.534   0.198  0.5039  0.2010 -0.0126
  208SOL     OW  829   0.694   1.660   1.362 -0.2440  0.1716  0.3598
  208SOL    HW1  830   0.753   1.688   1.432  0.1997 -0.1157 -0.1157
  208SOL    HW2  831   0.708   1.568   1.361 -0.5440  2.1388 -1.1186
  208SOL     MW  832   0.703   1.652   1.371 -0.2251  0.3933  0.1020
  209SOL     OW  833   1.546   0.513   3.010 -0.1605 -0.2858  0.4144
  209SOL    HW1  834   1.584   0.597   2.987 -0.3376  1.2269 -1.6039
  209SOL    HW2  835   1.610   0.455   2.981  0.5323  1.6521  2.3350
  209SOL     MW  836   1.560   0.516   3.003 -0.0925  0.1695  0.4015
  210SOL     OW  837   1.582   1.309   0.798 -0.5319 -0.2790  0.3443
  210SOL    HW1  838   1.682   1.318   0.799  0.6638 -2.5401  2.1696
  210SOL    HW2  839   1.558   1.318   0.705 -0.3211 -0.2276  1.1241
  210SOL     MW  840   1.592   1.311   0.786 -0.3463 -0.5705  0.6880
  211SOL     OW  841   1.647   0.358   0.960  0.0912 -0.3533 -0.1778
  211SOL    HW1  842   1.630   0.367   0.862  2.6447 -2.2550 -2.1541
  211SOL    HW2  843   1.741   0.360   0.966 -0.1750 -1.4308  0.6823
  211SOL     MW  844   1.657   0.359   0.948  0.3930 -0.7464 -0.3251
  212SOL     OW  845   0.243   1.034   0.117  0.3654 -0.5602  0.0782
  212SOL    HW1  846   0.202   0.994   0.197 -0.0917  2.8721  1.0123
  212SOL    HW2  847   0.274   0.963   0.065 -1.0890 -1.5502  0.4914
  212SOL     MW  848   0.242   1.020   0.120  0.1132 -0.2379  0.2559
  213SOL     OW  849   0.525   1.731   3.033  0.2256 -0.6146 -0.2846
  213SOL    HW1  850   0.553   1.807   3.089  1.2312  2.5692  0.9035
  213SOL    HW2  851   0.566   1.741   2.946  0.3254  2.3194  0.6371
  213SOL     MW  852   0.534   1.742   3.029  0.3714  0.1925 -0.0062
  214SOL     OW  853   0.569   0.285   2.241  0.8288  0.3062 -0.5881
  214SOL    HW1  854   0.508   0.362   2.229 -0.2013 -1.5283 -1.3909
  214SOL    HW2  855   0.662   0.318   2.242  0.6988  1.2376  1.6299
  214SOL     MW  856   0.573   0.300   2.239  0.6758  0.1871 -0.4014
  215SOL     OW  857   0.525   0.704   2.660  0.0509  0.2183  0.5227
  215SOL    HW1  858   0.526   0.679   2.570 -0.7841  2.8735  1.0936
  215SOL    HW2  859   0.459   0.641   2.686 -0.6093  2.3679 -4.4394
  215SOL     MW  860   0.517   0.693   2.651 -0.1464  0.8523 -0.0567
  216SOL     OW  861   2.894   3.059   2.642 -0.0013 -0.3214  0.5460
  216SOL    HW1  862   2.893   3.050   2.742  1.6641  0.7679 -2.4473
  216SOL    HW2  863   2.923   3.150   2.621  0.5911 -2.6472  2.6300
  216SOL     MW  864   2.898   3.070   2.653  0.2966 -0.4846  0.4261
  217SOL     OW  865   0.960   1.093   0.063  0.4716 -0.5644 -0.0520
  217SOL    HW1  866   1.013   1.017   0.024  0.1705 -0.4406  0.2819
  217SOL    HW2  867   1.009   1.176   0.055  2.0139  0.9659  1.9927
  217SOL     MW  868   0.974   1.094   0.057  0.6354 -0.3462  0.2618
  218SOL     OW  869   0.966   1.319   2.533  0.3815 -0.3681  0.4965
  218SOL    HW1  870   0.976   1.231   2.565 -1.7284 -0.3394  1.5462
  218SOL    HW2  871   1.045   1.370   2.535  1.1757 -2.1746  0.7848
  218SOL     MW  872   0.978   1.314   2.537  0.2079 -0.6027  0.6730
  219SOL     OW  873   1.118   0.438   2.641  0.5533 -0.8187 -0.1517
  219SOL    HW1  874   1.189   0.490   2.676  1.7591  0.1554  1.8829
  219SOL    HW2  875   1.070   0.507   2.604 -1.0971 -0.5940  0.0162
  219SOL     MW  876   1.121   0.454   2.640  0.4946 -0.6605  0.1389
  220SOL     OW  877   1.748   0.484   2.232 -0.2487 -0.5650 -0.2695
  220SOL    HW1  878   1.665   0.495   2.174 -0.6269 -0.0889 -4.0814
  220SOL    HW2  879   1.807   0.417   2.183  0.8939 -2.0735  0.8707
  220SOL     MW  880   1.745   0.477   2.218 -0.1478 -0.7012 -0.6220
  221SOL     OW  881   0.404   1.357   2.939  0.3571 -0.6282 -0.1413
  221SOL    HW1  882   0.444   1.272   2.919 -1.2842  2.9330 -0.4425
  221SOL    HW2  883   0.419   1.413   2.862 -2.1430 -1.0295  1.1099
  221SOL     MW  884   0.411   1.353   2.926 -0.1893 -0.2113 -0.0159
  222SOL     OW  885   0.372   0.932   2.655 -0.4098 -0.1832  0.3496
  222SOL    HW1  886   0.333   0.962   2.569 -1.3340 -0.5365  2.4172
  222SOL    HW2  887   0.422   0.851   2.644  0.3663 -2.5376 -0.4476
  222SOL     MW  888   0.373   0.925   2.643 -0.4293 -0.5405  0.5172
  223SOL     OW  889   0.007   2.036   2.538  0.0966 -0.2008 -0.7400
  223SOL    HW1  890   0.072   1.989   2.592 -0.1696  1.9287  0.5879
  223SOL    HW2  891   0.056   2.121   2.521  0.2017  0.7165  1.8880
  223SOL     MW  892   0.022   2.041   2.543  0.0754  0.2012 -0.2181
  224SOL     OW  893   1.503   0.810   2.636 -0.2668 -0.3375  0.2571
  224SOL    HW1  894   1.502   0.879   2.702 -3.3210 -1.5914 -1.0057
  224SOL    HW2  895   1.463   0.862   2.561 -0.7796  1.8817 -1.8474
  224SOL     MW  896   1.497   0.826   2.635 -0.7374 -0.2102 -0.1872
  225SOL     OW  897   2.911   1.444   2.310 -0.7271  0.1752 -0.2398
  225SOL    HW1  898   2.950   1.513   2.256  0.2272 -2.4658  2.2253
  225SOL    HW2  899   2.843   1.498   2.357 -3.1452  0.7656  1.7226
  225SOL     MW  900   2.907   1.461   2.309 -0.9202 -0.0954  0.3444
  226SOL     OW  901   0.480   1.463   2.701  0.0476  0.2711  0.2322
  226SOL    HW1  902   0.576   1.478   2.673 -2.7538  3.4280 -2.8941
  226SOL    HW2  903   0.446   1.553   2.706  1.1320  0.0225 -1.8650
  226SOL     MW  904   0.488   1.477   2.698 -0.1790  0.6549 -0.4570
  227SOL     OW  905   0.481   1.114   2.850 -0.0057  0.1673 -0.1955
  227SOL    HW1  906   0.568   1.123   2.809  1.3935 -1.9440 -3.3010
  227SOL    HW2  907   0.430   1.069   2.780 -0.3122  0.3563 -0.7332
  227SOL     MW  908   0.486   1.109   2.835  0.1385 -0.0863 -0.6762
  228SOL     OW  909   0.702   0.960   2.046  0.2265 -0.1591 -0.5198
  228SOL    HW1  910   0.798   0.979   2.040 -1.1058  3.0412  1.7529
  228SOL    HW2  911   0.692   0.908   2.134 -0.3830 -0.6932  2.2038
  228SOL     MW  912   0.713   0.955   2.057 -0.0297  0.1927  0.1394
  229SOL     OW  913   0.183   0.613   0.031 -0.2934  0.4259 -0.1447
  229SOL    HW1  914   0.139   0.562  -0.037  1.9235  0.6050  1.3843
  229SOL    HW2  915   0.203   0.552   0.103 -0.0485 -0.9650 -1.7777
  229SOL     MW  916   0.180   0.598   0.032  0.0314  0.2660 -0.1585
  230SOL     OW  917   1.718   1.353   2.028 -0.8769 -0.1713  0.2586
  230SOL    HW1  918   1.665   1.334   2.105 -1.6527  1.4478  0.1894
  230SOL    HW2  919   1.771   1.274   2.009 -0.9668  0.2232 -0.1362
  230SOL     MW  920   1.718   1.340   2.036 -0.9911  0.0944  0.1974
  231SOL     OW  921   2.745   1.254   2.192 -0.1974 -0.1413 -0.2131
  231SOL    HW1  922   2.805   1.314   2.228 -0.3498 -1.9523 -1.4702
  231SOL    HW2  923   2.719   1.302   2.123  1.4122  0.0703  1.1002
  231SOL     MW  924   2.750   1.268   2.188 -0.0052 -0.3523 -0.2056
  232SOL     OW  925   2.297   0.827   2.026 -0.0964  0.2840 -0.4819
  232SOL    HW1  926   2.239   0.854   1.960 -0.2161 -1.6491  0.5560
  232SOL    HW2  927   2.242   0.840   2.101  2.8614  1.7686 -1.8606
  232SOL     MW  928   2.282   0.832   2.027  0.2780  0.2248 -0.5268
  233SOL     OW  929   2.063   0.452   2.018 -0.5517 -0.2972  0.4926
  233SOL    HW1  930   2.107   0.366   2.004  0.9956 -1.1435 -0.5429
  233SOL    HW2  931   2.098   0.492   2.097 -1.0100 -2.7501  1.5264
  233SOL     MW  932   2.074   0.446   2.026 -0.4080 -0.7325  0.4924
  234SOL     OW  933   0.289   1.072   2.430  0.2946  0.0190 -0.2042
  234SOL    HW1  934   0.192   1.065   2.409 -0.4052 -1.3645 -2.1578
  234SOL    HW2  935   0.312   1.163   2.453 -1.9289 -0.6068 -0.3022
  234SOL     MW  936   0.279   1.083   2.430 -0.0911 -0.2461 -0.4749
  235SOL     OW  937   1.107   3.066   2.697  0.0034  0.0345  0.0511
  235SOL    HW1  938   1.111   2.991   2.753  0.5471 -2.1145 -1.4261
  235SOL    HW2  939   1.097   3.133   2.764 -0.5111  0.5156 -1.8590
  235SOL     MW  940   1.106   3.065   2.713  0.0072 -0.1856 -0.3958
  236SOL     OW  941   2.916   0.571   0.036  0.0663  0.3033  0.7544
  236SOL    HW1  942   2.817   0.593   0.039 -0.3084  1.4235 -1.7599
  236SOL    HW2  943   2.966   0.647   0.056  1.3250 -2.0626  1.4576
  236SOL     MW  944   2.910   0.584   0.039  0.1830  0.1390  0.5155
  237SOL     OW  945   2.001   1.103   2.173 -0.1492  0.0971  0.0050
  237SOL    HW1  946   1.966   1.051   2.106  2.1667  0.8485  1.4170
  237SOL    HW2  947   2.046   1.047   2.237 -1.3463 -0.2574  0.0090
  237SOL     MW  948   2.003   1.089   2.173 -0.0016  0.1495  0.1918
  238SOL     OW  949   1.046   1.812   2.973  0.0009  0.2615 -0.2737
  238SOL    HW1  950   1.010   1.726   2.942 -1.6083 -0.0511 -0.4358
  238SOL    HW2  951   1.136   1.803   2.999 -4.1485 -1.6896 -0.2110
  238SOL     MW  952   1.053   1.800   2.972 -0.7589 -0.0372 -0.2868
  239SOL     OW  953   1.252   1.356   2.372  0.4644 -0.1597  0.2145
  239SOL    HW1  954   1.246   1.426   2.438 -1.9400 -0.4204  3.1187
  239SOL    HW2  955   1.268   1.274   2.426  1.6127  0.0273  0.0978
  239SOL     MW  956   1.253   1.355   2.388  0.2987 -0.1694  0.5823
  240SOL     OW  957   0.706   0.822   2.283 -0.6345  0.0545 -0.0925
  240SOL    HW1  958   0.704   0.874   2.360 -0.8442 -3.2707  0.8569
  240SOL    HW2  959   0.791   0.778   2.285 -0.1587  1.1996  0.2051
  240SOL     MW  960   0.717   0.823   2.293 -0.5994 -0.2332  0.0720
  241SOL     OW  961   0.638   0.379   0.007  0.1594  0.1822  0.4206
  241SOL    HW1  962   0.646   0.458   0.061 -0.7023 -1.7942  2.0558
  241SOL    HW2  963   0.551   0.381  -0.037 -1.3268 -0.5758 -1.7871
  241SOL     MW  964   0.627   0.390   0.009 -0.1504 -0.1786  0.3451
  242SOL     OW  965   1.513   1.679   2.342  0.2480 -0.0303 -0.1171
  242SOL    HW1  966   1.475   1.765   2.358 -1.1009  1.5589  0.1813
  242SOL    HW2  967   1.458   1.643   2.274 -3.4691  0.0117  1.2381
  242SOL     MW  968   1.500   1.686   2.335 -0.4204  0.1850  0.1011
  243SOL     OW  969   1.031   0.236   2.487  0.3316 -0.4622  0.3289
  243SOL    HW1  970   1.114   0.215   2.430  0.2306  0.7377 -2.2735
  243SOL    HW2  971   1.069   0.299   2.552  0.7971  1.7309 -0.1356
  243SOL     MW  972   1.047   0.241   2.488  0.3797 -0.0145 -0.0757
  244SOL     OW  973   0.280   0.786   2.420 -0.2821  0.6153  0.5354
  244SOL    HW1  974   0.302   0.874   2.390 -0.3969 -0.8741 -1.5815
  244SOL    HW2  975   0.354   0.733   2.392  1.0366  0.4744  1.8144
  244SOL     MW  976   0.293   0.791   2.412 -0.1233  0.4002  0.4249
  245SOL     OW  977   1.246   0.226   2.329 -0.7842 -0.1535 -0.1622
  245SOL    HW1  978   1.319   0.165   2.356 -0.6846 -0.3503  2.5112
  245SOL    HW2  979   1.272   0.317   2.351 -1.7324 -3.4980  1.1623
  245SOL     MW  980   1.259   0.230   2.336 -0.8961 -0.6207  0.3653
  246SOL     OW  981   1.214   1.206   2.131  0.5226 -0.0975 -0.1450
  246SOL    HW1  982   1.171   1.127   2.176 -1.3573  2.9745 -2.3360
  246SOL    HW2  983   1.238   1.261   2.200 -1.3778  2.8756  1.7421
  246SOL     MW  984   1.211   1.203   2.146  0.0238  0.7001 -0.1851
  247SOL     OW  985   0.745   0.559   0.193  0.0369 -0.0218  0.1263
  247SOL    HW1  986   0.692   0.630   0.170  1.4315  1.0951  0.4562
  247SOL    HW2  987   0.831   0.589   0.154 -0.3442  3.8499  0.7319
  247SOL     MW  988   0.749   0.573   0.185  0.1706  0.6364  0.2497
  248SOL     OW  989   0.373   1.326   2.477 -1.2256  0.6445  0.3383
  248SOL    HW1  990   0.404   1.351   2.390  0.0439  0.8698  0.7091
  248SOL    HW2  991   0.445   1.357   2.539  0.5748 -0.0408  0.0934
  248SOL     MW  992   0.387   1.333   2.474 -0.8205  0.5838  0.3549
  249SOL     OW  993   0.182   1.904   2.737  0.0727  0.6140 -0.2876
  249SOL    HW1  994   0.133   1.841   2.688  0.2603 -0.6162 -1.1801
  249SOL    HW2  995   0.195   1.862   2.828  1.0863 -0.7051  2.4765
  249SOL     MW  996   0.178   1.890   2.743  0.2312  0.2776 -0.0406
  250SOL     OW  997   2.179   0.893   2.297 -0.1314 -0.4820 -0.4535
  250SOL    HW1  998   2.211   0.798   2.319 -1.4268  0.1040 -0.3333
  250SOL    HW2  999   2.257   0.939   2.323 -0.6883 -2.7951 -0.2312
  250SOL     MW 1000   2.194   0.886   2.303 -0.3758 -0.7099 -0.4083
  251SOL     OW 1001   0.156   0.878   1.977 -0.1351 -0.0600  0.3438
  251SOL    HW1 1002   0.094   0.803   1.990 -2.5619 -2.0047  0.1100
  251SOL    HW2 1003   0.188   0.852   1.887 -0.2511  0.7459 -0.5459
  251SOL     MW 1004   0.152   0.865   1.967 -0.4706 -0.2103  0.1956
  252SOL     OW 1005   1.716   0.991   2.838 -0.3197  0.3472 -0.1429
  252SOL    HW1 1006   1.735   1.039   2.922  1.2603  1.3247  1.8003
  252SOL    HW2 1007   1.791   1.012   2.780  0.9719  0.7315  0.2233
  252SOL     MW 1008   1.728   1.000   2.842  0.0592  0.5269  0.1618
  253SOL     OW 1009   1.250   1.784   2.552 -0.1987  0.1749 -0.0803
  253SOL    HW1 1010   1.269   1.786   2.458  2.1616 -0.9690 -0.8091
  253SOL    HW2 1011   1.151   1.799   2.550 -0.7812 -0.6032  4.6193
  253SOL     MW 1012   1.239   1.786   2.539  0.0359 -0.0787  0.4436
  254SOL     OW 1013   1.065   1.000   2.256  0.1303  0.0006 -0.0899
  254SOL    HW1 1014   1.047   0.909   2.233  1.2639  0.4533 -2.3988
  254SOL    HW2 1015   0.984   1.042   2.254  1.0080 -0.9868 -2.8199
  254SOL     MW 1016   1.052   0.994   2.253  0.3957 -0.0700 -0.7547
  255SOL     OW 1017   0.755   2.584   2.147  0.1688  0.2850 -0.4435
  255SOL    HW1 1018   0.700   2.522   2.191  0.3421  1.0732  1.5196
  255SOL    HW2 1019   0.837   2.575   2.192  1.7334 -0.7862 -0.1384
  255SOL     MW 1020   0.758   2.575   2.159  0.3981  0.2477 -0.1443
  256SOL     OW 1021   1.308   2.666   2.939  0.4343 -0.5643  0.6559
  256SOL    HW1 1022   1.339   2.597   2.873  0.4079 -2.1033 -0.2526
  256SOL    HW2 1023   1.366   2.740   2.927 -1.9196  0.7257  1.8840
  256SOL     MW 1024   1.320   2.667   2.929  0.1202 -0.5971  0.6981
  257SOL     OW 1025   0.117   1.912   0.062 -0.2796 -0.5946 -0.0581
  257SOL    HW1 1026   0.130   1.890   0.156  1.0138  0.9049  2.3372
  257SOL    HW2 1027   0.157   1.846   0.005 -0.5031  0.6068 -0.0726
  257SOL     MW 1028   0.124   1.900   0.067 -0.1384 -0.2382  0.2560
  258SOL     OW 1029   0.745   1.020   2.458  0.4242  0.1652 -0.2610
  258SOL    HW1 1030   0.779   1.089   2.391  1.1887  0.3111 -1.6728
  258SOL    HW2 1031   0.692   1.050   2.529  0.3772 -1.6489 -0.2475
  258SOL     MW 1032   0.743   1.033   2.459  0.5189 -0.0549 -0.4455
  259SOL     OW 1033   0.842   0.359   2.370  0.3634 -0.2510 -0.1514
  259SOL    HW1 1034   0.784   0.347   2.441  1.6331  2.9077 -0.8754
  259SOL    HW2 1035   0.917   0.305   2.404 -1.8842 -2.9150  1.0469
  259SOL     MW 1036   0.844   0.350   2.384  0.2344 -0.1857 -0.0888
  260SOL     OW 1037   0.482   0.133   1.578  0.0765  0.3100 -0.5151
  260SOL    HW1 1038   0.464   0.065   1.508  0.4029 -1.1532 -0.3848
  260SOL    HW2 1039   0.545   0.188   1.545  0.3730  0.6343  0.2325
  260SOL     MW 1040   0.488   0.131   1.564  0.1587  0.1597 -0.3993
  261SOL     OW 1041   1.251   0.766   2.012 -1.4225 -0.0724 -0.0489
  261SOL    HW1 1042   1.269   0.757   2.106 -3.5136 -2.4069  0.0035
  261SOL    HW2 1043   1.222   0.684   1.983  0.5477  2.0413 -0.2485
  261SOL     MW 1044   1.249   0.754   2.021 -1.4385 -0.1016 -0.0683
  262SOL     OW 1045   1.038   0.338   0.171  0.2870  0.1140 -0.2511
  262SOL    HW1 1046   1.132   0.343   0.144 -0.1139  1.4324  2.0480
  262SOL    HW2 1047   0.999   0.267   0.117  1.6388 -1.8178 -1.5132
  262SOL     MW 1048   1.045   0.329   0.160  0.4125  0.0330 -0.1143
  263SOL     OW 1049   0.405   3.092   2.499 -0.0298 -0.5043  0.2099
  263SOL    HW1 1050   0.340   3.158   2.472 -1.6569 -0.0832 -0.4725
  263SOL    HW2 1051   0.472   3.108   2.428 -0.3445  2.5680 -1.2664
  263SOL     MW 1052   0.406   3.103   2.486 -0.2860 -0.0434 -0.0749
  264SOL     OW 1053   1.471   1.340   1.883 -0.1307  0.1485 -0.1144
  264SOL    HW1 1054   1.420   1.339   1.965  1.2389  1.8272  1.5618
  264SOL    HW2 1055   1.560   1.335   1.918  2.1863 -1.0892  0.6792
  264SOL     MW 1056   1.476   1.339   1.899  0.3557  0.2067  0.2114
  265SOL     OW 1057   0.700   2.802   2.289  0.3832 -0.0163 -0.0595
  265SOL    HW1 1058   0.702   2.724   2.227  1.3580  1.0449 -1.7896
  265SOL    HW2 1059   0.712   2.760   2.374 -0.9896  0.4380  0.9480
  265SOL     MW 1060   0.702   2.786   2.292  0.3307  0.1837 -0.1548
  266SOL     OW 1061   0.973   0.726   2.221  0.6573  0.4563  0.1686
  266SOL    HW1 1062   0.959   0.681   2.132 -0.9002 -1.8543  2.4629
  266SOL    HW2 1063   1.062   0.693   2.247 -0.6855 -0.8464  2.3036
  266SOL     MW 1064   0.983   0.715   2.213  0.2747 -0.0205  0.7530
  267SOL     OW 1065   1.438   1.771   2.788  0.1923  0.1894 -0.0646
  267SOL    HW1 1066   1.451   1.690   2.742 -1.1480  2.1321 -1.2037
  267SOL    HW2 1067   1.384   1.829   2.727 -0.7992  1.0021  0.2722
  267SOL     MW 1068   1.433   1.768   2.774 -0.1153  0.5530 -0.1705
  268SOL     OW 1069   0.186   0.819   1.694 -0.0010 -0.2755 -1.0490
  268SOL    HW1 1070   0.125   0.844   1.627 -1.6531 -1.0749  1.2934
  268SOL    HW2 1071   0.169   0.728   1.710 -1.7862 -0.5805 -1.3267
  268SOL     MW 1072   0.176   0.810   1.687 -0.4545 -0.4212 -0.7766
  269SOL     OW 1073   1.418   1.939   2.368 -0.5612 -0.1295  0.3748
  269SOL    HW1 1074   1.495   2.000   2.375  2.4067 -2.1576  1.0216
  269SOL    HW2 1075   1.349   1.973   2.420  1.8715  0.4202 -1.0929
  269SOL     MW 1076   1.419   1.952   2.376  0.1514 -0.3245  0.2665
  270SOL     OW 1077   1.108   0.411   1.636  0.0628  0.3926  0.2260
  270SOL    HW1 1078   1.064   0.331   1.661 -1.2536 -1.0002  1.4556
  270SOL    HW2 1079   1.199   0.379   1.636  1.8982  1.3209  1.8420
  270SOL     MW 1080   1.114   0.396   1.639  0.1313  0.3313  0.6015
  271SOL     OW 1081   0.890   0.010   2.544 -0.1377  0.2624  0.0212
  271SOL    HW1 1082   0.957  -0.034   2.603  1.6511 -0.5131 -0.2250
  271SOL    HW2 1083   0.944   0.095   2.524  0.9216  1.1396 -1.0515
  271SOL     MW 1084   0.906   0.015   2.549  0.2381  0.2758 -0.1528
  272SOL     OW 1085   1.490   2.879   2.830  0.3066 -0.3677 -0.0336
  272SOL    HW1 1086   1.458   2.928   2.752 -0.3372  0.2309  1.3166
  272SOL    HW2 1087   1.546   2.944   2.867  0.2992  0.8216  1.0273
  272SOL     MW 1088   1.493   2.894   2.825  0.2207 -0.1318  0.2846
  273SOL     OW 1089   1.451   0.993   2.817  0.0811 -0.0288 -0.1166
  273SOL    HW1 1090   1.545   1.011   2.832  1.0336  0.4600 -0.9738
  273SOL    HW2 1091   1.404   1.067   2.846  1.7559  1.6812 -1.2319
  273SOL     MW 1092   1.457   1.005   2.823  0.4278  0.2613 -0.3769
  274SOL     OW 1093   1.477   0.731   0.115  0.1249 -0.0707  0.3754
  274SOL    HW1 1094   1.513   0.649   0.151 -1.3478 -0.3912 -1.7273
  274SOL    HW2 1095   1.388   0.715   0.154  3.9681 -1.4617 -2.0338
  274SOL     MW 1096   1.470   0.718   0.125  0.4377 -0.2965 -0.2199
  275SOL     OW 1097   1.725   0.556   1.764  0.0515 -0.3555 -0.1488
  275SOL    HW1 1098   1.798   0.613   1.791  1.4797 -0.9191 -2.5519
  275SOL    HW2 1099   1.757   0.468   1.752 -0.0584 -1.9456 -1.9009
  275SOL     MW 1100   1.739   0.552   1.766  0.2254 -0.6397 -0.6971
  276SOL     OW 1101   0.304   1.219   1.889  0.3177 -0.0494  0.6120
  276SOL    HW1 1102   0.341   1.128   1.908  3.0210 -0.0464 -1.1399
  276SOL    HW2 1103   0.227   1.225   1.943 -1.3883  0.1517 -0.2296
  276SOL     MW 1104   0.299   1.208   1.899  0.4492 -0.0225  0.2698
  277SOL     OW 1105   1.885   1.288   2.422 -0.2098 -0.4996 -0.6759
  277SOL    HW1 1106   1.934   1.351   2.481  1.8857 -0.5486  3.1027
  277SOL    HW2 1107   1.911   1.301   2.333  0.4408  1.8466  0.8160
  277SOL     MW 1108   1.895   1.298   2.418  0.1525 -0.1965  0.0195
  278SOL     OW 1109   1.448   0.618   1.730 -0.2344 -0.2127  0.1729
  278SOL    HW1 1110   1.403   0.564   1.801  2.0859  0.1227 -0.8647
  278SOL    HW2 1111   1.539   0.614   1.761  0.6165 -3.0963  1.2261
  278SOL     MW 1112   1.454   0.611   1.744  0.1840 -0.5489  0.1749
  279SOL     OW 1113   0.552   0.026   2.282 -0.0497  0.1915 -0.2902
  279SOL    HW1 1114   0.636  -0.011   2.285  1.7237  2.9277 -1.0817
  279SOL    HW2 1115   0.567   0.117   2.263  0.6447  0.1680 -1.1100
  279SOL     MW 1116   0.565   0.033   2.280  0.2759  0.5494 -0.5028
  280SOL     OW 1117   1.448   0.966   2.120  0.2657 -0.3280  0.2725
  280SOL    HW1 1118   1.528   0.920   2.085  2.7271 -0.7323  1.7007
  280SOL    HW2 1119   1.449   0.955   2.216  1.7016  1.3251 -0.2566
  280SOL     MW 1120   1.459   0.959   2.128  0.7799 -0.1632  0.3911
  281SOL     OW 1121   1.290   1.322   2.782 -0.0110  0.8342  0.1230
  281SOL    HW1 1122   1.384   1.321   2.772 -3.5983  1.3575 -2.0856
  281SOL    HW2 1123   1.278   1.256   2.852  0.0452 -1.3602 -0.5558
  281SOL     MW 1124   1.300   1.313   2.790 -0.4769  0.6137 -0.2580
  282SOL     OW 1125   1.106   1.287   1.685 -0.3017  0.3423  0.8833
  282SOL    HW1 1126   1.076   1.374   1.637 -2.2033  0.4293  0.3224
  282SOL    HW2 1127   1.084   1.290   1.778  0.0097  2.8018  0.4422
  282SOL     MW 1128   1.099   1.299   1.691 -0.5115  0.6783  0.7511
  283SOL     OW 1129   0.773   1.203   2.994  0.7944 -0.0697  0.1770
  283SOL    HW1 1130   0.830   1.161   3.060  2.5453 -0.3831  3.2236
  283SOL    HW2 1131   0.771   1.301   3.016 -0.0576  1.8731  2.2352
  283SOL     MW 1132   0.780   1.211   3.006  0.9130  0.1453  0.8505
  284SOL     OW 1133   0.509   0.643   2.389  0.5233  0.0662 -0.5681
  284SOL    HW1 1134   0.573   0.702   2.343 -1.6276  1.3431  2.6849
  284SOL    HW2 1135   0.472   0.589   2.320 -0.9472  1.7862  1.6927
  284SOL     MW 1136   0.513   0.644   2.373  0.0455  0.4616  0.1594
  285SOL     OW 1137   0.933   0.936   2.820  0.6535  0.2605  0.4774
  285SOL    HW1 1138   0.958   0.950   2.728  2.0082  0.0342  0.7320
  285SOL    HW2 1139   0.878   0.857   2.822 -2.5270 -1.2244 -0.3763
  285SOL     MW 1140   0.929   0.927   2.808  0.4126  0.0347  0.3984
  286SOL     OW 1141   1.178   1.504   2.590 -0.1058 -0.4618 -0.1245
  286SOL    HW1 1142   1.229   1.472   2.664 -1.2649 -0.3887  2.6301
  286SOL    HW2 1143   1.219   1.587   2.581  0.7935 -2.4823 -3.2225
  286SOL     MW 1144   1.190   1.510   2.599 -0.1401 -0.7188 -0.1698
  287SOL     OW 1145   1.096   0.947   0.284  0.1193  0.0471 -0.0416
  287SOL    HW1 1146   1.158   0.989   0.351  2.0778 -0.8074 -0.2130
  287SOL    HW2 1147   1.021   1.007   0.277 -1.4819 -1.7459 -0.0098
  287SOL     MW 1148   1.095   0.961   0.292  0.1665 -0.3022 -0.0600
  288SOL     OW 1149   1.533   0.573   2.104  0.0938 -0.3102 -0.0303
  288SOL    HW1 1150   1.516   0.621   2.187 -1.9865  0.6278  1.0236
  288SOL    HW2 1151   1.585   0.639   2.052 -0.1852 -1.6181  0.4117
  288SOL     MW 1152   1.537   0.588   2.108 -0.2175 -0.3590  0.1671
  289SOL     OW 1153   0.979   1.047   2.568  0.6359  0.0394 -0.0822
  289SOL    HW1 1154   1.030   0.973   2.541  1.1766  0.0507  0.6148
  289SOL    HW2 1155   0.900   1.031   2.514  1.3955  0.9410 -0.1757
  289SOL     MW 1156   0.975   1.035   2.558  0.8074  0.1599 -0.0026
  290SOL     OW 1157   0.822   0.643   1.601 -0.7222  0.1870  0.3379
  290SOL    HW1 1158   0.845   0.611   1.511  0.2130  2.0332  0.0207
  290SOL    HW2 1159   0.904   0.659   1.647 -2.2805 -1.0630  1.4651
  290SOL     MW 1160   0.836   0.641   1.595 -0.8044  0.2656  0.4447
  291SOL     OW 1161   0.215   0.326   0.119 -0.0495  0.8581 -0.2348
  291SOL    HW1 1162   0.275   0.267   0.168  1.1851 -1.7227  0.1970
  291SOL    HW2 1163   0.153   0.277   0.059 -0.0941 -1.5055 -2.6137
  291SOL     MW 1164   0.215   0.311   0.118  0.1075  0.2057 -0.4917
  292SOL     OW 1165   1.013   0.600   0.096  0.0842 -0.2118 -0.1065
  292SOL    HW1 1166   1.073   0.665   0.128  1.1939  1.4485  0.1273
  292SOL    HW2 1167   1.027   0.511   0.138 -0.7099  0.0692  1.1412
  292SOL     MW 1168   1.023   0.597   0.106  0.1258  0.0444  0.0890
  293SOL     OW 1169   0.185   0.124   2.436 -0.0418  0.0232  0.0672
  293SOL    HW1 1170   0.106   0.105   2.386 -0.1289  1.3859 -2.8223
  293SOL    HW2 1171   0.151   0.169   2.516 -0.6291  0.9098 -0.2173
  293SOL     MW 1172   0.170   0.127   2.440 -0.1307  0.3200 -0.3515
  294SOL     OW 1173   1.504   0.647   2.369  0.0962 -0.3129  0.2139
  294SOL    HW1 1174   1.559   0.691   2.426 -1.9569  0.4807 -1.9505
  294SOL    HW2 1175   1.487   0.559   2.402 -4.2126 -3.2000 -1.5511
  294SOL     MW 1176   1.509   0.641   2.381 -0.7432 -0.5891 -0.3046
  295SOL     OW 1177   0.917   0.609   2.525 -0.2196  0.1055  0.0039
  295SOL    HW1 1178   0.889   0.548   2.462 -0.6867 -1.8464  2.2054
  295SOL    HW2 1179   0.868   0.614   2.611 -1.4541 -1.8321  0.2292
  295SOL     MW 1180   0.907   0.602   2.528 -0.4441 -0.4077  0.3241
  296SOL     OW 1181   1.303   0.246   2.054  0.2012  0.4667  0.0232
  296SOL    HW1 1182   1.361   0.169   2.053 -1.1031  0.9780  0.6788
  296SOL    HW2 1183   1.287   0.247   2.152  1.4304  0.9572 -0.2975
  296SOL     MW 1184   1.308   0.236   2.067  0.1913  0.5989  0.0674
  297SOL     OW 1185   1.398   0.364   1.631 -0.5972 -0.0729  0.0256
  297SOL    HW1 1186   1.445   0.442   1.661 -0.7617  1.8217  1.0637
  297SOL    HW2 1187   1.453   0.287   1.651 -0.3412 -1.8818 -0.0510
  297SOL     MW 1188   1.411   0.364   1.638 -0.5852 -0.0616  0.1524
  298SOL     OW 1189   1.649   0.811   1.990  0.4019 -0.6573 -0.2601
  298SOL    HW1 1190   1.618   0.861   1.911  0.9774  0.5724  0.3300
  298SOL    HW2 1191   1.721   0.860   2.032 -1.2108  0.9409  1.2456
  298SOL     MW 1192   1.654   0.824   1.985  0.2651 -0.2842  0.0164
  299SOL     OW 1193   0.593   1.100   0.039 -0.0490  0.2012 -0.0375
  299SOL    HW1 1194   0.647   1.164  -0.011 -0.1882 -2.5547  0.3421
  299SOL    HW2 1195   0.542   1.060  -0.031  0.5290  0.7536 -0.2441
  299SOL     MW 1196   0.593   1.103   0.023  0.0089 -0.0896 -0.0147
  300SOL     OW 1197   1.287   1.155   2.552  0.2827 -0.0801 -0.4043
  300SOL    HW1 1198   1.197   1.129   2.558  3.4078  0.8813 -3.7646
  300SOL    HW2 1199   1.315   1.200   2.632  1.8909 -0.0930 -0.4138
  300SOL     MW 1200   1.279   1.157   2.564  0.9072  0.0451 -0.8489
  301SOL     OW 1201   1.441   0.917   0.653  0.4042 -0.1509 -0.3613
  301SOL    HW1 1202   1.442   0.933   0.751  1.6157  0.0900 -0.6076
  301SOL    HW2 1203   1.358   0.870   0.643  3.4212 -0.8589  1.5979
  301SOL     MW 1204   1.430   0.913   0.665  0.9621 -0.2125 -0.1353
  302SOL     OW 1205   0.140   1.474   2.029 -0.3774  0.0067  0.1120
  302SOL    HW1 1206   0.148   1.409   2.098 -1.4971 -2.2588 -0.7545
  302SOL    HW2 1207   0.083   1.547   2.070  0.0415  2.7370 -0.0304
  302SOL     MW 1208   0.134   1.475   2.043 -0.4698  0.0680 -0.0211
  303SOL     OW 1209   0.376   1.724   2.642  0.0409  0.3332 -0.4131
  303SOL    HW1 1210   0.354   1.690   2.557 -0.2953 -1.3379 -1.5460
  303SOL    HW2 1211   0.304   1.772   2.677  0.5259  0.9647  1.3679
  303SOL     MW 1212   0.363   1.726   2.636  0.0605  0.1960 -0.3276
  304SOL     OW 1213   0.572   2.072   2.351 -0.7598  0.0035  0.2250
  304SOL    HW1 1214   0.643   2.128   2.308 -1.1047 -1.8665  0.1994
  304SOL    HW2 1215   0.623   1.994   2.380 -1.0334 -2.0385 -3.4996
  304SOL     MW 1216   0.588   2.069   2.349 -0.8414 -0.5127 -0.2698
  305SOL     OW 1217   1.123   0.589   0.496  0.3320 -0.2166 -0.8101
  305SOL    HW1 1218   1.030   0.601   0.490  0.2115  1.0761  0.8378
  305SOL    HW2 1219   1.119   0.509   0.553 -0.4088 -1.7680  1.7802
  305SOL     MW 1220   1.110   0.580   0.503  0.2184 -0.2507 -0.2509
  306SOL     OW 1221   1.185   1.479   0.277 -0.5968  0.2416 -0.1213
  306SOL    HW1 1222   1.224   1.395   0.313 -1.4628 -1.1931 -0.6405
  306SOL    HW2 1223   1.251   1.492   0.213  2.0276 -2.2656  0.5432
  306SOL     MW 1224   1.199   1.469   0.273 -0.3648 -0.2785 -0.1022
  307SOL     OW 1225   1.326   0.510   1.947  0.2757  0.1529  0.3719
  307SOL    HW1 1226   1.316   0.419   1.968 -3.6511 -1.0735  0.3094
  307SOL    HW2 1227   1.403   0.550   1.998 -1.0324 -0.1308  0.7897
  307SOL     MW 1228   1.335   0.503   1.956 -0.4150 -0.0464  0.4188
  308SOL     OW 1229   2.140   0.555   2.726  0.0135 -0.5519  0.3291
  308SOL    HW1 1230   2.216   0.518   2.774 -0.6207  1.6490 -3.0624
  308SOL    HW2 1231   2.153   0.649   2.721  0.0124  0.3801 -2.4688
  308SOL     MW 1232   2.151   0.562   2.732 -0.0703 -0.1385 -0.4875
  309SOL     OW 1233   0.447   0.400   0.371  0.0744  0.7770  0.2462
  309SOL    HW1 1234   0.510   0.384   0.442 -0.7933  1.6923 -0.0193
  309SOL    HW2 1235   0.418   0.313   0.351 -0.5127  2.0346 -0.8975
  309SOL     MW 1236   0.452   0.386   0.378 -0.1175  1.0637  0.0603
  310SOL     OW 1237   0.504   0.630   1.940  0.0499 -0.4921 -0.1843
  310SOL    HW1 1238   0.552   0.549   1.909 -0.9719  0.1405  3.4549
  310SOL    HW2 1239   0.565   0.695   1.920 -2.6106  0.6661  1.5917
  310SOL     MW 1240   0.519   0.628   1.934 -0.4360 -0.2559  0.5302
  311SOL     OW 1241   1.935   0.696   1.894 -0.1971 -0.1306  0.0634
  311SOL    HW1 1242   1.910   0.706   1.984 -1.1847  0.4565  0.5609
  311SOL    HW2 1243   1.981   0.609   1.905  0.3588 -2.1789  0.5287
  311SOL     MW 1244   1.938   0.686   1.907 -0.2540 -0.3234  0.1904
  312SOL     OW 1245   1.761   2.564   0.119  0.7530 -0.2521  0.1791
  312SOL    HW1 1246   1.836   2.548   0.182 -0.3499  0.5162  0.9020
  312SOL    HW2 1247   1.691   2.609   0.175  0.4879  2.8815  1.7381
  312SOL     MW 1248   1.761   2.568   0.134  0.5725  0.2627  0.4802
  313SOL     OW 1249   0.084   1.152   2.985 -0.1145 -0.9973  0.2921
  313SOL    HW1 1250   0.097   1.121   3.074  1.2987 -0.8215 -1.0902
  313SOL    HW2 1251   0.160   1.204   2.968  0.5740 -0.0466  0.7746
  313SOL     MW 1252   0.096   1.155   2.995  0.1628 -0.8486  0.1733
  314SOL     OW 1253   2.145   2.941   2.990  0.3699 -0.2229 -0.2865
  314SOL    HW1 1254   2.091   2.997   2.931  0.2666 -1.1551  0.7988
  314SOL    HW2 1255   2.209   2.989   3.043  0.3814 -2.0293 -0.0606
  314SOL     MW 1256   2.146   2.955   2.989  0.3578 -0.5842 -0.1135
  315SOL     OW 1257   1.520   1.974   3.096  0.3256  0.0040  0.3901
  315SOL    HW1 1258   1.443   2.022   3.118  0.1997 -1.6304 -0.9745
  315SOL    HW2 1259   1.561   2.011   3.021 -1.1812 -1.2321  2.7909
  315SOL     MW 1260   1.515   1.985   3.089  0.1102 -0.3747  0.5268
  316SOL     OW 1261   1.287   0.682   2.712  0.1163  0.1362  0.0524
  316SOL    HW1 1262   1.375   0.708   2.686  0.5804 -2.0733 -1.7984
  316SOL    HW2 1263   1.297   0.698   2.805 -0.7463  0.1935  2.0009
  316SOL     MW 1264   1.300   0.687   2.721  0.0637 -0.1478  0.0653
  317SOL     OW 1265   0.727   1.459   2.583 -0.3150 -0.6398  0.2252
  317SOL    HW1 1266   0.810   1.404   2.579  0.8488  1.1121 -1.9917
  317SOL    HW2 1267   0.740   1.504   2.494  0.7503  1.1955  0.2289
  317SOL     MW 1268   0.740   1.458   2.571 -0.0209 -0.1665 -0.0668
  318SOL     OW 1269   1.328   0.358   2.899 -0.9296 -0.2886  0.1686
  318SOL    HW1 1270   1.238   0.406   2.914  0.8204  0.6432  1.2475
  318SOL    HW2 1271   1.396   0.423   2.933 -1.8248 -0.3524  0.8892
  318SOL     MW 1272   1.325   0.373   2.906 -0.8168 -0.1741  0.4060
  319SOL     OW 1273   0.779   0.415   2.863  0.0728  0.0692  0.6333
  319SOL    HW1 1274   0.738   0.365   2.793  2.7802  2.8312 -0.8488
  319SOL    HW2 1275   0.730   0.398   2.948  0.1381 -0.2752 -1.8164
  319SOL     MW 1276   0.767   0.406   2.865  0.4387  0.3882  0.1146
  320SOL     OW 1277   1.089   1.345   1.946 -0.3045 -0.0953  0.0551
  320SOL    HW1 1278   1.152   1.312   2.008 -0.7557  0.8351 -0.2189
  320SOL    HW2 1279   1.136   1.426   1.920  1.2948  1.3493  3.4974
  320SOL     MW 1280   1.104   1.351   1.951 -0.1530  0.2181  0.4731
  321SOL     OW 1281   1.104   0.909   3.018  0.3342 -0.1723  0.2718
  321SOL    HW1 1282   1.075   0.915   2.928  1.4155  1.7176  0.4406
  321SOL    HW2 1283   1.158   0.834   3.035 -0.8081 -1.4578 -0.6256
  321SOL     MW 1284   1.107   0.900   3.008  0.3262 -0.0926  0.1757
  322SOL     OW 1285   1.288   0.839   1.693 -0.2944  0.1544 -0.3517
  322SOL    HW1 1286   1.360   0.773   1.718 -0.4107  0.8585 -0.9531
  322SOL    HW2 1287   1.266   0.898   1.769  0.5745  2.0700 -0.9524
  322SOL     MW 1288   1.295   0.838   1.706 -0.1951  0.5001 -0.5103
  323SOL     OW 1289   1.247   1.556   1.910 -0.2869  0.0906  0.1722
  323SOL    HW1 1290   1.300   1.525   1.832 -0.3567 -0.6651 -1.8084
  323SOL    HW2 1291   1.174   1.607   1.866 -0.1352 -0.5148 -0.3398
  323SOL     MW 1292   1.245   1.559   1.894 -0.2761 -0.0890 -0.1567
  324SOL     OW 1293   1.498   0.959   2.410 -0.5114  0.3485  0.5239
  324SOL    HW1 1294   1.417   1.004   2.423  4.6567 -3.0252 -1.1879
  324SOL    HW2 1295   1.565   1.011   2.456 -0.7500 -1.8204  0.4560
  324SOL     MW 1296   1.496   0.972   2.418  0.1390 -0.3828  0.2891
  325SOL     OW 1297   1.075   0.417   2.957  0.2513 -0.0482  0.6823
  325SOL    HW1 1298   1.055   0.459   3.040 -1.4757 -0.3749  0.1377
  325SOL    HW2 1299   1.009   0.440   2.885 -0.6343  1.1761 -2.6585
  325SOL     MW 1300   1.064   0.425   2.958 -0.0934  0.0702  0.1696
  326SOL     OW 1301   0.467   1.371   2.219  0.8215  0.3296  0.1450
  326SOL    HW1 1302   0.535   1.318   2.178  1.2107 -2.4082  0.0479
  326SOL    HW2 1303   0.497   1.461   2.191 -0.1979  0.6582 -2.5030
  326SOL     MW 1304   0.480   1.376   2.210  0.7383  0.0117 -0.2172
  327SOL     OW 1305   1.930   0.795   2.425  0.0601 -0.2481 -0.0422
  327SOL    HW1 1306   1.932   0.745   2.506 -0.0426  0.1085 -2.0090
  327SOL    HW2 1307   2.020   0.832   2.412  0.1615  0.2975 -1.5220
  327SOL     MW 1308   1.942   0.793   2.434  0.0599 -0.1291 -0.4969
  328SOL     OW 1309   0.155   1.295   2.205  0.2382  0.6930  0.2194
  328SOL    HW1 1310   0.115   1.222   2.153 -0.6149  1.4094  1.0634
  328SOL    HW2 1311   0.244   1.273   2.221 -2.9665 -0.2329 -1.1496
  328SOL     MW 1312   0.161   1.282   2.200 -0.2971  0.6653  0.1501
  329SOL     OW 1313   0.150   0.176   1.313  0.6127  1.2923 -0.0652
  329SOL    HW1 1314   0.117   0.185   1.402  2.6523 -0.8903 -0.5043
  329SOL    HW2 1315   0.238   0.194   1.333 -2.1059 -0.3400 -1.0971
  329SOL     MW 1316   0.157   0.179   1.327  0.5231  0.7889 -0.2593
  330SOL     OW 1317   0.371   3.092   2.052  0.8266  0.4704 -0.0049
  330SOL    HW1 1318   0.453   3.086   2.106  1.5579  0.8297  3.5472
  330SOL    HW2 1319   0.312   3.036   2.105 -1.5969 -1.7902  1.3237
  330SOL     MW 1320   0.374   3.084   2.066  0.6033  0.2195  0.6391
  331SOL     OW 1321   0.870   1.211   2.284 -0.0583  0.0743 -0.3704
  331SOL    HW1 1322   0.804   1.236   2.215 -4.3036  4.0652  1.2926
  331SOL    HW2 1323   0.895   1.290   2.334  3.4857  2.8271 -0.2314
  331SOL     MW 1324   0.865   1.225   2.281 -0.1508  0.9640 -0.1327
  332SOL     OW 1325   1.329   1.772   3.038  0.2170 -0.0899 -0.4005
  332SOL    HW1 1326   1.356   1.762   2.946 -2.2829 -2.2848 -1.9674
  332SOL    HW2 1327   1.371   1.855   3.073  0.2112  2.0187 -1.0846
  332SOL     MW 1328   1.338   1.781   3.030 -0.1136 -0.1013 -0.6975
  333SOL     OW 1329   1.746   1.392   2.953  0.1886 -0.1529  0.9521
  333SOL    HW1 1330   1.842   1.369   2.962 -0.0840  0.1396 -0.7028
  333SOL    HW2 1331   1.711   1.368   3.035 -0.0989  0.2284  1.9036
  333SOL     MW 1332   1.754   1.386   2.965  0.1147 -0.0640  0.8593
  334SOL     OW 1333   1.397  -0.003   2.626 -0.1886  0.0237 -0.2757
  334SOL    HW1 1334   1.303  -0.009   2.627  1.6849  0.7092  0.2159
  334SOL    HW2 1335   1.412   0.090   2.640  1.8921 -0.7185  0.9871
  334SOL     MW 1336   1.387   0.009   2.628  0.3331  0.0162 -0.0442
  335SOL     OW 1337   1.354   0.772   2.985  0.3238 -0.3123 -0.5971
  335SOL    HW1 1338   1.412   0.761   3.060 -2.2486 -0.1954  0.7995
  335SOL    HW2 1339   1.386   0.845   2.935  0.6259  1.4886 -1.5969
  335SOL     MW 1340   1.365   0.780   2.988  0.0243 -0.0593 -0.5448
  336SOL     OW 1341   0.955   1.055   1.979  0.0531  0.3405 -0.0876
  336SOL    HW1 1342   0.957   1.147   1.984 -1.6757 -0.1906 -0.5002
  336SOL    HW2 1343   1.041   1.027   2.014 -0.0844 -2.3590  0.0727
  336SOL     MW 1344   0.967   1.064   1.984 -0.1931 -0.0858 -0.1209
  337SOL     OW 1345   0.605   1.814   2.774 -0.4575  0.5724  0.2518
  337SOL    HW1 1346   0.519   1.798   2.727  0.7838 -0.7695  1.8833
  337SOL    HW2 1347   0.676   1.756   2.743  3.7341  0.6635  2.8381
  337SOL     MW 1348   0.603   1.805   2.763  0.2593  0.4074  0.8083
  338SOL     OW 1349   1.120   0.792   2.509 -0.0490 -0.1213  0.1431
  338SOL    HW1 1350   1.038   0.735   2.502 -1.2108 -1.8100 -2.1688
  338SOL    HW2 1351   1.175   0.764   2.591  2.7171  0.6990  1.4250
  338SOL     MW 1352   1.117   0.781   2.519  0.1627 -0.2359  0.0072
  339SOL     OW 1353   1.532   1.023   1.810 -0.2612  0.3659  0.1157
  339SOL    HW1 1354   1.458   1.035   1.752  1.2746  1.0831 -0.3581
  339SOL    HW2 1355   1.510   1.082   1.884 -1.4508 -0.7714  0.7890
  339SOL     MW 1356   1.519   1.033   1.812 -0.2155  0.3105  0.1420
  340SOL     OW 1357   1.354   1.500   0.070 -0.7841  0.7571  0.4514
  340SOL    HW1 1358   1.342   1.586   0.040  0.2689  0.0438 -1.8972
  340SOL    HW2 1359   1.444   1.493   0.091 -0.3295  1.9985  1.0896
  340SOL     MW 1360   1.364   1.510   0.069 -0.5852  0.8268  0.2257
  341SOL     OW 1361   0.149   1.424   2.716  0.0684 -0.2017  0.8848
  341SOL    HW1 1362   0.238   1.387   2.692  0.3391  1.4900 -2.2058
  341SOL    HW2 1363   0.088   1.378   2.659  0.9271 -1.8154  0.3807
  341SOL     MW 1364   0.153   1.413   2.705  0.2175 -0.1914  0.4105
  342SOL     OW 1365   1.290   0.346   0.090 -0.2001  0.3572 -0.0975
  342SOL    HW1 1366   1.364   0.390   0.130  0.1108 -1.7553  1.5933
  342SOL    HW2 1367   1.308   0.353  -0.004 -1.2288  0.3308 -0.2754
  342SOL     MW 1368   1.302   0.353   0.083 -0.2948  0.0750  0.1021
  343SOL     OW 1369   0.224   0.307   2.148 -0.0494 -0.3019 -0.2128
  343SOL    HW1 1370   0.284   0.241   2.125 -0.4169 -2.2444  2.8471
  343SOL    HW2 1371   0.141   0.258   2.136 -0.9722 -1.3443  0.4855
  343SOL     MW 1372   0.221   0.292   2.144 -0.2197 -0.6957  0.2830
  344SOL     OW 1373   1.705   2.072   0.186  0.3847  0.0124 -0.4296
  344SOL    HW1 1374   1.721   2.160   0.147  0.0024  0.2083 -0.9831
  344SOL    HW2 1375   1.633   2.033   0.127 -1.9055 -0.0026  3.1237
  344SOL     MW 1376   1.698   2.079   0.173  0.0321  0.0363 -0.0338
  345SOL     OW 1377   0.753   1.592   2.359  0.4718 -0.0047 -0.0098
  345SOL    HW1 1378   0.683   1.603   2.297  0.3906  0.7290  2.1226
  345SOL    HW2 1379   0.808   1.551   2.296 -0.4559  1.9152  0.9482
  345SOL     MW 1380   0.751   1.588   2.342  0.3387  0.3454  0.3979
  346SOL     OW 1381   1.775   1.058  -0.004 -0.0828 -0.4813  0.3708
  346SOL    HW1 1382   1.825   1.134   0.025 -1.8241 -0.3496  1.6065
  346SOL    HW2 1383   1.724   1.027   0.069  0.2226  0.9310  0.6942
  346SOL     MW 1384   1.775   1.064   0.010 -0.2723 -0.2776  0.5765
  347SOL     OW 1385   1.269   0.736   2.295 -0.7668 -0.3940 -0.2681
  347SOL    HW1 1386   1.354   0.713   2.327  0.2707 -0.2689 -0.7345
  347SOL    HW2 1387   1.225   0.773   2.375 -1.6360  2.6134 -0.7376
  347SOL     MW 1388   1.274   0.738   2.310 -0.7446  0.0193 -0.3916
  348SOL     OW 1389   1.431   2.670   1.894 -0.0016  0.0028  0.1522
  348SOL    HW1 1390   1.447   2.585   1.933 -0.4621  2.7766  1.4722
  348SOL    HW2 1391   1.453   2.735   1.964 -2.1576  0.9665  0.5081
  348SOL     MW 1392   1.436   2.667   1.908 -0.3468  0.4960  0.3734
  349SOL     OW 1393   1.502   0.284   2.693 -0.3256  0.0735 -0.1634
  349SOL    HW1 1394   1.441   0.313   2.762  2.3082  0.8639  0.1026
  349SOL    HW2 1395   1.586   0.282   2.736 -0.4159 -2.3396  4.2748
  349SOL     MW 1396   1.505   0.288   2.708  0.0099 -0.1406  0.4573
  350SOL     OW 1397   1.880   0.633   2.683 -0.4032  0.6794  0.3707
  350SOL    HW1 1398   1.828   0.558   2.651 -0.7831 -2.6323  0.0533
  350SOL    HW2 1399   1.953   0.592   2.726 -3.1430  1.8439  0.4060
  350SOL     MW 1400   1.882   0.618   2.684 -0.8148  0.3961  0.3335
  351SOL     OW 1401   0.050   0.978   1.485  0.2348  0.3630 -0.5040
  351SOL    HW1 1402  -0.011   1.011   1.560  4.0354  3.0777  1.5578
  351SOL    HW2 1403   0.127   1.029   1.502 -2.1076  0.5079 -0.3693
  351SOL     MW 1404   0.052   0.989   1.497  0.4272  0.7403 -0.2142
  352SOL     OW 1405   0.825   1.687   2.717 -0.1905 -0.6209 -1.0185
  352SOL    HW1 1406   0.881   1.648   2.786  2.8266  0.2268  0.2657
  352SOL    HW2 1407   0.794   1.607   2.674  1.4838  2.0948  0.2008
  352SOL     MW 1408   0.828   1.671   2.720  0.4285 -0.1507 -0.6882
  353SOL     OW 1409   3.070   2.486   2.643  0.0768 -0.2093 -0.4244
  353SOL    HW1 1410   3.164   2.492   2.618 -1.1989 -0.5785  1.9518
  353SOL    HW2 1411   3.025   2.568   2.640 -1.4173  0.2893  1.1267
  353SOL     MW 1412   3.077   2.497   2.640 -0.2886 -0.1922  0.0938
  354SOL     OW 1413   0.288   2.531   0.818 -0.5479  0.0040 -0.4997
  354SOL    HW1 1414   0.337   2.497   0.891  0.6724 -1.3242 -0.4100
  354SOL    HW2 1415   0.233   2.452   0.805  0.2645 -1.4117  0.4334
  354SOL     MW 1416   0.288   2.516   0.826 -0.2797 -0.3580 -0.3647
  355SOL     OW 1417   0.062   2.278   0.384  0.6315  0.0393 -0.3088
  355SOL    HW1 1418  -0.012   2.216   0.396  2.2572  0.0346  2.1281
  355SOL    HW2 1419   0.052   2.327   0.465  2.0616 -1.1318  0.7038
  355SOL     MW 1420   0.051   2.277   0.397  1.0347 -0.1158  0.1463
  356SOL     OW 1421   0.804   2.828   0.978 -0.2281 -0.8333 -0.2576
  356SOL    HW1 1422   0.830   2.825   0.884  0.4079  1.0103 -1.4310
  356SOL    HW2 1423   0.708   2.816   0.974  2.4438 -0.1611 -1.4172
  356SOL     MW 1424   0.795   2.826   0.965  0.2083 -0.5014 -0.5654
  357SOL     OW 1425   1.793   2.930   0.420 -0.2448 -0.2277 -0.2072
  357SOL    HW1 1426   1.725   2.873   0.468 -3.1484  1.1464  0.8344
  357SOL    HW2 1427   1.881   2.889   0.398  4.9974  0.6512 -0.0280
  357SOL     MW 1428   1.796   2.917   0.423  0.0638  0.0696 -0.0462
  358SOL     OW 1429   0.485   0.123   1.109 -0.5801  0.1344 -0.0288
  358SOL    HW1 1430   0.567   0.082   1.084  0.7921  1.1095  0.2449
  358SOL    HW2 1431   0.450   0.152   1.020 -0.8728 -0.9665  2.4052
  358SOL     MW 1432   0.492   0.121   1.094 -0.4377  0.1178  0.3284
  359SOL     OW 1433   0.882   2.949   1.853 -0.2276  0.2756  0.0378
  359SOL    HW1 1434   0.865   2.855   1.878 -1.1069  2.1668  1.0271
  359SOL    HW2 1435   0.927   2.952   1.772 -1.3328 -0.0437  1.2594
  359SOL     MW 1436   0.885   2.937   1.845 -0.4894  0.4830  0.3295
  360SOL     OW 1437   0.533   2.739   0.975 -0.0544  0.1678 -0.1683
  360SOL    HW1 1438   0.535   2.702   0.884 -0.4463  0.2270 -3.4556
  360SOL    HW2 1439   0.524   2.670   1.042 -0.5238 -1.8783  0.9075
  360SOL     MW 1440   0.532   2.725   0.972 -0.1681 -0.0944 -0.4601
  361SOL     OW 1441   0.156   2.689   1.321 -0.4723 -0.1064 -0.0678
  361SOL    HW1 1442   0.118   2.740   1.394 -1.0437 -1.0649  0.0951
  361SOL    HW2 1443   0.250   2.707   1.336 -1.9461 -0.1865 -0.8061
  361SOL     MW 1444   0.163   2.698   1.333 -0.7421 -0.2434 -0.1437
  362SOL     OW 1445   1.481   2.441   0.614  0.4781 -0.3338 -0.2721
  362SOL    HW1 1446   1.488   2.370   0.677 -2.7632  0.1057  0.0317
  362SOL    HW2 1447   1.509   2.521   0.666 -1.8383  2.2484  0.0093
  362SOL     MW 1448   1.486   2.442   0.629 -0.2552  0.0649 -0.1949
  363SOL     OW 1449   0.314   3.072   0.701  0.5601 -0.1171 -0.3656
  363SOL    HW1 1450   0.310   3.009   0.779  0.3399 -0.4965  0.6841
  363SOL    HW2 1451   0.227   3.080   0.671  1.3511  1.7632 -0.7000
  363SOL     MW 1452   0.302   3.064   0.707  0.6354  0.0809 -0.2712
  364SOL     OW 1453   0.684   0.167   0.216  0.4028  0.2063 -0.3405
  364SOL    HW1 1454   0.620   0.103   0.259 -2.0677 -1.0411  0.4734
  364SOL    HW2 1455   0.625   0.226   0.171  0.8657  0.0670  1.4670
  364SOL     MW 1456   0.668   0.167   0.216  0.1379  0.0233  0.0054
  365SOL     OW 1457   0.967   1.977   1.079 -0.2602  0.5520  0.4372
  365SOL    HW1 1458   0.962   2.059   1.040  1.4900 -2.5321  1.0264
  365SOL    HW2 1459   0.894   1.921   1.044 -1.1948  0.5327  0.6929
  365SOL     MW 1460   0.957   1.980   1.069 -0.1526  0.1425  0.5487
  366SOL     OW 1461   2.830   2.632   1.009 -0.2380  0.2714 -0.3085
  366SOL    HW1 1462   2.893   2.638   1.088  1.7694 -0.8615 -0.0165
  366SOL    HW2 1463   2.864   2.661   0.927 -1.5172 -0.2820 -0.1201
  366SOL     MW 1464   2.843   2.636   1.009 -0.1419  0.0489 -0.2451
  367SOL     OW 1465   1.255   2.938   0.885  0.3804  0.1031 -0.8366
  367SOL    HW1 1466   1.258   3.025   0.837 -1.9058 -1.6531 -2.9351
  367SOL    HW2 1467   1.223   2.869   0.824  0.1551 -0.0892  1.3505
  367SOL     MW 1468   1.251   2.940   0.870  0.0490 -0.1540 -0.8250
  368SOL     OW 1469   1.645   0.405   0.692  0.3325  0.4114  0.1325
  368SOL    HW1 1470   1.724   0.358   0.655  1.5078 -1.1843 -0.4293
  368SOL    HW2 1471   1.669   0.500   0.688 -0.6720 -2.3005  0.3276
  368SOL     MW 1472   1.658   0.412   0.686  0.3550 -0.1570  0.0841
  369SOL     OW 1473   0.128   2.521   1.653 -0.3657 -0.3432  0.3455
  369SOL    HW1 1474   0.222   2.520   1.686 -1.4696  1.3370  3.4667
  369SOL    HW2 1475   0.099   2.595   1.698 -0.8534 -3.3626 -4.0077
  369SOL     MW 1476   0.137   2.531   1.663 -0.5757 -0.5199  0.1829
  370SOL     OW 1477   0.743   0.070   0.942 -0.1662  0.7626  0.6427
  370SOL    HW1 1478   0.829   0.102   0.964 -0.4378 -1.1335  2.1166
  370SOL    HW2 1479   0.767  -0.025   0.933 -0.6765 -0.5387  1.1814
  370SOL     MW 1480   0.757   0.062   0.944 -0.2694  0.3407  0.9083
  371SOL     OW 1481   1.334   2.941   1.494  0.1606 -0.2069  0.1060
  371SOL    HW1 1482   1.267   2.887   1.451 -0.5536 -0.9541  1.3486
  371SOL    HW2 1483   1.328   3.036   1.457 -0.0803  1.4748 -0.0946
  371SOL     MW 1484   1.325   2.946   1.483  0.0346 -0.0836  0.2435
  372SOL     OW 1485   0.763   2.320   0.477 -0.4325 -1.2823  0.4675
  372SOL    HW1 1486   0.713   2.241   0.482 -1.7688  1.2092 -0.8941
  372SOL    HW2 1487   0.799   2.314   0.390  0.4729  0.7465 -1.4042
  372SOL     MW 1488   0.761   2.309   0.466 -0.4894 -0.6859  0.0409
  373SOL     OW 1489   2.748   3.039   1.442  0.1745 -0.1997 -0.3996
  373SOL    HW1 1490   2.816   3.015   1.384 -0.8677 -0.3790  0.3639
  373SOL    HW2 1491   2.711   3.113   1.394 -0.7555 -2.4850 -0.6160
  373SOL     MW 1492   2.752   3.046   1.428 -0.0857 -0.5249 -0.3274
  374SOL     OW 1493   1.501   0.454   0.209 -0.3109  0.3982 -0.3165
  374SOL    HW1 1494   1.562   0.389   0.182 -0.7613  2.3195  1.7938
  374SOL    HW2 1495   1.482   0.429   0.301 -3.8192  1.1120  0.9849
  374SOL     MW 1496   1.507   0.442   0.217 -0.8332  0.7458  0.1336
  375SOL     OW 1497   1.033   2.078   2.305 -0.4643 -0.1814  0.4550
  375SOL    HW1 1498   1.110   2.065   2.353 -0.1187  1.0821  1.2791
  375SOL    HW2 1499   1.049   2.047   2.218 -1.2285  0.8472  1.3182
  375SOL     MW 1500   1.045   2.072   2.300 -0.5196  0.1210  0.6776
  376SOL     OW 1501   0.628   2.585   0.062  0.5705 -0.1274  0.3468
  376SOL    HW1 1502   0.641   2.539   0.153  3.1788  1.5975 -2.9764
  376SOL    HW2 1503   0.631   2.510   0.007 -1.7519  2.9701  0.6823
  376SOL     MW 1504   0.630   2.569   0.067  0.6082  0.5089 -0.0474
  377SOL     OW 1505   1.295   2.013   0.856 -0.1378  0.3481  0.4153
  377SOL    HW1 1506   1.215   2.001   0.803  0.0275  2.3361  0.9137
  377SOL    HW2 1507   1.292   1.939   0.921 -3.2325  1.8406  2.4953
  377SOL     MW 1508   1.284   2.001   0.857 -0.5243  0.8073  0.7555
  378SOL     OW 1509   1.005   2.800   1.639 -0.7436 -0.3631 -0.1311
  378SOL    HW1 1510   0.946   2.722   1.634  0.6080 -0.7151  0.1354
  378SOL    HW2 1511   0.971   2.857   1.571 -0.6609  2.7203  0.6103
  378SOL     MW 1512   0.992   2.797   1.630 -0.5544 -0.0027  0.0019
  379SOL     OW 1513   1.154   1.777   2.266  0.1285  0.1092  0.3570
  379SOL    HW1 1514   1.070   1.798   2.225  0.4233 -2.2477 -3.1881
  379SOL    HW2 1515   1.170   1.686   2.236  0.7254  1.0595  0.2286
  379SOL     MW 1516   1.145   1.768   2.257  0.2461 -0.0764 -0.1277
  380SOL     OW 1517   0.770   0.055   1.570 -0.3949  0.0689 -0.1034
  380SOL    HW1 1518   0.778   0.071   1.476  1.9970  0.3939 -2.4540
  380SOL    HW2 1519   0.852   0.092   1.606  0.6994  2.3912  0.1639
  380SOL     MW 1520   0.782   0.062   1.563  0.0650  0.4182 -0.3783
  381SOL     OW 1521   0.815   2.053   0.764 -0.1979  0.0309  0.3118
  381SOL    HW1 1522   0.908   2.026   0.744 -2.0468 -0.4377 -1.6405
  381SOL    HW2 1523   0.831   2.115   0.833  0.8338 -0.8672  1.3967
  381SOL     MW 1524   0.830   2.058   0.770 -0.3057 -0.1494  0.1973
  382SOL     OW 1525   0.623   0.113   0.690  0.5244  0.2770  0.0927
  382SOL    HW1 1526   0.634   0.120   0.793  0.2803 -0.0933  1.6247
  382SOL    HW2 1527   0.597   0.020   0.680 -0.3248  2.4087 -1.2039
  382SOL     MW 1528   0.621   0.102   0.702  0.3801  0.5094  0.1237
  383SOL     OW 1529   0.571   3.056   0.330 -0.0266 -0.1921 -0.7182
  383SOL    HW1 1530   0.615   3.005   0.265  1.1780 -1.9836  1.3247
  383SOL    HW2 1531   0.503   3.004   0.370  4.6036 -1.0893 -1.8873
  383SOL     MW 1532   0.568   3.043   0.326  0.7432 -0.5468 -0.6029
  384SOL     OW 1533   0.627   2.941   0.624  0.3510 -0.2655 -0.4537
  384SOL    HW1 1534   0.713   2.902   0.645  2.4269 -0.3698 -1.4812
  384SOL    HW2 1535   0.564   2.867   0.634  3.2381 -4.9443  0.9632
  384SOL     MW 1536   0.630   2.926   0.628  1.0058 -0.8966 -0.4023
  385SOL     OW 1537   1.338   2.096   1.518  0.1339  0.3901  0.6847
  385SOL    HW1 1538   1.423   2.125   1.565  2.5988  2.8540 -1.2946
  385SOL    HW2 1539   1.316   2.027   1.579  2.2677  0.8601 -0.3820
  385SOL     MW 1540   1.346   2.091   1.533  0.7407  0.7772  0.2828
  386SOL     OW 1541   1.299   0.367   0.844  0.2610  0.5067  0.2751
  386SOL    HW1 1542   1.217   0.406   0.877 -1.4702 -0.6171  1.6930
  386SOL    HW2 1543   1.321   0.316   0.921  0.2456 -1.6960  1.6582
  386SOL     MW 1544   1.291   0.365   0.859  0.0306  0.0678  0.6447
  387SOL     OW 1545   0.868   2.170   1.485 -0.3491  0.2490 -0.0891
  387SOL    HW1 1546   0.943   2.218   1.451 -0.6725 -1.1491  0.1456
  387SOL    HW2 1547   0.871   2.086   1.442 -1.2825  1.1089  1.6750
  387SOL     MW 1548   0.878   2.165   1.475 -0.5149  0.1780  0.1746
  388SOL     OW 1549   1.566   2.812   1.232 -0.2378 -0.2164  0.1962
  388SOL    HW1 1550   1.477   2.782   1.211  1.5401 -0.4250  2.5871
  388SOL    HW2 1551   1.630   2.756   1.194  1.3336  1.4125  1.0557
  388SOL     MW 1552   1.562   2.801   1.224  0.2041 -0.0290  0.6251
  389SOL     OW 1553   0.462   0.051   3.045 -0.1047  0.2178  0.4035
  389SOL    HW1 1554   0.548   0.064   2.992 -0.3410  0.3411  1.6286
  389SOL    HW2 1555   0.401   0.085   2.975 -0.9112  2.1804 -0.1415
  389SOL     MW 1556   0.465   0.057   3.029 -0.2423  0.4930  0.4932
  390SOL     OW 1557   1.285   0.098   0.651  0.1385  0.1451  0.1473
  390SOL    HW1 1558   1.368   0.087   0.607  2.5992  0.6653  3.0063
  390SOL    HW2 1559   1.309   0.131   0.740 -0.7188  0.4516 -1.5371
  390SOL     MW 1560   1.299   0.101   0.657  0.3500  0.2542  0.3023
  391SOL     OW 1561   0.312   2.190   1.391  0.3289 -0.0964  0.1415
  391SOL    HW1 1562   0.277   2.093   1.406 -2.3175 -0.5523  0.9300
  391SOL    HW2 1563   0.238   2.255   1.398  1.5672  1.5993  1.9695
  391SOL     MW 1564   0.297   2.186   1.394  0.1431  0.0672  0.4867
  392SOL     OW 1565   2.057   2.178   0.361  0.2433 -0.3757 -0.4689
  392SOL    HW1 1566   2.145   2.182   0.400  1.7166  2.4622 -2.1624
  392SOL    HW2 1567   2.010   2.247   0.400  1.8356  0.5331  0.8720
  392SOL     MW 1568   2.062   2.188   0.371  0.6478  0.1186 -0.5154
  393SOL     OW 1569   0.148   3.041   2.753 -0.0490 -0.6116  0.5339
  393SOL    HW1 1570   0.233   3.027   2.706  0.2697 -1.3955 -3.9165
  393SOL    HW2 1571   0.134   3.136   2.744  2.6501 -1.9107 -1.4441
  393SOL     MW 1572   0.157   3.052   2.746  0.3492 -0.8864 -0.3143
  394SOL     OW 1573   0.902   1.747   1.538 -0.8835  0.9640  0.5714
  394SOL    HW1 1574   0.848   1.781   1.607 -0.3239 -1.3903 -1.6633
  394SOL    HW2 1575   0.909   1.812   1.469 -0.8316  0.1530 -1.5801
  394SOL     MW 1576   0.896   1.760   1.538 -0.8028  0.5464 -0.0073
  395SOL     OW 1577   1.034   2.799   2.591 -0.1218 -0.3133 -0.0147
  395SOL    HW1 1578   1.100   2.865   2.588  1.4313  1.1873  1.9384
  395SOL    HW2 1579   1.071   2.723   2.547  2.6052  2.0166 -0.9990
  395SOL     MW 1580   1.047   2.798   2.585  0.4429  0.1921  0.1131
  396SOL     OW 1581   0.745   1.860   2.392 -0.4060 -0.1740  0.1805
  396SOL    HW1 1582   0.818   1.894   2.448 -0.4532  1.6831 -2.6808
  396SOL    HW2 1583   0.744   1.760   2.402 -1.0017 -2.7394  1.0065
  396SOL     MW 1584   0.755   1.851   2.401 -0.4908 -0.2675 -0.0880
  397SOL     OW 1585   1.009   2.318   1.247  0.1003 -0.1474 -0.0605
  397SOL    HW1 1586   1.041   2.368   1.163  1.7651 -1.0774  0.1617
  397SOL    HW2 1587   1.091   2.319   1.304 -0.7374 -0.9814  0.6000
  397SOL     MW 1588   1.024   2.325   1.243  0.2094 -0.3801  0.0560
  398SOL     OW 1589   0.532   2.674   0.722 -0.2667 -0.3058 -0.3252
  398SOL    HW1 1590   0.456   2.621   0.697  2.3104  0.2989  0.1281
  398SOL    HW2 1591   0.611   2.628   0.682  0.2159 -2.4444 -0.8837
  398SOL     MW 1592   0.532   2.661   0.714  0.1370 -0.5082 -0.3391
  399SOL     OW 1593   0.244   2.083   0.383  0.1580 -0.1344  0.2319
  399SOL    HW1 1594   0.176   2.148   0.393 -2.2204 -1.1136  2.6547
  399SOL    HW2 1595   0.309   2.120   0.328  1.3143 -3.3372 -2.8942
  399SOL     MW 1596   0.243   2.097   0.377 -0.0032 -0.6862  0.1391
  400SOL     OW 1597   0.534   1.898   0.180 -1.1339 -0.4279  0.3706
  400SOL    HW1 1598   0.488   1.977   0.213  0.1585  1.8239 -0.2864
  400SOL    HW2 1599   0.524   1.821   0.238 -1.7308  1.5972  2.0841
  400SOL     MW 1600   0.527   1.898   0.192 -1.0422  0.1364  0.5100
  401SOL     OW 1601   0.772   2.009   0.115  0.5971  0.2464 -0.4454
  401SOL    HW1 1602   0.828   1.925   0.131  1.3647 -0.9702  3.6642
  401SOL    HW2 1603   0.683   1.976   0.146 -0.5956  1.5151  2.5756
  401SOL     MW 1604   0.767   1.993   0.121  0.5410  0.2532  0.4954
  402SOL     OW 1605   0.621   3.016   1.756  0.0487 -0.3808  0.6089
  402SOL    HW1 1606   0.711   3.014   1.786 -1.4563 -0.2673  1.2475
  402SOL    HW2 1607   0.628   3.077   1.678 -1.7227  0.5580  2.0567
  402SOL     MW 1608   0.633   3.023   1.750 -0.3836 -0.2420  0.8842
  403SOL     OW 1609   0.111   0.420   0.376 -0.0496 -0.0939  0.0320
  403SOL    HW1 1610   0.183   0.450   0.428  0.1525  0.2505 -1.0117
  403SOL    HW2 1611   0.142   0.388   0.291  1.7974  0.1087  0.9848
  403SOL     MW 1612   0.125   0.419   0.372  0.2207 -0.0217  0.0200
  404SOL     OW 1613   0.877   2.874   0.704  0.0195  0.5469  0.1076
  404SOL    HW1 1614   0.930   2.812   0.654 -0.4026  1.9544  0.5224
  404SOL    HW2 1615   0.926   2.956   0.694  0.7982 -0.2527 -1.9914
  404SOL     MW 1616   0.891   2.877   0.696  0.0665  0.6271 -0.1146
  405SOL     OW 1617   0.516   2.378   1.476  0.1089 -0.1987  0.0716
  405SOL    HW1 1618   0.478   2.456   1.436 -0.1812 -2.0855  1.7896
  405SOL    HW2 1619   0.461   2.307   1.454 -2.0309  1.3524  0.5876
  405SOL     MW 1620   0.503   2.379   1.468 -0.2117 -0.2430  0.3663
  406SOL     OW 1621   0.385   2.375   1.052 -0.4609  0.1579 -0.8994
  406SOL    HW1 1622   0.290   2.373   1.069  1.9299 -0.0917  1.9332
  406SOL    HW2 1623   0.412   2.284   1.049  0.1511 -1.0550 -2.6216
  406SOL     MW 1624   0.376   2.363   1.054 -0.0647 -0.0350 -0.7529
  407SOL     OW 1625   3.059   2.706   1.147  0.8632 -0.1299  0.4260
  407SOL    HW1 1626   3.136   2.695   1.211  0.2507 -0.5281  0.8813
  407SOL    HW2 1627   3.107   2.716   1.062  0.1259  0.3819  1.3099
  407SOL     MW 1628   3.076   2.706   1.144  0.6851 -0.1149  0.6027
  408SOL     OW 1629   2.131   2.074   0.783  0.5091  0.0128 -0.4336
  408SOL    HW1 1630   2.091   2.130   0.849 -2.5097 -3.3503  2.5758
  408SOL    HW2 1631   2.062   2.067   0.713  1.3105  2.5581 -1.6463
  408SOL     MW 1632   2.117   2.081   0.783  0.2166 -0.0951 -0.1966
  409SOL     OW 1633   1.432   0.126   0.889  0.5665 -0.2583  0.1423
  409SOL    HW1 1634   1.506   0.182   0.868  0.7207  1.1095 -0.6338
  409SOL    HW2 1635   1.466   0.074   0.958  1.6485  1.0134  0.2416
  409SOL     MW 1636   1.447   0.127   0.895  0.7296  0.0899  0.0530
  410SOL     OW 1637   1.114   2.464   1.047 -0.4296  0.0983  0.3803
  410SOL    HW1 1638   1.043   2.499   0.994 -2.8186 -0.5777 -0.7203
  410SOL    HW2 1639   1.158   2.395   0.994 -0.1409  0.4557  0.4461
  410SOL     MW 1640   1.110   2.459   1.033 -0.7067  0.0563  0.2438
  411SOL     OW 1641   1.970   0.038   2.877 -0.1843 -0.1130  0.2099
  411SOL    HW1 1642   1.916   0.005   2.808  0.6321  3.4858  0.2151
  411SOL    HW2 1643   1.908   0.063   2.946  1.9907  0.6720  0.1038
  411SOL     MW 1644   1.955   0.037   2.877  0.2104  0.4654  0.1966
  412SOL     OW 1645   0.997   2.255   0.619 -0.0411 -0.0286 -0.5738
  412SOL    HW1 1646   1.039   2.342   0.622  4.5418  1.1738 -0.1151
  412SOL    HW2 1647   0.911   2.275   0.580  1.6539 -3.0807  0.4660
  412SOL     MW 1648   0.991   2.269   0.614  0.7872 -0.2726 -0.3761
  413SOL     OW 1649   0.520   2.803   3.056 -0.1104  0.2875 -0.3939
  413SOL    HW1 1650   0.565   2.720   3.077 -1.5661 -2.8577  0.8101
  413SOL    HW2 1651   0.578   2.856   3.007  1.3993  3.5242 -0.5087
  413SOL     MW 1652   0.533   2.799   3.052 -0.1033  0.2996 -0.2502
  414SOL     OW 1653   1.931   2.866   1.062 -0.0504 -0.8675  0.1731
  414SOL    HW1 1654   1.889   2.912   0.991  0.9153 -0.1377  0.0996
  414SOL    HW2 1655   2.032   2.867   1.049 -0.6471  0.4544  0.7470
  414SOL     MW 1656   1.939   2.872   1.051 -0.0017 -0.5968  0.2391
  415SOL     OW 1657   1.754   2.629   1.101  0.6958  0.3415  0.0062
  415SOL    HW1 1658   1.747   2.559   1.166  1.9499  3.8439 -0.8340
  415SOL    HW2 1659   1.831   2.672   1.136  1.1611 -1.4040 -0.0385
  415SOL     MW 1660   1.763   2.625   1.114  0.9226  0.5733 -0.1105
  416SOL     OW 1661   0.507   1.940   1.351  0.3082 -0.2728  0.0067
  416SOL    HW1 1662   0.501   1.997   1.273 -3.1189 -0.6919  1.1154
  416SOL    HW2 1663   0.434   1.876   1.337 -4.1533 -0.0194 -0.9823
  416SOL     MW 1664   0.497   1.939   1.339 -0.7327 -0.2947  0.0225
  417SOL     OW 1665   1.041   3.070   2.068  0.1164  0.3531  0.8493
  417SOL    HW1 1666   0.986   3.055   2.150 -0.0573 -1.2118 -3.6391
  417SOL    HW2 1667   1.000   3.016   1.992 -1.6772 -0.9709 -2.5355
  417SOL     MW 1668   1.028   3.061   2.069 -0.1432 -0.0281 -0.1895
  418SOL     OW 1669   0.711   2.885   0.141  0.6533  0.2600  0.0511
  418SOL    HW1 1670   0.797   2.890   0.098  0.1217  0.3073 -1.6639
  418SOL    HW2 1671   0.645   2.875   0.069  0.3254  0.8579  0.5159
  418SOL     MW 1672   0.714   2.884   0.126  0.5399  0.3452 -0.1138
  419SOL     OW 1673   0.443   2.657   1.410 -0.2142  0.0493 -0.3175
  419SOL    HW1 1674   0.496   2.722   1.468  2.1143 -0.1290  1.0930
  419SOL    HW2 1675   0.502   2.646   1.334 -4.0171  1.9112  0.4228
  419SOL     MW 1676   0.458   2.664   1.408 -0.4088  0.2715 -0.0337
  420SOL     OW 1677   0.884   2.230   0.960  0.3284  0.7348  0.1600
  420SOL    HW1 1678   0.851   2.237   1.051  2.1758  0.4737  1.2141
  420SOL    HW2 1679   0.901   2.317   0.930 -3.1359  3.0745 -2.4177
  420SOL     MW 1680   0.882   2.242   0.968  0.1150  1.0090 -0.0411
  421SOL     OW 1681   2.953   0.046   0.019  0.2643  0.1433 -0.7411
  421SOL    HW1 1682   2.883   0.026  -0.043 -0.9634 -0.6127 -0.6734
  421SOL    HW2 1683   2.981  -0.039   0.056 -2.4937  0.5406 -2.8679
  421SOL     MW 1684   2.948   0.032   0.016 -0.2616  0.0960 -1.0128
  422SOL     OW 1685   0.895   2.552   0.884 -0.3470  0.6639 -0.0743
  422SOL    HW1 1686   0.858   2.631   0.920  1.5984  0.5869  0.1337
  422SOL    HW2 1687   0.842   2.543   0.800  0.9197  2.5167  0.1356
  422SOL     MW 1688   0.883   2.561   0.878  0.0768  0.8982 -0.0192
  423SOL     OW 1689   1.516   0.119   0.499 -0.7763 -0.3340 -0.2707
  423SOL    HW1 1690   1.491   0.069   0.418 -0.6398 -2.1337  0.9115
  423SOL    HW2 1691   1.476   0.205   0.469 -3.7963  0.2907 -0.8765
  423SOL     MW 1692   1.507   0.124   0.485 -1.1567 -0.4890 -0.1946
  424SOL     OW 1693   0.689   2.267   1.177  0.1226  0.0916  0.3017
  424SOL    HW1 1694   0.606   2.225   1.170  1.4218  1.1475  2.1709
  424SOL    HW2 1695   0.718   2.257   1.263  1.9730 -2.5018 -1.8044
  424SOL     MW 1696   0.681   2.260   1.188  0.5381 -0.1113  0.2704
  425SOL     OW 1697   1.726   2.826   1.989  0.5803 -0.3535  0.6301
  425SOL    HW1 1698   1.736   2.837   1.892 -1.0914  0.2100  0.3711
  425SOL    HW2 1699   1.750   2.733   1.999  0.8494 -1.5278  0.5692
  425SOL     MW 1700   1.730   2.815   1.978  0.3952 -0.4341  0.5879
  426SOL     OW 1701   0.803   1.697   1.949 -0.2662  0.6607  0.2590
  426SOL    HW1 1702   0.739   1.732   1.878 -0.6782 -2.3511 -0.6415
  426SOL    HW2 1703   0.808   1.765   2.015  2.1619 -2.9962 -0.5793
  426SOL     MW 1704   0.795   1.710   1.948 -0.0002 -0.2192  0.0296
  427SOL     OW 1705   0.377   1.621   1.904  0.2645  0.6625  0.2240
  427SOL    HW1 1706   0.440   1.557   1.936 -2.3402 -2.2967  3.0091
  427SOL    HW2 1707   0.298   1.569   1.899 -0.7533  1.3971 -0.5335
  427SOL     MW 1708   0.375   1.606   1.908 -0.2134  0.3690  0.4915
  428SOL     OW 1709   0.588   2.560   1.180 -0.2329  0.5987 -0.4053
  428SOL    HW1 1710   0.686   2.536   1.201  3.1252  1.6265  1.4416
  428SOL    HW2 1711   0.543   2.481   1.152 -2.1318  3.9685 -1.2165
  428SOL     MW 1712   0.595   2.547   1.179 -0.0404  1.1789 -0.2687
  429SOL     OW 1713   1.333   2.740   1.110 -0.2110  0.9087 -0.1199
  429SOL    HW1 1714   1.246   2.704   1.134  0.1429 -0.4297  0.0189
  429SOL    HW2 1715   1.306   2.813   1.057 -2.9930 -0.9829 -1.4417
  429SOL     MW 1716   1.318   2.745   1.106 -0.5313  0.4825 -0.2760
  430SOL     OW 1717   1.156   2.710   0.728  0.0486  0.4885  0.3278
  430SOL    HW1 1718   1.147   2.617   0.746 -0.4246  1.6400  1.9298
  430SOL    HW2 1719   1.124   2.713   0.639 -1.7992 -1.6928 -1.7080
  430SOL     MW 1720   1.151   2.698   0.719 -0.2576  0.3526  0.2706
  431SOL     OW 1721   0.324   1.927   1.081  0.8339 -0.1594  0.3324
  431SOL    HW1 1722   0.381   1.851   1.060  2.5745 -0.1550 -1.0737
  431SOL    HW2 1723   0.274   1.954   0.999 -1.2339  1.8373 -1.0920
  431SOL     MW 1724   0.325   1.920   1.067  0.7907  0.1046 -0.0411
  432SOL     OW 1725   0.043   3.083   1.154 -0.0806 -0.1168  0.6765
  432SOL    HW1 1726   0.089   3.144   1.213 -0.4108 -2.0701  1.2488
  432SOL    HW2 1727  -0.020   3.028   1.198 -0.1942  1.6484  0.2387
  432SOL     MW 1728   0.041   3.084   1.167 -0.1392 -0.1416  0.6942
  433SOL     OW 1729   0.612   2.850   1.534 -0.1341  0.5045  0.3985
  433SOL    HW1 1730   0.630   2.867   1.632  1.4960 -3.5278 -0.2985
  433SOL    HW2 1731   0.694   2.853   1.483  1.3204  1.9612  1.6972
  433SOL     MW 1732   0.625   2.853   1.540  0.2729  0.1646  0.4779
  434SOL     OW 1733   1.612   2.841   1.494 -0.1462  0.1374  0.8654
  434SOL    HW1 1734   1.519   2.854   1.504  1.1661  1.3237 -0.8756
  434SOL    HW2 1735   1.601   2.830   1.397 -0.8944 -0.9643 -0.2985
  434SOL     MW 1736   1.599   2.841   1.483 -0.0718  0.1486  0.4821
  435SOL     OW 1737   2.816   1.819   0.227  0.5424  0.1342  0.2907
  435SOL    HW1 1738   2.887   1.876   0.186  2.3613 -1.2909 -0.3921
  435SOL    HW2 1739   2.771   1.787   0.145  1.0072 -1.7943 -2.7030
  435SOL     MW 1740   2.820   1.822   0.210  0.8437 -0.3083 -0.1944
  436SOL     OW 1741   1.337   2.786   0.369  0.3804 -0.2750  0.7752
  436SOL    HW1 1742   1.421   2.779   0.421  0.2661 -1.0172  0.7317
  436SOL    HW2 1743   1.286   2.863   0.415 -0.2914 -0.1435  0.3480
  436SOL     MW 1744   1.342   2.796   0.382  0.2767 -0.3556  0.7131
  437SOL     OW 1745   0.882   2.880   1.402 -0.5210  0.3632 -0.1897
  437SOL    HW1 1746   0.877   2.973   1.371 -5.0593  1.7330  1.5513
  437SOL    HW2 1747   0.923   2.833   1.329 -1.4163  2.2050 -1.8851
  437SOL     MW 1748   0.886   2.886   1.388 -1.2379  0.7870 -0.1837
  438SOL     OW 1749   0.854   2.656   1.913  0.1748  0.3726  0.4496
  438SOL    HW1 1750   0.810   2.648   1.992 -1.4128 -1.4161 -0.3796
  438SOL    HW2 1751   0.803   2.598   1.855 -2.0883 -0.0120  0.8466
  438SOL     MW 1752   0.842   2.647   1.916 -0.3333  0.0859  0.3925
  439SOL     OW 1753   1.135   2.147   0.435  0.2124  0.1039  0.1371
  439SOL    HW1 1754   1.062   2.185   0.494  0.4233 -0.2560 -0.1741
  439SOL    HW2 1755   1.144   2.219   0.367  1.6320 -2.1844 -1.0396
  439SOL     MW 1756   1.126   2.161   0.434  0.4275 -0.2455 -0.0592
  440SOL     OW 1757   1.710   2.992  -0.001 -0.1246  0.1374  0.2550
  440SOL    HW1 1758   1.668   2.978   0.078  2.7872 -2.0411 -2.3084
  440SOL    HW2 1759   1.790   2.936   0.009 -0.8153 -1.1132 -1.9099
  440SOL     MW 1760   1.715   2.983   0.011  0.1685 -0.3150 -0.3688
  441SOL     OW 1761   0.315   2.654   0.499  0.5150 -0.3697 -0.2115
  441SOL    HW1 1762   0.290   2.631   0.414 -0.1263 -0.0546 -0.7066
  441SOL    HW2 1763   0.330   2.753   0.497  0.1343 -0.5431  0.1826
  441SOL     MW 1764   0.313   2.664   0.488  0.3801 -0.3510 -0.2249
  442SOL     OW 1765   3.067   2.389   0.615  0.1484  0.2356  0.2947
  442SOL    HW1 1766   3.093   2.479   0.616  1.9865  2.9024  2.5338
  442SOL    HW2 1767   2.983   2.384   0.655  0.3761  0.0237 -0.3871
  442SOL     MW 1768   3.060   2.400   0.621  0.4210  0.5595  0.5002
  443SOL     OW 1769   1.416   1.811   1.917  0.1560 -0.2444  0.7894
  443SOL    HW1 1770   1.384   1.853   1.837  2.5277  2.2810  0.4366
  443SOL    HW2 1771   1.382   1.726   1.923 -2.4771  1.4034  2.1325
  443SOL     MW 1772   1.407   1.805   1.907  0.1215  0.3062  0.9200
  444SOL     OW 1773   0.884   2.548   1.597  0.1276 -0.3302 -0.3274
  444SOL    HW1 1774   0.960   2.499   1.629  0.8130 -1.3788  0.5554
  444SOL    HW2 1775   0.808   2.502   1.639 -2.7501 -1.5122  0.6736
  444SOL     MW 1776   0.884   2.535   1.607 -0.1617 -0.6245 -0.0788
  445SOL     OW 1777   0.910   0.063   1.326  0.7520  0.8650  0.5560
  445SOL    HW1 1778   0.900   0.158   1.304 -3.7268  0.3799 -0.9180
  445SOL    HW2 1779   0.991   0.033   1.289 -2.1089  2.1284  0.3161
  445SOL     MW 1780   0.919   0.071   1.318 -0.2164  0.9677  0.3299
  446SOL     OW 1781   2.722   2.886   1.078  0.1868  0.3397  0.3084
  446SOL    HW1 1782   2.665   2.913   1.006  2.0874  0.2160  1.4556
  446SOL    HW2 1783   2.747   2.794   1.060 -1.0456  0.4673  0.0070
  446SOL     MW 1784   2.717   2.878   1.066  0.2750  0.3402  0.4200
  447SOL     OW 1785   0.031   2.041   1.677  0.5807 -0.1489 -0.3724
  447SOL    HW1 1786   0.064   1.977   1.744  1.6179 -1.8211  2.4370
  447SOL    HW2 1787  -0.034   1.995   1.623  1.0312 -0.4648 -3.3747
  447SOL     MW 1788   0.027   2.027   1.679  0.7770 -0.4112 -0.3978
  448SOL     OW 1789   1.709   2.376   1.678 -0.5668  0.4451 -0.5054
  448SOL    HW1 1790   1.644   2.305   1.660  1.6931  1.9532 -0.4793
  448SOL    HW2 1791   1.653   2.456   1.680 -0.2149  3.5171 -2.7030
  448SOL     MW 1792   1.693   2.377   1.676 -0.2222  1.0494 -0.7919
  449SOL     OW 1793   0.766   2.829   0.416  0.0304 -0.1952  0.3456
  449SOL    HW1 1794   0.742   2.849   0.325 -0.3772  1.0123  0.5184
  449SOL    HW2 1795   0.707   2.875   0.474  0.8200  0.3773 -0.0952
  449SOL     MW 1796   0.755   2.838   0.412  0.0808  0.0397  0.3102
  450SOL     OW 1797   1.208   2.439   0.669  0.4377  0.0565  0.5504
  450SOL    HW1 1798   1.236   2.394   0.742 -3.0650  0.6275 -0.9910
  450SOL    HW2 1799   1.298   2.462   0.635  1.7968 -0.1156  1.6832
  450SOL     MW 1800   1.223   2.436   0.674  0.1549  0.1091  0.4965
  451SOL     OW 1801   0.535   2.020   1.625  0.2247  0.2551 -0.0200
  451SOL    HW1 1802   0.598   2.091   1.630  2.8411  2.1292 -0.1701
  451SOL    HW2 1803   0.511   2.012   1.531  1.4905  1.3158 -0.6305
  451SOL     MW 1804   0.540   2.028   1.614  0.7369  0.6423 -0.1203
  452SOL     OW 1805   0.250   2.716   0.017 -0.0237  0.6278 -0.1692
  452SOL    HW1 1806   0.330   2.721  -0.031  1.5851 -1.1641 -0.2982
  452SOL    HW2 1807   0.189   2.767  -0.038  0.9364 -2.5103  0.3295
  452SOL     MW 1808   0.253   2.723   0.004  0.3152 -0.0227 -0.1204
  453SOL     OW 1809   0.359   2.899   1.682 -0.0321 -0.3438 -0.1176
  453SOL    HW1 1810   0.447   2.897   1.722  1.3274 -2.3432 -0.7919
  453SOL    HW2 1811   0.378   2.947   1.604 -0.7750  2.0601  3.3450
  453SOL     MW 1812   0.373   2.905   1.677  0.0492 -0.2904  0.2503
  454SOL     OW 1813   1.000   2.761   1.183  0.4991 -0.3966  0.0084
  454SOL    HW1 1814   0.944   2.683   1.196 -2.8764  0.6609  2.9549
  454SOL    HW2 1815   0.954   2.810   1.111  1.1665  0.1331 -1.4386
  454SOL     MW 1816   0.986   2.757   1.175  0.1418 -0.1872  0.2062
  455SOL     OW 1817   1.589   2.912   0.236  0.3459 -0.0920  0.5644
  455SOL    HW1 1818   1.649   2.896   0.307  0.0779 -0.5518 -2.4873
  455SOL    HW2 1819   1.555   2.822   0.202 -1.0192  0.8587 -0.9845
  455SOL     MW 1820   1.592   2.898   0.241  0.1304 -0.0272 -0.0426
  456SOL     OW 1821   2.834   0.321   1.362 -0.0848  0.2437  0.4154
  456SOL    HW1 1822   2.796   0.244   1.311 -0.2526  2.2292  2.1665
  456SOL    HW2 1823   2.918   0.337   1.314  0.2910 -1.7827 -0.6483
  456SOL     MW 1824   2.840   0.313   1.349 -0.0574  0.2383  0.5061
  457SOL     OW 1825   0.955   1.572   2.916  0.1571  0.4946  0.1318
  457SOL    HW1 1826   0.879   1.559   2.974 -0.5691  0.3317  1.1045
  457SOL    HW2 1827   1.002   1.488   2.899  1.3744  2.3501 -1.9321
  457SOL     MW 1828   0.951   1.559   2.921  0.2219  0.7179 -0.0122
  458SOL     OW 1829   1.487   1.401   0.555  0.6653  0.4086 -0.0834
  458SOL    HW1 1830   1.405   1.432   0.601 -1.0455  1.7334 -2.9514
  458SOL    HW2 1831   1.459   1.343   0.485  0.7772 -2.2303 -0.1011
  458SOL     MW 1832   1.473   1.398   0.552  0.4543  0.2352 -0.4641
  459SOL     OW 1833   1.489   0.059   0.237 -0.1385 -0.3522  0.2412
  459SOL    HW1 1834   1.502  -0.037   0.230 -0.7721 -0.3652 -2.1422
  459SOL    HW2 1835   1.411   0.094   0.195  0.3510 -0.9236  1.9583
  459SOL     MW 1836   1.480   0.051   0.231 -0.1575 -0.4293  0.1533
  460SOL     OW 1837   1.786   2.193   0.610 -0.7001  0.1911  0.0309
  460SOL    HW1 1838   1.697   2.179   0.643  0.8247  0.7122  3.3099
  460SOL    HW2 1839   1.830   2.105   0.595  1.1691  0.9568 -3.5547
  460SOL     MW 1840   1.780   2.179   0.612 -0.2523  0.3609 -0.0096
  461SOL     OW 1841   0.410   2.384   0.584 -0.2941  0.1392 -0.2798
  461SOL    HW1 1842   0.366   2.454   0.536 -2.2263 -1.7397 -0.6088
  461SOL    HW2 1843   0.388   2.413   0.669 -3.5528 -2.9526  0.4284
  461SOL     MW 1844   0.401   2.397   0.588 -0.9789 -0.5166 -0.2297
  462SOL     OW 1845   0.390   0.279   1.311  0.2060  0.6895 -0.0131
  462SOL    HW1 1846   0.438   0.236   1.243 -1.6469 -1.2267  2.6122
  462SOL    HW2 1847   0.455   0.332   1.361 -1.7849  1.2657 -0.4092
  462SOL     MW 1848   0.405   0.280   1.308 -0.3011  0.5127  0.2810
  463SOL     OW 1849   0.909   0.055   0.644  0.2307  0.6450  0.2316
  463SOL    HW1 1850   0.914   0.046   0.547 -0.1236  0.4764 -1.6583
  463SOL    HW2 1851   0.815   0.070   0.660 -0.4649 -1.6637 -1.0094
  463SOL     MW 1852   0.897   0.055   0.634  0.0922  0.3182 -0.1815
  464SOL     OW 1853   0.857   3.038   2.271 -0.0119 -0.4386 -0.0984
  464SOL    HW1 1854   0.830   2.948   2.292 -1.5584  1.0266  0.6601
  464SOL    HW2 1855   0.881   3.073   2.358  1.3914 -1.0650  4.0128
  464SOL     MW 1856   0.857   3.031   2.285 -0.0308 -0.3279  0.5441
  465SOL     OW 1857   0.668   0.305   0.504 -0.2329 -0.3945  0.0805
  465SOL    HW1 1858   0.655   0.259   0.589  0.6797  1.9885  1.3403
  465SOL    HW2 1859   0.692   0.232   0.451 -0.9162 -0.4358 -1.0638
  465SOL     MW 1860   0.669   0.289   0.508 -0.2026 -0.0855  0.0957
  466SOL     OW 1861   1.070   1.981   0.691 -0.1570 -0.1023  0.1024
  466SOL    HW1 1862   1.100   1.906   0.639 -0.5145 -0.6022 -1.3798
  466SOL    HW2 1863   1.100   2.059   0.646  4.5041  0.5507  1.0760
  466SOL     MW 1864   1.078   1.981   0.678  0.4108 -0.0821  0.0353
  467SOL     OW 1865   1.281   2.294   0.895 -0.2660 -0.1475 -0.1042
  467SOL    HW1 1866   1.366   2.322   0.918 -1.3381 -0.0868 -0.0074
  467SOL    HW2 1867   1.292   2.201   0.872 -2.0491 -0.2963 -0.8676
  467SOL     MW 1868   1.294   2.286   0.895 -0.6427 -0.1591 -0.1922
  468SOL     OW 1869   0.383   2.611   1.972  0.1722  0.5183  0.4452
  468SOL    HW1 1870   0.390   2.558   1.895  0.3426  1.2046  2.4751
  468SOL    HW2 1871   0.346   2.698   1.958 -0.0831  0.2562 -0.3004
  468SOL     MW 1872   0.379   2.615   1.960  0.1610  0.5743  0.6147
  469SOL     OW 1873   0.379   2.171   1.803  0.1607  0.2619 -0.2029
  469SOL    HW1 1874   0.292   2.138   1.837 -1.0019  2.0594  0.2787
  469SOL    HW2 1875   0.409   2.101   1.744  1.3871 -1.2093  0.1656
  469SOL     MW 1876   0.372   2.157   1.800  0.1691  0.3050 -0.0907
  470SOL     OW 1877   3.035   2.554   0.101  0.1230  0.8201 -0.2217
  470SOL    HW1 1878   2.987   2.515   0.178 -1.4099  1.7264 -2.2127
  470SOL    HW2 1879   2.980   2.545   0.023  0.1865 -2.1447 -0.0563
  470SOL     MW 1880   3.021   2.548   0.101 -0.0708  0.5485 -0.4626
  471SOL     OW 1881   1.168   2.740   1.421 -0.1549 -0.6685  0.0481
  471SOL    HW1 1882   1.098   2.754   1.485 -1.1684 -1.0786 -0.7295
  471SOL    HW2 1883   1.128   2.733   1.332  0.9242  2.7999  0.4546
  471SOL     MW 1884   1.154   2.741   1.418 -0.1463 -0.2650 -0.0009
  472SOL     OW 1885   2.949   2.104   0.409  0.1619  0.2074 -0.4615
  472SOL    HW1 1886   2.946   2.069   0.314  2.4679 -2.8161 -1.2215
  472SOL    HW2 1887   2.928   2.025   0.462 -0.8831 -0.1336 -0.6850
  472SOL     MW 1888   2.945   2.089   0.404  0.3283 -0.2365 -0.5913
  473SOL     OW 1889   0.848   2.530   1.304  0.6306  0.3932  0.2418
  473SOL    HW1 1890   0.901   2.448   1.289  0.5923  0.1547  2.0042
  473SOL    HW2 1891   0.820   2.529   1.397  1.3836 -0.0577 -0.5619
  473SOL     MW 1892   0.851   2.519   1.314  0.7249  0.3022  0.3683
  474SOL     OW 1893   0.814   2.171   1.755  0.5763  0.1565  0.4321
  474SOL    HW1 1894   0.903   2.214   1.787  3.4646 -2.4437 -0.5941
  474SOL    HW2 1895   0.841   2.169   1.663 -1.8863 -4.0671  2.3219
  474SOL     MW 1896   0.830   2.177   1.747  0.6325 -0.7438  0.5460
  475SOL     OW 1897   1.613   3.099   1.464  0.1743  0.0918  0.0366
  475SOL    HW1 1898   1.545   3.106   1.401  2.1829  1.0381  1.6473
  475SOL    HW2 1899   1.625   3.005   1.471  2.4538  1.5981 -2.1521
  475SOL     MW 1900   1.605   3.087   1.457  0.7401  0.4154 -0.0397
  476SOL     OW 1901   1.466   2.608   0.876 -0.2853  0.0853 -0.0750
  476SOL    HW1 1902   1.382   2.635   0.914 -3.7425  0.6554  3.2859
  476SOL    HW2 1903   1.493   2.692   0.831  0.0229 -0.8507 -1.4072
  476SOL     MW 1904   1.459   2.622   0.875 -0.7008  0.0370  0.1927
  477SOL     OW 1905   0.751   2.531   0.633  0.0648  0.0151  0.1161
  477SOL    HW1 1906   0.834   2.569   0.617 -1.4138 -1.9645  1.9775
  477SOL    HW2 1907   0.758   2.456   0.573  0.6592  0.3562 -0.9588
  477SOL     MW 1908   0.763   2.526   0.623 -0.0519 -0.2011  0.2199
  478SOL     OW 1909   0.106   2.694   0.927  0.2237  0.0909  0.2871
  478SOL    HW1 1910   0.120   2.781   0.890  1.5166  2.6949 -0.9545
  478SOL    HW2 1911   0.183   2.631   0.891  1.0507 -0.8822  2.0726
  478SOL     MW 1912   0.118   2.697   0.917  0.5034  0.3061  0.3588
  479SOL     OW 1913   1.412   1.952   1.290  0.1271  0.6203  0.0783
  479SOL    HW1 1914   1.377   2.008   1.363 -0.1248 -2.7507 -1.1256
  479SOL    HW2 1915   1.493   1.913   1.328  2.4009  0.4699  1.3627
  479SOL     MW 1916   1.418   1.954   1.305  0.3938  0.1557  0.0889
  480SOL     OW 1917   1.892   2.339   1.359 -0.1006 -0.1528 -0.2336
  480SOL    HW1 1918   1.885   2.252   1.400 -1.7116 -0.5664 -0.7041
  480SOL    HW2 1919   1.952   2.334   1.278  0.4853 -1.6246 -1.3906
  480SOL     MW 1920   1.899   2.327   1.354 -0.2358 -0.4015 -0.4483
  481SOL     OW 1921   1.183   3.089   1.130 -1.1031 -0.3971 -0.3379
  481SOL    HW1 1922   1.167   3.030   1.056  0.7504 -2.1454 -0.6051
  481SOL    HW2 1923   1.196   3.183   1.100 -2.0915 -0.8071  0.7779
  481SOL     MW 1924   1.183   3.094   1.116 -0.9890 -0.6819 -0.2260
  482SOL     OW 1925   0.931   3.060   0.385  0.3820 -0.1974 -0.8662
  482SOL    HW1 1926   0.860   2.991   0.378 -1.3832 -0.3857 -0.5197
  482SOL    HW2 1927   0.896   3.145   0.354 -0.1513  0.8666 -0.2503
  482SOL     MW 1928   0.917   3.062   0.380  0.0787 -0.0819 -0.7392
  483SOL     OW 1929   0.359   2.925   0.464 -0.4940 -0.2896  0.0038
  483SOL    HW1 1930   0.271   2.931   0.418  1.3351  0.3894 -0.5673
  483SOL    HW2 1931   0.353   2.972   0.552 -0.1605  0.0699  0.7826
  483SOL     MW 1932   0.347   2.932   0.470 -0.2087 -0.1525  0.0312
  484SOL     OW 1933   1.687   1.814   1.383  0.1130 -0.4165  0.1397
  484SOL    HW1 1934   1.735   1.898   1.391  0.4233 -0.5065 -1.5262
  484SOL    HW2 1935   1.675   1.784   1.475  0.6400  3.1419  1.7419
  484SOL     MW 1936   1.692   1.821   1.396  0.2235  0.0411  0.1313
  485SOL     OW 1937   0.532   2.429   0.307 -0.1888  0.5105 -0.3260
  485SOL    HW1 1938   0.564   2.394   0.388  1.3486  0.7207  3.6967
  485SOL    HW2 1939   0.477   2.507   0.325 -0.6150 -0.5618  1.7426
  485SOL     MW 1940   0.529   2.435   0.320 -0.0422  0.3967  0.4777
  486SOL     OW 1941   0.123   2.418   1.401  0.0007 -0.0842  0.7140
  486SOL    HW1 1942   0.137   2.496   1.349 -0.4311  0.0284  1.2891
  486SOL    HW2 1943   0.142   2.460   1.487 -3.2853  2.7317 -1.5128
  486SOL     MW 1944   0.128   2.434   1.405 -0.4898  0.3022  0.4961
  487SOL     OW 1945   1.273   1.577   1.068 -0.4268  0.0000  0.1658
  487SOL    HW1 1946   1.243   1.669   1.055  0.7051  0.3216 -1.5265
  487SOL    HW2 1947   1.361   1.565   1.031  3.6791 -0.7045 -1.6246
  487SOL     MW 1948   1.280   1.588   1.061  0.2643 -0.0505 -0.2937
  488SOL     OW 1949   1.671   1.867   0.548  0.3903  0.3391  0.3478
  488SOL    HW1 1950   1.754   1.892   0.501 -1.1170  0.3944  0.2042
  488SOL    HW2 1951   1.646   1.936   0.609 -0.0716 -0.3644  2.0360
  488SOL     MW 1952   1.679   1.880   0.549  0.1305  0.2536  0.5516
  489SOL     OW 1953   0.687   0.763   0.585 -0.0544 -0.3166 -0.3453
  489SOL    HW1 1954   0.724   0.680   0.558  1.2799 -0.6086 -2.3688
  489SOL    HW2 1955   0.694   0.759   0.678 -0.6667  1.5562 -0.6308
  489SOL     MW 1956   0.693   0.751   0.594  0.0409 -0.1080 -0.6499
  490SOL     OW 1957   1.419   2.084   0.432  0.1820 -0.7102 -0.9469
  490SOL    HW1 1958   1.463   2.153   0.389  1.8171 -0.0143 -1.3689
  490SOL    HW2 1959   1.327   2.112   0.454  1.9243  0.7878  0.5322
  490SOL     MW 1960   1.413   2.097   0.429  0.6276 -0.4207 -0.8074
  491SOL     OW 1961   1.194   2.997   0.478 -0.2250 -0.2474 -0.1375
  491SOL    HW1 1962   1.197   3.084   0.513 -3.2332 -2.6791  1.2038
  491SOL    HW2 1963   1.105   2.994   0.440  2.1601 -1.6402  0.8336
  491SOL     MW 1964   1.183   3.008   0.478 -0.3072 -0.7520  0.1676
  492SOL     OW 1965   1.537   2.096   0.667  0.8576 -0.4296 -0.1642
  492SOL    HW1 1966   1.511   2.091   0.576 -0.8701 -2.1150  2.1626
  492SOL    HW2 1967   1.455   2.080   0.712 -0.5839 -0.9303 -0.1675
  492SOL     MW 1968   1.523   2.093   0.661  0.4394 -0.7180  0.1423
  493SOL     OW 1969   0.118   2.915   0.354  0.0873 -0.0974  0.0025
  493SOL    HW1 1970   0.103   2.978   0.427 -3.0518 -0.3982 -0.6936
  493SOL    HW2 1971   0.162   2.955   0.277 -0.9936 -0.2585  1.7722
  493SOL     MW 1972   0.122   2.929   0.353 -0.4695 -0.1583  0.1441
  494SOL     OW 1973   0.383   2.440   1.733 -0.0839  0.3010 -0.3348
  494SOL    HW1 1974   0.368   2.350   1.775 -3.1539 -0.8104 -0.2732
  494SOL    HW2 1975   0.408   2.422   1.642  3.6723 -0.6189 -2.6957
  494SOL     MW 1976   0.384   2.426   1.727  0.0066  0.0330 -0.6382
  495SOL     OW 1977   2.909   1.702   2.708  0.1338  0.2907 -0.3447
  495SOL    HW1 1978   2.864   1.783   2.737 -0.6690  0.6778 -2.7929
  495SOL    HW2 1979   2.904   1.633   2.780  1.3366 -0.9568  0.6696
  495SOL     MW 1980   2.903   1.703   2.722  0.1866  0.1772 -0.5339
  496SOL     OW 1981   2.872   2.321   2.660  0.0166  0.2640  0.0751
  496SOL    HW1 1982   2.909   2.235   2.690  0.7549  1.8564  1.2062
  496SOL    HW2 1983   2.964   2.367   2.660  0.2978 -2.3430  0.6742
  496SOL     MW 1984   2.889   2.315   2.664  0.1511  0.1302  0.3034
  497SOL     OW 1985   1.564   2.284   2.597  0.4266 -0.0763 -0.0724
  497SOL    HW1 1986   1.502   2.233   2.545 -1.6444  1.3252  2.6132
  497SOL    HW2 1987   1.566   2.242   2.686  0.6716  1.1007  2.9822
  497SOL     MW 1988   1.556   2.272   2.602  0.1856  0.2639  0.6850
  498SOL     OW 1989   1.551   2.721   2.340 -0.5410  0.3628  0.4414
  498SOL    HW1 1990   1.532   2.631   2.307  2.2280  1.7637  2.8581
  498SOL    HW2 1991   1.637   2.694   2.376  2.1231 -2.0541  1.2585
  498SOL     MW 1992   1.560   2.706   2.340  0.1759  0.2287  0.8681
  499SOL     OW 1993   0.893   0.135   0.030  0.0521 -0.9006 -0.0156
  499SOL    HW1 1994   0.829   0.147   0.101 -3.0648 -0.4885 -0.1576
  499SOL    HW2 1995   0.911   0.036   0.018 -2.0190 -0.3293  0.1098
  499SOL     MW 1996   0.887   0.123   0.038 -0.6324 -0.7709 -0.0178
  500SOL     OW 1997   1.064   2.439   2.786  0.7590  0.4343  0.1434
  500SOL    HW1 1998   1.107   2.410   2.866  1.1479 -0.6242 -1.3745
  500SOL    HW2 1999   1.010   2.516   2.812  0.8950 -1.3198 -1.5000
  500SOL     MW 2000   1.062   2.446   2.800  0.8283  0.0632 -0.2737
  501SOL     OW 2001   1.723   2.304   3.093 -0.1391  0.2436  0.4618
  501SOL    HW1 2002   1.713   2.391   3.129 -2.0510  1.3449 -1.2583
  501SOL    HW2 2003   1.808   2.269   3.110 -3.4441 -0.9509  0.7135
  501SOL     MW 2004   1.733   2.311   3.100 -0.8274  0.2313  0.2681
  502SOL     OW 2005   0.073   2.873   2.961  0.3826 -0.1099 -0.6817
  502SOL    HW1 2006   0.025   2.798   2.922 -0.6171 -1.3976 -1.2643
  502SOL    HW2 2007   0.108   2.927   2.887  0.0044  1.2356 -2.4448
  502SOL     MW 2008   0.071   2.870   2.946  0.2008 -0.1023 -0.9912
  503SOL     OW 2009   1.164   2.616   1.989 -0.5356  0.4230 -0.4235
  503SOL    HW1 2010   1.247   2.629   1.952 -0.7782 -0.6060  3.6434
  503SOL    HW2 2011   1.109   2.641   1.918 -0.8670 -0.5513  1.1285
  503SOL     MW 2012   1.168   2.621   1.974 -0.6113  0.1587  0.3179
  504SOL     OW 2013   0.083   2.623   2.079 -0.7587  0.9679  0.4717
  504SOL    HW1 2014   0.172   2.580   2.087  1.0708 -0.1788 -1.3143
  504SOL    HW2 2015   0.018   2.554   2.061 -0.2720  1.9572 -0.5127
  504SOL     MW 2016   0.086   2.608   2.077 -0.4531  0.9471  0.1062
  505SOL     OW 2017   1.655   2.662   2.763 -0.1388  0.0998  0.1427
  505SOL    HW1 2018   1.695   2.645   2.679  1.0934 -1.6007  0.8873
  505SOL    HW2 2019   1.589   2.731   2.752 -0.5294 -0.0655 -2.4534
  505SOL     MW 2020   1.651   2.669   2.751 -0.0278 -0.1464 -0.1016
  506SOL     OW 2021   1.637   3.099   2.878  0.2233 -0.2744  0.1597
  506SOL    HW1 2022   1.684   3.054   2.951  0.7759  0.7207 -1.0252
  506SOL    HW2 2023   1.693   3.096   2.792  0.9753 -0.3054 -1.7586
  506SOL     MW 2024   1.650   3.093   2.876  0.3954 -0.1472 -0.2497
  507SOL     OW 2025   0.944   2.710   2.842  0.0404  0.4072  0.2237
  507SOL    HW1 2026   0.996   2.756   2.780 -0.8856  0.7427 -0.6637
  507SOL    HW2 2027   0.854   2.738   2.825 -1.3646 -1.1433  1.3672
  507SOL     MW 2028   0.939   2.719   2.832 -0.2672  0.2469  0.2575
  508SOL     OW 2029   1.251   2.111   2.508 -0.4375  0.0701 -0.1661
  508SOL    HW1 2030   1.299   2.111   2.600  1.6076 -0.7754 -0.3391
  508SOL    HW2 2031   1.185   2.174   2.527  4.2923 -0.0366 -2.5673
  508SOL     MW 2032   1.248   2.119   2.523  0.4564 -0.0555 -0.5057
  509SOL     OW 2033   0.656   2.590   2.799 -0.6195 -0.3684  0.2630
  509SOL    HW1 2034   0.640   2.545   2.716 -4.7997 -1.1432 -1.6264
  509SOL    HW2 2035   0.587   2.650   2.821  0.7280 -1.5426 -1.7339
  509SOL     MW 2036   0.645   2.592   2.791 -0.9932 -0.6256 -0.2498
  510SOL     OW 2037   1.538   2.601   1.646 -0.6949 -0.0270  0.6802
  510SOL    HW1 2038   1.602   2.671   1.609 -0.4579  1.7688 -1.7649
  510SOL    HW2 2039   1.488   2.641   1.723  4.2363 -0.7213  0.3877
  510SOL     MW 2040   1.540   2.615   1.651 -0.0130  0.1183  0.3190
  511SOL     OW 2041   0.422   2.621   2.462  0.0286  0.6623 -0.7514
  511SOL    HW1 2042   0.497   2.577   2.508  2.2901 -1.5708  2.5774
  511SOL    HW2 2043   0.445   2.647   2.376 -2.2354 -1.0344  0.8073
  511SOL     MW 2044   0.435   2.618   2.457  0.0282  0.1438 -0.1066
  512SOL     OW 2045   0.976   2.030   2.823 -0.0293 -0.5415 -0.3127
  512SOL    HW1 2046   0.923   2.087   2.887 -0.5618 -0.7533 -0.4318
  512SOL    HW2 2047   1.008   1.951   2.869 -1.7961 -0.2467 -0.4677
  512SOL     MW 2048   0.973   2.027   2.837 -0.3327 -0.5305 -0.3489
  513SOL     OW 2049   1.639   2.462   2.210  0.0236  0.2627  0.2957
  513SOL    HW1 2050   1.709   2.515   2.172 -2.1331  0.2070  0.3081
  513SOL    HW2 2051   1.671   2.391   2.264 -0.2109  1.6355 -0.3791
  513SOL     MW 2052   1.653   2.460   2.212 -0.2919  0.4365  0.2083
  514SOL     OW 2053   0.233   2.485   2.612 -0.1195  0.2215 -0.4019
  514SOL    HW1 2054   0.293   2.548   2.577  1.9478  0.7231  2.1268
  514SOL    HW2 2055   0.275   2.456   2.695 -4.9445 -1.3405 -2.8002
  514SOL     MW 2056   0.246   2.490   2.618 -0.4833  0.0816 -0.3847
  515SOL     OW 2057   1.116   2.015   1.987  0.1537  0.1084  0.3996
  515SOL    HW1 2058   1.087   2.105   1.982  3.1641  0.8466 -0.1931
  515SOL    HW2 2059   1.200   2.018   2.025  0.4046 -2.5677  0.9093
  515SOL     MW 2060   1.123   2.027   1.991  0.5840 -0.1473  0.3887
  516SOL     OW 2061   1.457   2.455   3.057  0.4957  0.3124  0.2403
  516SOL    HW1 2062   1.484   2.456   2.965  1.2106 -1.4532  1.8682
  516SOL    HW2 2063   1.362   2.448   3.058  2.0568 -0.3983 -0.8443
  516SOL     MW 2064   1.448   2.454   3.045  0.7960 -0.0144  0.3120
  517SOL     OW 2065   0.553   2.427   2.249 -0.0675  0.4855  0.2880
  517SOL    HW1 2066   0.486   2.470   2.304 -0.1918  1.6334  2.6311
  517SOL    HW2 2067   0.518   2.359   2.182  0.4565  0.8546 -2.5320
  517SOL     MW 2068   0.539   2.424   2.248 -0.0148  0.6856  0.2251
  518SOL     OW 2069   1.811   0.143   3.074 -0.7152  0.3399 -0.5910
  518SOL    HW1 2070   1.769   0.200   3.138  1.6335  2.1401 -1.1182
  518SOL    HW2 2071   1.767   0.059   3.091 -1.8578  0.8556 -0.8068
  518SOL     MW 2072   1.799   0.140   3.085 -0.5561  0.6455 -0.6891
  519SOL     OW 2073   0.691   2.453   1.773  0.3707 -0.9039 -0.3469
  519SOL    HW1 2074   0.709   2.361   1.780  0.3255 -0.0748 -2.0344
  519SOL    HW2 2075   0.595   2.455   1.767  1.4567 -1.9786  2.2589
  519SOL     MW 2076   0.681   2.441   1.773  0.5080 -0.9363 -0.2257
  520SOL     OW 2077   1.165   2.173   2.972  0.3237 -0.1531  0.2658
  520SOL    HW1 2078   1.097   2.122   2.923 -2.2233  1.4915  0.9513
  520SOL    HW2 2079   1.189   2.122   3.047 -1.5248  1.2717  0.5367
  520SOL     MW 2080   1.159   2.160   2.975 -0.2562  0.2518  0.3920
  521SOL     OW 2081   1.738   2.010   2.182 -0.1620  0.4289  0.1627
  521SOL    HW1 2082   1.762   2.016   2.093 -3.6197  0.7044  0.0891
  521SOL    HW2 2083   1.748   1.920   2.218 -2.8195  0.0214 -1.1686
  521SOL     MW 2084   1.742   1.999   2.175 -0.9688  0.4115 -0.0227
  522SOL     OW 2085   2.943   2.506   2.261 -0.4961  0.3251 -0.3734
  522SOL    HW1 2086   3.031   2.457   2.261  1.3978  1.7780  0.3310
  522SOL    HW2 2087   2.977   2.596   2.261 -1.7741 -2.3361  3.6282
  522SOL     MW 2088   2.959   2.511   2.261 -0.4149  0.1656  0.2475
  523SOL     OW 2089   0.927   1.509   2.127  0.4398  0.3933  0.1499
  523SOL    HW1 2090   0.876   1.549   2.058 -0.2967 -2.3045  3.1947
  523SOL    HW2 2091   0.980   1.445   2.080  0.2618 -1.3937 -0.3195
  523SOL     MW 2092   0.927   1.506   2.111  0.3192 -0.1984  0.4897
  524SOL     OW 2093   0.604   2.379   2.978  0.4861 -0.2107 -0.5150
  524SOL    HW1 2094   0.631   2.448   2.920  0.7301  0.1892  0.6464
  524SOL    HW2 2095   0.664   2.301   2.984 -0.5275 -1.1598 -0.7233
  524SOL     MW 2096   0.615   2.378   2.971  0.3846 -0.2832 -0.3893
  525SOL     OW 2097   0.424   2.266   2.061 -0.3142  0.8286 -0.5210
  525SOL    HW1 2098   0.372   2.199   2.116  1.7371 -1.0448  0.3255
  525SOL    HW2 2099   0.473   2.213   1.995 -0.0253 -2.0411 -5.8152
  525SOL     MW 2100   0.423   2.251   2.060 -0.0054  0.2028 -1.1078
  526SOL     OW 2101   0.663   2.079   1.994 -0.3769 -0.3414 -0.5707
  526SOL    HW1 2102   0.715   2.102   1.914 -1.1114 -2.9991  2.7095
  526SOL    HW2 2103   0.690   2.147   2.054 -0.1192 -0.0895  0.8115
  526SOL     MW 2104   0.674   2.091   1.991 -0.4398 -0.6588  0.0445
  527SOL     OW 2105   1.374   2.008   2.091  0.9687 -0.1361 -0.2991
  527SOL    HW1 2106   1.368   1.972   2.181  0.2819 -2.6261  1.5259
  527SOL    HW2 2107   1.398   1.928   2.040 -2.1284  0.0655 -1.3361
  527SOL     MW 2108   1.376   1.993   2.096  0.4694 -0.4381 -0.1951
  528SOL     OW 2109   0.718   2.919   2.874 -0.3051 -0.8735 -0.8186
  528SOL    HW1 2110   0.742   3.010   2.899  2.1018  0.6276 -2.2191
  528SOL    HW2 2111   0.652   2.927   2.798 -0.7138  0.4941 -2.1323
  528SOL     MW 2112   0.712   2.932   2.867 -0.0414 -0.4950 -1.1767
  529SOL     OW 2113   1.041   2.277   1.845  0.0565 -0.3227  0.0914
  529SOL    HW1 2114   1.015   2.300   1.938  2.5940  2.1048  1.1287
  529SOL    HW2 2115   1.104   2.338   1.818  0.2153  1.2000  0.5706
  529SOL     MW 2116   1.046   2.288   1.853  0.4123  0.1985  0.2915
  530SOL     OW 2117   1.184   2.420   3.053 -0.5607 -0.4204 -0.0674
  530SOL    HW1 2118   1.126   2.481   3.094 -0.3088  0.2249  0.8955
  530SOL    HW2 2119   1.125   2.345   3.048 -4.0335  2.5423 -1.3121
  530SOL     MW 2120   1.169   2.418   3.057 -0.9857  0.0557 -0.1046
  531SOL     OW 2121   0.979   1.867   2.587 -0.5101 -0.4030 -0.3933
  531SOL    HW1 2122   1.000   1.928   2.655 -2.0700 -0.3281 -1.3037
  531SOL    HW2 2123   0.917   1.808   2.634  0.5129 -0.5677 -0.6164
  531SOL     MW 2124   0.974   1.867   2.602 -0.5810 -0.4149 -0.5429
  532SOL     OW 2125   1.722   0.315   2.902 -0.6014 -0.3016 -0.1820
  532SOL    HW1 2126   1.716   0.232   2.957  0.9914  2.5501  1.3269
  532SOL    HW2 2127   1.817   0.331   2.900  3.6111  0.2634 -1.6947
  532SOL     MW 2128   1.734   0.306   2.909  0.1646  0.1492 -0.1825
  533SOL     OW 2129   1.792   2.662   2.986  0.4533 -0.0124  0.3127
  533SOL    HW1 2130   1.769   2.626   3.071 -3.8158  1.8245  0.4965
  533SOL    HW2 2131   1.718   2.670   2.919  0.1723  0.0815 -1.0289
  533SOL     MW 2132   1.779   2.658   2.989 -0.1471  0.2423  0.1599
  534SOL     OW 2133   1.797   2.349   2.463 -0.0124  0.1635  0.0230
  534SOL    HW1 2134   1.716   2.310   2.507 -0.0009 -3.3302  1.2170
  534SOL    HW2 2135   1.863   2.374   2.530  1.1567  2.4959  2.6535
  534SOL     MW 2136   1.795   2.347   2.478  0.1434  0.0103  0.5276
  535SOL     OW 2137   1.843   2.350   1.903  0.8480 -0.0111 -0.5636
  535SOL    HW1 2138   1.790   2.367   1.819  4.2612  0.2740 -1.8294
  535SOL    HW2 2139   1.932   2.378   1.887 -0.8242  0.9267  0.4237
  535SOL     MW 2140   1.848   2.356   1.890  1.0777  0.1502 -0.6003
  536SOL     OW 2141   0.442   1.887   2.020 -0.1420  0.0325  0.0111
  536SOL    HW1 2142   0.453   1.813   1.964  0.3856 -0.3925  1.2248
  536SOL    HW2 2143   0.505   1.953   1.983  1.1494  2.5664  0.1621
  536SOL     MW 2144   0.452   1.886   2.008  0.0980  0.3107  0.1912
  537SOL     OW 2145   1.040   0.163   2.891 -0.6216  0.3978  0.2919
  537SOL    HW1 2146   0.991   0.164   2.979 -0.9881 -0.7816  2.1758
  537SOL    HW2 2147   1.052   0.252   2.872 -0.3681  0.5683  0.9244
  537SOL     MW 2148   1.035   0.175   2.900 -0.6365  0.2647  0.6239
  538SOL     OW 2149   1.368   0.074   2.968 -0.0364  0.2370  0.1592
  538SOL    HW1 2150   1.355   0.170   2.974 -0.0882  0.5210  2.9786
  538SOL    HW2 2151   1.461   0.057   2.945 -0.9839 -0.6178 -1.0567
  538SOL     MW 2152   1.379   0.085   2.966 -0.1682  0.1617  0.3707
  539SOL     OW 2153   0.765   2.780   2.552 -0.1309  0.2657 -0.2431
  539SOL    HW1 2154   0.868   2.786   2.561  0.9125 -0.8908 -1.9091
  539SOL    HW2 2155   0.738   2.718   2.618 -1.7090  1.0282  1.3334
  539SOL     MW 2156   0.775   2.773   2.562 -0.2014  0.2137 -0.2549
  540SOL     OW 2157   0.351   2.384   2.841  0.5224  0.4548 -0.0775
  540SOL    HW1 2158   0.446   2.383   2.869  0.7525 -0.4243 -1.7689
  540SOL    HW2 2159   0.314   2.339   2.919 -0.1100  0.7820 -0.4721
  540SOL     MW 2160   0.359   2.378   2.855  0.4694  0.3820 -0.3527
  541SOL     OW 2161   0.183   2.926   2.213  0.1273 -0.2045  0.2038
  541SOL    HW1 2162   0.200   2.855   2.154  0.8835  0.8830 -0.8977
  541SOL    HW2 2163   0.218   2.899   2.296 -1.5453 -1.2363 -0.0419
  541SOL     MW 2164   0.190   2.913   2.216  0.0064 -0.1972  0.0261
  542SOL     OW 2165   1.009   2.254   2.578 -0.5046 -0.5371  0.3002
  542SOL    HW1 2166   0.950   2.176   2.603 -0.7643 -3.0009 -0.4888
  542SOL    HW2 2167   1.020   2.305   2.661  0.9673  0.8042  0.7991
  542SOL     MW 2168   1.002   2.251   2.592 -0.3447 -0.6852  0.2619
  543SOL     OW 2169   1.459   2.485   2.756 -0.2333 -0.4740  0.3652
  543SOL    HW1 2170   1.471   2.413   2.698 -0.7193  0.6839  0.4421
  543SOL    HW2 2171   1.537   2.547   2.748 -0.1516  3.0589  1.7369
  543SOL     MW 2172   1.471   2.484   2.747 -0.2866  0.1449  0.5563
  544SOL     OW 2173   0.671   0.243   2.676  0.6670 -0.4882  0.0850
  544SOL    HW1 2174   0.584   0.215   2.694  4.1175  2.4916 -0.8044
  544SOL    HW2 2175   0.713   0.177   2.625  0.8586 -2.0088  2.7915
  544SOL     MW 2176   0.665   0.231   2.672  1.1475 -0.2957  0.3247
  545SOL     OW 2177   1.580   2.165   2.320  0.6818 -0.4787 -0.4363
  545SOL    HW1 2178   1.535   2.206   2.249  0.6866 -2.2941  0.1702
  545SOL    HW2 2179   1.644   2.112   2.270  0.3915  1.6886 -0.6793
  545SOL     MW 2180   1.583   2.163   2.304  0.6441 -0.4323 -0.3884
  546SOL     OW 2181   2.969   2.011   0.129  0.6038 -0.1448 -0.1161
  546SOL    HW1 2182   2.959   2.092   0.068  2.5953 -0.9468  0.8131
  546SOL    HW2 2183   3.053   1.961   0.114  0.2787 -1.9452 -0.6380
  546SOL     MW 2184   2.979   2.015   0.119  0.8236 -0.4881 -0.0624
  547SOL     OW 2185   0.279   2.983   0.146  0.8314  0.5486 -0.4676
  547SOL    HW1 2186   0.333   3.043   0.104 -2.2394 -1.6148  1.2594
  547SOL    HW2 2187   0.309   2.896   0.105  0.3303 -1.9290  0.2828
  547SOL     MW 2188   0.290   2.980   0.135  0.3601 -0.0637 -0.1408
  548SOL     OW 2189   0.278   2.563   0.244 -0.0623 -0.1228  0.4121
  548SOL    HW1 2190   0.270   2.629   0.172 -0.5584  0.5244  1.1055
  548SOL    HW2 2191   0.241   2.491   0.201  3.9523  1.6042 -2.5449
  548SOL     MW 2192   0.272   2.562   0.229  0.4020  0.1904  0.1135
  549SOL     OW 2193   0.833   1.892   2.128  0.4972 -0.2937  0.3491
  549SOL    HW1 2194   0.767   1.949   2.096 -1.1753 -2.2835 -2.1530
  549SOL    HW2 2195   0.819   1.881   2.221  1.8417 -2.4211  0.0830
  549SOL     MW 2196   0.822   1.898   2.136  0.4539 -0.8369 -0.0161
  550SOL     OW 2197   1.795   1.704   2.538  0.1578  0.0671  0.0814
  550SOL    HW1 2198   1.818   1.739   2.450  1.0875  0.5917  0.2720
  550SOL    HW2 2199   1.791   1.794   2.578  3.5101 -0.3900  2.5100
  550SOL     MW 2200   1.797   1.720   2.532  0.7228  0.0760  0.4270
  551SOL     OW 2201   0.877   2.261   0.214  0.0754 -0.5979 -0.3176
  551SOL    HW1 2202   0.971   2.252   0.195  0.3887 -1.0000 -0.7548
  551SOL    HW2 2203   0.846   2.171   0.210 -0.0999 -2.1887 -0.8160
  551SOL     MW 2204   0.886   2.248   0.211  0.0936 -0.8608 -0.4411
  552SOL     OW 2205   1.762   1.737   2.256 -0.1481 -0.2283  0.5115
  552SOL    HW1 2206   1.683   1.697   2.285  5.1591  1.9155 -0.6767
  552SOL    HW2 2207   1.784   1.698   2.164  0.4287  0.4697 -0.5910
  552SOL     MW 2208   1.755   1.726   2.248  0.6283  0.1466  0.2093
  553SOL     OW 2209   1.185   2.313   1.456  0.0961 -0.1482 -0.4453
  553SOL    HW1 2210   1.240   2.237   1.474 -2.5950 -0.2632 -3.2264
  553SOL    HW2 2211   1.254   2.371   1.426  2.8723 -0.6828  2.6970
  553SOL     MW 2212   1.201   2.311   1.455  0.1073 -0.2339 -0.3976
  554SOL     OW 2213   0.554   2.920   2.668  0.0535  0.2502 -0.2600
  554SOL    HW1 2214   0.503   2.988   2.619  1.2167 -0.3132 -0.0311
  554SOL    HW2 2215   0.625   2.879   2.618 -1.2291  0.4451  1.6315
  554SOL     MW 2216   0.557   2.924   2.655  0.0378  0.2015  0.0198
  555SOL     OW 2217   0.632   2.455   2.572 -0.0374  0.3490 -0.1912
  555SOL    HW1 2218   0.583   2.377   2.590  2.6908  0.5391  0.5972
  555SOL    HW2 2219   0.706   2.440   2.510 -1.7127 -0.4778  1.0748
  555SOL     MW 2220   0.635   2.443   2.566  0.1015  0.2650  0.0799
  556SOL     OW 2221   0.937   1.800   0.162 -0.0699  0.7636  0.0394
  556SOL    HW1 2222   0.986   1.789   0.083  1.4200  1.4269  0.0119
  556SOL    HW2 2223   1.000   1.840   0.220 -0.7082 -0.1096 -0.7977
  556SOL     MW 2224   0.952   1.804   0.159  0.0424  0.7359 -0.0747
  557SOL     OW 2225   0.977   2.682   0.500  0.0327 -0.0885  0.0459
  557SOL    HW1 2226   1.016   2.623   0.434 -0.7472 -0.0485 -0.8475
  557SOL    HW2 2227   0.907   2.726   0.445  1.2966 -1.7010 -0.9609
  557SOL     MW 2228   0.973   2.680   0.484  0.0965 -0.2960 -0.2048
  558SOL     OW 2229   0.262   2.166   3.067  0.4508  0.6357 -0.8481
  558SOL    HW1 2230   0.216   2.083   3.066 -1.9560  0.9474 -3.4699
  558SOL    HW2 2231   0.214   2.225   3.123 -1.4482  0.1745  0.2498
  558SOL     MW 2232   0.249   2.162   3.074 -0.1173  0.6160 -1.0492
  559SOL     OW 2233   1.032   2.310   2.129 -0.7151  0.5938 -0.1786
  559SOL    HW1 2234   1.101   2.378   2.126  1.1448  1.2436  0.5970
  559SOL    HW2 2235   1.051   2.257   2.210 -0.0968 -4.3001  1.4987
  559SOL     MW 2236   1.043   2.312   2.139 -0.3881  0.0338  0.1450
  560SOL     OW 2237   1.945   2.854   0.053  0.6398 -0.0232 -0.8064
  560SOL    HW1 2238   2.028   2.866   0.009  1.9547  0.4427  0.3725
  560SOL    HW2 2239   1.901   2.783   0.013  0.7569 -1.1160 -0.7446
  560SOL     MW 2240   1.950   2.846   0.042  0.8288 -0.1059 -0.6427
  561SOL     OW 2241   0.428   2.181   0.213 -0.0999  0.5778 -0.0220
  561SOL    HW1 2242   0.394   2.177   0.126 -1.9846  3.7269 -3.5030
  561SOL    HW2 2243   0.457   2.274   0.219  0.4039 -0.7798 -2.9432
  561SOL     MW 2244   0.428   2.193   0.202 -0.2821  0.8142 -0.8667
  562SOL     OW 2245   0.784   2.219   2.216 -0.4634  0.2736 -0.4008
  562SOL    HW1 2246   0.848   2.291   2.198 -0.1425  1.1416 -0.8062
  562SOL    HW2 2247   0.842   2.150   2.233 -0.4504  1.6786  1.1884
  562SOL     MW 2248   0.800   2.220   2.216 -0.4193  0.5735 -0.2446
  563SOL     OW 2249   1.155   0.336   0.571  0.9182  0.1762 -0.4140
  563SOL    HW1 2250   1.109   0.296   0.497 -0.2437  1.3227 -0.2421
  563SOL    HW2 2251   1.196   0.262   0.619 -0.9960 -0.3723  0.9223
  563SOL     MW 2252   1.155   0.321   0.567  0.5124  0.2551 -0.2150
  564SOL     OW 2253   1.032   2.622   2.234  0.3904  0.2295 -0.6625
  564SOL    HW1 2254   1.051   2.644   2.142 -0.3524  0.4932  2.8643
  564SOL    HW2 2255   1.117   2.628   2.275 -1.1897 -1.3480 -1.6171
  564SOL     MW 2256   1.046   2.626   2.227  0.0839  0.0561 -0.3231
  565SOL     OW 2257   2.904   2.711   2.657 -0.2634  0.9367  0.2057
  565SOL    HW1 2258   2.954   2.774   2.602 -0.6906  1.2596 -1.7482
  565SOL    HW2 2259   2.818   2.700   2.624  0.5296  1.0170  1.1210
  565SOL     MW 2260   2.899   2.718   2.646 -0.2151  0.9899  0.0687
  566SOL     OW 2261   2.156   1.884   2.376  0.2082  0.4919 -0.3713
  566SOL    HW1 2262   2.154   1.844   2.290 -0.9559  0.0799 -0.1905
  566SOL    HW2 2263   2.218   1.960   2.371 -1.5344 -1.7475 -2.2853
  566SOL     MW 2264   2.164   1.888   2.364 -0.1753  0.1421 -0.6000
  567SOL     OW 2265   1.177   2.911   2.953  0.2613 -0.6853 -0.5039
  567SOL    HW1 2266   1.250   2.976   2.979  0.6619  0.2881 -0.0425
  567SOL    HW2 2267   1.226   2.833   2.953  0.8612 -3.9214 -1.6270
  567SOL     MW 2268   1.193   2.909   2.956  0.3933 -0.9839 -0.5912
  568SOL     OW 2269   1.608   2.129   2.887 -0.4415  0.4412 -0.1195
  568SOL    HW1 2270   1.635   2.206   2.940 -1.0282  2.3381 -1.8644
  568SOL    HW2 2271   1.688   2.101   2.831  0.3315  0.5757  0.7055
  568SOL     MW 2272   1.622   2.136   2.887 -0.4169  0.7093 -0.2409
  569SOL     OW 2273   0.173   2.239   2.477 -0.2386 -0.2403  0.4960
  569SOL    HW1 2274   0.127   2.269   2.392  0.9417  0.1632 -1.8246
  569SOL    HW2 2275   0.179   2.321   2.533  1.2442  2.7276 -2.1196
  569SOL     MW 2276   0.168   2.253   2.473  0.1128  0.2045 -0.1553
  570SOL     OW 2277   1.429   0.383   0.482 -0.7245 -0.1528  0.5380
  570SOL    HW1 2278   1.343   0.399   0.518 -2.7305  1.8457 -0.9706
  570SOL    HW2 2279   1.500   0.381   0.550  1.8543 -1.6337 -0.6353
  570SOL     MW 2280   1.427   0.384   0.495 -0.6489 -0.0845  0.1841
  571SOL     OW 2281   1.479   2.415   1.980  0.2628  0.1774  0.0304
  571SOL    HW1 2282   1.537   2.432   2.055  1.3153 -0.0212  1.6903
  571SOL    HW2 2283   1.487   2.322   1.947  0.4154  1.2882  0.5855
  571SOL     MW 2284   1.488   2.405   1.985  0.4218  0.2977  0.3226
  572SOL     OW 2285   0.934   2.632   0.035  0.5314  0.6499  0.0531
  572SOL    HW1 2286   0.922   2.673  -0.050  2.3166 -0.7472  0.2504
  572SOL    HW2 2287   0.845   2.626   0.076  0.2238  2.4699 -0.9546
  572SOL     MW 2288   0.921   2.636   0.029  0.7263  0.7057 -0.0539
  573SOL     OW 2289   1.168   2.339   0.259 -0.2581 -1.0875 -0.2911
  573SOL    HW1 2290   1.246   2.315   0.220 -2.2111  0.4236  0.6934
  573SOL    HW2 2291   1.164   2.440   0.262 -0.3748  0.8913 -1.3576
  573SOL     MW 2292   1.178   2.349   0.254 -0.5312 -0.6271 -0.3019
  574SOL     OW 2293   1.134   2.615   0.262  0.1839 -0.0367  0.5324
  574SOL    HW1 2294   1.203   2.673   0.285 -1.7688 -1.2680  0.7128
  574SOL    HW2 2295   1.085   2.654   0.194 -4.1560 -0.4342 -0.2011
  574SOL     MW 2296   1.136   2.628   0.256 -0.6463 -0.2516  0.4594
  575SOL     OW 2297   0.032   2.299   1.793  0.5280  0.3589 -0.0842
  575SOL    HW1 2298   0.050   2.213   1.757 -0.4119  0.6907  2.2918
  575SOL    HW2 2299   0.056   2.368   1.730 -0.6823  0.4235 -2.9464
  575SOL     MW 2300   0.038   2.297   1.780  0.2443  0.4112 -0.1484
  576SOL     OW 2301   2.838   1.824   2.069 -0.6183  0.3924  0.4319
  576SOL    HW1 2302   2.874   1.885   1.999 -0.7422 -0.4864  0.7959
  576SOL    HW2 2303   2.749   1.817   2.033 -1.0964 -0.4221  1.1676
  576SOL     MW 2304   2.831   1.831   2.055 -0.6977  0.1690  0.5770
  577SOL     OW 2305   2.095   0.202   0.086 -0.6538  0.1736  0.7539
  577SOL    HW1 2306   2.024   0.212   0.016  0.3043 -1.7841 -0.0444
  577SOL    HW2 2307   2.049   0.192   0.166 -0.9637 -3.0044 -1.9348
  577SOL     MW 2308   2.080   0.202   0.087 -0.5683 -0.5040  0.2938
  578SOL     OW 2309   1.907   2.032   2.396  0.2480 -0.2167 -0.4100
  578SOL    HW1 2310   1.849   2.015   2.321  1.8721 -1.4301 -0.2202
  578SOL    HW2 2311   1.978   1.965   2.384  3.5343  1.6955 -0.5691
  578SOL     MW 2312   1.909   2.021   2.384  0.8959 -0.1245 -0.4059
  579SOL     OW 2313   0.881   2.463   2.435 -0.1639 -0.2300 -0.7391
  579SOL    HW1 2314   0.938   2.390   2.476  0.9434 -2.1726 -1.3527
  579SOL    HW2 2315   0.931   2.522   2.379 -0.7376 -0.1353  0.7173
  579SOL     MW 2316   0.895   2.461   2.433 -0.0935 -0.4738 -0.6279
  580SOL     OW 2317   0.926   2.976   3.049  0.1120 -0.0063  0.0674
  580SOL    HW1 2318   1.020   2.949   3.030  1.1710 -0.2353  1.1585
  580SOL    HW2 2319   0.880   2.940   2.970 -1.5231 -3.4422  3.5202
  580SOL     MW 2320   0.933   2.967   3.036  0.0360 -0.4898  0.6670
  581SOL     OW 2321   1.197   2.476   1.696 -0.1094  0.1438 -0.2275
  581SOL    HW1 2322   1.222   2.573   1.697 -0.3411  1.0297  2.6388
  581SOL    HW2 2323   1.229   2.433   1.620 -4.0197  0.4013  0.7959
  581SOL     MW 2324   1.205   2.483   1.686 -0.6559  0.2947  0.2857
  582SOL     OW 2325  -0.001   2.862   2.540  0.2500 -0.0307  0.2722
  582SOL    HW1 2326  -0.035   2.936   2.587  0.0856 -0.5430  3.3774
  582SOL    HW2 2327   0.093   2.869   2.525  1.5951  0.7963  3.6551
  582SOL     MW 2328   0.007   2.873   2.544  0.4058  0.0108  1.1283
  583SOL     OW 2329   2.041   2.366   2.681 -0.0625  0.3549 -0.1237
  583SOL    HW1 2330   2.130   2.360   2.642 -0.1364 -0.5091  0.1022
  583SOL    HW2 2331   2.001   2.274   2.677 -1.0247 -1.3433  0.7300
  583SOL     MW 2332   2.047   2.353   2.676 -0.1992  0.0168  0.0187
  584SOL     OW 2333   0.236   1.819   2.207  0.2819 -0.2422  0.6547
  584SOL    HW1 2334   0.297   1.851   2.143  3.0769 -0.2336  0.7502
  584SOL    HW2 2335   0.209   1.896   2.255  0.4631  0.2315 -2.4593
  584SOL     MW 2336   0.241   1.833   2.205  0.6746 -0.1786  0.2564
  585SOL     OW 2337   1.493   2.663   0.158  1.2018  0.0633 -0.0048
  585SOL    HW1 2338   1.462   2.601   0.091  1.4486  1.3274  1.3807
  585SOL    HW2 2339   1.417   2.661   0.221  3.7079 -0.5208  0.8797
  585SOL     MW 2340   1.479   2.655   0.157  1.5650  0.1530  0.2947
  586SOL     OW 2341   1.363   2.844   2.523 -0.5525  0.1432  0.2595
  586SOL    HW1 2342   1.425   2.837   2.448  0.6824  1.1048 -2.8241
  586SOL    HW2 2343   1.384   2.936   2.550 -1.1078 -0.8107 -0.1318
  586SOL     MW 2344   1.374   2.855   2.517 -0.4629  0.1442 -0.1990
  587SOL     OW 2345   1.319   1.553   2.179  0.3774 -0.0603  0.2277
  587SOL    HW1 2346   1.298   1.464   2.213 -1.9062  0.6257  1.0473
  587SOL    HW2 2347   1.307   1.556   2.081  2.2518 -2.0340 -0.6560
  587SOL     MW 2348   1.315   1.541   2.170  0.3234 -0.2302  0.2192
  588SOL     OW 2349   1.374   2.117   2.752  0.0172 -0.2380 -0.0448
  588SOL    HW1 2350   1.454   2.087   2.801 -2.0877 -1.4845 -3.3916
  588SOL    HW2 2351   1.314   2.150   2.825 -0.9995  0.0481  0.9808
  588SOL     MW 2352   1.376   2.117   2.768 -0.3946 -0.3647 -0.3510
  589SOL     OW 2353   1.254   2.042   0.103 -0.1627 -0.3414  0.1865
  589SOL    HW1 2354   1.318   2.102   0.143 -1.4273  0.7690  1.1179
  589SOL    HW2 2355   1.234   1.978   0.172 -0.0466  2.5409  1.0916
  589SOL     MW 2356   1.260   2.041   0.117 -0.3142  0.1854  0.4288
  590SOL     OW 2357   0.429   2.765   2.203  0.5430  0.2818 -0.4791
  590SOL    HW1 2358   0.431   2.709   2.131 -0.2429  1.4594  1.1336
  590SOL    HW2 2359   0.508   2.812   2.193 -0.5712  0.5048  2.6280
  590SOL     MW 2360   0.440   2.764   2.192  0.2923  0.4666  0.1436
  591SOL     OW 2361   2.279   0.685   3.102 -0.7885 -0.7002  0.1166
  591SOL    HW1 2362   2.201   0.730   3.059 -0.4637  0.1984 -2.7996
  591SOL    HW2 2363   2.371   0.721   3.058  3.4220  1.2575 -0.4678
  591SOL     MW 2364   2.281   0.696   3.090 -0.1901 -0.3233 -0.3453
  592SOL     OW 2365   1.783   2.953   0.825 -0.9094  0.1539 -0.5214
  592SOL    HW1 2366   1.783   3.023   0.754 -0.0647  5.0841  0.0330
  592SOL    HW2 2367   1.838   2.880   0.787 -0.8211 -0.8125  0.1594
  592SOL     MW 2368   1.790   2.953   0.811 -0.7863  0.6769 -0.3584
  593SOL     OW 2369   1.926   0.704   0.863  0.1888 -0.0822 -0.3332
  593SOL    HW1 2370   1.843   0.702   0.810 -1.2743 -3.2176 -0.7807
  593SOL    HW2 2371   1.940   0.614   0.892  2.6380 -0.8144 -4.4144
  593SOL     MW 2372   1.917   0.692   0.860  0.3189 -0.5925 -0.9307
  594SOL     OW 2373   2.820   1.144   1.350 -0.1043 -0.1514  0.2534
  594SOL    HW1 2374   2.915   1.161   1.356  0.4327 -0.6067  0.9533
  594SOL    HW2 2375   2.824   1.100   1.264  0.6765  0.8124  1.2399
  594SOL     MW 2376   2.833   1.140   1.340  0.0696 -0.0843  0.4759
  595SOL     OW 2377   0.468   1.004   0.807 -0.1224  0.3523  0.1767
  595SOL    HW1 2378   0.489   1.064   0.732 -0.8938  1.8242 -1.8664
  595SOL    HW2 2379   0.448   1.050   0.891 -2.8348 -0.0115  4.4575
  595SOL     MW 2380   0.468   1.018   0.808 -0.5821  0.4985  0.4720
  596SOL     OW 2381   2.447   1.334   0.591 -0.1594 -0.3272  0.4594
  596SOL    HW1 2382   2.519   1.377   0.542  1.0593 -0.1052  0.6165
  596SOL    HW2 2383   2.481   1.292   0.668  2.2701  2.3518  2.8024
  596SOL     MW 2384   2.461   1.334   0.594  0.3219  0.0556  0.7893
  597SOL     OW 2385   2.186   0.737   1.608  0.4666  0.1378 -0.0268
  597SOL    HW1 2386   2.201   0.676   1.682  1.1009  0.6028  0.9935
  597SOL    HW2 2387   2.112   0.694   1.556 -1.7473  0.7049  0.9964
  597SOL     MW 2388   2.178   0.723   1.611  0.2582  0.2739  0.2428
  598SOL     OW 2389   2.596   1.010   2.870  0.1167 -0.0716 -0.0322
  598SOL    HW1 2390   2.584   0.974   2.783  0.6443 -0.5795  0.3029
  598SOL    HW2 2391   2.676   1.065   2.869  0.5910  2.4890  0.7076
  598SOL     MW 2392   2.605   1.013   2.859  0.2489  0.1993  0.1096
  599SOL     OW 2393   2.972   0.428   2.053 -0.1639 -0.4954  0.3961
  599SOL    HW1 2394   3.024   0.442   2.135  0.8135 -0.9678  1.0775
  599SOL    HW2 2395   3.003   0.508   2.000  0.2714 -1.1361  0.6199
  599SOL     MW 2396   2.983   0.441   2.057  0.0225 -0.6423  0.5155
  600SOL     OW 2397   1.898   1.617   0.857 -0.2318 -0.0117 -0.4432
  600SOL    HW1 2398   1.917   1.676   0.932 -0.5703 -2.3389  0.6782
  600SOL    HW2 2399   1.814   1.662   0.834 -0.3847 -1.8401 -1.3635
  600SOL     MW 2400   1.889   1.631   0.864 -0.2967 -0.5600 -0.4167
  601SOL     OW 2401   2.487   0.780   0.831 -0.7690 -0.2188 -0.1566
  601SOL    HW1 2402   2.458   0.796   0.919 -3.0945 -0.9384  1.8770
  601SOL    HW2 2403   2.423   0.723   0.789 -0.5500  1.7504  1.2427
  601SOL     MW 2404   2.475   0.775   0.837 -1.0470 -0.0539  0.2964
  602SOL     OW 2405   2.352   1.910   0.854 -0.0717  0.2605 -0.7379
  602SOL    HW1 2406   2.306   1.824   0.848 -0.5482  0.0218 -0.7303
  602SOL    HW2 2407   2.298   1.969   0.801 -0.7599  1.9894 -0.3555
  602SOL     MW 2408   2.339   1.906   0.846 -0.2253  0.4571 -0.6864
  603SOL     OW 2409   3.083   1.373   1.804  0.3376 -0.3268  0.4129
  603SOL    HW1 2410   3.153   1.414   1.854  0.4583 -0.4175 -0.7239
  603SOL    HW2 2411   3.060   1.285   1.834 -0.4388  0.3786 -1.2562
  603SOL     MW 2412   3.089   1.367   1.815  0.2511 -0.2457  0.0427
  604SOL     OW 2413   2.170   1.583   0.452 -0.1351  0.4594 -0.0378
  604SOL    HW1 2414   2.197   1.508   0.506 -1.6082 -0.8465 -1.4424
  604SOL    HW2 2415   2.102   1.634   0.511 -0.6493  0.0324 -0.3415
  604SOL     MW 2416   2.164   1.580   0.467 -0.3973  0.2308 -0.2632
  605SOL     OW 2417   2.616   1.527   0.829 -0.3719 -0.0432  0.1698
  605SOL    HW1 2418   2.581   1.585   0.752 -1.8886  0.1994  0.1550
  605SOL    HW2 2419   2.601   1.441   0.795  2.4523 -1.2891  0.1992
  605SOL     MW 2420   2.609   1.523   0.814 -0.1994 -0.1756  0.1717
  606SOL     OW 2421   2.539   1.787   1.987  0.6020 -0.9691  0.3975
  606SOL    HW1 2422   2.446   1.791   1.983 -0.0856 -0.5242  0.7556
  606SOL    HW2 2423   2.568   1.710   1.941  0.9429 -1.7913  1.9854
  606SOL     MW 2424   2.531   1.778   1.981  0.5563 -1.0188  0.6543
  607SOL     OW 2425   2.392   1.112   3.042 -0.3573  0.7751 -0.0297
  607SOL    HW1 2426   2.471   1.099   2.991  0.1313 -0.9222  0.9063
  607SOL    HW2 2427   2.407   1.083   3.135  0.5378  1.5446  2.5187
  607SOL     MW 2428   2.404   1.106   3.047 -0.1748  0.6527  0.4300
  608SOL     OW 2429   1.875   0.267   0.631  0.1139 -0.0949  0.2028
  608SOL    HW1 2430   1.863   0.295   0.534 -0.4041  0.3324  1.3265
  608SOL    HW2 2431   1.838   0.175   0.628  1.3599 -2.2181  1.5085
  608SOL     MW 2432   1.868   0.258   0.618  0.2099 -0.3186  0.5234
  609SOL     OW 2433   2.035   2.002   3.040  0.0304 -0.1769  0.1219
  609SOL    HW1 2434   1.961   1.945   3.053  1.5458  2.6591 -0.0337
  609SOL    HW2 2435   2.102   1.973   3.114  0.8355  1.1718 -1.6777
  609SOL     MW 2436   2.034   1.991   3.052  0.3365  0.3752 -0.1360
  610SOL     OW 2437   1.762   1.010   1.302 -0.0215 -0.3539 -0.1057
  610SOL    HW1 2438   1.796   0.951   1.239 -0.0050  3.1595 -0.6446
  610SOL    HW2 2439   1.669   0.996   1.297  1.1566  1.1682 -1.3379
  610SOL     MW 2440   1.754   1.000   1.293  0.1362  0.3105 -0.3394
  611SOL     OW 2441   2.524   1.752   0.691  0.1453 -0.8667  0.3500
  611SOL    HW1 2442   2.477   1.807   0.754  3.6301  1.7779 -1.2195
  611SOL    HW2 2443   2.495   1.754   0.604  1.4472 -1.8943  0.7309
  611SOL     MW 2444   2.514   1.760   0.688  0.7769 -0.6534  0.1932
  612SOL     OW 2445   2.790   2.828   0.415 -0.0679  0.2394  0.2601
  612SOL    HW1 2446   2.841   2.861   0.489 -1.4649  2.3316 -1.5635
  612SOL    HW2 2447   2.861   2.813   0.348 -0.7841  1.7703 -2.2247
  612SOL     MW 2448   2.806   2.830   0.416 -0.3467  0.7174 -0.3084
  613SOL     OW 2449   1.475   0.981   0.944  0.0244  0.3167 -0.5397
  613SOL    HW1 2450   1.561   1.019   0.915 -0.9824 -0.1563 -2.7412
  613SOL    HW2 2451   1.462   0.993   1.040 -1.8123  0.3296  0.3173
  613SOL     MW 2452   1.485   0.988   0.953 -0.3507  0.2560 -0.7171
  614SOL     OW 2453   2.011   0.553   1.469  0.0300  0.0471 -0.0314
  614SOL    HW1 2454   1.998   0.491   1.543 -0.9289 -1.5474 -2.4500
  614SOL    HW2 2455   1.965   0.529   1.393  2.0237  1.7188  1.3030
  614SOL     MW 2456   2.003   0.542   1.469  0.1665  0.0573 -0.1745
  615SOL     OW 2457   2.399   0.739   0.252 -0.1212 -0.0110  0.1624
  615SOL    HW1 2458   2.439   0.657   0.276  3.2107  0.7239 -2.3337
  615SOL    HW2 2459   2.346   0.733   0.172 -3.4488  2.9201 -0.4012
  615SOL     MW 2460   2.397   0.727   0.245 -0.1207  0.4727 -0.2413
  616SOL     OW 2461   2.510   0.405   1.641  1.2329  0.1511  0.2899
  616SOL    HW1 2462   2.456   0.324   1.623  0.0707 -0.5291  1.3803
  616SOL    HW2 2463   2.493   0.460   1.563 -1.2976 -2.4808 -0.8599
  616SOL     MW 2464   2.500   0.402   1.628  0.7457 -0.2859  0.2820
  617SOL     OW 2465   2.864   0.645   1.741 -0.4554  0.6641  0.5829
  617SOL    HW1 2466   2.789   0.643   1.796 -1.1235  0.3237  1.2438
  617SOL    HW2 2467   2.867   0.576   1.671 -1.7379  0.3522 -0.4428
  617SOL     MW 2468   2.855   0.635   1.739 -0.7127  0.5780  0.5348
  618SOL     OW 2469   2.714   0.380   1.894 -0.4077 -0.6011  0.2879
  618SOL    HW1 2470   2.671   0.457   1.926 -1.7664 -1.4259  4.0002
  618SOL    HW2 2471   2.797   0.374   1.943  1.8539 -1.3830 -1.2923
  618SOL     MW 2472   2.720   0.389   1.905 -0.2886 -0.8130  0.5692
  619SOL     OW 2473   2.670   0.636   0.089  0.2572  0.2299 -0.6876
  619SOL    HW1 2474   2.695   0.721   0.130  1.2778 -0.3064 -0.6653
  619SOL    HW2 2475   2.640   0.592   0.168  2.5265  0.4258  0.7648
  619SOL     MW 2476   2.669   0.642   0.105  0.6913  0.1850 -0.4930
  620SOL     OW 2477   2.241   1.051   1.005 -0.6976  0.4349  0.3516
  620SOL    HW1 2478   2.284   1.042   0.916 -1.3942  0.8745  0.2333
  620SOL    HW2 2479   2.149   1.026   0.983  0.9449  0.9451 -0.1502
  620SOL     MW 2480   2.235   1.047   0.990 -0.5728  0.5602  0.2698
  621SOL     OW 2481   1.544   2.158   1.925  0.1844  0.8626 -0.2714
  621SOL    HW1 2482   1.477   2.095   1.969  1.4194 -2.5666  1.0410
  621SOL    HW2 2483   1.631   2.128   1.952  1.5617 -1.2076  2.8301
  621SOL     MW 2484   1.547   2.145   1.934  0.5291  0.1370  0.3109
  622SOL     OW 2485   2.626   0.162   0.245  0.0599  0.3555 -0.2160
  622SOL    HW1 2486   2.720   0.182   0.245  0.1082 -1.2599  0.0760
  622SOL    HW2 2487   2.628   0.073   0.282  0.3103  0.0038 -0.3980
  622SOL     MW 2488   2.639   0.153   0.250  0.0993  0.0960 -0.2015
  623SOL     OW 2489   2.343   2.806   0.849 -0.0169 -1.0778 -0.5257
  623SOL    HW1 2490   2.424   2.864   0.841 -3.1786  1.5058  2.4357
  623SOL    HW2 2491   2.306   2.826   0.934  0.8976 -3.7525 -3.3369
  623SOL     MW 2492   2.349   2.817   0.859 -0.3134 -1.0898 -0.5059
  624SOL     OW 2493   2.184   1.723   2.993 -0.1403 -0.1789 -0.2977
  624SOL    HW1 2494   2.132   1.649   3.024  0.6061  2.4463  0.5353
  624SOL    HW2 2495   2.096   1.769   2.977  0.1364  0.5890  0.6584
  624SOL     MW 2496   2.165   1.719   2.995 -0.0053  0.2688 -0.0616
  625SOL     OW 2497   2.193   1.935   1.075  0.3590 -0.3358  0.9764
  625SOL    HW1 2498   2.264   1.905   1.130 -2.4074 -1.4065 -2.0630
  625SOL    HW2 2499   2.223   1.932   0.981 -0.8552 -0.9592  1.0069
  625SOL     MW 2500   2.206   1.930   1.070 -0.1662 -0.5593  0.5794
  626SOL     OW 2501   0.306   1.604   2.348  0.1294 -0.2388 -0.7221
  626SOL    HW1 2502   0.242   1.538   2.322  1.3637  0.5221  3.0056
  626SOL    HW2 2503   0.266   1.680   2.305  0.2866  1.7777  3.4541
  626SOL     MW 2504   0.292   1.605   2.339  0.3130  0.1277  0.3207
  627SOL     OW 2505   2.460   0.714   2.568 -0.6274 -0.0410 -1.0667
  627SOL    HW1 2506   2.413   0.785   2.613 -2.6791 -2.5631  1.2305
  627SOL    HW2 2507   2.411   0.685   2.492  1.8020 -0.7508 -1.3227
  627SOL     MW 2508   2.447   0.719   2.564 -0.5776 -0.4674 -0.7974
  628SOL     OW 2509   2.339   1.418   1.370 -0.1363 -0.0971 -0.3060
  628SOL    HW1 2510   2.285   1.365   1.313  0.7782  1.4831 -0.2453
  628SOL    HW2 2511   2.427   1.392   1.347  2.1509 -1.5295 -0.3721
  628SOL     MW 2512   2.343   1.407   1.359  0.2862 -0.0776 -0.3067
  629SOL     OW 2513   1.858   0.512   1.233  0.1721 -0.2554  0.6390
  629SOL    HW1 2514   1.866   0.600   1.194  0.0831  0.1747  0.9429
  629SOL    HW2 2515   1.761   0.493   1.233 -3.6282  1.0501 -0.2595
  629SOL     MW 2516   1.847   0.521   1.228 -0.3411 -0.0264  0.5605
  630SOL     OW 2517   2.435   1.844   2.974 -0.6369  0.2924  0.3896
  630SOL    HW1 2518   2.406   1.929   2.931 -0.2538 -1.2986 -1.0868
  630SOL    HW2 2519   2.353   1.793   2.979 -1.1472 -0.6756 -0.2123
  630SOL     MW 2520   2.420   1.849   2.969 -0.6537 -0.0452  0.1153
  631SOL     OW 2521   1.989   1.808   1.579  0.2831 -0.2887  0.8926
  631SOL    HW1 2522   2.000   1.720   1.614 -0.0387 -0.7424  1.4335
  631SOL    HW2 2523   1.996   1.792   1.485  1.2642  1.8465 -2.2300
  631SOL     MW 2524   1.991   1.794   1.572  0.3701 -0.0668  0.5520
  632SOL     OW 2525   0.179   1.965   1.427  0.3141 -0.1148 -0.4200
  632SOL    HW1 2526   0.177   1.971   1.521 -0.4879  0.1181 -1.1695
  632SOL    HW2 2527   0.173   1.866   1.401 -0.4441 -1.9209 -1.4340
  632SOL     MW 2528   0.178   1.953   1.436  0.1082 -0.3224 -0.6526
  633SOL     OW 2529   2.564   0.490   0.327 -0.2725 -0.1183 -0.0893
  633SOL    HW1 2530   2.598   0.520   0.409 -1.1188 -1.9701  0.6684
  633SOL    HW2 2531   2.559   0.394   0.327 -1.9409 -1.1766 -0.5844
  633SOL     MW 2532   2.568   0.482   0.337 -0.6043 -0.5023 -0.0546
  634SOL     OW 2533   2.656   0.012   0.652 -0.4562  0.3985  0.6476
  634SOL    HW1 2534   2.709   0.090   0.633 -2.4862  1.9959  1.6029
  634SOL    HW2 2535   2.618  -0.001   0.566 -0.2027  4.0835  1.9175
  634SOL     MW 2536   2.658   0.021   0.639 -0.6906  1.0955  0.9412
  635SOL     OW 2537   2.613   0.132   1.838  0.1274 -0.2541  0.2453
  635SOL    HW1 2538   2.690   0.099   1.795  0.5497 -0.6379  4.1244
  635SOL    HW2 2539   2.621   0.227   1.850 -0.8385  3.5098  1.1126
  635SOL     MW 2540   2.624   0.140   1.834  0.0557  0.1918  0.8716
  636SOL     OW 2541   2.842   1.600   1.076 -0.1127 -0.2022 -0.4898
  636SOL    HW1 2542   2.765   1.656   1.069  0.0992 -1.8650 -1.0460
  636SOL    HW2 2543   2.910   1.666   1.101 -1.6478  0.1018 -3.3806
  636SOL     MW 2544   2.841   1.616   1.079 -0.2873 -0.3815 -0.9446
  637SOL     OW 2545   2.873   1.442   0.754  0.3153  0.0090 -0.1553
  637SOL    HW1 2546   2.926   1.522   0.753 -0.2565 -1.8742  2.1867
  637SOL    HW2 2547   2.812   1.451   0.828 -1.7778 -0.5315  0.0772
  637SOL     MW 2548   2.872   1.454   0.763 -0.0363 -0.3108  0.1844
  638SOL     OW 2549   2.726   0.514   0.577 -0.4526  0.1847  0.5444
  638SOL    HW1 2550   2.799   0.551   0.522  0.8299  0.4233 -0.2519
  638SOL    HW2 2551   2.746   0.556   0.664 -1.7672  2.3858 -1.4154
  638SOL     MW 2552   2.739   0.524   0.581 -0.4569  0.5066  0.1808
  639SOL     OW 2553   1.760   0.024   0.615  0.0880 -0.5164 -0.1909
  639SOL    HW1 2554   1.676   0.051   0.587  0.0632 -1.5207  2.7506
  639SOL    HW2 2555   1.790  -0.030   0.537  0.8341  0.5518 -2.8375
  639SOL     MW 2556   1.753   0.021   0.601  0.1832 -0.5079 -0.1520
  640SOL     OW 2557   0.347   1.295   0.134 -0.5134  0.0292  0.2710
  640SOL    HW1 2558   0.366   1.293   0.037  1.7567  0.7332 -0.6015
  640SOL    HW2 2559   0.302   1.209   0.149  0.5992 -2.9393  1.2549
  640SOL     MW 2560   0.343   1.283   0.123 -0.0671 -0.2695  0.2857
  641SOL     OW 2561   2.164   0.395   0.366  0.0825 -0.3121  0.2734
  641SOL    HW1 2562   2.225   0.391   0.286  1.0819  0.7261 -1.1676
  641SOL    HW2 2563   2.213   0.355   0.441 -0.5305 -2.5546  2.2483
  641SOL     MW 2564   2.179   0.389   0.365  0.1335 -0.4710  0.3438
  642SOL     OW 2565   0.087   3.077   0.568 -0.2494  0.3367 -0.3021
  642SOL    HW1 2566   0.070   3.166   0.526  1.3491  2.0670 -0.0239
  642SOL    HW2 2567  -0.002   3.035   0.588  0.4225 -1.0146 -0.1123
  642SOL     MW 2568   0.073   3.083   0.565  0.0501  0.3867 -0.2403
  643SOL     OW 2569   1.983   0.337   1.616 -0.2589  0.1456 -0.2958
  643SOL    HW1 2570   1.925   0.293   1.679 -1.8043  0.3087  0.7509
  643SOL    HW2 2571   2.018   0.263   1.555 -1.5576 -3.7030  2.1751
  643SOL     MW 2572   1.980   0.322   1.617 -0.6341 -0.3407  0.1683
  644SOL     OW 2573   2.750   2.029   1.045  0.2951 -0.2717  0.0875
  644SOL    HW1 2574   2.713   1.964   1.101 -1.5218  1.6248 -0.1433
  644SOL    HW2 2575   2.675   2.069   0.994 -1.7082 -1.1146 -1.7321
  644SOL     MW 2576   2.735   2.026   1.046 -0.2089 -0.1327 -0.1830
  645SOL     OW 2577   2.853   0.827   0.643 -0.0059  0.1225 -0.4732
  645SOL    HW1 2578   2.945   0.808   0.656  2.0435  0.6350 -0.8129
  645SOL    HW2 2579   2.808   0.778   0.709 -1.2254 -1.0224 -0.4775
  645SOL     MW 2580   2.859   0.818   0.653  0.1036  0.0390 -0.5186
  646SOL     OW 2581   0.141   2.322   0.814 -1.0432  0.0695 -0.1847
  646SOL    HW1 2582   0.143   2.221   0.831  1.1126 -0.6152 -1.2290
  646SOL    HW2 2583   0.091   2.330   0.731 -0.4572  4.8359  2.5013
  646SOL     MW 2584   0.135   2.309   0.805 -0.6814  0.6081  0.0319
  647SOL     OW 2585   2.666   0.470   2.939  0.3490 -0.1346 -0.7340
  647SOL    HW1 2586   2.637   0.408   3.007 -0.0617  1.1227 -1.4509
  647SOL    HW2 2587   2.628   0.547   2.976 -1.0968 -1.1973 -0.3988
  647SOL     MW 2588   2.657   0.472   2.953  0.1041 -0.1090 -0.7843
  648SOL     OW 2589   2.080   0.741   1.196  0.1027  0.0498 -0.3786
  648SOL    HW1 2590   2.136   0.685   1.140  0.8399 -0.8301 -1.7578
  648SOL    HW2 2591   2.128   0.811   1.225 -1.5118 -2.5285  1.5425
  648SOL     MW 2592   2.094   0.743   1.193 -0.0131 -0.4065 -0.3071
  649SOL     OW 2593   2.389   2.672   1.267  0.0238  0.1882  0.0243
  649SOL    HW1 2594   2.467   2.717   1.299  4.5851 -0.8599 -1.8134
  649SOL    HW2 2595   2.415   2.582   1.278 -0.4547 -2.2240  1.5045
  649SOL     MW 2596   2.403   2.666   1.273  0.5625 -0.2683 -0.0229
  650SOL     OW 2597   2.844   0.213   0.626 -0.1131 -0.0251 -0.2659
  650SOL    HW1 2598   2.857   0.307   0.630  4.2451 -0.4524 -0.3234
  650SOL    HW2 2599   2.918   0.194   0.568  1.6686  2.4884 -1.5669
  650SOL     MW 2600   2.855   0.223   0.619  0.6970  0.2501 -0.4451
  651SOL     OW 2601   3.002   0.422   0.908  0.6518  0.1642  0.4830
  651SOL    HW1 2602   3.061   0.452   0.842  2.6939 -0.4054  1.2873
  651SOL    HW2 2603   2.983   0.499   0.961 -1.2335 -0.2115  0.9574
  651SOL     MW 2604   3.007   0.436   0.906  0.6725  0.0395  0.6517
  652SOL     OW 2605   2.466   1.496   2.993  0.4525  0.0043  0.7309
  652SOL    HW1 2606   2.503   1.484   2.903 -2.0331  1.0486 -2.2547
  652SOL    HW2 2607   2.425   1.587   2.990 -2.0147  3.6627 -1.8624
  652SOL     MW 2608   2.466   1.507   2.981 -0.2010  0.6248 -0.0052
  653SOL     OW 2609   1.806   0.409   0.405 -0.9272 -0.1690 -0.1586
  653SOL    HW1 2610   1.770   0.381   0.323  1.8952  3.7017 -1.1788
  653SOL    HW2 2611   1.891   0.447   0.378  0.9475  0.9778 -0.5912
  653SOL     MW 2612   1.813   0.411   0.390 -0.3075  0.4930 -0.3503
  654SOL     OW 2613   2.399   1.027   0.780  0.4839 -0.5201  0.1146
  654SOL    HW1 2614   2.345   1.003   0.703 -0.0860 -1.0812  1.5063
  654SOL    HW2 2615   2.427   0.937   0.798 -1.8294  1.9958 -1.7284
  654SOL     MW 2616   2.395   1.012   0.773  0.1035 -0.2622  0.0550
  655SOL     OW 2617   2.915   0.834   0.359  0.2891  0.2679  0.3277
  655SOL    HW1 2618   2.885   0.858   0.446 -1.5059  0.3526  0.8430
  655SOL    HW2 2619   2.913   0.738   0.357 -1.4313  2.5506 -0.3070
  655SOL     MW 2620   2.911   0.825   0.370 -0.1747  0.5802  0.3119
  656SOL     OW 2621   1.878   2.729   1.336  0.2497  0.3896 -0.3323
  656SOL    HW1 2622   1.934   2.804   1.343 -0.3949 -0.8295 -1.0460
  656SOL    HW2 2623   1.919   2.659   1.383 -2.6214  2.5278 -3.4073
  656SOL     MW 2624   1.891   2.729   1.343 -0.2141  0.5109 -0.8322
  657SOL     OW 2625   0.149   1.744   1.172  0.6045  0.4298 -0.0757
  657SOL    HW1 2626   0.212   1.813   1.152  1.9096 -1.5026  1.0702
  657SOL    HW2 2627   0.184   1.659   1.157  1.7866  2.6937 -2.4706
  657SOL     MW 2628   0.162   1.742   1.167  0.9327  0.4735 -0.2405
  658SOL     OW 2629   2.696   1.366   0.247 -0.3810  0.1998  0.4664
  658SOL    HW1 2630   2.650   1.289   0.302  0.1754  0.3438  0.9166
  658SOL    HW2 2631   2.737   1.424   0.310  0.8352 -0.9269 -1.1958
  658SOL     MW 2632   2.695   1.364   0.263 -0.1471  0.0702  0.3065
  659SOL     OW 2633   2.289   1.533   1.076 -0.4171  0.3455 -0.0038
  659SOL    HW1 2634   2.386   1.516   1.101  2.3071 -1.2122 -1.7560
  659SOL    HW2 2635   2.237   1.589   1.139  2.3868  1.2647 -1.5565
  659SOL     MW 2636   2.295   1.538   1.088  0.3123  0.2612 -0.4398
  660SOL     OW 2637   2.019   1.577   1.690  0.0103 -0.3008 -0.5574
  660SOL    HW1 2638   2.051   1.565   1.782  2.1785  1.4322 -1.9949
  660SOL    HW2 2639   1.948   1.510   1.674  0.5779  1.2312 -0.6241
  660SOL     MW 2640   2.014   1.567   1.700  0.3712  0.1300 -0.7559
  661SOL     OW 2641   2.439   1.010   0.190  0.5620  0.5443 -0.2053
  661SOL    HW1 2642   2.506   1.049   0.247 -0.5919 -0.2824  1.2491
  661SOL    HW2 2643   2.412   0.922   0.232 -1.4828 -0.5872  0.1403
  661SOL     MW 2644   2.444   1.003   0.203  0.1400  0.2860  0.0322
  662SOL     OW 2645   2.563   2.966   0.860  0.1053  0.6294  0.2043
  662SOL    HW1 2646   2.525   3.039   0.912  0.2935 -1.0370  0.6548
  662SOL    HW2 2647   2.604   3.006   0.781 -1.1416  0.3223 -0.1356
  662SOL     MW 2648   2.564   2.981   0.856 -0.0344  0.3690  0.2189
  663SOL     OW 2649   2.663   1.488   0.508 -0.7091  0.0024  0.0280
  663SOL    HW1 2650   2.648   1.568   0.466  1.3434 -1.8321  0.8016
  663SOL    HW2 2651   2.731   1.489   0.575 -0.2085 -1.1607  0.9994
  663SOL     MW 2652   2.670   1.498   0.511 -0.3723 -0.3931  0.2582
  664SOL     OW 2653   2.535   1.517   1.570  0.0922 -0.3258 -0.2733
  664SOL    HW1 2654   2.505   1.604   1.546  2.2170 -1.6754 -0.7637
  664SOL    HW2 2655   2.457   1.462   1.564 -0.0727  1.0011 -2.8519
  664SOL     MW 2656   2.521   1.521   1.566  0.3508 -0.3288 -0.6783
  665SOL     OW 2657   2.854   0.858   2.023 -0.0121  0.0304 -0.4538
  665SOL    HW1 2658   2.823   0.911   1.949 -0.4963 -1.6902  2.9294
  665SOL    HW2 2659   2.907   0.788   1.985 -2.9871  0.0018 -1.5338
  665SOL     MW 2660   2.857   0.856   2.008 -0.4685 -0.2004 -0.1499
  666SOL     OW 2661   2.758   3.021   1.709  0.1309  0.5877  0.3241
  666SOL    HW1 2662   2.755   3.035   1.615 -1.0767  0.1049  0.3771
  666SOL    HW2 2663   2.715   2.939   1.717  0.0805  4.2242 -0.5214
  666SOL     MW 2664   2.752   3.012   1.697 -0.0351  1.0038  0.2195
  667SOL     OW 2665   1.949   2.701   1.763  0.5683 -0.3374  0.4677
  667SOL    HW1 2666   1.988   2.674   1.845  1.8099 -0.9215 -1.8902
  667SOL    HW2 2667   2.022   2.749   1.718  0.5622 -0.4557 -1.6131
  667SOL     MW 2668   1.964   2.704   1.768  0.7313 -0.4300 -0.1180
  668SOL     OW 2669   2.758   0.653   0.829 -0.0246 -0.0672 -0.1082
  668SOL    HW1 2670   2.821   0.665   0.904  1.6515  0.5955 -1.1736
  668SOL    HW2 2671   2.671   0.686   0.848  4.3411 -1.1909 -0.4689
  668SOL     MW 2672   2.755   0.659   0.842  0.7726 -0.1281 -0.2964
  669SOL     OW 2673   0.209   0.966   0.685 -0.5274 -0.1772 -0.0363
  669SOL    HW1 2674   0.158   1.016   0.751 -1.8265  1.4413  2.2131
  669SOL    HW2 2675   0.304   0.970   0.710 -3.3059 -1.1208  2.9116
  669SOL     MW 2676   0.215   0.973   0.697 -1.0654 -0.0881  0.6494
  670SOL     OW 2677   2.891   0.223   0.200 -0.7728  0.1428  0.1974
  670SOL    HW1 2678   2.910   0.149   0.135  1.5638  2.1932 -0.5307
  670SOL    HW2 2679   2.908   0.307   0.153  2.8984 -0.6063 -2.6717
  670SOL     MW 2680   2.896   0.224   0.186  0.0199  0.3145 -0.2772
  671SOL     OW 2681   2.023   2.993   1.511  0.4148  0.5497  0.5359
  671SOL    HW1 2682   1.952   3.006   1.448 -1.2101  3.3534  2.0239
  671SOL    HW2 2683   1.999   3.052   1.586  0.8676  1.1688 -1.3566
  671SOL     MW 2684   2.011   3.002   1.513  0.2602  1.0013  0.4825
  672SOL     OW 2685   1.905   1.698   1.304 -0.0923  0.7471  0.0943
  672SOL    HW1 2686   1.819   1.740   1.312 -0.7473  0.7177  0.8433
  672SOL    HW2 2687   1.938   1.718   1.212 -0.2276  0.8627 -2.1137
  672SOL     MW 2688   1.898   1.706   1.293 -0.1966  0.7585 -0.0982
  673SOL     OW 2689   2.770   1.103   0.573 -0.3606 -0.2729  0.0819
  673SOL    HW1 2690   2.803   1.017   0.599 -0.3075  0.7479 -1.2959
  673SOL    HW2 2691   2.848   1.155   0.590  0.7660  4.1128 -0.4734
  673SOL     MW 2692   2.785   1.099   0.579 -0.2049  0.4405 -0.1732
  674SOL     OW 2693   2.440   0.024   1.281  0.0970 -0.6296 -0.6961
  674SOL    HW1 2694   2.436   0.032   1.185  0.8125 -0.8571  1.3683
  674SOL    HW2 2695   2.422  -0.068   1.292  1.4024 -1.0437 -3.5919
  674SOL     MW 2696   2.437   0.013   1.270  0.3637 -0.7142 -0.8058
  675SOL     OW 2697   3.060   0.883   1.074  0.3174  0.3833  0.0425
  675SOL    HW1 2698   3.141   0.866   1.127 -3.1673  0.8212 -0.1691
  675SOL    HW2 2699   3.088   0.944   1.005 -0.3438  0.3174  0.0540
  675SOL     MW 2700   3.075   0.889   1.072 -0.2296  0.4324  0.0161
  676SOL     OW 2701   2.885   1.514   1.648  0.6749 -0.3718  0.3206
  676SOL    HW1 2702   2.825   1.437   1.644 -2.6427  0.3927  0.3975
  676SOL    HW2 2703   2.968   1.501   1.688 -1.4547 -0.5839  1.7574
  676SOL     MW 2704   2.888   1.502   1.652 -0.0438 -0.2989  0.5203
  677SOL     OW 2705   2.416   0.555   1.997 -0.1757 -0.2335  0.3166
  677SOL    HW1 2706   2.371   0.533   1.912  0.8745 -1.1753 -2.1949
  677SOL    HW2 2707   2.378   0.637   2.020  2.7502 -0.6172  2.3199
  677SOL     MW 2708   2.405   0.563   1.988  0.3489 -0.4084  0.2496
  678SOL     OW 2709   2.579   1.673   0.308 -0.0357  0.3570 -0.1761
  678SOL    HW1 2710   2.509   1.732   0.350 -1.6848  1.1737  1.0080
  678SOL    HW2 2711   2.538   1.606   0.249 -0.4615 -1.4640 -2.7435
  678SOL     MW 2712   2.564   1.672   0.306 -0.3095  0.2245 -0.3586
  679SOL     OW 2713   2.230   0.468   1.244 -0.6554 -0.4578  0.2458
  679SOL    HW1 2714   2.229   0.385   1.195  0.4539 -0.4562 -1.4232
  679SOL    HW2 2715   2.143   0.505   1.259 -0.1301  0.0544  3.1614
  679SOL     MW 2716   2.219   0.462   1.239 -0.4397 -0.3900  0.4103
  680SOL     OW 2717   2.335   0.180   1.520 -0.1145 -0.1693 -0.0133
  680SOL    HW1 2718   2.234   0.177   1.503  3.3236  1.3192  1.4333
  680SOL    HW2 2719   2.370   0.131   1.451 -1.3342  0.9015  2.1511
  680SOL     MW 2720   2.326   0.173   1.509  0.1782  0.1684  0.4632
  681SOL     OW 2721   0.296   0.558   1.544  0.7347 -0.6386 -0.0472
  681SOL    HW1 2722   0.276   0.479   1.592  1.0748  2.8904 -2.6506
  681SOL    HW2 2723   0.378   0.589   1.582 -0.8155  0.8574  1.4036
  681SOL     MW 2724   0.304   0.552   1.556  0.5751  0.0244 -0.1993
  682SOL     OW 2725   0.069   2.888   1.497 -0.0872  0.1017  0.0183
  682SOL    HW1 2726   0.139   2.953   1.512 -0.1846 -1.0784  1.5471
  682SOL    HW2 2727   0.010   2.924   1.566  0.9969  0.0590  2.0382
  682SOL     MW 2728   0.070   2.902   1.508  0.0430 -0.0597  0.4865
  683SOL     OW 2729   2.039   0.825   2.994  0.3418 -0.1584  0.2715
  683SOL    HW1 2730   1.953   0.788   3.012 -1.1671  2.1640  1.5085
  683SOL    HW2 2731   2.018   0.917   2.996  0.4537 -0.0522 -1.7781
  683SOL     MW 2732   2.025   0.832   2.997  0.1575  0.1620  0.1643
  684SOL     OW 2733   2.217   1.681   0.828 -0.0024 -0.0764 -0.7515
  684SOL    HW1 2734   2.161   1.621   0.776 -0.4970 -0.5535  0.2549
  684SOL    HW2 2735   2.258   1.623   0.895  0.9044  0.5722  0.8663
  684SOL     MW 2736   2.215   1.666   0.830  0.0520 -0.0538 -0.4053
  685SOL     OW 2737   2.635   1.741   1.200 -0.2857  0.1501 -0.0277
  685SOL    HW1 2738   2.694   1.713   1.269 -0.2626  0.3718 -0.0924
  685SOL    HW2 2739   2.602   1.655   1.169  1.0223  0.7032  1.1739
  685SOL     MW 2740   2.639   1.726   1.205 -0.1100  0.2523  0.1223
  686SOL     OW 2741   2.895   0.784   1.510  0.0606  0.4242  0.2340
  686SOL    HW1 2742   2.868   0.774   1.602 -2.4929  1.0219 -1.4344
  686SOL    HW2 2743   2.989   0.794   1.510  0.0273  0.7303 -1.5441
  686SOL     MW 2744   2.904   0.784   1.522 -0.2807  0.5435 -0.2207
  687SOL     OW 2745   2.131   0.229   1.146  0.6054 -0.5347  0.3296
  687SOL    HW1 2746   2.162   0.148   1.102  2.3428 -0.0181  2.6168
  687SOL    HW2 2747   2.064   0.273   1.092  0.5057  0.9181  0.5140
  687SOL     MW 2748   2.126   0.224   1.133  0.8215 -0.2749  0.6557
  688SOL     OW 2749   2.394   0.584   1.451  0.6094  0.1623  0.3982
  688SOL    HW1 2750   2.334   0.527   1.391 -4.7700  1.6157 -1.4973
  688SOL    HW2 2751   2.322   0.630   1.501 -1.9241  0.1850  0.8970
  688SOL     MW 2752   2.376   0.582   1.450 -0.4346  0.3570  0.2139
  689SOL     OW 2753   2.522   0.756   2.997 -0.1415  0.4402  0.3240
  689SOL    HW1 2754   2.568   0.836   2.974  0.5736 -1.1073  1.8132
  689SOL    HW2 2755   2.569   0.737   3.074 -1.3300  0.6689 -4.5976
  689SOL     MW 2756   2.534   0.764   3.004 -0.2039  0.2662 -0.1289
  690SOL     OW 2757   2.040   0.941   1.896 -0.0698 -0.5632  0.1486
  690SOL    HW1 2758   1.989   0.856   1.903 -2.4175 -0.6923 -1.9489
  690SOL    HW2 2759   2.077   0.940   1.805  1.5982  1.7373 -1.8207
  690SOL     MW 2760   2.038   0.930   1.885 -0.1595 -0.2767 -0.3880
  691SOL     OW 2761   2.388   0.294   0.901  0.1018  0.6395  0.2863
  691SOL    HW1 2762   2.467   0.337   0.933  0.8445 -0.1508  0.9158
  691SOL    HW2 2763   2.323   0.364   0.888 -1.7274  0.0316 -1.0216
  691SOL     MW 2764   2.390   0.309   0.904 -0.0416  0.4551  0.1968
  692SOL     OW 2765   2.831   1.699   1.429  0.5827 -0.0425 -1.2015
  692SOL    HW1 2766   2.845   1.649   1.513  3.5664  1.7666  0.5449
  692SOL    HW2 2767   2.866   1.789   1.448  0.6242  2.2351 -0.4473
  692SOL     MW 2768   2.837   1.704   1.443  0.9818  0.4967 -0.8716
  693SOL     OW 2769   2.295   0.408   0.110  0.3305 -0.0001  0.5199
  693SOL    HW1 2770   2.209   0.362   0.087  1.9380 -1.5284 -1.2000
  693SOL    HW2 2771   2.304   0.485   0.062  1.4969 -2.7266 -0.7002
  693SOL     MW 2772   2.285   0.412   0.101  0.6965 -0.5615  0.1320
  694SOL     OW 2773   1.944   1.185   1.157  0.3953 -0.0958  0.8915
  694SOL    HW1 2774   2.036   1.208   1.168 -1.0650 -1.1127  3.1933
  694SOL    HW2 2775   1.925   1.127   1.228 -1.0071 -2.1632 -1.0812
  694SOL     MW 2776   1.954   1.181   1.168  0.0176 -0.5028  0.9349
  695SOL     OW 2777   3.010   1.493   1.340 -0.2499  0.6149  0.2075
  695SOL    HW1 2778   2.993   1.427   1.272  0.6589  0.8177 -0.1732
  695SOL    HW2 2779   2.941   1.558   1.344  2.3255  0.0554  0.0566
  695SOL     MW 2780   2.999   1.493   1.332  0.2098  0.5678  0.1374
  696SOL     OW 2781   2.154   1.347   0.855 -0.2844 -0.9528 -0.3286
  696SOL    HW1 2782   2.195   1.375   0.930  2.8620  0.8763 -3.3388
  696SOL    HW2 2783   2.069   1.313   0.887 -1.9207 -0.5029 -0.9471
  696SOL     MW 2784   2.148   1.346   0.869 -0.0851 -0.6521 -0.8074
  697SOL     OW 2785   2.929   1.059   2.190  0.0326 -0.2924  0.6252
  697SOL    HW1 2786   2.872   1.132   2.151  1.1737  0.6616 -3.2940
  697SOL    HW2 2787   2.900   0.984   2.141  0.8266  1.0703  1.4450
  697SOL     MW 2788   2.918   1.058   2.179  0.2879  0.0133  0.2163
  698SOL     OW 2789   2.513   0.296   0.016 -0.2928  0.0516 -0.0533
  698SOL    HW1 2790   2.435   0.340   0.058  1.1355  1.8768  0.0964
  698SOL    HW2 2791   2.549   0.239   0.087 -0.0036  0.8395 -2.6900
  698SOL     MW 2792   2.507   0.294   0.031 -0.0662  0.3963 -0.3814
  699SOL     OW 2793   1.827   1.635   2.023  0.2581 -0.1235  0.0188
  699SOL    HW1 2794   1.780   1.544   2.024 -2.7970 -0.2996 -1.9010
  699SOL    HW2 2795   1.924   1.634   1.995  0.3493  0.6686  3.7072
  699SOL     MW 2796   1.833   1.623   2.019 -0.1329 -0.0422  0.2521
  700SOL     OW 2797   2.663   0.965   1.486 -0.3018  0.4350  0.1214
  700SOL    HW1 2798   2.731   1.013   1.438 -1.5504  1.8889  0.0769
  700SOL    HW2 2799   2.703   0.874   1.494  0.4758 -0.1922  0.0518
  700SOL     MW 2800   2.677   0.959   1.481 -0.3639  0.5441  0.1063
  701SOL     OW 2801   1.631   1.193   2.483  0.4855 -0.2483 -0.7826
  701SOL    HW1 2802   1.717   1.219   2.453 -1.1969 -0.8207 -0.2221
  701SOL    HW2 2803   1.618   1.251   2.559  1.8189 -1.0997  2.7225
  701SOL     MW 2804   1.641   1.204   2.489  0.4394 -0.4362 -0.2462
  702SOL     OW 2805   2.168   0.434   0.823  0.0539  0.7777 -0.4397
  702SOL    HW1 2806   2.144   0.366   0.751  0.5026  1.3951 -0.3719
  702SOL    HW2 2807   2.208   0.501   0.767  1.1314  1.5008  1.5278
  702SOL     MW 2808   2.170   0.434   0.806  0.2553  0.9546 -0.1712
  703SOL     OW 2809   2.752   1.229   1.019 -0.0290 -0.5157  0.4473
  703SOL    HW1 2810   2.701   1.230   0.940 -0.9067  0.3729 -1.1779
  703SOL    HW2 2811   2.782   1.133   1.025  0.7531 -1.1946 -0.6944
  703SOL     MW 2812   2.749   1.217   1.010 -0.0416 -0.4880  0.0822
  704SOL     OW 2813   3.051   1.218   0.147 -0.6724 -0.9561 -1.1410
  704SOL    HW1 2814   2.978   1.207   0.092  1.0102  1.3967 -2.3955
  704SOL    HW2 2815   3.035   1.230   0.243  2.3514  1.2859  2.3284
  704SOL     MW 2816   3.039   1.218   0.152 -0.0515 -0.3499 -0.8488
  705SOL     OW 2817   2.189   1.653   1.305 -0.3835  0.3778 -0.6063
  705SOL    HW1 2818   2.099   1.635   1.321 -4.4764  1.6011  0.9610
  705SOL    HW2 2819   2.240   1.577   1.341 -0.4087 -3.8839 -1.4687
  705SOL     MW 2820   2.184   1.641   1.312 -0.9269 -0.0231 -0.5133
  706SOL     OW 2821   2.985   1.221   0.677  0.1047  0.4568  0.1949
  706SOL    HW1 2822   3.012   1.238   0.582  0.2240 -0.6630 -2.5128
  706SOL    HW2 2823   2.945   1.301   0.713  0.8971 -0.7395 -1.0108
  706SOL     MW 2824   2.983   1.233   0.669  0.2250  0.1512 -0.3215
  707SOL     OW 2825   2.425   0.040   1.019 -0.2926  0.3194  0.7099
  707SOL    HW1 2826   2.426   0.119   0.971  1.5493 -2.7848 -2.2751
  707SOL    HW2 2827   2.350  -0.010   0.975 -1.4841 -0.4213  1.3974
  707SOL     MW 2828   2.415   0.044   1.007 -0.2068 -0.1879  0.4067
  708SOL     OW 2829   2.447   1.446   0.166 -0.6056 -0.0028  0.4650
  708SOL    HW1 2830   2.537   1.424   0.194  1.9048 -1.1183 -0.5989
  708SOL    HW2 2831   2.443   1.455   0.070 -0.7260 -0.8611 -0.0794
  708SOL     MW 2832   2.458   1.445   0.157 -0.2902 -0.2632  0.2528
  709SOL     OW 2833   1.771   1.632   0.193  0.1346  0.4560 -0.0557
  709SOL    HW1 2834   1.781   1.649   0.094  1.6232  3.4884  1.3332
  709SOL    HW2 2835   1.691   1.670   0.233 -0.0522 -1.8375  1.7917
  709SOL     MW 2836   1.762   1.640   0.185  0.3064  0.5535  0.3713
  710SOL     OW 2837   2.200   1.245   1.199 -0.1918 -0.1709 -0.2528
  710SOL    HW1 2838   2.228   1.196   1.119  1.0165  0.4333 -1.9031
  710SOL    HW2 2839   2.194   1.166   1.260 -0.2755 -2.0763 -2.2086
  710SOL     MW 2840   2.203   1.228   1.197 -0.0434 -0.3426 -0.7286
  711SOL     OW 2841   2.351   0.121   1.786 -0.3934  0.2975 -0.1352
  711SOL    HW1 2842   2.446   0.122   1.800  0.5821 -1.4065 -1.9274
  711SOL    HW2 2843   2.359   0.116   1.688  3.0713 -2.5307 -1.1614
  711SOL     MW 2844   2.365   0.121   1.775  0.1925 -0.3005 -0.5071
  712SOL     OW 2845   1.940   0.527   0.083 -0.0531 -0.3956  0.6331
  712SOL    HW1 2846   1.876   0.532   0.008 -2.3319  1.2099  0.9914
  712SOL    HW2 2847   1.957   0.620   0.116 -0.5097  2.0474  2.7256
  712SOL     MW 2848   1.934   0.540   0.077 -0.4140  0.1386  0.9565
  713SOL     OW 2849   2.553   0.845   1.087  0.1993  0.0140 -0.6584
  713SOL    HW1 2850   2.562   0.760   1.130  1.0979  1.0458 -2.4163
  713SOL    HW2 2851   2.521   0.918   1.146 -3.3821 -0.4588  0.9871
  713SOL     MW 2852   2.550   0.843   1.100 -0.1546  0.0877 -0.6733
  714SOL     OW 2853   2.216   0.232   2.008  0.2521 -0.0343  0.2020
  714SOL    HW1 2854   2.227   0.183   2.090 -1.6468  0.0952 -2.6858
  714SOL    HW2 2855   2.283   0.197   1.946 -2.5757 -3.7989 -1.2164
  714SOL     MW 2856   2.227   0.221   2.010 -0.3716 -0.5139 -0.3662
  715SOL     OW 2857   1.742   1.939   1.648  0.4634 -0.3604 -0.4160
  715SOL    HW1 2858   1.821   1.889   1.619  2.7164 -1.9112  0.2138
  715SOL    HW2 2859   1.710   1.874   1.715  0.7148 -1.5479  1.1748
  715SOL     MW 2860   1.748   1.923   1.653  0.7938 -0.7217 -0.1230
  716SOL     OW 2861   2.318   0.623   0.695 -0.5203 -0.4154  0.3174
  716SOL    HW1 2862   2.364   0.542   0.666  1.0557  0.7702  1.1654
  716SOL    HW2 2863   2.279   0.649   0.610  1.0127 -0.4128 -0.2547
  716SOL     MW 2864   2.319   0.616   0.680 -0.1101 -0.2586  0.3538
  717SOL     OW 2865   2.872   1.548   2.933 -0.3851  0.1793 -0.1066
  717SOL    HW1 2866   2.958   1.554   2.977  1.1684  0.6208 -0.3708
  717SOL    HW2 2867   2.816   1.584   3.002  1.6623 -0.6169  1.4432
  717SOL     MW 2868   2.876   1.553   2.948  0.0900  0.1325  0.0631
  718SOL     OW 2869   2.688   1.388   1.330  0.4473 -0.1620  0.1039
  718SOL    HW1 2870   2.685   1.406   1.423 -0.2745  0.3557 -0.9251
  718SOL    HW2 2871   2.744   1.305   1.314  0.4011  0.2160 -0.0454
  718SOL     MW 2872   2.695   1.379   1.340  0.3460 -0.0438 -0.0516
  719SOL     OW 2873   2.178   1.281   0.589 -0.0824  0.0347 -0.1313
  719SOL    HW1 2874   2.272   1.296   0.579  1.3209  0.9817 -1.4029
  719SOL    HW2 2875   2.152   1.308   0.680 -0.1691  2.9792 -0.9972
  719SOL     MW 2876   2.187   1.287   0.600  0.0913  0.5481 -0.4133
  720SOL     OW 2877   2.776   1.206   0.018 -0.5828  0.1543 -0.3256
  720SOL    HW1 2878   2.741   1.125   0.053 -4.2549  0.1732  0.7936
  720SOL    HW2 2879   2.756   1.278   0.081 -2.4698  2.2278  0.9663
  720SOL     MW 2880   2.769   1.205   0.031 -1.3163  0.4304 -0.0075
  721SOL     OW 2881   2.454   0.865   1.368 -0.0858 -0.4832  0.2400
  721SOL    HW1 2882   2.454   0.779   1.409  1.7464  1.8885  3.0618
  721SOL    HW2 2883   2.538   0.910   1.405  0.1127  1.7685 -0.8791
  721SOL     MW 2884   2.465   0.859   1.379  0.1821  0.1268  0.4647
  722SOL     OW 2885   2.601   1.152   0.384  0.2510 -0.5543  0.0949
  722SOL    HW1 2886   2.514   1.166   0.431 -2.2823  0.6934 -2.2850
  722SOL    HW2 2887   2.669   1.138   0.459 -1.6343  1.1686 -0.1480
  722SOL     MW 2888   2.598   1.152   0.400 -0.3320 -0.1624 -0.2512
  723SOL     OW 2889   2.240   1.398   1.619 -0.3549 -0.1226 -0.0752
  723SOL    HW1 2890   2.279   1.388   1.527  1.7870 -0.2050  0.7689
  723SOL    HW2 2891   2.197   1.486   1.629 -0.7809  1.1305  1.9230
  723SOL     MW 2892   2.239   1.408   1.608 -0.1285  0.0319  0.2998
  724SOL     OW 2893   2.443   0.391   0.641 -0.0173 -0.2743 -0.2278
  724SOL    HW1 2894   2.419   0.337   0.713  0.2352  1.8794  1.5638
  724SOL    HW2 2895   2.538   0.405   0.650  0.6073 -1.4275 -0.1768
  724SOL     MW 2896   2.452   0.386   0.651  0.0985 -0.1423  0.0153
  725SOL     OW 2897   2.572   0.573   1.209 -0.6939  0.8787 -0.1154
  725SOL    HW1 2898   2.643   0.598   1.270  0.9477  0.7406  1.9026
  725SOL    HW2 2899   2.501   0.580   1.269 -1.0067 -2.1354  2.1821
  725SOL     MW 2900   2.572   0.577   1.225 -0.5186  0.4628  0.4540
  726SOL     OW 2901   2.589   2.444   0.544 -0.3277  0.2154  0.2016
  726SOL    HW1 2902   2.532   2.500   0.487  2.4204  2.7856 -1.7121
  726SOL    HW2 2903   2.540   2.412   0.617  2.3675 -1.1314 -2.8662
  726SOL     MW 2904   2.575   2.448   0.546  0.3905  0.3768 -0.4557
  727SOL     OW 2905   2.871   0.309   1.638 -0.2901  0.3298  0.2888
  727SOL    HW1 2906   2.850   0.285   1.546  0.2664  3.1000 -1.9629
  727SOL    HW2 2907   2.792   0.335   1.687  1.5044  0.6568  2.1185
  727SOL     MW 2908   2.858   0.309   1.632  0.0201  0.7384  0.2331
  728SOL     OW 2909   2.820   1.169   2.850  0.0179  0.1083 -0.0771
  728SOL    HW1 2910   2.790   1.236   2.783 -0.1925 -0.3001 -0.5192
  728SOL    HW2 2911   2.808   1.215   2.939  0.7475  1.6724 -1.1077
  728SOL     MW 2912   2.815   1.184   2.853  0.0864  0.2608 -0.2714
  729SOL     OW 2913   2.559   1.515   1.101 -0.0417 -0.3283 -0.3313
  729SOL    HW1 2914   2.624   1.459   1.148  1.4158 -2.9724 -0.8821
  729SOL    HW2 2915   2.581   1.510   1.004  0.6960  0.0965  1.0309
  729SOL     MW 2916   2.570   1.507   1.094  0.2479 -0.6211 -0.2243
  730SOL     OW 2917   2.159   1.185   0.212  0.3957 -0.1237  0.2966
  730SOL    HW1 2918   2.247   1.173   0.234  1.8763 -0.4671  0.8415
  730SOL    HW2 2919   2.127   1.267   0.252  0.8033  1.4326 -0.9414
  730SOL     MW 2920   2.166   1.194   0.221  0.6448  0.0363  0.2052
  731SOL     OW 2921   2.820   1.909   2.877 -0.2175  0.1658  0.3958
  731SOL    HW1 2922   2.748   1.923   2.810 -0.4705 -0.5625 -3.2211
  731SOL    HW2 2923   2.888   1.980   2.865  2.0604  1.3356 -0.7100
  731SOL     MW 2924   2.820   1.920   2.866  0.0497  0.2241 -0.2273
  732SOL     OW 2925   2.206   0.979   1.334  0.2984  0.8034 -0.2429
  732SOL    HW1 2926   2.185   0.980   1.426 -0.8254  1.6467 -1.7951
  732SOL    HW2 2927   2.287   0.929   1.335  0.6534 -0.2179 -0.2436
  732SOL     MW 2928   2.214   0.972   1.346  0.1969  0.7799 -0.4478
  733SOL     OW 2929   2.352   2.756   3.056  0.2309 -0.9238 -0.2578
  733SOL    HW1 2930   2.273   2.801   3.017 -0.9038  0.3364 -1.9409
  733SOL    HW2 2931   2.346   2.662   3.039 -2.6664  0.1151 -0.8646
  733SOL     MW 2932   2.341   2.750   3.049 -0.3011 -0.6205 -0.5600
  734SOL     OW 2933   1.456   0.383   2.445  0.1244  0.4866  0.0214
  734SOL    HW1 2934   1.465   0.337   2.527  0.8387  2.5439  0.6880
  734SOL    HW2 2935   1.498   0.328   2.374  0.5579 -0.2015 -1.2147
  734SOL     MW 2936   1.462   0.369   2.446  0.2758  0.6672 -0.0538
  735SOL     OW 2937   2.918   0.893   2.601 -0.1630 -0.6086  0.0458
  735SOL    HW1 2938   2.910   0.799   2.588 -2.1117  0.4691  0.9449
  735SOL    HW2 2939   2.985   0.907   2.673  2.0685 -1.5199 -0.5864
  735SOL     MW 2940   2.926   0.882   2.609 -0.1257 -0.5866  0.0810
  736SOL     OW 2941   0.127   0.568   2.521  0.0927  0.1388 -0.1275
  736SOL    HW1 2942   0.189   0.632   2.497  0.8064 -0.5466  0.0920
  736SOL    HW2 2943   0.098   0.526   2.442  1.1945 -0.6360  0.9034
  736SOL     MW 2944   0.131   0.571   2.508  0.3323 -0.0539  0.0375
  737SOL     OW 2945   2.953   0.625   2.543 -0.7076 -0.1802  0.0424
  737SOL    HW1 2946   2.912   0.591   2.463 -0.4937  2.0084 -0.4657
  737SOL    HW2 2947   3.046   0.618   2.519 -0.6875 -1.9247  1.7091
  737SOL     MW 2948   2.960   0.619   2.529 -0.6768 -0.1216  0.1952
  738SOL     OW 2949   0.200   0.594   1.886  0.0180  0.0857 -0.0801
  738SOL    HW1 2950   0.281   0.604   1.934 -1.4402 -0.5405 -1.5738
  738SOL    HW2 2951   0.208   0.507   1.845  0.8645  2.4108 -0.2210
  738SOL     MW 2952   0.212   0.584   1.887 -0.0627  0.3099 -0.2957
  739SOL     OW 2953   2.435   1.077   2.084  0.0939 -0.1373 -0.5574
  739SOL    HW1 2954   2.416   0.979   2.077  0.5491 -0.8784 -0.5376
  739SOL    HW2 2955   2.461   1.105   1.997  2.0060 -0.7349 -0.9070
  739SOL     MW 2956   2.436   1.068   2.072  0.4062 -0.3140 -0.6010
  740SOL     OW 2957   0.242   1.764   2.963  0.0579 -0.4981  0.5607
  740SOL    HW1 2958   0.193   1.682   2.980 -0.4509  0.7265  1.7251
  740SOL    HW2 2959   0.328   1.739   3.000  0.0787 -1.1586  2.3515
  740SOL     MW 2960   0.247   1.750   2.970 -0.0065 -0.4237  0.9506
  741SOL     OW 2961   2.270   1.241   2.715 -0.0451 -0.5195  0.0279
  741SOL    HW1 2962   2.195   1.280   2.674 -1.3675 -2.0130  0.9830
  741SOL    HW2 2963   2.274   1.285   2.798 -0.4851 -1.6020  0.4459
  741SOL     MW 2964   2.260   1.252   2.720 -0.2776 -0.8594  0.2091
  742SOL     OW 2965   1.523   1.266   2.211 -0.2593  0.0059  0.1267
  742SOL    HW1 2966   1.529   1.173   2.185 -2.1454 -0.5599 -0.5476
  742SOL    HW2 2967   1.558   1.270   2.301 -0.3150 -0.9867 -0.6034
  742SOL     MW 2968   1.529   1.254   2.219 -0.5155 -0.1997 -0.0586
  743SOL     OW 2969   2.535   1.267   2.785  0.2764 -0.3711 -0.3569
  743SOL    HW1 2970   2.443   1.254   2.756 -2.9969 -0.9765  1.5601
  743SOL    HW2 2971   2.571   1.174   2.814  0.2959  1.5518 -0.9496
  743SOL     MW 2972   2.528   1.253   2.785 -0.1529 -0.1973 -0.1822
  744SOL     OW 2973   2.744   0.952   1.752  1.0022  0.1290 -0.2359
  744SOL    HW1 2974   2.665   0.991   1.797  0.8808 -0.1603  0.1480
  744SOL    HW2 2975   2.716   0.967   1.657  1.2315 -1.6507 -2.5367
  744SOL     MW 2976   2.730   0.959   1.745  1.0165 -0.1440 -0.4888
  745SOL     OW 2977   1.731   0.441   2.500 -0.0646  0.2078 -0.3671
  745SOL    HW1 2978   1.719   0.477   2.413 -0.5367 -2.9726  1.3215
  745SOL    HW2 2979   1.649   0.442   2.553 -1.8802  2.2922 -0.7602
  745SOL     MW 2980   1.719   0.446   2.496 -0.3664  0.0632 -0.1962
  746SOL     OW 2981   1.539   1.433   1.621 -0.0104  0.2851 -0.4973
  746SOL    HW1 2982   1.613   1.485   1.652  1.1598  1.6958 -1.0606
  746SOL    HW2 2983   1.509   1.397   1.706 -0.2497 -2.5691 -0.3961
  746SOL     MW 2984   1.544   1.435   1.636  0.1124  0.0947 -0.5583
  747SOL     OW 2985   2.533   1.114   1.834 -0.1214  0.1679 -0.3408
  747SOL    HW1 2986   2.446   1.145   1.821  1.1462  4.3604  0.1608
  747SOL    HW2 2987   2.578   1.188   1.872 -0.8650 -0.5769  3.2422
  747SOL     MW 2988   2.527   1.127   1.838 -0.0523  0.6228  0.1981
  748SOL     OW 2989   0.121   0.069   1.823 -0.0293  0.1266  0.1074
  748SOL    HW1 2990   0.182   0.018   1.874  1.0175 -2.1113  1.1049
  748SOL    HW2 2991   0.067   0.116   1.889 -2.6712 -1.3141  1.0861
  748SOL     MW 2992   0.122   0.069   1.839 -0.2398 -0.3588  0.3682
  749SOL     OW 2993   2.411   0.564   2.809  0.4618  0.0165 -0.2269
  749SOL    HW1 2994   2.439   0.595   2.725  0.5928  0.7170  0.9911
  749SOL    HW2 2995   2.457   0.628   2.861  1.7737  1.8688  2.5032
  749SOL     MW 2996   2.421   0.577   2.805  0.6522  0.3533  0.2940
  750SOL     OW 2997   2.068   0.010   1.954  0.2145  0.6182 -0.2664
  750SOL    HW1 2998   2.112   0.093   1.952 -1.4662 -0.2432  1.4334
  750SOL    HW2 2999   2.131  -0.064   1.941  1.1989 -0.0522 -1.7569
  750SOL     MW 3000   2.082   0.011   1.952  0.1226  0.4161 -0.2388
  751SOL     OW 3001   0.014   0.420   2.317 -0.1757 -0.7593 -0.6456
  751SOL    HW1 3002  -0.058   0.353   2.309 -0.3477  0.2988  0.1810
  751SOL    HW2 3003   0.093   0.385   2.278  0.0893  0.6290 -0.0319
  751SOL     MW 3004   0.015   0.406   2.311 -0.1634 -0.4365 -0.4555
  752SOL     OW 3005   2.108   0.848   2.718  0.0884 -0.4114  0.2723
  752SOL    HW1 3006   2.182   0.904   2.691 -0.8210  1.7079 -1.0190
  752SOL    HW2 3007   2.100   0.846   2.811 -0.8509  1.1477 -0.3952
  752SOL     MW 3008   2.117   0.855   2.726 -0.1555  0.0739  0.0139
  753SOL     OW 3009   2.891   0.252   2.351  0.1792 -0.6051  0.3649
  753SOL    HW1 3010   2.820   0.188   2.332  1.8550 -1.7634  1.5106
  753SOL    HW2 3011   2.847   0.340   2.351 -1.8588  1.2458 -0.8148
  753SOL     MW 3012   2.876   0.255   2.349  0.1314 -0.5137  0.3604
  754SOL     OW 3013   2.235   3.007   2.673 -0.0392 -0.0102  0.0265
  754SOL    HW1 3014   2.254   3.023   2.574  0.3328  0.8980 -0.8104
  754SOL    HW2 3015   2.291   2.930   2.691  0.8892  0.5546  0.3235
  754SOL     MW 3016   2.245   2.999   2.662  0.1324  0.1842 -0.0448
  755SOL     OW 3017   2.727   1.583   2.453  0.4388  0.0003 -0.5839
  755SOL    HW1 3018   2.695   1.508   2.505 -0.8371 -0.0600 -0.2344
  755SOL    HW2 3019   2.796   1.630   2.498 -1.2533 -0.9346 -1.0959
  755SOL     MW 3020   2.732   1.579   2.465  0.0472 -0.1310 -0.6054
  756SOL     OW 3021   2.250   1.331   3.021 -0.2730  0.2930  0.2597
  756SOL    HW1 3022   2.314   1.402   3.014 -2.1623  1.8984  0.3672
  756SOL    HW2 3023   2.298   1.247   3.050 -0.3820  0.3019  1.7367
  756SOL     MW 3024   2.265   1.330   3.024 -0.5366  0.5060  0.4688
  757SOL     OW 3025   2.097   0.986   1.633 -0.5149 -0.4311 -0.8152
  757SOL    HW1 3026   2.132   0.898   1.630 -0.4706 -0.2031  1.6154
  757SOL    HW2 3027   2.004   0.981   1.619  0.8141  0.5147 -1.1116
  757SOL     MW 3028   2.090   0.974   1.630 -0.3337 -0.2762 -0.5336
  758SOL     OW 3029   2.182   1.795   2.663 -0.1192 -0.1991 -0.2335
  758SOL    HW1 3030   2.163   1.829   2.575  0.3278 -2.5600 -1.1773
  758SOL    HW2 3031   2.269   1.759   2.669 -2.3318 -0.3807 -0.3437
  758SOL     MW 3032   2.191   1.795   2.652 -0.3521 -0.5346 -0.3726
  759SOL     OW 3033   1.552   1.311   2.718  0.0336  0.2488 -0.2000
  759SOL    HW1 3034   1.536   1.398   2.684  0.4232 -1.5116 -1.3683
  759SOL    HW2 3035   1.631   1.326   2.771  1.6627  3.3051  1.8121
  759SOL     MW 3036   1.560   1.324   2.720  0.2999  0.4198 -0.0887
  760SOL     OW 3037   2.581   1.959   2.715 -0.1797 -0.0768 -0.1237
  760SOL    HW1 3038   2.543   1.883   2.673 -1.7254 -4.4237 -4.0860
  760SOL    HW2 3039   2.611   2.015   2.644 -1.9673  3.3218 -0.0045
  760SOL     MW 3040   2.580   1.956   2.700 -0.6195 -0.2019 -0.6308
  761SOL     OW 3041   2.078   0.418   2.466  0.2588  0.0767 -0.3531
  761SOL    HW1 3042   2.011   0.354   2.481 -4.2824  1.1114  1.1260
  761SOL    HW2 3043   2.102   0.460   2.548 -0.9250 -2.1349 -1.5183
  761SOL     MW 3044   2.072   0.415   2.478 -0.4965 -0.0786 -0.3117
  762SOL     OW 3045   3.096   0.183   2.028 -0.1616 -0.0700 -0.6157
  762SOL    HW1 3046   3.070   0.137   2.108  0.9684 -2.0255 -1.3506
  762SOL    HW2 3047   3.048   0.267   2.040  1.6868  1.3028 -1.7862
  762SOL     MW 3048   3.086   0.188   2.040  0.2313 -0.1468 -0.8671
  763SOL     OW 3049   2.399   1.091   2.351  0.6020 -0.5427 -0.4651
  763SOL    HW1 3050   2.413   1.085   2.252 -0.1329 -1.6153 -0.1346
  763SOL    HW2 3051   2.466   1.150   2.386 -0.3211 -0.8823  1.4783
  763SOL     MW 3052   2.410   1.098   2.342  0.3832 -0.7290 -0.1651
  764SOL     OW 3053   0.373   0.219   2.781  0.0118  0.2408 -0.4340
  764SOL    HW1 3054   0.292   0.247   2.740 -0.5383  0.4394  2.4086
  764SOL    HW2 3055   0.380   0.282   2.858  1.3434  2.5465 -1.4486
  764SOL     MW 3056   0.363   0.231   2.786  0.1149  0.5712 -0.1928
  765SOL     OW 3057   2.685   0.094   2.284  0.7654  0.3723 -0.3610
  765SOL    HW1 3058   2.629   0.074   2.207  1.2739 -0.6638 -0.4128
  765SOL    HW2 3059   2.726   0.011   2.315 -0.0687  1.3496  1.6013
  765SOL     MW 3060   2.683   0.080   2.278  0.7224  0.3645 -0.1089
  766SOL     OW 3061   1.846   3.031   2.129 -0.1570 -0.3960  0.6171
  766SOL    HW1 3062   1.903   3.085   2.073 -0.2407  3.4452  2.4906
  766SOL    HW2 3063   1.822   2.957   2.072 -0.6223  0.4903 -1.6643
  766SOL     MW 3064   1.850   3.028   2.114 -0.2294  0.2278  0.5633
  767SOL     OW 3065   2.671   0.644   1.942 -0.2253  0.3189  0.1097
  767SOL    HW1 3066   2.701   0.675   2.028 -2.2213 -1.6442  1.8673
  767SOL    HW2 3067   2.577   0.614   1.946 -2.4302 -2.1030 -0.6082
  767SOL     MW 3068   2.662   0.644   1.954 -0.7795 -0.2597  0.2469
  768SOL     OW 3069   0.089   1.548   2.982 -0.0269  0.5313 -0.4687
  768SOL    HW1 3070   0.109   1.513   3.069 -0.4770  2.1174  0.8297
  768SOL    HW2 3071   0.127   1.484   2.916  1.0154  0.4822 -2.1910
  768SOL     MW 3072   0.097   1.535   2.985  0.0512  0.7341 -0.5246
  769SOL     OW 3073   2.340   0.675   2.318  0.8530  0.4475  0.4679
  769SOL    HW1 3074   2.262   0.630   2.297  2.1551  3.7914 -0.0623
  769SOL    HW2 3075   2.410   0.645   2.261 -0.5497  2.0293 -0.7407
  769SOL     MW 3076   2.339   0.665   2.308  0.8397  1.0974  0.2385
  770SOL     OW 3077   0.068   1.696   2.591  0.6050  0.0969 -0.1123
  770SOL    HW1 3078  -0.023   1.707   2.630 -2.0516 -0.4948  0.8856
  770SOL    HW2 3079   0.108   1.619   2.633  1.9567  3.1475 -1.8416
  770SOL     MW 3080   0.061   1.688   2.602  0.4328  0.4213 -0.2088
  771SOL     OW 3081   3.057   0.656   1.932 -0.8289 -0.5333 -0.3147
  771SOL    HW1 3082   3.006   0.648   1.842 -0.6373 -1.6983 -1.5882
  771SOL    HW2 3083   3.145   0.623   1.913 -2.1159  2.4645  0.4702
  771SOL     MW 3084   3.062   0.650   1.917 -0.9734 -0.2915 -0.3792
  772SOL     OW 3085   3.083   0.018   2.250 -0.4829  0.0393 -0.3234
  772SOL    HW1 3086   3.002  -0.016   2.293 -2.5078 -1.0965 -0.3937
  772SOL    HW2 3087   3.137  -0.059   2.244  1.3761  1.2737  2.1631
  772SOL     MW 3088   3.079   0.004   2.255 -0.5048  0.0523 -0.0046
  773SOL     OW 3089   2.412   2.796   2.764 -0.0725 -0.3614  0.2003
  773SOL    HW1 3090   2.425   2.718   2.704  0.2408  1.6652  1.4548
  773SOL    HW2 3091   2.398   2.770   2.856 -0.5441 -1.0345 -0.7874
  773SOL     MW 3092   2.412   2.782   2.768 -0.0934 -0.1828  0.2355
  774SOL     OW 3093   2.275   1.180   1.768  0.3125  0.6734  0.8552
  774SOL    HW1 3094   2.267   1.248   1.702 -0.0350 -1.3158 -1.2205
  774SOL    HW2 3095   2.219   1.116   1.731 -0.4878 -0.1192 -0.9122
  774SOL     MW 3096   2.267   1.180   1.754  0.1610  0.3064  0.3481
  775SOL     OW 3097   2.244   2.983   2.404  0.6777 -0.9339  0.0407
  775SOL    HW1 3098   2.259   3.067   2.361  0.5583  0.5600 -1.5760
  775SOL    HW2 3099   2.320   2.928   2.390  1.7045  2.1637 -3.2705
  775SOL     MW 3100   2.256   2.987   2.397  0.7974 -0.3281 -0.6095
  776SOL     OW 3101   0.102   1.443   0.154 -0.1776 -0.0795  0.5558
  776SOL    HW1 3102   0.191   1.399   0.154 -0.2332  2.9677  2.5638
  776SOL    HW2 3103   0.048   1.363   0.161  1.2212  1.7736  1.3529
  776SOL     MW 3104   0.107   1.427   0.155 -0.0004  0.5671  0.9259
  777SOL     OW 3105   2.993   1.063   1.688 -0.6664  0.3936 -0.0930
  777SOL    HW1 3106   2.970   1.149   1.649 -1.5497 -0.3865  1.8715
  777SOL    HW2 3107   2.911   1.027   1.715 -0.6904 -1.7928 -0.8786
  777SOL     MW 3108   2.979   1.070   1.686 -0.7861  0.0022  0.0626
  778SOL     OW 3109   2.886   0.450   2.751  0.3616  0.2292 -0.2629
  778SOL    HW1 3110   2.816   0.478   2.811  3.0439 -1.3391 -1.1101
  778SOL    HW2 3111   2.891   0.517   2.674 -0.5324 -1.4443 -0.4294
  778SOL     MW 3112   2.877   0.462   2.749  0.5975 -0.1985 -0.3966
  779SOL     OW 3113   2.100   0.588   2.250 -0.4402  0.1225  1.0095
  779SOL    HW1 3114   2.032   0.634   2.206 -0.7346  0.2598 -2.0781
  779SOL    HW2 3115   2.058   0.550   2.320 -0.6366  0.3526 -1.6056
  779SOL     MW 3116   2.085   0.589   2.253 -0.5049  0.1710  0.2571
  780SOL     OW 3117   0.085   0.213   2.775  0.2288  0.1425 -0.4252
  780SOL    HW1 3118   0.069   0.209   2.869 -1.4313 -2.8225  0.2275
  780SOL    HW2 3119  -0.002   0.214   2.734  0.6656  0.4055 -0.2703
  780SOL     MW 3120   0.071   0.213   2.782  0.0674 -0.2140 -0.3187
  781SOL     OW 3121   3.060   1.323   2.566 -0.0845 -0.0493  0.2817
  781SOL    HW1 3122   3.068   1.381   2.488 -2.0032  0.1137  0.1284
  781SOL    HW2 3123   3.071   1.238   2.525 -0.8592  0.9952 -2.1220
  781SOL     MW 3124   3.063   1.320   2.550 -0.4399  0.1100 -0.0557
  782SOL     OW 3125   0.765   1.452   3.059  0.2241 -0.1219 -0.1298
  782SOL    HW1 3126   0.683   1.496   3.059  3.0155  0.0353 -1.8502
  782SOL    HW2 3127   0.805   1.459   3.151 -0.6452 -0.7934  2.5394
  782SOL     MW 3128   0.759   1.459   3.071  0.4777 -0.1897 -0.0046
  783SOL     OW 3129   2.742   0.487   2.391  0.4184 -0.3732  0.3534
  783SOL    HW1 3130   2.678   0.506   2.324  1.3617 -0.6664  0.5968
  783SOL    HW2 3131   2.689   0.449   2.461  0.1674 -0.3869 -1.7885
  783SOL     MW 3132   2.726   0.484   2.392  0.5098 -0.4137  0.1029
  784SOL     OW 3133   0.193   0.827   2.829  0.2287 -0.3682  0.5328
  784SOL    HW1 3134   0.114   0.875   2.830  2.8410  0.4131  2.8470
  784SOL    HW2 3135   0.256   0.879   2.770  1.8411  3.6132 -1.9032
  784SOL     MW 3136   0.191   0.840   2.821  0.7861  0.2602  0.5167
  785SOL     OW 3137   0.424   0.508   2.179  0.2523  0.1614 -0.3159
  785SOL    HW1 3138   0.451   0.540   2.091  0.1759  1.2989 -0.3032
  785SOL    HW2 3139   0.348   0.456   2.163 -0.8170 -1.9841  1.6417
  785SOL     MW 3140   0.418   0.505   2.165  0.1012  0.0284 -0.0559
  786SOL     OW 3141   1.995   0.380   2.946  0.6396  0.3337 -0.1241
  786SOL    HW1 3142   2.019   0.445   3.001  0.5005 -1.7586 -2.6811
  786SOL    HW2 3143   2.061   0.366   2.879 -2.4572  1.7125 -3.0960
  786SOL     MW 3144   2.007   0.387   2.945  0.2126  0.2396 -0.8536
  787SOL     OW 3145   2.422   0.221   2.877 -0.0181  0.1165 -0.1926
  787SOL    HW1 3146   2.472   0.145   2.857 -2.1583  1.7690  1.6014
  787SOL    HW2 3147   2.459   0.252   2.964  0.5509  0.0917  3.9264
  787SOL     MW 3148   2.434   0.215   2.886 -0.2254  0.3313  0.5876
  788SOL     OW 3149   2.843   3.005   2.380 -0.1945  0.0563 -0.0663
  788SOL    HW1 3150   2.824   3.009   2.472  2.6813 -3.9635 -4.4403
  788SOL    HW2 3151   2.889   2.923   2.356  1.0478 -2.2449  1.7965
  788SOL     MW 3152   2.846   2.994   2.389  0.3489 -0.7777 -0.3977
  789SOL     OW 3153   0.049   0.222   3.048 -1.0723  0.1409  0.2299
  789SOL    HW1 3154   0.011   0.133   3.068 -1.0660  1.7934  0.9642
  789SOL    HW2 3155  -0.019   0.271   3.011 -2.6710 -1.2767  1.4409
  789SOL     MW 3156   0.035   0.216   3.046 -1.2824  0.1719  0.4866
  790SOL     OW 3157   3.088   1.071   2.438 -0.3985 -0.0337  0.2441
  790SOL    HW1 3158   3.030   0.993   2.467 -1.4250 -2.8382 -0.5210
  790SOL    HW2 3159   3.053   1.082   2.349 -2.3883 -1.0898  0.3451
  790SOL     MW 3160   3.076   1.062   2.430 -0.7964 -0.5431  0.1565
  791SOL     OW 3161   2.616   0.385   2.619  0.3118 -0.4962 -0.2286
  791SOL    HW1 3162   2.554   0.439   2.668 -2.3385  1.4810 -1.4349
  791SOL    HW2 3163   2.694   0.388   2.669  1.4478  0.7103 -2.5551
  791SOL     MW 3164   2.618   0.392   2.632  0.1120 -0.0762 -0.6947
  792SOL     OW 3165   2.334   0.328   2.404 -0.4573 -0.5176 -0.0583
  792SOL    HW1 3166   2.237   0.328   2.400 -0.7511  0.0011 -4.0076
  792SOL    HW2 3167   2.357   0.282   2.485 -0.0105 -1.5705  1.7200
  792SOL     MW 3168   2.324   0.322   2.414 -0.4371 -0.5881 -0.3447
  793SOL     OW 3169   1.805   1.093   1.962 -0.8167 -0.7709 -0.1083
  793SOL    HW1 3170   1.765   1.125   1.880  0.6029 -0.1165  0.1189
  793SOL    HW2 3171   1.885   1.051   1.930  3.3754 -2.9811  0.8081
  793SOL     MW 3172   1.810   1.092   1.947 -0.0763 -0.9761  0.0426
  794SOL     OW 3173   1.422   2.249   0.172  0.0146  0.0107  0.6511
  794SOL    HW1 3174   1.464   2.289   0.093  2.1329  0.8004  0.0453
  794SOL    HW2 3175   1.478   2.272   0.242 -1.3548  0.7948 -0.0321
  794SOL     MW 3176   1.435   2.258   0.171  0.1134  0.2184  0.4810
  795SOL     OW 3177   2.341   0.973   2.635 -0.0186 -1.0930  0.0672
  795SOL    HW1 3178   2.336   1.060   2.683  1.8869  0.2374 -0.5618
  795SOL    HW2 3179   2.353   0.993   2.542  1.2681 -0.5793  1.7735
  795SOL     MW 3180   2.342   0.987   2.629  0.4026 -0.8497  0.2093
  796SOL     OW 3181   0.280   0.577   2.740 -0.3771 -0.2832  0.0836
  796SOL    HW1 3182   0.246   0.658   2.772  2.0589  1.7222 -2.4452
  796SOL    HW2 3183   0.212   0.542   2.679 -0.8413 -0.4669 -1.3112
  796SOL     MW 3184   0.267   0.583   2.736 -0.1169 -0.0428 -0.4340
  797SOL     OW 3185   2.603   0.119   2.537 -0.4733  0.1622  0.1968
  797SOL    HW1 3186   2.601   0.211   2.566  2.0745  3.9229  3.3959
  797SOL    HW2 3187   2.618   0.107   2.435 -0.1963 -0.5197  0.1744
  797SOL     MW 3188   2.604   0.130   2.528 -0.1006  0.5684  0.6159
  798SOL     OW 3189   2.307   0.105   2.233  0.5324 -0.5437 -0.1220
  798SOL    HW1 3190   2.316   0.192   2.279  2.1475 -2.2871  2.6222
  798SOL    HW2 3191   2.385   0.087   2.175  0.4253  1.3958 -1.6156
  798SOL     MW 3192   2.319   0.114   2.231  0.7313 -0.5178  0.0430
  799SOL     OW 3193   2.517   2.970   3.095 -0.0156  0.6643  0.4923
  799SOL    HW1 3194   2.457   2.892   3.103 -1.0508  0.2963 -1.3529
  799SOL    HW2 3195   2.459   3.041   3.099  0.6121 -0.3960  2.2948
  799SOL     MW 3196   2.502   2.969   3.097 -0.0694  0.4758  0.4867
  800SOL     OW 3197   1.929   0.041   1.722 -0.4777  0.2284  0.2832
  800SOL    HW1 3198   1.860  -0.026   1.726 -1.2788  0.0846 -0.7016
  800SOL    HW2 3199   1.990   0.031   1.794  0.9531 -1.2354  2.1185
  800SOL     MW 3200   1.928   0.031   1.732 -0.3946  0.0163  0.3954
  801SOL     OW 3201   2.781   1.308   2.582  0.1668 -0.0517 -0.9602
  801SOL    HW1 3202   2.762   1.221   2.555  0.2681 -0.9080  0.3648
  801SOL    HW2 3203   2.880   1.302   2.585 -1.0784 -0.5793 -0.4340
  801SOL     MW 3204   2.791   1.296   2.579  0.0159 -0.2343 -0.7160
  802SOL     OW 3205   2.618   1.516   2.766  0.1588  0.5369  0.2358
  802SOL    HW1 3206   2.597   1.420   2.771 -0.1983 -1.0050 -0.5513
  802SOL    HW2 3207   2.713   1.511   2.785 -1.1692  2.0124  1.4531
  802SOL     MW 3208   2.628   1.503   2.769 -0.0636  0.5281  0.2926
  803SOL     OW 3209   2.246   1.371   1.961 -0.0056  0.1401 -0.2482
  803SOL    HW1 3210   2.255   1.298   2.029  0.9241 -0.4590  1.3450
  803SOL    HW2 3211   2.214   1.323   1.884  0.0705 -0.8499 -1.1118
  803SOL     MW 3212   2.243   1.355   1.960  0.1271 -0.0695 -0.1519
  804SOL     OW 3213   2.301   0.045   3.074  0.5281 -0.2517 -0.1567
  804SOL    HW1 3214   2.235   0.103   3.113 -0.1934  3.0066  0.0603
  804SOL    HW2 3215   2.322   0.087   2.994  1.1262  1.1539  0.0246
  804SOL     MW 3216   2.295   0.058   3.069  0.5118  0.3636 -0.1041
  805SOL     OW 3217   2.664   1.039   2.572  0.1346 -0.1651 -0.0035
  805SOL    HW1 3218   2.632   1.000   2.492  0.9082  1.1138 -1.2770
  805SOL    HW2 3219   2.748   0.990   2.596  0.6460 -0.9994 -2.4872
  805SOL     MW 3220   2.671   1.028   2.565  0.3041 -0.1065 -0.4992
  806SOL     OW 3221   2.513   0.491   2.228 -0.3505  0.5737  0.0693
  806SOL    HW1 3222   2.449   0.444   2.285 -0.2281 -0.9114  0.5738
  806SOL    HW2 3223   2.482   0.493   2.137  2.9248 -1.3605  0.4950
  806SOL     MW 3224   2.501   0.485   2.223  0.0978  0.1226  0.1920
  807SOL     OW 3225   0.052   1.103   2.055  0.2676  0.5427  0.4956
  807SOL    HW1 3226   0.076   1.029   2.001  1.2416 -1.6434  3.5339
  807SOL    HW2 3227  -0.034   1.087   2.106 -2.4661  0.1249  2.2175
  807SOL     MW 3228   0.043   1.091   2.055  0.0354  0.1991  1.1237
  808SOL     OW 3229   2.553   3.094   2.766  0.2375 -0.4792 -0.5618
  808SOL    HW1 3230   2.512   3.011   2.750  0.9574 -0.9229  0.8581
  808SOL    HW2 3231   2.587   3.129   2.682 -0.1424  1.2193 -0.8988
  808SOL     MW 3232   2.552   3.088   2.753  0.2823 -0.3136 -0.4189
  809SOL     OW 3233   2.555   1.291   2.407 -0.2770  0.5273  0.0478
  809SOL    HW1 3234   2.609   1.311   2.486 -1.0183  1.4509  2.7979
  809SOL    HW2 3235   2.623   1.270   2.342  0.2170 -1.7512  3.7958
  809SOL     MW 3236   2.571   1.291   2.409 -0.3096  0.3486  0.9052
  810SOL     OW 3237   2.214   1.281   2.254  0.1270  0.4730  0.4057
  810SOL    HW1 3238   2.263   1.210   2.303  0.5088 -1.0950 -0.0768
  810SOL    HW2 3239   2.126   1.247   2.235 -1.9131 -0.1656 -1.6289
  810SOL     MW 3240   2.209   1.267   2.258 -0.0918  0.1819  0.0736
  811SOL     OW 3241   1.556   0.146   2.316 -0.1489  0.3441 -0.0470
  811SOL    HW1 3242   1.610   0.076   2.354  3.0285 -3.0887 -1.3915
  811SOL    HW2 3243   1.568   0.130   2.222 -0.5839 -0.8563  0.0541
  811SOL     MW 3244   1.565   0.135   2.309  0.2129 -0.2672 -0.2110
  812SOL     OW 3245   1.503   2.880   2.113 -0.4260  0.0892  0.4674
  812SOL    HW1 3246   1.588   2.876   2.050 -0.3881 -0.5413 -0.9274
  812SOL    HW2 3247   1.536   2.835   2.190  1.0751 -0.6861  0.4625
  812SOL     MW 3248   1.519   2.873   2.115 -0.2230 -0.0963  0.2828
  813SOL     OW 3249   1.875   0.735   2.156 -0.0044  0.7063 -0.0032
  813SOL    HW1 3250   1.811   0.654   2.157  0.3276 -0.1988  0.0402
  813SOL    HW2 3251   1.867   0.770   2.247  1.0640  1.7786  0.4240
  813SOL     MW 3252   1.865   0.729   2.168  0.1804  0.7284  0.0589
  814SOL     OW 3253   2.739   1.273   1.597  0.3794 -0.1036 -0.0034
  814SOL    HW1 3254   2.688   1.220   1.655 -0.9402  1.1379 -1.1810
  814SOL    HW2 3255   2.751   1.215   1.511  0.2417 -0.6761 -0.9643
  814SOL     MW 3256   2.734   1.258   1.593  0.1871 -0.0153 -0.2856
  815SOL     OW 3257   2.475   1.672   2.320 -0.2235  0.0970  0.0673
  815SOL    HW1 3258   2.409   1.607   2.359  1.8099  3.1169  1.8002
  815SOL    HW2 3259   2.562   1.634   2.319  0.9276 -3.8461  1.1396
  815SOL     MW 3260   2.478   1.658   2.325  0.1967 -0.0248  0.4374
  816SOL     OW 3261   0.780   0.671   2.766 -0.0600  0.2409 -0.8611
  816SOL    HW1 3262   0.771   0.581   2.800 -0.9940 -2.8216 -2.6859
  816SOL    HW2 3263   0.688   0.692   2.746  0.7102  1.0741  3.1235
  816SOL     MW 3264   0.766   0.662   2.768 -0.0816 -0.0533 -0.5761
  817SOL     OW 3265   3.072   1.266   1.496 -0.4608  0.0506 -0.1412
  817SOL    HW1 3266   3.164   1.266   1.524 -0.7952  1.1947  1.3467
  817SOL    HW2 3267   3.057   1.351   1.469 -0.1599 -1.2308 -1.0581
  817SOL     MW 3268   3.082   1.277   1.496 -0.4652  0.0325 -0.0659
  818SOL     OW 3269   1.923   1.048   2.679  0.0116  0.0517  0.1487
  818SOL    HW1 3270   1.887   1.080   2.598  0.5084  1.9977 -0.9179
  818SOL    HW2 3271   1.992   0.983   2.656  1.0213  1.5288 -1.1178
  818SOL     MW 3272   1.928   1.043   2.665  0.2103  0.5034 -0.1591
  819SOL     OW 3273   1.897   0.193   2.464 -0.3958 -0.0970 -0.2214
  819SOL    HW1 3274   1.822   0.258   2.478  0.9638 -2.4570  2.2675
  819SOL    HW2 3275   1.942   0.182   2.555 -1.3449  2.5396  1.2648
  819SOL     MW 3276   1.893   0.200   2.478 -0.3416 -0.0605  0.3031
  820SOL     OW 3277   2.451   1.707   2.609 -0.5121  0.3087  0.1110
  820SOL    HW1 3278   2.526   1.663   2.651 -1.1511  2.2979 -0.6312
  820SOL    HW2 3279   2.485   1.713   2.518  2.2964  3.5035  1.1520
  820SOL     MW 3280   2.466   1.702   2.602 -0.2259  0.9927  0.1504
  821SOL     OW 3281   2.575   1.353   1.963  0.0551 -0.7257 -0.1695
  821SOL    HW1 3282   2.634   1.426   1.924  3.4612 -4.0711  0.0825
  821SOL    HW2 3283   2.484   1.390   1.973 -0.6100  1.2690  1.6467
  821SOL     MW 3284   2.571   1.368   1.959  0.4168 -0.9039  0.1034
  822SOL     OW 3285   2.750   2.598   1.484  0.4097 -0.3811  0.3756
  822SOL    HW1 3286   2.800   2.614   1.561 -2.4740  0.7927 -1.0134
  822SOL    HW2 3287   2.709   2.684   1.459  0.1966  0.8180 -1.5792
  822SOL     MW 3288   2.752   2.612   1.491  0.0011 -0.0680 -0.0655
  823SOL     OW 3289   2.273   0.507   1.750 -0.3943  0.0192  0.5218
  823SOL    HW1 3290   2.363   0.483   1.722 -0.4599 -1.3633 -0.2317
  823SOL    HW2 3291   2.233   0.418   1.742 -1.3517 -0.3377  2.3891
  823SOL     MW 3292   2.279   0.492   1.745 -0.5293 -0.2103  0.6687
  824SOL     OW 3293   2.086   1.395   2.577 -0.0742 -0.4524 -0.1091
  824SOL    HW1 3294   2.132   1.454   2.516  0.2180 -0.9864 -0.4491
  824SOL    HW2 3295   2.047   1.452   2.645  1.1167 -1.0285 -2.0470
  824SOL     MW 3296   2.087   1.410   2.578  0.1215 -0.5989 -0.4096
  825SOL     OW 3297   1.971   2.557   0.273  0.3495  0.4462 -0.4282
  825SOL    HW1 3298   1.947   2.507   0.352 -1.5604 -0.8925 -1.8733
  825SOL    HW2 3299   2.030   2.505   0.213 -0.3126 -1.9891 -1.2041
  825SOL     MW 3300   1.976   2.544   0.275  0.0102 -0.0518 -0.7213
  826SOL     OW 3301   1.901   2.417   0.487 -0.0811  0.6515  0.4863
  826SOL    HW1 3302   1.859   2.336   0.511 -0.8184 -1.4234 -1.6020
  826SOL    HW2 3303   1.866   2.480   0.551 -2.3802 -1.3285  3.0128
  826SOL     MW 3304   1.891   2.415   0.498 -0.4817  0.1165  0.5441
  827SOL     OW 3305   1.944   2.211   0.976 -0.4951 -0.5599 -0.2209
  827SOL    HW1 3306   1.893   2.282   0.926  1.4674 -0.7990 -1.7180
  827SOL    HW2 3307   1.892   2.130   0.999  1.3014 -4.0760 -0.6661
  827SOL     MW 3308   1.930   2.210   0.973  0.0009 -1.0554 -0.4772
  828SOL     OW 3309   0.068   2.630   0.576 -0.3908  0.4032  0.4142
  828SOL    HW1 3310   0.159   2.647   0.549 -1.0420 -0.4445 -3.5327
  828SOL    HW2 3311   0.021   2.638   0.496 -2.4555  3.4454  0.8221
  828SOL     MW 3312   0.074   2.634   0.562 -0.7491  0.6927 -0.0527
  829SOL     OW 3313   2.934   2.938   1.242  0.2751  0.2394  0.6489
  829SOL    HW1 3314   2.866   2.962   1.176  0.4549 -0.2108 -0.7942
  829SOL    HW2 3315   2.985   2.863   1.205 -0.5741  0.0914 -1.7870
  829SOL     MW 3316   2.932   2.931   1.229  0.1868  0.1605  0.1371
  830SOL     OW 3317   2.502   2.860   2.007  0.2387  0.0251  0.0245
  830SOL    HW1 3318   2.412   2.872   1.972  0.3850 -2.4354  2.6274
  830SOL    HW2 3319   2.554   2.829   1.934  0.5840  0.4800  3.3614
  830SOL     MW 3320   2.497   2.857   1.993  0.3036 -0.2395  0.8082
  831SOL     OW 3321   2.415   2.395   1.309  0.0887 -0.1196  0.2392
  831SOL    HW1 3322   2.376   2.333   1.370 -1.2325 -1.3497 -2.8009
  831SOL    HW2 3323   2.496   2.340   1.286 -1.3016 -2.7296  0.3190
  831SOL     MW 3324   2.421   2.380   1.314 -0.2690 -0.6263 -0.1514
  832SOL     OW 3325   2.431   2.197   1.908  0.3979  0.1674 -0.2900
  832SOL    HW1 3326   2.449   2.280   1.962  0.1424 -0.1736 -0.7114
  832SOL    HW2 3327   2.522   2.160   1.892  1.4332  0.3895  2.5615
  832SOL     MW 3328   2.445   2.203   1.913  0.5008  0.1517  0.0306
  833SOL     OW 3329   1.789   2.469   0.882  0.0796 -0.2579 -0.0041
  833SOL    HW1 3330   1.717   2.405   0.913  2.7004 -3.3570 -0.8068
  833SOL    HW2 3331   1.782   2.552   0.945  2.4627  1.1692 -1.4881
  833SOL     MW 3332   1.779   2.471   0.894  0.7398 -0.4785 -0.3058
  834SOL     OW 3333   2.239   2.487   0.616  0.0663 -0.2293  0.2194
  834SOL    HW1 3334   2.179   2.416   0.631 -0.1036  1.9180  2.0706
  834SOL    HW2 3335   2.279   2.467   0.525  1.5294  0.7922 -3.9912
  834SOL     MW 3336   2.237   2.475   0.606  0.2370  0.1888 -0.0919
  835SOL     OW 3337   1.736   2.618   0.655 -0.6669  0.0585 -0.0893
  835SOL    HW1 3338   1.728   2.557   0.729  0.2672  0.8604 -0.4393
  835SOL    HW2 3339   1.815   2.673   0.691  1.8873  1.2260  0.0759
  835SOL     MW 3340   1.746   2.617   0.669 -0.2067  0.3183 -0.1137
  836SOL     OW 3341   1.947   2.195   1.623  0.6972 -0.2836  0.0211
  836SOL    HW1 3342   2.018   2.249   1.651 -0.5767 -0.9998  1.5752
  836SOL    HW2 3343   1.866   2.236   1.653  0.9300 -1.6991  0.4091
  836SOL     MW 3344   1.945   2.208   1.630  0.5599 -0.5649  0.2773
  837SOL     OW 3345   2.127   0.209   0.684 -0.8274  0.0533  0.2066
  837SOL    HW1 3346   2.037   0.213   0.666 -0.4308  0.2632  0.9774
  837SOL    HW2 3347   2.166   0.157   0.610  1.5136  1.6665 -0.3762
  837SOL     MW 3348   2.120   0.203   0.672 -0.4662  0.2939  0.2314
  838SOL     OW 3349   2.932   2.139   0.876  0.1155 -0.3436  0.4670
  838SOL    HW1 3350   2.894   2.100   0.959  0.4468  1.0641 -0.1460
  838SOL    HW2 3351   2.966   2.067   0.821 -0.4534 -1.2833 -0.5189
  838SOL     MW 3352   2.931   2.125   0.880  0.0842 -0.2819  0.2561
  839SOL     OW 3353   1.546   2.350   0.922 -0.0174  0.0086 -0.0266
  839SOL    HW1 3354   1.526   2.445   0.940  0.7746  1.9200 -0.9952
  839SOL    HW2 3355   1.542   2.311   1.007  1.6537  0.5546 -1.4689
  839SOL     MW 3356   1.543   2.357   0.936  0.3076  0.3329 -0.3447
  840SOL     OW 3357   2.314   2.096   2.398  0.2612 -0.0802  0.2798
  840SOL    HW1 3358   2.289   2.161   2.328 -0.0739 -0.8526  0.3955
  840SOL    HW2 3359   2.380   2.150   2.440  1.2324 -1.1530 -0.8120
  840SOL     MW 3360   2.320   2.112   2.394  0.3451 -0.3237  0.1510
  841SOL     OW 3361   2.171   2.428   0.108 -0.2584 -0.2998  0.3230
  841SOL    HW1 3362   2.221   2.453   0.034  2.9842  0.8148  1.8867
  841SOL    HW2 3363   2.123   2.353   0.073  2.3357 -1.7059 -0.8245
  841SOL     MW 3364   2.171   2.421   0.093  0.5117 -0.3383  0.3779
  842SOL     OW 3365   2.675   1.968   1.582 -0.4191  0.7424 -0.5224
  842SOL    HW1 3366   2.630   1.885   1.576  1.7058 -2.5236 -1.0391
  842SOL    HW2 3367   2.638   2.012   1.512 -2.3105 -0.4309 -0.7138
  842SOL     MW 3368   2.664   1.963   1.572 -0.3883  0.1567 -0.6158
  843SOL     OW 3369   2.657   2.768   1.797  0.6069 -0.0724  0.0539
  843SOL    HW1 3370   2.733   2.718   1.768  0.1236  0.4249 -2.6695
  843SOL    HW2 3371   2.578   2.719   1.780  2.9170  0.1414  2.7036
  843SOL     MW 3372   2.657   2.755   1.791  0.8479  0.0214  0.0441
  844SOL     OW 3373   2.629   2.250   1.227  0.4805 -0.6023  0.0464
  844SOL    HW1 3374   2.648   2.288   1.132  0.1093  2.1262 -1.5154
  844SOL    HW2 3375   2.707   2.271   1.287  2.9573  2.0384  0.8520
  844SOL     MW 3376   2.642   2.258   1.222  0.7583  0.1062 -0.0533
  845SOL     OW 3377   2.863   2.468   0.292  0.4632  0.2934 -0.4373
  845SOL    HW1 3378   2.812   2.397   0.326  2.1381  0.4721  0.0773
  845SOL    HW2 3379   2.865   2.526   0.367  1.2105  1.6785  0.2917
  845SOL     MW 3380   2.857   2.466   0.306  0.7828  0.4997 -0.2732
  846SOL     OW 3381   1.520   2.852   0.774 -0.1774  0.1610  0.5256
  846SOL    HW1 3382   1.612   2.878   0.796  2.1744 -1.7468  0.7506
  846SOL    HW2 3383   1.457   2.911   0.813  1.8239  0.7826 -1.6768
  846SOL     MW 3384   1.524   2.863   0.782  0.3969 -0.0087  0.2647
  847SOL     OW 3385   2.496   1.902   0.153 -0.0172  0.7343 -0.3760
  847SOL    HW1 3386   2.540   1.827   0.188 -2.9605  2.4348 -0.5166
  847SOL    HW2 3387   2.496   1.873   0.063 -1.6455  0.9529  2.7889
  847SOL     MW 3388   2.502   1.888   0.146 -0.6204  0.9875  0.0231
  848SOL     OW 3389   2.515   2.061   1.373  0.0469 -0.3101 -0.4547
  848SOL    HW1 3390   2.544   2.121   1.297  1.1140  3.6241  1.5847
  848SOL    HW2 3391   2.470   1.983   1.335 -1.7197  1.6970 -1.3109
  848SOL     MW 3392   2.513   2.058   1.358 -0.0454  0.4738 -0.2986
  849SOL     OW 3393   1.945   2.764   0.740  0.5398 -0.2580 -0.0391
  849SOL    HW1 3394   1.962   2.713   0.823 -0.3056 -0.0020 -1.2198
  849SOL    HW2 3395   2.023   2.760   0.685 -0.7480 -1.4503  1.9194
  849SOL     MW 3396   1.958   2.757   0.744  0.2583 -0.3815  0.0635
  850SOL     OW 3397   2.226   1.930   1.681 -0.2369  0.1081 -0.1216
  850SOL    HW1 3398   2.140   1.897   1.648 -1.7672 -1.1473 -0.5251
  850SOL    HW2 3399   2.236   2.024   1.675  2.5859 -0.6123  2.9724
  850SOL     MW 3400   2.216   1.938   1.676 -0.0664 -0.1526  0.2334
  851SOL     OW 3401   2.313   2.385   0.348  0.7809 -0.2826  0.2898
  851SOL    HW1 3402   2.254   2.398   0.272  1.2463 -0.0593  0.7475
  851SOL    HW2 3403   2.380   2.466   0.341  0.7337  0.2365 -0.9424
  851SOL     MW 3404   2.314   2.397   0.337  0.8361 -0.1847  0.1877
  852SOL     OW 3405   2.347   2.090   0.309 -0.3753 -0.3384 -0.0327
  852SOL    HW1 3406   2.364   2.179   0.327 -1.1715 -1.3214 -1.4763
  852SOL    HW2 3407   2.403   2.085   0.232  2.0636  1.5749 -1.6685
  852SOL     MW 3408   2.357   2.101   0.301 -0.1586 -0.2156 -0.4390
  853SOL     OW 3409   2.497   2.449   1.994 -0.0252  0.2183 -0.1667
  853SOL    HW1 3410   2.500   2.496   1.906  1.7463  0.3762  1.8632
  853SOL    HW2 3411   2.578   2.471   2.039 -1.1789  0.1810 -1.9541
  853SOL     MW 3412   2.508   2.458   1.988  0.0563  0.2342 -0.1347
  854SOL     OW 3413   2.827   2.358   0.752  0.1585 -0.2861  0.0922
  854SOL    HW1 3414   2.754   2.309   0.715 -1.2666  0.8999 -2.6230
  854SOL    HW2 3415   2.872   2.296   0.813 -2.0029  0.6902  1.5859
  854SOL     MW 3416   2.824   2.343   0.756 -0.3147 -0.0008 -0.0690
  855SOL     OW 3417   2.708   2.224   0.375 -0.6592  0.0041 -0.0334
  855SOL    HW1 3418   2.679   2.278   0.453 -0.1393 -3.0906 -0.6815
  855SOL    HW2 3419   2.795   2.199   0.407 -0.5584  1.3427  1.0963
  855SOL     MW 3420   2.716   2.228   0.389 -0.5773 -0.2276  0.0301
  856SOL     OW 3421   2.174   1.946   0.153 -0.5771  0.0908  0.1830
  856SOL    HW1 3422   2.104   1.924   0.216 -0.0462 -0.8441  0.4308
  856SOL    HW2 3423   2.245   1.995   0.196 -0.3671 -1.3371  0.4196
  856SOL     MW 3424   2.174   1.950   0.167 -0.4794 -0.2210  0.2469
  857SOL     OW 3425   2.539   1.992   0.502 -1.2389  0.1904 -0.1017
  857SOL    HW1 3426   2.557   2.058   0.431 -1.2012  0.6851  4.2391
  857SOL    HW2 3427   2.467   1.949   0.468 -2.0165 -0.1728  1.3353
  857SOL     MW 3428   2.532   1.995   0.488 -1.3365  0.2077  0.6607
  858SOL     OW 3429   2.901   2.642   1.742  0.1003  0.5409  0.3937
  858SOL    HW1 3430   2.972   2.693   1.774 -0.5291 -0.2020  0.9342
  858SOL    HW2 3431   2.906   2.563   1.795  0.5509 -1.0494 -0.6100
  858SOL     MW 3432   2.911   2.638   1.753  0.0767  0.2331  0.3326
  859SOL     OW 3433   2.095   2.563   0.960 -0.5777 -0.3644  0.4722
  859SOL    HW1 3434   2.079   2.496   1.025 -0.1906  0.1383 -0.3038
  859SOL    HW2 3435   2.158   2.525   0.896 -1.2237  1.4850 -1.0405
  859SOL     MW 3436   2.101   2.549   0.960 -0.6119 -0.0541  0.1702
  860SOL     OW 3437   2.685   2.607   0.154 -0.0109  0.4270 -0.5197
  860SOL    HW1 3438   2.766   2.577   0.210  0.4965 -0.5566  0.8932
  860SOL    HW2 3439   2.708   2.698   0.125 -2.1640  3.9258 -0.4920
  860SOL     MW 3440   2.699   2.615   0.158 -0.2281  0.7589 -0.3296
  861SOL     OW 3441   1.576   2.134   1.171  0.2711 -0.2036 -0.2132
  861SOL    HW1 3442   1.580   2.208   1.228  0.6489 -2.1301  1.0772
  861SOL    HW2 3443   1.517   2.074   1.216 -0.1098 -0.8732 -1.1754
  861SOL     MW 3444   1.569   2.136   1.185  0.2707 -0.5461 -0.1699
  862SOL     OW 3445   2.462   1.784   1.540  0.2237  0.5186  0.1462
  862SOL    HW1 3446   2.401   1.845   1.593  2.1176  1.9366  2.7406
  862SOL    HW2 3447   2.424   1.792   1.451 -0.9960 -0.9532 -0.3464
  862SOL     MW 3448   2.449   1.793   1.536  0.3127  0.5115  0.4235
  863SOL     OW 3449   3.007   1.825   1.052 -0.7252  0.1178 -0.3905
  863SOL    HW1 3450   3.094   1.787   1.074 -2.4020  2.1408  0.2553
  863SOL    HW2 3451   2.995   1.903   1.110 -2.6769 -0.8285  0.4701
  863SOL     MW 3452   3.017   1.830   1.062 -1.2040  0.2599 -0.1917
  864SOL     OW 3453   3.061   1.876   0.807 -0.2404 -0.9297 -0.0332
  864SOL    HW1 3454   3.030   1.860   0.898  2.4556 -0.0189 -0.7591
  864SOL    HW2 3455   3.007   1.822   0.744  1.9114 -1.5686 -2.9651
  864SOL     MW 3456   3.049   1.866   0.811  0.3992 -0.8938 -0.5158
  865SOL     OW 3457   2.592   2.150   0.020 -0.6238 -0.0291  0.3353
  865SOL    HW1 3458   2.614   2.072   0.076  0.0174 -1.0330 -0.7360
  865SOL    HW2 3459   2.518   2.123  -0.031 -1.7914 -1.1231  1.1791
  865SOL     MW 3460   2.585   2.136   0.021 -0.6933 -0.3059  0.3053
  866SOL     OW 3461   2.679   2.361   1.677 -0.2297  0.9130 -0.2367
  866SOL    HW1 3462   2.679   2.274   1.721 -2.4998  2.6018  2.9123
  866SOL    HW2 3463   2.695   2.350   1.583 -0.0746 -1.1200  2.2868
  866SOL     MW 3464   2.682   2.348   1.671 -0.5087  0.8676  0.5117
  867SOL     OW 3465   0.039   2.733   1.818 -0.1665  0.2041 -0.0702
  867SOL    HW1 3466   0.074   2.731   1.912  0.5393  0.5075  0.1598
  867SOL    HW2 3467   0.015   2.823   1.801  0.6538 -1.7345 -0.1416
  867SOL     MW 3468   0.041   2.745   1.828  0.0348 -0.0117 -0.0493
  868SOL     OW 3469   2.859   2.593   0.554  0.1824  0.3395  0.1419
  868SOL    HW1 3470   2.781   2.544   0.587 -0.2355  0.0445  0.6154
  868SOL    HW2 3471   2.826   2.669   0.506  0.8418 -1.5195 -0.5535
  868SOL     MW 3472   2.844   2.596   0.552  0.2142  0.0553  0.1126
  869SOL     OW 3473   2.070   2.355   1.138 -0.1935  0.1078  0.4121
  869SOL    HW1 3474   2.162   2.354   1.102 -0.9402 -0.4491 -2.9976
  869SOL    HW2 3475   2.016   2.302   1.074  0.5188  0.7534  1.6593
  869SOL     MW 3476   2.075   2.348   1.125 -0.1980  0.1195  0.1268
  870SOL     OW 3477   2.170   0.026   0.470  0.6245  0.0652 -0.6336
  870SOL    HW1 3478   2.237   0.067   0.422 -1.5370 -0.4173 -0.0013
  870SOL    HW2 3479   2.166  -0.070   0.461  0.1220 -0.6040  0.8158
  870SOL     MW 3480   2.178   0.018   0.463  0.2730 -0.0868 -0.3589
  871SOL     OW 3481   2.521   2.138   0.939  0.4990 -0.5709  0.6549
  871SOL    HW1 3482   2.462   2.065   0.927  0.0588 -0.8166 -5.1794
  871SOL    HW2 3483   2.464   2.207   0.980 -0.4251 -1.3112  1.2677
  871SOL     MW 3484   2.506   2.137   0.943  0.3190 -0.7010 -0.0341
  872SOL     OW 3485   1.977   2.550   1.523 -0.0120 -0.6163  0.5581
  872SOL    HW1 3486   1.931   2.546   1.607  0.6942 -1.2642  0.0347
  872SOL    HW2 3487   1.948   2.473   1.469 -0.4633  0.7037 -2.4144
  872SOL     MW 3488   1.967   2.539   1.527  0.0216 -0.5276  0.0968
  873SOL     OW 3489   2.928   2.036   1.937  0.0689 -0.3199  0.2971
  873SOL    HW1 3490   2.928   2.076   2.025  3.7345 -0.5465  1.3449
  873SOL    HW2 3491   3.012   2.071   1.901 -0.8811 -1.1995  2.4974
  873SOL     MW 3492   2.939   2.046   1.944  0.4272 -0.4658  0.7257
  874SOL     OW 3493   2.275   1.498   2.408 -0.0054 -0.3700  0.4582
  874SOL    HW1 3494   2.241   1.433   2.335 -0.1643 -0.5836 -1.7773
  874SOL    HW2 3495   2.324   1.443   2.472 -0.4254 -0.3113  0.6144
  874SOL     MW 3496   2.277   1.482   2.407 -0.0818 -0.3905  0.1838
  875SOL     OW 3497   2.349   2.321   1.062  0.2995  0.0883 -0.4678
  875SOL    HW1 3498   2.380   2.386   0.994 -0.3149  1.5456  0.2291
  875SOL    HW2 3499   2.365   2.353   1.152 -0.2806  1.4204 -0.3063
  875SOL     MW 3500   2.355   2.334   1.065  0.1419  0.4563 -0.3545
  876SOL     OW 3501   3.039   2.264   1.260  0.1468 -1.1093  0.2597
  876SOL    HW1 3502   3.077   2.322   1.191  0.2661  0.6168  3.6783
  876SOL    HW2 3503   3.100   2.270   1.334 -0.0114 -0.2065  0.3691
  876SOL     MW 3504   3.052   2.272   1.261  0.1417 -0.7624  0.7251
  877SOL     OW 3505   3.027   2.723   0.318  0.1579  0.2043  0.1388
  877SOL    HW1 3506   3.080   2.801   0.324  0.8263 -1.5979 -0.1584
  877SOL    HW2 3507   3.053   2.687   0.230  1.9828 -1.6689  0.1940
  877SOL     MW 3508   3.037   2.729   0.307  0.4869 -0.2806  0.1069
  878SOL     OW 3509   2.385   1.839   1.287 -0.3196  0.4745 -0.0414
  878SOL    HW1 3510   2.333   1.764   1.288 -1.6477  1.7245 -0.8320
  878SOL    HW2 3511   2.469   1.807   1.261 -1.3655 -3.2035  1.0288
  878SOL     MW 3512   2.389   1.825   1.284 -0.6329  0.1541 -0.0045
  879SOL     OW 3513   2.671   2.397   1.005  0.1016 -0.0741  0.3450
  879SOL    HW1 3514   2.721   2.473   1.032  0.5977  0.5343  1.4858
  879SOL    HW2 3515   2.713   2.376   0.927 -2.0209  0.8824  1.0644
  879SOL     MW 3516   2.683   2.404   0.998 -0.1130  0.1323  0.5904
  880SOL     OW 3517   2.618   2.184   0.695  0.3824 -0.3324 -0.5006
  880SOL    HW1 3518   2.599   2.163   0.795 -2.4180 -2.7575  2.6513
  880SOL    HW2 3519   2.569   2.124   0.640 -0.5951 -0.0904 -0.7291
  880SOL     MW 3520   2.609   2.173   0.701 -0.1161 -0.6205 -0.1149
  881SOL     OW 3521   2.931   2.735   0.778 -0.6171 -0.2270 -0.2600
  881SOL    HW1 3522   2.904   2.659   0.714 -2.5765 -0.0373 -0.3840
  881SOL    HW2 3523   3.024   2.732   0.777 -0.9327  1.7244 -3.5583
  881SOL     MW 3524   2.939   2.724   0.769 -0.9173  0.0555 -0.7116
  882SOL     OW 3525   2.232   2.871   1.930 -0.6600 -0.4500  0.3113
  882SOL    HW1 3526   2.219   2.854   1.835  0.5464 -1.7408  1.0099
  882SOL    HW2 3527   2.200   2.796   1.972  0.0344  0.1283  1.0272
  882SOL     MW 3528   2.226   2.859   1.923 -0.4092 -0.5440  0.4979
  883SOL     OW 3529   2.315   2.186   1.478  0.1093 -0.5885  0.0054
  883SOL    HW1 3530   2.396   2.132   1.460 -2.0420 -1.2370  1.8595
  883SOL    HW2 3531   2.246   2.142   1.429 -0.6141  3.7747 -0.4388
  883SOL     MW 3532   2.317   2.173   1.469 -0.2700 -0.0984  0.1914
  884SOL     OW 3533   1.963   1.788   1.062 -0.3204  0.0625  0.2186
  884SOL    HW1 3534   1.894   1.851   1.043  0.9992 -0.9338 -2.0417
  884SOL    HW2 3535   2.053   1.838   1.060  1.6798  2.7570 -3.1996
  884SOL     MW 3536   1.966   1.803   1.059  0.1176  0.2866 -0.5306
  885SOL     OW 3537   2.887   2.393   1.841 -0.1753 -0.5707  0.7020
  885SOL    HW1 3538   2.974   2.352   1.815  0.9156  3.8293  1.8764
  885SOL    HW2 3539   2.823   2.397   1.766  0.7632 -0.5695  1.0107
  885SOL     MW 3540   2.890   2.388   1.828  0.0925  0.0100  0.8977
  886SOL     OW 3541   2.798   2.359   1.402 -0.0338 -0.1119  0.0743
  886SOL    HW1 3542   2.884   2.336   1.364  1.9229 -1.2839  1.2353
  886SOL    HW2 3543   2.787   2.455   1.418 -1.4141  0.8350  1.2972
  886SOL     MW 3544   2.808   2.368   1.399  0.0423 -0.1416  0.3889
  887SOL     OW 3545   2.239   2.640   1.503  0.0728 -0.1795 -0.0497
  887SOL    HW1 3546   2.269   2.618   1.418 -0.0041 -1.0646 -0.6873
  887SOL    HW2 3547   2.146   2.609   1.500 -1.1222  2.1291 -0.5206
  887SOL     MW 3548   2.231   2.633   1.491 -0.0950  0.0083 -0.1959
  888SOL     OW 3549   1.880   2.015   1.402 -0.4648 -0.1052  0.1165
  888SOL    HW1 3550   1.951   2.023   1.337  0.4954 -3.2745 -0.9830
  888SOL    HW2 3551   1.911   2.061   1.480 -0.6216 -0.5829 -1.4013
  888SOL     MW 3552   1.893   2.022   1.404 -0.3588 -0.5863 -0.2288
  889SOL     OW 3553   2.287   2.024   2.081  0.3563 -0.2777 -0.2226
  889SOL    HW1 3554   2.350   2.013   2.149 -3.8768  1.0532  0.4983
  889SOL    HW2 3555   2.321   2.082   2.013 -2.4665  0.7885  0.6435
  889SOL     MW 3556   2.300   2.030   2.081 -0.5746  0.0386 -0.0132
  890SOL     OW 3557   0.096   2.349   0.100 -0.6284 -0.0052 -0.0239
  890SOL    HW1 3558   0.060   2.436   0.078 -0.0195  0.5819  1.1934
  890SOL    HW2 3559   0.088   2.336   0.197 -1.5889 -0.1720  1.3028
  890SOL     MW 3560   0.091   2.359   0.110 -0.6748  0.0503  0.3117
  891SOL     OW 3561   3.016   1.990   1.261 -0.0416  0.0450  0.0417
  891SOL    HW1 3562   3.108   1.966   1.268  1.5340  0.5410 -1.8179
  891SOL    HW2 3563   3.030   2.088   1.239  0.9366 -0.5609  1.0419
  891SOL     MW 3564   3.030   2.000   1.259  0.2954  0.0305 -0.0717
  892SOL     OW 3565   2.431   2.341   2.792  0.5689 -0.6487 -0.2102
  892SOL    HW1 3566   2.403   2.258   2.827 -1.3997 -2.4782 -2.1677
  892SOL    HW2 3567   2.518   2.365   2.816  0.3987  1.9656 -1.2963
  892SOL     MW 3568   2.439   2.333   2.800  0.2867 -0.5451 -0.6117
  893SOL     OW 3569   1.628   2.367   1.307  0.7866 -0.2430 -0.3792
  893SOL    HW1 3570   1.580   2.430   1.363 -0.6831  2.0241  0.3428
  893SOL    HW2 3571   1.716   2.370   1.343  0.5443  2.4239 -0.0833
  893SOL     MW 3572   1.633   2.376   1.319  0.5607  0.4080 -0.2449
  894SOL     OW 3573   2.802   1.882   0.491 -0.6409  0.1659 -0.0377
  894SOL    HW1 3574   2.724   1.924   0.513  2.3818 -2.6177 -0.0731
  894SOL    HW2 3575   2.792   1.857   0.403  0.8174 -0.6601  2.6518
  894SOL     MW 3576   2.790   1.884   0.482 -0.0497 -0.3103  0.3125
  895SOL     OW 3577   2.140   2.107   1.267  0.1911  0.0061 -0.8055
  895SOL    HW1 3578   2.120   2.194   1.225 -2.1495  0.4862  0.1863
  895SOL    HW2 3579   2.165   2.045   1.196  0.3974 -0.2239  3.6752
  895SOL     MW 3580   2.141   2.110   1.252 -0.0905  0.0391 -0.0835
  896SOL     OW 3581   2.188   2.788   1.074  0.6308  0.3503 -0.1831
  896SOL    HW1 3582   2.223   2.755   1.162 -0.5995 -0.8487  3.8349
  896SOL    HW2 3583   2.147   2.703   1.029  0.6854 -1.6411 -2.5584
  896SOL     MW 3584   2.187   2.772   1.079  0.4757 -0.0707  0.0337
  897SOL     OW 3585   3.000   2.906   0.119 -0.6307  0.2590  0.1632
  897SOL    HW1 3586   3.083   2.894   0.060  0.3433  0.7321  0.3725
  897SOL    HW2 3587   2.925   2.879   0.068  3.3620  2.7800  0.5666
  897SOL     MW 3588   3.001   2.901   0.105  0.0246  0.6541  0.2440
  898SOL     OW 3589   2.092   0.161   1.435 -0.4827  0.0421  0.4197
  898SOL    HW1 3590   2.071   0.066   1.439  1.7007  2.2233  0.3135
  898SOL    HW2 3591   2.109   0.184   1.343  0.0304 -0.6991 -0.0184
  898SOL     MW 3592   2.092   0.151   1.424 -0.1269  0.2321  0.3479
  899SOL     OW 3593   2.902   2.965   0.627  0.0472 -0.2383  0.1616
  899SOL    HW1 3594   2.911   2.903   0.699 -0.1535 -1.4106 -1.4302
  899SOL    HW2 3595   2.825   3.017   0.635  0.6626 -1.3784 -3.2544
  899SOL     MW 3596   2.893   2.964   0.637  0.1019 -0.5434 -0.4992
  900SOL     OW 3597   0.109   2.408   1.085  0.4812 -0.2613 -0.0713
  900SOL    HW1 3598   0.099   2.506   1.072 -1.6892 -1.1178 -1.2613
  900SOL    HW2 3599   0.092   2.367   1.000 -0.2617 -0.0486  1.3966
  900SOL     MW 3600   0.105   2.416   1.072  0.0968 -0.3463 -0.0346
  901SOL     OW 3601   1.745   2.897   1.727 -0.6968  0.4514 -0.0699
  901SOL    HW1 3602   1.808   2.820   1.725  0.2194 -1.3404  0.7103
  901SOL    HW2 3603   1.695   2.897   1.645  0.1893  1.6406  0.4598
  901SOL     MW 3604   1.747   2.887   1.716 -0.4590  0.3719  0.1029
  902SOL     OW 3605   2.678   2.115   1.811 -0.3268 -0.3877  0.2473
  902SOL    HW1 3606   2.668   2.052   1.744 -1.3010  0.8081  1.2000
  902SOL    HW2 3607   2.756   2.085   1.855 -0.7878  1.3002  1.2530
  902SOL     MW 3608   2.687   2.103   1.808 -0.5161 -0.0072  0.5057
  903SOL     OW 3609   1.586   2.780   0.513 -0.2701  0.1094  0.2061
  903SOL    HW1 3610   1.640   2.702   0.556 -0.3106 -0.4038  0.8916
  903SOL    HW2 3611   1.549   2.813   0.599 -1.9413 -2.0003 -1.3794
  903SOL     MW 3612   1.588   2.774   0.530 -0.4959 -0.2366  0.0873
  904SOL     OW 3613   2.490   2.548   1.724 -0.4376  0.7996  0.0788
  904SOL    HW1 3614   2.423   2.548   1.650 -0.6919 -1.3485 -0.8814
  904SOL    HW2 3615   2.555   2.478   1.713  4.4729  3.1504  0.2151
  904SOL     MW 3616   2.490   2.539   1.713  0.1767  0.8263 -0.0299
  905SOL     OW 3617   2.337   2.571   2.179  0.0460  0.2323 -0.0185
  905SOL    HW1 3618   2.398   2.577   2.106  1.5253  0.6344  0.1587
  905SOL    HW2 3619   2.297   2.484   2.180 -0.1969 -0.4750 -1.8380
  905SOL     MW 3620   2.340   2.561   2.170  0.2091  0.1920 -0.2352
  906SOL     OW 3621   2.423   2.520   0.873 -0.1576  0.0798 -0.0164
  906SOL    HW1 3622   2.518   2.523   0.905  0.0315  1.1519 -0.7262
  906SOL    HW2 3623   2.396   2.616   0.852 -0.4547 -0.0100 -0.2266
  906SOL     MW 3624   2.432   2.533   0.875 -0.1719  0.2094 -0.1378
  907SOL     OW 3625   2.609   2.821   1.346  0.2785 -0.5557  0.1223
  907SOL    HW1 3626   2.662   2.887   1.388 -1.0277 -0.0649  0.0339
  907SOL    HW2 3627   2.649   2.817   1.260  1.8340 -1.9681 -0.4897
  907SOL     MW 3628   2.622   2.829   1.340  0.3114 -0.6773  0.0299
  908SOL     OW 3629   2.748   2.387   3.088  0.8695 -0.2069 -0.5169
  908SOL    HW1 3630   2.695   2.306   3.120 -2.1622 -1.3761  1.9748
  908SOL    HW2 3631   2.720   2.461   3.149 -1.1014 -1.0297 -0.4997
  908SOL     MW 3632   2.737   2.386   3.101  0.2094 -0.4697 -0.1859
  909SOL     OW 3633   1.721   0.142   1.132  0.2469  0.2859 -0.3330
  909SOL    HW1 3634   1.709   0.217   1.074  0.3922 -0.3168 -0.7878
  909SOL    HW2 3635   1.792   0.170   1.192 -3.0559  0.0933 -1.1135
  909SOL     MW 3636   1.729   0.156   1.132 -0.1697  0.1810 -0.4960
  910SOL     OW 3637   2.352   1.805   0.416  0.5798 -0.5929  0.6324
  910SOL    HW1 3638   2.284   1.743   0.446  2.9054 -0.8945  1.3565
  910SOL    HW2 3639   2.333   1.817   0.323  0.4807  0.2975  0.2651
  910SOL     MW 3640   2.340   1.798   0.408  0.8735 -0.5152  0.6795
  911SOL     OW 3641   2.217   2.242   1.734  0.2055  0.0439 -0.2990
  911SOL    HW1 3642   2.307   2.240   1.767  0.0066  2.0085 -1.6647
  911SOL    HW2 3643   2.234   2.227   1.641  1.8326 -0.6111 -0.7878
  911SOL     MW 3644   2.231   2.240   1.726  0.3939  0.2167 -0.5437
  912SOL     OW 3645   2.942   1.932   1.520 -0.2443 -0.0449 -0.1456
  912SOL    HW1 3646   2.966   1.956   1.423 -2.5014  1.1007 -0.9781
  912SOL    HW2 3647   2.852   1.970   1.541 -1.2739  0.2350  1.7399
  912SOL     MW 3648   2.933   1.940   1.510 -0.6780  0.1432 -0.0067
  913SOL     OW 3649   2.584   3.023   0.371  0.7478  0.1543 -0.2254
  913SOL    HW1 3650   2.640   2.946   0.372  2.4394  0.8633  2.6514
  913SOL    HW2 3651   2.500   2.974   0.364  3.0960  0.5232 -2.2110
  913SOL     MW 3652   2.580   3.006   0.370  1.2808  0.2965 -0.1078
  914SOL     OW 3653   2.698   1.742   3.050 -0.2315  0.2813 -0.2093
  914SOL    HW1 3654   2.778   1.786   3.009 -0.1306 -1.9333 -0.5884
  914SOL    HW2 3655   2.622   1.776   2.997 -5.5116 -0.5912  0.3682
  914SOL     MW 3656   2.698   1.752   3.037 -0.9148 -0.1260 -0.1831
  915SOL     OW 3657   1.705   0.224   0.224  0.0174  0.0671 -0.0484
  915SOL    HW1 3658   1.769   0.181   0.275 -1.3481 -0.7395 -0.9285
  915SOL    HW2 3659   1.624   0.171   0.239  1.3743  1.2484  0.2002
  915SOL     MW 3660   1.703   0.211   0.233  0.0162  0.1165 -0.1317
  916SOL     OW 3661   1.817   2.081   1.938 -0.1056  0.4142  0.0510
  916SOL    HW1 3662   1.827   2.180   1.938 -0.0153  0.5524  1.4215
  916SOL    HW2 3663   1.839   2.052   1.850 -0.5458  1.8670 -0.6411
  916SOL     MW 3664   1.822   2.090   1.926 -0.1518  0.6241  0.1405
  917SOL     OW 3665   2.517   2.187   2.550  0.4995 -0.3767 -0.5174
  917SOL    HW1 3666   2.504   2.231   2.634 -1.9212  0.1028 -0.3889
  917SOL    HW2 3667   2.584   2.231   2.504 -0.8178  0.0650  1.6055
  917SOL     MW 3668   2.524   2.198   2.555  0.0063 -0.2552 -0.2204
  918SOL     OW 3669   1.976   1.609   2.710  0.4563  0.7114  0.4447
  918SOL    HW1 3670   1.917   1.642   2.640 -2.0068 -1.0390  3.5374
  918SOL    HW2 3671   2.055   1.658   2.698 -0.2128  1.6505 -0.8677
  918SOL     MW 3672   1.979   1.620   2.699  0.0431  0.6044  0.6796
  919SOL     OW 3673   0.041   2.318   2.270 -0.1317 -0.1114  0.2619
  919SOL    HW1 3674  -0.033   2.258   2.245  0.6379 -2.7376 -0.6515
  919SOL    HW2 3675   0.102   2.332   2.193  0.5299 -0.3644 -0.5626
  919SOL     MW 3676   0.039   2.312   2.256  0.0572 -0.4913  0.0326
  920SOL     OW 3677   2.751   2.822   3.100 -0.5413  0.2335 -0.0461
  920SOL    HW1 3678   2.664   2.860   3.123 -1.7288 -2.3801  1.3106
  920SOL    HW2 3679   2.739   2.749   3.032  2.2619  0.1708 -0.1732
  920SOL     MW 3680   2.738   2.817   3.094 -0.3281 -0.1196  0.1162
  921SOL     OW 3681   2.434   2.577   2.601  0.1064  0.0238 -0.3211
  921SOL    HW1 3682   2.509   2.586   2.543 -2.7062  0.5238  0.0528
  921SOL    HW2 3683   2.444   2.491   2.638 -1.3182 -2.2586  2.9140
  921SOL     MW 3684   2.445   2.567   2.598 -0.4526 -0.2114  0.1551
  922SOL     OW 3685   2.023   2.845   0.320 -0.0316  0.0182  0.5797
  922SOL    HW1 3686   2.015   2.863   0.225  0.5792  0.9526  0.8145
  922SOL    HW2 3687   2.011   2.748   0.322 -0.5886  1.2700  0.2792
  922SOL     MW 3688   2.020   2.835   0.307 -0.0245  0.3067  0.5710
  923SOL     OW 3689   2.167   2.842   1.670 -0.5441  0.3043  0.0591
  923SOL    HW1 3690   2.203   2.774   1.613 -2.1569 -0.0949  1.6666
  923SOL    HW2 3691   2.123   2.900   1.609 -0.7030  0.3710 -0.6749
  923SOL     MW 3692   2.166   2.841   1.655 -0.7778  0.2604  0.1744
  924SOL     OW 3693   1.217   2.600   2.493 -0.1246  0.3886  0.1592
  924SOL    HW1 3694   1.282   2.668   2.498 -1.3190 -0.8902 -2.7810
  924SOL    HW2 3695   1.229   2.545   2.565 -1.7364 -0.0886 -0.6456
  924SOL     MW 3696   1.227   2.602   2.503 -0.4949  0.1569 -0.3349
  925SOL     OW 3697   2.968   0.224   2.602 -0.1307 -0.0689  0.2002
  925SOL    HW1 3698   2.926   0.213   2.506 -1.3538  0.9287  1.0682
  925SOL    HW2 3699   2.914   0.285   2.643 -0.8132 -2.0245 -2.0458
  925SOL     MW 3700   2.955   0.230   2.594 -0.3821 -0.1953  0.0184
  926SOL     OW 3701   2.760   2.384   2.093  0.1172 -0.0275 -0.2969
  926SOL    HW1 3702   2.811   2.438   2.157 -0.6343 -2.3286  2.4707
  926SOL    HW2 3703   2.797   2.406   2.003 -0.8996 -0.6580 -3.4261
  926SOL     MW 3704   2.772   2.394   2.090 -0.1161 -0.4143 -0.3446
  927SOL     OW 3705   2.366   0.142   0.312  0.1038 -0.0209 -0.1846
  927SOL    HW1 3706   2.460   0.153   0.306  3.3549 -0.8803  1.6238
  927SOL    HW2 3707   2.339   0.111   0.227 -2.0582 -0.5432 -0.3505
  927SOL     MW 3708   2.375   0.139   0.300  0.2475 -0.2032  0.0321
  928SOL     OW 3709   2.104   2.440   1.930 -0.2667 -0.3694  0.1194
  928SOL    HW1 3710   2.185   2.466   1.887 -2.3951  1.1763  1.6278
  928SOL    HW2 3711   2.121   2.358   1.972  2.6504 -0.2591 -2.1091
  928SOL     MW 3712   2.117   2.433   1.930 -0.1626 -0.1509  0.0244
  929SOL     OW 3713   2.711   2.380   2.445  0.3032  0.1371  0.0999
  929SOL    HW1 3714   2.760   2.333   2.377  2.4207 -0.4035 -1.1641
  929SOL    HW2 3715   2.751   2.364   2.528 -1.0217  0.5149  0.0546
  929SOL     MW 3716   2.723   2.372   2.447  0.4078  0.1156 -0.0728
  930SOL     OW 3717   2.014   2.821   2.698 -0.5720  0.6067 -0.4108
  930SOL    HW1 3718   2.028   2.749   2.759  0.5527  0.1241 -0.7116
  930SOL    HW2 3719   2.102   2.875   2.694  0.3462 -0.5337 -0.9166
  930SOL     MW 3720   2.028   2.819   2.705 -0.3025  0.3926 -0.5173
  931SOL     OW 3721   3.018   2.771   2.300  0.1776  0.4054  0.1889
  931SOL    HW1 3722   3.067   2.781   2.378  0.4435 -4.2183 -2.4117
  931SOL    HW2 3723   3.080   2.792   2.227 -2.4762 -0.6602 -0.3264
  931SOL     MW 3724   3.032   2.775   2.301 -0.1375 -0.3452 -0.2222
  932SOL     OW 3725   2.825   2.000   2.554 -0.0572 -0.4127 -0.4182
  932SOL    HW1 3726   2.923   1.993   2.558  0.9907  0.6385  2.2599
  932SOL    HW2 3727   2.803   1.997   2.460 -0.1031  1.0496  0.5898
  932SOL     MW 3728   2.835   1.999   2.542  0.0750 -0.0811  0.0681
  933SOL     OW 3729   2.020   2.879   2.285 -0.3749  0.1287  0.0512
  933SOL    HW1 3730   2.082   2.929   2.334 -0.5565  1.4077 -2.5413
  933SOL    HW2 3731   1.953   2.939   2.250 -0.8876 -0.0834  3.3707
  933SOL     MW 3732   2.019   2.894   2.287 -0.4665  0.2695  0.1471
  934SOL     OW 3733   2.001   2.681   2.482  0.4790 -0.2272  0.1136
  934SOL    HW1 3734   2.012   2.735   2.563  3.0485  0.6702  0.1628
  934SOL    HW2 3735   1.998   2.743   2.408 -1.9476  0.2828 -0.0503
  934SOL     MW 3736   2.002   2.696   2.483  0.4979 -0.0415  0.0984
  935SOL     OW 3737   2.658   1.588   1.796 -0.0199 -0.0334  0.2095
  935SOL    HW1 3738   2.756   1.582   1.774  4.2931 -0.5460 -0.8635
  935SOL    HW2 3739   2.625   1.550   1.711 -0.7612 -0.9589  0.6436
  935SOL     MW 3740   2.667   1.582   1.782  0.4513 -0.2231  0.1252
  936SOL     OW 3741   2.969   2.236   3.068 -0.1821 -0.4873 -0.2011
  936SOL    HW1 3742   3.054   2.276   3.100  0.0574 -0.2698  1.2575
  936SOL    HW2 3743   2.895   2.305   3.068 -0.8943  2.0019  1.1981
  936SOL     MW 3744   2.970   2.250   3.073 -0.2445 -0.1302  0.1760
  937SOL     OW 3745   1.950   2.111   2.659  0.0580  0.2223 -0.8171
  937SOL    HW1 3746   2.033   2.077   2.709 -0.4778  0.3513 -0.8135
  937SOL    HW2 3747   1.960   2.102   2.560 -0.1316  2.0568 -2.3242
  937SOL     MW 3748   1.962   2.105   2.652 -0.0377  0.4813 -1.0155
  938SOL     OW 3749   2.246   1.809   1.922 -0.4013 -0.7555  0.8881
  938SOL    HW1 3750   2.250   1.841   1.830 -0.8866  1.5038  0.0008
  938SOL    HW2 3751   2.254   1.886   1.977 -1.5506  0.0608  1.7831
  938SOL     MW 3752   2.247   1.823   1.917 -0.6169 -0.3497  0.8891
  939SOL     OW 3753   2.762   1.979   2.296 -0.6204 -0.4433  0.5781
  939SOL    HW1 3754   2.792   1.932   2.219  1.3324  2.3116  2.3437
  939SOL    HW2 3755   2.666   1.967   2.289 -2.5279 -0.1574  2.0465
  939SOL     MW 3756   2.753   1.971   2.285 -0.6145 -0.0421  1.0048
  940SOL     OW 3757   2.323   0.192   2.628 -0.1772 -0.2309  0.2760
  940SOL    HW1 3758   2.341   0.103   2.631  0.6213 -0.9594 -0.6627
  940SOL    HW2 3759   2.358   0.222   2.708 -0.7442  1.5663  0.7066
  940SOL     MW 3760   2.330   0.184   2.639 -0.1467 -0.0899  0.2090
  941SOL     OW 3761   0.185   2.362   2.050  0.1784  0.3424  0.0681
  941SOL    HW1 3762   0.281   2.339   2.048  2.9516 -1.4835 -0.4031
  941SOL    HW2 3763   0.138   2.364   1.962  0.4214 -0.9168  0.6436
  941SOL     MW 3764   0.191   2.359   2.038  0.5764 -0.0646  0.0818
  942SOL     OW 3765   2.898   2.173   2.170 -0.5453 -0.3374  0.0171
  942SOL    HW1 3766   2.834   2.233   2.124 -1.6662  0.7274  1.9933
  942SOL    HW2 3767   2.847   2.111   2.217 -1.5444  1.6888 -1.0763
  942SOL     MW 3768   2.883   2.173   2.170 -0.8250  0.0704  0.1336
  943SOL     OW 3769   0.308   2.105   2.252  0.4854 -0.1658  0.4481
  943SOL    HW1 3770   0.253   2.154   2.316 -0.7290 -0.0000  2.5114
  943SOL    HW2 3771   0.393   2.092   2.295  0.1444  1.1240 -0.9303
  943SOL     MW 3772   0.312   2.110   2.266  0.2802  0.0263  0.5385
  944SOL     OW 3773   2.084   2.709   2.093 -0.0324  0.3869  0.0829
  944SOL    HW1 3774   2.149   2.646   2.124 -1.6320  0.0583  2.1404
  944SOL    HW2 3775   2.073   2.773   2.174  3.2446  1.0640 -0.7869
  944SOL     MW 3776   2.091   2.709   2.107  0.1889  0.4329  0.2396
  945SOL     OW 3777   2.663   2.664   2.868 -0.4612 -0.1126 -0.0746
  945SOL    HW1 3778   2.695   2.577   2.842 -0.4056  2.1687  0.5989
  945SOL    HW2 3779   2.633   2.709   2.790 -1.2588  0.4191  0.9036
  945SOL     MW 3780   2.664   2.659   2.854 -0.5591  0.2586  0.1433
  946SOL     OW 3781   2.441   2.792   2.311 -0.4271  0.4377 -0.2896
  946SOL    HW1 3782   2.481   2.829   2.230  1.9518 -0.4487 -1.8520
  946SOL    HW2 3783   2.396   2.717   2.276 -0.4899  4.0440  2.8326
  946SOL     MW 3784   2.440   2.787   2.296 -0.1215  0.7966 -0.0838
  947SOL     OW 3785   1.946   0.101   0.319 -0.6309 -0.4376  0.1714
  947SOL    HW1 3786   1.959   0.014   0.280  0.4330  2.2730  2.9177
  947SOL    HW2 3787   2.019   0.096   0.380 -1.2656 -2.0118  0.7115
  947SOL     MW 3788   1.958   0.089   0.322 -0.5742 -0.2877  0.6050
  948SOL     OW 3789   1.807   2.993   2.683  0.9117  0.5961  0.0447
  948SOL    HW1 3790   1.864   2.914   2.681 -1.0379 -0.4424 -0.3981
  948SOL    HW2 3791   1.784   3.013   2.594  1.1002  1.5469 -0.2517
  948SOL     MW 3792   1.811   2.985   2.671  0.6793  0.5845 -0.0528
  949SOL     OW 3793   2.505   1.928   2.291 -0.3401 -0.7196 -0.1787
  949SOL    HW1 3794   2.476   1.835   2.276 -0.2701  1.5414  2.3221
  949SOL    HW2 3795   2.441   1.967   2.350 -2.2442  2.2923 -1.2629
  949SOL     MW 3796   2.492   1.921   2.297 -0.5821 -0.0239  0.0082
  950SOL     OW 3797   2.261   2.509   2.949  0.0500  0.2651  0.0841
  950SOL    HW1 3798   2.294   2.439   2.893  0.9198  0.2822 -2.0138
  950SOL    HW2 3799   2.186   2.550   2.909 -0.1371 -1.3754 -1.1206
  950SOL     MW 3800   2.255   2.505   2.936  0.1401  0.0509 -0.3517
  951SOL     OW 3801   3.006   2.111   2.822 -0.4473 -0.5401 -0.1031
  951SOL    HW1 3802   3.007   2.146   2.917 -0.0264 -4.1319  3.6319
  951SOL    HW2 3803   3.095   2.085   2.798 -0.2257  2.0064  1.9711
  951SOL     MW 3804   3.018   2.112   2.831 -0.3626 -0.6780  0.6634
  952SOL     OW 3805   3.067   1.666   2.157 -0.6328 -0.3010 -0.1007
  952SOL    HW1 3806   2.992   1.718   2.127  0.0462  0.1271 -1.9467
  952SOL    HW2 3807   3.140   1.726   2.176 -0.8903 -0.3744 -2.1908
  952SOL     MW 3808   3.067   1.681   2.156 -0.5772 -0.2542 -0.6200
  953SOL     OW 3809   1.918   1.798   2.910  0.0566 -0.2479 -0.0386
  953SOL    HW1 3810   1.862   1.744   2.965  0.1212 -0.7585 -1.0365
  953SOL    HW2 3811   1.946   1.726   2.852 -0.6094 -0.0735 -0.5284
  953SOL     MW 3812   1.914   1.782   2.910 -0.0228 -0.2923 -0.2349
  954SOL     OW 3813   2.396   2.093   2.886 -0.7006 -0.1883  0.2192
  954SOL    HW1 3814   2.308   2.084   2.848 -2.9721 -2.2514 -0.0279
  954SOL    HW2 3815   2.445   2.051   2.809 -1.3475 -1.8021  0.0742
  954SOL     MW 3816   2.391   2.086   2.871 -1.0856 -0.6735  0.1674
  955SOL     OW 3817   1.549   1.579   2.600 -0.8196 -0.1372 -0.5191
  955SOL    HW1 3818   1.522   1.583   2.513 -2.2374 -2.3156  2.1146
  955SOL    HW2 3819   1.633   1.633   2.596 -0.8038  1.3895 -2.7236
  955SOL     MW 3820   1.557   1.587   2.588 -1.0046 -0.2232 -0.4624
  956SOL     OW 3821   2.691   2.407   2.819 -0.3852  0.2596 -0.1185
  956SOL    HW1 3822   2.706   2.379   2.909  0.1221  0.7357  1.3120
  956SOL    HW2 3823   2.768   2.370   2.773  1.0392 -0.0156 -1.1965
  956SOL     MW 3824   2.703   2.399   2.825 -0.1303  0.2861 -0.0720
  957SOL     OW 3825   2.361   2.847   0.373  0.0675 -0.2717 -0.8615
  957SOL    HW1 3826   2.288   2.831   0.318  0.6313  1.0855  1.5206
  957SOL    HW2 3827   2.312   2.835   0.456 -0.3588  1.1775  1.3239
  957SOL     MW 3828   2.345   2.844   0.377  0.0857  0.0986 -0.2589
  958SOL     OW 3829   2.034   2.592   2.839  0.2371  0.1355 -0.1594
  958SOL    HW1 3830   2.034   2.498   2.801 -1.3914 -1.0055 -1.8879
  958SOL    HW2 3831   1.955   2.603   2.891  0.0719  2.4756 -0.1813
  958SOL     MW 3832   2.024   2.581   2.841  0.0005  0.2937 -0.3903
  959SOL     OW 3833   2.477   2.597   0.339 -0.1336 -0.5711  0.2095
  959SOL    HW1 3834   2.551   2.591   0.276  1.1271  3.9733  0.1039
  959SOL    HW2 3835   2.450   2.690   0.338  0.0026  1.5371 -0.4821
  959SOL     MW 3836   2.483   2.609   0.331  0.0507  0.3066  0.1043
  960SOL     OW 3837   1.943   2.261   2.212 -0.5883 -0.6783  0.0670
  960SOL    HW1 3838   1.961   2.168   2.206  0.8287  0.7520  0.8021
  960SOL    HW2 3839   1.904   2.279   2.297  1.5815 -0.8820  2.4544
  960SOL     MW 3840   1.940   2.251   2.222 -0.1150 -0.5165  0.4790
  961SOL     OW 3841   2.197   2.332   2.251 -0.2309 -0.3611  0.3722
  961SOL    HW1 3842   2.099   2.338   2.243 -0.7062  2.1224 -0.0721
  961SOL    HW2 3843   2.218   2.375   2.341 -0.6055 -0.9877 -2.3975
  961SOL     MW 3844   2.187   2.339   2.262 -0.3430 -0.1161 -0.0519
  962SOL     OW 3845   2.159   2.032   2.800 -0.4405  0.2205 -0.1611
  962SOL    HW1 3846   2.122   2.001   2.880  2.2005  1.0237  1.4764
  962SOL    HW2 3847   2.183   1.952   2.744  1.5325 -0.9793 -2.2308
  962SOL     MW 3848   2.157   2.017   2.803  0.1682  0.1682 -0.2181
  963SOL     OW 3849   1.829   2.591   2.075  0.0878 -0.2069 -0.2177
  963SOL    HW1 3850   1.920   2.634   2.085  0.0236 -0.9633 -1.1244
  963SOL    HW2 3851   1.841   2.514   2.019 -1.9158 -0.1528  0.7805
  963SOL     MW 3852   1.842   2.586   2.068 -0.1850 -0.2996 -0.2056
  964SOL     OW 3853   1.773   1.931   2.722  0.1659 -0.3993  0.3341
  964SOL    HW1 3854   1.842   1.998   2.693  0.2996  5.1124 -2.8654
  964SOL    HW2 3855   1.813   1.872   2.790  0.4835 -2.4290 -2.5336
  964SOL     MW 3856   1.788   1.932   2.727  0.2255  0.0601 -0.4664
  965SOL     OW 3857   2.223   2.769   0.614  0.0297 -0.1532  0.4944
  965SOL    HW1 3858   2.233   2.673   0.607 -0.6168  2.2451 -3.1345
  965SOL    HW2 3859   2.270   2.788   0.698  1.0180  1.2522  1.4412
  965SOL     MW 3860   2.231   2.759   0.625  0.0748  0.3487  0.1405
  966SOL     OW 3861   2.675   2.674   2.485  0.6678  0.1455 -0.5592
  966SOL    HW1 3862   2.616   2.721   2.429  0.8792  0.8041  1.3514
  966SOL    HW2 3863   2.692   2.589   2.440 -4.4499 -0.1228 -0.6457
  966SOL     MW 3864   2.669   2.669   2.472  0.0204  0.1970 -0.3185
  967SOL     OW 3865   2.776   3.033   2.898 -0.0431  0.6658 -0.1027
  967SOL    HW1 3866   2.759   2.954   2.950  0.8218 -0.4070  0.3474
  967SOL    HW2 3867   2.690   3.053   2.853 -0.9327  0.4498 -2.2747
  967SOL     MW 3868   2.762   3.025   2.899 -0.0464  0.4957 -0.3299
  968SOL     OW 3869   3.034   2.637   2.919 -0.4199 -0.1972 -0.1560
  968SOL    HW1 3870   2.989   2.660   2.830 -0.2784 -0.3948  1.7092
  968SOL    HW2 3871   3.104   2.574   2.890 -0.7881 -3.2442  1.3001
  968SOL     MW 3872   3.038   2.632   2.904 -0.4498 -0.6253  0.2822
  969SOL     OW 3873   1.566   2.144   1.650  0.3969 -1.1840 -0.8007
  969SOL    HW1 3874   1.619   2.064   1.628 -0.4399  0.4436 -0.1002
  969SOL    HW2 3875   1.552   2.157   1.748 -0.0284 -1.9470 -0.5967
  969SOL     MW 3876   1.571   2.135   1.660  0.2304 -1.0699 -0.6813
  970SOL     OW 3877   1.661   1.756   1.833  0.3849  0.6130  0.8296
  970SOL    HW1 3878   1.717   1.713   1.892  1.5602  0.7209 -0.8517
  970SOL    HW2 3879   1.580   1.775   1.879 -2.3864  0.8897 -1.5307
  970SOL     MW 3880   1.658   1.753   1.847  0.1743  0.6638  0.2963
  971SOL     OW 3881   1.756   3.087   2.396  0.5317  0.3552  0.1903
  971SOL    HW1 3882   1.788   3.059   2.309 -2.1612  1.4983  1.3422
  971SOL    HW2 3883   1.813   3.159   2.419  1.3049  0.3993 -0.9942
  971SOL     MW 3884   1.768   3.093   2.388  0.2784  0.5118  0.1860
  972SOL     OW 3885   0.265   2.877   2.467 -0.0044 -0.5294  0.2750
  972SOL    HW1 3886   0.340   2.817   2.474  0.6930 -1.0073  0.1947
  972SOL    HW2 3887   0.311   2.963   2.486  0.6047  1.7698  0.3772
  972SOL     MW 3888   0.281   2.880   2.470  0.1680 -0.2891  0.2779
  973SOL     OW 3889   2.526   0.019   2.065 -0.1553 -0.0747  0.2188
  973SOL    HW1 3890   2.532  -0.073   2.042  1.2015 -1.7554 -1.7284
  973SOL    HW2 3891   2.567   0.061   1.985 -2.7210  1.0247 -1.2838
  973SOL     MW 3892   2.532   0.013   2.051 -0.3148 -0.1514 -0.2363
  974SOL     OW 3893   2.057   0.214   2.688  0.0974 -0.4827  0.2239
  974SOL    HW1 3894   2.149   0.203   2.665 -0.3571  0.4891 -2.3990
  974SOL    HW2 3895   2.034   0.157   2.765  0.3253  2.3143  1.2126
  974SOL     MW 3896   2.066   0.205   2.695  0.0675  0.0146  0.0082
  975SOL     OW 3897   2.197   2.459   2.496  0.1277  0.6914 -0.1209
  975SOL    HW1 3898   2.265   2.518   2.533  0.7134  0.3717  2.8893
  975SOL    HW2 3899   2.111   2.506   2.497  0.0941 -1.1182 -0.6415
  975SOL     MW 3900   2.195   2.473   2.501  0.2005  0.4105  0.2076
  976SOL     OW 3901   0.215   0.352   1.734 -0.8655 -0.6176  0.1113
  976SOL    HW1 3902   0.286   0.285   1.750  0.2936 -0.4648 -1.3973
  976SOL    HW2 3903   0.157   0.309   1.670  3.2529  2.4165  1.9799
  976SOL     MW 3904   0.217   0.338   1.728 -0.1692 -0.1971  0.1588
  977SOL     OW 3905   1.735   2.609   2.508  0.0692  0.1902  0.4370
  977SOL    HW1 3906   1.750   2.517   2.493  0.2731  0.5582  0.3612
  977SOL    HW2 3907   1.822   2.645   2.506 -0.2881 -2.4748 -0.8787
  977SOL     MW 3908   1.748   2.602   2.506  0.0490 -0.1129  0.2534
   3.10000   3.10000   3.10000
