977 TIP4P/2005f water molecules t=   1.35000 step= 1350
 3908
    1SOL     OW    1   0.371   0.849   0.032  0.5027  0.1357 -0.1707
    1SOL    HW1    2   0.338   0.876  -0.057 -1.4271 -0.4782 -1.0762
    1SOL    HW2    3   0.301   0.785   0.059  1.5759  0.2686  2.3243
    1SOL     MW    4   0.358   0.844   0.024  0.3897  0.0723  0.0390
    2SOL     OW    5   0.343   3.037   1.154 -0.2462 -0.4082 -0.4320
    2SOL    HW1    6   0.395   3.104   1.104  0.4329  0.1402 -0.1173
    2SOL    HW2    7   0.254   3.081   1.164  1.4137  1.3575 -3.2043
    2SOL     MW    8   0.338   3.052   1.149  0.0624 -0.1029 -0.7562
    3SOL     OW    9   2.612   0.340   0.957  0.4097  0.1751 -0.9035
    3SOL    HW1   10   2.638   0.399   0.894 -0.7422 -2.7166 -0.2973
    3SOL    HW2   11   2.577   0.389   1.036 -1.7539  2.8590  4.2600
    3SOL     MW   12   2.611   0.354   0.959 -0.0278  0.1477 -0.1423
    4SOL     OW   13   3.058   1.742   0.582 -0.0503  0.0220  0.3092
    4SOL    HW1   14   3.014   1.822   0.549  0.4375  0.1823 -0.1988
    4SOL    HW2   15   3.106   1.700   0.507 -1.7824 -3.0007 -0.1856
    4SOL     MW   16   3.059   1.747   0.568 -0.2145 -0.3557  0.1769
    5SOL     OW   17   1.654   1.527   0.589 -0.0287 -0.1041  0.8270
    5SOL    HW1   18   1.689   1.489   0.670 -3.9448 -0.3160  0.3827
    5SOL    HW2   19   1.553   1.508   0.604 -3.7479 -1.5065  0.2265
    5SOL     MW   20   1.645   1.520   0.602 -1.0361 -0.3171  0.6891
    6SOL     OW   21   0.828   1.389   0.579 -0.5860  0.1377  0.2206
    6SOL    HW1   22   0.735   1.404   0.552 -2.6981 -0.9725  1.0766
    6SOL    HW2   23   0.811   1.311   0.634 -0.5744  1.0050  0.4786
    6SOL     MW   24   0.813   1.381   0.582 -0.8631  0.1056  0.3676
    7SOL     OW   25   1.999   1.053   0.006 -0.2822 -0.2503 -0.0753
    7SOL    HW1   26   2.073   1.104  -0.017  0.4059  0.4968 -1.4898
    7SOL    HW2   27   2.007   1.047   0.103  2.0988 -0.1900  3.1213
    7SOL     MW   28   2.010   1.059   0.016  0.1228 -0.1438  0.1599
    8SOL     OW   29   0.804   1.539   1.183 -0.9925 -0.3502 -0.1700
    8SOL    HW1   30   0.894   1.562   1.173  0.1430 -1.1459  0.3559
    8SOL    HW2   31   0.820   1.451   1.218  0.1274  1.6439 -0.6902
    8SOL     MW   32   0.818   1.530   1.186 -0.6949 -0.1921 -0.1692
    9SOL     OW   33   1.027   0.510   1.334  0.4799  0.0032  0.1221
    9SOL    HW1   34   0.972   0.429   1.312 -0.6698  1.1003  2.0542
    9SOL    HW2   35   1.061   0.500   1.426 -1.0495 -2.5596  1.0569
    9SOL     MW   36   1.024   0.498   1.343  0.1264 -0.1902  0.5004
   10SOL     OW   37   0.254   0.787   0.529 -0.4151  0.1457  0.0972
   10SOL    HW1   38   0.334   0.830   0.493 -0.3661 -0.1484 -0.8624
   10SOL    HW2   39   0.253   0.827   0.619 -0.0895  0.6811  1.3957
   10SOL     MW   40   0.264   0.798   0.536 -0.3657  0.1775  0.1419
   11SOL     OW   41   0.738   1.145   1.586  0.0603  0.4420 -0.2084
   11SOL    HW1   42   0.792   1.133   1.662 -0.8833 -2.6499  0.3375
   11SOL    HW2   43   0.734   1.051   1.557  2.3684  2.5327 -0.5036
   11SOL     MW   44   0.745   1.131   1.592  0.2404  0.3099 -0.1753
   12SOL     OW   45   3.045   1.141   0.874 -0.2667  0.1900 -0.5378
   12SOL    HW1   46   3.104   1.212   0.908 -0.2007  0.2100  1.3893
   12SOL    HW2   47   2.989   1.185   0.816 -2.3858  0.0021 -1.0951
   12SOL     MW   48   3.046   1.156   0.871 -0.5376  0.1679 -0.3571
   13SOL     OW   49   1.853   1.424   1.319 -0.2612  0.2118 -0.6421
   13SOL    HW1   50   1.915   1.375   1.275 -2.5725  1.4229 -0.7252
   13SOL    HW2   51   1.849   1.515   1.279 -1.2790  1.2297 -0.6102
   13SOL     MW   52   1.860   1.430   1.308 -0.7004  0.5059 -0.6489
   14SOL     OW   53   0.551   0.311   1.860  0.2352 -0.2885 -0.8866
   14SOL    HW1   54   0.503   0.234   1.845  2.3718  0.2719 -1.8304
   14SOL    HW2   55   0.603   0.308   1.783 -1.5672  0.2377 -0.0256
   14SOL     MW   56   0.552   0.301   1.848  0.2793 -0.1451 -0.8975
   15SOL     OW   57   1.986   0.340   1.048 -0.1387 -0.1994  0.2838
   15SOL    HW1   58   1.973   0.409   1.110 -0.1625 -0.9666  0.1270
   15SOL    HW2   59   2.052   0.374   0.984  2.2319 -1.9895 -0.0329
   15SOL     MW   60   1.993   0.353   1.048  0.1710 -0.5368  0.2214
   16SOL     OW   61   0.230   1.824   0.305  0.4490 -0.0377 -0.0454
   16SOL    HW1   62   0.323   1.811   0.272  0.7395 -0.4889 -1.6872
   16SOL    HW2   63   0.222   1.915   0.331 -0.4196 -0.7670  0.2081
   16SOL     MW   64   0.241   1.834   0.304  0.3727 -0.1934 -0.2286
   17SOL     OW   65   1.043   0.892   1.422  0.0906 -0.3679  0.1488
   17SOL    HW1   66   1.093   0.877   1.508  1.1846  1.1810 -0.1924
   17SOL    HW2   67   0.945   0.887   1.429  0.7209  1.3309  0.0905
   17SOL     MW   68   1.037   0.889   1.434  0.3181  0.0606  0.0961
   18SOL     OW   69   0.117   1.592   0.361  0.6848 -0.1007 -0.2161
   18SOL    HW1   70   0.169   1.678   0.360  2.0070  0.0542  2.1182
   18SOL    HW2   71   0.106   1.569   0.271 -1.8475  0.2035 -0.9989
   18SOL     MW   72   0.122   1.600   0.349  0.5252 -0.0401 -0.0114
   19SOL     OW   73   0.109   1.359   0.962  0.0429  0.5821 -0.3399
   19SOL    HW1   74   0.154   1.386   0.883 -0.8290  0.8723  1.9550
   19SOL    HW2   75   0.016   1.388   0.957  2.3070  0.4477 -1.2212
   19SOL     MW   76   0.103   1.366   0.951  0.2266  0.6027 -0.1534
   20SOL     OW   77   0.414   2.166   1.200  0.0755  0.1378 -0.2407
   20SOL    HW1   78   0.371   2.094   1.157  0.9685  0.0971 -1.9253
   20SOL    HW2   79   0.395   2.160   1.295 -1.5168 -0.6860  0.2278
   20SOL     MW   80   0.406   2.155   1.207 -0.0168  0.0237 -0.4012
   21SOL     OW   81   0.485   0.874   0.400  0.3102  0.5524 -0.1951
   21SOL    HW1   82   0.558   0.849   0.458  0.7622  0.5867  0.6766
   21SOL    HW2   83   0.533   0.876   0.317 -2.7000  0.3321 -0.4703
   21SOL     MW   84   0.501   0.871   0.397 -0.0273  0.5278 -0.1164
   22SOL     OW   85   1.530   0.700   0.964 -0.0907  0.1168 -0.4187
   22SOL    HW1   86   1.512   0.655   0.884  0.2683 -2.1917 -1.7676
   22SOL    HW2   87   1.443   0.732   0.995  0.2108 -1.2550 -0.7489
   22SOL     MW   88   1.516   0.699   0.958 -0.0036 -0.3688 -0.6402
   23SOL     OW   89   3.074   0.691   0.672 -0.0407  0.5468  0.2022
   23SOL    HW1   90   3.125   0.619   0.711  0.0884 -0.0329 -1.1899
   23SOL    HW2   91   3.130   0.765   0.699  2.7952  0.3544  0.0503
   23SOL     MW   92   3.088   0.691   0.681  0.3505  0.4449 -0.0015
   24SOL     OW   93   2.047   2.217   3.090  0.0924 -0.2440 -0.8186
   24SOL    HW1   94   2.032   2.217   3.185  1.1224 -1.4006  1.2211
   24SOL    HW2   95   2.064   2.129   3.054  1.0084 -2.2279 -0.5077
   24SOL     MW   96   2.047   2.206   3.098  0.3492 -0.6584 -0.5085
   25SOL     OW   97   0.248   1.346   0.442  0.0210 -0.4138 -0.7957
   25SOL    HW1   98   0.222   1.435   0.399  4.4625  2.2614  0.1007
   25SOL    HW2   99   0.323   1.320   0.395 -0.6417  0.2483  2.4960
   25SOL     MW  100   0.255   1.355   0.430  0.5196  0.0265 -0.2431
   26SOL     OW  101   2.060   1.040   0.284  0.0074 -0.0755 -0.2424
   26SOL    HW1  102   2.007   1.073   0.357 -1.3239 -2.0301 -0.4014
   26SOL    HW2  103   2.135   1.098   0.281  1.7808  1.1807 -0.7179
   26SOL     MW  104   2.063   1.052   0.293  0.0657 -0.1677 -0.3261
   27SOL     OW  105   1.938   1.431   0.211 -0.8367 -0.3970  0.3503
   27SOL    HW1  106   1.875   1.506   0.223  0.0680  1.1492 -0.1856
   27SOL    HW2  107   1.981   1.425   0.299 -0.0640 -0.2600  0.9378
   27SOL     MW  108   1.935   1.440   0.224 -0.6154 -0.1749  0.3571
   28SOL     OW  109   0.444   1.003   1.999  0.3772  0.0131  0.3544
   28SOL    HW1  110   0.475   1.008   2.095  1.5189  1.3927  0.0194
   28SOL    HW2  111   0.347   0.999   2.011  0.0788  1.6495 -1.2151
   28SOL     MW  112   0.435   1.003   2.013  0.4885  0.4110  0.1032
   29SOL     OW  113   0.249   1.431   0.730 -0.0588 -0.0182 -0.7718
   29SOL    HW1  114   0.280   1.529   0.729  1.4686  0.0465  1.1549
   29SOL    HW2  115   0.271   1.396   0.647  0.8295 -1.7777 -1.2266
   29SOL     MW  116   0.256   1.439   0.719  0.2599 -0.2418 -0.5776
   30SOL     OW  117   0.841   1.267   1.237 -0.2479  0.1039 -0.1743
   30SOL    HW1  118   0.762   1.244   1.280  1.8280 -0.6802 -0.8988
   30SOL    HW2  119   0.921   1.226   1.280 -0.9327  0.6814 -0.2211
   30SOL     MW  120   0.841   1.258   1.248 -0.0643  0.0766 -0.2761
   31SOL     OW  121   0.424   0.254   0.189  0.1350  0.2780  0.0523
   31SOL    HW1  122   0.455   0.180   0.237  0.9955  0.6372 -0.2277
   31SOL    HW2  123   0.443   0.232   0.095  1.7580  5.2679  0.7797
   31SOL     MW  124   0.430   0.242   0.183  0.4627  0.9838  0.1114
   32SOL     OW  125   2.677   0.993   1.131 -0.1782 -0.1501 -0.3511
   32SOL    HW1  126   2.621   0.923   1.121  0.5046  1.8482  1.2491
   32SOL    HW2  127   2.765   0.965   1.105 -1.7961  0.8804 -1.0467
   32SOL     MW  128   2.681   0.980   1.127 -0.3016  0.2495 -0.2317
   33SOL     OW  129   1.618   1.334   0.382 -0.0682 -0.2489 -0.3851
   33SOL    HW1  130   1.680   1.260   0.395  0.0427  1.6763  1.2980
   33SOL    HW2  131   1.639   1.404   0.444 -1.6265  0.5198  0.8614
   33SOL     MW  132   1.629   1.333   0.392 -0.2591  0.1065  0.0015
   34SOL     OW  133   1.256   1.940   1.116  0.0144  0.2545  0.5712
   34SOL    HW1  134   1.171   1.961   1.143  2.1773 -0.3183 -0.0630
   34SOL    HW2  135   1.319   1.975   1.176 -0.1222 -0.5026  2.6161
   34SOL     MW  136   1.253   1.947   1.128  0.2817  0.0791  0.7573
   35SOL     OW  137   0.356   0.122   1.807 -0.6534  0.1984  0.3859
   35SOL    HW1  138   0.404   0.059   1.862 -0.1992 -1.1185 -1.9806
   35SOL    HW2  139   0.334   0.077   1.721 -0.6174 -0.5210  0.1096
   35SOL     MW  140   0.360   0.108   1.803 -0.5887 -0.0703  0.0372
   36SOL     OW  141   1.940   1.906   0.571  0.1447  0.3799 -0.0100
   36SOL    HW1  142   1.919   1.918   0.478  0.5217 -0.8295  0.5605
   36SOL    HW2  143   1.933   1.814   0.595 -0.0280 -1.3355  1.3214
   36SOL     MW  144   1.936   1.896   0.562  0.1717 -0.0060  0.2409
   37SOL     OW  145   1.807   2.004   0.977  0.2088  0.0412  0.4874
   37SOL    HW1  146   1.758   1.961   0.912  1.9009  0.1948  0.6646
   37SOL    HW2  147   1.745   2.067   1.006 -1.6506 -2.9126 -2.9988
   37SOL     MW  148   1.793   2.007   0.972  0.1867 -0.3282  0.0508
   38SOL     OW  149   2.813   0.941   0.121 -0.0722 -0.8521  0.1013
   38SOL    HW1  150   2.834   0.908   0.211 -3.8314  0.4355 -0.7126
   38SOL    HW2  151   2.885   0.913   0.063 -2.1557 -0.4320  0.1770
   38SOL     MW  152   2.825   0.933   0.125 -0.8431 -0.6268  0.0039
   39SOL     OW  153   1.457   0.559   0.744  0.3755 -0.4342  0.0731
   39SOL    HW1  154   1.417   0.491   0.800  0.7234 -1.1936  0.6809
   39SOL    HW2  155   1.386   0.625   0.736 -0.7381 -0.8279 -0.6060
   39SOL     MW  156   1.442   0.559   0.750  0.2744 -0.5863  0.0637
   40SOL     OW  157   1.235   1.874   0.209  0.7360  0.1083 -0.2566
   40SOL    HW1  158   1.291   1.822   0.267  1.3310 -1.0742  0.2539
   40SOL    HW2  159   1.212   1.947   0.266 -0.0337 -0.8921 -1.4709
   40SOL     MW  160   1.240   1.877   0.224  0.7130 -0.1797 -0.3494
   41SOL     OW  161   0.568   0.483   1.633  0.3706  0.1567  0.2945
   41SOL    HW1  162   0.641   0.524   1.591  1.7208  2.1730  1.4799
   41SOL    HW2  163   0.499   0.552   1.642 -2.9041  3.4896  0.2714
   41SOL     MW  164   0.569   0.497   1.629  0.1167  0.8625  0.4479
   42SOL     OW  165   1.295   3.007   1.951 -0.2798  0.0743 -0.4412
   42SOL    HW1  166   1.206   3.010   1.979 -0.1800  0.7296 -0.5277
   42SOL    HW2  167   1.344   2.928   1.978 -1.6871 -1.2461 -0.4841
   42SOL     MW  168   1.290   2.997   1.958 -0.4523 -0.0135 -0.4583
   43SOL     OW  169   1.461   0.132   1.640 -0.4637 -0.0078  0.4876
   43SOL    HW1  170   1.524   0.065   1.608 -2.4092 -1.9512 -0.3049
   43SOL    HW2  171   1.380   0.083   1.631  0.9171  1.3787  1.0108
   43SOL     MW  172   1.459   0.117   1.635 -0.5382 -0.0812  0.4521
   44SOL     OW  173   1.285   0.766   1.059  0.4767  0.3686  0.0629
   44SOL    HW1  174   1.243   0.854   1.042  1.2577  1.9488 -1.3898
   44SOL    HW2  175   1.264   0.750   1.155  2.7273 -2.2557  1.8921
   44SOL     MW  176   1.276   0.775   1.069  0.8767  0.2308  0.1126
   45SOL     OW  177   1.267   0.756   0.749 -0.3106  0.0016  0.4417
   45SOL    HW1  178   1.237   0.772   0.838  0.0425  0.0114  0.0339
   45SOL    HW2  179   1.196   0.731   0.682  2.8813  2.3719  0.0257
   45SOL     MW  180   1.254   0.755   0.752  0.1571  0.3156  0.3330
   46SOL     OW  181   0.561   1.091   0.596 -0.7349  0.2585  0.2002
   46SOL    HW1  182   0.519   1.076   0.513  0.3595  1.2219  2.2422
   46SOL    HW2  183   0.656   1.082   0.586  0.2465  1.9881  0.5945
   46SOL     MW  184   0.568   1.088   0.584 -0.4610  0.6138  0.5216
   47SOL     OW  185   0.202   1.949   1.952 -0.3453  0.5078 -0.1306
   47SOL    HW1  186   0.278   1.890   1.965  0.1375 -1.7264 -0.4820
   47SOL    HW2  187   0.142   1.942   2.027 -0.5828 -0.3126  2.3200
   47SOL     MW  188   0.204   1.940   1.963 -0.3129  0.1048  0.1464
   48SOL     OW  189   1.114   0.508   1.027  0.4180  0.1540  0.3989
   48SOL    HW1  190   1.015   0.514   1.029 -0.5740 -1.0864 -2.6773
   48SOL    HW2  191   1.144   0.589   1.060  0.7213 -0.8530 -1.3338
   48SOL     MW  192   1.105   0.519   1.032  0.3271 -0.1425 -0.2356
   49SOL     OW  193   1.713   0.650   1.522 -0.0350 -0.3325  0.1015
   49SOL    HW1  194   1.714   0.602   1.605  1.1576 -0.9011 -0.0508
   49SOL    HW2  195   1.745   0.585   1.459 -1.3722  0.3855 -1.3716
   49SOL     MW  196   1.718   0.635   1.525 -0.0541 -0.3128 -0.1129
   50SOL     OW  197   1.250   1.146   0.559  0.4033  0.0459  0.2643
   50SOL    HW1  198   1.184   1.152   0.631 -2.4630  1.0872 -1.0034
   50SOL    HW2  199   1.310   1.073   0.594 -0.0190  0.5831  2.1697
   50SOL     MW  200   1.250   1.137   0.573 -0.0306  0.2542  0.3485
   51SOL     OW  201   0.310   2.933   0.906  0.2056 -0.0274 -0.3387
   51SOL    HW1  202   0.399   2.901   0.887 -1.1419  3.0527 -0.4992
   51SOL    HW2  203   0.316   2.944   1.001 -0.7884  1.5304  0.8234
   51SOL     MW  204   0.322   2.930   0.916 -0.1034  0.5845 -0.2065
   52SOL     OW  205   0.795   1.792   0.469 -0.3996 -0.1388  0.0097
   52SOL    HW1  206   0.766   1.885   0.475  0.8447  1.0298  0.4267
   52SOL    HW2  207   0.810   1.767   0.378  1.9871  3.1480 -1.4688
   52SOL     MW  208   0.794   1.801   0.458  0.0795  0.4490 -0.1304
   53SOL     OW  209   0.423   2.127   0.500  0.1665  0.2041  0.5934
   53SOL    HW1  210   0.346   2.129   0.446  3.7396  0.8390  0.5183
   53SOL    HW2  211   0.423   2.213   0.544 -0.6446 -0.2702  1.7151
   53SOL     MW  212   0.413   2.139   0.499  0.5309  0.2253  0.7315
   54SOL     OW  213   2.085   0.937   0.763  0.2752 -0.0323  0.1026
   54SOL    HW1  214   2.131   0.921   0.677 -2.2615 -1.4434 -0.0407
   54SOL    HW2  215   2.043   0.852   0.783 -1.2217  0.2090  0.7007
   54SOL     MW  216   2.085   0.924   0.754 -0.2570 -0.1866  0.1626
   55SOL     OW  217   0.536   1.595   1.665 -0.0380 -0.6459 -0.0287
   55SOL    HW1  218   0.504   1.615   1.574 -1.7107 -0.5110 -2.5010
   55SOL    HW2  219   0.557   1.506   1.687 -1.0794  0.0587 -1.7335
   55SOL     MW  220   0.535   1.586   1.656 -0.3961 -0.5351 -0.5798
   56SOL     OW  221   0.612   0.872   0.143 -0.5805  0.1841 -0.2765
   56SOL    HW1  222   0.654   0.954   0.124  0.0795 -1.5515  2.2133
   56SOL    HW2  223   0.537   0.864   0.084 -1.3569  0.4159 -1.4714
   56SOL     MW  224   0.608   0.882   0.133 -0.5958 -0.0143 -0.1056
   57SOL     OW  225   1.190   1.209   1.177 -0.1679  0.0349 -0.2148
   57SOL    HW1  226   1.282   1.227   1.193  0.5490  3.2889  0.1540
   57SOL    HW2  227   1.149   1.195   1.265  0.8460 -0.1521  2.9575
   57SOL     MW  228   1.197   1.210   1.191  0.0605  0.4395  0.2524
   58SOL     OW  229   0.521   1.222   1.294  0.0728  0.4794 -0.0609
   58SOL    HW1  230   0.489   1.308   1.265  1.9655  1.9495 -2.2658
   58SOL    HW2  231   0.497   1.228   1.388 -2.2853  0.2249 -1.8466
   58SOL     MW  232   0.514   1.234   1.303  0.0114  0.6398 -0.5874
   59SOL     OW  233   1.513   1.687   0.314 -0.0503  0.0367  0.3640
   59SOL    HW1  234   1.545   1.740   0.388  1.3331  1.4981  0.7762
   59SOL    HW2  235   1.436   1.644   0.353 -0.8336 -2.1807  0.5416
   59SOL     MW  236   1.507   1.689   0.329  0.0289 -0.0631  0.4418
   60SOL     OW  237   3.086   0.216   1.686 -0.4450 -0.7453  0.3478
   60SOL    HW1  238   3.022   0.284   1.729 -2.9448  1.5959  1.5900
   60SOL    HW2  239   3.126   0.155   1.746  2.0846 -0.8877  2.7867
   60SOL     MW  240   3.083   0.217   1.699 -0.4411 -0.4552  0.8335
   61SOL     OW  241   1.976   1.385   3.054  0.1142  0.4191 -1.0187
   61SOL    HW1  242   1.949   1.403   3.150 -0.8895 -1.4889 -0.1535
   61SOL    HW2  243   2.050   1.319   3.067  0.9989  4.4837  1.2023
   61SOL     MW  244   1.983   1.378   3.068  0.0985  0.7036 -0.6115
   62SOL     OW  245   0.545   1.710   0.521  0.1586  0.1507  0.1418
   62SOL    HW1  246   0.637   1.739   0.500  3.7223  3.5902 -1.4604
   62SOL    HW2  247   0.541   1.620   0.547 -0.7406 -1.5127 -1.0488
   62SOL     MW  248   0.557   1.702   0.522  0.5102  0.3851 -0.2267
   63SOL     OW  249   1.704   0.646   0.686 -0.0232  0.1929 -0.3764
   63SOL    HW1  250   1.713   0.741   0.673 -0.3730 -0.1814  0.9386
   63SOL    HW2  251   1.610   0.627   0.677 -0.3547 -1.9757 -0.8396
   63SOL     MW  252   1.693   0.656   0.683 -0.1131 -0.1426 -0.2640
   64SOL     OW  253   0.309   1.690   0.765 -0.4040 -0.4282 -0.2062
   64SOL    HW1  254   0.355   1.752   0.705  1.0686  0.0493  2.2594
   64SOL    HW2  255   0.219   1.724   0.764 -0.9248 -0.2415 -1.5410
   64SOL     MW  256   0.303   1.702   0.757 -0.2784 -0.3406 -0.0570
   65SOL     OW  257   1.578   2.331   0.402 -0.1323  0.0796 -0.2216
   65SOL    HW1  258   1.661   2.369   0.435  1.1427 -1.9291  1.2923
   65SOL    HW2  259   1.513   2.357   0.472 -1.5313 -2.4844  1.0445
   65SOL     MW  260   1.581   2.340   0.416 -0.1487 -0.5237  0.1452
   66SOL     OW  261   0.336   0.530   0.471 -0.0418 -0.0418 -0.3397
   66SOL    HW1  262   0.360   0.537   0.378  0.4981 -0.0684 -0.1948
   66SOL    HW2  263   0.307   0.619   0.508  0.2567  0.4709  1.4194
   66SOL     MW  264   0.335   0.543   0.463  0.0688  0.0223 -0.0885
   67SOL     OW  265   1.463   0.143   1.994 -0.3656  0.1064  0.0051
   67SOL    HW1  266   1.477   0.191   1.914  0.6877  1.4179 -0.9965
   67SOL    HW2  267   1.419   0.063   1.965  2.9990 -1.3268  0.1921
   67SOL     MW  268   1.459   0.138   1.979  0.2173  0.0904 -0.1024
   68SOL     OW  269   0.788   0.038   2.943  0.2548 -0.6495  0.0868
   68SOL    HW1  270   0.786   0.102   2.872  1.4662  0.7922 -0.5210
   68SOL    HW2  271   0.831   0.088   3.011  0.5268  2.1485  1.5914
   68SOL     MW  272   0.793   0.053   2.942  0.4505 -0.0901  0.2052
   69SOL     OW  273   0.958   0.201   1.954 -0.2444  0.2083 -0.1086
   69SOL    HW1  274   1.035   0.210   2.011 -0.2461  0.6939 -1.6329
   69SOL    HW2  275   0.920   0.113   1.979  1.5490 -0.4891  2.9943
   69SOL     MW  276   0.963   0.190   1.965 -0.0080  0.1804  0.0997
   70SOL     OW  277   0.510   1.708   1.110 -0.4845 -0.3040 -0.6075
   70SOL    HW1  278   0.570   1.752   1.168 -2.5250  2.4177  0.2880
   70SOL    HW2  279   0.569   1.676   1.039 -1.1253  0.8384 -2.2513
   70SOL     MW  280   0.526   1.709   1.108 -0.8382  0.2058 -0.7063
   71SOL     OW  281   1.552   0.533   1.156  0.0652  0.0480 -0.2235
   71SOL    HW1  282   1.551   0.598   1.225 -0.1591 -1.9573 -0.3998
   71SOL    HW2  283   1.540   0.586   1.078 -1.0574  2.9203  0.9623
   71SOL     MW  284   1.551   0.549   1.155 -0.1125  0.1624 -0.0903
   72SOL     OW  285   0.789   1.849   0.991 -0.0643  0.2719 -0.0356
   72SOL    HW1  286   0.756   1.929   0.948 -0.5769 -0.0336  1.4573
   72SOL    HW2  287   0.757   1.774   0.939 -2.3920  0.7061 -2.0926
   72SOL     MW  288   0.781   1.850   0.978 -0.4391  0.2889 -0.1100
   73SOL     OW  289   1.226   0.693   1.311  0.6019 -0.6122  0.2384
   73SOL    HW1  290   1.183   0.612   1.312  1.0238 -1.2583 -0.6042
   73SOL    HW2  291   1.153   0.754   1.330 -0.0858  2.1453 -1.2740
   73SOL     MW  292   1.211   0.691   1.314  0.5668 -0.3336 -0.0723
   74SOL     OW  293   2.861   0.263   1.095  0.5019 -0.5442 -0.6827
   74SOL    HW1  294   2.913   0.344   1.117 -0.0712 -0.3357  0.4866
   74SOL    HW2  295   2.785   0.291   1.048  0.0107  2.2057  0.4876
   74SOL     MW  296   2.858   0.277   1.092  0.3615 -0.1539 -0.3740
   75SOL     OW  297   1.584   1.351   0.105 -0.3961 -0.5231  0.2544
   75SOL    HW1  298   1.649   1.280   0.080 -1.4419 -0.6417  1.3327
   75SOL    HW2  299   1.596   1.357   0.203 -0.4742 -0.7581 -1.0561
   75SOL     MW  300   1.594   1.342   0.115 -0.5443 -0.5698  0.2238
   76SOL     OW  301   2.969   0.607   0.446  0.2600 -0.2041  0.4409
   76SOL    HW1  302   3.008   0.637   0.531  0.0810  0.6172  0.7499
   76SOL    HW2  303   3.046   0.562   0.410 -1.4153  0.1897 -1.7634
   76SOL     MW  304   2.985   0.605   0.452  0.0153 -0.0438  0.1908
   77SOL     OW  305   0.853   0.547   0.461  0.8289 -0.4491 -0.6271
   77SOL    HW1  306   0.861   0.574   0.367  1.0984 -0.3619 -0.3653
   77SOL    HW2  307   0.864   0.448   0.470  0.4537 -0.2089  0.1398
   77SOL     MW  308   0.855   0.537   0.450  0.8150 -0.4059 -0.4914
   78SOL     OW  309   0.753   0.837   1.172  0.6687  0.2782 -0.4609
   78SOL    HW1  310   0.765   0.914   1.120  2.0497  2.8042  1.1953
   78SOL    HW2  311   0.656   0.804   1.169 -0.7805 -0.7611  0.9630
   78SOL     MW  312   0.742   0.843   1.165  0.6597  0.4744 -0.0545
   79SOL     OW  313   1.899   1.629   0.629  0.1481  0.3316 -0.0352
   79SOL    HW1  314   1.816   1.605   0.584  3.6085 -1.4390 -1.8439
   79SOL    HW2  315   1.895   1.602   0.725  0.2890 -1.3742 -0.2233
   79SOL     MW  316   1.888   1.622   0.636  0.6233 -0.1271 -0.2987
   80SOL     OW  317   0.082   0.951   0.358  0.1314  0.6284  0.0124
   80SOL    HW1  318  -0.012   0.926   0.359  0.1775 -2.1737  0.3781
   80SOL    HW2  319   0.122   0.911   0.431  0.3845 -0.8465 -0.4845
   80SOL     MW  320   0.075   0.942   0.368  0.1709  0.0641 -0.0049
   81SOL     OW  321   1.860   1.896   0.320  0.0535 -0.8478  0.2191
   81SOL    HW1  322   1.829   1.799   0.297  1.4776 -1.9684  0.0160
   81SOL    HW2  323   1.801   1.957   0.264  1.0586 -1.9120 -0.0190
   81SOL     MW  324   1.848   1.891   0.309  0.3740 -1.1361  0.1609
   82SOL     OW  325   0.834   1.025   0.500  0.5777  0.3489  0.0923
   82SOL    HW1  326   0.829   1.028   0.402 -1.6054 -1.2332  0.4482
   82SOL    HW2  327   0.831   0.928   0.517  2.1076 -1.9284  1.6687
   82SOL     MW  328   0.833   1.013   0.489  0.4915 -0.1603  0.3473
   83SOL     OW  329   0.045   0.748   1.503  0.0817 -0.0574  0.3853
   83SOL    HW1  330   0.049   0.785   1.413 -3.2656  1.2564  1.4319
   83SOL    HW2  331   0.123   0.691   1.519  0.3431 -2.7764  0.9468
   83SOL     MW  332   0.056   0.745   1.493 -0.3254 -0.2428  0.5975
   84SOL     OW  333   0.037   0.196   0.900  0.2466  0.3909 -0.0482
   84SOL    HW1  334   0.002   0.264   0.957 -0.8513  0.0048  2.8423
   84SOL    HW2  335   0.055   0.119   0.954  0.8422 -0.9685 -0.5898
   84SOL     MW  336   0.035   0.195   0.914  0.1803  0.1606  0.2617
   85SOL     OW  337   0.413   0.448   0.711 -0.2692 -0.2007  0.4096
   85SOL    HW1  338   0.399   0.471   0.624  0.7286 -0.2058  2.9993
   85SOL    HW2  339   0.371   0.359   0.723 -0.9968 -0.1874  0.3305
   85SOL     MW  340   0.406   0.439   0.701 -0.2336 -0.1996  0.7408
   86SOL     OW  341   1.204   0.251   1.124 -0.4064 -0.0680 -0.0336
   86SOL    HW1  342   1.173   0.330   1.162  1.0210  0.0856  0.5563
   86SOL    HW2  343   1.299   0.251   1.118 -3.0572  1.1721 -1.1931
   86SOL     MW  344   1.212   0.261   1.128 -0.5678  0.1159 -0.1088
   87SOL     OW  345   1.110   1.481   1.210 -0.6485 -0.2846 -0.3468
   87SOL    HW1  346   1.157   1.546   1.152  0.0491  0.3050  2.2072
   87SOL    HW2  347   1.149   1.401   1.194 -1.1502  2.3592  1.7627
   87SOL     MW  348   1.121   1.479   1.200 -0.6227  0.1420  0.2685
   88SOL     OW  349   1.209   1.006   0.997  0.6666 -0.7797 -0.1467
   88SOL    HW1  350   1.307   1.016   0.983  0.9701  1.9703  1.7014
   88SOL    HW2  351   1.200   1.069   1.075  0.4555  0.3368  2.0484
   88SOL     MW  352   1.221   1.016   1.005  0.6788 -0.2695  0.3867
   89SOL     OW  353   1.742   0.732   0.342 -0.1364 -0.1556  0.6669
   89SOL    HW1  354   1.743   0.642   0.375  0.3754 -0.2618  1.8441
   89SOL    HW2  355   1.825   0.745   0.297  1.3198  0.3998  0.1988
   89SOL     MW  356   1.753   0.722   0.340  0.1232 -0.0963  0.7605
   90SOL     OW  357   0.815   1.158   2.881 -0.4505 -0.0551  0.2036
   90SOL    HW1  358   0.858   1.072   2.887  5.8406  2.4465  0.4698
   90SOL    HW2  359   0.827   1.208   2.968 -0.2868  2.0800 -0.9923
   90SOL     MW  360   0.822   1.153   2.894  0.4012  0.5566  0.0809
   91SOL     OW  361   2.170   0.668   0.509 -0.0094 -0.7994 -0.6955
   91SOL    HW1  362   2.227   0.719   0.445  1.8794  1.0068 -2.3508
   91SOL    HW2  363   2.175   0.578   0.462  0.8188 -2.6570 -1.6972
   91SOL     MW  364   2.178   0.663   0.495  0.3491 -0.8061 -1.0460
   92SOL     OW  365   1.700   0.898   0.589 -0.9371  0.2914 -0.2763
   92SOL    HW1  366   1.604   0.915   0.597 -1.7024 -0.7363 -0.1381
   92SOL    HW2  367   1.719   0.841   0.511 -0.1271 -0.0393  0.5970
   92SOL     MW  368   1.690   0.892   0.580 -0.9312  0.1122 -0.1429
   93SOL     OW  369   1.131   0.160   0.430 -0.2003  0.0528  0.3296
   93SOL    HW1  370   1.048   0.198   0.398 -1.1709 -0.3852 -1.7178
   93SOL    HW2  371   1.195   0.189   0.367 -0.0410  0.4056  0.8453
   93SOL     MW  372   1.128   0.169   0.418 -0.3074  0.0416  0.1275
   94SOL     OW  373   1.868   1.375   1.587 -0.3939 -0.3465 -0.0259
   94SOL    HW1  374   1.866   1.399   1.491  0.7305  0.6748  1.8322
   94SOL    HW2  375   1.821   1.292   1.596  1.7518  0.2985  0.3319
   94SOL     MW  376   1.862   1.367   1.575  0.0376 -0.1266  0.2665
   95SOL     OW  377   0.698   1.603   0.935 -0.2320 -0.0776 -0.0954
   95SOL    HW1  378   0.728   1.567   1.021  0.9776  1.6742 -0.4430
   95SOL    HW2  379   0.640   1.532   0.907  0.1107  0.3889  0.9276
   95SOL     MW  380   0.694   1.589   0.943 -0.0272  0.2151 -0.0063
   96SOL     OW  381   1.328   1.882   1.728 -0.0287 -0.5064 -0.1198
   96SOL    HW1  382   1.237   1.875   1.769 -0.2491  0.6099  2.0110
   96SOL    HW2  383   1.343   1.794   1.699 -4.2482  0.4851 -1.3610
   96SOL     MW  384   1.318   1.869   1.730 -0.6145 -0.2283 -0.0024
   97SOL     OW  385   1.103   1.467   0.845  0.1156 -0.0376 -0.1972
   97SOL    HW1  386   1.159   1.533   0.886  0.1156 -1.1778 -0.4422
   97SOL    HW2  387   1.032   1.519   0.802  1.3060 -0.5549  0.8751
   97SOL     MW  388   1.101   1.483   0.845  0.2727 -0.2563 -0.0881
   98SOL     OW  389   1.462   1.308   1.158 -0.3679  0.4684  0.0889
   98SOL    HW1  390   1.501   1.363   1.224  1.0493 -1.2037 -2.3149
   98SOL    HW2  391   1.461   1.364   1.075  0.9732  0.2070  2.3629
   98SOL     MW  392   1.467   1.322   1.156 -0.0039  0.2133  0.0718
   99SOL     OW  393   1.460   0.283   1.251  0.4137  0.0065  0.0915
   99SOL    HW1  394   1.475   0.370   1.214  0.9574 -0.8152 -0.3950
   99SOL    HW2  395   1.440   0.297   1.349 -4.0126  0.0054 -0.0673
   99SOL     MW  396   1.459   0.296   1.259 -0.0986 -0.1021  0.0063
  100SOL     OW  397   1.053   1.157   1.401 -0.4859 -0.0341  0.2251
  100SOL    HW1  398   1.078   1.186   1.489  1.5410  0.7036  0.7597
  100SOL    HW2  399   1.045   1.062   1.398 -1.9067  0.0043  1.6652
  100SOL     MW  400   1.055   1.148   1.412 -0.4060  0.0683  0.4856
  101SOL     OW  401   0.482   1.216   0.346  0.7141 -0.2257  0.7953
  101SOL    HW1  402   0.404   1.169   0.309 -0.7153  2.5464 -0.2187
  101SOL    HW2  403   0.561   1.202   0.299  2.1676 -2.3713  0.0104
  101SOL     MW  404   0.482   1.208   0.335  0.7173 -0.1430  0.5580
  102SOL     OW  405   2.902   0.634   0.992  0.2792  0.4861  0.4864
  102SOL    HW1  406   2.893   0.725   0.977 -1.2388  0.0307  0.1530
  102SOL    HW2  407   2.872   0.633   1.088  0.6215  1.5044 -0.5634
  102SOL     MW  408   2.897   0.646   1.003  0.1241  0.5604  0.3039
  103SOL     OW  409   1.821   0.270   1.890  0.2867 -0.6881 -0.1316
  103SOL    HW1  410   1.826   0.182   1.864  1.1820  1.3564 -1.1236
  103SOL    HW2  411   1.823   0.267   1.983  0.7671 -1.3152 -0.5490
  103SOL     MW  412   1.822   0.258   1.899  0.4682 -0.5011 -0.3175
  104SOL     OW  413   0.103   1.510   1.587 -0.1539 -0.1371  0.1488
  104SOL    HW1  414   0.176   1.473   1.630 -0.1362  3.8460 -1.7456
  104SOL    HW2  415   0.027   1.464   1.610  0.7231  0.3860 -0.6619
  104SOL     MW  416   0.102   1.499   1.596 -0.0358  0.4574 -0.2081
  105SOL     OW  417   0.002   1.206   0.424  0.0344  0.0639  0.1577
  105SOL    HW1  418   0.038   1.127   0.382  1.7224 -1.8544 -1.0064
  105SOL    HW2  419   0.077   1.259   0.439 -2.0445  1.4871 -1.4635
  105SOL     MW  420   0.017   1.203   0.421 -0.0171 -0.0015 -0.2098
  106SOL     OW  421   0.804   0.422   0.922  0.0084 -0.1211 -0.8005
  106SOL    HW1  422   0.733   0.478   0.897 -0.6525 -1.3236  0.8811
  106SOL    HW2  423   0.856   0.394   0.842 -2.6763 -0.7940 -2.3759
  106SOL     MW  424   0.802   0.426   0.908 -0.4330 -0.3685 -0.7865
  107SOL     OW  425   0.810   2.118   2.908 -0.3780  0.0766  0.0771
  107SOL    HW1  426   0.730   2.129   2.857 -1.4807 -0.9170  2.1348
  107SOL    HW2  427   0.794   2.118   3.003 -1.3291 -5.1068 -2.1531
  107SOL     MW  428   0.797   2.119   2.914 -0.6490 -0.7384  0.0543
  108SOL     OW  429   1.348   1.627   1.645  0.4438  0.2093  0.3603
  108SOL    HW1  430   1.290   1.606   1.573  0.0317 -0.9753 -5.5190
  108SOL    HW2  431   1.422   1.565   1.636 -2.4896 -0.9838  1.3834
  108SOL     MW  432   1.350   1.616   1.634  0.0024 -0.1044 -0.2804
  109SOL     OW  433   1.981   0.766   0.257  0.1277 -0.3918 -0.1421
  109SOL    HW1  434   2.000   0.859   0.272 -0.6228 -0.2799 -1.1060
  109SOL    HW2  435   2.007   0.725   0.340  0.2667 -2.4910 -0.7994
  109SOL     MW  436   1.987   0.773   0.270  0.0470 -0.6540 -0.3560
  110SOL     OW  437   0.414   1.916   0.657  0.0610  0.6321  0.1322
  110SOL    HW1  438   0.470   1.845   0.614 -1.2866  1.5759  0.9847
  110SOL    HW2  439   0.411   1.995   0.600 -1.6398  2.8584  1.5975
  110SOL     MW  440   0.421   1.917   0.644 -0.3412  1.0504  0.4380
  111SOL     OW  441   0.778   0.872   1.441  0.2104  0.3025  0.0035
  111SOL    HW1  442   0.753   0.864   1.346  0.9934  0.5424  1.8148
  111SOL    HW2  443   0.770   0.787   1.479 -1.0785  0.9520  0.8701
  111SOL     MW  444   0.774   0.860   1.433  0.1436  0.4199  0.3568
  112SOL     OW  445   1.336   1.065   1.618 -0.0259  0.1138 -0.1239
  112SOL    HW1  446   1.280   1.140   1.638 -4.3096 -0.0055  0.1405
  112SOL    HW2  447   1.278   0.989   1.615 -1.4429  0.6915  0.1635
  112SOL     MW  448   1.321   1.065   1.620 -0.7780  0.1743 -0.0511
  113SOL     OW  449   1.253   3.075   1.697  0.5449  0.5607 -0.4278
  113SOL    HW1  450   1.279   3.040   1.788  0.2348 -0.5690  1.0036
  113SOL    HW2  451   1.220   2.999   1.646 -1.1573  0.7303 -0.0501
  113SOL     MW  452   1.252   3.060   1.702  0.2794  0.4341 -0.1891
  114SOL     OW  453   0.262   2.874   1.880 -0.4204 -0.0733 -0.1716
  114SOL    HW1  454   0.345   2.902   1.922  2.9720  0.0513  0.1432
  114SOL    HW2  455   0.202   2.942   1.903  2.4443 -3.3597 -1.1993
  114SOL     MW  456   0.265   2.887   1.888  0.4052 -0.4905 -0.2657
  115SOL     OW  457   0.462   0.811   1.148 -0.2405 -0.2264 -0.5609
  115SOL    HW1  458   0.449   0.714   1.169 -1.1049  1.0741  4.3382
  115SOL    HW2  459   0.430   0.867   1.225 -2.4559  0.0017  0.4729
  115SOL     MW  460   0.456   0.806   1.161 -0.6469 -0.0247  0.2219
  116SOL     OW  461   0.818   1.064   0.985  0.4100  0.5215 -0.1880
  116SOL    HW1  462   0.811   1.108   0.897 -2.7844  1.1589 -1.7945
  116SOL    HW2  463   0.865   1.127   1.037 -1.9950 -0.7706 -2.1351
  116SOL     MW  464   0.823   1.078   0.980 -0.3288  0.4351 -0.6568
  117SOL     OW  465   1.101   1.197   0.803  0.4123 -0.2998  0.4045
  117SOL    HW1  466   1.142   1.143   0.874 -4.2248 -0.9274 -1.1584
  117SOL    HW2  467   1.102   1.289   0.842  0.0195 -1.7701 -0.1277
  117SOL     MW  468   1.106   1.202   0.818 -0.2514 -0.5766  0.1281
  118SOL     OW  469   3.052   2.959   1.682 -0.3621  0.2337  0.1590
  118SOL    HW1  470   3.076   3.011   1.758  1.8412  1.5650  0.7904
  118SOL    HW2  471   2.956   2.976   1.679 -3.3384  0.1842  3.2839
  118SOL     MW  472   3.043   2.968   1.691 -0.4641  0.4028  0.6546
  119SOL     OW  473   0.435   1.495   1.270 -0.5333  0.1701  0.2052
  119SOL    HW1  474   0.458   1.552   1.192 -0.9720 -2.6546 -0.9976
  119SOL    HW2  475   0.339   1.489   1.265 -1.4011 -2.3176  0.9254
  119SOL     MW  476   0.425   1.502   1.259 -0.7057 -0.5308  0.1415
  120SOL     OW  477   0.210   0.740   1.023 -0.3295  0.0814 -0.2234
  120SOL    HW1  478   0.146   0.748   1.096 -3.1111  2.6248 -1.9801
  120SOL    HW2  479   0.298   0.776   1.050 -3.9743  2.0739  2.7857
  120SOL     MW  480   0.213   0.746   1.036 -1.1774  0.6799 -0.0581
  121SOL     OW  481   1.752   1.090   1.670  0.4855  0.5636  0.2207
  121SOL    HW1  482   1.669   1.087   1.717  2.1838 -3.4953 -2.2539
  121SOL    HW2  483   1.749   1.021   1.599  0.8400  0.8310 -2.7976
  121SOL     MW  484   1.741   1.081   1.667  0.7564  0.0634 -0.5040
  122SOL     OW  485   0.192   0.550   0.839  0.0289  0.6498  0.0760
  122SOL    HW1  486   0.271   0.514   0.795  1.3315  1.1663  1.1872
  122SOL    HW2  487   0.219   0.600   0.913 -3.0991 -0.5775  1.0348
  122SOL     MW  488   0.206   0.552   0.843 -0.2120  0.5560  0.3491
  123SOL     OW  489   1.852   1.108   0.451 -0.3782 -0.3853  0.5259
  123SOL    HW1  490   1.791   1.040   0.477  1.1834  0.1870 -1.8410
  123SOL    HW2  491   1.853   1.172   0.522  0.1506 -1.9109 -1.3522
  123SOL     MW  492   1.844   1.107   0.464 -0.1024 -0.5111 -0.0342
  124SOL     OW  493   0.547   0.559   0.922 -1.0587  0.5278 -0.2390
  124SOL    HW1  494   0.503   0.521   0.844 -0.6227 -0.2160 -2.2632
  124SOL    HW2  495   0.589   0.643   0.894 -3.8391 -0.1502 -1.9053
  124SOL     MW  496   0.547   0.565   0.908 -1.3680  0.3402 -0.7259
  125SOL     OW  497   0.724   1.772   1.712  0.6729 -0.1043 -0.4739
  125SOL    HW1  498   0.655   1.715   1.675 -0.6532  2.0154  0.9789
  125SOL    HW2  499   0.672   1.853   1.712 -0.6008  2.2334  1.2972
  125SOL     MW  500   0.708   1.775   1.707  0.3299  0.4838 -0.0485
  126SOL     OW  501   2.138   1.559   1.975 -0.1694  0.0362 -0.2246
  126SOL    HW1  502   2.207   1.628   1.960 -1.8230 -0.1895 -0.3582
  126SOL    HW2  503   2.181   1.479   2.005  0.2118 -1.1311 -0.1080
  126SOL     MW  504   2.153   1.558   1.977 -0.3373 -0.1476 -0.2268
  127SOL     OW  505   0.572   0.845   1.806  0.4277  0.3075 -0.4572
  127SOL    HW1  506   0.656   0.812   1.839 -0.5143  1.1141  0.8850
  127SOL    HW2  507   0.537   0.910   1.874 -1.0677  2.9468 -1.5409
  127SOL     MW  508   0.578   0.849   1.819  0.1061  0.7621 -0.4231
  128SOL     OW  509   1.684   0.724   2.914 -0.1991  0.1793 -0.2152
  128SOL    HW1  510   1.718   0.731   2.823 -0.9470 -1.5637 -1.8299
  128SOL    HW2  511   1.650   0.810   2.938 -2.2231 -0.7716  1.6786
  128SOL     MW  512   1.684   0.736   2.905 -0.5648 -0.1762 -0.1784
  129SOL     OW  513   1.634   0.925   0.150 -0.1341  0.5832 -0.1537
  129SOL    HW1  514   1.543   0.895   0.153 -1.8325  0.0080 -0.1673
  129SOL    HW2  515   1.665   0.871   0.218  0.2407  0.2761  0.6948
  129SOL     MW  516   1.626   0.914   0.159 -0.3088  0.4668 -0.0435
  130SOL     OW  517   0.810   1.371   0.322 -0.0734 -0.1743  0.4076
  130SOL    HW1  518   0.856   1.379   0.410 -0.7745  0.5265  0.6130
  130SOL    HW2  519   0.833   1.448   0.266  2.3515 -0.8448 -1.5770
  130SOL     MW  520   0.819   1.382   0.326  0.1540 -0.1703  0.1729
  131SOL     OW  521   3.036   0.831   3.095  0.2930 -0.2485 -0.0240
  131SOL    HW1  522   3.037   0.894   3.016 -0.3185  1.0079 -2.4503
  131SOL    HW2  523   3.128   0.794   3.082  1.4616  0.9776  0.1648
  131SOL     MW  524   3.048   0.834   3.083  0.3665  0.0790 -0.3192
  132SOL     OW  525   2.721   0.141   1.305  0.0961  0.1195 -0.1376
  132SOL    HW1  526   2.782   0.182   1.244  1.3531  0.2170  0.6579
  132SOL    HW2  527   2.643   0.118   1.259  3.7738  0.7096 -0.2253
  132SOL     MW  528   2.719   0.144   1.291  0.7472  0.2102 -0.0442
  133SOL     OW  529   1.040   0.142   1.697  0.3903  0.3576 -0.2767
  133SOL    HW1  530   1.123   0.091   1.702 -0.7609 -0.3566 -0.9242
  133SOL    HW2  531   1.015   0.174   1.784  1.6291  1.3128 -1.1594
  133SOL     MW  532   1.048   0.140   1.709  0.4018  0.3894 -0.4786
  134SOL     OW  533   1.414   2.481   1.424 -0.1151 -0.7496  0.0520
  134SOL    HW1  534   1.342   2.530   1.397 -0.2135 -0.6196 -0.6294
  134SOL    HW2  535   1.451   2.515   1.506  1.0557 -1.3211 -0.1639
  134SOL     MW  536   1.409   2.492   1.431  0.0264 -0.8078 -0.0664
  135SOL     OW  537   3.038   0.974   2.848  0.4247  0.2753  0.5103
  135SOL    HW1  538   3.101   1.034   2.889 -4.3627 -0.1859  0.7900
  135SOL    HW2  539   2.955   1.019   2.843  1.5230  0.7377 -0.8678
  135SOL     MW  540   3.036   0.988   2.853 -0.0620  0.2755  0.3653
  136SOL     OW  541   0.214   2.071   0.835  0.3032 -0.0832  0.4688
  136SOL    HW1  542   0.167   1.983   0.838 -2.3584 -0.7288  3.4757
  136SOL    HW2  543   0.289   2.047   0.779 -1.8507  1.9626  2.3879
  136SOL     MW  544   0.218   2.056   0.828 -0.3322  0.1016  1.1187
  137SOL     OW  545   0.696   2.054   0.555 -0.1101  0.3946  0.7345
  137SOL    HW1  546   0.697   2.044   0.653  0.9219  0.9109 -1.0823
  137SOL    HW2  547   0.603   2.051   0.535  0.6704  0.0695  1.6578
  137SOL     MW  548   0.684   2.052   0.565  0.1290  0.4198  0.6166
  138SOL     OW  549   0.505   0.542   1.197 -0.5618 -0.5611 -0.1907
  138SOL    HW1  550   0.413   0.510   1.192  1.8372  0.2102  0.0440
  138SOL    HW2  551   0.552   0.528   1.111  1.8994  0.2058 -0.3222
  138SOL     MW  552   0.499   0.536   1.185  0.0794 -0.3582 -0.1770
  139SOL     OW  553   2.869   0.535   1.260 -0.6302  0.3826  0.1619
  139SOL    HW1  554   2.908   0.475   1.318 -1.0410  0.0431 -1.4512
  139SOL    HW2  555   2.873   0.612   1.319  0.4699 -0.8560  2.5123
  139SOL     MW  556   2.874   0.537   1.276 -0.5393  0.1744  0.2591
  140SOL     OW  557   0.937   0.481   2.013 -0.5389 -0.3567 -0.0650
  140SOL    HW1  558   0.944   0.385   1.984  1.2218 -0.5879  0.4111
  140SOL    HW2  559   0.901   0.482   2.105 -1.4709 -1.0234 -0.6114
  140SOL     MW  560   0.933   0.469   2.021 -0.4296 -0.4752 -0.0742
  141SOL     OW  561   0.993   0.631   1.695 -0.3753 -0.3050 -0.3364
  141SOL    HW1  562   1.065   0.565   1.688 -1.0670  1.4515 -0.0046
  141SOL    HW2  563   1.033   0.713   1.683 -0.4089 -0.1751 -0.1774
  141SOL     MW  564   1.008   0.633   1.692 -0.4710 -0.0561 -0.2717
  142SOL     OW  565   0.834   1.172   0.734 -0.6260  0.1831  0.1290
  142SOL    HW1  566   0.836   1.114   0.653  2.8758 -0.6169  0.9219
  142SOL    HW2  567   0.922   1.189   0.762 -0.5667  0.1899 -0.2902
  142SOL     MW  568   0.846   1.167   0.727 -0.1562  0.0785  0.1783
  143SOL     OW  569   1.816   0.678   1.088  0.4340 -0.1025 -0.0055
  143SOL    HW1  570   1.864   0.671   1.003 -0.9354 -2.2233 -0.1475
  143SOL    HW2  571   1.726   0.653   1.061 -0.1231  0.7831 -1.4030
  143SOL     MW  572   1.810   0.673   1.073  0.1798 -0.2655 -0.2086
  144SOL     OW  573   0.286   1.359   1.703  0.0012  0.2942  0.4043
  144SOL    HW1  574   0.357   1.327   1.644 -0.5110 -0.1870 -1.4923
  144SOL    HW2  575   0.326   1.355   1.795 -1.4897 -0.6149  1.6847
  144SOL     MW  576   0.300   1.354   1.707 -0.2631  0.1108  0.3230
  145SOL     OW  577   0.185   0.495   1.228 -0.5998 -0.2546  0.4483
  145SOL    HW1  578   0.226   0.405   1.237 -1.7345 -0.1695  0.8353
  145SOL    HW2  579   0.132   0.509   1.150  0.4156  3.3041 -1.8478
  145SOL     MW  580   0.184   0.485   1.219 -0.6155  0.2262  0.1964
  146SOL     OW  581   0.864   1.964   1.397  0.9727 -0.4262 -0.4461
  146SOL    HW1  582   0.902   1.955   1.312  1.5825 -0.2174 -1.8060
  146SOL    HW2  583   0.771   1.952   1.377  2.6829 -1.2642  0.6583
  146SOL     MW  584   0.857   1.961   1.383  1.2788 -0.5092 -0.4799
  147SOL     OW  585   0.401   0.517   2.956  0.3061  0.0726 -0.3219
  147SOL    HW1  586   0.413   0.570   3.031  0.2001 -0.2127 -2.2312
  147SOL    HW2  587   0.341   0.567   2.900 -0.1673 -0.4341  0.7465
  147SOL     MW  588   0.394   0.530   2.959  0.2296 -0.0319 -0.4328
  148SOL     OW  589   0.064   0.879   1.246 -0.4356 -0.5574 -0.8571
  148SOL    HW1  590   0.158   0.889   1.284  3.0120 -1.6711  1.7979
  148SOL    HW2  591   0.025   0.960   1.272 -2.4357 -0.8413 -3.0498
  148SOL     MW  592   0.071   0.891   1.254 -0.2446 -0.7418 -0.7961
  149SOL     OW  593   1.548   1.153   1.403  0.8648  0.0927  0.1028
  149SOL    HW1  594   1.485   1.150   1.476  0.8473  2.2771  0.5680
  149SOL    HW2  595   1.556   1.245   1.374  0.5731  0.6758  1.1280
  149SOL     MW  596   1.541   1.165   1.409  0.8240  0.4578  0.2995
  150SOL     OW  597   1.728   1.390   0.844 -0.4681 -0.0955  0.3762
  150SOL    HW1  598   1.774   1.311   0.812 -0.2472 -1.6470  2.4235
  150SOL    HW2  599   1.792   1.460   0.865  3.2088  0.3141 -0.5978
  150SOL     MW  600   1.742   1.389   0.842  0.0462 -0.2462  0.5178
  151SOL     OW  601   1.677   1.836   0.799  0.1014  0.4533  0.0981
  151SOL    HW1  602   1.634   1.823   0.714  0.9832 -1.1861  0.4055
  151SOL    HW2  603   1.605   1.828   0.862 -0.4920 -0.5520  2.2405
  151SOL     MW  604   1.662   1.833   0.796  0.1394  0.1044  0.4213
  152SOL     OW  605   0.779   1.422   1.649  0.0683  0.0553 -0.2183
  152SOL    HW1  606   0.762   1.480   1.576 -1.6421 -2.2586 -2.0224
  152SOL    HW2  607   0.782   1.334   1.603 -1.8293 -1.4495 -0.6751
  152SOL     MW  608   0.777   1.418   1.633 -0.4078 -0.4485 -0.5166
  153SOL     OW  609   2.570   1.231   0.770  0.1531 -0.2323 -0.0533
  153SOL    HW1  610   2.654   1.201   0.731  0.0031  2.3988 -1.1475
  153SOL    HW2  611   2.513   1.149   0.761 -2.3328 -1.5494  0.8490
  153SOL     MW  612   2.573   1.216   0.763 -0.1947 -0.0590 -0.0786
  154SOL     OW  613   0.122   1.745   1.709 -0.1491  0.3196  0.0765
  154SOL    HW1  614   0.124   1.653   1.677  0.6075 -2.1276  1.8296
  154SOL    HW2  615   0.195   1.743   1.766 -0.5108 -0.6575 -0.1775
  154SOL     MW  616   0.132   1.733   1.712 -0.0970 -0.1322  0.2743
  155SOL     OW  617   1.172   0.719   0.313 -0.0504  0.1293  0.1575
  155SOL    HW1  618   1.142   0.681   0.402  1.4674 -1.1712  2.8829
  155SOL    HW2  619   1.178   0.813   0.329 -1.0499  0.3730 -0.3006
  155SOL     MW  620   1.169   0.726   0.327  0.0180 -0.0102  0.4567
  156SOL     OW  621   1.567   3.023   1.077  0.2611  0.5980  0.5502
  156SOL    HW1  622   1.645   3.061   1.122  1.2663 -0.2554  0.3584
  156SOL    HW2  623   1.587   2.927   1.079 -0.4453 -0.0388  0.0864
  156SOL     MW  624   1.580   3.015   1.083  0.3005  0.4014  0.4637
  157SOL     OW  625   1.371   1.132   0.125 -0.2800  0.1881 -0.0019
  157SOL    HW1  626   1.337   1.065   0.199 -0.8548  2.4030  0.6582
  157SOL    HW2  627   1.452   1.183   0.140  1.4150 -3.2629  1.0123
  157SOL     MW  628   1.377   1.130   0.137 -0.1322  0.0250  0.2190
  158SOL     OW  629   0.393   1.646   2.313  0.5284 -0.1547  0.2624
  158SOL    HW1  630   0.434   1.697   2.244  0.5754 -1.6867  1.0511
  158SOL    HW2  631   0.331   1.703   2.357  1.6111  0.1848  1.3746
  158SOL     MW  632   0.391   1.660   2.310  0.6775 -0.3121  0.5132
  159SOL     OW  633   1.235   1.685   0.464  0.2345 -0.3965  0.0825
  159SOL    HW1  634   1.186   1.653   0.389  0.4747 -0.7035 -0.7068
  159SOL    HW2  635   1.176   1.730   0.521 -0.7762 -3.4141 -1.2262
  159SOL     MW  636   1.221   1.687   0.462  0.1328 -0.8351 -0.1943
  160SOL     OW  637   0.478   1.239   1.564  0.0268 -0.1769 -0.0496
  160SOL    HW1  638   0.444   1.150   1.582 -0.2441  1.7231  1.4219
  160SOL    HW2  639   0.569   1.229   1.596  2.0770 -0.1296  2.4141
  160SOL     MW  640   0.485   1.226   1.571  0.2616  0.0800  0.4696
  161SOL     OW  641   0.457   2.198   2.558  0.2574 -0.5304  0.3700
  161SOL    HW1  642   0.364   2.199   2.567 -3.5145 -2.6827  0.4848
  161SOL    HW2  643   0.471   2.132   2.493 -0.4457 -0.6098 -1.5617
  161SOL     MW  644   0.447   2.189   2.551 -0.3330 -0.8248  0.1303
  162SOL     OW  645   1.077   1.831   1.843 -0.2799  0.3170 -0.1584
  162SOL    HW1  646   1.101   1.931   1.856 -0.0840 -0.0825 -1.5705
  162SOL    HW2  647   0.997   1.805   1.890 -1.2086  3.6097  1.2551
  162SOL     MW  648   1.070   1.841   1.851 -0.3766  0.6987 -0.1582
  163SOL     OW  649   2.044   3.048   0.900  0.0488 -0.3837  0.3182
  163SOL    HW1  650   2.044   3.115   0.835  2.4849 -3.5968 -0.1332
  163SOL    HW2  651   2.045   2.957   0.852  0.6737 -0.8753  0.4431
  163SOL     MW  652   2.044   3.044   0.885  0.4527 -0.8725  0.2751
  164SOL     OW  653   0.305   0.223   0.811 -0.0601  0.1224 -0.0216
  164SOL    HW1  654   0.209   0.243   0.843 -0.0120 -1.1159 -0.0281
  164SOL    HW2  655   0.295   0.146   0.754 -2.0943  1.6266 -1.0085
  164SOL     MW  656   0.291   0.215   0.808 -0.3221  0.1575 -0.1527
  165SOL     OW  657   1.230   1.319   0.336 -0.4784 -0.0161  0.3291
  165SOL    HW1  658   1.227   1.261   0.417 -0.6236  1.5549 -0.2117
  165SOL    HW2  659   1.274   1.259   0.270 -3.0420  0.2894 -1.8895
  165SOL     MW  660   1.235   1.304   0.338 -0.8358  0.2315 -0.0350
  166SOL     OW  661   0.539   1.149   1.014  0.2804 -0.4458 -0.0006
  166SOL    HW1  662   0.523   1.156   1.114 -1.2589  3.3092  2.2153
  166SOL    HW2  663   0.628   1.110   1.005  1.6663 -1.1653  1.1658
  166SOL     MW  664   0.549   1.144   1.026  0.2602 -0.0453  0.4456
  167SOL     OW  665   0.820   1.111   0.236  0.4293  0.4951 -0.0795
  167SOL    HW1  666   0.830   1.209   0.257 -2.2913 -1.0600 -2.3466
  167SOL    HW2  667   0.900   1.099   0.183 -1.4276 -0.8339  0.2069
  167SOL     MW  668   0.832   1.122   0.232 -0.1747  0.1146 -0.3409
  168SOL     OW  669   1.746   1.648   3.040  0.1907  0.0099 -0.7948
  168SOL    HW1  670   1.676   1.698   2.996 -1.0901 -3.0155 -1.4219
  168SOL    HW2  671   1.751   1.559   2.994 -1.3856  1.4577 -3.0827
  168SOL     MW  672   1.737   1.643   3.028 -0.1863 -0.1982 -1.1794
  169SOL     OW  673   0.334   0.989   1.318 -0.2041 -0.4220  0.1606
  169SOL    HW1  674   0.372   0.982   1.405  0.2833  1.9409 -0.2473
  169SOL    HW2  675   0.368   1.076   1.291 -2.2085  1.9535  2.0139
  169SOL     MW  676   0.343   1.000   1.326 -0.4042  0.2032  0.3513
  170SOL     OW  677   1.130   1.524   1.493  0.2968 -0.6186  0.1631
  170SOL    HW1  678   1.078   1.597   1.510 -2.5546  0.2435 -1.6654
  170SOL    HW2  679   1.118   1.502   1.399  3.3517  1.3400 -0.1954
  170SOL     MW  680   1.122   1.531   1.483  0.3237 -0.2464 -0.1255
  171SOL     OW  681   0.546   1.424   0.531 -0.1100 -0.1690 -0.2868
  171SOL    HW1  682   0.537   1.396   0.619  1.5993 -0.7955 -3.8024
  171SOL    HW2  683   0.541   1.339   0.489  0.1610 -0.3618  2.4311
  171SOL     MW  684   0.544   1.409   0.537  0.1513 -0.2771 -0.3920
  172SOL     OW  685   0.882   0.297   1.275 -0.3232 -0.4685 -0.1716
  172SOL    HW1  686   0.805   0.349   1.280  2.5784  1.1033  1.2233
  172SOL    HW2  687   0.865   0.231   1.340 -0.2137  2.4220 -2.2427
  172SOL     MW  688   0.870   0.295   1.285  0.0741  0.1202 -0.2608
  173SOL     OW  689   0.499   1.777   0.264  0.0759  0.1968  0.2526
  173SOL    HW1  690   0.510   1.681   0.245 -1.2065  0.5679  0.3674
  173SOL    HW2  691   0.507   1.779   0.359 -2.1541  2.3516 -1.2878
  173SOL     MW  692   0.502   1.764   0.274 -0.3876  0.5301  0.0645
  174SOL     OW  693   1.837   0.892   1.511 -0.4894 -0.0372 -0.5298
  174SOL    HW1  694   1.784   0.814   1.517 -0.0040  1.1074  1.7619
  174SOL    HW2  695   1.830   0.927   1.423 -1.6900  0.1589  0.1123
  174SOL     MW  696   1.829   0.886   1.500 -0.5838  0.1397 -0.1427
  175SOL     OW  697   0.499   1.515   0.238  0.4182  0.5505 -0.7929
  175SOL    HW1  698   0.466   1.433   0.210 -1.3337  1.3978 -1.1774
  175SOL    HW2  699   0.512   1.503   0.335  0.9021  0.4049  2.3616
  175SOL     MW  700   0.496   1.503   0.247  0.2509  0.6431 -0.4274
  176SOL     OW  701   0.149   1.496   1.196  0.3027  0.2723  0.1628
  176SOL    HW1  702   0.127   1.445   1.118 -1.8811 -0.5149  4.7058
  176SOL    HW2  703   0.069   1.472   1.244  0.7639 -0.1073 -2.5780
  176SOL     MW  704   0.136   1.486   1.192  0.0754  0.1184  0.4006
  177SOL     OW  705   0.550   0.338   1.374  0.2753 -0.6647  1.0597
  177SOL    HW1  706   0.565   0.411   1.312 -1.5938 -1.2846  1.9419
  177SOL    HW2  707   0.555   0.383   1.462  1.2057  0.2130 -0.7833
  177SOL     MW  708   0.553   0.354   1.378  0.1515 -0.6307  0.9330
  178SOL     OW  709   3.095   0.526   2.970  0.1973 -0.1920 -0.0508
  178SOL    HW1  710   3.040   0.538   3.045 -1.5868 -1.2292  2.2790
  178SOL    HW2  711   3.033   0.472   2.911 -1.7431 -1.4531  1.0252
  178SOL     MW  712   3.080   0.521   2.972 -0.2941 -0.4953  0.3986
  179SOL     OW  713   1.556   1.445   1.390  0.3007  0.1909  0.0140
  179SOL    HW1  714   1.556   1.454   1.482 -0.9726 -1.8436  1.0370
  179SOL    HW2  715   1.647   1.437   1.362  0.8308  0.3401 -2.0674
  179SOL     MW  716   1.568   1.446   1.398  0.2027 -0.0579 -0.1257
  180SOL     OW  717   3.014   0.241   0.496 -0.4191  0.4189 -0.0614
  180SOL    HW1  718   2.968   0.266   0.416 -2.1129 -0.6982 -1.0972
  180SOL    HW2  719   3.095   0.300   0.493 -0.2688  0.0112  1.2342
  180SOL     MW  720   3.018   0.252   0.485 -0.6227  0.2177 -0.0271
  181SOL     OW  721   1.147   1.346   3.062  0.0006 -0.1357  0.2138
  181SOL    HW1  722   1.227   1.392   3.092  1.5508 -0.0968 -2.3051
  181SOL    HW2  723   1.187   1.265   3.026  0.4635 -2.5772  0.1038
  181SOL     MW  724   1.162   1.341   3.061  0.2662 -0.4527 -0.1331
  182SOL     OW  725   0.402   0.979   1.587 -0.5172  1.2645  0.1073
  182SOL    HW1  726   0.313   0.985   1.621 -0.5520 -1.6252  1.3624
  182SOL    HW2  727   0.457   0.932   1.649  0.9475  1.1221  1.4328
  182SOL     MW  728   0.397   0.973   1.600 -0.3286  0.8645  0.4478
  183SOL     OW  729   1.543   1.711   1.216 -0.7576 -0.2724  0.1476
  183SOL    HW1  730   1.639   1.703   1.240  1.2197 -0.9022  2.5969
  183SOL    HW2  731   1.494   1.648   1.268  2.3645  0.3321  2.4752
  183SOL     MW  732   1.549   1.701   1.226 -0.0848 -0.2757  0.7778
  184SOL     OW  733   0.826   0.725   1.889 -0.0293  0.0045 -0.0180
  184SOL    HW1  734   0.876   0.683   1.822 -0.7710  0.8240 -1.9878
  184SOL    HW2  735   0.812   0.656   1.956 -0.6522 -1.9461 -1.9827
  184SOL     MW  736   0.830   0.710   1.889 -0.2094 -0.1447 -0.5371
  185SOL     OW  737   1.112   0.959   1.909  0.0449  0.1266 -0.4407
  185SOL    HW1  738   1.113   0.869   1.943  1.2134  0.5823 -0.9479
  185SOL    HW2  739   1.134   1.011   1.983 -1.1033 -0.6457 -1.0204
  185SOL     MW  740   1.115   0.954   1.923  0.0476  0.0848 -0.5841
  186SOL     OW  741   0.359   1.686   1.441 -0.3589 -0.4650  0.0848
  186SOL    HW1  742   0.407   1.658   1.360  0.6138  0.7150  2.6724
  186SOL    HW2  743   0.269   1.681   1.432 -1.4901  1.6492 -0.2275
  186SOL     MW  744   0.354   1.682   1.429 -0.3798 -0.0304  0.3850
  187SOL     OW  745   1.497   0.720   1.363 -0.4749  0.5915  0.3909
  187SOL    HW1  746   1.536   0.678   1.438  1.5095  0.7843 -1.0567
  187SOL    HW2  747   1.408   0.687   1.357 -0.2381 -2.8885 -4.6410
  187SOL     MW  748   1.491   0.711   1.372 -0.1818  0.1578 -0.4640
  188SOL     OW  749   1.918   1.157   0.776  0.4116  0.2696 -0.2345
  188SOL    HW1  750   1.919   1.139   0.869 -1.3995  0.5826 -4.6418
  188SOL    HW2  751   1.951   1.074   0.738 -0.1602 -0.8800 -0.2786
  188SOL     MW  752   1.922   1.144   0.783  0.0972  0.1592 -0.8219
  189SOL     OW  753   0.685   0.777   0.847 -0.2912 -0.4367 -0.0626
  189SOL    HW1  754   0.617   0.839   0.859  2.3384 -2.3736 -1.5522
  189SOL    HW2  755   0.750   0.816   0.901 -1.1803  0.2683  0.4283
  189SOL     MW  756   0.685   0.790   0.856 -0.0616 -0.5992 -0.1944
  190SOL     OW  757   1.835   0.292   2.152  0.0991  0.2813 -0.8870
  190SOL    HW1  758   1.869   0.257   2.232 -0.1023  0.9904 -0.2383
  190SOL    HW2  759   1.908   0.340   2.113 -1.0574 -2.6646  1.2155
  190SOL     MW  760   1.849   0.294   2.157 -0.0801 -0.0138 -0.5240
  191SOL     OW  761   1.533   0.962   1.206 -0.0538  0.3416  0.6187
  191SOL    HW1  762   1.541   1.045   1.254 -1.7483 -1.6050  2.0031
  191SOL    HW2  763   1.516   0.900   1.275 -0.7252  0.0252  0.1133
  191SOL     MW  764   1.532   0.965   1.222 -0.3659  0.0430  0.7346
  192SOL     OW  765   0.568   2.104   2.800  0.0544  0.3326  0.3729
  192SOL    HW1  766   0.527   2.118   2.716  1.6389  0.2046  2.0501
  192SOL    HW2  767   0.615   2.019   2.791 -0.3049  1.0800  0.2391
  192SOL     MW  768   0.569   2.095   2.788  0.2161  0.4144  0.5765
  193SOL     OW  769   0.895   1.580   0.731 -0.8413  0.2884  0.1503
  193SOL    HW1  770   0.818   1.587   0.787  1.7434 -0.1318 -0.7350
  193SOL    HW2  771   0.888   1.502   0.657 -3.3961 -0.4812 -4.7672
  193SOL     MW  772   0.884   1.571   0.729 -0.8373  0.1314 -0.6153
  194SOL     OW  773   0.500   1.382   0.869  0.2817 -0.8480 -0.6251
  194SOL    HW1  774   0.516   1.285   0.884 -0.7512 -2.8229 -1.7438
  194SOL    HW2  775   0.405   1.395   0.867 -2.3202 -3.1072  0.3410
  194SOL     MW  776   0.489   1.371   0.871 -0.1979 -1.4066 -0.6452
  195SOL     OW  777   1.271   1.132   2.963  0.0092 -0.2396  0.1311
  195SOL    HW1  778   1.307   1.123   3.053  1.3118 -0.5366 -0.6419
  195SOL    HW2  779   1.215   1.060   2.947 -0.8529 -0.0554 -0.8073
  195SOL     MW  780   1.268   1.121   2.973  0.0673 -0.2545 -0.0947
  196SOL     OW  781   2.200   0.966   0.525  0.3922 -0.3982  0.2788
  196SOL    HW1  782   2.153   0.975   0.438  0.9062 -0.0678 -3.4425
  196SOL    HW2  783   2.208   1.062   0.545  0.8620 -0.2995 -0.2079
  196SOL     MW  784   2.195   0.980   0.516  0.5220 -0.3416 -0.2764
  197SOL     OW  785   0.615   1.320   2.195 -0.2033 -0.3683  0.9784
  197SOL    HW1  786   0.640   1.230   2.154 -0.4812 -3.6729 -1.1538
  197SOL    HW2  787   0.680   1.374   2.147  1.6893 -0.3898  3.3565
  197SOL     MW  788   0.627   1.315   2.183  0.0098 -0.8072  1.0108
  198SOL     OW  789   2.926   1.413   1.003  0.1310  0.1524  0.3081
  198SOL    HW1  790   2.868   1.479   0.959 -1.5487 -1.1157 -0.8157
  198SOL    HW2  791   2.868   1.341   1.025  0.2282 -1.8691  2.6241
  198SOL     MW  792   2.911   1.412   1.000 -0.0778 -0.2816  0.4654
  199SOL     OW  793   0.732   1.359   1.940  0.6298 -0.1900  0.3015
  199SOL    HW1  794   0.639   1.338   1.923  1.0168  2.2905  0.0292
  199SOL    HW2  795   0.763   1.395   1.857  0.7395  0.1204  3.0035
  199SOL     MW  796   0.724   1.361   1.927  0.6953  0.1782  0.6221
  200SOL     OW  797   1.855   2.906   1.375 -0.0495  0.0394  0.0291
  200SOL    HW1  798   1.893   2.932   1.293 -2.8156 -0.2530 -3.3832
  200SOL    HW2  799   1.777   2.958   1.407  1.2587  0.7401 -1.2411
  200SOL     MW  800   1.850   2.916   1.368 -0.2418  0.0933 -0.5887
  201SOL     OW  801   0.988   0.363   0.745  0.5433  0.2869 -0.0100
  201SOL    HW1  802   0.982   0.269   0.731 -0.2025 -0.4662  1.6423
  201SOL    HW2  803   1.050   0.377   0.814 -2.2401 -0.0201 -2.0848
  201SOL     MW  804   0.996   0.352   0.752  0.0776  0.1470 -0.0657
  202SOL     OW  805   1.492   1.736   0.965  0.1895  0.6242  0.1408
  202SOL    HW1  806   1.521   1.654   0.922  1.5907 -0.8013 -0.3871
  202SOL    HW2  807   1.513   1.731   1.056 -1.1159  0.6032 -1.1732
  202SOL     MW  808   1.498   1.725   0.972  0.2021  0.4334 -0.1022
  203SOL     OW  809   2.991   0.420   1.484 -0.6136 -0.4875  0.2926
  203SOL    HW1  810   3.026   0.334   1.467 -3.6397 -0.6933  0.5778
  203SOL    HW2  811   3.056   0.486   1.496 -1.5638 -1.5306  1.0602
  203SOL     MW  812   3.004   0.418   1.483 -1.1383 -0.6523  0.4315
  204SOL     OW  813   1.016   1.801   0.628  0.3280  0.4854  0.1746
  204SOL    HW1  814   0.984   1.718   0.674 -2.1215 -1.5126  1.5213
  204SOL    HW2  815   0.945   1.811   0.561 -1.0166  1.5423  2.1335
  204SOL     MW  816   1.002   1.792   0.625 -0.1726  0.3612  0.6108
  205SOL     OW  817   1.372   3.065   1.318 -0.9293 -0.3133  0.4255
  205SOL    HW1  818   1.410   3.074   1.232  0.4746 -0.9212  0.5176
  205SOL    HW2  819   1.299   3.127   1.324 -0.3473  0.5149  0.8939
  205SOL     MW  820   1.368   3.074   1.308 -0.6673 -0.2842  0.4995
  206SOL     OW  821   0.486   3.083   1.391 -0.5984 -0.1757  0.0250
  206SOL    HW1  822   0.444   3.055   1.308  0.1233 -1.4685  0.0073
  206SOL    HW2  823   0.541   3.007   1.419  0.7936  1.2520  3.0944
  206SOL     MW  824   0.488   3.069   1.384 -0.3195 -0.1579  0.4276
  207SOL     OW  825   0.903   1.645   0.244 -0.1934  0.6070  0.0652
  207SOL    HW1  826   0.910   1.727   0.205 -1.3701 -2.0639 -1.7360
  207SOL    HW2  827   0.992   1.607   0.247 -1.0029  1.1867 -1.6445
  207SOL     MW  828   0.916   1.651   0.239 -0.4555  0.3311 -0.3980
  208SOL     OW  829   0.677   1.681   1.397  0.6477 -0.6794  0.7531
  208SOL    HW1  830   0.746   1.693   1.460 -0.2899 -1.2704 -1.7808
  208SOL    HW2  831   0.720   1.640   1.324  1.9063  1.2286 -1.1247
  208SOL     MW  832   0.692   1.677   1.396  0.6901 -0.5057  0.1710
  209SOL     OW  833   1.518   0.518   2.775  0.0091 -0.5093 -0.0519
  209SOL    HW1  834   1.549   0.596   2.813 -0.6391 -1.0484 -0.8371
  209SOL    HW2  835   1.592   0.461   2.760  0.4299 -1.3204  2.0426
  209SOL     MW  836   1.532   0.521   2.778 -0.0209 -0.6874  0.1208
  210SOL     OW  837   1.467   1.443   0.927  0.2641  1.3922  0.4666
  210SOL    HW1  838   1.557   1.413   0.892 -1.0071 -0.9848  0.1416
  210SOL    HW2  839   1.419   1.467   0.851  2.3146 -0.2256  1.4234
  210SOL     MW  840   1.473   1.442   0.913  0.3670  0.8651  0.5499
  211SOL     OW  841   1.714   0.290   1.006  0.4520  0.2448  0.0141
  211SOL    HW1  842   1.693   0.279   0.914 -1.0107  1.9489 -0.4859
  211SOL    HW2  843   1.807   0.304   0.997  1.6480  1.5817 -0.4676
  211SOL     MW  844   1.723   0.290   0.992  0.4168  0.6461 -0.1155
  212SOL     OW  845   0.296   1.087   0.196 -0.8200  0.2563  0.7525
  212SOL    HW1  846   0.238   1.018   0.234  0.0185 -1.4079 -0.0868
  212SOL    HW2  847   0.349   1.045   0.129 -0.6692 -1.8660 -1.4955
  212SOL     MW  848   0.295   1.073   0.192 -0.6895 -0.2433  0.3451
  213SOL     OW  849   0.491   1.752   2.991 -0.0431  0.0262  0.3210
  213SOL    HW1  850   0.515   1.835   3.036 -0.4083 -1.3882 -0.7191
  213SOL    HW2  851   0.524   1.768   2.905 -1.2990 -0.8453  2.4972
  213SOL     MW  852   0.498   1.765   2.986 -0.2570 -0.2754  0.4709
  214SOL     OW  853   0.632   0.345   2.122  0.0313 -0.3283  0.1362
  214SOL    HW1  854   0.571   0.410   2.151 -2.3359 -1.3775  0.6585
  214SOL    HW2  855   0.599   0.327   2.035 -0.6861 -2.4851 -0.9138
  214SOL     MW  856   0.619   0.351   2.115 -0.3756 -0.7513  0.0666
  215SOL     OW  857   0.488   0.645   2.643  0.7302  0.1240 -0.2806
  215SOL    HW1  858   0.463   0.670   2.553  3.1981  0.0650 -2.8984
  215SOL    HW2  859   0.407   0.619   2.684  1.8982  1.2215  1.3554
  215SOL     MW  860   0.474   0.645   2.637  1.2099  0.2610 -0.4101
  216SOL     OW  861   3.002   3.037   2.723  0.4455 -0.4072 -0.6180
  216SOL    HW1  862   2.934   3.038   2.791  0.3034 -0.7558  0.2735
  216SOL    HW2  863   3.010   3.126   2.703 -0.1989 -2.3366 -1.2033
  216SOL     MW  864   2.994   3.049   2.729  0.3417 -0.7077 -0.5776
  217SOL     OW  865   1.050   1.104   0.090  0.0068 -0.0712  0.4051
  217SOL    HW1  866   1.067   1.031   0.026 -0.7345 -0.5830 -0.7965
  217SOL    HW2  867   1.115   1.169   0.055  0.9821 -2.7628 -0.5672
  217SOL     MW  868   1.061   1.103   0.077  0.0377 -0.4939  0.1183
  218SOL     OW  869   0.872   1.350   2.694 -0.4356 -0.2102  0.5538
  218SOL    HW1  870   0.859   1.277   2.756  1.4742 -1.0620  1.2423
  218SOL    HW2  871   0.961   1.375   2.702 -1.6899  2.2474  1.4692
  218SOL     MW  872   0.882   1.344   2.703 -0.3491  0.0017  0.7655
  219SOL     OW  873   1.125   0.334   2.610 -0.4840  0.2435  0.2809
  219SOL    HW1  874   1.210   0.385   2.636 -1.2125 -1.1782 -0.2445
  219SOL    HW2  875   1.065   0.403   2.598  1.1994  1.0638 -1.1212
  219SOL     MW  876   1.128   0.350   2.612 -0.3580  0.1641  0.0266
  220SOL     OW  877   1.660   0.475   2.255 -0.2238  0.9594  0.2867
  220SOL    HW1  878   1.597   0.509   2.190  1.1564  3.1048 -1.9452
  220SOL    HW2  879   1.703   0.399   2.211 -0.0226  0.9913  0.1997
  220SOL     MW  880   1.657   0.469   2.241 -0.0152  1.2467 -0.0193
  221SOL     OW  881   0.346   1.282   2.891 -0.1259 -0.1754  0.0269
  221SOL    HW1  882   0.422   1.227   2.873  0.0735 -0.6071 -2.0371
  221SOL    HW2  883   0.366   1.376   2.866  1.8056  0.6198  0.5130
  221SOL     MW  884   0.359   1.287   2.885  0.1552 -0.1275 -0.1812
  222SOL     OW  885   0.492   0.939   2.643  0.9539 -0.3600  0.3002
  222SOL    HW1  886   0.407   0.971   2.620  3.6183 -1.0236  0.3584
  222SOL    HW2  887   0.493   0.847   2.665 -1.8330 -2.6182  2.7558
  222SOL     MW  888   0.481   0.931   2.643  0.9378 -0.7455  0.6318
  223SOL     OW  889   0.076   2.009   2.548 -0.8317 -0.1411  0.9407
  223SOL    HW1  890   0.054   1.999   2.643 -2.7344 -1.3258 -0.2460
  223SOL    HW2  891   0.087   2.102   2.539 -0.8814 -3.5230 -0.6059
  223SOL     MW  892   0.074   2.020   2.560 -1.0893 -0.7436  0.5801
  224SOL     OW  893   1.496   0.767   2.489 -0.6886 -0.3684 -0.4413
  224SOL    HW1  894   1.471   0.775   2.578 -4.3203 -1.2457 -1.3210
  224SOL    HW2  895   1.505   0.859   2.466  0.5640 -2.2705 -0.9176
  224SOL     MW  896   1.494   0.780   2.498 -1.0025 -0.7351 -0.6202
  225SOL     OW  897   2.936   1.445   2.252  0.2195 -0.0525  0.4230
  225SOL    HW1  898   2.971   1.508   2.189  2.2952 -0.5657 -1.0612
  225SOL    HW2  899   2.874   1.490   2.306  2.7511  1.4544 -1.4123
  225SOL     MW  900   2.932   1.459   2.251  0.8274  0.0786 -0.0150
  226SOL     OW  901   0.399   1.524   2.706 -0.9619  0.3290  0.5345
  226SOL    HW1  902   0.486   1.509   2.670 -0.4600  2.9213 -1.3484
  226SOL    HW2  903   0.377   1.614   2.692 -1.3120  1.3352 -1.8822
  226SOL     MW  904   0.408   1.534   2.699 -0.9419  0.8038 -0.0328
  227SOL     OW  905   0.550   1.122   2.840  0.7166 -0.2501 -0.0802
  227SOL    HW1  906   0.646   1.126   2.846 -0.6956 -1.9545 -1.6103
  227SOL    HW2  907   0.520   1.076   2.762 -1.9664 -0.2435  1.9812
  227SOL     MW  908   0.559   1.117   2.831  0.1763 -0.4741 -0.0101
  228SOL     OW  909   0.739   1.115   2.051 -0.2142 -0.5649 -0.0389
  228SOL    HW1  910   0.741   1.197   1.993  1.7781  0.5816 -1.6611
  228SOL    HW2  911   0.820   1.129   2.101 -1.1507 -2.4343  1.9090
  228SOL     MW  912   0.750   1.128   2.050 -0.0749 -0.6603  0.0041
  229SOL     OW  913   0.177   0.662   0.014  0.6269 -0.0058 -0.0778
  229SOL    HW1  914   0.136   0.629  -0.066  0.8621  1.4332  0.0331
  229SOL    HW2  915   0.190   0.584   0.068  1.7352 -3.0715  0.4057
  229SOL     MW  916   0.173   0.647   0.010  0.8042 -0.2204  0.0007
  230SOL     OW  917   1.797   1.354   2.026  0.0455  0.4720 -0.0679
  230SOL    HW1  918   1.747   1.339   2.112  1.9345  1.2064 -2.1572
  230SOL    HW2  919   1.833   1.272   1.997  1.6101  0.1880  1.8411
  230SOL     MW  920   1.795   1.341   2.033  0.5012  0.5314 -0.0917
  231SOL     OW  921   2.744   1.249   2.168 -0.4049 -0.7326 -0.3617
  231SOL    HW1  922   2.805   1.323   2.186 -0.0882  1.7045 -0.6926
  231SOL    HW2  923   2.687   1.296   2.098  1.8304  2.5985  0.8717
  231SOL     MW  924   2.744   1.265   2.161 -0.0682  0.0284 -0.2426
  232SOL     OW  925   2.278   0.834   1.995  0.2716 -0.3871  0.1436
  232SOL    HW1  926   2.223   0.887   1.944  0.7510 -0.9957 -0.0405
  232SOL    HW2  927   2.228   0.784   2.059  1.6297 -0.7146 -1.8193
  232SOL     MW  928   2.265   0.834   1.997  0.5141 -0.5106 -0.1397
  233SOL     OW  929   2.058   0.432   2.075  0.3132  0.5671 -0.1506
  233SOL    HW1  930   2.121   0.366   2.032  0.6123  0.1804  1.9909
  233SOL    HW2  931   2.119   0.488   2.124  0.2355  1.3885  3.1842
  233SOL     MW  932   2.075   0.430   2.076  0.3424  0.6245  0.5720
  234SOL     OW  933   0.253   1.057   2.615  0.4610 -0.1514  0.8953
  234SOL    HW1  934   0.183   1.039   2.554 -0.7482 -0.5087  1.4564
  234SOL    HW2  935   0.285   1.150   2.589  0.2159  1.0705  0.4527
  234SOL     MW  936   0.248   1.067   2.603  0.2692 -0.0373  0.9109
  235SOL     OW  937   1.057   3.046   2.784 -0.5512 -0.1671  0.5581
  235SOL    HW1  938   1.102   3.014   2.866  1.3315 -1.4335  2.0922
  235SOL    HW2  939   1.038   3.138   2.819 -3.1533 -0.6700 -0.6862
  235SOL     MW  940   1.060   3.054   2.800 -0.6461 -0.4005  0.5963
  236SOL     OW  941   2.960   0.600   0.137 -0.0303 -0.3746  0.0586
  236SOL    HW1  942   2.871   0.621   0.154  1.2570  0.4578  0.4218
  236SOL    HW2  943   3.006   0.685   0.112 -0.4288 -0.4190 -1.3785
  236SOL     MW  944   2.955   0.614   0.136  0.0870 -0.2706 -0.0831
  237SOL     OW  945   1.967   1.113   2.193 -0.2779 -0.8826  0.3091
  237SOL    HW1  946   1.891   1.084   2.142  1.3990 -0.5098  2.5050
  237SOL    HW2  947   2.026   1.036   2.202 -0.7179  0.5184 -2.9942
  237SOL     MW  948   1.965   1.099   2.187 -0.1147 -0.6486  0.1630
  238SOL     OW  949   1.102   1.775   2.949  0.5989  0.2416  0.6335
  238SOL    HW1  950   1.034   1.714   2.920 -1.4818  1.4608 -2.5216
  238SOL    HW2  951   1.185   1.727   2.934 -0.0108 -2.0002  0.3352
  238SOL     MW  952   1.104   1.760   2.943  0.2439  0.1067  0.1779
  239SOL     OW  953   1.216   1.379   2.323 -0.4459 -0.5619 -0.7427
  239SOL    HW1  954   1.136   1.412   2.357 -0.7799 -0.9935 -0.1784
  239SOL    HW2  955   1.212   1.283   2.350  1.5636 -3.6857  0.0052
  239SOL     MW  956   1.205   1.371   2.331 -0.2248 -1.0310 -0.5696
  240SOL     OW  957   0.618   0.918   2.274 -0.6324 -0.2365 -0.8955
  240SOL    HW1  958   0.690   0.942   2.343  0.0309  0.3652  2.2065
  240SOL    HW2  959   0.676   0.879   2.208  2.3483  0.2444 -0.3618
  240SOL     MW  960   0.635   0.916   2.275 -0.1516 -0.0936 -0.4158
  241SOL     OW  961   0.660   0.437   0.013 -0.0135  0.3372 -0.4907
  241SOL    HW1  962   0.660   0.506   0.084  0.2783 -0.3743 -0.0063
  241SOL    HW2  963   0.572   0.441  -0.034  1.9855  1.3356 -0.9281
  241SOL     MW  964   0.648   0.447   0.016  0.2887  0.3751 -0.4845
  242SOL     OW  965   1.492   1.720   2.275  0.0513  0.2075 -1.0738
  242SOL    HW1  966   1.434   1.796   2.270  0.7538  0.4834 -2.4764
  242SOL    HW2  967   1.436   1.653   2.237 -1.9160  0.2909 -0.1483
  242SOL     MW  968   1.477   1.721   2.270 -0.1156  0.2549 -1.1368
  243SOL     OW  969   0.991   0.243   2.388 -0.1315  0.2963  0.1877
  243SOL    HW1  970   1.051   0.186   2.338  1.3657 -0.8690 -2.8731
  243SOL    HW2  971   1.042   0.268   2.463 -2.6776  2.0381  1.0258
  243SOL     MW  972   1.005   0.239   2.391 -0.2699  0.3724 -0.1056
  244SOL     OW  973   0.140   0.802   2.346 -0.4088  0.0976 -0.1010
  244SOL    HW1  974   0.103   0.888   2.370  0.8083  3.3399 -0.9344
  244SOL    HW2  975   0.237   0.807   2.362 -1.2880 -1.8966  1.8821
  244SOL     MW  976   0.148   0.814   2.351 -0.3642  0.2623  0.0507
  245SOL     OW  977   1.271   0.191   2.297  0.3386 -0.4481 -0.2243
  245SOL    HW1  978   1.298   0.101   2.315  2.8266  2.3355  0.3961
  245SOL    HW2  979   1.328   0.233   2.365 -0.3343  1.2276  0.1718
  245SOL     MW  980   1.282   0.185   2.308  0.5781  0.1402 -0.0902
  246SOL     OW  981   1.176   1.135   2.095 -0.0415 -0.1153 -0.7989
  246SOL    HW1  982   1.111   1.141   2.171 -0.6101  0.8071 -1.8530
  246SOL    HW2  983   1.268   1.105   2.125  1.5298  0.7518  0.1131
  246SOL     MW  984   1.179   1.132   2.109  0.0908  0.1208 -0.8177
  247SOL     OW  985   0.764   0.627   0.193  0.2784  0.5159 -0.4269
  247SOL    HW1  986   0.732   0.706   0.157  1.2637 -2.0850 -2.0881
  247SOL    HW2  987   0.842   0.604   0.138  0.6872 -0.0518 -0.0273
  247SOL     MW  988   0.770   0.634   0.181  0.4624  0.0979 -0.5934
  248SOL     OW  989   0.339   1.298   2.575  0.0502 -0.1509  0.5158
  248SOL    HW1  990   0.342   1.317   2.476  0.4153 -1.5143 -0.0838
  248SOL    HW2  991   0.364   1.380   2.615 -0.1046 -1.5552  0.5413
  248SOL     MW  992   0.343   1.312   2.567  0.0779 -0.5161  0.4401
  249SOL     OW  993   3.095   1.900   2.792 -0.8172  0.5724  0.4257
  249SOL    HW1  994   3.006   1.865   2.779  1.0082 -2.4017  0.1641
  249SOL    HW2  995   3.151   1.837   2.842 -0.4746  1.6427  0.5307
  249SOL     MW  996   3.091   1.887   2.797 -0.5312  0.3212  0.4051
  250SOL     OW  997   2.150   0.921   2.258  0.2904  0.0128 -0.4187
  250SOL    HW1  998   2.131   0.832   2.293 -4.1351 -0.7215 -0.3409
  250SOL    HW2  999   2.230   0.963   2.291 -0.0786  0.2243  1.3464
  250SOL     MW 1000   2.158   0.915   2.267 -0.3422 -0.0562 -0.1755
  251SOL     OW 1001   0.195   0.913   1.984 -0.0395  0.1775  0.7424
  251SOL    HW1 1002   0.203   0.815   2.001  0.4052  0.0666 -0.3599
  251SOL    HW2 1003   0.176   0.914   1.889 -1.8241 -0.9064  2.9840
  251SOL     MW 1004   0.194   0.900   1.974 -0.2163  0.0198  0.8927
  252SOL     OW 1005   1.670   1.015   2.898 -0.0971  0.4889 -0.8074
  252SOL    HW1 1006   1.695   1.045   2.985 -0.1779 -2.1599  1.4167
  252SOL    HW2 1007   1.749   1.016   2.849 -2.1910  1.1219 -1.8501
  252SOL     MW 1008   1.684   1.019   2.903 -0.3840  0.2230 -0.6515
  253SOL     OW 1009   1.123   1.706   2.460 -0.3086 -0.3151 -0.4122
  253SOL    HW1 1010   1.132   1.691   2.357  2.7474  0.6519 -1.9424
  253SOL    HW2 1011   1.076   1.795   2.461 -0.0881 -0.2341 -0.1764
  253SOL     MW 1012   1.118   1.716   2.447  0.1237 -0.1768 -0.5830
  254SOL     OW 1013   0.962   1.107   2.248  0.1888  0.8133  0.5777
  254SOL    HW1 1014   0.904   1.029   2.227 -0.0147  1.5580 -2.6775
  254SOL    HW2 1015   0.919   1.147   2.320 -1.5497 -0.9984 -1.7955
  254SOL     MW 1016   0.949   1.102   2.254 -0.0674  0.6725 -0.1649
  255SOL     OW 1017   0.854   2.507   2.164  0.4960  0.2997 -0.8397
  255SOL    HW1 1018   0.757   2.470   2.164 -1.9737 -1.0468 -1.5796
  255SOL    HW2 1019   0.906   2.429   2.192 -0.5400 -0.5189 -2.0105
  255SOL     MW 1020   0.848   2.492   2.168  0.0334  0.0141 -1.0918
  256SOL     OW 1021   1.226   2.761   2.973 -0.4064  0.6044  0.0109
  256SOL    HW1 1022   1.200   2.684   2.919 -1.3661 -1.3065 -0.2950
  256SOL    HW2 1023   1.311   2.788   2.934  1.0769  0.2058 -1.5132
  256SOL     MW 1024   1.234   2.754   2.961 -0.3373  0.2997 -0.2305
  257SOL     OW 1025   0.055   1.907   3.093 -0.6664  0.0852 -0.1686
  257SOL    HW1 1026   0.127   1.938   3.141  0.8979 -1.1762  2.2222
  257SOL    HW2 1027   0.084   1.824   3.048 -0.4325 -0.5915 -0.8125
  257SOL     MW 1028   0.068   1.900   3.093 -0.4291 -0.1705  0.0619
  258SOL     OW 1029   0.739   0.982   2.530 -1.5218 -0.0651  0.2059
  258SOL    HW1 1030   0.761   1.070   2.506 -1.5150  0.3729  0.6173
  258SOL    HW2 1031   0.645   0.970   2.561 -0.2691  2.7590 -1.0959
  258SOL     MW 1032   0.730   0.992   2.531 -1.3556  0.3653  0.0884
  259SOL     OW 1033   0.854   0.444   2.269 -0.6915  1.0497 -0.3686
  259SOL    HW1 1034   0.789   0.401   2.210 -2.1134 -1.6460  3.2653
  259SOL    HW2 1035   0.907   0.372   2.311  0.7100  1.9271 -0.7197
  259SOL     MW 1036   0.852   0.429   2.267 -0.6942  0.8098  0.0645
  260SOL     OW 1037   0.660   0.114   1.630  0.1619 -0.0480 -0.0523
  260SOL    HW1 1038   0.612   0.111   1.548 -0.2075  1.5511 -2.3354
  260SOL    HW2 1039   0.747   0.103   1.590  0.0713  1.1369 -0.2696
  260SOL     MW 1040   0.665   0.112   1.614  0.1012  0.3193 -0.3822
  261SOL     OW 1041   1.115   0.694   2.013 -0.2429 -0.5706 -0.6937
  261SOL    HW1 1042   1.101   0.691   2.111  1.4846 -0.9005 -2.2262
  261SOL    HW2 1043   1.073   0.611   1.983 -0.7724 -3.6926 -1.0846
  261SOL     MW 1044   1.108   0.683   2.022 -0.0848 -1.0261 -0.9475
  262SOL     OW 1045   1.099   0.345   0.180  0.5343  0.1146 -0.3421
  262SOL    HW1 1046   1.195   0.335   0.176 -2.4164  0.0056  1.5006
  262SOL    HW2 1047   1.056   0.297   0.110  0.9704 -0.7630  0.5424
  262SOL     MW 1048   1.106   0.337   0.170  0.2025 -0.0155  0.0177
  263SOL     OW 1049   0.375   0.041   2.481 -0.7123  0.0063  0.0240
  263SOL    HW1 1050   0.297   0.102   2.469 -3.4356 -1.0207 -1.4556
  263SOL    HW2 1051   0.443   0.071   2.421 -1.5116 -1.1334 -0.4976
  263SOL     MW 1052   0.373   0.053   2.472 -1.1771 -0.2796 -0.2401
  264SOL     OW 1053   1.558   1.359   1.883 -0.1637  0.3918  0.0473
  264SOL    HW1 1054   1.534   1.267   1.871  0.0647  0.0976 -2.1687
  264SOL    HW2 1055   1.648   1.353   1.919  1.6132  0.5984 -1.0748
  264SOL     MW 1056   1.567   1.346   1.886  0.1009  0.3802 -0.3931
  265SOL     OW 1057   0.774   2.748   2.281 -0.2399  0.7284  1.1254
  265SOL    HW1 1058   0.804   2.662   2.250  0.6562  0.3072 -0.1788
  265SOL    HW2 1059   0.766   2.728   2.378 -2.7425 -3.1776  1.6294
  265SOL     MW 1060   0.776   2.734   2.290 -0.4518  0.1574  1.0198
  266SOL     OW 1061   0.907   0.839   2.173  0.2883 -0.6902 -0.5527
  266SOL    HW1 1062   0.938   0.861   2.088  0.2722  1.7431  0.8638
  266SOL    HW2 1063   0.985   0.825   2.225 -2.5655  3.7718  1.3129
  266SOL     MW 1064   0.921   0.840   2.169 -0.0903  0.2196 -0.1197
  267SOL     OW 1065   1.335   1.761   2.639 -0.1825  0.0434 -0.2967
  267SOL    HW1 1066   1.409   1.718   2.589  1.6415  1.6274  1.8111
  267SOL    HW2 1067   1.257   1.727   2.599  3.3761  0.4215 -1.6958
  267SOL     MW 1068   1.335   1.751   2.627  0.5276  0.3023 -0.2032
  268SOL     OW 1069   0.141   0.926   1.687 -0.4320 -0.1788 -0.1099
  268SOL    HW1 1070   0.111   1.019   1.657 -0.0451  1.3787  0.2687
  268SOL    HW2 1071   0.083   0.874   1.637  1.0105 -1.4190  0.1624
  268SOL     MW 1072   0.129   0.931   1.676 -0.1906 -0.1369 -0.0240
  269SOL     OW 1073   1.352   1.958   2.311  0.3538 -0.3539 -0.5122
  269SOL    HW1 1074   1.408   2.022   2.347  1.4576 -0.2713  0.3810
  269SOL    HW2 1075   1.262   1.992   2.329 -0.0391 -1.7894 -0.6173
  269SOL     MW 1076   1.348   1.971   2.318  0.4476 -0.5324 -0.4082
  270SOL     OW 1077   1.143   0.434   1.601 -0.3770  0.1033 -0.2691
  270SOL    HW1 1078   1.122   0.350   1.649  0.0412 -1.2863  1.1180
  270SOL    HW2 1079   1.238   0.424   1.585 -1.3751 -1.0096 -0.2564
  270SOL     MW 1080   1.153   0.422   1.605 -0.4535 -0.2269 -0.0844
  271SOL     OW 1081   0.776   0.060   2.478  0.3312  0.0713 -0.6170
  271SOL    HW1 1082   0.817  -0.013   2.517 -2.4227  0.1187 -1.5954
  271SOL    HW2 1083   0.841   0.131   2.451 -0.5032  4.1249 -1.4663
  271SOL     MW 1084   0.790   0.060   2.479 -0.1422  0.6124 -0.8582
  272SOL     OW 1085   1.472   2.827   2.862 -0.7795 -0.0365  0.2335
  272SOL    HW1 1086   1.440   2.794   2.775 -2.0921  1.6100  2.4792
  272SOL    HW2 1087   1.493   2.922   2.853  0.3592  2.1096  2.5095
  272SOL     MW 1088   1.471   2.836   2.849 -0.8024  0.4639  0.8301
  273SOL     OW 1089   1.439   0.906   2.778 -0.2934 -0.0712 -0.5930
  273SOL    HW1 1090   1.509   0.957   2.811 -3.3590 -0.6702 -0.9771
  273SOL    HW2 1091   1.403   0.979   2.731  1.4416  1.6354  0.8766
  273SOL     MW 1092   1.444   0.922   2.776 -0.4690  0.0749 -0.4498
  274SOL     OW 1093   1.399   0.773   0.143  0.0621  0.1123  0.4134
  274SOL    HW1 1094   1.432   0.690   0.173  2.8465  0.7482  0.2696
  274SOL    HW2 1095   1.317   0.776   0.199 -0.1873 -0.3962  1.0162
  274SOL     MW 1096   1.393   0.763   0.154  0.3966  0.1291  0.4740
  275SOL     OW 1097   1.706   0.517   1.756  0.3413 -0.0881  0.3852
  275SOL    HW1 1098   1.745   0.566   1.829  0.8256  0.4586 -0.2691
  275SOL    HW2 1099   1.732   0.429   1.780 -1.5349  1.3106  0.1095
  275SOL     MW 1100   1.715   0.512   1.769  0.1576  0.1686  0.2625
  276SOL     OW 1101   0.425   1.274   1.937  0.6276 -0.6226 -0.6000
  276SOL    HW1 1102   0.430   1.175   1.935 -1.4769  0.4139  3.0865
  276SOL    HW2 1103   0.359   1.271   2.009  0.3563 -1.0004 -1.0572
  276SOL     MW 1104   0.417   1.260   1.946  0.3141 -0.5357 -0.1739
  277SOL     OW 1105   1.982   1.129   2.482 -0.1191 -0.9223 -0.5271
  277SOL    HW1 1106   2.021   1.217   2.489  0.6843 -1.9036  0.9998
  277SOL    HW2 1107   1.973   1.108   2.390  0.4365 -1.0079  0.0570
  277SOL     MW 1108   1.986   1.138   2.471  0.0602 -1.0630 -0.2486
  278SOL     OW 1109   1.365   0.673   1.723  0.2591 -0.0982  1.0745
  278SOL    HW1 1110   1.340   0.599   1.785 -0.5270 -2.4908  2.7437
  278SOL    HW2 1111   1.432   0.721   1.767 -1.4898 -0.4726 -1.9669
  278SOL     MW 1112   1.371   0.669   1.737 -0.0754 -0.4633  0.8935
  279SOL     OW 1113   0.546   0.089   2.238  0.6358  0.2417  0.9659
  279SOL    HW1 1114   0.608   0.024   2.205 -0.6068  0.8014 -0.6103
  279SOL    HW2 1115   0.582   0.173   2.212  2.2838 -1.2145  2.2645
  279SOL     MW 1116   0.559   0.091   2.230  0.6893  0.1234  0.9293
  280SOL     OW 1117   1.434   1.045   2.157  0.5204  0.8769  0.1123
  280SOL    HW1 1118   1.498   0.979   2.122  0.0989  2.9712  0.3756
  280SOL    HW2 1119   1.425   1.033   2.258 -2.0464  2.4997  1.3095
  280SOL     MW 1120   1.441   1.034   2.166  0.1261  1.3673  0.3050
  281SOL     OW 1121   1.401   1.178   2.694  0.4651 -0.8146  0.2629
  281SOL    HW1 1122   1.470   1.243   2.686 -3.6310  0.2939 -0.7662
  281SOL    HW2 1123   1.358   1.193   2.780  1.3780  0.5474 -1.0472
  281SOL     MW 1124   1.404   1.189   2.704  0.0451 -0.4887 -0.0457
  282SOL     OW 1125   1.136   1.265   1.636  0.5285  0.2598 -0.0297
  282SOL    HW1 1126   1.118   1.355   1.602  2.1773 -0.1819 -1.4888
  282SOL    HW2 1127   1.074   1.251   1.707 -0.4477 -0.7850 -2.1042
  282SOL     MW 1128   1.125   1.275   1.641  0.6172  0.0637 -0.4959
  283SOL     OW 1129   0.838   1.310   0.006  0.3547 -0.3212  0.7059
  283SOL    HW1 1130   0.921   1.289   0.038  0.5100  0.7886 -0.8675
  283SOL    HW2 1131   0.856   1.404  -0.014  0.0120 -2.0452 -0.0887
  283SOL     MW 1132   0.851   1.320   0.008  0.3300 -0.4022  0.3934
  284SOL     OW 1133   0.419   0.756   2.375 -0.0764 -0.1974 -0.4666
  284SOL    HW1 1134   0.487   0.822   2.346  2.1536 -2.4327  0.5798
  284SOL    HW2 1135   0.433   0.691   2.305 -0.1738 -1.0387  2.2504
  284SOL     MW 1136   0.430   0.756   2.362  0.2050 -0.6033  0.0300
  285SOL     OW 1137   0.897   0.892   2.802  0.3597 -0.2615  0.1753
  285SOL    HW1 1138   0.946   0.933   2.730 -1.0356  1.6416  0.2233
  285SOL    HW2 1139   0.856   0.814   2.775 -0.6592  1.4409  1.7750
  285SOL     MW 1140   0.898   0.887   2.789  0.0412  0.2142  0.3927
  286SOL     OW 1141   1.124   1.481   2.610  0.1561  0.1742  0.1686
  286SOL    HW1 1142   1.206   1.466   2.646  1.2571  1.7261 -1.8385
  286SOL    HW2 1143   1.125   1.566   2.567  0.8412 -0.0310 -3.2133
  286SOL     MW 1144   1.135   1.490   2.609  0.3917  0.3519 -0.5424
  287SOL     OW 1145   1.224   1.025   0.311  0.3069  0.5476 -0.4625
  287SOL    HW1 1146   1.242   1.053   0.403  1.0314  0.7248 -3.1224
  287SOL    HW2 1147   1.152   1.074   0.278 -0.8831  1.2545 -0.5862
  287SOL     MW 1148   1.217   1.035   0.319  0.2455  0.6643 -0.8297
  288SOL     OW 1149   1.479   0.606   2.059 -0.6548  0.3402 -0.0842
  288SOL    HW1 1150   1.415   0.623   2.129  1.5801 -2.8556 -0.8586
  288SOL    HW2 1151   1.535   0.676   2.040 -0.3750 -4.4957  0.4308
  288SOL     MW 1152   1.478   0.618   2.065 -0.3230 -0.7195 -0.1184
  289SOL     OW 1153   1.013   0.979   2.579 -0.7721  0.4136  0.6855
  289SOL    HW1 1154   1.061   0.890   2.589  1.1928 -0.0070  0.3851
  289SOL    HW2 1155   0.921   0.967   2.563  0.7984 -1.2133 -0.0387
  289SOL     MW 1156   1.007   0.966   2.578 -0.3057  0.1435  0.5503
  290SOL     OW 1157   0.806   0.604   1.493  0.2800 -0.2545 -0.0132
  290SOL    HW1 1158   0.864   0.593   1.417 -0.8539  1.5736 -1.7547
  290SOL    HW2 1159   0.867   0.593   1.566  0.1297 -1.4883 -0.7130
  290SOL     MW 1160   0.821   0.601   1.493  0.1106 -0.1761 -0.3353
  291SOL     OW 1161   0.197   0.387   0.127  0.4737 -0.3988 -0.0728
  291SOL    HW1 1162   0.283   0.353   0.165  2.1068  0.4609 -0.4631
  291SOL    HW2 1163   0.184   0.315   0.060 -2.8045 -0.2266 -0.8392
  291SOL     MW 1164   0.207   0.373   0.123  0.2566 -0.2626 -0.2254
  292SOL     OW 1165   1.036   0.599   0.115 -0.1303 -0.1900  0.7870
  292SOL    HW1 1166   1.083   0.668   0.166  2.0979  0.8224  2.8018
  292SOL    HW2 1167   1.067   0.517   0.143 -0.1005  1.8358 -1.5796
  292SOL     MW 1168   1.046   0.598   0.125  0.1676  0.2109  0.7406
  293SOL     OW 1169   0.134   0.194   2.487  0.1077 -0.0459  0.3587
  293SOL    HW1 1170   0.079   0.121   2.449 -0.5030  0.6058 -1.2784
  293SOL    HW2 1171   0.082   0.227   2.559 -2.3713  0.3586 -0.2588
  293SOL     MW 1172   0.120   0.188   2.491 -0.2999  0.0935  0.0612
  294SOL     OW 1173   1.370   0.573   2.313 -0.4826  0.5613  0.0912
  294SOL    HW1 1174   1.427   0.614   2.379 -1.8964  1.2252  0.2032
  294SOL    HW2 1175   1.381   0.478   2.337 -1.0391 -1.3262 -0.1589
  294SOL     MW 1176   1.379   0.566   2.325 -0.7426  0.3998  0.0730
  295SOL     OW 1177   0.923   0.538   2.551 -0.7795 -0.0730  0.3016
  295SOL    HW1 1178   0.855   0.524   2.481 -0.9024  3.3029  0.8934
  295SOL    HW2 1179   0.874   0.573   2.623  1.2876 -0.3883 -1.3403
  295SOL     MW 1180   0.908   0.541   2.551 -0.5230  0.3308  0.1630
  296SOL     OW 1181   1.212   0.241   2.030  0.2027 -0.3228 -0.3418
  296SOL    HW1 1182   1.308   0.220   2.019 -0.7410 -0.2195  2.0476
  296SOL    HW2 1183   1.214   0.252   2.123 -0.4325 -1.4640 -2.0670
  296SOL     MW 1184   1.225   0.240   2.041 -0.0056 -0.4598 -0.2542
  297SOL     OW 1185   1.423   0.392   1.544 -0.1454 -0.4700 -0.1018
  297SOL    HW1 1186   1.435   0.461   1.602 -0.3031 -0.9880 -1.2894
  297SOL    HW2 1187   1.434   0.307   1.583 -1.5331 -0.7140  0.6582
  297SOL     MW 1188   1.426   0.390   1.557 -0.3493 -0.5705 -0.1582
  298SOL     OW 1189   1.601   0.850   2.058  0.0032  0.1599  0.4044
  298SOL    HW1 1190   1.659   0.902   2.005  0.5005 -0.6875  0.6875
  298SOL    HW2 1191   1.661   0.809   2.115 -0.2586 -1.3073 -0.9409
  298SOL     MW 1192   1.617   0.852   2.059  0.0343 -0.1455  0.2643
  299SOL     OW 1193   0.611   1.118   3.103 -0.4758  0.1919  0.0926
  299SOL    HW1 1194   0.596   1.096   3.005 -1.4833  0.1458 -1.6770
  299SOL    HW2 1195   0.672   1.198   3.105  2.9336 -1.2642 -3.4475
  299SOL     MW 1196   0.617   1.125   3.091 -0.1589 -0.0063 -0.6080
  300SOL     OW 1197   1.232   1.131   2.458 -0.8531 -0.1603  0.0283
  300SOL    HW1 1198   1.148   1.088   2.471 -0.1562  2.8477  1.0181
  300SOL    HW2 1199   1.251   1.166   2.544  0.3629 -0.3860 -0.8096
  300SOL     MW 1200   1.223   1.130   2.471 -0.6007  0.2068  0.0483
  301SOL     OW 1201   1.432   0.951   0.671  0.1022  0.1674  0.1079
  301SOL    HW1 1202   1.459   0.973   0.758  0.0588  0.2807 -0.0996
  301SOL    HW2 1203   1.362   0.893   0.680  1.2329  1.7852  0.7655
  301SOL     MW 1204   1.427   0.946   0.684  0.2456  0.3958  0.1673
  302SOL     OW 1205   0.215   1.553   2.037  0.2172  0.1195  0.0047
  302SOL    HW1 1206   0.209   1.465   2.073 -0.7989  0.5723  1.3477
  302SOL    HW2 1207   0.128   1.588   2.054 -0.5689  0.3287 -2.7275
  302SOL     MW 1208   0.203   1.546   2.044 -0.0206  0.2068 -0.1786
  303SOL     OW 1209   0.353   1.785   2.703  0.1644 -0.4707  0.0887
  303SOL    HW1 1210   0.309   1.779   2.619 -3.0632  0.3089  0.4795
  303SOL    HW2 1211   0.291   1.781   2.779 -1.7599 -0.3880  0.7676
  303SOL     MW 1212   0.339   1.784   2.702 -0.5153 -0.3570  0.2299
  304SOL     OW 1213   0.491   2.048   2.317 -0.1269  0.3072 -0.0740
  304SOL    HW1 1214   0.563   2.116   2.294  0.9961 -2.4016  0.2350
  304SOL    HW2 1215   0.551   1.984   2.353  0.3740  0.1913  3.1504
  304SOL     MW 1216   0.509   2.049   2.319  0.0874 -0.0655  0.3922
  305SOL     OW 1217   1.109   0.640   0.564  0.1308  0.7210  0.3608
  305SOL    HW1 1218   1.017   0.623   0.546 -0.4219  1.9482  0.1255
  305SOL    HW2 1219   1.156   0.552   0.574  1.3409  2.3353 -1.4788
  305SOL     MW 1220   1.103   0.626   0.563  0.2175  1.0959  0.0870
  306SOL     OW 1221   1.159   1.564   0.235 -0.6536 -0.2287 -0.3916
  306SOL    HW1 1222   1.175   1.474   0.281  2.1839 -1.6536 -0.5168
  306SOL    HW2 1223   1.191   1.560   0.143 -1.1196  1.4439 -1.6550
  306SOL     MW 1224   1.166   1.551   0.229 -0.3407 -0.1960 -0.5748
  307SOL     OW 1225   1.327   0.445   1.876 -0.0667  0.2759  0.0683
  307SOL    HW1 1226   1.278   0.388   1.932  1.3031 -0.0887  0.3206
  307SOL    HW2 1227   1.382   0.505   1.933  1.3216  0.0155  2.0007
  307SOL     MW 1228   1.328   0.446   1.891  0.2972  0.1934  0.3565
  308SOL     OW 1229   2.239   0.506   2.674  0.5088 -0.2553 -0.0215
  308SOL    HW1 1230   2.335   0.527   2.670 -1.6520 -0.6010 -0.9996
  308SOL    HW2 1231   2.189   0.593   2.681  0.3480 -0.7940 -0.7776
  308SOL     MW 1232   2.245   0.520   2.675  0.2024 -0.3720 -0.2503
  309SOL     OW 1233   0.476   0.555   0.221  0.0458 -0.0566 -0.0990
  309SOL    HW1 1234   0.539   0.580   0.288 -2.2316 -1.4756  3.4307
  309SOL    HW2 1235   0.486   0.463   0.201  1.6444  2.1031 -1.7006
  309SOL     MW 1236   0.485   0.546   0.227 -0.0437  0.0412  0.1554
  310SOL     OW 1237   0.474   0.588   1.893  0.3185  0.2811  0.2229
  310SOL    HW1 1238   0.507   0.511   1.858 -2.0116  3.3009  1.5000
  310SOL    HW2 1239   0.530   0.654   1.850  0.7914  1.4387  0.1216
  310SOL     MW 1240   0.485   0.587   1.883  0.0735  0.8322  0.3781
  311SOL     OW 1241   1.906   0.652   1.940  0.4473  0.0370 -0.6247
  311SOL    HW1 1242   1.886   0.688   2.030  4.1510  0.0104  0.3715
  311SOL    HW2 1243   1.960   0.581   1.970 -1.2100  1.4891  1.7197
  311SOL     MW 1244   1.910   0.647   1.956  0.7173  0.2251 -0.1839
  312SOL     OW 1245   1.815   2.466   0.182 -0.1978  0.1792 -0.2707
  312SOL    HW1 1246   1.851   2.422   0.257 -0.6688  0.1086 -2.0075
  312SOL    HW2 1247   1.724   2.493   0.196 -0.6620  0.9389 -1.0684
  312SOL     MW 1248   1.808   2.464   0.194 -0.3212  0.2701 -0.6051
  313SOL     OW 1249   0.100   1.109   3.023  0.0181  0.8220  0.4803
  313SOL    HW1 1250   0.076   1.149   3.106 -0.8873 -2.4138 -0.2924
  313SOL    HW2 1251   0.154   1.184   2.985  0.6841 -1.7567  0.6730
  313SOL     MW 1252   0.104   1.124   3.029 -0.0135  0.0549  0.4038
  314SOL     OW 1253   2.167   2.974   2.993  0.5299 -0.2933  0.5680
  314SOL    HW1 1254   2.102   2.994   2.919  2.6378 -1.9369  1.1111
  314SOL    HW2 1255   2.211   3.051   3.028 -3.1452 -2.2876 -0.0102
  314SOL     MW 1256   2.165   2.987   2.988  0.3231 -0.7732  0.5634
  315SOL     OW 1257   1.540   1.822   2.997  0.2359 -0.2886 -0.6430
  315SOL    HW1 1258   1.481   1.842   3.078 -0.7637 -2.0703 -1.1027
  315SOL    HW2 1259   1.560   1.911   2.960 -2.0495 -2.8052 -1.1353
  315SOL     MW 1260   1.535   1.837   3.003 -0.1975 -0.8557 -0.7686
  316SOL     OW 1261   1.255   0.551   2.717 -0.8391  0.0850 -0.1321
  316SOL    HW1 1262   1.351   0.554   2.735  1.5706  0.3027 -0.3092
  316SOL    HW2 1263   1.207   0.546   2.801  1.2324  0.1463 -0.8881
  316SOL     MW 1264   1.262   0.550   2.731 -0.2479  0.1218 -0.2552
  317SOL     OW 1265   0.668   1.550   2.652  0.3652  0.4293 -0.4974
  317SOL    HW1 1266   0.722   1.472   2.671  3.3437 -0.7344  0.3259
  317SOL    HW2 1267   0.686   1.555   2.560  1.1663  0.8466  1.3419
  317SOL     MW 1268   0.678   1.540   2.642  0.8639  0.3308 -0.1461
  318SOL     OW 1269   1.355   0.342   2.941  0.2359  0.2358 -0.0258
  318SOL    HW1 1270   1.260   0.355   2.942 -0.1864  2.6496 -0.9440
  318SOL    HW2 1271   1.401   0.419   2.895 -2.5069  1.8786  1.6606
  318SOL     MW 1272   1.348   0.354   2.935 -0.1817  0.7710  0.0756
  319SOL     OW 1273   0.862   0.336   2.915  0.0641 -0.2997  0.0365
  319SOL    HW1 1274   0.824   0.323   2.828  4.5073  4.3018 -0.1026
  319SOL    HW2 1275   0.783   0.338   2.973 -1.3553  0.2926  1.0884
  319SOL     MW 1276   0.847   0.334   2.911  0.4631  0.3856  0.1570
  320SOL     OW 1277   1.070   1.380   2.002  0.2700 -0.1568  0.0504
  320SOL    HW1 1278   1.132   1.309   2.028 -0.1130  0.2642  1.1118
  320SOL    HW2 1279   1.132   1.432   1.947  1.9309 -1.1677 -1.4664
  320SOL     MW 1280   1.087   1.377   1.998  0.4386 -0.2346 -0.0097
  321SOL     OW 1281   1.094   0.915   2.991 -0.6734  0.0363 -0.9414
  321SOL    HW1 1282   1.032   0.892   2.924  2.1184 -1.8627  0.4862
  321SOL    HW2 1283   1.137   0.829   2.993 -2.6134 -1.1568 -0.5578
  321SOL     MW 1284   1.091   0.901   2.982 -0.5610 -0.3717 -0.7025
  322SOL     OW 1285   1.165   0.853   1.658  0.0849 -0.0815  0.1358
  322SOL    HW1 1286   1.237   0.793   1.674 -0.8446  1.8396  1.1974
  322SOL    HW2 1287   1.147   0.878   1.750  3.3446  0.8904 -0.1976
  322SOL     MW 1288   1.172   0.848   1.672  0.3924  0.3002  0.2319
  323SOL     OW 1289   1.240   1.594   1.888  0.1483  0.4828  0.4210
  323SOL    HW1 1290   1.263   1.567   1.799 -0.0216  1.3208 -0.1867
  323SOL    HW2 1291   1.181   1.674   1.878 -0.9637 -1.7050  0.0690
  323SOL     MW 1292   1.236   1.601   1.875 -0.0208  0.3047  0.2944
  324SOL     OW 1293   1.473   1.010   2.421  0.2275 -0.4311 -0.5360
  324SOL    HW1 1294   1.394   1.042   2.457  3.4054 -2.4861  4.1321
  324SOL    HW2 1295   1.539   1.067   2.457  0.4945  0.9702 -0.4360
  324SOL     MW 1296   1.471   1.021   2.431  0.6820 -0.5173  0.0931
  325SOL     OW 1297   1.105   0.492   2.951 -0.2667 -0.4115  0.1089
  325SOL    HW1 1298   1.119   0.531   3.034 -0.5154 -0.6474  1.1093
  325SOL    HW2 1299   1.014   0.450   2.949  0.6614 -0.8146 -0.5100
  325SOL     MW 1300   1.095   0.491   2.962 -0.1770 -0.4958  0.1592
  326SOL     OW 1301   0.372   1.383   2.312 -0.5706  0.6405 -0.6707
  326SOL    HW1 1302   0.465   1.352   2.295  2.3401  0.7545 -3.1302
  326SOL    HW2 1303   0.378   1.481   2.310 -0.1663 -1.8664  1.3605
  326SOL     MW 1304   0.385   1.392   2.309 -0.1332  0.3248 -0.7272
  327SOL     OW 1305   1.915   0.776   2.442 -0.3463 -0.2507  0.1989
  327SOL    HW1 1306   1.872   0.720   2.509  1.2617 -0.2807 -0.3733
  327SOL    HW2 1307   1.930   0.864   2.486  0.9463 -0.1684  0.6498
  327SOL     MW 1308   1.911   0.780   2.457  0.0364 -0.2438  0.1829
  328SOL     OW 1309   0.204   1.267   2.104 -0.0427 -0.6776 -0.8891
  328SOL    HW1 1310   0.116   1.224   2.101 -0.1911 -2.0029 -2.8619
  328SOL    HW2 1311   0.238   1.251   2.192  0.0718 -0.0673  0.5365
  328SOL     MW 1312   0.197   1.259   2.116 -0.0472 -0.7719 -0.9613
  329SOL     OW 1313   0.027   0.175   1.379  0.5685 -0.1271 -0.6955
  329SOL    HW1 1314   0.043   0.110   1.448  0.2817 -0.5236  0.8681
  329SOL    HW2 1315   0.119   0.197   1.380  0.4909 -2.2143 -1.2558
  329SOL     MW 1316   0.041   0.169   1.388  0.5204 -0.4548 -0.5631
  330SOL     OW 1317   0.392   3.048   2.040  0.1340 -0.0558 -0.1039
  330SOL    HW1 1318   0.454   3.098   2.094 -0.7466  1.7546 -0.1448
  330SOL    HW2 1319   0.330   3.005   2.104 -3.0401  5.2489 -2.6371
  330SOL     MW 1320   0.392   3.049   2.056 -0.4010  0.8830 -0.4435
  331SOL     OW 1321   0.787   1.257   2.425 -0.5776 -0.1074  0.0976
  331SOL    HW1 1322   0.762   1.339   2.379 -1.1703 -1.0053 -2.0464
  331SOL    HW2 1323   0.832   1.288   2.502  1.1068 -0.8570  0.8426
  331SOL     MW 1324   0.789   1.272   2.429 -0.4336 -0.3248 -0.0870
  332SOL     OW 1325   1.343   1.653   2.898  0.1752  0.5537  0.3422
  332SOL    HW1 1326   1.360   1.661   2.802 -1.4117 -1.6935  0.5008
  332SOL    HW2 1327   1.417   1.702   2.932 -0.3760 -0.1083  0.6338
  332SOL     MW 1328   1.355   1.661   2.890 -0.1069  0.1699  0.4016
  333SOL     OW 1329   1.741   1.402   2.903 -0.6021  0.6715 -0.4364
  333SOL    HW1 1330   1.833   1.369   2.931  2.5450  0.3964  0.3602
  333SOL    HW2 1331   1.683   1.334   2.930  0.4690 -1.0936  0.0882
  333SOL     MW 1332   1.745   1.389   2.910 -0.0456  0.4023 -0.2621
  334SOL     OW 1333   1.259   3.060   2.571  0.2180 -0.2401  0.4886
  334SOL    HW1 1334   1.180   3.068   2.627 -1.0602  2.2100  0.9591
  334SOL    HW2 1335   1.319   3.124   2.618  1.1202  0.8894  2.3044
  334SOL     MW 1336   1.256   3.069   2.584  0.1684  0.2322  0.7902
  335SOL     OW 1337   1.327   0.730   2.981 -0.3306 -0.4430  0.3535
  335SOL    HW1 1338   1.362   0.743   3.071  1.7956  2.6533  1.8112
  335SOL    HW2 1339   1.381   0.786   2.916  3.2364  2.5977 -0.9648
  335SOL     MW 1340   1.339   0.739   2.985  0.4206  0.3667  0.3719
  336SOL     OW 1341   0.959   1.165   1.818 -0.1205  0.4521 -0.4238
  336SOL    HW1 1342   0.958   1.229   1.897 -2.4075 -0.5022  2.0749
  336SOL    HW2 1343   0.992   1.080   1.849  0.5317  0.3607 -3.1215
  336SOL     MW 1344   0.963   1.162   1.832 -0.3362  0.3141 -0.4501
  337SOL     OW 1345   0.612   1.844   2.768 -0.4839 -0.3190 -0.3508
  337SOL    HW1 1346   0.530   1.813   2.722 -0.9391 -0.9265 -0.0086
  337SOL    HW2 1347   0.687   1.780   2.761 -0.5982  0.3388  2.2394
  337SOL     MW 1348   0.611   1.832   2.761 -0.5591 -0.3124  0.0361
  338SOL     OW 1349   1.125   0.741   2.558 -0.4277 -0.2226  0.1563
  338SOL    HW1 1350   1.061   0.666   2.541 -2.0398  0.7897  2.0508
  338SOL    HW2 1351   1.184   0.700   2.616 -1.6428  0.7825 -2.3758
  338SOL     MW 1352   1.124   0.726   2.563 -0.8007  0.0436  0.0722
  339SOL     OW 1353   1.506   1.066   1.846 -0.3073  0.1541  0.7234
  339SOL    HW1 1354   1.434   1.051   1.784 -0.5540 -0.2380  0.2003
  339SOL    HW2 1355   1.473   1.041   1.932 -3.1048  1.2669 -0.0368
  339SOL     MW 1356   1.492   1.060   1.849 -0.7089  0.2492  0.5541
  340SOL     OW 1357   1.367   1.498   0.028  0.7353 -0.5322 -0.0408
  340SOL    HW1 1358   1.372   1.525  -0.063  0.7465  1.5369 -0.0437
  340SOL    HW2 1359   1.443   1.451   0.048  1.0401  4.1423  1.5282
  340SOL     MW 1360   1.378   1.496   0.018  0.7770  0.3576  0.1659
  341SOL     OW 1361   0.096   1.342   2.744 -0.7525  0.0185 -0.1992
  341SOL    HW1 1362   0.156   1.273   2.725 -2.7060  0.3018  1.5583
  341SOL    HW2 1363   0.018   1.330   2.695  1.1021 -0.3847  1.3531
  341SOL     MW 1364   0.093   1.332   2.735 -0.7655  0.0027  0.2375
  342SOL     OW 1365   1.359   0.362   0.153 -0.0726 -0.0119 -0.4365
  342SOL    HW1 1366   1.402   0.430   0.214  2.1843  1.1070  2.1897
  342SOL    HW2 1367   1.376   0.382   0.062 -0.0473 -1.6981  0.4546
  342SOL     MW 1368   1.367   0.374   0.149  0.2285 -0.0867  0.0276
  343SOL     OW 1369   0.300   0.307   2.222  0.0105 -0.1831  0.2288
  343SOL    HW1 1370   0.358   0.229   2.243  3.9842  0.2582 -0.0568
  343SOL    HW2 1371   0.249   0.269   2.151 -0.8462 -0.1213 -0.6328
  343SOL     MW 1372   0.301   0.292   2.215  0.4217 -0.1167  0.0774
  344SOL     OW 1373   1.669   2.046   0.199  0.1674  0.4285 -0.2558
  344SOL    HW1 1374   1.706   2.120   0.150 -0.1988  0.4293 -0.9113
  344SOL    HW2 1375   1.608   2.015   0.138 -2.0341 -2.5584 -0.3203
  344SOL     MW 1376   1.666   2.052   0.185 -0.1714  0.0345 -0.3508
  345SOL     OW 1377   0.699   1.556   2.358  0.0996  0.2046 -0.4565
  345SOL    HW1 1378   0.615   1.515   2.341 -2.2988 -0.4816 -0.4662
  345SOL    HW2 1379   0.767   1.532   2.291 -1.7828 -2.5606  1.0092
  345SOL     MW 1380   0.697   1.547   2.347 -0.4652 -0.2508 -0.2644
  346SOL     OW 1381   1.749   1.150   0.016 -0.3663 -0.7233 -0.1584
  346SOL    HW1 1382   1.845   1.133   0.003 -1.8686  0.7523  0.0794
  346SOL    HW2 1383   1.723   1.068   0.065 -0.1823 -0.0265 -0.6965
  346SOL     MW 1384   1.758   1.137   0.021 -0.5402 -0.4367 -0.1980
  347SOL     OW 1385   1.146   0.725   2.296  0.2164  0.3402 -0.1306
  347SOL    HW1 1386   1.221   0.665   2.286  2.3096 -1.2854 -0.7081
  347SOL    HW2 1387   1.148   0.741   2.385 -0.7247  2.3271 -0.5119
  347SOL     MW 1388   1.156   0.719   2.306  0.3684  0.3879 -0.2571
  348SOL     OW 1389   1.321   2.577   1.888  0.3328 -0.7235  0.5218
  348SOL    HW1 1390   1.326   2.501   1.948  0.0938 -2.3207  1.0069
  348SOL    HW2 1391   1.356   2.653   1.947  1.0935  0.9648 -0.4060
  348SOL     MW 1392   1.326   2.577   1.903  0.4016 -0.7115  0.4634
  349SOL     OW 1393   1.403   0.167   2.718 -0.0790 -0.9395  0.0616
  349SOL    HW1 1394   1.376   0.241   2.779 -1.2186 -0.6973  1.9441
  349SOL    HW2 1395   1.476   0.117   2.761  0.4671  0.8708 -1.6148
  349SOL     MW 1396   1.409   0.170   2.731 -0.1573 -0.6687  0.0888
  350SOL     OW 1397   1.807   0.653   2.666  0.0203  0.5257  0.1858
  350SOL    HW1 1398   1.756   0.588   2.603 -0.1276 -1.6311  0.1773
  350SOL    HW2 1399   1.859   0.593   2.723 -1.8847  2.6494 -1.2884
  350SOL     MW 1400   1.807   0.636   2.665 -0.2505  0.5213 -0.0098
  351SOL     OW 1401   0.084   1.190   1.628 -0.1315  0.6580  0.3768
  351SOL    HW1 1402   0.017   1.185   1.694  3.7115 -1.5058  0.9804
  351SOL    HW2 1403   0.142   1.263   1.671  0.3265 -0.4137  0.6906
  351SOL     MW 1404   0.083   1.199   1.643  0.4360  0.2311  0.4978
  352SOL     OW 1405   0.849   1.706   2.780 -0.2582  0.7525  0.7763
  352SOL    HW1 1406   0.851   1.654   2.862 -2.2312  1.9838 -2.5237
  352SOL    HW2 1407   0.807   1.644   2.722 -1.3852  1.0791 -0.4072
  352SOL     MW 1408   0.844   1.691   2.783 -0.6672  0.9581  0.1847
  353SOL     OW 1409   0.038   2.518   2.759 -0.1624  0.5652  0.5531
  353SOL    HW1 1410   0.130   2.502   2.726  0.1234 -1.7787 -2.3184
  353SOL    HW2 1411   0.037   2.607   2.731  1.6892 -1.1931 -1.1014
  353SOL     MW 1412   0.050   2.528   2.751  0.1196  0.0239 -0.0441
  354SOL     OW 1413   0.306   2.442   0.814 -0.0453 -0.0926 -0.0894
  354SOL    HW1 1414   0.325   2.406   0.903  1.9174  0.5970 -2.0025
  354SOL    HW2 1415   0.229   2.403   0.787  1.9118 -0.3192  0.7803
  354SOL     MW 1416   0.299   2.432   0.822  0.4719 -0.0315 -0.2270
  355SOL     OW 1417   3.071   2.223   0.342  0.5230  0.3957  0.6365
  355SOL    HW1 1418   2.981   2.176   0.332 -1.7487 -1.2422 -2.5593
  355SOL    HW2 1419   3.065   2.279   0.424  0.7761  2.3926 -0.5422
  355SOL     MW 1420   3.058   2.224   0.352  0.2566  0.4431  0.0593
  356SOL     OW 1421   0.836   2.757   0.935 -0.1207 -1.0859  0.2166
  356SOL    HW1 1422   0.868   2.824   0.875 -1.6634  0.2521 -0.8068
  356SOL    HW2 1423   0.736   2.773   0.923 -1.4724 -0.4991  0.6764
  356SOL     MW 1424   0.827   2.768   0.926 -0.5026 -0.8320  0.1423
  357SOL     OW 1425   1.788   2.851   0.431 -0.0544 -0.4872  0.6825
  357SOL    HW1 1426   1.770   2.806   0.511  2.0451  0.1184  0.2472
  357SOL    HW2 1427   1.861   2.806   0.390  0.3290 -1.3677 -1.3393
  357SOL     MW 1428   1.795   2.839   0.436  0.2732 -0.5235  0.3583
  358SOL     OW 1429   0.471   0.143   1.013  0.2574  0.2248 -0.2314
  358SOL    HW1 1430   0.564   0.145   0.981  1.0827 -1.2836 -3.5352
  358SOL    HW2 1431   0.420   0.171   0.933  1.6215  2.6989  0.1631
  358SOL     MW 1432   0.477   0.147   0.998  0.5463  0.3522 -0.6152
  359SOL     OW 1433   0.803   2.898   1.862  0.1935  0.2782 -0.3050
  359SOL    HW1 1434   0.792   2.808   1.892  0.2030 -0.4148  2.3082
  359SOL    HW2 1435   0.857   2.890   1.781  1.3885  1.7750 -1.3750
  359SOL     MW 1436   0.809   2.885   1.855  0.3524  0.3843 -0.1014
  360SOL     OW 1437   0.569   2.804   0.879 -0.0971 -0.2689 -0.6333
  360SOL    HW1 1438   0.594   2.776   0.789 -1.2196 -1.8676  0.2281
  360SOL    HW2 1439   0.563   2.723   0.935 -0.0800  0.4794  1.5406
  360SOL     MW 1440   0.572   2.789   0.874 -0.2429 -0.3811 -0.2328
  361SOL     OW 1441   0.244   2.625   1.347  0.0429  0.0109  0.2347
  361SOL    HW1 1442   0.232   2.692   1.413  2.4337 -1.0742 -0.0746
  361SOL    HW2 1443   0.342   2.627   1.336 -2.5186 -1.4333 -0.0329
  361SOL     MW 1444   0.255   2.634   1.354  0.0204 -0.3228  0.1586
  362SOL     OW 1445   1.444   2.383   0.635 -0.1784 -0.5247 -0.2720
  362SOL    HW1 1446   1.471   2.330   0.708 -0.9775  0.4079 -2.6831
  362SOL    HW2 1447   1.494   2.469   0.651  0.9283 -1.2696 -0.9618
  362SOL     MW 1448   1.454   2.387   0.647 -0.1378 -0.5000 -0.6811
  363SOL     OW 1449   0.300   3.072   0.664  0.3974 -0.5956  0.1752
  363SOL    HW1 1450   0.292   3.017   0.746  0.2117 -1.3362  3.0831
  363SOL    HW2 1451   0.211   3.080   0.626 -0.6150 -2.6084  1.5704
  363SOL     MW 1452   0.287   3.066   0.670  0.2393 -0.9589  0.7430
  364SOL     OW 1453   0.723   0.242   0.201  0.0213  0.2353 -0.6440
  364SOL    HW1 1454   0.653   0.178   0.227  0.4372 -3.2504 -0.2452
  364SOL    HW2 1455   0.684   0.313   0.147 -1.1923  1.4398 -0.2579
  364SOL     MW 1456   0.708   0.243   0.198 -0.0839 -0.0657 -0.5405
  365SOL     OW 1457   0.980   2.002   1.159 -0.4568  0.7299 -0.3143
  365SOL    HW1 1458   0.943   2.088   1.145 -2.7166 -2.6635 -0.7088
  365SOL    HW2 1459   0.935   1.942   1.098 -0.3536  0.3405  2.1115
  365SOL     MW 1460   0.969   2.006   1.149 -0.7414  0.2308 -0.0463
  366SOL     OW 1461   2.947   2.661   0.934 -0.7407 -0.6641 -0.4933
  366SOL    HW1 1462   3.029   2.672   0.979  0.5503  0.3265 -1.1279
  366SOL    HW2 1463   2.976   2.683   0.842 -0.0153 -1.3855  1.4144
  366SOL     MW 1464   2.962   2.665   0.928 -0.4746 -0.6286 -0.3253
  367SOL     OW 1465   1.238   2.906   0.865 -0.2683  0.4896 -0.0115
  367SOL    HW1 1466   1.245   2.990   0.825  0.4862 -1.2902 -0.8992
  367SOL    HW2 1467   1.197   2.850   0.802 -0.9626 -0.0456  0.9080
  367SOL     MW 1468   1.234   2.910   0.852 -0.2603  0.1841 -0.0073
  368SOL     OW 1469   1.681   0.340   0.741 -0.0485  0.0863 -0.5135
  368SOL    HW1 1470   1.744   0.324   0.671  1.0724  1.7836  1.5305
  368SOL    HW2 1471   1.671   0.435   0.751  3.2381  0.9660 -0.9445
  368SOL     MW 1472   1.688   0.350   0.733  0.5331  0.4263 -0.3007
  369SOL     OW 1473   0.132   2.422   1.767 -0.5101  0.8045 -0.2142
  369SOL    HW1 1474   0.228   2.422   1.779  1.1411 -1.5739  0.2866
  369SOL    HW2 1475   0.124   2.519   1.767  0.7733  1.2478 -2.8882
  369SOL     MW 1476   0.144   2.435   1.768 -0.1229  0.5492 -0.5009
  370SOL     OW 1477   0.748   0.149   0.924 -0.3656  0.0657  0.7264
  370SOL    HW1 1478   0.761   0.244   0.924 -1.0585 -0.1751 -1.6387
  370SOL    HW2 1479   0.822   0.105   0.969  2.9436 -2.6392  1.6729
  370SOL     MW 1480   0.759   0.156   0.930 -0.0204 -0.3230  0.5392
  371SOL     OW 1481   1.294   2.879   1.494  0.1970 -0.0897 -0.1742
  371SOL    HW1 1482   1.240   2.824   1.440  1.2210  1.7252 -1.7587
  371SOL    HW2 1483   1.334   2.945   1.429  0.0921  0.0461  0.1426
  371SOL     MW 1484   1.292   2.881   1.478  0.3183  0.1677 -0.3415
  372SOL     OW 1485   0.810   2.307   0.483 -0.0345 -0.2613  0.8162
  372SOL    HW1 1486   0.777   2.218   0.490  1.9732  0.3133 -2.9179
  372SOL    HW2 1487   0.855   2.297   0.390 -0.1070  1.3251 -2.0142
  372SOL     MW 1488   0.811   2.294   0.471  0.2208  0.0238 -0.0499
  373SOL     OW 1489   2.825   3.022   1.447  0.5213  0.1104 -0.3767
  373SOL    HW1 1490   2.917   3.017   1.429  0.1327  1.4552 -1.5830
  373SOL    HW2 1491   2.791   3.104   1.395  1.6147  2.0986 -0.7443
  373SOL     MW 1492   2.833   3.032   1.438  0.6143  0.5501 -0.5844
  374SOL     OW 1493   1.513   0.541   0.301  0.1357 -0.4673 -0.1323
  374SOL    HW1 1494   1.595   0.530   0.253  1.8717 -0.0784 -1.7658
  374SOL    HW2 1495   1.523   0.495   0.385 -1.1286 -2.3974  1.2803
  374SOL     MW 1496   1.525   0.534   0.305  0.1980 -0.6706 -0.1614
  375SOL     OW 1497   0.987   2.102   2.280 -0.0882 -0.2576  1.0368
  375SOL    HW1 1498   1.039   2.108   2.357 -1.5145  1.1431 -2.2510
  375SOL    HW2 1499   0.960   2.018   2.256 -0.1687  1.4081 -0.4679
  375SOL     MW 1500   0.990   2.092   2.287 -0.2870  0.1470  0.4045
  376SOL     OW 1501   0.718   2.501   0.054 -0.4738 -0.3990  0.1538
  376SOL    HW1 1502   0.697   2.427   0.116 -1.1428 -2.5435  0.8055
  376SOL    HW2 1503   0.699   2.444  -0.030 -0.1187 -3.4571  1.3600
  376SOL     MW 1504   0.713   2.483   0.051 -0.5152 -1.0854  0.3989
  377SOL     OW 1505   1.253   2.064   0.858  0.4743  0.6809 -0.1661
  377SOL    HW1 1506   1.155   2.051   0.840  0.6537 -0.3148  0.4834
  377SOL    HW2 1507   1.265   2.030   0.949  0.9399 -1.1462  2.0258
  377SOL     MW 1508   1.242   2.057   0.867  0.5594  0.3084  0.2088
  378SOL     OW 1509   0.908   2.858   1.626  0.1109  0.3773  0.7777
  378SOL    HW1 1510   0.887   2.766   1.606 -3.0899 -0.6880  0.0366
  378SOL    HW2 1511   0.964   2.884   1.556 -2.6289 -2.2287 -0.1626
  378SOL     MW 1512   0.913   2.850   1.614 -0.6729 -0.1071  0.5559
  379SOL     OW 1513   1.134   1.680   2.171  0.1431 -0.5273 -0.2898
  379SOL    HW1 1514   1.061   1.668   2.108  0.1977  0.1495 -1.2699
  379SOL    HW2 1515   1.205   1.632   2.123  2.3634 -0.8724 -1.5145
  379SOL     MW 1516   1.134   1.672   2.156  0.4433 -0.4835 -0.5807
  380SOL     OW 1517   0.893   0.137   1.489  0.2191 -0.3712 -0.2719
  380SOL    HW1 1518   0.898   0.041   1.470  1.1466  2.3161 -0.6208
  380SOL    HW2 1519   0.939   0.146   1.572 -4.2996  0.3568 -1.0547
  380SOL     MW 1520   0.900   0.125   1.498 -0.2547  0.0794 -0.4212
  381SOL     OW 1521   0.720   2.072   0.826  0.1271  0.2488 -0.2087
  381SOL    HW1 1522   0.813   2.065   0.798  0.1311  1.1501 -2.3238
  381SOL    HW2 1523   0.725   2.133   0.894 -1.4597 -0.4666 -3.1045
  381SOL     MW 1524   0.733   2.079   0.832 -0.0817  0.2733 -0.8699
  382SOL     OW 1525   0.701   0.143   0.632 -0.1136  0.1752 -0.3854
  382SOL    HW1 1526   0.724   0.139   0.727 -0.8206 -0.9501  0.4390
  382SOL    HW2 1527   0.678   0.057   0.604  2.3720  1.3541 -0.6949
  382SOL     MW 1528   0.701   0.131   0.641  0.1211  0.1823 -0.3175
  383SOL     OW 1529   0.562   0.029   0.275 -0.0449  0.4969 -0.0936
  383SOL    HW1 1530   0.617  -0.045   0.235 -1.0657  0.8888 -4.2964
  383SOL    HW2 1531   0.515  -0.026   0.340  2.5063  0.8982  1.1377
  383SOL     MW 1532   0.563   0.012   0.278  0.1570  0.6016 -0.4857
  384SOL     OW 1533   0.750   2.963   0.563 -0.2299  0.1242  0.0929
  384SOL    HW1 1534   0.818   2.945   0.628  2.1764  1.0045  2.4274
  384SOL    HW2 1535   0.686   2.888   0.560  2.2104  1.7789  1.4803
  384SOL     MW 1536   0.750   2.951   0.571  0.4095  0.4587  0.5840
  385SOL     OW 1537   1.422   2.055   1.523  0.5945 -0.4015  0.1988
  385SOL    HW1 1538   1.488   2.086   1.583 -0.3078  1.3013 -0.6015
  385SOL    HW2 1539   1.378   1.999   1.591  1.3382 -1.4474  0.1866
  385SOL     MW 1540   1.425   2.052   1.540  0.5736 -0.3148  0.0916
  386SOL     OW 1541   1.277   0.365   0.858  0.9637 -0.6716 -0.1851
  386SOL    HW1 1542   1.231   0.434   0.913  1.4333  1.7844 -0.7128
  386SOL    HW2 1543   1.303   0.295   0.917 -1.0686 -2.8645 -0.9746
  386SOL     MW 1544   1.274   0.365   0.873  0.7575 -0.6369 -0.3589
  387SOL     OW 1545   0.822   2.196   1.515  0.1182 -0.6034  0.1241
  387SOL    HW1 1546   0.899   2.263   1.495  1.7564 -0.0813  0.8189
  387SOL    HW2 1547   0.840   2.109   1.470 -2.3813 -1.5613 -1.3753
  387SOL     MW 1548   0.834   2.193   1.507  0.0046 -0.6609  0.0180
  388SOL     OW 1549   1.494   2.779   1.253  0.3699 -0.8425 -0.0244
  388SOL    HW1 1550   1.418   2.816   1.208 -1.4483  4.7722  1.0691
  388SOL    HW2 1551   1.505   2.691   1.217  0.8864 -2.3955 -2.3029
  388SOL     MW 1552   1.486   2.772   1.242  0.1982 -0.3066 -0.1808
  389SOL     OW 1553   0.509   0.176   3.041  0.4976 -0.3459  0.4201
  389SOL    HW1 1554   0.600   0.148   3.055  1.2158  1.4678 -1.0700
  389SOL    HW2 1555   0.520   0.220   2.954  3.7385 -0.3787 -2.9501
  389SOL     MW 1556   0.522   0.178   3.031  1.0199 -0.1109 -0.2212
  390SOL     OW 1557   1.325   0.035   0.720 -0.3953 -0.1202  0.1376
  390SOL    HW1 1558   1.390   0.059   0.652  1.9887 -1.8039 -2.3845
  390SOL    HW2 1559   1.340   0.097   0.787 -2.0402  0.7528 -0.5989
  390SOL     MW 1560   1.335   0.046   0.720 -0.2978 -0.2271 -0.2924
  391SOL     OW 1561   0.388   2.175   1.478  0.1986 -0.0238  0.6677
  391SOL    HW1 1562   0.333   2.097   1.498  1.8917 -0.3163  3.1489
  391SOL    HW2 1563   0.322   2.242   1.490  0.5954  1.2874  1.9481
  391SOL     MW 1564   0.372   2.174   1.482  0.4744  0.1106  1.1640
  392SOL     OW 1565   2.079   2.225   0.317 -0.0516  0.2472  0.3556
  392SOL    HW1 1566   2.169   2.186   0.335  2.1088  0.9488 -0.9687
  392SOL    HW2 1567   2.045   2.254   0.399  0.8932 -0.6342 -1.2262
  392SOL     MW 1568   2.087   2.224   0.330  0.3581  0.2235 -0.0278
  393SOL     OW 1569   0.281   2.906   2.793  0.1549  0.0905  0.5693
  393SOL    HW1 1570   0.348   2.923   2.725  2.0265 -2.1462 -0.5130
  393SOL    HW2 1571   0.267   2.993   2.825  0.4721 -0.5203  0.2855
  393SOL     MW 1572   0.288   2.920   2.788  0.4437 -0.2852  0.3890
  394SOL     OW 1573   0.935   1.734   1.536 -0.0347 -0.2029  0.0568
  394SOL    HW1 1574   0.890   1.718   1.615  1.8510 -2.5579 -2.2818
  394SOL    HW2 1575   0.911   1.823   1.510  1.9722 -1.2886  0.4587
  394SOL     MW 1576   0.926   1.744   1.543  0.4789 -0.6569 -0.1987
  395SOL     OW 1577   0.953   2.962   2.561  0.3296  0.4069 -0.3477
  395SOL    HW1 1578   0.988   3.000   2.642  1.5601 -1.7865  0.4926
  395SOL    HW2 1579   1.029   2.909   2.528  0.3729 -1.0715 -0.4066
  395SOL     MW 1580   0.968   2.960   2.567  0.4976 -0.0776 -0.2446
  396SOL     OW 1581   0.700   1.831   2.418  0.1505 -0.0231  0.1418
  396SOL    HW1 1582   0.775   1.869   2.462  1.1651 -2.5996 -2.5017
  396SOL    HW2 1583   0.714   1.733   2.406 -0.6924 -2.1330  0.3270
  396SOL     MW 1584   0.712   1.823   2.422  0.1731 -0.6414 -0.1825
  397SOL     OW 1585   1.037   2.343   1.443 -0.0377 -0.2618  0.0620
  397SOL    HW1 1586   1.067   2.370   1.352  2.1545 -1.8801 -1.5250
  397SOL    HW2 1587   1.118   2.302   1.483  0.2746 -1.0186  0.4190
  397SOL     MW 1588   1.052   2.341   1.436  0.2927 -0.5752 -0.1003
  398SOL     OW 1589   0.623   2.708   0.623  0.1355  0.7747 -0.2222
  398SOL    HW1 1590   0.546   2.672   0.584 -1.4345  2.6873 -0.2242
  398SOL    HW2 1591   0.687   2.639   0.633  1.5915  1.5454  0.3434
  398SOL     MW 1592   0.621   2.694   0.619  0.1205  1.1287 -0.1478
  399SOL     OW 1593   0.214   2.103   0.326 -0.8125 -0.5497  0.2786
  399SOL    HW1 1594   0.127   2.147   0.320  3.0472 -0.5977 -1.1635
  399SOL    HW2 1595   0.250   2.133   0.245  0.1112  1.0785 -0.3374
  399SOL     MW 1596   0.207   2.113   0.314 -0.1814 -0.3412  0.0071
  400SOL     OW 1597   0.563   1.967   0.026 -0.0709  0.2744  0.2115
  400SOL    HW1 1598   0.495   2.027   0.026 -0.6241 -1.2316  1.2866
  400SOL    HW2 1599   0.553   1.913   0.101  2.3050  1.2781  0.6632
  400SOL     MW 1600   0.553   1.968   0.036  0.1696  0.2081  0.4129
  401SOL     OW 1601   0.817   2.096   0.086  0.1973  0.2246 -0.3476
  401SOL    HW1 1602   0.871   2.021   0.103 -0.9477  0.6894  0.3790
  401SOL    HW2 1603   0.724   2.068   0.085  0.0697 -2.6654  1.0274
  401SOL     MW 1604   0.812   2.083   0.088  0.0294 -0.0954 -0.0703
  402SOL     OW 1605   0.579   2.981   1.738  0.0365 -0.2598 -0.3546
  402SOL    HW1 1606   0.659   2.939   1.783 -1.3814 -1.5239  1.2072
  402SOL    HW2 1607   0.610   3.066   1.712  0.8613 -2.3632  0.9845
  402SOL     MW 1608   0.593   2.987   1.741 -0.0418 -0.7041  0.0281
  403SOL     OW 1609   0.100   0.406   0.414  0.4030  0.8920 -0.2869
  403SOL    HW1 1610   0.185   0.445   0.433  2.4673 -0.3882  0.5576
  403SOL    HW2 1611   0.107   0.402   0.316  0.5934 -1.6466 -0.8152
  403SOL     MW 1612   0.112   0.411   0.404  0.7005  0.3881 -0.2452
  404SOL     OW 1613   0.945   2.922   0.756  0.4185 -0.5670  0.3526
  404SOL    HW1 1614   1.017   2.877   0.720 -1.2439 -0.8725 -0.9350
  404SOL    HW2 1615   0.962   3.019   0.758  1.1979  1.2708 -0.8923
  404SOL     MW 1616   0.956   2.929   0.752  0.3020 -0.3648  0.0185
  405SOL     OW 1617   0.513   2.431   1.525 -0.1993  0.6409 -0.3313
  405SOL    HW1 1618   0.521   2.481   1.444  2.3077  1.2514 -0.5384
  405SOL    HW2 1619   0.479   2.338   1.510  2.1683 -0.2080  0.1930
  405SOL     MW 1620   0.509   2.425   1.513  0.4439  0.6094 -0.2894
  406SOL     OW 1621   0.329   2.413   1.088 -0.1662  0.0112  0.1310
  406SOL    HW1 1622   0.235   2.411   1.094  0.3406  0.0196  1.1938
  406SOL    HW2 1623   0.352   2.334   1.140 -1.0392 -0.5436  2.2489
  406SOL     MW 1624   0.319   2.402   1.095 -0.2145 -0.0609  0.5506
  407SOL     OW 1625   0.048   2.693   1.160  1.0076  0.0153 -0.2058
  407SOL    HW1 1626   0.105   2.649   1.230  0.7169 -1.7231  2.6910
  407SOL    HW2 1627   0.107   2.709   1.088 -1.2248 -2.1471  0.0361
  407SOL     MW 1628   0.063   2.690   1.160  0.6747 -0.4993  0.2083
  408SOL     OW 1629   2.133   2.100   0.641 -0.3346 -0.5426  1.1432
  408SOL    HW1 1630   2.093   2.127   0.726  0.8395  1.4216 -0.5678
  408SOL    HW2 1631   2.089   2.018   0.610 -2.3514  2.1365  0.2862
  408SOL     MW 1632   2.122   2.093   0.648 -0.4458  0.0701  0.8044
  409SOL     OW 1633   1.449   0.152   0.965  0.0833  0.2245 -0.4118
  409SOL    HW1 1634   1.505   0.205   1.019 -0.5101 -3.2521 -1.2628
  409SOL    HW2 1635   1.483   0.064   0.985 -1.2272  0.6009  0.7100
  409SOL     MW 1636   1.461   0.148   0.974 -0.1679 -0.1845 -0.3761
  410SOL     OW 1637   1.082   2.408   1.172 -0.5196 -0.1281  0.4810
  410SOL    HW1 1638   0.998   2.449   1.143 -1.4350  0.8525  0.3291
  410SOL    HW2 1639   1.139   2.387   1.099  2.5627 -1.1071  1.3145
  410SOL     MW 1640   1.078   2.411   1.159 -0.2337 -0.1279  0.5709
  411SOL     OW 1641   1.921   0.012   2.904  0.0627 -0.2117  0.1244
  411SOL    HW1 1642   1.865  -0.030   2.840 -0.6202 -0.7567  2.1271
  411SOL    HW2 1643   1.873   0.064   2.968  1.0267 -1.0018  0.5070
  411SOL     MW 1644   1.908   0.013   2.904  0.0998 -0.3878  0.4391
  412SOL     OW 1645   1.030   2.222   0.619 -0.2690 -0.0014  0.2075
  412SOL    HW1 1646   1.076   2.290   0.671 -1.9174 -0.8371 -0.8221
  412SOL    HW2 1647   0.963   2.273   0.576 -2.4144 -0.4270 -1.2927
  412SOL     MW 1648   1.027   2.237   0.620 -0.7696 -0.1678 -0.1263
  413SOL     OW 1649   0.554   2.723   0.041 -0.0755  0.0800 -0.0812
  413SOL    HW1 1650   0.623   2.639   0.032  2.6962  1.1248  1.3087
  413SOL    HW2 1651   0.559   2.784  -0.031 -0.0853  0.1185 -0.9498
  413SOL     MW 1652   0.564   2.720   0.031  0.2889  0.2230 -0.0124
  414SOL     OW 1653   2.031   3.005   1.163  0.3719 -0.3633 -0.0571
  414SOL    HW1 1654   2.019   3.091   1.212  2.2965  1.4103  1.4496
  414SOL    HW2 1655   2.019   3.014   1.067 -1.9592 -0.9788  0.0265
  414SOL     MW 1656   2.028   3.017   1.157  0.3182 -0.2105  0.1527
  415SOL     OW 1657   1.764   2.794   1.079 -0.4201  0.1703 -0.1325
  415SOL    HW1 1658   1.739   2.746   1.157 -2.2795  1.7337 -1.0167
  415SOL    HW2 1659   1.862   2.796   1.077  0.5144 -1.4741  0.4817
  415SOL     MW 1660   1.774   2.788   1.089 -0.5422  0.1596 -0.1681
  416SOL     OW 1661   0.577   1.940   1.362 -0.4654 -0.6996  0.5081
  416SOL    HW1 1662   0.489   1.920   1.379  0.1219 -1.1509  1.8825
  416SOL    HW2 1663   0.615   1.852   1.392 -1.7765  1.8983  2.1866
  416SOL     MW 1664   0.571   1.926   1.368 -0.5609 -0.4164  0.9109
  417SOL     OW 1665   0.993   2.984   2.049 -0.3550  0.1492 -0.2575
  417SOL    HW1 1666   0.924   2.992   2.109 -2.1188 -1.3345 -0.6103
  417SOL    HW2 1667   0.937   2.963   1.975  2.0143 -1.7887 -0.0272
  417SOL     MW 1668   0.977   2.982   2.047 -0.2751 -0.3023 -0.2737
  418SOL     OW 1669   0.693   2.909   0.167  0.1015  0.0970  0.1843
  418SOL    HW1 1670   0.759   2.913   0.095 -1.1853  0.1345 -1.9611
  418SOL    HW2 1671   0.639   2.834   0.131  1.3665 -0.9898  1.0888
  418SOL     MW 1672   0.695   2.900   0.153  0.0987 -0.0415  0.0206
  419SOL     OW 1673   0.506   2.633   1.334 -0.3966  0.0172  0.5580
  419SOL    HW1 1674   0.571   2.688   1.383  1.0009 -0.3029  0.3191
  419SOL    HW2 1675   0.521   2.632   1.237  5.3592 -0.9548  0.3165
  419SOL     MW 1676   0.517   2.640   1.327  0.5472 -0.1533  0.4946
  420SOL     OW 1677   0.793   2.209   1.071  0.0294  0.0030  0.3890
  420SOL    HW1 1678   0.746   2.216   1.155 -0.1144  0.3129  0.3960
  420SOL    HW2 1679   0.801   2.302   1.033  0.2403 -0.2914 -1.9928
  420SOL     MW 1680   0.788   2.222   1.077  0.0383  0.0051  0.0757
  421SOL     OW 1681   2.974   0.197   3.079  0.2182 -0.4546 -0.1992
  421SOL    HW1 1682   2.895   0.196   3.022 -1.4045 -0.5459 -0.7325
  421SOL    HW2 1683   2.998   0.106   3.086  0.8896  0.1123 -1.0611
  421SOL     MW 1684   2.967   0.185   3.073  0.0927 -0.3919 -0.3833
  422SOL     OW 1685   0.830   2.485   0.949 -0.5766  0.3564 -0.3595
  422SOL    HW1 1686   0.856   2.575   0.945  0.2634  0.9364 -1.4828
  422SOL    HW2 1687   0.817   2.461   0.856  1.0080 -0.6111 -1.4633
  422SOL     MW 1688   0.832   2.494   0.936 -0.2567  0.3052 -0.6533
  423SOL     OW 1689   1.486   0.067   0.485  0.2600 -0.6829 -0.4032
  423SOL    HW1 1690   1.470   0.073   0.390  1.4130  2.2756  0.2760
  423SOL    HW2 1691   1.509   0.163   0.508 -0.4907 -1.5035 -0.1119
  423SOL     MW 1692   1.487   0.080   0.476  0.3131 -0.4009 -0.2751
  424SOL     OW 1693   0.674   2.282   1.302  0.2090  0.2498 -0.0759
  424SOL    HW1 1694   0.594   2.229   1.309 -2.9663  0.1200 -1.1829
  424SOL    HW2 1695   0.731   2.247   1.373 -0.7108 -0.3443 -0.5337
  424SOL     MW 1696   0.671   2.270   1.312 -0.3313  0.1543 -0.2823
  425SOL     OW 1697   1.732   2.746   2.053  0.1451  0.2670 -0.2884
  425SOL    HW1 1698   1.745   2.748   1.955 -2.0457 -0.4734  0.0347
  425SOL    HW2 1699   1.747   2.653   2.087 -0.3326 -3.5224  1.8939
  425SOL     MW 1700   1.736   2.734   2.044 -0.2070 -0.3306  0.0422
  426SOL     OW 1701   0.838   1.694   1.967  0.0259  0.1671  0.3505
  426SOL    HW1 1702   0.791   1.712   1.879 -0.7078  2.4336  2.7229
  426SOL    HW2 1703   0.806   1.768   2.029 -1.0361  1.0231  0.4864
  426SOL     MW 1704   0.828   1.706   1.964 -0.2110  0.5791  0.6814
  427SOL     OW 1705   0.372   1.686   1.852 -0.5467 -0.6141  0.1272
  427SOL    HW1 1706   0.413   1.645   1.781  1.4656  0.9702 -0.5156
  427SOL    HW2 1707   0.328   1.617   1.903 -0.2130 -2.8929 -1.6949
  427SOL     MW 1708   0.372   1.672   1.849 -0.2372 -0.7057 -0.1980
  428SOL     OW 1709   0.577   2.579   1.046  0.2495  0.1588  0.7443
  428SOL    HW1 1710   0.651   2.522   1.049  0.4349  3.5499 -1.4581
  428SOL    HW2 1711   0.490   2.525   1.055 -0.0850 -2.0031 -0.3357
  428SOL     MW 1712   0.575   2.564   1.048  0.2298  0.3210  0.3113
  429SOL     OW 1713   1.234   2.827   1.125 -0.2923 -0.2395  0.2213
  429SOL    HW1 1714   1.141   2.835   1.146 -0.1235  1.5310 -1.1829
  429SOL    HW2 1715   1.241   2.861   1.037  1.3799 -0.9701  0.6146
  429SOL     MW 1716   1.222   2.833   1.116 -0.0494 -0.1023  0.0879
  430SOL     OW 1717   1.161   2.730   0.692  0.3546  0.3184  0.4654
  430SOL    HW1 1718   1.189   2.647   0.730 -1.2103 -0.1128 -2.0819
  430SOL    HW2 1719   1.097   2.685   0.630 -1.4952 -0.5366 -0.6556
  430SOL     MW 1720   1.157   2.713   0.688 -0.0959  0.1487 -0.0186
  431SOL     OW 1721   0.328   1.951   1.055  0.4330 -0.7464  0.0182
  431SOL    HW1 1722   0.388   1.881   1.041  0.2692  0.1436  3.7313
  431SOL    HW2 1723   0.304   1.992   0.971  0.1836  0.8658  1.3092
  431SOL     MW 1724   0.333   1.947   1.042  0.3785 -0.4162  0.6784
  432SOL     OW 1725   0.073   0.036   1.136 -0.6086 -0.3121 -0.7961
  432SOL    HW1 1726   0.055   0.113   1.192 -0.9724  0.6616  0.0260
  432SOL    HW2 1727   0.011  -0.027   1.166 -0.6522  1.9845  0.8146
  432SOL     MW 1728   0.063   0.038   1.148 -0.6623  0.1194 -0.4751
  433SOL     OW 1729   0.627   2.858   1.483  0.3086  0.1110  0.1193
  433SOL    HW1 1730   0.626   2.840   1.579 -0.8415  0.2315  0.1263
  433SOL    HW2 1731   0.715   2.904   1.471  3.8161  0.7453  0.7251
  433SOL     MW 1732   0.638   2.861   1.494  0.6197  0.2106  0.2002
  434SOL     OW 1733   1.563   2.797   1.596 -0.5009  0.7102  0.1721
  434SOL    HW1 1734   1.482   2.805   1.545  0.2174 -0.4457  1.3142
  434SOL    HW2 1735   1.628   2.767   1.533 -0.6554  0.9925  0.3298
  434SOL     MW 1736   1.561   2.794   1.581 -0.4265  0.5950  0.3436
  435SOL     OW 1737   2.755   1.768   0.179 -0.4772 -0.4128  0.3244
  435SOL    HW1 1738   2.824   1.827   0.170 -3.5700  0.4449 -0.3454
  435SOL    HW2 1739   2.716   1.769   0.097 -1.4709  1.7177 -0.5511
  435SOL     MW 1740   2.759   1.776   0.167 -1.0164 -0.0185  0.1205
  436SOL     OW 1741   1.384   2.683   0.384 -0.7886 -0.2898 -0.6854
  436SOL    HW1 1742   1.434   2.685   0.468 -1.0897  1.7854 -0.7489
  436SOL    HW2 1743   1.378   2.782   0.361  2.2987 -0.6213  0.1247
  436SOL     MW 1744   1.390   2.697   0.392 -0.4210 -0.0598 -0.5869
  437SOL     OW 1745   0.924   2.971   1.360  0.5428 -0.3121  0.0837
  437SOL    HW1 1746   1.007   3.008   1.332  0.3798  1.0223  0.2578
  437SOL    HW2 1747   0.920   2.905   1.292  2.9828 -0.9713 -0.7026
  437SOL     MW 1748   0.935   2.967   1.347  0.8432 -0.2230  0.0029
  438SOL     OW 1749   0.803   2.615   1.912 -0.0015  0.2495  0.3494
  438SOL    HW1 1750   0.810   2.575   1.999 -0.1964  3.4154 -0.6009
  438SOL    HW2 1751   0.772   2.551   1.850 -0.1262  0.9204  0.1386
  438SOL     MW 1752   0.800   2.602   1.915 -0.0437  0.7558  0.1962
  439SOL     OW 1753   1.196   2.087   0.401 -0.8385  0.0816  0.4794
  439SOL    HW1 1754   1.142   2.102   0.476 -0.1228 -2.3462 -0.7543
  439SOL    HW2 1755   1.194   2.171   0.351  0.6511  0.6172 -0.8681
  439SOL     MW 1756   1.188   2.100   0.404 -0.5475 -0.1681  0.1388
  440SOL     OW 1757   1.676   2.962   3.083 -0.9611 -0.2470  0.3748
  440SOL    HW1 1758   1.668   2.909   3.163 -0.0623  1.6465  0.4024
  440SOL    HW2 1759   1.770   2.988   3.089  0.6358 -1.9445 -0.0340
  440SOL     MW 1760   1.688   2.958   3.094 -0.6318 -0.2212  0.3245
  441SOL     OW 1761   0.376   2.677   0.506 -0.0867 -0.5601  0.4214
  441SOL    HW1 1762   0.358   2.638   0.414 -1.2652  0.2510 -2.1245
  441SOL    HW2 1763   0.394   2.767   0.487 -0.1775 -2.2247  3.6001
  441SOL     MW 1764   0.376   2.684   0.491 -0.2542 -0.6727  0.5049
  442SOL     OW 1765   3.073   2.349   0.596  0.5394 -0.2286  0.0926
  442SOL    HW1 1766   3.070   2.439   0.598  0.6778 -1.7217 -2.3404
  442SOL    HW2 1767   2.977   2.326   0.614 -0.3118 -0.1382 -0.5547
  442SOL     MW 1768   3.060   2.358   0.599  0.4453 -0.4137 -0.3138
  443SOL     OW 1769   1.496   1.751   1.984  0.4415 -0.4328  0.7799
  443SOL    HW1 1770   1.433   1.694   1.939 -0.0962  1.1947  1.5671
  443SOL    HW2 1771   1.468   1.723   2.066 -0.0478 -2.4240 -1.9907
  443SOL     MW 1772   1.484   1.740   1.989  0.3060 -0.4808  0.5182
  444SOL     OW 1773   0.872   2.573   1.579  0.1565 -0.1318  0.5488
  444SOL    HW1 1774   0.967   2.549   1.591  2.7326  2.9962 -0.6828
  444SOL    HW2 1775   0.832   2.514   1.645 -0.4801  0.4331  1.8059
  444SOL     MW 1776   0.879   2.562   1.589  0.4124  0.3554  0.5522
  445SOL     OW 1777   1.148   0.122   1.365  1.1186  0.3178  0.4279
  445SOL    HW1 1778   1.069   0.148   1.413 -1.8895  0.8054  0.7900
  445SOL    HW2 1779   1.141   0.152   1.273 -4.0877 -0.6673  0.0329
  445SOL     MW 1780   1.137   0.130   1.359  0.0348  0.2522  0.4236
  446SOL     OW 1781   2.790   2.850   1.040  0.3413 -0.1117 -0.1203
  446SOL    HW1 1782   2.733   2.899   0.979 -0.9451  2.3751 -0.6147
  446SOL    HW2 1783   2.843   2.782   0.993  0.0142 -1.2147  0.7517
  446SOL     MW 1784   2.790   2.848   1.026  0.1284  0.0709 -0.0705
  447SOL     OW 1785   0.040   2.001   1.638 -0.7580  0.2242 -0.6421
  447SOL    HW1 1786   0.062   1.933   1.706  0.0347 -0.2553  1.5046
  447SOL    HW2 1787  -0.024   1.950   1.576  1.4454 -2.5002  0.9409
  447SOL     MW 1788   0.034   1.985   1.639 -0.3627 -0.1985 -0.1500
  448SOL     OW 1789   1.744   2.414   1.667  0.4948 -0.1259  0.2431
  448SOL    HW1 1790   1.711   2.326   1.661 -1.9956  0.1614  1.8590
  448SOL    HW2 1791   1.662   2.465   1.692 -2.8434 -0.1445 -0.7106
  448SOL     MW 1792   1.729   2.409   1.669 -0.2742 -0.0905  0.3305
  449SOL     OW 1793   0.871   2.865   0.351  0.0209  0.4598  0.0217
  449SOL    HW1 1794   0.794   2.867   0.287  1.0929  1.4990  0.4433
  449SOL    HW2 1795   0.846   2.913   0.435 -0.7630 -2.4656 -1.6352
  449SOL     MW 1796   0.858   2.872   0.354  0.0589  0.2109 -0.1413
  450SOL     OW 1797   1.204   2.450   0.741  0.4196  0.0935  0.5049
  450SOL    HW1 1798   1.230   2.424   0.830 -0.1637 -0.2423  0.6033
  450SOL    HW2 1799   1.283   2.433   0.688  2.4010 -2.1659 -2.3774
  450SOL     MW 1800   1.217   2.444   0.746  0.6041 -0.2489  0.1376
  451SOL     OW 1801   0.565   2.007   1.667  0.0057  0.5615 -0.0756
  451SOL    HW1 1802   0.633   2.062   1.706  2.0095 -1.7669  1.5383
  451SOL    HW2 1803   0.571   2.030   1.571  0.4117  1.0645 -0.4603
  451SOL     MW 1804   0.575   2.017   1.660  0.3237  0.3207  0.0866
  452SOL     OW 1805   0.305   2.651   0.063  0.6113 -0.0860 -0.2529
  452SOL    HW1 1806   0.399   2.673   0.060  2.4028 -0.8935 -3.1789
  452SOL    HW2 1807   0.254   2.729   0.029 -0.6401  1.9266  1.6007
  452SOL     MW 1808   0.311   2.664   0.058  0.6826  0.0730 -0.3944
  453SOL     OW 1809   0.320   3.042   1.597  0.1122  0.4460 -0.5669
  453SOL    HW1 1810   0.389   3.019   1.658 -0.3727 -0.2630 -1.4931
  453SOL    HW2 1811   0.381   3.056   1.515  0.4211  0.0064 -0.3222
  453SOL     MW 1812   0.337   3.041   1.594  0.0890  0.2945 -0.6568
  454SOL     OW 1813   0.958   2.721   1.178 -0.0690 -0.3994 -0.6829
  454SOL    HW1 1814   0.901   2.650   1.196  0.7999  1.3264 -2.2196
  454SOL    HW2 1815   0.929   2.752   1.090 -0.5881  4.9054 -1.7792
  454SOL     MW 1816   0.947   2.715   1.169 -0.0228  0.5282 -1.0303
  455SOL     OW 1817   1.614   2.840   0.220  0.6864  0.3742  0.0866
  455SOL    HW1 1818   1.665   2.849   0.301 -1.8149 -1.1388 -0.8917
  455SOL    HW2 1819   1.599   2.746   0.202  0.4538  0.3846  1.0452
  455SOL     MW 1820   1.619   2.829   0.228  0.3257  0.1760  0.0840
  456SOL     OW 1821   2.742   0.305   1.536  0.2070  0.2856 -0.1369
  456SOL    HW1 1822   2.727   0.248   1.457  1.0430 -2.9815 -0.4879
  456SOL    HW2 1823   2.830   0.356   1.526 -0.3468 -0.3083 -0.0530
  456SOL     MW 1824   2.752   0.304   1.524  0.2442 -0.2238 -0.1721
  457SOL     OW 1825   0.840   1.579   3.036 -1.0386  0.1170 -0.4894
  457SOL    HW1 1826   0.744   1.556   3.043 -0.9363  1.5089  1.7586
  457SOL    HW2 1827   0.865   1.632   3.111  1.4629 -1.0765 -3.0923
  457SOL     MW 1828   0.831   1.583   3.047 -0.6951  0.1431 -0.5363
  458SOL     OW 1829   1.386   1.439   0.608 -0.0478  0.2436  0.6792
  458SOL    HW1 1830   1.326   1.514   0.589 -1.9119  0.3711 -1.0840
  458SOL    HW2 1831   1.343   1.361   0.574 -1.3171 -1.0856  0.9235
  458SOL     MW 1832   1.372   1.439   0.601 -0.4613  0.0850  0.4788
  459SOL     OW 1833   1.531   0.030   0.205  0.4519 -0.0698  0.1180
  459SOL    HW1 1834   1.542  -0.064   0.214 -0.9608 -0.6422 -1.1179
  459SOL    HW2 1835   1.461   0.036   0.136  0.2700 -0.3761 -1.5704
  459SOL     MW 1836   1.523   0.018   0.197  0.2415 -0.1857 -0.2678
  460SOL     OW 1837   1.754   2.144   0.641 -0.4593 -0.2282  0.1443
  460SOL    HW1 1838   1.663   2.140   0.671  0.1538  0.8315 -1.0459
  460SOL    HW2 1839   1.771   2.050   0.619  1.9339 -0.4919 -1.3789
  460SOL     MW 1840   1.745   2.131   0.642 -0.0626 -0.1232 -0.2137
  461SOL     OW 1841   0.445   2.393   0.571  0.1777 -0.2275  0.4765
  461SOL    HW1 1842   0.452   2.470   0.520  0.5520  0.3647 -0.8528
  461SOL    HW2 1843   0.417   2.415   0.664  1.6425  1.4449 -0.1875
  461SOL     MW 1844   0.442   2.406   0.577  0.4203  0.0713  0.2135
  462SOL     OW 1845   0.333   0.254   1.233 -0.3825 -0.1061 -0.2689
  462SOL    HW1 1846   0.377   0.208   1.154  2.1245  1.6480 -1.9544
  462SOL    HW2 1847   0.407   0.274   1.297  0.5010  0.1627  2.7872
  462SOL     MW 1848   0.349   0.251   1.231  0.0649  0.1608 -0.0881
  463SOL     OW 1849   0.989   0.084   0.671  0.3463 -0.1018 -0.3510
  463SOL    HW1 1850   1.057   0.062   0.612 -0.0794  1.1133  0.2880
  463SOL    HW2 1851   0.916   0.115   0.608  0.0452 -0.7519 -0.0419
  463SOL     MW 1852   0.988   0.085   0.655  0.2504 -0.0273 -0.2259
  464SOL     OW 1853   0.768   3.030   2.203  0.1235 -0.0654 -0.2966
  464SOL    HW1 1854   0.762   2.935   2.222 -0.9834  0.2063  3.1928
  464SOL    HW2 1855   0.781   3.066   2.290  0.8194 -1.4242  0.9295
  464SOL     MW 1856   0.769   3.022   2.217  0.0693 -0.2089  0.3255
  465SOL     OW 1857   0.861   0.257   0.442  0.9560 -0.2244 -0.0629
  465SOL    HW1 1858   0.793   0.241   0.512  0.7445  1.0314 -1.1904
  465SOL    HW2 1859   0.809   0.268   0.362 -2.1861  3.0004  0.5948
  465SOL     MW 1860   0.845   0.257   0.441  0.5136  0.3668 -0.1249
  466SOL     OW 1861   0.979   2.027   0.796 -0.4864 -0.0155  0.4091
  466SOL    HW1 1862   1.000   1.944   0.756 -2.3774 -1.5162  0.2158
  466SOL    HW2 1863   0.996   2.095   0.722  2.1565  0.7381  0.3891
  466SOL     MW 1864   0.984   2.025   0.781 -0.3872 -0.1141  0.3810
  467SOL     OW 1865   1.256   2.325   0.962  0.2699  1.0283  0.4458
  467SOL    HW1 1866   1.352   2.338   0.955  1.1742 -0.9709 -0.3599
  467SOL    HW2 1867   1.250   2.228   0.938 -0.6175 -1.0921 -0.0637
  467SOL     MW 1868   1.268   2.314   0.958  0.2721  0.4848  0.2723
  468SOL     OW 1869   0.472   2.660   1.930  0.6833  0.2482 -0.3213
  468SOL    HW1 1870   0.468   2.593   1.861 -1.2978 -0.7716  1.7931
  468SOL    HW2 1871   0.388   2.699   1.932  1.7323  1.1811 -1.7131
  468SOL     MW 1872   0.460   2.657   1.921  0.5603  0.2367 -0.2260
  469SOL     OW 1873   0.391   2.135   1.830  0.0745  0.4166 -0.4251
  469SOL    HW1 1874   0.322   2.078   1.865  0.0845  1.3982  1.2339
  469SOL    HW2 1875   0.448   2.076   1.769  3.0748 -2.0460  0.3557
  469SOL     MW 1876   0.390   2.120   1.827  0.4717  0.2212 -0.1032
  470SOL     OW 1877   3.043   2.580   0.157  0.3469 -0.5127 -0.6500
  470SOL    HW1 1878   2.972   2.578   0.233  0.3561  1.8047  1.0892
  470SOL    HW2 1879   3.006   2.604   0.070  1.0128 -0.6840 -2.2572
  470SOL     MW 1880   3.029   2.583   0.156  0.4360 -0.2295 -0.6326
  471SOL     OW 1881   1.161   2.640   1.406  0.3223 -0.5693 -0.4005
  471SOL    HW1 1882   1.158   2.577   1.481 -0.3115  1.7447  1.3706
  471SOL    HW2 1883   1.116   2.597   1.331 -3.3136  1.2311 -0.5168
  471SOL     MW 1884   1.155   2.626   1.406 -0.2410 -0.0264 -0.1821
  472SOL     OW 1885   2.827   2.103   0.351 -0.7278  0.2096  0.4577
  472SOL    HW1 1886   2.816   2.090   0.259 -2.7850 -0.5816  1.7902
  472SOL    HW2 1887   2.795   2.019   0.392 -0.8909 -3.7250 -0.2227
  472SOL     MW 1888   2.821   2.091   0.344 -1.0207 -0.4139  0.5438
  473SOL     OW 1889   0.781   2.566   1.319 -0.5643 -0.2773  0.0577
  473SOL    HW1 1890   0.716   2.497   1.332  0.6676  0.5649  1.5629
  473SOL    HW2 1891   0.826   2.577   1.404 -3.1730  1.9339  0.2567
  473SOL     MW 1892   0.778   2.559   1.332 -0.7459  0.1256  0.2825
  474SOL     OW 1893   0.817   2.182   1.776 -0.8165  1.6032 -0.4647
  474SOL    HW1 1894   0.896   2.222   1.825 -2.0121  0.7906  1.1723
  474SOL    HW2 1895   0.845   2.191   1.682 -2.3882  1.7135 -1.4332
  474SOL     MW 1896   0.831   2.188   1.770 -1.1817  1.5106 -0.3765
  475SOL     OW 1897   1.634   3.035   1.475  0.1515 -0.6781 -0.2456
  475SOL    HW1 1898   1.560   3.050   1.420  2.5081 -4.5230  0.9780
  475SOL    HW2 1899   1.609   2.963   1.535  0.7540  0.2435  2.8496
  475SOL     MW 1900   1.621   3.027   1.476  0.5419 -1.0638  0.3242
  476SOL     OW 1901   1.386   2.617   1.045 -0.3193 -0.2085  0.1757
  476SOL    HW1 1902   1.311   2.663   1.086 -1.0524 -0.1663  2.5792
  476SOL    HW2 1903   1.429   2.677   0.988  1.3075 -0.7017 -0.2421
  476SOL     MW 1904   1.382   2.631   1.043 -0.2014 -0.2680  0.4377
  477SOL     OW 1905   0.812   2.500   0.667  0.5497  0.5299  0.3558
  477SOL    HW1 1906   0.875   2.558   0.623 -1.2301 -0.0003 -0.5662
  477SOL    HW2 1907   0.782   2.434   0.605 -0.1049 -0.2059  0.1535
  477SOL     MW 1908   0.816   2.499   0.653  0.2285  0.3629  0.2075
  478SOL     OW 1909   0.175   2.706   0.908 -0.0502  0.1536 -0.1672
  478SOL    HW1 1910   0.222   2.795   0.919  0.4396  1.1717  1.0101
  478SOL    HW2 1911   0.222   2.629   0.875  0.2548 -2.7178  3.2688
  478SOL     MW 1912   0.187   2.707   0.905  0.0547 -0.0909  0.4415
  479SOL     OW 1913   1.473   2.012   1.259 -0.1703  0.3491 -0.0577
  479SOL    HW1 1914   1.459   2.045   1.351 -0.7648  0.1829  1.7861
  479SOL    HW2 1915   1.522   1.936   1.276 -0.8683  2.8553  2.2187
  479SOL     MW 1916   1.477   2.006   1.273 -0.3408  0.6578  0.4859
  480SOL     OW 1917   1.944   2.442   1.269 -0.4612  0.8600 -0.4486
  480SOL    HW1 1918   1.864   2.396   1.244  1.2413  0.7454  1.1265
  480SOL    HW2 1919   1.986   2.453   1.184  0.4967 -2.7036 -1.4978
  480SOL     MW 1920   1.939   2.438   1.255 -0.1102  0.3747 -0.3792
  481SOL     OW 1921   1.049   3.098   1.069  0.0735  0.1528  0.4573
  481SOL    HW1 1922   1.090   3.029   1.017  1.3048  1.2567 -0.3600
  481SOL    HW2 1923   1.109   3.168   1.065 -0.4565 -0.9889  1.5452
  481SOL     MW 1924   1.062   3.098   1.061  0.1660  0.1478  0.4930
  482SOL     OW 1925   1.091   3.044   0.261  0.1905  0.4624  0.0336
  482SOL    HW1 1926   1.027   2.991   0.307 -2.1474 -2.1008 -1.7287
  482SOL    HW2 1927   1.117   3.118   0.318 -0.1885  0.4190 -0.9011
  482SOL     MW 1928   1.086   3.047   0.274 -0.1679  0.1185 -0.3222
  483SOL     OW 1929   0.415   2.956   0.437 -0.8982  0.0279  0.0975
  483SOL    HW1 1930   0.343   2.972   0.375 -1.3282  0.7117  0.4986
  483SOL    HW2 1931   0.392   2.990   0.526 -1.1794  1.9861 -0.2019
  483SOL     MW 1932   0.403   2.962   0.440 -0.9920  0.3765  0.1109
  484SOL     OW 1933   1.829   1.907   1.479  0.2868 -0.4333  0.8378
  484SOL    HW1 1934   1.859   1.991   1.434  2.2693  0.9316 -0.3820
  484SOL    HW2 1935   1.827   1.938   1.571 -0.1438  2.7448 -0.5616
  484SOL     MW 1936   1.833   1.922   1.485  0.4916  0.1661  0.4922
  485SOL     OW 1937   0.474   2.330   0.198  0.3748  0.5927 -0.4097
  485SOL    HW1 1938   0.538   2.328   0.262 -1.5896  2.0729 -0.9249
  485SOL    HW2 1939   0.412   2.402   0.230 -0.3837  1.9012 -0.5456
  485SOL     MW 1940   0.475   2.339   0.210  0.0155  0.9607 -0.4956
  486SOL     OW 1941   0.185   2.367   1.486 -0.1076 -0.3264  0.2919
  486SOL    HW1 1942   0.206   2.455   1.455  1.0012 -1.4971  2.7211
  486SOL    HW2 1943   0.156   2.380   1.574 -2.5385  0.4681 -1.0185
  486SOL     MW 1944   0.184   2.381   1.494 -0.2821 -0.3761  0.4395
  487SOL     OW 1945   1.212   1.663   1.016 -0.3395 -0.0195  0.4358
  487SOL    HW1 1946   1.179   1.749   1.052 -0.4370  2.9908  1.1301
  487SOL    HW2 1947   1.308   1.674   1.005  0.8800  0.5285  0.1522
  487SOL     MW 1948   1.220   1.676   1.020 -0.1915  0.4500  0.4900
  488SOL     OW 1949   1.657   1.868   0.521 -0.5136 -0.2258 -0.7294
  488SOL    HW1 1950   1.717   1.882   0.446 -1.9014 -1.1358  1.9402
  488SOL    HW2 1951   1.580   1.926   0.498 -2.1296  0.9516 -2.1020
  488SOL     MW 1952   1.655   1.878   0.508 -0.9099 -0.1905 -0.5583
  489SOL     OW 1953   0.752   0.776   0.562  0.2539  0.3252 -0.0979
  489SOL    HW1 1954   0.777   0.686   0.528  0.5741 -1.2507  0.5176
  489SOL    HW2 1955   0.701   0.766   0.642  1.4747 -0.3385  3.3383
  489SOL     MW 1956   0.749   0.763   0.568  0.4572  0.0297  0.4367
  490SOL     OW 1957   1.455   2.067   0.477 -0.4863  0.2765  0.2536
  490SOL    HW1 1958   1.500   2.149   0.440  2.8848  1.9771 -2.4538
  490SOL    HW2 1959   1.365   2.075   0.443  0.3543 -0.6890  2.2837
  490SOL     MW 1960   1.449   2.079   0.467  0.0694  0.3735  0.1643
  491SOL     OW 1961   1.352   2.936   0.350 -0.3536  0.6952 -0.0219
  491SOL    HW1 1962   1.367   2.982   0.432  2.6825  1.2744  0.8095
  491SOL    HW2 1963   1.257   2.948   0.321  0.3078 -2.7935  0.2409
  491SOL     MW 1964   1.341   2.944   0.357  0.1343  0.3113  0.1225
  492SOL     OW 1965   1.503   2.107   0.736 -0.2594  0.7263 -0.2138
  492SOL    HW1 1966   1.474   2.094   0.646  2.8293  1.7692  1.0175
  492SOL    HW2 1967   1.423   2.081   0.787 -1.7028 -0.7088 -0.1205
  492SOL     MW 1968   1.488   2.102   0.731 -0.0423  0.6745 -0.0390
  493SOL     OW 1969   0.196   2.995   0.271 -0.1333 -0.0397  0.1699
  493SOL    HW1 1970   0.158   3.052   0.338  1.2264 -0.9034  1.5985
  493SOL    HW2 1971   0.207   3.047   0.190 -0.0451 -0.6977 -1.5968
  493SOL     MW 1972   0.192   3.009   0.269  0.0577 -0.2405  0.1253
  494SOL     OW 1973   0.391   2.391   1.771  0.1373 -0.7790  0.2401
  494SOL    HW1 1974   0.394   2.296   1.783 -2.4765  0.2505  0.5136
  494SOL    HW2 1975   0.452   2.418   1.701 -3.5595 -0.0585  1.3715
  494SOL     MW 1976   0.400   2.382   1.763 -0.6953 -0.5481  0.4255
  495SOL     OW 1977   2.919   1.638   2.637 -0.1248 -0.1113  0.3997
  495SOL    HW1 1978   2.909   1.726   2.604  0.3688 -0.2818 -1.0296
  495SOL    HW2 1979   2.890   1.638   2.729  0.2622 -0.9179 -2.2803
  495SOL     MW 1980   2.914   1.649   2.645 -0.0086 -0.2402 -0.1425
  496SOL     OW 1981   2.943   2.338   2.683 -0.4032  0.3199 -0.4789
  496SOL    HW1 1982   2.991   2.284   2.739  0.5663 -0.4230  0.8716
  496SOL    HW2 1983   3.006   2.413   2.671  0.4211  2.8659  2.2286
  496SOL     MW 1984   2.958   2.341   2.689 -0.1666  0.5578  0.0565
  497SOL     OW 1985   1.532   2.289   2.656  0.5095 -0.1134  0.3442
  497SOL    HW1 1986   1.486   2.238   2.588  1.0440 -1.2527 -0.2210
  497SOL    HW2 1987   1.540   2.214   2.716  0.8264 -0.9772  0.4178
  497SOL     MW 1988   1.527   2.272   2.655  0.6218 -0.3777  0.2793
  498SOL     OW 1989   1.492   2.740   2.328 -0.5197 -0.5016 -0.4455
  498SOL    HW1 1990   1.485   2.644   2.311  0.9674  2.7366 -2.3966
  498SOL    HW2 1991   1.560   2.752   2.394  0.0980  0.2263  0.4516
  498SOL     MW 1992   1.500   2.729   2.334 -0.2420  0.0217 -0.5846
  499SOL     OW 1993   0.933   0.116   0.082  0.3623  0.6080  0.0079
  499SOL    HW1 1994   0.874   0.151   0.144  1.0902  0.1091 -4.9078
  499SOL    HW2 1995   0.972   0.047   0.133  1.1301  2.0965 -2.1521
  499SOL     MW 1996   0.931   0.111   0.097  0.5596  0.7385 -0.9257
  500SOL     OW 1997   1.082   2.564   2.813  0.1063  0.0692  0.1593
  500SOL    HW1 1998   1.096   2.517   2.896 -1.4384  0.0561 -1.7180
  500SOL    HW2 1999   0.993   2.593   2.827 -1.1137  0.5501 -3.7115
  500SOL     MW 2000   1.072   2.562   2.826 -0.2585  0.1309 -0.5991
  501SOL     OW 2001   1.776   2.210   3.078 -0.0851 -1.0960 -0.8962
  501SOL    HW1 2002   1.730   2.274   3.018 -0.9483 -3.5306  1.8791
  501SOL    HW2 2003   1.871   2.238   3.076 -0.9828  1.0759 -1.8020
  501SOL     MW 2004   1.782   2.222   3.070 -0.3174 -1.1306 -0.6496
  502SOL     OW 2005   0.149   2.829   3.014  0.1400 -0.0902  0.3620
  502SOL    HW1 2006   0.086   2.754   2.996  1.6437 -0.8755 -1.3710
  502SOL    HW2 2007   0.190   2.844   2.927  1.2568 -0.4522 -0.3230
  502SOL     MW 2008   0.146   2.821   3.000  0.4858 -0.2416  0.0430
  503SOL     OW 2009   1.132   2.763   2.136 -0.0004  0.4350 -0.2174
  503SOL    HW1 2010   1.113   2.722   2.056  0.2832 -0.1479  2.3908
  503SOL    HW2 2011   1.112   2.854   2.124 -0.9241  0.4047  0.6308
  503SOL     MW 2012   1.127   2.769   2.124 -0.0848  0.3541  0.2387
  504SOL     OW 2013   0.097   2.705   2.126  0.2089 -0.3867  0.2794
  504SOL    HW1 2014   0.132   2.618   2.103  1.9129  0.6894 -0.5648
  504SOL    HW2 2015   0.008   2.693   2.148  2.4931  0.0494  0.3088
  504SOL     MW 2016   0.090   2.692   2.126  0.7351 -0.1872  0.1719
  505SOL     OW 2017   1.712   2.716   2.806 -0.1980 -0.6769 -0.4655
  505SOL    HW1 2018   1.720   2.736   2.713 -3.4385  1.8858 -1.8429
  505SOL    HW2 2019   1.636   2.764   2.846 -1.0004  0.1507  0.3568
  505SOL     MW 2020   1.703   2.725   2.799 -0.7314 -0.2296 -0.5388
  506SOL     OW 2021   1.567   3.088   2.845  0.1135 -0.0194 -0.2088
  506SOL    HW1 2022   1.590   3.064   2.936  1.0143 -0.5149 -1.0929
  506SOL    HW2 2023   1.642   3.058   2.791 -0.0009 -1.3020  2.0307
  506SOL     MW 2024   1.580   3.081   2.850  0.2172 -0.2540 -0.0300
  507SOL     OW 2025   0.906   2.760   2.867 -0.4864 -0.0903  0.2253
  507SOL    HW1 2026   0.945   2.834   2.833 -0.4665  1.5795 -3.0126
  507SOL    HW2 2027   0.813   2.790   2.862 -0.9735  2.8919 -2.3257
  507SOL     MW 2028   0.899   2.773   2.862 -0.5481  0.5235 -0.5385
  508SOL     OW 2029   1.153   2.098   2.515  0.0481 -0.1651  0.2621
  508SOL    HW1 2030   1.221   2.073   2.579 -1.6157 -0.9865  1.3191
  508SOL    HW2 2031   1.109   2.166   2.558 -0.5873  1.2067  1.4588
  508SOL     MW 2032   1.156   2.103   2.529 -0.2553 -0.0925  0.5595
  509SOL     OW 2033   0.693   2.576   2.733 -0.3757  0.1478  0.2623
  509SOL    HW1 2034   0.651   2.531   2.661  0.3626  3.7906  2.0700
  509SOL    HW2 2035   0.635   2.578   2.806  1.0960 -1.7887  2.3976
  509SOL     MW 2036   0.680   2.570   2.733 -0.0841  0.3729  0.7825
  510SOL     OW 2037   1.505   2.545   1.686  0.7152  0.4243  0.0201
  510SOL    HW1 2038   1.522   2.629   1.657  0.2524  0.2712  2.3747
  510SOL    HW2 2039   1.437   2.569   1.752 -0.0902  1.8676  1.4612
  510SOL     MW 2040   1.498   2.559   1.691  0.5479  0.5945  0.5209
  511SOL     OW 2041   0.405   2.654   2.441  0.3489 -0.3170  0.6633
  511SOL    HW1 2042   0.476   2.600   2.431 -3.3855 -0.0894 -0.6619
  511SOL    HW2 2043   0.414   2.698   2.355 -0.8473 -0.4083 -3.8723
  511SOL     MW 2044   0.416   2.653   2.428 -0.3017 -0.2990 -0.1100
  512SOL     OW 2045   1.044   2.028   2.819  0.4817 -0.3392 -0.1623
  512SOL    HW1 2046   0.954   2.055   2.849  0.5809 -1.9635 -0.5056
  512SOL    HW2 2047   1.059   1.941   2.861  2.3557 -0.6589 -0.3679
  512SOL     MW 2048   1.034   2.020   2.829  0.7420 -0.5957 -0.2347
  513SOL     OW 2049   1.524   2.430   2.287 -0.0332 -0.2599 -0.3035
  513SOL    HW1 2050   1.602   2.408   2.240 -1.8669 -0.6957 -0.1874
  513SOL    HW2 2051   1.572   2.438   2.370  0.1801 -0.9701 -0.8236
  513SOL     MW 2052   1.540   2.428   2.292 -0.2470 -0.4111 -0.3568
  514SOL     OW 2053   0.288   2.492   2.619 -0.1491  0.2410 -0.4318
  514SOL    HW1 2054   0.317   2.557   2.549 -3.1355  1.3029 -3.4590
  514SOL    HW2 2055   0.351   2.503   2.691  2.3326  0.1667 -0.8493
  514SOL     MW 2056   0.300   2.502   2.619 -0.2157  0.3713 -0.8863
  515SOL     OW 2057   1.154   2.070   1.897  0.2747  0.6887 -0.7933
  515SOL    HW1 2058   1.137   2.161   1.872 -0.1731  0.3999  0.6583
  515SOL    HW2 2059   1.239   2.060   1.941  1.5211  0.7984 -2.3849
  515SOL     MW 2060   1.163   2.081   1.899  0.3801  0.6651 -0.8117
  516SOL     OW 2061   1.456   2.487   3.081  0.3465 -0.5177  0.1880
  516SOL    HW1 2062   1.496   2.485   2.999 -0.9577 -1.7738  1.2928
  516SOL    HW2 2063   1.361   2.483   3.050 -0.2899  1.9008 -1.0021
  516SOL     MW 2064   1.449   2.486   3.066  0.0904 -0.3643  0.1768
  517SOL     OW 2065   0.592   2.474   2.139  0.5381  0.4106  0.3690
  517SOL    HW1 2066   0.580   2.539   2.067 -0.9626 -0.0437 -0.1223
  517SOL    HW2 2067   0.517   2.405   2.116 -0.2368 -1.7396  0.2760
  517SOL     MW 2068   0.581   2.474   2.127  0.2378  0.0670  0.2919
  518SOL     OW 2069   1.832   0.227   3.058  0.4930 -0.2083 -0.4216
  518SOL    HW1 2070   1.786   0.268   2.983  0.0525  1.2263 -1.7553
  518SOL    HW2 2071   1.774   0.206   3.129 -0.2575 -3.5501 -1.4844
  518SOL     MW 2072   1.818   0.229   3.057  0.3358 -0.4599 -0.7378
  519SOL     OW 2073   0.708   2.430   1.728  0.2602  0.5410 -0.5148
  519SOL    HW1 2074   0.739   2.336   1.740 -0.8413  1.3394 -1.0395
  519SOL    HW2 2075   0.660   2.412   1.649  1.2752  0.4525  1.9057
  519SOL     MW 2076   0.706   2.415   1.719  0.2488  0.6346 -0.2647
  520SOL     OW 2077   1.275   2.142   2.942  0.3782 -0.8600 -0.5560
  520SOL    HW1 2078   1.190   2.092   2.911 -1.3073  2.3406 -0.7030
  520SOL    HW2 2079   1.314   2.091   3.013 -3.7037 -1.9973 -2.2250
  520SOL     MW 2080   1.269   2.129   2.947 -0.3828 -0.5878 -0.7956
  521SOL     OW 2081   1.703   2.063   2.223 -0.0937 -0.0161  0.9066
  521SOL    HW1 2082   1.740   2.100   2.141 -2.0280  1.7848  0.0983
  521SOL    HW2 2083   1.708   1.966   2.215 -0.0253  0.7458  2.2156
  521SOL     MW 2084   1.709   2.055   2.211 -0.3399  0.3220  0.9727
  522SOL     OW 2085   2.837   2.567   2.206 -0.2004 -0.3711 -0.8017
  522SOL    HW1 2086   2.907   2.512   2.235 -1.1366 -0.6109 -1.2136
  522SOL    HW2 2087   2.777   2.577   2.277 -0.1029 -0.2911 -3.2969
  522SOL     MW 2088   2.838   2.561   2.219 -0.3111 -0.3922 -1.1852
  523SOL     OW 2089   0.861   1.493   2.155 -0.5247  0.3841  0.1103
  523SOL    HW1 2090   0.854   1.560   2.086  0.9848  0.1832  0.7974
  523SOL    HW2 2091   0.931   1.439   2.123  0.2275  0.0218 -1.2897
  523SOL     MW 2092   0.869   1.495   2.141 -0.2262  0.3098  0.0162
  524SOL     OW 2093   0.714   2.386   2.920  0.5697  0.2896  0.2162
  524SOL    HW1 2094   0.721   2.439   2.839  2.4935  1.5013 -1.4027
  524SOL    HW2 2095   0.739   2.298   2.899 -0.2965 -0.2103 -2.2636
  524SOL     MW 2096   0.718   2.381   2.907  0.7092  0.3835 -0.3246
  525SOL     OW 2097   0.396   2.289   2.074  0.5171 -0.4766 -0.3659
  525SOL    HW1 2098   0.338   2.230   2.130  1.2330 -1.3151  1.0762
  525SOL    HW2 2099   0.425   2.238   2.002  1.8244  1.4243  0.5681
  525SOL     MW 2100   0.392   2.275   2.072  0.7841 -0.3364 -0.0524
  526SOL     OW 2101   0.654   2.099   2.033  0.0419  0.1243  0.2787
  526SOL    HW1 2102   0.708   2.131   1.960  0.1183  1.8870 -1.8803
  526SOL    HW2 2103   0.655   2.168   2.097 -4.0630 -2.5733  0.3198
  526SOL     MW 2104   0.662   2.112   2.032 -0.4896  0.0009 -0.0008
  527SOL     OW 2105   1.375   2.014   2.016 -0.7313  0.0850 -0.3683
  527SOL    HW1 2106   1.373   2.004   2.111 -0.9251 -1.1033  1.4558
  527SOL    HW2 2107   1.430   1.942   1.984 -3.0077 -0.2711  0.6767
  527SOL     MW 2108   1.382   2.003   2.024 -1.0572 -0.1187  0.0103
  528SOL     OW 2109   0.624   2.897   2.925  0.0152 -0.5718  0.7032
  528SOL    HW1 2110   0.638   2.982   2.953 -1.5141 -3.2881 -0.6988
  528SOL    HW2 2111   0.575   2.914   2.843 -0.4318 -1.0050  0.0534
  528SOL     MW 2112   0.619   2.910   2.918 -0.2456 -0.9873  0.4325
  529SOL     OW 2113   1.017   2.331   1.864 -0.4438  0.3360 -0.1240
  529SOL    HW1 2114   1.042   2.320   1.962 -0.5414 -1.4979  1.7325
  529SOL    HW2 2115   1.034   2.417   1.838 -2.1058 -1.7523  3.8561
  529SOL     MW 2116   1.022   2.341   1.873 -0.6760 -0.1815  0.6461
  530SOL     OW 2117   1.206   2.391   3.013  0.2025  0.9183  0.5513
  530SOL    HW1 2118   1.167   2.372   3.102 -0.9407  0.0129  2.6635
  530SOL    HW2 2119   1.236   2.306   2.975 -2.2699 -0.3799  1.1225
  530SOL     MW 2120   1.205   2.377   3.020 -0.2745  0.6275  0.9053
  531SOL     OW 2121   0.936   1.891   2.576  0.5697  0.2662 -0.0250
  531SOL    HW1 2122   0.996   1.961   2.613 -2.3959 -1.3406 -0.3751
  531SOL    HW2 2123   0.904   1.838   2.655  0.0580 -1.3003 -0.2304
  531SOL     MW 2124   0.940   1.894   2.591  0.1109 -0.1525 -0.0983
  532SOL     OW 2125   1.744   0.303   2.796  0.0036  0.5005 -0.5291
  532SOL    HW1 2126   1.762   0.214   2.764 -2.9470 -1.4459  2.1861
  532SOL    HW2 2127   1.824   0.347   2.779 -0.0399  0.1808 -0.6737
  532SOL     MW 2128   1.757   0.297   2.790 -0.3914  0.2015 -0.1900
  533SOL     OW 2129   1.882   2.629   3.072 -0.1792 -0.5058  0.2722
  533SOL    HW1 2130   1.856   2.577   3.155 -0.9053  0.2738 -1.9654
  533SOL    HW2 2131   1.815   2.607   3.004  0.1312  0.2248 -2.5156
  533SOL     MW 2132   1.870   2.619   3.074 -0.2340 -0.3065 -0.3909
  534SOL     OW 2133   1.769   2.431   2.517  0.3676  0.4343 -0.5003
  534SOL    HW1 2134   1.720   2.358   2.555  0.6486 -0.5300 -0.1676
  534SOL    HW2 2135   1.842   2.449   2.582  1.0517 -1.7472 -1.6416
  534SOL     MW 2136   1.772   2.424   2.531  0.4950  0.0193 -0.6070
  535SOL     OW 2137   1.934   2.356   1.894 -0.1196  0.3438  0.1895
  535SOL    HW1 2138   1.862   2.360   1.829 -0.4846 -0.5676 -2.7429
  535SOL    HW2 2139   2.003   2.412   1.853  0.2457  1.4235 -0.1326
  535SOL     MW 2140   1.934   2.364   1.880 -0.1196  0.3660 -0.2399
  536SOL     OW 2141   0.455   1.832   2.081  0.5079  0.1971  0.0047
  536SOL    HW1 2142   0.454   1.774   2.004 -2.6626 -1.1142 -0.5386
  536SOL    HW2 2143   0.495   1.918   2.058 -1.8958  2.2624 -2.5799
  536SOL     MW 2144   0.460   1.835   2.068 -0.2275  0.2966 -0.4080
  537SOL     OW 2145   1.100   0.211   2.854 -0.1336  0.1357 -0.0182
  537SOL    HW1 2146   1.015   0.234   2.883  0.0463 -1.1816  0.2450
  537SOL    HW2 2147   1.119   0.255   2.771  0.4859  0.5250  1.0091
  537SOL     MW 2148   1.091   0.220   2.847 -0.0281  0.0132  0.1521
  538SOL     OW 2149   1.375   0.043   3.074  0.3786  0.0769 -0.3557
  538SOL    HW1 2150   1.342   0.132   3.064  0.9327 -2.1718  1.6521
  538SOL    HW2 2151   1.351   0.005   2.989 -1.1598  0.3365 -1.5053
  538SOL     MW 2152   1.368   0.050   3.062  0.2487 -0.1855 -0.2425
  539SOL     OW 2153   0.772   2.768   2.555  0.1672 -0.0772  0.3248
  539SOL    HW1 2154   0.845   2.824   2.577 -0.9244 -1.0563 -0.1244
  539SOL    HW2 2155   0.754   2.711   2.632  2.2421  1.4335  0.3275
  539SOL     MW 2156   0.779   2.768   2.568  0.2969 -0.0070  0.2659
  540SOL     OW 2157   0.390   2.512   2.907 -0.3058  0.3788  0.3376
  540SOL    HW1 2158   0.375   2.564   2.985 -1.1061  0.2289  0.6265
  540SOL    HW2 2159   0.355   2.431   2.933  1.0729  1.3958 -1.3706
  540SOL     MW 2160   0.383   2.508   2.921 -0.2295  0.4932  0.1503
  541SOL     OW 2161   0.199   2.942   2.215  0.0871 -0.0292  0.0695
  541SOL    HW1 2162   0.164   2.860   2.181  0.7891  3.2961 -0.7238
  541SOL    HW2 2163   0.242   2.924   2.300 -0.7447  1.7302 -2.8035
  541SOL     MW 2164   0.200   2.929   2.222  0.0699  0.6417 -0.4143
  542SOL     OW 2165   1.072   2.320   2.672  0.0981  0.1575  0.3876
  542SOL    HW1 2166   1.068   2.253   2.741  2.2151 -0.2411  0.4124
  542SOL    HW2 2167   1.084   2.403   2.720  0.9822 -1.8920 -0.4664
  542SOL     MW 2168   1.073   2.322   2.688  0.4941 -0.1655  0.2782
  543SOL     OW 2169   1.664   2.454   2.851  0.2248  0.1976 -0.5436
  543SOL    HW1 2170   1.616   2.422   2.775  2.4829  2.9346 -1.4840
  543SOL    HW2 2171   1.695   2.547   2.838  2.8283  0.6184 -1.9551
  543SOL     MW 2172   1.662   2.462   2.839  0.8662  0.6143 -0.8539
  544SOL     OW 2173   0.703   0.228   2.722  0.2096 -0.4415 -0.0579
  544SOL    HW1 2174   0.610   0.254   2.730  0.4165 -1.2892  0.1020
  544SOL    HW2 2175   0.724   0.175   2.645 -1.3951 -1.0972 -1.1599
  544SOL     MW 2176   0.693   0.224   2.713  0.0252 -0.6399 -0.1822
  545SOL     OW 2177   1.509   2.179   2.374 -0.5583  0.1807  0.2121
  545SOL    HW1 2178   1.493   2.271   2.348 -1.1688  2.5185  3.0301
  545SOL    HW2 2179   1.581   2.133   2.313  1.1207 -0.4281  1.6405
  545SOL     MW 2180   1.516   2.185   2.363 -0.4173  0.4088  0.7723
  546SOL     OW 2181   2.919   2.017   0.103 -0.6029  0.0980 -0.5786
  546SOL    HW1 2182   2.907   2.084   0.036 -1.3217 -1.6587  0.4375
  546SOL    HW2 2183   2.999   1.973   0.067 -0.2093  0.1338 -0.5341
  546SOL     MW 2184   2.928   2.020   0.090 -0.6458 -0.1291 -0.4387
  547SOL     OW 2185   0.169   0.098   0.061 -0.3608  0.1707  0.4348
  547SOL    HW1 2186   0.213   0.118  -0.017 -0.6890  2.3177  4.4797
  547SOL    HW2 2187   0.094   0.040   0.037  0.7171  0.6319 -0.8778
  547SOL     MW 2188   0.165   0.093   0.047 -0.2619  0.5148  0.7953
  548SOL     OW 2189   0.310   2.525   0.299 -0.2290 -0.5975  0.0935
  548SOL    HW1 2190   0.323   2.572   0.206  2.0871  0.1522  0.2868
  548SOL    HW2 2191   0.245   2.459   0.273  1.0403 -2.0604  2.3476
  548SOL     MW 2192   0.303   2.522   0.283  0.2441 -0.6916  0.4164
  549SOL     OW 2193   0.802   1.883   2.170  0.3927 -0.4103  0.7541
  549SOL    HW1 2194   0.763   1.957   2.116 -0.0121  2.7138  1.3287
  549SOL    HW2 2195   0.737   1.872   2.242  1.1785  0.9460  3.4991
  549SOL     MW 2196   0.788   1.891   2.172  0.4430  0.1809  1.1921
  550SOL     OW 2197   1.805   1.729   2.528  0.2957 -0.7635 -0.0061
  550SOL    HW1 2198   1.793   1.742   2.434 -1.4227  1.0800  0.1927
  550SOL    HW2 2199   1.791   1.816   2.569 -1.1068  0.3364 -0.1926
  550SOL     MW 2200   1.801   1.742   2.521 -0.1161 -0.3751 -0.0045
  551SOL     OW 2201   0.920   2.314   0.214  0.0039  0.3406 -0.5386
  551SOL    HW1 2202   1.018   2.319   0.212 -1.2271  2.7744 -1.0770
  551SOL    HW2 2203   0.886   2.264   0.141  0.6790  1.7703  1.6594
  551SOL     MW 2204   0.929   2.308   0.204 -0.0695  0.8504 -0.3196
  552SOL     OW 2205   1.765   1.759   2.262  0.1713  0.3211 -0.2076
  552SOL    HW1 2206   1.677   1.713   2.255 -2.7211 -0.4895 -1.7620
  552SOL    HW2 2207   1.814   1.754   2.184  0.6576  2.0062  1.9143
  552SOL     MW 2208   1.760   1.752   2.251 -0.1461  0.4365 -0.1327
  553SOL     OW 2209   1.277   2.277   1.560 -0.0280 -0.0545 -0.7332
  553SOL    HW1 2210   1.316   2.194   1.537  0.4153 -0.3662  0.1595
  553SOL    HW2 2211   1.319   2.347   1.519 -1.3242  0.6235  1.2122
  553SOL     MW 2212   1.288   2.275   1.552 -0.1405 -0.0062 -0.3588
  554SOL     OW 2213   0.534   2.954   2.643 -0.4607  0.1035 -0.0658
  554SOL    HW1 2214   0.521   3.031   2.587  2.7008 -2.3042 -0.5346
  554SOL    HW2 2215   0.599   2.896   2.602  2.8732  1.5632  0.2650
  554SOL     MW 2216   0.541   2.956   2.630  0.3963 -0.0216 -0.0840
  555SOL     OW 2217   0.626   2.438   2.502 -0.1204 -0.0259 -0.0092
  555SOL    HW1 2218   0.573   2.361   2.524  1.1046 -0.4123  1.2614
  555SOL    HW2 2219   0.721   2.407   2.498  3.5095 -1.7004  1.2932
  555SOL     MW 2220   0.632   2.424   2.505  0.5201 -0.2978  0.3303
  556SOL     OW 2221   0.987   1.882   0.094  0.4504  0.4717  0.2396
  556SOL    HW1 2222   1.015   1.862   0.002  1.1327  1.4482 -1.1087
  556SOL    HW2 2223   1.069   1.866   0.136 -1.0930 -0.0879 -3.4076
  556SOL     MW 2224   1.002   1.877   0.087  0.3368  0.5267 -0.4195
  557SOL     OW 2225   0.971   2.636   0.494 -0.5870 -0.8026  0.5098
  557SOL    HW1 2226   1.026   2.578   0.433 -3.7366 -1.2063  1.5341
  557SOL    HW2 2227   0.913   2.684   0.436  2.5592 -1.2553  1.3573
  557SOL     MW 2228   0.970   2.635   0.478 -0.5874 -0.9156  0.7567
  558SOL     OW 2229   0.209   2.310   3.000 -0.0421 -0.3035 -0.3755
  558SOL    HW1 2230   0.129   2.312   2.946 -0.7068  0.4436  0.1048
  558SOL    HW2 2231   0.181   2.332   3.087 -3.0213  1.5808 -0.3253
  558SOL     MW 2232   0.195   2.313   3.005 -0.5229  0.0437 -0.3055
  559SOL     OW 2233   1.078   2.331   2.128  0.3845  0.2810 -0.1264
  559SOL    HW1 2234   1.160   2.378   2.137 -0.6580 -0.3507  3.3697
  559SOL    HW2 2235   1.088   2.239   2.150 -1.0906  0.2010 -0.3996
  559SOL     MW 2236   1.090   2.325   2.132  0.0524  0.1871  0.2988
  560SOL     OW 2237   1.955   2.893   0.051 -0.2992  0.3889  0.7506
  560SOL    HW1 2238   2.027   2.920  -0.006 -0.6347  0.6613  1.7327
  560SOL    HW2 2239   1.929   2.807   0.015 -0.2017  0.1363 -1.2782
  560SOL     MW 2240   1.961   2.885   0.039 -0.3306  0.3915  0.6125
  561SOL     OW 2241   0.326   2.132   0.074 -0.2030  0.2110  0.4394
  561SOL    HW1 2242   0.284   2.183   0.002 -0.6447 -1.4658 -1.2096
  561SOL    HW2 2243   0.389   2.190   0.125  2.1480 -1.6163  0.6922
  561SOL     MW 2244   0.329   2.147   0.071  0.0489 -0.2513  0.2552
  562SOL     OW 2245   0.697   2.231   2.301 -0.2712 -0.0178 -0.4605
  562SOL    HW1 2246   0.676   2.321   2.309  0.0427 -1.5167  1.6248
  562SOL    HW2 2247   0.795   2.235   2.309  2.5632 -1.8281  1.8737
  562SOL     MW 2248   0.707   2.243   2.303  0.1442 -0.4544  0.1226
  563SOL     OW 2249   1.245   0.406   0.575  0.0464  0.4756 -0.1969
  563SOL    HW1 2250   1.194   0.349   0.518  1.0403  1.9455 -2.1342
  563SOL    HW2 2251   1.230   0.381   0.664  0.0317  0.9033 -1.9997
  563SOL     MW 2252   1.236   0.395   0.579  0.1756  0.7260 -0.6904
  564SOL     OW 2253   1.157   2.616   2.368 -0.1079  0.4363  0.1357
  564SOL    HW1 2254   1.150   2.667   2.288 -0.0599 -1.3378  3.5248
  564SOL    HW2 2255   1.171   2.683   2.428  0.4079  1.4279 -0.8358
  564SOL     MW 2256   1.158   2.632   2.365 -0.0335  0.3330  0.4547
  565SOL     OW 2257   2.741   2.744   2.621 -0.2979 -0.1501 -0.5181
  565SOL    HW1 2258   2.773   2.818   2.573 -1.4018 -0.8486 -0.8021
  565SOL    HW2 2259   2.707   2.689   2.552 -2.5401  1.7896  1.4482
  565SOL     MW 2260   2.741   2.747   2.606 -0.7394  0.0136 -0.2962
  566SOL     OW 2261   2.126   1.850   2.433 -0.4169  0.2041  0.1366
  566SOL    HW1 2262   2.141   1.815   2.346  1.0154  2.0428 -0.8355
  566SOL    HW2 2263   2.185   1.929   2.437  1.2827  1.4116 -0.6401
  566SOL     MW 2264   2.135   1.856   2.422 -0.0036  0.6061 -0.0941
  567SOL     OW 2265   1.131   2.981   3.053  0.1669  0.0725 -0.6556
  567SOL    HW1 2266   1.189   3.012   3.118 -0.5662 -0.0674 -0.0540
  567SOL    HW2 2267   1.165   2.896   3.027  3.6120  0.4378 -0.9822
  567SOL     MW 2268   1.143   2.974   3.058  0.5247  0.1022 -0.6193
  568SOL     OW 2269   1.618   2.075   2.892  0.0923 -0.0955  0.5568
  568SOL    HW1 2270   1.662   2.115   2.963  1.9653  1.9959 -0.5250
  568SOL    HW2 2271   1.690   2.036   2.838  0.7037 -1.6479 -2.4893
  568SOL     MW 2272   1.634   2.075   2.894  0.4201 -0.0243  0.0122
  569SOL     OW 2273   0.170   2.269   2.511  0.3541  1.0124  0.1434
  569SOL    HW1 2274   0.102   2.306   2.453  0.9963 -0.8777 -1.1330
  569SOL    HW2 2275   0.208   2.345   2.561 -0.9250  1.6680  1.2991
  569SOL     MW 2276   0.166   2.284   2.510  0.2700  0.8495  0.1275
  570SOL     OW 2277   1.500   0.341   0.539  0.3714  0.3961  0.1796
  570SOL    HW1 2278   1.405   0.363   0.560 -1.4231  2.8546  1.6994
  570SOL    HW2 2279   1.555   0.354   0.618 -1.6980  0.1873  1.2811
  570SOL     MW 2280   1.495   0.346   0.552 -0.1384  0.6930  0.5254
  571SOL     OW 2281   1.338   2.384   2.089 -0.4463 -0.3494  0.5049
  571SOL    HW1 2282   1.380   2.397   2.176  1.2933  0.4730  0.4481
  571SOL    HW2 2283   1.404   2.325   2.049 -0.3608 -4.2816  0.5190
  571SOL     MW 2284   1.352   2.378   2.095 -0.2055 -0.7597  0.4993
  572SOL     OW 2285   1.037   2.589   0.089 -0.9730 -0.8842  0.1109
  572SOL    HW1 2286   1.010   2.683   0.076  0.8052  0.7792 -0.4457
  572SOL    HW2 2287   0.957   2.539   0.106  1.5030  1.3141 -1.6354
  572SOL     MW 2288   1.023   2.595   0.089 -0.4117 -0.3747 -0.1930
  573SOL     OW 2289   1.208   2.308   0.201 -0.0252  0.2791 -0.2901
  573SOL    HW1 2290   1.294   2.268   0.186  0.1802 -1.1706  1.9378
  573SOL    HW2 2291   1.215   2.402   0.225 -0.4343 -1.8173 -3.2816
  573SOL     MW 2292   1.220   2.315   0.202 -0.0521 -0.1888 -0.3909
  574SOL     OW 2293   1.169   2.552   0.329  0.4181  0.5423 -0.5124
  574SOL    HW1 2294   1.249   2.610   0.354 -0.2606 -0.7217  0.7793
  574SOL    HW2 2295   1.135   2.583   0.245 -0.3468 -0.3106  0.1658
  574SOL     MW 2296   1.175   2.564   0.321  0.2276  0.2630 -0.2525
  575SOL     OW 2297   3.040   2.224   1.754 -0.0798 -0.0232 -0.5954
  575SOL    HW1 2298   3.080   2.148   1.701  2.1797 -2.4966  2.5438
  575SOL    HW2 2299   3.106   2.289   1.775 -1.0157 -2.5746 -1.4370
  575SOL     MW 2300   3.054   2.222   1.750  0.0949 -0.6862 -0.2923
  576SOL     OW 2301   2.825   1.824   2.020  0.2271 -0.2897  0.0310
  576SOL    HW1 2302   2.833   1.905   1.969  0.2121 -0.0955 -1.9629
  576SOL    HW2 2303   2.733   1.804   2.035  2.4984  2.3812 -1.4110
  576SOL     MW 2304   2.814   1.832   2.015  0.5248  0.0883 -0.4223
  577SOL     OW 2305   2.072   0.231   0.106  0.4269  0.3875  0.1576
  577SOL    HW1 2306   1.984   0.241   0.065  1.1267  0.8146  0.8558
  577SOL    HW2 2307   2.046   0.216   0.200  1.9801 -1.7232  1.8479
  577SOL     MW 2308   2.057   0.231   0.113  0.7242  0.1654  0.4727
  578SOL     OW 2309   1.928   2.049   2.406  0.1377 -0.6787  0.1427
  578SOL    HW1 2310   1.858   2.028   2.342  0.8269  2.1624  2.3574
  578SOL    HW2 2311   1.978   1.968   2.408 -3.4394 -0.5797  0.3376
  578SOL     MW 2312   1.925   2.035   2.398 -0.2433 -0.2908  0.4606
  579SOL     OW 2313   0.941   2.431   2.455 -0.3312  0.0255  0.0133
  579SOL    HW1 2314   0.991   2.399   2.535  1.9386 -0.6450  2.2431
  579SOL    HW2 2315   0.988   2.499   2.418 -3.1675 -3.0445 -0.1896
  579SOL     MW 2316   0.954   2.436   2.460 -0.4059 -0.4680  0.2807
  580SOL     OW 2317   0.918   2.833   0.031  0.8271  0.3743  0.1595
  580SOL    HW1 2318   0.988   2.896   0.031  0.6555  0.3590 -2.6091
  580SOL    HW2 2319   0.915   2.809  -0.062 -1.6997  1.5734 -0.9589
  580SOL     MW 2320   0.927   2.838   0.019  0.4711  0.5305 -0.3534
  581SOL     OW 2321   1.148   2.498   1.679  0.0997 -0.0668  0.0412
  581SOL    HW1 2322   1.201   2.550   1.733 -1.8997 -2.3958 -0.1138
  581SOL    HW2 2323   1.199   2.417   1.656 -0.7888 -4.3248  0.4637
  581SOL     MW 2324   1.162   2.494   1.683 -0.2813 -0.9359  0.0765
  582SOL     OW 2325   0.031   2.806   2.711 -0.4067  0.7551  0.2911
  582SOL    HW1 2326  -0.034   2.881   2.704  1.6142  2.0946 -0.0339
  582SOL    HW2 2327   0.114   2.853   2.716 -0.2106 -0.3808  3.7635
  582SOL     MW 2328   0.034   2.822   2.711 -0.1142  0.7820  0.7064
  583SOL     OW 2329   1.993   2.437   2.680  0.3175 -0.0713  0.6332
  583SOL    HW1 2330   2.077   2.447   2.634 -1.1160 -1.8222  0.4016
  583SOL    HW2 2331   1.988   2.346   2.689 -1.7740  3.1935 -1.8678
  583SOL     MW 2332   2.003   2.426   2.675 -0.1475  0.1284  0.2727
  584SOL     OW 2333   0.061   1.900   2.216 -0.7146 -0.1081  0.1167
  584SOL    HW1 2334   0.127   1.867   2.275  0.7055  0.7216  2.0281
  584SOL    HW2 2335   0.079   1.994   2.225  1.4350 -1.1897  0.0309
  584SOL     MW 2336   0.072   1.908   2.225 -0.2436 -0.1413  0.3576
  585SOL     OW 2337   1.563   2.580   0.206  0.2699  0.3467 -1.0084
  585SOL    HW1 2338   1.528   2.564   0.113  0.3530 -2.2543 -4.1369
  585SOL    HW2 2339   1.488   2.601   0.264 -2.0988  0.9588  0.5707
  585SOL     MW 2340   1.549   2.581   0.201 -0.0317  0.0843 -1.2129
  586SOL     OW 2341   1.420   2.819   2.591 -0.1397 -0.3248 -0.0187
  586SOL    HW1 2342   1.429   2.796   2.501  2.8772 -0.6454 -0.7608
  586SOL    HW2 2343   1.387   2.906   2.587 -2.1240  1.4210 -0.6909
  586SOL     MW 2344   1.417   2.827   2.578 -0.0035 -0.1368 -0.2053
  587SOL     OW 2345   1.377   1.517   2.156  0.0517  0.1469 -0.1000
  587SOL    HW1 2346   1.307   1.469   2.204 -1.1295 -0.1043  0.0379
  587SOL    HW2 2347   1.408   1.463   2.085  1.2348 -0.8923  0.0203
  587SOL     MW 2348   1.372   1.503   2.153  0.0519 -0.0234 -0.0659
  588SOL     OW 2349   1.357   2.040   2.691  0.1276 -0.2897 -0.4016
  588SOL    HW1 2350   1.365   1.946   2.689 -0.0168  1.1269  2.7137
  588SOL    HW2 2351   1.333   2.067   2.780  0.2927 -1.0240  0.6769
  588SOL     MW 2352   1.355   2.031   2.702  0.1303 -0.1997  0.1517
  589SOL     OW 2353   1.393   2.015   0.052 -0.0708  0.1130 -0.0195
  589SOL    HW1 2354   1.412   2.095   0.098  0.0683 -0.3182  0.9480
  589SOL    HW2 2355   1.337   1.961   0.110  1.4908  0.8157 -1.2705
  589SOL     MW 2356   1.388   2.018   0.066  0.1536  0.1488 -0.0569
  590SOL     OW 2357   0.493   2.775   2.202  0.0028  0.0074 -0.5924
  590SOL    HW1 2358   0.491   2.762   2.107 -2.1493 -0.4042 -1.7635
  590SOL    HW2 2359   0.582   2.759   2.236 -1.8212 -0.8142  2.2358
  590SOL     MW 2360   0.505   2.771   2.194 -0.5218 -0.1553 -0.3738
  591SOL     OW 2361   2.276   0.679   0.025 -0.5101 -0.2670  0.2693
  591SOL    HW1 2362   2.234   0.756  -0.007  3.4537 -1.6116 -1.7563
  591SOL    HW2 2363   2.342   0.669  -0.046 -1.1216  2.2581 -1.1645
  591SOL     MW 2364   2.279   0.688   0.011 -0.0678 -0.1113 -0.1871
  592SOL     OW 2365   1.746   2.948   0.748  0.0831  0.1468 -0.4648
  592SOL    HW1 2366   1.760   3.005   0.673 -0.7919  0.3761 -1.9058
  592SOL    HW2 2367   1.812   2.962   0.812 -1.4222  0.1520  1.6506
  592SOL     MW 2368   1.757   2.957   0.747 -0.2310  0.1778 -0.3758
  593SOL     OW 2369   1.954   0.671   0.853  0.0249  0.5232 -0.3746
  593SOL    HW1 2370   1.881   0.636   0.804  0.3985  1.1747 -2.9692
  593SOL    HW2 2371   2.018   0.602   0.843  0.6480  0.2869  2.6227
  593SOL     MW 2372   1.953   0.657   0.846  0.1564  0.5780 -0.3215
  594SOL     OW 2373   2.786   1.114   1.405 -0.2708 -0.3498  0.5066
  594SOL    HW1 2374   2.874   1.133   1.382  2.0670 -0.2830  0.2727
  594SOL    HW2 2375   2.748   1.079   1.323  0.0214 -2.5876 -0.0641
  594SOL     MW 2376   2.793   1.112   1.391  0.0762 -0.6362  0.4005
  595SOL     OW 2377   0.475   0.943   0.830 -0.3618 -0.4705  0.1716
  595SOL    HW1 2378   0.486   0.999   0.750  0.2363 -4.7584 -2.5704
  595SOL    HW2 2379   0.483   1.008   0.907  2.0015  1.5901 -1.0367
  595SOL     MW 2380   0.478   0.959   0.829  0.0289 -0.7644 -0.3496
  596SOL     OW 2381   2.462   1.334   0.535  0.7234 -0.3157 -0.6516
  596SOL    HW1 2382   2.534   1.388   0.504 -1.7048  1.5269 -1.2967
  596SOL    HW2 2383   2.498   1.291   0.609 -1.2757  1.2566 -2.3409
  596SOL     MW 2384   2.476   1.335   0.540  0.1393  0.1349 -0.9596
  597SOL     OW 2385   2.160   0.671   1.609 -0.0197 -0.0438 -0.0086
  597SOL    HW1 2386   2.206   0.616   1.670 -2.1613 -2.2479 -1.0037
  597SOL    HW2 2387   2.100   0.606   1.556 -1.1709 -2.6648 -0.6748
  597SOL     MW 2388   2.158   0.655   1.611 -0.4542 -0.6804 -0.2278
  598SOL     OW 2389   2.568   1.041   2.846  0.2539  0.3718  0.2577
  598SOL    HW1 2390   2.592   0.974   2.786 -1.0624  0.2115  1.7740
  598SOL    HW2 2391   2.654   1.076   2.872  1.7091 -0.5326  0.7855
  598SOL     MW 2392   2.582   1.037   2.841  0.2722  0.2313  0.5274
  599SOL     OW 2393   2.983   0.405   2.119  0.0395  0.4148  1.0259
  599SOL    HW1 2394   3.024   0.431   2.198 -0.0172  0.6406 -0.8840
  599SOL    HW2 2395   2.999   0.476   2.055  1.7163  1.0191  2.0666
  599SOL     MW 2396   2.990   0.418   2.121  0.2532  0.5244  0.9112
  600SOL     OW 2397   1.826   1.630   0.897  0.5453 -0.1577  0.2398
  600SOL    HW1 2398   1.894   1.673   0.950  2.2655 -0.7389 -1.5200
  600SOL    HW2 2399   1.773   1.703   0.869 -1.4578 -0.8258  2.6112
  600SOL     MW 2400   1.828   1.645   0.900  0.5080 -0.3225  0.3205
  601SOL     OW 2401   2.534   0.729   0.809 -0.0817 -0.2407 -0.1661
  601SOL    HW1 2402   2.528   0.739   0.908 -1.4398 -3.3950  0.3941
  601SOL    HW2 2403   2.460   0.665   0.783 -1.9426 -1.6447 -0.9123
  601SOL     MW 2404   2.524   0.722   0.819 -0.5064 -0.8421 -0.1907
  602SOL     OW 2405   2.311   1.935   0.766  0.3890  0.3292  0.5417
  602SOL    HW1 2406   2.273   1.844   0.762  1.1007 -1.4870  0.0554
  602SOL    HW2 2407   2.249   1.988   0.711 -0.1661 -1.8092 -4.9557
  602SOL     MW 2408   2.298   1.930   0.758  0.4096 -0.1926 -0.2478
  603SOL     OW 2409   3.006   1.387   1.955 -0.7308 -0.3226  0.0142
  603SOL    HW1 2410   3.075   1.444   1.981 -2.7947 -2.5975  0.6163
  603SOL    HW2 2411   2.993   1.323   2.026  0.7780  1.4910 -0.1312
  603SOL     MW 2412   3.014   1.386   1.968 -0.8040 -0.3835  0.0745
  604SOL     OW 2413   2.043   1.482   0.462 -0.8724 -0.5281 -0.2814
  604SOL    HW1 2414   2.096   1.407   0.511  2.0940  1.4543  3.4412
  604SOL    HW2 2415   1.989   1.523   0.527  0.1808 -2.4975 -0.0310
  604SOL     MW 2416   2.043   1.478   0.477 -0.3421 -0.5263  0.2428
  605SOL     OW 2417   2.527   1.474   0.888 -0.5280  0.5123 -0.0075
  605SOL    HW1 2418   2.481   1.514   0.814  1.3451 -2.7942  0.8781
  605SOL    HW2 2419   2.546   1.390   0.853 -1.3694  0.7342 -0.8237
  605SOL     MW 2420   2.523   1.468   0.874 -0.3919  0.1054  0.0017
  606SOL     OW 2421   2.545   1.797   1.994  0.4671  0.6106 -0.7699
  606SOL    HW1 2422   2.457   1.780   1.963  1.4466 -1.1964  0.5563
  606SOL    HW2 2423   2.585   1.725   1.946  0.3179 -1.6378  1.9398
  606SOL     MW 2424   2.539   1.785   1.983  0.5766  0.0756 -0.2374
  607SOL     OW 2425   2.380   0.959   3.033 -0.3216  0.2672 -0.1577
  607SOL    HW1 2426   2.444   0.989   2.971 -1.6395  1.5263 -1.8898
  607SOL    HW2 2427   2.423   0.963   3.121 -1.6268 -1.9591  1.7929
  607SOL     MW 2428   2.394   0.964   3.036 -0.6677  0.1396 -0.1288
  608SOL     OW 2429   1.846   0.256   0.542 -0.4132 -0.3096 -0.5231
  608SOL    HW1 2430   1.831   0.307   0.466  1.1306  3.0676  0.0487
  608SOL    HW2 2431   1.826   0.165   0.528 -2.5899 -2.7728 -0.5756
  608SOL     MW 2432   1.841   0.251   0.530 -0.4967 -0.1890 -0.4546
  609SOL     OW 2433   2.133   1.919   3.020  0.1996 -0.2722 -0.1411
  609SOL    HW1 2434   2.050   1.871   2.982 -2.4200  1.4283  0.0416
  609SOL    HW2 2435   2.148   1.888   3.112  0.4564 -0.5229  1.7106
  609SOL     MW 2436   2.124   1.909   3.027 -0.1121 -0.0809  0.1273
  610SOL     OW 2437   1.804   0.945   1.237 -0.5932  0.1536  0.1109
  610SOL    HW1 2438   1.830   0.861   1.198 -1.2152 -1.9571  0.4727
  610SOL    HW2 2439   1.711   0.952   1.215  2.6887  2.4918 -0.2128
  610SOL     MW 2440   1.795   0.935   1.229 -0.2423  0.1836  0.1159
  611SOL     OW 2441   2.487   1.656   0.690 -0.3574  0.0879  0.2483
  611SOL    HW1 2442   2.548   1.682   0.627 -0.8442 -1.2713 -0.0458
  611SOL    HW2 2443   2.401   1.668   0.650 -0.7818  0.0615 -0.7063
  611SOL     MW 2444   2.483   1.661   0.676 -0.4776 -0.0950  0.0835
  612SOL     OW 2445   2.841   2.942   0.385  0.2374  0.3284 -0.1794
  612SOL    HW1 2446   2.904   2.955   0.463  2.6172  0.0545  0.5578
  612SOL    HW2 2447   2.902   2.882   0.341 -0.3350  1.4528 -0.0016
  612SOL     MW 2448   2.857   2.936   0.390  0.4759  0.4406 -0.0587
  613SOL     OW 2449   1.474   1.041   0.936  0.2985  0.0604  0.3458
  613SOL    HW1 2450   1.476   1.134   0.930  1.1236 -1.5005 -0.8088
  613SOL    HW2 2451   1.500   1.023   1.025 -0.7946 -1.3844 -1.6256
  613SOL     MW 2452   1.478   1.051   0.947  0.2631 -0.3362 -0.0666
  614SOL     OW 2453   2.004   0.504   1.485  0.0417  0.4506 -0.9247
  614SOL    HW1 2454   1.993   0.456   1.576  0.7585  1.8766  0.8163
  614SOL    HW2 2455   1.930   0.469   1.429 -1.6360  2.5885  0.1850
  614SOL     MW 2456   1.993   0.493   1.490 -0.0851  0.9208 -0.5486
  615SOL     OW 2457   2.375   0.723   0.289  0.6388  0.0078  0.1083
  615SOL    HW1 2458   2.444   0.661   0.311  2.2442 -0.1623  3.0535
  615SOL    HW2 2459   2.339   0.693   0.200  0.3176 -2.3786 -2.1208
  615SOL     MW 2460   2.380   0.711   0.280  0.8083 -0.3295  0.2028
  616SOL     OW 2461   2.499   0.452   1.651  0.0541  0.1959 -0.5049
  616SOL    HW1 2462   2.570   0.394   1.624 -0.5121 -2.5815 -2.4351
  616SOL    HW2 2463   2.482   0.498   1.570  0.4352 -2.0629  0.7309
  616SOL     MW 2464   2.507   0.451   1.637  0.0296 -0.4686 -0.5965
  617SOL     OW 2465   2.845   0.609   1.713  0.0835  0.1625  0.5627
  617SOL    HW1 2466   2.767   0.595   1.769 -0.7300 -2.4026  1.8473
  617SOL    HW2 2467   2.882   0.523   1.718 -1.7647  1.6526  0.2049
  617SOL     MW 2468   2.839   0.596   1.721 -0.2677  0.0206  0.6850
  618SOL     OW 2469   2.725   0.383   2.016 -0.1962 -0.1750  0.4265
  618SOL    HW1 2470   2.700   0.468   1.985 -0.5922 -3.4665  1.2458
  618SOL    HW2 2471   2.813   0.398   2.050  0.1309 -0.5750  0.6093
  618SOL     MW 2472   2.734   0.396   2.016 -0.2053 -0.6621  0.5587
  619SOL     OW 2473   2.647   0.708   0.069 -0.5271 -0.1528  0.2565
  619SOL    HW1 2474   2.688   0.787   0.108 -0.6145  1.2438  2.4342
  619SOL    HW2 2475   2.621   0.643   0.133  0.1359  1.2209 -1.3252
  619SOL     MW 2476   2.649   0.710   0.083 -0.4511  0.2127  0.3351
  620SOL     OW 2477   2.249   1.088   0.938  0.1461 -0.1433 -0.6816
  620SOL    HW1 2478   2.319   1.036   0.896 -0.1623 -0.2395 -1.1464
  620SOL    HW2 2479   2.167   1.063   0.899 -0.3930  2.2472  3.1387
  620SOL     MW 2480   2.247   1.078   0.927  0.0343  0.1594 -0.2389
  621SOL     OW 2481   1.533   2.235   1.942 -0.7386 -0.0306  0.2139
  621SOL    HW1 2482   1.494   2.154   1.967 -1.5231 -0.9641  0.0519
  621SOL    HW2 2483   1.621   2.244   1.981 -0.9966  2.4760  0.8826
  621SOL     MW 2484   1.540   2.226   1.951 -0.8761  0.1769  0.2808
  622SOL     OW 2485   2.630   0.241   0.269 -0.8936  0.0415  0.3807
  622SOL    HW1 2486   2.722   0.278   0.258 -0.2495  2.4647  2.7651
  622SOL    HW2 2487   2.646   0.151   0.297  2.1223  1.2442  1.6804
  622SOL     MW 2488   2.644   0.234   0.271 -0.4107  0.5199  0.8668
  623SOL     OW 2489   2.439   2.748   0.872 -0.0270 -0.2075  0.3290
  623SOL    HW1 2490   2.494   2.821   0.855 -0.5642 -2.3557  1.6112
  623SOL    HW2 2491   2.390   2.761   0.949  0.7927  0.6213 -3.2123
  623SOL     MW 2492   2.440   2.759   0.880  0.0103 -0.3816  0.0309
  624SOL     OW 2493   2.133   1.612   3.031 -0.2450 -0.3636  0.3221
  624SOL    HW1 2494   2.085   1.545   3.080  2.0804  2.2121 -0.8283
  624SOL    HW2 2495   2.064   1.664   2.993 -3.7513 -0.6563 -0.9023
  624SOL     MW 2496   2.117   1.610   3.032 -0.4008 -0.0624  0.0087
  625SOL     OW 2497   2.227   1.928   1.105  0.7979 -0.8409 -0.3343
  625SOL    HW1 2498   2.296   1.880   1.156  2.1860 -0.1954 -0.7933
  625SOL    HW2 2499   2.283   1.944   1.027  0.4654 -1.3502 -1.0692
  625SOL     MW 2500   2.244   1.924   1.101  0.9371 -0.8230 -0.4918
  626SOL     OW 2501   0.225   1.791   2.462 -0.3120  0.4997 -0.9759
  626SOL    HW1 2502   0.178   1.715   2.498  0.4578  1.1062  0.9947
  626SOL    HW2 2503   0.176   1.867   2.507  1.8706 -0.8791  2.2460
  626SOL     MW 2504   0.212   1.791   2.473  0.0776  0.3978 -0.2908
  627SOL     OW 2505   2.539   0.785   2.571 -0.0224 -0.0051 -0.0537
  627SOL    HW1 2506   2.451   0.815   2.590  0.8450  0.8971 -1.4118
  627SOL    HW2 2507   2.523   0.736   2.490 -0.1427  3.0886 -0.4376
  627SOL     MW 2508   2.525   0.783   2.563  0.0761  0.5221 -0.2835
  628SOL     OW 2509   2.245   1.352   1.320 -0.3871  0.8241  1.1383
  628SOL    HW1 2510   2.227   1.267   1.281 -1.3409  0.1785  0.8535
  628SOL    HW2 2511   2.321   1.385   1.267  2.0794  1.1769 -0.0906
  628SOL     MW 2512   2.252   1.345   1.308 -0.1875  0.7855  0.9386
  629SOL     OW 2513   1.813   0.464   1.280 -0.7890 -0.1499  0.4016
  629SOL    HW1 2514   1.813   0.548   1.228 -1.6468  2.9781  0.0831
  629SOL    HW2 2515   1.744   0.407   1.245 -2.2493 -0.9103  0.4523
  629SOL     MW 2516   1.804   0.467   1.268 -1.0948  0.1625  0.3662
  630SOL     OW 2517   2.419   1.857   2.992  0.5018 -0.0812 -0.2314
  630SOL    HW1 2518   2.431   1.955   2.978 -0.0062  2.6119  0.7268
  630SOL    HW2 2519   2.324   1.833   2.976 -0.7027 -0.3360 -1.1098
  630SOL     MW 2520   2.408   1.867   2.988  0.2758  0.2405 -0.2209
  631SOL     OW 2521   2.051   1.676   1.547  0.8065 -0.2972 -0.4499
  631SOL    HW1 2522   2.062   1.586   1.588  1.4103 -0.0839 -0.6729
  631SOL    HW2 2523   1.980   1.722   1.600 -0.5448  1.6137  2.5340
  631SOL     MW 2524   2.043   1.670   1.560  0.7079 -0.0169 -0.0856
  632SOL     OW 2525   0.253   1.945   1.484 -0.4244  0.0552  0.5972
  632SOL    HW1 2526   0.168   1.966   1.538  1.3307 -1.3335  0.2115
  632SOL    HW2 2527   0.280   1.859   1.522  0.6068 -1.8689 -1.6566
  632SOL     MW 2528   0.246   1.937   1.496 -0.0568 -0.3819  0.2490
  633SOL     OW 2529   2.590   0.531   0.289  0.8536  0.3433  0.1795
  633SOL    HW1 2530   2.645   0.548   0.366  2.4487 -2.7603 -2.2888
  633SOL    HW2 2531   2.606   0.440   0.266  1.2633 -1.4499 -2.5708
  633SOL     MW 2532   2.599   0.521   0.296  1.1181 -0.3028 -0.5091
  634SOL     OW 2533   2.706   3.044   0.630 -0.5350  0.1502  0.1186
  634SOL    HW1 2534   2.724   3.135   0.640 -0.3983 -3.1982 -0.5501
  634SOL    HW2 2535   2.653   3.047   0.548 -0.1856 -1.2254 -1.3043
  634SOL     MW 2536   2.701   3.056   0.620 -0.4709 -0.4731 -0.1573
  635SOL     OW 2537   2.582   0.125   1.851  0.1430  0.2057 -0.2624
  635SOL    HW1 2538   2.643   0.069   1.800  1.0359 -1.5544  0.4138
  635SOL    HW2 2539   2.618   0.203   1.877  0.7988 -0.4735  2.3177
  635SOL     MW 2540   2.595   0.128   1.848  0.3474 -0.1161  0.1672
  636SOL     OW 2541   2.780   1.612   0.870 -0.4198  0.8119  0.1736
  636SOL    HW1 2542   2.688   1.589   0.853  1.9485 -0.9025  1.4475
  636SOL    HW2 2543   2.775   1.685   0.932  0.4069  0.7054  1.6969
  636SOL     MW 2544   2.767   1.619   0.876  0.0017  0.5716  0.5426
  637SOL     OW 2545   2.885   1.531   0.630 -0.0022  0.2753  0.1691
  637SOL    HW1 2546   2.961   1.593   0.618 -0.3070  2.1233 -1.0864
  637SOL    HW2 2547   2.849   1.571   0.710 -1.8671 -1.9867 -1.0505
  637SOL     MW 2548   2.891   1.545   0.639 -0.2885  0.2207 -0.1575
  638SOL     OW 2549   2.707   0.510   0.538 -0.0935 -0.0212 -0.0199
  638SOL    HW1 2550   2.797   0.524   0.506  0.2759 -1.7531  0.1180
  638SOL    HW2 2551   2.706   0.519   0.638  1.2934 -0.1990  1.9617
  638SOL     MW 2552   2.718   0.513   0.547  0.1382 -0.2731  0.2598
  639SOL     OW 2553   1.762   3.099   0.528  0.1665 -0.2841  0.7318
  639SOL    HW1 2554   1.673   3.121   0.491  2.2844 -0.5605 -1.0362
  639SOL    HW2 2555   1.786   3.024   0.465 -0.8932 -1.0980 -1.0799
  639SOL     MW 2556   1.753   3.092   0.515  0.3061 -0.4280  0.2595
  640SOL     OW 2557   0.324   1.331   0.084  0.5587  0.2736 -0.3053
  640SOL    HW1 2558   0.356   1.328  -0.009  1.2543  2.2678 -1.1282
  640SOL    HW2 2559   0.310   1.239   0.112 -2.7445  0.4045  2.0328
  640SOL     MW 2560   0.327   1.318   0.075  0.2147  0.5540 -0.1054
  641SOL     OW 2561   2.219   0.427   0.387  0.0273  0.2410 -0.1467
  641SOL    HW1 2562   2.253   0.404   0.304 -0.2638  0.6851 -1.3300
  641SOL    HW2 2563   2.271   0.368   0.439 -2.8844 -0.8731 -3.0380
  641SOL     MW 2564   2.231   0.416   0.383 -0.3953  0.1526 -0.6843
  642SOL     OW 2565   0.085   0.036   0.493  0.2859  0.3553 -0.0126
  642SOL    HW1 2566   0.021   0.114   0.470 -0.8991 -1.3293  3.4230
  642SOL    HW2 2567   0.017  -0.021   0.526 -1.0682 -1.7716 -2.3268
  642SOL     MW 2568   0.068   0.039   0.494 -0.0491 -0.1476  0.1354
  643SOL     OW 2569   2.028   0.321   1.705  0.4864 -0.2302  0.0336
  643SOL    HW1 2570   1.957   0.288   1.760  2.5203  2.8792  0.9560
  643SOL    HW2 2571   2.041   0.249   1.638  0.3568 -1.8483 -0.6967
  643SOL     MW 2572   2.020   0.307   1.704  0.7376 -0.0334  0.0589
  644SOL     OW 2573   2.680   1.836   0.985 -0.2196 -0.3252 -0.0507
  644SOL    HW1 2574   2.682   1.795   1.072 -0.0940 -0.7348 -2.2907
  644SOL    HW2 2575   2.591   1.863   0.975  2.4322  0.8886 -1.3684
  644SOL     MW 2576   2.668   1.834   0.995  0.1468 -0.2191 -0.5201
  645SOL     OW 2577   2.844   0.815   0.753  0.5859 -0.5599  0.2302
  645SOL    HW1 2578   2.932   0.788   0.752 -1.1186  2.9173  0.9383
  645SOL    HW2 2579   2.796   0.733   0.771  0.5605 -1.6370 -0.5182
  645SOL     MW 2580   2.850   0.801   0.755  0.3576 -0.2433  0.2249
  646SOL     OW 2581   0.069   2.313   0.846 -0.3186  0.2043 -0.9209
  646SOL    HW1 2582   0.098   2.221   0.853 -1.0611  0.3060 -0.9966
  646SOL    HW2 2583   0.031   2.328   0.753  1.7181  0.2348 -2.0796
  646SOL     MW 2584   0.068   2.303   0.835 -0.1479  0.2217 -1.0838
  647SOL     OW 2585   2.707   0.496   2.993  0.0464  0.2002  0.0054
  647SOL    HW1 2586   2.650   0.435   3.035 -0.0465 -0.8010 -1.2059
  647SOL    HW2 2587   2.693   0.581   3.035  0.1423 -1.3241  3.9075
  647SOL     MW 2588   2.698   0.499   3.004  0.0468 -0.1330  0.3605
  648SOL     OW 2589   2.262   0.744   1.129 -0.1781  0.2710  0.1917
  648SOL    HW1 2590   2.183   0.715   1.084 -2.6432 -0.8969  0.7693
  648SOL    HW2 2591   2.232   0.781   1.211  0.1974  0.0771  0.1351
  648SOL     MW 2592   2.247   0.745   1.134 -0.4538  0.0913  0.2605
  649SOL     OW 2593   2.411   2.710   1.303  0.5186  0.4663 -0.4424
  649SOL    HW1 2594   2.504   2.725   1.320 -0.4834  1.2754  1.3702
  649SOL    HW2 2595   2.407   2.615   1.267 -0.4933 -1.3988 -1.7635
  649SOL     MW 2596   2.423   2.699   1.300  0.2529  0.3269 -0.3776
  650SOL     OW 2597   2.771   0.222   0.639 -0.1538 -0.3665 -0.2318
  650SOL    HW1 2598   2.818   0.198   0.719 -2.4792 -0.6958  0.6647
  650SOL    HW2 2599   2.843   0.220   0.572  1.5959 -0.9344  0.5020
  650SOL     MW 2600   2.787   0.218   0.640 -0.2297 -0.4849 -0.0167
  651SOL     OW 2601   0.009   0.454   1.000 -0.0259  0.0109 -0.6576
  651SOL    HW1 2602   0.065   0.464   0.920  1.1416 -2.0131  1.6328
  651SOL    HW2 2603  -0.055   0.522   0.993  1.5368  0.1350  1.0028
  651SOL     MW 2604   0.008   0.464   0.989  0.3343 -0.2397 -0.1364
  652SOL     OW 2605   2.390   1.464   3.026 -0.0290 -0.6435 -0.4230
  652SOL    HW1 2606   2.432   1.498   2.949 -1.0131 -1.4680  0.8523
  652SOL    HW2 2607   2.305   1.507   3.021  2.6966 -2.2406  1.1324
  652SOL     MW 2608   2.385   1.474   3.015  0.2008 -0.9630 -0.0495
  653SOL     OW 2609   1.816   0.433   0.322 -0.5039 -0.1846  0.2115
  653SOL    HW1 2610   1.802   0.345   0.282  1.1406 -2.1485 -0.9532
  653SOL    HW2 2611   1.885   0.467   0.265 -1.8677 -1.6339 -3.6750
  653SOL     MW 2612   1.824   0.426   0.309 -0.4668 -0.6349 -0.4549
  654SOL     OW 2613   2.437   0.986   0.742  0.0081 -0.3398  0.2762
  654SOL    HW1 2614   2.372   0.945   0.683 -0.8137 -1.6512 -1.2551
  654SOL    HW2 2615   2.503   0.910   0.768 -1.5287 -0.5114  0.2750
  654SOL     MW 2616   2.437   0.971   0.737 -0.3031 -0.5354  0.0740
  655SOL     OW 2617   2.882   0.858   0.392  0.0549  0.4531  0.2068
  655SOL    HW1 2618   2.835   0.883   0.472  2.5409  1.8909 -0.0711
  655SOL    HW2 2619   2.924   0.775   0.411 -2.5317  0.6860 -1.4302
  655SOL     MW 2620   2.882   0.851   0.405  0.0417  0.6735 -0.0458
  656SOL     OW 2621   1.784   2.645   1.373 -0.3793 -0.4370  0.0709
  656SOL    HW1 2622   1.824   2.729   1.396  0.7753  0.4854 -2.5942
  656SOL    HW2 2623   1.861   2.593   1.355 -0.3181  1.9514 -1.4457
  656SOL     MW 2624   1.800   2.649   1.373 -0.2189 -0.0002 -0.4808
  657SOL     OW 2625   0.116   1.745   1.144 -0.2267  0.0520  0.4239
  657SOL    HW1 2626   0.191   1.788   1.098 -1.3373 -2.0254 -0.3707
  657SOL    HW2 2627   0.142   1.655   1.161 -0.4013 -1.7025  0.2598
  657SOL     MW 2628   0.129   1.739   1.140 -0.3963 -0.4536  0.2974
  658SOL     OW 2629   2.657   1.310   0.237  0.5032  0.5793 -0.0731
  658SOL    HW1 2630   2.638   1.232   0.292  0.7140  2.5824 -2.7333
  658SOL    HW2 2631   2.705   1.360   0.303  0.4001  1.2442 -0.1513
  658SOL     MW 2632   2.661   1.307   0.253  0.5174  0.9313 -0.4344
  659SOL     OW 2633   2.207   1.557   1.002  0.0639 -0.0778  0.4391
  659SOL    HW1 2634   2.291   1.566   0.956 -0.3698  0.6946 -0.9927
  659SOL    HW2 2635   2.191   1.640   1.048  0.0261 -2.2662 -2.2948
  659SOL     MW 2636   2.216   1.569   1.002  0.0017 -0.2646 -0.1105
  660SOL     OW 2637   2.098   1.458   1.714  0.0028  0.3301 -0.6003
  660SOL    HW1 2638   2.098   1.489   1.806  0.3883 -2.1833  2.7412
  660SOL    HW2 2639   2.009   1.417   1.702 -0.7132 -2.3264  1.1012
  660SOL     MW 2640   2.086   1.457   1.724 -0.0408 -0.3520  0.0651
  661SOL     OW 2641   2.483   0.978   0.198 -0.5783 -0.1610 -0.2517
  661SOL    HW1 2642   2.551   0.999   0.263  0.9034  0.3619  1.8470
  661SOL    HW2 2643   2.421   0.923   0.251 -0.5021 -2.2994  4.3100
  661SOL     MW 2644   2.484   0.974   0.214 -0.3728 -0.3741  0.6271
  662SOL     OW 2645   2.596   2.966   0.862  0.2654 -0.1648 -0.6702
  662SOL    HW1 2646   2.547   3.044   0.890  0.1037  3.0132 -1.8700
  662SOL    HW2 2647   2.645   2.990   0.781 -1.3859  0.7041 -0.4871
  662SOL     MW 2648   2.596   2.979   0.855  0.0262  0.3691 -0.8044
  663SOL     OW 2649   2.677   1.484   0.458  0.2157  0.1304  0.1005
  663SOL    HW1 2650   2.666   1.551   0.393  0.1208  2.8853 -0.4598
  663SOL    HW2 2651   2.760   1.503   0.508  3.6848  0.8078 -2.0976
  663SOL     MW 2652   2.686   1.495   0.456  0.6609  0.5833 -0.2634
  664SOL     OW 2653   2.563   1.492   1.622 -0.7565  0.3727  0.1486
  664SOL    HW1 2654   2.574   1.570   1.569  0.5976 -2.7314 -0.8640
  664SOL    HW2 2655   2.479   1.462   1.603 -0.5370 -3.4451  1.0926
  664SOL     MW 2656   2.554   1.498   1.613 -0.5488 -0.5406  0.1396
  665SOL     OW 2657   2.775   0.769   2.106  0.0991  0.1293 -0.0634
  665SOL    HW1 2658   2.740   0.846   2.056  0.1768 -0.6466 -0.7335
  665SOL    HW2 2659   2.865   0.754   2.076 -0.9218 -2.1212  1.8154
  665SOL     MW 2660   2.782   0.777   2.096 -0.0253 -0.2700  0.0961
  666SOL     OW 2661   2.771   3.055   1.717  0.4488 -0.0639 -0.1800
  666SOL    HW1 2662   2.774   3.068   1.620 -1.1468  0.8388  0.9810
  666SOL    HW2 2663   2.720   2.971   1.730 -2.0738  0.9545 -3.6935
  666SOL     MW 2664   2.764   3.046   1.706 -0.0945  0.1896 -0.4904
  667SOL     OW 2665   2.000   2.707   1.714  0.0884 -0.3942  0.3090
  667SOL    HW1 2666   2.026   2.687   1.803 -2.9595  1.4298  2.5706
  667SOL    HW2 2667   2.067   2.773   1.689  1.2861  1.8521  0.1772
  667SOL     MW 2668   2.012   2.713   1.723 -0.1557  0.1428  0.5900
  668SOL     OW 2669   2.720   0.530   0.802  0.4367 -0.1373 -0.0095
  668SOL    HW1 2670   2.801   0.551   0.856 -0.1818  1.1705  2.2521
  668SOL    HW2 2671   2.651   0.600   0.809 -1.2346 -4.8036 -0.6715
  668SOL     MW 2672   2.721   0.542   0.810  0.1346 -0.5804  0.2015
  669SOL     OW 2673   0.143   0.889   0.780  0.1638 -0.5410  0.2840
  669SOL    HW1 2674   0.122   0.968   0.825  2.3623  2.4857  0.0293
  669SOL    HW2 2675   0.170   0.816   0.837 -0.4963 -0.0641  0.7042
  669SOL     MW 2676   0.143   0.890   0.793  0.3668 -0.0787  0.3058
  670SOL     OW 2677   2.898   0.314   0.231  0.2928  0.0805  0.9131
  670SOL    HW1 2678   2.938   0.282   0.145  0.4045 -0.0266 -0.6762
  670SOL    HW2 2679   2.925   0.406   0.230 -2.1664  1.8013 -1.4072
  670SOL     MW 2680   2.907   0.322   0.220 -0.0169  0.2934  0.3972
  671SOL     OW 2681   2.007   3.035   1.564  0.1526 -0.4233  0.0203
  671SOL    HW1 2682   1.959   2.997   1.491 -2.1221  0.2877 -0.9007
  671SOL    HW2 2683   1.946   3.040   1.641 -0.7595  0.3112 -0.8590
  671SOL     MW 2684   1.993   3.031   1.565 -0.2679 -0.2326 -0.2172
  672SOL     OW 2685   1.834   1.695   1.276 -0.3039 -0.1191 -0.0228
  672SOL    HW1 2686   1.844   1.767   1.340 -2.0552 -1.9518 -1.1813
  672SOL    HW2 2687   1.899   1.712   1.210  0.6451 -0.7073  0.3259
  672SOL     MW 2688   1.844   1.707   1.276 -0.4098 -0.4385 -0.1297
  673SOL     OW 2689   2.751   1.073   0.646 -0.4046  0.1215 -0.6218
  673SOL    HW1 2690   2.778   0.999   0.695 -3.0585 -1.3260 -1.7825
  673SOL    HW2 2691   2.819   1.136   0.642 -3.1454 -0.0125  4.1212
  673SOL     MW 2692   2.764   1.071   0.652 -1.1164 -0.0872 -0.1491
  674SOL     OW 2693   2.467   3.093   1.295 -0.0674 -0.1278 -0.1795
  674SOL    HW1 2694   2.407   3.081   1.220 -1.7005 -2.0210 -1.0823
  674SOL    HW2 2695   2.513   3.010   1.298 -0.6001 -0.7177  0.3581
  674SOL     MW 2696   2.465   3.081   1.285 -0.3532 -0.4554 -0.2277
  675SOL     OW 2697   2.946   0.904   1.024 -0.7346 -0.2233 -0.1280
  675SOL    HW1 2698   3.013   0.885   1.095  1.6924 -0.7397  0.5134
  675SOL    HW2 2699   2.986   0.981   0.973 -0.2285  2.2660  0.5536
  675SOL     MW 2700   2.960   0.912   1.026 -0.3476  0.0370  0.0465
  676SOL     OW 2701   2.957   1.420   1.700  0.2896 -0.4228  0.4597
  676SOL    HW1 2702   2.892   1.343   1.681 -2.9577 -0.4162 -1.1089
  676SOL    HW2 2703   2.976   1.420   1.794 -4.7417  1.9058  1.2000
  676SOL     MW 2704   2.951   1.410   1.710 -0.8027 -0.1147  0.3504
  677SOL     OW 2705   2.355   0.554   2.042 -0.2396 -0.8635 -0.7553
  677SOL    HW1 2706   2.315   0.503   1.966 -1.4148  2.2013  1.9661
  677SOL    HW2 2707   2.337   0.645   2.019 -1.1051  1.5774  2.5270
  677SOL     MW 2708   2.347   0.559   2.029 -0.5089 -0.1371  0.0368
  678SOL     OW 2709   2.463   1.663   0.327 -0.0333  0.1682 -0.1950
  678SOL    HW1 2710   2.374   1.678   0.362 -1.2353 -2.9094 -0.2083
  678SOL    HW2 2711   2.444   1.581   0.287 -1.7838 -0.2174 -0.7336
  678SOL     MW 2712   2.449   1.654   0.326 -0.4229 -0.2887 -0.2678
  679SOL     OW 2713   2.222   0.477   1.294  0.6854  0.2333  0.0262
  679SOL    HW1 2714   2.242   0.394   1.254 -1.4547  0.8896  0.2384
  679SOL    HW2 2715   2.143   0.465   1.346 -0.3054 -0.4410 -1.7568
  679SOL     MW 2716   2.214   0.465   1.296  0.2723  0.2309 -0.1811
  680SOL     OW 2717   2.321   0.170   1.493 -0.0079 -0.3566 -0.0112
  680SOL    HW1 2718   2.230   0.200   1.475 -1.0478  1.4505 -0.0037
  680SOL    HW2 2719   2.339   0.087   1.464 -1.7896  2.5701  1.5823
  680SOL     MW 2720   2.311   0.163   1.487 -0.3802  0.2680  0.2000
  681SOL     OW 2721   0.248   0.571   1.573 -0.5368 -0.9076 -0.2573
  681SOL    HW1 2722   0.228   0.501   1.640 -0.4828  1.9328 -1.1829
  681SOL    HW2 2723   0.295   0.533   1.502  0.3376 -0.7397  0.5543
  681SOL     MW 2724   0.252   0.557   1.572 -0.4144 -0.5107 -0.2724
  682SOL     OW 2725   0.163   2.817   1.532  0.1267  0.5290  0.7286
  682SOL    HW1 2726   0.227   2.884   1.560  2.5399 -0.6800 -1.0465
  682SOL    HW2 2727   0.079   2.869   1.543 -0.5589  3.3063 -2.7897
  682SOL     MW 2728   0.160   2.833   1.537  0.3546  0.7359  0.0302
  683SOL     OW 2729   2.081   0.837   2.976  0.5411  0.2487 -0.0377
  683SOL    HW1 2730   2.038   0.754   3.000  2.4130 -0.2125 -0.3925
  683SOL    HW2 2731   2.038   0.914   3.025 -2.2090  1.5055  2.8008
  683SOL     MW 2732   2.069   0.836   2.985  0.4253  0.3537  0.2900
  684SOL     OW 2733   2.199   1.693   0.688 -0.4451 -0.0179  0.3471
  684SOL    HW1 2734   2.192   1.685   0.587 -0.2398 -0.1165 -0.2432
  684SOL    HW2 2735   2.142   1.625   0.723 -1.5809  2.0252 -0.0823
  684SOL     MW 2736   2.191   1.683   0.679 -0.5678  0.2387  0.2126
  685SOL     OW 2737   2.706   1.671   1.207  0.3867  0.1040 -0.3085
  685SOL    HW1 2738   2.747   1.706   1.284 -0.3374  0.4879 -3.5794
  685SOL    HW2 2739   2.702   1.577   1.215 -1.2306 -1.0810  0.4596
  685SOL     MW 2740   2.711   1.663   1.218  0.0778 -0.0017 -0.6387
  686SOL     OW 2741   2.858   0.726   1.467  0.1894  0.1432  0.6227
  686SOL    HW1 2742   2.837   0.679   1.556 -0.5226  3.1007  1.7261
  686SOL    HW2 2743   2.945   0.758   1.468  0.2566  2.8748 -2.2710
  686SOL     MW 2744   2.867   0.724   1.479  0.1043  0.8938  0.3865
  687SOL     OW 2745   2.140   0.166   1.223 -0.2537 -0.3084 -0.6745
  687SOL    HW1 2746   2.192   0.103   1.169 -0.0176  1.2358 -0.2337
  687SOL    HW2 2747   2.078   0.214   1.160 -2.0506 -2.0743  1.2421
  687SOL     MW 2748   2.139   0.164   1.208 -0.4596 -0.3376 -0.3635
  688SOL     OW 2749   2.395   0.625   1.437 -0.0873  0.2410 -0.6115
  688SOL    HW1 2750   2.356   0.591   1.357  2.0707  0.5127  1.5349
  688SOL    HW2 2751   2.313   0.639   1.485 -0.3572 -3.5865 -1.9966
  688SOL     MW 2752   2.379   0.622   1.433  0.1618 -0.2282 -0.5111
  689SOL     OW 2753   2.440   0.721   2.926  0.8482 -0.2165  0.6381
  689SOL    HW1 2754   2.406   0.814   2.917 -0.5413  0.4713  2.5487
  689SOL    HW2 2755   2.507   0.734   2.995  1.5946 -1.6291 -2.8265
  689SOL     MW 2756   2.444   0.735   2.934  0.7634 -0.3121  0.4331
  690SOL     OW 2757   2.049   0.912   1.843  0.0925 -0.1947  0.0407
  690SOL    HW1 2758   2.024   0.821   1.844  2.4379  1.4365 -0.3131
  690SOL    HW2 2759   2.066   0.928   1.747  0.7431 -1.1288 -1.2543
  690SOL     MW 2760   2.048   0.902   1.830  0.4878 -0.1027 -0.1768
  691SOL     OW 2761   2.396   0.228   0.837  0.7600 -0.0673 -0.0853
  691SOL    HW1 2762   2.477   0.261   0.874 -0.5553  1.1455 -0.1229
  691SOL    HW2 2763   2.324   0.287   0.866  2.1748 -0.2456  1.7959
  691SOL     MW 2764   2.397   0.240   0.846  0.7731  0.0692  0.1579
  692SOL     OW 2765   2.924   1.612   1.498  0.0244 -0.2945 -0.5110
  692SOL    HW1 2766   2.938   1.563   1.578 -1.7329 -0.2907 -1.5473
  692SOL    HW2 2767   2.954   1.707   1.513  2.4152  0.7362 -1.5640
  692SOL     MW 2768   2.930   1.618   1.511  0.1080 -0.1580 -0.7867
  693SOL     OW 2769   2.256   0.410   0.085  0.5138  0.4975  0.5570
  693SOL    HW1 2770   2.184   0.351   0.066  1.5473  1.3203 -2.5816
  693SOL    HW2 2771   2.224   0.500   0.075  1.3760  0.4943 -0.0627
  693SOL     MW 2772   2.242   0.414   0.081  0.7639  0.6057  0.0611
  694SOL     OW 2773   1.926   1.160   1.068 -0.5378 -0.5597 -0.3517
  694SOL    HW1 2774   2.016   1.145   1.114  1.4678 -1.4070  0.5610
  694SOL    HW2 2775   1.870   1.095   1.109  2.1029  1.1094  1.5705
  694SOL     MW 2776   1.931   1.149   1.079  0.0752 -0.4512  0.0223
  695SOL     OW 2777   2.987   1.434   1.305 -0.2573 -0.0882 -0.6268
  695SOL    HW1 2778   2.944   1.475   1.229 -0.3445 -0.3316 -1.3888
  695SOL    HW2 2779   2.967   1.500   1.382 -0.4072 -0.0654 -0.4245
  695SOL     MW 2780   2.979   1.448   1.305 -0.2886 -0.1173 -0.7006
  696SOL     OW 2781   2.095   1.387   0.768  0.2781  0.7445  0.0731
  696SOL    HW1 2782   2.134   1.419   0.847 -0.7647  1.8189  2.3842
  696SOL    HW2 2783   2.044   1.306   0.791 -2.2138 -1.7986  1.0774
  696SOL     MW 2784   2.093   1.381   0.781 -0.1882  0.5507  0.5105
  697SOL     OW 2785   2.880   1.016   2.219  0.3022 -0.3935  0.5264
  697SOL    HW1 2786   2.822   1.094   2.213  0.4940  2.8037  3.2403
  697SOL    HW2 2787   2.821   0.941   2.218 -3.8662  2.5519 -3.6109
  697SOL     MW 2788   2.865   1.017   2.218 -0.2225  0.4170  0.3386
  698SOL     OW 2789   2.535   0.331   0.023 -0.3670  0.1153  0.0210
  698SOL    HW1 2790   2.440   0.357   0.029  0.9975  1.4196 -1.6605
  698SOL    HW2 2791   2.555   0.292   0.103  2.1191 -0.7837 -3.0326
  698SOL     MW 2792   2.525   0.329   0.034  0.1411  0.1687 -0.6037
  699SOL     OW 2793   1.901   1.624   2.045  0.1525 -0.4556  0.2612
  699SOL    HW1 2794   1.863   1.536   2.032  0.7333  3.1948  1.7333
  699SOL    HW2 2795   1.997   1.593   2.037  0.3487  3.6858 -2.0726
  699SOL     MW 2796   1.908   1.608   2.042  0.2550  0.5725  0.1475
  700SOL     OW 2797   2.714   0.915   1.601 -0.6562 -0.1852  0.0964
  700SOL    HW1 2798   2.755   0.990   1.569  1.3424 -3.0315  0.9220
  700SOL    HW2 2799   2.760   0.848   1.547 -0.1317  0.1367 -0.9353
  700SOL     MW 2800   2.726   0.916   1.590 -0.3233 -0.5183  0.0692
  701SOL     OW 2801   1.695   1.179   2.480 -0.2908  0.2550 -0.1723
  701SOL    HW1 2802   1.788   1.163   2.505  2.1599 -0.8462 -1.2589
  701SOL    HW2 2803   1.675   1.255   2.545  0.7732  0.2021 -0.4315
  701SOL     MW 2804   1.705   1.187   2.492  0.1730  0.1027 -0.3499
  702SOL     OW 2805   2.147   0.406   0.831  0.1333  0.4863 -0.0647
  702SOL    HW1 2806   2.121   0.337   0.776  1.3307  1.4858 -0.2488
  702SOL    HW2 2807   2.210   0.463   0.785  0.6775  0.5495  0.1960
  702SOL     MW 2808   2.152   0.405   0.818  0.3630  0.6265 -0.0546
  703SOL     OW 2809   2.697   1.241   1.042  0.5239  0.0399 -0.2055
  703SOL    HW1 2810   2.620   1.249   0.990 -0.8288  1.0003 -0.4621
  703SOL    HW2 2811   2.696   1.144   1.061 -2.2080 -2.2384 -0.4686
  703SOL     MW 2812   2.687   1.230   1.038 -0.0150 -0.1340 -0.2741
  704SOL     OW 2813   3.070   1.237   0.134 -0.9551  0.7732 -0.5094
  704SOL    HW1 2814   2.980   1.223   0.108  0.7242 -0.9060  0.5206
  704SOL    HW2 2815   3.076   1.226   0.228  0.7377 -2.7614  0.3037
  704SOL     MW 2816   3.059   1.233   0.143 -0.5102  0.0853 -0.2662
  705SOL     OW 2817   2.190   1.634   1.306 -0.2723 -0.3464  0.2766
  705SOL    HW1 2818   2.126   1.651   1.377  0.2573 -4.2547  4.1477
  705SOL    HW2 2819   2.189   1.541   1.285  0.9357  0.6459 -0.7356
  705SOL     MW 2820   2.181   1.624   1.312 -0.0430 -0.7312  0.6538
  706SOL     OW 2821   2.940   1.266   0.641 -0.4169  0.1546 -0.0241
  706SOL    HW1 2822   2.995   1.241   0.573  1.6618 -0.1808  1.3855
  706SOL    HW2 2823   2.913   1.362   0.634  0.6173 -0.0691  1.4668
  706SOL     MW 2824   2.944   1.275   0.631 -0.0062  0.0808  0.3586
  707SOL     OW 2825   2.322   0.041   1.024  0.4352 -0.1004  0.1766
  707SOL    HW1 2826   2.352   0.101   0.954 -3.2699  0.4013  2.4619
  707SOL    HW2 2827   2.267  -0.025   0.985 -0.1380 -0.1820 -1.9790
  707SOL     MW 2828   2.318   0.041   1.010 -0.1293 -0.0450  0.1937
  708SOL     OW 2829   2.427   1.427   0.182  0.2962 -0.7294  0.1386
  708SOL    HW1 2830   2.515   1.386   0.181  0.2718 -1.1784 -0.6826
  708SOL    HW2 2831   2.415   1.453   0.087  2.7443  0.2187 -1.0411
  708SOL     MW 2832   2.437   1.425   0.170  0.6160 -0.6635 -0.1254
  709SOL     OW 2833   1.769   1.658   0.216  0.2939  0.2801  0.8766
  709SOL    HW1 2834   1.770   1.667   0.120 -0.4046 -0.0277 -0.1801
  709SOL    HW2 2835   1.678   1.642   0.243 -1.3819  0.9218  0.0054
  709SOL     MW 2836   1.757   1.657   0.207 -0.0194  0.3242  0.6222
  710SOL     OW 2837   2.172   1.110   1.206 -0.0686 -0.1649  0.6592
  710SOL    HW1 2838   2.209   1.120   1.112 -2.4445 -1.8486 -1.1092
  710SOL    HW2 2839   2.207   1.029   1.245  0.2100 -3.0943 -0.0344
  710SOL     MW 2840   2.182   1.101   1.198 -0.3453 -0.7736  0.3343
  711SOL     OW 2841   2.334   0.090   1.762  0.2188 -0.1460 -0.5128
  711SOL    HW1 2842   2.432   0.098   1.791  1.4802 -1.0152  1.4655
  711SOL    HW2 2843   2.331   0.126   1.673 -0.0050 -1.2589  0.7876
  711SOL     MW 2844   2.347   0.095   1.754  0.3557 -0.4075 -0.0802
  712SOL     OW 2845   1.932   0.629   3.085  0.3872 -0.1343 -0.4165
  712SOL    HW1 2846   1.846   0.659   3.046 -1.4675 -0.6030  0.2594
  712SOL    HW2 2847   1.941   0.668   3.169  1.0466  0.1755 -0.0228
  712SOL     MW 2848   1.922   0.638   3.091  0.2295 -0.1553 -0.2754
  713SOL     OW 2849   2.547   0.744   1.085  0.5505  0.2338 -0.0413
  713SOL    HW1 2850   2.584   0.679   1.146  2.5691 -2.1257 -0.7489
  713SOL    HW2 2851   2.454   0.733   1.097 -0.6495 -3.9176 -2.2108
  713SOL     MW 2852   2.539   0.734   1.094  0.6585 -0.6252 -0.4209
  714SOL     OW 2853   2.192   0.145   1.996 -0.4642  0.0091  0.4052
  714SOL    HW1 2854   2.245   0.114   2.075  0.0201 -1.3519  0.3196
  714SOL    HW2 2855   2.244   0.112   1.917  1.8437 -1.6773  1.0069
  714SOL     MW 2856   2.206   0.137   1.996 -0.0958 -0.3929  0.4733
  715SOL     OW 2857   1.839   2.025   1.742  0.0097  0.3309 -0.2316
  715SOL    HW1 2858   1.935   2.053   1.743  0.5473 -1.0287  0.2456
  715SOL    HW2 2859   1.832   1.951   1.808 -0.7288  0.5325  1.6819
  715SOL     MW 2860   1.851   2.019   1.751 -0.0168  0.1781  0.0838
  716SOL     OW 2861   2.353   0.565   0.704  0.3605  0.1584  0.5301
  716SOL    HW1 2862   2.379   0.489   0.656  1.1223 -0.0422  1.6575
  716SOL    HW2 2863   2.296   0.621   0.656  1.0747  1.8868  0.4509
  716SOL     MW 2864   2.349   0.562   0.692  0.5552  0.3600  0.6684
  717SOL     OW 2865   2.827   1.637   2.884 -0.6683  0.9276  0.2561
  717SOL    HW1 2866   2.888   1.602   2.951 -2.0813  2.1520 -0.2401
  717SOL    HW2 2867   2.771   1.695   2.943 -1.5095 -0.2324  2.8175
  717SOL     MW 2868   2.828   1.640   2.901 -0.9657  0.9361  0.5286
  718SOL     OW 2869   2.684   1.420   1.343  0.1469 -0.2418 -0.3650
  718SOL    HW1 2870   2.687   1.443   1.437 -0.0524 -1.0333  0.3482
  718SOL    HW2 2871   2.723   1.336   1.348 -0.5853  0.3426 -1.8659
  718SOL     MW 2872   2.690   1.412   1.356  0.0240 -0.2691 -0.4689
  719SOL     OW 2873   2.174   1.262   0.545 -0.4807 -0.2075 -0.0285
  719SOL    HW1 2874   2.262   1.302   0.510  0.8154  0.1227 -1.4178
  719SOL    HW2 2875   2.151   1.307   0.627 -1.1875  1.2098 -0.2408
  719SOL     MW 2876   2.182   1.273   0.551 -0.4030  0.0231 -0.2398
  720SOL     OW 2877   2.800   1.205   0.046 -0.1347 -0.3879 -0.2477
  720SOL    HW1 2878   2.807   1.112   0.066  2.9049 -0.2531  0.0970
  720SOL    HW2 2879   2.734   1.243   0.108 -1.3437 -0.8936 -0.0070
  720SOL     MW 2880   2.792   1.198   0.057  0.1068 -0.4368 -0.1705
  721SOL     OW 2881   2.477   0.885   1.405  0.0440 -0.1790  0.2744
  721SOL    HW1 2882   2.482   0.798   1.444  0.9589  0.6492  0.5150
  721SOL    HW2 2883   2.530   0.948   1.455 -0.9125 -1.7078 -0.1941
  721SOL     MW 2884   2.485   0.882   1.417  0.0385 -0.2714  0.2443
  722SOL     OW 2885   2.596   1.112   0.408  0.1577  0.1691  0.5039
  722SOL    HW1 2886   2.532   1.184   0.448 -1.9315  3.1786  2.3995
  722SOL    HW2 2887   2.646   1.081   0.486  2.1174 -0.4632  0.9985
  722SOL     MW 2888   2.594   1.117   0.424  0.1406  0.4827  0.8192
  723SOL     OW 2889   2.327   1.381   1.580  0.3884 -0.4655  0.2549
  723SOL    HW1 2890   2.310   1.367   1.484 -1.9443 -3.7294 -0.3896
  723SOL    HW2 2891   2.242   1.408   1.624  0.1205 -0.7518  0.2783
  723SOL     MW 2892   2.313   1.383   1.573  0.0453 -0.9339  0.1730
  724SOL     OW 2893   2.453   0.359   0.562  0.0251 -0.3568 -0.1626
  724SOL    HW1 2894   2.489   0.289   0.620 -0.5188 -0.9989  1.2085
  724SOL    HW2 2895   2.538   0.395   0.530  0.8558 -2.3878 -3.2487
  724SOL     MW 2896   2.469   0.354   0.565  0.0630 -0.7095 -0.3889
  725SOL     OW 2897   2.583   0.454   1.210  0.0361 -0.8043  0.5289
  725SOL    HW1 2898   2.675   0.453   1.234  0.9405 -3.1584  1.7568
  725SOL    HW2 2899   2.531   0.397   1.269 -0.1763  0.1667  1.2504
  725SOL     MW 2900   2.588   0.446   1.221  0.1274 -0.9868  0.7861
  726SOL     OW 2901   2.538   2.513   0.520 -0.6671 -0.2914 -0.4390
  726SOL    HW1 2902   2.479   2.579   0.486  1.6175 -0.0703  0.9574
  726SOL    HW2 2903   2.503   2.456   0.585 -0.6929 -1.2484 -1.2042
  726SOL     MW 2904   2.526   2.514   0.524 -0.3691 -0.3885 -0.3557
  727SOL     OW 2905   2.862   0.352   1.782  0.3727 -0.1740 -0.2733
  727SOL    HW1 2906   2.801   0.311   1.718 -1.0931  3.3187  0.8475
  727SOL    HW2 2907   2.811   0.349   1.869  0.5358 -0.7606  1.3419
  727SOL     MW 2908   2.848   0.346   1.785  0.2008  0.2094  0.0877
  728SOL     OW 2909   2.827   1.138   2.881  0.4450  0.5085  0.3961
  728SOL    HW1 2910   2.815   1.206   2.810  0.0596 -1.8927 -1.0288
  728SOL    HW2 2911   2.829   1.177   2.965  0.2672 -0.9413 -0.8199
  728SOL     MW 2912   2.826   1.152   2.883  0.3707  0.0004  0.0476
  729SOL     OW 2913   2.434   1.454   1.177 -0.2612  0.4932 -0.8096
  729SOL    HW1 2914   2.502   1.426   1.240 -1.8575 -1.9569 -0.7441
  729SOL    HW2 2915   2.462   1.420   1.093  0.9817  0.2079 -0.4987
  729SOL     MW 2916   2.447   1.446   1.174 -0.3078  0.1323 -0.7599
  730SOL     OW 2917   2.285   1.182   0.278 -0.5787  0.3085  0.3628
  730SOL    HW1 2918   2.363   1.154   0.238  2.9988 -2.0846  1.1995
  730SOL    HW2 2919   2.269   1.266   0.238  2.3233  2.2944  1.6294
  730SOL     MW 2920   2.293   1.190   0.268  0.2762  0.2548  0.6403
  731SOL     OW 2921   2.803   2.061   2.911 -0.0350  0.1072 -0.5141
  731SOL    HW1 2922   2.758   2.039   2.832 -2.2655 -0.1222 -0.2743
  731SOL    HW2 2923   2.881   2.102   2.882  0.6396  0.4290  0.4689
  731SOL     MW 2924   2.807   2.063   2.897 -0.2403  0.1194 -0.3528
  732SOL     OW 2925   2.210   0.883   1.346  0.0475  0.3932 -0.2307
  732SOL    HW1 2926   2.176   0.916   1.433 -1.0863 -0.2120 -1.4795
  732SOL    HW2 2927   2.315   0.886   1.349  1.3507 -0.0974 -0.1173
  732SOL     MW 2928   2.219   0.888   1.358  0.0699  0.2486 -0.3805
  733SOL     OW 2929   2.397   2.824   2.992  0.2668 -0.2257 -0.1392
  733SOL    HW1 2930   2.314   2.876   2.986  0.3755  0.3043 -2.6949
  733SOL    HW2 2931   2.357   2.735   2.995 -0.0057  1.7427  0.3862
  733SOL     MW 2932   2.381   2.819   2.992  0.2452  0.1040 -0.4071
  734SOL     OW 2933   1.469   0.300   2.470  0.7409  0.4596  1.0499
  734SOL    HW1 2934   1.451   0.267   2.557 -0.9115 -1.0111  1.5085
  734SOL    HW2 2935   1.497   0.225   2.415 -2.1799 -0.2171  1.9883
  734SOL     MW 2936   1.471   0.286   2.474  0.1375  0.1763  1.2342
  735SOL     OW 2937   2.911   0.885   2.617 -0.0126  0.3441 -0.1704
  735SOL    HW1 2938   2.922   0.791   2.631  2.5321  1.7647  0.2340
  735SOL    HW2 2939   2.978   0.909   2.679 -0.7200 -1.3661 -0.8094
  735SOL     MW 2940   2.921   0.876   2.627  0.2298  0.3059 -0.2013
  736SOL     OW 2941   0.082   0.622   2.548 -0.0435 -0.7536 -0.5809
  736SOL    HW1 2942   0.094   0.699   2.492 -0.5348 -0.1068  1.2067
  736SOL    HW2 2943   0.086   0.553   2.484 -1.2262 -0.4463  1.9693
  736SOL     MW 2944   0.084   0.623   2.532 -0.2644 -0.6277 -0.0086
  737SOL     OW 2945   2.937   0.599   2.644 -0.1307  0.0496  0.6658
  737SOL    HW1 2946   2.896   0.568   2.563  2.2905 -0.9679 -1.4832
  737SOL    HW2 2947   3.031   0.612   2.622 -0.7812  1.1487 -0.3911
  737SOL     MW 2948   2.944   0.597   2.630  0.1029  0.0604  0.2428
  738SOL     OW 2949   0.203   0.585   1.946 -0.0043 -0.1510 -0.6614
  738SOL    HW1 2950   0.292   0.594   1.915  0.8889 -2.1702  0.3644
  738SOL    HW2 2951   0.169   0.523   1.881  0.0153 -1.5024  0.1265
  738SOL     MW 2952   0.210   0.578   1.933  0.1162 -0.5957 -0.4221
  739SOL     OW 2953   2.487   0.992   2.067 -0.0642  0.1992  0.3812
  739SOL    HW1 2954   2.405   0.946   2.035 -4.2730  0.5752  0.8871
  739SOL    HW2 2955   2.503   1.057   2.004  0.3205  2.8256  3.2015
  739SOL     MW 2956   2.478   0.994   2.054 -0.5687  0.5953  0.8200
  740SOL     OW 2957   0.203   1.742   2.928 -0.1290  0.2191 -0.5650
  740SOL    HW1 2958   0.167   1.653   2.918 -2.8613 -2.3166 -1.0605
  740SOL    HW2 2959   0.293   1.739   2.964 -0.5532 -1.8122  1.3967
  740SOL     MW 2960   0.210   1.730   2.932 -0.5455 -0.3835 -0.3716
  741SOL     OW 2961   2.200   1.209   2.686 -0.6014  1.0651 -0.3520
  741SOL    HW1 2962   2.185   1.293   2.644  0.5883  0.2474 -1.3377
  741SOL    HW2 2963   2.142   1.196   2.761 -0.4756 -0.2483 -1.5813
  741SOL     MW 2964   2.190   1.218   2.690 -0.4278  0.7839 -0.6442
  742SOL     OW 2965   1.641   1.246   2.217  0.5817 -0.1946  0.6223
  742SOL    HW1 2966   1.578   1.173   2.202 -0.1194 -1.7352  0.0462
  742SOL    HW2 2967   1.672   1.221   2.305  0.7896  0.7584  0.8866
  742SOL     MW 2968   1.637   1.233   2.226  0.5166 -0.2721  0.5812
  743SOL     OW 2969   2.444   1.306   2.723  0.1789 -0.7756  0.0175
  743SOL    HW1 2970   2.355   1.263   2.734 -1.2096 -1.2101  2.0318
  743SOL    HW2 2971   2.494   1.241   2.755 -1.3069  0.6300 -0.6594
  743SOL     MW 2972   2.439   1.292   2.728 -0.2003 -0.6475  0.1940
  744SOL     OW 2973   2.740   0.926   1.886 -0.3089  0.4265 -0.2100
  744SOL    HW1 2974   2.687   1.009   1.890 -0.4919 -0.7949  1.3264
  744SOL    HW2 2975   2.719   0.904   1.793  1.6609  1.0355 -1.0560
  744SOL     MW 2976   2.730   0.934   1.875 -0.0732  0.3457 -0.1189
  745SOL     OW 2977   1.745   0.419   2.501  0.0338 -0.2874  0.3576
  745SOL    HW1 2978   1.721   0.469   2.421  1.4196 -1.3448 -0.0380
  745SOL    HW2 2979   1.665   0.366   2.509  0.5203 -1.0517  0.9894
  745SOL     MW 2980   1.731   0.418   2.492  0.2808 -0.5278  0.3888
  746SOL     OW 2981   1.592   1.482   1.653  0.1910 -0.3680  0.4536
  746SOL    HW1 2982   1.662   1.536   1.674 -0.5808 -1.1600  2.0558
  746SOL    HW2 2983   1.567   1.435   1.734  2.2649 -0.0245  1.9612
  746SOL     MW 2984   1.598   1.483   1.666  0.3628 -0.4272  0.8639
  747SOL     OW 2985   2.559   1.141   1.793  0.4336 -0.5585 -0.1056
  747SOL    HW1 2986   2.480   1.144   1.740  1.1585  0.6463 -2.8707
  747SOL    HW2 2987   2.573   1.225   1.842  0.3355  0.8915 -0.0100
  747SOL     MW 2988   2.550   1.152   1.793  0.5163 -0.2082 -0.4578
  748SOL     OW 2989   0.104   0.036   1.873  0.0485 -0.1384  0.5008
  748SOL    HW1 2990   0.197   0.057   1.855  1.1732  1.1957 -0.0090
  748SOL    HW2 2991   0.085   0.088   1.951 -1.5211 -1.3706  1.7077
  748SOL     MW 2992   0.114   0.046   1.881 -0.0102 -0.1250  0.5928
  749SOL     OW 2993   2.496   0.554   2.720  0.1417  0.2985  0.1261
  749SOL    HW1 2994   2.536   0.625   2.668 -0.1203  0.4457 -1.1364
  749SOL    HW2 2995   2.491   0.604   2.807  0.8171  1.5419  0.2677
  749SOL     MW 2996   2.501   0.570   2.725  0.1962  0.4819 -0.0218
  750SOL     OW 2997   2.040   3.022   1.981  0.1283  0.1910 -0.3423
  750SOL    HW1 2998   2.090   3.107   1.999  0.8121 -0.1550  0.0862
  750SOL    HW2 2999   2.112   2.955   1.977  1.3302 -1.9803 -1.2522
  750SOL     MW 3000   2.056   3.024   1.983  0.3771 -0.1411 -0.4058
  751SOL     OW 3001   0.066   0.423   2.349 -0.5235  0.4203  0.3404
  751SOL    HW1 3002   0.053   0.345   2.397 -1.1777  0.2419  0.4472
  751SOL    HW2 3003   0.157   0.410   2.317 -0.2632  3.7201  3.3231
  751SOL     MW 3004   0.076   0.411   2.351 -0.5755  0.8321  0.7480
  752SOL     OW 3005   2.137   0.769   2.713 -0.1350 -0.0683  0.4855
  752SOL    HW1 3006   2.207   0.825   2.680  0.0484 -1.7608 -1.7125
  752SOL    HW2 3007   2.136   0.774   2.809  1.2594 -0.1210  0.3688
  752SOL     MW 3008   2.146   0.777   2.721  0.0732 -0.2986  0.1801
  753SOL     OW 3009   2.922   0.274   2.450 -0.4267  0.1710  0.1214
  753SOL    HW1 3010   2.890   0.213   2.393  1.6027  1.3882 -0.0414
  753SOL    HW2 3011   2.886   0.360   2.438  0.4279 -0.7499 -1.0742
  753SOL     MW 3012   2.913   0.277   2.441 -0.0462  0.2101 -0.0578
  754SOL     OW 3013   2.254   2.958   2.592 -0.2372  0.6530  0.0430
  754SOL    HW1 3014   2.275   2.960   2.503  1.4593 -1.1128  2.5768
  754SOL    HW2 3015   2.329   2.910   2.628  3.8261  0.1536 -1.6184
  754SOL     MW 3016   2.266   2.952   2.585  0.5228  0.3542  0.1581
  755SOL     OW 3017   2.731   1.527   2.501  0.1272  0.2344 -0.1760
  755SOL    HW1 3018   2.739   1.439   2.535 -1.7022  2.0971 -1.4391
  755SOL    HW2 3019   2.794   1.584   2.556  0.4425  1.3804 -1.8948
  755SOL     MW 3020   2.741   1.523   2.513 -0.0725  0.6313 -0.5695
  756SOL     OW 3021   2.220   1.212   3.009 -0.2423 -0.6254 -0.3055
  756SOL    HW1 3022   2.276   1.291   3.012  0.8823 -0.3960  2.2579
  756SOL    HW2 3023   2.274   1.135   3.034  0.3200 -2.3244  1.5006
  756SOL     MW 3024   2.235   1.212   3.012 -0.0197 -0.8193  0.2710
  757SOL     OW 3025   2.123   0.938   1.579  0.3435  0.2446 -0.2176
  757SOL    HW1 3026   2.137   0.842   1.584  0.9053  0.5959 -2.2870
  757SOL    HW2 3027   2.030   0.938   1.543  0.1920  0.2420  0.4621
  757SOL     MW 3028   2.112   0.926   1.575  0.3977  0.2906 -0.4010
  758SOL     OW 3029   2.212   1.721   2.658  0.1825  0.6026  0.0082
  758SOL    HW1 3030   2.173   1.752   2.579 -0.2525 -0.6871 -0.7555
  758SOL    HW2 3031   2.309   1.723   2.664 -1.8491 -2.6305  0.9097
  758SOL     MW 3032   2.220   1.725   2.648 -0.1429  0.0058  0.0264
  759SOL     OW 3033   1.624   1.364   2.657 -0.1071 -0.4926  0.5242
  759SOL    HW1 3034   1.621   1.445   2.608 -1.1155 -1.2026 -1.8242
  759SOL    HW2 3035   1.678   1.377   2.736 -0.6421  1.1572  1.1719
  759SOL     MW 3036   1.631   1.377   2.661 -0.3108 -0.3686  0.2998
  760SOL     OW 3037   2.622   1.986   2.717  0.1461 -0.3310  0.2667
  760SOL    HW1 3038   2.574   1.907   2.694 -1.9529  0.2447 -1.2180
  760SOL    HW2 3039   2.602   2.047   2.641 -1.7071 -0.2095 -1.9577
  760SOL     MW 3040   2.613   1.984   2.704 -0.3754 -0.2390 -0.2227
  761SOL     OW 3041   2.190   0.369   2.444 -0.0789 -1.0921 -0.0030
  761SOL    HW1 3042   2.110   0.317   2.457 -0.8386  0.6329 -1.8989
  761SOL    HW2 3043   2.212   0.390   2.533 -2.5050 -1.2731 -0.4599
  761SOL     MW 3044   2.183   0.365   2.458 -0.4993 -0.8884 -0.3134
  762SOL     OW 3045   0.040   0.178   2.098  0.9519  0.0739 -0.1299
  762SOL    HW1 3046   0.018   0.123   2.169 -0.6904  0.6199  1.3295
  762SOL    HW2 3047  -0.021   0.249   2.092 -3.1357 -1.7919  0.0741
  762SOL     MW 3048   0.029   0.180   2.106  0.1959 -0.1003  0.0896
  763SOL     OW 3049   2.374   1.053   2.296  0.0285 -0.7463  0.1556
  763SOL    HW1 3050   2.425   0.996   2.233  0.8410 -0.7659 -2.5519
  763SOL    HW2 3051   2.438   1.113   2.346 -0.1137 -0.0468  0.0330
  763SOL     MW 3052   2.389   1.054   2.294  0.1169 -0.6566 -0.2178
  764SOL     OW 3053   0.443   0.280   2.781 -0.0718 -0.3508  0.0708
  764SOL    HW1 3054   0.381   0.214   2.784  0.4597  0.7003 -0.1714
  764SOL    HW2 3055   0.409   0.354   2.833 -2.1666 -2.0485 -2.2097
  764SOL     MW 3056   0.430   0.281   2.788 -0.2781 -0.4361 -0.2620
  765SOL     OW 3057   2.764   0.061   2.318 -0.1742 -0.6623  0.0866
  765SOL    HW1 3058   2.717   0.057   2.230 -0.1644  1.4331  0.4342
  765SOL    HW2 3059   2.791  -0.026   2.346 -0.9072  1.5755  1.4528
  765SOL     MW 3060   2.761   0.049   2.310 -0.2696 -0.0906  0.3127
  766SOL     OW 3061   1.820   2.978   2.171  0.6507  0.2348 -0.2882
  766SOL    HW1 3062   1.873   3.014   2.103  0.2526  0.3585  0.1966
  766SOL    HW2 3063   1.789   2.888   2.135 -0.4401 -1.6135 -2.2121
  766SOL     MW 3064   1.823   2.971   2.157  0.4543  0.0073 -0.4781
  767SOL     OW 3065   2.648   0.617   1.899 -0.0554 -0.3923  0.2669
  767SOL    HW1 3066   2.687   0.676   1.962  1.6040 -0.4995 -1.6468
  767SOL    HW2 3067   2.559   0.612   1.931  0.2427 -1.5398  1.8594
  767SOL     MW 3068   2.641   0.624   1.911  0.2029 -0.5578  0.2245
  768SOL     OW 3069   0.001   1.554   2.953  0.0661 -0.0942 -0.1373
  768SOL    HW1 3070   0.023   1.522   3.043  2.0181  0.0663  3.1525
  768SOL    HW2 3071   0.024   1.474   2.907 -0.5229  3.1382 -1.6821
  768SOL     MW 3072   0.007   1.540   2.959  0.2459  0.3534  0.0929
  769SOL     OW 3073   2.442   0.654   2.327  0.5074 -0.4739 -0.1971
  769SOL    HW1 3074   2.354   0.637   2.309  3.2395 -0.5910  2.9239
  769SOL    HW2 3075   2.493   0.585   2.290  0.6676  2.5031  0.2306
  769SOL     MW 3076   2.437   0.642   2.320  0.8890 -0.0966  0.2711
  770SOL     OW 3077   0.108   1.597   2.607 -0.2791 -0.2840  0.4641
  770SOL    HW1 3078   0.012   1.609   2.631 -0.1489 -1.2866 -1.4940
  770SOL    HW2 3079   0.131   1.521   2.658 -0.4291  0.8634 -1.0978
  770SOL     MW 3080   0.098   1.589   2.617 -0.2817 -0.2649 -0.0004
  771SOL     OW 3081   3.020   0.639   1.966  0.8862  0.4709  0.5331
  771SOL    HW1 3082   2.985   0.648   1.877  1.4827  0.4155  2.6204
  771SOL    HW2 3083   3.112   0.662   1.955  0.3473 -3.3025  0.5174
  771SOL     MW 3084   3.027   0.643   1.953  0.8938 -0.0343  0.8064
  772SOL     OW 3085   3.083   3.104   2.325 -0.0386  0.1464  0.7005
  772SOL    HW1 3086   3.002   3.055   2.320 -1.1271  1.9401 -0.7440
  772SOL    HW2 3087   3.144   3.034   2.300 -2.8583  0.4513  0.3815
  772SOL     MW 3088   3.081   3.089   2.321 -0.5543  0.4233  0.4678
  773SOL     OW 3089   2.469   2.845   2.745  0.0781 -0.2099  0.0728
  773SOL    HW1 3090   2.492   2.769   2.690  0.7534  1.5023  0.8436
  773SOL    HW2 3091   2.443   2.818   2.835  1.2249  0.4826  0.9802
  773SOL     MW 3092   2.468   2.831   2.750  0.3185  0.1074  0.2942
  774SOL     OW 3093   2.314   1.121   1.712  0.3569 -0.0328 -0.0549
  774SOL    HW1 3094   2.314   1.195   1.647  0.2042  3.5069  1.8500
  774SOL    HW2 3095   2.264   1.048   1.670 -0.2150  3.3027  0.7840
  774SOL     MW 3096   2.308   1.121   1.698  0.2613  0.8743  0.3071
  775SOL     OW 3097   2.274   2.908   2.320  0.0421 -0.2986 -0.5193
  775SOL    HW1 3098   2.298   2.978   2.257 -0.1245  2.0476 -0.0859
  775SOL    HW2 3099   2.328   2.828   2.299 -0.7217 -3.3064  0.5495
  775SOL     MW 3100   2.284   2.907   2.309 -0.0807 -0.3859 -0.3211
  776SOL     OW 3101   0.100   1.483   0.089  0.7255 -0.2275  0.4610
  776SOL    HW1 3102   0.184   1.453   0.088 -2.5624 -0.3005 -2.9483
  776SOL    HW2 3103   0.047   1.410   0.125 -0.8394 -2.7079 -2.0776
  776SOL     MW 3104   0.104   1.470   0.094  0.0852 -0.5644 -0.3238
  777SOL     OW 3105   2.959   1.081   1.774 -0.0934  0.5786  0.0652
  777SOL    HW1 3106   2.889   1.141   1.755 -0.1082 -1.7255 -3.2236
  777SOL    HW2 3107   2.916   1.014   1.821 -0.6249 -0.4867  0.8564
  777SOL     MW 3108   2.944   1.080   1.778 -0.1655  0.1341 -0.2643
  778SOL     OW 3109   2.903   0.400   2.831 -0.1390  0.4007  0.6402
  778SOL    HW1 3110   2.845   0.442   2.892 -1.3132 -1.0218  0.2085
  778SOL    HW2 3111   2.921   0.473   2.765 -2.2759 -1.5972 -0.7297
  778SOL     MW 3112   2.898   0.415   2.831 -0.5758 -0.0506  0.4025
  779SOL     OW 3113   2.141   0.613   2.337  0.1334  0.2065  0.1637
  779SOL    HW1 3114   2.098   0.654   2.419  2.4368  0.3328 -2.4900
  779SOL    HW2 3115   2.149   0.530   2.373  0.4867  1.3606 -0.0615
  779SOL     MW 3116   2.137   0.608   2.352  0.4839  0.3755 -0.2161
  780SOL     OW 3117   0.232   0.085   2.785 -0.0860 -0.3427 -0.7889
  780SOL    HW1 3118   0.171   0.147   2.827  0.7553  0.5874  0.6380
  780SOL    HW2 3119   0.195   0.069   2.700  2.8425  1.9259 -0.4782
  780SOL     MW 3120   0.219   0.091   2.779  0.4114  0.0793 -0.5597
  781SOL     OW 3121   3.022   1.296   2.488  0.7288 -0.2656  0.0260
  781SOL    HW1 3122   3.009   1.351   2.413  0.9143  0.3364 -0.5470
  781SOL    HW2 3123   3.058   1.213   2.459 -0.1636 -1.0996 -1.9660
  781SOL     MW 3124   3.025   1.292   2.475  0.6356 -0.2962 -0.3125
  782SOL     OW 3125   0.586   1.512   3.057 -0.6618 -0.1106 -0.1547
  782SOL    HW1 3126   0.563   1.602   3.029  0.3219  3.1427 -0.0872
  782SOL    HW2 3127   0.548   1.512   3.143 -0.5680  1.9148 -3.6438
  782SOL     MW 3128   0.578   1.524   3.065 -0.5196  0.5858 -0.6061
  783SOL     OW 3129   2.746   0.501   2.457  1.0018 -0.2743 -0.1922
  783SOL    HW1 3130   2.693   0.499   2.376  0.2792  1.3096  0.1214
  783SOL    HW2 3131   2.699   0.456   2.527  0.2761 -0.1264 -1.4526
  783SOL     MW 3132   2.733   0.495   2.456  0.8107 -0.0458 -0.3171
  784SOL     OW 3133   0.296   0.927   2.884  0.3834  0.5966 -0.0013
  784SOL    HW1 3134   0.244   0.992   2.930 -0.9181 -4.1016 -0.8620
  784SOL    HW2 3135   0.326   0.975   2.800  1.5339  1.8178 -2.5595
  784SOL     MW 3136   0.293   0.942   2.879  0.3635  0.1378 -0.4524
  785SOL     OW 3137   0.439   0.554   2.177 -0.0927  0.1604  0.0502
  785SOL    HW1 3138   0.456   0.583   2.082  2.7510 -1.4224  0.3170
  785SOL    HW2 3139   0.347   0.518   2.182  0.5042 -1.6515  0.7874
  785SOL     MW 3140   0.429   0.553   2.165  0.3613 -0.2875  0.1827
  786SOL     OW 3141   1.980   0.468   2.825  0.1652  0.1549  0.0432
  786SOL    HW1 3142   1.992   0.488   2.921  2.3127 -3.3462 -1.8365
  786SOL    HW2 3143   2.068   0.444   2.800  4.2083  0.5300 -3.1784
  786SOL     MW 3144   1.994   0.468   2.834  0.9820 -0.2576 -0.6298
  787SOL     OW 3145   2.434   0.147   2.947 -0.1446 -0.1588 -0.0799
  787SOL    HW1 3146   2.487   0.095   2.883  0.5863  0.3492 -0.9384
  787SOL    HW2 3147   2.488   0.222   2.967  3.0411 -1.2793 -4.4952
  787SOL     MW 3148   2.448   0.150   2.941  0.3721 -0.2396 -0.7757
  788SOL     OW 3149   2.859   2.913   2.374  0.3092 -0.6362 -0.3920
  788SOL    HW1 3150   2.801   2.855   2.318 -0.0177 -2.0104  0.3200
  788SOL    HW2 3151   2.922   2.862   2.419 -0.9647  2.3161  0.4296
  788SOL     MW 3152   2.860   2.899   2.373  0.0980 -0.4280 -0.1896
  789SOL     OW 3153   0.117   0.271   2.947 -0.5515  0.2501  0.3402
  789SOL    HW1 3154   0.034   0.260   2.988 -0.2967 -0.3552 -3.1414
  789SOL    HW2 3155   0.111   0.370   2.946 -0.0277  0.2544 -0.0225
  789SOL     MW 3156   0.105   0.282   2.952 -0.4487  0.1708 -0.1670
  790SOL     OW 3157   3.064   1.028   2.416 -0.2859  0.3309 -0.0721
  790SOL    HW1 3158   3.011   0.977   2.482  1.4227 -1.9066  1.3420
  790SOL    HW2 3159   3.009   1.024   2.334  4.5293 -0.5297  0.5535
  790SOL     MW 3160   3.049   1.021   2.414  0.5748 -0.0778  0.1970
  791SOL     OW 3161   2.680   0.342   2.672 -0.8604  0.7753  0.6520
  791SOL    HW1 3162   2.604   0.395   2.707 -1.9577  2.0597  0.1415
  791SOL    HW2 3163   2.759   0.356   2.724 -0.2562 -0.2493  1.1351
  791SOL     MW 3164   2.680   0.351   2.683 -0.9255  0.8095  0.6484
  792SOL     OW 3165   2.399   0.230   2.341  0.0437  0.2005 -0.0366
  792SOL    HW1 3166   2.322   0.279   2.368  2.1257  2.5442 -0.6358
  792SOL    HW2 3167   2.431   0.193   2.421  0.3112  1.0453  4.0061
  792SOL     MW 3168   2.393   0.232   2.355  0.3537  0.6212  0.4177
  793SOL     OW 3169   1.833   1.063   1.942 -0.4952 -0.1777 -0.0832
  793SOL    HW1 3170   1.827   1.063   1.843 -3.6035  0.2330 -2.3238
  793SOL    HW2 3171   1.907   1.007   1.955 -2.4075  2.4992 -2.4275
  793SOL     MW 3172   1.842   1.055   1.931 -1.1576  0.2297 -0.6881
  794SOL     OW 3173   1.458   2.252   0.167  0.6191 -0.2152 -0.7579
  794SOL    HW1 3174   1.472   2.311   0.089 -1.5593 -1.4596 -1.3463
  794SOL    HW2 3175   1.515   2.285   0.241  1.2521 -1.4991  0.4181
  794SOL     MW 3176   1.468   2.264   0.167  0.4152 -0.5488 -0.6804
  795SOL     OW 3177   2.316   0.949   2.601 -0.6566 -0.2356  0.6276
  795SOL    HW1 3178   2.302   1.022   2.658  1.8751  0.2525 -0.1051
  795SOL    HW2 3179   2.343   0.979   2.517  2.1062 -1.5255 -1.2698
  795SOL     MW 3180   2.318   0.963   2.598  0.0420 -0.3414  0.2806
  796SOL     OW 3181   0.252   0.646   2.766  0.1515 -0.2529  0.1089
  796SOL    HW1 3182   0.242   0.736   2.794 -1.9074 -0.4075  1.1255
  796SOL    HW2 3183   0.187   0.645   2.693 -0.2918  1.6709  0.6086
  796SOL     MW 3184   0.242   0.658   2.760 -0.1787 -0.0195  0.3089
  797SOL     OW 3185   2.599   0.122   2.533  0.3196  0.0819 -0.3179
  797SOL    HW1 3186   2.639   0.190   2.578  2.1937  1.6285 -0.7227
  797SOL    HW2 3187   2.658   0.090   2.462 -1.0419 -0.2881 -0.0410
  797SOL     MW 3188   2.612   0.126   2.530  0.3872  0.2371 -0.3348
  798SOL     OW 3189   2.365   0.026   2.181 -0.1435 -0.1358  0.3016
  798SOL    HW1 3190   2.373   0.087   2.257 -0.0156 -2.5120  1.5575
  798SOL    HW2 3191   2.461   0.027   2.163  1.9703 -1.7790 -2.2836
  798SOL     MW 3192   2.379   0.034   2.189  0.1523 -0.6661  0.1262
  799SOL     OW 3193   2.452   2.939   0.169 -0.1001  0.1590  0.0793
  799SOL    HW1 3194   2.438   2.865   0.113  0.4322  0.0534  1.8615
  799SOL    HW2 3195   2.401   3.010   0.134  0.8685 -0.5504  0.3527
  799SOL     MW 3196   2.443   2.939   0.157  0.0980  0.0515  0.3505
  800SOL     OW 3197   1.836   3.077   1.786  0.3186 -0.3068  0.1091
  800SOL    HW1 3198   1.787   3.002   1.814 -0.4353  0.6893  2.4937
  800SOL    HW2 3199   1.923   3.064   1.831 -0.7960  1.1467  2.3130
  800SOL     MW 3200   1.841   3.066   1.796  0.0721  0.0164  0.7145
  801SOL     OW 3201   2.791   1.275   2.647  0.0997 -0.6806 -0.1857
  801SOL    HW1 3202   2.744   1.212   2.591  1.2356  0.9546  1.2602
  801SOL    HW2 3203   2.877   1.292   2.597 -3.3528 -1.0565 -1.4502
  801SOL     MW 3204   2.796   1.269   2.633 -0.2060 -0.5144 -0.1618
  802SOL     OW 3205   2.556   1.546   2.810  0.0413 -0.2647  0.1115
  802SOL    HW1 3206   2.524   1.478   2.749 -0.1589 -1.7819 -1.1601
  802SOL    HW2 3207   2.655   1.521   2.813  1.1716  1.1632 -1.0221
  802SOL     MW 3208   2.565   1.533   2.802  0.1640 -0.2765 -0.2058
  803SOL     OW 3209   2.323   1.316   1.970  0.2060 -0.7473 -0.0201
  803SOL    HW1 3210   2.284   1.277   2.044 -0.8439  0.5284  1.3252
  803SOL    HW2 3211   2.268   1.283   1.898 -0.7418 -1.6663  1.9963
  803SOL     MW 3212   2.311   1.306   1.970 -0.0576 -0.7002  0.4235
  804SOL     OW 3213   2.305   0.046   0.079  0.2349  0.4277 -0.1083
  804SOL    HW1 3214   2.226   0.102   0.078  0.7920  0.7487  0.0369
  804SOL    HW2 3215   2.376   0.077   0.019 -1.9709 -0.0067 -1.0550
  804SOL     MW 3216   2.304   0.057   0.071  0.0174  0.4127 -0.2141
  805SOL     OW 3217   2.700   1.042   2.534 -0.6479  0.3412  0.2455
  805SOL    HW1 3218   2.635   0.978   2.562  0.1612  2.1262  3.0792
  805SOL    HW2 3219   2.787   1.000   2.539  0.5162 -0.1063 -0.4629
  805SOL     MW 3220   2.703   1.028   2.538 -0.3876  0.5177  0.5260
  806SOL     OW 3221   2.570   0.409   2.242 -0.1516  0.3918  0.2309
  806SOL    HW1 3222   2.512   0.330   2.268  0.9981 -0.4180 -1.5294
  806SOL    HW2 3223   2.585   0.407   2.146 -0.8794  2.1871 -0.5639
  806SOL     MW 3224   2.564   0.399   2.232 -0.0960  0.5218 -0.1062
  807SOL     OW 3225   3.086   1.110   2.093  0.3422 -0.0525  0.8908
  807SOL    HW1 3226   3.136   1.039   2.059 -3.2852  1.7638  0.1191
  807SOL    HW2 3227   2.992   1.069   2.109 -0.3413 -0.5191 -1.8789
  807SOL     MW 3228   3.080   1.096   2.090 -0.2266  0.1256  0.4236
  808SOL     OW 3229   2.579   3.094   2.788  0.0106 -0.6949  0.2092
  808SOL    HW1 3230   2.565   3.002   2.770 -1.8289  0.4520  1.0379
  808SOL    HW2 3231   2.594   3.133   2.705  0.1799  1.3998  0.2799
  808SOL     MW 3232   2.579   3.087   2.775 -0.2098 -0.2672  0.3278
  809SOL     OW 3233   2.542   1.230   2.394 -0.0851 -0.3869  0.5384
  809SOL    HW1 3234   2.604   1.186   2.441 -3.5628 -0.1231  0.7470
  809SOL    HW2 3235   2.590   1.245   2.312  0.5953 -0.6067 -0.2064
  809SOL     MW 3236   2.556   1.226   2.389 -0.4542 -0.3811  0.4677
  810SOL     OW 3237   2.204   1.252   2.213 -0.4672 -0.1306 -0.4753
  810SOL    HW1 3238   2.248   1.174   2.251  0.2216  0.8280 -0.9360
  810SOL    HW2 3239   2.107   1.238   2.216  1.8932 -0.5266 -1.2997
  810SOL     MW 3240   2.197   1.240   2.219 -0.0649 -0.0564 -0.6449
  811SOL     OW 3241   1.517   0.090   2.298  0.1288 -0.3512 -0.4384
  811SOL    HW1 3242   1.599   0.038   2.301  3.9953 -2.0958  4.6457
  811SOL    HW2 3243   1.497   0.119   2.206 -1.9195 -0.1881 -2.6941
  811SOL     MW 3244   1.526   0.087   2.286  0.3687 -0.5598 -0.0652
  812SOL     OW 3245   1.450   2.774   2.045  0.2191  0.2430  0.2582
  812SOL    HW1 3246   1.546   2.766   2.029  1.2030  0.6580  0.5759
  812SOL    HW2 3247   1.448   2.789   2.142 -3.4954  0.6483  0.1237
  812SOL     MW 3248   1.463   2.775   2.056 -0.1412  0.3512  0.2824
  813SOL     OW 3249   1.796   0.708   2.211 -0.1854 -0.2312  0.6275
  813SOL    HW1 3250   1.764   0.617   2.217 -0.2458  1.5930 -0.0896
  813SOL    HW2 3251   1.862   0.727   2.279 -0.8211  2.8376 -2.0225
  813SOL     MW 3252   1.801   0.699   2.221 -0.2772  0.4144  0.1832
  814SOL     OW 3253   2.753   1.251   1.631 -0.2255  0.4213 -0.0993
  814SOL    HW1 3254   2.655   1.242   1.647 -1.1049 -1.2082 -1.0665
  814SOL    HW2 3255   2.774   1.200   1.553 -0.0576  0.4351 -1.3198
  814SOL     MW 3256   2.743   1.243   1.623 -0.3194  0.2081 -0.3880
  815SOL     OW 3257   2.505   1.665   2.392 -0.3016  0.0102 -0.1751
  815SOL    HW1 3258   2.452   1.587   2.386  0.9653  2.2746  3.0955
  815SOL    HW2 3259   2.598   1.633   2.404  0.7300 -3.4281  2.8004
  815SOL     MW 3260   2.510   1.651   2.393  0.0016 -0.1447  0.6490
  816SOL     OW 3261   0.755   0.649   2.752  0.1488  0.4389 -0.6625
  816SOL    HW1 3262   0.756   0.611   2.837 -1.3999  1.0728 -2.5938
  816SOL    HW2 3263   0.665   0.638   2.721 -1.4037 -1.3416  1.5923
  816SOL     MW 3264   0.743   0.642   2.759 -0.2603  0.2876 -0.6199
  817SOL     OW 3265   3.055   1.164   1.371  0.0286 -0.3034 -0.0846
  817SOL    HW1 3266   3.089   1.185   1.459 -2.7622  0.1799  0.2200
  817SOL    HW2 3267   3.031   1.255   1.346  1.4378 -0.6694  1.0956
  817SOL     MW 3268   3.056   1.179   1.379 -0.1537 -0.2879  0.1113
  818SOL     OW 3269   1.907   1.023   2.730 -0.1083  0.5549 -0.4741
  818SOL    HW1 3270   1.942   1.083   2.667  0.1606  1.2821  0.7233
  818SOL    HW2 3271   1.983   0.965   2.754 -0.7186 -1.6657 -3.6238
  818SOL     MW 3272   1.921   1.023   2.725 -0.1534  0.3579 -0.7317
  819SOL     OW 3273   1.965   0.237   2.477  0.1459  0.1553 -0.3262
  819SOL    HW1 3274   1.912   0.315   2.486  1.2067 -2.5048 -1.3823
  819SOL    HW2 3275   1.996   0.212   2.568  2.8278 -1.5399 -2.4218
  819SOL     MW 3276   1.962   0.244   2.490  0.6398 -0.4193 -0.7420
  820SOL     OW 3277   2.480   1.746   2.650 -0.0568  0.2708 -0.2505
  820SOL    HW1 3278   2.516   1.684   2.714  0.4571 -0.6104 -0.0639
  820SOL    HW2 3279   2.494   1.712   2.565  1.5870 -1.8708  3.9815
  820SOL     MW 3280   2.486   1.733   2.647  0.2279 -0.1281  0.3325
  821SOL     OW 3281   2.597   1.348   1.973  0.2354 -0.0589 -0.2463
  821SOL    HW1 3282   2.636   1.437   1.969 -2.0192  1.1025 -1.7198
  821SOL    HW2 3283   2.502   1.363   1.980  1.4474 -0.9141 -0.1213
  821SOL     MW 3284   2.589   1.361   1.973  0.0978 -0.0185 -0.4242
  822SOL     OW 3285   2.838   2.683   1.463  0.2487  0.0932 -0.4112
  822SOL    HW1 3286   2.911   2.714   1.516 -2.9651 -0.9993  0.8932
  822SOL    HW2 3287   2.797   2.760   1.433  0.1205 -1.4920 -0.3890
  822SOL     MW 3288   2.843   2.697   1.466 -0.1923 -0.2601 -0.2362
  823SOL     OW 3289   2.262   0.451   1.796  0.4101  0.0383  0.7080
  823SOL    HW1 3290   2.341   0.456   1.736  0.9797  2.7018  0.2956
  823SOL    HW2 3291   2.186   0.394   1.759  0.2969 -1.5893  3.4418
  823SOL     MW 3292   2.262   0.444   1.783  0.4703  0.1750  1.0143
  824SOL     OW 3293   2.087   1.401   2.498  0.0997 -0.1964  0.5366
  824SOL    HW1 3294   2.172   1.431   2.500  0.2940  0.0882  0.2597
  824SOL    HW2 3295   2.047   1.468   2.550  1.8180  3.5383 -1.6934
  824SOL     MW 3296   2.093   1.414   2.505  0.3520  0.3339  0.2058
  825SOL     OW 3297   2.079   2.549   0.359  0.3847  0.0128  0.5119
  825SOL    HW1 3298   2.022   2.486   0.402  1.5080 -0.0855 -3.5521
  825SOL    HW2 3299   2.127   2.495   0.299  3.1096 -1.8372  1.0143
  825SOL     MW 3300   2.078   2.533   0.356  0.8925 -0.2442  0.0420
  826SOL     OW 3301   1.871   2.385   0.475 -0.6995  0.6237 -0.2217
  826SOL    HW1 3302   1.874   2.304   0.529 -2.6787 -0.1573 -0.4358
  826SOL    HW2 3303   1.859   2.463   0.537 -4.8908 -2.7951 -0.8098
  826SOL     MW 3304   1.870   2.385   0.490 -1.5136  0.0696 -0.3276
  827SOL     OW 3305   1.956   2.170   0.840  0.3370 -0.3398  0.1334
  827SOL    HW1 3306   1.907   2.188   0.756 -1.7486  0.9751  1.3937
  827SOL    HW2 3307   1.897   2.106   0.889  0.4884  0.7805 -2.0335
  827SOL     MW 3308   1.942   2.164   0.835  0.0818 -0.0185  0.0138
  828SOL     OW 3309   0.048   2.620   0.505  0.3425 -0.0527  0.0920
  828SOL    HW1 3310   0.141   2.623   0.514 -1.7706 -1.0623  1.1036
  828SOL    HW2 3311   0.035   2.695   0.443 -0.2735 -0.4533 -0.5047
  828SOL     MW 3312   0.059   2.630   0.498 -0.0175 -0.2387  0.1467
  829SOL     OW 3313   3.004   2.929   1.209 -0.1840 -0.4707 -0.0206
  829SOL    HW1 3314   2.939   2.914   1.145  0.3428  1.2746 -1.1415
  829SOL    HW2 3315   3.064   2.851   1.195  1.5164 -2.6351  0.3038
  829SOL     MW 3316   3.004   2.917   1.199  0.1099 -0.5260 -0.1257
  830SOL     OW 3317   2.513   2.851   2.030  0.0598 -0.1688 -0.3693
  830SOL    HW1 3318   2.410   2.852   2.024 -2.0090 -0.1221 -1.4518
  830SOL    HW2 3319   2.532   2.833   1.939 -0.8341 -0.1674  1.7878
  830SOL     MW 3320   2.502   2.848   2.017 -0.3311 -0.1625 -0.2275
  831SOL     OW 3321   2.417   2.446   1.237  0.1405 -0.4185 -0.1324
  831SOL    HW1 3322   2.372   2.365   1.260  1.5914  1.1620 -1.8586
  831SOL    HW2 3323   2.509   2.417   1.221  2.9367  1.6921 -0.7426
  831SOL     MW 3324   2.423   2.431   1.238  0.7009  0.0685 -0.4407
  832SOL     OW 3325   2.382   2.126   1.800  0.3619 -0.1071 -0.6503
  832SOL    HW1 3326   2.399   2.219   1.822  0.5452  1.4347 -0.3196
  832SOL    HW2 3327   2.464   2.086   1.783 -0.1751  0.6811 -1.4130
  832SOL     MW 3328   2.395   2.133   1.801  0.3152  0.2003 -0.7073
  833SOL     OW 3329   1.777   2.503   0.926 -0.6389  0.9278  0.2246
  833SOL    HW1 3330   1.677   2.476   0.914 -1.5253 -3.3160 -3.2734
  833SOL    HW2 3331   1.768   2.565   0.996  4.7571 -0.0055  1.9591
  833SOL     MW 3332   1.763   2.508   0.934 -0.0439  0.2447 -0.0081
  834SOL     OW 3333   2.247   2.405   0.574  0.3256 -0.9442  0.3995
  834SOL    HW1 3334   2.188   2.329   0.586 -1.0021 -0.2413 -0.2718
  834SOL    HW2 3335   2.289   2.384   0.485  1.3391 -0.5338  2.0547
  834SOL     MW 3336   2.245   2.392   0.564  0.2842 -0.7974  0.5293
  835SOL     OW 3337   1.842   2.586   0.673 -0.4286 -0.0662 -0.0848
  835SOL    HW1 3338   1.810   2.545   0.758 -0.9480 -0.7215 -0.1831
  835SOL    HW2 3339   1.862   2.677   0.701 -3.9332 -1.2739 -0.6799
  835SOL     MW 3340   1.840   2.592   0.688 -0.9595 -0.3120 -0.1763
  836SOL     OW 3341   2.042   2.205   1.623  0.7248  0.3731 -0.2664
  836SOL    HW1 3342   2.119   2.158   1.589 -0.3989 -0.2109 -1.6493
  836SOL    HW2 3343   2.068   2.249   1.705  0.1849 -1.2822  1.5374
  836SOL     MW 3344   2.055   2.205   1.630  0.5053  0.0777 -0.2108
  837SOL     OW 3345   2.041   0.157   0.711  0.3756 -0.0380 -0.4301
  837SOL    HW1 3346   1.964   0.193   0.656  2.2436  2.6474 -0.4310
  837SOL    HW2 3347   2.107   0.131   0.649 -1.5800 -1.2413  1.9880
  837SOL     MW 3348   2.039   0.158   0.696  0.3640  0.1575 -0.1112
  838SOL     OW 3349   2.863   2.056   0.948  0.1156  0.0415  0.4759
  838SOL    HW1 3350   2.824   1.969   0.954  0.6858  1.5225  2.2332
  838SOL    HW2 3351   2.945   2.053   0.993 -0.6719  1.6173 -1.5618
  838SOL     MW 3352   2.869   2.045   0.955  0.0870  0.4448  0.4389
  839SOL     OW 3353   1.531   2.401   0.950  0.0073  0.0402 -0.0002
  839SOL    HW1 3354   1.477   2.459   1.003  2.0561  1.3907  1.7846
  839SOL    HW2 3355   1.575   2.341   1.011  0.8691  0.6831 -0.0106
  839SOL     MW 3356   1.530   2.400   0.965  0.3913  0.3032  0.2339
  840SOL     OW 3357   2.256   2.091   2.426  0.3145  0.7297  0.4387
  840SOL    HW1 3358   2.223   2.158   2.356 -0.0158  3.0215 -4.3375
  840SOL    HW2 3359   2.332   2.131   2.467 -0.7668  1.8338  3.3456
  840SOL     MW 3360   2.262   2.105   2.422  0.1283  1.1777  0.1920
  841SOL     OW 3361   2.264   2.434   0.054  0.6221  0.0575  0.1520
  841SOL    HW1 3362   2.285   2.500  -0.008  1.1049 -2.1462  2.9644
  841SOL    HW2 3363   2.199   2.382   0.008  0.3819  1.3360  0.3544
  841SOL     MW 3364   2.258   2.436   0.040  0.6541 -0.0646  0.5498
  842SOL     OW 3365   2.665   2.013   1.479 -0.1241 -0.0334 -0.8984
  842SOL    HW1 3366   2.632   1.926   1.492  0.6540 -2.0530  2.9418
  842SOL    HW2 3367   2.635   2.035   1.393  0.9690 -0.8482  3.0189
  842SOL     MW 3368   2.657   2.004   1.469  0.1228 -0.4074  0.1251
  843SOL     OW 3369   2.625   2.792   1.788  0.0467 -0.1573  0.1936
  843SOL    HW1 3370   2.714   2.764   1.810 -0.3163 -1.8774 -0.2044
  843SOL    HW2 3371   2.589   2.718   1.740 -0.6766 -1.5215 -1.0671
  843SOL     MW 3372   2.632   2.779   1.785 -0.0966 -0.5642 -0.0252
  844SOL     OW 3373   2.670   2.349   1.184  0.9105 -0.0212 -0.5810
  844SOL    HW1 3374   2.715   2.369   1.102  2.9707  0.2366  1.3740
  844SOL    HW2 3375   2.732   2.367   1.260 -0.9514 -2.3697 -1.0453
  844SOL     MW 3376   2.684   2.354   1.183  0.9367 -0.2971 -0.3844
  845SOL     OW 3377   2.861   2.578   0.355  0.1499  0.3766 -0.0861
  845SOL    HW1 3378   2.818   2.498   0.353  0.5893  2.2020  0.7518
  845SOL    HW2 3379   2.825   2.616   0.434 -1.7145  2.0117 -1.3885
  845SOL     MW 3380   2.850   2.573   0.365 -0.0381  0.8332 -0.1474
  846SOL     OW 3381   1.504   2.800   0.829  0.5191  0.1515  0.1358
  846SOL    HW1 3382   1.581   2.859   0.818  2.6642  0.6971 -0.4989
  846SOL    HW2 3383   1.432   2.862   0.841 -2.7253  0.4308 -3.5200
  846SOL     MW 3384   1.504   2.816   0.829  0.3741  0.2604 -0.4303
  847SOL     OW 3385   2.464   1.908   0.186 -0.0972  0.0454  0.2743
  847SOL    HW1 3386   2.481   1.828   0.244  2.0323 -0.1492 -1.6379
  847SOL    HW2 3387   2.416   1.883   0.105 -0.1051  0.6928 -1.4974
  847SOL     MW 3388   2.460   1.894   0.183  0.1827  0.1052 -0.2118
  848SOL     OW 3389   2.556   2.099   1.196 -0.5636  0.1467 -1.1311
  848SOL    HW1 3390   2.613   2.174   1.179  0.1276  0.2959 -1.4261
  848SOL    HW2 3391   2.546   2.064   1.109 -0.6261 -0.5413 -0.3557
  848SOL     MW 3392   2.562   2.104   1.182 -0.4807  0.0756 -1.0677
  849SOL     OW 3393   2.055   2.806   0.800 -0.3674  0.0411  0.2810
  849SOL    HW1 3394   2.057   2.740   0.868  0.5816  2.5363  1.0563
  849SOL    HW2 3395   2.122   2.777   0.732 -0.9942 -0.1266 -1.9621
  849SOL     MW 3396   2.064   2.794   0.800 -0.3249  0.3482  0.0873
  850SOL     OW 3397   2.262   1.797   1.634  0.4764  0.1148 -0.3039
  850SOL    HW1 3398   2.203   1.752   1.577 -0.2022 -1.3796 -0.4891
  850SOL    HW2 3399   2.245   1.894   1.617  1.9925  0.7524  0.3549
  850SOL     MW 3400   2.252   1.804   1.624  0.5869  0.0018 -0.2414
  851SOL     OW 3401   2.383   2.352   0.293 -0.5525  0.2607  0.0129
  851SOL    HW1 3402   2.363   2.385   0.205 -1.7652 -2.9066 -1.5876
  851SOL    HW2 3403   2.482   2.355   0.297  0.7547 -0.7833 -3.0709
  851SOL     MW 3404   2.394   2.357   0.282 -0.5400 -0.2949 -0.6052
  852SOL     OW 3405   2.340   2.088   0.337  0.2461 -0.4546 -0.2997
  852SOL    HW1 3406   2.365   2.175   0.306  1.5652 -1.4158 -2.8182
  852SOL    HW2 3407   2.388   2.040   0.268  0.0274 -2.0099 -0.0048
  852SOL     MW 3408   2.350   2.093   0.324  0.3913 -0.7866 -0.5931
  853SOL     OW 3409   2.458   2.386   1.885  0.1944 -0.8739 -0.0956
  853SOL    HW1 3410   2.465   2.460   1.823 -0.7527 -2.6169  0.4724
  853SOL    HW2 3411   2.546   2.394   1.926 -2.6871  0.3006  2.4428
  853SOL     MW 3412   2.471   2.397   1.882 -0.3107 -0.9489  0.3142
  854SOL     OW 3413   2.848   2.243   0.732 -0.3284 -0.6223 -0.2137
  854SOL    HW1 3414   2.753   2.223   0.710 -0.3077  1.5403 -0.2290
  854SOL    HW2 3415   2.871   2.177   0.801  0.4055 -0.3016 -0.9580
  854SOL     MW 3416   2.839   2.232   0.738 -0.2288 -0.2946 -0.3139
  855SOL     OW 3417   2.694   2.357   0.346  0.4029  0.0458  0.3510
  855SOL    HW1 3418   2.649   2.403   0.424  0.6276 -0.7305  3.3148
  855SOL    HW2 3419   2.728   2.273   0.376  0.5825  0.4430 -1.3515
  855SOL     MW 3420   2.692   2.352   0.360  0.4563 -0.0042  0.5174
  856SOL     OW 3421   2.147   1.914   0.243 -0.4002 -0.2508 -0.0799
  856SOL    HW1 3422   2.055   1.932   0.269  0.2028 -1.9033  0.8177
  856SOL    HW2 3423   2.210   1.973   0.283  2.6534 -4.8960  0.8357
  856SOL     MW 3424   2.143   1.924   0.252  0.0823 -1.0817  0.1593
  857SOL     OW 3425   2.468   1.963   0.529 -0.1717 -0.2937 -0.2905
  857SOL    HW1 3426   2.412   2.016   0.466  0.5339  0.0607 -2.2638
  857SOL    HW2 3427   2.404   1.920   0.594  0.6761  0.4625  1.9262
  857SOL     MW 3428   2.452   1.964   0.530  0.0333 -0.1472 -0.2584
  858SOL     OW 3429   2.905   2.678   1.784  0.3631 -0.4287  0.1563
  858SOL    HW1 3430   3.000   2.704   1.771  0.4497 -0.3660  2.4968
  858SOL    HW2 3431   2.904   2.582   1.795  0.6270 -1.0600  0.4393
  858SOL     MW 3432   2.917   2.668   1.784  0.4093 -0.5037  0.5024
  859SOL     OW 3433   2.072   2.644   1.052 -1.2963  0.8105  0.7434
  859SOL    HW1 3434   2.096   2.553   1.035 -0.2874 -0.6324  2.3657
  859SOL    HW2 3435   2.155   2.694   1.077  0.7862 -2.5239  2.9358
  859SOL     MW 3436   2.086   2.638   1.053 -0.8884  0.1801  1.2467
  860SOL     OW 3437   2.683   2.640   0.130 -0.2719  0.1881  0.2906
  860SOL    HW1 3438   2.736   2.656   0.217  0.2829  3.1209  2.0610
  860SOL    HW2 3439   2.702   2.725   0.078 -1.8759 -0.6034 -1.2940
  860SOL     MW 3440   2.692   2.653   0.135 -0.4104  0.4706  0.3151
  861SOL     OW 3441   1.630   2.173   1.107  0.0906  0.2010  0.3100
  861SOL    HW1 3442   1.674   2.224   1.171 -0.7817 -0.4058  1.0630
  861SOL    HW2 3443   1.567   2.122   1.160  0.4604 -2.2583  0.6617
  861SOL     MW 3444   1.628   2.173   1.122  0.0243 -0.2035  0.4558
  862SOL     OW 3445   2.512   1.770   1.485  0.1193  0.1392 -0.4103
  862SOL    HW1 3446   2.434   1.780   1.538 -1.4909  0.0863 -0.0620
  862SOL    HW2 3447   2.476   1.775   1.397 -2.2792  0.4397  1.0521
  862SOL     MW 3448   2.497   1.772   1.481 -0.4096  0.1719 -0.1714
  863SOL     OW 3449   2.980   1.778   1.035  0.3240  0.1312 -0.1739
  863SOL    HW1 3450   3.057   1.736   1.069 -1.3167  0.0393 -1.6657
  863SOL    HW2 3451   2.969   1.854   1.095 -0.7586 -0.5722 -0.2516
  863SOL     MW 3452   2.989   1.783   1.047 -0.0353  0.0263 -0.3810
  864SOL     OW 3453   0.062   1.832   0.830 -0.2285 -0.0095 -0.3016
  864SOL    HW1 3454   0.028   1.806   0.914  4.2446  0.8219 -1.3680
  864SOL    HW2 3455   0.006   1.799   0.762  1.2774 -0.7533  3.0396
  864SOL     MW 3456   0.050   1.824   0.832  0.5604  0.0021 -0.0015
  865SOL     OW 3457   2.574   2.155   0.028  1.2005  0.2957  0.0907
  865SOL    HW1 3458   2.586   2.073   0.073  0.6152 -2.1317 -0.8285
  865SOL    HW2 3459   2.526   2.148  -0.057 -2.4434 -0.8608  0.6809
  865SOL     MW 3460   2.569   2.143   0.023  0.6425 -0.1772  0.0473
  866SOL     OW 3461   2.660   2.333   1.593 -0.4016 -0.3009 -0.1250
  866SOL    HW1 3462   2.645   2.243   1.613 -0.8361  0.2413  1.4482
  866SOL    HW2 3463   2.721   2.342   1.515 -2.4551 -0.2921 -0.5922
  866SOL     MW 3464   2.666   2.323   1.585 -0.7299 -0.2282  0.0209
  867SOL     OW 3465   0.083   2.686   1.763 -0.2705 -0.1421 -0.5552
  867SOL    HW1 3466   0.127   2.758   1.814 -0.9388 -1.2396  0.6767
  867SOL    HW2 3467   0.115   2.706   1.670  2.4384 -1.5164 -1.0769
  867SOL     MW 3468   0.093   2.698   1.758 -0.0013 -0.4683 -0.4615
  868SOL     OW 3469   2.759   2.695   0.586  0.2180  0.1265 -0.2874
  868SOL    HW1 3470   2.678   2.638   0.592 -1.5841 -2.0765  1.8365
  868SOL    HW2 3471   2.721   2.775   0.556  1.5116 -0.7708  2.2072
  868SOL     MW 3472   2.743   2.698   0.583  0.1509 -0.2825  0.3219
  869SOL     OW 3473   2.085   2.363   1.037  0.4070  0.6113 -0.3470
  869SOL    HW1 3474   2.179   2.350   1.013  0.9378  0.2015 -2.1446
  869SOL    HW2 3475   2.045   2.338   0.951 -0.8669  4.2106 -0.4261
  869SOL     MW 3476   2.092   2.358   1.022  0.3090  1.0321 -0.5946
  870SOL     OW 3477   2.164   0.067   0.476  0.1149  0.5040  0.0534
  870SOL    HW1 3478   2.250   0.100   0.440  3.3642 -0.4779  1.9330
  870SOL    HW2 3479   2.186  -0.024   0.488 -0.9286  2.0095 -1.1811
  870SOL     MW 3480   2.178   0.060   0.473  0.4059  0.5731  0.1385
  871SOL     OW 3481   2.455   2.076   0.926  0.1181  0.1433  0.0574
  871SOL    HW1 3482   2.404   2.023   0.858 -3.6430 -2.5262  1.4485
  871SOL    HW2 3483   2.405   2.159   0.937  0.1389 -1.7940  3.6254
  871SOL     MW 3484   2.441   2.080   0.919 -0.3754 -0.4645  0.7117
  872SOL     OW 3485   2.056   2.521   1.504 -0.1013  0.6826  0.2056
  872SOL    HW1 3486   1.987   2.569   1.546  1.3942 -0.8295 -0.5776
  872SOL    HW2 3487   2.022   2.470   1.425  0.8162  0.0201  0.8323
  872SOL     MW 3488   2.042   2.521   1.499  0.2171  0.3957  0.1849
  873SOL     OW 3489   2.845   2.104   1.958 -0.1598  0.7111 -0.6909
  873SOL    HW1 3490   2.862   2.152   2.035 -1.9581 -0.1225 -2.7575
  873SOL    HW2 3491   2.925   2.120   1.907  0.2096  0.2103 -0.8797
  873SOL     MW 3492   2.858   2.112   1.961 -0.3483  0.5350 -0.9885
  874SOL     OW 3493   2.339   1.428   2.394  0.0095  0.0065 -0.6970
  874SOL    HW1 3494   2.281   1.396   2.325  1.3060  0.3531 -1.1559
  874SOL    HW2 3495   2.395   1.352   2.403 -0.6626 -2.3755 -0.3270
  874SOL     MW 3496   2.338   1.413   2.386  0.0919 -0.2620 -0.7087
  875SOL     OW 3497   2.362   2.343   0.971  0.3187  0.0343 -0.2306
  875SOL    HW1 3498   2.417   2.393   0.911  0.9161 -1.1225 -1.1186
  875SOL    HW2 3499   2.383   2.370   1.061 -0.4198  0.1192  1.2883
  875SOL     MW 3500   2.372   2.353   0.975  0.3001 -0.1071 -0.1473
  876SOL     OW 3501   3.079   2.264   1.354 -0.0810 -0.6219 -0.5702
  876SOL    HW1 3502   3.062   2.307   1.275 -0.1826  1.3166  1.4172
  876SOL    HW2 3503   3.153   2.309   1.396 -1.6506  2.4329 -3.1101
  876SOL     MW 3504   3.087   2.275   1.349 -0.3015  0.0369 -0.6431
  877SOL     OW 3505   0.005   2.801   0.318  0.4571  0.3596  0.3109
  877SOL    HW1 3506   0.062   2.870   0.291  0.2034  0.8376  1.3736
  877SOL    HW2 3507   0.001   2.739   0.249 -1.1418  1.4931  0.3430
  877SOL     MW 3508   0.012   2.802   0.305  0.2127  0.5722  0.4553
  878SOL     OW 3509   2.431   1.766   1.221  0.2636 -0.0150 -0.0343
  878SOL    HW1 3510   2.364   1.703   1.251  0.7919 -0.8537  0.7918
  878SOL    HW2 3511   2.512   1.708   1.209 -2.9207 -2.7905 -1.1842
  878SOL     MW 3512   2.433   1.750   1.223 -0.0868 -0.4918 -0.0770
  879SOL     OW 3513   2.765   2.431   0.950 -0.4819  0.3227 -0.5439
  879SOL    HW1 3514   2.839   2.492   0.962  0.3406  1.7918  1.1612
  879SOL    HW2 3515   2.803   2.365   0.889  4.0962 -2.1978 -0.4633
  879SOL     MW 3516   2.780   2.431   0.943  0.2306  0.1839 -0.3083
  880SOL     OW 3517   2.596   2.184   0.667  0.2052  0.7508 -0.1500
  880SOL    HW1 3518   2.564   2.161   0.751  0.5588  0.3994  0.4250
  880SOL    HW2 3519   2.558   2.114   0.615 -4.0498 -2.4723 -2.1036
  880SOL     MW 3520   2.587   2.172   0.671 -0.3096  0.2792 -0.3319
  881SOL     OW 3521   3.000   2.735   0.691  0.2028  0.3741 -0.0140
  881SOL    HW1 3522   2.906   2.721   0.671  0.9585 -0.5699  1.4588
  881SOL    HW2 3523   3.039   2.682   0.613 -0.1887 -1.1303 -2.2090
  881SOL     MW 3524   2.993   2.726   0.678  0.2508  0.0511 -0.1093
  882SOL     OW 3525   2.259   2.845   1.957  0.4461  0.0169 -0.1599
  882SOL    HW1 3526   2.261   2.889   1.867 -0.3665  0.5549  0.4285
  882SOL    HW2 3527   2.205   2.757   1.950 -1.5212  0.4731  0.2237
  882SOL     MW 3528   2.252   2.839   1.944  0.0794  0.1481 -0.0316
  883SOL     OW 3529   2.351   2.202   1.355  0.2028 -0.0521 -0.1499
  883SOL    HW1 3530   2.405   2.143   1.297 -2.8121  2.5631  1.7274
  883SOL    HW2 3531   2.258   2.195   1.324  1.9166 -0.4148 -1.0739
  883SOL     MW 3532   2.346   2.193   1.343  0.0311  0.2451 -0.0241
  884SOL     OW 3533   1.964   1.803   1.061  0.3418 -0.2636 -0.4134
  884SOL    HW1 3534   1.912   1.880   1.037  0.2039  0.6760 -1.3896
  884SOL    HW2 3535   2.049   1.837   1.082 -1.7658 -0.0877  1.4205
  884SOL     MW 3536   1.968   1.818   1.061  0.0456 -0.1165 -0.3002
  885SOL     OW 3537   2.838   2.396   1.787 -0.2178 -0.1332 -0.3588
  885SOL    HW1 3538   2.915   2.331   1.787  0.7399 -0.5068 -0.3563
  885SOL    HW2 3539   2.778   2.375   1.714  0.0910  0.7409  2.3242
  885SOL     MW 3540   2.840   2.385   1.777 -0.0507 -0.0672 -0.0045
  886SOL     OW 3541   2.831   2.425   1.394  0.6055  0.5697  0.2220
  886SOL    HW1 3542   2.909   2.379   1.390 -1.6316  1.1911 -3.0389
  886SOL    HW2 3543   2.852   2.517   1.394  0.5606  1.4320 -1.1681
  886SOL     MW 3544   2.844   2.431   1.394  0.3044  0.7654 -0.3916
  887SOL     OW 3545   2.283   2.676   1.539  0.5944  0.0831  0.1099
  887SOL    HW1 3546   2.326   2.664   1.452 -0.7106  1.3287 -2.6662
  887SOL    HW2 3547   2.211   2.612   1.530  0.9261 -1.4800 -2.3622
  887SOL     MW 3548   2.279   2.666   1.526  0.4660  0.0412 -0.5825
  888SOL     OW 3549   1.891   2.165   1.400  0.6356  0.7415 -0.2578
  888SOL    HW1 3550   1.961   2.184   1.334 -0.1056 -0.4603 -2.0147
  888SOL    HW2 3551   1.927   2.200   1.486  0.7440 -0.5057 -0.1759
  888SOL     MW 3552   1.905   2.173   1.403  0.5521  0.4184 -0.4788
  889SOL     OW 3553   2.350   1.999   2.064 -0.0634 -0.4844 -0.2316
  889SOL    HW1 3554   2.424   1.942   2.066  0.1225 -0.5878 -1.6295
  889SOL    HW2 3555   2.354   2.047   1.981 -1.2385 -1.1995 -1.3169
  889SOL     MW 3556   2.361   1.998   2.053 -0.1939 -0.5924 -0.5592
  890SOL     OW 3557   0.115   2.387   0.151  0.6063 -0.1479  0.1058
  890SOL    HW1 3558   0.068   2.474   0.139  0.8802 -1.5032  1.0919
  890SOL    HW2 3559   0.053   2.337   0.212  1.6718 -1.1111 -1.1096
  890SOL     MW 3560   0.101   2.392   0.158  0.7830 -0.4538  0.0756
  891SOL     OW 3561   3.042   1.974   1.238 -0.4858  0.1481 -0.2771
  891SOL    HW1 3562   3.128   1.921   1.251 -2.3254 -2.5740 -0.0387
  891SOL    HW2 3563   3.066   2.061   1.276 -1.4650  1.7437 -2.8453
  891SOL     MW 3564   3.057   1.979   1.245 -0.8577 -0.0005 -0.5845
  892SOL     OW 3565   2.460   2.380   2.752 -0.0020 -0.4252  0.3835
  892SOL    HW1 3566   2.429   2.323   2.820  1.0435  1.0820 -2.2205
  892SOL    HW2 3567   2.551   2.388   2.777  0.9915  1.9900 -0.2532
  892SOL     MW 3568   2.468   2.373   2.764  0.2670  0.0923 -0.0441
  893SOL     OW 3569   1.640   2.432   1.246  0.5627 -0.2227  0.9797
  893SOL    HW1 3570   1.563   2.430   1.307 -0.5902  0.1380  1.4688
  893SOL    HW2 3571   1.686   2.502   1.292 -0.5401  1.1377  1.4596
  893SOL     MW 3572   1.636   2.441   1.260  0.2651  0.0044  1.1076
  894SOL     OW 3573   2.724   1.870   0.473  0.3507 -0.6893 -0.2163
  894SOL    HW1 3574   2.638   1.904   0.490 -2.2099  1.9209  1.7263
  894SOL    HW2 3575   2.713   1.826   0.393  0.7747 -2.1857  2.0783
  894SOL     MW 3576   2.711   1.869   0.464  0.0688 -0.5423  0.3428
  895SOL     OW 3577   2.123   2.176   1.220 -0.1847  0.5549  0.2967
  895SOL    HW1 3578   2.107   2.223   1.139  0.7799  1.1077  0.8867
  895SOL    HW2 3579   2.151   2.090   1.180  0.5366  0.0969  0.4649
  895SOL     MW 3580   2.124   2.171   1.204  0.0377  0.5674  0.3968
  896SOL     OW 3581   2.249   2.836   1.099 -1.0869  0.9112  0.0937
  896SOL    HW1 3582   2.301   2.800   1.175 -0.2128 -3.8388 -1.8844
  896SOL    HW2 3583   2.195   2.906   1.137  0.0997 -3.4921  0.0941
  896SOL     MW 3584   2.249   2.841   1.114 -0.8150 -0.2965 -0.1672
  897SOL     OW 3585   3.072   3.026   3.049 -0.1325  0.0040  0.3043
  897SOL    HW1 3586   3.146   2.954   3.044 -1.1974  0.2381 -2.1601
  897SOL    HW2 3587   3.017   3.031   2.966  2.5340 -0.2130 -1.7031
  897SOL     MW 3588   3.075   3.017   3.037  0.0788  0.0063 -0.2857
  898SOL     OW 3589   2.044   0.181   1.474 -0.4673  0.0347 -0.7111
  898SOL    HW1 3590   2.026   0.088   1.506 -0.6566 -0.1054 -1.3392
  898SOL    HW2 3591   2.078   0.172   1.387  1.9504 -1.2510  0.3894
  898SOL     MW 3592   2.046   0.167   1.467 -0.1733 -0.1534 -0.6488
  899SOL     OW 3593   2.971   2.982   0.614 -0.0578  0.1555 -0.1162
  899SOL    HW1 3594   2.981   2.884   0.649 -0.3698 -0.6747  0.3536
  899SOL    HW2 3595   2.879   3.008   0.632 -0.1781  0.2097  1.2350
  899SOL     MW 3596   2.960   2.972   0.621 -0.1148  0.0531  0.1241
  900SOL     OW 3597   0.027   2.412   1.101  0.3200  0.2131 -0.1405
  900SOL    HW1 3598   0.018   2.509   1.095  1.9792  2.1438 -2.2467
  900SOL    HW2 3599   0.038   2.387   1.006 -1.0372 -0.9288 -0.3007
  900SOL     MW 3600   0.027   2.422   1.088  0.3598  0.3171 -0.4395
  901SOL     OW 3601   1.751   2.788   1.798 -0.1685 -0.2853 -0.2347
  901SOL    HW1 3602   1.828   2.766   1.751  1.7669 -0.6123 -0.6855
  901SOL    HW2 3603   1.669   2.776   1.748  0.1376 -2.4886 -0.6353
  901SOL     MW 3604   1.750   2.783   1.785  0.1273 -0.6191 -0.3470
  902SOL     OW 3605   2.655   2.084   1.755 -0.3923  0.3877 -0.3478
  902SOL    HW1 3606   2.690   2.067   1.663  1.3403 -1.3753 -2.6898
  902SOL    HW2 3607   2.733   2.095   1.808  0.2683 -0.9338 -2.1858
  902SOL     MW 3608   2.670   2.083   1.749 -0.0766 -0.0193 -0.8993
  903SOL     OW 3609   1.561   2.627   0.635  0.6478 -0.2551  0.2081
  903SOL    HW1 3610   1.654   2.636   0.645  1.1299  2.5793 -0.5854
  903SOL    HW2 3611   1.544   2.684   0.713  1.0948 -0.9687  1.8407
  903SOL     MW 3612   1.571   2.636   0.647  0.7704  0.0247  0.3188
  904SOL     OW 3613   2.472   2.571   1.683 -0.4391  0.0044  0.1882
  904SOL    HW1 3614   2.417   2.619   1.617  1.3217  2.6109 -1.4939
  904SOL    HW2 3615   2.525   2.508   1.632 -4.3208 -0.3447  1.2978
  904SOL     MW 3616   2.472   2.569   1.667 -0.7189  0.3022  0.1126
  905SOL     OW 3617   2.326   2.492   2.105 -0.1960  0.0052 -0.7162
  905SOL    HW1 3618   2.381   2.442   2.055  0.8658 -2.4363  2.8159
  905SOL    HW2 3619   2.286   2.426   2.166  1.6448  0.9009  1.0288
  905SOL     MW 3620   2.328   2.477   2.107  0.1869 -0.1988 -0.0199
  906SOL     OW 3621   2.535   2.470   0.815  0.3203  0.5962  0.6436
  906SOL    HW1 3622   2.622   2.459   0.854 -0.7185 -3.2361  0.9273
  906SOL    HW2 3623   2.518   2.562   0.833 -2.6507 -2.3321 -1.3745
  906SOL     MW 3624   2.544   2.481   0.823 -0.2087 -0.2958  0.4148
  907SOL     OW 3625   2.660   2.882   1.298 -0.1687 -0.0889 -0.5312
  907SOL    HW1 3626   2.711   2.942   1.360 -0.2264  1.2874  1.2981
  907SOL    HW2 3627   2.720   2.886   1.218 -0.9348  1.8413 -0.5451
  907SOL     MW 3628   2.675   2.890   1.296 -0.2774  0.3473 -0.2917
  908SOL     OW 3629   2.729   2.395   0.011 -0.6320  0.1573  0.0122
  908SOL    HW1 3630   2.671   2.326   0.047 -2.2488  0.1443  1.5942
  908SOL    HW2 3631   2.722   2.480   0.059  0.3852  0.6916 -1.0339
  908SOL     MW 3632   2.720   2.397   0.022 -0.7111  0.2261  0.0829
  909SOL     OW 3633   1.779   0.092   1.170 -0.4044  0.0512  0.0946
  909SOL    HW1 3634   1.753   0.155   1.105  0.1358  0.0155  1.0677
  909SOL    HW2 3635   1.723   0.132   1.242  0.1319  0.3537  1.6169
  909SOL     MW 3636   1.768   0.106   1.171 -0.2624  0.0864  0.4238
  910SOL     OW 3637   2.216   1.702   0.412  0.4661  0.3578 -0.3778
  910SOL    HW1 3638   2.151   1.626   0.413 -0.3849  0.9741 -1.6097
  910SOL    HW2 3639   2.180   1.766   0.348  1.8373  0.6032  0.3322
  910SOL     MW 3640   2.203   1.700   0.404  0.5347  0.4715 -0.4466
  911SOL     OW 3641   2.262   2.057   1.569  0.2772 -0.2017 -0.0271
  911SOL    HW1 3642   2.310   2.084   1.646  0.8988 -0.6332  1.4386
  911SOL    HW2 3643   2.302   2.109   1.496 -1.0771 -1.2727  2.2161
  911SOL     MW 3644   2.273   2.067   1.569  0.1805 -0.3999  0.4623
  912SOL     OW 3645   2.923   1.903   1.485  0.0915  0.3109  0.3154
  912SOL    HW1 3646   2.934   1.930   1.388 -0.3210 -2.0913  1.0672
  912SOL    HW2 3647   2.833   1.936   1.505  1.3475 -0.5626  0.5589
  912SOL     MW 3648   2.913   1.911   1.475  0.2028 -0.1213  0.4467
  913SOL     OW 3649   2.603   3.087   0.363  0.4772  0.0885  0.4573
  913SOL    HW1 3650   2.686   3.039   0.349  2.8671  1.2856 -2.2338
  913SOL    HW2 3651   2.534   3.048   0.305 -0.8932 -0.3004 -3.1364
  913SOL     MW 3652   2.605   3.076   0.353  0.6117  0.1951 -0.3719
  914SOL     OW 3653   2.689   1.828   3.018 -0.0469  0.2731  0.0491
  914SOL    HW1 3654   2.733   1.907   2.993 -1.7577  1.1258  0.8843
  914SOL    HW2 3655   2.592   1.839   3.014  1.5383 -2.9677 -0.4128
  914SOL     MW 3656   2.682   1.840   3.014 -0.0635 -0.0420  0.0983
  915SOL     OW 3657   1.750   0.192   0.233  0.7886 -0.3177 -0.1032
  915SOL    HW1 3658   1.830   0.132   0.251 -1.7721  0.5467  0.6786
  915SOL    HW2 3659   1.674   0.130   0.231 -1.2722 -0.2315 -0.0474
  915SOL     MW 3660   1.751   0.176   0.235  0.1789 -0.1923  0.0073
  916SOL     OW 3661   1.789   2.149   1.987 -0.4399  0.2070  0.0635
  916SOL    HW1 3662   1.852   2.222   1.972 -0.5300  0.5178 -0.5335
  916SOL    HW2 3663   1.788   2.110   1.895 -2.1567  0.4158 -0.8238
  916SOL     MW 3664   1.797   2.153   1.973 -0.6783  0.2755 -0.1324
  917SOL     OW 3665   2.501   2.198   2.558  0.1560  0.1920 -0.4654
  917SOL    HW1 3666   2.480   2.257   2.629  0.0984  1.5033  0.1626
  917SOL    HW2 3667   2.564   2.242   2.505  0.8027  0.1453 -1.4140
  917SOL     MW 3668   2.506   2.212   2.560  0.2337  0.3589 -0.5077
  918SOL     OW 3669   1.969   1.580   2.695  0.5807  0.1088  0.1874
  918SOL    HW1 3670   1.905   1.613   2.629  0.8016  1.3000 -0.7692
  918SOL    HW2 3671   2.041   1.644   2.693  0.8125  3.8374 -2.6710
  918SOL     MW 3672   1.970   1.593   2.686  0.6404  0.7579 -0.3159
  919SOL     OW 3673   3.064   2.401   2.323 -0.4087  0.3881 -0.1095
  919SOL    HW1 3674   2.996   2.337   2.291 -1.3888  0.6828  1.2244
  919SOL    HW2 3675   3.134   2.417   2.254  2.2063  1.1699 -3.2036
  919SOL     MW 3676   3.065   2.394   2.309 -0.1930  0.5301 -0.3418
  920SOL     OW 3677   2.703   2.868   3.080 -0.0950  0.1566  0.0041
  920SOL    HW1 3678   2.611   2.883   3.088  0.4101  0.4195 -2.6447
  920SOL    HW2 3679   2.710   2.790   3.021  0.9150 -1.3246 -2.5726
  920SOL     MW 3680   2.692   2.860   3.073  0.1049 -0.0042 -0.6854
  921SOL     OW 3681   2.463   2.598   2.589 -0.0007  0.0304  0.5880
  921SOL    HW1 3682   2.525   2.598   2.515 -2.1473  0.5910 -1.9403
  921SOL    HW2 3683   2.470   2.521   2.639 -0.6676  1.2859 -1.9032
  921SOL     MW 3684   2.472   2.588   2.586 -0.3719  0.2700 -0.0743
  922SOL     OW 3685   2.013   2.808   0.300  0.2071  0.1235  0.7400
  922SOL    HW1 3686   1.997   2.825   0.204 -0.9287 -0.8749  0.2159
  922SOL    HW2 3687   2.059   2.717   0.296 -1.5407 -1.2260 -0.3386
  922SOL     MW 3688   2.017   2.798   0.287 -0.1734 -0.1863  0.5285
  923SOL     OW 3689   2.204   2.879   1.684  0.2345 -0.1297  0.3543
  923SOL    HW1 3690   2.245   2.806   1.632  0.7105  0.0739  1.3648
  923SOL    HW2 3691   2.155   2.940   1.630  1.1798 -0.2939  1.3916
  923SOL     MW 3692   2.203   2.877   1.670  0.4220 -0.1245  0.6245
  924SOL     OW 3693   1.148   2.759   2.623 -0.2276  0.1286  0.8148
  924SOL    HW1 3694   1.243   2.749   2.618  0.9648  1.1838 -0.8487
  924SOL    HW2 3695   1.125   2.690   2.681 -0.8800  0.8102 -1.7890
  924SOL     MW 3696   1.157   2.749   2.630 -0.1563  0.3578  0.2517
  925SOL     OW 3697   3.036   0.211   2.684  0.4621  0.3602  0.1203
  925SOL    HW1 3698   2.975   0.238   2.607 -1.3363 -0.9481  1.9107
  925SOL    HW2 3699   3.006   0.275   2.755 -0.0682  0.0934 -1.3528
  925SOL     MW 3700   3.024   0.223   2.683  0.1548  0.1524  0.1622
  926SOL     OW 3701   2.709   2.390   2.024 -0.1709 -0.1855  0.1236
  926SOL    HW1 3702   2.729   2.474   2.077  0.6944  2.5018  0.2921
  926SOL    HW2 3703   2.765   2.401   1.940 -0.3923  0.4879 -1.4254
  926SOL     MW 3704   2.719   2.403   2.020 -0.0860  0.2579 -0.0586
  927SOL     OW 3705   2.361   0.177   0.317  0.3384  0.4478 -0.3539
  927SOL    HW1 3706   2.449   0.214   0.320 -0.4940 -1.4146 -0.1902
  927SOL    HW2 3707   2.347   0.132   0.226 -1.9873  0.3811 -2.1414
  927SOL     MW 3708   2.371   0.176   0.306 -0.0783  0.1932 -0.5682
  928SOL     OW 3709   2.143   2.442   1.743  0.0927  0.1340  0.2519
  928SOL    HW1 3710   2.130   2.478   1.653  0.8240 -0.1023  2.2583
  928SOL    HW2 3711   2.228   2.466   1.775 -0.7275  1.3570 -1.3545
  928SOL     MW 3712   2.152   2.450   1.736  0.0809  0.2642  0.3047
  929SOL     OW 3713   2.717   2.342   2.474 -0.1241  0.4433  0.0602
  929SOL    HW1 3714   2.765   2.309   2.392 -0.4814 -1.1146  1.5365
  929SOL    HW2 3715   2.784   2.329   2.546  3.3569 -2.8656 -0.1862
  929SOL     MW 3716   2.732   2.336   2.473  0.2881 -0.1988  0.2224
  930SOL     OW 3717   2.029   2.834   2.647  0.0194 -0.1360 -0.3212
  930SOL    HW1 3718   2.045   2.773   2.725 -0.0429 -0.4957 -2.6066
  930SOL    HW2 3719   2.109   2.887   2.637  0.1006 -0.9332  0.1668
  930SOL     MW 3720   2.042   2.833   2.656  0.0219 -0.2886 -0.5584
  931SOL     OW 3721   3.043   2.746   2.470  0.0815  0.4841  0.5294
  931SOL    HW1 3722   3.102   2.768   2.542 -0.0384  0.1962  1.5201
  931SOL    HW2 3723   3.088   2.680   2.419  3.0919 -2.1993 -1.7209
  931SOL     MW 3724   3.056   2.740   2.472  0.4628  0.0921  0.3632
  932SOL     OW 3725   2.919   1.866   2.487 -0.4320 -0.6367  0.1303
  932SOL    HW1 3726   3.010   1.889   2.472 -1.2161  1.7580  1.1416
  932SOL    HW2 3727   2.880   1.895   2.407  1.5493 -0.0625 -0.1885
  932SOL     MW 3728   2.926   1.873   2.474 -0.2740 -0.2450  0.2217
  933SOL     OW 3729   2.047   2.817   2.207 -0.0820  0.4478 -0.0971
  933SOL    HW1 3730   2.113   2.860   2.256 -0.8352 -1.4770 -0.9712
  933SOL    HW2 3731   1.972   2.874   2.197 -4.2741 -1.4469  0.5442
  933SOL     MW 3732   2.046   2.830   2.212 -0.7345 -0.0561 -0.1278
  934SOL     OW 3733   1.995   2.658   2.436  0.0154 -0.7645 -0.4372
  934SOL    HW1 3734   2.016   2.728   2.504  0.5620  1.1885  1.9124
  934SOL    HW2 3735   2.014   2.694   2.349 -1.6812 -2.1006  0.2336
  934SOL     MW 3736   2.001   2.672   2.434 -0.1363 -0.6831 -0.0387
  935SOL     OW 3737   2.672   1.598   1.864  0.1153  0.3751 -0.2482
  935SOL    HW1 3738   2.752   1.622   1.823  0.4843 -1.0729  1.4095
  935SOL    HW2 3739   2.634   1.550   1.796 -2.3472 -0.2490 -1.4289
  935SOL     MW 3740   2.678   1.595   1.850 -0.1609  0.1017 -0.1853
  936SOL     OW 3741   2.980   2.271   3.089  0.6127  0.0198  0.2249
  936SOL    HW1 3742   3.031   2.323   3.155 -1.2622 -1.7352  0.2459
  936SOL    HW2 3743   2.889   2.301   3.097  0.2331 -1.0953 -0.2614
  936SOL     MW 3744   2.974   2.282   3.098  0.3152 -0.3589  0.1635
  937SOL     OW 3745   2.010   2.159   2.641  0.4081  0.4118  0.8389
  937SOL    HW1 3746   2.088   2.112   2.641  2.3893  2.1900 -0.4154
  937SOL    HW2 3747   1.972   2.135   2.550 -1.5128 -0.1051 -1.0213
  937SOL     MW 3748   2.016   2.150   2.629  0.4161  0.5782  0.4280
  938SOL     OW 3749   2.279   1.775   1.921 -0.3014  0.0116 -0.0082
  938SOL    HW1 3750   2.280   1.802   1.830  1.7474 -0.2091  1.2935
  938SOL    HW2 3751   2.272   1.855   1.974 -1.4166 -1.5623  0.6278
  938SOL     MW 3752   2.278   1.790   1.916 -0.1782 -0.2251  0.2474
  939SOL     OW 3753   2.792   1.960   2.259 -0.1707 -0.0458  0.0530
  939SOL    HW1 3754   2.817   1.918   2.178 -0.5307  0.4431  0.5734
  939SOL    HW2 3755   2.706   1.931   2.265  1.0014  3.4997 -2.4264
  939SOL     MW 3756   2.784   1.950   2.249 -0.0636  0.4865 -0.2055
  940SOL     OW 3757   2.299   0.142   2.723 -0.3851 -0.3519  0.1904
  940SOL    HW1 3758   2.315   0.053   2.682 -0.2750  0.4420  0.1196
  940SOL    HW2 3759   2.339   0.142   2.811  0.5417 -1.7638 -1.9687
  940SOL     MW 3760   2.306   0.130   2.729 -0.2483 -0.4335 -0.1038
  941SOL     OW 3761   0.141   2.421   2.080  0.2969  0.0778 -0.2892
  941SOL    HW1 3762   0.234   2.388   2.073 -3.6970 -0.4773  4.0656
  941SOL    HW2 3763   0.115   2.427   1.987 -0.4003 -0.0598 -1.8166
  941SOL     MW 3764   0.150   2.418   2.067 -0.3220 -0.0136  0.0839
  942SOL     OW 3765   2.830   2.235   2.225  0.2001 -0.0477  0.8553
  942SOL    HW1 3766   2.770   2.270   2.162  1.1666 -2.6323  1.8852
  942SOL    HW2 3767   2.794   2.144   2.234 -1.2740  1.8121  0.8935
  942SOL     MW 3768   2.818   2.228   2.218  0.1332 -0.1433  0.9963
  943SOL     OW 3769   0.224   2.138   2.266 -0.2183 -0.1723  0.4668
  943SOL    HW1 3770   0.216   2.196   2.343 -0.2502 -0.1663 -0.8437
  943SOL    HW2 3771   0.313   2.090   2.274  2.0065 -0.2529  2.2679
  943SOL     MW 3772   0.235   2.140   2.277  0.0710 -0.1822  0.5315
  944SOL     OW 3773   2.106   2.639   1.981  0.4649 -0.3332  0.3461
  944SOL    HW1 3774   2.184   2.589   2.013 -0.0745  0.8229 -0.2155
  944SOL    HW2 3775   2.069   2.683   2.054 -1.4872 -0.4088  1.2426
  944SOL     MW 3776   2.111   2.638   1.994  0.1362 -0.1907  0.3903
  945SOL     OW 3777   2.783   2.675   2.902  0.4621 -0.0720 -0.1553
  945SOL    HW1 3778   2.761   2.584   2.905  1.4853  2.7285  0.1079
  945SOL    HW2 3779   2.779   2.695   2.809  1.0252 -1.4175 -2.8637
  945SOL     MW 3780   2.780   2.665   2.890  0.6714  0.1200 -0.4779
  946SOL     OW 3781   2.447   2.701   2.253 -0.0009  0.1238  0.4680
  946SOL    HW1 3782   2.479   2.750   2.183 -0.4241  3.0903  1.3686
  946SOL    HW2 3783   2.412   2.628   2.203  1.6050 -2.9373 -2.4914
  946SOL     MW 3784   2.447   2.698   2.237  0.1551  0.1113  0.1964
  947SOL     OW 3785   1.971   0.020   0.269 -0.0402 -0.7661 -0.2888
  947SOL    HW1 3786   1.998  -0.046   0.212 -1.5685  0.7422  3.2557
  947SOL    HW2 3787   2.041   0.025   0.340  1.9785 -0.6435 -1.3725
  947SOL     MW 3788   1.983   0.012   0.271  0.0245 -0.5509  0.0358
  948SOL     OW 3789   1.787   3.005   2.663 -0.3688  0.2309  0.8538
  948SOL    HW1 3790   1.863   2.952   2.658  1.1440  1.6702 -2.7142
  948SOL    HW2 3791   1.775   3.045   2.575 -0.7012 -1.1835  1.7658
  948SOL     MW 3792   1.796   3.003   2.651 -0.2131  0.2342  0.5033
  949SOL     OW 3793   2.520   1.927   2.343  0.3422  0.4723 -0.2548
  949SOL    HW1 3794   2.513   1.836   2.368  1.1519  0.3290  1.3970
  949SOL    HW2 3795   2.434   1.968   2.353 -1.0794  0.3451  1.3549
  949SOL     MW 3796   2.507   1.920   2.347  0.2614  0.4366  0.1755
  950SOL     OW 3797   2.299   2.582   2.932 -0.6002  0.4669  0.3339
  950SOL    HW1 3798   2.344   2.522   2.870 -0.9473 -0.3454  0.8305
  950SOL    HW2 3799   2.223   2.609   2.879  0.9469 -2.1489  1.5440
  950SOL     MW 3800   2.295   2.578   2.916 -0.4419  0.0146  0.5591
  951SOL     OW 3801   3.060   2.163   2.859  0.1143  0.4949  0.0061
  951SOL    HW1 3802   3.046   2.198   2.952  3.8495 -0.0355 -1.3399
  951SOL    HW2 3803   3.084   2.070   2.872  1.1066 -0.3300 -2.2172
  951SOL     MW 3804   3.062   2.155   2.873  0.7380  0.3161 -0.4649
  952SOL     OW 3805   3.072   1.656   2.114  0.3576 -0.4644 -0.2501
  952SOL    HW1 3806   3.006   1.701   2.062 -0.7282  0.9375 -0.8081
  952SOL    HW2 3807   3.118   1.719   2.167 -0.8888  0.5691  1.0000
  952SOL     MW 3808   3.070   1.670   2.114  0.0499 -0.1431 -0.1588
  953SOL     OW 3809   1.944   1.759   2.916 -0.0693  0.4178 -0.4549
  953SOL    HW1 3810   1.875   1.721   2.975 -1.0419 -0.7772  1.3194
  953SOL    HW2 3811   1.954   1.708   2.839  0.0779 -0.2707 -0.4530
  953SOL     MW 3812   1.936   1.747   2.914 -0.1782  0.1693 -0.2205
  954SOL     OW 3813   2.453   2.126   2.883 -0.5191  0.0609  0.3130
  954SOL    HW1 3814   2.363   2.122   2.845  3.4256 -2.3101 -0.0052
  954SOL    HW2 3815   2.498   2.069   2.818 -3.3256 -2.3288 -0.6050
  954SOL     MW 3816   2.448   2.118   2.870 -0.3689 -0.5672  0.1499
  955SOL     OW 3817   1.539   1.621   2.535 -0.2737  0.0676 -0.0250
  955SOL    HW1 3818   1.507   1.625   2.444  0.4502  5.3180  1.2847
  955SOL    HW2 3819   1.636   1.652   2.522  3.6363 -0.8619 -0.2272
  955SOL     MW 3820   1.548   1.626   2.521  0.3377  0.6377  0.1211
  956SOL     OW 3821   2.722   2.404   2.832  0.0224  0.6432 -0.3329
  956SOL    HW1 3822   2.708   2.375   2.916  3.9816  2.1687 -2.6586
  956SOL    HW2 3823   2.808   2.385   2.797 -0.8334 -0.8189  0.4758
  956SOL     MW 3824   2.732   2.398   2.838  0.4319  0.6516 -0.5330
  957SOL     OW 3825   2.222   2.902   0.463 -0.1750  0.2867 -0.1179
  957SOL    HW1 3826   2.149   2.879   0.409 -1.1623  4.5208 -0.5794
  957SOL    HW2 3827   2.230   2.844   0.539  3.4575  3.6298  0.1462
  957SOL     MW 3828   2.213   2.891   0.466  0.1740  1.2864 -0.1440
  958SOL     OW 3829   2.052   2.645   2.852 -0.3376  0.3131 -0.2881
  958SOL    HW1 3830   2.026   2.576   2.796  0.9273  3.2562  0.2455
  958SOL    HW2 3831   2.003   2.622   2.932 -0.3966  0.9027 -3.5497
  958SOL     MW 3832   2.042   2.633   2.855 -0.1785  0.7792 -0.6480
  959SOL     OW 3833   2.502   2.760   0.405  0.2737  0.8226  0.2709
  959SOL    HW1 3834   2.530   2.804   0.331 -0.4529 -1.4370  0.5623
  959SOL    HW2 3835   2.419   2.801   0.427  0.4269 -2.7958 -0.8637
  959SOL     MW 3836   2.494   2.772   0.398  0.1981  0.0471  0.1596
  960SOL     OW 3837   1.891   2.316   2.313  0.5295 -0.1201  0.3217
  960SOL    HW1 3838   1.893   2.219   2.321 -1.4725  0.8072 -0.0576
  960SOL    HW2 3839   1.847   2.357   2.388  0.6658  0.3532  0.1908
  960SOL     MW 3840   1.885   2.309   2.324  0.2834  0.0647  0.2544
  961SOL     OW 3841   2.169   2.332   2.267 -0.0221  0.0982 -0.0438
  961SOL    HW1 3842   2.077   2.328   2.234  0.4864 -0.4547 -0.0620
  961SOL    HW2 3843   2.168   2.398   2.333  1.5450 -0.7043  0.4754
  961SOL     MW 3844   2.156   2.340   2.272  0.2517 -0.0807  0.0223
  962SOL     OW 3845   2.219   2.019   2.778  1.0792 -0.0187 -0.2326
  962SOL    HW1 3846   2.173   1.986   2.859 -1.3396  2.9198 -0.3135
  962SOL    HW2 3847   2.266   1.937   2.751  1.4225  1.8660  2.3276
  962SOL     MW 3848   2.219   2.004   2.785  0.8054  0.6177  0.0945
  963SOL     OW 3849   1.800   2.488   2.141  0.0096 -0.4869  0.6219
  963SOL    HW1 3850   1.824   2.417   2.198  1.1785 -0.3533 -1.1021
  963SOL    HW2 3851   1.859   2.470   2.067  0.4239  1.1481  0.2323
  963SOL     MW 3852   1.811   2.476   2.138  0.2185 -0.2536  0.3430
  964SOL     OW 3853   1.807   1.952   2.722  0.2304  0.6550  0.3948
  964SOL    HW1 3854   1.874   2.019   2.712  0.0076 -2.4998  0.5821
  964SOL    HW2 3855   1.857   1.888   2.776 -1.2503  1.5469  0.0824
  964SOL     MW 3856   1.822   1.953   2.728  0.0057  0.3564  0.3783
  965SOL     OW 3857   2.279   2.708   0.638 -0.3885  0.5819  0.1846
  965SOL    HW1 3858   2.269   2.613   0.624  0.4714  0.8930 -1.2071
  965SOL    HW2 3859   2.332   2.731   0.714  1.1385 -0.6734 -1.0792
  965SOL     MW 3860   2.284   2.699   0.646 -0.0736  0.4573 -0.1657
  966SOL     OW 3861   2.662   2.594   2.394  0.1042  0.2570 -0.2239
  966SOL    HW1 3862   2.592   2.623   2.325 -0.9734  0.1943 -1.7199
  966SOL    HW2 3863   2.671   2.495   2.411  1.6238 -1.6614 -2.9285
  966SOL     MW 3864   2.654   2.585   2.387  0.1625 -0.0044 -0.7781
  967SOL     OW 3865   2.814   3.073   2.932  0.3563 -0.1458  0.4190
  967SOL    HW1 3866   2.796   2.993   2.991 -2.7582  1.1832  1.4634
  967SOL    HW2 3867   2.737   3.068   2.879  0.2236 -4.3748  0.6485
  967SOL     MW 3868   2.802   3.061   2.933 -0.0721 -0.5285  0.5871
  968SOL     OW 3869   3.025   2.622   2.993 -0.0064 -0.2257  0.5903
  968SOL    HW1 3870   2.937   2.656   2.968 -0.1108 -0.0656 -0.5108
  968SOL    HW2 3871   3.062   2.564   2.917 -2.0532 -0.0555 -1.1107
  968SOL     MW 3872   3.018   2.619   2.979 -0.2902 -0.1821  0.2206
  969SOL     OW 3873   1.614   2.177   1.678  0.0952  0.5348 -0.0465
  969SOL    HW1 3874   1.691   2.122   1.690 -1.1650 -1.0876 -0.9175
  969SOL    HW2 3875   1.566   2.184   1.764 -1.5987 -1.4830  0.7330
  969SOL     MW 3876   1.618   2.170   1.691 -0.2946  0.0545 -0.0586
  970SOL     OW 3877   1.780   1.830   1.914  0.3929 -0.2740  0.0986
  970SOL    HW1 3878   1.841   1.761   1.936 -0.5007  2.1068 -1.5436
  970SOL    HW2 3879   1.691   1.803   1.921 -0.3395  2.1978 -1.3011
  970SOL     MW 3880   1.776   1.817   1.918  0.1784  0.3663 -0.3027
  971SOL     OW 3881   1.785   3.091   2.411 -0.3542 -0.5721  0.0145
  971SOL    HW1 3882   1.807   3.068   2.316  1.1979 -2.2011 -2.2203
  971SOL    HW2 3883   1.834   3.172   2.436 -0.5258 -1.1672 -1.3288
  971SOL     MW 3884   1.795   3.099   2.401 -0.1721 -0.8655 -0.4576
  972SOL     OW 3885   0.258   2.889   2.480 -0.0199 -0.5317  0.0834
  972SOL    HW1 3886   0.317   2.813   2.497  1.5434  1.6967 -0.0558
  972SOL    HW2 3887   0.308   2.973   2.499  1.9596  1.4287  0.6048
  972SOL     MW 3888   0.272   2.890   2.485  0.4476  0.0209  0.1338
  973SOL     OW 3889   2.614   3.097   2.087 -0.0406 -0.9332  0.6395
  973SOL    HW1 3890   2.595   3.006   2.053 -0.1614  1.1102  0.8595
  973SOL    HW2 3891   2.607   3.150   2.006 -1.3846 -0.8705  3.2647
  973SOL     MW 3892   2.611   3.092   2.072 -0.2339 -0.6553  1.0149
  974SOL     OW 3893   2.041   0.173   2.716 -0.0900 -0.3504 -0.5177
  974SOL    HW1 3894   2.139   0.171   2.713 -1.3893  0.3856  2.1406
  974SOL    HW2 3895   2.017   0.103   2.774  0.1914 -1.7585 -0.6218
  974SOL     MW 3896   2.051   0.164   2.723 -0.2243 -0.4390 -0.1807
  975SOL     OW 3897   2.196   2.492   2.502  0.0119 -0.2607 -0.4750
  975SOL    HW1 3898   2.276   2.540   2.528 -0.3910 -0.8941  0.3731
  975SOL    HW2 3899   2.122   2.556   2.475 -2.2615 -1.5489  2.2566
  975SOL     MW 3900   2.197   2.507   2.502 -0.3412 -0.5143 -0.0027
  976SOL     OW 3901   0.163   0.399   1.755 -0.2567  0.8035 -0.2589
  976SOL    HW1 3902   0.245   0.341   1.775  1.1953 -0.0543 -1.6421
  976SOL    HW2 3903   0.087   0.336   1.743 -1.6580 -1.3436 -1.0925
  976SOL     MW 3904   0.164   0.383   1.756 -0.2500  0.4070 -0.5514
  977SOL     OW 3905   1.710   2.693   2.516 -0.5970  0.1840 -0.0158
  977SOL    HW1 3906   1.722   2.598   2.546  0.4922 -1.6457 -2.4003
  977SOL    HW2 3907   1.789   2.707   2.461 -0.5606 -0.3752 -3.4727
  977SOL     MW 3908   1.722   2.682   2.512 -0.4485 -0.1312 -0.7865
   3.10000   3.10000   3.10000
